chitosan Film  in water:acetic acid 2%
24181
    1CHTO  H203    1   5.974   6.904   2.163  2.2594  2.9701  3.4914
    1CHTO   O82    2   5.965   6.819   2.200 -0.7552  1.2313 -0.7271
    1CHTO  C123    3   6.047   6.791   2.311 -0.8453 -0.9842 -0.2759
    1CHTO  H227    4   6.049   6.873   2.384  1.2403 -1.3623  0.1371
    1CHTO   O77    5   5.990   6.668   2.368 -0.2821 -0.3783  0.3211
    1CHTO  C118    6   6.056   6.602   2.479  0.1257  0.5916  0.4473
    1CHTO  H222    7   6.080   6.670   2.561 -0.1632  0.4490  0.6516
    1CHTO  C125    8   5.961   6.487   2.523 -0.2585 -0.3508  0.4197
    1CHTO   O84    9   5.848   6.544   2.600  0.2945 -0.8119 -0.1704
    1CHTO  H205   10   5.765   6.514   2.568 -0.1685 -0.1055  0.3621
    1CHTO  C114   11   6.187   6.558   2.416 -0.4301 -0.1796 -0.4787
    1CHTO  H218   12   6.169   6.508   2.321  1.1324 -0.8667 -0.4241
    1CHTO  C116   13   6.279   6.679   2.381 -0.4131  0.3355 -0.2474
    1CHTO  H220   14   6.296   6.741   2.472  2.4999  0.2001 -0.6797
    1CHTO   O79   15   6.409   6.633   2.342 -0.1959  0.8669 -0.3403
    1CHTO  H201   16   6.418   6.650   2.250  0.6183 -0.6792 -0.5698
    1CHTO  C120   17   6.201   6.762   2.272 -0.1506 -0.1105  0.0081
    1CHTO  H224   18   6.213   6.697   2.182  1.0848 -0.5072  0.4405
    1CHTO   N21   19   6.285   6.883   2.253  0.3164 -0.1739 -0.6655
    1CHTO  H211   20   6.368   6.872   2.186  1.4082  1.8549  0.3177
    1CHTO  H212   21   6.221   6.965   2.225 -1.1846 -0.9755  0.3013
    1CHTO   O75   22   6.236   6.475   2.520  0.1083 -0.1735  0.5344
    1CHTO  C112   23   6.309   6.345   2.475  0.5237 -0.1175  0.2355
    1CHTO  H216   24   6.370   6.364   2.385  0.3443  0.5694  0.2546
    1CHTO   O73   25   6.207   6.248   2.458 -0.0239 -0.3284 -0.5520
    1CHTO  C113   26   6.238   6.112   2.421  0.4842 -0.3139  0.4322
    1CHTO  H217   27   6.293   6.115   2.324 -0.8802  0.7422 -0.3238
    1CHTO  C124   28   6.106   6.031   2.401 -0.7468 -0.1690 -0.1733
    1CHTO   O83   29   6.013   6.027   2.513 -0.5150  0.3845  0.2245
    1CHTO  H204   30   5.952   5.958   2.493 -0.3290  0.7567 -1.7145
    1CHTO  C109   31   6.329   6.047   2.525  0.0089 -0.3288  0.2140
    1CHTO  H213   32   6.266   6.038   2.615 -3.0059  1.1105 -1.6803
    1CHTO  C110   33   6.450   6.135   2.551  0.5867 -0.2992 -0.2779
    1CHTO  H214   34   6.509   6.126   2.460 -1.8513 -0.9028 -1.8456
    1CHTO   O78   35   6.536   6.077   2.656 -0.1851  0.3950 -0.1761
    1CHTO  H200   36   6.612   6.035   2.621 -0.4925 -0.7291  0.4965
    1CHTO  C111   37   6.408   6.286   2.586  0.1148 -0.6824  0.2756
    1CHTO  H215   38   6.354   6.292   2.681  1.4200  1.7185  0.9143
    1CHTO   N19   39   6.527   6.375   2.604  0.6573  0.4087  0.2841
    1CHTO  H207   40   6.567   6.410   2.510  1.1477 -2.9893 -0.8346
    1CHTO  H208   41   6.495   6.463   2.657 -2.5909  0.1024 -1.0115
    1CHTO   O74   42   6.359   5.918   2.473  0.3867  0.2214 -0.4818
    1CHTO  C115   43   6.426   5.805   2.549 -0.1541 -0.5067 -0.8655
    1CHTO  H219   44   6.413   5.814   2.657  1.1853 -2.0877 -0.5453
    1CHTO   O76   45   6.352   5.657   2.514 -0.2623 -0.0195 -0.5031
    1CHTO  C122   46   6.344   5.638   2.370 -0.1202  0.1185  0.4270
    1CHTO  H226   47   6.256   5.696   2.345  0.1148  0.2731 -0.0517
    1CHTO  C126   48   6.314   5.482   2.326 -0.0914 -0.2925 -0.7253
    1CHTO   O85   49   6.289   5.478   2.186 -0.0329 -0.1365  0.4258
    1CHTO  H206   50   6.285   5.388   2.159 -1.7582  1.1616 -4.1170
    1CHTO  C121   51   6.472   5.695   2.283 -0.5384 -0.3691 -0.1322
    1CHTO  H225   52   6.494   5.622   2.203  0.5613  0.6250 -0.7528
    1CHTO   O81   53   6.435   5.825   2.220  0.6108  0.1061 -0.5470
    1CHTO  H202   54   6.433   5.887   2.290  0.8022 -0.7313  0.2224
    1CHTO  C119   55   6.592   5.713   2.379 -0.0875 -0.4255  0.2450
    1CHTO  H223   56   6.610   5.610   2.407  1.5193 -0.7212 -1.7731
    1CHTO  C117   57   6.578   5.803   2.509 -0.4750  0.1019  0.9976
    1CHTO  H221   58   6.614   5.902   2.481  1.5803 -0.7998  0.3260
    1CHTO   N20   59   6.666   5.763   2.630  0.5160  0.1467 -0.1495
    1CHTO  H209   60   6.628   5.796   2.726 -0.1504  1.1433 -0.7379
    1CHTO  H210   61   6.692   5.659   2.633 -0.3937 -0.0728  0.0211
    1CHTO   O80   62   6.721   5.747   2.303  0.5570  0.0758  0.2247
    1CHTO  C103   63   6.854   5.668   2.325 -0.3128  0.3704 -0.1150
    1CHTO  H190   64   6.862   5.625   2.424 -1.1714 -1.4506 -0.8134
    1CHTO  C101   65   6.865   5.541   2.231 -0.1471 -0.0884 -0.4391
    1CHTO  H188   66   6.834   5.564   2.129 -0.6824 -0.2283 -0.3086
    1CHTO   O68   67   6.762   5.444   2.265  0.1499 -0.2817  0.8210
    1CHTO  H168   68   6.786   5.366   2.219  0.6083 -0.6357  1.6301
    1CHTO   C99   69   7.008   5.472   2.243 -0.3862 -0.8084 -0.6940
    1CHTO  H186   70   7.025   5.438   2.347 -1.2340  2.7289  0.6676
    1CHTO   N17   71   7.038   5.355   2.146 -0.8424  0.5595 -0.2901
    1CHTO  H174   72   7.135   5.320   2.177 -0.9191  2.0167  1.6514
    1CHTO  H175   73   6.958   5.284   2.155  0.5342 -0.8010  1.6420
    1CHTO   C97   74   7.121   5.580   2.217 -0.7785  0.0121 -0.5262
    1CHTO  H184   75   7.119   5.608   2.110 -1.9407 -0.9907 -0.7798
    1CHTO   O64   76   7.098   5.695   2.305  0.4660 -0.3825 -0.2676
    1CHTO  C104   77   6.974   5.766   2.301 -0.5092  1.2591 -0.6535
    1CHTO  H191   78   6.956   5.808   2.202 -2.9415  0.2216 -0.6872
    1CHTO  C108   79   6.979   5.878   2.407  0.4699  0.6520  0.4642
    1CHTO   O71   80   7.053   5.996   2.352  0.4281 -0.3249  0.7800
    1CHTO  H171   81   7.127   5.961   2.307 -0.6560 -0.4171 -0.9975
    1CHTO   O62   82   7.255   5.537   2.260  0.5852  0.0510 -0.5901
    1CHTO   C91   83   7.364   5.595   2.192  0.0392  0.0942 -0.1431
    1CHTO  H178   84   7.315   5.678   2.141 -0.5238 -0.9977 -1.4376
    1CHTO   C92   85   7.402   5.495   2.075  0.9822  0.0530 -0.7583
    1CHTO  H179   86   7.307   5.458   2.032  0.7950 -1.3972  0.7944
    1CHTO   O66   87   7.473   5.565   1.970 -0.2899 -0.0199 -0.1502
    1CHTO  H166   88   7.423   5.554   1.892 -2.8199  0.3557  1.3442
    1CHTO   C93   89   7.503   5.378   2.116 -0.6065  0.7776 -0.8150
    1CHTO  H180   90   7.545   5.333   2.024 -0.3993 -1.5048  0.3607
    1CHTO   N16   91   7.423   5.266   2.178 -0.5282 -0.2052 -0.1191
    1CHTO  H172   92   7.490   5.202   2.234  0.9643  1.1294 -0.3508
    1CHTO  H173   93   7.374   5.205   2.103  1.9655 -1.4158 -0.8020
    1CHTO   C94   94   7.618   5.429   2.205  0.0075  0.4552 -0.0930
    1CHTO  H181   95   7.672   5.346   2.251  0.5453  0.1082 -1.3410
    1CHTO   O61   96   7.578   5.529   2.306  0.0066 -0.6833  0.3294
    1CHTO   C95   97   7.488   5.635   2.283  0.8332  0.0518 -0.0816
    1CHTO  H182   98   7.441   5.654   2.380 -0.7110 -2.5169 -0.3008
    1CHTO  C106   99   7.563   5.766   2.235 -0.4302  0.0255  0.8425
    1CHTO   O69  100   7.687   5.798   2.306  0.3338 -0.2875  0.2696
    1CHTO  H169  101   7.704   5.889   2.294 -0.2418  0.0524  1.9217
    1CHTO   O63  102   7.720   5.517   2.110  0.1039 -0.3021  0.0677
    1CHTO   C96  103   7.849   5.492   2.144  0.5224 -0.0468 -0.2228
    1CHTO  H183  104   7.856   5.444   2.241 -1.3601  0.7974  0.3458
    1CHTO   C98  105   7.945   5.615   2.144 -0.5892  0.4852  0.6985
    1CHTO  H185  106   7.912   5.704   2.199 -0.4072  0.2113  1.2564
    1CHTO   O67  107   8.067   5.574   2.211 -0.4809  0.0561 -0.1401
    1CHTO  H167  108   8.147   5.586   2.163 -0.1924 -0.1678  0.2745
    1CHTO  C102  109   7.980   5.662   1.997  0.4745 -0.1807  0.6782
    1CHTO  H189  110   8.070   5.724   2.007  0.0784  0.2176  1.8700
    1CHTO   N18  111   7.886   5.749   1.920  0.2349  0.4842 -0.3343
    1CHTO  H176  112   7.856   5.837   1.975  0.6962 -0.6104  1.6807
    1CHTO  H177  113   7.943   5.793   1.839  0.0774  3.6865  1.2310
    1CHTO  C105  114   8.023   5.541   1.907  0.2260  0.0028  0.2269
    1CHTO  H192  115   8.018   5.565   1.801 -0.5832 -2.2838 -0.2891
    1CHTO   O65  116   7.940   5.421   1.912 -0.1763 -0.6010 -0.4127
    1CHTO  C100  117   7.893   5.378   2.043 -0.2092  0.0394  0.4535
    1CHTO  H187  118   7.802   5.319   2.024  0.7866 -1.1573 -0.6955
    1CHTO  C107  119   7.988   5.276   2.104 -0.6339  0.0309  0.2249
    1CHTO   O70  120   8.015   5.146   2.036 -0.2222 -0.2574  0.2835
    1CHTO  H170  121   7.932   5.103   2.036 -1.1918  1.5677  0.2391
    1CHTO   O57  122   8.170   5.506   1.950 -0.1557  0.0955 -0.6575
    1CHTO   C85  123   8.265   5.434   1.868 -0.3554  0.0343  0.4856
    1CHTO  H157  124   8.220   5.410   1.770 -0.7180 -1.5273  1.0261
    1CHTO   C83  125   8.299   5.302   1.930 -0.6993  0.5282  0.6424
    1CHTO  H155  126   8.219   5.228   1.925 -1.1248  0.9876  0.6814
    1CHTO   O56  127   8.324   5.318   2.071 -0.0533 -0.2211 -0.4204
    1CHTO  H135  128   8.392   5.259   2.096 -0.6575 -1.2069 -1.0526
    1CHTO   C81  129   8.419   5.233   1.850 -0.0557  0.8072 -0.3144
    1CHTO  H153  130   8.381   5.220   1.749  0.9800  0.1647 -0.6294
    1CHTO   N14  131   8.444   5.091   1.895 -0.4410 -0.2154 -0.0116
    1CHTO  H141  132   8.446   5.096   2.002 -0.3391 -4.0463  0.2333
    1CHTO  H142  133   8.363   5.028   1.865  0.1248 -0.6595 -0.6245
    1CHTO   C79  134   8.542   5.329   1.849 -0.5743  0.6081  0.5862
    1CHTO  H151  135   8.620   5.275   1.795 -0.1683  1.5768  0.1982
    1CHTO   O52  136   8.511   5.455   1.784  0.2546 -0.6248  0.1798
    1CHTO   C86  137   8.395   5.532   1.852 -0.1252 -0.0892  0.1206
    1CHTO  H158  138   8.432   5.553   1.955 -2.5042  0.8290  0.8305
    1CHTO   C90  139   8.369   5.665   1.783  0.3776  0.2524 -0.2693
    1CHTO   O60  140   8.318   5.634   1.655  0.1087  0.4626  0.0381
    1CHTO  H138  141   8.244   5.690   1.644 -0.0646  0.1045 -0.6468
    1CHTO   O50  142   8.612   5.354   1.976 -0.3122 -0.3024  0.5067
    1CHTO   C73  143   8.728   5.405   2.051 -0.1270  0.3879  0.2054
    1CHTO  H145  144   8.777   5.485   1.994  0.7669 -0.1428  0.2109
    1CHTO   C74  145   8.832   5.283   2.067  0.3261 -0.2756 -1.0308
    1CHTO  H146  146   8.852   5.234   1.971  2.1646 -1.7188  0.0649
    1CHTO   O54  147   8.954   5.344   2.114  0.4781 -0.6291  0.2524
    1CHTO  H133  148   8.941   5.376   2.201  1.5782 -1.7498  0.8481
    1CHTO   C75  149   8.764   5.178   2.166  0.4448 -0.2177 -0.1631
    1CHTO  H147  150   8.678   5.128   2.120 -0.0940  1.1724 -0.6733
    1CHTO   N13  151   8.855   5.066   2.205  0.0204 -0.2609 -0.1807
    1CHTO  H139  152   8.898   5.021   2.117  0.5009 -0.5250  0.1892
    1CHTO  H140  153   8.807   4.994   2.270  1.1394 -1.1319 -0.3253
    1CHTO   C76  154   8.694   5.249   2.298 -0.4192 -0.2465  0.1818
    1CHTO  H148  155   8.777   5.271   2.365 -0.6797  0.8326  0.1471
    1CHTO   O49  156   8.614   5.368   2.258  0.1490  0.2099  0.4146
    1CHTO   C77  157   8.687   5.464   2.184 -0.1796 -0.0879  0.1902
    1CHTO  H149  158   8.775   5.498   2.239 -1.5425  2.0979  1.0376
    1CHTO   C88  159   8.612   5.592   2.157 -0.4627  0.6833  0.5152
    1CHTO   O58  160   8.557   5.646   2.270  0.1675 -0.0706  0.0105
    1CHTO  H136  161   8.516   5.728   2.252 -1.1745 -0.1151  2.5350
    1CHTO   O51  162   8.582   5.140   2.372 -0.5127 -0.0273 -0.6998
    1CHTO   C78  163   8.502   5.211   2.475 -0.4612  0.6185  1.0258
    1CHTO  H150  164   8.481   5.317   2.449 -1.8581  0.8311  2.8460
    1CHTO   C80  165   8.575   5.211   2.610 -0.0376 -0.0030 -0.0196
    1CHTO  H152  166   8.585   5.105   2.641  1.1714  0.5957  1.7586
    1CHTO   O55  167   8.707   5.264   2.602 -0.9083 -0.7396 -0.7356
    1CHTO  H134  168   8.712   5.356   2.588  2.1500 -0.8141 -0.5102
    1CHTO   C84  169   8.498   5.293   2.723  0.8341 -0.0323  0.0580
    1CHTO  H156  170   8.516   5.399   2.705 -1.4434  0.4620  0.5256
    1CHTO   N15  171   8.555   5.273   2.864  0.0385 -0.2314  0.3058
    1CHTO  H143  172   8.580   5.170   2.878  5.1556  0.9897  1.0262
    1CHTO  H144  173   8.644   5.333   2.870  0.1136 -0.4094  0.9768
    1CHTO   C87  174   8.343   5.266   2.716  0.5224 -0.1887  0.4415
    1CHTO  H159  175   8.321   5.182   2.781 -1.9877  0.0592 -0.0130
    1CHTO   O53  176   8.290   5.242   2.580  0.1946 -0.0234 -0.1955
    1CHTO   C82  177   8.362   5.152   2.490  0.2893 -0.0517 -0.5388
    1CHTO  H154  178   8.361   5.051   2.532  1.2490  0.5877  1.0889
    1CHTO   C89  179   8.277   5.152   2.363 -0.4524 -0.0459  0.1495
    1CHTO   O59  180   8.151   5.087   2.382 -0.5836  0.2797 -0.1307
    1CHTO  H137  181   8.138   4.997   2.358  0.7112 -0.8762  3.1279
    1CHTO   O45  182   8.257   5.401   2.793 -0.8118 -0.4934 -0.2417
    1CHTO   C67  183   8.242   5.515   2.709 -0.2611  1.1820  0.4391
    1CHTO  H124  184   8.328   5.520   2.641  0.2018  1.7596  1.0626
    1CHTO   C65  185   8.113   5.495   2.618  0.9519  0.4449  0.0495
    1CHTO  H122  186   8.066   5.400   2.645  1.1432  0.1276 -0.7179
    1CHTO   O44  187   8.156   5.488   2.483  0.1903 -0.2932  0.2911
    1CHTO  H102  188   8.207   5.562   2.455  1.1696 -1.7074 -1.7812
    1CHTO   C63  189   8.007   5.616   2.642  0.5400  0.1234 -0.5414
    1CHTO  H120  190   7.972   5.617   2.745  0.2731 -1.8295 -0.5924
    1CHTO   N11  191   7.879   5.606   2.566 -0.2613 -0.2035  0.3848
    1CHTO  H108  192   7.896   5.578   2.464 -2.9689 -3.3925  0.7037
    1CHTO  H109  193   7.807   5.544   2.616 -0.9188  0.4727  0.2868
    1CHTO   C61  194   8.086   5.758   2.641  1.0607  0.1145  0.4443
    1CHTO  H118  195   8.020   5.832   2.688  0.0470  0.2322 -1.1256
    1CHTO   O40  196   8.208   5.758   2.706 -0.7263 -0.2574 -0.2985
    1CHTO   C68  197   8.248   5.645   2.790 -0.4870 -0.2426  0.3589
    1CHTO  H125  198   8.177   5.635   2.875 -1.0117 -0.9666 -0.1665
    1CHTO   C72  199   8.391   5.670   2.849  0.3204  0.1682 -0.1328
    1CHTO   O48  200   8.418   5.583   2.962 -0.4094 -0.1300  0.7463
    1CHTO  H105  201   8.468   5.634   3.023  0.8427 -0.6230  0.1605
    1CHTO   O38  202   8.106   5.803   2.507 -0.4085  0.1247  0.0161
    1CHTO   C55  203   8.098   5.943   2.473  0.0695 -0.3574 -0.0632
    1CHTO  H112  204   8.086   5.994   2.570 -0.6930 -0.1281 -0.2708
    1CHTO   C56  205   7.966   5.961   2.384  0.0881 -0.5500  0.3011
    1CHTO  H113  206   7.948   5.869   2.327 -1.7984 -0.5096  0.8203
    1CHTO   O42  207   7.859   5.972   2.479 -0.0352  0.4823 -0.8197
    1CHTO  H100  208   7.842   5.891   2.523 -0.0696  0.8526 -0.1430
    1CHTO   C57  209   7.975   6.090   2.288  0.4976 -0.1518 -0.2584
    1CHTO  H114  210   7.877   6.139   2.284  0.9122  0.7404  0.3112
    1CHTO   N10  211   8.005   6.065   2.149  0.1749  0.3049 -0.0700
    1CHTO  H106  212   7.917   6.071   2.087  0.1564 -0.6362 -0.1460
    1CHTO  H107  213   8.046   5.965   2.142 -1.0879 -0.2993  0.9514
    1CHTO   C58  214   8.076   6.196   2.344  0.2692 -0.2440  0.1409
    1CHTO  H115  215   8.095   6.279   2.272 -0.6507 -1.9185 -2.0856
    1CHTO   O37  216   8.202   6.136   2.367 -0.0710 -0.0020 -0.4160
    1CHTO   C59  217   8.223   6.003   2.409 -0.6277 -0.0829  0.0210
    1CHTO  H116  218   8.258   5.945   2.324  1.4893  0.3774  0.5591
    1CHTO   C70  219   8.333   5.998   2.510  1.2257 -0.6266  0.5219
    1CHTO   O46  220   8.463   6.022   2.448  0.5327  0.3003  0.1810
    1CHTO  H103  221   8.515   5.944   2.446 -1.0071 -0.7515 -0.1001
    1CHTO   O39  222   8.034   6.263   2.485 -0.1881  0.5523  0.4175
    1CHTO   C60  223   7.938   6.372   2.476 -0.1889 -0.7282 -0.4418
    1CHTO  H117  224   7.907   6.398   2.375  0.6517  1.8711 -0.0644
    1CHTO   C62  225   7.803   6.325   2.537  0.1152 -0.8060  0.1330
    1CHTO  H119  226   7.769   6.240   2.474 -0.6580 -1.9974  2.1072
    1CHTO   O43  227   7.820   6.281   2.673 -0.6052 -0.1128 -0.0670
    1CHTO  H101  228   7.875   6.204   2.673 -0.1425  0.1783 -2.5588
    1CHTO   C66  229   7.692   6.445   2.529 -0.2708  0.5117  0.0572
    1CHTO  H123  230   7.689   6.485   2.427 -0.1170  0.3683 -0.0042
    1CHTO   N12  231   7.553   6.400   2.571 -0.0016 -0.4524  0.1897
    1CHTO  H110  232   7.546   6.418   2.677 -1.3147  1.3442 -0.1680
    1CHTO  H111  233   7.475   6.457   2.522  1.4413  0.4608 -1.0593
    1CHTO   C69  234   7.753   6.564   2.609 -0.1242  1.2563  0.4369
    1CHTO  H126  235   7.784   6.538   2.712 -0.7319  1.1000  0.5795
    1CHTO   O41  236   7.894   6.611   2.537 -0.2438  0.7040 -0.6327
    1CHTO   C64  237   7.993   6.496   2.543 -0.4050  0.4816  0.3953
    1CHTO  H121  238   8.011   6.462   2.647 -1.4995  0.9980  0.7671
    1CHTO   C71  239   8.128   6.541   2.485 -0.2612 -0.2708 -0.3721
    1CHTO   O47  240   8.177   6.660   2.547 -0.2343  0.5681 -0.0938
    1CHTO  H104  241   8.204   6.643   2.635  0.5569  1.6591 -0.1132
    1CHTO   O34  242   7.663   6.700   2.622 -0.0848  0.0094  0.1612
    1CHTO   C49  243   7.684   6.837   2.578 -0.4545  0.3705  0.1458
    1CHTO   H91  244   7.736   6.828   2.483  0.1916  0.7312  0.4636
    1CHTO   C47  245   7.766   6.917   2.678  0.1693 -0.9534 -0.1512
    1CHTO   H89  246   7.790   7.014   2.628 -1.2628 -0.5701 -0.1113
    1CHTO   O33  247   7.887   6.845   2.691 -0.3099  0.0022 -0.3626
    1CHTO   H70  248   7.929   6.849   2.607  0.4121  1.1416  0.0349
    1CHTO   C45  249   7.680   6.933   2.810 -0.2593  0.5123  0.0296
    1CHTO   H87  250   7.649   6.833   2.844 -0.5192  1.0928  1.5393
    1CHTO    N8  251   7.757   6.991   2.925 -0.8536 -0.2222  0.2810
    1CHTO   H75  252   7.851   6.937   2.931  0.3740  1.9070  0.8494
    1CHTO   H76  253   7.775   7.096   2.903  3.0453 -0.7916  0.3419
    1CHTO   C43  254   7.546   7.009   2.782  0.0324 -1.3576  0.8546
    1CHTO   H85  255   7.496   6.998   2.878  2.5384  0.3842  2.4392
    1CHTO   O29  256   7.480   6.932   2.679  0.1216 -0.0785  0.8112
    1CHTO   C50  257   7.547   6.914   2.556  0.2878 -0.0914  0.3553
    1CHTO   H92  258   7.485   6.843   2.498 -2.9176 -0.1674  3.6979
    1CHTO   C54  259   7.557   7.036   2.468  0.2124 -0.9405 -0.6859
    1CHTO   O36  260   7.426   7.084   2.423  0.0014  0.1422 -0.2383
    1CHTO   H72  261   7.392   7.147   2.484 -0.9807  0.3773 -1.0317
    1CHTO   O27  262   7.562   7.149   2.750  0.0952  0.4440 -0.1621
    1CHTO   C37  263   7.522   7.274   2.707  0.0547 -0.4034  0.3688
    1CHTO   H79  264   7.547   7.284   2.600 -0.0398 -1.4276  0.2440
    1CHTO   C38  265   7.376   7.293   2.738  0.2015 -0.4503  0.5600
    1CHTO   H80  266   7.350   7.284   2.844 -0.8702  0.6299  0.3994
    1CHTO   O31  267   7.302   7.190   2.668 -0.5236  0.3091  0.5382
    1CHTO   H68  268   7.312   7.105   2.706  0.7504 -0.4498 -1.4121
    1CHTO   C39  269   7.331   7.435   2.693 -0.2933  0.0180 -0.4033
    1CHTO   H81  270   7.345   7.450   2.586  1.8096  0.7790 -0.0358
    1CHTO    N7  271   7.187   7.468   2.712  0.7275  0.5445  0.3647
    1CHTO   H73  272   7.164   7.478   2.817  0.0470 -0.1605  0.2930
    1CHTO   H74  273   7.164   7.559   2.659 -0.5467 -0.8012 -1.4514
    1CHTO   C40  274   7.420   7.541   2.770 -0.3979  0.5807  0.2002
    1CHTO   H82  275   7.398   7.535   2.876 -2.6227  0.2382 -0.2394
    1CHTO   O26  276   7.562   7.516   2.746  0.1984  0.2682 -0.0349
    1CHTO   C41  277   7.600   7.383   2.783  0.0090  0.9979  0.4703
    1CHTO   H83  278   7.590   7.371   2.892  2.6382 -1.1875  0.5379
    1CHTO   C52  279   7.747   7.355   2.731  0.4417 -0.1501  0.0240
    1CHTO   O35  280   7.845   7.438   2.760  0.3091  0.3716  0.0188
    1CHTO   H71  281   7.917   7.386   2.792 -0.9077 -1.5524 -0.2859
    1CHTO   O28  282   7.408   7.683   2.734 -0.1411  0.6466 -0.2750
    1CHTO   C42  283   7.465   7.753   2.618 -0.2825 -0.3392 -0.8318
    1CHTO   H84  284   7.512   7.679   2.552 -1.4525 -2.0001  0.1781
    1CHTO   C44  285   7.580   7.849   2.664  0.3549  0.9410 -0.3512
    1CHTO   H86  286   7.537   7.935   2.714  3.1716  2.3732 -0.2824
    1CHTO   O32  287   7.676   7.782   2.742  0.0613  0.3217  0.0773
    1CHTO   H69  288   7.650   7.748   2.825  3.3762 -2.1390  0.2103
    1CHTO   C48  289   7.637   7.910   2.527 -0.2160 -0.7493 -0.4528
    1CHTO   H90  290   7.687   7.830   2.472 -0.2867 -0.3095 -1.1551
    1CHTO    N9  291   7.750   8.016   2.546  0.3096 -0.8541 -0.7920
    1CHTO   H77  292   7.851   7.985   2.571 -0.3785 -3.5567 -1.2382
    1CHTO   H78  293   7.723   8.086   2.623  1.2679  1.9651 -2.9310
    1CHTO   C51  294   7.524   7.978   2.444  0.8954 -0.0782 -0.1614
    1CHTO   H93  295   7.493   8.068   2.497  0.5585 -0.0703 -0.3709
    1CHTO   O30  296   7.412   7.887   2.423 -0.0209  0.4931 -0.0994
    1CHTO   C46  297   7.358   7.840   2.539 -0.3489  0.2427 -0.0123
    1CHTO   H88  298   7.319   7.922   2.599 -0.0909 -0.4889  1.1704
    1CHTO   C53  299   7.239   7.759   2.505  0.3517  0.5106 -0.3793
    1CHTO   O72  300   7.267   7.635   2.436 -0.1795 -0.1862 -0.0123
    1CHTO  H199  301   7.341   7.637   2.379 -1.6219 -1.3249 -1.9788
    1CHTO   O22  302   7.574   8.015   2.320  0.5154 -0.1848  0.2459
    1CHTO   C31  303   7.534   7.990   2.180  0.5425  0.6238  0.4059
    1CHTO   H59  304   7.485   7.890   2.185  0.5596  0.7001  2.3697
    1CHTO   C29  305   7.429   8.086   2.126 -0.2546 -0.4215 -0.4908
    1CHTO   H57  306   7.474   8.186   2.126 -0.1921 -0.4445 -1.1428
    1CHTO   O21  307   7.315   8.096   2.217 -0.1998 -0.3220 -0.7919
    1CHTO   H37  308   7.253   8.151   2.173 -0.7683 -0.6956 -0.4553
    1CHTO   C27  309   7.389   8.044   1.976 -0.4642  0.4230  0.5668
    1CHTO   H55  310   7.335   7.948   1.984  1.7783 -0.8572  0.8564
    1CHTO    N5  311   7.302   8.142   1.909 -0.2840 -0.6149  0.1360
    1CHTO   H43  312   7.351   8.236   1.926  0.0739 -0.9893  1.2287
    1CHTO   H44  313   7.202   8.135   1.950 -0.6945  1.8459 -0.3597
    1CHTO   C25  314   7.511   8.003   1.888  0.3991  0.4821  0.3316
    1CHTO   H53  315   7.578   8.082   1.849  0.9285  0.3152  0.9025
    1CHTO   O17  316   7.587   7.904   1.970  0.7991 -0.8206  0.1380
    1CHTO   C32  317   7.652   7.968   2.079  0.2838  0.0736 -0.1881
    1CHTO   H60  318   7.701   8.064   2.061  1.6908 -0.6009 -0.0589
    1CHTO   C36  319   7.747   7.859   2.129  0.0029 -0.1288  0.4943
    1CHTO   O25  320   7.841   7.923   2.217 -0.0426  0.0227 -0.1918
    1CHTO   H40  321   7.926   7.941   2.183  0.2187  0.7888  0.8346
    1CHTO   O15  322   7.454   7.922   1.747 -0.0472 -0.2073  0.4086
    1CHTO   C19  323   7.372   7.889   1.627  0.5421  0.8073  0.0394
    1CHTO   H47  324   7.310   7.980   1.624  3.5343  2.9323  0.0802
    1CHTO   C20  325   7.454   7.889   1.497 -0.0368 -0.5025  0.4148
    1CHTO   H48  326   7.536   7.815   1.504  0.2852  0.0287  2.6476
    1CHTO   O19  327   7.521   8.015   1.486 -0.4452  0.1056 -0.1412
    1CHTO   H35  328   7.582   8.026   1.415 -0.4088  2.1199  0.1653
    1CHTO   C21  329   7.361   7.870   1.371  0.1788 -0.3559  0.5948
    1CHTO   H49  330   7.288   7.950   1.374 -1.5070 -1.8493  0.2994
    1CHTO    N4  331   7.436   7.877   1.240  0.4395  0.2011  1.0307
    1CHTO   H41  332   7.478   7.779   1.219  0.0214  0.5876 -1.7056
    1CHTO   H42  333   7.511   7.954   1.237  2.0708 -1.3519  0.5842
    1CHTO   C22  334   7.289   7.739   1.403  0.6471  0.3226  0.3367
    1CHTO   H50  335   7.360   7.659   1.425 -0.0254  0.4606  3.1363
    1CHTO   O14  336   7.206   7.754   1.519  0.6110  0.3221 -0.6619
    1CHTO   C23  337   7.278   7.766   1.642 -0.0261  1.3700  0.3945
    1CHTO   H51  338   7.332   7.671   1.648 -0.4383  1.0544 -0.9096
    1CHTO   C34  339   7.171   7.789   1.753 -0.7274  0.7840 -0.2059
    1CHTO   O23  340   7.107   7.661   1.777  0.0600  0.9983 -0.2909
    1CHTO   H38  341   7.073   7.656   1.865 -0.1375  1.4168 -0.3461
    1CHTO   O16  342   7.190   7.708   1.310  0.2671 -0.2078  0.2954
    1CHTO   C24  343   7.198   7.564   1.263 -0.0690 -0.2210  0.2807
    1CHTO   H52  344   7.294   7.518   1.287  0.2129 -1.3249 -2.7045
    1CHTO   C26  345   7.195   7.556   1.109  0.3111 -0.5811  0.4299
    1CHTO   H54  346   7.105   7.610   1.074  1.0628 -0.2274 -1.0048
    1CHTO   O20  347   7.315   7.618   1.061  1.0724 -0.2919  0.4271
    1CHTO   H36  348   7.395   7.574   1.084  1.5765 -1.5207 -3.2340
    1CHTO   C30  349   7.180   7.412   1.054 -0.4693  0.4715  0.1513
    1CHTO   H58  350   7.276   7.361   1.074  0.1111  2.0099  1.3747
    1CHTO    N6  351   7.162   7.414   0.908 -0.3962 -0.7943  0.4191
    1CHTO   H45  352   7.102   7.501   0.887  2.3620  0.7548 -1.3960
    1CHTO   H46  353   7.259   7.426   0.863 -0.4152  0.1946  0.6367
    1CHTO   C33  354   7.071   7.337   1.135 -0.2842 -0.5914 -0.1568
    1CHTO   H61  355   6.979   7.393   1.113  0.5494  0.4084 -1.1935
    1CHTO   O18  356   7.093   7.342   1.274 -0.3306 -0.5405  0.9801
    1CHTO   C28  357   7.085   7.478   1.328 -0.7883 -0.3475  0.4874
    1CHTO   H56  358   6.992   7.529   1.304 -0.2204 -0.7898 -2.8793
    1CHTO   C35  359   7.101   7.467   1.481 -0.3352  0.8145 -0.5365
    1CHTO   O24  360   6.991   7.402   1.540 -0.2941 -0.4900 -0.3294
    1CHTO   H39  361   6.998   7.310   1.527 -0.9020 -0.3821 -1.4965
    1CHTO    O9  362   7.060   7.202   1.088 -0.1226  0.3223 -0.2409
    1CHTO   C13  363   6.977   7.089   1.185 -0.4646  0.4882  0.0081
    1CHTO   H26  364   6.886   7.138   1.224 -0.1546  1.2384 -0.2131
    1CHTO   C11  365   7.077   7.045   1.312 -0.3622 -0.4001 -0.0729
    1CHTO   H24  366   7.079   7.120   1.393  0.3603  0.1430 -0.5975
    1CHTO    O8  367   7.207   7.025   1.253  0.1302 -0.1476  0.2141
    1CHTO    H3  368   7.191   6.995   1.166  0.0638 -1.1672  0.5672
    1CHTO    C9  369   7.021   6.910   1.371 -0.1805  0.2609 -0.1181
    1CHTO   H22  370   6.913   6.929   1.382  0.0512  0.5804  1.7596
    1CHTO    N2  371   7.073   6.878   1.502  0.3764 -0.3170 -0.6493
    1CHTO   H10  372   7.033   6.790   1.551  0.2786 -0.3019 -0.7017
    1CHTO   H11  373   7.055   6.961   1.568  0.2790  0.0916 -1.1908
    1CHTO    C7  374   7.034   6.803   1.255  0.1714  0.8254  0.4917
    1CHTO   H20  375   6.942   6.745   1.276 -1.6551  2.9938 -1.2302
    1CHTO    O4  376   7.027   6.853   1.119  0.8585 -0.0298  0.5693
    1CHTO   C14  377   6.932   6.960   1.110  0.4009  0.0872  0.3567
    1CHTO   H27  378   6.832   6.931   1.147 -1.1457  1.6157 -2.4699
    1CHTO   C18  379   6.912   6.996   0.965  0.4917 -0.1115  0.0217
    1CHTO   O13  380   6.783   7.049   0.925  0.0944 -0.2687 -0.0342
    1CHTO    H7  381   6.742   7.001   0.856 -0.9914  0.6094 -0.0320
    1CHTO    O2  382   7.159   6.685   1.262  0.0053 -0.0865  0.2318
    1CHTO    C1  383   7.255   6.677   1.155 -0.9201  0.0482  0.0253
    1CHTO   H14  384   7.274   6.781   1.122 -0.0678 -0.3815 -0.8442
    1CHTO    C2  385   7.222   6.580   1.027 -0.0352  0.0133  0.1621
    1CHTO   H15  386   7.202   6.478   1.064 -2.2921  0.4151  0.1253
    1CHTO    O6  387   7.108   6.636   0.960  0.3857 -0.5484  0.4215
    1CHTO    H1  388   7.068   6.577   0.899  1.3259 -1.4963  0.6844
    1CHTO    C3  389   7.353   6.579   0.930  0.0946 -0.3291 -0.4151
    1CHTO   H16  390   7.376   6.683   0.902 -1.1103  0.8461  2.8149
    1CHTO    N1  391   7.336   6.504   0.802  0.0383  0.0767  0.2107
    1CHTO    H8  392   7.423   6.523   0.741 -0.6748  0.4945 -0.6755
    1CHTO    H9  393   7.308   6.400   0.813  0.0719  0.0846  0.3706
    1CHTO    C4  394   7.482   6.531   1.015  0.8389  0.7544 -0.2598
    1CHTO   H17  395   7.468   6.427   1.041  1.4150  1.1171  1.5601
    1CHTO    O1  396   7.496   6.618   1.122  0.3988 -0.3185 -0.4801
    1CHTO    C5  397   7.389   6.630   1.219  0.1798 -0.0765  0.3642
    1CHTO   H18  398   7.366   6.530   1.256  0.1963 -0.1156  0.2689
    1CHTO   C16  399   7.447   6.709   1.329  0.0620 -0.2323 -0.0172
    1CHTO   O11  400   7.506   6.839   1.289  0.3935 -0.2293 -0.1905
    1CHTO    H5  401   7.438   6.904   1.284  1.1597  0.5216 -0.9260
    1CHTO    O3  402   7.606   6.539   0.942  0.4446  0.4859 -0.5745
    1CHTO    C6  403   7.707   6.432   0.962  0.5967 -0.2992 -0.6749
    1CHTO   H19  404   7.677   6.354   1.032  0.7196  1.9532  1.9849
    1CHTO    C8  405   7.745   6.364   0.826 -0.8218 -0.0683 -0.2107
    1CHTO   H21  406   7.770   6.444   0.756  1.5419  0.9269  1.6948
    1CHTO    O7  407   7.622   6.304   0.784 -0.4564  0.6975  0.1921
    1CHTO    H2  408   7.634   6.252   0.707 -0.1840 -1.4373  1.6386
    1CHTO   C12  409   7.874   6.274   0.832  0.3076 -0.0560 -1.1867
    1CHTO   H25  410   7.843   6.195   0.904  1.0523  2.6713  2.2417
    1CHTO    N3  411   7.910   6.206   0.702  0.8563 -0.0185  0.3808
    1CHTO   H12  412   7.950   6.108   0.723  0.0390 -0.2572  0.8464
    1CHTO   H13  413   7.980   6.263   0.643  1.8864 -1.4575  0.1675
    1CHTO   C15  414   7.990   6.350   0.889  0.7457  0.0206  0.4054
    1CHTO   H28  415   8.030   6.421   0.817  1.0581  0.2465  0.8030
    1CHTO   O10  416   8.107   6.262   0.945  0.0259 -0.2554 -0.0583
    1CHTO    H4  417   8.169   6.248   0.876 -0.7342 -1.5551 -0.4922
    1CHTO    O5  418   7.953   6.412   1.011 -0.4434 -0.0734 -0.4109
    1CHTO   C10  419   7.840   6.496   1.019  0.6263  0.4163  0.1334
    1CHTO   H23  420   7.869   6.585   0.964  0.1624  0.5239  0.0620
    1CHTO   C17  421   7.813   6.543   1.162 -0.4740 -0.8067  0.0313
    1CHTO   O12  422   7.760   6.441   1.246 -0.2111 -0.6151 -0.3614
    1CHTO    H6  423   7.759   6.459   1.339  0.2369 -1.7186 -0.1417
    2CHTO  H203  424   6.689   4.491   0.326 -0.9381 -2.9779 -3.0242
    2CHTO   O82  425   6.731   4.544   0.261 -0.0480  0.2686  0.0182
    2CHTO  C123  426   6.658   4.608   0.154  0.6041  0.1650  0.3044
    2CHTO  H227  427   6.727   4.639   0.075 -0.6108  3.6167  0.5205
    2CHTO   O77  428   6.563   4.501   0.127  0.1517  0.0465  0.3010
    2CHTO  C118  429   6.448   4.540   0.050  0.7167  0.1660  0.4863
    2CHTO  H222  430   6.486   4.589  -0.040  0.7035 -0.9154 -0.1235
    2CHTO  C125  431   6.371   4.406   0.005  0.0751  0.5241 -0.4537
    2CHTO   O84  432   6.337   4.327   0.114 -0.0125  0.3128 -0.4359
    2CHTO  H205  433   6.390   4.330   0.191  1.3397 -1.4044 -1.2588
    2CHTO  C114  434   6.360   4.642   0.122  0.0351 -0.0188  0.1398
    2CHTO  H218  435   6.343   4.603   0.222 -2.0750 -0.9575 -0.5566
    2CHTO  C116  436   6.438   4.769   0.149 -0.3497 -0.0241 -0.7228
    2CHTO  H220  437   6.458   4.823   0.055 -0.1761 -1.3299 -1.4502
    2CHTO   O79  438   6.363   4.855   0.237  0.1623 -0.4799 -0.5619
    2CHTO  H201  439   6.399   4.941   0.241 -0.1131 -0.3756 -0.3404
    2CHTO  C120  440   6.583   4.733   0.211 -0.0639 -0.1566 -0.4126
    2CHTO  H224  441   6.551   4.712   0.316  2.2332 -0.2946  0.2756
    2CHTO   N21  442   6.667   4.852   0.212  0.2341 -0.1221 -0.2601
    2CHTO  H211  443   6.734   4.849   0.296  1.2664  0.3220 -1.0516
    2CHTO  H212  444   6.732   4.861   0.126 -0.3602 -0.3512 -0.7395
    2CHTO   O75  445   6.241   4.669   0.046 -0.2414  0.4966  0.0446
    2CHTO  C112  446   6.086   4.623   0.084 -1.1745 -0.8565  0.4897
    2CHTO  H216  447   6.091   4.558   0.173 -1.8955  0.2525  1.3582
    2CHTO   O73  448   6.038   4.552  -0.031 -0.2565 -0.5643 -0.1833
    2CHTO  C113  449   5.907   4.494  -0.013  0.0136  0.8768 -0.2190
    2CHTO  H217  450   5.911   4.422   0.072  1.4534  1.1787 -0.0116
    2CHTO  C124  451   5.887   4.410  -0.141  0.2113 -0.2793  0.2722
    2CHTO   O83  452   5.974   4.300  -0.148 -0.1651  0.5126 -0.0481
    2CHTO  H204  453   5.958   4.250  -0.227 -3.3185  0.7663  0.3713
    2CHTO  C109  454   5.797   4.599   0.005  0.1977 -0.1807 -0.4357
    2CHTO  H213  455   5.788   4.656  -0.088  0.3035 -1.4432 -1.2252
    2CHTO  C110  456   5.833   4.699   0.118  0.2657 -0.1490 -0.3021
    2CHTO  H214  457   5.813   4.660   0.218  1.4825 -1.1452 -0.4456
    2CHTO   O78  458   5.755   4.819   0.098 -0.1610 -0.2535 -0.0039
    2CHTO  H200  459   5.741   4.846   0.010  2.5156  2.3389  0.3068
    2CHTO  C111  460   5.988   4.739   0.113 -0.0154 -0.0422  0.2956
    2CHTO  H215  461   5.997   4.804   0.025  0.2191  0.7096  0.8765
    2CHTO   N19  462   6.039   4.822   0.228 -0.3059 -0.5462 -0.4698
    2CHTO  H207  463   6.045   4.762   0.317 -0.0517  1.0535  0.6189
    2CHTO  H208  464   6.123   4.888   0.210 -1.4261  0.8947 -0.5376
    2CHTO   O74  465   5.665   4.543   0.040 -0.7260 -0.6166  0.4836
    2CHTO  C115  466   5.571   4.488  -0.111 -0.1548  0.2495  0.5729
    2CHTO  H219  467   5.625   4.516  -0.202  2.6193 -0.3284  1.9880
    2CHTO   O76  468   5.554   4.318  -0.112  0.4601  0.2288 -0.0845
    2CHTO  C122  469   5.474   4.272  -0.227 -0.1464 -0.6291 -0.9177
    2CHTO  H226  470   5.448   4.167  -0.208 -1.6893 -0.2860 -1.0554
    2CHTO  C126  471   5.553   4.272  -0.357  0.3225 -0.1344 -0.0668
    2CHTO   O85  472   5.666   4.181  -0.354  0.2748  1.3569  0.1245
    2CHTO  H206  473   5.739   4.239  -0.364  1.1288  0.2518 -0.1150
    2CHTO  C121  474   5.334   4.341  -0.232 -0.3800  0.2285 -0.5136
    2CHTO  H225  475   5.286   4.298  -0.322 -1.6108  1.4586 -0.4477
    2CHTO   O81  476   5.246   4.299  -0.126  0.8300  0.6644  0.7401
    2CHTO  H202  477   5.231   4.207  -0.115 -1.4920  0.8319 -0.6032
    2CHTO  C119  478   5.344   4.495  -0.241  0.1672  0.2342 -0.4117
    2CHTO  H223  479   5.391   4.529  -0.334  2.6157  1.3044  1.1512
    2CHTO  C117  480   5.434   4.553  -0.120 -0.0874 -0.0495  0.1299
    2CHTO  H221  481   5.388   4.537  -0.022  0.9259  0.8792  0.7636
    2CHTO   N20  482   5.462   4.696  -0.123 -0.1933 -0.5473 -0.3901
    2CHTO  H209  483   5.404   4.750  -0.049  2.2904 -1.0678  2.0201
    2CHTO  H210  484   5.454   4.738  -0.222  0.7063 -1.3519 -0.8155
    2CHTO   O80  485   5.199   4.557  -0.252 -0.3615 -0.2573 -0.7665
    2CHTO  C103  486   5.162   4.638  -0.381 -0.0702  0.6551 -0.1038
    2CHTO  H190  487   5.241   4.708  -0.407 -0.9548  1.6675 -0.1170
    2CHTO  C101  488   5.117   4.539  -0.502  0.2585  0.2734 -0.5124
    2CHTO  H188  489   5.067   4.454  -0.456 -0.2754  2.6168  3.5202
    2CHTO   O68  490   5.248   4.481  -0.581 -0.5534  1.0439  0.6273
    2CHTO  H168  491   5.212   4.409  -0.630  1.3110 -1.1581  2.4241
    2CHTO   C99  492   5.016   4.612  -0.606 -0.6494  0.3078  0.1377
    2CHTO  H186  493   5.072   4.695  -0.656  1.4289  0.3559  2.4362
    2CHTO   N17  494   4.963   4.520  -0.718  0.5094  0.4472 -0.3640
    2CHTO  H174  495   4.874   4.572  -0.752 -0.3510 -1.0126 -0.4241
    2CHTO  H175  496   5.034   4.506  -0.797  0.8323  0.1135 -0.0171
    2CHTO   C97  497   4.902   4.685  -0.526  0.6821  0.4678  0.2911
    2CHTO  H184  498   4.835   4.615  -0.475  0.4101 -1.7821 -2.9514
    2CHTO   O64  499   4.966   4.780  -0.434  0.2307 -0.1831 -0.1057
    2CHTO  C104  500   5.042   4.723  -0.325 -0.1107  0.2581 -0.3913
    2CHTO  H191  501   4.976   4.657  -0.270 -0.7367  1.9471  0.9151
    2CHTO  C108  502   5.088   4.835  -0.229  0.5624 -0.0161  0.3377
    2CHTO   O71  503   5.178   4.926  -0.293 -0.4526  1.2739  0.7703
    2CHTO  H171  504   5.127   4.971  -0.357 -2.5636 -3.5830 -1.1601
    2CHTO   O62  505   4.820   4.777  -0.606 -0.0270  0.4227  0.4346
    2CHTO   C91  506   4.684   4.801  -0.570 -0.5433  0.3463 -0.4423
    2CHTO  H178  507   4.656   4.733  -0.490 -1.5880  2.0229  0.6477
    2CHTO   C92  508   4.586   4.780  -0.691  0.3870 -0.0547  0.1534
    2CHTO  H179  509   4.609   4.682  -0.734  1.3557 -0.3023  1.2006
    2CHTO   O66  510   4.447   4.781  -0.641  0.0761 -0.0957 -0.6744
    2CHTO  H166  511   4.438   4.709  -0.582  2.2942 -0.0966 -0.3076
    2CHTO   C93  512   4.595   4.896  -0.800 -0.7868  0.1089  0.3203
    2CHTO  H180  513   4.498   4.887  -0.851 -0.7098  1.2283 -0.0345
    2CHTO   N16  514   4.697   4.889  -0.907  0.0628 -0.0720 -0.0481
    2CHTO  H172  515   4.650   4.889  -1.005  1.7661  0.6345 -0.8942
    2CHTO  H173  516   4.779   4.824  -0.881  0.1986  0.6073  1.2539
    2CHTO   C94  517   4.602   5.040  -0.727 -0.0999 -0.3825 -0.4727
    2CHTO  H181  518   4.694   5.094  -0.745 -1.4512  1.9169 -0.6378
    2CHTO   O61  519   4.577   5.027  -0.582 -0.0846 -0.0545  0.5164
    2CHTO   C95  520   4.661   4.942  -0.507 -0.1678  0.4864 -0.3144
    2CHTO  H182  521   4.760   4.988  -0.505  0.8441 -1.6025 -0.7834
    2CHTO  C106  522   4.609   4.930  -0.358  0.2002 -0.4183  0.4106
    2CHTO   O69  523   4.696   4.848  -0.278 -0.2474 -0.1978  0.1990
    2CHTO  H169  524   4.713   4.890  -0.196 -0.4387  1.7505 -0.7201
    2CHTO   O63  525   4.492   5.126  -0.775 -0.1913 -0.2281 -0.0969
    2CHTO   C96  526   4.477   5.279  -0.724  0.1270  0.1958  0.4976
    2CHTO  H183  527   4.544   5.303  -0.641 -0.2020  1.0894  0.5062
    2CHTO   C98  528   4.338   5.310  -0.668 -0.2949 -0.2221 -0.0604
    2CHTO  H185  529   4.262   5.278  -0.740 -0.3483 -0.2938  0.0275
    2CHTO   O67  530   4.318   5.234  -0.546 -0.7101  0.6429  0.9314
    2CHTO  H167  531   4.260   5.160  -0.551 -0.2173  0.3156 -0.2144
    2CHTO  C102  532   4.328   5.471  -0.635  0.6749  0.4527 -0.0280
    2CHTO  H189  533   4.371   5.476  -0.533 -0.1268 -3.2356  0.5782
    2CHTO   N18  534   4.190   5.510  -0.611 -0.2700  0.2395  0.0468
    2CHTO  H176  535   4.130   5.501  -0.701  0.4705  3.3207 -0.8450
    2CHTO  H177  536   4.182   5.611  -0.574 -0.9916 -0.1047  0.8463
    2CHTO  C105  537   4.399   5.566  -0.738  0.1738 -0.4809  0.2366
    2CHTO  H192  538   4.332   5.577  -0.824 -0.6903  0.6187  1.0352
    2CHTO   O65  539   4.529   5.517  -0.779  0.1905  0.5399 -0.0610
    2CHTO  C100  540   4.523   5.386  -0.837  0.6571 -0.1891 -0.7804
    2CHTO  H187  541   4.466   5.379  -0.930  0.5437 -0.1075 -0.7172
    2CHTO  C107  542   4.667   5.349  -0.879 -0.5967  0.3134  0.2554
    2CHTO   O70  543   4.761   5.344  -0.772 -0.1214 -0.3314  0.2100
    2CHTO  H170  544   4.851   5.330  -0.795  0.1877  2.1784 -0.2663
    2CHTO   O57  545   4.420   5.708  -0.664 -0.5593  0.5493  0.1195
    2CHTO   C85  546   4.343   5.826  -0.689  0.6098  1.1016 -0.5517
    2CHTO  H157  547   4.238   5.789  -0.692  0.5905  1.1967 -1.1339
    2CHTO   C83  548   4.359   5.897  -0.825  0.2337 -0.1287  0.7038
    2CHTO  H155  549   4.321   5.834  -0.905  0.7764 -1.0057  1.1303
    2CHTO   O56  550   4.502   5.896  -0.858  0.0240 -0.4053 -0.2973
    2CHTO  H135  551   4.550   5.906  -0.778 -0.8843 -2.2270  0.5085
    2CHTO   C81  552   4.291   6.037  -0.829  0.3545 -1.0986 -0.3069
    2CHTO  H153  553   4.185   6.029  -0.805  0.2584  0.7004 -0.1079
    2CHTO   N14  554   4.282   6.101  -0.961 -0.7863 -0.1357  0.1580
    2CHTO  H141  555   4.190   6.151  -0.982  0.1679  1.0121 -1.4469
    2CHTO  H142  556   4.319   6.048  -1.047  3.4388 -0.2843  1.9454
    2CHTO   C79  557   4.364   6.126  -0.715  0.1545  1.0140  0.2201
    2CHTO  H151  558   4.309   6.219  -0.707 -0.0070  0.8266  1.2659
    2CHTO   O52  559   4.333   6.064  -0.587 -1.2000 -0.0088  0.0046
    2CHTO   C86  560   4.365   5.921  -0.569 -0.8541 -0.3243  0.3128
    2CHTO  H158  561   4.470   5.921  -0.532 -0.4813 -0.1070 -0.7132
    2CHTO   C90  562   4.284   5.865  -0.451 -0.4423 -0.4772  0.6374
    2CHTO   O60  563   4.307   5.955  -0.336  0.2596 -0.6061  0.3348
    2CHTO  H138  564   4.234   5.945  -0.279  0.4189  1.0141  0.8508
    2CHTO   O50  565   4.503   6.145  -0.725 -0.0944 -1.2945  0.0652
    2CHTO   C73  566   4.569   6.265  -0.682  0.7274 -0.4218 -0.3027
    2CHTO  H145  567   4.504   6.325  -0.616 -0.9829 -1.2953 -1.1665
    2CHTO   C74  568   4.600   6.358  -0.803 -0.1527  0.3255  0.1840
    2CHTO  H146  569   4.508   6.370  -0.862 -0.0901  0.3894  0.0989
    2CHTO   O54  570   4.637   6.491  -0.755 -0.7587 -0.1399 -0.8981
    2CHTO  H133  571   4.607   6.552  -0.819  0.6170 -0.9047 -2.2921
    2CHTO   C75  572   4.721   6.296  -0.885  0.6625 -0.5062 -0.4994
    2CHTO  H147  573   4.681   6.205  -0.934  1.5414  0.3442 -2.8739
    2CHTO   N13  574   4.788   6.375  -0.989 -0.3581 -0.6384  0.3336
    2CHTO  H139  575   4.788   6.482  -0.973 -2.1247 -0.9068  2.2148
    2CHTO  H140  576   4.894   6.357  -1.001 -0.4509  0.3403 -2.5629
    2CHTO   C76  577   4.837   6.241  -0.787 -0.2751  0.0845 -0.0208
    2CHTO  H148  578   4.903   6.321  -0.752  0.3293 -0.1362 -0.6503
    2CHTO   O49  579   4.784   6.162  -0.671  0.7030  0.1357  0.0764
    2CHTO   C77  580   4.695   6.238  -0.594 -0.2009  0.2058 -0.0618
    2CHTO  H149  581   4.738   6.332  -0.559 -0.0414 -0.5949  1.9352
    2CHTO   C88  582   4.647   6.162  -0.466 -0.0211  0.3463  0.0934
    2CHTO   O58  583   4.581   6.227  -0.373  0.0398  0.5273 -0.6036
    2CHTO  H136  584   4.496   6.191  -0.360  0.0502  0.5644 -0.4223
    2CHTO   O51  585   4.932   6.120  -0.875 -0.1849  0.0988 -0.3326
    2CHTO   C78  586   5.005   6.005  -0.789  0.3004  0.0107 -0.4216
    2CHTO  H150  587   4.980   6.026  -0.683  0.5145 -0.2998 -0.3095
    2CHTO   C80  588   5.159   6.012  -0.805 -0.7935  0.1439  0.7273
    2CHTO  H152  589   5.188   5.975  -0.905 -0.0596 -0.1291  1.0325
    2CHTO   O55  590   5.199   6.150  -0.778 -0.3620  0.2821  0.3855
    2CHTO  H134  591   5.279   6.160  -0.827 -1.9506 -1.5020 -2.7154
    2CHTO   C84  592   5.221   5.920  -0.695  0.3440  0.6524  0.1031
    2CHTO  H156  593   5.181   5.942  -0.596  2.2271  0.6060  0.8874
    2CHTO   N15  594   5.369   5.931  -0.689  0.1386  0.1254  0.0259
    2CHTO  H143  595   5.421   5.844  -0.653 -1.9928 -2.0639 -2.0323
    2CHTO  H144  596   5.406   6.019  -0.640  0.2779  1.2229 -2.0075
    2CHTO   C87  597   5.175   5.774  -0.723 -0.2413  0.8692  0.2434
    2CHTO  H159  598   5.212   5.736  -0.818  0.4710 -0.8844  1.2115
    2CHTO   O53  599   5.015   5.769  -0.740  0.9225 -0.2396 -0.2550
    2CHTO   C82  600   4.963   5.863  -0.831 -1.2125  0.1444 -0.3496
    2CHTO  H154  601   4.994   5.849  -0.934 -3.7312  1.2494 -1.2959
    2CHTO   C89  602   4.811   5.849  -0.827 -0.4158  0.1204 -0.2816
    2CHTO   O59  603   4.772   5.728  -0.893 -0.0729  0.5039  0.0603
    2CHTO  H137  604   4.694   5.695  -0.853  0.6599 -3.0171 -1.2222
    2CHTO   O45  605   5.216   5.672  -0.597 -0.5493 -0.5140  0.5267
    2CHTO   C67  606   5.122   5.590  -0.525  0.3880  0.2906 -0.1124
    2CHTO  H124  607   5.027   5.645  -0.523  0.9816  1.3080  1.2711
    2CHTO   C65  608   5.103   5.452  -0.590 -0.3991 -0.8069  0.4718
    2CHTO  H122  609   5.200   5.419  -0.628  1.1159  2.5279  1.2441
    2CHTO   O44  610   5.018   5.478  -0.697  0.1908  0.2567  0.4097
    2CHTO  H102  611   5.011   5.401  -0.750  0.4230 -2.0758  3.6270
    2CHTO   C63  612   5.057   5.340  -0.482 -0.1156  0.1180 -0.6441
    2CHTO  H120  613   5.146   5.305  -0.430  0.6897 -0.0943 -2.1341
    2CHTO   N11  614   5.005   5.213  -0.538  0.2182  0.5900 -0.1770
    2CHTO  H108  615   4.919   5.228  -0.599 -0.2489 -1.0285  0.0572
    2CHTO  H109  616   5.080   5.158  -0.590  1.1187 -0.3143  1.9957
    2CHTO   C61  617   4.968   5.409  -0.375  0.0257 -0.3035 -0.1958
    2CHTO  H118  618   4.964   5.331  -0.297 -2.8921  1.1801  1.2447
    2CHTO   O40  619   5.047   5.525  -0.314  0.0990  0.0477 -0.2400
    2CHTO   C68  620   5.167   5.577  -0.376  0.4700 -0.5967  0.1133
    2CHTO  H125  621   5.251   5.507  -0.359  0.2590 -1.0190 -0.5856
    2CHTO   C72  622   5.204   5.709  -0.318 -0.4116 -0.4534  0.5453
    2CHTO   O48  623   5.090   5.796  -0.310 -0.3477 -0.3962 -0.0437
    2CHTO  H105  624   5.074   5.847  -0.387  0.9804  0.9894  0.5918
    2CHTO   O38  625   4.836   5.446  -0.421  0.6356 -0.2566 -0.2208
    2CHTO   C55  626   4.729   5.459  -0.326  0.5507 -0.1014 -0.3387
    2CHTO  H112  627   4.785   5.486  -0.235  0.4315  1.2034 -0.6386
    2CHTO   C56  628   4.653   5.322  -0.311  0.3759  0.9959 -0.3080
    2CHTO  H113  629   4.608   5.311  -0.411 -1.2149 -1.2325  0.5923
    2CHTO   O42  630   4.748   5.220  -0.285  0.5327  0.2793  0.0736
    2CHTO  H100  631   4.758   5.170  -0.364 -2.6763  2.4905 -1.8342
    2CHTO   C57  632   4.545   5.345  -0.202  0.7568 -0.2889  0.2295
    2CHTO  H114  633   4.609   5.359  -0.115  0.8420  2.2413 -0.2205
    2CHTO   N10  634   4.454   5.231  -0.181 -0.0521  0.4463  0.2497
    2CHTO  H106  635   4.505   5.141  -0.211 -0.1480  0.1533  0.9550
    2CHTO  H107  636   4.439   5.225  -0.074  2.8078  1.5107  0.7449
    2CHTO   C58  637   4.460   5.480  -0.230  0.1270 -0.0689  0.7010
    2CHTO  H115  638   4.390   5.459  -0.314  1.2446 -2.0060  0.2108
    2CHTO   O37  639   4.540   5.593  -0.266  0.4060 -0.0304 -0.4965
    2CHTO   C59  640   4.625   5.575  -0.372 -0.9600  0.1865  0.1479
    2CHTO  H116  641   4.569   5.556  -0.463 -0.4387  2.3222 -0.6372
    2CHTO   C70  642   4.700   5.708  -0.388  0.6489  0.4723 -0.4459
    2CHTO   O46  643   4.767   5.718  -0.510  0.0069  0.1518  0.4819
    2CHTO  H103  644   4.702   5.719  -0.578  0.9890 -1.7281 -0.4975
    2CHTO   O39  645   4.385   5.529  -0.105 -0.4123 -0.3690 -0.2309
    2CHTO   C60  646   4.269   5.616  -0.133 -0.9053 -0.4360 -0.2094
    2CHTO  H117  647   4.285   5.671  -0.225 -2.1974  1.0756  0.4360
    2CHTO   C62  648   4.145   5.531  -0.154 -0.0709  0.4988 -0.1711
    2CHTO  H119  649   4.177   5.466  -0.238 -1.6509  0.0031 -0.4022
    2CHTO   O43  650   4.128   5.453  -0.040  0.0409  0.1344 -0.4679
    2CHTO  H101  651   4.100   5.370  -0.072 -2.5789  1.7377 -2.5797
    2CHTO   C66  652   4.026   5.628  -0.195  0.9306  0.3584 -0.1873
    2CHTO  H123  653   4.059   5.689  -0.279  0.0906  2.7711  1.1810
    2CHTO   N12  654   3.913   5.552  -0.253 -0.3776 -0.0331 -0.0931
    2CHTO  H110  655   3.942   5.520  -0.352  1.6832  3.2620 -0.6244
    2CHTO  H111  656   3.894   5.461  -0.198 -0.0281  2.0923  3.7825
    2CHTO   C69  657   3.986   5.722  -0.077 -0.4671 -0.0891 -0.8621
    2CHTO  H126  658   3.926   5.665  -0.003 -0.7878 -2.5786 -2.9495
    2CHTO   O41  659   4.127   5.798  -0.023  0.1332 -0.6548  0.3681
    2CHTO   C64  660   4.259   5.718  -0.020  0.5965 -0.0682 -0.3775
    2CHTO  H121  661   4.260   5.671   0.080 -0.0448  0.0924 -0.2893
    2CHTO   C71  662   4.380   5.813  -0.017 -0.7311  0.7376  0.0372
    2CHTO   O47  663   4.365   5.924   0.076  0.1399  0.1119  0.7057
    2CHTO  H104  664   4.280   5.961   0.060  0.2480  0.2028  0.3401
    2CHTO   O34  665   3.875   5.851  -0.131 -0.4386  0.1157 -0.1948
    2CHTO   C49  666   3.926   6.004  -0.137 -0.3194 -0.0751  0.2670
    2CHTO   H91  667   4.034   5.997  -0.144 -0.4809 -1.8899 -0.6131
    2CHTO   C47  668   3.882   6.083  -0.020  0.0457  0.0267 -0.0295
    2CHTO   H89  669   3.936   6.179  -0.031  1.9063 -1.2072 -2.3466
    2CHTO   O33  670   3.931   6.017   0.096  0.1466 -0.2480 -0.1872
    2CHTO   H70  671   3.890   5.932   0.101  0.7592 -0.5229  0.1535
    2CHTO   C45  672   3.719   6.103  -0.023  0.1605  0.0227  0.0825
    2CHTO   H87  673   3.672   6.004  -0.032 -0.9874  0.5242  0.4839
    2CHTO    N8  674   3.666   6.170   0.096  0.3078  0.0289  0.4733
    2CHTO   H75  675   3.595   6.103   0.141 -1.1285  0.6732 -0.7952
    2CHTO   H76  676   3.741   6.195   0.169  0.7383 -1.2097  0.4687
    2CHTO   C43  677   3.685   6.179  -0.160 -0.3835  0.0684 -0.4525
    2CHTO   H85  678   3.576   6.178  -0.156 -0.2985  0.9629  2.7896
    2CHTO   O29  679   3.740   6.110  -0.275 -0.3276 -0.1108 -0.0701
    2CHTO   C50  680   3.877   6.074  -0.263 -0.0447 -0.4126  0.6473
    2CHTO   H92  681   3.900   6.006  -0.347 -0.6784  1.0153 -0.7165
    2CHTO   C54  682   3.959   6.197  -0.305  1.0367  0.1169 -0.4616
    2CHTO   O36  683   4.097   6.173  -0.338 -0.0941 -0.5287  0.3591
    2CHTO   H72  684   4.106   6.163  -0.431 -0.2971  1.0356  0.1611
    2CHTO   O27  685   3.717   6.326  -0.167  0.2082  0.7091  0.1922
    2CHTO   C37  686   3.657   6.440  -0.226 -1.1217  0.5639 -0.1669
    2CHTO   H79  687   3.639   6.431  -0.334  1.8633  0.0786 -0.6626
    2CHTO   C38  688   3.519   6.477  -0.166 -0.1516 -0.2021 -1.0418
    2CHTO   H80  689   3.534   6.485  -0.057 -0.2566  0.6315 -1.0823
    2CHTO   O31  690   3.423   6.368  -0.185  0.6690 -0.1285 -0.1770
    2CHTO   H68  691   3.414   6.321  -0.104 -0.9058 -0.3221 -0.4427
    2CHTO   C39  692   3.454   6.614  -0.214  0.3509  0.8318 -0.1118
    2CHTO   H81  693   3.431   6.608  -0.320 -2.0947  0.9177  0.3966
    2CHTO    N7  694   3.328   6.641  -0.142 -0.0968 -0.4745  0.2764
    2CHTO   H73  695   3.365   6.668  -0.045  2.1516  0.3411 -0.7782
    2CHTO   H74  696   3.279   6.730  -0.180 -0.1397 -0.6352 -0.0462
    2CHTO   C40  697   3.567   6.722  -0.191  0.2526  0.0152 -1.1415
    2CHTO   H82  698   3.586   6.728  -0.083 -1.1115  0.8577 -0.9404
    2CHTO   O26  699   3.684   6.681  -0.263 -0.1526 -0.3495  0.0661
    2CHTO   C41  700   3.753   6.563  -0.206 -0.1951 -0.7613 -0.5294
    2CHTO   H83  701   3.754   6.588  -0.098 -0.2018 -0.1439 -0.6700
    2CHTO   C52  702   3.897   6.540  -0.263 -0.0853 -0.2072 -0.2984
    2CHTO   O35  703   3.972   6.623  -0.239 -0.3878  0.0080  0.4702
    2CHTO   H71  704   4.031   6.637  -0.311 -0.0296 -1.3015  0.4892
    2CHTO   O28  705   3.518   6.848  -0.236 -0.0560 -0.0049 -0.1551
    2CHTO   C42  706   3.579   6.973  -0.189  0.0445  0.1515 -0.1577
    2CHTO   H84  707   3.565   7.038  -0.275 -2.5623  0.1617  0.2461
    2CHTO   C44  708   3.725   6.981  -0.162  0.4145  0.1310 -0.1076
    2CHTO   H86  709   3.756   6.896  -0.101  2.2666  0.5132 -0.4744
    2CHTO   O32  710   3.792   6.956  -0.286  0.3226  0.2317 -0.1404
    2CHTO   H69  711   3.874   6.913  -0.272 -0.6612 -1.6636 -0.0765
    2CHTO   C48  712   3.776   7.106  -0.088  0.4707 -0.3166  0.2851
    2CHTO   H90  713   3.759   7.190  -0.155  0.6108  0.0210  0.6720
    2CHTO    N9  714   3.917   7.106  -0.048  0.7677 -0.0118  0.0317
    2CHTO   H77  715   3.964   7.202  -0.031  2.4402 -0.5375 -1.4019
    2CHTO   H78  716   3.921   7.044   0.040 -1.3924 -0.0356  0.1431
    2CHTO   C51  717   3.677   7.128   0.035 -0.8655 -0.6220 -0.1689
    2CHTO   H93  718   3.678   7.040   0.098 -0.8748 -0.5861 -0.1185
    2CHTO   O30  719   3.551   7.147  -0.032 -0.7707  0.1363  0.0255
    2CHTO   C46  720   3.493   7.037  -0.082 -0.6239  0.0698  0.7180
    2CHTO   H88  721   3.483   6.965  -0.001  1.5675  0.0870  1.0332
    2CHTO   C53  722   3.363   7.088  -0.142  0.0288 -0.4739  0.5557
    2CHTO   O72  723   3.257   7.003  -0.174 -0.7348  0.7353 -0.0591
    2CHTO  H199  724   3.250   6.932  -0.114 -0.3186 -2.1323 -3.2516
    2CHTO   O22  725   3.697   7.244   0.118 -0.0066  0.0102 -0.1212
    2CHTO   C31  726   3.664   7.225   0.261  0.6435 -0.9111 -0.0338
    2CHTO   H59  727   3.676   7.324   0.310  2.1057 -1.9486  1.7947
    2CHTO   C29  728   3.526   7.166   0.304 -0.4611  0.3656  0.1399
    2CHTO   H57  729   3.526   7.071   0.248  2.9167  0.1702  0.4016
    2CHTO   O21  730   3.441   7.255   0.243  0.3222 -0.0108  0.3445
    2CHTO   H37  731   3.359   7.261   0.290 -0.7820 -1.7908 -1.2901
    2CHTO   C27  732   3.515   7.143   0.456  0.6868  0.1507  0.4535
    2CHTO   H55  733   3.528   7.241   0.505  1.0157  0.7338 -0.7719
    2CHTO    N5  734   3.384   7.079   0.487 -0.4708 -0.4862  0.3260
    2CHTO   H43  735   3.330   7.149   0.549  0.6068  1.9906 -1.4477
    2CHTO   H44  736   3.408   7.002   0.559  0.9425  0.1190  0.5097
    2CHTO   C25  737   3.640   7.056   0.495 -0.1706 -0.3554 -0.0117
    2CHTO   H53  738   3.648   6.955   0.451  1.5225 -0.7421  1.1418
    2CHTO   O17  739   3.765   7.126   0.470 -0.3148 -0.1166  0.3991
    2CHTO   C32  740   3.782   7.135   0.324  0.7123 -0.3438  0.6729
    2CHTO   H60  741   3.782   7.036   0.278  1.0000  0.5321 -1.2783
    2CHTO   C36  742   3.922   7.205   0.292 -0.0870 -0.4959 -0.4754
    2CHTO   O25  743   4.033   7.114   0.320  0.2588 -0.0912 -0.3134
    2CHTO   H40  744   4.114   7.159   0.337  0.4605 -1.1238  1.5389
    2CHTO   O15  745   3.631   7.037   0.660  0.1566  0.1516  0.1206
    2CHTO   C19  746   3.586   6.925   0.743 -0.0926 -0.4054 -0.6707
    2CHTO   H47  747   3.509   6.872   0.685 -1.0215 -2.1909  2.0959
    2CHTO   C20  748   3.702   6.820   0.769  0.1124 -0.2674 -0.0322
    2CHTO   H48  749   3.786   6.862   0.826 -1.0663  0.4635  1.1689
    2CHTO   O19  750   3.749   6.791   0.637  0.1648  0.3733 -0.6714
    2CHTO   H35  751   3.682   6.748   0.587  0.1778  0.8598 -1.1134
    2CHTO   C21  752   3.646   6.691   0.842 -0.1845  0.2427 -0.1735
    2CHTO   H49  753   3.571   6.648   0.775 -2.4817  0.7772  1.9993
    2CHTO    N4  754   3.743   6.588   0.864  0.1706 -0.1732 -0.2290
    2CHTO   H41  755   3.845   6.615   0.839  1.0612  0.0847  3.4465
    2CHTO   H42  756   3.717   6.499   0.809  1.0839 -1.4759  1.4148
    2CHTO   C22  757   3.568   6.731   0.971 -0.1066 -0.3071  0.5311
    2CHTO   H50  758   3.634   6.759   1.053 -0.1084 -1.0565  0.7923
    2CHTO   O14  759   3.475   6.834   0.944  0.1698  0.2535 -0.0715
    2CHTO   C23  760   3.521   6.958   0.886  0.4840 -0.3869 -0.7019
    2CHTO   H51  761   3.595   7.002   0.954 -1.5376  1.0785  0.6236
    2CHTO   C34  762   3.404   7.058   0.881  1.0521 -0.5925  0.1520
    2CHTO   O23  763   3.330   7.080   1.004 -0.9194 -0.1608  0.1053
    2CHTO   H38  764   3.315   7.002   1.054 -1.2149 -0.4501 -0.4328
    2CHTO   O16  765   3.494   6.621   1.019  0.5959  0.7003  0.0896
    2CHTO   C24  766   3.445   6.662   1.187 -0.5884 -0.1936 -0.5979
    2CHTO   H52  767   3.466   6.767   1.209  1.4623 -0.9689  1.3060
    2CHTO   C26  768   3.532   6.578   1.283  0.0531  0.6769 -0.2433
    2CHTO   H54  769   3.498   6.473   1.271 -0.6242  0.8680 -0.0033
    2CHTO   O20  770   3.668   6.592   1.247 -0.0154 -0.1154  0.3032
    2CHTO   H36  771   3.716   6.562   1.322  1.5640  0.0528 -0.6292
    2CHTO   C30  772   3.498   6.625   1.427  0.1410 -0.3415 -0.4789
    2CHTO   H58  773   3.532   6.728   1.445 -0.3783  0.2079 -2.4813
    2CHTO    N6  774   3.582   6.543   1.523  0.3433 -0.7125 -0.1028
    2CHTO   H45  775   3.515   6.480   1.580 -0.8941  1.7184  1.2094
    2CHTO   H46  776   3.645   6.602   1.587  1.9949 -1.9960 -0.4995
    2CHTO   C33  777   3.343   6.618   1.457  0.1308  1.3082  0.7204
    2CHTO   H61  778   3.319   6.511   1.464  2.9154  0.5067 -1.0111
    2CHTO   O18  779   3.267   6.680   1.351  0.6723  0.3410 -0.0423
    2CHTO   C28  780   3.299   6.642   1.220  0.7773  0.3681  0.1941
    2CHTO   H56  781   3.264   6.540   1.200 -1.3960  1.2468 -0.6162
    2CHTO   C35  782   3.212   6.727   1.121  0.4567  0.1206 -0.2063
    2CHTO   O24  783   3.077   6.678   1.099 -0.2234 -0.2403  0.2575
    2CHTO   H39  784   3.065   6.694   1.007  0.8417  3.0268  0.6325
    2CHTO    O9  785   3.313   6.669   1.590 -0.0336 -0.5342 -0.3098
    2CHTO   C13  786   3.239   6.804   1.624  0.9760  0.4838 -0.0284
    2CHTO   H26  787   3.135   6.800   1.585 -0.2953 -0.7017  3.3419
    2CHTO   C11  788   3.318   6.931   1.567  0.2299  0.2314 -0.5257
    2CHTO   H24  789   3.321   6.918   1.457 -0.0547  0.8575 -0.6087
    2CHTO    O8  790   3.457   6.919   1.617 -0.3088 -1.0068 -0.0498
    2CHTO    H3  791   3.515   6.899   1.546  2.3042 -0.5528  1.9017
    2CHTO    C9  792   3.245   7.061   1.612  0.0242  0.4045  0.0385
    2CHTO   H22  793   3.143   7.052   1.571 -0.5862 -0.3687  1.6639
    2CHTO    N2  794   3.298   7.181   1.542  0.4422  0.1884 -0.1149
    2CHTO   H10  795   3.404   7.175   1.519  0.4706  1.9641 -0.5079
    2CHTO   H11  796   3.248   7.179   1.447 -0.4206  0.9919  0.3134
    2CHTO    C7  797   3.238   7.067   1.770 -0.2709  0.1804 -0.0836
    2CHTO   H20  798   3.192   7.165   1.796  1.1711  0.2642  2.2822
    2CHTO    O4  799   3.162   6.957   1.824  0.0185  0.8332  0.1889
    2CHTO   C14  800   3.206   6.825   1.780  0.4342 -0.1167 -0.7264
    2CHTO   H27  801   3.114   6.765   1.802  0.7231 -0.8879 -1.5751
    2CHTO   C18  802   3.316   6.767   1.874  0.1738  0.2489  0.1831
    2CHTO   O13  803   3.272   6.767   2.010 -0.3397 -0.0728  0.2885
    2CHTO    H7  804   3.343   6.723   2.053  1.5908  1.8219 -0.8111
    2CHTO    O2  805   3.391   7.058   1.838  0.6039  0.5649 -0.4613
    2CHTO    C1  806   3.408   7.101   1.975  0.1177 -0.1034  0.2955
    2CHTO   H14  807   3.395   7.015   2.044 -0.9145  0.1677  0.4423
    2CHTO    C2  808   3.312   7.224   2.024  0.3946 -0.0883  0.0796
    2CHTO   H15  809   3.309   7.275   1.927  0.7473  0.2958  0.2669
    2CHTO    O6  810   3.194   7.176   2.080  0.1295  0.5948  0.0602
    2CHTO    H1  811   3.204   7.137   2.165  0.7719 -0.2071 -0.3731
    2CHTO    C3  812   3.386   7.327   2.131 -0.2265  0.0027 -0.1143
    2CHTO   H16  813   3.374   7.302   2.237 -0.0917 -0.7121 -0.2640
    2CHTO    N1  814   3.327   7.465   2.122 -0.3600 -0.6916 -0.1364
    2CHTO    H8  815   3.253   7.467   2.201 -0.7675 -0.3855 -0.5187
    2CHTO    H9  816   3.277   7.472   2.027 -0.1274 -0.8732 -0.2725
    2CHTO    C4  817   3.543   7.331   2.106 -0.0771 -0.1076 -0.2196
    2CHTO   H17  818   3.563   7.369   2.006 -0.0490  0.5571  0.0371
    2CHTO    O1  819   3.591   7.192   2.113 -0.5428  0.3264  0.2368
    2CHTO    C5  820   3.561   7.127   1.988  0.1255  0.7287 -0.3596
    2CHTO   H18  821   3.585   7.186   1.900  1.7136 -1.2098 -1.2987
    2CHTO   C16  822   3.637   6.992   1.975  0.7530 -0.3497  0.0106
    2CHTO   O11  823   3.781   7.000   1.976 -0.0407 -0.2941 -0.4461
    2CHTO    H5  824   3.810   7.086   1.955  0.0511 -0.2395 -0.1021
    2CHTO    O3  825   3.611   7.406   2.202  0.4782 -0.7615 -0.4157
    2CHTO    C6  826   3.724   7.479   2.160 -0.1287  0.1901  0.3794
    2CHTO   H19  827   3.751   7.465   2.056 -0.1685  1.8822  0.1300
    2CHTO    C8  828   3.687   7.629   2.185  0.2291  0.2918  0.4834
    2CHTO   H21  829   3.653   7.631   2.288 -0.8903 -3.3177  0.2475
    2CHTO    O7  830   3.579   7.671   2.092  0.0531 -0.0617 -0.0533
    2CHTO    H2  831   3.526   7.734   2.137  0.0861 -0.6094  0.7700
    2CHTO   C12  832   3.821   7.708   2.161 -0.2959  0.5289  0.6162
    2CHTO   H25  833   3.858   7.695   2.057  0.7670 -0.6418  1.1255
    2CHTO    N3  834   3.792   7.860   2.183 -0.1778 -0.2401  0.3503
    2CHTO   H12  835   3.886   7.909   2.166 -1.2607  1.6588 -0.2946
    2CHTO   H13  836   3.728   7.880   2.098 -0.1439 -2.5962 -0.2621
    2CHTO   C15  837   3.942   7.650   2.243  0.2575 -1.0018  0.1041
    2CHTO   H28  838   3.929   7.659   2.351 -1.9569  0.6214 -0.2581
    2CHTO   O10  839   4.091   7.707   2.187  0.7659 -0.3863 -0.5054
    2CHTO    H4  840   4.114   7.665   2.106  3.8626 -0.0918  0.1605
    2CHTO    O5  841   3.963   7.511   2.219  0.2267  0.5729 -0.7396
    2CHTO   C10  842   3.844   7.430   2.247 -0.0925 -0.3266  0.4133
    2CHTO   H23  843   3.825   7.428   2.355 -0.9404 -1.8889  0.2553
    2CHTO   C17  844   3.877   7.281   2.203  0.3457  0.3304 -0.0618
    2CHTO   O12  845   4.008   7.234   2.244  0.2824  0.4829 -0.0169
    2CHTO    H6  846   4.079   7.245   2.184 -0.1141  2.5313 -0.1538
    3CHTO  H203  847   8.018   2.026   1.738 -0.1605 -0.5425 -0.6863
    3CHTO   O82  848   8.001   1.964   1.808 -0.3212  0.7236  0.4202
    3CHTO  C123  849   7.964   1.836   1.756  0.2301  0.2051  0.2172
    3CHTO  H227  850   8.055   1.783   1.726 -0.0224  0.0270 -0.2548
    3CHTO   O77  851   7.907   1.765   1.871  0.3527 -0.2774 -0.1289
    3CHTO  C118  852   7.888   1.626   1.832  0.1441 -0.1019  0.0950
    3CHTO  H222  853   7.974   1.571   1.791  0.5519  1.0442 -0.6258
    3CHTO  C125  854   7.839   1.551   1.955 -0.3094 -0.3333 -0.1364
    3CHTO   O84  855   7.853   1.411   1.939 -0.0268 -0.1541 -0.0035
    3CHTO  H205  856   7.931   1.381   1.981 -0.8413  0.9272  2.3615
    3CHTO  C114  857   7.775   1.616   1.727 -0.0406 -0.2575  0.4579
    3CHTO  H218  858   7.688   1.670   1.764 -0.0073  0.3474 -0.3552
    3CHTO  C116  859   7.810   1.705   1.603 -0.1232  0.0362  0.3910
    3CHTO  H220  860   7.881   1.644   1.543  1.2126 -0.1131  2.0873
    3CHTO   O79  861   7.682   1.714   1.525  0.1110 -0.0831  0.0029
    3CHTO  H201  862   7.627   1.781   1.562  0.7495 -0.2526  1.2973
    3CHTO  C120  863   7.861   1.847   1.645  1.3528  0.4882  0.7532
    3CHTO  H224  864   7.771   1.893   1.692  0.6847 -0.6832  0.6423
    3CHTO   N21  865   7.913   1.915   1.526 -0.3423 -0.3849 -0.7614
    3CHTO  H211  866   7.857   1.892   1.437 -0.7120  0.0374 -0.6391
    3CHTO  H212  867   7.902   2.021   1.546 -0.5492 -0.2943 -1.3471
    3CHTO   O75  868   7.757   1.477   1.706  0.2227 -0.3387  0.5746
    3CHTO  C112  869   7.618   1.408   1.649 -0.4784 -0.6327  0.1386
    3CHTO  H216  870   7.638   1.397   1.541  2.7342  1.8470  0.4003
    3CHTO   O73  871   7.516   1.502   1.673  0.2422 -0.5313 -0.0757
    3CHTO  C113  872   7.397   1.467   1.616 -0.1105  0.4932  0.1140
    3CHTO  H217  873   7.396   1.447   1.507 -1.6355 -0.4666  0.2900
    3CHTO  C124  874   7.303   1.587   1.618  0.2901  0.5302 -0.1624
    3CHTO   O83  875   7.174   1.568   1.550  0.2853 -0.1856  0.0482
    3CHTO  H204  876   7.170   1.632   1.482  0.6115 -0.0169  0.1860
    3CHTO  C109  877   7.340   1.338   1.683 -0.3048  0.0172 -0.1842
    3CHTO  H213  878   7.333   1.353   1.791  2.6573 -0.4461  0.1196
    3CHTO  C110  879   7.443   1.219   1.678  0.1535 -0.0565 -0.1413
    3CHTO  H214  880   7.446   1.182   1.575 -2.1623  1.5201 -0.8140
    3CHTO   O78  881   7.394   1.103   1.753  0.1833  0.1904 -0.4507
    3CHTO  H200  882   7.461   1.038   1.756 -1.1668 -1.2001  0.2024
    3CHTO  C111  883   7.585   1.269   1.718  0.4953 -0.7027  0.1641
    3CHTO  H215  884   7.581   1.295   1.825 -0.8088  3.0088 -0.7012
    3CHTO   N19  885   7.694   1.173   1.699 -0.5378  0.1002 -0.1210
    3CHTO  H207  886   7.749   1.145   1.788 -1.8310  1.4526  1.1351
    3CHTO  H208  887   7.677   1.092   1.630 -0.0082  1.0607 -1.4158
    3CHTO   O74  888   7.210   1.307   1.629 -0.3948 -0.0497  0.4683
    3CHTO  C115  889   7.097   1.223   1.728 -0.3128  0.0877 -0.0640
    3CHTO  H219  890   7.144   1.144   1.787  2.3895  2.5783  1.2758
    3CHTO   O76  891   7.039   1.316   1.837 -0.1231 -0.6508 -0.3749
    3CHTO  C122  892   6.938   1.409   1.795 -0.0050  0.5445  1.0908
    3CHTO  H226  893   6.981   1.474   1.718  1.3127 -0.2763  1.1079
    3CHTO  C126  894   6.887   1.502   1.916  0.4048 -0.4123 -0.5122
    3CHTO   O85  895   6.987   1.590   1.977  0.2441 -0.4809 -0.1743
    3CHTO  H206  896   7.069   1.545   1.966 -0.7098 -2.1542 -0.6157
    3CHTO  C121  897   6.812   1.334   1.732  0.7398 -0.4579 -0.6578
    3CHTO  H225  898   6.729   1.341   1.805  0.2430 -1.0377 -1.1643
    3CHTO   O81  899   6.773   1.405   1.611 -0.0451  0.1629 -0.4746
    3CHTO  H202  900   6.757   1.494   1.637 -1.5334 -0.4618  0.8119
    3CHTO  C119  901   6.843   1.186   1.711  0.0482  0.1911 -0.3995
    3CHTO  H223  902   6.852   1.140   1.810  0.2040  1.5672  0.2499
    3CHTO  C117  903   6.984   1.174   1.634  0.5060  0.1635 -0.2574
    3CHTO  H221  904   6.987   1.242   1.548  0.3508  1.6966  0.9314
    3CHTO   N20  905   7.015   1.039   1.577 -0.0372 -0.2128 -0.4060
    3CHTO  H209  906   7.047   1.053   1.475 -0.6836  0.3823 -0.5267
    3CHTO  H210  907   6.921   0.987   1.592 -0.4929  0.7596  0.1829
    3CHTO   O80  908   6.731   1.119   1.660  0.3736 -0.3703  0.6585
    3CHTO  C103  909   6.603   1.089   1.753  0.0825  0.1757 -0.3312
    3CHTO  H190  910   6.618   1.098   1.861  0.2522 -1.5985 -0.1762
    3CHTO  C101  911   6.479   1.178   1.718 -0.3152 -0.9630 -0.6362
    3CHTO  H188  912   6.478   1.181   1.609 -1.5439 -0.4812 -0.6166
    3CHTO   O68  913   6.491   1.300   1.772  0.5451  0.0408 -0.0785
    3CHTO  H168  914   6.512   1.297   1.863  0.1571 -0.0376  0.0079
    3CHTO   C99  915   6.338   1.103   1.764 -0.2034  0.1754  0.0941
    3CHTO  H186  916   6.346   1.098   1.874 -1.0696  0.5321  0.1752
    3CHTO   N17  917   6.212   1.182   1.735  0.3289 -0.7995  0.5535
    3CHTO  H174  918   6.128   1.119   1.757  0.9951 -2.0449 -0.4241
    3CHTO  H175  919   6.214   1.269   1.800  0.8501  0.8432 -1.5774
    3CHTO   C97  920   6.333   0.960   1.708  1.1994 -0.2792  0.2028
    3CHTO  H184  921   6.339   0.955   1.598 -1.5684 -0.2063  0.0298
    3CHTO   O64  922   6.444   0.893   1.771 -0.2156 -0.2500  0.1463
    3CHTO  C104  923   6.575   0.935   1.726  0.4226 -0.8799 -0.1139
    3CHTO  H191  924   6.600   0.917   1.622 -0.3920 -1.7980 -0.1619
    3CHTO  C108  925   6.683   0.855   1.812  0.1408  0.2664  0.0460
    3CHTO   O71  926   6.672   0.716   1.772 -0.1559  0.2416  0.1174
    3CHTO  H171  927   6.587   0.706   1.734  0.0745  0.7373 -0.5352
    3CHTO   O62  928   6.219   0.877   1.746 -0.2687 -0.0004  0.3609
    3CHTO   C91  929   6.192   0.752   1.670 -0.2981  0.6592  0.1748
    3CHTO  H178  930   6.214   0.783   1.568  0.2729  0.4307  0.2261
    3CHTO   C92  931   6.043   0.728   1.674 -0.0369 -0.1036 -0.9306
    3CHTO  H179  932   6.006   0.728   1.778  0.1590 -0.1677 -0.8612
    3CHTO   O66  933   5.968   0.842   1.621  0.0728 -0.6236  0.0690
    3CHTO  H166  934   5.963   0.855   1.528  0.3546  0.7943  0.2493
    3CHTO   C93  935   6.003   0.590   1.602  0.4916  0.1226 -0.0079
    3CHTO  H180  936   6.040   0.588   1.498 -0.5511  1.3229 -0.4189
    3CHTO   N16  937   5.860   0.580   1.590 -0.5186  0.1635 -0.2593
    3CHTO  H172  938   5.836   0.565   1.486 -1.5589  1.5846 -0.2333
    3CHTO  H173  939   5.816   0.506   1.655  0.3914 -0.2119 -0.0652
    3CHTO   C94  940   6.065   0.473   1.686  0.8215 -0.4257 -0.8247
    3CHTO  H181  941   5.998   0.432   1.762  0.3209 -2.2615 -2.2292
    3CHTO   O61  942   6.178   0.515   1.767  0.0024  0.7726 -0.3915
    3CHTO   C95  943   6.269   0.617   1.727  1.2615  0.2549  0.6908
    3CHTO  H182  944   6.324   0.645   1.816 -0.7022 -0.4206  2.1551
    3CHTO  C106  945   6.376   0.559   1.625  0.0951 -0.0232 -0.7453
    3CHTO   O69  946   6.471   0.474   1.686  0.1066  0.1735 -0.3820
    3CHTO  H169  947   6.558   0.493   1.657  0.3356 -1.9332 -1.1674
    3CHTO   O63  948   6.120   0.356   1.576  0.3865  0.4331 -0.0160
    3CHTO   C96  949   6.046   0.227   1.550 -0.5695 -0.5104  0.5315
    3CHTO  H183  950   6.104   0.177   1.473  0.0163  2.2871 -0.9135
    3CHTO   C98  951   5.897   0.241   1.505  0.5895 -0.0394 -0.6813
    3CHTO  H185  952   5.848   0.312   1.573  0.4193 -0.6348 -0.1892
    3CHTO   O67  953   5.908   0.306   1.376  0.2914  0.7864  0.0697
    3CHTO  H167  954   5.821   0.305   1.340 -0.3098 -0.4711  1.4860
    3CHTO  C102  955   5.821   0.102   1.510  0.4418  0.8222 -0.0602
    3CHTO  H189  956   5.868   0.038   1.433  0.9343  1.6101 -0.4187
    3CHTO   N18  957   5.674   0.107   1.467 -0.8151 -0.5785 -0.7611
    3CHTO  H176  958   5.619   0.174   1.532  1.3419 -0.4261  0.9576
    3CHTO  H177  959   5.679   0.138   1.364  0.3139  1.7311 -0.0514
    3CHTO  C105  960   5.855   0.018   1.633 -0.7849  0.6794  0.4291
    3CHTO  H192  961   5.793   0.046   1.718  1.2556  0.8123  1.9010
    3CHTO   O65  962   5.989   0.018   1.682  0.4837  0.0896 -0.0156
    3CHTO  C100  963   6.054   0.146   1.687 -0.0705 -0.2295 -0.5804
    3CHTO  H187  964   6.007   0.209   1.765  1.1037  0.8803 -0.7458
    3CHTO  C107  965   6.201   0.125   1.727 -0.4171 -0.1368 -1.0183
    3CHTO   O70  966   6.204   0.099   1.866 -0.1800  0.4019 -0.5623
    3CHTO  H170  967   6.162   0.017   1.880  0.3932  0.2810  0.5230
    3CHTO   O57  968   5.814  -0.142   1.602 -0.9704  0.6209  0.4783
    3CHTO   C85  969   5.750  -0.236   1.695  0.1083 -0.1826 -0.6284
    3CHTO  H157  970   5.767  -0.332   1.644  1.1876 -0.1884 -0.2642
    3CHTO   C83  971   5.597  -0.213   1.700 -0.0840 -0.3129  0.1011
    3CHTO  H155  972   5.555  -0.262   1.612 -1.0329  0.3956  0.1519
    3CHTO   O56  973   5.571  -0.072   1.701  0.4840  0.3780 -0.0813
    3CHTO  H135  974   5.535  -0.045   1.618 -0.2070 -1.0484 -0.2575
    3CHTO   C81  975   5.527  -0.287   1.818 -0.2336 -0.2716  0.8046
    3CHTO  H153  976   5.540  -0.394   1.803 -2.8987 -0.7868  1.8524
    3CHTO   N14  977   5.379  -0.283   1.805 -0.0796  0.5091  0.3692
    3CHTO  H141  978   5.338  -0.378   1.776  0.0766  0.1216  1.4006
    3CHTO  H142  979   5.345  -0.207   1.737  0.6462  0.4479 -0.0611
    3CHTO   C79  980   5.593  -0.252   1.959 -0.1523 -0.3854  0.3423
    3CHTO  H151  981   5.556  -0.317   2.039  1.1976 -0.9178  0.5390
    3CHTO   O52  982   5.741  -0.286   1.947 -0.1602  0.0281  0.4125
    3CHTO   C86  983   5.817  -0.230   1.844  0.8515 -0.2560  0.1316
    3CHTO  H158  984   5.819  -0.123   1.874  0.7109 -0.3047  0.3122
    3CHTO   C90  985   5.967  -0.274   1.832  0.1407 -0.6532  0.0016
    3CHTO   O60  986   6.040  -0.268   1.952  0.3750  0.4849 -0.0464
    3CHTO  H138  987   6.131  -0.281   1.934  0.1167 -0.6492 -0.5624
    3CHTO   O50  988   5.579  -0.108   1.992 -0.0456 -0.3688 -0.0033
    3CHTO   C73  989   5.592  -0.056   2.123 -0.1999 -0.5809 -0.1963
    3CHTO  H145  990   5.657  -0.117   2.187  0.4043 -0.3099 -0.5423
    3CHTO   C74  991   5.457  -0.037   2.187  0.3768 -0.3562  0.6896
    3CHTO  H146  992   5.407  -0.135   2.194 -0.7396  0.1981  0.5782
    3CHTO   O54  993   5.479   0.002   2.323 -0.0371  0.5694  0.0528
    3CHTO  H133  994   5.424  -0.051   2.378  0.6157 -1.2580 -0.9968
    3CHTO   C75  995   5.371   0.069   2.104 -0.5804  0.0943 -0.0809
    3CHTO  H147  996   5.332   0.026   2.010 -1.5727  1.7484 -0.4536
    3CHTO   N13  997   5.243   0.094   2.178  0.0233 -0.0546  0.2618
    3CHTO  H139  998   5.208   0.196   2.168 -0.8078 -0.5368 -1.9666
    3CHTO  H140  999   5.243   0.066   2.282 -1.9980 -1.5817 -0.1123
    3CHTO   C76 1000   5.452   0.206   2.066  0.2498  0.1281  0.3126
    3CHTO  H148 1001   5.464   0.284   2.141 -0.1201  0.0145  0.4949
    3CHTO   O49 1002   5.586   0.164   2.020  0.1304  0.3479  0.3959
    3CHTO   C77 1003   5.667   0.082   2.111 -0.4358 -0.0053  0.0671
    3CHTO  H149 1004   5.674   0.131   2.208  1.2559  1.7146 -0.8883
    3CHTO   C88 1005   5.813   0.066   2.073 -0.2551 -0.4423 -0.2093
    3CHTO   O58 1006   5.862   0.167   1.983  0.2950 -0.5481  0.6592
    3CHTO  H136 1007   5.946   0.150   1.947  0.1791  2.1930 -1.0083
    3CHTO   O51 1008   5.385   0.269   1.921  0.1014  0.6119 -0.1257
    3CHTO   C78 1009   5.395   0.444   1.944 -0.5245 -0.3407 -0.4994
    3CHTO  H150 1010   5.475   0.469   2.018 -0.2467 -1.2196 -0.5045
    3CHTO   C80 1011   5.260   0.511   1.989 -1.2490 -0.5457  0.7441
    3CHTO  H152 1012   5.180   0.488   1.915  0.1594 -3.0232 -0.0348
    3CHTO   O55 1013   5.222   0.453   2.119  0.1494 -0.1108 -0.7436
    3CHTO  H134 1014   5.163   0.511   2.163  0.5179 -0.9059  0.8221
    3CHTO   C84 1015   5.282   0.668   2.015 -0.0178 -0.5376  0.1951
    3CHTO  H156 1016   5.357   0.676   2.094 -0.2889 -1.0737  0.5110
    3CHTO   N15 1017   5.161   0.739   2.064 -0.3616  0.6166  0.3050
    3CHTO  H143 1018   5.123   0.702   2.157 -0.0364 -2.6752 -0.7962
    3CHTO  H144 1019   5.186   0.842   2.078 -1.9306  0.9823  0.4219
    3CHTO   C87 1020   5.347   0.738   1.893  0.1912  0.5850 -0.5502
    3CHTO  H159 1021   5.273   0.759   1.816  0.3739  1.4367 -0.4968
    3CHTO   O53 1022   5.477   0.648   1.838 -0.2108 -0.0268  0.2611
    3CHTO   C82 1023   5.441   0.512   1.813  0.6602 -0.8519  0.2329
    3CHTO  H154 1024   5.360   0.521   1.740 -0.5208  0.5281  1.6668
    3CHTO   C89 1025   5.553   0.427   1.745 -0.8591  0.0150  0.0025
    3CHTO   O59 1026   5.645   0.386   1.849 -0.2361  0.0181  0.7454
    3CHTO  H137 1027   5.690   0.458   1.889 -1.2582  2.4617 -2.2780
    3CHTO   O45 1028   5.403   0.898   1.947 -0.9477 -0.1063  0.4532
    3CHTO   C67 1029   5.534   0.899   1.998  0.1303  1.0150  0.1374
    3CHTO  H124 1030   5.575   0.798   1.999  0.4666  1.1564  0.5728
    3CHTO   C65 1031   5.616   0.980   1.884 -0.1547  0.8272 -0.1312
    3CHTO  H122 1032   5.536   1.044   1.846 -1.2333  0.5809  1.6677
    3CHTO   O44 1033   5.647   0.873   1.788  0.0934  0.0023 -0.1571
    3CHTO  H102 1034   5.603   0.904   1.711 -1.4252 -2.2846 -0.2465
    3CHTO   C63 1035   5.741   1.061   1.930 -1.3716 -0.0074  0.2156
    3CHTO  H120 1036   5.704   1.151   1.977 -0.8912  0.1676  0.2652
    3CHTO   N11 1037   5.836   1.113   1.825  0.3188 -0.1069  0.3576
    3CHTO  H108 1038   5.887   1.196   1.868 -0.7097  0.2194  0.9672
    3CHTO  H109 1039   5.789   1.130   1.730  0.0337  1.2264  0.7359
    3CHTO   C61 1040   5.813   0.976   2.042 -0.2428  0.0290  0.0750
    3CHTO  H118 1041   5.890   1.042   2.084 -2.5038  2.6084  0.2976
    3CHTO   O40 1042   5.715   0.941   2.155 -0.0041 -0.5383 -0.2138
    3CHTO   C68 1043   5.577   0.968   2.131 -0.5298 -0.0105  0.7779
    3CHTO  H125 1044   5.549   1.075   2.122  1.2664  0.3331 -1.2188
    3CHTO   C72 1045   5.491   0.911   2.244 -0.1279 -0.0189 -0.2737
    3CHTO   O48 1046   5.371   0.979   2.258 -0.6950 -0.0464 -0.9880
    3CHTO  H105 1047   5.381   1.066   2.291 -2.5422 -0.6884  1.4360
    3CHTO   O38 1048   5.865   0.856   1.988 -0.0047 -0.8502 -0.1080
    3CHTO   C55 1049   5.961   0.796   2.070 -0.0326  0.2120 -0.5638
    3CHTO  H112 1050   5.939   0.806   2.177  0.5178  0.2768 -0.4525
    3CHTO   C56 1051   6.103   0.850   2.033 -0.1471  0.3901  0.3573
    3CHTO  H113 1052   6.117   0.841   1.925 -0.5309 -1.0565  0.4203
    3CHTO   O42 1053   6.122   0.993   2.064 -0.2203 -0.2680  0.3605
    3CHTO  H100 1054   6.047   1.029   2.108 -0.3085 -0.7472  0.6057
    3CHTO   C57 1055   6.213   0.763   2.107 -0.3325  0.3458 -0.6062
    3CHTO  H114 1056   6.206   0.793   2.212 -0.3362  0.5553 -0.6676
    3CHTO   N10 1057   6.348   0.788   2.047  0.6216 -0.6588 -0.2914
    3CHTO  H106 1058   6.357   0.889   2.011 -0.7474 -0.5436 -0.3436
    3CHTO  H107 1059   6.418   0.771   2.128 -0.0476 -0.0338  0.4279
    3CHTO   C58 1060   6.185   0.610   2.092 -0.6699 -0.0724  0.7723
    3CHTO  H115 1061   6.190   0.595   1.982 -0.5512  2.0091  0.4682
    3CHTO   O37 1062   6.054   0.590   2.137  0.3267  0.1756  0.1770
    3CHTO   C59 1063   5.951   0.643   2.047  1.2462  0.2107 -0.2056
    3CHTO  H116 1064   5.976   0.615   1.944  2.1567  0.9045 -0.1798
    3CHTO   C70 1065   5.810   0.590   2.081  0.0919 -0.1157  0.7812
    3CHTO   O46 1066   5.788   0.452   2.057  0.0765 -0.2155 -0.5801
    3CHTO  H103 1067   5.704   0.421   2.083  0.5358 -2.0243 -1.1953
    3CHTO   O39 1068   6.289   0.526   2.188 -0.8196  0.9776  0.2999
    3CHTO   C60 1069   6.337   0.414   2.104  0.5665 -0.5500 -0.1210
    3CHTO  H117 1070   6.275   0.402   2.015  1.0772  1.1700 -0.7344
    3CHTO   C62 1071   6.482   0.448   2.058  0.3621 -0.0923 -0.3187
    3CHTO  H119 1072   6.473   0.535   1.990 -1.4725  0.6951  0.9074
    3CHTO   O43 1073   6.576   0.491   2.165 -0.2280  0.4396 -0.1028
    3CHTO  H101 1074   6.579   0.425   2.232  0.5923  0.7954  0.2204
    3CHTO   C66 1075   6.542   0.324   1.977 -0.2436 -0.0076  0.1191
    3CHTO  H123 1076   6.473   0.286   1.901  0.5339 -1.7271  0.2578
    3CHTO   N12 1077   6.670   0.362   1.915  0.3606 -0.0376 -0.0417
    3CHTO  H110 1078   6.738   0.397   1.991  1.6111  1.8344 -1.9607
    3CHTO  H111 1079   6.664   0.432   1.833 -1.0379  1.4213  1.2657
    3CHTO   C69 1080   6.549   0.191   2.056 -0.1810  0.5332  0.9347
    3CHTO  H126 1081   6.610   0.197   2.149 -0.6341  1.1689  1.1905
    3CHTO   O41 1082   6.401   0.162   2.104 -0.4671 -0.0437 -0.3950
    3CHTO   C64 1083   6.328   0.283   2.184  0.4156  0.4886 -0.7152
    3CHTO  H121 1084   6.376   0.301   2.283  0.8431 -0.4829 -0.7443
    3CHTO   C71 1085   6.183   0.235   2.201 -0.3973 -0.0571 -0.3897
    3CHTO   O47 1086   6.185   0.116   2.290  0.3644  0.1713 -0.0946
    3CHTO  H104 1087   6.172   0.135   2.381 -3.3949 -1.0901 -0.2915
    3CHTO   O34 1088   6.608   0.060   1.964 -0.5163  0.7691 -0.4624
    3CHTO   C49 1089   6.752  -0.008   1.952  0.9518  0.0663 -0.3505
    3CHTO   H91 1090   6.827   0.071   1.964 -0.1871  1.2807 -1.0773
    3CHTO   C47 1091   6.765  -0.074   1.813 -0.3054 -0.0784 -0.6949
    3CHTO   H89 1092   6.830  -0.006   1.754  0.8739 -0.0019  0.6995
    3CHTO   O33 1093   6.638  -0.082   1.746 -1.0953  0.9031  0.0982
    3CHTO   H70 1094   6.643  -0.112   1.657 -0.0759 -1.4334  0.9253
    3CHTO   C45 1095   6.823  -0.222   1.824  0.3699  0.6982  0.1410
    3CHTO   H87 1096   6.754  -0.288   1.879  1.8217  0.2529  1.4742
    3CHTO    N8 1097   6.855  -0.286   1.690 -0.6333 -0.0898  0.1851
    3CHTO   H75 1098   6.823  -0.389   1.684 -0.3890 -0.0720 -1.5947
    3CHTO   H76 1099   6.962  -0.278   1.674 -1.0166  0.6093 -2.2162
    3CHTO   C43 1100   6.950  -0.218   1.926 -0.0905 -0.3344 -0.5991
    3CHTO   H85 1101   6.994  -0.318   1.933 -0.7520 -0.4643  2.2645
    3CHTO   O29 1102   6.914  -0.167   2.055 -0.2767 -0.2486 -0.1445
    3CHTO   C50 1103   6.785  -0.109   2.067 -0.0620  0.7711  0.1734
    3CHTO   H92 1104   6.726  -0.202   2.063  0.5188  0.4483 -1.2188
    3CHTO   C54 1105   6.779  -0.048   2.208 -0.3943  0.3917  0.6100
    3CHTO   O36 1106   6.873   0.056   2.216 -0.5371  0.9024 -0.7685
    3CHTO   H72 1107   6.924   0.040   2.293 -0.2819  2.6283 -0.5676
    3CHTO   O27 1108   7.061  -0.146   1.879 -0.1918 -0.1389 -0.1027
    3CHTO   C37 1109   7.173  -0.075   1.820  0.3722  0.4467 -0.0053
    3CHTO   H79 1110   7.261  -0.109   1.877  0.4231 -1.1893 -1.0368
    3CHTO   C38 1111   7.204  -0.111   1.668 -0.2717 -0.6009  0.2184
    3CHTO   H80 1112   7.105  -0.120   1.621 -0.0499 -1.2655 -0.1252
    3CHTO   O31 1113   7.258  -0.240   1.655 -0.3591  0.5952  0.3784
    3CHTO   H68 1114   7.210  -0.294   1.714  1.2171 -2.2453 -0.8430
    3CHTO   C39 1115   7.299  -0.002   1.597 -0.1177 -0.2344 -0.3613
    3CHTO   H81 1116   7.397  -0.011   1.643 -0.1721 -0.2448 -0.2458
    3CHTO    N7 1117   7.303  -0.017   1.448  0.3303  0.2023  0.5400
    3CHTO   H73 1118   7.205   0.017   1.417  0.7362  0.4920 -0.4598
    3CHTO   H74 1119   7.378   0.044   1.399  0.2241 -1.6796 -2.0853
    3CHTO   C40 1120   7.247   0.143   1.640  0.4898  0.7971 -0.1751
    3CHTO   H82 1121   7.145   0.158   1.604  0.6518  1.6825 -0.2590
    3CHTO   O26 1122   7.252   0.155   1.785 -0.1031  0.0082 -0.0294
    3CHTO   C41 1123   7.148   0.081   1.849 -0.0756 -0.0466 -0.9532
    3CHTO   H83 1124   7.048   0.101   1.808 -1.3340 -2.3257  0.9079
    3CHTO   C52 1125   7.136   0.125   1.990  0.2264  0.0439 -0.5091
    3CHTO   O35 1126   7.092   0.256   2.001 -0.0267  0.3558 -1.0415
    3CHTO   H71 1127   7.022   0.262   2.062  1.5801 -1.0671  0.9996
    3CHTO   O28 1128   7.326   0.250   1.593 -0.3640 -0.1381  0.0135
    3CHTO   C42 1129   7.263   0.373   1.559  0.1178  0.7316  1.4740
    3CHTO   H84 1130   7.350   0.439   1.556  1.3644 -0.9322  0.2262
    3CHTO   C44 1131   7.164   0.435   1.664  0.0222 -0.2305  0.2521
    3CHTO   H86 1132   7.078   0.369   1.667 -0.6009  0.5996  0.6047
    3CHTO   O32 1133   7.222   0.433   1.796 -0.4481  0.4289  0.0942
    3CHTO   H69 1134   7.289   0.498   1.809 -0.1277  0.4690 -1.6381
    3CHTO   C48 1135   7.113   0.583   1.615 -1.0505  0.1639  0.1444
    3CHTO   H90 1136   7.203   0.644   1.605  0.9157 -2.7290 -0.2505
    3CHTO    N9 1137   7.027   0.650   1.712 -0.4310 -0.7689  0.5025
    3CHTO   H77 1138   7.017   0.576   1.790  0.2926  0.7077  2.0199
    3CHTO   H78 1139   7.088   0.728   1.756  0.3859 -0.6905 -0.7461
    3CHTO   C51 1140   7.050   0.581   1.476 -0.5600  0.1757  1.2470
    3CHTO   H93 1141   6.959   0.523   1.488  0.1707 -1.0411  0.9805
    3CHTO   O30 1142   7.146   0.516   1.392  0.0852 -0.3341  0.2667
    3CHTO   C46 1143   7.194   0.383   1.415  0.3497  0.0511  0.0943
    3CHTO   H88 1144   7.114   0.308   1.418  2.4976 -2.2905 -0.1271
    3CHTO   C53 1145   7.293   0.354   1.302  0.0952  0.8518  0.4133
    3CHTO   O72 1146   7.240   0.372   1.166 -0.4933 -0.6286 -0.3219
    3CHTO  H199 1147   7.148   0.358   1.159 -0.5207 -0.6998  0.1198
    3CHTO   O22 1148   7.023   0.711   1.418  1.1628  0.0395 -0.2555
    3CHTO   C31 1149   6.926   0.701   1.308  0.2161  1.0309  0.0372
    3CHTO   H59 1150   6.933   0.601   1.261  1.3388  0.5837  1.1092
    3CHTO   C29 1151   6.774   0.728   1.346 -0.1595  0.3782 -0.1603
    3CHTO   H57 1152   6.785   0.827   1.394  2.1915 -0.5944  1.4072
    3CHTO   O21 1153   6.728   0.642   1.453 -0.6403  0.0499 -0.1810
    3CHTO   H37 1154   6.636   0.628   1.449 -0.8256  1.2613 -0.3990
    3CHTO   C27 1155   6.676   0.733   1.220 -0.2551 -0.7615  0.3071
    3CHTO   H55 1156   6.664   0.632   1.178 -1.3899 -0.6557  0.3544
    3CHTO    N5 1157   6.536   0.785   1.250  0.2099 -0.0560 -0.0928
    3CHTO   H43 1158   6.524   0.886   1.212  1.1955  0.0453 -0.1571
    3CHTO   H44 1159   6.508   0.764   1.352  0.8656 -1.5672 -0.2217
    3CHTO   C25 1160   6.743   0.820   1.114 -0.1899 -0.1172  0.1786
    3CHTO   H53 1161   6.751   0.921   1.158 -2.3668  0.4250 -0.6012
    3CHTO   O17 1162   6.884   0.783   1.087  0.3375  0.1571  0.7523
    3CHTO   C32 1163   6.971   0.808   1.197 -0.2373  0.0678 -0.4779
    3CHTO   H60 1164   6.965   0.909   1.237  2.8616 -0.2601  1.0094
    3CHTO   C36 1165   7.110   0.780   1.129  0.5963  0.3267 -0.0679
    3CHTO   O25 1166   7.140   0.649   1.103 -0.4732  0.1213  0.4003
    3CHTO   H40 1167   7.145   0.602   1.184 -2.4794  0.3094  0.6602
    3CHTO   O15 1168   6.647   0.811   0.969  0.1765 -0.0761 -0.4226
    3CHTO   C19 1169   6.608   0.912   0.883  0.7102 -1.2940  0.6950
    3CHTO   H47 1170   6.577   0.863   0.789 -0.4453  1.1939 -0.2790
    3CHTO   C20 1171   6.483   0.991   0.937 -0.2690  1.0025 -0.0597
    3CHTO   H48 1172   6.508   1.045   1.030 -1.9727  1.2007  0.3005
    3CHTO   O19 1173   6.377   0.893   0.973 -0.2571  0.5808 -0.0062
    3CHTO   H35 1174   6.309   0.868   0.914 -0.3059 -0.4166  0.4703
    3CHTO   C21 1175   6.439   1.098   0.828  0.4899 -0.2721 -1.3661
    3CHTO   H49 1176   6.409   1.046   0.737 -0.2978 -1.8548 -0.2212
    3CHTO    N4 1177   6.327   1.182   0.867  0.1115  0.3491 -0.2827
    3CHTO   H41 1178   6.364   1.282   0.885 -0.3823  0.8063 -1.6852
    3CHTO   H42 1179   6.275   1.143   0.953 -1.1217  0.5275 -0.9242
    3CHTO   C22 1180   6.558   1.185   0.786 -0.8160  0.2100  0.3331
    3CHTO   H50 1181   6.580   1.253   0.868 -1.7662 -0.1314  0.8762
    3CHTO   O14 1182   6.667   1.103   0.741  0.7621  0.5511 -0.1671
    3CHTO   C23 1183   6.711   1.022   0.842  0.2143  0.4062 -0.4898
    3CHTO   H51 1184   6.741   1.085   0.927 -0.8546  0.7491 -0.3630
    3CHTO   C34 1185   6.843   0.955   0.799  0.3179  0.4155  0.4106
    3CHTO   O23 1186   6.915   1.041   0.712  0.4285  0.0802  0.1624
    3CHTO   H38 1187   6.948   1.114   0.759  1.2838  0.0521 -0.3948
    3CHTO   O16 1188   6.535   1.265   0.672  0.0278  0.5727 -0.7831
    3CHTO   C24 1189   6.624   1.390   0.663  0.4396 -0.3807  0.1203
    3CHTO   H52 1190   6.704   1.383   0.736 -0.3073 -3.0144  0.7732
    3CHTO   C26 1191   6.537   1.516   0.670 -0.3464 -0.0106 -0.3720
    3CHTO   H54 1192   6.462   1.515   0.588  0.3685  0.0950 -1.0322
    3CHTO   O20 1193   6.474   1.512   0.800  0.4885  0.3061  0.2022
    3CHTO   H36 1194   6.385   1.481   0.793  0.2091  1.2127 -0.3257
    3CHTO   C30 1195   6.618   1.649   0.643  0.1171 -0.3942  0.1042
    3CHTO   H58 1196   6.694   1.650   0.724  1.0797 -2.2859 -0.7476
    3CHTO    N6 1197   6.534   1.767   0.669  0.5000  0.0759  0.3310
    3CHTO   H45 1198   6.459   1.740   0.741 -0.8004  0.8288 -0.7116
    3CHTO   H46 1199   6.488   1.807   0.579  0.1953 -0.8080  0.0903
    3CHTO   C33 1200   6.705   1.645   0.517  0.0115 -0.2972  0.1891
    3CHTO   H61 1201   6.643   1.648   0.427 -0.1088  1.0665  0.3096
    3CHTO   O18 1202   6.771   1.524   0.527 -0.6825  0.0890  0.1687
    3CHTO   C28 1203   6.693   1.397   0.533  0.3697  0.1435  0.3375
    3CHTO   H56 1204   6.615   1.397   0.457 -0.6002  0.9462  1.3279
    3CHTO   C35 1205   6.788   1.283   0.507  0.0655  0.0233  0.3702
    3CHTO   O24 1206   6.882   1.310   0.406  0.3720  0.1209  0.2965
    3CHTO   H39 1207   6.961   1.356   0.429  0.9335  0.2089 -1.6687
    3CHTO    O9 1208   6.796   1.754   0.496  0.3790 -0.9946  0.8129
    3CHTO   C13 1209   6.917   1.762   0.595 -0.0337 -0.7610 -0.2438
    3CHTO   H26 1210   6.875   1.730   0.693  1.8078 -1.5063  0.3152
    3CHTO   C11 1211   6.981   1.912   0.607 -0.7824 -0.4263 -0.1165
    3CHTO   H24 1212   6.902   1.972   0.655  1.2289  1.4150  0.9735
    3CHTO    O8 1213   7.019   1.963   0.478  0.3096  0.7853  0.1637
    3CHTO    H3 1214   6.944   1.965   0.422  0.6172 -1.2915 -0.3408
    3CHTO    C9 1215   7.092   1.909   0.710  0.7975  0.0546  1.2597
    3CHTO   H22 1216   7.050   1.860   0.799  4.0776 -2.1859  1.6492
    3CHTO    N2 1217   7.133   2.049   0.750  0.0636 -0.0691  0.1765
    3CHTO   H10 1218   7.220   2.045   0.814  0.9471  1.5366 -0.8940
    3CHTO   H11 1219   7.154   2.115   0.667 -1.1454  0.9124  0.6311
    3CHTO    C7 1220   7.207   1.816   0.654 -0.5501 -0.7429 -0.5510
    3CHTO   H20 1221   7.280   1.811   0.738 -2.3822 -0.4409  1.0887
    3CHTO    O4 1222   7.162   1.682   0.627  0.1226  0.2855  0.2514
    3CHTO   C14 1223   7.035   1.654   0.570 -0.1364  0.0546 -0.1827
    3CHTO   H27 1224   6.989   1.565   0.617 -0.1316 -0.4544 -1.1180
    3CHTO   C18 1225   7.064   1.618   0.418  0.0823 -0.1149 -0.4683
    3CHTO   O13 1226   7.142   1.499   0.398 -0.2916 -0.3075  0.3103
    3CHTO    H7 1227   7.207   1.508   0.331  0.4176 -0.3725  0.9883
    3CHTO    O2 1228   7.286   1.873   0.546  0.2924 -0.0620  0.1564
    3CHTO    C1 1229   7.396   1.800   0.488 -0.3236 -0.0879  0.4534
    3CHTO   H14 1230   7.378   1.690   0.478  0.3423  0.0449 -2.8447
    3CHTO    C2 1231   7.533   1.817   0.564  0.0973 -0.2708  0.2001
    3CHTO   H15 1232   7.553   1.924   0.581 -0.7005 -0.3711  1.8929
    3CHTO    O6 1233   7.526   1.766   0.702  0.0013  0.2847  1.1160
    3CHTO    H1 1234   7.583   1.812   0.761  1.2024  1.1719 -0.6723
    3CHTO    C3 1235   7.656   1.746   0.482  0.0488  0.5397 -0.4632
    3CHTO   H16 1236   7.639   1.637   0.477 -0.2183  0.6786 -2.9658
    3CHTO    N1 1237   7.789   1.774   0.548 -0.1064  0.3792 -0.2928
    3CHTO    H8 1238   7.761   1.804   0.648 -1.4119 -1.7449  0.0108
    3CHTO    H9 1239   7.834   1.678   0.569 -1.1282  0.0537  0.4345
    3CHTO    C4 1240   7.661   1.793   0.335  1.0124 -0.1728 -0.6239
    3CHTO   H17 1241   7.701   1.894   0.336  0.6638 -0.0309  1.1031
    3CHTO    O1 1242   7.524   1.775   0.279  0.3925 -0.1470  0.1089
    3CHTO    C5 1243   7.422   1.849   0.340 -0.2747 -0.0579 -0.3801
    3CHTO   H18 1244   7.449   1.955   0.334 -1.0857  0.1891  0.1439
    3CHTO   C16 1245   7.290   1.829   0.255 -0.7695  0.2842  0.3988
    3CHTO   O11 1246   7.259   1.939   0.175 -0.1821 -0.0315 -0.9467
    3CHTO    H5 1247   7.165   1.947   0.173 -0.0246  2.2624 -1.2725
    3CHTO    O3 1248   7.740   1.717   0.250 -0.3178  0.5150  0.3019
    3CHTO    C6 1249   7.757   1.761   0.113 -0.4153 -0.2035 -0.3719
    3CHTO   H19 1250   7.667   1.809   0.076  0.1678  0.2071 -1.2999
    3CHTO    C8 1251   7.886   1.860   0.095  0.0658  0.3313 -0.4512
    3CHTO   H21 1252   7.971   1.811   0.143 -1.1236 -2.8377 -1.4669
    3CHTO    O7 1253   7.854   1.986   0.158 -0.1075 -0.1087 -0.3277
    3CHTO    H2 1254   7.897   2.002   0.239 -0.7842  0.5744 -0.0930
    3CHTO   C12 1255   7.924   1.880  -0.056  0.1013  0.3872  0.3962
    3CHTO   H25 1256   7.835   1.929  -0.102 -0.4748  1.6397  2.7193
    3CHTO    N3 1257   8.040   1.973  -0.082 -0.4713 -0.2201 -0.0017
    3CHTO   H12 1258   8.015   2.021  -0.176 -2.8886 -2.3567 -0.4837
    3CHTO   H13 1259   8.134   1.920  -0.094 -0.2156 -0.1391  1.5415
    3CHTO   C15 1260   7.941   1.734  -0.112  0.5674  0.3110  0.1398
    3CHTO   H28 1261   8.025   1.682  -0.066 -0.0601  0.0757  1.0392
    3CHTO   O10 1262   7.971   1.740  -0.282 -0.3654  0.0052  0.2556
    3CHTO    H4 1263   7.944   1.662  -0.327 -2.2318  0.8215 -0.0768
    3CHTO    O5 1264   7.817   1.658  -0.103 -0.5226 -0.1959 -0.0015
    3CHTO   C10 1265   7.772   1.630   0.027 -0.7559 -1.5807  0.1626
    3CHTO   H23 1266   7.843   1.555   0.059  0.6361 -0.3693 -0.0191
    3CHTO   C17 1267   7.633   1.571   0.016  0.1703 -0.2430  0.2933
    3CHTO   O12 1268   7.648   1.436  -0.018  0.1224  0.2241 -0.0813
    3CHTO    H6 1269   7.596   1.378   0.034  1.6921 -0.3050  0.9421
    4CHTO  H203 1270   6.477   7.362   2.171  0.4132 -1.8482 -0.4626
    4CHTO   O82 1271   6.473   7.376   2.263  0.0263 -0.1105 -0.7179
    4CHTO  C123 1272   6.494   7.514   2.298  0.3286  0.2558 -0.2403
    4CHTO  H227 1273   6.455   7.529   2.400 -0.4813  2.2140 -0.8324
    4CHTO   O77 1274   6.644   7.532   2.298 -0.5258  0.1071 -0.4362
    4CHTO  C118 1275   6.699   7.662   2.336 -0.6487 -0.4025  0.5919
    4CHTO  H222 1276   6.676   7.690   2.440  2.0203 -1.7669  1.5731
    4CHTO  C125 1277   6.856   7.645   2.325 -0.4982 -0.8137 -0.4764
    4CHTO   O84 1278   6.915   7.746   2.399  0.0446 -0.5950  0.1788
    4CHTO  H205 1279   6.882   7.832   2.384 -0.8435 -1.0933 -0.7714
    4CHTO  C114 1280   6.642   7.770   2.241 -0.9806  0.0094 -0.7392
    4CHTO  H218 1281   6.685   7.763   2.141  0.7646 -2.9216  0.1429
    4CHTO  C116 1282   6.485   7.763   2.239 -0.8752  0.5832  0.2491
    4CHTO  H220 1283   6.449   7.789   2.341 -0.7778  0.1124  0.4043
    4CHTO   O79 1284   6.441   7.873   2.158  0.0498 -0.3016  0.1037
    4CHTO  H201 1285   6.400   7.847   2.078 -0.8374  1.3415  0.0053
    4CHTO  C120 1286   6.432   7.620   2.196 -0.0292  0.5854  0.0587
    4CHTO  H224 1287   6.487   7.601   2.102  0.9018  0.2643  0.6576
    4CHTO   N21 1288   6.289   7.604   2.174 -0.4035  0.5828  0.2241
    4CHTO  H211 1289   6.239   7.693   2.140  0.7840  1.3333  0.3828
    4CHTO  H212 1290   6.254   7.590   2.275  0.1491 -0.6165  0.2579
    4CHTO   O75 1291   6.687   7.900   2.292 -0.0485 -0.2711  0.2617
    4CHTO  C112 1292   6.824   7.976   2.235  0.6591 -0.0303  0.5233
    4CHTO  H216 1293   6.896   7.905   2.192 -1.9738 -1.5331 -1.6436
    4CHTO   O73 1294   6.873   8.048   2.348 -0.2323  0.5375 -0.3094
    4CHTO  C113 1295   6.983   8.136   2.324 -0.0265  0.0093  0.5379
    4CHTO  H217 1296   7.074   8.080   2.294 -0.2502  1.4772 -3.1538
    4CHTO  C124 1297   7.023   8.221   2.441  0.4233  0.3993 -0.7808
    4CHTO   O83 1298   7.045   8.157   2.562  0.0937  0.7892  0.0093
    4CHTO  H204 1299   7.122   8.105   2.555  1.9583  3.3506  0.8900
    4CHTO  C109 1300   6.949   8.242   2.208  0.2040 -0.3077  0.0086
    4CHTO  H213 1301   6.866   8.304   2.244  1.0929  0.4123  0.8322
    4CHTO  C110 1302   6.908   8.164   2.082  0.2497 -0.6787  0.0825
    4CHTO  H214 1303   6.990   8.094   2.062  0.1926 -1.0889  1.2499
    4CHTO   O78 1304   6.887   8.265   1.981  0.0504 -0.4788 -0.7054
    4CHTO  H200 1305   6.869   8.225   1.898 -0.4688 -0.3729 -0.6463
    4CHTO  C111 1306   6.782   8.075   2.115 -0.0824 -0.5095  0.1526
    4CHTO  H215 1307   6.705   8.137   2.163 -0.2260 -1.4601  1.1718
    4CHTO   N19 1308   6.717   7.990   2.010 -0.0056 -0.6084 -0.2920
    4CHTO  H207 1309   6.629   7.941   2.049  0.0632 -0.9113 -0.5118
    4CHTO  H208 1310   6.698   8.045   1.920  1.4336  0.5486  0.0944
    4CHTO   O74 1311   7.065   8.331   2.170  0.2506 -0.5933  0.0036
    4CHTO  C115 1312   7.075   8.482   2.231  0.3436  0.4540 -0.1966
    4CHTO  H219 1313   6.994   8.504   2.302  2.2069  0.9539  1.8524
    4CHTO   O76 1314   7.210   8.501   2.323  0.4940 -0.2624 -0.4663
    4CHTO  C122 1315   7.326   8.487   2.240 -0.1107  0.0206 -0.0859
    4CHTO  H226 1316   7.325   8.380   2.216 -0.4072  0.2016 -0.9046
    4CHTO  C126 1317   7.450   8.514   2.327  0.1167  0.2215 -0.3863
    4CHTO   O85 1318   7.469   8.406   2.429 -0.0512  0.2340  0.3030
    4CHTO  H206 1319   7.523   8.341   2.389  0.1067  0.9221 -0.6218
    4CHTO  C121 1320   7.326   8.575   2.110  0.9558  0.1521 -0.6659
    4CHTO  H225 1321   7.411   8.646   2.120  0.2630  1.0008 -0.7548
    4CHTO   O81 1322   7.330   8.482   1.997  0.1232  0.0817  0.5555
    4CHTO  H202 1323   7.382   8.520   1.929 -2.1963  0.2049 -1.1963
    4CHTO  C119 1324   7.204   8.661   2.085 -0.0720 -0.3719  0.0112
    4CHTO  H223 1325   7.203   8.738   2.161 -0.0217  0.0460 -0.4075
    4CHTO  C117 1326   7.072   8.587   2.110 -0.6978 -0.4967  0.0580
    4CHTO  H221 1327   7.040   8.530   2.023 -0.0194 -1.5292  0.4780
    4CHTO   N20 1328   6.967   8.689   2.136  0.2505  0.0191  0.0753
    4CHTO  H209 1329   6.869   8.648   2.114 -0.5349  1.4441  0.8260
    4CHTO  H210 1330   6.989   8.783   2.089  0.0997 -0.2840 -0.5969
    4CHTO   O80 1331   7.199   8.757   1.950  0.1468 -0.9526 -0.0926
    4CHTO  C103 1332   7.306   8.882   1.941 -0.5080 -0.4142  0.2872
    4CHTO  H190 1333   7.339   8.914   2.040 -0.0641  1.4488 -0.4314
    4CHTO  C101 1334   7.431   8.859   1.853  0.2125  0.2980  0.2276
    4CHTO  H188 1335   7.403   8.800   1.766 -0.9252 -0.0695  0.8405
    4CHTO   O68 1336   7.540   8.771   1.940  0.0797  0.3986 -0.3502
    4CHTO  H168 1337   7.540   8.681   1.912  4.3415  0.9775 -2.5457
    4CHTO   C99 1338   7.496   8.992   1.794  0.3447  0.1140  0.5340
    4CHTO  H186 1339   7.543   9.042   1.882 -0.2015  0.0640  0.8591
    4CHTO   N17 1340   7.603   8.974   1.698 -0.1306  0.0206  0.2342
    4CHTO  H174 1341   7.566   8.930   1.607  1.4364 -0.5261 -0.1498
    4CHTO  H175 1342   7.639   9.074   1.678 -1.4591  0.8648  1.9105
    4CHTO   C97 1343   7.387   9.094   1.737  0.3836  0.4932  0.8291
    4CHTO  H184 1344   7.342   9.054   1.645 -2.7794  0.4488  2.3593
    4CHTO   O64 1345   7.292   9.113   1.832 -0.1358 -0.0010  0.2230
    4CHTO  C104 1346   7.220   9.000   1.883 -0.1614  0.4325  0.1811
    4CHTO  H191 1347   7.151   8.961   1.808  2.2959 -1.2570 -1.2477
    4CHTO  C108 1348   7.139   9.050   1.999  0.3544  0.3199  0.3836
    4CHTO   O71 1349   7.019   9.135   1.977  0.0735 -0.5064  0.2975
    4CHTO  H171 1350   6.986   9.172   2.056 -2.0691  0.7629 -1.1401
    4CHTO   O62 1351   7.441   9.230   1.708  0.1026  0.6061 -0.3548
    4CHTO   C91 1352   7.391   9.300   1.593  0.4046 -0.3324  0.2754
    4CHTO  H178 1353   7.323   9.230   1.545 -1.4036  0.6901  1.2956
    4CHTO   C92 1354   7.505   9.341   1.497 -0.5219  0.1345 -0.6139
    4CHTO  H179 1355   7.574   9.406   1.552 -0.7089  0.2576 -0.5245
    4CHTO   O66 1356   7.581   9.232   1.451  0.0581 -0.1785 -0.4080
    4CHTO  H166 1357   7.634   9.199   1.521 -0.1343 -0.1385 -0.2405
    4CHTO   C93 1358   7.464   9.413   1.371 -0.6200  0.3566 -0.2912
    4CHTO  H180 1359   7.412   9.340   1.308  1.3683 -0.4323 -1.0398
    4CHTO   N16 1360   7.577   9.478   1.287  0.1199  0.4336 -0.6895
    4CHTO  H172 1361   7.623   9.402   1.226  0.6710  0.1524  0.0710
    4CHTO  H173 1362   7.648   9.516   1.359  1.2427  0.4760 -1.8120
    4CHTO   C94 1363   7.366   9.532   1.413  0.1444 -0.3815 -0.1267
    4CHTO  H181 1364   7.417   9.615   1.461  0.6620 -0.5312 -0.4116
    4CHTO   O61 1365   7.261   9.488   1.498 -0.0369  1.0748  0.1315
    4CHTO   C95 1366   7.305   9.435   1.626 -0.4811  0.2706 -0.0766
    4CHTO  H182 1367   7.372   9.506   1.674  0.4368 -1.6519  1.5781
    4CHTO  C106 1368   7.182   9.399   1.716 -0.0789  0.0025 -0.0636
    4CHTO   O69 1369   7.143   9.526   1.775 -0.2485  0.1758  0.0176
    4CHTO  H169 1370   7.094   9.517   1.855  0.3268 -3.3432  0.0493
    4CHTO   O63 1371   7.298   9.605   1.280 -0.0318  0.4679 -0.4296
    4CHTO   C96 1372   7.205   9.507   1.195  0.3943 -0.4219  0.8014
    4CHTO  H183 1373   7.205   9.409   1.244 -1.0719 -1.4480 -1.2006
    4CHTO   C98 1374   7.250   9.499   1.049  0.0516  0.2372  0.2020
    4CHTO  H185 1375   7.285   9.600   1.021  1.7090  0.1387  1.8517
    4CHTO   O67 1376   7.361   9.417   1.048  0.4834  0.4766  0.0033
    4CHTO  H167 1377   7.428   9.450   0.992 -0.5452  0.0192 -1.5569
    4CHTO  C102 1378   7.138   9.443   0.946 -0.0033  0.1937 -0.4392
    4CHTO  H189 1379   7.186   9.356   0.898  1.1445  0.0886  0.8732
    4CHTO   N18 1380   7.099   9.527   0.838 -0.0882 -0.4194 -0.3719
    4CHTO  H176 1381   7.186   9.580   0.802  1.2523 -0.1463  3.0877
    4CHTO  H177 1382   7.026   9.600   0.870  1.5846  1.3493 -0.5228
    4CHTO  C105 1383   7.012   9.395   1.028  0.6636 -0.2216 -0.2679
    4CHTO  H192 1384   6.933   9.372   0.957  1.1833 -1.6708 -0.3804
    4CHTO   O65 1385   6.960   9.488   1.125 -0.5955 -0.0390 -0.4502
    4CHTO  C100 1386   7.055   9.567   1.200 -0.3950 -0.2585 -0.1772
    4CHTO  H187 1387   7.063   9.670   1.160 -1.4125  0.8070  2.2473
    4CHTO  C107 1388   7.002   9.572   1.350 -0.0151  0.5549 -0.2906
    4CHTO   O70 1389   6.883   9.645   1.376  0.0809 -0.0138 -0.1225
    4CHTO  H170 1390   6.912   9.719   1.425  1.4527  1.1775 -2.6589
    4CHTO   O57 1391   7.052   9.246   1.092  0.1541 -0.3248  0.1159
    4CHTO   C85 1392   6.960   9.165   1.168 -0.1691  0.5520 -0.1696
    4CHTO  H157 1393   6.858   9.204   1.152 -0.5902 -1.1293 -1.6811
    4CHTO   C83 1394   6.999   9.180   1.321  0.3166 -0.0339 -0.2562
    4CHTO  H155 1395   6.959   9.275   1.355  2.5754  0.0539  2.2992
    4CHTO   O56 1396   7.145   9.185   1.333 -0.1437 -0.8317  0.3988
    4CHTO  H135 1397   7.184   9.100   1.327 -0.5701 -1.0182  0.2308
    4CHTO   C81 1398   6.935   9.066   1.405 -0.8103 -0.6975 -0.0719
    4CHTO  H153 1399   6.827   9.074   1.398 -0.7338  2.5039  1.3397
    4CHTO   N14 1400   6.964   9.076   1.553 -0.3339 -0.0398 -0.1374
    4CHTO  H141 1401   6.892   9.095   1.629 -1.6067  0.1942 -1.3812
    4CHTO  H142 1402   7.055   9.126   1.580 -0.3086  0.6787 -1.5003
    4CHTO   C79 1403   6.975   8.934   1.346 -0.4953 -0.1511  0.2672
    4CHTO  H151 1404   6.916   8.856   1.395  1.1725 -0.9267  1.0732
    4CHTO   O52 1405   6.939   8.909   1.210 -0.1998 -0.3151 -0.4013
    4CHTO   C86 1406   6.976   9.020   1.116 -0.2887 -0.5665  0.7332
    4CHTO  H158 1407   7.077   8.982   1.090  0.6868  2.3420  0.0899
    4CHTO   C90 1408   6.898   9.009   0.989  0.5814  0.4172  0.2530
    4CHTO   O60 1409   6.902   8.866   0.952  0.2776 -0.0495  0.0136
    4CHTO  H138 1410   6.816   8.832   0.968  0.6288 -0.8161  0.3019
    4CHTO   O50 1411   7.117   8.915   1.349  0.1574  0.6133  0.1680
    4CHTO   C73 1412   7.233   8.830   1.375  0.7295  0.3036  0.5132
    4CHTO  H145 1413   7.236   8.781   1.473  0.9378  0.1801  0.4467
    4CHTO   C74 1414   7.369   8.915   1.364 -0.2261  0.3537 -0.0193
    4CHTO  H146 1415   7.358   9.002   1.429 -0.0385 -1.2646  2.2480
    4CHTO   O54 1416   7.486   8.830   1.401  0.4166  0.0023 -0.2080
    4CHTO  H133 1417   7.566   8.869   1.374  1.5615 -1.3825  1.0690
    4CHTO   C75 1418   7.390   8.964   1.211  0.3080  0.8279 -0.5526
    4CHTO  H147 1419   7.309   9.034   1.184  0.9705  1.2778 -1.4356
    4CHTO   N13 1420   7.522   9.041   1.192  0.0738  0.2794  0.3583
    4CHTO  H139 1421   7.608   8.976   1.195  0.0759  0.2146 -0.7339
    4CHTO  H140 1422   7.517   9.095   1.098  1.2796  1.6154  1.0480
    4CHTO   C76 1423   7.380   8.837   1.112 -0.0491 -0.5076  0.9241
    4CHTO  H148 1424   7.461   8.769   1.139 -1.1685 -2.2367  0.0005
    4CHTO   O49 1425   7.253   8.778   1.131 -0.1272  0.1219 -0.0547
    4CHTO   C77 1426   7.241   8.717   1.261 -0.2990  0.3917 -0.0377
    4CHTO  H149 1427   7.326   8.652   1.285  0.0635 -0.0897 -2.4581
    4CHTO   C88 1428   7.117   8.633   1.253  0.4320  0.2269  0.2198
    4CHTO   O58 1429   7.124   8.545   1.123  0.3778 -0.5642  0.5910
    4CHTO  H136 1430   7.037   8.534   1.090 -0.2264  0.5508  1.7934
    4CHTO   O51 1431   7.373   8.867   0.943  0.1283  0.1408 -0.1888
    4CHTO   C78 1432   7.423   8.754   0.850  0.1263  0.7604  0.0854
    4CHTO  H150 1433   7.428   8.660   0.909  0.8448  1.8188  1.7668
    4CHTO   C80 1434   7.565   8.786   0.795 -0.2000  0.2604  0.0958
    4CHTO  H152 1435   7.560   8.882   0.739 -1.1119  0.0124 -0.2480
    4CHTO   O55 1436   7.657   8.803   0.906 -0.2800 -0.5526 -0.4062
    4CHTO  H134 1437   7.722   8.870   0.891 -2.4785  1.9874  0.8902
    4CHTO   C84 1438   7.616   8.686   0.689 -0.1735  0.0400  0.3281
    4CHTO  H156 1439   7.631   8.593   0.744  0.2614 -0.2250 -0.2328
    4CHTO   N15 1440   7.755   8.715   0.628  0.3716  0.3049 -0.7803
    4CHTO  H143 1441   7.758   8.818   0.599 -2.1925  0.4726 -0.5845
    4CHTO  H144 1442   7.832   8.694   0.699 -0.2163 -0.5152 -0.3809
    4CHTO   C87 1443   7.504   8.657   0.586 -0.4329  0.1157 -0.0811
    4CHTO  H159 1444   7.485   8.739   0.517  1.3758  1.0909  0.5609
    4CHTO   O53 1445   7.371   8.624   0.654 -0.4775  0.4164  0.0382
    4CHTO   C82 1446   7.324   8.731   0.733  0.2119 -0.2075 -0.1373
    4CHTO  H154 1447   7.300   8.823   0.679  0.2969  0.4861  1.0054
    4CHTO   C89 1448   7.198   8.674   0.799 -0.2284 -0.7445  0.2938
    4CHTO   O59 1449   7.094   8.643   0.700 -0.1097 -0.3488 -0.0193
    4CHTO  H137 1450   7.113   8.557   0.668  0.1495  0.4672 -2.1639
    4CHTO   O45 1451   7.536   8.518   0.506  0.5695  0.0190 -0.2930
    4CHTO   C67 1452   7.539   8.398   0.585 -0.3780 -0.9739 -0.6339
    4CHTO  H124 1453   7.494   8.409   0.684 -0.0882 -0.4859 -0.5546
    4CHTO   C65 1454   7.467   8.287   0.499  0.0981 -0.0778 -0.4740
    4CHTO  H122 1455   7.369   8.329   0.477  0.6285  0.4980 -1.8412
    4CHTO   O44 1456   7.445   8.162   0.565 -0.6121 -0.2610  0.0690
    4CHTO  H102 1457   7.501   8.104   0.516  0.3025  1.2275 -0.6855
    4CHTO   C63 1458   7.534   8.279   0.362  0.0686 -0.7651  0.3571
    4CHTO  H120 1459   7.545   8.379   0.318 -0.4726 -0.5302  0.7569
    4CHTO   N11 1460   7.454   8.207   0.255  0.0674 -0.0549 -0.2514
    4CHTO  H108 1461   7.348   8.218   0.266  0.0739 -0.5183  0.3000
    4CHTO  H109 1462   7.493   8.233   0.159 -1.0424  2.1824 -0.1371
    4CHTO   C61 1463   7.685   8.226   0.384  0.0854  0.2505 -0.0086
    4CHTO  H118 1464   7.720   8.245   0.281  1.0472  0.5059  0.3614
    4CHTO   O40 1465   7.756   8.311   0.476 -0.1265  0.2063 -0.0410
    4CHTO   C68 1466   7.690   8.358   0.604 -0.4938  0.0993 -0.3601
    4CHTO  H125 1467   7.746   8.446   0.641  3.4418 -2.6102  0.4326
    4CHTO   C72 1468   7.717   8.256   0.716 -0.1005  0.2769 -0.4266
    4CHTO   O48 1469   7.658   8.293   0.838 -0.3611 -0.5399 -0.0993
    4CHTO  H105 1470   7.719   8.350   0.881 -0.3851 -1.7642  1.5711
    4CHTO   O38 1471   7.694   8.087   0.421 -0.4782  0.1510  0.4682
    4CHTO   C55 1472   7.808   8.010   0.459  0.1803  0.1539 -0.7369
    4CHTO  H112 1473   7.862   8.061   0.541  3.8109 -1.0723 -2.2862
    4CHTO   C56 1474   7.905   7.987   0.331  0.2704  0.1138  0.2969
    4CHTO  H113 1475   7.850   7.918   0.266  0.4454 -0.6490  0.9528
    4CHTO   O42 1476   7.930   8.113   0.264  0.1511  0.1879  0.5835
    4CHTO  H100 1477   7.850   8.159   0.249  0.5872  0.0545 -2.3246
    4CHTO   C57 1478   8.024   7.913   0.379 -0.4740  0.8082 -0.0336
    4CHTO  H114 1479   8.067   7.979   0.454 -0.3480 -0.1444  0.7384
    4CHTO   N10 1480   8.124   7.882   0.270 -0.4030 -0.7167  0.6481
    4CHTO  H106 1481   8.224   7.888   0.310  0.0746 -2.5461 -0.2239
    4CHTO  H107 1482   8.112   7.953   0.190 -0.2482  0.1625  1.3896
    4CHTO   C58 1483   7.983   7.783   0.449  0.0777 -0.0042 -0.3567
    4CHTO  H115 1484   7.930   7.719   0.375  0.6702 -1.4424  0.4514
    4CHTO   O37 1485   7.898   7.810   0.559 -0.0448  0.2961  0.4861
    4CHTO   C59 1486   7.769   7.875   0.521  0.3935  1.0538  0.0778
    4CHTO  H116 1487   7.716   7.818   0.445 -2.4244  3.0813  0.4364
    4CHTO   C70 1488   7.679   7.879   0.650 -0.1576 -0.0442  0.5086
    4CHTO   O46 1489   7.645   7.749   0.708 -0.1211  0.0142  1.0981
    4CHTO  H103 1490   7.651   7.763   0.801 -0.7469 -2.5793  1.5860
    4CHTO   O39 1491   8.122   7.703   0.506 -0.0538 -0.0433 -0.2190
    4CHTO   C60 1492   8.090   7.568   0.553 -0.5587 -0.1024 -0.0481
    4CHTO  H117 1493   7.983   7.566   0.575 -0.2925  0.7805  1.4289
    4CHTO   C62 1494   8.116   7.459   0.442  0.3103  0.1215 -0.8642
    4CHTO  H119 1495   8.068   7.492   0.347  1.7814 -2.0596 -2.3963
    4CHTO   O43 1496   8.253   7.448   0.407  0.3301 -0.4258 -0.2860
    4CHTO  H101 1497   8.289   7.533   0.388  4.1462 -1.9453 -0.1850
    4CHTO   C66 1498   8.053   7.313   0.492  1.3020 -0.0216  0.6729
    4CHTO  H123 1499   7.947   7.329   0.509  1.4438  2.5841 -0.7274
    4CHTO   N12 1500   8.064   7.200   0.392  0.3866  0.3278  0.7998
    4CHTO  H110 1501   7.968   7.164   0.357  0.7094 -1.1175  1.3580
    4CHTO  H111 1502   8.126   7.232   0.309 -2.9826 -2.2815 -2.9453
    4CHTO   C69 1503   8.107   7.273   0.632 -0.0656  1.0905  0.0832
    4CHTO  H126 1504   8.211   7.235   0.622 -0.3480  0.2638  0.2604
    4CHTO   O41 1505   8.111   7.408   0.738 -0.3406  0.5092 -0.0672
    4CHTO   C64 1506   8.164   7.537   0.688 -0.8972  0.1064 -0.4036
    4CHTO  H121 1507   8.271   7.521   0.661 -1.0734  0.3489 -1.2609
    4CHTO   C71 1508   8.152   7.642   0.802  1.0344  0.3961  0.3644
    4CHTO   O47 1509   8.230   7.770   0.780  0.4990  0.4934 -0.3651
    4CHTO  H104 1510   8.241   7.814   0.863  2.3325  0.4847 -0.5893
    4CHTO   O34 1511   8.018   7.155   0.690  0.1669 -0.2828 -0.3008
    4CHTO   C49 1512   7.981   7.020   0.685 -0.5507 -0.0556  0.4574
    4CHTO   H91 1513   7.976   6.988   0.581  1.9960 -1.9647  0.8956
    4CHTO   C47 1514   7.834   7.005   0.726 -0.2110  0.0096 -0.0615
    4CHTO   H89 1515   7.768   7.058   0.654  1.4573  3.1540  0.6387
    4CHTO   O33 1516   7.811   7.069   0.852 -0.1875 -0.2414  0.4552
    4CHTO   H70 1517   7.805   7.163   0.849  0.0500 -0.2060  1.0488
    4CHTO   C45 1518   7.792   6.847   0.758 -0.1322 -0.2582  0.4716
    4CHTO   H87 1519   7.801   6.830   0.866  3.3409  1.4448  0.5084
    4CHTO    N8 1520   7.653   6.823   0.711 -0.8062 -0.3103  0.3180
    4CHTO   H75 1521   7.624   6.726   0.748 -2.1698  0.9738  2.6853
    4CHTO   H76 1522   7.671   6.829   0.604 -3.0654 -1.7153 -0.1716
    4CHTO   C43 1523   7.899   6.743   0.698 -0.0536 -0.6454 -0.6813
    4CHTO   H85 1524   7.866   6.649   0.743 -0.6479 -0.1271 -0.0151
    4CHTO   O29 1525   8.031   6.776   0.746  0.0925  0.0163 -0.0315
    4CHTO   C50 1526   8.060   6.916   0.771  0.2071 -0.9699 -0.4605
    4CHTO   H92 1527   8.029   6.924   0.876 -1.0181 -1.5423 -0.7651
    4CHTO   C54 1528   8.217   6.939   0.759 -0.3160 -0.1972 -0.1876
    4CHTO   O36 1529   8.278   6.912   0.881  0.3091  0.0784  0.1138
    4CHTO   H72 1530   8.273   6.821   0.901  0.7734 -0.1743 -0.9472
    4CHTO   O27 1531   7.893   6.736   0.557  0.0861  0.1863  0.8153
    4CHTO   C37 1532   7.947   6.671   0.439 -0.0884 -0.2071 -0.3894
    4CHTO   H79 1533   7.900   6.696   0.343  0.8772 -0.5395 -0.9493
    4CHTO   C38 1534   8.091   6.724   0.420  0.6379  0.4977  0.0629
    4CHTO   H80 1535   8.144   6.714   0.516 -0.0805  1.3177  0.5432
    4CHTO   O31 1536   8.073   6.857   0.378 -0.2542  0.2290 -0.1180
    4CHTO   H68 1537   8.146   6.877   0.322 -0.9189 -0.7960 -1.3651
    4CHTO   C39 1538   8.173   6.640   0.312  0.2756 -0.5707  0.4534
    4CHTO   H81 1539   8.118   6.642   0.218 -0.9103  2.9736  1.1499
    4CHTO    N7 1540   8.311   6.691   0.284  0.0600 -0.1765 -0.0155
    4CHTO   H73 1541   8.313   6.799   0.275 -1.9859 -0.2080 -1.1708
    4CHTO   H74 1542   8.362   6.633   0.208  1.9119  1.5238 -0.1012
    4CHTO   C40 1543   8.160   6.495   0.356  1.0775 -0.5113 -0.4064
    4CHTO   H82 1544   8.195   6.491   0.460  0.8675 -0.9633 -0.3499
    4CHTO   O26 1545   8.016   6.458   0.345  1.1926  0.0408 -0.2175
    4CHTO   C41 1546   7.932   6.513   0.452  0.2697  0.2626  0.2942
    4CHTO   H83 1547   7.970   6.471   0.546 -0.1990  0.0827  0.4065
    4CHTO   C52 1548   7.782   6.477   0.436 -0.0254  0.1954  0.2822
    4CHTO   O35 1549   7.755   6.348   0.404  0.0908  0.2147  0.2114
    4CHTO   H71 1550   7.770   6.292   0.478 -1.8394 -0.2003  0.3177
    4CHTO   O28 1551   8.226   6.398   0.275 -0.2763  0.5265  0.0979
    4CHTO   C42 1552   8.244   6.259   0.316  0.4565 -0.4920  0.0452
    4CHTO   H84 1553   8.315   6.222   0.242  1.2138 -0.6075  0.8120
    4CHTO   C44 1554   8.110   6.159   0.312  0.5407 -0.5497 -0.5841
    4CHTO   H86 1555   8.036   6.199   0.382  0.8967 -1.9902  0.6297
    4CHTO   O32 1556   8.064   6.178   0.184  0.2307 -0.4307  0.4328
    4CHTO   H69 1557   7.983   6.132   0.173  0.2628  0.0134 -1.9041
    4CHTO   C48 1558   8.139   6.009   0.354 -0.1097 -0.7199  0.0116
    4CHTO   H90 1559   8.206   5.957   0.286  0.0894  0.4552 -0.7021
    4CHTO    N9 1560   8.010   5.932   0.365  0.2742  0.2391  0.1217
    4CHTO   H77 1561   8.002   5.897   0.467 -1.8316  0.5183  0.0763
    4CHTO   H78 1562   7.927   5.999   0.349 -0.6140 -0.8522  0.1507
    4CHTO   C51 1563   8.220   6.020   0.494  0.2310 -0.1555 -0.0120
    4CHTO   H93 1564   8.155   6.058   0.572  1.4942  2.2529 -0.0712
    4CHTO   O30 1565   8.340   6.101   0.483 -0.1979 -0.2757  0.0000
    4CHTO   C46 1566   8.316   6.254   0.452 -0.0563 -0.2048 -0.1877
    4CHTO   H88 1567   8.251   6.294   0.531 -0.2864  0.5507 -0.7562
    4CHTO   C53 1568   8.450   6.332   0.437  0.0215 -0.3619  0.3590
    4CHTO   O72 1569   8.541   6.297   0.541 -0.3995  0.4945 -0.2319
    4CHTO  H199 1570   8.628   6.321   0.515 -0.7368  0.6931 -1.1919
    4CHTO   O22 1571   8.266   5.887   0.529  0.1481  0.1113  0.3106
    4CHTO   C31 1572   8.286   5.852   0.673 -0.7418 -1.0927  1.3917
    4CHTO   H59 1573   8.300   5.945   0.731 -0.7402 -0.7607  0.8596
    4CHTO   C29 1574   8.172   5.776   0.739  0.1451  1.0681 -0.5079
    4CHTO   H57 1575   8.167   5.671   0.706 -4.2903  0.3871  1.9594
    4CHTO   O21 1576   8.051   5.835   0.708  0.0097 -0.3084  0.0977
    4CHTO   H37 1577   7.988   5.772   0.680 -0.0829 -0.8860  1.5736
    4CHTO   C27 1578   8.186   5.774   0.897  0.4860 -0.2280  0.1736
    4CHTO   H55 1579   8.165   5.876   0.933  1.3348  0.1507 -0.3852
    4CHTO    N5 1580   8.086   5.685   0.960 -0.3135  0.2182  0.3305
    4CHTO   H43 1581   8.018   5.750   1.013  1.1315 -1.1633  4.1311
    4CHTO   H44 1582   8.029   5.628   0.888 -0.2210  0.4704  0.0588
    4CHTO   C25 1583   8.335   5.737   0.941  0.5747  0.1621 -0.2186
    4CHTO   H53 1584   8.357   5.631   0.959  2.9631  0.4352 -1.2948
    4CHTO   O17 1585   8.436   5.781   0.842  0.2390  0.4909  0.7209
    4CHTO   C32 1586   8.410   5.765   0.701  0.0143 -0.9150  0.3493
    4CHTO   H60 1587   8.398   5.660   0.674 -0.6700 -0.3583 -1.6155
    4CHTO   C36 1588   8.544   5.817   0.627  0.2042 -0.1621 -0.0607
    4CHTO   O25 1589   8.552   5.965   0.630 -0.1236  0.2203  0.0782
    4CHTO   H40 1590   8.479   6.005   0.587 -3.0424 -0.0908  4.4326
    4CHTO   O15 1591   8.373   5.809   1.072 -0.0057 -0.5625  0.1276
    4CHTO   C19 1592   8.378   5.947   1.128  0.0062  0.2715 -0.2480
    4CHTO   H47 1593   8.470   5.935   1.187  0.5219 -5.6546 -1.9756
    4CHTO   C20 1594   8.396   6.062   1.025 -0.2972 -0.2080 -0.1987
    4CHTO   H48 1595   8.308   6.061   0.958  0.3999  0.6366 -1.1238
    4CHTO   O19 1596   8.520   6.035   0.957  0.6302 -0.5069  0.0248
    4CHTO   H35 1597   8.588   6.011   1.016  0.3352 -2.5229 -0.4077
    4CHTO   C21 1598   8.415   6.201   1.107  0.4965 -0.4899  0.3640
    4CHTO   H49 1599   8.507   6.190   1.163  0.7238  2.0896  0.5605
    4CHTO    N4 1600   8.435   6.321   1.019 -0.1565 -0.4322 -0.8443
    4CHTO   H41 1601   8.458   6.289   0.918 -0.6733  0.8555 -1.3851
    4CHTO   H42 1602   8.346   6.382   1.014 -0.4656 -0.8385 -0.3035
    4CHTO   C22 1603   8.303   6.216   1.210 -0.0882  0.0408  1.0030
    4CHTO   H50 1604   8.204   6.232   1.168  0.6769  0.5503 -0.6556
    4CHTO   O14 1605   8.295   6.107   1.296 -0.3570 -0.0576  0.6422
    4CHTO   C23 1606   8.270   5.982   1.232  0.3212 -0.1788  0.8529
    4CHTO   H51 1607   8.176   6.004   1.180  1.0312  0.0174 -0.3551
    4CHTO   C34 1608   8.271   5.865   1.334 -0.0786  0.1722  0.2795
    4CHTO   O23 1609   8.212   5.746   1.289 -0.5902  0.3257  0.3766
    4CHTO   H38 1610   8.226   5.676   1.350 -0.5110  1.3141  1.5218
    4CHTO   O16 1611   8.333   6.328   1.302 -0.6266  0.7416 -0.3639
    4CHTO   C24 1612   8.212   6.450   1.308 -0.1977  0.1026 -0.4768
    4CHTO   H52 1613   8.130   6.427   1.239  0.2803 -2.3412 -0.2756
    4CHTO   C26 1614   8.272   6.591   1.280 -0.4076 -0.0171  0.2852
    4CHTO   H54 1615   8.361   6.606   1.344  1.2284 -4.5574 -0.7129
    4CHTO   O20 1616   8.306   6.589   1.141  0.7476  0.0453 -0.5743
    4CHTO   H36 1617   8.387   6.543   1.138  0.1279 -1.0383 -0.8811
    4CHTO   C30 1618   8.168   6.704   1.309  0.5474  0.4208 -0.1734
    4CHTO   H58 1619   8.089   6.709   1.233  0.3247  1.1510  0.0962
    4CHTO    N6 1620   8.225   6.839   1.307  0.1520 -0.2790  0.6094
    4CHTO   H45 1621   8.326   6.838   1.268  0.2490 -0.5977  0.8752
    4CHTO   H46 1622   8.222   6.895   1.399 -1.5072 -0.3010  0.5911
    4CHTO   C33 1623   8.088   6.682   1.448  0.0388  0.5657 -0.3735
    4CHTO   H61 1624   8.154   6.692   1.535 -0.1818  0.7401 -0.2279
    4CHTO   O18 1625   8.038   6.544   1.437  0.4007  0.3317  0.5400
    4CHTO   C28 1626   8.146   6.450   1.451 -0.4797  0.2367 -0.3438
    4CHTO   H56 1627   8.221   6.485   1.522 -0.8446 -1.3770  0.8901
    4CHTO   C35 1628   8.104   6.303   1.494 -0.7260  0.2338  0.0330
    4CHTO   O24 1629   7.991   6.259   1.418  0.0394 -0.3150  0.5693
    4CHTO   H39 1630   7.913   6.296   1.456  0.9624  2.0737  0.2343
    4CHTO    O9 1631   7.976   6.770   1.466  0.2182 -0.7717  0.3928
    4CHTO   C13 1632   7.909   6.753   1.614 -0.7789 -0.0704  0.0485
    4CHTO   H26 1633   7.915   6.645   1.636 -2.3421  0.3494  2.7926
    4CHTO   C11 1634   7.762   6.802   1.609  0.7017  0.5360 -0.4513
    4CHTO   H24 1635   7.706   6.727   1.551 -0.4267 -0.7770  2.2364
    4CHTO    O8 1636   7.747   6.933   1.543  0.1392  0.0207  0.3910
    4CHTO    H3 1637   7.665   6.976   1.556  0.1381  0.5932 -1.4168
    4CHTO    C9 1638   7.704   6.803   1.754 -0.4436 -0.9526 -0.8321
    4CHTO   H22 1639   7.733   6.701   1.785  1.9200 -0.8595 -2.5520
    4CHTO    N2 1640   7.556   6.816   1.763 -0.7931 -0.0871  0.8322
    4CHTO   H10 1641   7.519   6.791   1.664  0.6702  0.1901  0.1957
    4CHTO   H11 1642   7.520   6.915   1.785 -0.8340 -0.4024  2.1822
    4CHTO    C7 1643   7.786   6.897   1.845 -0.0107 -0.0704  0.2623
    4CHTO   H20 1644   7.744   6.881   1.946 -0.5627  0.2157  0.0782
    4CHTO    O4 1645   7.925   6.859   1.841  0.6428  0.4499  0.4367
    4CHTO   C14 1646   8.000   6.815   1.728 -1.0239  0.0058  0.2621
    4CHTO   H27 1647   8.063   6.730   1.760  1.1591  1.1952 -0.7441
    4CHTO   C18 1648   8.100   6.927   1.683 -0.2145 -0.4933  0.7787
    4CHTO   O13 1649   8.204   6.955   1.776 -0.3364 -0.0766 -0.4014
    4CHTO    H7 1650   8.245   7.038   1.757 -1.0775  0.9062  2.1350
    4CHTO    O2 1651   7.771   7.054   1.784  0.4991 -0.1650 -0.7657
    4CHTO    C1 1652   7.805   7.174   1.853  0.0873  0.2722  0.7133
    4CHTO   H14 1653   7.749   7.256   1.805 -0.1102 -0.0846  0.3296
    4CHTO    C2 1654   7.958   7.216   1.851  0.1298 -0.9522 -0.3034
    4CHTO   H15 1655   8.017   7.124   1.864  1.6597  0.0403 -0.0873
    4CHTO    O6 1656   7.987   7.272   1.719 -0.0713  0.1049 -0.1574
    4CHTO    H1 1657   7.975   7.210   1.650  2.8961  0.4450 -1.0589
    4CHTO    C3 1658   7.993   7.337   1.950 -0.1069 -0.0629 -0.6452
    4CHTO   H16 1659   7.957   7.429   1.902 -2.2589  0.1246  1.1900
    4CHTO    N1 1660   8.148   7.357   1.966  0.3502  0.5559  0.1835
    4CHTO    H8 1661   8.207   7.267   1.970 -1.2201 -0.5389 -0.5898
    4CHTO    H9 1662   8.192   7.430   1.899  0.3067  0.8051  0.4273
    4CHTO    C4 1663   7.910   7.336   2.088  0.1175 -0.8878 -0.8584
    4CHTO   H17 1664   7.963   7.270   2.156  0.5080 -1.0512 -1.3100
    4CHTO    O1 1665   7.777   7.292   2.071 -0.0298 -0.3097 -0.0773
    4CHTO    C5 1666   7.751   7.171   2.006  0.1792 -0.5106  0.0423
    4CHTO   H18 1667   7.805   7.091   2.056  0.9941  0.0359  0.0415
    4CHTO   C16 1668   7.603   7.147   2.016  0.0026  0.6744  0.2242
    4CHTO   O11 1669   7.571   7.104   2.146  0.2198 -0.2150 -0.8530
    4CHTO    H5 1670   7.575   7.012   2.165 -2.2180 -0.4144 -1.0897
    4CHTO    O3 1671   7.895   7.464   2.141  0.1549  0.1016  0.4889
    4CHTO    C6 1672   7.915   7.469   2.291  0.2775 -0.3702  0.1211
    4CHTO   H19 1673   7.924   7.371   2.337  0.3415 -0.1775  0.5176
    4CHTO    C8 1674   8.048   7.557   2.303  0.1126 -0.0217 -0.5723
    4CHTO   H21 1675   8.034   7.650   2.248 -1.5236 -1.5875 -2.8785
    4CHTO    O7 1676   8.162   7.486   2.247 -0.1524 -0.4148 -0.4819
    4CHTO    H2 1677   8.229   7.547   2.224  0.3712 -2.1365 -3.8282
    4CHTO   C12 1678   8.067   7.596   2.458  0.1591  0.1877  0.1168
    4CHTO   H25 1679   8.080   7.497   2.507 -0.0906 -0.4213 -1.0382
    4CHTO    N3 1680   8.187   7.678   2.474 -0.5423  0.1359 -0.2712
    4CHTO   H12 1681   8.179   7.777   2.431 -0.5359  0.6544  0.9041
    4CHTO   H13 1682   8.213   7.688   2.579  0.4499 -0.2225 -0.4736
    4CHTO   C15 1683   7.933   7.659   2.511 -0.2252 -0.4609 -0.2042
    4CHTO   H28 1684   7.923   7.760   2.471  1.1912  0.1530  0.9696
    4CHTO   O10 1685   7.943   7.659   2.649  0.6987  0.0139 -0.4558
    4CHTO    H4 1686   7.907   7.742   2.676 -0.2999 -0.2352 -0.9927
    4CHTO    O5 1687   7.813   7.578   2.497 -0.2590  0.1277  0.3763
    4CHTO   C10 1688   7.791   7.533   2.364  0.1281  0.1837 -0.2680
    4CHTO   H23 1689   7.760   7.618   2.302  1.5964 -0.6936 -2.2358
    4CHTO   C17 1690   7.677   7.437   2.355 -0.4615 -0.4548  0.0979
    4CHTO   O12 1691   7.553   7.501   2.393 -0.2127  0.0599  0.1207
    4CHTO    H6 1692   7.514   7.451   2.462  1.3327  0.7506  1.5312
    5CHTO  H203 1693   8.890   3.189   1.727  0.8808 -0.0291  1.4148
    5CHTO   O82 1694   8.823   3.254   1.732  0.9278  0.1855 -0.3770
    5CHTO  C123 1695   8.712   3.228   1.651  0.0389  0.4391  0.9862
    5CHTO  H227 1696   8.746   3.195   1.551 -0.4143  0.6358  0.7648
    5CHTO   O77 1697   8.651   3.117   1.728  0.0352  0.5372 -0.3942
    5CHTO  C118 1698   8.549   3.049   1.658  0.8039 -0.1460  0.3371
    5CHTO  H222 1699   8.575   3.008   1.560  0.8223  1.7312 -0.4664
    5CHTO  C125 1700   8.505   2.932   1.743 -0.2071 -0.2980 -0.2052
    5CHTO   O84 1701   8.611   2.833   1.756  0.2267 -0.0705 -0.8016
    5CHTO  H205 1702   8.624   2.802   1.669  3.4106 -1.1259 -0.0178
    5CHTO  C114 1703   8.432   3.155   1.649  0.6748 -0.4706  0.3945
    5CHTO  H218 1704   8.394   3.180   1.748 -2.0601 -3.1430  0.1154
    5CHTO  C116 1705   8.477   3.280   1.565 -0.5084  0.2974  0.0575
    5CHTO  H220 1706   8.509   3.241   1.467 -0.3360  0.2481  0.1326
    5CHTO   O79 1707   8.374   3.374   1.551  0.1377 -0.0289  0.6435
    5CHTO  H201 1708   8.345   3.392   1.639 -1.7810  0.4043 -0.0369
    5CHTO  C120 1709   8.604   3.341   1.633  0.1917  0.7263 -1.2718
    5CHTO  H224 1710   8.570   3.379   1.732 -0.5844  0.4221 -1.4191
    5CHTO   N21 1711   8.654   3.463   1.558  0.1197  0.5604  0.1489
    5CHTO  H211 1712   8.588   3.521   1.496 -1.6052 -0.3017  1.1138
    5CHTO  H212 1713   8.741   3.426   1.506 -1.9097  0.3455 -3.2094
    5CHTO   O75 1714   8.331   3.086   1.575  0.0409  0.3151 -0.5758
    5CHTO  C112 1715   8.166   3.137   1.627 -0.0706  0.1433  0.2811
    5CHTO  H216 1716   8.091   3.137   1.547  0.4579 -0.8425 -0.2313
    5CHTO   O73 1717   8.174   3.258   1.702  0.2092 -0.7184  0.7049
    5CHTO  C113 1718   8.053   3.323   1.745 -0.1387  0.0110  0.0844
    5CHTO  H217 1719   7.997   3.343   1.652 -1.2951 -0.4769  0.6716
    5CHTO  C124 1720   8.093   3.459   1.808 -0.2047  0.1588  0.3168
    5CHTO   O83 1721   8.179   3.543   1.732  0.2716  0.2470 -0.1706
    5CHTO  H204 1722   8.145   3.523   1.647 -2.7218 -0.0113  1.0358
    5CHTO  C109 1723   7.977   3.228   1.836  0.2161 -0.4793 -0.4868
    5CHTO  H213 1724   8.019   3.243   1.937  0.4398 -0.8804 -0.5221
    5CHTO  C110 1725   7.981   3.078   1.800 -0.1972  0.1560 -0.9008
    5CHTO  H214 1726   7.891   3.065   1.739 -0.1546 -1.0531 -0.7160
    5CHTO   O78 1727   7.970   2.999   1.923  0.0358 -0.3390 -0.4080
    5CHTO  H200 1728   7.951   2.909   1.907  0.3697 -1.1164  3.1146
    5CHTO  C111 1729   8.111   3.029   1.730 -0.2731  0.3268  0.1134
    5CHTO  H215 1730   8.191   3.017   1.805  1.2824 -0.4344 -1.6120
    5CHTO   N19 1731   8.095   2.892   1.669 -0.5169 -0.0581  0.2539
    5CHTO  H207 1732   8.003   2.876   1.615 -1.7859  2.0786  1.6804
    5CHTO  H208 1733   8.111   2.820   1.747  0.3326 -1.9354 -1.5913
    5CHTO   O74 1734   7.833   3.265   1.842 -0.1500 -0.0144  0.8017
    5CHTO  C115 1735   7.758   3.284   1.974 -0.1991  0.3437  0.1221
    5CHTO  H219 1736   7.809   3.233   2.056 -0.7299 -0.7813 -0.2306
    5CHTO   O76 1737   7.765   3.435   2.025  0.4664  0.0638 -0.1142
    5CHTO  C122 1738   7.652   3.517   1.999  0.1132  0.4871  0.0571
    5CHTO  H226 1739   7.660   3.537   1.892 -1.4829  0.2196 -0.1136
    5CHTO  C126 1740   7.666   3.658   2.078  0.5296  0.1482  0.4902
    5CHTO   O85 1741   7.686   3.636   2.218 -0.7194  0.4206  0.0920
    5CHTO  H206 1742   7.610   3.608   2.265  0.7049 -0.7850  1.7766
    5CHTO  C121 1743   7.513   3.448   2.038  0.3080 -0.2407  0.1323
    5CHTO  H225 1744   7.462   3.498   2.123  2.1996 -0.0825  1.2005
    5CHTO   O81 1745   7.429   3.479   1.929 -0.0693 -0.2847 -0.1629
    5CHTO  H202 1746   7.336   3.466   1.933 -0.4424  1.9242 -0.9894
    5CHTO  C119 1747   7.523   3.294   2.076  0.2010  0.6958  0.2203
    5CHTO  H223 1748   7.572   3.291   2.173  1.9819  0.6638 -0.6586
    5CHTO  C117 1749   7.614   3.232   1.962 -0.3330  0.7451  0.1759
    5CHTO  H221 1750   7.581   3.271   1.865  0.1504  1.4535  0.2937
    5CHTO   N20 1751   7.613   3.082   1.951  0.6101  0.2929  0.1683
    5CHTO  H209 1752   7.687   3.030   1.892  0.2401 -0.3284  0.2429
    5CHTO  H210 1753   7.597   3.033   2.046 -1.9484  1.9818  0.6616
    5CHTO   O80 1754   7.366   3.228   2.116 -0.0235  0.3318  0.6374
    5CHTO  C103 1755   7.227   3.259   2.009 -0.6350  0.1039  0.2216
    5CHTO  H190 1756   7.251   3.336   1.935  1.4084 -0.7270 -0.0012
    5CHTO  C101 1757   7.176   3.123   1.933 -0.0610 -0.0936 -0.4592
    5CHTO  H188 1758   7.154   3.047   2.009  0.7861  0.7209  0.6110
    5CHTO   O68 1759   7.283   3.070   1.849  0.4534  0.0734  0.3110
    5CHTO  H168 1760   7.280   3.115   1.767 -1.1794  1.6772  1.1995
    5CHTO   C99 1761   7.032   3.157   1.868  0.4931 -0.0547 -0.0873
    5CHTO  H186 1762   7.037   3.236   1.791 -1.2440  1.2472  1.0943
    5CHTO   N17 1763   6.968   3.041   1.797  0.0007 -0.6772 -0.1910
    5CHTO  H174 1764   6.878   3.069   1.744  0.2195 -0.2545 -0.3457
    5CHTO  H175 1765   6.950   2.950   1.851 -2.1004  0.4595  1.0882
    5CHTO   C97 1766   6.935   3.214   1.977 -0.4820 -0.3091  0.6230
    5CHTO  H184 1767   6.930   3.140   2.058  0.1576  0.1368  1.0782
    5CHTO   O64 1768   6.995   3.337   2.023  0.0659 -0.4035  0.4903
    5CHTO  C104 1769   7.113   3.322   2.098 -0.1322  0.5054 -0.5783
    5CHTO  H191 1770   7.095   3.251   2.178  0.0121 -1.0831 -1.9191
    5CHTO  C108 1771   7.138   3.463   2.157 -0.2344 -0.1878 -0.1613
    5CHTO   O71 1772   7.259   3.457   2.234 -0.1941  1.1867 -0.9944
    5CHTO  H171 1773   7.327   3.511   2.200 -0.6279  1.9196 -0.7034
    5CHTO   O62 1774   6.805   3.255   1.920  0.2502  0.3232 -0.5945
    5CHTO   C91 1775   6.691   3.241   2.006  0.0415  0.1151 -0.2714
    5CHTO  H178 1776   6.727   3.250   2.109  2.0159 -0.3796 -0.8920
    5CHTO   C92 1777   6.625   3.099   1.996 -0.5180 -0.8984 -0.7638
    5CHTO  H179 1778   6.627   3.059   1.894  1.4013 -1.5425 -0.4974
    5CHTO   O66 1779   6.723   3.016   2.053 -0.3361  0.1111  0.5077
    5CHTO  H166 1780   6.708   2.924   2.061  0.4211 -0.1070 -0.4594
    5CHTO   C93 1781   6.484   3.081   2.059  0.2229  0.6035  0.2086
    5CHTO  H180 1782   6.493   3.101   2.167 -1.1742 -0.9352  0.6193
    5CHTO   N16 1783   6.419   2.948   2.041  0.4773  0.0526 -0.0813
    5CHTO  H172 1784   6.318   2.937   2.078  0.8973 -0.6740  0.8832
    5CHTO  H173 1785   6.468   2.875   2.103  1.3982  1.2242  0.5892
    5CHTO   C94 1786   6.395   3.196   1.999 -0.7719  0.2050 -0.2609
    5CHTO  H181 1787   6.387   3.189   1.891 -0.2332 -1.8792 -0.1871
    5CHTO   O61 1788   6.454   3.325   2.030 -0.4323 -0.1390 -0.0375
    5CHTO   C95 1789   6.578   3.349   1.967 -1.0440 -0.2776  0.1192
    5CHTO  H182 1790   6.564   3.344   1.859 -1.4766 -0.4223  0.1798
    5CHTO  C106 1791   6.614   3.505   1.993  0.0813  0.6541  0.2280
    5CHTO   O69 1792   6.621   3.543   2.131 -0.1605  0.1846  0.2006
    5CHTO  H169 1793   6.692   3.599   2.157  0.4570  0.0229 -1.1170
    5CHTO   O63 1794   6.251   3.193   2.063  0.7374  0.1294 -0.2625
    5CHTO   C96 1795   6.140   3.191   1.944  0.3854 -0.0487 -0.0183
    5CHTO  H183 1796   6.176   3.144   1.852  0.0470 -3.2247  1.4096
    5CHTO   C98 1797   6.085   3.323   1.884 -0.6737  0.2944  0.0717
    5CHTO  H185 1798   6.054   3.390   1.966 -0.0919  1.2951 -0.5185
    5CHTO   O67 1799   6.193   3.400   1.819  0.3021 -0.0871  0.2021
    5CHTO  H167 1800   6.222   3.360   1.740  1.1194  0.3389  0.2835
    5CHTO  C102 1801   5.951   3.309   1.784 -0.1298  0.7689 -0.9723
    5CHTO  H189 1802   5.991   3.296   1.682 -0.3096  3.0813 -1.3473
    5CHTO   N18 1803   5.864   3.428   1.769 -0.0617 -0.1304 -0.8819
    5CHTO  H176 1804   5.872   3.509   1.840  0.5208 -0.6205 -0.3844
    5CHTO  H177 1805   5.805   3.451   1.681 -0.7126  0.3399 -0.3363
    5CHTO  C105 1806   5.867   3.182   1.812  0.0039  0.6013 -0.2542
    5CHTO  H192 1807   5.787   3.199   1.884 -0.2845 -1.1381 -0.1321
    5CHTO   O65 1808   5.929   3.069   1.866 -0.7133 -0.0083  0.3193
    5CHTO  C100 1809   6.017   3.100   1.981  1.1015 -0.0776 -0.1629
    5CHTO  H187 1810   5.953   3.149   2.055  1.7328 -2.5823  2.1178
    5CHTO  C107 1811   6.070   2.967   2.032 -0.7743 -0.0515  0.3036
    5CHTO   O70 1812   5.976   2.876   2.076  0.1335  0.2902 -1.1117
    5CHTO  H170 1813   6.000   2.838   2.158  0.4453 -0.0969 -1.3835
    5CHTO   O57 1814   5.807   3.137   1.652 -0.1002  0.1488  0.0568
    5CHTO   C85 1815   5.682   3.080   1.633 -0.0448  0.5670  0.3183
    5CHTO  H157 1816   5.611   3.146   1.687  0.0179  0.6227  0.3327
    5CHTO   C83 1817   5.670   2.947   1.711 -0.8279 -0.5516 -0.3239
    5CHTO  H155 1818   5.686   2.961   1.818  0.6159  0.0855 -0.6112
    5CHTO   O56 1819   5.781   2.862   1.670 -0.2491  0.2876  0.0537
    5CHTO  H135 1820   5.764   2.824   1.586  0.0350  1.8542 -0.7328
    5CHTO   C81 1821   5.532   2.891   1.684 -0.8359 -0.2827  0.0627
    5CHTO  H153 1822   5.461   2.971   1.705 -0.6316  0.4050 -1.7674
    5CHTO   N14 1823   5.493   2.769   1.773 -0.5838  0.7159 -0.0417
    5CHTO  H141 1824   5.576   2.707   1.802 -1.4507 -0.3175  0.2632
    5CHTO  H142 1825   5.441   2.806   1.858 -1.4538  0.4598 -0.4626
    5CHTO   C79 1826   5.525   2.851   1.525  0.4304 -0.0875 -0.0786
    5CHTO  H151 1827   5.432   2.799   1.508  1.3203 -1.1719 -1.7378
    5CHTO   O52 1828   5.525   2.982   1.455  0.2374  0.0105  0.4108
    5CHTO   C86 1829   5.645   3.065   1.478  0.2147  0.0885  0.1188
    5CHTO  H158 1830   5.717   3.013   1.411 -1.3340 -0.9027 -0.8093
    5CHTO   C90 1831   5.617   3.201   1.416 -0.1395 -0.1696  0.9172
    5CHTO   O60 1832   5.591   3.183   1.278 -0.0438  0.3443  1.1044
    5CHTO  H138 1833   5.554   3.259   1.238 -2.3225 -0.4396  1.6100
    5CHTO   O50 1834   5.638   2.766   1.478 -0.4981 -0.5563  0.1189
    5CHTO   C73 1835   5.655   2.650   1.388 -0.1085 -0.2260 -0.7083
    5CHTO  H145 1836   5.594   2.652   1.297  1.7918  0.2029 -1.9925
    5CHTO   C74 1837   5.622   2.523   1.475  0.6818  0.1187  0.1738
    5CHTO  H146 1838   5.521   2.532   1.517  0.7648 -0.8029  0.5820
    5CHTO   O54 1839   5.611   2.413   1.378  0.1239 -0.0817 -0.6641
    5CHTO  H133 1840   5.625   2.324   1.405  3.3413  0.9599  1.3365
    5CHTO   C75 1841   5.733   2.504   1.582  0.2156  0.3233  0.6432
    5CHTO  H147 1842   5.721   2.576   1.664  0.4519 -1.5899  2.3798
    5CHTO   N13 1843   5.733   2.374   1.662  0.3070 -0.7955  0.5539
    5CHTO  H139 1844   5.688   2.390   1.758  0.4334  0.4202  0.4164
    5CHTO  H140 1845   5.664   2.310   1.609  0.0035  0.4244 -0.5344
    5CHTO   C76 1846   5.883   2.527   1.525  0.0178  0.2859 -0.6909
    5CHTO  H148 1847   5.905   2.451   1.449 -2.6735  0.4732 -1.7258
    5CHTO   O49 1848   5.893   2.661   1.453  0.1916  0.1113  0.6469
    5CHTO   C77 1849   5.805   2.658   1.339 -0.3136  0.1347  0.7425
    5CHTO  H149 1850   5.826   2.573   1.274  2.8085  0.2407  1.5444
    5CHTO   C88 1851   5.834   2.792   1.262  0.2243 -0.4052 -0.3288
    5CHTO   O58 1852   5.730   2.813   1.150  1.0053  0.4846 -0.1768
    5CHTO  H136 1853   5.758   2.765   1.075  0.4428 -0.8931  0.4796
    5CHTO   O51 1854   6.005   2.524   1.648 -0.3974 -0.2624  0.6137
    5CHTO   C78 1855   6.149   2.524   1.584  0.1677  0.4328  0.0518
    5CHTO  H150 1856   6.135   2.543   1.475 -2.7121 -0.8843  0.1541
    5CHTO   C80 1857   6.225   2.388   1.602  0.1230 -0.1924  0.4236
    5CHTO  H152 1858   6.217   2.353   1.707 -1.3537  1.3057  0.8131
    5CHTO   O55 1859   6.147   2.297   1.519 -0.1193 -1.1774 -0.0860
    5CHTO  H134 1860   6.208   2.241   1.475  0.5612 -0.9851  0.5899
    5CHTO   C84 1861   6.379   2.403   1.558  0.1466 -0.1160  0.1932
    5CHTO  H156 1862   6.372   2.419   1.450 -1.4864  1.1479  0.4671
    5CHTO   N15 1863   6.457   2.275   1.577  0.7747 -0.0701  0.0457
    5CHTO  H143 1864   6.447   2.252   1.681  1.1258  1.4407  0.4302
    5CHTO  H144 1865   6.561   2.274   1.555  0.5844 -1.1776 -0.8963
    5CHTO   C87 1866   6.452   2.515   1.638  0.2721 -0.4843 -0.8418
    5CHTO  H159 1867   6.451   2.491   1.744 -1.3852 -2.0650 -1.1892
    5CHTO   O53 1868   6.372   2.641   1.621  0.2916 -0.2053  0.4730
    5CHTO   C82 1869   6.232   2.637   1.650 -0.2166 -0.1953 -0.1208
    5CHTO  H154 1870   6.224   2.614   1.756  0.1140 -0.7062 -0.2025
    5CHTO   C89 1871   6.179   2.773   1.629  0.4456  0.4641  0.7154
    5CHTO   O59 1872   6.061   2.803   1.704 -0.0769  0.3138  0.2898
    5CHTO  H137 1873   6.086   2.793   1.794  1.8127 -0.1196 -0.2632
    5CHTO   O45 1874   6.605   2.553   1.564  0.0260 -0.0630 -0.1414
    5CHTO   C67 1875   6.720   2.569   1.648 -0.4067  0.2392 -0.4870
    5CHTO  H124 1876   6.677   2.588   1.746 -1.1944  1.5810 -1.0755
    5CHTO   C65 1877   6.804   2.439   1.646  0.4662  0.5581 -0.1533
    5CHTO  H122 1878   6.778   2.395   1.549 -0.5101  0.8313 -0.0208
    5CHTO   O44 1879   6.746   2.359   1.745 -0.9686  0.6419 -0.2619
    5CHTO  H102 1880   6.813   2.354   1.810 -0.4913 -0.0878 -0.7971
    5CHTO   C63 1881   6.959   2.466   1.647 -0.0551 -0.3527 -0.3263
    5CHTO  H120 1882   6.994   2.499   1.549 -0.0857 -2.4353 -1.0794
    5CHTO   N11 1883   7.037   2.337   1.672 -0.3166 -0.3516 -0.2705
    5CHTO  H108 1884   7.143   2.350   1.677 -0.3104 -1.1775  2.1932
    5CHTO  H109 1885   7.003   2.270   1.595  1.5998 -0.8541 -0.6979
    5CHTO   C61 1886   6.996   2.576   1.744  0.3128 -0.7013  0.6560
    5CHTO  H118 1887   7.102   2.597   1.723 -0.0754  2.3945  1.5678
    5CHTO   O40 1888   6.928   2.701   1.704 -0.4493  0.4583 -0.3283
    5CHTO   C68 1889   6.815   2.687   1.616 -0.8706  0.1550 -0.3549
    5CHTO  H125 1890   6.857   2.659   1.517  1.2284 -0.6305  0.7066
    5CHTO   C72 1891   6.731   2.813   1.590 -0.0183  0.2349 -0.0381
    5CHTO   O48 1892   6.646   2.843   1.705  0.2438  0.0855 -0.2927
    5CHTO  H105 1893   6.616   2.932   1.708 -1.8457 -0.6258  0.6872
    5CHTO   O38 1894   6.962   2.556   1.881 -0.4777  0.3756 -0.1833
    5CHTO   C55 1895   6.950   2.652   1.998  0.1011 -0.4091 -0.1044
    5CHTO  H112 1896   6.889   2.737   1.962  1.1061 -1.0493 -3.4377
    5CHTO   C56 1897   7.089   2.700   2.055 -0.4822 -0.2151  0.0471
    5CHTO  H113 1898   7.152   2.619   2.095  0.5839  0.7086  0.2908
    5CHTO   O42 1899   7.162   2.762   1.950  0.6265  0.0724 -0.9254
    5CHTO  H100 1900   7.219   2.698   1.912  0.1367 -1.9897  1.6588
    5CHTO   C57 1901   7.065   2.807   2.169  0.4506  0.5031  0.7024
    5CHTO  H114 1902   7.018   2.892   2.119 -0.8975  1.5483  3.5844
    5CHTO   N10 1903   7.188   2.847   2.241  0.6978  0.1443  0.3914
    5CHTO  H106 1904   7.270   2.825   2.174  0.2539 -0.0418 -0.0955
    5CHTO  H107 1905   7.210   2.799   2.335  1.8418 -0.5406 -0.2262
    5CHTO   C58 1906   6.961   2.750   2.277 -0.4369  0.4750 -0.2474
    5CHTO  H115 1907   7.008   2.668   2.335 -1.1339 -0.0634 -0.4332
    5CHTO   O37 1908   6.849   2.698   2.216  0.2448  0.8009  0.4160
    5CHTO   C59 1909   6.866   2.597   2.113  0.1400 -0.2179  0.1434
    5CHTO  H116 1910   6.910   2.505   2.153 -0.5512 -0.6320 -0.0326
    5CHTO   C70 1911   6.729   2.562   2.055  0.4032  0.0949 -0.3653
    5CHTO   O46 1912   6.642   2.673   2.069 -0.3267 -0.6664 -0.5483
    5CHTO  H103 1913   6.666   2.749   2.019 -1.2680  2.0611  2.9059
    5CHTO   O39 1914   6.900   2.881   2.377 -0.3313  0.5322 -1.0160
    5CHTO   C60 1915   6.759   2.906   2.371 -0.5362  1.0245  0.6603
    5CHTO  H117 1916   6.724   2.901   2.268 -2.3582 -1.3787  1.3737
    5CHTO   C62 1917   6.674   2.792   2.443  0.2669 -0.7400 -0.0952
    5CHTO  H119 1918   6.691   2.699   2.385  2.7267  0.6216 -1.6356
    5CHTO   O43 1919   6.710   2.774   2.581 -0.3630 -0.1133 -0.3466
    5CHTO  H101 1920   6.793   2.731   2.587  0.3888  1.5437  1.9532
    5CHTO   C66 1921   6.517   2.826   2.426  0.1857  0.2252  0.0765
    5CHTO  H123 1922   6.495   2.820   2.319  0.4348  0.9106 -0.0145
    5CHTO   N12 1923   6.430   2.721   2.485 -1.1927 -0.8843  0.0940
    5CHTO  H110 1924   6.454   2.619   2.460  0.2153 -1.4279  3.4240
    5CHTO  H111 1925   6.399   2.729   2.589  0.3193  2.5718  0.3420
    5CHTO   C69 1926   6.490   2.972   2.471  0.6685  0.0035  0.7569
    5CHTO  H126 1927   6.511   2.970   2.580 -0.3303 -0.0030  0.9507
    5CHTO   O41 1928   6.585   3.067   2.405  0.3332  0.2474 -0.4885
    5CHTO   C64 1929   6.710   3.044   2.427 -0.6003 -0.5838 -0.2811
    5CHTO  H121 1930   6.719   3.038   2.537 -2.1380  0.8072 -0.0586
    5CHTO   C71 1931   6.787   3.177   2.370  0.7100  0.0172  0.0615
    5CHTO   O47 1932   6.930   3.171   2.383  0.0317  0.3381  0.2542
    5CHTO  H104 1933   6.969   3.125   2.455 -0.3672 -0.0906  0.1987
    5CHTO   O34 1934   6.334   3.016   2.450  0.1039  0.2227  0.0321
    5CHTO   C49 1935   6.233   3.101   2.518 -0.4312  0.1255 -0.5765
    5CHTO   H91 1936   6.151   3.032   2.537  0.8482 -1.3736 -0.4415
    5CHTO   C47 1937   6.192   3.215   2.425  0.3303  0.0218  0.1550
    5CHTO   H89 1938   6.109   3.271   2.473  1.1100  0.6114  0.8215
    5CHTO   O33 1939   6.146   3.149   2.304 -0.3341 -0.0485 -0.4887
    5CHTO   H70 1940   6.217   3.098   2.269  0.3133 -0.5450  1.4874
    5CHTO   C45 1941   6.324   3.304   2.404 -0.5543 -0.3212 -0.4409
    5CHTO   H87 1942   6.410   3.243   2.372  1.4586  2.2684 -0.2082
    5CHTO    N8 1943   6.309   3.415   2.310  0.0395  0.4418  0.2350
    5CHTO   H75 1944   6.217   3.411   2.255 -2.0137  1.6975  3.4212
    5CHTO   H76 1945   6.402   3.407   2.256  1.1651  4.5586  1.3910
    5CHTO   C43 1946   6.366   3.367   2.545 -0.5360 -0.0682 -0.1252
    5CHTO   H85 1947   6.458   3.425   2.534  1.2036 -2.6203  0.6227
    5CHTO   O29 1948   6.386   3.258   2.641  0.4631  0.7841  0.1416
    5CHTO   C50 1949   6.287   3.152   2.660  0.3884 -0.3280  0.5102
    5CHTO   H92 1950   6.318   3.063   2.717 -1.9307 -1.6529 -0.2343
    5CHTO   C54 1951   6.168   3.189   2.752 -0.3643 -0.5868  0.0501
    5CHTO   O36 1952   6.211   3.167   2.883 -0.1240  0.1140 -0.3485
    5CHTO   H72 1953   6.149   3.202   2.945 -1.2730  0.4039 -1.6453
    5CHTO   O27 1954   6.264   3.455   2.601  0.0345 -0.2392 -0.1491
    5CHTO   C37 1955   6.183   3.547   2.674 -0.3017  0.1026  0.7282
    5CHTO   H79 1956   6.197   3.649   2.635  0.9368  0.0096  0.8956
    5CHTO   C38 1957   6.029   3.524   2.659  0.0944  0.3211  0.0178
    5CHTO   H80 1958   6.007   3.421   2.691  1.2375  0.6512  1.9589
    5CHTO   O31 1959   5.996   3.545   2.521  0.3404  0.6606  0.0675
    5CHTO   H68 1960   6.007   3.460   2.483 -1.7376  0.8269 -0.9881
    5CHTO   C39 1961   5.943   3.617   2.761  0.3019  0.1979  0.4052
    5CHTO   H81 1962   5.948   3.723   2.736  0.5863  0.0494 -0.2026
    5CHTO    N7 1963   5.794   3.593   2.754 -0.2078  0.2710  0.3854
    5CHTO   H73 1964   5.745   3.678   2.799  0.7560  0.4923  1.0227
    5CHTO   H74 1965   5.773   3.499   2.803 -0.8948 -0.9187 -2.0770
    5CHTO   C40 1966   6.004   3.601   2.902  0.1370 -0.0158 -0.4736
    5CHTO   H82 1967   5.991   3.495   2.921  0.0681  0.5700  2.9717
    5CHTO   O26 1968   6.137   3.638   2.898 -0.0241 -0.3736 -0.3448
    5CHTO   C41 1969   6.218   3.544   2.825  0.7033  0.1784  0.2316
    5CHTO   H83 1970   6.201   3.443   2.866  0.4279  0.6273  1.2406
    5CHTO   C52 1971   6.376   3.566   2.838 -0.3323  0.3162  0.1212
    5CHTO   O35 1972   6.420   3.705   2.809  0.6993  0.2934  0.0477
    5CHTO   H71 1973   6.499   3.732   2.852  0.5401  0.9062 -0.0417
    5CHTO   O28 1974   5.944   3.678   3.010 -0.1052  0.2323 -0.1107
    5CHTO   C42 1975   5.932   3.628   3.146  0.0759 -0.4223 -0.2082
    5CHTO   H84 1976   5.877   3.709   3.193  0.9585 -0.0554  0.2060
    5CHTO   C44 1977   6.063   3.605   3.231 -0.9021 -0.3512  0.8761
    5CHTO   H86 1978   6.124   3.539   3.170  1.0328  0.6338  1.7038
    5CHTO   O32 1979   6.134   3.728   3.243 -0.2987  0.3351 -0.8271
    5CHTO   H69 1980   6.205   3.745   3.183 -0.2006 -0.0122 -0.8116
    5CHTO   C48 1981   6.045   3.534   3.367  0.3779  0.1854 -0.3309
    5CHTO   H90 1982   5.975   3.584   3.434  2.6927  1.5525  1.1312
    5CHTO    N9 1983   6.177   3.510   3.437 -0.4789 -0.1954  0.4532
    5CHTO   H77 1984   6.196   3.407   3.462 -0.2607 -0.2630  0.0194
    5CHTO   H78 1985   6.193   3.579   3.519 -1.9153  0.5252  0.1517
    5CHTO   C51 1986   5.969   3.402   3.339 -0.2438 -0.1263 -0.0782
    5CHTO   H93 1987   6.025   3.356   3.258 -0.3180  2.5255 -1.7147
    5CHTO   O30 1988   5.843   3.442   3.297  0.3507  0.4066 -0.1365
    5CHTO   C46 1989   5.850   3.495   3.154  0.0773 -0.0532  0.0454
    5CHTO   H88 1990   5.904   3.415   3.104 -0.3328  0.1222 -0.6826
    5CHTO   C53 1991   5.707   3.510   3.103  0.0563 -0.7270 -0.6641
    5CHTO   O72 1992   5.660   3.380   3.063 -0.3819 -0.0571 -0.9218
    5CHTO  H199 1993   5.576   3.379   3.021 -0.5533 -3.1457 -0.6000
    5CHTO   O22 1994   5.941   3.312   3.451  0.5058 -0.5635 -0.1040
    5CHTO   C31 1995   5.925   3.163   3.429  0.4265  0.3969 -0.3416
    5CHTO   H59 1996   5.911   3.123   3.532  1.0023 -2.3193 -1.2932
    5CHTO   C29 1997   5.802   3.135   3.340 -0.0972 -0.0584  0.2421
    5CHTO   H57 1998   5.818   3.207   3.259 -1.7787  1.6957  1.4312
    5CHTO   O21 1999   5.681   3.198   3.393  0.6067  0.5422 -0.3786
    5CHTO   H37 2000   5.615   3.198   3.327 -1.7056  2.3534  1.8080
    5CHTO   C27 2001   5.801   2.981   3.294 -0.1759  0.2918 -0.0414
    5CHTO   H55 2002   5.789   2.921   3.385 -1.3929 -1.3741 -1.2610
    5CHTO    N5 2003   5.691   2.954   3.198 -0.8617 -0.0311 -0.5567
    5CHTO   H43 2004   5.716   2.862   3.147  0.3699 -0.7603  1.3421
    5CHTO   H44 2005   5.666   3.034   3.130  1.1927  0.6224 -0.5806
    5CHTO   C25 2006   5.945   2.934   3.247  0.5147  0.2613  0.9880
    5CHTO   H53 2007   5.977   2.988   3.157 -0.7242  1.8039  1.4726
    5CHTO   O17 2008   6.041   2.960   3.352  0.2679 -0.0199 -0.0650
    5CHTO   C32 2009   6.057   3.101   3.371 -0.1633  0.0280 -0.2002
    5CHTO   H60 2010   6.077   3.155   3.279 -1.9375 -1.3140 -1.4049
    5CHTO   C36 2011   6.169   3.125   3.483  0.5270 -0.4783 -0.2183
    5CHTO   O25 2012   6.305   3.146   3.439  0.2352 -0.6303 -0.7482
    5CHTO   H40 2013   6.325   3.236   3.454  2.4429 -1.0294 -1.1635
    5CHTO   O15 2014   5.955   2.788   3.204  0.9773 -0.2968  0.0671
    5CHTO   C19 2015   6.064   2.693   3.178  0.7474  0.3715  0.3902
    5CHTO   H47 2016   6.149   2.733   3.235  1.1194  1.6978 -1.0614
    5CHTO   C20 2017   6.038   2.547   3.217 -0.0040  0.4232  0.0550
    5CHTO   H48 2018   5.975   2.493   3.145  1.0899 -2.2204  0.9937
    5CHTO   O19 2019   5.980   2.538   3.354  0.3055 -0.4397  0.1645
    5CHTO   H35 2020   5.967   2.448   3.376  0.8543 -0.2705  1.1959
    5CHTO   C21 2021   6.182   2.475   3.205 -0.5614  0.4162  0.1980
    5CHTO   H49 2022   6.250   2.524   3.275 -1.7805 -0.5658  2.0943
    5CHTO    N4 2023   6.176   2.332   3.226  0.0227 -0.0931  0.0123
    5CHTO   H41 2024   6.256   2.264   3.201 -0.9924 -0.2905 -2.9027
    5CHTO   H42 2025   6.079   2.294   3.195 -0.3779  0.8351  0.1062
    5CHTO   C22 2026   6.256   2.508   3.072 -0.0515 -0.5474  0.0657
    5CHTO   H50 2027   6.214   2.449   2.991 -1.1523  1.3562 -0.7961
    5CHTO   O14 2028   6.242   2.644   3.026 -0.1081  0.1512 -0.0678
    5CHTO   C23 2029   6.105   2.698   3.030  0.1625  0.3856  0.3244
    5CHTO   H51 2030   6.041   2.635   2.967 -0.7837  0.5311  1.1362
    5CHTO   C34 2031   6.116   2.839   2.962 -0.0468  0.7582  0.0483
    5CHTO   O23 2032   6.143   2.828   2.817  0.1802 -0.1897 -0.5864
    5CHTO   H38 2033   6.213   2.885   2.790  0.0788  0.1086 -0.2314
    5CHTO   O16 2034   6.399   2.472   3.074 -0.0795 -0.0924  0.5230
    5CHTO   C24 2035   6.463   2.441   2.971  0.1883  0.5393 -0.2080
    5CHTO   H52 2036   6.400   2.444   2.882 -0.1878  0.4093  0.0554
    5CHTO   C26 2037   6.515   2.293   2.986  0.0278 -0.4913  0.1827
    5CHTO   H54 2038   6.555   2.272   3.087 -2.1204 -2.8431  0.5732
    5CHTO   O20 2039   6.399   2.204   2.985 -0.5593  0.0800  0.4086
    5CHTO   H36 2040   6.418   2.115   3.007 -1.2924 -0.2566 -0.2932
    5CHTO   C30 2041   6.631   2.257   2.888 -0.1570 -0.3882 -0.6958
    5CHTO   H58 2042   6.592   2.267   2.786  1.6370 -0.9208 -1.4437
    5CHTO    N6 2043   6.685   2.119   2.911  0.2518 -0.3497  0.0288
    5CHTO   H45 2044   6.742   2.117   3.003  1.0645  0.0020 -0.4592
    5CHTO   H46 2045   6.753   2.086   2.834  0.9142  0.2456  0.3439
    5CHTO   C33 2046   6.742   2.368   2.898 -0.2852 -0.3293 -0.1691
    5CHTO   H61 2047   6.786   2.374   2.998 -1.6871 -3.9695  0.7587
    5CHTO   O18 2048   6.675   2.494   2.870 -1.7459 -0.2530  0.4249
    5CHTO   C28 2049   6.574   2.547   2.956  0.3379 -0.3874  0.8617
    5CHTO   H56 2050   6.625   2.571   3.049  0.8321 -0.8507  0.7109
    5CHTO   C35 2051   6.525   2.679   2.892  0.5158 -0.3530 -0.8062
    5CHTO   O24 2052   6.622   2.784   2.878  0.0463  0.0017 -0.0421
    5CHTO   H39 2053   6.588   2.866   2.846 -2.9694 -1.0843  0.2318
    5CHTO    O9 2054   6.851   2.347   2.806 -0.9397 -0.1850 -0.0928
    5CHTO   C13 2055   6.824   2.336   2.647  0.0952  0.3627  0.3313
    5CHTO   H26 2056   6.716   2.325   2.624  0.6888  0.5840 -2.8995
    5CHTO   C11 2057   6.904   2.209   2.599 -0.7803  0.4163  0.4099
    5CHTO   H24 2058   6.851   2.118   2.631 -0.8768 -1.2147 -3.9854
    5CHTO    O8 2059   7.037   2.217   2.661  0.2159  0.3813 -0.1087
    5CHTO    H3 2060   7.025   2.235   2.752 -0.7929  0.5629 -0.2751
    5CHTO    C9 2061   6.906   2.208   2.444 -0.1659  0.5169 -0.0222
    5CHTO   H22 2062   6.801   2.216   2.412 -0.3914 -0.9922  0.2757
    5CHTO    N2 2063   6.940   2.071   2.394 -0.3850 -0.7072  0.1679
    5CHTO   H10 2064   6.942   2.008   2.482  0.3977 -0.7650  0.1095
    5CHTO   H11 2065   6.874   2.031   2.319  0.0918  0.5295 -0.9250
    5CHTO    C7 2066   6.972   2.321   2.378 -0.2537  0.4448  0.0814
    5CHTO   H20 2067   6.930   2.319   2.276  1.4680  0.8699 -0.6633
    5CHTO    O4 2068   6.927   2.444   2.432 -0.0006  0.1225  0.2331
    5CHTO   C14 2069   6.880   2.465   2.567 -0.2447  0.0859 -0.0855
    5CHTO   H27 2070   6.795   2.535   2.558  0.6877  1.1134 -1.1379
    5CHTO   C18 2071   6.995   2.539   2.647  0.8428 -0.4504 -0.5675
    5CHTO   O13 2072   7.024   2.661   2.577  0.5236  0.2702  0.6214
    5CHTO    H7 2073   7.071   2.716   2.636  1.5567  0.4046 -0.3007
    5CHTO    O2 2074   7.131   2.319   2.380 -0.1698 -0.5294 -0.2473
    5CHTO    C1 2075   7.193   2.381   2.263  0.5778  0.3621 -0.3278
    5CHTO   H14 2076   7.131   2.469   2.238  1.7987  1.2836 -0.1610
    5CHTO    C2 2077   7.212   2.293   2.128 -0.1232 -0.2446 -0.1848
    5CHTO   H15 2078   7.250   2.198   2.168  2.4353  0.3636 -1.0801
    5CHTO    O6 2079   7.081   2.283   2.069 -0.1026 -0.0266 -0.0714
    5CHTO    H1 2080   7.051   2.197   2.048  0.2385 -0.2121  0.1919
    5CHTO    C3 2081   7.308   2.355   2.015  0.5558 -0.9223 -0.0299
    5CHTO   H16 2082   7.263   2.443   1.966  1.4123  0.0805  0.9520
    5CHTO    N1 2083   7.338   2.262   1.902 -0.5130  0.3131  0.4218
    5CHTO    H8 2084   7.413   2.192   1.938  0.4995  1.2569  0.1759
    5CHTO    H9 2085   7.262   2.186   1.891  0.8903 -1.0851  0.0338
    5CHTO    C4 2086   7.432   2.415   2.078  0.3245 -0.2631 -0.6809
    5CHTO   H17 2087   7.484   2.336   2.132 -1.0254 -0.8923 -0.2795
    5CHTO    O1 2088   7.399   2.508   2.187 -0.3733 -0.2290 -0.2879
    5CHTO    C5 2089   7.333   2.441   2.302  0.3927  0.2869 -0.3528
    5CHTO   H18 2090   7.389   2.348   2.313 -0.2381 -0.0129  0.3471
    5CHTO   C16 2091   7.336   2.520   2.441  0.0875 -0.9465 -0.1231
    5CHTO   O11 2092   7.476   2.523   2.494  1.1069  0.1062 -0.5587
    5CHTO    H5 2093   7.520   2.602   2.468 -0.1448  0.6103 -1.1719
    5CHTO    O3 2094   7.513   2.491   1.986 -0.0216 -0.7107  0.7675
    5CHTO    C6 2095   7.656   2.495   2.016  0.1528  0.1129 -0.4488
    5CHTO   H19 2096   7.682   2.446   2.109 -2.6321 -1.8021 -0.6179
    5CHTO    C8 2097   7.727   2.433   1.884 -0.0374 -0.2970  0.0174
    5CHTO   H21 2098   7.682   2.480   1.797 -0.7496  0.0997  0.5889
    5CHTO    O7 2099   7.689   2.293   1.889 -0.5066 -0.6054 -0.2042
    5CHTO    H2 2100   7.684   2.257   1.802 -1.7486  1.0426 -0.8467
    5CHTO   C12 2101   7.880   2.464   1.881 -0.4831 -0.1921  0.0458
    5CHTO   H25 2102   7.932   2.403   1.958  0.0677 -0.3170 -0.4231
    5CHTO    N3 2103   7.942   2.431   1.743 -0.1244 -0.0336 -0.4292
    5CHTO   H12 2104   8.049   2.444   1.731 -0.2320 -0.1381 -1.6161
    5CHTO   H13 2105   7.892   2.502   1.679  0.4214  1.2401  0.5607
    5CHTO   C15 2106   7.904   2.616   1.918 -0.7280 -0.3231 -0.7463
    5CHTO   H28 2107   7.863   2.687   1.847  0.5872  1.5114  0.3064
    5CHTO   O10 2108   8.071   2.645   1.946 -0.2116 -0.1649 -0.2952
    5CHTO    H4 2109   8.112   2.573   1.990  0.3024 -0.9918 -2.0787
    5CHTO    O5 2110   7.839   2.644   2.037 -0.4575  0.0340  0.3654
    5CHTO   C10 2111   7.697   2.641   2.029  0.2332  0.2744 -0.6281
    5CHTO   H23 2112   7.657   2.699   1.946 -1.1754 -0.7444 -0.6782
    5CHTO   C17 2113   7.628   2.703   2.154 -0.3615 -0.0685  0.1073
    5CHTO   O12 2114   7.528   2.798   2.123  0.0145  0.3267 -0.3483
    5CHTO    H6 2115   7.549   2.884   2.154 -0.8129  1.0770 -1.8481
    6CHTO  H203 2116   7.661   4.903   0.402 -0.6179  0.5721  0.7306
    6CHTO   O82 2117   7.582   4.886   0.354  0.0839 -0.3942 -0.0977
    6CHTO  C123 2118   7.488   4.996   0.340  0.3103 -0.0922  0.2559
    6CHTO  H227 2119   7.522   5.065   0.262 -0.2285  0.3615  0.4137
    6CHTO   O77 2120   7.364   4.930   0.286  0.4056 -0.4038 -0.4689
    6CHTO  C118 2121   7.252   5.012   0.264  0.5200  0.2616  0.2660
    6CHTO  H222 2122   7.297   5.085   0.196  0.9208  0.1840  0.4494
    6CHTO  C125 2123   7.131   4.945   0.194 -0.2574 -0.3383  0.2022
    6CHTO   O84 2124   7.167   4.897   0.066 -0.3371 -0.0887 -0.6514
    6CHTO  H205 2125   7.144   4.954  -0.005 -0.3065  1.7426  0.7937
    6CHTO  C114 2126   7.213   5.065   0.397  0.0996 -0.4825 -0.3195
    6CHTO  H218 2127   7.198   4.983   0.468  0.7839 -1.8845 -1.7687
    6CHTO  C116 2128   7.324   5.156   0.458 -0.3443  0.0221 -0.1938
    6CHTO  H220 2129   7.335   5.247   0.396 -0.0478 -0.3106 -0.6362
    6CHTO   O79 2130   7.285   5.212   0.588 -0.7562  0.6994 -0.3525
    6CHTO  H201 2131   7.233   5.156   0.642  0.5644  0.4938  0.7572
    6CHTO  C120 2132   7.457   5.076   0.469 -0.8987 -0.6966  0.1487
    6CHTO  H224 2133   7.437   5.001   0.549 -0.3647  0.2676  1.1892
    6CHTO   N21 2134   7.560   5.161   0.518  0.5674  0.1124  0.6973
    6CHTO  H211 2135   7.598   5.217   0.434  0.4771  0.5159  0.9214
    6CHTO  H212 2136   7.638   5.104   0.565  0.2164 -0.8310  0.1519
    6CHTO   O75 2137   7.087   5.141   0.383  0.0112 -0.1458 -0.1995
    6CHTO  C112 2138   6.977   5.116   0.502  0.5909  0.2526 -0.5995
    6CHTO  H216 2139   7.023   5.138   0.599  1.9354 -2.6350 -0.5283
    6CHTO   O73 2140   6.942   4.975   0.495  0.1773 -0.8155  0.2871
    6CHTO  C113 2141   6.834   4.924   0.570  0.0203 -0.4575  0.1564
    6CHTO  H217 2142   6.870   4.916   0.675  2.0637  0.3771 -0.4531
    6CHTO  C124 2143   6.822   4.773   0.534  0.2528  0.3288  0.3474
    6CHTO   O83 2144   6.713   4.708   0.606 -0.1391  0.6281  0.2257
    6CHTO  H204 2145   6.716   4.717   0.700  0.4475  2.0346  0.0890
    6CHTO  C109 2146   6.692   4.996   0.544  0.0369  0.2270  0.3450
    6CHTO  H213 2147   6.661   4.975   0.441  1.3420 -0.7176  0.1421
    6CHTO  C110 2148   6.721   5.152   0.561 -0.4226  0.3947 -0.2751
    6CHTO  H214 2149   6.748   5.171   0.665  0.3704 -2.1386  0.0178
    6CHTO   O78 2150   6.598   5.218   0.530  0.1537  0.1128 -0.1087
    6CHTO  H200 2151   6.610   5.311   0.537 -0.7190  0.2471 -0.3208
    6CHTO  C111 2152   6.842   5.203   0.474  0.4861  0.5633  0.3805
    6CHTO  H215 2153   6.818   5.189   0.367  2.6540 -1.4045  0.0999
    6CHTO   N19 2154   6.879   5.345   0.488 -0.0294 -0.5866 -0.1919
    6CHTO  H207 2155   6.808   5.398   0.550 -0.5992 -1.9006  0.3016
    6CHTO  H208 2156   6.873   5.381   0.386  0.4347  1.3281  0.4351
    6CHTO   O74 2157   6.581   4.949   0.634 -0.2594  0.0621  0.0953
    6CHTO  C115 2158   6.578   5.000   0.799 -0.0182 -0.5022 -0.4360
    6CHTO  H219 2159   6.680   5.016   0.835  0.1586 -2.3328 -0.0691
    6CHTO   O76 2160   6.506   5.135   0.816  0.7574 -0.4072 -0.4131
    6CHTO  C122 2161   6.372   5.122   0.760 -0.1574 -0.1630 -0.7692
    6CHTO  H226 2162   6.383   5.125   0.651  0.6506 -1.5383 -0.7418
    6CHTO  C126 2163   6.283   5.237   0.796 -0.3414  0.6735  0.1641
    6CHTO   O85 2164   6.366   5.348   0.788 -0.5754 -0.2820  0.0124
    6CHTO  H206 2165   6.322   5.428   0.807  1.4605  0.4794  1.7190
    6CHTO  C121 2166   6.289   4.986   0.797  0.2666 -0.6891 -0.7461
    6CHTO  H225 2167   6.188   5.020   0.828  0.9018  0.7285 -0.1967
    6CHTO   O81 2168   6.284   4.891   0.688 -0.3260 -0.0189  0.3571
    6CHTO  H202 2169   6.294   4.942   0.610  2.8724 -2.5054 -0.9349
    6CHTO  C119 2170   6.358   4.910   0.913 -0.5649 -0.6789  0.5286
    6CHTO  H223 2171   6.359   4.984   0.992 -0.6659 -0.3846  0.2556
    6CHTO  C117 2172   6.511   4.890   0.880  0.4502 -0.1905  0.8236
    6CHTO  H221 2173   6.537   4.803   0.819 -0.0845 -1.9165  2.9853
    6CHTO   N20 2174   6.577   4.858   1.008  0.5786 -0.3910 -0.2874
    6CHTO  H209 2175   6.683   4.877   1.004  0.1078  2.9425  1.4145
    6CHTO  H210 2176   6.531   4.903   1.095 -0.9558  2.1104 -2.3497
    6CHTO   O80 2177   6.282   4.793   0.976  0.0620  0.0562 -0.1999
    6CHTO  C103 2178   6.172   4.819   1.094  0.3160  0.3535 -0.0277
    6CHTO  H190 2179   6.222   4.819   1.191 -1.5577 -1.1404  0.9521
    6CHTO  C101 2180   6.061   4.934   1.080 -0.2746 -0.5947  0.9391
    6CHTO  H188 2181   6.004   4.928   0.987 -0.6114  0.6793  1.0464
    6CHTO   O68 2182   6.143   5.075   1.090 -0.3967  0.7284  0.1399
    6CHTO  H168 2183   6.180   5.088   1.004  0.2860 -0.6907  0.1965
    6CHTO   C99 2184   5.962   4.917   1.204  0.0097 -0.0905  0.6578
    6CHTO  H186 2185   6.029   4.919   1.292  1.6635 -0.1620 -0.5807
    6CHTO   N17 2186   5.871   5.041   1.221  0.2030 -0.0775 -0.1282
    6CHTO  H174 2187   5.801   5.035   1.303  0.7338 -0.1289  0.3271
    6CHTO  H175 2188   5.822   5.066   1.128  0.6665  1.3230 -0.0022
    6CHTO   C97 2189   5.893   4.780   1.193  0.4888 -0.7823 -0.5839
    6CHTO  H184 2190   5.833   4.792   1.102  0.8467  1.2760 -0.5647
    6CHTO   O64 2191   5.991   4.671   1.178 -0.1208  0.3204  0.3597
    6CHTO  C104 2192   6.094   4.682   1.079 -0.1475 -0.1325 -0.3256
    6CHTO  H191 2193   6.049   4.682   0.980  0.7076 -1.2736 -0.7259
    6CHTO  C108 2194   6.188   4.557   1.087  0.6340  1.0301  0.1018
    6CHTO   O71 2195   6.267   4.545   1.208 -0.5176  0.4367  0.4670
    6CHTO  H171 2196   6.336   4.481   1.206 -2.0531 -1.2873  0.8603
    6CHTO   O62 2197   5.810   4.747   1.309  0.1974  0.4032 -0.0663
    6CHTO   C91 2198   5.691   4.670   1.275 -0.3388 -0.6635  0.1063
    6CHTO  H178 2199   5.620   4.743   1.236 -0.5167  0.4205  2.3466
    6CHTO   C92 2200   5.630   4.613   1.408  0.7187  0.2136 -0.2329
    6CHTO  H179 2201   5.638   4.691   1.485  0.9483 -0.6156  0.5811
    6CHTO   O66 2202   5.491   4.584   1.385  0.1407 -0.3444  0.1408
    6CHTO  H166 2203   5.450   4.644   1.326 -0.7076 -0.6504  0.4121
    6CHTO   C93 2204   5.704   4.484   1.448 -0.7394 -0.2557 -0.8759
    6CHTO  H180 2205   5.637   4.420   1.507 -0.4660 -0.6241 -0.9639
    6CHTO   N16 2206   5.819   4.510   1.542 -0.4493 -0.7005  0.1161
    6CHTO  H172 2207   5.902   4.558   1.493 -0.3418  0.6704  1.5949
    6CHTO  H173 2208   5.840   4.416   1.589 -1.9219 -0.8693  0.4822
    6CHTO   C94 2209   5.757   4.405   1.328 -0.3757  0.1520 -0.1040
    6CHTO  H181 2210   5.857   4.439   1.300 -0.2886  0.0638  0.0949
    6CHTO   O61 2211   5.677   4.430   1.206  0.0164  0.3050  0.0548
    6CHTO   C95 2212   5.701   4.562   1.158 -0.1528 -0.4005  0.0418
    6CHTO  H182 2213   5.799   4.565   1.111 -0.6106 -2.9844 -1.1523
    6CHTO  C106 2214   5.590   4.581   1.036 -0.6099  0.2722 -0.1811
    6CHTO   O69 2215   5.618   4.706   0.977 -0.1119  0.3534 -0.0845
    6CHTO  H169 2216   5.549   4.769   0.975  0.5693  1.0713 -1.6484
    6CHTO   O63 2217   5.750   4.259   1.365 -0.5475  0.0088 -0.3089
    6CHTO   C96 2218   5.827   4.151   1.265  0.1395  1.1231 -0.3233
    6CHTO  H183 2219   5.890   4.213   1.201 -0.3360  1.2493 -0.6795
    6CHTO   C98 2220   5.734   4.060   1.181 -0.4936  0.4350  0.0504
    6CHTO  H185 2221   5.673   3.999   1.249  0.0632  0.0106  0.1739
    6CHTO   O67 2222   5.648   4.142   1.097 -0.2930  0.3236 -0.0300
    6CHTO  H167 2223   5.701   4.195   1.040  0.6179 -1.3369 -0.7413
    6CHTO  C102 2224   5.824   3.962   1.092 -0.1880 -0.1817  0.7859
    6CHTO  H189 2225   5.871   4.025   1.015  0.7345 -0.2048  1.3212
    6CHTO   N18 2226   5.758   3.855   1.018 -0.3131 -0.0991  0.1995
    6CHTO  H176 2227   5.762   3.878   0.912  0.7306  0.1659  0.2874
    6CHTO  H177 2228   5.662   3.831   1.061 -0.5642 -1.8934 -1.3041
    6CHTO  C105 2229   5.953   3.909   1.161 -0.1280  0.1324  0.7610
    6CHTO  H192 2230   5.965   3.805   1.131 -2.4126 -0.4439  1.7516
    6CHTO   O65 2231   5.944   3.921   1.304 -0.1837  0.1161 -0.1100
    6CHTO  C100 2232   5.917   4.057   1.360 -0.0179 -0.7961 -0.4484
    6CHTO  H187 2233   5.866   4.037   1.455 -0.2605 -1.6732 -0.7658
    6CHTO  C107 2234   6.048   4.110   1.414 -0.1065  0.6163 -0.2041
    6CHTO   O70 2235   6.022   4.235   1.489 -0.1589  0.0134 -0.8678
    6CHTO  H170 2236   5.981   4.210   1.569  2.2292 -1.6984 -0.1373
    6CHTO   O57 2237   6.086   4.003   1.093 -0.1881 -0.0527  0.2146
    6CHTO   C85 2238   6.187   3.926   1.024  0.3942 -0.1476  0.5008
    6CHTO  H157 2239   6.139   3.845   0.966 -0.3291  1.4288 -1.1588
    6CHTO   C83 2240   6.265   3.843   1.128 -0.0188  0.0986 -0.3569
    6CHTO  H155 2241   6.201   3.767   1.173 -1.3811  0.9059 -0.9032
    6CHTO   O56 2242   6.293   3.924   1.243  0.5609  0.0809 -0.1776
    6CHTO  H135 2243   6.312   3.873   1.319  1.2871  1.4323  0.5854
    6CHTO   C81 2244   6.382   3.776   1.059  0.3591  0.3447  0.4560
    6CHTO  H153 2245   6.337   3.725   0.973  0.0226  0.5906  0.4853
    6CHTO   N14 2246   6.446   3.673   1.143 -0.3202  0.0944 -0.5129
    6CHTO  H141 2247   6.552   3.689   1.135 -0.2489 -1.0095 -1.8751
    6CHTO  H142 2248   6.420   3.689   1.245 -0.5103 -0.5611 -0.4593
    6CHTO   C79 2249   6.476   3.886   1.001  0.0309  0.2953 -0.1448
    6CHTO  H151 2250   6.563   3.840   0.954  0.9840  0.4588  1.4290
    6CHTO   O52 2251   6.406   3.953   0.893 -0.3591  0.2988  0.1228
    6CHTO   C86 2252   6.283   4.014   0.933  0.7535 -0.5359  0.2752
    6CHTO  H158 2253   6.310   4.104   0.993 -0.3744 -1.0792  1.6110
    6CHTO   C90 2254   6.206   4.064   0.818  0.0171 -0.3121 -0.1937
    6CHTO   O60 2255   6.098   4.149   0.860 -0.0577  0.2045  0.2657
    6CHTO  H138 2256   6.064   4.120   0.942  0.7389  0.6742  0.7619
    6CHTO   O50 2257   6.525   3.973   1.102  0.1190  0.2554 -0.4744
    6CHTO   C73 2258   6.645   3.963   1.176  0.1044 -0.1234 -0.4016
    6CHTO  H145 2259   6.694   3.864   1.173 -0.4371 -0.5786  3.5392
    6CHTO   C74 2260   6.616   3.984   1.320  0.0896  0.4237  0.2479
    6CHTO  H146 2261   6.542   3.905   1.342  0.7332  0.1422  1.4309
    6CHTO   O54 2262   6.727   3.952   1.404 -0.0492  0.3592 -0.1340
    6CHTO  H133 2263   6.704   3.958   1.495  0.6699 -1.9077  0.2099
    6CHTO   C75 2264   6.556   4.128   1.341  0.4769 -0.2215  0.4000
    6CHTO  H147 2265   6.463   4.133   1.283  0.2338  3.5895  1.0249
    6CHTO   N13 2266   6.513   4.153   1.480 -0.0352  0.0088  0.0307
    6CHTO  H139 2267   6.425   4.099   1.514 -1.0854  0.5538 -1.7542
    6CHTO  H140 2268   6.499   4.259   1.498  0.1393 -0.1744  1.3092
    6CHTO   C76 2269   6.655   4.240   1.280  0.3880  0.3857  0.2677
    6CHTO  H148 2270   6.747   4.224   1.337  0.2422 -3.2007 -0.3679
    6CHTO   O49 2271   6.689   4.197   1.144 -0.4674  0.4747  0.1608
    6CHTO   C77 2272   6.750   4.070   1.128  0.3127 -0.1785 -0.3595
    6CHTO  H149 2273   6.841   4.062   1.186  2.6893 -0.8731 -3.9745
    6CHTO   C88 2274   6.788   4.057   0.984 -0.1138 -0.3706 -0.1766
    6CHTO   O58 2275   6.896   3.968   0.960  0.2941 -0.2534  0.9085
    6CHTO  H136 2276   6.980   3.997   0.990  0.7680 -1.1727  0.4867
    6CHTO   O51 2277   6.606   4.382   1.275  0.4344  0.4162 -0.4610
    6CHTO   C78 2278   6.718   4.486   1.313  0.6990  0.6949 -0.4643
    6CHTO  H150 2279   6.812   4.435   1.342  0.5493 -0.2547 -1.6304
    6CHTO   C80 2280   6.684   4.578   1.432  0.1536  0.4764 -0.6475
    6CHTO  H152 2281   6.576   4.602   1.429  0.2547  0.7905 -2.1676
    6CHTO   O55 2282   6.696   4.498   1.552 -0.3493 -0.1760 -0.1093
    6CHTO  H134 2283   6.687   4.558   1.624 -0.2266  0.6868 -0.8054
    6CHTO   C84 2284   6.777   4.698   1.450  0.0879 -0.4775  1.0757
    6CHTO  H156 2285   6.873   4.650   1.465  1.2110  1.1537 -0.6652
    6CHTO   N15 2286   6.747   4.793   1.553  0.3721  0.2001 -0.2781
    6CHTO  H143 2287   6.824   4.859   1.586  1.6289 -1.6923  0.6303
    6CHTO  H144 2288   6.654   4.845   1.550 -0.6522 -1.5636  0.1714
    6CHTO   C87 2289   6.790   4.773   1.311 -0.4050 -0.1068  1.0633
    6CHTO  H159 2290   6.693   4.802   1.271  0.3630  0.9357 -0.0995
    6CHTO   O53 2291   6.842   4.675   1.210  0.3692 -0.0619  0.1274
    6CHTO   C82 2292   6.747   4.567   1.185 -0.8074 -0.9653 -0.4624
    6CHTO  H154 2293   6.656   4.616   1.151  1.1962  1.3139 -2.7196
    6CHTO   C89 2294   6.802   4.485   1.072 -0.0658  0.5356  0.2996
    6CHTO   O59 2295   6.933   4.416   1.081  0.0521  0.0124 -0.4684
    6CHTO  H137 2296   6.993   4.488   1.085  0.5271 -0.3705 -0.7008
    6CHTO   O45 2297   6.893   4.892   1.323  0.0229  0.2763 -0.4825
    6CHTO   C67 2298   7.018   4.882   1.250 -0.2501  0.5147 -0.6084
    6CHTO  H124 2299   7.058   4.787   1.285 -1.9826  0.4254  1.2106
    6CHTO   C65 2300   7.013   4.884   1.094  0.7314  0.0532  0.7591
    6CHTO  H122 2301   6.906   4.867   1.084  0.8694 -0.1534 -0.4342
    6CHTO   O44 2302   7.095   4.771   1.050  0.3042 -0.2329 -0.5122
    6CHTO  H102 2303   7.061   4.749   0.965 -2.4887  2.5221 -0.1964
    6CHTO   C63 2304   7.046   5.025   1.031 -0.3700  0.3820  0.2006
    6CHTO  H120 2305   6.974   5.100   1.062  1.0459  2.9797 -2.4766
    6CHTO   N11 2306   7.020   5.037   0.881  0.1138 -0.3208  0.3462
    6CHTO  H108 2307   7.108   5.023   0.823  1.3959  0.1423  2.1461
    6CHTO  H109 2308   6.954   4.966   0.836 -0.5922  0.7180 -0.2887
    6CHTO   C61 2309   7.185   5.068   1.086 -0.1898  0.0956  0.4011
    6CHTO  H118 2310   7.183   5.178   1.085 -0.5396  0.0753 -1.5800
    6CHTO   O40 2311   7.226   5.015   1.221 -0.3581 -0.2844 -0.2431
    6CHTO   C68 2312   7.115   4.989   1.311  0.7921 -0.0229  0.5960
    6CHTO  H125 2313   7.062   5.085   1.330 -0.3650 -0.3993 -0.6743
    6CHTO   C72 2314   7.168   4.937   1.445 -0.0539 -0.0184 -0.2685
    6CHTO   O48 2315   7.078   4.944   1.557  0.1154 -0.0626 -0.0250
    6CHTO  H105 2316   7.120   4.924   1.638  1.4713  2.2100 -0.1232
    6CHTO   O38 2317   7.290   5.031   0.993 -0.5837  0.1064 -0.1266
    6CHTO   C55 2318   7.418   5.093   1.007  0.5246 -0.2816 -0.1153
    6CHTO  H112 2319   7.418   5.135   1.109  0.9639  2.6234 -1.2641
    6CHTO   C56 2320   7.448   5.208   0.899 -0.4730  0.2822 -0.2799
    6CHTO  H113 2321   7.441   5.167   0.797 -1.4990  1.3474 -0.6420
    6CHTO   O42 2322   7.352   5.314   0.907 -0.3672  0.7254 -0.2254
    6CHTO  H100 2323   7.272   5.284   0.867 -0.6139  1.0511  0.0224
    6CHTO   C57 2324   7.588   5.265   0.923 -0.2265 -0.0975  0.6913
    6CHTO  H114 2325   7.576   5.314   1.020  0.7899 -0.3206  0.9316
    6CHTO   N10 2326   7.632   5.360   0.818  0.2157 -0.0066  0.4155
    6CHTO  H106 2327   7.713   5.423   0.853  0.8931 -0.3786 -0.4687
    6CHTO  H107 2328   7.553   5.419   0.775 -1.3136 -1.5064  1.1427
    6CHTO   C58 2329   7.690   5.149   0.934  0.1329 -0.2117 -0.4880
    6CHTO  H115 2330   7.713   5.106   0.835 -1.0697 -1.6516 -0.1591
    6CHTO   O37 2331   7.651   5.048   1.022 -0.2364  0.0596 -0.6536
    6CHTO   C59 2332   7.525   4.986   0.993  0.5747 -0.0810  0.3738
    6CHTO  H116 2333   7.532   4.944   0.892 -2.5744  0.1599  0.0269
    6CHTO   C70 2334   7.503   4.875   1.096  0.6078  0.0508 -0.3380
    6CHTO   O46 2335   7.555   4.742   1.058 -0.4545  0.3968 -0.2032
    6CHTO  H103 2336   7.494   4.695   1.005  1.5910  0.4719 -2.7756
    6CHTO   O39 2337   7.818   5.200   0.996 -0.0916 -0.7433 -0.6034
    6CHTO   C60 2338   7.939   5.127   0.971 -0.2446 -0.1965  0.2992
    6CHTO  H117 2339   7.916   5.020   0.975 -0.8247 -0.0843 -0.0937
    6CHTO   C62 2340   8.001   5.158   0.830  0.0330 -0.1385  0.1173
    6CHTO  H119 2341   7.936   5.110   0.754  1.0466 -3.1395  1.0667
    6CHTO   O43 2342   7.992   5.298   0.813  0.1330 -0.4181 -0.5734
    6CHTO  H101 2343   7.922   5.322   0.754 -0.9061 -2.1744 -0.0883
    6CHTO   C66 2344   8.153   5.099   0.834  0.2681  0.5560  0.3240
    6CHTO  H123 2345   8.142   4.993   0.857 -1.7303  0.5194 -0.7088
    6CHTO   N12 2346   8.219   5.091   0.698 -0.5379 -0.0833  0.1993
    6CHTO  H110 2347   8.322   5.123   0.708  0.3366 -2.0560 -1.7880
    6CHTO  H111 2348   8.168   5.139   0.616 -0.6280 -2.3704 -1.1415
    6CHTO   C69 2349   8.235   5.175   0.947  0.4462 -0.6283  0.0766
    6CHTO  H126 2350   8.220   5.283   0.923 -0.8158 -0.8235 -0.0928
    6CHTO   O41 2351   8.185   5.124   1.071 -0.3399  0.1179 -0.5426
    6CHTO   C64 2352   8.034   5.169   1.095  0.6839  0.8184 -0.3671
    6CHTO  H121 2353   8.027   5.278   1.109 -2.3473  0.8085 -1.3016
    6CHTO   C71 2354   7.971   5.101   1.221  0.3626  0.0627 -0.2120
    6CHTO   O47 2355   7.971   4.961   1.216 -0.6005 -0.0113  0.0339
    6CHTO  H104 2356   7.883   4.933   1.199  0.0646 -3.1869  1.4455
    6CHTO   O34 2357   8.393   5.149   0.944 -0.7209 -0.5967  0.6144
    6CHTO   C49 2358   8.507   5.195   0.846  0.5738 -0.1237  0.7106
    6CHTO   H91 2359   8.507   5.148   0.748 -0.9711  0.9164  0.1946
    6CHTO   C47 2360   8.637   5.163   0.920 -0.5711 -0.0102 -0.4586
    6CHTO   H89 2361   8.706   5.162   0.833 -2.3831  0.2844 -1.9327
    6CHTO   O33 2362   8.631   5.026   0.972  0.4810  0.0797 -0.9571
    6CHTO   H70 2363   8.600   4.965   0.908  1.1897  0.5493 -1.7704
    6CHTO   C45 2364   8.672   5.266   1.044  0.0521 -0.0314 -0.1391
    6CHTO   H87 2365   8.648   5.217   1.139 -2.2186  0.5166 -0.3931
    6CHTO    N8 2366   8.811   5.300   1.047 -0.3616 -0.1496  0.1308
    6CHTO   H75 2367   8.832   5.405   1.039 -0.3305 -0.0889  0.9362
    6CHTO   H76 2368   8.852   5.263   0.955  1.8044 -0.0777  1.0342
    6CHTO   C43 2369   8.574   5.396   1.042 -0.1004  0.2474 -0.7971
    6CHTO   H85 2370   8.481   5.375   1.095 -0.3854 -1.7495 -2.0461
    6CHTO   O29 2371   8.552   5.442   0.906 -0.0835  0.4360 -0.7059
    6CHTO   C50 2372   8.484   5.347   0.820  0.8618 -0.3605 -0.3450
    6CHTO   H92 2373   8.375   5.356   0.827  0.9873 -0.1299  1.6056
    6CHTO   C54 2374   8.524   5.383   0.671  0.5420  0.0768 -0.3493
    6CHTO   O36 2375   8.664   5.394   0.646  0.4770 -0.5595 -0.4445
    6CHTO   H72 2376   8.707   5.324   0.691  1.1581  1.2914  1.8846
    6CHTO   O27 2377   8.624   5.497   1.128 -0.0063 -0.9377 -0.3872
    6CHTO   C37 2378   8.718   5.601   1.165 -0.3330  0.3640 -0.3838
    6CHTO   H79 2379   8.819   5.557   1.174  0.3709  2.2859  1.4577
    6CHTO   C38 2380   8.731   5.719   1.067 -0.6337  0.1248  0.5906
    6CHTO   H80 2381   8.631   5.757   1.040 -0.9355 -1.0611 -0.0075
    6CHTO   O31 2382   8.788   5.669   0.951 -0.2066 -0.4547  0.3844
    6CHTO   H68 2383   8.865   5.617   0.965 -1.3838 -2.7188 -1.0871
    6CHTO   C39 2384   8.827   5.834   1.129  0.0963 -0.6896 -0.0090
    6CHTO   H81 2385   8.921   5.784   1.152 -0.1299 -0.4848  1.4340
    6CHTO    N7 2386   8.852   5.953   1.035 -0.1662 -0.6238 -0.3614
    6CHTO   H73 2387   8.766   6.017   1.026 -1.2492 -1.7810  1.5823
    6CHTO   H74 2388   8.937   6.013   1.065  0.1685 -2.0663  1.6746
    6CHTO   C40 2389   8.766   5.876   1.271 -0.0760 -0.7124  0.3842
    6CHTO   H82 2390   8.670   5.928   1.270 -0.9116 -2.0663  3.6266
    6CHTO   O26 2391   8.760   5.752   1.352 -0.0739 -0.1385  0.6508
    6CHTO   C41 2392   8.673   5.645   1.309 -0.4181 -0.1703 -0.5197
    6CHTO   H83 2393   8.567   5.675   1.303 -0.2873  0.3120 -0.4035
    6CHTO   C52 2394   8.674   5.526   1.414 -0.0506 -0.6339  0.3534
    6CHTO   O35 2395   8.612   5.552   1.521 -0.6018 -0.1949  0.3193
    6CHTO   H71 2396   8.526   5.588   1.509 -1.1268 -1.3712  0.5021
    6CHTO   O28 2397   8.861   5.953   1.335 -0.5385  0.1632 -0.2157
    6CHTO   C42 2398   8.829   6.032   1.460  0.3547  0.5537  0.0200
    6CHTO   H84 2399   8.919   6.079   1.499  0.9231 -0.5456  0.0513
    6CHTO   C44 2400   8.776   5.942   1.576 -0.0139 -0.6907 -0.2228
    6CHTO   H86 2401   8.685   5.895   1.542 -0.0688  0.7633 -2.1702
    6CHTO   O32 2402   8.878   5.841   1.586 -1.0994 -0.6136 -0.4093
    6CHTO   H69 2403   8.851   5.760   1.547 -0.9980 -0.1066 -1.5396
    6CHTO   C48 2404   8.754   6.024   1.714  0.0977  0.4894  0.4922
    6CHTO   H90 2405   8.849   6.043   1.763 -1.0535  1.7884  2.2873
    6CHTO    N9 2406   8.693   5.940   1.832  0.2186  0.3783 -0.6390
    6CHTO   H77 2407   8.773   5.874   1.862 -0.6141 -1.2255 -1.9208
    6CHTO   H78 2408   8.673   6.003   1.917 -0.4747 -0.4854 -0.1626
    6CHTO   C51 2409   8.660   6.147   1.684  0.0525 -0.0038 -0.6808
    6CHTO   H93 2410   8.555   6.122   1.674 -0.4113  0.7952  1.6873
    6CHTO   O30 2411   8.705   6.235   1.586  1.0579  0.5679  0.1870
    6CHTO   C46 2412   8.729   6.148   1.429 -0.0878 -0.2071 -0.0247
    6CHTO   H88 2413   8.637   6.098   1.400 -1.3068  2.2875 -0.6398
    6CHTO   C53 2414   8.765   6.251   1.328 -0.1778  0.2818 -0.0874
    6CHTO   O72 2415   8.655   6.342   1.323 -0.4023 -0.4974  0.3813
    6CHTO  H199 2416   8.654   6.399   1.248  1.2743 -0.3941  0.4255
    6CHTO   O22 2417   8.668   6.236   1.796  0.1558 -0.2680  1.3360
    6CHTO   C31 2418   8.567   6.339   1.824 -0.6591  0.0592 -0.0650
    6CHTO   H59 2419   8.597   6.380   1.923  0.3472  0.3724 -0.4920
    6CHTO   C29 2420   8.543   6.460   1.731 -0.7012  0.6417  0.0401
    6CHTO   H57 2421   8.505   6.422   1.635  0.9753 -0.8714 -0.0354
    6CHTO   O21 2422   8.673   6.521   1.714 -0.4253 -0.1889  0.0949
    6CHTO   H37 2423   8.717   6.488   1.637 -1.3612  1.0597 -1.0021
    6CHTO   C27 2424   8.436   6.564   1.789  0.6180 -0.7905 -0.2052
    6CHTO   H55 2425   8.470   6.618   1.878 -1.3515  0.8690 -0.4205
    6CHTO    N5 2426   8.406   6.669   1.692  0.0313  0.4272  0.3296
    6CHTO   H43 2427   8.375   6.623   1.599  0.3640  1.8795 -0.5163
    6CHTO   H44 2428   8.499   6.719   1.668 -1.1958  2.3860 -0.5217
    6CHTO   C25 2429   8.308   6.490   1.824  0.4366  0.8628 -0.1612
    6CHTO   H53 2430   8.254   6.453   1.735  1.0188 -0.4815  0.0365
    6CHTO   O17 2431   8.337   6.375   1.902 -0.6561 -0.1155  0.0108
    6CHTO   C32 2432   8.426   6.278   1.839  0.2693  0.5814  0.3941
    6CHTO   H60 2433   8.386   6.261   1.739  0.9351 -1.8413  0.5206
    6CHTO   C36 2434   8.410   6.149   1.923  0.0455 -0.2034 -0.2262
    6CHTO   O25 2435   8.442   6.173   2.061 -0.0532 -0.2661  0.0106
    6CHTO   H40 2436   8.382   6.121   2.110 -1.3162  0.6813 -0.5192
    6CHTO   O15 2437   8.212   6.578   1.912 -0.4354 -0.2892 -0.0434
    6CHTO   C19 2438   8.102   6.564   2.002 -0.3509 -0.3565 -0.0780
    6CHTO   H47 2439   8.143   6.482   2.063 -0.0301  0.3440  0.6556
    6CHTO   C20 2440   8.074   6.676   2.095 -0.0613  0.2940 -0.3451
    6CHTO   H48 2441   8.091   6.773   2.046  0.9356 -0.5706 -1.7532
    6CHTO   O19 2442   8.183   6.672   2.190 -0.0144  0.1230 -0.6268
    6CHTO   H35 2443   8.166   6.718   2.271  1.1507  0.5785 -0.6359
    6CHTO   C21 2444   7.939   6.667   2.175 -0.1269 -0.1010  0.5448
    6CHTO   H49 2445   7.955   6.600   2.260 -2.0329 -1.0208  0.2051
    6CHTO    N4 2446   7.896   6.800   2.222  0.9186  0.1992 -0.2052
    6CHTO   H41 2447   7.862   6.800   2.325 -0.8027  1.1526 -0.7540
    6CHTO   H42 2448   7.819   6.841   2.159  0.0112 -1.5721 -0.2682
    6CHTO   C22 2449   7.824   6.605   2.098 -0.8118  0.2913 -0.1845
    6CHTO   H50 2450   7.781   6.672   2.024 -2.9633 -1.2109 -0.3585
    6CHTO   O14 2451   7.872   6.480   2.033 -0.2025 -0.4695  0.2719
    6CHTO   C23 2452   7.976   6.509   1.934  0.3411  0.9463 -0.1719
    6CHTO   H51 2453   7.936   6.578   1.859 -2.2648 -1.2657 -0.8619
    6CHTO   C34 2454   8.002   6.386   1.848 -0.3034 -0.7327 -0.2934
    6CHTO   O23 2455   7.908   6.364   1.744 -0.1296  0.4125 -0.0600
    6CHTO   H38 2456   7.883   6.274   1.742  0.5048  0.2249  0.1014
    6CHTO   O16 2457   7.713   6.565   2.184  0.2024  0.9572 -0.2824
    6CHTO   C24 2458   7.568   6.600   2.132 -0.3503  1.1698  0.4603
    6CHTO   H52 2459   7.568   6.638   2.030  1.4029 -1.3931 -0.5479
    6CHTO   C26 2460   7.489   6.698   2.226 -0.3674 -0.4097  0.8078
    6CHTO   H54 2461   7.488   6.657   2.329  0.2114  1.5894  1.6306
    6CHTO   O20 2462   7.574   6.814   2.237  0.3700  0.4276  0.2220
    6CHTO   H36 2463   7.660   6.800   2.270  2.3086  4.5256 -2.6608
    6CHTO   C30 2464   7.344   6.723   2.173 -0.1294  0.1296  0.7160
    6CHTO   H58 2465   7.339   6.767   2.072 -0.9933 -1.7464 -0.0815
    6CHTO    N6 2466   7.266   6.814   2.259 -0.1343  0.4874  0.4751
    6CHTO   H45 2467   7.302   6.915   2.252 -0.4229  0.5237 -0.7152
    6CHTO   H46 2468   7.170   6.814   2.209  0.1728 -0.0330 -0.1388
    6CHTO   C33 2469   7.270   6.584   2.166 -0.7115 -0.0202  0.2527
    6CHTO   H61 2470   7.256   6.533   2.262  0.2129  2.0045  1.4843
    6CHTO   O18 2471   7.347   6.495   2.082 -0.9093 -0.5581 -0.0541
    6CHTO   C28 2472   7.480   6.469   2.135 -0.7447  0.1168  0.1744
    6CHTO   H56 2473   7.476   6.440   2.239 -1.1304  1.7659  0.6351
    6CHTO   C35 2474   7.556   6.364   2.049 -0.7360 -0.0524 -0.3929
    6CHTO   O24 2475   7.495   6.237   2.057 -0.4825  0.0181  0.3708
    6CHTO   H39 2476   7.541   6.176   2.002  1.3931  2.5916 -1.0719
    6CHTO    O9 2477   7.132   6.600   2.110  0.4275  0.2398 -0.5382
    6CHTO   C13 2478   7.016   6.580   2.236 -0.1021  0.2943 -0.2248
    6CHTO   H26 2479   7.064   6.629   2.324  1.0503  1.3890 -1.4519
    6CHTO   C11 2480   6.988   6.421   2.262 -0.4882 -0.1179 -0.1072
    6CHTO   H24 2481   7.066   6.396   2.334 -1.1143  1.2777  1.0873
    6CHTO    O8 2482   7.013   6.344   2.140 -0.0152  0.7882 -0.0858
    6CHTO    H3 2483   7.094   6.297   2.134 -0.7903 -0.5822 -0.1303
    6CHTO    C9 2484   6.846   6.396   2.330  0.0351  0.3181 -0.2704
    6CHTO   H22 2485   6.848   6.455   2.423 -1.7665 -1.5131  0.9504
    6CHTO    N2 2486   6.825   6.260   2.372  0.0871 -0.1307  0.3280
    6CHTO   H10 2487   6.886   6.241   2.459 -0.0843  0.2416  0.5347
    6CHTO   H11 2488   6.723   6.239   2.402  0.4375 -3.6852 -0.7574
    6CHTO    C7 2489   6.743   6.455   2.238  0.4014  0.7421  0.6047
    6CHTO   H20 2490   6.647   6.446   2.292 -0.2666 -1.9975 -0.9392
    6CHTO    O4 2491   6.760   6.599   2.228  0.0295  0.5486 -0.5290
    6CHTO   C14 2492   6.888   6.657   2.193  0.4810 -0.0028  0.2337
    6CHTO   H27 2493   6.894   6.759   2.237  1.7000  0.8438 -1.8603
    6CHTO   C18 2494   6.876   6.682   2.042 -0.1526  0.2405  0.1346
    6CHTO   O13 2495   6.791   6.792   2.015  0.1519  0.1589 -0.0009
    6CHTO    H7 2496   6.699   6.782   2.025  0.5280 -2.4202  1.3789
    6CHTO    O2 2497   6.735   6.387   2.085 -0.2658 -0.3455 -0.1472
    6CHTO    C1 2498   6.611   6.363   2.009 -0.1285  1.0763  0.2758
    6CHTO   H14 2499   6.639   6.302   1.921  1.5445  1.1391  0.7294
    6CHTO    C2 2500   6.545   6.497   1.963  0.0906  0.0502  0.0373
    6CHTO   H15 2501   6.545   6.563   2.050 -1.9836  1.5803 -1.0821
    6CHTO    O6 2502   6.628   6.548   1.862  0.2399 -0.1498  0.5125
    6CHTO    H1 2503   6.593   6.631   1.834 -0.2283  0.2178  2.1181
    6CHTO    C3 2504   6.398   6.465   1.917  0.0127  0.5489 -0.4915
    6CHTO   H16 2505   6.388   6.415   1.819 -0.9054  1.2727 -0.7755
    6CHTO    N1 2506   6.332   6.595   1.893  0.3226 -0.4004  0.3841
    6CHTO    H8 2507   6.318   6.605   1.786  1.9623 -0.6125  0.1360
    6CHTO    H9 2508   6.241   6.610   1.949  0.6997  1.8657  0.4190
    6CHTO    C4 2509   6.315   6.381   2.016 -0.5892  0.2855  0.2068
    6CHTO   H17 2510   6.302   6.430   2.113 -0.8788 -0.4617  0.5524
    6CHTO    O1 2511   6.386   6.261   2.039 -0.6030  0.0797 -0.6117
    6CHTO    C5 2512   6.516   6.278   2.100 -0.5653  0.3974  0.3049
    6CHTO   H18 2513   6.491   6.321   2.197  0.2424 -1.5800  1.4438
    6CHTO   C16 2514   6.583   6.139   2.122 -0.5319 -0.6258 -0.4316
    6CHTO   O11 2515   6.539   6.081   2.246 -0.1783  0.5976 -0.0678
    6CHTO    H5 2516   6.553   6.134   2.322 -4.1784  0.4889  0.8682
    6CHTO    O3 2517   6.186   6.341   1.960  0.4510 -0.3888  0.4710
    6CHTO    C6 2518   6.091   6.300   2.056 -0.0872 -0.4249  0.1493
    6CHTO   H19 2519   6.138   6.294   2.154  3.3977  0.0673 -1.4338
    6CHTO    C8 2520   5.976   6.410   2.060  0.2383 -0.4906  0.2354
    6CHTO   H21 2521   5.949   6.431   1.957  1.4251  0.5307  0.1230
    6CHTO    O7 2522   6.034   6.541   2.093 -0.1161 -0.0728 -0.0399
    6CHTO    H2 2523   6.046   6.589   2.013 -1.3737  1.0908  0.4486
    6CHTO   C12 2524   5.868   6.369   2.169 -0.5350 -0.1594 -0.2836
    6CHTO   H25 2525   5.922   6.348   2.264  0.0946 -0.6115 -0.7377
    6CHTO    N3 2526   5.760   6.470   2.188  0.0969  1.1098  0.1851
    6CHTO   H12 2527   5.694   6.433   2.266  0.8646 -0.2744  0.1988
    6CHTO   H13 2528   5.702   6.502   2.103 -1.7432  2.5032  1.8863
    6CHTO   C15 2529   5.818   6.228   2.124 -0.4356  0.0147  0.2775
    6CHTO   H28 2530   5.767   6.230   2.027 -0.9481 -0.9166  0.5266
    6CHTO   O10 2531   5.732   6.163   2.220 -0.2892  0.1093 -0.2470
    6CHTO    H4 2532   5.699   6.087   2.177 -0.9044  1.0897 -1.5654
    6CHTO    O5 2533   5.926   6.130   2.119  0.2329 -0.2795  0.1055
    6CHTO   C10 2534   6.030   6.158   2.022 -0.1208 -0.3909 -0.0332
    6CHTO   H23 2535   5.993   6.150   1.920 -0.1597  0.1408 -0.0631
    6CHTO   C17 2536   6.139   6.053   2.029  0.0118  0.0600 -0.3446
    6CHTO   O12 2537   6.082   5.922   2.001 -0.5554  0.0414  0.3718
    6CHTO    H6 2538   6.157   5.866   1.991  1.4945  2.8078 -0.4909
    7CHTO  H203 2539   5.077   2.516   1.942 -0.7037  1.2789  0.1173
    7CHTO   O82 2540   5.134   2.482   2.009 -0.7510  0.3443 -0.3143
    7CHTO  C123 2541   5.274   2.504   1.988 -0.1189 -0.1228 -0.0089
    7CHTO  H227 2542   5.287   2.587   1.917  3.1829  0.6904  1.4748
    7CHTO   O77 2543   5.312   2.536   2.126  0.5554  0.5350  0.0165
    7CHTO  C118 2544   5.453   2.560   2.143 -0.0661 -0.0705  0.3741
    7CHTO  H222 2545   5.469   2.647   2.078 -1.3342  0.4015  0.6794
    7CHTO  C125 2546   5.478   2.597   2.294 -0.0653  0.8196  0.3207
    7CHTO   O84 2547   5.434   2.496   2.383 -0.4684 -0.1685 -0.0813
    7CHTO  H205 2548   5.506   2.449   2.419 -0.4309  1.2868  1.8435
    7CHTO  C114 2549   5.534   2.436   2.103  0.8377  0.4603 -0.1067
    7CHTO  H218 2550   5.525   2.361   2.182  1.2292  0.7673  0.2297
    7CHTO  C116 2551   5.501   2.381   1.962  0.6453  0.6384 -0.4870
    7CHTO  H220 2552   5.537   2.449   1.882 -1.1704  2.4293  0.1793
    7CHTO   O79 2553   5.564   2.250   1.945 -0.6529  0.2445 -0.2773
    7CHTO  H201 2554   5.654   2.273   1.956 -0.5133 -0.4170 -0.0167
    7CHTO  C120 2555   5.346   2.372   1.942  0.3758 -0.0041 -0.4531
    7CHTO  H224 2556   5.315   2.281   1.997  2.5351 -1.4849 -1.5966
    7CHTO   N21 2557   5.317   2.341   1.798  0.5534  0.3516  0.5960
    7CHTO  H211 2558   5.295   2.433   1.748  1.3083  0.2186  0.0201
    7CHTO  H212 2559   5.231   2.276   1.794  0.7029  0.2337 -0.8527
    7CHTO   O75 2560   5.661   2.502   2.113 -0.3170  0.3164  0.2095
    7CHTO  C112 2561   5.787   2.397   2.110  0.7456 -0.4380 -0.9638
    7CHTO  H216 2562   5.777   2.326   2.027  1.9024 -2.4710  0.6012
    7CHTO   O73 2563   5.795   2.333   2.246 -0.1509  0.2476 -0.1352
    7CHTO  C113 2564   5.915   2.253   2.263  0.2507 -0.4001  0.6171
    7CHTO  H217 2565   5.928   2.177   2.183  1.0106  0.0695  0.2867
    7CHTO  C124 2566   5.896   2.175   2.391  0.7396  0.0986 -1.0577
    7CHTO   O83 2567   5.802   2.067   2.386  0.3027 -0.0478  0.3234
    7CHTO  H204 2568   5.817   1.990   2.438 -0.5159 -2.1930 -2.4621
    7CHTO  C109 2569   6.046   2.338   2.262  0.7282 -0.1630  0.0179
    7CHTO  H213 2570   6.033   2.409   2.344 -1.6285 -0.9335  0.3567
    7CHTO  C110 2571   6.045   2.410   2.119  0.0837 -0.4487  0.0275
    7CHTO  H214 2572   6.060   2.327   2.049 -0.0108  0.0333 -0.5646
    7CHTO   O78 2573   6.166   2.480   2.115  0.3253 -0.0854 -0.4574
    7CHTO  H200 2574   6.147   2.569   2.140  0.3199  0.2599 -1.6607
    7CHTO  C111 2575   5.915   2.491   2.089 -0.2106 -0.0154 -0.0842
    7CHTO  H215 2576   5.913   2.579   2.154  1.5725 -0.9726  1.3167
    7CHTO   N19 2577   5.923   2.549   1.951 -0.3594  0.0662 -0.2134
    7CHTO  H207 2578   6.014   2.540   1.894  0.0412  3.2981 -0.1340
    7CHTO  H208 2579   5.851   2.503   1.885  0.6583 -2.5054  0.3964
    7CHTO   O74 2580   6.162   2.260   2.291 -0.4965  0.1042  0.2883
    7CHTO  C115 2581   6.280   2.333   2.358 -0.1620 -0.0547 -0.0900
    7CHTO  H219 2582   6.304   2.424   2.304 -0.3210 -0.2734 -0.5250
    7CHTO   O76 2583   6.233   2.392   2.506  0.1111 -0.0059 -0.0805
    7CHTO  C122 2584   6.227   2.283   2.599 -0.4578  0.0291 -0.3331
    7CHTO  H226 2585   6.150   2.213   2.566 -0.4803 -1.3003  2.4418
    7CHTO  C126 2586   6.179   2.325   2.746  0.3560 -0.0849  0.1893
    7CHTO   O85 2587   6.042   2.331   2.757 -0.3352  0.8527  0.5448
    7CHTO  H206 2588   6.018   2.376   2.835  0.0864  1.0456  0.5662
    7CHTO  C121 2589   6.370   2.213   2.602 -0.4856 -0.0850 -0.6426
    7CHTO  H225 2590   6.445   2.291   2.625  0.2158 -0.6901 -0.8607
    7CHTO   O81 2591   6.359   2.110   2.704  0.0472 -0.0122 -0.0076
    7CHTO  H202 2592   6.298   2.044   2.678  0.8739 -0.5558 -0.5697
    7CHTO  C119 2593   6.403   2.149   2.462  0.1753  0.0925 -0.2381
    7CHTO  H223 2594   6.494   2.094   2.483 -0.1681 -0.7882 -1.0650
    7CHTO  C117 2595   6.416   2.251   2.354 -0.0564 -0.7305  0.9988
    7CHTO  H221 2596   6.418   2.215   2.251 -0.0824  0.6699  0.4964
    7CHTO   N20 2597   6.543   2.337   2.363  0.1136 -0.5162 -0.0315
    7CHTO  H209 2598   6.594   2.331   2.458 -0.4867  0.9435  0.4006
    7CHTO  H210 2599   6.612   2.332   2.281  1.0428 -1.1933  0.7840
    7CHTO   O80 2600   6.307   2.034   2.416 -0.7394 -0.3038  0.1523
    7CHTO  C103 2601   6.353   1.927   2.299  0.1664 -0.0255  0.0025
    7CHTO  H190 2602   6.377   1.982   2.209  0.0087  0.3266  0.1756
    7CHTO  C101 2603   6.478   1.835   2.326 -0.8819  0.6568 -0.7134
    7CHTO  H188 2604   6.471   1.785   2.423  0.5779 -0.6288 -1.2573
    7CHTO   O68 2605   6.630   1.933   2.326  0.6129  0.1107  0.2695
    7CHTO  H168 2606   6.697   1.878   2.362 -0.8024 -2.7668 -1.3152
    7CHTO   C99 2607   6.493   1.725   2.205 -0.5930  0.7290  0.6011
    7CHTO  H186 2608   6.522   1.774   2.110 -0.2556 -2.1733 -0.8506
    7CHTO   N17 2609   6.609   1.631   2.225  0.8573 -0.8212  0.9873
    7CHTO  H174 2610   6.611   1.546   2.158  1.4049 -1.3971  1.7270
    7CHTO  H175 2611   6.711   1.666   2.231  0.3368  1.0929 -0.6792
    7CHTO   C97 2612   6.358   1.648   2.189 -0.5089 -0.2861 -0.3345
    7CHTO  H184 2613   6.342   1.595   2.284  1.7447  1.4239  1.0473
    7CHTO   O64 2614   6.257   1.745   2.160 -0.0222  0.0308 -0.0235
    7CHTO  C104 2615   6.229   1.832   2.264  0.8920 -0.3342 -0.3026
    7CHTO  H191 2616   6.191   1.780   2.352 -0.5968  0.2928 -0.5494
    7CHTO  C108 2617   6.114   1.921   2.232  0.1422  0.4184  0.7364
    7CHTO   O71 2618   5.990   1.852   2.232 -0.1538 -0.6513 -0.0364
    7CHTO  H171 2619   5.986   1.785   2.166 -0.1149 -0.9835  0.2934
    7CHTO   O62 2620   6.348   1.555   2.075 -0.7076  0.3933  0.2563
    7CHTO   C91 2621   6.254   1.443   2.071 -0.3498 -0.3582  0.0669
    7CHTO  H178 2622   6.283   1.392   1.979 -2.1141 -1.3045  0.0314
    7CHTO   C92 2623   6.122   1.515   2.033 -0.1947 -0.6394  0.5694
    7CHTO  H179 2624   6.107   1.605   2.094  0.8505  0.0987 -0.2647
    7CHTO   O66 2625   6.135   1.556   1.898  0.0263 -0.0263 -0.5963
    7CHTO  H166 2626   6.061   1.604   1.868 -0.7965 -0.6856  0.3400
    7CHTO   C93 2627   5.992   1.426   2.039 -0.1351  0.0782 -0.7194
    7CHTO  H180 2628   6.011   1.354   1.958  0.7821 -0.5772  0.0754
    7CHTO   N16 2629   5.860   1.499   2.014  0.2519 -0.0550 -0.2230
    7CHTO  H172 2630   5.850   1.589   2.073  2.8194 -0.1890  0.4766
    7CHTO  H173 2631   5.778   1.428   2.014 -0.1271  0.3726 -1.3385
    7CHTO   C94 2632   6.005   1.351   2.172  0.5237  0.1407  0.0343
    7CHTO  H181 2633   6.012   1.417   2.258 -2.2450 -0.7093  0.9611
    7CHTO   O61 2634   6.127   1.274   2.173 -0.2157  0.3516 -0.2948
    7CHTO   C95 2635   6.244   1.348   2.194  0.3560 -0.2911 -0.1696
    7CHTO  H182 2636   6.232   1.393   2.292  0.2449 -1.5233  0.3883
    7CHTO  C106 2637   6.370   1.259   2.199 -0.2983  0.1105  0.2057
    7CHTO   O69 2638   6.402   1.193   2.323 -0.5141  0.7057 -0.1718
    7CHTO  H169 2639   6.470   1.235   2.372 -1.0499  1.6528 -0.2405
    7CHTO   O63 2640   5.879   1.257   2.207  1.0286 -0.3337 -1.0504
    7CHTO   C96 2641   5.876   1.208   2.353  0.8245  0.2095  0.5052
    7CHTO  H183 2642   5.924   1.284   2.416  1.3067  2.0009 -1.9340
    7CHTO   C98 2643   5.947   1.067   2.381  0.4609 -0.2742  0.2583
    7CHTO  H185 2644   5.945   1.015   2.285  0.6077  1.1975 -0.5619
    7CHTO   O67 2645   6.087   1.088   2.398 -0.4858  0.7017  0.1411
    7CHTO  H167 2646   6.135   1.011   2.424 -2.3336 -0.8045 -0.7770
    7CHTO  C102 2647   5.881   0.985   2.503 -0.2955  0.2623 -0.2005
    7CHTO  H189 2648   5.921   1.019   2.599  0.2175  0.4203 -0.4714
    7CHTO   N18 2649   5.917   0.837   2.500  0.2601  0.2433  0.1881
    7CHTO  H176 2650   6.025   0.826   2.494  0.2498  0.7379 -1.1589
    7CHTO  H177 2651   5.869   0.784   2.419  1.5657 -2.6760  1.2170
    7CHTO  C105 2652   5.726   1.011   2.517  0.1705  0.7801 -0.2708
    7CHTO  H192 2653   5.680   0.963   2.431  2.3940  0.2859 -1.2400
    7CHTO   O65 2654   5.687   1.147   2.506  0.0345  0.2316 -0.0757
    7CHTO  C100 2655   5.717   1.199   2.379 -0.2949 -0.1992 -0.2405
    7CHTO  H187 2656   5.652   1.158   2.300 -1.0290  0.9104 -0.2238
    7CHTO  C107 2657   5.661   1.346   2.378  0.4683  0.8630  0.3820
    7CHTO   O70 2658   5.529   1.356   2.438  0.3602  0.2468 -0.2639
    7CHTO  H170 2659   5.494   1.443   2.443  1.8835  0.7581  3.5233
    7CHTO   O57 2660   5.671   0.941   2.632 -0.5635  0.6106  0.0413
    7CHTO   C85 2661   5.639   0.988   2.762  0.7476  0.3950  0.6353
    7CHTO  H157 2662   5.672   1.094   2.768 -0.9238  0.7598  4.5396
    7CHTO   C83 2663   5.726   0.917   2.877 -0.4814  0.0700  0.7144
    7CHTO  H155 2664   5.831   0.937   2.857  0.2049 -3.7996 -0.1063
    7CHTO   O56 2665   5.706   0.779   2.845 -0.0706 -0.2893  0.1944
    7CHTO  H135 2666   5.714   0.774   2.752  0.6148 -1.5945  0.3104
    7CHTO   C81 2667   5.692   0.964   3.021  0.0077  0.6402  0.2495
    7CHTO  H153 2668   5.718   1.070   3.027 -1.8953  1.4157 -3.7899
    7CHTO   N14 2669   5.768   0.902   3.128  1.2566  0.1185  0.0133
    7CHTO  H141 2670   5.757   0.796   3.125 -0.6419  0.3045  0.1671
    7CHTO  H142 2671   5.872   0.928   3.123  0.9313  1.4353 -0.2301
    7CHTO   C79 2672   5.538   0.942   3.043  0.4342  0.0252 -0.3378
    7CHTO  H151 2673   5.507   0.981   3.140  1.2587 -1.9375  0.7388
    7CHTO   O52 2674   5.456   1.017   2.941  0.3119  0.1049  0.1311
    7CHTO   C86 2675   5.487   0.968   2.801 -0.1428  0.0285  0.2926
    7CHTO  H158 2676   5.463   0.859   2.799  1.9736 -0.4694  0.7097
    7CHTO   C90 2677   5.385   1.025   2.693  0.5412 -0.1881 -0.0400
    7CHTO   O60 2678   5.408   1.162   2.656 -0.5051  0.0241  0.5696
    7CHTO  H138 2679   5.344   1.222   2.690 -0.7217  0.4440 -0.5528
    7CHTO   O50 2680   5.502   0.797   3.047 -0.0331  0.1468  0.1222
    7CHTO   C73 2681   5.510   0.658   3.087  0.7267  0.5260  0.0758
    7CHTO  H145 2682   5.618   0.638   3.093  0.9145  1.4427 -0.1480
    7CHTO   C74 2683   5.452   0.571   2.969 -1.0640  0.7216 -0.3294
    7CHTO  H146 2684   5.508   0.588   2.876  0.5366  0.6480  0.5959
    7CHTO   O54 2685   5.476   0.435   3.006  0.1996 -0.5202  0.2204
    7CHTO  H133 2686   5.395   0.398   3.034 -1.2868  0.7631 -2.1453
    7CHTO   C75 2687   5.295   0.602   2.957  0.2443  0.6584  0.2555
    7CHTO  H147 2688   5.288   0.699   2.905  0.7771 -0.9498 -2.8958
    7CHTO   N13 2689   5.214   0.517   2.866 -0.1063 -0.1650  0.0434
    7CHTO  H139 2690   5.108   0.538   2.860 -0.2028 -0.3513  0.9237
    7CHTO  H140 2691   5.218   0.415   2.902  0.9286 -0.3032 -0.4411
    7CHTO   C76 2692   5.223   0.605   3.099  0.2800  0.4851 -0.1334
    7CHTO  H148 2693   5.217   0.504   3.138 -2.8950  1.0469  0.9604
    7CHTO   O49 2694   5.296   0.692   3.191 -0.2960  0.6001  0.3377
    7CHTO   C77 2695   5.424   0.642   3.221  0.4414  0.8978  0.7235
    7CHTO  H149 2696   5.429   0.540   3.259  2.1763  1.2411  1.4477
    7CHTO   C88 2697   5.474   0.722   3.345 -0.0425 -0.1721  0.3243
    7CHTO   O58 2698   5.589   0.696   3.378 -0.2008 -0.6051 -0.3120
    7CHTO  H136 2699   5.614   0.759   3.442 -2.4271  1.4120 -1.3634
    7CHTO   O51 2700   5.072   0.684   3.080 -0.8704  0.3520 -0.1814
    7CHTO   C78 2701   5.009   0.688   3.188 -0.0233 -0.5515 -0.6908
    7CHTO  H150 2702   5.080   0.673   3.272 -0.3037 -0.7402 -0.4866
    7CHTO   C80 2703   4.900   0.572   3.185 -0.7466  0.1506 -0.1157
    7CHTO  H152 2704   4.840   0.586   3.093  1.1069  0.2924 -1.3421
    7CHTO   O55 2705   4.958   0.442   3.154 -0.2782  0.6792 -0.0015
    7CHTO  H134 2706   4.990   0.435   3.066 -2.8562  0.7774 -0.9918
    7CHTO   C84 2707   4.822   0.572   3.323  0.0045  0.7793 -0.1455
    7CHTO  H156 2708   4.888   0.544   3.405 -0.8743  0.9948  0.6428
    7CHTO   N15 2709   4.708   0.475   3.323  0.1119 -0.1837 -0.0519
    7CHTO  H143 2710   4.684   0.459   3.426  1.3195 -0.2418  0.2245
    7CHTO  H144 2711   4.741   0.381   3.284  1.0339  0.3631 -0.6123
    7CHTO   C87 2712   4.765   0.707   3.357 -0.0781  0.4192 -0.8705
    7CHTO  H159 2713   4.687   0.727   3.283 -1.4298  0.9791  0.6799
    7CHTO   O53 2714   4.881   0.810   3.333 -0.0040 -0.6178 -0.0663
    7CHTO   C82 2715   4.937   0.817   3.202 -0.1560  0.1584  0.3347
    7CHTO  H154 2716   4.860   0.822   3.125  0.4493 -0.4032 -0.3122
    7CHTO   C89 2717   5.026   0.944   3.191  0.6910 -0.7576 -0.1106
    7CHTO   O59 2718   4.953   1.064   3.202 -0.3724  0.8609 -0.3327
    7CHTO  H137 2719   4.990   1.131   3.256  1.1404 -0.4012  0.2296
    7CHTO   O45 2720   4.709   0.716   3.532 -0.0938 -0.2017 -0.3279
    7CHTO   C67 2721   4.779   0.820   3.601 -0.0671  0.5521 -0.0416
    7CHTO  H124 2722   4.864   0.859   3.545 -0.7310  0.1556 -1.3271
    7CHTO   C65 2723   4.700   0.943   3.643  0.5827 -0.3169  0.9505
    7CHTO  H122 2724   4.603   0.906   3.676  1.2978 -2.0465  1.1850
    7CHTO   O44 2725   4.694   1.015   3.512 -0.0869 -0.3690  0.5392
    7CHTO  H102 2726   4.638   0.964   3.457 -0.0847 -0.4944  0.6534
    7CHTO   C63 2727   4.752   1.024   3.763  0.1097 -0.2484 -0.2528
    7CHTO  H120 2728   4.699   0.985   3.850 -0.7334  0.6061 -0.3747
    7CHTO   N11 2729   4.717   1.168   3.769  0.3053  0.6347  0.4991
    7CHTO  H108 2730   4.749   1.212   3.861 -2.4262  0.6945  1.4607
    7CHTO  H109 2731   4.750   1.222   3.682  1.2842 -2.3134 -1.0168
    7CHTO   C61 2732   4.903   1.002   3.782 -0.3903 -0.2201 -0.2996
    7CHTO  H118 2733   4.936   1.046   3.878  1.0665 -0.3832 -0.7220
    7CHTO   O40 2734   4.933   0.858   3.785  1.0529 -0.7363 -0.1065
    7CHTO   C68 2735   4.843   0.760   3.731 -0.0237  0.3111 -0.2889
    7CHTO  H125 2736   4.771   0.728   3.810  0.9746 -2.9433 -0.6099
    7CHTO   C72 2737   4.929   0.644   3.703 -0.0999  0.0694 -0.0879
    7CHTO   O48 2738   4.846   0.536   3.662 -0.6461  0.4654 -0.4844
    7CHTO  H105 2739   4.893   0.468   3.618  0.4718  0.3804  0.7892
    7CHTO   O38 2740   4.980   1.064   3.675 -0.1812 -0.0407 -0.0307
    7CHTO   C55 2741   5.116   1.110   3.682 -0.9044  0.0994 -0.1006
    7CHTO  H112 2742   5.161   1.073   3.775 -1.6016  3.0233  1.4579
    7CHTO   C56 2743   5.135   1.262   3.675  0.7737 -0.5489  0.1443
    7CHTO  H113 2744   5.085   1.310   3.589  0.8000  1.5133  1.2579
    7CHTO   O42 2745   5.062   1.322   3.783 -0.0090  0.8623 -0.2413
    7CHTO  H100 2746   5.122   1.334   3.855  0.8601  0.3674 -0.8663
    7CHTO   C57 2747   5.289   1.307   3.681  0.4488 -0.7701  0.1257
    7CHTO  H114 2748   5.331   1.276   3.777  2.1880  0.6581 -0.1578
    7CHTO   N10 2749   5.307   1.459   3.679 -0.1447  0.0222  0.6359
    7CHTO  H106 2750   5.220   1.506   3.723 -0.0128 -0.9165  1.9256
    7CHTO  H107 2751   5.395   1.475   3.739  0.7311 -3.5772  0.4041
    7CHTO   C58 2752   5.364   1.229   3.565 -0.0157  0.1149 -0.2688
    7CHTO  H115 2753   5.325   1.265   3.467  1.9436  1.1450 -0.7076
    7CHTO   O37 2754   5.345   1.089   3.580  0.7094 -0.2613 -0.0846
    7CHTO   C59 2755   5.200   1.050   3.564 -0.0906 -0.7685 -0.1875
    7CHTO  H116 2756   5.168   1.089   3.468  0.1001 -1.1228 -0.3944
    7CHTO   C70 2757   5.199   0.896   3.572 -0.3212  0.4311  0.1054
    7CHTO   O46 2758   5.247   0.827   3.690  0.0381 -0.6544 -0.3095
    7CHTO  H103 2759   5.239   0.887   3.762  1.5034  0.8747 -1.3710
    7CHTO   O39 2760   5.514   1.272   3.555 -0.1230 -0.1420 -0.6534
    7CHTO   C60 2761   5.583   1.227   3.436 -0.6269 -0.1881 -0.3088
    7CHTO  H117 2762   5.549   1.125   3.415 -1.2725 -0.2312  0.8892
    7CHTO   C62 2763   5.557   1.332   3.320  0.5903  0.0715 -0.0434
    7CHTO  H119 2764   5.451   1.324   3.288  0.3875 -2.8558  1.2652
    7CHTO   O43 2765   5.578   1.469   3.361  0.4633 -0.3212 -0.1773
    7CHTO  H101 2766   5.657   1.509   3.330 -1.4816  2.6337 -1.5992
    7CHTO   C66 2767   5.640   1.286   3.199 -0.0586 -0.2009  0.5313
    7CHTO  H123 2768   5.613   1.183   3.176 -0.0526 -0.0674 -0.0980
    7CHTO   N12 2769   5.600   1.371   3.082  0.5691  0.1613 -0.2660
    7CHTO  H110 2770   5.670   1.429   3.023 -0.6330  1.0822 -0.8091
    7CHTO  H111 2771   5.524   1.440   3.116  0.3051 -0.1338 -0.2613
    7CHTO   C69 2772   5.791   1.288   3.240 -0.3332 -0.5639  0.0043
    7CHTO  H126 2773   5.816   1.392   3.267  0.8998 -0.3207 -1.9585
    7CHTO   O41 2774   5.816   1.184   3.355 -0.7938 -0.1402 -0.0817
    7CHTO   C64 2775   5.731   1.216   3.474  0.3970  0.2111 -0.3662
    7CHTO  H121 2776   5.767   1.312   3.518  1.4108 -0.1814 -0.3413
    7CHTO   C71 2777   5.761   1.102   3.570  0.1146  0.3501  0.2379
    7CHTO   O47 2778   5.704   0.978   3.530  0.1368  0.0830  0.2812
    7CHTO  H104 2779   5.621   0.972   3.573 -0.1908  0.3425 -0.2997
    7CHTO   O34 2780   5.875   1.239   3.113 -0.3994  0.0314 -0.3549
    7CHTO   C49 2781   5.972   1.315   3.040  0.2753 -0.2926  0.0517
    7CHTO   H91 2782   5.932   1.416   3.031  3.8541  1.6050  3.5692
    7CHTO   C47 2783   5.992   1.264   2.899 -0.0682  0.6105  0.0899
    7CHTO   H89 2784   6.057   1.335   2.843 -1.9916  2.2410 -0.1431
    7CHTO   O33 2785   5.868   1.259   2.829  0.0344  0.2141  0.0664
    7CHTO   H70 2786   5.877   1.229   2.740 -0.9981 -1.8977  0.6404
    7CHTO   C45 2787   6.072   1.126   2.898  0.4940  0.3476 -0.9192
    7CHTO   H87 2788   6.003   1.041   2.886  1.5798 -0.5513 -0.8631
    7CHTO    N8 2789   6.161   1.118   2.778 -0.0398 -0.7909  0.6778
    7CHTO   H75 2790   6.111   1.064   2.698  1.4994 -0.3679 -0.5896
    7CHTO   H76 2791   6.180   1.220   2.746  0.4836 -1.7964 -2.3750
    7CHTO   C43 2792   6.151   1.099   3.036 -1.2254 -0.4421  0.6835
    7CHTO   H85 2793   6.076   1.064   3.107 -2.8769  4.2167  1.3933
    7CHTO   O29 2794   6.203   1.222   3.075 -0.4599 -0.3003  0.6517
    7CHTO   C50 2795   6.109   1.327   3.115  0.0974 -0.1068 -0.1942
    7CHTO   H92 2796   6.103   1.322   3.225 -0.5152  1.5781 -0.1458
    7CHTO   C54 2797   6.181   1.460   3.093 -0.3881  0.5141  0.5873
    7CHTO   O36 2798   6.096   1.568   3.127  0.2647  0.3818 -0.6292
    7CHTO   H72 2799   6.046   1.555   3.205  0.4928  2.1535 -0.1791
    7CHTO   O27 2800   6.248   0.991   3.031  0.1248  0.1080  0.1897
    7CHTO   C37 2801   6.346   0.897   3.069 -0.1046 -0.5546  0.0352
    7CHTO   H79 2802   6.405   0.933   3.155  0.9323 -0.3553 -0.7428
    7CHTO   C38 2803   6.284   0.766   3.103  0.2022  0.0931  0.6743
    7CHTO   H80 2804   6.204   0.742   3.032  0.3500 -0.3276  0.6535
    7CHTO   O31 2805   6.232   0.785   3.236 -0.8130 -0.1909  0.0208
    7CHTO   H68 2806   6.302   0.776   3.298  0.5707 -0.2080 -1.5063
    7CHTO   C39 2807   6.383   0.638   3.107 -0.6835 -0.2910 -0.1981
    7CHTO   H81 2808   6.457   0.654   3.185 -0.0887 -1.1417 -0.5855
    7CHTO    N7 2809   6.306   0.512   3.130  0.0275 -0.0180 -0.0400
    7CHTO   H73 2810   6.230   0.498   3.055 -0.0381  0.4050 -0.0560
    7CHTO   H74 2811   6.368   0.424   3.124 -0.0080 -0.0165 -0.4365
    7CHTO   C40 2812   6.464   0.639   2.973 -0.0487 -0.4296 -0.4250
    7CHTO   H82 2813   6.402   0.616   2.887 -0.8314  0.1035 -0.0122
    7CHTO   O26 2814   6.537   0.763   2.959  0.2457  0.3865 -0.0181
    7CHTO   C41 2815   6.447   0.879   2.946  0.2469  0.2209 -0.2769
    7CHTO   H83 2816   6.391   0.878   2.851  0.3477 -0.3458 -0.3326
    7CHTO   C52 2817   6.532   1.008   2.923 -0.2786 -0.8031 -0.1964
    7CHTO   O35 2818   6.615   0.995   2.817 -0.1010  0.2802  0.0825
    7CHTO   H71 2819   6.676   1.066   2.810 -0.6250  0.5213 -2.2814
    7CHTO   O28 2820   6.546   0.523   2.974 -0.4148 -0.4154  0.4624
    7CHTO   C42 2821   6.686   0.493   3.022  0.1836  0.6092  0.0655
    7CHTO   H84 2822   6.665   0.441   3.116 -3.3069  3.2421  0.8423
    7CHTO   C44 2823   6.772   0.617   3.070 -0.2831  0.2790  1.1770
    7CHTO   H86 2824   6.775   0.692   2.991 -2.3092 -1.3083 -0.4646
    7CHTO   O32 2825   6.707   0.688   3.180  0.2519 -0.3303  0.2021
    7CHTO   H69 2826   6.613   0.683   3.186  0.3271  0.1523  2.8055
    7CHTO   C48 2827   6.923   0.579   3.108 -0.7902  0.1553 -0.0258
    7CHTO   H90 2828   6.929   0.518   3.198 -1.9410  1.7148  1.1300
    7CHTO    N9 2829   7.008   0.702   3.141  0.4480 -0.0690 -0.0082
    7CHTO   H77 2830   7.023   0.690   3.248 -2.1685 -0.7450  0.3180
    7CHTO   H78 2831   7.097   0.702   3.080  0.9285 -1.3230  0.6667
    7CHTO   C51 2832   6.983   0.503   2.980 -0.6851  0.0917 -0.2715
    7CHTO   H93 2833   6.976   0.569   2.894 -0.6565  2.6350  1.6288
    7CHTO   O30 2834   6.906   0.386   2.964 -0.3258 -0.5384 -0.2491
    7CHTO   C46 2835   6.764   0.399   2.923  0.1881  0.3854  0.1186
    7CHTO   H88 2836   6.760   0.436   2.821  3.1040 -0.1109 -0.2337
    7CHTO   C53 2837   6.697   0.258   2.928 -0.2475  0.1083 -0.4566
    7CHTO   O72 2838   6.748   0.170   2.828 -0.3885  0.4226  0.1133
    7CHTO  H199 2839   6.745   0.214   2.744 -0.3898  2.1073  0.9713
    7CHTO   O22 2840   7.120   0.450   3.004  0.5350 -0.3119  0.3163
    7CHTO   C31 2841   7.206   0.412   2.889 -0.0007  0.0547 -0.5186
    7CHTO   H59 2842   7.278   0.337   2.928  2.0972  1.6990 -1.1329
    7CHTO   C29 2843   7.145   0.349   2.754 -0.2644 -0.2119 -0.3710
    7CHTO   H57 2844   7.074   0.421   2.711  0.0773 -1.0828 -2.4625
    7CHTO   O21 2845   7.062   0.236   2.792 -0.3418  0.0979  0.3491
    7CHTO   H37 2846   6.977   0.258   2.825  0.4670 -0.2819  2.8406
    7CHTO   C27 2847   7.259   0.314   2.654  0.0339  0.1555 -0.5374
    7CHTO   H55 2848   7.325   0.238   2.698 -1.1739  0.2096  1.4120
    7CHTO    N5 2849   7.194   0.256   2.529  0.1847 -0.1470 -0.2309
    7CHTO   H43 2850   7.222   0.299   2.433  1.6878 -1.1262 -0.2479
    7CHTO   H44 2851   7.086   0.255   2.527  0.1815  0.4720 -0.4233
    7CHTO   C25 2852   7.337   0.442   2.630 -0.1742  0.5620  0.4197
    7CHTO   H53 2853   7.262   0.510   2.588 -1.0135 -1.3598 -1.2881
    7CHTO   O17 2854   7.404   0.479   2.761  0.4272 -0.6679 -0.0017
    7CHTO   C32 2855   7.304   0.533   2.852  0.3928 -0.3830  1.0677
    7CHTO   H60 2856   7.251   0.608   2.794 -0.8346 -0.8349  1.5955
    7CHTO   C36 2857   7.365   0.600   2.986  0.9184 -0.4301  0.6533
    7CHTO   O25 2858   7.489   0.664   2.955 -0.8224 -0.0610  0.0446
    7CHTO   H40 2859   7.481   0.707   2.872  0.0437  0.1384  0.0597
    7CHTO   O15 2860   7.456   0.428   2.528  0.5212  0.0478 -0.7791
    7CHTO   C19 2861   7.452   0.515   2.414  0.2368  0.2317 -0.2081
    7CHTO   H47 2862   7.550   0.498   2.366 -0.7116 -0.2231 -2.0213
    7CHTO   C20 2863   7.346   0.491   2.309  0.5611  0.6432  0.0670
    7CHTO   H48 2864   7.247   0.493   2.357  1.1628 -2.7720  1.5948
    7CHTO   O19 2865   7.365   0.360   2.254  0.1127  0.3446 -0.3434
    7CHTO   H35 2866   7.337   0.350   2.165  3.0355 -0.2620 -1.2548
    7CHTO   C21 2867   7.348   0.597   2.184  0.1499 -0.4189 -0.1828
    7CHTO   H49 2868   7.430   0.570   2.119  0.3998 -1.7126  0.6477
    7CHTO    N4 2869   7.224   0.578   2.101 -0.2471 -0.4860 -0.0951
    7CHTO   H41 2870   7.238   0.638   2.012  1.0126 -0.4782  0.0895
    7CHTO   H42 2871   7.216   0.476   2.067 -2.4391 -0.2455 -0.3745
    7CHTO   C22 2872   7.354   0.747   2.246 -0.9420  0.4614 -0.4925
    7CHTO   H50 2873   7.267   0.757   2.311  1.3847 -0.5542  2.9232
    7CHTO   O14 2874   7.467   0.750   2.341  0.4335  0.2539  0.1649
    7CHTO   C23 2875   7.460   0.664   2.454  0.7919  0.0520  0.1621
    7CHTO   H51 2876   7.374   0.693   2.516  1.8740  0.6703  1.4046
    7CHTO   C34 2877   7.585   0.698   2.539  0.2017 -0.1445  0.4338
    7CHTO   O23 2878   7.631   0.835   2.527  0.5488  0.3860 -0.4560
    7CHTO   H38 2879   7.559   0.891   2.549 -0.3757 -0.8073 -0.3694
    7CHTO   O16 2880   7.357   0.846   2.145 -0.5800  0.1108  0.2819
    7CHTO   C24 2881   7.354   1.006   2.200 -0.3921  0.8488  0.4007
    7CHTO   H52 2882   7.381   1.010   2.306 -1.0645 -3.6723  0.8476
    7CHTO   C26 2883   7.218   1.070   2.179 -0.3985  0.1391 -0.3849
    7CHTO   H54 2884   7.195   1.060   2.071 -0.3965  0.6725 -0.4356
    7CHTO   O20 2885   7.124   0.991   2.254 -0.3892 -0.0401  0.4902
    7CHTO   H36 2886   7.057   0.981   2.188  0.8564 -3.4341 -0.4057
    7CHTO   C30 2887   7.224   1.220   2.216  0.8111 -0.8711  0.6574
    7CHTO   H58 2888   7.259   1.237   2.319 -2.9817 -0.5728  1.9602
    7CHTO    N6 2889   7.086   1.281   2.196 -0.7015 -0.1432  0.0909
    7CHTO   H45 2890   7.065   1.357   2.270 -1.8407 -1.1121  0.7737
    7CHTO   H46 2891   7.003   1.212   2.192  0.2501 -1.2134 -1.9970
    7CHTO   C33 2892   7.343   1.288   2.138 -0.4402  0.0987  0.4652
    7CHTO   H61 2893   7.327   1.298   2.030 -3.6598  1.0754  0.9807
    7CHTO   O18 2894   7.460   1.210   2.164 -0.2430 -0.3109 -0.3380
    7CHTO   C28 2895   7.459   1.076   2.113  1.1244  1.0073  0.1272
    7CHTO   H56 2896   7.427   1.066   2.010 -1.3209  0.3699  0.9186
    7CHTO   C35 2897   7.597   1.017   2.131 -0.5110  0.4484  0.0066
    7CHTO   O24 2898   7.685   1.080   2.041  0.3608  0.2493  0.2711
    7CHTO   H39 2899   7.727   1.150   2.087  2.4859 -0.4854 -0.4796
    7CHTO    O9 2900   7.359   1.424   2.182  0.5386 -0.6735  0.5929
    7CHTO   C13 2901   7.294   1.549   2.108  0.6092  0.0222 -0.0273
    7CHTO   H26 2902   7.202   1.519   2.054 -0.6820  3.2485  0.3112
    7CHTO   C11 2903   7.405   1.609   2.013  0.2310 -0.1564 -0.0916
    7CHTO   H24 2904   7.413   1.547   1.923  0.9915 -1.6973  1.0039
    7CHTO    O8 2905   7.532   1.595   2.085  0.7504 -0.4828 -0.2801
    7CHTO    H3 2906   7.590   1.667   2.069 -0.2949  0.5782  0.5641
    7CHTO    C9 2907   7.369   1.753   1.970  0.0304 -0.0252 -0.1310
    7CHTO   H22 2908   7.273   1.750   1.916 -0.4574  0.3428  0.6896
    7CHTO    N2 2909   7.455   1.814   1.865 -0.0308  0.4621  0.1000
    7CHTO   H10 2910   7.553   1.771   1.853 -0.3690 -0.4419  0.5865
    7CHTO   H11 2911   7.407   1.811   1.768 -3.1178 -0.3012  1.6030
    7CHTO    C7 2912   7.347   1.837   2.096 -0.4064 -0.0873 -0.2555
    7CHTO   H20 2913   7.321   1.938   2.057 -2.9866 -1.2625 -1.6715
    7CHTO    O4 2914   7.242   1.788   2.182  0.7594 -0.8321  0.4864
    7CHTO   C14 2915   7.250   1.649   2.228  0.1396  0.1083  0.8917
    7CHTO   H27 2916   7.148   1.617   2.259 -0.1441 -2.6413 -2.6064
    7CHTO   C18 2917   7.342   1.639   2.355 -0.2661  0.6279  0.0220
    7CHTO   O13 2918   7.315   1.722   2.466 -0.4432 -0.2706 -0.0674
    7CHTO    H7 2919   7.387   1.714   2.525 -0.5345  2.4370  0.4607
    7CHTO    O2 2920   7.478   1.860   2.192  0.1347 -0.2544  1.0471
    7CHTO    C1 2921   7.533   1.994   2.193  0.3944  0.6728 -0.2932
    7CHTO   H14 2922   7.477   2.058   2.121  0.1835 -1.3830 -1.9869
    7CHTO    C2 2923   7.687   2.001   2.159 -0.1363  0.1873 -0.4151
    7CHTO   H15 2924   7.723   1.924   2.229 -0.8989 -0.2568 -0.5022
    7CHTO    O6 2925   7.707   1.957   2.023  0.0473 -0.0147  0.0293
    7CHTO    H1 2926   7.645   1.995   1.963 -0.5394 -0.2445  0.4869
    7CHTO    C3 2927   7.757   2.138   2.194  0.2362  0.2813  0.1566
    7CHTO   H16 2928   7.725   2.220   2.128  0.8033  2.7933  2.9023
    7CHTO    N1 2929   7.909   2.127   2.171  0.1101  0.1883  0.1319
    7CHTO    H8 2930   7.951   2.185   2.252  0.3434 -1.2091  1.0483
    7CHTO    H9 2931   7.936   2.164   2.074  0.6360  0.3938  0.3552
    7CHTO    C4 2932   7.722   2.191   2.342  0.2432 -0.0587 -0.1202
    7CHTO   H17 2933   7.773   2.130   2.416 -1.5510  1.2536  2.2445
    7CHTO    O1 2934   7.579   2.183   2.354  0.2356 -0.0621 -0.0897
    7CHTO    C5 2935   7.521   2.049   2.337 -0.2766 -0.4983 -0.4355
    7CHTO   H18 2936   7.572   1.981   2.404  1.0807  0.8511 -0.0775
    7CHTO   C16 2937   7.374   2.058   2.390 -0.0608  0.5632 -0.1187
    7CHTO   O11 2938   7.375   2.092   2.529 -0.5468  0.3509  0.3585
    7CHTO    H5 2939   7.401   2.181   2.546  0.1686  0.3005 -0.4497
    7CHTO    O3 2940   7.751   2.337   2.352 -0.1959  0.5039 -0.7604
    7CHTO    C6 2941   7.868   2.371   2.422 -0.5797  0.3257  0.5847
    7CHTO   H19 2942   7.935   2.288   2.444  0.8072  0.9814 -1.0133
    7CHTO    C8 2943   7.951   2.473   2.337 -0.1934 -0.9427 -0.7180
    7CHTO   H21 2944   7.896   2.567   2.333  2.6081  0.7694 -0.2230
    7CHTO    O7 2945   7.968   2.419   2.203  0.3483 -0.7948  0.1327
    7CHTO    H2 2946   7.994   2.490   2.148  3.0013 -0.9779  1.0940
    7CHTO   C12 2947   8.086   2.503   2.418 -0.8193  0.7799  0.2409
    7CHTO   H25 2948   8.146   2.410   2.412 -1.8178  0.2541 -2.1146
    7CHTO    N3 2949   8.162   2.601   2.335  0.1260 -0.4676  0.1025
    7CHTO   H12 2950   8.180   2.561   2.237 -1.1591 -1.1602  0.1364
    7CHTO   H13 2951   8.252   2.630   2.387  0.3386  2.0169 -1.5308
    7CHTO   C15 2952   8.054   2.542   2.566  0.4030 -0.0347 -0.1636
    7CHTO   H28 2953   8.002   2.638   2.577  0.2773 -0.4936  3.8756
    7CHTO   O10 2954   8.156   2.532   2.652 -0.0326  0.1456  0.5647
    7CHTO    H4 2955   8.221   2.587   2.612  0.9655 -2.7051 -1.9518
    7CHTO    O5 2956   7.955   2.453   2.619 -0.6245 -0.0914 -0.2439
    7CHTO   C10 2957   7.833   2.442   2.552  0.7817 -0.3674 -0.3717
    7CHTO   H23 2958   7.800   2.544   2.533 -0.4829 -1.1598 -2.5325
    7CHTO   C17 2959   7.745   2.354   2.641 -0.0497  0.2756  0.0113
    7CHTO   O12 2960   7.699   2.418   2.762  0.4240  0.4829 -0.4719
    7CHTO    H6 2961   7.765   2.483   2.782 -0.6503  1.3015  0.5333
    8CHTO  H203 2962   7.684   8.514   1.229 -0.5375  0.3708  2.7271
    8CHTO   O82 2963   7.596   8.510   1.197  0.3259  0.2007  0.2983
    8CHTO  C123 2964   7.533   8.411   1.275  0.2460  0.3232  0.6287
    8CHTO  H227 2965   7.601   8.325   1.284 -0.2484 -0.0258  1.0757
    8CHTO   O77 2966   7.511   8.466   1.405 -0.0282  0.1931 -0.3542
    8CHTO  C118 2967   7.450   8.389   1.510 -0.4706  0.4881  0.8477
    8CHTO  H222 2968   7.499   8.292   1.528 -1.2176  0.1870  1.2876
    8CHTO  C125 2969   7.455   8.472   1.637 -0.0475 -0.2218  0.2728
    8CHTO   O84 2970   7.391   8.598   1.613 -0.4591  0.4798  0.5009
    8CHTO  H205 2971   7.404   8.659   1.683 -1.4282 -0.9726  1.9896
    8CHTO  C114 2972   7.310   8.348   1.458  0.1227  0.1787 -0.3440
    8CHTO  H218 2973   7.255   8.434   1.421  0.7518 -0.5979 -3.1475
    8CHTO  C116 2974   7.317   8.273   1.324 -0.3747 -0.2295  0.2209
    8CHTO  H220 2975   7.359   8.172   1.343 -1.6983 -0.5192  1.7959
    8CHTO   O79 2976   7.180   8.247   1.273 -0.4311  0.6417 -0.4937
    8CHTO  H201 2977   7.143   8.324   1.236 -1.4988 -1.2246 -3.5416
    8CHTO  C120 2978   7.393   8.366   1.225 -0.2396 -0.2127  0.2440
    8CHTO  H224 2979   7.331   8.458   1.225 -1.8689 -1.2745 -1.2753
    8CHTO   N21 2980   7.413   8.304   1.093  0.1496  0.3479 -0.0387
    8CHTO  H211 2981   7.456   8.206   1.103 -1.8804 -0.5031  0.5669
    8CHTO  H212 2982   7.314   8.276   1.058 -2.1865  1.8838  4.9137
    8CHTO   O75 2983   7.243   8.284   1.564  0.9790 -0.7631 -0.5216
    8CHTO  C112 2984   7.092   8.343   1.569  0.1667 -0.0365  0.0105
    8CHTO  H216 2985   7.049   8.350   1.468 -0.9842 -1.3279  0.4025
    8CHTO   O73 2986   7.095   8.472   1.635 -0.3489 -0.0523 -0.0495
    8CHTO  C113 2987   6.966   8.540   1.627  0.2515  0.4005  0.5790
    8CHTO  H217 2988   6.942   8.551   1.519 -1.0420 -0.7018  0.7409
    8CHTO  C124 2989   6.966   8.677   1.691 -0.4411 -0.5904 -0.4335
    8CHTO   O83 2990   7.063   8.763   1.647 -0.4762 -0.8743  0.7114
    8CHTO  H204 2991   7.148   8.727   1.635  0.4741  0.9773  1.6838
    8CHTO  C109 2992   6.864   8.448   1.695  0.4524 -0.3296 -0.3671
    8CHTO  H213 2993   6.895   8.437   1.799  0.8306 -1.5219 -0.6043
    8CHTO  C110 2994   6.856   8.310   1.637  0.5028 -0.1673  0.9411
    8CHTO  H214 2995   6.835   8.316   1.530 -0.6526  1.8325  1.2443
    8CHTO   O78 2996   6.758   8.242   1.711 -0.1050  0.5355 -0.4448
    8CHTO  H200 2997   6.744   8.162   1.665  1.1053  1.0269 -1.7037
    8CHTO  C111 2998   6.995   8.251   1.648  0.0077 -0.1042 -0.2631
    8CHTO  H215 2999   7.026   8.250   1.754  0.0557  1.4143 -0.2620
    8CHTO   N19 3000   7.002   8.106   1.598 -0.1960  0.5228  0.6620
    8CHTO  H207 3001   7.106   8.078   1.599 -0.4539 -0.9057 -3.2881
    8CHTO  H208 3002   6.955   8.037   1.667 -2.3673 -0.2973 -1.5666
    8CHTO   O74 3003   6.733   8.517   1.690  0.0816  0.5936 -0.0498
    8CHTO  C115 3004   6.643   8.534   1.543  0.7425  0.0280 -0.5200
    8CHTO  H219 3005   6.668   8.455   1.472 -0.0716 -0.2662 -0.4793
    8CHTO   O76 3006   6.481   8.533   1.561  0.2612  0.0986 -0.9632
    8CHTO  C122 3007   6.441   8.636   1.656  0.1589  0.1536 -0.0001
    8CHTO  H226 3008   6.473   8.607   1.757 -1.8871  0.3979  0.7523
    8CHTO  C126 3009   6.284   8.649   1.661 -0.4231  0.5110  0.1703
    8CHTO   O85 3010   6.228   8.652   1.533 -0.2968 -0.7328  0.3886
    8CHTO  H206 3011   6.142   8.689   1.533 -1.0081 -2.3687  1.1701
    8CHTO  C121 3012   6.505   8.782   1.624  0.0672  0.4981 -0.3746
    8CHTO  H225 3013   6.428   8.862   1.627  1.4024  1.8881 -2.0148
    8CHTO   O81 3014   6.600   8.813   1.725  0.2124 -0.1278  0.7556
    8CHTO  H202 3015   6.677   8.762   1.708  1.4799  1.6286  1.1499
    8CHTO  C119 3016   6.567   8.785   1.482 -0.7560 -0.9588 -0.3378
    8CHTO  H223 3017   6.485   8.766   1.413 -0.8355  2.5662 -1.2876
    8CHTO  C117 3018   6.677   8.668   1.474 -0.1796 -0.0068  0.4944
    8CHTO  H221 3019   6.776   8.692   1.514  0.5030  2.0715 -2.2569
    8CHTO   N20 3020   6.704   8.654   1.324 -0.0434 -0.4705 -0.4292
    8CHTO  H209 3021   6.790   8.706   1.283  1.3787 -3.1730 -1.0524
    8CHTO  H210 3022   6.617   8.684   1.268 -1.1656  2.2216  2.6293
    8CHTO   O80 3023   6.617   8.941   1.430  0.0971  0.3962 -0.2138
    8CHTO  C103 3024   6.536   9.040   1.416 -0.0537 -0.2284 -0.7928
    8CHTO  H190 3025   6.434   9.017   1.446  0.3001 -0.3902  0.3096
    8CHTO  C101 3026   6.589   9.161   1.500  0.7145 -0.3265 -0.3849
    8CHTO  H188 3027   6.697   9.175   1.496  0.7367 -0.2361  0.4648
    8CHTO   O68 3028   6.540   9.130   1.662  0.0562  0.4069  0.2141
    8CHTO  H168 3029   6.450   9.103   1.657  0.8381 -1.9560 -1.9946
    8CHTO   C99 3030   6.534   9.299   1.447  0.2860 -0.2157  0.0796
    8CHTO  H186 3031   6.423   9.297   1.444  0.3294 -2.5033 -0.8246
    8CHTO   N17 3032   6.582   9.412   1.534 -0.6332  0.7188 -0.1062
    8CHTO  H174 3033   6.671   9.389   1.590  0.1565  1.0961 -1.1992
    8CHTO  H175 3034   6.497   9.441   1.595 -1.7128 -1.6863 -0.4292
    8CHTO   C97 3035   6.573   9.313   1.296 -0.6739  0.2582 -0.4389
    8CHTO  H184 3036   6.680   9.290   1.287 -0.6477  0.0529  0.3862
    8CHTO   O64 3037   6.491   9.210   1.232  0.4129 -0.2135 -0.2313
    8CHTO  C104 3038   6.535   9.074   1.258  0.6168  0.2735 -0.2605
    8CHTO  H191 3039   6.635   9.060   1.216  1.1648  0.5376  0.9197
    8CHTO  C108 3040   6.437   8.974   1.185  0.2876  0.0976 -0.1782
    8CHTO   O71 3041   6.296   8.979   1.204 -0.0397 -0.2541 -0.4015
    8CHTO  H171 3042   6.263   8.917   1.142 -0.0134  0.6061 -1.2966
    8CHTO   O62 3043   6.522   9.436   1.236 -0.1119 -0.4349  0.4808
    8CHTO   C91 3044   6.613   9.502   1.147 -0.4864  0.8564  0.3797
    8CHTO  H178 3045   6.717   9.485   1.176 -0.1922  0.0844 -1.0945
    8CHTO   C92 3046   6.581   9.649   1.146 -0.4938 -0.6036  0.0639
    8CHTO  H179 3047   6.475   9.662   1.120 -0.3237 -1.9023 -1.3379
    8CHTO   O66 3048   6.604   9.693   1.285 -0.1928  0.2532  0.5175
    8CHTO  H166 3049   6.570   9.778   1.304  1.9628  0.8283  1.9511
    8CHTO   C93 3050   6.673   9.733   1.052  0.2974 -0.2995 -0.6718
    8CHTO  H180 3051   6.777   9.737   1.088  0.7300  1.7654 -2.0890
    8CHTO   N16 3052   6.632   9.875   1.051 -0.1533 -0.1034  0.1042
    8CHTO  H172 3053   6.536   9.888   1.003 -0.4953 -3.1756 -0.1621
    8CHTO  H173 3054   6.714   9.932   1.012 -0.1703  1.5679  2.4156
    8CHTO   C94 3055   6.676   9.674   0.905  0.3098 -0.7549 -0.3767
    8CHTO  H181 3056   6.577   9.683   0.860  0.2671 -1.0349 -0.3356
    8CHTO   O61 3057   6.708   9.534   0.916 -0.2860 -0.4088  0.4276
    8CHTO   C95 3058   6.611   9.459   0.991  0.0453  0.5209  0.5506
    8CHTO  H182 3059   6.507   9.470   0.958  0.4712  0.1319 -0.9308
    8CHTO  C106 3060   6.646   9.309   0.973 -0.5710  0.4226 -0.3825
    8CHTO   O69 3061   6.649   9.260   0.844 -0.6418 -0.2550  0.3464
    8CHTO  H169 3062   6.592   9.306   0.786  0.8388  0.3255 -0.6831
    8CHTO   O63 3063   6.784   9.756   0.806  0.3794  0.1059 -0.4869
    8CHTO   C96 3064   6.747   9.747   0.661 -0.5592 -0.0445  0.9094
    8CHTO  H183 3065   6.639   9.762   0.661 -0.4242  1.0923  2.6700
    8CHTO   C98 3066   6.799   9.622   0.588  0.0692 -0.3879  0.5129
    8CHTO  H185 3067   6.909   9.620   0.596  0.0688 -0.0355  0.5949
    8CHTO   O67 3068   6.751   9.507   0.661 -0.2222  0.3407 -0.0318
    8CHTO  H167 3069   6.768   9.428   0.614 -2.0100 -1.4636  2.2314
    8CHTO  C102 3070   6.751   9.620   0.431 -0.2240 -0.0710  0.2593
    8CHTO  H189 3071   6.656   9.565   0.437 -1.6816  2.5600  3.4292
    8CHTO   N18 3072   6.836   9.545   0.339 -0.3935 -0.2342 -0.9307
    8CHTO  H176 3073   6.817   9.581   0.239 -1.8296  1.3332 -0.1439
    8CHTO  H177 3074   6.801   9.443   0.331 -1.1839 -0.0994  0.6562
    8CHTO  C105 3075   6.718   9.767   0.386  0.7851  0.2462  0.5801
    8CHTO  H192 3076   6.750   9.782   0.282  0.0202 -1.5139  0.0658
    8CHTO   O65 3077   6.786   9.875   0.459 -0.6877 -0.7159 -0.0816
    8CHTO  C100 3078   6.802   9.876   0.598 -0.4015  0.2446  0.5848
    8CHTO  H187 3079   6.909   9.867   0.621 -0.1610 -2.4602 -1.3386
    8CHTO  C107 3080   6.752  10.010   0.664  0.4911 -0.5314 -0.1174
    8CHTO   O70 3081   6.610  10.042   0.661 -0.5805  0.6040 -0.3423
    8CHTO  H170 3082   6.586  10.088   0.582  0.1691  0.8627 -0.4268
    8CHTO   O57 3083   6.560   9.790   0.398  0.0239  0.4703 -0.2425
    8CHTO   C85 3084   6.493   9.873   0.303 -0.7425 -0.4626  0.0651
    8CHTO  H157 3085   6.561   9.930   0.236 -1.5587  1.2044  0.6172
    8CHTO   C83 3086   6.423   9.987   0.381  0.1988  0.6797  0.0492
    8CHTO  H155 3087   6.499  10.040   0.437 -0.6333 -0.5392  2.4056
    8CHTO   O56 3088   6.336   9.923   0.478 -0.3003 -0.0745 -0.6627
    8CHTO  H135 3089   6.254   9.910   0.433 -0.9694  0.3769  0.4096
    8CHTO   C81 3090   6.358  10.085   0.281 -0.3762  1.0334 -0.2598
    8CHTO  H153 3091   6.433  10.122   0.212  0.0424 -1.0623 -0.9593
    8CHTO   N14 3092   6.308  10.205   0.354 -0.0370 -0.2437  0.2938
    8CHTO  H141 3093   6.372  10.286   0.326 -2.3541  1.0262 -1.5305
    8CHTO  H142 3094   6.207  10.237   0.336 -0.5048 -0.4466  2.4097
    8CHTO   C79 3095   6.243  10.016   0.198 -0.3468 -0.2207  1.6032
    8CHTO  H151 3096   6.216  10.086   0.118  1.9132  0.4230  1.3709
    8CHTO   O52 3097   6.295   9.894   0.130  0.2622 -0.0538  0.9890
    8CHTO   C86 3098   6.371   9.802   0.218  0.1657 -0.0919  0.4247
    8CHTO  H158 3099   6.302   9.750   0.287 -1.6110 -0.7322 -1.7733
    8CHTO   C90 3100   6.424   9.697   0.124 -0.4015 -0.6180  0.6275
    8CHTO   O60 3101   6.316   9.622   0.058 -0.5496 -0.4948  0.0414
    8CHTO  H138 3102   6.357   9.562  -0.000 -0.6726 -1.5956  1.0769
    8CHTO   O50 3103   6.135   9.976   0.286 -0.8741  0.0635 -0.9075
    8CHTO   C73 3104   5.994   9.940   0.264  0.2454 -0.1094  0.2225
    8CHTO  H145 3105   5.979   9.868   0.182 -0.2546 -0.2648  0.4496
    8CHTO   C74 3106   5.909  10.069   0.262  0.5785  0.4941  0.0883
    8CHTO  H146 3107   5.939  10.121   0.170  1.1831 -0.0781 -0.0403
    8CHTO   O54 3108   5.773  10.037   0.245 -0.2125  0.1751 -0.1631
    8CHTO  H133 3109   5.720  10.109   0.218 -0.6795 -0.4574 -0.9368
    8CHTO   C75 3110   5.926  10.156   0.386 -0.2617 -0.9128  0.1046
    8CHTO  H147 3111   6.028  10.197   0.382 -0.9200  0.5271 -2.3748
    8CHTO   N13 3112   5.848  10.281   0.385 -0.3623 -0.0970 -0.2799
    8CHTO  H139 3113   5.885  10.335   0.470  1.3590 -1.3634 -0.2006
    8CHTO  H140 3114   5.873  10.339   0.298 -1.8797  1.2584  0.1632
    8CHTO   C76 3115   5.910  10.070   0.518  0.1620  0.8361 -0.2461
    8CHTO  H148 3116   5.803  10.058   0.535  0.0563  0.0291 -1.4859
    8CHTO   O49 3117   5.979   9.937   0.503 -0.3886  0.2860 -0.2232
    8CHTO   C77 3118   5.944   9.861   0.386  0.9653 -0.0134  0.0170
    8CHTO  H149 3119   5.836   9.855   0.379  0.6636  3.2412  0.8766
    8CHTO   C88 3120   6.006   9.731   0.410  0.8936  0.2033 -0.4257
    8CHTO   O58 3121   5.993   9.622   0.318 -0.1824 -0.2241 -0.0749
    8CHTO  H136 3122   6.060   9.641   0.255 -0.5613 -0.2186 -0.4800
    8CHTO   O51 3123   5.975  10.130   0.642 -0.3714 -0.4049 -0.1546
    8CHTO   C78 3124   5.975  10.062   0.782 -0.0023 -0.4845  0.3353
    8CHTO  H150 3125   5.974   9.952   0.768  0.5433 -0.7539  2.2473
    8CHTO   C80 3126   5.853  10.098   0.865  0.2823  0.1254  0.4652
    8CHTO  H152 3127   5.845  10.209   0.873 -1.1653  0.2039 -1.6214
    8CHTO   O55 3128   5.732  10.052   0.800  0.3510  0.0251 -0.2460
    8CHTO  H134 3129   5.661  10.066   0.859  1.2579 -3.9002  1.9609
    8CHTO   C84 3130   5.861  10.041   1.015 -0.1774 -0.3185 -0.4116
    8CHTO  H156 3131   5.857   9.932   1.017 -1.1590 -0.2541  1.6033
    8CHTO   N15 3132   5.744  10.099   1.099 -0.3151 -0.0140  0.0754
    8CHTO  H143 3133   5.644  10.076   1.067 -0.2099 -0.1439 -0.1603
    8CHTO  H144 3134   5.757  10.089   1.205 -0.3417 -1.0711 -0.0184
    8CHTO   C87 3135   5.997  10.085   1.074  0.0472 -0.1205 -0.5360
    8CHTO  H159 3136   6.013  10.191   1.096 -0.9406 -0.0554 -0.0905
    8CHTO   O53 3137   6.111  10.039   0.987  0.5474  0.0405  0.7870
    8CHTO   C82 3138   6.102  10.096   0.856  0.3267 -0.2987  0.3153
    8CHTO  H154 3139   6.111  10.204   0.863 -1.6821 -0.2138  2.1576
    8CHTO   C89 3140   6.226  10.042   0.776 -0.2496 -0.1767 -0.8260
    8CHTO   O59 3141   6.352  10.103   0.808 -0.1192  0.3856  0.3065
    8CHTO  H137 3142   6.389  10.063   0.884  0.0291  0.4122  0.2479
    8CHTO   O45 3143   6.012   9.987   1.234  0.0050  0.4969 -0.5718
    8CHTO   C67 3144   6.048   9.850   1.220  0.2982  0.4346 -0.6229
    8CHTO  H124 3145   6.029   9.818   1.118  0.7679 -1.4953 -0.1162
    8CHTO   C65 3146   6.199   9.820   1.255 -0.2236  0.3133 -0.1794
    8CHTO  H122 3147   6.254   9.913   1.246  2.2740 -1.2145 -1.1621
    8CHTO   O44 3148   6.235   9.711   1.165 -0.2823  0.2327 -0.1091
    8CHTO  H102 3149   6.254   9.750   1.082 -1.2807  0.3365 -0.2928
    8CHTO   C63 3150   6.208   9.765   1.410  0.5075  0.2588 -0.5314
    8CHTO  H120 3151   6.166   9.845   1.472 -1.3464 -0.3901 -0.9224
    8CHTO   N11 3152   6.342   9.750   1.474 -0.4679  0.0985 -0.5051
    8CHTO  H108 3153   6.401   9.840   1.478 -1.3190  0.5616  1.9595
    8CHTO  H109 3154   6.402   9.673   1.429 -2.2989 -2.3618  1.1594
    8CHTO   C61 3155   6.118   9.636   1.430 -0.7889 -0.1525 -0.4838
    8CHTO  H118 3156   6.077   9.644   1.531  0.6860  1.3131  0.0259
    8CHTO   O40 3157   6.006   9.636   1.341  0.5670  0.4129  0.0401
    8CHTO   C68 3158   5.949   9.768   1.314 -0.1477  0.3082 -0.1437
    8CHTO  H125 3159   5.929   9.814   1.414 -1.3171  0.6290 -0.5224
    8CHTO   C72 3160   5.812   9.730   1.247  0.1150 -0.0075  0.2638
    8CHTO   O48 3161   5.702   9.779   1.318 -0.3829 -0.2970 -0.3938
    8CHTO  H105 3162   5.705   9.740   1.403  0.9815 -0.1973 -0.3738
    8CHTO   O38 3163   6.192   9.514   1.397  0.1320 -0.4902  0.1854
    8CHTO   C55 3164   6.116   9.392   1.429  0.3258 -0.1226  0.7232
    8CHTO  H112 3165   6.008   9.409   1.419  0.7698  1.5386 -1.8241
    8CHTO   C56 3166   6.153   9.324   1.564 -0.4741  0.9512 -0.0269
    8CHTO  H113 3167   6.257   9.290   1.557 -0.6167  0.0976  1.7949
    8CHTO   O42 3168   6.151   9.411   1.675 -0.4640 -0.2705 -0.6297
    8CHTO  H100 3169   6.234   9.453   1.683 -0.1912 -0.4460 -2.3829
    8CHTO   C57 3170   6.061   9.192   1.583  0.2255 -0.6590  0.6427
    8CHTO  H114 3171   5.960   9.231   1.587  0.1097 -1.1027  2.4583
    8CHTO   N10 3172   6.092   9.117   1.704 -0.0634  0.2884 -0.7614
    8CHTO  H106 3173   6.064   9.013   1.700 -1.8101  0.7846 -1.6357
    8CHTO  H107 3174   6.033   9.163   1.781 -4.7268  0.6481 -4.3356
    8CHTO   C58 3175   6.086   9.100   1.458 -0.9449  0.1702 -0.1470
    8CHTO  H115 3176   6.190   9.063   1.459 -0.3286  1.7956 -1.6979
    8CHTO   O37 3177   6.079   9.162   1.334  0.1043 -0.4805 -0.4209
    8CHTO   C59 3178   6.151   9.288   1.312 -0.0329  0.5321  0.2318
    8CHTO  H116 3179   6.257   9.267   1.304 -0.2836 -1.1698  1.0652
    8CHTO   C70 3180   6.098   9.346   1.181 -0.5774 -0.5279  0.1366
    8CHTO   O46 3181   6.116   9.241   1.089  0.7758  0.2258  0.1481
    8CHTO  H103 3182   6.185   9.264   1.031  1.4531  1.0360  1.2638
    8CHTO   O39 3183   5.978   8.971   1.460  0.5622 -0.2602  0.0785
    8CHTO   C60 3184   5.841   9.007   1.431 -0.2125  0.0993  0.7793
    8CHTO  H117 3185   5.825   9.094   1.494  3.2860  2.3871 -1.2772
    8CHTO   C62 3186   5.814   9.044   1.282 -0.1793 -0.1003 -0.5206
    8CHTO  H119 3187   5.864   9.137   1.250  2.2815 -1.7986 -1.8294
    8CHTO   O43 3188   5.860   8.941   1.191  0.2768  0.1736  0.9108
    8CHTO  H101 3189   5.950   8.949   1.165 -0.4723 -0.4620 -2.0915
    8CHTO   C66 3190   5.655   9.066   1.261 -0.1315 -0.0946 -0.2142
    8CHTO  H123 3191   5.620   9.137   1.337  1.2873  0.4787 -0.0745
    8CHTO   N12 3192   5.607   9.110   1.127 -0.4481 -0.6754 -0.1275
    8CHTO  H110 3193   5.615   9.217   1.122  0.1760 -0.4539  3.9143
    8CHTO  H111 3194   5.507   9.079   1.099  0.0222 -1.4686 -0.9889
    8CHTO   C69 3195   5.584   8.934   1.300 -0.6218 -0.5491  0.1905
    8CHTO  H126 3196   5.619   8.842   1.250 -1.1315  0.6300 -2.4245
    8CHTO   O41 3197   5.604   8.917   1.435  0.5502  0.7936 -0.5202
    8CHTO   C64 3198   5.746   8.887   1.474  0.5141  0.3360 -0.5389
    8CHTO  H121 3199   5.783   8.793   1.428  2.4892 -0.1543  1.9451
    8CHTO   C71 3200   5.740   8.871   1.626  0.1643  0.5532 -0.6268
    8CHTO   O47 3201   5.653   8.759   1.659  0.0253  0.2395 -0.2474
    8CHTO  H104 3202   5.707   8.683   1.665 -2.8224 -1.8875 -0.4170
    8CHTO   O34 3203   5.428   8.932   1.285  0.1935 -0.2976  0.0095
    8CHTO   C49 3204   5.303   8.947   1.365  0.3996  0.2431  0.3206
    8CHTO   H91 3205   5.306   8.865   1.437 -0.7186  1.0246  1.2734
    8CHTO   C47 3206   5.185   8.941   1.274 -0.2596 -1.1880 -0.0392
    8CHTO   H89 3207   5.098   8.942   1.342 -0.0248 -2.9338  0.2907
    8CHTO   O33 3208   5.194   8.813   1.208 -0.2398 -0.0902  0.2338
    8CHTO   H70 3209   5.279   8.799   1.171 -0.2029 -0.9323  0.6342
    8CHTO   C45 3210   5.179   9.064   1.180  0.5332  0.6612  0.1099
    8CHTO   H87 3211   5.261   9.053   1.107 -0.4728  0.1489 -0.9705
    8CHTO    N8 3212   5.049   9.062   1.100  0.2426 -0.0483 -0.5969
    8CHTO   H75 3213   5.001   8.966   1.109  0.1287 -0.0883 -1.6393
    8CHTO   H76 3214   5.082   9.076   0.998  0.5585  0.5648 -0.4135
    8CHTO   C43 3215   5.207   9.202   1.252 -0.1514 -0.6493 -0.3823
    8CHTO   H85 3216   5.245   9.261   1.168 -0.3140  1.5659  1.0535
    8CHTO   O29 3217   5.299   9.199   1.359 -0.4407  0.1790 -0.1108
    8CHTO   C50 3218   5.304   9.083   1.440 -0.3546 -0.3431 -0.3850
    8CHTO   H92 3219   5.405   9.099   1.482  0.3120 -0.9745 -1.7148
    8CHTO   C54 3220   5.213   9.080   1.569 -0.7271 -0.1907  0.2909
    8CHTO   O36 3221   5.076   9.107   1.543 -0.0264  0.1232 -0.1964
    8CHTO   H72 3222   5.023   9.098   1.619  0.3877 -0.3754  0.0389
    8CHTO   O27 3223   5.097   9.277   1.303  0.6418 -0.0991 -0.3254
    8CHTO   C37 3224   5.029   9.390   1.358 -0.1809 -0.1950 -0.3209
    8CHTO   H79 3225   4.953   9.364   1.433 -1.8141 -0.3018 -1.9681
    8CHTO   C38 3226   5.122   9.493   1.427 -0.6463  0.6227 -0.0408
    8CHTO   H80 3227   5.202   9.524   1.358 -1.5533  2.3196 -0.3513
    8CHTO   O31 3228   5.164   9.424   1.547 -0.0884 -0.7850  0.2395
    8CHTO   H68 3229   5.234   9.474   1.584  0.3675 -0.8382 -0.5246
    8CHTO   C39 3230   5.041   9.625   1.466 -0.4957 -0.8499  0.1524
    8CHTO   H81 3231   4.967   9.578   1.531 -0.1531 -2.1531 -0.3912
    8CHTO    N7 3232   5.114   9.732   1.540 -0.3507 -0.1169  0.1687
    8CHTO   H73 3233   5.054   9.822   1.548 -2.4694 -1.4615 -0.2118
    8CHTO   H74 3234   5.120   9.706   1.645  1.3063  2.8463  0.8613
    8CHTO   C40 3235   4.977   9.679   1.338 -0.3472 -0.0237 -0.3606
    8CHTO   H82 3236   5.049   9.714   1.265  1.2244  0.9507  1.6209
    8CHTO   O26 3237   4.892   9.583   1.276 -0.2634  0.4058  0.4437
    8CHTO   C41 3238   4.959   9.463   1.232 -0.3318  0.4182 -0.2166
    8CHTO   H83 3239   5.030   9.489   1.152  0.6466  0.2980  0.6166
    8CHTO   C52 3240   4.850   9.366   1.177  0.1414  0.3742  0.4562
    8CHTO   O35 3241   4.732   9.334   1.275  0.0231 -0.5594 -0.4656
    8CHTO   H71 3242   4.723   9.412   1.327  2.0512  0.2595 -1.3021
    8CHTO   O28 3243   4.879   9.779   1.361  0.8747  0.5692  0.4744
    8CHTO   C42 3244   4.841   9.870   1.254 -0.0772 -0.5364  0.2274
    8CHTO   H84 3245   4.777   9.948   1.295  0.6417  0.8523 -1.2140
    8CHTO   C44 3246   4.758   9.809   1.131 -0.4869 -0.0783  0.3595
    8CHTO   H86 3247   4.823   9.744   1.071  0.8228  1.9033 -0.4095
    8CHTO   O32 3248   4.645   9.738   1.194  0.8374  0.1289 -0.6057
    8CHTO   H69 3249   4.678   9.665   1.242  1.9770  0.5205 -0.7702
    8CHTO   C48 3250   4.705   9.924   1.030  0.2046  0.0550  0.6573
    8CHTO   H90 3251   4.655  10.002   1.086 -0.0461 -0.3008  0.9337
    8CHTO    N9 3252   4.599   9.878   0.923 -0.2531 -0.2499  0.0202
    8CHTO   H77 3253   4.637   9.905   0.826  0.0194 -0.2310  0.1318
    8CHTO   H78 3254   4.502   9.926   0.925 -0.3512 -0.4630  0.6434
    8CHTO   C51 3255   4.826   9.988   0.969  0.1164  0.1500  0.0243
    8CHTO   H93 3256   4.891   9.914   0.922 -0.3330 -0.7502  0.8015
    8CHTO   O30 3257   4.893  10.054   1.074 -0.2927 -0.1298 -0.1004
    8CHTO   C46 3258   4.957   9.949   1.179 -0.1132  0.1549  0.2147
    8CHTO   H88 3259   5.022   9.880   1.125 -0.8426 -1.6958  1.6392
    8CHTO   C53 3260   5.035  10.038   1.275  0.9551  0.0545 -0.2918
    8CHTO   O72 3261   5.137  10.125   1.221  0.6653 -0.3963  0.0595
    8CHTO  H199 3262   5.163  10.188   1.285  1.6923  0.0780 -0.8032
    8CHTO   O22 3263   4.803  10.094   0.871 -0.0070  0.2863  0.4176
    8CHTO   C31 3264   4.899  10.136   0.766  0.1405 -0.2374  0.0214
    8CHTO   H59 3265   4.849  10.223   0.720 -0.0400 -0.1289  0.4165
    8CHTO   C29 3266   5.043  10.178   0.815 -0.4742  0.2709 -0.8628
    8CHTO   H57 3267   5.079  10.110   0.894 -0.0253  1.3977 -0.0824
    8CHTO   O21 3268   5.029  10.298   0.883  0.5546 -0.4715  0.0176
    8CHTO   H37 3269   5.090  10.364   0.856  0.6447 -1.2584 -1.7710
    8CHTO   C27 3270   5.147  10.183   0.696  0.4176  0.3885 -0.2921
    8CHTO   H55 3271   5.116  10.258   0.622 -2.7485  0.6949  1.2639
    8CHTO    N5 3272   5.283  10.215   0.742  0.6507  0.1402  0.0287
    8CHTO   H43 3273   5.284  10.321   0.764  1.2974  0.9856 -3.6500
    8CHTO   H44 3274   5.310  10.171   0.836  0.8684 -0.9519 -0.5390
    8CHTO   C25 3275   5.141  10.049   0.616  0.1311  0.7327  0.1592
    8CHTO   H53 3276   5.162   9.973   0.693  2.7992  1.8971  0.6500
    8CHTO   O17 3277   5.009  10.041   0.558  0.4859  0.4570  0.3012
    8CHTO   C32 3278   4.900  10.032   0.649 -0.6343 -0.7836  0.1212
    8CHTO   H60 3279   4.896   9.934   0.698  0.1724  0.0487  1.9065
    8CHTO   C36 3280   4.766  10.045   0.571 -0.2196 -0.0902 -0.0535
    8CHTO   O25 3281   4.763  10.164   0.492 -0.4890 -0.3545 -0.0525
    8CHTO   H40 3282   4.708  10.145   0.419  0.8880 -0.4896 -1.0616
    8CHTO   O15 3283   5.250  10.023   0.513 -0.6273  0.0679 -0.4516
    8CHTO   C19 3284   5.299   9.988   0.384  0.2921 -0.1803 -0.2113
    8CHTO   H47 3285   5.243   9.902   0.344  2.5641 -0.8722 -2.0216
    8CHTO   C20 3286   5.275  10.090   0.275  0.0427  0.1531  0.2130
    8CHTO   H48 3287   5.322  10.188   0.294  0.4327  0.4819 -2.3784
    8CHTO   O19 3288   5.128  10.118   0.276 -0.3985  0.4393 -0.5700
    8CHTO   H35 3289   5.092  10.157   0.199 -2.2987  0.8295  0.4918
    8CHTO   C21 3290   5.321  10.036   0.125 -0.5837  0.2944 -0.0764
    8CHTO   H49 3291   5.244   9.964   0.100 -3.0447  2.4691  0.9432
    8CHTO    N4 3292   5.313  10.148   0.033 -0.0067  0.9543 -0.0635
    8CHTO   H41 3293   5.382  10.218   0.077  2.2900 -0.2228 -1.6568
    8CHTO   H42 3294   5.211  10.182   0.037 -0.4811 -0.2722 -1.1391
    8CHTO   C22 3295   5.459   9.969   0.133 -0.2848 -0.1686 -0.1548
    8CHTO   H50 3296   5.538  10.043   0.126  0.3860 -0.7592  0.9899
    8CHTO   O14 3297   5.462   9.885   0.250  0.6487 -0.3743 -0.4236
    8CHTO   C23 3298   5.445   9.949   0.378 -0.7772 -0.4007 -0.2658
    8CHTO   H51 3299   5.512  10.036   0.382 -1.6996  0.3241 -0.5969
    8CHTO   C34 3300   5.474   9.852   0.494 -0.3058 -0.4214 -0.3798
    8CHTO   O23 3301   5.613   9.831   0.482 -0.2701  0.6375  0.1832
    8CHTO   H38 3302   5.635   9.751   0.524 -2.5451  0.6241  1.3813
    8CHTO   O16 3303   5.476   9.879   0.015 -0.0019  0.2564 -0.7005
    8CHTO   C24 3304   5.620   9.801   0.008 -0.1403 -0.4150  0.0938
    8CHTO   H52 3305   5.667   9.795   0.107 -0.7010 -2.0898  0.2770
    8CHTO   C26 3306   5.720   9.864  -0.089  0.1439  0.4155 -0.0023
    8CHTO   H54 3307   5.678   9.868  -0.191 -2.8411 -1.5045  1.0819
    8CHTO   O20 3308   5.744   9.995  -0.037  0.2587 -0.3230 -0.0906
    8CHTO   H36 3309   5.832  10.024  -0.053  0.7274 -0.4225  2.2389
    8CHTO   C30 3310   5.847   9.776  -0.105  0.6394 -0.6068  0.2780
    8CHTO   H58 3311   5.898   9.764  -0.008  0.5655  0.3792  0.4454
    8CHTO    N6 3312   5.953   9.837  -0.195  0.2411 -0.6025 -0.4613
    8CHTO   H45 3313   5.977   9.936  -0.158  1.4116 -1.1800  0.3434
    8CHTO   H46 3314   5.915   9.849  -0.295  2.0059 -0.8123 -1.1849
    8CHTO   C33 3315   5.812   9.637  -0.153 -0.3232  0.7364  0.3672
    8CHTO   H61 3316   5.758   9.636  -0.249  0.8287 -1.1899 -0.2750
    8CHTO   O18 3317   5.720   9.581  -0.054 -0.0229 -1.4482 -0.5114
    8CHTO   C28 3318   5.593   9.657  -0.045  0.1346 -0.4354 -0.5021
    8CHTO   H56 3319   5.552   9.668  -0.145  1.5225  3.1962 -0.7401
    8CHTO   C35 3320   5.508   9.578   0.056 -0.1640 -0.2570  0.6565
    8CHTO   O24 3321   5.570   9.547   0.178 -0.5058  0.0358  0.1338
    8CHTO   H39 3322   5.577   9.454   0.171  0.2950  0.2317 -2.0872
    8CHTO    O9 3323   5.924   9.546  -0.181  0.5182 -0.1564  0.0993
    8CHTO   C13 3324   5.893   9.441  -0.287  0.3634  0.1747 -0.5822
    8CHTO   H26 3325   5.832   9.491  -0.365 -1.4149  0.9808  1.2504
    8CHTO   C11 3326   5.813   9.324  -0.219 -0.1193  0.8662 -0.0631
    8CHTO   H24 3327   5.717   9.369  -0.189 -1.7316 -1.2499 -1.9046
    8CHTO    O8 3328   5.889   9.282  -0.101 -0.2659 -0.5828  0.5562
    8CHTO    H3 3329   5.882   9.345  -0.032 -0.1653 -0.5795  0.5646
    8CHTO    C9 3330   5.796   9.222  -0.333 -0.7389  0.2197 -0.4129
    8CHTO   H22 3331   5.749   9.275  -0.417 -0.0576 -0.1021 -0.9973
    8CHTO    N2 3332   5.688   9.125  -0.307 -0.2504 -0.1201  0.9196
    8CHTO   H10 3333   5.656   9.085  -0.403  0.2121  3.1451 -0.6591
    8CHTO   H11 3334   5.724   9.049  -0.239  2.2406  0.3871  0.2223
    8CHTO    C7 3335   5.930   9.157  -0.376 -0.4596 -0.4629  0.4618
    8CHTO   H20 3336   5.916   9.139  -0.485  1.9189  0.9791 -0.1217
    8CHTO    O4 3337   6.044   9.239  -0.344 -0.0505 -0.4023 -0.4041
    8CHTO   C14 3338   6.019   9.380  -0.354 -0.2408 -0.6894  0.1124
    8CHTO   H27 3339   6.023   9.399  -0.464 -0.3973  1.9272  0.5264
    8CHTO   C18 3340   6.144   9.450  -0.294  0.2200  0.2453 -0.4447
    8CHTO   O13 3341   6.237   9.455  -0.404 -0.3040  0.2278 -0.1595
    8CHTO    H7 3342   6.300   9.386  -0.401  1.4912  1.8803  1.1399
    8CHTO    O2 3343   5.953   9.008  -0.294 -0.4479 -0.1943  0.5062
    8CHTO    C1 3344   6.076   8.936  -0.304 -0.3313  0.1579 -0.2867
    8CHTO   H14 3345   6.157   9.012  -0.314  0.1850 -0.2773  0.5479
    8CHTO    C2 3346   6.085   8.843  -0.424 -0.4867 -0.4600  0.8934
    8CHTO   H15 3347   5.990   8.789  -0.429 -0.7836  0.1418 -0.0048
    8CHTO    O6 3348   6.102   8.918  -0.550  0.3182  0.4002 -0.2071
    8CHTO    H1 3349   6.191   8.930  -0.577 -0.7350  1.9156 -3.2282
    8CHTO    C3 3350   6.207   8.746  -0.417  0.1296  0.0555  0.2831
    8CHTO   H16 3351   6.301   8.796  -0.445 -0.3141  1.0251  0.5135
    8CHTO    N1 3352   6.189   8.636  -0.524  0.4120 -0.3473  0.2208
    8CHTO    H8 3353   6.163   8.538  -0.487  3.1291 -1.2977 -0.3047
    8CHTO    H9 3354   6.285   8.628  -0.573  0.3705 -2.4206  0.4491
    8CHTO    C4 3355   6.227   8.688  -0.281 -0.0203  0.8148 -0.5499
    8CHTO   H17 3356   6.152   8.611  -0.262 -0.0081  1.3612  1.8329
    8CHTO    O1 3357   6.218   8.788  -0.184  0.4074  0.1023 -0.2682
    8CHTO    C5 3358   6.095   8.851  -0.171 -0.2139  0.3085  0.2204
    8CHTO   H18 3359   6.022   8.772  -0.160  1.1672 -1.0489 -0.1967
    8CHTO   C16 3360   6.090   8.935  -0.042  0.7221 -0.3349 -0.1854
    8CHTO   O11 3361   5.965   8.994  -0.015 -0.0255 -0.3328  0.5336
    8CHTO    H5 3362   5.899   8.931   0.005  1.1268 -1.2508  1.5703
    8CHTO    O3 3363   6.362   8.634  -0.277  0.0886  0.3142  0.2781
    8CHTO    C6 3364   6.367   8.529  -0.172 -0.0263  0.3336  0.1678
    8CHTO   H19 3365   6.273   8.520  -0.117  0.6763  0.9479  1.4652
    8CHTO    C8 3366   6.393   8.388  -0.249 -0.0544  0.3960  0.2755
    8CHTO   H21 3367   6.470   8.400  -0.325  1.1290 -4.4884  0.5469
    8CHTO    O7 3368   6.279   8.345  -0.324 -0.2455  0.0712 -0.1916
    8CHTO    H2 3369   6.228   8.419  -0.351 -2.0399 -0.5822  1.2987
    8CHTO   C12 3370   6.444   8.278  -0.149 -0.1477 -0.2526 -0.6023
    8CHTO   H25 3371   6.365   8.253  -0.075 -1.3497  2.9707 -0.7104
    8CHTO    N3 3372   6.474   8.151  -0.212 -0.5148  0.4372  0.6228
    8CHTO   H12 3373   6.570   8.112  -0.181 -0.3271 -0.0057 -0.4917
    8CHTO   H13 3374   6.391   8.083  -0.214 -0.5152  0.4730 -1.5876
    8CHTO   C15 3375   6.563   8.349  -0.076  0.5440 -0.5132  0.1781
    8CHTO   H28 3376   6.628   8.387  -0.155 -0.4084 -0.4489 -0.5814
    8CHTO   O10 3377   6.663   8.235   0.016  0.2553  0.3253 -0.8455
    8CHTO    H4 3378   6.632   8.148   0.001 -1.1467  0.7096 -0.2872
    8CHTO    O5 3379   6.512   8.455   0.009  0.0950  0.6812 -0.0309
    8CHTO   C10 3380   6.474   8.567  -0.069  0.3042  0.5794 -0.3253
    8CHTO   H23 3381   6.564   8.600  -0.120  0.2580 -0.6652 -1.2348
    8CHTO   C17 3382   6.440   8.680   0.023 -0.0856  0.0913  0.4923
    8CHTO   O12 3383   6.304   8.686   0.073  0.2514  0.4997 -0.5502
    8CHTO    H6 3384   6.263   8.602   0.076 -0.9200  1.0207 -1.8236
    9CHTO  H203 3385   8.772   4.173   0.514  0.9007 -0.0976 -0.7395
    9CHTO   O82 3386   8.725   4.126   0.448 -0.2247 -0.0991  0.0468
    9CHTO  C123 3387   8.809   4.016   0.409 -0.3724  0.0326 -0.2529
    9CHTO  H227 3388   8.898   4.019   0.475  1.4628  0.8883 -2.6809
    9CHTO   O77 3389   8.729   3.900   0.425 -0.0715  0.1869 -0.1690
    9CHTO  C118 3390   8.772   3.774   0.379  0.1930 -0.6588  0.1075
    9CHTO  H222 3391   8.869   3.738   0.417  0.0792  0.6394  1.6555
    9CHTO  C125 3392   8.663   3.666   0.415 -0.4964  0.5053 -0.5228
    9CHTO   O84 3393   8.655   3.653   0.556 -0.0479 -0.4376  0.4712
    9CHTO  H205 3394   8.591   3.588   0.576  0.4836 -1.4117 -0.9692
    9CHTO  C114 3395   8.800   3.784   0.231 -0.1091  0.4456  0.0503
    9CHTO  H218 3396   8.706   3.795   0.176 -0.8499 -2.0054  0.7629
    9CHTO  C116 3397   8.901   3.895   0.188 -0.7553 -0.9986 -0.0811
    9CHTO  H220 3398   9.001   3.862   0.222  0.0598  1.4521 -0.0494
    9CHTO   O79 3399   8.920   3.909   0.041  0.7784  1.0086  0.2171
    9CHTO  H201 3400   8.861   3.977   0.015 -1.1333 -0.3338  0.9021
    9CHTO  C120 3401   8.855   4.032   0.256  0.3381  0.3620 -0.2729
    9CHTO  H224 3402   8.767   4.058   0.194  0.2410  1.6942  0.4004
    9CHTO   N21 3403   8.957   4.134   0.234 -0.3546 -0.3367 -0.2652
    9CHTO  H211 3404   9.028   4.103   0.159 -1.0377 -0.2525 -0.9546
    9CHTO  H212 3405   8.908   4.227   0.207 -0.4935 -0.0347  0.9965
    9CHTO   O75 3406   8.856   3.662   0.187 -0.0736  0.1253 -0.2485
    9CHTO  C112 3407   8.777   3.603   0.041 -0.1643  0.2519 -0.0589
    9CHTO  H216 3408   8.757   3.687  -0.027 -2.0668  1.2055  1.5992
    9CHTO   O73 3409   8.661   3.528   0.075 -0.9218 -0.0911 -0.4223
    9CHTO  C113 3410   8.597   3.471  -0.039  0.2848  0.7390 -0.1600
    9CHTO  H217 3411   8.553   3.557  -0.094 -1.6468  0.1929  0.4949
    9CHTO  C124 3412   8.474   3.401   0.012  0.1064  0.3447 -0.1882
    9CHTO   O83 3413   8.387   3.468   0.102  0.3291  0.1577 -0.4594
    9CHTO  H204 3414   8.352   3.403   0.160 -0.1035  0.5430 -0.2872
    9CHTO  C109 3415   8.693   3.383  -0.126  0.6248 -0.0604 -0.3079
    9CHTO  H213 3416   8.716   3.291  -0.069 -1.1671 -0.8644 -0.8627
    9CHTO  C110 3417   8.827   3.458  -0.160  0.2565  0.4733 -0.6850
    9CHTO  H214 3418   8.813   3.533  -0.238 -1.2766  0.5809 -0.3197
    9CHTO   O78 3419   8.929   3.365  -0.204 -0.0906  0.2306  0.4855
    9CHTO  H200 3420   8.902   3.275  -0.206 -0.4870  0.3657 -1.0905
    9CHTO  C111 3421   8.887   3.516  -0.029 -0.3805 -0.2917 -0.0030
    9CHTO  H215 3422   8.919   3.435   0.037 -0.6495  0.7922  1.4793
    9CHTO   N19 3423   9.007   3.607  -0.059 -0.2980  0.4068  1.0611
    9CHTO  H207 3424   9.036   3.679   0.015  1.6642  0.6948  0.0528
    9CHTO  H208 3425   9.091   3.539  -0.061 -0.7641 -0.1634  0.4820
    9CHTO   O74 3426   8.626   3.345  -0.241  0.1478  0.0306 -0.4821
    9CHTO  C115 3427   8.677   3.203  -0.314  0.0658 -0.2943  0.3218
    9CHTO  H219 3428   8.762   3.162  -0.260 -0.2969  0.8426  1.8180
    9CHTO   O76 3429   8.566   3.088  -0.313 -0.7789 -0.0234  0.5671
    9CHTO  C122 3430   8.442   3.114  -0.376  0.0908 -0.2822  0.4888
    9CHTO  H226 3431   8.397   3.204  -0.333  0.5754 -0.2451  0.9118
    9CHTO  C126 3432   8.342   2.991  -0.358  0.7561 -0.0871  0.4927
    9CHTO   O85 3433   8.212   2.993  -0.417  0.9114 -0.6263 -0.4368
    9CHTO  H206 3434   8.200   3.084  -0.433  0.7942 -0.0777  2.5840
    9CHTO  C121 3435   8.485   3.153  -0.526 -0.0073 -0.8790 -0.1993
    9CHTO  H225 3436   8.522   3.066  -0.584 -1.9198 -1.0727 -1.1776
    9CHTO   O81 3437   8.363   3.198  -0.593  0.1377  0.4199 -0.5107
    9CHTO  H202 3438   8.317   3.254  -0.533  1.2030 -0.7322  1.3962
    9CHTO  C119 3439   8.584   3.275  -0.538  0.1772  0.0202 -0.1375
    9CHTO  H223 3440   8.596   3.288  -0.645  1.3437  0.9282  0.0941
    9CHTO  C117 3441   8.720   3.240  -0.461  0.7426  0.0553 -0.3407
    9CHTO  H221 3442   8.786   3.326  -0.449 -0.6316  1.0642  0.1013
    9CHTO   N20 3443   8.799   3.123  -0.524  0.6936 -1.0394 -0.3135
    9CHTO  H209 3444   8.745   3.085  -0.610 -1.2354 -1.4520  1.0298
    9CHTO  H210 3445   8.896   3.147  -0.563  1.4330 -1.8375  0.9925
    9CHTO   O80 3446   8.520   3.399  -0.500  0.0109  0.6304  0.1320
    9CHTO  C103 3447   8.583   3.535  -0.517  0.2685 -0.6299 -0.6361
    9CHTO  H190 3448   8.627   3.559  -0.420  0.8511  0.9927 -1.2814
    9CHTO  C101 3449   8.685   3.563  -0.631 -0.0044  0.5415 -0.5469
    9CHTO  H188 3450   8.637   3.537  -0.726 -0.2476  0.1448 -0.3148
    9CHTO   O68 3451   8.815   3.483  -0.612 -0.3445  0.2214  0.2051
    9CHTO  H168 3452   8.870   3.536  -0.558 -0.2906  0.9156 -0.5222
    9CHTO   C99 3453   8.710   3.721  -0.653 -0.0683 -0.7996  0.2152
    9CHTO  H186 3454   8.755   3.760  -0.559  2.1216 -1.8154 -0.3829
    9CHTO   N17 3455   8.810   3.747  -0.767 -0.0053  0.1796 -0.5598
    9CHTO  H174 3456   8.905   3.788  -0.738  0.7555 -0.8362 -1.5601
    9CHTO  H175 3457   8.772   3.796  -0.855 -0.2918  0.5420 -0.2302
    9CHTO   C97 3458   8.570   3.793  -0.664  0.4091 -0.6697  0.1557
    9CHTO  H184 3459   8.518   3.749  -0.750  0.7025  2.1462 -1.5150
    9CHTO   O64 3460   8.507   3.766  -0.540  0.2666  0.0061  0.2335
    9CHTO  C104 3461   8.458   3.630  -0.526 -0.2967 -0.1375 -0.0821
    9CHTO  H191 3462   8.399   3.602  -0.614 -2.0327 -1.3115  1.4247
    9CHTO  C108 3463   8.357   3.628  -0.404 -0.7469 -0.7538 -0.0613
    9CHTO   O71 3464   8.240   3.701  -0.431 -0.3602  0.2612  0.4221
    9CHTO  H171 3465   8.171   3.654  -0.390 -1.0968  2.3572  1.6520
    9CHTO   O62 3466   8.578   3.934  -0.679  0.4498 -0.0632  0.4480
    9CHTO   C91 3467   8.475   3.999  -0.757 -0.3873 -0.4384  0.5337
    9CHTO  H178 3468   8.477   3.946  -0.852 -0.7951 -1.9990  1.3696
    9CHTO   C92 3469   8.512   4.157  -0.780  0.2164 -0.0425 -0.1854
    9CHTO  H179 3470   8.616   4.180  -0.805  0.7698 -0.0730  1.9731
    9CHTO   O66 3471   8.446   4.202  -0.897 -0.5636  0.1654 -0.6631
    9CHTO  H166 3472   8.353   4.189  -0.893 -0.5906  0.9948  2.9074
    9CHTO   C93 3473   8.473   4.249  -0.654  0.1818 -0.0575 -0.0095
    9CHTO  H180 3474   8.469   4.354  -0.689  0.6552 -0.5433 -1.5574
    9CHTO   N16 3475   8.575   4.247  -0.546  0.2606  0.0969 -0.7289
    9CHTO  H172 3476   8.662   4.308  -0.565 -0.7541  1.9887  0.6173
    9CHTO  H173 3477   8.536   4.289  -0.455 -0.8561  1.5654 -1.8609
    9CHTO   C94 3478   8.336   4.204  -0.594 -0.4543  0.0543 -0.2757
    9CHTO  H181 3479   8.343   4.158  -0.495 -0.7964  1.1668  0.2748
    9CHTO   O61 3480   8.260   4.107  -0.669 -0.0562  0.5698  0.1167
    9CHTO   C95 3481   8.329   3.986  -0.694  0.7220  0.4512 -1.2480
    9CHTO  H182 3482   8.336   3.935  -0.598  0.2637  1.3187 -0.7502
    9CHTO  C106 3483   8.237   3.898  -0.776  0.8316 -0.4780 -0.4063
    9CHTO   O69 3484   8.207   3.947  -0.909  0.6592  0.0946 -0.2511
    9CHTO  H169 3485   8.146   3.888  -0.950  0.6799  0.0518 -0.2204
    9CHTO   O63 3486   8.263   4.330  -0.598 -0.1847  0.3540 -0.6745
    9CHTO   C96 3487   8.133   4.345  -0.499  0.2919 -0.5309 -0.5160
    9CHTO  H183 3488   8.168   4.336  -0.396  2.5343  2.3501 -0.9709
    9CHTO   C98 3489   8.010   4.249  -0.520  0.0197 -0.9976 -0.6579
    9CHTO  H185 3490   8.004   4.234  -0.629 -0.0121  0.8390 -0.9196
    9CHTO   O67 3491   8.059   4.128  -0.460  1.0047  0.8063  0.0191
    9CHTO  H167 3492   8.036   4.049  -0.505  1.6759  0.6913 -0.1336
    9CHTO  C102 3493   7.878   4.301  -0.451 -0.1066 -0.0581  0.3415
    9CHTO  H189 3494   7.905   4.300  -0.345  0.9333  2.9549  0.1530
    9CHTO   N18 3495   7.760   4.214  -0.466 -1.0640  0.3484 -0.2531
    9CHTO  H176 3496   7.754   4.193  -0.572  1.5542 -0.5543 -0.2517
    9CHTO  H177 3497   7.673   4.263  -0.424 -0.9706  1.0538 -0.8757
    9CHTO  C105 3498   7.859   4.448  -0.494  0.2831  0.0435  0.1872
    9CHTO  H192 3499   7.840   4.454  -0.602 -1.9081  3.1079  0.6765
    9CHTO   O65 3500   7.970   4.535  -0.456  0.3203 -0.2814 -0.7779
    9CHTO  C100 3501   8.096   4.503  -0.519  0.1176 -0.2072 -0.2632
    9CHTO  H187 3502   8.101   4.535  -0.625 -2.6598  1.0068 -0.0616
    9CHTO  C107 3503   8.205   4.593  -0.450 -0.4670  0.3223 -0.5763
    9CHTO   O70 3504   8.223   4.576  -0.308  0.4946 -0.3157  0.0276
    9CHTO  H170 3505   8.169   4.505  -0.279  1.8290 -1.6333 -0.6373
    9CHTO   O57 3506   7.720   4.509  -0.403  0.0552 -0.3104  0.0460
    9CHTO   C85 3507   7.651   4.614  -0.471  0.1260  0.2448  0.4863
    9CHTO  H157 3508   7.653   4.598  -0.581 -0.1696 -1.0994  0.6671
    9CHTO   C83 3509   7.720   4.749  -0.440 -0.2206 -0.0201  0.3448
    9CHTO  H155 3510   7.805   4.752  -0.509  1.0536 -1.9714  1.7666
    9CHTO   O56 3511   7.773   4.752  -0.307  0.2617  0.1251  0.0187
    9CHTO  H135 3512   7.702   4.736  -0.248  0.3929  0.4867  0.2759
    9CHTO   C81 3513   7.635   4.867  -0.478  0.3704  0.5889 -0.0966
    9CHTO  H153 3514   7.601   4.842  -0.579  0.7727  0.6812 -0.2552
    9CHTO   N14 3515   7.703   4.997  -0.487 -0.3247 -0.3886  0.0590
    9CHTO  H141 3516   7.627   5.064  -0.521 -0.1623 -1.1164 -1.7943
    9CHTO  H142 3517   7.785   4.991  -0.555  0.7612  0.7565  1.2620
    9CHTO   C79 3518   7.504   4.868  -0.387 -0.3020  0.2049  0.0028
    9CHTO  H151 3519   7.442   4.952  -0.420 -1.3474  0.3531  2.2535
    9CHTO   O52 3520   7.418   4.746  -0.417  0.0885  0.1206 -0.4020
    9CHTO   C86 3521   7.500   4.624  -0.415  0.1083 -0.4162  0.6859
    9CHTO  H158 3522   7.494   4.595  -0.309 -0.9797 -2.0755  0.1880
    9CHTO   C90 3523   7.427   4.511  -0.493 -0.4981  0.0289 -0.2710
    9CHTO   O60 3524   7.415   4.544  -0.628 -0.3581 -0.3213 -0.1122
    9CHTO  H138 3525   7.372   4.476  -0.676 -2.9675  0.3409  1.2114
    9CHTO   O50 3526   7.535   4.878  -0.247 -0.3803  0.2966 -0.0019
    9CHTO   C73 3527   7.523   4.924  -0.109 -0.0985 -0.0068  0.0672
    9CHTO  H145 3528   7.418   4.945  -0.083 -1.0511 -2.1990 -1.8494
    9CHTO   C74 3529   7.595   5.062  -0.102 -0.0192  0.9012 -0.7446
    9CHTO  H146 3530   7.552   5.132  -0.175 -1.7754  0.5698 -0.0376
    9CHTO   O54 3531   7.566   5.115   0.021  0.4329 -0.6116 -0.5855
    9CHTO  H133 3532   7.585   5.206   0.030 -1.6758  0.0378 -2.1496
    9CHTO   C75 3533   7.746   5.039  -0.121  0.0118  1.2466 -0.3280
    9CHTO  H147 3534   7.767   5.005  -0.223  2.9779  2.4238 -0.1495
    9CHTO   N13 3535   7.834   5.158  -0.107  0.2321  0.1259 -0.1306
    9CHTO  H139 3536   7.869   5.182  -0.206 -2.9257 -0.7920 -1.5395
    9CHTO  H140 3537   7.773   5.240  -0.074  0.7236  0.6495 -0.5211
    9CHTO   C76 3538   7.795   4.924  -0.025 -0.4365 -0.5205 -0.2933
    9CHTO  H148 3539   7.793   4.964   0.076 -0.4413 -2.6733  0.5807
    9CHTO   O49 3540   7.720   4.806  -0.033 -0.3719  1.1083  0.6148
    9CHTO   C77 3541   7.577   4.821  -0.012  0.0512 -0.4830  0.2046
    9CHTO  H149 3542   7.557   4.856   0.090 -0.1897  0.1073 -0.0427
    9CHTO   C88 3543   7.504   4.684  -0.023 -0.7375  1.1403  0.1504
    9CHTO   O58 3544   7.378   4.698   0.015 -0.7217  0.1727 -0.0055
    9CHTO  H136 3545   7.331   4.627  -0.026 -1.6470  1.7499 -1.7685
    9CHTO   O51 3546   7.928   4.871  -0.071  0.3671 -0.6201 -0.4819
    9CHTO   C78 3547   8.010   4.795   0.033 -0.3997  0.0329 -0.6553
    9CHTO  H150 3548   7.956   4.774   0.128  0.5860  2.5237  0.5003
    9CHTO   C80 3549   8.132   4.879   0.076  0.2676  0.0356 -0.1400
    9CHTO  H152 3550   8.173   4.925  -0.016 -0.8372 -1.5122 -1.4381
    9CHTO   O55 3551   8.085   4.997   0.142 -0.0325  0.3364  0.1798
    9CHTO  H134 3552   8.010   4.979   0.195  0.6141 -2.1719  0.2966
    9CHTO   C84 3553   8.246   4.807   0.158  0.2549 -0.1676 -0.1063
    9CHTO  H156 3554   8.193   4.793   0.252 -1.0767  1.9534 -0.5184
    9CHTO   N15 3555   8.370   4.889   0.184  0.6737 -0.0902 -0.6211
    9CHTO  H143 3556   8.458   4.829   0.185 -0.4667 -1.8147 -0.5687
    9CHTO  H144 3557   8.384   4.961   0.106 -0.3846  0.0705 -0.6691
    9CHTO   C87 3558   8.270   4.669   0.090  0.5543  0.3251  0.1193
    9CHTO  H159 3559   8.322   4.692  -0.002 -0.3926  0.2497 -0.4362
    9CHTO   O53 3560   8.141   4.591   0.067 -0.2642  0.7069  0.1643
    9CHTO   C82 3561   8.058   4.662  -0.022 -0.1324 -0.4341 -0.2017
    9CHTO  H154 3562   8.112   4.678  -0.115 -0.3510  0.8700 -0.1164
    9CHTO   C89 3563   7.929   4.581  -0.065  0.1317 -0.1572 -0.5559
    9CHTO   O59 3564   7.960   4.474  -0.154 -0.3030  0.0404  0.2754
    9CHTO  H137 3565   7.908   4.482  -0.231 -1.7175  0.8281  1.2908
    9CHTO   O45 3566   8.354   4.582   0.202 -0.7051  0.2411  0.1942
    9CHTO   C67 3567   8.386   4.441   0.180 -0.3697  0.0051 -0.1767
    9CHTO  H124 3568   8.299   4.377   0.200 -1.8817  0.8556 -3.5643
    9CHTO   C65 3569   8.423   4.417   0.025  0.6297  0.0274  0.2294
    9CHTO  H122 3570   8.441   4.514  -0.022 -0.7556 -0.4075 -1.2488
    9CHTO   O44 3571   8.308   4.360  -0.050  0.2992 -0.2328 -0.4747
    9CHTO  H102 3572   8.343   4.278  -0.078 -2.5874 -1.1301 -1.5746
    9CHTO   C63 3573   8.565   4.355   0.015  0.3681 -0.2575  0.2753
    9CHTO  H120 3574   8.640   4.428   0.046 -0.4324 -0.2148  2.2366
    9CHTO   N11 3575   8.613   4.327  -0.121  0.2487 -0.0889  0.3861
    9CHTO  H108 3576   8.547   4.316  -0.205  1.3672 -1.0477 -0.3741
    9CHTO  H109 3577   8.694   4.392  -0.147 -0.3416  0.5730  0.1631
    9CHTO   C61 3578   8.582   4.235   0.119  0.2751 -0.6118  0.5950
    9CHTO  H118 3579   8.691   4.222   0.122  0.2612 -1.2887 -1.0643
    9CHTO   O40 3580   8.540   4.264   0.255  0.0440 -0.8171 -0.6473
    9CHTO   C68 3581   8.500   4.405   0.276  1.0798 -0.5924  0.2797
    9CHTO  H125 3582   8.586   4.469   0.246  0.4966  0.3327  0.5417
    9CHTO   C72 3583   8.478   4.429   0.423  1.2641 -0.0606 -0.6882
    9CHTO   O48 3584   8.586   4.427   0.520  0.5442 -0.6672 -0.2202
    9CHTO  H105 3585   8.545   4.451   0.601 -0.8751 -0.0859 -1.0952
    9CHTO   O38 3586   8.530   4.109   0.070 -0.2388  0.0702  0.5080
    9CHTO   C55 3587   8.405   4.053   0.117 -0.0692 -0.3058  0.4049
    9CHTO  H112 3588   8.328   4.131   0.131 -0.7563 -1.1310  1.3044
    9CHTO   C56 3589   8.415   3.953   0.243  0.1344  0.0905 -0.5811
    9CHTO  H113 3590   8.486   3.882   0.198  1.9649  1.3052  0.2882
    9CHTO   O42 3591   8.466   4.008   0.363  0.4377 -1.0380  0.5180
    9CHTO  H100 3592   8.508   4.090   0.348  0.0353 -1.0196 -0.5483
    9CHTO   C57 3593   8.277   3.892   0.272  0.0423  0.5279 -1.0602
    9CHTO  H114 3594   8.209   3.976   0.286 -0.8218 -0.8127  3.6087
    9CHTO   N10 3595   8.270   3.802   0.393  1.3676 -0.3547  0.3323
    9CHTO  H106 3596   8.185   3.819   0.457  0.5104 -0.4888 -0.7584
    9CHTO  H107 3597   8.283   3.696   0.377  2.0136 -0.1951 -0.2285
    9CHTO   C58 3598   8.224   3.806   0.151  0.1890  0.4008 -0.6284
    9CHTO  H115 3599   8.283   3.712   0.140 -1.4857 -0.8339  0.5934
    9CHTO   O37 3600   8.236   3.883   0.031 -0.6645 -0.3740 -0.1535
    9CHTO   C59 3601   8.353   3.961  -0.004  0.7580  0.7871  0.3369
    9CHTO  H116 3602   8.430   3.890  -0.033  0.7007  0.9792 -0.3074
    9CHTO   C70 3603   8.318   4.045  -0.126  0.2306 -0.1542 -0.5152
    9CHTO   O46 3604   8.327   3.973  -0.249  0.4819  0.6272 -0.3541
    9CHTO  H103 3605   8.415   3.950  -0.273  0.6136 -1.0434  1.5309
    9CHTO   O39 3606   8.059   3.771   0.171 -0.7022  0.2388 -0.2163
    9CHTO   C60 3607   8.003   3.645   0.137 -0.0657  0.2371 -0.3068
    9CHTO  H117 3608   8.078   3.566   0.143 -1.2860 -0.8252  1.5076
    9CHTO   C62 3609   7.899   3.612   0.248  0.2641  0.2558 -0.3249
    9CHTO  H119 3610   7.959   3.594   0.340 -0.3129 -2.0856 -0.3556
    9CHTO   O43 3611   7.814   3.717   0.248  0.7031 -0.1025  0.3071
    9CHTO  H101 3612   7.766   3.731   0.168  1.0328 -0.1338  0.1032
    9CHTO   C66 3613   7.824   3.471   0.213  0.8403 -0.2062  0.0063
    9CHTO  H123 3614   7.895   3.389   0.216  0.0741 -0.8438  1.1301
    9CHTO   N12 3615   7.735   3.438   0.329  0.2618  0.1774 -0.2112
    9CHTO  H110 3616   7.661   3.514   0.351  0.8494  1.0193 -1.1397
    9CHTO  H111 3617   7.685   3.342   0.326 -1.3313  0.9453  0.7655
    9CHTO   C69 3618   7.756   3.449   0.077 -0.2839  1.0442 -0.3686
    9CHTO  H126 3619   7.653   3.489   0.085 -1.2537 -1.7825  2.3532
    9CHTO   O41 3620   7.838   3.514  -0.044  0.4395 -0.1542  0.4226
    9CHTO   C64 3621   7.936   3.638  -0.004 -0.8246 -0.3096  0.1538
    9CHTO  H121 3622   7.878   3.731  -0.025  0.9184  0.6087 -0.6750
    9CHTO   C71 3623   8.048   3.651  -0.107  0.2321  0.4122  0.0501
    9CHTO   O47 3624   7.985   3.641  -0.238 -0.0275 -0.6564  0.0736
    9CHTO  H104 3625   8.050   3.670  -0.299 -0.3436 -1.9142 -0.8814
    9CHTO   O34 3626   7.748   3.302   0.048 -0.0354 -0.3212 -0.5233
    9CHTO   C49 3627   7.851   3.209  -0.051  0.0246 -0.1019 -0.1201
    9CHTO   H91 3628   7.839   3.240  -0.155  0.5183 -3.1773 -1.1403
    9CHTO   C47 3629   7.796   3.064  -0.036 -0.4515  0.0432  0.0602
    9CHTO   H89 3630   7.863   3.005  -0.101  0.2613  2.0110 -1.0427
    9CHTO   O33 3631   7.663   3.043  -0.075 -0.0661 -0.7483 -0.2472
    9CHTO   H70 3632   7.649   3.085  -0.157  0.7279  0.4735  0.2223
    9CHTO   C45 3633   7.812   3.008   0.114  0.3205  0.1081  0.5813
    9CHTO   H87 3634   7.722   3.029   0.175  1.0795 -1.3994  2.2709
    9CHTO    N8 3635   7.833   2.860   0.111 -0.0545  0.0924 -0.1999
    9CHTO   H75 3636   7.914   2.828   0.175  2.3965  0.6643 -2.9062
    9CHTO   H76 3637   7.861   2.833   0.010 -1.3298 -0.4544 -0.4187
    9CHTO   C43 3638   7.935   3.084   0.190 -0.6117 -0.2683  0.1635
    9CHTO   H85 3639   7.894   3.173   0.236  4.3594  1.1169  2.2731
    9CHTO   O29 3640   8.036   3.114   0.089  0.0816 -0.1047  0.3548
    9CHTO   C50 3641   7.997   3.206  -0.012 -0.0150 -0.8991  0.6592
    9CHTO   H92 3642   8.020   3.307   0.025 -3.6234  0.6068 -0.8909
    9CHTO   C54 3643   8.095   3.191  -0.129  0.5288  0.3469  0.7444
    9CHTO   O36 3644   8.093   3.304  -0.211  0.0834  0.1664  0.3933
    9CHTO   H72 3645   8.107   3.277  -0.300  2.0856 -0.3939  0.8643
    9CHTO   O27 3646   7.994   3.026   0.306  0.1580  0.0028  0.5444
    9CHTO   C37 3647   8.068   3.087   0.415 -0.0659 -0.1500  0.7034
    9CHTO   H79 3648   8.106   3.007   0.480 -1.5951 -1.2142  0.3109
    9CHTO   C38 3649   8.201   3.164   0.366 -0.2294  0.1247  0.2067
    9CHTO   H80 3650   8.170   3.236   0.290 -0.2313  0.5143  0.5758
    9CHTO   O31 3651   8.295   3.071   0.312 -0.3177  0.0734 -0.0014
    9CHTO   H68 3652   8.258   2.992   0.277  0.3013  0.7326 -2.1919
    9CHTO   C39 3653   8.266   3.247   0.489 -0.0196 -0.0400 -0.4215
    9CHTO   H81 3654   8.321   3.173   0.546  1.0578 -0.4882 -2.0258
    9CHTO    N7 3655   8.372   3.347   0.446 -0.3384 -0.3153  0.1905
    9CHTO   H73 3656   8.448   3.292   0.394  0.5683 -1.1894  2.3969
    9CHTO   H74 3657   8.321   3.420   0.384  0.4163  1.2706  1.4140
    9CHTO   C40 3658   8.159   3.314   0.575  0.9242  0.2311 -0.6144
    9CHTO   H82 3659   8.123   3.407   0.530 -0.8133  0.0974  0.4412
    9CHTO   O26 3660   8.051   3.224   0.617  0.1441 -0.4003 -0.2517
    9CHTO   C41 3661   7.979   3.174   0.503 -0.7436 -0.4082 -0.1390
    9CHTO   H83 3662   7.940   3.261   0.448  0.4919  0.8553  0.9518
    9CHTO   C52 3663   7.866   3.084   0.566  0.1541 -0.4040 -0.1470
    9CHTO   O35 3664   7.763   3.171   0.642 -0.2252  0.4640 -0.0785
    9CHTO   H71 3665   7.699   3.212   0.587 -0.3000 -0.2418 -0.5172
    9CHTO   O28 3666   8.201   3.352   0.704 -0.0258 -0.2251  0.7622
    9CHTO   C42 3667   8.135   3.467   0.768  0.0860 -0.5462 -0.2219
    9CHTO   H84 3668   8.158   3.457   0.874 -0.1533  0.1099 -0.1027
    9CHTO   C44 3669   7.975   3.465   0.767 -0.2353  0.3280  0.7484
    9CHTO   H86 3670   7.939   3.439   0.667  0.9143  2.3808 -0.2440
    9CHTO   O32 3671   7.950   3.356   0.856  0.4424  0.1127  1.0781
    9CHTO   H69 3672   7.984   3.276   0.822 -1.1335  0.1024 -0.6089
    9CHTO   C48 3673   7.911   3.597   0.813 -0.0161 -0.1386 -0.4224
    9CHTO   H90 3674   7.926   3.613   0.920 -2.0837  0.1545 -0.1488
    9CHTO    N9 3675   7.760   3.587   0.790 -0.2748 -0.4505 -0.1842
    9CHTO   H77 3676   7.716   3.673   0.838 -0.7302 -0.9384  0.2873
    9CHTO   H78 3677   7.736   3.584   0.685  0.1230  1.4461 -0.3479
    9CHTO   C51 3678   7.974   3.712   0.736 -0.3777  0.7198 -0.0200
    9CHTO   H93 3679   7.972   3.693   0.629  1.5876  0.7983 -0.0873
    9CHTO   O30 3680   8.111   3.726   0.785  0.7412  0.1318  0.4603
    9CHTO   C46 3681   8.188   3.607   0.725  0.3277 -0.7371  0.6029
    9CHTO   H88 3682   8.191   3.614   0.616 -0.2786  2.0130  0.7226
    9CHTO   C53 3683   8.342   3.614   0.758  0.1938 -0.4847  0.0571
    9CHTO   O72 3684   8.398   3.741   0.726  0.3532 -0.0355 -0.5159
    9CHTO  H199 3685   8.464   3.732   0.659  0.9860 -0.6733  0.1853
    9CHTO   O22 3686   7.918   3.846   0.769  0.1235  0.3185  0.1258
    9CHTO   C31 3687   7.904   3.952   0.671 -0.6974 -0.5604  0.1480
    9CHTO   H59 3688   7.847   4.034   0.720 -1.6096 -0.7868 -0.5176
    9CHTO   C29 3689   8.044   4.013   0.639  0.2868 -0.3419 -0.8887
    9CHTO   H57 3690   8.109   3.938   0.592 -1.1062 -1.9986 -0.2365
    9CHTO   O21 3691   8.107   4.052   0.765 -0.0312  0.5057 -0.3829
    9CHTO   H37 3692   8.081   3.987   0.828 -0.6926 -1.1659 -2.3003
    9CHTO   C27 3693   8.038   4.141   0.543 -0.6718 -0.5716 -0.1698
    9CHTO   H55 3694   7.967   4.215   0.583 -0.3468 -0.7764  0.8061
    9CHTO    N5 3695   8.172   4.206   0.510 -0.1666  1.1982  0.1785
    9CHTO   H43 3696   8.200   4.167   0.413  0.6762  0.8122  0.5809
    9CHTO   H44 3697   8.238   4.164   0.584 -1.6518 -1.0389  0.2697
    9CHTO   C25 3698   7.963   4.091   0.414 -0.7218  0.0617 -0.2899
    9CHTO   H53 3699   8.020   4.017   0.355 -1.5038  0.1830 -1.2099
    9CHTO   O17 3700   7.830   4.047   0.448  0.2690 -0.5480 -0.2027
    9CHTO   C32 3701   7.831   3.926   0.533  0.2254  0.0919  0.2015
    9CHTO   H60 3702   7.880   3.842   0.485  0.0501 -2.0497  3.5888
    9CHTO   C36 3703   7.686   3.887   0.556  0.3045  0.5063 -0.8047
    9CHTO   O25 3704   7.625   3.843   0.430  0.7312 -0.2061  0.9582
    9CHTO   H40 3705   7.579   3.764   0.448 -1.6079  0.8469 -0.1599
    9CHTO   O15 3706   7.957   4.199   0.320 -0.1569  0.3179 -0.4650
    9CHTO   C19 3707   7.891   4.217   0.191  0.8808 -0.7633 -0.0590
    9CHTO   H47 3708   7.939   4.307   0.148 -0.5539 -1.0549 -2.4245
    9CHTO   C20 3709   7.914   4.097   0.094  0.4053  0.3359 -0.2039
    9CHTO   H48 3710   7.880   4.002   0.138  1.3735 -0.3935 -1.0195
    9CHTO   O19 3711   8.052   4.104   0.071 -0.1330  0.1481  0.4034
    9CHTO   H35 3712   8.105   4.080   0.144 -0.0952  1.0991  0.6955
    9CHTO   C21 3713   7.827   4.122  -0.036  0.6012  0.5291  0.2501
    9CHTO   H49 3714   7.867   4.206  -0.092 -1.7898  0.9492 -0.9122
    9CHTO    N4 3715   7.849   4.015  -0.134 -0.3027  0.1445 -0.0327
    9CHTO   H41 3716   7.828   3.916  -0.094 -0.0768  0.6415  1.3661
    9CHTO   H42 3717   7.946   4.019  -0.182 -0.2509 -0.6378 -0.0103
    9CHTO   C22 3718   7.675   4.144  -0.005 -0.4580 -0.5829  0.2725
    9CHTO   H50 3719   7.643   4.051   0.043  0.3895 -1.0675 -0.1008
    9CHTO   O14 3720   7.668   4.265   0.074 -0.8969 -0.0591  0.0490
    9CHTO   C23 3721   7.741   4.254   0.199 -0.0577  0.0470 -0.4737
    9CHTO   H51 3722   7.687   4.191   0.271 -0.5655  0.3693 -0.5773
    9CHTO   C34 3723   7.723   4.400   0.244 -0.0821  0.4692  0.5000
    9CHTO   O23 3724   7.589   4.427   0.261  0.0277  0.4412  1.0043
    9CHTO   H38 3725   7.566   4.475   0.184 -2.4465  1.7412  2.4982
    9CHTO   O16 3726   7.596   4.181  -0.124  0.0075  0.7100  0.0163
    9CHTO   C24 3727   7.457   4.105  -0.145 -0.2377 -0.4143 -0.0346
    9CHTO   H52 3728   7.420   4.072  -0.048 -0.7891  0.5250  0.0770
    9CHTO   C26 3729   7.465   3.977  -0.233  0.9471 -0.1436  0.1060
    9CHTO   H54 3730   7.527   3.997  -0.323  0.7022  0.4944  0.0762
    9CHTO   O20 3731   7.544   3.878  -0.176 -0.5003 -0.8428 -0.1546
    9CHTO   H36 3732   7.568   3.824  -0.249 -0.5354  0.6614 -1.2833
    9CHTO   C30 3733   7.325   3.924  -0.265  0.4247  0.2842 -0.1688
    9CHTO   H58 3734   7.285   3.864  -0.182 -0.5942  0.6695 -0.3722
    9CHTO    N6 3735   7.324   3.822  -0.376  0.0756 -0.1816  0.0678
    9CHTO   H45 3736   7.321   3.875  -0.469  0.7253 -0.7577 -0.2849
    9CHTO   H46 3737   7.243   3.749  -0.375 -0.3683  0.3061 -0.0764
    9CHTO   C33 3738   7.213   4.033  -0.290  0.1292  0.4255 -0.4046
    9CHTO   H61 3739   7.223   4.074  -0.391 -0.5081  0.5638 -0.4147
    9CHTO   O18 3740   7.227   4.144  -0.193  0.2862  0.1513  0.0486
    9CHTO   C28 3741   7.355   4.206  -0.203  0.4976 -0.1850  0.8989
    9CHTO   H56 3742   7.387   4.229  -0.304 -0.5917  0.5887  0.7275
    9CHTO   C35 3743   7.359   4.336  -0.119  0.4668 -0.1025 -0.4584
    9CHTO   O24 3744   7.257   4.433  -0.154 -0.0461  0.2933 -0.5712
    9CHTO   H39 3745   7.182   4.384  -0.182 -0.2333  0.8863 -1.1061
    9CHTO    O9 3746   7.081   3.966  -0.284 -0.0478  0.0127 -0.1859
    9CHTO   C13 3747   6.958   4.044  -0.347 -0.0930  0.0219  0.0951
    9CHTO   H26 3748   6.983   4.103  -0.437 -2.7832  0.0455 -0.6802
    9CHTO   C11 3749   6.907   4.141  -0.231 -0.0480  0.3201 -0.5580
    9CHTO   H24 3750   6.974   4.228  -0.234  0.5151 -0.0929 -0.1378
    9CHTO    O8 3751   6.922   4.066  -0.107  0.7346  0.3447  0.2567
    9CHTO    H3 3752   6.979   4.112  -0.049  1.8827 -0.9289  0.1577
    9CHTO    C9 3753   6.759   4.192  -0.253 -0.4319 -0.0325  0.2156
    9CHTO   H22 3754   6.766   4.246  -0.348  1.4511  0.2171  0.4874
    9CHTO    N2 3755   6.715   4.292  -0.148 -0.0512 -0.2719  0.5634
    9CHTO   H10 3756   6.673   4.375  -0.204 -0.4797  0.0518  1.3557
    9CHTO   H11 3757   6.798   4.315  -0.083  0.7081 -0.4790 -0.3243
    9CHTO    C7 3758   6.661   4.075  -0.273 -0.8542 -0.5134  0.2501
    9CHTO   H20 3759   6.563   4.123  -0.292  0.2012  1.6639  0.1674
    9CHTO    O4 3760   6.713   3.992  -0.378  0.3782 -0.3158  0.4897
    9CHTO   C14 3761   6.845   3.936  -0.382  0.5610  0.4868  0.1900
    9CHTO   H27 3762   6.858   3.907  -0.488  0.0204 -0.6887  0.4359
    9CHTO   C18 3763   6.852   3.803  -0.302  0.5133  0.0440 -0.3282
    9CHTO   O13 3764   6.935   3.703  -0.370 -0.4804  0.2518 -0.6054
    9CHTO    H7 3765   6.899   3.696  -0.456 -0.4085 -0.0134 -0.6145
    9CHTO    O2 3766   6.648   3.986  -0.153  0.3318  0.0323  0.1989
    9CHTO    C1 3767   6.519   3.932  -0.113 -0.9578  0.5130  0.4810
    9CHTO   H14 3768   6.541   3.839  -0.057 -1.7426 -0.6034 -1.0465
    9CHTO    C2 3769   6.420   3.889  -0.232  0.1974 -0.3887  0.1097
    9CHTO   H15 3770   6.381   3.980  -0.280 -0.9740 -1.3759 -0.8735
    9CHTO    O6 3771   6.479   3.805  -0.328  0.5615 -0.0935 -0.2103
    9CHTO    H1 3772   6.516   3.725  -0.296  2.6057  1.3580  1.1903
    9CHTO    C3 3773   6.295   3.818  -0.158 -0.2540 -0.0667  0.4533
    9CHTO   H16 3774   6.315   3.730  -0.095 -0.0935  0.1640  0.7261
    9CHTO    N1 3775   6.195   3.774  -0.256 -0.5221  0.4254 -0.3516
    9CHTO    H8 3776   6.117   3.726  -0.200  1.4741 -1.4622  0.9042
    9CHTO    H9 3777   6.238   3.695  -0.316 -0.2815  0.3261 -0.0512
    9CHTO    C4 3778   6.226   3.926  -0.066 -0.0560 -0.2953 -0.1352
    9CHTO   H17 3779   6.193   4.009  -0.128 -1.5337 -0.4940  0.3601
    9CHTO    O1 3780   6.325   3.967   0.025  0.3693  0.6148 -0.1583
    9CHTO    C5 3781   6.450   4.029  -0.017 -0.1041 -0.3235  0.3450
    9CHTO   H18 3782   6.431   4.125  -0.063  1.5661 -1.2971 -2.5026
    9CHTO   C16 3783   6.529   4.049   0.117 -0.0298  0.3244  0.2854
    9CHTO   O11 3784   6.650   4.123   0.111  0.1236  0.5397  0.0999
    9CHTO    H5 3785   6.705   4.074   0.053 -2.3183 -2.6646  0.3769
    9CHTO    O3 3786   6.112   3.880   0.013 -0.5928 -0.1665 -0.2219
    9CHTO    C6 3787   6.008   3.983   0.033  0.5547  0.0999  0.0577
    9CHTO   H19 3788   6.040   4.083   0.005 -1.3433  1.0554  1.1610
    9CHTO    C8 3789   5.889   3.946  -0.063 -0.2182 -0.8685  0.9088
    9CHTO   H21 3790   5.864   3.840  -0.050 -1.9085 -0.9084 -2.2252
    9CHTO    O7 3791   5.923   3.964  -0.202  0.5607  0.7499  0.3380
    9CHTO    H2 3792   5.896   4.046  -0.239 -3.3532 -0.5194  0.1944
    9CHTO   C12 3793   5.756   4.029  -0.032  0.5697 -0.2183 -0.7327
    9CHTO   H25 3794   5.778   4.133  -0.065  0.7581 -0.3360 -0.9804
    9CHTO    N3 3795   5.636   3.979  -0.111 -0.7256 -0.6466 -0.0160
    9CHTO   H12 3796   5.555   3.931  -0.058 -0.2187 -1.3785  0.1125
    9CHTO   H13 3797   5.603   4.059  -0.175  1.9893 -1.0329 -1.9599
    9CHTO   C15 3798   5.728   4.030   0.129 -0.3548  0.0055 -0.2579
    9CHTO   H28 3799   5.687   3.934   0.161 -2.6185  0.7910 -0.6880
    9CHTO   O10 3800   5.628   4.151   0.168 -0.0551  0.7448 -0.5792
    9CHTO    H4 3801   5.622   4.211   0.096 -0.3846  0.8317 -0.4832
    9CHTO    O5 3802   5.849   4.076   0.203 -0.5529  0.3474 -0.2812
    9CHTO   C10 3803   5.962   3.987   0.186  0.1757  0.0671  0.3889
    9CHTO   H23 3804   5.934   3.893   0.234 -2.0884 -0.4020 -1.7941
    9CHTO   C17 3805   6.074   4.049   0.274  0.0732 -0.1371  0.0529
    9CHTO   O12 3806   6.191   3.960   0.288 -0.0290  0.3476 -0.2653
    9CHTO    H6 3807   6.194   3.909   0.367 -0.6879 -0.9132 -1.0358
   10CHTO  H203 3808   5.457   6.311   2.034  1.0866 -1.2824  1.1502
   10CHTO   O82 3809   5.434   6.360   2.110 -0.1682 -0.0546 -0.0159
   10CHTO  C123 3810   5.297   6.408   2.095 -0.1997 -0.2033  0.1471
   10CHTO  H227 3811   5.263   6.410   1.990 -1.3297 -1.2433  0.4798
   10CHTO   O77 3812   5.216   6.300   2.162  0.1497 -0.6745  0.1629
   10CHTO  C118 3813   5.071   6.302   2.151  0.4559 -0.3712 -0.0538
   10CHTO  H222 3814   5.042   6.283   2.046 -1.2193  3.0254 -0.2728
   10CHTO  C125 3815   5.009   6.179   2.242  0.5321 -0.4742  0.0650
   10CHTO   O84 3816   5.051   6.060   2.168  0.8490  0.1711  0.2043
   10CHTO  H205 3817   4.992   6.042   2.098  0.0515 -1.6637  1.3177
   10CHTO  C114 3818   5.026   6.442   2.203 -0.4811 -0.5116  0.1986
   10CHTO  H218 3819   5.042   6.452   2.311 -1.5390  0.2472  0.2904
   10CHTO  C116 3820   5.097   6.564   2.129 -0.0989 -0.2971 -0.1870
   10CHTO  H220 3821   5.077   6.549   2.020 -3.2234  1.7169  0.0443
   10CHTO   O79 3822   5.040   6.689   2.159 -0.3778  0.2453 -0.1292
   10CHTO  H201 3823   5.014   6.692   2.249 -0.7140 -4.5396  0.0234
   10CHTO  C120 3824   5.255   6.553   2.159 -0.2774  0.3831 -0.5930
   10CHTO  H224 3825   5.260   6.545   2.269  0.5782  1.0333 -0.5863
   10CHTO   N21 3826   5.338   6.663   2.109  0.3630 -0.4936 -0.6427
   10CHTO  H211 3827   5.334   6.741   2.183 -0.9196  0.3611 -1.6079
   10CHTO  H212 3828   5.441   6.633   2.093  0.2516 -1.6533  0.7033
   10CHTO   O75 3829   4.886   6.452   2.182  0.1463 -0.0675  0.0903
   10CHTO  C112 3830   4.801   6.524   2.283  0.1542  0.1886  0.3676
   10CHTO  H216 3831   4.859   6.609   2.320  0.4141  0.4965 -0.7131
   10CHTO   O73 3832   4.775   6.430   2.389  0.0060  0.2150 -0.1485
   10CHTO  C113 3833   4.698   6.490   2.495 -0.3177 -0.1157  0.0527
   10CHTO  H217 3834   4.747   6.580   2.536 -0.4162  0.6924 -1.5769
   10CHTO  C124 3835   4.680   6.395   2.611  0.1729  1.1215  0.2895
   10CHTO   O83 3836   4.659   6.257   2.567 -0.0137 -0.2164  0.3606
   10CHTO  H204 3837   4.653   6.197   2.638  0.6021 -1.2090 -0.3978
   10CHTO  C109 3838   4.560   6.537   2.440  0.0137  0.9466  0.4681
   10CHTO  H213 3839   4.516   6.447   2.396  1.9432  0.6280 -0.8579
   10CHTO  C110 3840   4.582   6.651   2.331  0.6290  0.0072 -0.1420
   10CHTO  H214 3841   4.628   6.740   2.372 -0.1591  0.2887  0.1486
   10CHTO   O78 3842   4.451   6.680   2.270  0.0177  0.5237  0.4437
   10CHTO  H200 3843   4.439   6.766   2.236  1.9360  0.0057 -1.6053
   10CHTO  C111 3844   4.670   6.584   2.221  0.4133  0.1014  0.0103
   10CHTO  H215 3845   4.613   6.501   2.176 -2.0816  1.3278  0.8791
   10CHTO   N19 3846   4.693   6.678   2.107 -0.1289  0.2574 -0.2435
   10CHTO  H207 3847   4.763   6.618   2.050  1.2380  1.5250  0.0534
   10CHTO  H208 3848   4.604   6.692   2.048 -0.2092  1.4791  0.1531
   10CHTO   O74 3849   4.470   6.597   2.544  0.1881  0.0809 -0.3283
   10CHTO  C115 3850   4.305   6.587   2.511 -0.2743  0.4415  0.2243
   10CHTO  H219 3851   4.275   6.650   2.427  0.8149 -1.5376 -1.6938
   10CHTO   O76 3852   4.259   6.438   2.464 -0.2915 -0.3889 -0.1212
   10CHTO  C122 3853   4.274   6.349   2.576 -0.2204  0.6919 -0.8357
   10CHTO  H226 3854   4.380   6.350   2.599  0.0504 -1.7736 -1.8461
   10CHTO  C126 3855   4.240   6.203   2.532 -0.2818 -0.5590  0.0207
   10CHTO   O85 3856   4.341   6.162   2.436 -0.2328  0.1419 -0.1943
   10CHTO  H206 3857   4.420   6.139   2.481 -0.7561  0.4681  0.9125
   10CHTO  C121 3858   4.211   6.384   2.713  0.1289 -0.8707  0.2221
   10CHTO  H225 3859   4.141   6.308   2.754  0.1629 -1.1010 -0.1554
   10CHTO   O81 3860   4.308   6.372   2.815 -0.1960 -0.5262  0.0226
   10CHTO  H202 3861   4.393   6.409   2.801 -0.0566 -1.1224 -0.7767
   10CHTO  C119 3862   4.137   6.518   2.709 -0.1484 -0.1935 -0.3494
   10CHTO  H223 3863   4.041   6.500   2.661 -0.0103 -0.7992 -0.3988
   10CHTO  C117 3864   4.224   6.637   2.635  0.2783  0.1295  0.3342
   10CHTO  H221 3865   4.300   6.683   2.698 -0.1822  0.9642  0.2994
   10CHTO   N20 3866   4.128   6.745   2.608  0.0460 -0.8224 -0.3797
   10CHTO  H209 3867   4.138   6.781   2.506  1.0250  0.6041  0.2072
   10CHTO  H210 3868   4.128   6.829   2.675  0.5574 -1.8503  0.9187
   10CHTO   O80 3869   4.079   6.558   2.876  0.1325  0.8427 -0.3870
   10CHTO  C103 3870   3.940   6.576   2.915 -0.1402 -0.0880  0.1051
   10CHTO  H190 3871   3.936   6.615   3.017 -0.9721  0.4560 -0.1319
   10CHTO  C101 3872   3.848   6.657   2.818 -0.5000  0.5196 -0.4593
   10CHTO  H188 3873   3.853   6.613   2.718 -1.0737 -0.0401 -0.2404
   10CHTO   O68 3874   3.907   6.804   2.828 -0.5368 -0.0597  0.5334
   10CHTO  H168 3875   3.900   6.853   2.749 -0.6290 -2.2650 -0.8719
   10CHTO   C99 3876   3.701   6.653   2.867 -0.4980 -0.6621  0.2840
   10CHTO  H186 3877   3.713   6.709   2.963 -0.4180 -1.7493  0.9108
   10CHTO   N17 3878   3.602   6.721   2.774 -0.4940  0.3766 -1.1230
   10CHTO  H174 3879   3.620   6.827   2.774 -2.6320  0.7849  0.0502
   10CHTO  H175 3880   3.609   6.679   2.675  0.2675 -1.0271 -0.4907
   10CHTO   C97 3881   3.652   6.509   2.896  0.6224 -0.4319 -0.0494
   10CHTO  H184 3882   3.616   6.463   2.803  1.1431  1.2450 -1.0883
   10CHTO   O64 3883   3.748   6.428   2.967 -0.0052 -0.1489 -0.1399
   10CHTO  C104 3884   3.879   6.425   2.921  0.2965 -0.6849 -0.6506
   10CHTO  H191 3885   3.887   6.378   2.823 -0.6428 -3.3549  0.5029
   10CHTO  C108 3886   3.968   6.342   3.006 -0.6131 -0.2731 -0.5183
   10CHTO   O71 3887   3.944   6.209   2.987 -0.9599  0.4085 -0.3976
   10CHTO  H171 3888   4.018   6.167   3.026 -0.0351  1.0880 -1.3884
   10CHTO   O62 3889   3.538   6.523   2.990 -0.7056 -0.2385 -0.0354
   10CHTO   C91 3890   3.459   6.407   3.029  0.0477 -0.2078  0.0383
   10CHTO  H178 3891   3.457   6.343   2.941  0.5901  1.0343 -0.8955
   10CHTO   C92 3892   3.309   6.449   3.048  0.3936 -0.0665  0.4471
   10CHTO  H179 3893   3.284   6.522   2.969 -0.7382  1.7847  2.4642
   10CHTO   O66 3894   3.225   6.335   3.034 -0.7746  0.3339  0.6473
   10CHTO  H166 3895   3.229   6.290   2.952 -4.6742  0.1412  0.4746
   10CHTO   C93 3896   3.283   6.504   3.198  0.9443 -0.1761 -0.9334
   10CHTO  H180 3897   3.175   6.494   3.217  1.3764 -2.7428  0.5209
   10CHTO   N16 3898   3.305   6.644   3.215  0.1119  0.4601 -0.1881
   10CHTO  H172 3899   3.281   6.683   3.313 -0.5822  3.1854 -1.4019
   10CHTO  H173 3900   3.260   6.702   3.135  0.8789  1.4960  0.1190
   10CHTO   C94 3901   3.357   6.422   3.308 -0.2813  0.2522 -0.3053
   10CHTO  H181 3902   3.439   6.476   3.355 -0.6953  0.6783 -0.0687
   10CHTO   O61 3903   3.410   6.299   3.253 -0.1351  0.3369  0.8099
   10CHTO   C95 3904   3.510   6.324   3.155 -0.4810  0.2890 -0.1014
   10CHTO  H182 3905   3.590   6.381   3.203  0.7666 -3.2370  2.2004
   10CHTO  C106 3906   3.587   6.195   3.113 -0.0713  1.4115 -0.1233
   10CHTO   O69 3907   3.626   6.105   3.216 -0.1585 -0.2815 -0.2061
   10CHTO  H169 3908   3.697   6.049   3.192  0.6915 -0.4084  2.4946
   10CHTO   O63 3909   3.246   6.374   3.422  0.8005  0.4770  0.1853
   10CHTO   C96 3910   3.325   6.314   3.565  0.0795  0.4618  0.1028
   10CHTO  H183 3911   3.325   6.403   3.628  0.4901  1.5552 -1.3771
   10CHTO   C98 3912   3.468   6.251   3.548 -0.3316  0.3138 -0.5313
   10CHTO  H185 3913   3.479   6.181   3.463 -1.3970 -0.8283  0.2615
   10CHTO   O67 3914   3.556   6.360   3.518  0.0317  0.0806 -0.6265
   10CHTO  H167 3915   3.550   6.422   3.588 -1.8330 -0.2231 -0.4948
   10CHTO  C102 3916   3.514   6.168   3.676 -0.1286  0.1839  0.1608
   10CHTO  H189 3917   3.542   6.243   3.751 -1.3320  1.1102 -0.2945
   10CHTO   N18 3918   3.643   6.092   3.657  0.0968  0.5953  0.2321
   10CHTO  H176 3919   3.717   6.161   3.620  1.2203  0.5541  2.3713
   10CHTO  H177 3920   3.638   6.011   3.585  1.9303  0.4310  0.2803
   10CHTO  C105 3921   3.404   6.071   3.735  1.0026 -0.6846  0.1428
   10CHTO  H192 3922   3.384   5.991   3.664  1.4732  0.4269 -1.2876
   10CHTO   O65 3923   3.280   6.143   3.759  0.2599  0.0526 -0.0539
   10CHTO  C100 3924   3.232   6.202   3.632 -0.3129  0.7207  0.0480
   10CHTO  H187 3925   3.215   6.123   3.557 -0.5978 -0.8144  1.7088
   10CHTO  C107 3926   3.085   6.240   3.647  0.1151 -0.0849 -0.0243
   10CHTO   O70 3927   3.068   6.341   3.747 -0.1965 -0.3144 -0.3698
   10CHTO  H170 3928   2.976   6.360   3.760 -0.2117  0.4303 -1.5231
   10CHTO   O57 3929   3.463   6.020   3.889  0.5085  0.6731 -0.0197
   10CHTO   C85 3930   3.392   6.038   4.017 -0.3906  0.2054 -0.5952
   10CHTO  H157 3931   3.287   6.023   3.987 -0.9630  0.6985  1.1152
   10CHTO   C83 3932   3.405   6.182   4.071 -0.0608 -0.1298 -0.1824
   10CHTO  H155 3933   3.379   6.254   3.994  0.2002 -0.3361 -0.4606
   10CHTO   O56 3934   3.545   6.216   4.093  0.0447  0.0186  0.1515
   10CHTO  H135 3935   3.557   6.306   4.119 -0.8603 -0.4530  2.3672
   10CHTO   C81 3936   3.315   6.192   4.190 -0.0046 -0.2639  0.0055
   10CHTO  H153 3937   3.214   6.160   4.164  0.1148 -2.7986  2.4389
   10CHTO   N14 3938   3.297   6.331   4.244 -0.0855  0.5668 -0.7835
   10CHTO  H141 3939   3.233   6.381   4.175 -1.1674 -0.9261 -0.8888
   10CHTO  H142 3940   3.394   6.376   4.253  0.5443 -0.8683 -0.1296
   10CHTO   C79 3941   3.370   6.093   4.306  0.0379 -0.1621  0.3187
   10CHTO  H151 3942   3.290   6.099   4.380 -0.4966 -0.9242 -0.2004
   10CHTO   O52 3943   3.373   5.958   4.258 -0.1722  0.2444  0.2971
   10CHTO   C86 3944   3.439   5.937   4.127  0.0118  0.3885 -0.6984
   10CHTO  H158 3945   3.547   5.939   4.151  0.1867  1.2201 -1.5082
   10CHTO   C90 3946   3.412   5.791   4.080 -0.3877  0.1921  0.4279
   10CHTO   O60 3947   3.516   5.749   3.983  0.0802 -0.6922  0.5468
   10CHTO  H138 3948   3.465   5.694   3.925  0.0079  0.5645 -0.6004
   10CHTO   O50 3949   3.501   6.131   4.348 -0.4261  0.2410  0.4945
   10CHTO   C73 3950   3.546   6.126   4.481 -0.0185  0.8873 -0.0971
   10CHTO  H145 3951   3.499   6.050   4.544 -0.6469 -0.7696 -2.5272
   10CHTO   C74 3952   3.527   6.263   4.553  0.5154 -0.3538  0.0784
   10CHTO  H146 3953   3.419   6.288   4.551  0.8046  0.9861  0.5587
   10CHTO   O54 3954   3.560   6.246   4.691 -0.6449  0.1664 -0.0907
   10CHTO  H133 3955   3.482   6.254   4.743  0.1523 -1.2721  1.3338
   10CHTO   C75 3956   3.616   6.371   4.479  0.0355 -0.4067  0.0336
   10CHTO  H147 3957   3.581   6.388   4.376 -0.0980 -0.7042  0.0302
   10CHTO   N13 3958   3.598   6.506   4.538 -0.1200  1.0880 -0.1984
   10CHTO  H139 3959   3.675   6.574   4.505 -1.2914  3.1528  1.2302
   10CHTO  H140 3960   3.609   6.503   4.645 -2.1455 -0.7716 -0.0144
   10CHTO   C76 3961   3.763   6.326   4.461 -0.2470  0.1724 -0.6951
   10CHTO  H148 3962   3.807   6.333   4.561  0.9580  1.2260 -1.2974
   10CHTO   O49 3963   3.773   6.193   4.406  0.0550 -0.8240 -0.3650
   10CHTO   C77 3964   3.696   6.094   4.480  0.5672 -0.3030  0.0648
   10CHTO  H149 3965   3.728   6.089   4.584  1.6476 -2.7040 -0.3715
   10CHTO   C88 3966   3.743   5.963   4.417 -0.2418 -0.5248  0.0011
   10CHTO   O58 3967   3.886   5.938   4.439 -0.4152 -0.6082 -0.2264
   10CHTO  H136 3968   3.935   6.018   4.426 -0.2304 -0.3443  1.8538
   10CHTO   O51 3969   3.855   6.417   4.365 -0.7515 -0.1805 -0.1632
   10CHTO   C78 3970   3.989   6.477   4.393 -0.2463 -0.5754  0.3880
   10CHTO  H150 3971   4.063   6.459   4.312  0.0483 -0.0332  0.5368
   10CHTO   C80 3972   4.044   6.420   4.523  0.1697 -0.5697  0.1432
   10CHTO  H152 3973   3.971   6.445   4.603 -1.2566 -1.4083 -0.8870
   10CHTO   O55 3974   4.056   6.277   4.505 -0.2312  0.1027 -0.3142
   10CHTO  H134 3975   4.057   6.241   4.592  1.8510  0.0905 -0.3296
   10CHTO   C84 3976   4.184   6.493   4.562  0.2197 -0.3166 -0.0019
   10CHTO  H156 3977   4.251   6.466   4.481 -0.4885  1.9815 -1.3894
   10CHTO   N15 3978   4.254   6.443   4.681  0.3197  0.8706  0.4866
   10CHTO  H143 3979   4.318   6.518   4.724  1.9285 -0.2738  0.1667
   10CHTO  H144 3980   4.180   6.408   4.749 -1.3390 -0.2509 -1.8657
   10CHTO   C87 3981   4.169   6.648   4.563  0.0431 -0.4351 -0.0428
   10CHTO  H159 3982   4.117   6.675   4.655 -0.3855 -1.5781  0.0613
   10CHTO   O53 3983   4.095   6.696   4.435  0.1886 -0.5923  0.0928
   10CHTO   C82 3984   3.975   6.634   4.410  0.0741  0.4377 -0.4563
   10CHTO  H154 3985   3.895   6.651   4.482  0.2672  3.0759 -0.8029
   10CHTO   C89 3986   3.927   6.684   4.274 -0.2215  0.0320 -0.1685
   10CHTO   O59 3987   3.870   6.810   4.289  0.0036  0.0876  0.3208
   10CHTO  H137 3988   3.777   6.806   4.292  0.0118  0.4868  1.8690
   10CHTO   O45 3989   4.329   6.710   4.567  0.2843  0.2364 -0.5131
   10CHTO   C67 3990   4.332   6.854   4.553 -0.0217 -0.2865 -0.6527
   10CHTO  H124 3991   4.264   6.880   4.473 -1.3262 -1.1963  0.1390
   10CHTO   C65 3992   4.292   6.933   4.677  0.3921 -0.5473 -0.0337
   10CHTO  H122 3993   4.308   6.866   4.761  0.4518 -1.8035 -1.0332
   10CHTO   O44 3994   4.150   6.953   4.667 -0.0036 -0.1229 -0.2256
   10CHTO  H102 3995   4.119   7.022   4.611  1.7180  0.9601  0.1208
   10CHTO   C63 3996   4.394   7.050   4.715 -0.4453  0.0161 -0.0841
   10CHTO  H120 3997   4.487   7.006   4.751 -0.0925  0.8727  0.0635
   10CHTO   N11 3998   4.357   7.134   4.828 -0.3991  0.4785  0.2039
   10CHTO  H108 3999   4.372   7.240   4.829 -0.0843  0.4281  0.8478
   10CHTO  H109 4000   4.386   7.095   4.923 -0.0725 -1.1923 -0.5510
   10CHTO   C61 4001   4.421   7.128   4.587 -0.0104  0.2669 -0.3516
   10CHTO  H118 4002   4.495   7.205   4.613 -0.2260 -0.5352  2.8775
   10CHTO   O40 4003   4.482   7.047   4.484 -0.9800 -0.2890  0.2141
   10CHTO   C68 4004   4.479   6.896   4.500 -0.8887 -0.5381 -0.9724
   10CHTO  H125 4005   4.553   6.872   4.579  0.8920  1.6770 -1.9313
   10CHTO   C72 4006   4.521   6.836   4.365  0.1197 -0.6114  0.1192
   10CHTO   O48 4007   4.659   6.863   4.334  0.0799 -0.0236 -0.6102
   10CHTO  H105 4008   4.681   6.865   4.243 -0.9157  2.2600 -0.8357
   10CHTO   O38 4009   4.307   7.193   4.528 -0.3709 -0.5398 -0.1923
   10CHTO   C55 4010   4.312   7.314   4.440 -0.8019 -0.3318 -0.8685
   10CHTO  H112 4011   4.211   7.324   4.396 -1.5012  0.4543  0.9019
   10CHTO   C56 4012   4.430   7.308   4.326  0.4458 -0.0276  0.4736
   10CHTO  H113 4013   4.519   7.268   4.378  1.3823  1.3455 -0.0448
   10CHTO   O42 4014   4.395   7.206   4.232 -0.2425 -0.1874 -0.4175
   10CHTO  H100 4015   4.462   7.186   4.170 -0.5141 -0.2176 -0.7029
   10CHTO   C57 4016   4.460   7.452   4.267 -0.7337  0.0564 -0.7415
   10CHTO  H114 4017   4.377   7.485   4.205 -3.1756 -1.9617  1.3332
   10CHTO   N10 4018   4.590   7.448   4.194 -0.1570 -0.0395  0.0237
   10CHTO  H106 4019   4.675   7.478   4.253 -0.4140 -1.0630  0.9348
   10CHTO  H107 4020   4.588   7.500   4.099 -2.3852  0.6942  0.4516
   10CHTO   C58 4021   4.473   7.559   4.382 -0.3089  0.1329 -0.2033
   10CHTO  H115 4022   4.555   7.536   4.452 -1.1214 -1.7119  0.1924
   10CHTO   O37 4023   4.349   7.557   4.455  0.2957  0.0424 -0.0592
   10CHTO   C59 4024   4.333   7.437   4.533 -0.3778 -0.4590 -0.5670
   10CHTO  H116 4025   4.419   7.433   4.601  1.6337  1.0343 -2.9241
   10CHTO   C70 4026   4.215   7.454   4.625  0.2345 -0.8086  0.8307
   10CHTO   O46 4027   4.101   7.497   4.548  0.2242 -0.0454  0.2062
   10CHTO  H103 4028   4.027   7.526   4.598  0.5558 -3.3852  2.8361
   10CHTO   O39 4029   4.470   7.710   4.319  0.0451 -0.0416 -0.2398
   10CHTO   C60 4030   4.510   7.815   4.405 -0.1557  0.0816 -0.5058
   10CHTO  H117 4031   4.488   7.793   4.510 -1.8409  0.9607 -0.6499
   10CHTO   C62 4032   4.659   7.835   4.386  0.7982 -0.1338 -0.2371
   10CHTO  H119 4033   4.705   7.738   4.414 -0.9828 -0.8146  0.3719
   10CHTO   O43 4034   4.687   7.868   4.248 -0.1915 -0.0940 -0.0871
   10CHTO  H101 4035   4.656   7.954   4.227 -0.6672 -0.6775 -1.8736
   10CHTO   C66 4036   4.722   7.953   4.481 -0.8421  0.1690  0.2251
   10CHTO  H123 4037   4.698   7.937   4.586  0.7495  3.9114  1.2326
   10CHTO   N12 4038   4.871   7.947   4.479 -0.4316  0.7854  0.2922
   10CHTO  H110 4039   4.904   7.862   4.537 -0.8202  0.0922 -0.4908
   10CHTO  H111 4040   4.897   7.933   4.375 -0.1915 -2.2751  0.7239
   10CHTO   C69 4041   4.665   8.087   4.431  0.1861 -0.0755 -0.4673
   10CHTO  H126 4042   4.685   8.097   4.322 -0.4722 -0.3278 -0.6132
   10CHTO   O41 4043   4.520   8.084   4.463 -0.0298 -0.4645  0.0754
   10CHTO   C64 4044   4.440   7.952   4.381 -0.1251 -0.3822 -0.2876
   10CHTO  H121 4045   4.429   7.975   4.273 -0.6302  2.3546  0.3045
   10CHTO   C71 4046   4.293   7.964   4.429 -0.3382  0.7092 -0.4579
   10CHTO   O47 4047   4.235   8.086   4.384  0.3518  0.1955  0.4155
   10CHTO  H104 4048   4.147   8.110   4.406  0.8405  1.4106  1.0937
   10CHTO   O34 4049   4.717   8.208   4.492  0.0088  0.1524  0.4559
   10CHTO   C49 4050   4.739   8.353   4.558  0.1890 -0.1898 -0.2135
   10CHTO   H91 4051   4.799   8.341   4.648 -0.4911 -0.5945  0.1882
   10CHTO   C47 4052   4.606   8.417   4.595  0.3336 -0.1839  0.2089
   10CHTO   H89 4053   4.629   8.496   4.669 -0.2429  0.1822 -0.0047
   10CHTO   O33 4054   4.537   8.321   4.675  0.2764  0.6411  0.2459
   10CHTO   H70 4055   4.445   8.334   4.667  0.2231 -0.1982 -0.6584
   10CHTO   C45 4056   4.526   8.467   4.465 -0.2713  0.4899 -0.0013
   10CHTO   H87 4057   4.502   8.374   4.410  0.0358  1.1016 -1.1750
   10CHTO    N8 4058   4.397   8.534   4.503  0.6950 -0.6220  0.4773
   10CHTO   H75 4059   4.393   8.549   4.610 -0.1528  0.3781  0.3069
   10CHTO   H76 4060   4.383   8.618   4.437 -1.7268 -0.0242  1.7056
   10CHTO   C43 4061   4.616   8.549   4.361  0.3417  0.7178 -0.3275
   10CHTO   H85 4062   4.554   8.547   4.271  1.0544  0.0776 -0.8130
   10CHTO   O29 4063   4.744   8.491   4.340 -0.1534 -0.0139 -0.1246
   10CHTO   C50 4064   4.820   8.445   4.456 -0.2477 -0.1883  0.6568
   10CHTO   H92 4065   4.898   8.380   4.414 -1.7266 -1.6268  0.1032
   10CHTO   C54 4066   4.915   8.552   4.508  0.1366 -0.1571  0.4648
   10CHTO   O36 4067   4.852   8.645   4.594  0.2395  0.2341  0.0366
   10CHTO   H72 4068   4.907   8.716   4.620  1.3380 -0.8807  0.8543
   10CHTO   O27 4069   4.628   8.688   4.390  0.3305 -0.0113 -0.1314
   10CHTO   C37 4070   4.694   8.812   4.344 -0.1383 -0.2709  0.6667
   10CHTO   H79 4071   4.802   8.814   4.360 -0.0124 -0.5129 -0.1248
   10CHTO   C38 4072   4.665   8.844   4.195 -0.2369  0.3195 -0.2592
   10CHTO   H80 4073   4.557   8.839   4.173 -0.2565 -1.5247  0.1638
   10CHTO   O31 4074   4.728   8.727   4.130  0.1338  0.6765  0.2905
   10CHTO   H68 4075   4.767   8.752   4.049 -1.3469  0.2689 -0.5812
   10CHTO   C39 4076   4.725   8.987   4.147 -0.1666  0.1757  0.2280
   10CHTO   H81 4077   4.834   8.980   4.154 -0.1109  0.6009 -0.2432
   10CHTO    N7 4078   4.700   9.033   4.007  0.6882 -0.0657 -0.1561
   10CHTO   H73 4079   4.593   9.032   3.990  0.2493  0.5136  2.4252
   10CHTO   H74 4080   4.750   8.967   3.937 -1.5871  0.0697 -1.9823
   10CHTO   C40 4081   4.686   9.094   4.254  0.3843  0.3438  0.2650
   10CHTO   H82 4082   4.580   9.112   4.232  0.4710  0.6437  0.0910
   10CHTO   O26 4083   4.704   9.045   4.387  0.7633 -0.2288  0.6708
   10CHTO   C41 4084   4.630   8.929   4.426  0.4338  0.5867  0.5155
   10CHTO   H83 4085   4.526   8.929   4.390  0.8588 -1.9173 -0.8450
   10CHTO   C52 4086   4.643   8.904   4.575  0.5405  0.0384 -0.2038
   10CHTO   O35 4087   4.612   9.028   4.643  0.6126 -0.4570 -0.1082
   10CHTO   H71 4088   4.595   9.100   4.585  0.6850 -2.0063 -2.1178
   10CHTO   O28 4089   4.765   9.213   4.242 -0.1581  0.1263  0.5785
   10CHTO   C42 4090   4.707   9.340   4.282 -0.0121 -0.0171 -0.6776
   10CHTO   H84 4091   4.633   9.311   4.357 -0.1930  0.2300 -0.7614
   10CHTO   C44 4092   4.633   9.422   4.179 -0.0185  0.0813 -0.5363
   10CHTO   H86 4093   4.697   9.438   4.092 -1.1218 -0.3078 -1.4358
   10CHTO   O32 4094   4.519   9.339   4.142 -0.1601  0.2572  0.3727
   10CHTO   H69 4095   4.476   9.362   4.062 -0.3089  3.5465  1.3545
   10CHTO   C48 4096   4.597   9.564   4.231  0.0318 -0.2551  0.0743
   10CHTO   H90 4097   4.507   9.544   4.290  0.8195 -0.5133  1.2115
   10CHTO    N9 4098   4.542   9.645   4.118  0.0001  1.2607  0.0664
   10CHTO   H77 4099   4.514   9.574   4.042 -2.6427 -0.0250  2.1682
   10CHTO   H78 4100   4.615   9.716   4.082  1.8312  0.0270  1.2141
   10CHTO   C51 4101   4.716   9.640   4.305  0.0191  0.1420 -0.1387
   10CHTO   H93 4102   4.799   9.661   4.237  0.1499  0.6790  0.1889
   10CHTO   O30 4103   4.753   9.555   4.412 -0.3656 -0.6290  0.0495
   10CHTO   C46 4104   4.816   9.423   4.359  0.1106 -0.0844 -0.0683
   10CHTO   H88 4105   4.894   9.446   4.287  0.0492  0.3665  0.0050
   10CHTO   C53 4106   4.882   9.350   4.483  0.1570  0.9364 -0.5382
   10CHTO   O72 4107   4.778   9.310   4.573 -1.0282 -0.0371 -0.8843
   10CHTO  H199 4108   4.772   9.216   4.564 -2.2489 -0.3365  2.3972
   10CHTO   O22 4109   4.673   9.758   4.381 -0.1603 -0.6943 -0.2822
   10CHTO   C31 4110   4.739   9.890   4.371 -0.2628 -0.1686 -0.2047
   10CHTO   H59 4111   4.698   9.947   4.456 -0.4811 -0.4740 -0.1025
   10CHTO   C29 4112   4.889   9.881   4.406 -0.0322 -0.0478  0.6215
   10CHTO   H57 4113   4.940   9.798   4.355 -0.5938 -0.1478  0.2270
   10CHTO   O21 4114   4.895   9.854   4.546 -0.6477  0.6555  0.7020
   10CHTO   H37 4115   4.871   9.763   4.547 -0.2603  0.4534 -2.3978
   10CHTO   C27 4116   4.979  10.007   4.397  0.0766 -0.1565  0.0706
   10CHTO   H55 4117   4.946  10.078   4.475  1.7287 -1.1153  1.6877
   10CHTO    N5 4118   5.123   9.984   4.410  0.4961  0.6918  0.1775
   10CHTO   H43 4119   5.176  10.078   4.409 -0.4846  1.2727  0.8637
   10CHTO   H44 4120   5.144   9.935   4.504  3.6542  1.0302 -0.3212
   10CHTO   C25 4121   4.946  10.092   4.276 -0.0394  0.8751  0.0112
   10CHTO   H53 4122   4.977  10.049   4.179  0.1086  1.0352 -0.0124
   10CHTO   O17 4123   4.800  10.098   4.254 -0.3628  0.1133  0.3177
   10CHTO   C32 4124   4.728   9.973   4.248 -0.6479  0.2896 -0.2209
   10CHTO   H60 4125   4.761   9.906   4.169  0.5151  0.1238  0.3990
   10CHTO   C36 4126   4.587  10.006   4.200 -0.2247  0.7555  0.3268
   10CHTO   O25 4127   4.585  10.076   4.070  0.6169 -0.4075 -0.1005
   10CHTO   H40 4128   4.610  10.010   4.007  1.0690  0.7282 -1.1317
   10CHTO   O15 4129   4.990  10.235   4.299 -0.2623 -0.2291  0.5298
   10CHTO   C19 4130   5.021  10.321   4.183 -0.5050  0.4953  0.3526
   10CHTO   H47 4131   4.980  10.258   4.103  0.5113 -2.4929  2.1150
   10CHTO   C20 4132   4.963  10.463   4.184  0.1440 -0.4616 -0.1455
   10CHTO   H48 4133   4.985  10.517   4.278  1.4454 -1.1678 -0.0301
   10CHTO   O19 4134   4.821  10.470   4.174  0.4104 -0.3375 -0.1037
   10CHTO   H35 4135   4.785  10.415   4.106  0.7513 -0.5682 -0.0986
   10CHTO   C21 4136   5.033  10.559   4.072 -0.0239  0.2466  0.4258
   10CHTO   H49 4137   4.991  10.532   3.975 -0.7599 -1.4248  1.2012
   10CHTO    N4 4138   5.000  10.702   4.091 -0.3655  0.0034 -0.3282
   10CHTO   H41 4139   5.062  10.731   4.175 -0.3487 -0.3487 -0.2179
   10CHTO   H42 4140   4.897  10.727   4.110 -0.1786  2.6678 -2.6018
   10CHTO   C22 4141   5.183  10.535   4.078  0.0487 -0.7138  0.7717
   10CHTO   H50 4142   5.229  10.559   4.174 -0.0239 -0.5281  0.7590
   10CHTO   O14 4143   5.210  10.398   4.056 -0.2048  0.3426  0.1064
   10CHTO   C23 4144   5.177  10.319   4.167  0.2665  0.3530 -0.4756
   10CHTO   H51 4145   5.226  10.357   4.258  0.0545 -1.9476  0.6428
   10CHTO   C34 4146   5.227  10.183   4.126 -0.6327 -0.1476  0.0066
   10CHTO   O23 4147   5.362  10.157   4.164 -0.2445  0.4773  0.1090
   10CHTO   H38 4148   5.393  10.089   4.107 -0.2288 -0.0493  0.7443
   10CHTO   O16 4149   5.259  10.596   3.967  0.4764  0.1897 -0.3233
   10CHTO   C24 4150   5.413  10.611   3.987 -0.0515 -0.2860  0.1428
   10CHTO   H52 4151   5.448  10.570   4.082  1.5017 -1.0701 -0.7419
   10CHTO   C26 4152   5.445  10.761   3.994 -0.2202  0.1479  0.0397
   10CHTO   H54 4153   5.395  10.813   3.910 -1.3273  0.0199  0.6079
   10CHTO   O20 4154   5.376  10.816   4.113  0.5168  0.3737 -0.1925
   10CHTO   H36 4155   5.282  10.816   4.112  0.5240  0.7248 -0.9906
   10CHTO   C30 4156   5.602  10.784   4.004  0.7321 -0.5676 -0.1636
   10CHTO   H58 4157   5.630  10.736   4.099 -2.3469  0.3185  1.2537
   10CHTO    N6 4158   5.628  10.929   4.017  0.0694 -0.3339 -0.6150
   10CHTO   H45 4159   5.731  10.958   4.002 -1.2417  3.7154 -2.3289
   10CHTO   H46 4160   5.578  10.988   3.942 -0.6063  0.3048  0.3326
   10CHTO   C33 4161   5.663  10.708   3.888 -0.3637 -0.0817  0.6049
   10CHTO   H61 4162   5.625  10.750   3.794  0.7625 -0.9083 -0.2296
   10CHTO   O18 4163   5.631  10.569   3.889  0.7352 -0.2894 -0.4630
   10CHTO   C28 4164   5.491  10.542   3.871  0.2653  0.2747  0.1166
   10CHTO   H56 4165   5.459  10.579   3.773 -0.2209 -1.2620 -0.3185
   10CHTO   C35 4166   5.472  10.391   3.875  0.5397 -0.0619  0.2550
   10CHTO   O24 4167   5.365  10.341   3.795  0.6162 -0.0234  0.2691
   10CHTO   H39 4168   5.282  10.381   3.813  0.2112  0.1892 -1.9140
   10CHTO    O9 4169   5.806  10.730   3.884 -0.0952  0.3670 -0.4842
   10CHTO   C13 4170   5.869  10.736   3.739  0.1283  0.3660 -0.4578
   10CHTO   H26 4171   5.807  10.810   3.686 -1.0627 -0.2995 -0.0060
   10CHTO   C11 4172   5.864  10.591   3.660  0.2066  0.2418 -0.1418
   10CHTO   H24 4173   5.759  10.569   3.633  0.1208 -0.6991  0.9504
   10CHTO    O8 4174   5.912  10.477   3.734 -0.5857 -0.8925 -0.2056
   10CHTO    H3 4175   5.855  10.447   3.803  0.1595  1.5862  1.5517
   10CHTO    C9 4176   5.947  10.609   3.529 -0.6363  0.2247  0.5957
   10CHTO   H22 4177   5.919  10.707   3.488 -3.6475  0.2470  2.5629
   10CHTO    N2 4178   5.913  10.513   3.425  0.4148  0.2980 -0.2453
   10CHTO   H10 4179   5.809  10.524   3.399  0.3864  0.3510 -0.1085
   10CHTO   H11 4180   5.922  10.412   3.463  0.0584  0.8487  1.3323
   10CHTO    C7 4181   6.098  10.625   3.576  0.4630 -0.1781 -0.2826
   10CHTO   H20 4182   6.151  10.681   3.495  1.5594 -1.0963 -0.2156
   10CHTO    O4 4183   6.114  10.681   3.705  0.0200 -0.3104  0.0765
   10CHTO   C14 4184   6.025  10.789   3.741  0.0680  0.2766 -0.0289
   10CHTO   H27 4185   6.036  10.870   3.667  1.0586 -2.3312 -2.8165
   10CHTO   C18 4186   6.071  10.845   3.872 -0.3881 -0.3183 -0.1708
   10CHTO   O13 4187   5.994  10.958   3.910  0.3770 -0.7866 -0.1180
   10CHTO    H7 4188   5.939  10.927   3.979  1.7393 -1.5325  0.6602
   10CHTO    O2 4189   6.179  10.490   3.568 -0.2217  0.2474 -0.0298
   10CHTO    C1 4190   6.317  10.490   3.610  0.5982 -0.5364  0.2910
   10CHTO   H14 4191   6.346  10.575   3.675  0.7480  0.2776 -0.8429
   10CHTO    C2 4192   6.420  10.490   3.496 -0.4674 -0.6068 -0.6545
   10CHTO   H15 4193   6.390  10.409   3.428 -2.9936  0.7170 -1.2145
   10CHTO    O6 4194   6.410  10.612   3.419  0.3018  0.0408 -0.3550
   10CHTO    H1 4195   6.407  10.602   3.326 -2.9137  2.6783 -0.6365
   10CHTO    C3 4196   6.573  10.473   3.539  0.1078 -0.1062 -0.3898
   10CHTO   H16 4197   6.618  10.562   3.584  1.4155 -0.5461 -0.7970
   10CHTO    N1 4198   6.658  10.448   3.428  0.0393  0.6273  0.5263
   10CHTO    H8 4199   6.758  10.420   3.456 -0.3229 -1.4523 -0.1204
   10CHTO    H9 4200   6.620  10.372   3.360  0.2922  0.8839  0.0945
   10CHTO    C4 4201   6.580  10.364   3.654  0.4152 -0.0570 -0.2842
   10CHTO   H17 4202   6.565  10.266   3.608  1.4015 -0.9904  1.3766
   10CHTO    O1 4203   6.481  10.370   3.755  0.2515 -0.1669  0.3476
   10CHTO    C5 4204   6.348  10.366   3.699 -0.8954  0.3272 -0.8589
   10CHTO   H18 4205   6.339  10.269   3.650 -0.7698 -0.2299  0.1927
   10CHTO   C16 4206   6.250  10.357   3.811  0.0033  0.2761  0.1001
   10CHTO   O11 4207   6.250  10.234   3.889  0.5491  0.6539 -0.4475
   10CHTO    H5 4208   6.292  10.163   3.845 -4.1058 -0.9320 -2.6127
   10CHTO    O3 4209   6.709  10.367   3.727  0.3232 -0.2670 -0.2429
   10CHTO    C6 4210   6.762  10.239   3.762  0.4493  0.4643 -0.9863
   10CHTO   H19 4211   6.699  10.152   3.745 -1.7481  1.2058  2.6879
   10CHTO    C8 4212   6.893  10.202   3.687 -0.1137  0.7182 -0.5908
   10CHTO   H21 4213   6.969  10.277   3.710  0.8074 -0.1839 -0.6531
   10CHTO    O7 4214   6.866  10.206   3.543 -0.1389  0.0255  0.1999
   10CHTO    H2 4215   6.851  10.122   3.504 -0.7677 -0.4995  1.5515
   10CHTO   C12 4216   6.955  10.065   3.743 -0.3042  0.1450  0.1145
   10CHTO   H25 4217   6.886   9.986   3.704  0.4718  0.0706 -1.1538
   10CHTO    N3 4218   7.088  10.037   3.676  0.1406  0.0495 -0.6303
   10CHTO   H12 4219   7.171  10.033   3.744 -2.6825  1.4203  3.0567
   10CHTO   H13 4220   7.082   9.949   3.613 -1.5275 -2.3338  2.7107
   10CHTO   C15 4221   6.951  10.068   3.895  0.0481 -0.0885 -0.3910
   10CHTO   H28 4222   7.033  10.125   3.937 -0.5646 -0.1158  0.8694
   10CHTO   O10 4223   6.955   9.933   3.958 -0.2314  0.7405  0.7694
   10CHTO    H4 4224   7.037   9.887   3.964  0.9516  2.9233  1.9256
   10CHTO    O5 4225   6.827  10.105   3.958 -0.3704 -0.0787 -0.3979
   10CHTO   C10 4226   6.792  10.237   3.917  0.5094 -0.1302 -0.6290
   10CHTO   H23 4227   6.875  10.302   3.942  0.9960 -0.4902 -1.2739
   10CHTO   C17 4228   6.677  10.272   4.010 -0.2641 -1.1592  0.7032
   10CHTO   O12 4229   6.732  10.308   4.140 -0.0809 -0.4243 -0.2633
   10CHTO    H6 4230   6.771  10.231   4.176 -2.4358 -1.7276 -0.4289
   11CHTO  H203 4231   7.954   5.167   0.355 -1.0548  1.0058  0.7663
   11CHTO   O82 4232   7.894   5.215   0.300 -0.2571  0.8265 -0.2779
   11CHTO  C123 4233   7.895   5.358   0.326 -0.5125 -0.0288 -0.1489
   11CHTO  H227 4234   7.946   5.414   0.247 -1.6097  2.4084  0.8336
   11CHTO   O77 4235   7.751   5.371   0.323 -0.2066 -0.3683  0.2535
   11CHTO  C118 4236   7.700   5.499   0.323 -0.2546 -0.9318 -0.1934
   11CHTO  H222 4237   7.750   5.574   0.261  0.2997 -1.0052  0.1556
   11CHTO  C125 4238   7.550   5.492   0.291 -0.0313 -0.7235 -0.0223
   11CHTO   O84 4239   7.531   5.430   0.168 -0.1952  0.1109 -1.0875
   11CHTO  H205 4240   7.452   5.382   0.152 -1.1179  1.8381 -1.9154
   11CHTO  C114 4241   7.711   5.548   0.465 -0.2086  0.4549 -0.1414
   11CHTO  H218 4242   7.650   5.482   0.527 -0.3011  1.7307  1.1580
   11CHTO  C116 4243   7.863   5.542   0.507 -0.0859 -0.9751  0.2326
   11CHTO  H220 4244   7.911   5.623   0.447 -2.0086 -0.0703 -0.1066
   11CHTO   O79 4245   7.881   5.570   0.643  0.3242 -0.2306 -0.4390
   11CHTO  H201 4246   7.863   5.507   0.710  2.5880 -0.3848  0.0722
   11CHTO  C120 4247   7.938   5.404   0.467  0.3268 -0.0057 -0.1026
   11CHTO  H224 4248   7.904   5.331   0.543 -0.5541  1.5727  1.0577
   11CHTO   N21 4249   8.085   5.407   0.483  0.0398  0.1872  0.2557
   11CHTO  H211 4250   8.110   5.512   0.472 -0.2851  0.3067  0.6206
   11CHTO  H212 4251   8.101   5.369   0.583 -1.5110 -0.3254  0.3305
   11CHTO   O75 4252   7.662   5.686   0.472  0.5759 -0.1275  0.1250
   11CHTO  C112 4253   7.558   5.714   0.611 -0.6087 -0.5292  1.2147
   11CHTO  H216 4254   7.595   5.676   0.707  2.0297 -0.2092  0.3803
   11CHTO   O73 4255   7.423   5.667   0.581 -0.2934 -0.9439 -0.4926
   11CHTO  C113 4256   7.330   5.719   0.677 -0.2834 -0.6183 -0.4719
   11CHTO  H217 4257   7.363   5.689   0.779  0.3594  0.5897 -0.3148
   11CHTO  C124 4258   7.199   5.641   0.650 -1.0804 -0.0584  0.2764
   11CHTO   O83 4259   7.208   5.503   0.665  0.6076  0.4029  0.3308
   11CHTO  H204 4260   7.141   5.461   0.716  0.0962  1.7032  0.7293
   11CHTO  C109 4261   7.318   5.870   0.687  0.8959 -0.2529 -0.0468
   11CHTO  H213 4262   7.293   5.907   0.586  0.3430 -0.1407  0.1259
   11CHTO  C110 4263   7.453   5.928   0.722 -0.1549  0.8194 -0.4306
   11CHTO  H214 4264   7.477   5.907   0.826 -0.7586 -1.8719 -0.8076
   11CHTO   O78 4265   7.443   6.068   0.711  0.7156  0.5499 -0.5470
   11CHTO  H200 4266   7.521   6.103   0.749 -0.2918 -1.0658  3.2160
   11CHTO  C111 4267   7.568   5.873   0.630  0.1189 -1.1854  0.3351
   11CHTO  H215 4268   7.548   5.905   0.526  1.6308  1.8866  0.9332
   11CHTO   N19 4269   7.706   5.917   0.657 -0.0087 -0.5701 -0.5242
   11CHTO  H207 4270   7.724   6.003   0.593 -1.3906  0.3907  0.3437
   11CHTO  H208 4271   7.713   5.949   0.760 -1.0970  0.0510 -0.6281
   11CHTO   O74 4272   7.210   5.905   0.784 -0.2351 -0.6857  0.1595
   11CHTO  C115 4273   7.065   5.940   0.710  0.1691 -0.0924 -1.0732
   11CHTO  H219 4274   7.074   5.952   0.602 -2.2702  1.7420 -1.0991
   11CHTO   O76 4275   6.961   5.828   0.736 -0.1606  0.1320  0.2691
   11CHTO  C122 4276   6.830   5.845   0.680  0.1444  0.3355  0.8634
   11CHTO  H226 4277   6.765   5.763   0.711 -1.9574  1.6977  0.1245
   11CHTO  C126 4278   6.837   5.848   0.513  0.5574  0.1540  0.2413
   11CHTO   O85 4279   6.718   5.813   0.450  0.5277 -0.2257 -0.2737
   11CHTO  H206 4280   6.708   5.720   0.454  1.0635 -0.3183 -0.9750
   11CHTO  C121 4281   6.767   5.972   0.741 -0.3440 -0.1529  0.3739
   11CHTO  H225 4282   6.677   5.982   0.677  0.0751  0.4985 -0.1283
   11CHTO   O81 4283   6.736   5.931   0.870 -0.4425  0.4350  0.2250
   11CHTO  H202 4284   6.661   5.981   0.896 -1.0504  0.6618 -1.8784
   11CHTO  C119 4285   6.859   6.097   0.728  0.1082  0.4636  0.5181
   11CHTO  H223 4286   6.861   6.125   0.623  0.4158 -0.6327  0.2184
   11CHTO  C117 4287   7.005   6.067   0.776 -0.1054  0.0073  0.8260
   11CHTO  H221 4288   7.031   6.067   0.882  1.8710  1.5048  0.3765
   11CHTO   N20 4289   7.098   6.180   0.733 -0.2969 -0.3124  0.2059
   11CHTO  H209 4290   7.196   6.155   0.770 -0.7242 -0.7384  1.0708
   11CHTO  H210 4291   7.104   6.213   0.630 -0.1667 -0.3261  0.2085
   11CHTO   O80 4292   6.797   6.234   0.796  0.1346 -0.1106 -0.2045
   11CHTO  C103 4293   6.769   6.233   0.970  0.5807 -0.3798  0.5013
   11CHTO  H190 4294   6.747   6.132   1.006 -1.8452 -0.4067 -0.9393
   11CHTO  C101 4295   6.879   6.306   1.057 -0.0308 -0.2605  0.4854
   11CHTO  H188 4296   6.920   6.393   1.006  1.3706 -2.2257 -1.8077
   11CHTO   O68 4297   6.978   6.211   1.074 -0.6349  0.2093 -0.3906
   11CHTO  H168 4298   7.056   6.243   1.115 -0.8987  1.2397 -0.6722
   11CHTO   C99 4299   6.812   6.351   1.193 -0.1536  0.4283 -0.5263
   11CHTO  H186 4300   6.784   6.263   1.255  0.6625  2.0022  2.1429
   11CHTO   N17 4301   6.908   6.420   1.278 -0.5620 -0.6070  0.6210
   11CHTO  H174 4302   6.872   6.455   1.373  2.1181  1.5571  0.8945
   11CHTO  H175 4303   6.985   6.345   1.289 -0.2390 -0.3200  0.3311
   11CHTO   C97 4304   6.681   6.431   1.167 -0.7172  0.2267  0.1350
   11CHTO  H184 4305   6.703   6.525   1.114  2.2292  0.1301  1.1025
   11CHTO   O64 4306   6.588   6.344   1.093  0.3840 -0.1771 -0.2429
   11CHTO  C104 4307   6.631   6.306   0.965  0.7389  0.3302  0.1401
   11CHTO  H191 4308   6.638   6.397   0.906 -0.4845 -0.5835 -1.4399
   11CHTO  C108 4309   6.520   6.224   0.896  0.1847 -0.7663 -0.0671
   11CHTO   O71 4310   6.510   6.086   0.935 -0.0281 -0.6646 -0.6883
   11CHTO  H171 4311   6.453   6.083   1.009 -1.0160  2.5716 -1.2575
   11CHTO   O62 4312   6.611   6.451   1.288  0.1787  0.4262 -0.4931
   11CHTO   C91 4313   6.513   6.555   1.279 -0.4346 -0.6627  0.1124
   11CHTO  H178 4314   6.462   6.551   1.183 -3.5374 -1.1523  1.7032
   11CHTO   C92 4315   6.588   6.692   1.280  0.2727  0.0996  0.5352
   11CHTO  H179 4316   6.689   6.684   1.237  0.6462 -0.3353  1.4824
   11CHTO   O66 4317   6.506   6.779   1.204  0.4475 -0.2987  0.2413
   11CHTO  H166 4318   6.550   6.846   1.156 -2.1584  0.0701 -1.7720
   11CHTO   C93 4319   6.600   6.758   1.419  0.0360 -0.6539 -0.4686
   11CHTO  H180 4320   6.625   6.863   1.398  1.5436 -1.4156 -2.6241
   11CHTO   N16 4321   6.705   6.706   1.512  1.0612 -0.0950  0.0362
   11CHTO  H172 4322   6.664   6.691   1.611  0.0327 -0.7073 -0.4757
   11CHTO  H173 4323   6.796   6.764   1.516  1.0697 -0.2046  2.4684
   11CHTO   C94 4324   6.454   6.756   1.491 -0.0432  0.6571 -0.1022
   11CHTO  H181 4325   6.462   6.722   1.594 -0.1406  0.7057 -0.0783
   11CHTO   O61 4326   6.354   6.677   1.418 -0.8445 -0.1797 -0.4086
   11CHTO   C95 4327   6.397   6.548   1.383 -0.2635 -0.9426 -0.3650
   11CHTO  H182 4328   6.426   6.500   1.477 -0.1639  0.6028  0.4131
   11CHTO  C106 4329   6.278   6.457   1.336  0.0774  0.2225  0.3210
   11CHTO   O69 4330   6.340   6.325   1.321  0.1260  0.2745 -0.1185
   11CHTO  H169 4331   6.389   6.322   1.241 -0.2184  0.7094 -0.3491
   11CHTO   O63 4332   6.407   6.893   1.487 -0.0376  0.1357  0.5232
   11CHTO   C96 4333   6.442   6.995   1.622  0.0686  0.4693 -0.5251
   11CHTO  H183 4334   6.492   6.939   1.702  0.9920 -0.7262 -1.9218
   11CHTO   C98 4335   6.309   7.058   1.677  0.2463 -0.2497  0.4367
   11CHTO  H185 4336   6.250   7.115   1.604  0.7420  1.1283  1.1105
   11CHTO   O67 4337   6.221   6.952   1.724 -0.2789  0.1189 -0.1186
   11CHTO  H167 4338   6.263   6.908   1.795  0.7515 -0.6152 -1.1843
   11CHTO  C102 4339   6.343   7.167   1.797  0.0172  0.3608  0.1075
   11CHTO  H189 4340   6.366   7.098   1.880 -0.9810 -1.0702 -0.7898
   11CHTO   N18 4341   6.229   7.253   1.843  0.4792 -0.4507  0.6705
   11CHTO  H176 4342   6.201   7.251   1.948  0.0188  0.9585  0.5804
   11CHTO  H177 4343   6.149   7.229   1.775 -0.5601  0.1627  1.6524
   11CHTO  C105 4344   6.468   7.248   1.757 -0.2084 -0.5122  0.2753
   11CHTO  H192 4345   6.456   7.350   1.793 -0.8372 -0.0336 -1.2329
   11CHTO   O65 4346   6.500   7.243   1.613 -0.1654  0.3170 -0.0362
   11CHTO  C100 4347   6.530   7.112   1.555  0.1064  0.1075  0.0917
   11CHTO  H187 4348   6.514   7.110   1.446  0.6795 -0.5068  0.0180
   11CHTO  C107 4349   6.683   7.089   1.566  0.3700 -0.0874  0.1128
   11CHTO   O70 4350   6.755   7.177   1.479  0.1331  0.2315 -0.0894
   11CHTO  H170 4351   6.843   7.148   1.464 -0.1968 -0.1349 -1.4070
   11CHTO   O57 4352   6.576   7.184   1.831  0.4655 -0.0298  0.3824
   11CHTO   C85 4353   6.629   7.255   1.944 -0.1413 -0.0127  0.3328
   11CHTO  H157 4354   6.541   7.307   1.988  0.2118  0.7601  0.1222
   11CHTO   C83 4355   6.722   7.371   1.893  0.2980 -0.5934 -0.3981
   11CHTO  H155 4356   6.673   7.434   1.819 -0.8236 -1.3045 -0.2773
   11CHTO   O56 4357   6.822   7.312   1.811 -0.0956  0.4579 -0.5365
   11CHTO  H135 4358   6.899   7.364   1.797 -0.3136  0.8918 -0.1106
   11CHTO   C81 4359   6.784   7.458   2.009 -0.2575  0.3421 -0.5671
   11CHTO  H153 4360   6.697   7.489   2.068  1.0051  2.4072  0.2545
   11CHTO   N14 4361   6.858   7.572   1.963  0.6050  0.2437  0.1426
   11CHTO  H141 4362   6.782   7.632   1.915 -0.0629 -1.5410 -1.0987
   11CHTO  H142 4363   6.891   7.617   2.054 -0.4775  0.1879  0.5720
   11CHTO   C79 4364   6.869   7.365   2.098 -0.4042  0.1623 -0.5436
   11CHTO  H151 4365   6.897   7.421   2.187 -0.5751 -2.1684  1.0016
   11CHTO   O52 4366   6.790   7.246   2.144 -0.5911 -0.3537 -0.3121
   11CHTO   C86 4367   6.701   7.171   2.054 -0.6594 -0.8530 -0.1899
   11CHTO  H158 4368   6.771   7.107   1.996 -0.7779  0.5752 -1.9481
   11CHTO   C90 4369   6.611   7.083   2.138  0.5746  0.2433 -0.0069
   11CHTO   O60 4370   6.677   6.980   2.205 -0.2133  0.1749 -0.0559
   11CHTO  H138 4371   6.673   6.910   2.143 -0.8751  1.1756 -1.1533
   11CHTO   O50 4372   6.990   7.316   2.027  0.2611 -0.2948 -0.0566
   11CHTO   C73 4373   7.107   7.286   2.106 -0.4418  0.4657  0.0664
   11CHTO  H145 4374   7.074   7.229   2.194 -2.7233  2.1185  0.3340
   11CHTO   C74 4375   7.173   7.417   2.155 -0.5966 -0.1891 -0.1798
   11CHTO  H146 4376   7.099   7.480   2.207  0.5320  0.1635  1.0113
   11CHTO   O54 4377   7.258   7.366   2.257 -0.4765 -0.1937  0.5893
   11CHTO  H133 4378   7.252   7.429   2.326 -1.3794  0.1931  0.1745
   11CHTO   C75 4379   7.239   7.497   2.045  0.3823 -0.7365  0.2058
   11CHTO  H147 4380   7.157   7.535   1.982 -2.7553 -2.7541  2.9658
   11CHTO   N13 4381   7.304   7.620   2.091 -0.1595  0.0040 -0.0589
   11CHTO  H139 4382   7.326   7.683   2.005 -0.0917 -0.7187 -0.5757
   11CHTO  H140 4383   7.385   7.595   2.158  0.0030  0.0628 -0.2301
   11CHTO   C76 4384   7.336   7.406   1.957 -0.6058  0.6541  0.1122
   11CHTO  H148 4385   7.426   7.384   2.014 -0.4799  2.6164  0.6947
   11CHTO   O49 4386   7.269   7.283   1.920  0.6561 -0.0366 -0.6833
   11CHTO   C77 4387   7.194   7.201   2.008  0.2039 -0.1050 -0.7099
   11CHTO  H149 4388   7.255   7.132   2.068 -1.3858  1.6001  3.0495
   11CHTO   C88 4389   7.110   7.107   1.913  0.2254  0.3201  0.2063
   11CHTO   O58 4390   7.042   7.014   1.983  0.4040 -0.9365  0.5056
   11CHTO  H136 4391   6.950   7.026   1.968  0.3051 -0.0708  1.7281
   11CHTO   O51 4392   7.368   7.482   1.816  0.0216 -0.1878 -0.3970
   11CHTO   C78 4393   7.521   7.451   1.763  0.3568  0.3337 -0.3467
   11CHTO  H150 4394   7.568   7.364   1.814 -1.5767  0.3776  1.6007
   11CHTO   C80 4395   7.612   7.571   1.791  0.1316 -0.0368 -0.3312
   11CHTO  H152 4396   7.559   7.662   1.756 -1.1741 -1.0661 -1.0761
   11CHTO   O55 4397   7.631   7.587   1.933 -0.7971  0.3123 -0.0947
   11CHTO  H134 4398   7.558   7.554   1.982  0.5405  0.5881  2.1583
   11CHTO   C84 4399   7.751   7.556   1.724  0.3384 -0.4867  0.2006
   11CHTO  H156 4400   7.798   7.463   1.755 -1.2076 -1.0534  0.8850
   11CHTO   N15 4401   7.849   7.671   1.747 -0.1216 -0.0894 -0.1279
   11CHTO  H143 4402   7.920   7.688   1.668  0.0311  0.1251  0.0576
   11CHTO  H144 4403   7.898   7.665   1.842 -0.4788 -0.3699  0.0396
   11CHTO   C87 4404   7.725   7.535   1.573  0.2220 -0.7257 -0.5089
   11CHTO  H159 4405   7.676   7.625   1.535  4.1288  1.9113  0.3349
   11CHTO   O53 4406   7.635   7.403   1.563  0.2040 -0.3032  0.0605
   11CHTO   C82 4407   7.506   7.422   1.615  0.2207  0.4358 -0.7136
   11CHTO  H154 4408   7.459   7.508   1.566 -0.3163  0.1471 -0.7157
   11CHTO   C89 4409   7.414   7.299   1.581 -0.3321 -0.5001  0.1041
   11CHTO   O59 4410   7.458   7.180   1.646 -0.3890 -0.1514  0.2725
   11CHTO  H137 4411   7.545   7.163   1.617 -1.1076  0.5545 -2.4590
   11CHTO   O45 4412   7.853   7.501   1.502  0.3436  0.4938  0.4305
   11CHTO   C67 4413   7.837   7.486   1.358 -0.0479 -0.9775  0.6760
   11CHTO  H124 4414   7.738   7.452   1.327 -0.0174 -0.5527  0.1006
   11CHTO   C65 4415   7.871   7.623   1.289 -0.4249 -0.0058  0.5948
   11CHTO  H122 4416   7.964   7.659   1.333 -0.2620 -1.0669  1.1105
   11CHTO   O44 4417   7.765   7.712   1.322  0.4386 -1.0981  0.6664
   11CHTO  H102 4418   7.716   7.745   1.249  0.8252 -1.8553  0.0500
   11CHTO   C63 4419   7.910   7.601   1.134  0.4031  0.3209  0.4301
   11CHTO  H120 4420   8.018   7.584   1.130  0.8076  3.0013 -1.7911
   11CHTO   N11 4421   7.900   7.723   1.045 -0.8538  0.6024  0.0575
   11CHTO  H108 4422   7.946   7.721   0.949 -1.4120  0.8317 -0.2196
   11CHTO  H109 4423   7.802   7.764   1.030 -1.9813 -1.4896  1.3991
   11CHTO   C61 4424   7.867   7.460   1.071  0.1881 -0.2430  0.2416
   11CHTO  H118 4425   7.918   7.443   0.975 -0.5229  1.5539 -0.4757
   11CHTO   O40 4426   7.900   7.345   1.158  0.4242  0.7225 -0.2840
   11CHTO   C68 4427   7.935   7.375   1.298  0.4455  0.2207  0.7543
   11CHTO  H125 4428   8.043   7.397   1.310  0.9704 -1.6513 -0.3052
   11CHTO   C72 4429   7.915   7.244   1.377  0.1735  0.0682  0.8749
   11CHTO   O48 4430   7.790   7.181   1.372  0.3722  0.8097  0.0127
   11CHTO  H105 4431   7.737   7.205   1.445  1.4714  1.4847  0.5864
   11CHTO   O38 4432   7.725   7.454   1.044 -0.1029  0.1847  0.4872
   11CHTO   C55 4433   7.684   7.357   0.949  0.0693  0.2938  0.6591
   11CHTO  H112 4434   7.757   7.275   0.940 -0.5742 -0.3502  1.2967
   11CHTO   C56 4435   7.657   7.433   0.801  0.2756  0.3933  0.1075
   11CHTO  H113 4436   7.584   7.514   0.816  0.6807  0.8385 -0.3106
   11CHTO   O42 4437   7.776   7.495   0.754 -0.1844  0.1610 -1.1377
   11CHTO  H100 4438   7.796   7.581   0.785  2.5859 -0.6461 -0.5800
   11CHTO   C57 4439   7.605   7.320   0.701  0.4578  0.2605  0.5053
   11CHTO  H114 4440   7.687   7.250   0.687  1.5420  1.1018  2.4427
   11CHTO   N10 4441   7.564   7.378   0.571 -0.5323  0.3623 -0.2112
   11CHTO  H106 4442   7.589   7.300   0.500  1.8446 -0.4833  1.5030
   11CHTO  H107 4443   7.617   7.466   0.539  0.3573 -0.9936 -2.6232
   11CHTO   C58 4444   7.485   7.249   0.765  0.3154 -0.1447  0.2960
   11CHTO  H115 4445   7.404   7.322   0.787 -0.4797 -0.0864 -2.6806
   11CHTO   O37 4446   7.522   7.183   0.888 -0.3334 -0.6751  0.8947
   11CHTO   C59 4447   7.558   7.278   0.991  0.6721  0.7670 -0.1687
   11CHTO  H116 4448   7.473   7.346   1.007  0.9865  0.5567  2.6397
   11CHTO   C70 4449   7.564   7.208   1.127 -0.6345  0.6539 -0.0206
   11CHTO   O46 4450   7.552   7.297   1.237 -0.0966  0.0109 -0.2104
   11CHTO  H103 4451   7.461   7.308   1.256  0.2191 -0.3822  1.6480
   11CHTO   O39 4452   7.430   7.127   0.666  0.2735  0.2974  0.3390
   11CHTO   C60 4453   7.289   7.109   0.673 -0.4995  0.7649  0.4768
   11CHTO  H117 4454   7.242   7.178   0.744 -3.6121  1.0937 -1.8305
   11CHTO   C62 4455   7.224   7.149   0.532 -0.9637  0.8695 -0.0873
   11CHTO  H119 4456   7.239   7.258   0.528 -2.1518  0.9962 -1.3842
   11CHTO   O43 4457   7.272   7.068   0.424  0.2745  0.2978  0.8294
   11CHTO  H101 4458   7.239   6.981   0.434  1.0332  0.1496  2.1136
   11CHTO   C66 4459   7.065   7.139   0.549  1.0589 -0.3491  0.3926
   11CHTO  H123 4460   7.040   7.194   0.640 -0.2856  1.4082 -1.0234
   11CHTO   N12 4461   6.985   7.197   0.437  0.6447  0.2807 -0.7254
   11CHTO  H110 4462   7.048   7.212   0.350  1.6341 -3.5552 -0.7528
   11CHTO  H111 4463   6.891   7.147   0.419  0.9488 -0.6286  0.1861
   11CHTO   C69 4464   7.024   6.990   0.565  0.5989  1.3089 -0.2884
   11CHTO  H126 4465   7.044   6.930   0.474 -1.0378  0.4086 -0.0799
   11CHTO   O41 4466   7.097   6.931   0.691 -0.1893  0.3156  0.0649
   11CHTO   C64 4467   7.250   6.966   0.711  0.3618 -0.4138  0.5488
   11CHTO  H121 4468   7.305   6.896   0.646 -1.0216  1.5611 -2.9022
   11CHTO   C71 4469   7.302   6.936   0.865  0.9047  0.9345 -0.3328
   11CHTO   O47 4470   7.235   7.012   0.967 -0.0675 -0.3767 -0.1782
   11CHTO  H104 4471   7.257   7.103   0.964  1.9199 -0.8318  0.2438
   11CHTO   O34 4472   6.872   6.982   0.591 -0.3469 -0.0324 -0.5927
   11CHTO   C49 4473   6.787   6.842   0.599  0.2825  0.5157 -0.2365
   11CHTO   H91 4474   6.837   6.777   0.527  0.3738  1.5706 -1.1472
   11CHTO   C47 4475   6.644   6.864   0.547 -0.0677 -0.0315 -1.3898
   11CHTO   H89 4476   6.599   6.763   0.532 -2.7421  0.6207  1.5065
   11CHTO   O33 4477   6.648   6.929   0.418 -0.1402 -0.5145  0.0483
   11CHTO   H70 4478   6.624   6.880   0.342  1.5882 -4.0221  1.6550
   11CHTO   C45 4479   6.563   6.949   0.660 -0.1928 -0.0308 -0.3640
   11CHTO   H87 4480   6.620   7.038   0.689  0.2240  0.2063 -1.8819
   11CHTO    N8 4481   6.430   6.991   0.611 -0.4815  0.7188 -0.1598
   11CHTO   H75 4482   6.446   7.082   0.556 -0.8572  0.5593 -0.5268
   11CHTO   H76 4483   6.355   6.994   0.688  0.9017 -0.1213  1.2684
   11CHTO   C43 4484   6.554   6.836   0.777 -0.2272 -0.0906  0.1764
   11CHTO   H85 4485   6.493   6.880   0.856 -0.4552  0.6344 -0.4038
   11CHTO   O29 4486   6.679   6.797   0.823  0.4400 -0.1663  0.5217
   11CHTO   C50 4487   6.783   6.763   0.732  0.2611 -0.2269 -0.0271
   11CHTO   H92 4488   6.881   6.781   0.779  1.5911  0.4046 -2.9214
   11CHTO   C54 4489   6.786   6.603   0.715 -0.2032  0.2943 -0.4430
   11CHTO   O36 4490   6.844   6.546   0.836 -0.2557  0.3904  0.2657
   11CHTO   H72 4491   6.855   6.454   0.820 -1.9096 -0.0796  1.7056
   11CHTO   O27 4492   6.471   6.722   0.739 -0.1839  0.4212  0.0129
   11CHTO   C37 4493   6.404   6.601   0.778 -0.2481  0.0454  0.8136
   11CHTO   H79 4494   6.474   6.537   0.833 -0.3927 -0.6990  0.1496
   11CHTO   C38 4495   6.281   6.634   0.868 -0.5888 -0.0290 -0.5150
   11CHTO   H80 4496   6.210   6.698   0.814 -1.7770 -1.7468 -1.0422
   11CHTO   O31 4497   6.321   6.700   0.988  0.3995  0.2391  0.6358
   11CHTO   H68 4498   6.255   6.753   1.027  1.3240  0.1573  2.3592
   11CHTO   C39 4499   6.194   6.509   0.904 -0.3711 -0.0212  0.2489
   11CHTO   H81 4500   6.253   6.445   0.969  0.3362  0.3921  0.0208
   11CHTO    N7 4501   6.066   6.539   0.977 -0.0142 -0.5043 -0.2718
   11CHTO   H73 4502   6.033   6.450   1.030  0.9604 -1.6430 -1.5656
   11CHTO   H74 4503   6.001   6.589   0.907  2.0395  1.3367 -0.8894
   11CHTO   C40 4504   6.173   6.420   0.774  0.0571 -0.7571  0.0625
   11CHTO   H82 4505   6.087   6.449   0.713  1.7129  1.4140 -1.3074
   11CHTO   O26 4506   6.288   6.404   0.693 -0.4993 -0.0248 -0.0435
   11CHTO   C41 4507   6.351   6.523   0.655  0.2190  0.0381  0.1839
   11CHTO   H83 4508   6.271   6.583   0.609  0.0076 -0.0460  0.4470
   11CHTO   C52 4509   6.455   6.481   0.546  0.6556 -0.2866 -0.5151
   11CHTO   O35 4510   6.471   6.583   0.448  0.2935  0.5646 -0.1682
   11CHTO   H71 4511   6.402   6.575   0.386 -0.6037 -1.9356  1.0912
   11CHTO   O28 4512   6.156   6.286   0.826 -0.4108 -0.3923 -0.4972
   11CHTO   C42 4513   6.069   6.197   0.763 -0.0018 -0.0660  0.2213
   11CHTO   H84 4514   6.072   6.223   0.657  1.2356 -0.3389  0.1773
   11CHTO   C44 4515   5.911   6.206   0.800 -0.1604  0.2547 -0.1727
   11CHTO   H86 4516   5.902   6.215   0.909 -0.0261  1.4375 -0.2523
   11CHTO   O32 4517   5.870   6.331   0.737 -0.1918 -0.0191 -0.4953
   11CHTO   H69 4518   5.853   6.320   0.645 -2.5808 -0.8735  0.0070
   11CHTO   C48 4519   5.831   6.080   0.756  0.0185  0.1690  0.5195
   11CHTO   H90 4520   5.806   6.092   0.650 -2.1039 -0.8158  0.8751
   11CHTO    N9 4521   5.698   6.092   0.826 -0.3135 -0.4002  0.6109
   11CHTO   H77 4522   5.633   6.154   0.766 -0.5826 -0.2745  1.0295
   11CHTO   H78 4523   5.663   6.002   0.874  0.7479 -0.3234  1.5510
   11CHTO   C51 4524   5.904   5.943   0.767 -0.0715 -0.3424  0.0527
   11CHTO   H93 4525   5.922   5.920   0.872  1.1062  3.6537  0.8092
   11CHTO   O30 4526   6.024   5.957   0.694  0.3628 -0.3277  0.4372
   11CHTO   C46 4527   6.119   6.058   0.765 -0.5054 -0.1282  0.2101
   11CHTO   H88 4528   6.127   6.031   0.870  2.3115 -0.8821 -0.1391
   11CHTO   C53 4529   6.267   6.047   0.702  0.3714  0.6401 -0.5009
   11CHTO   O72 4530   6.274   6.071   0.563  0.0509  0.7029 -0.1043
   11CHTO  H199 4531   6.365   6.080   0.544  0.2820 -0.4548  0.4177
   11CHTO   O22 4532   5.839   5.833   0.695 -0.1867  0.0677 -0.2354
   11CHTO   C31 4533   5.726   5.751   0.739 -0.3825 -0.0391 -0.3137
   11CHTO   H59 4534   5.703   5.782   0.843 -0.9708 -0.5412 -0.2933
   11CHTO   C29 4535   5.598   5.757   0.659  0.0159  1.3297 -0.0179
   11CHTO   H57 4536   5.621   5.700   0.568 -2.0193  1.8777 -0.9036
   11CHTO   O21 4537   5.554   5.892   0.627 -0.3271  0.0905  0.2522
   11CHTO   H37 4538   5.499   5.909   0.553 -0.0242  1.2493  0.2785
   11CHTO   C27 4539   5.484   5.676   0.723  0.0657 -0.2878  1.1117
   11CHTO   H55 4540   5.452   5.731   0.813  1.6428 -2.0724  2.8277
   11CHTO    N5 4541   5.364   5.656   0.644  0.1057 -0.3687  0.0496
   11CHTO   H43 4542   5.330   5.752   0.608 -0.1923 -0.1156  1.0016
   11CHTO   H44 4543   5.283   5.606   0.694  0.2663 -0.6664  0.0152
   11CHTO   C25 4544   5.536   5.533   0.767 -0.0939  0.6686 -0.0349
   11CHTO   H53 4545   5.543   5.463   0.683 -2.9422  2.1561 -1.5762
   11CHTO   O17 4546   5.667   5.538   0.838 -1.0578 -0.0818 -0.0910
   11CHTO   C32 4547   5.767   5.602   0.748  0.3128  0.2070 -0.6489
   11CHTO   H60 4548   5.751   5.558   0.650 -0.5694 -0.8604 -0.0379
   11CHTO   C36 4549   5.910   5.571   0.804 -0.4387 -0.1741 -0.6494
   11CHTO   O25 4550   5.923   5.428   0.813  0.7334 -0.0239 -0.1294
   11CHTO   H40 4551   5.941   5.396   0.726 -1.5375  0.1402 -0.6881
   11CHTO   O15 4552   5.450   5.463   0.874 -0.2462 -0.3279  0.1972
   11CHTO   C19 4553   5.348   5.361   0.913 -0.2167  0.4387  0.5217
   11CHTO   H47 4554   5.347   5.369   1.023  2.6249  1.2747  0.5225
   11CHTO   C20 4555   5.199   5.385   0.865 -0.0225  0.8707  0.1225
   11CHTO   H48 4556   5.197   5.408   0.757  0.4770  1.2079  0.1820
   11CHTO   O19 4557   5.163   5.497   0.946 -0.2341 -0.3735  0.1940
   11CHTO   H35 4558   5.074   5.494   0.975 -0.2824 -2.0668 -0.0954
   11CHTO   C21 4559   5.102   5.263   0.897 -0.2243  0.1156 -0.0321
   11CHTO   H49 4560   5.098   5.252   1.005 -1.0061 -0.8026 -0.1547
   11CHTO    N4 4561   4.962   5.282   0.852  0.3442  0.1714 -0.6977
   11CHTO   H41 4562   4.905   5.327   0.932  1.3619  0.5532 -0.1876
   11CHTO   H42 4563   4.924   5.181   0.840  1.2618 -0.5328  2.0057
   11CHTO   C22 4564   5.168   5.133   0.845  0.5291 -0.3929 -0.3307
   11CHTO   H50 4565   5.193   5.146   0.739  2.1760  0.9812  0.2002
   11CHTO   O14 4566   5.294   5.119   0.914 -0.0545 -0.2914  0.3972
   11CHTO   C23 4567   5.397   5.216   0.880 -0.7668 -0.0928  0.3551
   11CHTO   H51 4568   5.414   5.203   0.772 -0.2610  0.4731  0.3621
   11CHTO   C34 4569   5.526   5.183   0.949 -0.0607  0.6967 -0.2203
   11CHTO   O23 4570   5.564   5.047   0.916  0.3223  0.8363 -0.0702
   11CHTO   H38 4571   5.513   4.999   0.979  0.3929 -0.5664 -1.0601
   11CHTO   O16 4572   5.095   5.014   0.878  0.2636  0.2887 -0.2384
   11CHTO   C24 4573   5.053   4.927   0.731 -0.2238 -0.1056 -0.3199
   11CHTO   H52 4574   5.074   4.988   0.642  1.0442 -0.5524 -0.3324
   11CHTO   C26 4575   4.906   4.883   0.732  0.5226  0.3997  0.2075
   11CHTO   H54 4576   4.895   4.807   0.812 -1.1567  0.8243  0.3924
   11CHTO   O20 4577   4.815   4.995   0.745  0.2268 -0.5243 -0.3999
   11CHTO   H36 4578   4.832   5.027   0.832 -0.5769  1.8217 -1.0570
   11CHTO   C30 4579   4.880   4.812   0.593 -0.5547  0.7111  0.6004
   11CHTO   H58 4580   4.866   4.884   0.510  1.5099 -1.2022 -1.4956
   11CHTO    N6 4581   4.745   4.745   0.588  0.5836 -0.5088 -0.4547
   11CHTO   H45 4582   4.680   4.788   0.662  0.0011 -0.9391 -0.7063
   11CHTO   H46 4583   4.762   4.641   0.613 -0.7014 -0.0994  2.3385
   11CHTO   C33 4584   4.987   4.708   0.545  0.1477 -0.2277 -0.1970
   11CHTO   H61 4585   4.967   4.610   0.590  0.7648  0.1470  0.9187
   11CHTO   O18 4586   5.122   4.748   0.591 -0.3309 -0.1544  0.7552
   11CHTO   C28 4587   5.140   4.804   0.716 -0.0834 -0.0452  0.5451
   11CHTO   H56 4588   5.109   4.730   0.790 -0.3379 -0.8364 -0.3364
   11CHTO   C35 4589   5.295   4.834   0.743 -0.7003  0.1341 -0.1496
   11CHTO   O24 4590   5.358   4.709   0.741  0.1051 -0.1799  0.1785
   11CHTO   H39 4591   5.320   4.653   0.805  1.5661  0.0976  1.3333
   11CHTO    O9 4592   4.983   4.681   0.406 -0.3456  0.6506 -0.1492
   11CHTO   C13 4593   5.048   4.809   0.316 -0.2256  0.4742  0.0062
   11CHTO   H26 4594   5.074   4.887   0.389  0.3253 -1.2919  1.7455
   11CHTO   C11 4595   4.951   4.856   0.204 -0.7154 -0.3453 -0.1264
   11CHTO   H24 4596   4.850   4.868   0.246 -0.2673  0.1260  0.8274
   11CHTO    O8 4597   4.942   4.754   0.109 -0.2388  0.0963  0.0630
   11CHTO    H3 4598   4.931   4.668   0.145  0.1074  0.5399  1.2795
   11CHTO    C9 4599   5.001   4.992   0.151 -0.2326  0.3679 -0.5769
   11CHTO   H22 4600   4.975   5.065   0.229  0.0956 -0.9942  0.8073
   11CHTO    N2 4601   4.916   5.038   0.034 -0.2061 -0.4851 -0.1004
   11CHTO   H10 4602   4.810   5.031   0.053 -0.1251  0.2169  0.5932
   11CHTO   H11 4603   4.939   5.142   0.018 -1.8662 -0.0719  0.1798
   11CHTO    C7 4604   5.159   4.989   0.129 -0.0157 -0.6262 -0.7107
   11CHTO   H20 4605   5.197   5.050   0.214  1.1039 -2.1653 -0.0802
   11CHTO    O4 4606   5.220   4.859   0.131  0.0968  0.2883  0.5617
   11CHTO   C14 4607   5.192   4.781   0.247 -0.0736 -0.2483 -0.9926
   11CHTO   H27 4608   5.260   4.798   0.333 -1.1957 -0.7112  0.0045
   11CHTO   C18 4609   5.195   4.638   0.221 -0.1762 -0.1793 -0.3760
   11CHTO   O13 4610   5.333   4.598   0.214  0.1785  0.4201 -0.0470
   11CHTO    H7 4611   5.343   4.506   0.198  0.6545  0.9486 -3.0902
   11CHTO    O2 4612   5.207   5.073  -0.013 -0.2950 -0.3616  0.5815
   11CHTO    C1 4613   5.299   5.177   0.015  0.5431 -0.1588  0.1455
   11CHTO   H14 4614   5.329   5.172   0.122  0.8334 -0.3163  0.0578
   11CHTO    C2 4615   5.255   5.326  -0.017  0.3716 -0.1652  0.0324
   11CHTO   H15 4616   5.258   5.336  -0.127 -0.3339  1.9301  0.1780
   11CHTO    O6 4617   5.120   5.341   0.032 -0.3223 -0.0379 -0.1795
   11CHTO    H1 4618   5.070   5.391  -0.030  1.4859  3.1752  0.8450
   11CHTO    C3 4619   5.368   5.430   0.045  0.4878  0.4992  0.0973
   11CHTO   H16 4620   5.390   5.402   0.149  0.6790 -0.2122 -0.1333
   11CHTO    N1 4621   5.344   5.578   0.041  0.3162 -0.0122 -0.2944
   11CHTO    H8 4622   5.412   5.631  -0.024  2.0483 -2.1876 -0.3275
   11CHTO    H9 4623   5.239   5.580   0.019  0.6011  0.1255 -1.6771
   11CHTO    C4 4624   5.502   5.389  -0.039 -0.7965  0.1967  0.2630
   11CHTO   H17 4625   5.482   5.396  -0.146  4.2597  2.2542 -0.6752
   11CHTO    O1 4626   5.535   5.253  -0.013 -0.0688 -0.3788  0.3128
   11CHTO    C5 4627   5.433   5.152  -0.054  0.2326 -0.4601 -0.1373
   11CHTO   H18 4628   5.418   5.159  -0.161 -1.9542  0.5087  0.2092
   11CHTO   C16 4629   5.491   5.014  -0.019  0.1081 -0.0443  0.3520
   11CHTO   O11 4630   5.516   4.993   0.116  0.4463  0.0776 -0.7561
   11CHTO    H5 4631   5.431   5.020   0.145  0.7540  2.0925 -1.5936
   11CHTO    O3 4632   5.620   5.462  -0.004 -0.0859 -0.2704 -0.3221
   11CHTO    C6 4633   5.709   5.496  -0.122  0.6602 -0.5091  0.1899
   11CHTO   H19 4634   5.700   5.437  -0.213  2.8631  0.3496 -0.6369
   11CHTO    C8 4635   5.690   5.647  -0.162  0.8263  0.1851 -0.2942
   11CHTO   H21 4636   5.718   5.710  -0.078  0.2028  1.9129 -1.3504
   11CHTO    O7 4637   5.547   5.670  -0.188 -0.1592  0.0159  0.3501
   11CHTO    H2 4638   5.481   5.627  -0.137  0.6866  1.0882  2.4218
   11CHTO   C12 4639   5.789   5.677  -0.283  0.3318  0.2431 -0.3578
   11CHTO   H25 4640   5.769   5.605  -0.365  0.3096 -0.7374  0.5020
   11CHTO    N3 4641   5.767   5.812  -0.344 -0.1670  0.0819  0.1013
   11CHTO   H12 4642   5.812   5.891  -0.285  2.6711  0.1311 -2.0147
   11CHTO   H13 4643   5.661   5.831  -0.340 -0.6436 -2.4409  0.4982
   11CHTO   C15 4644   5.936   5.652  -0.231  0.4790  0.4643 -1.5014
   11CHTO   H28 4645   5.968   5.739  -0.174 -1.2414  0.8395 -1.0743
   11CHTO   O10 4646   6.028   5.634  -0.347 -0.2329  0.0691 -0.0860
   11CHTO    H4 4647   6.044   5.721  -0.380 -0.3824  0.6065  1.2065
   11CHTO    O5 4648   5.956   5.525  -0.164  0.3702 -0.4852 -0.0163
   11CHTO   C10 4649   5.856   5.481  -0.071 -0.1642  0.5882 -0.1710
   11CHTO   H23 4650   5.856   5.528   0.028 -5.2292 -0.2120  0.3715
   11CHTO   C17 4651   5.897   5.337  -0.047 -0.2268 -0.7148  0.4660
   11CHTO   O12 4652   6.025   5.321   0.012  0.3049 -0.6781  0.2761
   11CHTO    H6 4653   6.062   5.236  -0.003  0.5137 -0.1802 -2.3141
   12CHTO  H203 4654   5.064   2.323   1.881  1.4830 -0.9039 -0.6362
   12CHTO   O82 4655   4.989   2.268   1.866  0.1679  0.6752  0.0884
   12CHTO  C123 4656   5.024   2.147   1.939  0.0808 -0.0796  0.4099
   12CHTO  H227 4657   5.122   2.113   1.902 -0.2373 -0.2443 -0.2785
   12CHTO   O77 4658   5.057   2.184   2.077  0.0758  0.2756 -0.4458
   12CHTO  C118 4659   5.108   2.082   2.166  0.1462  0.2352  0.2778
   12CHTO  H222 4660   5.209   2.066   2.127  0.3664 -0.9987  1.3281
   12CHTO  C125 4661   5.125   2.136   2.309 -0.4467  1.0300 -0.2303
   12CHTO   O84 4662   4.997   2.168   2.373 -0.4806  0.3501 -0.6524
   12CHTO  H205 4663   4.927   2.134   2.320  0.1405 -3.4742  0.7904
   12CHTO  C114 4664   5.007   1.963   2.163  0.1377 -0.5018  0.2289
   12CHTO  H218 4665   4.917   1.985   2.221  0.2087 -0.0746  0.1753
   12CHTO  C116 4666   4.952   1.910   2.028  0.3433 -0.3396  0.0634
   12CHTO  H220 4667   5.034   1.857   1.974  0.3211 -2.7043  2.2422
   12CHTO   O79 4668   4.846   1.813   2.057 -0.0014  0.5684  0.2680
   12CHTO  H201 4669   4.810   1.795   1.972 -1.4475 -0.9622  1.1512
   12CHTO  C120 4670   4.906   2.034   1.944  0.1615 -0.5564 -0.0105
   12CHTO  H224 4671   4.822   2.077   2.001  0.0739  0.4921 -0.9052
   12CHTO   N21 4672   4.848   1.997   1.817 -0.2771  0.0239 -0.2862
   12CHTO  H211 4673   4.849   2.083   1.751 -1.5148  2.2467  2.4739
   12CHTO  H212 4674   4.908   1.923   1.766  1.5673  1.2435  0.0426
   12CHTO   O75 4675   5.086   1.856   2.223  0.0019 -0.0422  0.1032
   12CHTO  C112 4676   5.013   1.731   2.294  0.3325 -0.5494 -0.2962
   12CHTO  H216 4677   4.961   1.665   2.223 -0.2011 -2.2191  1.6257
   12CHTO   O73 4678   4.921   1.781   2.397 -0.1410  0.0671  0.3531
   12CHTO  C113 4679   4.854   1.687   2.479 -0.3906  0.5546 -0.2856
   12CHTO  H217 4680   4.795   1.625   2.408  1.7234 -1.8388 -0.0435
   12CHTO  C124 4681   4.753   1.752   2.577 -0.0104  0.3137 -0.0716
   12CHTO   O83 4682   4.673   1.651   2.638 -0.6965  0.4192  0.2025
   12CHTO  H204 4683   4.583   1.676   2.645 -0.5350  1.5260 -1.4219
   12CHTO  C109 4684   4.958   1.597   2.551 -0.7249  0.0804  0.7337
   12CHTO  H213 4685   5.001   1.660   2.631  2.3579  0.3305 -1.0365
   12CHTO  C110 4686   5.070   1.542   2.461  0.3018 -0.7334  0.4836
   12CHTO  H214 4687   5.030   1.456   2.407  0.8562 -1.4719  1.2403
   12CHTO   O78 4688   5.167   1.484   2.545 -0.0776 -0.1289 -0.5011
   12CHTO  H200 4689   5.201   1.408   2.501 -0.8732 -0.4543 -0.5548
   12CHTO  C111 4690   5.129   1.656   2.370 -0.2700 -0.2922  0.2535
   12CHTO  H215 4691   5.166   1.730   2.443  2.2470 -1.9494  0.7220
   12CHTO   N19 4692   5.248   1.625   2.285  0.1150 -0.6825 -0.3577
   12CHTO  H207 4693   5.312   1.582   2.360 -0.2086 -1.3124 -0.4395
   12CHTO  H208 4694   5.300   1.713   2.250  1.5844 -0.3028  2.6128
   12CHTO   O74 4695   4.885   1.475   2.609  0.0648  0.5125  0.2872
   12CHTO  C115 4696   4.932   1.429   2.758 -0.1872 -0.1879  0.6872
   12CHTO  H219 4697   5.014   1.491   2.794  0.9044 -1.3025  0.1768
   12CHTO   O76 4698   4.821   1.453   2.859  0.0402 -0.5114  0.0748
   12CHTO  C122 4699   4.703   1.377   2.839 -0.6253  0.4265  0.7387
   12CHTO  H226 4700   4.658   1.414   2.747  1.3275 -0.0146 -0.4391
   12CHTO  C126 4701   4.607   1.401   2.950 -0.8377 -0.5176  0.1022
   12CHTO   O85 4702   4.654   1.385   3.082  0.0520 -0.2001  0.0224
   12CHTO  H206 4703   4.604   1.444   3.135  0.9663 -1.2434  2.0728
   12CHTO  C121 4704   4.739   1.227   2.820 -0.1231 -0.6645  0.1602
   12CHTO  H225 4705   4.680   1.159   2.885 -1.3158  0.4137  0.2184
   12CHTO   O81 4706   4.704   1.195   2.685 -0.2283 -0.4491 -0.5607
   12CHTO  H202 4707   4.728   1.245   2.610  1.2050  1.6388  1.2503
   12CHTO  C119 4708   4.891   1.198   2.844 -1.0122 -0.4282 -0.2197
   12CHTO  H223 4709   4.919   1.232   2.944  0.8229 -0.5500 -0.6742
   12CHTO  C117 4710   4.986   1.275   2.751  0.0679  0.3344  0.3671
   12CHTO  H221 4711   4.979   1.248   2.645  0.2350 -0.7288  0.6254
   12CHTO   N20 4712   5.136   1.267   2.785 -0.1625  0.2469  0.1036
   12CHTO  H209 4713   5.180   1.364   2.769 -1.2171  0.7785  0.4053
   12CHTO  H210 4714   5.179   1.198   2.714 -1.5673 -0.3864 -0.1459
   12CHTO   O80 4715   4.922   1.034   2.860 -0.1406 -0.6332  0.1880
   12CHTO  C103 4716   4.901   0.935   2.725  0.2115  0.2505 -0.3992
   12CHTO  H190 4717   4.817   0.968   2.663 -1.2646  0.4194  1.6339
   12CHTO  C101 4718   5.028   0.906   2.628  1.1973 -0.3611 -0.1260
   12CHTO  H188 4719   5.106   0.864   2.692 -0.5140 -4.1487 -0.4028
   12CHTO   O68 4720   5.072   1.039   2.548 -0.3742  0.3792 -0.1797
   12CHTO  H168 4721   5.109   1.014   2.465 -0.8333 -0.0753 -0.2491
   12CHTO   C99 4722   4.992   0.785   2.525 -0.5879  0.0934  0.2864
   12CHTO  H186 4723   4.914   0.816   2.452  1.3187  0.1025 -1.7976
   12CHTO   N17 4724   5.110   0.749   2.437 -0.5987  0.7118 -0.2312
   12CHTO  H174 4725   5.189   0.822   2.440  1.8817 -1.7639 -1.5752
   12CHTO  H175 4726   5.084   0.734   2.333  0.3497  1.5522 -0.6056
   12CHTO   C97 4727   4.933   0.663   2.606  0.3321 -0.0094  0.8982
   12CHTO  H184 4728   5.015   0.627   2.670  0.0569  1.1914  1.9578
   12CHTO   O64 4729   4.822   0.706   2.685 -0.5090 -0.0052  0.0376
   12CHTO  C104 4730   4.851   0.800   2.786 -0.0802  0.0250 -0.1081
   12CHTO  H191 4731   4.922   0.774   2.864  1.3481  1.7476 -0.7899
   12CHTO  C108 4732   4.725   0.836   2.859  0.3337  0.1851 -0.8916
   12CHTO   O71 4733   4.668   0.720   2.918  0.2035  0.1832  0.5475
   12CHTO  H171 4734   4.611   0.677   2.857 -0.8945  0.0393  1.6623
   12CHTO   O62 4735   4.880   0.565   2.523  0.1684  0.3096  0.3299
   12CHTO   C91 4736   4.895   0.422   2.556  0.1346 -0.0919  1.4176
   12CHTO  H178 4737   4.986   0.417   2.615  1.4001  0.7789 -0.4203
   12CHTO   C92 4738   4.916   0.357   2.418  0.7362 -0.5792  0.3821
   12CHTO  H179 4739   4.838   0.403   2.356  0.2070 -0.6800  0.9675
   12CHTO   O66 4740   5.051   0.387   2.359  0.1092 -1.0171 -0.3590
   12CHTO  H166 4741   5.060   0.480   2.354  3.4677 -1.0707  2.6089
   12CHTO   C93 4742   4.887   0.201   2.422 -0.0175 -0.5792 -0.1766
   12CHTO  H180 4743   4.973   0.152   2.471  0.4317  1.9052  1.5899
   12CHTO   N16 4744   4.873   0.151   2.285 -0.4120 -0.2468 -0.4563
   12CHTO  H172 4745   4.898   0.046   2.280 -1.3348 -0.5757  1.2514
   12CHTO  H173 4746   4.924   0.211   2.212  0.4816 -0.3881  0.0438
   12CHTO   C94 4747   4.762   0.160   2.499 -0.1300 -0.2728  0.1356
   12CHTO  H181 4748   4.670   0.199   2.455  0.7662 -1.2009 -2.6811
   12CHTO   O61 4749   4.777   0.212   2.633 -0.1946 -0.2067 -0.6856
   12CHTO   C95 4750   4.780   0.354   2.644 -0.1756  0.4089 -0.2536
   12CHTO  H182 4751   4.685   0.394   2.609  0.1936 -0.2021 -1.9805
   12CHTO  C106 4752   4.783   0.402   2.795  0.3455  0.6158  0.0479
   12CHTO   O69 4753   4.652   0.388   2.842  0.2610  0.1305  0.3345
   12CHTO  H169 4754   4.652   0.299   2.870  2.1343  0.1846  0.5806
   12CHTO   O63 4755   4.742  -0.010   2.524 -0.3879 -0.4470  0.1087
   12CHTO   C96 4756   4.846  -0.067   2.616 -0.1394  0.2495  0.1849
   12CHTO  H183 4757   4.905   0.019   2.646 -1.1534  0.8151  0.5832
   12CHTO   C98 4758   4.936  -0.177   2.554 -0.0784 -0.2765  0.8018
   12CHTO  H185 4759   4.875  -0.245   2.493  1.9391  0.4606 -2.1392
   12CHTO   O67 4760   5.028  -0.109   2.459  0.7484 -0.0828  0.1401
   12CHTO  H167 4761   5.055  -0.172   2.395  3.0321  1.5089 -0.4971
   12CHTO  C102 4762   5.023  -0.257   2.662  0.1659  0.4134 -0.1725
   12CHTO  H189 4763   5.098  -0.186   2.699  1.4708 -0.0144 -1.9009
   12CHTO   N18 4764   5.106  -0.376   2.619 -0.0539 -0.4897 -0.3142
   12CHTO  H176 4765   5.212  -0.365   2.631 -0.0015  0.0089 -1.2026
   12CHTO  H177 4766   5.093  -0.392   2.513  1.0315 -0.7675 -0.4045
   12CHTO  C105 4767   4.942  -0.292   2.788 -0.0758  0.4791 -0.0636
   12CHTO  H192 4768   4.879  -0.379   2.768  0.5239 -0.2991  1.3116
   12CHTO   O65 4769   4.862  -0.181   2.832 -0.4497  0.0768  0.2567
   12CHTO  C100 4770   4.772  -0.126   2.736 -0.7723 -0.0641  0.1672
   12CHTO  H187 4771   4.713  -0.213   2.702 -1.5139 -0.0877  1.4640
   12CHTO  C107 4772   4.673  -0.033   2.814  0.2654 -1.1092  0.3850
   12CHTO   O70 4773   4.615  -0.115   2.916 -0.1013 -0.1753  0.1877
   12CHTO  H170 4774   4.678  -0.155   2.973  0.4453 -0.6661 -0.7461
   12CHTO   O57 4775   5.050  -0.329   2.903  0.0746  0.4539  0.3072
   12CHTO   C85 4776   5.010  -0.407   3.016  0.0784 -0.0944  0.6012
   12CHTO  H157 4777   4.915  -0.458   2.991  0.6104 -0.0941 -1.5432
   12CHTO   C83 4778   4.977  -0.315   3.138  0.5105 -0.6853 -0.2925
   12CHTO  H155 4779   4.895  -0.249   3.111  0.2692 -1.0244 -0.3984
   12CHTO   O56 4780   5.099  -0.239   3.161  0.4216  0.6034  0.1046
   12CHTO  H135 4781   5.147  -0.280   3.230  0.4990 -0.5667 -0.6264
   12CHTO   C81 4782   4.933  -0.411   3.245  0.3760 -0.1830 -0.2074
   12CHTO  H153 4783   4.841  -0.460   3.211  0.5382  0.8651 -2.2169
   12CHTO   N14 4784   4.888  -0.329   3.359  0.2639  0.1097 -0.0679
   12CHTO  H141 4785   4.899  -0.380   3.452  0.2016 -0.6934 -0.5000
   12CHTO  H142 4786   4.785  -0.304   3.345 -0.0540 -0.6134  0.9540
   12CHTO   C79 4787   5.034  -0.518   3.286 -0.1691 -0.4286  1.2354
   12CHTO  H151 4788   4.985  -0.593   3.348  2.3030 -3.7364 -0.6136
   12CHTO   O52 4789   5.080  -0.597   3.165 -0.2605 -0.3529 -0.4207
   12CHTO   C86 4790   5.120  -0.513   3.049  0.1418  0.2670  0.0310
   12CHTO  H158 4791   5.211  -0.459   3.083 -0.0508  0.7087 -0.1438
   12CHTO   C90 4792   5.159  -0.598   2.927  0.0256 -0.1914 -0.1053
   12CHTO   O60 4793   5.046  -0.659   2.869 -0.4550  0.2166 -0.2531
   12CHTO  H138 4794   5.008  -0.724   2.925 -2.1770  0.9234 -0.5919
   12CHTO   O50 4795   5.146  -0.461   3.350 -0.0683 -0.1957 -0.4745
   12CHTO   C73 4796   5.199  -0.464   3.481 -0.0539 -0.2207 -0.0849
   12CHTO  H145 4797   5.124  -0.501   3.552 -1.7827  0.3578 -1.5518
   12CHTO   C74 4798   5.244  -0.322   3.531 -0.1654 -0.3295  0.0848
   12CHTO  H146 4799   5.160  -0.252   3.527 -0.2144 -0.3186  1.2206
   12CHTO   O54 4800   5.285  -0.338   3.674  0.1472  0.5239  0.5571
   12CHTO  H133 4801   5.320  -0.257   3.708  2.5070 -0.1863 -0.0603
   12CHTO   C75 4802   5.367  -0.274   3.439 -0.6388  0.6246 -0.8319
   12CHTO  H147 4803   5.327  -0.259   3.337  0.9100 -1.1048 -1.7124
   12CHTO   N13 4804   5.424  -0.146   3.483  0.4349 -0.2684  0.2943
   12CHTO  H139 4805   5.494  -0.112   3.407 -0.1037 -0.0972 -0.1308
   12CHTO  H140 4806   5.339  -0.080   3.474  0.3872 -0.0731  1.9909
   12CHTO   C76 4807   5.482  -0.391   3.436  0.0454  0.2563 -0.0186
   12CHTO  H148 4808   5.530  -0.390   3.534  0.6393 -0.9576 -0.2951
   12CHTO   O49 4809   5.436  -0.521   3.403  0.5553 -0.6297  0.2665
   12CHTO   C77 4810   5.319  -0.567   3.476  0.0445  0.1582 -0.8609
   12CHTO  H149 4811   5.345  -0.593   3.579  0.7629 -0.0219 -1.0870
   12CHTO   C88 4812   5.268  -0.703   3.422  0.8106 -0.4987  0.1899
   12CHTO   O58 4813   5.377  -0.810   3.437  0.2073  0.3787 -0.3159
   12CHTO  H136 4814   5.460  -0.767   3.428  1.9735 -2.6759  0.5240
   12CHTO   O51 4815   5.581  -0.360   3.322  0.4539  0.6412  0.2291
   12CHTO   C78 4816   5.711  -0.435   3.314  0.3327  0.2522  0.4166
   12CHTO  H150 4817   5.708  -0.534   3.365  3.1959 -0.1724 -0.1452
   12CHTO   C80 4818   5.827  -0.355   3.381  0.4861  0.0761  0.1291
   12CHTO  H152 4819   5.860  -0.274   3.313  1.8001  0.5639  1.3262
   12CHTO   O55 4820   5.780  -0.294   3.503  0.4267  0.2896 -0.6667
   12CHTO  H134 4821   5.772  -0.355   3.575  1.6595  0.6760 -0.1869
   12CHTO   C84 4822   5.947  -0.453   3.400 -0.3706  0.1415  0.2202
   12CHTO  H156 4823   5.918  -0.537   3.464 -4.6376  1.1877 -0.1645
   12CHTO   N15 4824   6.072  -0.396   3.466  0.2678  0.0471  0.3203
   12CHTO  H143 4825   6.131  -0.468   3.518  0.0718 -1.4335 -1.4656
   12CHTO  H144 4826   6.056  -0.309   3.525  0.2172  0.3990 -0.2005
   12CHTO   C87 4827   5.980  -0.509   3.258 -0.3083  1.2170  0.2227
   12CHTO  H159 4828   6.038  -0.430   3.211  0.5107  0.9048  0.7000
   12CHTO   O53 4829   5.838  -0.573   3.169 -0.1206 -0.0601  0.3030
   12CHTO   C82 4830   5.737  -0.475   3.169 -0.1008  0.0383  0.0293
   12CHTO  H154 4831   5.771  -0.390   3.109  1.3486 -0.4739  0.0962
   12CHTO   C89 4832   5.607  -0.530   3.093  0.0727 -0.2134  0.0709
   12CHTO   O59 4833   5.535  -0.621   3.173 -0.3968 -0.1892 -0.9861
   12CHTO  H137 4834   5.527  -0.587   3.260  1.9063  0.6262 -1.0578
   12CHTO   O45 4835   6.084  -0.646   3.289 -0.0415  0.3251  0.2997
   12CHTO   C67 4836   6.160  -0.694   3.179 -0.3555 -0.4676  1.2482
   12CHTO  H124 4837   6.234  -0.760   3.224 -0.6863  0.2777  2.9249
   12CHTO   C65 4838   6.083  -0.779   3.074 -0.4258  0.4429 -0.4443
   12CHTO  H122 4839   5.984  -0.785   3.119 -0.1314  0.3448  0.2082
   12CHTO   O44 4840   6.135  -0.912   3.074 -0.2661 -0.1191  0.0827
   12CHTO  H102 4841   6.207  -0.909   3.014 -0.0129 -1.5610  0.2986
   12CHTO   C63 4842   6.078  -0.718   2.934 -0.3470 -0.1008 -0.3423
   12CHTO  H120 4843   6.023  -0.625   2.944  1.6134  0.9977  0.4224
   12CHTO   N11 4844   5.997  -0.794   2.833  0.7179 -0.1396  0.0240
   12CHTO  H108 4845   5.905  -0.827   2.877 -1.4765  1.7887 -2.9540
   12CHTO  H109 4846   6.059  -0.874   2.802  1.6735  1.2901 -1.8363
   12CHTO   C61 4847   6.229  -0.678   2.887  0.1902 -0.5181  1.0014
   12CHTO  H118 4848   6.215  -0.597   2.814 -2.1543 -1.5861  0.2197
   12CHTO   O40 4849   6.312  -0.620   2.992  0.4534  0.2856  0.0353
   12CHTO   C68 4850   6.244  -0.579   3.115  0.0802  0.4082  0.7103
   12CHTO  H125 4851   6.181  -0.492   3.087 -2.1774 -0.8834  1.6990
   12CHTO   C72 4852   6.352  -0.533   3.215 -0.4959 -0.4459  0.4988
   12CHTO   O48 4853   6.416  -0.411   3.170 -0.5151 -0.2940 -0.0996
   12CHTO  H105 4854   6.501  -0.419   3.208 -0.4972 -0.6362 -0.2153
   12CHTO   O38 4855   6.309  -0.790   2.848 -0.3361 -0.4506  0.1682
   12CHTO   C55 4856   6.406  -0.770   2.750 -0.5305  0.1473 -0.1114
   12CHTO  H112 4857   6.432  -0.664   2.764 -1.8379  0.3128  1.1593
   12CHTO   C56 4858   6.365  -0.800   2.597  0.7989 -0.2689  0.6708
   12CHTO  H113 4859   6.319  -0.899   2.609  2.0770 -0.8457  0.8360
   12CHTO   O42 4860   6.251  -0.715   2.569  0.8208  0.0445  0.4375
   12CHTO  H100 4861   6.275  -0.625   2.571  0.0675  0.2449  0.8049
   12CHTO   C57 4862   6.486  -0.778   2.495  0.2869  0.5826 -0.7404
   12CHTO  H114 4863   6.517  -0.674   2.501 -2.2912  1.3751 -0.6160
   12CHTO   N10 4864   6.470  -0.806   2.351  0.8089 -0.7073  0.5231
   12CHTO  H106 4865   6.472  -0.706   2.310  1.3967 -1.9779 -2.6790
   12CHTO  H107 4866   6.374  -0.852   2.337  0.5472  0.4494 -1.6032
   12CHTO   C58 4867   6.599  -0.867   2.555  0.2127 -0.1949 -0.1657
   12CHTO  H115 4868   6.562  -0.971   2.562 -1.3825  0.4047  0.5857
   12CHTO   O37 4869   6.629  -0.820   2.684 -0.7268 -0.3745 -0.9813
   12CHTO   C59 4870   6.536  -0.845   2.786  0.2232 -0.0498  0.2917
   12CHTO  H116 4871   6.516  -0.953   2.791 -1.6136  0.2192 -0.7575
   12CHTO   C70 4872   6.593  -0.801   2.921 -0.0762  0.0874 -0.3092
   12CHTO   O46 4873   6.729  -0.838   2.948 -0.3870 -0.4477 -0.5748
   12CHTO  H103 4874   6.785  -0.791   2.890  0.4737 -0.4994  0.2073
   12CHTO   O39 4875   6.735  -0.859   2.459  0.1295  1.0763  0.2464
   12CHTO   C60 4876   6.837  -0.954   2.500 -0.6491 -0.4832 -0.8095
   12CHTO  H117 4877   6.842  -0.968   2.608 -0.0655 -1.9288 -1.0046
   12CHTO   C62 4878   6.805  -1.100   2.450 -0.4183  0.2510  0.1588
   12CHTO  H119 4879   6.703  -1.131   2.481  0.2549 -2.4628 -0.2725
   12CHTO   O43 4880   6.799  -1.105   2.299 -0.1266 -0.0079 -0.4278
   12CHTO  H101 4881   6.710  -1.087   2.275 -1.0958 -1.5952  1.8352
   12CHTO   C66 4882   6.905  -1.198   2.524 -0.4085  0.0246 -0.0144
   12CHTO  H123 4883   6.891  -1.183   2.631 -0.6252  2.0632 -0.3144
   12CHTO   N12 4884   6.873  -1.344   2.506  0.5758  0.5989  0.1386
   12CHTO  H110 4885   6.775  -1.363   2.547  0.4465 -0.4503 -0.6383
   12CHTO  H111 4886   6.935  -1.404   2.570 -0.1687  0.4653  0.7429
   12CHTO   C69 4887   7.050  -1.169   2.488  0.7100 -0.5573  0.4779
   12CHTO  H126 4888   7.073  -1.190   2.381 -0.1648  0.7143  0.0315
   12CHTO   O41 4889   7.079  -0.996   2.512  0.3483  0.3723 -0.0085
   12CHTO   C64 4890   6.974  -0.905   2.450 -0.1175  0.4307  0.2638
   12CHTO  H121 4891   6.970  -0.896   2.339 -0.0089  1.0857  0.3097
   12CHTO   C71 4892   7.003  -0.767   2.489  0.2636  0.5334 -0.4305
   12CHTO   O47 4893   7.102  -0.696   2.416 -0.5575 -1.0352 -0.4638
   12CHTO  H104 4894   7.074  -0.686   2.327  0.2780 -2.8507 -0.9441
   12CHTO   O34 4895   7.158  -1.260   2.578  0.4206 -0.3893  0.1347
   12CHTO   C49 4896   7.250  -1.283   2.703  0.4693  0.9371 -0.3589
   12CHTO   H91 4897   7.350  -1.258   2.668  1.7639  0.7422  3.0204
   12CHTO   C47 4898   7.240  -1.427   2.752 -0.1481 -0.3316 -0.6918
   12CHTO   H89 4899   7.330  -1.448   2.813 -1.1620 -1.9492  0.3148
   12CHTO   O33 4900   7.250  -1.502   2.630 -0.0933 -0.6355 -0.4897
   12CHTO   H70 4901   7.342  -1.504   2.611 -0.5727  0.1794 -3.2333
   12CHTO   C45 4902   7.106  -1.459   2.829  0.4150  0.4379 -0.5698
   12CHTO   H87 4903   7.034  -1.499   2.756  1.1182 -0.9001 -0.5452
   12CHTO    N8 4904   7.116  -1.557   2.934  0.1185  0.2206 -0.3477
   12CHTO   H75 4905   7.107  -1.500   3.026  0.6406 -1.6639  0.9021
   12CHTO   H76 4906   7.024  -1.614   2.928 -0.8178  1.7661 -0.9228
   12CHTO   C43 4907   7.030  -1.327   2.863 -0.5787 -0.5784  0.6199
   12CHTO   H85 4908   7.000  -1.288   2.765  0.8656 -2.1403 -0.4575
   12CHTO   O29 4909   7.129  -1.241   2.926 -0.1042  0.3849  0.1323
   12CHTO   C50 4910   7.216  -1.186   2.826 -0.3944 -0.0399 -0.4240
   12CHTO   H92 4911   7.174  -1.093   2.784 -0.0978  0.6785  0.8406
   12CHTO   C54 4912   7.352  -1.144   2.895  0.4954 -0.3132 -0.4321
   12CHTO   O36 4913   7.443  -1.058   2.818  0.4918  0.8164 -0.3346
   12CHTO   H72 4914   7.521  -1.108   2.808 -0.8878 -1.1122 -1.6747
   12CHTO   O27 4915   6.906  -1.324   2.932 -0.7109 -0.1147 -0.1145
   12CHTO   C37 4916   6.828  -1.320   3.051 -0.6249 -1.1521 -0.3199
   12CHTO   H79 4917   6.882  -1.369   3.133 -1.9670 -0.2574  1.1165
   12CHTO   C38 4918   6.800  -1.172   3.103 -0.7134  0.1277 -0.2789
   12CHTO   H80 4919   6.777  -1.112   3.014  0.7524  0.8356 -0.1983
   12CHTO   O31 4920   6.916  -1.117   3.163 -0.6347  0.0950  0.0907
   12CHTO   H68 4921   6.898  -1.029   3.190  3.2570  0.8479  0.6118
   12CHTO   C39 4922   6.684  -1.175   3.206 -0.3313 -0.2341  0.2660
   12CHTO   H81 4923   6.728  -1.221   3.295  1.2280  2.1090  0.7667
   12CHTO    N7 4924   6.644  -1.036   3.240 -0.1136 -0.6534  0.0448
   12CHTO   H73 4925   6.592  -1.040   3.334  0.8614 -2.1621  0.5533
   12CHTO   H74 4926   6.587  -0.987   3.162 -0.0883  1.4731  1.3287
   12CHTO   C40 4927   6.559  -1.253   3.153 -0.5234 -0.3225 -0.6258
   12CHTO   H82 4928   6.498  -1.211   3.074  2.3023 -1.7429 -3.7411
   12CHTO   O26 4929   6.606  -1.378   3.112  0.0546  0.3206 -0.5981
   12CHTO   C41 4930   6.699  -1.398   3.006  0.3588  0.0167  0.7763
   12CHTO   H83 4931   6.658  -1.354   2.914  0.2357  3.8081  2.5570
   12CHTO   C52 4932   6.737  -1.545   2.984  0.2569  0.9673  0.2997
   12CHTO   O35 4933   6.584  -1.634   2.971  0.7848  0.5660 -0.0021
   12CHTO   H71 4934   6.528  -1.572   2.929 -0.2419  0.3566  1.0339
   12CHTO   O28 4935   6.478  -1.289   3.267 -0.0938 -0.0525  0.2109
   12CHTO   C42 4936   6.336  -1.311   3.256  0.4196 -0.4350  0.1268
   12CHTO   H84 4937   6.318  -1.354   3.355 -0.1645 -0.4737  0.0051
   12CHTO   C44 4938   6.291  -1.425   3.155  0.5958  0.7023 -0.2777
   12CHTO   H86 4939   6.320  -1.400   3.053  1.5259 -0.3350 -0.2822
   12CHTO   O32 4940   6.357  -1.542   3.202  0.6156  0.4449 -0.4481
   12CHTO   H69 4941   6.411  -1.582   3.136 -0.5367 -1.0589 -0.4819
   12CHTO   C48 4942   6.135  -1.453   3.154 -0.1004 -0.4056 -0.0788
   12CHTO   H90 4943   6.096  -1.487   3.250  1.1610 -0.8891  0.2690
   12CHTO    N9 4944   6.092  -1.552   3.044 -0.0175  0.0561  0.6443
   12CHTO   H77 4945   6.000  -1.598   3.078 -1.6356  0.8350 -2.5455
   12CHTO   H78 4946   6.170  -1.625   3.027  0.4486  1.3812 -3.6253
   12CHTO   C51 4947   6.059  -1.315   3.133 -0.6524  0.0045  0.0480
   12CHTO   H93 4948   6.077  -1.280   3.032  2.7629  2.0106  1.2554
   12CHTO   O30 4949   6.095  -1.219   3.233 -0.4424 -0.1883  0.6568
   12CHTO   C46 4950   6.252  -1.180   3.251  0.3320 -0.2483  0.4938
   12CHTO   H88 4951   6.299  -1.116   3.176  2.0382  0.1430  1.8512
   12CHTO   C53 4952   6.271  -1.107   3.388  0.5450 -0.7693  0.7789
   12CHTO   O72 4953   6.186  -0.992   3.408  0.0338  0.1270  0.6146
   12CHTO  H199 4954   6.208  -0.949   3.489  3.3690  0.9351 -0.6352
   12CHTO   O22 4955   5.916  -1.329   3.137  0.0396 -0.4935 -0.2781
   12CHTO   C31 4956   5.824  -1.221   3.126  0.6095 -0.1099  0.0333
   12CHTO   H59 4957   5.724  -1.268   3.114  0.3636  0.6978 -1.1697
   12CHTO   C29 4958   5.815  -1.118   3.244  0.4120 -0.0674 -0.7827
   12CHTO   H57 4959   5.911  -1.068   3.265 -0.7031  1.6175  0.3961
   12CHTO   O21 4960   5.784  -1.202   3.359 -0.0629 -0.0365 -0.1601
   12CHTO   H37 4961   5.862  -1.251   3.377 -0.1061 -0.4303 -1.0160
   12CHTO   C27 4962   5.712  -1.003   3.218  0.3350 -0.1728 -0.1926
   12CHTO   H55 4963   5.612  -1.049   3.221 -0.7155  1.9506 -1.1318
   12CHTO    N5 4964   5.713  -0.896   3.323 -0.8858 -0.4181 -0.0583
   12CHTO   H43 4965   5.772  -0.918   3.410  0.4554  1.4129 -0.4857
   12CHTO   H44 4966   5.610  -0.867   3.339 -1.2852 -1.1525 -1.2155
   12CHTO   C25 4967   5.724  -0.944   3.077 -0.7542  0.0249 -1.0118
   12CHTO   H53 4968   5.804  -0.869   3.074 -0.5544 -0.1102  0.3076
   12CHTO   O17 4969   5.741  -1.045   2.972  0.0346 -0.1727  0.5785
   12CHTO   C32 4970   5.840  -1.144   2.995 -0.4773 -0.1629  0.2992
   12CHTO   H60 4971   5.929  -1.080   3.001 -1.3498  1.1945 -0.9393
   12CHTO   C36 4972   5.847  -1.237   2.879 -0.1591 -0.1182  0.9421
   12CHTO   O25 4973   5.861  -1.176   2.750 -0.6002  0.1642  0.0607
   12CHTO   H40 4974   5.778  -1.140   2.723 -0.6228 -0.4127 -0.6569
   12CHTO   O15 4975   5.597  -0.876   3.040 -0.5449 -0.9298 -0.3469
   12CHTO   C19 4976   5.485  -0.860   2.947  0.7734  0.0687 -0.4784
   12CHTO   H47 4977   5.435  -0.771   2.988 -1.7644 -1.4897 -0.0796
   12CHTO   C20 4978   5.538  -0.842   2.804  0.2321 -0.4140 -0.0964
   12CHTO   H48 4979   5.590  -0.933   2.770  2.0703  0.1885  1.0296
   12CHTO   O19 4980   5.634  -0.732   2.811  0.2961 -0.0595 -0.0149
   12CHTO   H35 4981   5.698  -0.745   2.878  0.3344 -1.1008 -0.2398
   12CHTO   C21 4982   5.417  -0.814   2.706  0.7157  0.3037  0.1231
   12CHTO   H49 4983   5.362  -0.727   2.740 -0.7468 -1.4118  2.3266
   12CHTO    N4 4984   5.458  -0.803   2.560  0.2359 -0.0764  0.1667
   12CHTO   H41 4985   5.503  -0.706   2.546  1.9570 -0.5398  2.1844
   12CHTO   H42 4986   5.374  -0.814   2.493  1.6835  0.1191 -1.7236
   12CHTO   C22 4987   5.320  -0.928   2.720 -0.0537  0.6628  0.4843
   12CHTO   H50 4988   5.364  -1.020   2.680 -0.9060  0.9613 -1.1971
   12CHTO   O14 4989   5.276  -0.936   2.856  0.1513 -0.6702 -0.0242
   12CHTO   C23 4990   5.378  -0.967   2.951 -0.6897  0.4848 -0.5605
   12CHTO   H51 4991   5.416  -1.063   2.912 -0.8479  1.1586 -2.4473
   12CHTO   C34 4992   5.316  -0.981   3.088 -0.4300  1.0443 -0.3466
   12CHTO   O23 4993   5.215  -1.082   3.095  0.2861 -0.2663 -0.2086
   12CHTO   H38 4994   5.126  -1.062   3.118 -0.1157 -2.2278  0.0408
   12CHTO   O16 4995   5.194  -0.899   2.661  0.0110 -0.2823 -0.4531
   12CHTO   C24 4996   5.113  -1.046   2.603  0.3352  0.1111  0.2438
   12CHTO   H52 4997   5.164  -1.135   2.639  2.0801  1.2626  0.6764
   12CHTO   C26 4998   5.096  -1.032   2.450 -0.5043 -0.2359  0.4749
   12CHTO   H54 4999   5.044  -0.937   2.425  0.9868  0.5272  0.2017
   12CHTO   O20 5000   5.226  -1.019   2.394  0.9487 -0.5421 -0.1719
   12CHTO   H36 5001   5.244  -0.934   2.357  0.7600 -0.6425 -0.4932
   12CHTO   C30 5002   5.011  -1.143   2.397 -0.0062  0.6605 -0.0546
   12CHTO   H58 5003   5.069  -1.235   2.410 -0.2911  0.5275  0.2852
   12CHTO    N6 5004   4.997  -1.131   2.251  0.4645  0.2916 -0.3418
   12CHTO   H45 5005   5.074  -1.198   2.216  0.7203 -0.7983  2.1831
   12CHTO   H46 5006   4.901  -1.161   2.212  0.4253 -0.5368  0.3714
   12CHTO   C33 5007   4.872  -1.160   2.468 -1.0133  0.3766  0.7234
   12CHTO   H61 5008   4.802  -1.079   2.439 -2.0557 -0.6812  0.2118
   12CHTO   O18 5009   4.889  -1.154   2.610 -0.4180  0.2889  0.5525
   12CHTO   C28 5010   4.968  -1.048   2.670  0.8538  0.3743 -0.5131
   12CHTO   H56 5011   4.920  -0.951   2.660  0.7062  0.3525 -0.0304
   12CHTO   C35 5012   4.967  -1.078   2.824 -0.3091  0.4826 -1.2183
   12CHTO   O24 5013   4.845  -1.103   2.892  0.2546  0.3005 -0.5054
   12CHTO   H39 5014   4.872  -1.134   2.977  1.4474 -0.5367 -1.1595
   12CHTO    O9 5015   4.803  -1.280   2.428  0.0486  0.2083  0.1924
   12CHTO   C13 5016   4.890  -1.413   2.481  0.4689  0.2363  0.2220
   12CHTO   H26 5017   4.987  -1.374   2.520 -0.0213 -0.4071  2.1342
   12CHTO   C11 5018   4.911  -1.508   2.359  0.0512 -0.0599 -0.1972
   12CHTO   H24 5019   4.973  -1.462   2.280  1.1236  0.5474  0.9771
   12CHTO    O8 5020   4.776  -1.543   2.302  0.2645  0.5005 -0.0787
   12CHTO    H3 5021   4.741  -1.625   2.330  0.9042  0.2485 -0.0136
   12CHTO    C9 5022   4.984  -1.633   2.419 -0.2196  0.0290  0.2244
   12CHTO   H22 5023   5.074  -1.593   2.468  0.3704 -0.3285 -0.5462
   12CHTO    N2 5024   5.028  -1.721   2.306 -0.0330  0.4699  0.5517
   12CHTO   H10 5025   5.102  -1.679   2.240  1.3658  1.8308  2.9041
   12CHTO   H11 5026   4.950  -1.765   2.246  0.0670  1.7328 -0.5281
   12CHTO    C7 5027   4.897  -1.704   2.535  0.4531  0.3064  0.1152
   12CHTO   H20 5028   4.957  -1.792   2.565  1.4570  1.3330  1.1721
   12CHTO    O4 5029   4.869  -1.617   2.645  0.3567 -0.3289  0.4208
   12CHTO   C14 5030   4.818  -1.490   2.610 -0.6197  0.6175  0.9492
   12CHTO   H27 5031   4.838  -1.430   2.702  1.4647  2.7601 -0.8303
   12CHTO   C18 5032   4.667  -1.496   2.593  0.1343  0.4138  0.3690
   12CHTO   O13 5033   4.604  -1.502   2.724 -0.2881 -0.5175  0.3753
   12CHTO    H7 5034   4.543  -1.573   2.720 -1.9397  0.9321 -1.6563
   12CHTO    O2 5035   4.742  -1.769   2.477 -0.0460  0.1346 -0.0693
   12CHTO    C1 5036   4.719  -1.906   2.458 -0.5045 -0.0980  1.0891
   12CHTO   H14 5037   4.805  -1.976   2.462 -0.0408  0.5026  1.7553
   12CHTO    C2 5038   4.647  -1.924   2.316  0.0648 -0.0398 -0.3665
   12CHTO   H15 5039   4.571  -1.844   2.310  0.7897  0.6548 -0.3093
   12CHTO    O6 5040   4.742  -1.894   2.210  0.0303 -0.1971 -0.3823
   12CHTO    H1 5041   4.804  -1.964   2.203 -0.2960 -0.5303  0.0419
   12CHTO    C3 5042   4.575  -2.067   2.300  0.1903  0.0464 -0.8084
   12CHTO   H16 5043   4.658  -2.131   2.267  0.9329  0.7265 -0.2719
   12CHTO    N1 5044   4.484  -2.069   2.181  0.5395  0.2683 -0.6710
   12CHTO    H8 5045   4.476  -1.974   2.130  1.1621 -0.6195 -2.4623
   12CHTO    H9 5046   4.390  -2.117   2.201 -0.3252  1.7998 -1.0563
   12CHTO    C4 5047   4.509  -2.130   2.431  0.4117 -0.0568 -0.9371
   12CHTO   H17 5048   4.416  -2.075   2.445  0.8358 -0.0455  1.9781
   12CHTO    O1 5049   4.592  -2.102   2.544  0.0840 -0.1847  0.1862
   12CHTO    C5 5050   4.620  -1.960   2.567 -0.1939  0.5773  0.0919
   12CHTO   H18 5051   4.533  -1.895   2.571 -1.2439 -0.7565 -0.6646
   12CHTO   C16 5052   4.691  -1.958   2.703  0.1851 -0.7827 -0.3105
   12CHTO   O11 5053   4.807  -2.034   2.730 -0.0528  0.4155 -0.4115
   12CHTO    H5 5054   4.827  -2.024   2.821  0.7714  1.1890 -0.6703
   12CHTO    O3 5055   4.489  -2.271   2.419 -0.3083  0.1995 -0.3544
   12CHTO    C6 5056   4.422  -2.346   2.528 -0.4214 -0.3325  0.3196
   12CHTO   H19 5057   4.433  -2.293   2.622 -0.6142 -0.4522  0.4091
   12CHTO    C8 5058   4.267  -2.367   2.503  0.3825 -0.7384  0.1208
   12CHTO   H21 5059   4.254  -2.419   2.407  0.2351  1.3497 -1.0084
   12CHTO    O7 5060   4.215  -2.231   2.502 -0.2907 -0.3221 -0.0181
   12CHTO    H2 5061   4.207  -2.203   2.591 -0.0109 -1.0659  0.2502
   12CHTO   C12 5062   4.196  -2.461   2.612 -0.4743 -0.5316  0.5978
   12CHTO   H25 5063   4.201  -2.412   2.712 -0.5896  0.2187  0.2314
   12CHTO    N3 5064   4.055  -2.480   2.570 -0.1156  0.3663  0.1005
   12CHTO   H12 5065   4.044  -2.579   2.528  1.8271  0.5470 -0.8657
   12CHTO   H13 5066   4.003  -2.466   2.664 -0.8522  2.6980 -0.6225
   12CHTO   C15 5067   4.275  -2.593   2.616  1.0014 -0.4467 -0.1332
   12CHTO   H28 5068   4.270  -2.651   2.525  0.3274 -2.2414  1.0201
   12CHTO   O10 5069   4.228  -2.688   2.729 -0.1568 -0.2676 -0.0198
   12CHTO    H4 5070   4.217  -2.646   2.812  2.4749  0.3263  0.0839
   12CHTO    O5 5071   4.415  -2.559   2.647  0.8088  0.0420  0.0995
   12CHTO   C10 5072   4.484  -2.494   2.544 -0.0658  0.3886  0.4205
   12CHTO   H23 5073   4.461  -2.548   2.452 -0.5030  0.5162  0.4521
   12CHTO   C17 5074   4.634  -2.502   2.565 -0.3822  0.5478  0.6748
   12CHTO   O12 5075   4.701  -2.454   2.443  0.3574  0.3297 -0.1440
   12CHTO    H6 5076   4.784  -2.495   2.430 -1.0322 -3.0117  1.0574
   13CHTO  H203 5077   8.839   4.778   1.520  0.2119  0.1215 -0.2385
   13CHTO   O82 5078   8.748   4.772   1.500 -0.0676 -0.0079  1.0514
   13CHTO  C123 5079   8.708   4.890   1.426 -0.1901  0.1536  0.5255
   13CHTO  H227 5080   8.772   4.901   1.337 -0.7467  3.3781  0.4774
   13CHTO   O77 5081   8.576   4.851   1.382 -0.3225 -0.3381 -0.0007
   13CHTO  C118 5082   8.495   4.957   1.330 -0.5252 -0.5061 -1.0036
   13CHTO  H222 5083   8.541   4.991   1.236  3.5610 -1.9568  0.3782
   13CHTO  C125 5084   8.356   4.889   1.307  0.3932  0.9653  0.2177
   13CHTO   O84 5085   8.340   4.774   1.223  0.1661  0.2328 -0.9964
   13CHTO  H205 5086   8.247   4.764   1.215  0.4320 -3.1152 -0.2975
   13CHTO  C114 5087   8.482   5.076   1.435 -0.2626  0.4310  0.6809
   13CHTO  H218 5088   8.441   5.039   1.529  1.2290  0.6451  1.4339
   13CHTO  C116 5089   8.626   5.132   1.461  0.1517 -0.0578 -0.2876
   13CHTO  H220 5090   8.665   5.158   1.361  1.5524  0.5796  0.4132
   13CHTO   O79 5091   8.613   5.247   1.548  0.2122  0.6700 -0.7238
   13CHTO  H201 5092   8.564   5.225   1.625 -0.2205  0.4638 -1.0574
   13CHTO  C120 5093   8.721   5.020   1.516  0.0317  0.3246  0.0242
   13CHTO  H224 5094   8.691   5.002   1.621  0.1113  1.3931  0.2371
   13CHTO   N21 5095   8.859   5.070   1.531  0.2502  0.1060  0.5456
   13CHTO  H211 5096   8.889   5.126   1.444 -0.4592  0.4126  0.4940
   13CHTO  H212 5097   8.925   4.985   1.532 -0.4212 -0.4187  0.5852
   13CHTO   O75 5098   8.407   5.175   1.365 -0.4829  0.2234 -0.2380
   13CHTO  C112 5099   8.297   5.235   1.465  0.5161 -0.3475  0.0858
   13CHTO  H216 5100   8.341   5.290   1.550 -1.4599  1.2472  0.1325
   13CHTO   O73 5101   8.216   5.127   1.509 -0.2923  0.2226 -0.6090
   13CHTO  C113 5102   8.116   5.175   1.601  0.4267 -0.8768 -0.5276
   13CHTO  H217 5103   8.163   5.224   1.688 -0.8921  2.4703 -1.6103
   13CHTO  C124 5104   8.051   5.056   1.670  0.6758 -0.3937  0.2224
   13CHTO   O83 5105   7.958   4.986   1.587  0.3885 -0.3212  0.1970
   13CHTO  H204 5106   8.007   4.931   1.530 -0.2008 -2.1759  1.4271
   13CHTO  C109 5107   8.011   5.270   1.534  0.5454  0.4681  0.1361
   13CHTO  H213 5108   7.961   5.210   1.457  1.2689  0.4226 -0.3041
   13CHTO  C110 5109   8.086   5.392   1.463  0.6954  0.2439 -0.2708
   13CHTO  H214 5110   8.123   5.458   1.541 -2.8426  0.6153  1.1835
   13CHTO   O78 5111   8.003   5.466   1.373  0.1838 -0.0970 -0.8599
   13CHTO  H200 5112   8.052   5.533   1.329  1.5025 -0.9288 -0.6896
   13CHTO  C111 5113   8.209   5.341   1.383 -0.5992 -0.4256  0.2711
   13CHTO  H215 5114   8.172   5.296   1.290 -0.2510  1.4090 -0.7684
   13CHTO   N19 5115   8.295   5.453   1.346  0.0245 -0.3950 -0.9173
   13CHTO  H207 5116   8.369   5.413   1.278  1.4646 -0.2778  0.5386
   13CHTO  H208 5117   8.238   5.535   1.303  1.2659  0.1728 -1.5264
   13CHTO   O74 5118   7.915   5.316   1.631  0.3149 -0.0935  0.2558
   13CHTO  C115 5119   7.775   5.348   1.562  0.3275 -0.8407 -0.9755
   13CHTO  H219 5120   7.782   5.431   1.491  1.4142 -2.1605 -2.4504
   13CHTO   O76 5121   7.718   5.220   1.466 -0.6081 -0.4245 -0.2859
   13CHTO  C122 5122   7.654   5.112   1.528  0.0240  0.0527  0.0713
   13CHTO  H226 5123   7.726   5.036   1.557  0.9666  0.8213 -0.2102
   13CHTO  C126 5124   7.568   5.053   1.416  0.2396 -0.2749  0.3482
   13CHTO   O85 5125   7.471   5.138   1.357  0.5225  0.1513  0.2567
   13CHTO  H206 5126   7.519   5.210   1.320  0.2002 -0.1034 -0.6674
   13CHTO  C121 5127   7.563   5.149   1.653 -0.3790  0.2330  0.9247
   13CHTO  H225 5128   7.464   5.098   1.646 -0.4028  0.2681  1.0120
   13CHTO   O81 5129   7.631   5.096   1.768  0.7033  0.2612 -0.8355
   13CHTO  H202 5130   7.685   5.162   1.808 -0.7122  1.8520 -1.5072
   13CHTO  C119 5131   7.540   5.305   1.676 -0.0839 -0.1476  0.4822
   13CHTO  H223 5132   7.493   5.348   1.587  1.5855 -0.6067 -0.6373
   13CHTO  C117 5133   7.683   5.385   1.691  1.3935  0.5977 -0.0077
   13CHTO  H221 5134   7.740   5.363   1.781 -0.6726 -1.4279  0.8528
   13CHTO   N20 5135   7.658   5.529   1.700  0.2004 -0.4988  0.9489
   13CHTO  H209 5136   7.588   5.540   1.781 -1.2913 -0.6923 -0.2807
   13CHTO  H210 5137   7.616   5.564   1.607 -2.0153 -0.4694  1.9338
   13CHTO   O80 5138   7.439   5.340   1.797 -0.0889 -0.1332 -0.0355
   13CHTO  C103 5139   7.278   5.391   1.758  0.7036  0.2219 -0.4783
   13CHTO  H190 5140   7.244   5.434   1.852  0.8647  1.0300 -0.7890
   13CHTO  C101 5141   7.268   5.490   1.643  0.5262  0.3452  0.2767
   13CHTO  H188 5142   7.315   5.448   1.555  1.1450  0.7537  0.4066
   13CHTO   O68 5143   7.326   5.643   1.688  0.4036  0.0805  0.7682
   13CHTO  H168 5144   7.292   5.660   1.774  1.8614  1.4770  1.0876
   13CHTO   C99 5145   7.110   5.525   1.602  0.3836 -0.4426  0.1040
   13CHTO  H186 5146   7.055   5.569   1.688  0.8408  0.6737 -0.1685
   13CHTO   N17 5147   7.089   5.612   1.478  0.1737  0.4077  0.1567
   13CHTO  H174 5148   7.067   5.712   1.512 -1.8471  0.4482 -1.2076
   13CHTO  H175 5149   7.179   5.612   1.417 -1.1048 -0.3172 -1.7913
   13CHTO   C97 5150   7.042   5.390   1.578  0.7560 -0.1015 -0.5293
   13CHTO  H184 5151   7.083   5.346   1.486 -0.0529 -0.3569 -0.7673
   13CHTO   O64 5152   7.061   5.303   1.692  0.3796  0.1604 -0.1130
   13CHTO  C104 5153   7.189   5.263   1.737  0.0239 -0.0525 -0.0775
   13CHTO  H191 5154   7.227   5.199   1.658 -0.7561 -1.4630  0.6798
   13CHTO  C108 5155   7.170   5.174   1.860 -0.3763 -0.3224  0.2113
   13CHTO   O71 5156   7.120   5.044   1.820  0.4190 -0.9284  0.3384
   13CHTO  H171 5157   7.027   5.054   1.823  0.6392  1.2132  1.2002
   13CHTO   O62 5158   6.900   5.395   1.564  0.0309  0.6163  0.0172
   13CHTO   C91 5159   6.828   5.282   1.504  0.3720 -0.0957  0.3633
   13CHTO  H178 5160   6.883   5.190   1.521  0.9669  0.3293  0.7683
   13CHTO   C92 5161   6.803   5.310   1.353  0.5856 -0.6511 -0.5520
   13CHTO  H179 5162   6.764   5.412   1.344  1.3433 -0.4983 -2.3023
   13CHTO   O66 5163   6.932   5.314   1.286  0.4455  0.2127  0.0608
   13CHTO  H166 5164   6.967   5.399   1.303 -2.2810  1.2668  0.5666
   13CHTO   C93 5165   6.702   5.202   1.292  0.1466  0.6139 -0.7085
   13CHTO  H180 5166   6.751   5.104   1.295 -2.2564 -0.6419 -1.0080
   13CHTO   N16 5167   6.674   5.225   1.146  0.0353  0.0140  0.2813
   13CHTO  H172 5168   6.767   5.219   1.091  1.2040  0.1773  2.1798
   13CHTO  H173 5169   6.607   5.304   1.115 -0.4031  0.0093  1.2079
   13CHTO   C94 5170   6.573   5.192   1.376  0.3108  0.0851 -0.2316
   13CHTO  H181 5171   6.525   5.289   1.388  2.5173  1.1009  0.6279
   13CHTO   O61 5172   6.621   5.146   1.503 -0.4564  0.5913 -0.2654
   13CHTO   C95 5173   6.689   5.247   1.572  0.1899 -0.2053 -0.0164
   13CHTO  H182 5174   6.629   5.338   1.575  2.2944  1.2008 -0.1724
   13CHTO  C106 5175   6.716   5.201   1.723  0.5432 -0.3479  0.3954
   13CHTO   O69 5176   6.803   5.090   1.740  0.0827  0.0425  0.0065
   13CHTO  H169 5177   6.890   5.113   1.767  0.3305 -0.1799 -0.6023
   13CHTO   O63 5178   6.458   5.082   1.320 -0.2966 -0.0477  0.1678
   13CHTO   C96 5179   6.312   5.087   1.417  0.0892 -0.0874 -0.2338
   13CHTO  H183 5180   6.238   5.033   1.357 -0.1559 -0.0122 -0.0021
   13CHTO   C98 5181   6.249   5.224   1.454  0.3276  0.7437  0.0118
   13CHTO  H185 5182   6.322   5.294   1.498  0.7962  1.5506 -2.0004
   13CHTO   O67 5183   6.204   5.295   1.337 -0.6900  0.0534  0.0798
   13CHTO  H167 5184   6.265   5.281   1.267 -1.3174  0.1063 -0.4817
   13CHTO  C102 5185   6.125   5.209   1.550  0.5582  0.0390  0.5236
   13CHTO  H189 5186   6.050   5.155   1.490  1.4099 -0.3811 -0.1945
   13CHTO   N18 5187   6.069   5.342   1.585  0.0727  0.2170  0.2237
   13CHTO  H176 5188   5.962   5.342   1.602 -0.1799  1.1161 -1.2733
   13CHTO  H177 5189   6.089   5.409   1.503  0.8176 -1.5469 -1.0521
   13CHTO  C105 5190   6.167   5.121   1.671  0.1026  0.1585 -1.0669
   13CHTO  H192 5191   6.227   5.178   1.742  0.2811 -0.7665 -0.4702
   13CHTO   O65 5192   6.236   5.003   1.641  0.2574  0.1885 -0.4896
   13CHTO  C100 5193   6.348   5.005   1.548  0.3048  0.2268  0.4803
   13CHTO  H187 5194   6.430   5.054   1.603 -0.0184  1.0932  0.2004
   13CHTO  C107 5195   6.374   4.854   1.514 -0.2357  0.2724 -0.0444
   13CHTO   O70 5196   6.259   4.784   1.469 -0.0165  0.5738  0.3131
   13CHTO  H170 5197   6.267   4.774   1.376 -0.1258  0.3174  0.3307
   13CHTO   O57 5198   6.038   5.083   1.746  0.0084  0.6356 -0.5920
   13CHTO   C85 5199   5.948   4.985   1.693 -0.1933  0.2293  0.1261
   13CHTO  H157 5200   5.986   4.948   1.595 -2.7009  0.8558 -1.1353
   13CHTO   C83 5201   5.807   5.051   1.661  0.3760 -0.7060 -0.0425
   13CHTO  H155 5202   5.815   5.126   1.582  0.4086  0.7909  1.3520
   13CHTO   O56 5203   5.760   5.132   1.772 -0.3745  0.1103 -0.0140
   13CHTO  H135 5204   5.763   5.085   1.853 -0.6513 -2.6094 -1.5047
   13CHTO   C81 5205   5.703   4.945   1.615  0.5505  0.0215  0.1205
   13CHTO  H153 5206   5.744   4.897   1.525  0.5997  1.1197 -0.4566
   13CHTO   N14 5207   5.577   5.007   1.565 -0.1057 -0.0589  0.2283
   13CHTO  H141 5208   5.606   5.079   1.491  1.0404 -1.2783 -0.5301
   13CHTO  H142 5209   5.518   4.931   1.518  0.9409 -0.6662 -0.1213
   13CHTO   C79 5210   5.671   4.832   1.723 -0.6712  0.7183  0.3041
   13CHTO  H151 5211   5.621   4.747   1.677  0.9652 -0.1252  0.0544
   13CHTO   O52 5212   5.801   4.780   1.767 -0.9649 -0.6472  0.1887
   13CHTO   C86 5213   5.915   4.863   1.792  0.0687 -0.1712 -1.0014
   13CHTO  H158 5214   5.898   4.907   1.893 -1.7260 -1.2849 -0.8028
   13CHTO   C90 5215   6.033   4.760   1.800  0.0135  0.0334 -0.6393
   13CHTO   O60 5216   6.157   4.815   1.843 -0.9044  0.8340  0.0188
   13CHTO  H138 5217   6.148   4.841   1.932 -0.7905  1.9724 -0.2965
   13CHTO   O50 5218   5.595   4.880   1.836 -0.0932 -0.0447 -0.1876
   13CHTO   C73 5219   5.477   4.842   1.909  0.6820 -0.5779 -0.2779
   13CHTO  H145 5220   5.418   4.768   1.853  3.6176 -4.0345  0.9747
   13CHTO   C74 5221   5.390   4.970   1.922  0.4767  0.7767  0.1543
   13CHTO  H146 5222   5.367   5.014   1.824 -0.3487  0.5212  0.2263
   13CHTO   O54 5223   5.264   4.937   1.981  0.2536 -0.1744  0.0588
   13CHTO  H133 5224   5.259   4.990   2.058 -0.0284 -0.3722  0.1758
   13CHTO   C75 5225   5.475   5.071   2.020  0.3040 -0.0297  0.4193
   13CHTO  H147 5226   5.567   5.103   1.967 -1.0270  0.1360 -1.8622
   13CHTO   N13 5227   5.406   5.198   2.066  0.2159  0.3780  0.5775
   13CHTO  H139 5228   5.473   5.247   2.135  1.4690 -0.8671  0.2692
   13CHTO  H140 5229   5.382   5.265   1.986 -0.8141 -1.0210 -0.3084
   13CHTO   C76 5230   5.530   4.995   2.151  0.6814 -0.1744  0.4150
   13CHTO  H148 5231   5.438   4.966   2.203 -1.0057  1.4648 -1.5721
   13CHTO   O49 5232   5.607   4.874   2.118  0.2055  0.4011 -0.1945
   13CHTO   C77 5233   5.525   4.778   2.045 -0.3445 -0.0070 -0.2521
   13CHTO  H149 5234   5.438   4.760   2.109 -1.9748 -0.7737 -2.6049
   13CHTO   C88 5235   5.598   4.640   2.024 -0.0337 -0.7291 -0.5151
   13CHTO   O58 5236   5.642   4.582   2.128 -0.0187 -0.7594 -0.5093
   13CHTO  H136 5237   5.661   4.637   2.202 -1.6422 -0.6961 -0.1091
   13CHTO   O51 5238   5.626   5.094   2.259 -0.4896 -0.9492 -0.2371
   13CHTO   C78 5239   5.788   5.117   2.225 -0.1674  0.3364 -0.1248
   13CHTO  H150 5240   5.837   5.166   2.312 -0.4956 -2.2042  1.5579
   13CHTO   C80 5241   5.802   5.201   2.100 -0.2539 -0.7580 -0.4065
   13CHTO  H152 5242   5.770   5.141   2.012 -0.4457 -1.1097 -0.0946
   13CHTO   O55 5243   5.721   5.319   2.120  0.1398  0.1508  0.5294
   13CHTO  H134 5244   5.723   5.372   2.042  1.7882 -2.2096 -1.1164
   13CHTO   C84 5245   5.959   5.243   2.094 -0.0312  0.4369 -0.2436
   13CHTO  H156 5246   5.985   5.299   2.183  0.7664  0.1849 -0.3216
   13CHTO   N15 5247   5.979   5.341   1.983 -0.6280 -0.4057  0.0486
   13CHTO  H143 5248   5.988   5.441   2.021  1.4338 -1.2113  1.7693
   13CHTO  H144 5249   6.059   5.311   1.920 -0.5586 -1.8555  0.8088
   13CHTO   C87 5250   6.044   5.115   2.076 -0.1310 -0.2196  0.3278
   13CHTO  H159 5251   6.010   5.063   1.986  2.2591 -3.3518  1.1343
   13CHTO   O53 5252   6.008   5.026   2.197 -0.7460 -0.2835  0.4377
   13CHTO   C82 5253   5.870   4.986   2.208 -0.4361 -0.8392 -0.1112
   13CHTO  H154 5254   5.845   4.930   2.118  1.1970  0.6759 -1.5625
   13CHTO   C89 5255   5.857   4.892   2.330 -0.7947  0.0827 -0.3331
   13CHTO   O59 5256   5.936   4.776   2.307  0.6475  0.0656  0.3019
   13CHTO  H137 5257   5.968   4.751   2.391 -1.3177  1.0944  1.3931
   13CHTO   O45 5258   6.211   5.147   2.071 -0.2998  0.4371 -0.2041
   13CHTO   C67 5259   6.285   5.051   2.154  0.1867  0.5491  0.7411
   13CHTO  H124 5260   6.231   4.956   2.150  1.7257 -0.2895 -0.3572
   13CHTO   C65 5261   6.424   5.021   2.100  0.1015  0.1668  0.6057
   13CHTO  H122 5262   6.414   5.006   1.993 -0.4688 -0.4610  0.7414
   13CHTO   O44 5263   6.472   4.901   2.151  0.3234  0.9182 -0.4472
   13CHTO  H102 5264   6.462   4.909   2.244 -0.1832 -0.7743 -0.3459
   13CHTO   C63 5265   6.518   5.146   2.140 -0.1647  0.2151  0.1096
   13CHTO  H120 5266   6.480   5.236   2.091 -1.5986  0.3893  1.4847
   13CHTO   N11 5267   6.654   5.147   2.083  0.2179 -0.2675  0.0011
   13CHTO  H108 5268   6.689   5.046   2.079  2.3971  0.3441  2.5069
   13CHTO  H109 5269   6.723   5.195   2.149  0.1164 -0.6072  0.3552
   13CHTO   C61 5270   6.516   5.160   2.298 -0.2629 -0.2274 -0.1194
   13CHTO  H118 5271   6.574   5.252   2.319 -1.0140  0.2022  0.0788
   13CHTO   O40 5272   6.395   5.183   2.348  0.4652 -0.0720 -0.0474
   13CHTO   C68 5273   6.283   5.097   2.312  0.2282 -0.3437  0.6369
   13CHTO  H125 5274   6.190   5.158   2.316  0.9860  0.6819  4.1134
   13CHTO   C72 5275   6.260   4.972   2.403 -0.4552  0.1783  0.2978
   13CHTO   O48 5276   6.217   5.000   2.539  0.0383 -0.4054  0.7291
   13CHTO  H105 5277   6.189   4.917   2.571  0.3457 -1.4308 -1.5716
   13CHTO   O38 5278   6.580   5.060   2.380  0.0041  0.6480 -0.1270
   13CHTO   C55 5279   6.670   5.099   2.488  0.3401  0.6402 -0.0246
   13CHTO  H112 5280   6.684   5.013   2.555 -0.2818 -0.0503 -0.7690
   13CHTO   C56 5281   6.616   5.226   2.568  0.4426 -0.1477 -0.5721
   13CHTO  H113 5282   6.584   5.306   2.500  0.3048  1.6877  1.5863
   13CHTO   O42 5283   6.496   5.188   2.639  0.1000 -0.1497 -0.9029
   13CHTO  H100 5284   6.441   5.263   2.631  0.2045  0.0682  0.2808
   13CHTO   C57 5285   6.721   5.280   2.673 -1.0454  0.7609  0.3325
   13CHTO  H114 5286   6.728   5.207   2.755  1.7237  2.6245  1.8231
   13CHTO   N10 5287   6.682   5.401   2.746  0.5114 -0.0545 -0.2413
   13CHTO  H106 5288   6.643   5.391   2.846  0.2592  0.7432 -0.2558
   13CHTO  H107 5289   6.755   5.480   2.739  1.8748 -1.1128  1.5824
   13CHTO   C58 5290   6.862   5.295   2.612 -0.1940 -0.3925  0.1673
   13CHTO  H115 5291   6.848   5.374   2.535 -0.2125 -0.7464 -0.1928
   13CHTO   O37 5292   6.899   5.169   2.544  0.0352 -0.0524  0.0550
   13CHTO   C59 5293   6.814   5.122   2.434 -0.3009  0.0607  0.2355
   13CHTO  H116 5294   6.825   5.196   2.355  0.6074  0.1113  0.3963
   13CHTO   C70 5295   6.872   4.993   2.380  0.0968  0.4010  0.5758
   13CHTO   O46 5296   6.881   4.889   2.476 -0.1550 -0.1815  0.2298
   13CHTO  H103 5297   6.803   4.854   2.515 -0.1019 -0.2798  0.2460
   13CHTO   O39 5298   6.991   5.321   2.722 -0.2520  0.2813  0.4537
   13CHTO   C60 5299   7.055   5.447   2.688  0.5643 -0.0539 -0.6278
   13CHTO  H117 5300   7.009   5.484   2.597 -1.5221  0.5473  0.6178
   13CHTO   C62 5301   7.029   5.572   2.781  0.1553  0.0966  0.6571
   13CHTO  H119 5302   6.920   5.590   2.793 -0.2567 -0.5685 -1.9420
   13CHTO   O43 5303   7.100   5.552   2.909  0.7281  0.3814 -0.3558
   13CHTO  H101 5304   7.057   5.593   2.982 -0.2190  1.2402 -1.3628
   13CHTO   C66 5305   7.096   5.700   2.712 -0.1280  0.3300  0.7020
   13CHTO  H123 5306   7.057   5.717   2.612  3.0538  3.3666 -0.1234
   13CHTO   N12 5307   7.062   5.821   2.791 -0.9459 -0.4682  0.1334
   13CHTO  H110 5308   6.958   5.822   2.817 -0.7108 -1.0842  1.1284
   13CHTO  H111 5309   7.118   5.843   2.881 -1.5966 -1.3757  0.7739
   13CHTO   C69 5310   7.246   5.689   2.692 -0.3605 -0.2409  0.1983
   13CHTO  H126 5311   7.308   5.687   2.784  0.4547  1.9211 -0.2609
   13CHTO   O41 5312   7.284   5.556   2.610  0.1539  0.2718  0.3312
   13CHTO   C64 5313   7.208   5.416   2.664  0.0365  0.7563 -0.0485
   13CHTO  H121 5314   7.255   5.386   2.760 -1.9097 -0.9195  0.4178
   13CHTO   C71 5315   7.222   5.313   2.557  0.0833 -0.3882 -0.4294
   13CHTO   O47 5316   7.361   5.308   2.514  0.3569  0.5844  0.2327
   13CHTO  H104 5317   7.377   5.232   2.463  0.1734 -0.3775  1.5861
   13CHTO   O34 5318   7.308   5.802   2.622 -0.1681  0.5842  0.2161
   13CHTO   C49 5319   7.397   5.893   2.540 -0.0937  0.5963 -0.9473
   13CHTO   H91 5320   7.411   5.848   2.441 -0.2742 -1.6577  0.0249
   13CHTO   C47 5321   7.530   5.899   2.618 -0.0513 -0.1022 -0.3731
   13CHTO   H89 5322   7.589   5.975   2.563  0.6697 -0.5690 -0.2454
   13CHTO   O33 5323   7.592   5.768   2.618 -0.3102 -1.0788  0.0783
   13CHTO   H70 5324   7.639   5.749   2.697  2.3432  0.0126 -1.1394
   13CHTO   C45 5325   7.491   5.961   2.765 -0.1384 -0.5279  0.2542
   13CHTO   H87 5326   7.461   5.880   2.834 -0.7211 -0.9805 -0.5154
   13CHTO    N8 5327   7.619   6.017   2.821 -0.0824  0.1681  0.1215
   13CHTO   H75 5328   7.711   6.012   2.764 -0.0099  1.9846  0.0231
   13CHTO   H76 5329   7.641   5.992   2.923 -1.6090 -0.2639  0.3507
   13CHTO   C43 5330   7.369   6.072   2.762  0.5031 -0.1891  0.0400
   13CHTO   H85 5331   7.287   6.001   2.772  0.4934 -0.4922 -1.9756
   13CHTO   O29 5332   7.372   6.131   2.636  0.5968 -0.1804  0.2575
   13CHTO   C50 5333   7.343   6.038   2.530 -0.7018  0.2283  0.2967
   13CHTO   H92 5334   7.233   6.035   2.530 -0.6541 -2.0401  0.2199
   13CHTO   C54 5335   7.380   6.102   2.394 -0.3152 -0.1250  0.6530
   13CHTO   O36 5336   7.275   6.200   2.361 -1.0116  0.1055 -0.8843
   13CHTO   H72 5337   7.308   6.286   2.375 -2.2852  0.8098 -2.0575
   13CHTO   O27 5338   7.356   6.166   2.865  0.9798 -0.4265 -0.7004
   13CHTO   C37 5339   7.280   6.284   2.895  0.6329 -0.8011  0.5842
   13CHTO   H79 5340   7.222   6.258   2.985 -1.9817 -1.1331 -1.1605
   13CHTO   C38 5341   7.378   6.416   2.929 -0.7740  0.5911 -0.3634
   13CHTO   H80 5342   7.450   6.425   2.847  1.2517 -2.5902  0.9752
   13CHTO   O31 5343   7.447   6.388   3.050 -0.9244 -0.4911  0.1053
   13CHTO   H68 5344   7.504   6.313   3.050  0.8329  0.8064 -0.3558
   13CHTO   C39 5345   7.294   6.549   2.945  0.1585  0.6650  0.6702
   13CHTO   H81 5346   7.233   6.539   3.035  0.6066  1.5416  1.0779
   13CHTO    N7 5347   7.388   6.667   2.934  0.4380 -0.6321  0.1410
   13CHTO   H73 5348   7.485   6.661   2.981 -0.1150  1.6423  1.6536
   13CHTO   H74 5349   7.403   6.692   2.830  0.4730 -1.5509 -0.0863
   13CHTO   C40 5350   7.192   6.563   2.825 -0.2637 -0.3988 -0.1681
   13CHTO   H82 5351   7.257   6.553   2.738  0.2197  0.1875  0.1250
   13CHTO   O26 5352   7.108   6.449   2.832 -0.9686  0.0062  0.2014
   13CHTO   C41 5353   7.179   6.327   2.788  0.2230 -0.2668  0.7017
   13CHTO   H83 5354   7.231   6.341   2.692  0.6401 -2.9807  0.4908
   13CHTO   C52 5355   7.064   6.217   2.774 -0.5082 -1.3050 -0.3995
   13CHTO   O35 5356   6.972   6.250   2.642 -0.3003  0.4768 -0.4321
   13CHTO   H71 5357   6.968   6.187   2.573 -0.1461  1.4086 -1.3063
   13CHTO   O28 5358   7.101   6.665   2.837 -0.1511  0.0209  0.7905
   13CHTO   C42 5359   7.021   6.723   2.728 -0.8776  0.2147 -0.0191
   13CHTO   H84 5360   7.026   6.648   2.648 -2.4359 -0.4047  0.4467
   13CHTO   C44 5361   7.084   6.858   2.664  0.1437 -0.0964  0.1681
   13CHTO   H86 5362   7.089   6.930   2.745 -1.3221 -1.2024  1.2695
   13CHTO   O32 5363   7.220   6.826   2.623  0.5841 -0.3672  0.4800
   13CHTO   H69 5364   7.269   6.901   2.597 -2.5776  1.2013 -1.2564
   13CHTO   C48 5365   6.990   6.917   2.549 -0.0512 -0.2267  0.9763
   13CHTO   H90 5366   7.004   6.841   2.472  0.1029  0.8734 -0.0965
   13CHTO    N9 5367   7.033   7.044   2.485  0.2265 -0.0192  0.1464
   13CHTO   H77 5368   7.058   7.124   2.554  3.3942 -0.4868 -0.3583
   13CHTO   H78 5369   7.116   7.026   2.418  0.7555  0.4047  0.6785
   13CHTO   C51 5370   6.843   6.928   2.602  0.4653  0.1531 -0.6566
   13CHTO   H93 5371   6.840   6.998   2.685  3.2301  0.4870 -0.7755
   13CHTO   O30 5372   6.793   6.801   2.641  0.2836  0.5890 -0.6353
   13CHTO   C46 5373   6.871   6.734   2.766  1.1441  0.3880 -0.2915
   13CHTO   H88 5374   6.856   6.786   2.861 -0.6888 -0.1651 -0.2628
   13CHTO   C53 5375   6.812   6.596   2.778  0.0548  0.3669  0.3376
   13CHTO   O72 5376   6.825   6.540   2.906 -0.2543 -0.1243 -0.0673
   13CHTO  H199 5377   6.827   6.447   2.893 -0.3088 -0.1617  0.1961
   13CHTO   O22 5378   6.748   6.976   2.508  0.3470 -0.0492  0.6323
   13CHTO   C31 5379   6.609   7.028   2.532 -0.6945  0.1137 -0.3705
   13CHTO   H59 5380   6.571   7.036   2.428  2.3895  1.4604 -1.4560
   13CHTO   C29 5381   6.515   6.934   2.612  0.2704 -0.3460  0.3016
   13CHTO   H57 5382   6.567   6.908   2.705  1.5012 -0.6234 -0.4519
   13CHTO   O21 5383   6.506   6.810   2.537  0.1351 -0.4189  0.3063
   13CHTO   H37 5384   6.460   6.739   2.578 -0.5869  1.1889  2.3577
   13CHTO   C27 5385   6.370   6.991   2.639  0.2348 -0.9769  0.3832
   13CHTO   H55 5386   6.307   6.981   2.549 -1.5070 -2.0301  1.6945
   13CHTO    N5 5387   6.296   6.911   2.741 -0.0708 -0.1506  0.3325
   13CHTO   H43 5388   6.273   6.963   2.833  1.3357  1.1365 -0.0209
   13CHTO   H44 5389   6.327   6.809   2.755  0.3228 -0.0608  0.1213
   13CHTO   C25 5390   6.375   7.148   2.673 -0.3871 -0.3192  0.5108
   13CHTO   H53 5391   6.388   7.156   2.782 -1.6196 -1.7483  0.7770
   13CHTO   O17 5392   6.475   7.226   2.593  0.4362 -0.4414 -0.3189
   13CHTO   C32 5393   6.607   7.173   2.585  0.0448 -0.4973 -0.0639
   13CHTO   H60 5394   6.640   7.173   2.689 -0.0074  0.2965 -0.0437
   13CHTO   C36 5395   6.707   7.273   2.528 -0.1999  0.9610  0.3790
   13CHTO   O25 5396   6.727   7.398   2.592  0.5954 -0.1530  0.4018
   13CHTO   H40 5397   6.795   7.444   2.547 -1.2746  1.1622 -1.1606
   13CHTO   O15 5398   6.239   7.212   2.655  0.1548 -0.0365  0.2359
   13CHTO   C19 5399   6.137   7.266   2.570 -0.8826 -0.7047  0.1100
   13CHTO   H47 5400   6.161   7.373   2.573 -1.7361 -0.4868 -0.6335
   13CHTO   C20 5401   6.130   7.214   2.427  0.0103  0.8190  0.5727
   13CHTO   H48 5402   6.091   7.112   2.422 -3.1140  2.0047 -0.5995
   13CHTO   O19 5403   6.260   7.221   2.378 -0.3283  0.4771  0.1948
   13CHTO   H35 5404   6.265   7.223   2.284 -0.9536  3.2825  0.1911
   13CHTO   C21 5405   6.020   7.294   2.342  0.4904  0.4294 -0.0159
   13CHTO   H49 5406   6.050   7.398   2.331  1.4812  0.0662 -0.9643
   13CHTO    N4 5407   6.019   7.235   2.208  0.2168 -0.3477 -0.5061
   13CHTO   H41 5408   5.982   7.133   2.209 -1.5293  0.2560 -1.8744
   13CHTO   H42 5409   5.947   7.294   2.154  0.5718 -0.4636 -1.1178
   13CHTO   C22 5410   5.883   7.290   2.419  0.0054  0.2091 -0.1124
   13CHTO   H50 5411   5.846   7.188   2.405 -0.8499  0.3704  0.8750
   13CHTO   O14 5412   5.893   7.321   2.563 -0.2203 -0.1860  0.2953
   13CHTO   C23 5413   5.995   7.249   2.642 -0.4812  0.4935  0.3214
   13CHTO   H51 5414   5.964   7.144   2.657 -2.8403  1.1583  0.2634
   13CHTO   C34 5415   5.984   7.318   2.778  0.5502 -0.0002 -0.4661
   13CHTO   O23 5416   6.072   7.254   2.869  0.4740 -0.2282  0.0400
   13CHTO   H38 5417   6.057   7.284   2.957 -0.2642  0.9352 -0.4668
   13CHTO   O16 5418   5.771   7.373   2.359  0.3082  0.3959 -0.1069
   13CHTO   C24 5419   5.617   7.311   2.366 -0.8937 -0.4803 -0.1358
   13CHTO   H52 5420   5.595   7.267   2.463 -0.6673  2.4488  1.3127
   13CHTO   C26 5421   5.580   7.218   2.245  0.0468  0.7410  0.4141
   13CHTO   H54 5422   5.604   7.270   2.150  2.8360 -3.0353 -1.0438
   13CHTO   O20 5423   5.677   7.116   2.248 -0.1527  0.1512  0.6868
   13CHTO   H36 5424   5.741   7.125   2.316  0.5276 -1.7246  0.3359
   13CHTO   C30 5425   5.434   7.173   2.244  0.6238 -0.3897  0.7187
   13CHTO   H58 5426   5.406   7.110   2.329  1.3097  0.3348  1.4872
   13CHTO    N6 5427   5.402   7.088   2.125  0.0383  0.5266  0.3143
   13CHTO   H45 5428   5.482   7.080   2.053  2.2575  1.9762  2.5404
   13CHTO   H46 5429   5.309   7.115   2.076  0.2830 -0.3556 -0.6604
   13CHTO   C33 5430   5.342   7.299   2.256 -0.0483  0.2680  0.3635
   13CHTO   H61 5431   5.342   7.359   2.163 -1.1700  0.5427  0.5262
   13CHTO   O18 5432   5.384   7.390   2.361  0.5615 -0.7219  0.5013
   13CHTO   C28 5433   5.516   7.435   2.355 -0.8106  0.7200 -0.1653
   13CHTO   H56 5434   5.543   7.488   2.264  0.3165 -1.2497 -1.0070
   13CHTO   C35 5435   5.530   7.544   2.470  0.1669  0.3305  0.0576
   13CHTO   O24 5436   5.656   7.599   2.490 -0.2690  0.6414  0.0668
   13CHTO   H39 5437   5.646   7.683   2.532 -1.6841  0.7171 -0.3949
   13CHTO    O9 5438   5.200   7.258   2.273 -0.4165  0.1407  0.7947
   13CHTO   C13 5439   5.157   7.184   2.398  0.0752  1.0462  0.3630
   13CHTO   H26 5440   5.244   7.171   2.465 -0.1778  2.0878  0.9180
   13CHTO   C11 5441   5.091   7.054   2.358  0.4477 -0.4752  0.2209
   13CHTO   H24 5442   5.166   7.006   2.293  1.7919 -1.5236  2.4601
   13CHTO    O8 5443   4.965   7.064   2.278 -0.0293 -0.0786  0.1297
   13CHTO    H3 5444   4.948   7.151   2.247  1.0435 -0.1654 -0.7011
   13CHTO    C9 5445   5.071   6.973   2.489 -0.4842  1.1737 -0.7673
   13CHTO   H22 5446   5.166   6.978   2.543 -1.3495 -0.6052  0.9501
   13CHTO    N2 5447   5.039   6.831   2.470 -0.1968  0.2145 -0.2928
   13CHTO   H10 5448   5.120   6.769   2.504  0.8852  1.8162  0.1308
   13CHTO   H11 5449   4.942   6.803   2.507  0.3453 -0.4776  0.6237
   13CHTO    C7 5450   4.964   7.053   2.575 -0.0904  0.1114  0.0506
   13CHTO   H20 5451   5.005   7.063   2.678  0.4475  2.2079 -0.3376
   13CHTO    O4 5452   4.935   7.186   2.530  0.4508 -0.1977 -0.4390
   13CHTO   C14 5453   5.054   7.258   2.496  0.4045  0.0236 -0.5153
   13CHTO   H27 5454   5.108   7.280   2.591  1.4977 -1.4103 -0.7888
   13CHTO   C18 5455   5.012   7.398   2.440  0.3684  0.4362 -0.1117
   13CHTO   O13 5456   4.974   7.482   2.546  0.8183 -0.0358 -0.0077
   13CHTO    H7 5457   5.054   7.529   2.560 -0.2322  1.7677  0.1292
   13CHTO    O2 5458   4.807   6.981   2.587 -0.7254  0.0888  0.0274
   13CHTO    C1 5459   4.766   6.946   2.723  0.1442 -0.8063  0.3908
   13CHTO   H14 5460   4.765   7.039   2.783  2.3046 -0.6308  0.1992
   13CHTO    C2 5461   4.852   6.835   2.801 -0.5889  0.4072  1.0116
   13CHTO   H15 5462   4.866   6.756   2.726 -2.0250  1.1973 -0.1049
   13CHTO    O6 5463   4.980   6.884   2.842 -0.3249  0.4923 -0.2252
   13CHTO    H1 5464   4.985   6.908   2.933  1.4793 -3.2881  0.7347
   13CHTO    C3 5465   4.774   6.772   2.927  0.1709 -0.8278 -0.2301
   13CHTO   H16 5466   4.788   6.846   3.007 -0.9501 -0.1364 -0.6664
   13CHTO    N1 5467   4.836   6.642   2.979  0.0052  0.0197 -0.0473
   13CHTO    H8 5468   4.929   6.681   3.019  2.2661 -3.4107 -1.7902
   13CHTO    H9 5469   4.869   6.566   2.911  1.6976 -0.1527  0.9499
   13CHTO    C4 5470   4.614   6.756   2.912 -0.4344 -0.3809 -0.4392
   13CHTO   H17 5471   4.590   6.663   2.860 -0.5406 -0.6106  0.0165
   13CHTO    O1 5472   4.567   6.869   2.835  0.0628 -0.5349 -0.1823
   13CHTO    C5 5473   4.620   6.894   2.711  0.6820 -0.3438  0.2795
   13CHTO   H18 5474   4.631   6.804   2.650 -0.8917  0.6033 -1.4917
   13CHTO   C16 5475   4.536   6.999   2.635  0.0552 -0.2176 -0.1996
   13CHTO   O11 5476   4.399   6.960   2.610  0.1901  0.0981  0.3365
   13CHTO    H5 5477   4.400   6.888   2.550 -1.0828  1.1174 -0.9633
   13CHTO    O3 5478   4.542   6.765   3.034  0.6178 -0.1002  0.1803
   13CHTO    C6 5479   4.412   6.709   3.048 -0.1563 -0.8221  0.7994
   13CHTO   H19 5480   4.369   6.690   2.950  1.2575  0.5603 -0.1023
   13CHTO    C8 5481   4.426   6.578   3.129 -0.0906 -0.1176 -1.0786
   13CHTO   H21 5482   4.477   6.603   3.222 -0.6876  0.7817 -0.9942
   13CHTO    O7 5483   4.508   6.487   3.052 -0.5046 -0.2487  1.0450
   13CHTO    H2 5484   4.498   6.505   2.960  0.3898 -1.9800  0.5827
   13CHTO   C12 5485   4.285   6.518   3.166 -0.5772  0.6124  0.7223
   13CHTO   H25 5486   4.239   6.485   3.070  2.1119 -3.0033  0.5570
   13CHTO    N3 5487   4.307   6.388   3.250 -0.1805 -0.2192  0.2350
   13CHTO   H12 5488   4.256   6.394   3.345  0.0356  2.2396  0.2337
   13CHTO   H13 5489   4.306   6.297   3.193 -0.9770  1.1002 -1.9378
   13CHTO   C15 5490   4.193   6.626   3.234  0.2264 -0.3892 -0.1695
   13CHTO   H28 5491   4.227   6.653   3.334  1.8178 -2.9505  0.0237
   13CHTO   O10 5492   4.059   6.571   3.239  0.0651 -0.3715  0.4083
   13CHTO    H4 5493   4.012   6.569   3.320  0.1895 -1.2929  0.4609
   13CHTO    O5 5494   4.186   6.739   3.147  0.0136  0.0851 -0.0714
   13CHTO   C10 5495   4.313   6.809   3.115 -0.2159  0.1003  0.4428
   13CHTO   H23 5496   4.358   6.828   3.212 -1.1557  0.3587  0.8346
   13CHTO   C17 5497   4.285   6.940   3.034 -0.0660  0.1286  0.3894
   13CHTO   O12 5498   4.238   6.921   2.901 -0.0175  0.2031  0.0174
   13CHTO    H6 5499   4.287   6.856   2.854  1.0170  0.6591  0.4464
   14CHTO  H203 5500   6.973   4.660   1.772  1.1976  0.5428 -0.9068
   14CHTO   O82 5501   6.970   4.741   1.820  0.0969  0.3211 -0.5746
   14CHTO  C123 5502   6.876   4.734   1.930  0.1915 -0.4576  0.9500
   14CHTO  H227 5503   6.865   4.835   1.972  2.1179 -0.2575  1.0277
   14CHTO   O77 5504   6.751   4.680   1.863  0.3189  0.0144  0.5947
   14CHTO  C118 5505   6.636   4.684   1.952 -1.0951 -0.1769 -0.2698
   14CHTO  H222 5506   6.639   4.786   1.995  1.9471 -0.8753  1.3309
   14CHTO  C125 5507   6.493   4.660   1.879 -0.0002 -0.0789  0.4108
   14CHTO   O84 5508   6.452   4.771   1.802 -0.1566  0.1436  0.5139
   14CHTO  H205 5509   6.443   4.752   1.710  3.0962  1.7346 -0.2085
   14CHTO  C114 5510   6.652   4.590   2.070 -0.0581  0.4500  0.4138
   14CHTO  H218 5511   6.654   4.489   2.029 -3.3795  0.0580  1.0291
   14CHTO  C116 5512   6.780   4.624   2.144  0.3921 -0.5892  0.6555
   14CHTO  H220 5513   6.779   4.725   2.188 -0.1576 -0.4414  0.3144
   14CHTO   O79 5514   6.805   4.528   2.243  0.4322 -0.0963  0.3631
   14CHTO  H201 5515   6.754   4.554   2.317 -0.2116  0.3667 -0.2368
   14CHTO  C120 5516   6.906   4.622   2.041 -0.6133  0.3174  0.2449
   14CHTO  H224 5517   6.912   4.522   1.993 -4.4927 -0.1519  0.5789
   14CHTO   N21 5518   7.041   4.634   2.105 -0.5776  0.2000 -0.0693
   14CHTO  H211 5519   7.028   4.659   2.209  1.5274 -1.0822  0.5269
   14CHTO  H212 5520   7.117   4.686   2.048  0.4808 -1.6791 -0.4143
   14CHTO   O75 5521   6.543   4.610   2.162 -0.3201  0.0685 -0.3710
   14CHTO  C112 5522   6.441   4.483   2.185  0.6271  0.3161 -0.3570
   14CHTO  H216 5523   6.457   4.434   2.282 -3.2916  2.9633  1.7680
   14CHTO   O73 5524   6.447   4.390   2.078 -0.3917 -0.0121  0.2986
   14CHTO  C113 5525   6.375   4.265   2.093 -0.8990 -0.2285 -0.2284
   14CHTO  H217 5526   6.399   4.222   2.193 -0.1099 -1.4559 -0.9246
   14CHTO  C124 5527   6.396   4.156   1.992 -0.6458 -0.4038 -0.6040
   14CHTO   O83 5528   6.544   4.136   1.983 -0.1135  0.3999 -0.1160
   14CHTO  H204 5529   6.572   4.078   2.051  1.7191  1.7150  0.2984
   14CHTO  C109 5530   6.226   4.304   2.087  0.6251  0.1777  0.7855
   14CHTO  H213 5531   6.207   4.359   1.994 -3.0920  0.6230  1.7314
   14CHTO  C110 5532   6.193   4.417   2.182 -0.1498 -0.2386 -0.5544
   14CHTO  H214 5533   6.190   4.378   2.284  0.8088 -0.4192 -0.5896
   14CHTO   O78 5534   6.058   4.466   2.168  0.4822 -0.1305 -0.3116
   14CHTO  H200 5535   6.005   4.401   2.208 -1.6202  0.0937 -2.6320
   14CHTO  C111 5536   6.293   4.538   2.187  0.4319  0.6676 -0.4370
   14CHTO  H215 5537   6.280   4.602   2.099  1.1251  1.9235  0.3575
   14CHTO   N19 5538   6.277   4.625   2.313  0.1338  0.3409  0.4894
   14CHTO  H207 5539   6.339   4.713   2.303  0.0451  0.4204  0.6440
   14CHTO  H208 5540   6.305   4.567   2.400 -1.9830  0.0795  1.0349
   14CHTO   O74 5541   6.130   4.196   2.100 -0.3821  0.3768 -0.4870
   14CHTO  C115 5542   6.076   4.153   1.973  0.5158 -0.5111  0.0011
   14CHTO  H219 5543   6.122   4.210   1.892  0.9396  1.0649  1.3117
   14CHTO   O76 5544   6.121   3.982   1.935  0.5758  0.2508 -0.4163
   14CHTO  C122 5545   6.034   3.888   1.996  0.7510 -0.1190  0.3928
   14CHTO  H226 5546   6.060   3.879   2.102  0.1664 -1.9306  0.3975
   14CHTO  C126 5547   6.056   3.739   1.926 -0.1715  0.2366  0.1347
   14CHTO   O85 5548   6.185   3.680   1.961  0.1733  0.5845  0.2046
   14CHTO  H206 5549   6.262   3.706   1.913  1.4805 -0.9591  1.4082
   14CHTO  C121 5550   5.881   3.927   1.989  0.2788 -0.3614 -0.4715
   14CHTO  H225 5551   5.830   3.841   1.940  0.8223 -0.6389 -0.5576
   14CHTO   O81 5552   5.824   3.926   2.125  0.0516  0.0853 -0.1577
   14CHTO  H202 5553   5.886   3.948   2.193  2.0073  4.8229 -3.1701
   14CHTO  C119 5554   5.842   4.054   1.913  0.1271 -0.2619  0.1860
   14CHTO  H223 5555   5.889   4.042   1.815  1.2081 -2.6744  0.9839
   14CHTO  C117 5556   5.914   4.182   1.970 -0.8587  0.2713  0.4618
   14CHTO  H221 5557   5.886   4.209   2.072 -1.7628 -2.6414  1.0284
   14CHTO   N20 5558   5.883   4.305   1.882 -0.1936 -0.5306  0.2282
   14CHTO  H209 5559   5.966   4.374   1.887 -0.1229 -0.6623  0.9199
   14CHTO  H210 5560   5.800   4.359   1.925 -0.6359  0.6491 -2.0244
   14CHTO   O80 5561   5.679   4.070   1.872 -0.3841 -0.2694 -0.3578
   14CHTO  C103 5562   5.637   4.065   1.739  0.0341 -0.4648 -0.5121
   14CHTO  H190 5563   5.702   4.134   1.686  0.0955  0.9452  1.3803
   14CHTO  C101 5564   5.628   3.918   1.676  0.4013  0.0740  0.1264
   14CHTO  H188 5565   5.561   3.860   1.740  1.4052 -1.8649 -0.5423
   14CHTO   O68 5566   5.770   3.855   1.682  0.3076 -1.1160 -0.4776
   14CHTO  H168 5567   5.776   3.784   1.620 -1.7405 -1.0730 -0.7503
   14CHTO   C99 5568   5.558   3.934   1.533 -0.4766 -0.4531  0.2602
   14CHTO  H186 5569   5.606   4.004   1.463 -0.0239 -0.5257  0.4979
   14CHTO   N17 5570   5.549   3.809   1.451  0.3365  0.1334 -0.5430
   14CHTO  H174 5571   5.590   3.727   1.509 -3.5331 -1.4519  0.0832
   14CHTO  H175 5572   5.573   3.827   1.348 -0.0681  1.6875 -0.3644
   14CHTO   C97 5573   5.420   3.985   1.558  0.2192 -0.7505 -0.0228
   14CHTO  H184 5574   5.353   3.912   1.606  0.6828 -0.8834  0.4380
   14CHTO   O64 5575   5.421   4.110   1.626 -0.1774 -0.1134 -0.3097
   14CHTO  C104 5576   5.490   4.122   1.749  0.5315  0.2620 -0.7303
   14CHTO  H191 5577   5.442   4.074   1.835  2.8443 -0.8940 -0.0230
   14CHTO  C108 5578   5.488   4.268   1.785 -0.2532  0.2297 -0.6917
   14CHTO   O71 5579   5.571   4.343   1.698  0.4116  0.7226 -0.8724
   14CHTO  H171 5580   5.539   4.367   1.613 -0.6348  1.8586 -0.1787
   14CHTO   O62 5581   5.362   4.036   1.436 -0.0340 -0.1214  0.2247
   14CHTO   C91 5582   5.221   4.052   1.430 -0.9413 -0.0220 -0.0500
   14CHTO  H178 5583   5.171   3.966   1.473  0.1400 -1.1615 -1.0515
   14CHTO   C92 5584   5.179   4.060   1.282  0.3244  0.0853  1.1068
   14CHTO  H179 5585   5.215   3.970   1.231  0.2757 -1.5284  3.8212
   14CHTO   O66 5586   5.038   4.038   1.279 -0.0980  0.2262 -0.0883
   14CHTO  H166 5587   5.017   3.980   1.209 -1.1548  0.5923 -0.0856
   14CHTO   C93 5588   5.205   4.204   1.218 -0.6284  0.4107  0.1139
   14CHTO  H180 5589   5.152   4.195   1.123  0.7290 -1.1678 -0.5243
   14CHTO   N16 5590   5.345   4.224   1.183 -0.5090 -0.0214  0.0213
   14CHTO  H172 5591   5.374   4.147   1.114  0.6236 -1.2327  1.8128
   14CHTO  H173 5592   5.367   4.320   1.139  2.8380 -1.0812 -0.7337
   14CHTO   C94 5593   5.147   4.325   1.304  0.4352  0.0523  0.3635
   14CHTO  H181 5594   5.227   4.392   1.339  0.4239  1.8442 -2.8290
   14CHTO   O61 5595   5.083   4.271   1.425  0.3777 -0.0559  0.1871
   14CHTO   C95 5596   5.155   4.183   1.511  0.2448 -0.0280 -0.0769
   14CHTO  H182 5597   5.230   4.242   1.564  0.7613  0.9000 -1.7988
   14CHTO  C106 5598   5.056   4.143   1.630  0.3277 -0.4349  0.2575
   14CHTO   O69 5599   5.131   4.043   1.711 -0.4195 -0.3696  0.8498
   14CHTO  H169 5600   5.073   3.970   1.716 -0.3269 -0.4245  1.0996
   14CHTO   O63 5601   5.043   4.401   1.227  0.0107 -0.3196  0.7452
   14CHTO   C96 5602   5.054   4.581   1.230 -0.5438 -0.3272  0.3861
   14CHTO  H183 5603   4.964   4.624   1.186 -0.3516  1.2878  1.5034
   14CHTO   C98 5604   5.178   4.635   1.159  0.1232  1.0659 -0.0039
   14CHTO  H185 5605   5.269   4.577   1.185  0.4093  1.5831  0.1593
   14CHTO   O67 5606   5.153   4.604   1.021  0.4704 -0.2339  0.8882
   14CHTO  H167 5607   5.226   4.573   0.972 -0.6061 -0.2457 -0.7719
   14CHTO  C102 5608   5.212   4.787   1.182 -0.0485  0.5332  0.7792
   14CHTO  H189 5609   5.137   4.842   1.123  0.3597  2.1145  1.6771
   14CHTO   N18 5610   5.345   4.823   1.124  0.0357 -0.2693  0.3362
   14CHTO  H176 5611   5.354   4.906   1.055  2.7118 -2.5438 -2.1763
   14CHTO  H177 5612   5.429   4.819   1.191  0.7260  4.0334 -0.1063
   14CHTO  C105 5613   5.194   4.822   1.333 -0.7714 -0.3651 -0.0580
   14CHTO  H192 5614   5.275   4.779   1.392 -0.6214 -0.0218 -0.0139
   14CHTO   O65 5615   5.074   4.765   1.389  0.3090 -0.0946 -0.3490
   14CHTO  C100 5616   5.042   4.630   1.377  0.3162  0.1552  0.2221
   14CHTO  H187 5617   5.122   4.578   1.433  0.4472 -1.7057 -1.6275
   14CHTO  C107 5618   4.905   4.605   1.447 -0.1025  0.2527 -1.0349
   14CHTO   O70 5619   4.907   4.493   1.530 -0.3701 -0.2151 -0.2237
   14CHTO  H170 5620   4.820   4.480   1.563  0.3659  0.1731  1.8897
   14CHTO   O57 5621   5.204   4.973   1.342 -0.3899 -0.0069  0.0429
   14CHTO   C85 5622   5.104   5.054   1.405 -0.1553  0.2801 -0.8182
   14CHTO  H157 5623   5.012   4.992   1.412 -0.6870  1.2121  0.9614
   14CHTO   C83 5624   5.085   5.175   1.305  0.0245 -0.3080  0.0221
   14CHTO  H155 5625   5.039   5.136   1.215 -1.5436 -0.0927  0.7147
   14CHTO   O56 5626   5.214   5.230   1.270  0.3446 -0.0958  0.0781
   14CHTO  H135 5627   5.247   5.293   1.331  0.2071  0.3801 -0.3297
   14CHTO   C81 5628   4.993   5.280   1.367 -0.1372 -0.2324 -0.1090
   14CHTO  H153 5629   4.900   5.234   1.399  0.1031  0.4312  1.5818
   14CHTO   N14 5630   4.945   5.395   1.280 -0.7351 -0.4804  0.6064
   14CHTO  H141 5631   4.918   5.372   1.180  2.7330  1.4360 -0.8537
   14CHTO  H142 5632   4.860   5.436   1.331 -0.7694  4.1652 -2.8445
   14CHTO   C79 5633   5.060   5.340   1.494  0.3012  0.5428 -0.4535
   14CHTO  H151 5634   4.988   5.411   1.535 -0.3634  1.5469 -3.2742
   14CHTO   O52 5635   5.079   5.233   1.590 -0.3839  0.2766  0.4809
   14CHTO   C86 5636   5.149   5.112   1.547 -0.1572  0.3400 -0.1148
   14CHTO  H158 5637   5.254   5.145   1.534 -0.3745  0.3692 -2.0007
   14CHTO   C90 5638   5.136   5.004   1.651 -0.4759  0.3480 -0.0164
   14CHTO   O60 5639   5.208   4.884   1.643  0.2594  0.1832 -0.0049
   14CHTO  H138 5640   5.301   4.897   1.639 -0.0205  1.6866 -3.2220
   14CHTO   O50 5641   5.186   5.411   1.461  0.2699 -0.2177  0.3365
   14CHTO   C73 5642   5.204   5.545   1.515  0.1110 -0.6562 -0.2307
   14CHTO  H145 5643   5.133   5.566   1.596  0.7728 -1.5191  0.5890
   14CHTO   C74 5644   5.189   5.650   1.397  0.2068  0.2261  0.2513
   14CHTO  H146 5645   5.092   5.629   1.349 -0.5457  1.5028  1.1549
   14CHTO   O54 5646   5.180   5.778   1.461  0.3911 -0.8013  0.2025
   14CHTO  H133 5647   5.120   5.773   1.533  1.3332 -0.5777  1.0134
   14CHTO   C75 5648   5.302   5.642   1.293 -0.6723  0.3583  0.5913
   14CHTO  H147 5649   5.287   5.547   1.241 -1.4218  0.2072  1.0844
   14CHTO   N13 5650   5.300   5.756   1.192  0.4649  0.4846  0.1280
   14CHTO  H139 5651   5.202   5.801   1.203  0.6151  0.7451  0.4016
   14CHTO  H140 5652   5.318   5.713   1.095 -1.0672  0.5776 -0.2130
   14CHTO   C76 5653   5.446   5.639   1.367 -0.0968  0.3717  0.7395
   14CHTO  H148 5654   5.466   5.738   1.407 -0.5113  0.4501  0.7604
   14CHTO   O49 5655   5.440   5.531   1.467 -0.8940 -0.0061  0.0905
   14CHTO   C77 5656   5.352   5.556   1.578 -0.6387  0.2954  0.4348
   14CHTO  H149 5657   5.376   5.652   1.624 -0.2248  0.2521  0.3188
   14CHTO   C88 5658   5.355   5.450   1.692  0.3061  0.0329  0.5181
   14CHTO   O58 5659   5.498   5.457   1.772  0.1647  0.2189  0.4767
   14CHTO  H136 5660   5.520   5.373   1.808 -0.5708 -0.2450 -0.1462
   14CHTO   O51 5661   5.557   5.597   1.246 -0.1907 -0.3099 -0.3537
   14CHTO   C78 5662   5.711   5.666   1.285  0.1900 -0.1412  0.0661
   14CHTO  H150 5663   5.731   5.703   1.388  0.6378 -0.0190 -0.0675
   14CHTO   C80 5664   5.749   5.780   1.180 -0.1365 -0.3892  0.6827
   14CHTO  H152 5665   5.762   5.736   1.079 -1.9074  0.1968  0.2008
   14CHTO   O55 5666   5.651   5.884   1.191  0.6819 -0.4213  0.0215
   14CHTO  H134 5667   5.615   5.909   1.108  0.4288 -0.5369  0.0966
   14CHTO   C84 5668   5.896   5.834   1.217 -0.0834 -0.2725 -0.0640
   14CHTO  H156 5669   5.905   5.847   1.324 -0.3562  0.3652 -0.1156
   14CHTO   N15 5670   5.950   5.950   1.139  0.3992  0.5008  0.3114
   14CHTO  H143 5671   6.036   5.919   1.084  1.0538 -0.1055  1.6632
   14CHTO  H144 5672   5.979   6.027   1.208 -2.0042  0.2364  1.6654
   14CHTO   C87 5673   5.995   5.716   1.215  0.6041 -0.2087 -0.5581
   14CHTO  H159 5674   6.007   5.674   1.115  1.1525 -3.2588  0.7475
   14CHTO   O53 5675   5.941   5.597   1.301 -0.4166  0.2894 -0.4247
   14CHTO   C82 5676   5.807   5.553   1.272 -0.2376 -0.4589 -0.0928
   14CHTO  H154 5677   5.796   5.516   1.170 -2.2736 -0.1274 -0.0121
   14CHTO   C89 5678   5.775   5.435   1.371  0.2528  0.1640 -0.3557
   14CHTO   O59 5679   5.759   5.482   1.506 -0.1145  0.6406 -0.2884
   14CHTO  H137 5680   5.673   5.511   1.530  0.2885  0.8890  0.8961
   14CHTO   O45 5681   6.141   5.749   1.282 -0.3034 -0.3820 -0.3364
   14CHTO   C67 5682   6.247   5.652   1.270 -0.0397  0.5005 -0.2419
   14CHTO  H124 5683   6.205   5.557   1.303  0.7096  0.2385 -0.0294
   14CHTO   C65 5684   6.294   5.633   1.125  0.6534 -0.3429  0.0886
   14CHTO  H122 5685   6.202   5.623   1.069  1.1641 -0.4234 -0.7462
   14CHTO   O44 5686   6.367   5.510   1.114 -0.1309  0.7711  0.4732
   14CHTO  H102 5687   6.316   5.445   1.070 -0.3058  2.2185 -1.5579
   14CHTO   C63 5688   6.372   5.757   1.077  0.1889  0.2954  0.1895
   14CHTO  H120 5689   6.309   5.846   1.076  2.3753  1.9179  1.0545
   14CHTO   N11 5690   6.417   5.755   0.928  0.0291  0.1456 -0.0298
   14CHTO  H108 5691   6.387   5.838   0.867  2.3355  1.2797  0.3391
   14CHTO  H109 5692   6.394   5.666   0.874 -2.3128  0.9828 -0.5088
   14CHTO   C61 5693   6.496   5.784   1.171  0.7589 -0.0876  0.4939
   14CHTO  H118 5694   6.530   5.885   1.142 -2.4854  1.0429  0.3910
   14CHTO   O40 5695   6.444   5.799   1.309 -0.4238 -0.5010  0.1972
   14CHTO   C68 5696   6.370   5.685   1.366  0.4217  0.2004 -0.2152
   14CHTO  H125 5697   6.337   5.733   1.460  1.8361  1.0602 -0.1333
   14CHTO   C72 5698   6.463   5.563   1.411  0.5549  0.2307 -0.6324
   14CHTO   O48 5699   6.563   5.600   1.512  0.2881 -0.0060 -0.2373
   14CHTO  H105 5700   6.643   5.629   1.471 -0.0070 -0.0457 -0.8442
   14CHTO   O38 5701   6.601   5.683   1.182  0.1455  0.0608 -0.2497
   14CHTO   C55 5702   6.734   5.716   1.139 -0.4307  0.5360 -0.2111
   14CHTO  H112 5703   6.730   5.809   1.079 -0.4711 -0.8793 -2.4667
   14CHTO   C56 5704   6.782   5.593   1.047  0.1063 -0.1552  0.0335
   14CHTO  H113 5705   6.782   5.515   1.124  0.9196  0.7242  0.9351
   14CHTO   O42 5706   6.697   5.561   0.935 -0.4891 -0.3146  0.4881
   14CHTO  H100 5707   6.723   5.618   0.865 -0.7661 -0.4819  0.2507
   14CHTO   C57 5708   6.931   5.602   1.002 -0.9223  1.0014 -0.4461
   14CHTO  H114 5709   6.930   5.668   0.915 -0.9259 -0.5528 -1.6553
   14CHTO   N10 5710   6.994   5.474   0.948 -0.6138  0.0261  0.6146
   14CHTO  H106 5711   7.047   5.425   1.029  0.4162  1.5215  0.8873
   14CHTO  H107 5712   6.924   5.412   0.895 -0.5463  0.8681 -0.4823
   14CHTO   C58 5713   7.022   5.658   1.121 -1.0029 -0.0153 -0.0032
   14CHTO  H115 5714   7.043   5.578   1.195  0.8398  1.0498  0.6670
   14CHTO   O37 5715   6.955   5.769   1.188 -0.1064 -0.0436  0.1308
   14CHTO   C59 5716   6.835   5.741   1.258  0.1390 -0.6320 -0.1884
   14CHTO  H116 5717   6.833   5.651   1.320  0.1871  1.4204  2.9251
   14CHTO   C70 5718   6.807   5.870   1.335  0.0730  0.4833 -0.4911
   14CHTO   O46 5719   6.690   5.857   1.415  0.4698  0.5192 -0.1951
   14CHTO  H103 5720   6.619   5.840   1.356 -0.0291 -0.1300  0.5814
   14CHTO   O39 5721   7.157   5.711   1.068  0.4851  0.4547 -0.3369
   14CHTO   C60 5722   7.260   5.738   1.166 -0.0186 -0.0219 -0.3119
   14CHTO  H117 5723   7.216   5.768   1.261 -0.0614  2.0901 -0.9863
   14CHTO   C62 5724   7.350   5.612   1.196 -1.3878 -0.6864 -0.8084
   14CHTO  H119 5725   7.291   5.528   1.237  0.2843 -1.2071  0.5975
   14CHTO   O43 5726   7.386   5.554   1.069 -0.1556  0.0471 -0.0868
   14CHTO  H101 5727   7.442   5.481   1.088 -2.4769 -1.7484  0.0788
   14CHTO   C66 5728   7.485   5.641   1.290  0.0094 -0.4716  0.3672
   14CHTO  H123 5729   7.450   5.676   1.387 -2.4387 -2.7461  0.3898
   14CHTO   N12 5730   7.573   5.519   1.305  0.1816  0.3320  0.5758
   14CHTO  H110 5731   7.531   5.453   1.380  0.9440  0.3850  1.0532
   14CHTO  H111 5732   7.677   5.543   1.319  0.5819 -1.1274  0.0958
   14CHTO   C69 5733   7.573   5.756   1.237  0.5303  0.0389 -0.1831
   14CHTO  H126 5734   7.638   5.717   1.157  1.5336  1.3393 -0.0167
   14CHTO   O41 5735   7.484   5.890   1.185 -0.1021  0.2977 -0.1359
   14CHTO   C64 5736   7.335   5.861   1.109 -0.4068  0.5884  0.2427
   14CHTO  H121 5737   7.350   5.849   1.000  2.0563 -0.6870  0.6831
   14CHTO   C71 5738   7.241   5.991   1.125 -0.0969  0.3017  0.2469
   14CHTO   O47 5739   7.304   6.101   1.068  0.4932  0.3968  0.5003
   14CHTO  H104 5740   7.249   6.174   1.086 -1.0443 -0.4342 -0.7727
   14CHTO   O34 5741   7.653   5.800   1.343 -0.2512  0.0735 -0.3444
   14CHTO   C49 5742   7.785   5.866   1.310  0.4542 -0.2710  0.2670
   14CHTO   H91 5743   7.843   5.808   1.238 -0.5369 -1.9628  0.7873
   14CHTO   C47 5744   7.880   5.871   1.434  0.0723  0.1341  0.7114
   14CHTO   H89 5745   7.975   5.920   1.404 -1.5871  1.2184 -3.0540
   14CHTO   O33 5746   7.897   5.738   1.486 -0.4316  0.2774  0.1027
   14CHTO   H70 5747   7.924   5.740   1.576  1.0367 -0.1315 -0.3000
   14CHTO   C45 5748   7.819   5.960   1.560  0.5307 -0.6218  0.0312
   14CHTO   H87 5749   7.758   5.900   1.629  0.1742  1.8984  1.9906
   14CHTO    N8 5750   7.923   6.023   1.643  0.1164 -0.0468 -0.4486
   14CHTO   H75 5751   7.995   5.951   1.679  0.8405  0.4169 -0.9742
   14CHTO   H76 5752   7.981   6.101   1.597 -1.6333  1.9402  0.6112
   14CHTO   C43 5753   7.714   6.066   1.497 -0.2591 -0.1851 -0.1748
   14CHTO   H85 5754   7.622   6.010   1.480 -0.3382 -0.3259  0.6986
   14CHTO   O29 5755   7.769   6.111   1.374  0.4663 -0.6058 -0.1645
   14CHTO   C50 5756   7.773   6.019   1.267  0.5395 -0.2956 -0.1997
   14CHTO   H92 5757   7.678   6.038   1.214  1.7455  0.2434 -2.1978
   14CHTO   C54 5758   7.878   6.067   1.163 -0.1582  0.6156  0.4598
   14CHTO   O36 5759   7.883   5.976   1.055 -0.4259 -0.1245  0.2152
   14CHTO   H72 5760   7.882   5.886   1.080  2.5124 -0.3027 -0.1680
   14CHTO   O27 5761   7.672   6.177   1.578 -0.1421  0.1381 -0.1756
   14CHTO   C37 5762   7.567   6.233   1.661 -0.1651 -0.0735  0.4864
   14CHTO   H79 5763   7.603   6.304   1.737 -0.1568  1.6115 -1.0634
   14CHTO   C38 5764   7.475   6.316   1.568 -0.8949  0.0202 -0.0677
   14CHTO   H80 5765   7.459   6.258   1.477 -1.1512  0.0528 -0.0432
   14CHTO   O31 5766   7.549   6.439   1.543 -0.2693  0.3528 -0.6441
   14CHTO   H68 5767   7.542   6.461   1.452 -1.1176 -0.9431 -0.9104
   14CHTO   C39 5768   7.338   6.357   1.640 -0.2802 -0.3672  0.5929
   14CHTO   H81 5769   7.365   6.427   1.719 -0.2697  0.3866 -0.0681
   14CHTO    N7 5770   7.240   6.436   1.552 -0.1094  0.7617 -0.2355
   14CHTO   H73 5771   7.141   6.440   1.594  0.5283 -1.6094  1.6528
   14CHTO   H74 5772   7.282   6.523   1.503  0.4680  0.3590 -0.4626
   14CHTO   C40 5773   7.271   6.233   1.704  0.8403 -0.7228 -0.0961
   14CHTO   H82 5774   7.235   6.156   1.636  2.1412 -0.5340 -1.0079
   14CHTO   O26 5775   7.366   6.180   1.795 -0.2993  0.7881 -0.1156
   14CHTO   C41 5776   7.491   6.124   1.729  0.7997 -0.7305  0.5946
   14CHTO   H83 5777   7.446   6.065   1.648  0.4054  1.7373 -1.0678
   14CHTO   C52 5778   7.575   6.041   1.829  0.1381 -0.1643  0.7947
   14CHTO   O35 5779   7.505   5.918   1.843  0.2636  0.3224 -0.1702
   14CHTO   H71 5780   7.526   5.875   1.923  1.5526 -0.6382 -0.9984
   14CHTO   O28 5781   7.166   6.271   1.801 -0.1522  0.0617  0.0365
   14CHTO   C42 5782   7.043   6.200   1.823 -0.1635 -0.1039 -0.2104
   14CHTO   H84 5783   7.012   6.241   1.919 -1.8701  1.7460 -1.5166
   14CHTO   C44 5784   7.058   6.047   1.845 -0.3068  0.5870  0.4736
   14CHTO   H86 5785   7.104   6.003   1.757  2.8256  1.9855  1.3308
   14CHTO   O32 5786   7.156   6.025   1.948  1.0678  0.4694 -0.3374
   14CHTO   H69 5787   7.240   6.008   1.910  0.8598  0.1040 -0.6370
   14CHTO   C48 5788   6.925   5.972   1.887 -0.8135  0.0962 -0.3840
   14CHTO   H90 5789   6.901   5.986   1.993  0.0666 -2.8271  0.2343
   14CHTO    N9 5790   6.931   5.820   1.877  0.8452 -0.0348 -0.3752
   14CHTO   H77 5791   7.014   5.791   1.939  0.0865  2.3083  1.8150
   14CHTO   H78 5792   6.960   5.788   1.778  2.9281 -2.0107  0.8377
   14CHTO   C51 5793   6.798   6.024   1.804  0.1590  0.2525  0.0941
   14CHTO   H93 5794   6.808   5.982   1.704 -0.8471 -0.5629  0.3314
   14CHTO   O30 5795   6.798   6.170   1.801  0.1562 -0.2624 -0.4910
   14CHTO   C46 5796   6.927   6.225   1.726  0.2254 -0.7716 -0.2135
   14CHTO   H88 5797   6.945   6.162   1.640 -0.6114 -1.1578 -0.1066
   14CHTO   C53 5798   6.910   6.371   1.694 -0.0833  0.0250  0.6559
   14CHTO   O72 5799   6.790   6.410   1.624  0.0013 -0.5684 -0.3464
   14CHTO  H199 5800   6.776   6.499   1.651 -0.1880 -0.8618  0.5418
   14CHTO   O22 5801   6.678   5.984   1.862 -0.2685  0.6136 -0.0928
   14CHTO   C31 5802   6.571   5.915   1.791  0.8413 -0.4344  0.2117
   14CHTO   H59 5803   6.620   5.862   1.707 -1.1862  0.2989 -1.4686
   14CHTO   C29 5804   6.497   5.814   1.880 -0.4068  0.0095  0.1768
   14CHTO   H57 5805   6.444   5.870   1.958 -0.2830  0.3899 -0.0134
   14CHTO   O21 5806   6.594   5.730   1.946 -0.0427 -0.3798 -0.1629
   14CHTO   H37 5807   6.542   5.676   2.002 -1.4047  0.3231 -0.7251
   14CHTO   C27 5808   6.390   5.736   1.796 -0.1103  0.3802 -0.5268
   14CHTO   H55 5809   6.439   5.682   1.714 -1.2686 -0.8908 -0.4081
   14CHTO    N5 5810   6.306   5.633   1.873 -0.0313  0.4745  0.1639
   14CHTO   H43 5811   6.328   5.626   1.978  0.4063 -2.3562 -0.0557
   14CHTO   H44 5812   6.302   5.538   1.821 -0.0185  0.5691 -0.0078
   14CHTO   C25 5813   6.295   5.839   1.732 -0.2125  0.0576  0.3324
   14CHTO   H53 5814   6.265   5.907   1.814 -1.2394  0.5742 -0.4629
   14CHTO   O17 5815   6.376   5.923   1.646 -0.4787  0.0208  0.8432
   14CHTO   C32 5816   6.468   6.009   1.720 -0.6954 -0.5726  0.1027
   14CHTO   H60 5817   6.405   6.060   1.793  1.0035  0.7551  0.6686
   14CHTO   C36 5818   6.543   6.100   1.616 -0.3980 -0.4087  0.6099
   14CHTO   O25 5819   6.471   6.218   1.571  0.3664 -0.5073  0.0651
   14CHTO   H40 5820   6.532   6.264   1.517 -1.8403  1.8667 -0.5289
   14CHTO   O15 5821   6.175   5.784   1.648 -0.3467  0.4098 -0.3949
   14CHTO   C19 5822   6.037   5.818   1.631  0.5322  0.9121  0.0245
   14CHTO   H47 5823   6.014   5.774   1.533 -0.0446 -0.5528  0.7925
   14CHTO   C20 5824   5.942   5.754   1.742  0.0761 -0.0999 -0.2369
   14CHTO   H48 5825   5.976   5.784   1.842 -0.8617  0.7944 -0.1839
   14CHTO   O19 5826   5.962   5.615   1.724  0.1089 -0.0740  0.4498
   14CHTO   H35 5827   6.041   5.581   1.686 -0.1957  1.3379 -1.4556
   14CHTO   C21 5828   5.789   5.794   1.720 -0.0852  0.6393 -0.3081
   14CHTO   H49 5829   5.763   5.758   1.620  0.7617  0.7278 -0.5711
   14CHTO    N4 5830   5.698   5.730   1.814 -0.5051 -0.3813  0.3233
   14CHTO   H41 5831   5.714   5.625   1.834  2.1430  0.1574  1.1855
   14CHTO   H42 5832   5.594   5.753   1.796 -0.3811  2.2094  2.6558
   14CHTO   C22 5833   5.796   5.953   1.723 -0.1450  0.4986  0.2340
   14CHTO   H50 5834   5.843   5.979   1.817  0.1252 -2.2618  0.9075
   14CHTO   O14 5835   5.873   6.000   1.614  0.6154 -0.1719 -0.3917
   14CHTO   C23 5836   6.009   5.971   1.628  1.1305  0.2477 -0.1264
   14CHTO   H51 5837   6.045   6.023   1.718 -1.9006  1.9413  0.1786
   14CHTO   C34 5838   6.070   6.029   1.503  0.0535 -0.8458 -0.4439
   14CHTO   O23 5839   6.063   6.174   1.507  0.0115  0.2491 -0.2432
   14CHTO   H38 5840   6.105   6.221   1.438 -1.1180  1.8656  0.1464
   14CHTO   O16 5841   5.658   6.004   1.698  0.1517  0.2419  0.5044
   14CHTO   C24 5842   5.637   6.159   1.649  0.1482 -0.3338  0.4870
   14CHTO   H52 5843   5.689   6.181   1.556  0.2752  1.1584  0.9099
   14CHTO   C26 5844   5.671   6.266   1.762  0.1844  0.7894 -0.0548
   14CHTO   H54 5845   5.640   6.227   1.861  1.6249  0.0039  0.0934
   14CHTO   O20 5846   5.818   6.274   1.768 -0.1148 -0.1837 -0.2020
   14CHTO   H36 5847   5.838   6.282   1.860 -0.0099 -0.9171 -0.1590
   14CHTO   C30 5848   5.610   6.409   1.740 -0.1629  0.2633 -0.1362
   14CHTO   H58 5849   5.676   6.460   1.669  0.3931  0.0077  0.1939
   14CHTO    N6 5850   5.621   6.495   1.862 -0.0313 -0.5495 -0.0948
   14CHTO   H45 5851   5.722   6.515   1.897  0.3048 -1.1121 -0.7244
   14CHTO   H46 5852   5.569   6.448   1.944 -0.1449 -1.1956 -0.5293
   14CHTO   C33 5853   5.463   6.401   1.681  0.0093 -0.3474  0.0087
   14CHTO   H61 5854   5.389   6.374   1.757  1.1524 -2.1519  0.4935
   14CHTO   O18 5855   5.451   6.298   1.576 -0.5759  0.4907 -0.4499
   14CHTO   C28 5856   5.482   6.167   1.620 -0.1011  0.3107 -0.0323
   14CHTO   H56 5857   5.438   6.154   1.719 -1.7218 -1.0043 -0.8839
   14CHTO   C35 5858   5.435   6.060   1.518  0.3051  0.4358  0.1803
   14CHTO   O24 5859   5.507   6.073   1.392 -0.2638  0.3472 -0.2464
   14CHTO   H39 5860   5.599   6.072   1.410 -0.5979 -1.0155  1.5587
   14CHTO    O9 5861   5.422   6.526   1.631  0.4262  0.2994 -0.0196
   14CHTO   C13 5862   5.324   6.624   1.712  0.0066 -0.1366  0.9776
   14CHTO   H26 5863   5.332   6.600   1.820  0.5567 -0.7804  0.7971
   14CHTO   C11 5864   5.176   6.631   1.664 -0.0299  0.6499  0.1930
   14CHTO   H24 5865   5.140   6.527   1.666 -0.6995  0.8890  1.0901
   14CHTO    O8 5866   5.169   6.663   1.523  0.5300 -0.6982 -0.6728
   14CHTO    H3 5867   5.084   6.699   1.512  0.6974 -0.0383  0.1061
   14CHTO    C9 5868   5.102   6.714   1.767 -0.2186  0.2521 -0.2007
   14CHTO   H22 5869   5.122   6.674   1.868 -3.6588  2.3447  1.4138
   14CHTO    N2 5870   4.959   6.704   1.766 -0.2132 -0.4086  0.2587
   14CHTO   H10 5871   4.931   6.670   1.667  0.7900  2.2754 -1.0103
   14CHTO   H11 5872   4.923   6.639   1.844 -0.4143 -0.5269  0.0709
   14CHTO    C7 5873   5.166   6.862   1.757  0.2763 -0.8985  0.2420
   14CHTO   H20 5874   5.191   6.882   1.864 -1.6360 -1.0419  0.7271
   14CHTO    O4 5875   5.287   6.871   1.676  0.0142  0.4926  0.3511
   14CHTO   C14 5876   5.387   6.776   1.701 -0.2393  0.0315  0.1113
   14CHTO   H27 5877   5.444   6.789   1.795 -0.5368 -0.9753  0.4329
   14CHTO   C18 5878   5.491   6.791   1.587  0.1570 -0.3794  0.5308
   14CHTO   O13 5879   5.607   6.724   1.623 -0.5942 -0.0046  0.3860
   14CHTO    H7 5880   5.587   6.636   1.648 -0.3765 -0.0631  0.3524
   14CHTO    O2 5881   5.048   6.983   1.698 -0.3029 -0.0862  0.7094
   14CHTO    C1 5882   5.065   7.120   1.742  0.2761 -0.5368 -0.0663
   14CHTO   H14 5883   5.030   7.179   1.655  0.1811  1.1716  1.1117
   14CHTO    C2 5884   5.219   7.161   1.771 -0.3437  0.1929  0.3960
   14CHTO   H15 5885   5.248   7.107   1.862  2.5576  1.1479  0.0763
   14CHTO    O6 5886   5.305   7.143   1.655 -0.0540 -0.2633  0.1996
   14CHTO    H1 5887   5.385   7.191   1.667  0.0374 -0.7078  1.5073
   14CHTO    C3 5888   5.217   7.322   1.811 -0.1877 -0.4641  0.4396
   14CHTO   H16 5889   5.182   7.377   1.722 -2.3398 -1.3302  0.7327
   14CHTO    N1 5890   5.364   7.363   1.840  0.0686 -0.1533  0.3664
   14CHTO    H8 5891   5.371   7.454   1.783  0.0268 -0.7335 -0.5630
   14CHTO    H9 5892   5.374   7.375   1.947 -2.1617  1.2681  0.4521
   14CHTO    C4 5893   5.119   7.352   1.927 -0.4201 -1.0374 -0.0891
   14CHTO   H17 5894   5.159   7.303   2.016 -1.7261 -0.3240  0.9058
   14CHTO    O1 5895   4.987   7.301   1.891  0.2032  0.2149 -0.1022
   14CHTO    C5 5896   4.986   7.155   1.869  0.3347 -0.0287  0.8489
   14CHTO   H18 5897   5.032   7.105   1.954 -0.8965 -1.2886  0.7861
   14CHTO   C16 5898   4.838   7.114   1.866  0.1686  0.3014  0.3205
   14CHTO   O11 5899   4.760   7.122   1.992 -0.2409 -0.4068 -0.2622
   14CHTO    H5 5900   4.703   7.196   1.981  1.0112  0.4627 -0.9962
   14CHTO    O3 5901   5.089   7.489   1.955 -0.5169  0.6399 -0.0010
   14CHTO    C6 5902   5.072   7.533   2.091  0.0463  0.6582  0.1093
   14CHTO   H19 5903   5.082   7.454   2.166 -1.7650 -2.1119 -2.4228
   14CHTO    C8 5904   5.182   7.641   2.107  0.2664  0.2215 -0.5017
   14CHTO   H21 5905   5.166   7.717   2.031  1.1609  2.1608  1.2193
   14CHTO    O7 5906   5.312   7.587   2.090 -0.1296 -0.3135  0.3044
   14CHTO    H2 5907   5.312   7.496   2.112 -0.9149  0.0550  1.9045
   14CHTO   C12 5908   5.165   7.721   2.244 -0.6362 -0.8871 -0.3799
   14CHTO   H25 5909   5.203   7.650   2.320  2.3031  1.3590  0.3407
   14CHTO    N3 5910   5.242   7.844   2.251  0.0588 -0.3244 -0.0396
   14CHTO   H12 5911   5.304   7.853   2.163 -0.0601 -1.8959 -0.2874
   14CHTO   H13 5912   5.295   7.849   2.345 -1.6676 -0.2937  0.9599
   14CHTO   C15 5913   5.010   7.756   2.269 -0.8836 -0.2040  0.0101
   14CHTO   H28 5914   4.985   7.841   2.205  0.4983 -0.4504 -0.8644
   14CHTO   O10 5915   4.982   7.801   2.421 -0.1330 -0.3064  0.1602
   14CHTO    H4 5916   4.895   7.835   2.425  0.2804  0.9170 -1.0464
   14CHTO    O5 5917   4.919   7.651   2.244  0.0582 -0.1953  0.7570
   14CHTO   C10 5918   4.934   7.597   2.112  0.3782  0.3271  0.6101
   14CHTO   H23 5919   4.928   7.670   2.031 -0.7799  1.4794  1.7167
   14CHTO   C17 5920   4.820   7.497   2.078 -0.1526 -0.3370  0.7311
   14CHTO   O12 5921   4.698   7.563   2.053  0.2998 -0.2842 -0.2634
   14CHTO    H6 5922   4.662   7.581   2.137 -1.7602 -1.9904 -0.7334
   15CHTO  H203 5923   7.927   4.682   1.799  1.1308  0.6402 -0.3056
   15CHTO   O82 5924   7.856   4.742   1.788  0.0222 -0.6010 -0.0646
   15CHTO  C123 5925   7.761   4.662   1.707 -0.3648  0.1224 -0.2922
   15CHTO  H227 5926   7.751   4.561   1.750  2.9711  0.9683  2.8111
   15CHTO   O77 5927   7.644   4.743   1.732 -0.3885  0.3201  0.3887
   15CHTO  C118 5928   7.525   4.700   1.667  0.2456 -0.1566  0.2014
   15CHTO  H222 5929   7.504   4.600   1.708 -0.0578  1.9471  5.6042
   15CHTO  C125 5930   7.404   4.799   1.713  0.5154 -0.0000  0.4103
   15CHTO   O84 5931   7.386   4.813   1.854  0.3994  0.3910  0.0699
   15CHTO  H205 5932   7.295   4.815   1.878  0.2314  1.7838 -0.6564
   15CHTO  C114 5933   7.538   4.691   1.516 -0.4108 -0.8476  0.0675
   15CHTO  H218 5934   7.556   4.791   1.476 -1.3209 -0.0192  1.7008
   15CHTO  C116 5935   7.666   4.608   1.476  0.4797  0.2874  0.6867
   15CHTO  H220 5936   7.641   4.501   1.493  0.9577  0.4919  2.8810
   15CHTO   O79 5937   7.682   4.635   1.339  0.3967  0.1189  0.2282
   15CHTO  H201 5938   7.739   4.574   1.298 -0.8492 -0.6936 -0.3392
   15CHTO  C120 5939   7.798   4.657   1.553  0.2944  0.0608 -0.0111
   15CHTO  H224 5940   7.820   4.760   1.516 -0.3119  0.4323  0.6275
   15CHTO   N21 5941   7.912   4.568   1.517 -0.8174  0.4558 -0.2928
   15CHTO  H211 5942   7.881   4.471   1.482 -0.2795  0.2569 -0.2293
   15CHTO  H212 5943   7.974   4.613   1.441 -0.1207 -0.3589 -0.2174
   15CHTO   O75 5944   7.410   4.652   1.460  0.3224 -0.2259 -1.3162
   15CHTO  C112 5945   7.364   4.500   1.465  0.3164 -0.0679 -0.0718
   15CHTO  H216 5946   7.389   4.466   1.567  2.1387  1.6923  0.1019
   15CHTO   O73 5947   7.433   4.424   1.363  0.6987 -0.0546 -0.5648
   15CHTO  C113 5948   7.408   4.281   1.386  0.2538 -0.2200  0.2550
   15CHTO  H217 5949   7.441   4.247   1.487  1.7226  2.2586  0.6638
   15CHTO  C124 5950   7.507   4.210   1.290  0.8069 -0.2293 -0.1156
   15CHTO   O83 5951   7.514   4.068   1.313 -0.7332 -0.3475  0.1129
   15CHTO  H204 5952   7.446   4.038   1.370 -0.8832 -1.5150 -0.6605
   15CHTO  C109 5953   7.257   4.254   1.350  0.0715  0.9315 -0.2900
   15CHTO  H213 5954   7.245   4.286   1.246  1.6412 -1.3469 -1.1943
   15CHTO  C110 5955   7.166   4.336   1.451  0.1971 -0.4209  0.3416
   15CHTO  H214 5956   7.189   4.300   1.551  2.1941 -2.5443 -0.8248
   15CHTO   O78 5957   7.025   4.313   1.427  0.1532 -0.4192  0.1345
   15CHTO  H200 5958   6.972   4.328   1.502 -0.3971  0.7867 -0.4772
   15CHTO  C111 5959   7.205   4.487   1.440  0.3216  0.4540  0.2438
   15CHTO  H215 5960   7.173   4.515   1.339 -1.2914 -0.7422  0.4113
   15CHTO   N19 5961   7.132   4.570   1.538 -0.5895  0.3931  0.5349
   15CHTO  H207 5962   7.201   4.644   1.575 -1.5451  1.5795 -0.0076
   15CHTO  H208 5963   7.063   4.624   1.474  0.7420  0.4041 -0.9285
   15CHTO   O74 5964   7.246   4.108   1.362 -0.2112 -0.2745  0.5622
   15CHTO  C115 5965   7.144   4.037   1.274  0.0982  0.3642  0.2117
   15CHTO  H219 5966   7.041   4.063   1.299 -0.0981  0.1944 -0.4164
   15CHTO   O76 5967   7.154   4.078   1.137  0.0562  0.0876  0.4084
   15CHTO  C122 5968   7.273   4.033   1.069  0.0636  0.9747 -0.5266
   15CHTO  H226 5969   7.363   4.082   1.106  1.3830 -1.3420 -0.6327
   15CHTO  C126 5970   7.257   4.091   0.926  0.1169 -0.3880 -0.0200
   15CHTO   O85 5971   7.368   4.050   0.843 -0.1554 -0.3795  0.3989
   15CHTO  H206 5972   7.362   4.104   0.767 -0.4581 -0.5918  0.2692
   15CHTO  C121 5973   7.296   3.873   1.082 -0.1409  0.3466  0.7254
   15CHTO  H225 5974   7.300   3.824   0.982 -0.3479 -0.0504  0.9135
   15CHTO   O81 5975   7.430   3.858   1.122 -0.6564 -0.1854  0.6132
   15CHTO  H202 5976   7.457   3.768   1.127  1.1373  0.3171  0.1582
   15CHTO  C119 5977   7.187   3.805   1.171  0.3443 -0.6022  0.4640
   15CHTO  H223 5978   7.102   3.815   1.103 -0.5442 -0.4561  1.5843
   15CHTO  C117 5979   7.163   3.886   1.305 -0.0451  0.4668 -0.0663
   15CHTO  H221 5980   7.256   3.886   1.361  0.2193  1.3601 -0.4925
   15CHTO   N20 5981   7.061   3.827   1.400 -0.1071 -0.2894  0.0684
   15CHTO  H209 5982   6.970   3.851   1.347 -0.0731  1.3176  0.7141
   15CHTO  H210 5983   7.092   3.724   1.405  1.1264  0.0906  0.3560
   15CHTO   O80 5984   7.202   3.647   1.186 -0.2734  0.5942 -0.0602
   15CHTO  C103 5985   7.070   3.557   1.160 -0.3137  0.1128  0.2038
   15CHTO  H190 5986   7.004   3.562   1.247  0.6230  0.4682  0.8990
   15CHTO  C101 5987   6.982   3.590   1.025  0.1929  0.8882  0.1536
   15CHTO  H188 5988   7.058   3.591   0.947  0.5362 -1.8291  0.4061
   15CHTO   O68 5989   6.897   3.715   1.051  0.1406 -0.3522  0.3110
   15CHTO  H168 5990   6.949   3.785   1.086 -3.9234  2.3835  1.2765
   15CHTO   C99 5991   6.879   3.472   1.000 -0.3968  0.4418  0.2424
   15CHTO  H186 5992   6.812   3.464   1.088  0.5742 -3.2092  0.7127
   15CHTO   N17 5993   6.798   3.499   0.875 -0.6247 -0.2174 -0.1005
   15CHTO  H174 5994   6.824   3.592   0.827 -0.9060 -0.3332 -0.4724
   15CHTO  H175 5995   6.694   3.506   0.902 -0.0679 -2.1652  2.8169
   15CHTO   C97 5996   6.959   3.340   0.991  0.1258 -0.1872  0.4340
   15CHTO  H184 5997   7.041   3.361   0.920 -0.4088  1.1842  0.2049
   15CHTO   O64 5998   7.011   3.319   1.124 -0.4051  0.1328  0.1224
   15CHTO  C104 5999   7.121   3.411   1.154  0.6122  0.2605 -0.3996
   15CHTO  H191 6000   7.195   3.401   1.075 -0.3431  0.8577 -1.3820
   15CHTO  C108 6001   7.187   3.368   1.288  0.7174 -0.1159  0.4333
   15CHTO   O71 6002   7.273   3.255   1.276 -0.3912 -0.0856 -0.5004
   15CHTO  H171 6003   7.334   3.250   1.347 -1.4006  1.6960  0.5206
   15CHTO   O62 6004   6.887   3.219   0.949  0.1640 -0.5264  0.1533
   15CHTO   C91 6005   6.949   3.141   0.846 -0.2947 -0.1060 -0.1902
   15CHTO  H178 6006   7.048   3.179   0.821 -0.1951 -0.9699 -1.1572
   15CHTO   C92 6007   6.870   3.161   0.709  0.2707 -0.2127 -0.1858
   15CHTO  H179 6008   6.850   3.269   0.695 -0.1561 -0.2008  0.4936
   15CHTO   O66 6009   6.962   3.129   0.600 -0.1054 -0.5034 -0.3463
   15CHTO  H166 6010   6.915   3.102   0.523  1.1901  0.0505 -1.3400
   15CHTO   C93 6011   6.734   3.074   0.697 -0.3656  0.5124 -0.4941
   15CHTO  H180 6012   6.724   3.056   0.589  0.8057  0.9771 -0.6880
   15CHTO   N16 6013   6.613   3.154   0.728 -0.4193  0.1044 -0.9200
   15CHTO  H172 6014   6.624   3.261   0.734 -1.1928  0.1948 -0.9725
   15CHTO  H173 6015   6.539   3.113   0.795 -0.9705  1.0905 -0.9140
   15CHTO   C94 6016   6.750   2.939   0.783 -0.1790 -0.0133  0.2124
   15CHTO  H181 6017   6.706   2.948   0.882  1.4965 -3.4702  1.3420
   15CHTO   O61 6018   6.889   2.899   0.800 -0.0732  0.3072 -0.7855
   15CHTO   C95 6019   6.972   2.990   0.879  0.9392 -0.1116 -0.5990
   15CHTO  H182 6020   6.946   2.981   0.984  0.4524 -0.9400 -0.7890
   15CHTO  C106 6021   7.117   2.956   0.856 -0.6193 -0.2919 -0.9128
   15CHTO   O69 6022   7.147   2.828   0.886 -0.4297  0.5376 -0.6876
   15CHTO  H169 6023   7.235   2.797   0.886 -1.3306 -2.3872  2.8624
   15CHTO   O63 6024   6.686   2.827   0.689  1.4429  0.3999 -0.4827
   15CHTO   C96 6025   6.660   2.692   0.776 -0.2810  0.5609  0.1269
   15CHTO  H183 6026   6.684   2.713   0.880  0.0682  1.0290 -0.0511
   15CHTO   C98 6027   6.749   2.566   0.730  0.1453  0.1449 -0.1848
   15CHTO  H185 6028   6.743   2.561   0.621  1.1062 -0.9916 -0.1898
   15CHTO   O67 6029   6.884   2.595   0.756 -0.5268  0.4145  0.3763
   15CHTO  H167 6030   6.934   2.517   0.750  1.4112  1.4336  2.5546
   15CHTO  C102 6031   6.705   2.423   0.797 -0.1532  0.3196 -0.0164
   15CHTO  H189 6032   6.737   2.422   0.902  0.9785  1.7603 -0.3440
   15CHTO   N18 6033   6.765   2.308   0.734  0.1288  0.7932 -0.1674
   15CHTO  H176 6034   6.740   2.214   0.782  2.1250  0.6960  0.7300
   15CHTO  H177 6035   6.722   2.297   0.636  0.1853 -0.1018 -0.0977
   15CHTO  C105 6036   6.545   2.417   0.791  1.2247  0.3183  0.2514
   15CHTO  H192 6037   6.523   2.417   0.685 -1.0397  0.1513  0.6999
   15CHTO   O65 6038   6.490   2.538   0.853 -0.1442  0.1436  0.3375
   15CHTO  C100 6039   6.512   2.661   0.777 -0.3366 -0.2153 -0.6557
   15CHTO  H187 6040   6.474   2.661   0.673  0.5953  0.4010 -1.0015
   15CHTO  C107 6041   6.446   2.782   0.860  0.1202 -0.6517  0.2313
   15CHTO   O70 6042   6.303   2.771   0.872  0.2033  0.4164  0.2424
   15CHTO  H170 6043   6.260   2.779   0.789  2.4673 -0.4464 -1.0579
   15CHTO   O57 6044   6.496   2.280   0.865  0.4978  0.4488  0.4624
   15CHTO   C85 6045   6.463   2.268   1.004  0.0989  0.2037 -0.1781
   15CHTO  H157 6046   6.506   2.363   1.043  3.6372 -1.0384 -0.8712
   15CHTO   C83 6047   6.555   2.158   1.070 -0.0512  0.8186  0.1370
   15CHTO  H155 6048   6.657   2.195   1.057 -0.1724  0.6142 -1.4996
   15CHTO   O56 6049   6.550   2.039   0.993  0.2005 -0.1563  0.1581
   15CHTO  H135 6050   6.619   1.979   1.014  1.2323  0.9046 -0.1616
   15CHTO   C81 6051   6.523   2.135   1.225  0.4113 -0.3376  0.2748
   15CHTO  H153 6052   6.541   2.228   1.278 -0.3477 -0.3231  0.5131
   15CHTO   N14 6053   6.612   2.032   1.289  0.5039 -0.6934  0.1091
   15CHTO  H141 6054   6.707   2.082   1.292  0.6004 -0.9447  1.8852
   15CHTO  H142 6055   6.579   2.026   1.390  0.4772  0.8656  0.2134
   15CHTO   C79 6056   6.370   2.111   1.243  0.2299 -0.1989 -0.5787
   15CHTO  H151 6057   6.353   2.106   1.351  0.5868 -0.8648 -0.5527
   15CHTO   O52 6058   6.296   2.219   1.191 -0.6948  0.2242  0.5338
   15CHTO   C86 6059   6.308   2.246   1.050 -0.5042  0.2249 -0.2652
   15CHTO  H158 6060   6.247   2.166   1.004 -1.0748 -1.1449  2.7169
   15CHTO   C90 6061   6.246   2.379   1.017 -0.3856 -0.3660  0.6755
   15CHTO   O60 6062   6.100   2.390   1.024 -0.3288 -0.1111 -0.1123
   15CHTO  H138 6063   6.078   2.450   0.956 -0.8614  0.9643  0.9968
   15CHTO   O50 6064   6.323   1.979   1.194 -0.0101  0.5298 -0.0232
   15CHTO   C73 6065   6.217   1.891   1.170  0.5581 -0.2994  0.2407
   15CHTO  H145 6066   6.122   1.944   1.156  0.5789 -0.6604 -1.4436
   15CHTO   C74 6067   6.186   1.786   1.285  0.2214 -0.0724 -0.8163
   15CHTO  H146 6068   6.160   1.842   1.375  1.4516 -1.0481  0.1703
   15CHTO   O54 6069   6.067   1.700   1.267  0.4855  0.4650  0.3701
   15CHTO  H133 6070   6.012   1.739   1.202 -0.8723 -0.1860  1.1131
   15CHTO   C75 6071   6.322   1.700   1.306  0.2891  0.0483  1.2265
   15CHTO  H147 6072   6.395   1.764   1.358 -0.9647  2.5128  0.0252
   15CHTO   N13 6073   6.309   1.586   1.400  0.1162  0.3845 -0.0483
   15CHTO  H139 6074   6.311   1.488   1.355 -1.2038 -0.9452  2.6439
   15CHTO  H140 6075   6.217   1.605   1.453  0.3787  2.1648 -0.2167
   15CHTO   C76 6076   6.388   1.655   1.169  0.0457 -0.1163 -0.6660
   15CHTO  H148 6077   6.336   1.568   1.131  3.1053 -1.0532 -2.9487
   15CHTO   O49 6078   6.382   1.751   1.055 -0.3745  0.0814 -0.4803
   15CHTO   C77 6079   6.248   1.806   1.047 -0.8576 -0.2108  0.8107
   15CHTO  H149 6080   6.175   1.725   1.044  0.8221 -1.7404  0.8410
   15CHTO   C88 6081   6.252   1.890   0.925  0.6183  0.0685 -0.3815
   15CHTO   O58 6082   6.131   1.956   0.886 -0.1179  0.1378 -0.0266
   15CHTO  H136 6083   6.147   2.048   0.898  0.6283 -0.0548  0.5003
   15CHTO   O51 6084   6.554   1.647   1.200  0.6579  0.0618  0.1726
   15CHTO   C78 6085   6.624   1.528   1.137 -0.1510 -0.0013  0.3110
   15CHTO  H150 6086   6.568   1.501   1.044 -1.2241  1.9699  0.3409
   15CHTO   C80 6087   6.615   1.407   1.228 -0.3543  0.2834 -0.2192
   15CHTO  H152 6088   6.643   1.448   1.327  0.8310  1.6352 -1.0835
   15CHTO   O55 6089   6.487   1.337   1.230  0.0489 -0.1527  0.3271
   15CHTO  H134 6090   6.443   1.331   1.312  0.0730  0.1663  0.3637
   15CHTO   C84 6091   6.724   1.294   1.200 -0.4865 -0.7182  0.3761
   15CHTO  H156 6092   6.693   1.221   1.124  0.0091  1.1347 -1.6669
   15CHTO   N15 6093   6.750   1.198   1.310  0.0804 -0.1473  0.4742
   15CHTO  H143 6094   6.752   1.104   1.260 -1.0498  0.3467 -0.5085
   15CHTO  H144 6095   6.667   1.196   1.377 -1.9927  1.6440 -1.9290
   15CHTO   C87 6096   6.861   1.349   1.152 -0.4437 -0.7837 -0.1311
   15CHTO  H159 6097   6.919   1.400   1.229  1.9708 -2.9840 -0.3890
   15CHTO   O53 6098   6.832   1.440   1.049  0.1853 -0.0308 -0.5326
   15CHTO   C82 6099   6.771   1.560   1.095  0.0425 -0.1173  0.3853
   15CHTO  H154 6100   6.814   1.600   1.187 -3.9338 -0.3782  2.5154
   15CHTO   C89 6101   6.779   1.683   0.991 -0.7531 -0.6058  0.4564
   15CHTO   O59 6102   6.765   1.814   1.043 -0.1997 -0.0234 -0.3984
   15CHTO  H137 6103   6.836   1.841   1.098 -0.1015 -0.5979 -0.2416
   15CHTO   O45 6104   6.956   1.224   1.102  0.2188 -0.2326  0.1318
   15CHTO   C67 6105   7.092   1.260   1.107 -0.4044 -0.7072  0.8000
   15CHTO  H124 6106   7.102   1.367   1.122  1.7250 -0.4985 -1.7790
   15CHTO   C65 6107   7.153   1.185   1.229  0.1558 -0.0606  0.1966
   15CHTO  H122 6108   7.103   1.090   1.244 -3.0872  1.4437 -0.8223
   15CHTO   O44 6109   7.145   1.274   1.345  0.3181  0.4218  0.2356
   15CHTO  H102 6110   7.062   1.317   1.355  0.7385  1.3177 -0.0831
   15CHTO   C63 6111   7.308   1.136   1.202  0.4371  0.0212  0.0654
   15CHTO  H120 6112   7.296   1.047   1.140 -2.1323 -1.5526  2.6722
   15CHTO   N11 6113   7.398   1.080   1.303 -0.1132  0.3549  0.0673
   15CHTO  H108 6114   7.362   0.989   1.346 -0.8477 -0.6811 -2.6431
   15CHTO  H109 6115   7.409   1.159   1.374 -1.3741  0.4125  0.2082
   15CHTO   C61 6116   7.369   1.250   1.120 -0.0698 -0.1370 -1.0767
   15CHTO  H118 6117   7.468   1.207   1.101  1.1398  1.8481  0.6053
   15CHTO   O40 6118   7.303   1.277   0.986 -0.1004 -0.2432 -0.0348
   15CHTO   C68 6119   7.173   1.231   0.971 -0.1820  0.0109 -0.0594
   15CHTO  H125 6120   7.188   1.129   0.930  2.1108  0.6196 -0.8032
   15CHTO   C72 6121   7.104   1.311   0.857  0.7459  0.1720 -0.7062
   15CHTO   O48 6122   7.178   1.311   0.732  0.6295  0.4209  0.2250
   15CHTO  H105 6123   7.121   1.291   0.660  0.7187  0.5516  0.1184
   15CHTO   O38 6124   7.373   1.371   1.200 -0.7331 -0.2104 -0.1618
   15CHTO   C55 6125   7.472   1.470   1.145  0.0581 -0.1838  0.2400
   15CHTO  H112 6126   7.491   1.458   1.038  2.0267 -0.8336  0.6455
   15CHTO   C56 6127   7.601   1.460   1.227 -0.1902  0.2384  0.0774
   15CHTO  H113 6128   7.579   1.480   1.333 -1.6762  1.4568 -0.4369
   15CHTO   O42 6129   7.663   1.331   1.214 -0.0643  0.0170  0.0915
   15CHTO  H100 6130   7.594   1.272   1.188 -0.8963  1.5467 -1.3042
   15CHTO   C57 6131   7.702   1.571   1.174 -0.5585 -0.2445  0.0464
   15CHTO  H114 6132   7.721   1.537   1.073 -3.1968 -0.2085 -0.4959
   15CHTO   N10 6133   7.826   1.584   1.251  0.2493 -0.8281  0.2457
   15CHTO  H106 6134   7.792   1.565   1.352  0.4161  0.3261  0.5205
   15CHTO  H107 6135   7.892   1.502   1.224 -1.3290 -2.4455  1.1759
   15CHTO   C58 6136   7.631   1.709   1.171  0.6265  0.0912 -0.8839
   15CHTO  H115 6137   7.626   1.742   1.277  0.9365  2.4098 -1.5542
   15CHTO   O37 6138   7.506   1.707   1.101  0.0242  0.4388  0.1927
   15CHTO   C59 6139   7.408   1.620   1.152  0.1527  0.6399  0.6969
   15CHTO  H116 6140   7.377   1.637   1.255 -2.1782  1.4541 -0.1164
   15CHTO   C70 6141   7.286   1.624   1.058 -0.0022  0.3372 -0.1851
   15CHTO   O46 6142   7.248   1.757   1.023  0.5720  0.2937 -0.4721
   15CHTO  H103 6143   7.157   1.761   0.997  0.9156 -4.0655 -2.8352
   15CHTO   O39 6144   7.734   1.825   1.084  0.4190  0.4352 -0.2799
   15CHTO   C60 6145   7.676   1.919   0.993  0.4601  0.1959  0.4813
   15CHTO  H117 6146   7.613   1.868   0.921  1.2900 -1.8671  1.1641
   15CHTO   C62 6147   7.578   2.016   1.069  0.2109 -0.2101 -0.4413
   15CHTO  H119 6148   7.511   1.949   1.126  1.1766 -1.5867 -0.8965
   15CHTO   O43 6149   7.659   2.094   1.166  0.0493  0.1394 -0.1670
   15CHTO  H101 6150   7.649   2.073   1.257 -0.5608 -0.1633 -0.3023
   15CHTO   C66 6151   7.495   2.096   0.955 -0.4247  0.8926  0.4589
   15CHTO  H123 6152   7.446   2.018   0.895  2.1279  0.5417 -1.2481
   15CHTO   N12 6153   7.395   2.192   1.014 -0.3083 -0.0593  0.2980
   15CHTO  H110 6154   7.302   2.152   1.050  0.2850 -2.2331 -0.5354
   15CHTO  H111 6155   7.371   2.284   0.962 -1.6500 -0.6603 -0.1484
   15CHTO   C69 6156   7.589   2.164   0.850 -0.5513  0.0655 -0.0028
   15CHTO  H126 6157   7.620   2.263   0.890 -0.1853  0.4322 -1.1826
   15CHTO   O41 6158   7.724   2.074   0.815 -0.4817 -0.7486 -0.2526
   15CHTO   C64 6159   7.775   1.997   0.918 -0.0649 -0.1073  0.3062
   15CHTO  H121 6160   7.813   2.074   0.990  0.1755  0.0451  0.0180
   15CHTO   C71 6161   7.906   1.922   0.864  0.4537 -0.0713 -0.0974
   15CHTO   O47 6162   7.998   2.002   0.794  0.2941  0.0560 -0.1351
   15CHTO  H104 6163   8.048   2.054   0.854  3.5642 -2.9597 -0.1100
   15CHTO   O34 6164   7.508   2.183   0.699 -0.1910  0.0384  0.3652
   15CHTO   C49 6165   7.483   2.240   0.559 -0.1558  0.1899 -0.3588
   15CHTO   H91 6166   7.524   2.162   0.495 -1.8035 -0.2251 -0.9270
   15CHTO   C47 6167   7.558   2.373   0.535 -0.2128  0.3513  0.6124
   15CHTO   H89 6168   7.555   2.395   0.427 -1.2361 -1.6743  0.2101
   15CHTO   O33 6169   7.697   2.342   0.572 -0.2955 -0.0319 -0.0758
   15CHTO   H70 6170   7.754   2.414   0.553  0.8096 -0.9423 -0.2608
   15CHTO   C45 6171   7.499   2.487   0.637  0.6246  0.2130  0.3094
   15CHTO   H87 6172   7.499   2.442   0.737  0.1569 -2.8470 -1.0291
   15CHTO    N8 6173   7.571   2.614   0.636 -0.2027 -0.1304 -0.4243
   15CHTO   H75 6174   7.668   2.585   0.674  0.5485 -1.0937 -2.9939
   15CHTO   H76 6175   7.574   2.672   0.545  0.4982 -2.8915 -2.2305
   15CHTO   C43 6176   7.344   2.496   0.600 -0.4138  0.3392  0.5748
   15CHTO   H85 6177   7.309   2.570   0.671 -0.8989 -0.2778  0.9876
   15CHTO   O29 6178   7.275   2.377   0.608 -0.1629 -0.2059  0.2301
   15CHTO   C50 6179   7.330   2.267   0.529  0.0970  0.3805  0.1391
   15CHTO   H92 6180   7.286   2.176   0.571 -1.3654  1.3735  0.8185
   15CHTO   C54 6181   7.288   2.252   0.378 -0.8170 -0.0398 -0.4314
   15CHTO   O36 6182   7.154   2.287   0.355  0.0516 -0.1017  0.0006
   15CHTO   H72 6183   7.134   2.264   0.266  2.3276  1.7268 -1.0597
   15CHTO   O27 6184   7.318   2.551   0.469 -0.0594  0.1432  0.1556
   15CHTO   C37 6185   7.233   2.629   0.388 -0.1720  0.3583  0.2877
   15CHTO   H79 6186   7.186   2.571   0.307 -0.7703  1.5470 -0.2332
   15CHTO   C38 6187   7.118   2.689   0.465 -0.3866 -0.3186  0.7622
   15CHTO   H80 6188   7.165   2.747   0.546  0.3169  1.6861 -1.0445
   15CHTO   O31 6189   7.048   2.585   0.531 -0.4968  0.0920 -0.2317
   15CHTO   H68 6190   6.978   2.620   0.584 -0.1378  0.8362 -0.2423
   15CHTO   C39 6191   7.025   2.777   0.370  0.8448 -0.3072  0.8063
   15CHTO   H81 6192   6.980   2.713   0.294  2.2422 -0.3870  0.0295
   15CHTO    N7 6193   6.914   2.853   0.444 -0.6094 -0.1358  0.1290
   15CHTO   H73 6194   6.931   2.948   0.493 -2.9794  0.9856 -1.1241
   15CHTO   H74 6195   6.839   2.874   0.369  0.7994  1.1555 -0.9607
   15CHTO   C40 6196   7.111   2.877   0.289 -0.1539 -0.0705  0.3987
   15CHTO   H82 6197   7.130   2.970   0.343 -2.6820  0.6077  0.1656
   15CHTO   O26 6198   7.235   2.816   0.241 -0.3449 -0.0323  0.1489
   15CHTO   C41 6199   7.325   2.737   0.327  0.3345  0.2539  0.1113
   15CHTO   H83 6200   7.368   2.801   0.405 -1.3589  0.3105  1.0197
   15CHTO   C52 6201   7.432   2.680   0.242 -0.0849  0.4282 -0.3401
   15CHTO   O35 6202   7.507   2.782   0.173 -0.3569 -0.1720  0.1809
   15CHTO   H71 6203   7.591   2.806   0.208 -1.0659  0.7674  1.2999
   15CHTO   O28 6204   7.045   2.920   0.170 -0.0260  0.0110 -0.0443
   15CHTO   C42 6205   7.064   3.052   0.100  0.3778  0.1766  0.7007
   15CHTO   H84 6206   7.017   3.036   0.003 -2.0668  2.3320  1.4716
   15CHTO   C44 6207   7.211   3.095   0.073 -0.5462 -0.1351  0.0396
   15CHTO   H86 6208   7.262   3.106   0.169 -1.1013 -0.4283  0.3660
   15CHTO   O32 6209   7.272   2.988  -0.003  0.0914  0.0166 -0.0734
   15CHTO   H69 6210   7.290   2.908   0.041 -0.7995  0.9821  2.1035
   15CHTO   C48 6211   7.233   3.233  -0.015  0.1260  0.0363 -0.3379
   15CHTO   H90 6212   7.201   3.201  -0.113  0.9907 -2.1974  0.0889
   15CHTO    N9 6213   7.376   3.270  -0.038 -0.2873 -0.2744  0.0870
   15CHTO   H77 6214   7.430   3.183  -0.071  0.5326  0.7081 -1.2578
   15CHTO   H78 6215   7.381   3.352  -0.109  0.7869 -2.9393 -3.0852
   15CHTO   C51 6216   7.133   3.345   0.040  0.1287 -0.0811  0.0160
   15CHTO   H93 6217   7.173   3.401   0.125  2.0430 -0.9465 -0.2841
   15CHTO   O30 6218   7.006   3.290   0.064  0.1199 -0.5743 -0.3066
   15CHTO   C46 6219   6.996   3.173   0.158  0.5227 -0.1363  0.1592
   15CHTO   H88 6220   7.049   3.195   0.251 -0.8528  4.3044 -0.0127
   15CHTO   C53 6221   6.848   3.146   0.189 -0.0006  0.1723 -0.5620
   15CHTO   O72 6222   6.794   3.257   0.258  0.1552  0.1271  0.4625
   15CHTO  H199 6223   6.735   3.224   0.323  0.1103  0.2986  0.5099
   15CHTO   O22 6224   7.115   3.441  -0.063  0.2011 -0.2398 -0.2726
   15CHTO   C31 6225   7.092   3.590  -0.041 -0.2060 -0.3039  0.1785
   15CHTO   H59 6226   7.087   3.643  -0.139 -2.2031 -0.4284  0.2028
   15CHTO   C29 6227   6.959   3.622   0.028 -0.7249 -0.0089 -0.5701
   15CHTO   H57 6228   6.978   3.575   0.126  1.8802  0.5251 -0.7813
   15CHTO   O21 6229   6.849   3.563  -0.037  0.0781 -0.8256 -0.4818
   15CHTO   H37 6230   6.856   3.470  -0.024  1.9150 -0.5841  0.4805
   15CHTO   C27 6231   6.941   3.773   0.049 -0.5269 -0.4449  0.4478
   15CHTO   H55 6232   6.935   3.819  -0.051  0.5505 -3.1061 -0.8999
   15CHTO    N5 6233   6.823   3.812   0.131 -0.2807 -0.0607  0.0442
   15CHTO   H43 6234   6.826   3.758   0.225 -1.5719  1.0483  0.7448
   15CHTO   H44 6235   6.822   3.919   0.151 -0.0066  0.1459 -1.0327
   15CHTO   C25 6236   7.072   3.838   0.116  0.7674 -0.0924  0.6767
   15CHTO   H53 6237   7.076   3.793   0.216 -1.8701  0.4906  1.0771
   15CHTO   O17 6238   7.179   3.795   0.022  0.5214 -0.0891 -0.2952
   15CHTO   C32 6239   7.212   3.654   0.031 -0.0789 -0.2241  0.2318
   15CHTO   H60 6240   7.216   3.622   0.135  0.4837  1.1989  0.6628
   15CHTO   C36 6241   7.352   3.641  -0.020  0.8183 -0.3710 -0.8342
   15CHTO   O25 6242   7.457   3.695   0.060  0.9037  0.7798  0.3164
   15CHTO   H40 6243   7.530   3.637   0.049 -0.5606 -0.8137 -1.1825
   15CHTO   O15 6244   7.075   4.017   0.129 -0.1810  0.3582  0.4560
   15CHTO   C19 6245   7.160   4.134   0.166  0.4627  0.5094  0.5155
   15CHTO   H47 6246   7.240   4.139   0.091  0.5536  2.8755  0.7280
   15CHTO   C20 6247   7.070   4.265   0.169 -0.0782  0.4237  0.1207
   15CHTO   H48 6248   6.981   4.254   0.233  1.9034  1.6323  3.2483
   15CHTO   O19 6249   7.014   4.290   0.038 -0.0714  0.7269 -0.8241
   15CHTO   H35 6250   6.984   4.210  -0.001  1.6224  0.4011 -1.5142
   15CHTO   C21 6251   7.154   4.387   0.224 -0.0285 -0.2978 -0.6429
   15CHTO   H49 6252   7.231   4.410   0.151 -0.1125  0.5481 -0.4703
   15CHTO    N4 6253   7.076   4.513   0.242  0.1401  0.7455 -1.1074
   15CHTO   H41 6254   7.050   4.555   0.146  0.1951 -0.4589 -1.6592
   15CHTO   H42 6255   7.126   4.589   0.300  0.9979  1.5507 -2.8738
   15CHTO   C22 6256   7.228   4.346   0.354 -0.0366 -0.0188  0.6474
   15CHTO   H50 6257   7.157   4.329   0.435 -0.8488  1.3016  0.2465
   15CHTO   O14 6258   7.305   4.229   0.337 -0.0611  0.0350 -0.2589
   15CHTO   C23 6259   7.234   4.114   0.303  0.7738  0.0546  0.1821
   15CHTO   H51 6260   7.161   4.088   0.380 -0.2877  1.1008 -0.4505
   15CHTO   C34 6261   7.337   4.003   0.288  0.1961  0.4814 -0.0100
   15CHTO   O23 6262   7.432   4.038   0.181 -0.0475 -0.3206 -0.7395
   15CHTO   H38 6263   7.504   3.980   0.169 -0.6815 -1.7062  1.8806
   15CHTO   O16 6264   7.326   4.444   0.393  0.2354 -0.2269  0.5259
   15CHTO   C24 6265   7.330   4.465   0.543 -0.0258 -0.1416 -0.4528
   15CHTO   H52 6266   7.263   4.396   0.595 -0.4756  0.5429 -0.1195
   15CHTO   C26 6267   7.284   4.612   0.569  0.1750 -0.3656 -0.5314
   15CHTO   H54 6268   7.312   4.681   0.486 -2.6429  0.6490 -0.7013
   15CHTO   O20 6269   7.137   4.609   0.574  0.5061 -0.3171 -0.0500
   15CHTO   H36 6270   7.109   4.588   0.661 -1.3666 -1.2230 -0.8510
   15CHTO   C30 6271   7.352   4.665   0.694  0.5033  0.5799  0.3749
   15CHTO   H58 6272   7.311   4.609   0.779 -0.0359  0.3713 -0.0188
   15CHTO    N6 6273   7.307   4.807   0.710 -0.2730  0.4031  0.0360
   15CHTO   H45 6274   7.346   4.848   0.802 -0.8164  1.0067  0.0053
   15CHTO   H46 6275   7.334   4.874   0.629  1.5508 -0.0752  0.2182
   15CHTO   C33 6276   7.502   4.649   0.683  0.3055 -0.7654  0.6960
   15CHTO   H61 6277   7.531   4.676   0.580 -1.1964 -0.5671  0.3098
   15CHTO   O18 6278   7.518   4.506   0.705 -0.1990 -0.4116  0.3043
   15CHTO   C28 6279   7.480   4.430   0.587  0.2821  0.6376  0.1294
   15CHTO   H56 6280   7.552   4.446   0.507  0.8204  1.1949  0.7220
   15CHTO   C35 6281   7.501   4.278   0.618  0.1779 -0.4271  0.6346
   15CHTO   O24 6282   7.636   4.237   0.631  0.0829  0.0702  0.0497
   15CHTO   H39 6283   7.667   4.206   0.548 -0.0909  1.5590 -0.5850
   15CHTO    O9 6284   7.592   4.730   0.771  0.3333  0.2618 -0.6357
   15CHTO   C13 6285   7.752   4.770   0.687  0.1888 -0.7492 -0.9116
   15CHTO   H26 6286   7.744   4.871   0.641 -2.4021 -1.0188 -1.1235
   15CHTO   C11 6287   7.800   4.659   0.581  0.2137  0.6589 -0.3969
   15CHTO   H24 6288   7.726   4.676   0.502 -3.0194 -0.4964  2.2946
   15CHTO    O8 6289   7.791   4.523   0.640 -0.0526 -0.0206 -0.2766
   15CHTO    H3 6290   7.707   4.485   0.625 -0.1561  0.8433 -2.0204
   15CHTO    C9 6291   7.939   4.700   0.533  0.2316  0.6350 -0.0577
   15CHTO   H22 6292   7.932   4.804   0.500 -0.5245  1.2007  1.8156
   15CHTO    N2 6293   7.986   4.621   0.416  0.4040  0.0161 -0.3657
   15CHTO   H10 6294   7.906   4.592   0.349  1.2811  2.0091 -2.3211
   15CHTO   H11 6295   8.051   4.692   0.367  0.3368  1.2923  1.3533
   15CHTO    C7 6296   8.040   4.697   0.659  0.1415  0.2889  0.3080
   15CHTO   H20 6297   8.130   4.745   0.615 -0.6039  0.1366 -1.4319
   15CHTO    O4 6298   7.996   4.779   0.767  0.2957 -0.2856  0.2414
   15CHTO   C14 6299   7.857   4.787   0.804  0.1818  0.1532  0.0915
   15CHTO   H27 6300   7.838   4.887   0.849 -1.4009 -0.0391 -0.1316
   15CHTO   C18 6301   7.825   4.685   0.916 -0.2774 -0.5059  0.2810
   15CHTO   O13 6302   7.886   4.717   1.041  0.2636 -0.1028  0.0252
   15CHTO    H7 6303   7.859   4.652   1.102 -2.2823  0.2184 -0.7091
   15CHTO    O2 6304   8.059   4.549   0.721  0.0107  0.2077  0.0634
   15CHTO    C1 6305   8.145   4.528   0.840 -0.0479  0.0311 -0.1023
   15CHTO   H14 6306   8.105   4.581   0.929  0.6142 -1.3390  1.0264
   15CHTO    C2 6307   8.296   4.568   0.818  0.2549  0.1576 -0.2448
   15CHTO   H15 6308   8.334   4.520   0.727  1.9260  1.4639 -0.2640
   15CHTO    O6 6309   8.322   4.711   0.811 -0.6536 -0.8360  0.2237
   15CHTO    H1 6310   8.251   4.765   0.783 -0.4592 -0.8870 -0.3855
   15CHTO    C3 6311   8.384   4.499   0.937  0.5092  0.1216 -0.5052
   15CHTO   H16 6312   8.357   4.560   1.024  0.4499  0.9692 -1.1092
   15CHTO    N1 6313   8.534   4.513   0.914  0.3912  0.1689  0.3194
   15CHTO    H8 6314   8.547   4.474   0.814  0.3800 -1.2530  0.8650
   15CHTO    H9 6315   8.578   4.610   0.931 -0.4326  0.8504 -1.3305
   15CHTO    C4 6316   8.337   4.349   0.968  0.0747 -0.7443 -0.1722
   15CHTO   H17 6317   8.368   4.283   0.887  0.6887 -1.8595  0.9375
   15CHTO    O1 6318   8.194   4.342   0.991  0.2762 -0.4117  0.9587
   15CHTO    C5 6319   8.115   4.375   0.875 -0.0939  0.0353  0.8284
   15CHTO   H18 6320   8.151   4.311   0.795 -4.6454  1.4058 -2.5010
   15CHTO   C16 6321   7.963   4.338   0.908  0.2090 -0.5627  0.3727
   15CHTO   O11 6322   7.944   4.203   0.960  0.2939  0.2212  0.0495
   15CHTO    H5 6323   7.984   4.193   1.045  1.0065  3.1991  0.1194
   15CHTO    O3 6324   8.396   4.290   1.091 -0.3122  0.0633  0.2160
   15CHTO    C6 6325   8.346   4.170   1.150 -0.0615 -0.2102  0.1314
   15CHTO   H19 6326   8.241   4.159   1.124  0.2036  0.0998 -1.1115
   15CHTO    C8 6327   8.419   4.053   1.082  0.0052  0.7284  0.5802
   15CHTO   H21 6328   8.524   4.079   1.088 -0.4058  2.3961  0.7697
   15CHTO    O7 6329   8.380   4.050   0.945  0.0143 -0.4575  0.7493
   15CHTO    H2 6330   8.434   4.106   0.893  1.1952 -0.0003  2.4214
   15CHTO   C12 6331   8.396   3.915   1.157  0.8296  0.4742  0.7158
   15CHTO   H25 6332   8.291   3.885   1.138  0.4441  2.2329  0.0344
   15CHTO    N3 6333   8.478   3.803   1.114  0.5222  0.3027 -0.2091
   15CHTO   H12 6334   8.477   3.719   1.182  1.7770  0.3273 -0.1529
   15CHTO   H13 6335   8.574   3.838   1.079  0.3460  1.8744  0.8012
   15CHTO   C15 6336   8.402   3.938   1.312 -0.3730  0.0251  0.2762
   15CHTO   H28 6337   8.505   3.952   1.346  0.4495  0.8824 -2.4865
   15CHTO   O10 6338   8.343   3.817   1.403  0.4100  0.6380 -0.2856
   15CHTO    H4 6339   8.382   3.735   1.378 -0.8068 -0.1534  0.3692
   15CHTO    O5 6340   8.315   4.047   1.353  0.0317 -0.2348  0.1536
   15CHTO   C10 6341   8.358   4.170   1.301 -0.8091 -0.0955  0.2813
   15CHTO   H23 6342   8.460   4.186   1.336 -0.4788 -0.0610 -0.6701
   15CHTO   C17 6343   8.264   4.269   1.365  0.1314  0.8710 -0.1361
   15CHTO   O12 6344   8.287   4.407   1.330 -0.2969  0.7028 -0.3470
   15CHTO    H6 6345   8.244   4.411   1.247  0.2743 -2.9180 -0.8665
   16CHTO  H203 6346   6.012   4.566   0.650  0.3818  1.0662  0.2634
   16CHTO   O82 6347   6.066   4.520   0.712 -0.7145 -0.3252  0.2289
   16CHTO  C123 6348   6.198   4.526   0.658  0.1856  0.0419  0.5083
   16CHTO  H227 6349   6.216   4.631   0.633 -1.8175  0.0771 -0.8888
   16CHTO   O77 6350   6.272   4.491   0.776 -0.4148 -0.0491  0.3024
   16CHTO  C118 6351   6.413   4.497   0.754  0.4874  0.1122  0.2349
   16CHTO  H222 6352   6.447   4.595   0.719  0.2225 -0.0504 -0.4722
   16CHTO  C125 6353   6.488   4.472   0.891  0.6308 -0.1754  0.0509
   16CHTO   O84 6354   6.477   4.339   0.942  0.2402  0.2217  0.2636
   16CHTO  H205 6355   6.395   4.316   0.980 -0.3615 -0.9229 -1.6172
   16CHTO  C114 6356   6.457   4.387   0.649  0.1510 -0.0168 -0.1735
   16CHTO  H218 6357   6.423   4.290   0.686  0.0537 -0.4592 -1.4251
   16CHTO  C116 6358   6.381   4.413   0.516 -0.2379  0.6889  0.1392
   16CHTO  H220 6359   6.414   4.512   0.480 -2.1909  0.5399 -2.1742
   16CHTO   O79 6360   6.414   4.313   0.416  0.0434 -0.1837  0.1001
   16CHTO  H201 6361   6.365   4.319   0.336  1.2993 -0.2172 -0.6850
   16CHTO  C120 6362   6.222   4.420   0.544 -0.2219  1.0140 -0.4281
   16CHTO  H224 6363   6.199   4.319   0.584 -0.3762  0.3552 -2.1192
   16CHTO   N21 6364   6.142   4.443   0.421  0.1249  0.0449  0.1143
   16CHTO  H211 6365   6.049   4.389   0.423 -0.8976  1.7709  0.9359
   16CHTO  H212 6366   6.143   4.548   0.396  0.6963 -0.2646 -1.2057
   16CHTO   O75 6367   6.599   4.402   0.646  0.3449  0.1849 -0.0958
   16CHTO  C112 6368   6.698   4.276   0.587  0.1894 -0.3089  0.0620
   16CHTO  H216 6369   6.709   4.277   0.478 -0.8833 -1.3307 -0.0725
   16CHTO   O73 6370   6.633   4.160   0.624 -0.1983 -0.5511  0.0974
   16CHTO  C113 6371   6.685   4.044   0.551 -0.2393  0.3119 -0.2472
   16CHTO  H217 6372   6.690   4.077   0.445  0.9060  1.0354  0.0210
   16CHTO  C124 6373   6.596   3.917   0.573  0.1600 -0.0511 -0.4054
   16CHTO   O83 6374   6.495   3.907   0.467 -0.3701 -0.1172 -0.0967
   16CHTO  H204 6375   6.442   3.833   0.491 -0.0913 -1.4214 -3.2527
   16CHTO  C109 6376   6.830   4.024   0.598 -0.6744  0.3781 -0.3249
   16CHTO  H213 6377   6.824   3.991   0.703 -1.4791 -1.0350 -0.7888
   16CHTO  C110 6378   6.919   4.151   0.589  0.6575  0.0875  0.3729
   16CHTO  H214 6379   6.938   4.176   0.484  1.4251  0.5649  0.6248
   16CHTO   O78 6380   7.052   4.133   0.644  0.2510 -0.7481  0.9237
   16CHTO  H200 6381   7.102   4.207   0.615 -1.0688 -0.2514 -0.1579
   16CHTO  C111 6382   6.842   4.270   0.655 -0.4819 -0.2320 -0.1505
   16CHTO  H215 6383   6.824   4.249   0.761  1.5480  0.9537  0.4548
   16CHTO   N19 6384   6.906   4.403   0.654 -0.3299  0.5426 -0.0505
   16CHTO  H207 6385   6.891   4.454   0.749 -2.2789 -0.6980  0.3332
   16CHTO  H208 6386   7.013   4.395   0.660 -0.4295 -0.5736  0.4916
   16CHTO   O74 6387   6.896   3.918   0.522 -0.1890  0.1114  0.0214
   16CHTO  C115 6388   6.937   3.797   0.600 -0.3733 -0.0281 -0.2704
   16CHTO  H219 6389   6.955   3.821   0.705 -3.1171  0.4030  0.1244
   16CHTO   O76 6390   6.821   3.684   0.600  0.2351 -0.0135 -0.7866
   16CHTO  C122 6391   6.835   3.595   0.496 -0.5328  0.4481 -0.5288
   16CHTO  H226 6392   6.816   3.652   0.405  2.0065  2.1943  0.0080
   16CHTO  C126 6393   6.723   3.474   0.500  0.2204 -0.0155  0.4520
   16CHTO   O85 6394   6.588   3.520   0.510 -0.0291 -0.0307  0.5912
   16CHTO  H206 6395   6.557   3.568   0.436  0.9837 -1.6846 -0.9564
   16CHTO  C121 6396   6.970   3.514   0.501 -0.0331 -0.0837 -0.3251
   16CHTO  H225 6397   6.959   3.411   0.540 -0.7434 -0.5724 -1.7822
   16CHTO   O81 6398   7.015   3.506   0.365  0.5730 -0.1666  0.1136
   16CHTO  H202 6399   6.961   3.450   0.313 -0.8845  0.5057  0.8689
   16CHTO  C119 6400   7.084   3.585   0.580 -0.1043 -0.9290  0.3095
   16CHTO  H223 6401   7.062   3.571   0.686 -0.0796 -0.8563  0.3241
   16CHTO  C117 6402   7.076   3.737   0.548  0.0126 -0.2910  0.2076
   16CHTO  H221 6403   7.088   3.768   0.444  1.9487  0.9422  0.7717
   16CHTO   N20 6404   7.187   3.809   0.613  0.3124  0.8895  0.4922
   16CHTO  H209 6405   7.193   3.796   0.720  1.6416 -2.1956  0.0959
   16CHTO  H210 6406   7.282   3.802   0.561 -0.7278 -1.9795 -1.0962
   16CHTO   O80 6407   7.229   3.513   0.562  0.4263 -0.0786  0.0086
   16CHTO  C103 6408   7.254   3.366   0.632  0.2159 -0.2125 -0.2246
   16CHTO  H190 6409   7.159   3.321   0.662 -0.3283  0.5074 -0.8544
   16CHTO  C101 6410   7.317   3.259   0.533  1.2681 -0.3278 -0.3624
   16CHTO  H188 6411   7.413   3.294   0.495  1.2075  0.3401  0.0820
   16CHTO   O68 6412   7.230   3.230   0.409  0.6559  0.0637  0.7076
   16CHTO  H168 6413   7.184   3.310   0.389 -0.2189 -0.4799  0.5313
   16CHTO   C99 6414   7.353   3.122   0.614  0.0398 -0.1961  0.8299
   16CHTO  H186 6415   7.260   3.067   0.638  0.3672 -0.4367  1.5777
   16CHTO   N17 6416   7.436   3.026   0.538 -0.3132 -0.7853  0.2730
   16CHTO  H174 6417   7.444   2.929   0.585 -2.1076 -0.8143  0.5515
   16CHTO  H175 6418   7.533   3.074   0.542 -0.6396 -0.1435  0.5416
   16CHTO   C97 6419   7.425   3.150   0.749  0.3596  0.6720 -0.0614
   16CHTO  H184 6420   7.526   3.185   0.723  1.2142  0.1008  2.3218
   16CHTO   O64 6421   7.354   3.248   0.826  0.1545 -0.6635  0.3448
   16CHTO  C104 6422   7.344   3.371   0.759  0.1776 -0.3395 -1.0980
   16CHTO  H191 6423   7.448   3.393   0.732  1.0052 -1.3764  1.1040
   16CHTO  C108 6424   7.305   3.482   0.852  0.3438 -0.4022 -0.6623
   16CHTO   O71 6425   7.411   3.517   0.945  0.0161 -0.1227  0.2227
   16CHTO  H171 6426   7.381   3.575   1.013  1.9550 -0.7084  1.6272
   16CHTO   O62 6427   7.433   3.030   0.836  0.6194 -0.5186 -0.4375
   16CHTO   C91 6428   7.531   3.040   0.938  0.0902  0.1657 -0.1391
   16CHTO  H178 6429   7.611   3.101   0.896  1.5150 -0.5123  1.5270
   16CHTO   C92 6430   7.600   2.910   0.975 -0.8568  0.1917  0.0858
   16CHTO  H179 6431   7.629   2.866   0.878 -1.7226 -1.4625  0.5580
   16CHTO   O66 6432   7.715   2.928   1.052  0.2155  0.1208  0.0686
   16CHTO  H166 6433   7.755   2.845   1.069  0.1111  0.0358 -0.0953
   16CHTO   C93 6434   7.508   2.817   1.067 -0.2502 -0.1227 -0.5833
   16CHTO  H180 6435   7.569   2.766   1.143  0.3535 -0.0895 -1.0410
   16CHTO   N16 6436   7.447   2.704   0.986  0.1173 -0.5745 -0.4574
   16CHTO  H172 6437   7.440   2.617   1.049 -0.5848  0.8134  1.4273
   16CHTO  H173 6438   7.353   2.737   0.944  0.7489  2.5453  0.4475
   16CHTO   C94 6439   7.391   2.899   1.139  0.1590  0.5817  0.7691
   16CHTO  H181 6440   7.299   2.890   1.081  0.5038  0.5499  0.2206
   16CHTO   O61 6441   7.438   3.030   1.178 -0.2465 -0.0859  0.5715
   16CHTO   C95 6442   7.483   3.114   1.070  0.3080  0.1578 -0.1921
   16CHTO  H182 6443   7.402   3.184   1.050  1.5230  1.4999 -0.4837
   16CHTO  C106 6444   7.583   3.217   1.130  0.0584 -0.2880 -0.0865
   16CHTO   O69 6445   7.619   3.324   1.040 -0.6216 -0.8099  0.3834
   16CHTO  H169 6446   7.544   3.364   1.000 -0.3292  0.3466  0.9801
   16CHTO   O63 6447   7.369   2.824   1.273  0.4806  0.0296  0.2197
   16CHTO   C96 6448   7.205   2.783   1.292 -0.3230  0.0951  0.5807
   16CHTO  H183 6449   7.201   2.745   1.394  1.5103  0.6074  0.8631
   16CHTO   C98 6450   7.148   2.673   1.187  0.3817 -0.2570  0.4174
   16CHTO  H185 6451   7.158   2.710   1.084  3.1285  1.4609  1.2675
   16CHTO   O67 6452   7.216   2.550   1.189  0.0261 -0.9390  0.2116
   16CHTO  H167 6453   7.307   2.556   1.167 -1.0356  2.7802 -3.8309
   16CHTO  C102 6454   6.991   2.657   1.224  0.4210  0.5000 -0.4196
   16CHTO  H189 6455   6.989   2.652   1.334  4.1293 -1.3206 -0.3578
   16CHTO   N18 6456   6.927   2.525   1.175 -0.0413 -0.1640  0.1298
   16CHTO  H176 6457   6.960   2.434   1.223  0.2285  0.3236  0.8729
   16CHTO  H177 6458   6.819   2.526   1.166  0.0250  0.2797 -0.6167
   16CHTO  C105 6459   6.920   2.784   1.179 -0.1111  0.4709 -0.3185
   16CHTO  H192 6460   6.891   2.773   1.075 -0.0554 -0.4459 -0.2398
   16CHTO   O65 6461   6.999   2.902   1.197  0.3593 -0.0354 -0.1965
   16CHTO  C100 6462   7.106   2.913   1.292  0.1501  0.1990  0.1884
   16CHTO  H187 6463   7.164   3.002   1.264  1.1884  0.4361  2.8752
   16CHTO  C107 6464   7.039   2.947   1.429 -0.3358  0.3388  0.3768
   16CHTO   O70 6465   6.972   3.067   1.417  0.4310  0.2268 -0.1843
   16CHTO  H170 6466   7.028   3.131   1.457 -0.3361  0.4643  0.4998
   16CHTO   O57 6467   6.798   2.797   1.265  0.3153 -0.2834  0.2166
   16CHTO   C85 6468   6.687   2.862   1.203  0.0938 -0.2588 -0.6216
   16CHTO  H157 6469   6.693   2.832   1.097  2.3277 -3.7412  0.4112
   16CHTO   C83 6470   6.682   3.015   1.213  0.0844 -0.0777  0.1424
   16CHTO  H155 6471   6.765   3.057   1.157 -0.4080 -0.2310 -0.7104
   16CHTO   O56 6472   6.707   3.043   1.356  0.1283  0.0532 -0.2220
   16CHTO  H135 6473   6.704   3.133   1.383  0.2197 -0.7752  2.7063
   16CHTO   C81 6474   6.550   3.069   1.145 -0.2501 -0.7295 -0.3769
   16CHTO  H153 6475   6.560   3.042   1.039 -2.5780  1.8266 -1.3281
   16CHTO   N14 6476   6.538   3.218   1.133 -0.3244 -0.1388 -0.7971
   16CHTO  H141 6477   6.623   3.270   1.172 -1.5670  3.0289 -2.1230
   16CHTO  H142 6478   6.449   3.248   1.185  1.0862  0.5737  1.2919
   16CHTO   C79 6479   6.419   3.006   1.198 -0.3074  0.1200 -0.2928
   16CHTO  H151 6480   6.341   3.037   1.128 -0.8710  0.5375  0.5225
   16CHTO   O52 6481   6.442   2.861   1.199  0.5345 -0.2994  0.6789
   16CHTO   C86 6482   6.553   2.806   1.268  0.7105 -0.5192 -0.3205
   16CHTO  H158 6483   6.529   2.846   1.369 -3.5362  1.6059 -2.0667
   16CHTO   C90 6484   6.549   2.651   1.282 -0.4085 -0.0478  0.5269
   16CHTO   O60 6485   6.531   2.590   1.156  0.2386 -0.3871 -0.0559
   16CHTO  H138 6486   6.547   2.498   1.168  2.2889 -0.0662 -0.1730
   16CHTO   O50 6487   6.386   3.051   1.333 -0.2578  0.4465  0.1263
   16CHTO   C73 6488   6.267   3.079   1.406  0.0030 -0.2176  0.4558
   16CHTO  H145 6489   6.226   2.979   1.429  1.1585 -0.7965  0.0237
   16CHTO   C74 6490   6.159   3.161   1.324  0.0268  0.6684  0.2939
   16CHTO  H146 6491   6.157   3.111   1.226  0.6334  0.8808  0.1715
   16CHTO   O54 6492   6.040   3.137   1.398  0.3037 -0.2225 -0.4456
   16CHTO  H133 6493   5.964   3.173   1.355  0.6076 -1.0140 -1.6803
   16CHTO   C75 6494   6.213   3.314   1.309  0.8460  0.3062 -0.0912
   16CHTO  H147 6495   6.297   3.321   1.238  0.7850  1.3787 -0.0626
   16CHTO   N13 6496   6.106   3.399   1.252  0.0908  0.2113 -0.4356
   16CHTO  H139 6497   6.071   3.369   1.155  1.5541 -0.5312 -0.7421
   16CHTO  H140 6498   6.151   3.497   1.248  2.8503 -0.9022  1.4995
   16CHTO   C76 6499   6.267   3.368   1.455  0.4428  0.0933  0.1262
   16CHTO  H148 6500   6.173   3.361   1.511 -0.3022  1.1275 -0.9631
   16CHTO   O49 6501   6.362   3.273   1.516  0.6389 -0.3761 -0.0226
   16CHTO   C77 6502   6.310   3.147   1.539  0.3974  0.8841  0.2835
   16CHTO  H149 6503   6.219   3.156   1.597 -0.0913 -2.8441  0.2223
   16CHTO   C88 6504   6.406   3.060   1.629 -0.3320  0.6471  0.4561
   16CHTO   O58 6505   6.555   3.097   1.600 -0.0467 -0.0718 -0.3546
   16CHTO  H136 6506   6.604   3.073   1.677  0.0026  1.4616  0.1065
   16CHTO   O51 6507   6.342   3.493   1.450  0.4084 -0.4483 -0.3659
   16CHTO   C78 6508   6.407   3.544   1.569  0.6391 -0.1005 -0.1627
   16CHTO  H150 6509   6.403   3.481   1.660  0.0404  0.3708  0.1406
   16CHTO   C80 6510   6.351   3.679   1.602  0.4524 -0.4656  0.4304
   16CHTO  H152 6511   6.339   3.735   1.507  0.1933 -2.3521 -0.6775
   16CHTO   O55 6512   6.222   3.648   1.664  0.2037 -0.1173  0.3495
   16CHTO  H134 6513   6.169   3.724   1.679 -0.1521  0.1882 -2.2922
   16CHTO   C84 6514   6.438   3.762   1.710  0.1738  0.8109 -0.9216
   16CHTO  H156 6515   6.443   3.709   1.805 -0.7065  1.0201 -0.7574
   16CHTO   N15 6516   6.388   3.893   1.741  0.4695  0.6477 -0.3176
   16CHTO  H143 6517   6.288   3.873   1.774  0.8683 -1.4854 -0.3825
   16CHTO  H144 6518   6.383   3.954   1.653 -0.4346  0.7075 -0.2316
   16CHTO   C87 6519   6.585   3.752   1.659 -0.6328 -0.3083 -1.0842
   16CHTO  H159 6520   6.598   3.801   1.563 -0.7136 -2.2183 -2.1116
   16CHTO   O53 6521   6.619   3.613   1.652  0.9036  0.1385  0.0543
   16CHTO   C82 6522   6.554   3.555   1.541 -0.1011 -0.0926  1.2722
   16CHTO  H154 6523   6.561   3.621   1.454  0.6294 -0.8638  0.7477
   16CHTO   C89 6524   6.619   3.416   1.504 -0.7022  0.6429  0.2442
   16CHTO   O59 6525   6.747   3.429   1.447 -0.1014  0.9034 -0.3266
   16CHTO  H137 6526   6.740   3.383   1.366 -1.1642  0.8938 -0.2437
   16CHTO   O45 6527   6.684   3.817   1.784  0.3364  0.4955  0.2778
   16CHTO   C67 6528   6.813   3.847   1.734 -0.0952  0.4498 -0.2348
   16CHTO  H124 6529   6.824   3.802   1.635 -0.7881 -1.8850  0.7137
   16CHTO   C65 6530   6.841   4.002   1.726  0.8086 -0.5248 -0.2683
   16CHTO  H122 6531   6.748   4.058   1.728  0.6927 -0.6299 -1.9201
   16CHTO   O44 6532   6.901   4.027   1.597  0.5219 -0.0702  0.2630
   16CHTO  H102 6533   6.847   4.002   1.525  0.6554 -1.0195  0.4877
   16CHTO   C63 6534   6.918   4.064   1.847  0.5586  0.5133 -0.2225
   16CHTO  H120 6535   6.855   4.049   1.935 -0.5348  0.5713 -0.9873
   16CHTO   N11 6536   6.946   4.204   1.848  0.7001  0.3531 -0.3731
   16CHTO  H108 6537   7.023   4.228   1.919  1.4854 -1.7398 -0.4826
   16CHTO  H109 6538   6.867   4.274   1.830 -0.2910 -0.7629 -0.3772
   16CHTO   C61 6539   7.059   3.983   1.854  0.0979 -0.5880 -0.8587
   16CHTO  H118 6540   7.087   3.994   1.959 -1.8502 -2.1597 -0.1439
   16CHTO   O40 6541   7.052   3.843   1.831 -0.1443  0.0177 -0.8062
   16CHTO   C68 6542   6.924   3.772   1.827 -0.4106 -0.5177  0.6668
   16CHTO  H125 6543   6.890   3.759   1.932 -0.7785  0.6198  0.7003
   16CHTO   C72 6544   6.965   3.633   1.777  0.8353 -0.0343 -0.7776
   16CHTO   O48 6545   6.863   3.537   1.769 -0.6664 -0.0658 -0.0922
   16CHTO  H105 6546   6.878   3.456   1.814 -0.5361 -0.4310 -0.7890
   16CHTO   O38 6547   7.157   4.014   1.754 -0.6498  0.1433  0.0085
   16CHTO   C55 6548   7.299   4.009   1.794  0.4543 -0.0901  0.4812
   16CHTO  H112 6549   7.304   3.977   1.899 -1.6240  0.0692  0.6516
   16CHTO   C56 6550   7.361   4.152   1.769 -0.5053 -0.7965  0.8051
   16CHTO  H113 6551   7.329   4.179   1.667 -3.4375 -0.9642  1.6380
   16CHTO   O42 6552   7.306   4.247   1.859 -0.0166 -0.2794  0.1581
   16CHTO  H100 6553   7.349   4.330   1.852 -1.5130  0.4473 -0.7935
   16CHTO   C57 6554   7.526   4.164   1.766 -0.0456 -0.1914 -0.2854
   16CHTO  H114 6555   7.560   4.143   1.868  0.3893  0.5676 -0.2697
   16CHTO   N10 6556   7.585   4.296   1.725  0.0915  0.1490  0.4873
   16CHTO  H106 6557   7.593   4.366   1.807 -1.4488  2.2474 -1.0722
   16CHTO  H107 6558   7.526   4.348   1.651 -1.9951  1.0853  2.7335
   16CHTO   C58 6559   7.576   4.052   1.677 -0.2551 -0.2463  0.1394
   16CHTO  H115 6560   7.538   4.066   1.574 -0.3096 -0.9225  0.0659
   16CHTO   O37 6561   7.521   3.936   1.733 -0.0356 -0.1762 -0.5279
   16CHTO   C59 6562   7.381   3.913   1.713  0.3918 -0.2408 -0.3952
   16CHTO  H116 6563   7.359   3.920   1.607 -1.8924  0.0844  0.0656
   16CHTO   C70 6564   7.349   3.770   1.758 -0.3681  0.3847 -0.4326
   16CHTO   O46 6565   7.444   3.669   1.721 -0.2488 -0.0595 -0.2878
   16CHTO  H103 6566   7.428   3.655   1.630 -0.5408  4.8885 -1.1521
   16CHTO   O39 6567   7.731   4.019   1.686  0.4118  0.3850  0.1131
   16CHTO   C60 6568   7.789   3.935   1.589  0.6910 -0.1587  0.0762
   16CHTO  H117 6569   7.715   3.868   1.544  1.3284 -0.3615 -0.6722
   16CHTO   C62 6570   7.848   4.024   1.478 -0.2956 -0.1924 -0.9332
   16CHTO  H119 6571   7.768   4.095   1.448  0.3286  0.3382 -1.3340
   16CHTO   O43 6572   7.955   4.098   1.540 -0.1340  0.1091 -0.0347
   16CHTO  H101 6573   7.929   4.119   1.627  0.5041 -1.1059  0.4655
   16CHTO   C66 6574   7.894   3.935   1.363 -0.0791  0.2781  0.2920
   16CHTO  H123 6575   7.810   3.873   1.330  1.2092 -2.5129  2.0498
   16CHTO   N12 6576   7.936   4.006   1.239 -0.2817  0.2662  0.3759
   16CHTO  H110 6577   7.989   3.929   1.185 -1.2961 -0.2952  0.1478
   16CHTO  H111 6578   7.990   4.094   1.271  0.6143 -0.5895  1.2403
   16CHTO   C69 6579   7.999   3.833   1.418  0.5370  0.3766  0.3934
   16CHTO  H126 6580   8.103   3.870   1.433  1.7076 -2.3518 -0.7436
   16CHTO   O41 6581   7.945   3.757   1.554 -0.4697  0.1060 -0.2261
   16CHTO   C64 6582   7.892   3.843   1.658 -0.0094 -0.3078  0.0419
   16CHTO  H121 6583   7.971   3.902   1.709 -1.6881  1.3354  0.7855
   16CHTO   C71 6584   7.817   3.761   1.768 -0.0584  0.4944 -0.4017
   16CHTO   O47 6585   7.719   3.675   1.712 -0.2823 -0.1885 -0.1211
   16CHTO  H104 6586   7.738   3.584   1.719 -1.5366 -0.4362  0.3046
   16CHTO   O34 6587   8.017   3.724   1.290 -0.3499 -0.0476 -0.7063
   16CHTO   C49 6588   7.998   3.587   1.222 -0.6670 -0.3064  0.2061
   16CHTO   H91 6589   8.049   3.594   1.126  0.5701 -2.5962  0.6627
   16CHTO   C47 6590   7.844   3.563   1.209  0.5712  0.4146  0.2640
   16CHTO   H89 6591   7.834   3.467   1.153  0.4693 -0.6196  2.0110
   16CHTO   O33 6592   7.787   3.672   1.134  0.2006  0.1259  0.1889
   16CHTO   H70 6593   7.826   3.686   1.049 -1.7992 -0.4835 -0.8684
   16CHTO   C45 6594   7.777   3.550   1.356  0.1532 -0.9826  0.2570
   16CHTO   H87 6595   7.803   3.643   1.409 -0.7490 -0.2003 -0.6436
   16CHTO    N8 6596   7.636   3.548   1.355  0.1213  0.2625 -0.2665
   16CHTO   H75 6597   7.601   3.495   1.443  1.1203  2.0810  1.2683
   16CHTO   H76 6598   7.593   3.646   1.340  1.0269  0.4554 -1.6327
   16CHTO   C43 6599   7.851   3.431   1.446  0.0445 -0.1373 -0.4005
   16CHTO   H85 6600   7.823   3.450   1.549  0.6769  0.8122 -0.3954
   16CHTO   O29 6601   7.995   3.452   1.426  0.0075  0.2935 -0.1249
   16CHTO   C50 6602   8.064   3.477   1.306  0.1956  0.2883 -0.9256
   16CHTO   H92 6603   8.166   3.512   1.326  0.4984 -1.3689  0.6000
   16CHTO   C54 6604   8.081   3.348   1.231  0.2229 -0.1157 -0.0455
   16CHTO   O36 6605   8.206   3.276   1.256  0.8122 -0.4501  0.1867
   16CHTO   H72 6606   8.204   3.256   1.348  0.0615 -0.7987  0.0984
   16CHTO   O27 6607   7.820   3.297   1.396  0.4487  0.0441  0.0503
   16CHTO   C37 6608   7.775   3.185   1.474 -0.1836  0.2926  0.0548
   16CHTO   H79 6609   7.827   3.173   1.571 -0.6517  0.0680  0.2767
   16CHTO   C38 6610   7.623   3.200   1.512 -0.3989  0.3900 -0.4996
   16CHTO   H80 6611   7.570   3.237   1.423  0.4318  1.6535 -0.4867
   16CHTO   O31 6612   7.611   3.296   1.621  0.1634 -1.0931 -0.1245
   16CHTO   H68 6613   7.521   3.300   1.648  0.2724 -0.5261  0.1611
   16CHTO   C39 6614   7.557   3.063   1.550 -0.0687  0.6999  0.4331
   16CHTO   H81 6615   7.567   3.047   1.658 -2.1921 -1.5128  0.3632
   16CHTO    N7 6616   7.406   3.064   1.539 -0.0213 -0.2542  0.2220
   16CHTO   H73 6617   7.378   2.987   1.470 -0.0497  1.0623 -1.2695
   16CHTO   H74 6618   7.373   3.165   1.518 -0.0703 -0.0987  1.0273
   16CHTO   C40 6619   7.612   2.932   1.483  0.2404  0.2925 -0.4996
   16CHTO   H82 6620   7.558   2.916   1.389 -2.6117 -0.4067  1.2025
   16CHTO   O26 6621   7.751   2.941   1.462 -0.3176  0.6256 -0.4009
   16CHTO   C41 6622   7.804   3.051   1.386  0.5479 -0.2503  1.0350
   16CHTO   H83 6623   7.742   3.051   1.295  2.7729 -0.9569 -0.5281
   16CHTO   C52 6624   7.956   3.038   1.350  0.5279  0.1179 -0.2157
   16CHTO   O35 6625   7.969   2.946   1.234 -0.4634 -0.6146 -0.4057
   16CHTO   H71 6626   7.884   2.923   1.202 -0.9431 -1.9326  1.6458
   16CHTO   O28 6627   7.607   2.817   1.575  0.0414 -0.5004  0.0603
   16CHTO   C42 6628   7.598   2.678   1.544 -0.3024  0.2016  0.1838
   16CHTO   H84 6629   7.652   2.628   1.624 -0.4195 -2.2497 -1.2308
   16CHTO   C44 6630   7.668   2.634   1.413  0.4938  0.1692  0.2439
   16CHTO   H86 6631   7.626   2.696   1.334  2.5122  1.3101  0.0227
   16CHTO   O32 6632   7.808   2.659   1.425 -0.0945 -0.0817  0.1695
   16CHTO   H69 6633   7.853   2.591   1.471 -0.9709 -0.8455 -0.0889
   16CHTO   C48 6634   7.642   2.481   1.365 -0.1118  0.4828 -0.0021
   16CHTO   H90 6635   7.690   2.421   1.442 -0.6281  0.0596 -0.0105
   16CHTO    N9 6636   7.697   2.441   1.231 -0.3783 -0.1847  0.1589
   16CHTO   H77 6637   7.777   2.372   1.254 -0.0737 -0.0974 -0.6493
   16CHTO   H78 6638   7.742   2.522   1.177 -2.1107 -0.0032 -1.0291
   16CHTO   C51 6639   7.491   2.438   1.379 -0.1222  0.4919  0.5826
   16CHTO   H93 6640   7.428   2.486   1.304 -0.7596 -3.6652 -1.7194
   16CHTO   O30 6641   7.450   2.470   1.515  0.2709  0.4827  0.3092
   16CHTO   C46 6642   7.453   2.626   1.554 -0.6091  0.0040  0.0875
   16CHTO   H88 6643   7.398   2.681   1.478  0.5042 -2.9363 -3.0015
   16CHTO   C53 6644   7.394   2.620   1.697  0.3923  0.5121  0.2853
   16CHTO   O72 6645   7.357   2.754   1.739 -0.5584  0.0856 -0.0032
   16CHTO  H199 6646   7.334   2.752   1.830 -0.8855 -0.8150 -0.1045
   16CHTO   O22 6647   7.471   2.293   1.362  0.1028 -0.1295  0.1230
   16CHTO   C31 6648   7.371   2.203   1.424 -0.1794  0.2030 -0.3553
   16CHTO   H59 6649   7.345   2.246   1.523  4.0653 -0.1661  1.0318
   16CHTO   C29 6650   7.241   2.190   1.342 -0.2496  1.0742 -0.7668
   16CHTO   H57 6651   7.274   2.164   1.241  1.3844  2.0864 -0.5251
   16CHTO   O21 6652   7.175   2.313   1.342 -0.6435 -0.0814  0.5522
   16CHTO   H37 6653   7.220   2.379   1.294  0.6735 -0.5349  1.1275
   16CHTO   C27 6654   7.142   2.081   1.395  0.2573  0.2331 -0.3532
   16CHTO   H55 6655   7.095   2.109   1.490  0.2438 -1.4162  0.1365
   16CHTO    N5 6656   7.031   2.052   1.293 -0.2321  0.4502 -0.3655
   16CHTO   H43 6657   7.070   1.980   1.221 -0.2424  0.4031 -0.3237
   16CHTO   H44 6658   6.950   2.007   1.347 -0.0217 -0.7832 -1.0494
   16CHTO   C25 6659   7.211   1.954   1.448  0.2485 -0.9207  0.0860
   16CHTO   H53 6660   7.248   1.898   1.361  1.4823 -0.0369  0.0187
   16CHTO   O17 6661   7.328   1.992   1.538 -0.2622  0.1345  0.4054
   16CHTO   C32 6662   7.425   2.059   1.463 -0.1916  0.7765 -0.5733
   16CHTO   H60 6663   7.439   1.994   1.376 -2.4912  1.0503 -1.1760
   16CHTO   C36 6664   7.555   2.059   1.541  0.3565  0.2298  0.1638
   16CHTO   O25 6665   7.653   2.121   1.459  0.0563  0.0657 -0.4155
   16CHTO   H40 6666   7.709   2.177   1.510  2.0247  0.1864 -2.6140
   16CHTO   O15 6667   7.113   1.870   1.529 -0.0803  0.5155 -0.1096
   16CHTO   C19 6668   7.015   1.855   1.635 -0.2110 -1.3946 -0.6438
   16CHTO   H47 6669   7.029   1.755   1.677 -1.6266 -0.8973  1.0519
   16CHTO   C20 6670   7.025   1.956   1.757 -0.4056 -0.5545 -0.8637
   16CHTO   H48 6671   6.999   2.059   1.731 -0.0258  0.3818  2.3111
   16CHTO   O19 6672   7.159   1.942   1.810  0.2726 -0.0289  0.4607
   16CHTO   H35 6673   7.195   2.011   1.863 -1.5923  0.7165  0.7905
   16CHTO   C21 6674   6.915   1.919   1.869  0.3224 -0.9180  0.2305
   16CHTO   H49 6675   6.947   1.828   1.920 -0.3627 -2.0618 -1.3366
   16CHTO    N4 6676   6.917   2.021   1.981 -0.1405  0.3808 -0.6243
   16CHTO   H41 6677   6.859   2.108   1.955  0.4277  0.8681 -0.2509
   16CHTO   H42 6678   7.017   2.048   2.010 -0.6727  1.5390  0.1671
   16CHTO   C22 6679   6.779   1.910   1.794 -0.1180 -0.0883 -0.2179
   16CHTO   H50 6680   6.752   2.007   1.753  0.5236  0.4551  0.6156
   16CHTO   O14 6681   6.785   1.816   1.684  0.5211 -0.5143  0.1151
   16CHTO   C23 6682   6.873   1.850   1.573 -0.0643  0.1126 -0.4826
   16CHTO   H51 6683   6.841   1.946   1.530  1.1534  1.1066  0.8105
   16CHTO   C34 6684   6.870   1.740   1.464 -0.6556  0.3344 -0.2088
   16CHTO   O23 6685   6.729   1.702   1.430  0.3017  0.0618  0.0556
   16CHTO   H38 6686   6.732   1.664   1.344 -2.7176  0.7500 -0.4216
   16CHTO   O16 6687   6.678   1.864   1.881  0.1488 -0.3059  0.4515
   16CHTO   C24 6688   6.536   1.907   1.834  0.0899  0.1843  0.2635
   16CHTO   H52 6689   6.536   1.951   1.734  1.3283  0.3491  0.3174
   16CHTO   C26 6690   6.476   2.019   1.919 -0.0523 -0.8086 -0.2304
   16CHTO   H54 6691   6.473   1.990   2.026  0.0657 -0.4942 -0.1413
   16CHTO   O20 6692   6.569   2.129   1.909  0.0752 -0.0746 -0.3590
   16CHTO   H36 6693   6.541   2.196   1.969  0.4759  1.3278 -1.7240
   16CHTO   C30 6694   6.340   2.071   1.870  0.4785 -0.3011 -0.3336
   16CHTO   H58 6695   6.359   2.124   1.776 -1.0672 -0.7623 -0.9332
   16CHTO    N6 6696   6.282   2.169   1.967  0.5060 -0.5317  0.0421
   16CHTO   H45 6697   6.299   2.134   2.068 -0.6588 -0.7314  0.1774
   16CHTO   H46 6698   6.176   2.177   1.951  0.5903 -0.0723 -0.2997
   16CHTO   C33 6699   6.240   1.957   1.835  0.2567 -0.2221 -0.0484
   16CHTO   H61 6700   6.189   1.926   1.928  0.1806 -2.4557 -0.8016
   16CHTO   O18 6701   6.303   1.841   1.771 -0.5061  0.5707 -0.3309
   16CHTO   C28 6702   6.423   1.789   1.832  0.2531  0.1670  0.4125
   16CHTO   H56 6703   6.404   1.760   1.935 -0.7279  1.0202  0.4846
   16CHTO   C35 6704   6.468   1.661   1.756 -0.0019 -0.3727  0.6385
   16CHTO   O24 6705   6.561   1.583   1.838 -0.1610  0.1322  0.1701
   16CHTO   H39 6706   6.553   1.497   1.801 -2.1907  0.4181 -0.0705
   16CHTO    O9 6707   6.136   2.011   1.755  0.4057  0.3067 -0.5488
   16CHTO   C13 6708   6.014   1.925   1.703 -0.0704 -0.6033 -0.1886
   16CHTO   H26 6709   6.048   1.822   1.682 -1.8414 -1.2800  0.1354
   16CHTO   C11 6710   5.969   1.995   1.570  0.3742  0.1104  0.7123
   16CHTO   H24 6711   6.050   1.995   1.495  1.4239 -0.6565  1.8228
   16CHTO    O8 6712   5.943   2.137   1.584  0.1914 -0.2010  0.0449
   16CHTO    H3 6713   5.874   2.159   1.643  0.2737  1.9420 -0.6370
   16CHTO    C9 6714   5.849   1.906   1.521  0.1555 -0.2849 -0.0951
   16CHTO   H22 6715   5.891   1.806   1.504  2.0674  0.6802 -1.1515
   16CHTO    N2 6716   5.803   1.934   1.381  0.3571  0.4569 -0.0168
   16CHTO   H10 6717   5.855   2.017   1.335  1.1206 -0.3136 -0.5718
   16CHTO   H11 6718   5.697   1.953   1.379  0.5907  1.7114 -0.8819
   16CHTO    C7 6719   5.736   1.910   1.631 -0.8428  0.6289 -0.3120
   16CHTO   H20 6720   5.667   1.834   1.590 -0.6852  0.9476 -1.1793
   16CHTO    O4 6721   5.773   1.872   1.765  0.0913  0.5227 -0.1883
   16CHTO   C14 6722   5.903   1.914   1.815 -0.6269 -0.2248 -0.2744
   16CHTO   H27 6723   5.930   1.826   1.877 -3.3873 -0.4828  0.6234
   16CHTO   C18 6724   5.891   2.038   1.910 -0.1971  0.6316 -0.6524
   16CHTO   O13 6725   5.813   2.013   2.027  0.1604 -0.3815  0.1387
   16CHTO    H7 6726   5.813   1.923   2.054  2.8123 -0.4496  0.0494
   16CHTO    O2 6727   5.662   2.045   1.642 -0.4667 -0.1829 -0.5970
   16CHTO    C1 6728   5.520   2.023   1.668  0.1165  0.3723  0.9240
   16CHTO   H14 6729   5.487   2.125   1.694 -2.2759 -0.2919  0.6127
   16CHTO    C2 6730   5.471   1.925   1.787 -0.3626 -0.3990  0.4995
   16CHTO   H15 6731   5.522   1.831   1.765 -1.1706 -0.2642 -2.1224
   16CHTO    O6 6732   5.507   1.990   1.914  0.3216 -0.5610 -0.0946
   16CHTO    H1 6733   5.466   2.074   1.922  0.0035 -0.7809  0.5876
   16CHTO    C3 6734   5.318   1.881   1.788 -0.3596  0.4129  0.8505
   16CHTO   H16 6735   5.257   1.969   1.816  1.2462  1.9977 -0.5123
   16CHTO    N1 6736   5.289   1.773   1.886  0.0662 -0.0649 -0.7685
   16CHTO    H8 6737   5.383   1.725   1.908 -0.6347 -1.0053  0.2394
   16CHTO    H9 6738   5.211   1.702   1.862 -0.3715 -0.0282  0.5007
   16CHTO    C4 6739   5.275   1.853   1.645 -0.0514 -0.3096  0.1130
   16CHTO   H17 6740   5.295   1.750   1.614 -2.3197 -0.1386 -2.1212
   16CHTO    O1 6741   5.309   1.958   1.556  0.2726 -0.5367 -0.1291
   16CHTO    C5 6742   5.447   1.986   1.537  0.6734 -1.0555  0.1057
   16CHTO   H18 6743   5.497   1.899   1.494  0.5607  0.1414 -2.4713
   16CHTO   C16 6744   5.441   2.095   1.431 -0.0644 -0.4915  0.3703
   16CHTO   O11 6745   5.373   2.208   1.466 -0.1112 -0.0079  0.1550
   16CHTO    H5 6746   5.421   2.285   1.442  0.8453 -1.2061 -1.9237
   16CHTO    O3 6747   5.132   1.863   1.641  0.3570 -0.5436 -0.0220
   16CHTO    C6 6748   5.068   1.773   1.538  0.0547  0.1252  0.0474
   16CHTO   H19 6749   5.142   1.746   1.463 -0.2991 -0.2400 -0.1724
   16CHTO    C8 6750   4.997   1.644   1.613 -0.8372 -0.1638  0.0378
   16CHTO   H21 6751   4.932   1.681   1.692  0.0602 -1.4951  1.4330
   16CHTO    O7 6752   5.105   1.566   1.672 -0.5276 -0.1057 -0.0001
   16CHTO    H2 6753   5.179   1.544   1.619 -0.5932 -0.8897  0.2285
   16CHTO   C12 6754   4.927   1.559   1.504 -0.5086 -0.0920  0.3874
   16CHTO   H25 6755   5.011   1.542   1.432 -1.5689 -0.6383 -0.7424
   16CHTO    N3 6756   4.867   1.428   1.561  0.1802 -0.6524  0.7381
   16CHTO   H12 6757   4.878   1.342   1.497  2.1635 -0.3049  0.5744
   16CHTO   H13 6758   4.899   1.408   1.662 -1.4387  0.6751  1.5596
   16CHTO   C15 6759   4.822   1.656   1.428  0.2533  0.1400  0.2122
   16CHTO   H28 6760   4.742   1.683   1.497  0.6213 -2.2856  1.6282
   16CHTO   O10 6761   4.758   1.586   1.305  0.0271  0.4695 -0.3508
   16CHTO    H4 6762   4.691   1.641   1.268 -0.0603  0.7766  0.2538
   16CHTO    O5 6763   4.890   1.770   1.371  0.6940 -0.3691  0.6118
   16CHTO   C10 6764   4.962   1.851   1.463  0.0115  0.7037  0.3170
   16CHTO   H23 6765   4.902   1.882   1.549  0.0194 -1.7363  1.2397
   16CHTO   C17 6766   5.020   1.968   1.383 -0.0225 -0.6558  0.1561
   16CHTO   O12 6767   4.928   2.058   1.329  0.7866 -0.1841 -0.1479
   16CHTO    H6 6768   4.907   2.121   1.395 -2.2642 -1.3654  0.0664
   17CHTO  H203 6769   5.734   4.345   0.640 -0.4081  0.7386 -0.8285
   17CHTO   O82 6770   5.796   4.411   0.618  0.5501  0.0923 -0.1275
   17CHTO  C123 6771   5.726   4.536   0.614 -0.5648  0.0340  0.3757
   17CHTO  H227 6772   5.643   4.531   0.686 -1.7741 -1.1366 -1.0566
   17CHTO   O77 6773   5.821   4.638   0.650  0.8044  0.1052  0.3837
   17CHTO  C118 6774   5.761   4.758   0.666  0.1645 -0.0557 -0.0316
   17CHTO  H222 6775   5.681   4.735   0.738  0.7082  0.7892  0.8610
   17CHTO  C125 6776   5.867   4.848   0.736 -0.3071 -0.7902  0.0645
   17CHTO   O84 6777   5.794   4.958   0.806  0.9333  0.0697  0.5116
   17CHTO  H205 6778   5.844   5.036   0.819 -0.0567  1.1146 -1.5592
   17CHTO  C114 6779   5.698   4.812   0.536 -0.0781  0.3224  0.1370
   17CHTO  H218 6780   5.780   4.825   0.465  0.8907  1.0548  1.3824
   17CHTO  C116 6781   5.606   4.705   0.465  0.0337  0.0057 -0.4777
   17CHTO  H220 6782   5.514   4.700   0.527  0.4369 -0.4727  0.0908
   17CHTO   O79 6783   5.580   4.744   0.331 -0.3816 -0.5272  0.1625
   17CHTO  H201 6784   5.655   4.783   0.290  0.5404 -2.2613  0.1322
   17CHTO  C120 6785   5.664   4.557   0.473  0.3072 -0.0556  0.2493
   17CHTO  H224 6786   5.739   4.543   0.393  0.2039  1.5013 -0.1479
   17CHTO   N21 6787   5.555   4.461   0.444 -0.4092  0.3042  0.9851
   17CHTO  H211 6788   5.571   4.366   0.493 -2.1304  0.0602  1.0854
   17CHTO  H212 6789   5.540   4.447   0.338  0.2538  0.1676  0.9052
   17CHTO   O75 6790   5.637   4.940   0.564  0.8848  0.4846  0.0120
   17CHTO  C112 6791   5.669   5.053   0.454 -0.0392  0.0221  0.1526
   17CHTO  H216 6792   5.660   5.003   0.356  0.2912 -0.0193  0.1414
   17CHTO   O73 6793   5.805   5.093   0.480 -0.3258 -0.1444  0.5029
   17CHTO  C113 6794   5.854   5.189   0.383  0.1282 -0.4833  0.0478
   17CHTO  H217 6795   5.844   5.155   0.278 -1.5723 -3.6514  1.1862
   17CHTO  C124 6796   6.003   5.203   0.411  1.0107  0.5343  1.3332
   17CHTO   O83 6797   6.027   5.231   0.552 -0.1082  0.0289 -0.2637
   17CHTO  H204 6798   6.118   5.213   0.570  0.2620  3.3567  1.4395
   17CHTO  C109 6799   5.776   5.323   0.389  0.2237 -0.2624  0.0145
   17CHTO  H213 6800   5.797   5.358   0.491  0.4184 -1.1450  0.2850
   17CHTO  C110 6801   5.622   5.292   0.367  0.1469 -0.3297 -0.1894
   17CHTO  H214 6802   5.626   5.264   0.262 -1.3369 -1.1543 -0.0323
   17CHTO   O78 6803   5.560   5.426   0.381  0.4845  0.0457 -0.4235
   17CHTO  H200 6804   5.584   5.470   0.460 -1.6591 -0.0557  0.3229
   17CHTO  C111 6805   5.567   5.175   0.458 -0.3420 -0.1210  0.5984
   17CHTO  H215 6806   5.571   5.215   0.560  2.1194  0.6893  0.2286
   17CHTO   N19 6807   5.429   5.132   0.418  0.3915 -0.1334 -0.5413
   17CHTO  H207 6808   5.379   5.067   0.488  0.7317 -0.1152 -0.2800
   17CHTO  H208 6809   5.371   5.198   0.355  1.8050  0.2525 -1.4571
   17CHTO   O74 6810   5.826   5.421   0.281 -0.1809  0.2035 -0.2980
   17CHTO  C115 6811   5.899   5.558   0.339  0.2955 -0.2334 -0.2336
   17CHTO  H219 6812   5.882   5.569   0.446 -0.5427 -0.4959 -0.3374
   17CHTO   O76 6813   6.053   5.551   0.319  0.3251  0.3929 -0.2623
   17CHTO  C122 6814   6.137   5.660   0.355 -0.2674 -0.3621  0.2329
   17CHTO  H226 6815   6.233   5.631   0.312  0.3063 -0.1569  1.3696
   17CHTO  C126 6816   6.159   5.667   0.509  0.0996  0.9188 -0.0420
   17CHTO   O85 6817   6.180   5.539   0.571  0.3024  0.0626 -0.5050
   17CHTO  H206 6818   6.208   5.474   0.510 -1.2802 -0.4379 -0.7314
   17CHTO  C121 6819   6.082   5.798   0.299 -0.5348  0.6093  0.1564
   17CHTO  H225 6820   6.131   5.874   0.363 -1.5224  0.8717  0.6170
   17CHTO   O81 6821   6.127   5.824   0.171  0.7690  0.1273 -0.1491
   17CHTO  H202 6822   6.074   5.784   0.105  2.4426 -1.4131 -0.5718
   17CHTO  C119 6823   5.928   5.820   0.312  0.3104  0.1211 -0.0855
   17CHTO  H223 6824   5.895   5.826   0.415  0.2192 -1.5777 -0.0083
   17CHTO  C117 6825   5.852   5.689   0.259 -0.1884 -0.6910 -0.6399
   17CHTO  H221 6826   5.863   5.678   0.151  1.0390  0.3545 -0.6304
   17CHTO   N20 6827   5.705   5.707   0.284  0.8008 -0.7469  0.5844
   17CHTO  H209 6828   5.642   5.632   0.238 -1.6097  1.6515 -0.1212
   17CHTO  H210 6829   5.667   5.804   0.258 -0.8957 -1.5012  0.1856
   17CHTO   O80 6830   5.884   5.971   0.256 -0.0371  0.2174  0.7352
   17CHTO  C103 6831   5.917   6.105   0.338 -0.3668 -0.0442  0.2673
   17CHTO  H190 6832   5.937   6.089   0.444 -3.3558 -1.3907  0.6857
   17CHTO  C101 6833   6.039   6.197   0.285 -0.3303 -0.5144 -0.1518
   17CHTO  H188 6834   6.024   6.204   0.177  0.6157 -0.6314 -0.2947
   17CHTO   O68 6835   6.175   6.113   0.304  0.0275 -0.4055 -0.0798
   17CHTO  H168 6836   6.250   6.169   0.289 -2.1537  2.0716 -2.1199
   17CHTO   C99 6837   6.038   6.332   0.373  0.6963 -1.0129 -0.3730
   17CHTO  H186 6838   6.061   6.315   0.481 -1.9617  1.2474  0.6430
   17CHTO   N17 6839   6.127   6.441   0.320  0.0960  0.7126  0.1733
   17CHTO  H174 6840   6.135   6.522   0.391  1.9103  0.3515  0.3909
   17CHTO  H175 6841   6.223   6.398   0.298 -1.2176 -1.4629 -1.4970
   17CHTO   C97 6842   5.892   6.382   0.380 -0.5455  0.5798 -0.0063
   17CHTO  H184 6843   5.866   6.422   0.281 -1.8082 -1.1425 -0.3872
   17CHTO   O64 6844   5.799   6.284   0.425  0.2555  0.2297 -0.1713
   17CHTO  C104 6845   5.783   6.183   0.328  0.4311 -0.2724 -0.1646
   17CHTO  H191 6846   5.775   6.212   0.223  1.7011  0.4746 -0.0630
   17CHTO  C108 6847   5.652   6.106   0.364  0.7139  0.1369  0.1273
   17CHTO   O71 6848   5.534   6.189   0.355 -0.2326 -0.1897  0.2448
   17CHTO  H171 6849   5.482   6.168   0.280 -2.8890 -1.0910  2.2493
   17CHTO   O62 6850   5.875   6.482   0.483 -0.4358  0.4974 -0.1201
   17CHTO   C91 6851   5.788   6.593   0.462 -0.1482  0.2152 -0.3166
   17CHTO  H178 6852   5.705   6.553   0.404  0.0341 -1.6001  0.6319
   17CHTO   C92 6853   5.850   6.707   0.376  0.3789  0.9510 -0.1262
   17CHTO  H179 6854   5.924   6.657   0.311 -1.3446 -0.6861 -0.8777
   17CHTO   O66 6855   5.747   6.770   0.296 -0.1340 -0.1042  0.1556
   17CHTO  H166 6856   5.691   6.830   0.342 -0.0020  0.5058 -0.4540
   17CHTO   C93 6857   5.927   6.817   0.465 -0.0633  0.7633  0.3073
   17CHTO  H180 6858   5.962   6.900   0.402 -1.0361 -0.3350 -1.7243
   17CHTO   N16 6859   6.055   6.796   0.534  0.0706 -0.6669  0.3496
   17CHTO  H172 6860   6.042   6.713   0.603 -0.4615 -0.1320  0.8920
   17CHTO  H173 6861   6.139   6.771   0.470  0.7112 -1.0920  1.3383
   17CHTO   C94 6862   5.818   6.876   0.563 -0.0660  0.2643 -0.1432
   17CHTO  H181 6863   5.860   6.906   0.659  1.5191 -0.4632 -0.6002
   17CHTO   O61 6864   5.694   6.801   0.582 -0.1727 -0.3996  0.2437
   17CHTO   C95 6865   5.720   6.658   0.588  0.1704  0.5317  0.3366
   17CHTO  H182 6866   5.780   6.639   0.678  0.2088  2.0908  0.6550
   17CHTO  C106 6867   5.584   6.591   0.629  0.4150 -0.2126  0.0879
   17CHTO   O69 6868   5.590   6.451   0.646  0.2933  0.5020  0.3427
   17CHTO  H169 6869   5.533   6.404   0.589 -0.1023 -0.6099  1.6388
   17CHTO   O63 6870   5.784   7.009   0.490  0.0418 -0.3687  0.4973
   17CHTO   C96 6871   5.789   7.122   0.572 -0.3825 -0.3568  0.9318
   17CHTO  H183 6872   5.757   7.094   0.672 -0.8936  0.2585  0.9446
   17CHTO   C98 6873   5.679   7.234   0.531 -0.2689 -0.3749 -0.2688
   17CHTO  H185 6874   5.695   7.268   0.428 -0.7437 -1.5975 -0.7519
   17CHTO   O67 6875   5.547   7.175   0.524 -0.5998  0.0851 -0.7581
   17CHTO  H167 6876   5.540   7.090   0.485 -0.3900 -0.7708  1.0122
   17CHTO  C102 6877   5.680   7.357   0.630 -0.0422  0.0793 -0.4892
   17CHTO  H189 6878   5.636   7.324   0.725  1.7545  2.5466  1.2590
   17CHTO   N18 6879   5.600   7.478   0.589  0.6286  0.2132 -0.3393
   17CHTO  H176 6880   5.626   7.556   0.659 -0.1722  0.0896  0.1015
   17CHTO  H177 6881   5.629   7.521   0.494 -1.3113 -0.3578 -1.2081
   17CHTO  C105 6882   5.824   7.399   0.656  0.0016  0.0165 -0.1918
   17CHTO  H192 6883   5.834   7.506   0.642 -3.8477  0.3697 -0.5885
   17CHTO   O65 6884   5.933   7.339   0.583 -0.4186 -0.0739 -0.4903
   17CHTO  C100 6885   5.936   7.192   0.571 -0.0540 -1.2425  0.3500
   17CHTO  H187 6886   5.989   7.164   0.478 -2.1114 -0.8859 -0.9565
   17CHTO  C107 6887   6.019   7.127   0.680  0.0099 -0.0259  0.3323
   17CHTO   O70 6888   6.149   7.170   0.696  0.5966 -0.4855 -0.3503
   17CHTO  H170 6889   6.145   7.259   0.668 -0.5942 -0.0326  1.1866
   17CHTO   O57 6890   5.841   7.367   0.799 -0.1173 -0.1275 -0.0102
   17CHTO   C85 6891   5.863   7.451   0.915 -0.3824  0.6062  0.3793
   17CHTO  H157 6892   5.781   7.527   0.912 -1.9592 -1.1275 -2.0268
   17CHTO   C83 6893   6.003   7.513   0.889  0.8174 -0.3066 -0.1240
   17CHTO  H155 6894   6.005   7.560   0.790 -2.1406 -1.3417 -0.7269
   17CHTO   O56 6895   6.095   7.405   0.882  0.2291  0.5637 -0.6881
   17CHTO  H135 6896   6.084   7.339   0.948  0.9557  1.7813  0.6617
   17CHTO   C81 6897   6.027   7.622   0.998 -0.4059 -1.0995  0.0201
   17CHTO  H153 6898   5.946   7.694   0.990 -0.6382 -1.2457  1.0025
   17CHTO   N14 6899   6.150   7.705   0.972  0.3249 -0.4488  0.4816
   17CHTO  H141 6900   6.146   7.794   1.031  0.2541 -0.7586  0.9505
   17CHTO  H142 6901   6.239   7.648   0.987  1.3591  0.6898 -1.2664
   17CHTO   C79 6902   6.027   7.547   1.141 -0.1349  0.5375 -0.3293
   17CHTO  H151 6903   6.034   7.626   1.216  0.8597 -2.5788  2.9968
   17CHTO   O52 6904   5.901   7.474   1.164 -0.2015  0.2611  0.1652
   17CHTO   C86 6905   5.872   7.377   1.057 -0.1156  0.4266  0.6037
   17CHTO  H158 6906   5.956   7.304   1.062  0.2075  0.7711  0.1660
   17CHTO   C90 6907   5.742   7.302   1.085 -0.0841 -0.6167  0.2503
   17CHTO   O60 6908   5.628   7.387   1.069  0.2370  0.1931 -0.2857
   17CHTO  H138 6909   5.645   7.473   1.103  0.9288  0.4811 -1.3405
   17CHTO   O50 6910   6.139   7.460   1.162  0.0696 -0.0307 -0.3914
   17CHTO   C73 6911   6.231   7.397   1.259 -0.6231 -0.3010  0.2093
   17CHTO  H145 6912   6.286   7.475   1.313 -2.4174  1.0064  0.2055
   17CHTO   C74 6913   6.332   7.304   1.178  0.7267 -0.0759 -0.2541
   17CHTO  H146 6914   6.384   7.371   1.107  0.2172 -0.2947 -0.8389
   17CHTO   O54 6915   6.436   7.259   1.263  0.2803  0.1122  0.5498
   17CHTO  H133 6916   6.460   7.323   1.328 -1.4666 -0.9831  2.3391
   17CHTO   C75 6917   6.254   7.183   1.105  1.1485  0.6038 -0.1924
   17CHTO  H147 6918   6.186   7.219   1.026  1.9757  1.0667 -0.7001
   17CHTO   N13 6919   6.338   7.090   1.029 -0.3027 -0.0101  0.2564
   17CHTO  H139 6920   6.340   6.987   1.059  2.4940 -0.6471 -1.9540
   17CHTO  H140 6921   6.435   7.135   1.011  0.5262 -1.7655  0.2902
   17CHTO   C76 6922   6.162   7.109   1.212 -0.7973  0.4577  0.2010
   17CHTO  H148 6923   6.235   7.060   1.276  1.7140 -1.0115 -3.5458
   17CHTO   O49 6924   6.082   7.196   1.286 -0.3254 -0.7287  0.2794
   17CHTO   C77 6925   6.152   7.302   1.359  0.2026  0.2331  0.0672
   17CHTO  H149 6926   6.220   7.249   1.426 -0.8817 -2.0186 -0.5575
   17CHTO   C88 6927   6.055   7.392   1.442  0.3185 -0.0493 -0.1363
   17CHTO   O58 6928   6.133   7.451   1.556  0.3810 -0.3414 -0.7207
   17CHTO  H136 6929   6.119   7.544   1.550 -2.9978 -0.9022 -2.8294
   17CHTO   O51 6930   6.074   6.990   1.139  0.2017 -0.8585 -0.1897
   17CHTO   C78 6931   5.966   6.917   1.248  0.3361 -0.0552 -0.3161
   17CHTO  H150 6932   5.895   6.989   1.294 -0.6083 -0.0939 -1.6780
   17CHTO   C80 6933   6.038   6.835   1.362 -0.0469 -0.1156  0.1589
   17CHTO  H152 6934   6.130   6.791   1.318  0.1072  0.3847 -0.0247
   17CHTO   O55 6935   6.081   6.928   1.460  0.0835  0.4237  0.3041
   17CHTO  H134 6936   6.022   6.948   1.530  0.3157  2.6504 -0.1313
   17CHTO   C84 6937   5.930   6.734   1.427  0.1155 -0.2830 -0.1418
   17CHTO  H156 6938   5.846   6.786   1.472 -1.9786 -2.1401 -1.8280
   17CHTO   N15 6939   5.996   6.655   1.535 -0.3224 -0.4490 -0.5393
   17CHTO  H143 6940   5.915   6.611   1.590  0.1477 -2.2914 -1.2844
   17CHTO  H144 6941   6.059   6.710   1.602 -0.5953  0.6644 -1.1857
   17CHTO   C87 6942   5.870   6.647   1.317  0.5324 -0.4776  0.1657
   17CHTO  H159 6943   5.944   6.582   1.270  0.7835  0.1173 -0.2711
   17CHTO   O53 6944   5.800   6.758   1.205  0.5851 -0.0595  0.7384
   17CHTO   C82 6945   5.896   6.839   1.138 -0.5768 -0.2054  0.4125
   17CHTO  H154 6946   5.963   6.773   1.083 -0.5689 -1.2626  1.6769
   17CHTO   C89 6947   5.825   6.921   1.035  0.2917 -0.6578  0.4896
   17CHTO   O59 6948   5.770   6.844   0.926  0.0365  0.5229 -0.8450
   17CHTO  H137 6949   5.689   6.805   0.953  0.0588  0.6191 -0.6350
   17CHTO   O45 6950   5.737   6.550   1.377 -0.3623 -0.1488 -0.0763
   17CHTO   C67 6951   5.650   6.467   1.297 -0.8715 -0.3621 -0.0308
   17CHTO  H124 6952   5.612   6.387   1.361  0.3541  0.0881  1.2876
   17CHTO   C65 6953   5.529   6.548   1.242  0.1748 -0.2414  0.1971
   17CHTO  H122 6954   5.569   6.646   1.216 -1.8701  0.3089 -1.0101
   17CHTO   O44 6955   5.450   6.570   1.354 -0.4613 -0.1246  0.2941
   17CHTO  H102 6956   5.416   6.492   1.393 -1.5226  0.4431  0.5223
   17CHTO   C63 6957   5.460   6.492   1.110  0.2749 -0.5665 -0.0064
   17CHTO  H120 6958   5.514   6.525   1.022  0.6015 -1.4921 -0.1554
   17CHTO   N11 6959   5.323   6.541   1.072  1.3360 -0.9332  0.3241
   17CHTO  H108 6960   5.257   6.472   1.121 -0.5984  1.0806  0.6110
   17CHTO  H109 6961   5.298   6.515   0.971 -2.0455 -0.5137  0.9853
   17CHTO   C61 6962   5.477   6.336   1.095 -0.5117 -0.0497 -0.4050
   17CHTO  H118 6963   5.453   6.318   0.989  0.1318 -0.1498 -0.5380
   17CHTO   O40 6964   5.615   6.288   1.111  1.0350 -0.1528  0.0724
   17CHTO   C68 6965   5.717   6.384   1.176  0.4406 -0.5154  0.0897
   17CHTO  H125 6966   5.760   6.454   1.102  1.4659 -0.9195  0.3043
   17CHTO   C72 6967   5.827   6.300   1.225 -0.6448  0.4223  0.1705
   17CHTO   O48 6968   5.790   6.213   1.329  0.4121  0.0471 -0.3204
   17CHTO  H105 6969   5.857   6.159   1.367 -1.4764 -0.7931  2.0070
   17CHTO   O38 6970   5.395   6.265   1.190 -0.1506  0.2740 -0.1445
   17CHTO   C55 6971   5.267   6.196   1.184 -1.5154 -0.0798  0.0496
   17CHTO  H112 6972   5.255   6.118   1.260  3.6825  1.8739  3.1692
   17CHTO   C56 6973   5.239   6.145   1.038  0.5838 -0.8393 -0.0106
   17CHTO  H113 6974   5.230   6.230   0.968 -0.7043 -0.0047  1.1488
   17CHTO   O42 6975   5.353   6.068   0.998 -0.0324 -0.1473  0.5958
   17CHTO  H100 6976   5.374   6.010   1.068 -3.3463 -0.5925  1.2639
   17CHTO   C57 6977   5.110   6.054   1.037 -0.9582  0.6540 -0.0351
   17CHTO  H114 6978   5.137   5.971   1.102 -0.6800  3.1565  3.2392
   17CHTO   N10 6979   5.068   5.987   0.908  0.4251  0.2646  0.1652
   17CHTO  H106 6980   5.110   5.888   0.896  1.8910  0.5595  2.5811
   17CHTO  H107 6981   5.094   6.053   0.826  1.2791  1.0598  1.0528
   17CHTO   C58 6982   4.988   6.127   1.103 -0.6791  0.5853 -0.6311
   17CHTO  H115 6983   4.959   6.208   1.032 -1.6978  0.0015 -0.8914
   17CHTO   O37 6984   5.026   6.190   1.231 -0.2661 -1.1321 -0.7049
   17CHTO   C59 6985   5.148   6.276   1.228  0.7774 -0.4266 -0.1703
   17CHTO  H116 6986   5.136   6.364   1.166  2.8154 -0.2641 -0.3646
   17CHTO   C70 6987   5.168   6.334   1.370  0.5280 -0.2530 -0.5822
   17CHTO   O46 6988   5.167   6.235   1.479 -0.4524 -0.4381  0.2939
   17CHTO  H103 6989   5.247   6.237   1.528  0.6922 -1.3775 -1.4686
   17CHTO   O39 6990   4.869   6.039   1.139  0.4750  0.4210 -0.0432
   17CHTO   C60 6991   4.749   6.116   1.183 -0.0477 -0.7983  0.5265
   17CHTO  H117 6992   4.780   6.207   1.235 -0.2109  0.0898 -0.9039
   17CHTO   C62 6993   4.675   6.173   1.066  0.4023 -0.0288  0.2236
   17CHTO  H119 6994   4.752   6.212   0.997 -0.8930  0.6248 -0.8653
   17CHTO   O43 6995   4.615   6.070   0.994 -0.3503 -0.1452  0.0457
   17CHTO  H101 6996   4.561   6.014   1.046 -0.3406 -1.8093 -1.6961
   17CHTO   C66 6997   4.579   6.286   1.115 -0.3878 -0.6321  0.0873
   17CHTO  H123 6998   4.620   6.355   1.189 -3.0933  0.0798  0.9794
   17CHTO   N12 6999   4.541   6.374   1.004 -0.4501  0.0588  0.6588
   17CHTO  H110 7000   4.638   6.403   0.966 -1.4412  0.1090 -1.9528
   17CHTO  H111 7001   4.482   6.460   1.031  1.5622  1.7812 -0.3123
   17CHTO   C69 7002   4.457   6.227   1.189 -0.6102 -0.1914  0.3335
   17CHTO  H126 7003   4.399   6.174   1.110  1.4889  2.5160 -3.1715
   17CHTO   O41 7004   4.506   6.121   1.313 -0.5900 -0.1002 -0.4012
   17CHTO   C64 7005   4.653   6.032   1.279  0.1134 -1.0180  0.3458
   17CHTO  H121 7006   4.620   5.934   1.237  1.6377 -1.0800 -0.7292
   17CHTO   C71 7007   4.725   5.997   1.411 -0.0680 -0.3325 -0.2273
   17CHTO   O47 7008   4.824   5.899   1.387  0.3637  0.0879 -0.0781
   17CHTO  H104 7009   4.819   5.845   1.464  2.1359  1.0549  0.7356
   17CHTO   O34 7010   4.371   6.360   1.251  0.2955  0.1339  0.0300
   17CHTO   C49 7011   4.252   6.457   1.197  0.3629 -0.2791 -0.5891
   17CHTO   H91 7012   4.303   6.550   1.175  2.2900 -1.2586 -0.3624
   17CHTO   C47 7013   4.158   6.474   1.323  0.5122 -0.1420  0.9066
   17CHTO   H89 7014   4.098   6.561   1.291  0.9511 -0.9713 -2.3231
   17CHTO   O33 7015   4.233   6.510   1.440  0.7473 -0.0492 -0.0862
   17CHTO   H70 7016   4.281   6.587   1.416  0.6222  0.0474 -0.0289
   17CHTO   C45 7017   4.065   6.342   1.354 -0.2935  0.1014  0.0777
   17CHTO   H87 7018   4.106   6.296   1.445 -1.7013  1.4456  1.4247
   17CHTO    N8 7019   3.930   6.397   1.396  0.1107 -0.4489 -0.2740
   17CHTO   H75 7020   3.896   6.346   1.486  0.9206  1.7874  1.3309
   17CHTO   H76 7021   3.863   6.372   1.314 -1.0770 -0.7237  0.7608
   17CHTO   C43 7022   4.067   6.251   1.227 -0.9435  0.0246  0.7628
   17CHTO   H85 7023   4.161   6.196   1.218 -1.0241  0.0811 -0.5134
   17CHTO   O29 7024   4.044   6.333   1.105  0.5533 -0.0884  0.3267
   17CHTO   C50 7025   4.162   6.414   1.073 -0.0401 -0.0247  0.0160
   17CHTO   H92 7026   4.226   6.348   1.013  1.5128 -0.0590  1.6442
   17CHTO   C54 7027   4.126   6.534   0.986 -0.6468  0.3518 -0.6154
   17CHTO   O36 7028   4.034   6.622   1.044 -0.3844 -0.1050 -0.1789
   17CHTO   H72 7029   3.947   6.601   1.019 -0.9515  0.8571  0.9426
   17CHTO   O27 7030   3.974   6.143   1.248  0.0437  0.6768 -0.0356
   17CHTO   C37 7031   4.016   6.014   1.300 -0.0586  0.7832  0.4444
   17CHTO   H79 7032   4.111   6.021   1.354  0.9129  0.0072 -1.1143
   17CHTO   C38 7033   3.917   5.961   1.406  0.1633 -0.4148 -0.3752
   17CHTO   H80 7034   3.815   5.975   1.366  0.8002  1.1013 -1.5267
   17CHTO   O31 7035   3.939   6.057   1.509  0.1541  0.1908  0.3716
   17CHTO   H68 7036   3.913   6.141   1.478  0.9184  0.0953 -0.5443
   17CHTO   C39 7037   3.954   5.814   1.447 -0.6233  0.0246 -0.3467
   17CHTO   H81 7038   4.056   5.821   1.485 -0.6925  2.6492 -0.5600
   17CHTO    N7 7039   3.866   5.757   1.557 -0.2359 -0.3451  0.3511
   17CHTO   H73 7040   3.929   5.740   1.643 -2.4155  0.3776  2.1527
   17CHTO   H74 7041   3.779   5.820   1.572 -0.4298 -0.3801 -0.5556
   17CHTO   C40 7042   3.968   5.726   1.317  0.4334 -0.1962 -0.3846
   17CHTO   H82 7043   3.864   5.720   1.285  0.7961  0.8169 -1.8068
   17CHTO   O26 7044   4.048   5.781   1.214 -0.5118 -0.0453 -0.6509
   17CHTO   C41 7045   4.043   5.922   1.178  0.0618 -0.3189  0.3870
   17CHTO   H83 7046   3.965   5.934   1.101  1.1792 -1.7602 -1.0012
   17CHTO   C52 7047   4.174   5.955   1.109  0.0690  0.3113  0.3200
   17CHTO   O35 7048   4.298   5.923   1.200  0.4828 -0.8373 -0.3091
   17CHTO   H71 7049   4.364   5.900   1.137  1.1324  2.8909 -1.1108
   17CHTO   O28 7050   4.028   5.593   1.343  0.2784 -0.0543 -0.0302
   17CHTO   C42 7051   4.169   5.549   1.321  0.4394 -0.4391 -0.0787
   17CHTO   H84 7052   4.164   5.453   1.371 -2.1005 -1.8986 -2.9484
   17CHTO   C44 7053   4.282   5.629   1.391  0.1611  0.8677 -0.2645
   17CHTO   H86 7054   4.285   5.729   1.348  1.6325  0.3695 -1.3476
   17CHTO   O32 7055   4.248   5.626   1.531  0.6657 -0.2522 -0.1820
   17CHTO   H69 7056   4.164   5.668   1.541 -1.7537 -4.7415 -0.5911
   17CHTO   C48 7057   4.428   5.567   1.361 -0.0717 -0.0421 -0.0276
   17CHTO   H90 7058   4.443   5.466   1.398  0.1891 -0.1256 -0.3631
   17CHTO    N9 7059   4.534   5.655   1.421 -0.0282  0.4408 -0.4980
   17CHTO   H77 7060   4.480   5.736   1.466  0.0020 -0.5152  1.3173
   17CHTO   H78 7061   4.598   5.599   1.488  1.8133  0.9159 -1.8203
   17CHTO   C51 7062   4.446   5.568   1.202  0.4752  0.2255 -0.1658
   17CHTO   H93 7063   4.425   5.671   1.172  0.2650  0.5100  0.9366
   17CHTO   O30 7064   4.344   5.476   1.155 -0.3820 -0.6643  0.1979
   17CHTO   C46 7065   4.195   5.517   1.169 -0.3186 -0.2459  0.2396
   17CHTO   H88 7066   4.191   5.606   1.107 -0.1973 -0.1517  0.3685
   17CHTO   C53 7067   4.109   5.400   1.125 -0.2339 -0.0242  0.3165
   17CHTO   O72 7068   4.143   5.350   0.999 -0.1364 -0.2211  0.6283
   17CHTO  H199 7069   4.122   5.259   0.998 -1.7040  0.1165  1.1607
   17CHTO   O22 7070   4.574   5.517   1.148  0.6239  0.6289 -0.0189
   17CHTO   C31 7071   4.614   5.526   1.004 -0.0133 -0.3723  0.4836
   17CHTO   H59 7072   4.703   5.460   0.995 -0.6037 -0.9480 -1.4044
   17CHTO   C29 7073   4.511   5.486   0.898 -0.4905  0.1651 -0.6196
   17CHTO   H57 7074   4.435   5.564   0.892  1.7442  2.3438 -1.3916
   17CHTO   O21 7075   4.458   5.359   0.937  0.1952  0.1619  0.1187
   17CHTO   H37 7076   4.479   5.294   0.873 -2.4563 -0.7923  0.1649
   17CHTO   C27 7077   4.579   5.482   0.752  0.2093 -0.3967  0.2755
   17CHTO   H55 7078   4.665   5.413   0.760  2.5114  2.4716  1.5480
   17CHTO    N5 7079   4.489   5.434   0.645 -0.4759 -0.1704  0.1310
   17CHTO   H43 7080   4.391   5.478   0.646 -1.0053 -1.2358 -1.9824
   17CHTO   H44 7081   4.528   5.432   0.544 -1.9324 -0.2903 -0.4326
   17CHTO   C25 7082   4.621   5.631   0.728 -0.0882  0.3546  0.2605
   17CHTO   H53 7083   4.528   5.689   0.722 -0.8060 -0.7539  0.5430
   17CHTO   O17 7084   4.713   5.685   0.828  0.2814 -0.0271  0.0689
   17CHTO   C32 7085   4.668   5.669   0.964 -0.1808  0.0132 -0.2132
   17CHTO   H60 7086   4.596   5.746   0.991  0.1296  1.5257 -3.5212
   17CHTO   C36 7087   4.794   5.708   1.036  0.7494  0.3129 -0.0663
   17CHTO   O25 7088   4.903   5.626   1.006 -0.4410 -0.0630 -0.7720
   17CHTO   H40 7089   4.987   5.668   1.014  0.2972 -1.4613 -0.9217
   17CHTO   O15 7090   4.689   5.652   0.614 -0.2369  0.0123  0.5087
   17CHTO   C19 7091   4.758   5.769   0.563 -0.4742  0.2841 -0.0221
   17CHTO   H47 7092   4.790   5.729   0.465 -2.5526  0.7263 -0.9109
   17CHTO   C20 7093   4.656   5.885   0.530  0.0155  0.5080 -0.3205
   17CHTO   H48 7094   4.588   5.910   0.613 -2.0356  0.1818 -1.8708
   17CHTO   O19 7095   4.575   5.825   0.430  0.7256 -0.2464  0.1110
   17CHTO   H35 7096   4.622   5.806   0.352  0.8186  2.5954 -0.5784
   17CHTO   C21 7097   4.735   6.008   0.474  0.5626  0.3853  0.3056
   17CHTO   H49 7098   4.782   5.976   0.381  0.8741  0.7728  0.3291
   17CHTO    N4 7099   4.645   6.130   0.444  0.4945  0.1373 -0.0577
   17CHTO   H41 7100   4.711   6.210   0.411  0.2277  1.1946  1.8901
   17CHTO   H42 7101   4.568   6.119   0.369 -0.5707  1.5888  0.7876
   17CHTO   C22 7102   4.855   6.044   0.568  0.8294 -0.5066 -0.1658
   17CHTO   H50 7103   4.817   6.058   0.669 -0.8431 -1.6710 -0.6120
   17CHTO   O14 7104   4.940   5.923   0.571 -0.3206  0.1154 -0.3439
   17CHTO   C23 7105   4.885   5.813   0.631 -0.6460 -0.5647  0.4497
   17CHTO   H51 7106   4.878   5.824   0.741  1.4919  0.8040  0.4759
   17CHTO   C34 7107   5.005   5.717   0.629 -0.0752  0.0429 -0.3976
   17CHTO   O23 7108   4.984   5.575   0.657  0.1405 -0.4423  0.1150
   17CHTO   H38 7109   4.961   5.555   0.745  0.6473  0.3982  0.4429
   17CHTO   O16 7110   4.943   6.147   0.520 -0.2057 -0.8586 -0.0427
   17CHTO   C24 7111   4.979   6.256   0.644  0.0266  0.6068 -0.4062
   17CHTO   H52 7112   4.998   6.207   0.739 -0.8632 -0.6669 -0.8744
   17CHTO   C26 7113   4.868   6.355   0.666  0.8678  0.0471  0.4964
   17CHTO   H54 7114   4.847   6.413   0.574 -1.5490  1.0400  1.6107
   17CHTO   O20 7115   4.756   6.279   0.714  0.6816 -0.5712  0.2680
   17CHTO   H36 7116   4.692   6.335   0.753  1.6051 -0.4294  1.6208
   17CHTO   C30 7117   4.913   6.457   0.775  0.5195 -0.0578 -0.1871
   17CHTO   H58 7118   4.928   6.405   0.871  0.3137 -1.2802 -0.8068
   17CHTO    N6 7119   4.811   6.557   0.813 -0.5758 -0.0922  0.2010
   17CHTO   H45 7120   4.727   6.560   0.746  2.9109  1.7986 -4.3261
   17CHTO   H46 7121   4.780   6.538   0.915  0.0294  2.6357  0.9453
   17CHTO   C33 7122   5.048   6.523   0.728 -0.6322 -0.3638  0.4688
   17CHTO   H61 7123   5.043   6.582   0.636 -3.5625  1.5074  1.7669
   17CHTO   O18 7124   5.138   6.416   0.699  0.5292  0.2487  0.5516
   17CHTO   C28 7125   5.111   6.322   0.599 -0.4020  0.1594 -0.1805
   17CHTO   H56 7126   5.096   6.369   0.502 -1.5596 -0.5650 -0.3709
   17CHTO   C35 7127   5.236   6.230   0.584 -0.4215  0.0859  0.2077
   17CHTO   O24 7128   5.358   6.303   0.564  0.0089 -0.4832 -0.0872
   17CHTO   H39 7129   5.426   6.253   0.606  1.6251  0.4560 -1.5362
   17CHTO    O9 7130   5.104   6.613   0.826  0.0906 -0.4637 -0.0279
   17CHTO   C13 7131   5.200   6.750   0.735 -0.1074  0.3073 -0.0376
   17CHTO   H26 7132   5.262   6.706   0.654  0.9621  0.2307  0.8071
   17CHTO   C11 7133   5.289   6.839   0.838  0.1678 -0.1340 -0.0953
   17CHTO   H24 7134   5.378   6.781   0.867  0.3398 -1.4756 -3.1142
   17CHTO    O8 7135   5.209   6.877   0.947 -0.4288  0.1904 -0.0183
   17CHTO    H3 7136   5.251   6.947   0.994  0.8346 -1.2190  1.0289
   17CHTO    C9 7137   5.348   6.960   0.756 -0.1639  0.0573 -0.0487
   17CHTO   H22 7138   5.398   6.911   0.671 -0.3723 -2.5996  1.2797
   17CHTO    N2 7139   5.454   7.038   0.822  0.8883  0.0123  0.1693
   17CHTO   H10 7140   5.531   6.969   0.854 -0.3490 -1.7953 -0.6724
   17CHTO   H11 7141   5.417   7.096   0.905  2.1050  0.3235  0.4998
   17CHTO    C7 7142   5.236   7.051   0.699 -0.5115  0.8304  0.0335
   17CHTO   H20 7143   5.291   7.118   0.630  0.7604 -0.7446 -0.4950
   17CHTO    O4 7144   5.159   6.969   0.607  0.3488 -0.2969 -0.5492
   17CHTO   C14 7145   5.104   6.848   0.650  0.4674  0.3929 -0.2939
   17CHTO   H27 7146   5.071   6.789   0.562 -0.0827  0.7336 -0.3146
   17CHTO   C18 7147   4.978   6.880   0.736  0.3248 -0.3138 -0.0133
   17CHTO   O13 7148   4.887   6.977   0.675  0.1191 -0.2930  0.3862
   17CHTO    H7 7149   4.803   6.936   0.673  0.9402 -1.9464 -1.8944
   17CHTO    O2 7150   5.139   7.125   0.807 -0.3101 -0.4464  0.1460
   17CHTO    C1 7151   5.118   7.269   0.795 -0.0905  0.3400 -0.3708
   17CHTO   H14 7152   5.052   7.286   0.707 -2.0344 -0.4222  0.9126
   17CHTO    C2 7153   5.245   7.365   0.786 -0.0762 -0.1248  0.0220
   17CHTO   H15 7154   5.313   7.333   0.866  0.6625  1.7028  0.1522
   17CHTO    O6 7155   5.307   7.354   0.659  0.6057  0.4977  0.1336
   17CHTO    H1 7156   5.394   7.386   0.676  0.8293 -0.9374  1.8561
   17CHTO    C3 7157   5.216   7.522   0.814 -0.0238 -0.0494 -0.2029
   17CHTO   H16 7158   5.167   7.558   0.722  1.4566  1.2825 -0.5004
   17CHTO    N1 7159   5.344   7.605   0.837  0.0416 -0.3848  0.8484
   17CHTO    H8 7160   5.327   7.709   0.817  0.9979 -0.3252  0.3457
   17CHTO    H9 7161   5.372   7.593   0.941 -0.0359  1.5462  1.0952
   17CHTO    C4 7162   5.111   7.540   0.937  0.1416  0.6407  0.1712
   17CHTO   H17 7163   5.151   7.515   1.035  0.1372 -0.7410 -0.1780
   17CHTO    O1 7164   4.999   7.455   0.918  0.1945  0.1857  0.3812
   17CHTO    C5 7165   5.035   7.315   0.913  0.4711  0.3926 -0.3296
   17CHTO   H18 7166   5.096   7.300   1.002  0.3225  2.4824  0.1542
   17CHTO   C16 7167   4.904   7.232   0.946 -0.4409 -0.0302  0.3063
   17CHTO   O11 7168   4.853   7.259   1.074 -0.4669  0.3025 -0.3807
   17CHTO    H5 7169   4.769   7.223   1.091  0.9152 -1.8945  2.2362
   17CHTO    O3 7170   5.061   7.670   0.954  0.1414  0.0753  0.2743
   17CHTO    C6 7171   5.001   7.717   1.081  0.2090  0.2348 -0.8009
   17CHTO   H19 7172   4.977   7.824   1.080 -1.1153  0.0596  3.5235
   17CHTO    C8 7173   4.863   7.651   1.106  0.7025 -0.1929 -0.2423
   17CHTO   H21 7174   4.882   7.544   1.108 -0.5685 -0.4298 -0.5133
   17CHTO    O7 7175   4.776   7.680   0.996 -0.2704 -0.0445  0.3749
   17CHTO    H2 7176   4.817   7.643   0.921  0.7453  1.2626  0.2571
   17CHTO   C12 7177   4.813   7.702   1.249  0.2144  0.1055 -0.4146
   17CHTO   H25 7178   4.797   7.811   1.232  1.8539  0.0986 -2.1022
   17CHTO    N3 7179   4.674   7.652   1.282 -0.3364  0.5307 -0.0537
   17CHTO   H12 7180   4.655   7.556   1.235 -0.9941  1.9362 -2.7817
   17CHTO   H13 7181   4.656   7.644   1.388 -0.9097 -2.1470 -0.3267
   17CHTO   C15 7182   4.920   7.678   1.358  0.1580  0.4766 -0.3985
   17CHTO   H28 7183   4.946   7.573   1.368  0.8468  0.6393 -0.4788
   17CHTO   O10 7184   4.888   7.735   1.489  0.0255  0.8888 -0.1018
   17CHTO    H4 7185   4.835   7.674   1.537 -0.9743  0.3420 -1.8318
   17CHTO    O5 7186   5.041   7.742   1.325 -0.1493  0.1321 -0.1588
   17CHTO   C10 7187   5.095   7.698   1.202  0.8366 -0.2088 -0.0788
   17CHTO   H23 7188   5.129   7.595   1.217  3.4981  0.8587  1.7451
   17CHTO   C17 7189   5.235   7.776   1.188 -0.6164  0.2806 -0.1116
   17CHTO   O12 7190   5.313   7.753   1.301  0.1353 -0.3244  0.0887
   17CHTO    H6 7191   5.357   7.835   1.312  0.8828 -0.8481  1.1306
   18CHTO  H203 7192   6.235   8.109   1.942  2.4142  1.9424  1.3717
   18CHTO   O82 7193   6.281   8.027   1.942 -0.1877  0.3904 -0.3422
   18CHTO  C123 7194   6.370   8.024   1.836  0.4877  0.0572 -0.2594
   18CHTO  H227 7195   6.468   7.988   1.871  1.4043  0.0884 -2.7285
   18CHTO   O77 7196   6.307   7.914   1.759 -0.0240  0.0710  0.3843
   18CHTO  C118 7197   6.382   7.872   1.647 -0.6523 -0.0016 -0.1211
   18CHTO  H222 7198   6.476   7.831   1.689 -2.4907 -2.2211  1.9489
   18CHTO  C125 7199   6.298   7.755   1.585  0.0646 -0.1837  0.4812
   18CHTO   O84 7200   6.170   7.799   1.540  0.1129  0.4099 -0.4127
   18CHTO  H205 7201   6.139   7.750   1.466  2.2828 -0.3904 -0.8182
   18CHTO  C114 7202   6.423   7.985   1.552  1.6548  0.0933 -0.3137
   18CHTO  H218 7203   6.334   8.020   1.499  1.8582 -1.1393 -1.4845
   18CHTO  C116 7204   6.481   8.111   1.623  0.2115  0.2911  0.1680
   18CHTO  H220 7205   6.581   8.090   1.666  0.2395  0.7569  0.3325
   18CHTO   O79 7206   6.491   8.226   1.533 -0.1055 -0.0793 -0.6705
   18CHTO  H201 7207   6.402   8.252   1.522 -0.2109 -0.6808 -1.2098
   18CHTO  C120 7208   6.389   8.153   1.747  0.4967 -1.0495 -0.2956
   18CHTO  H224 7209   6.292   8.194   1.712  1.0611 -0.1749 -0.8532
   18CHTO   N21 7210   6.440   8.274   1.829 -0.5888  0.5662  0.4093
   18CHTO  H211 7211   6.378   8.289   1.916 -0.3424  0.5693  0.5847
   18CHTO  H212 7212   6.442   8.367   1.773  2.0223  0.7011  0.6686
   18CHTO   O75 7213   6.506   7.917   1.459  0.2020  0.3575  0.4346
   18CHTO  C112 7214   6.663   7.966   1.421 -0.0631  0.0549  0.0220
   18CHTO  H216 7215   6.705   8.003   1.516 -1.8479 -1.2969  1.3637
   18CHTO   O73 7216   6.655   8.068   1.320  0.1188 -0.7256 -0.0798
   18CHTO  C113 7217   6.781   8.118   1.284  0.3154 -0.6023  0.7415
   18CHTO  H217 7218   6.844   8.143   1.372 -0.6165  1.0056  0.9789
   18CHTO  C124 7219   6.749   8.256   1.219  0.1809  0.0704 -0.0504
   18CHTO   O83 7220   6.862   8.326   1.173 -0.1726 -0.7061  0.4460
   18CHTO  H204 7221   6.822   8.384   1.111 -0.3055  1.9998  2.9145
   18CHTO  C109 7222   6.847   8.014   1.196  0.8203 -0.5107  1.2899
   18CHTO  H213 7223   6.779   7.996   1.112 -0.9233  2.5294  1.9823
   18CHTO  C110 7224   6.867   7.888   1.286  0.4608  0.5803 -0.2529
   18CHTO  H214 7225   6.950   7.915   1.353 -0.3854  1.4823  0.4511
   18CHTO   O78 7226   6.913   7.772   1.210  0.8365 -0.2195 -0.0356
   18CHTO  H200 7227   6.917   7.698   1.267 -1.2970  0.5576  1.1539
   18CHTO  C111 7228   6.743   7.844   1.366 -0.2441  1.1073 -0.9105
   18CHTO  H215 7229   6.676   7.787   1.301  0.7678 -2.3321  0.9399
   18CHTO   N19 7230   6.781   7.750   1.477 -0.3792  0.2514  0.1771
   18CHTO  H207 7231   6.755   7.784   1.577  0.5675  1.2591  0.0962
   18CHTO  H208 7232   6.735   7.653   1.465  1.5463 -0.5062 -1.3958
   18CHTO   O74 7233   6.968   8.072   1.139 -0.5186 -0.0311  0.1066
   18CHTO  C115 7234   6.972   8.034   0.977 -0.5079 -0.1329 -0.3929
   18CHTO  H219 7235   6.948   7.929   0.959  1.0997 -0.3588 -1.3269
   18CHTO   O76 7236   6.857   8.123   0.891 -0.5652  0.1746  0.6927
   18CHTO  C122 7237   6.915   8.249   0.852 -0.4050 -0.5230 -0.9272
   18CHTO  H226 7238   6.956   8.294   0.942 -1.2999 -2.4851  0.4886
   18CHTO  C126 7239   6.798   8.344   0.803  0.3834  0.4787 -0.2281
   18CHTO   O85 7240   6.730   8.305   0.682  0.1727  0.3936 -0.2234
   18CHTO  H206 7241   6.651   8.356   0.680  0.7254  1.2584 -0.4758
   18CHTO  C121 7242   7.025   8.238   0.743  0.2102 -0.0797 -0.2960
   18CHTO  H225 7243   6.969   8.247   0.648 -0.4591 -3.2361 -0.2449
   18CHTO   O81 7244   7.126   8.343   0.763 -0.5196  0.3084 -0.7967
   18CHTO  H202 7245   7.210   8.315   0.733 -0.4639 -0.9030  0.4368
   18CHTO  C119 7246   7.086   8.092   0.750 -0.5776  0.2691 -0.1779
   18CHTO  H223 7247   7.010   8.019   0.722  1.8683 -1.5224 -2.4191
   18CHTO  C117 7248   7.114   8.061   0.904  0.1567  0.1559 -1.0723
   18CHTO  H221 7249   7.159   8.140   0.963 -0.0848  0.0353 -0.7237
   18CHTO   N20 7250   7.196   7.940   0.920 -0.3695  1.2536 -0.2916
   18CHTO  H209 7251   7.150   7.867   0.856  0.5640  0.5906 -0.1981
   18CHTO  H210 7252   7.191   7.909   1.023  0.6984 -2.0114 -1.1861
   18CHTO   O80 7253   7.209   8.053   0.631 -0.0963 -0.0312  0.2515
   18CHTO  C103 7254   7.186   7.922   0.520  1.1762  0.0426 -0.2623
   18CHTO  H190 7255   7.261   7.915   0.441  0.4480 -2.7357 -0.7837
   18CHTO  C101 7256   7.181   7.783   0.593 -0.1133  0.1675  0.1073
   18CHTO  H188 7257   7.123   7.795   0.684  0.3483  1.9581  0.1861
   18CHTO   O68 7258   7.318   7.743   0.642 -0.6733  0.2019  0.1564
   18CHTO  H168 7259   7.375   7.817   0.637  0.4119 -0.6848 -1.0008
   18CHTO   C99 7260   7.122   7.668   0.498 -0.0832  0.3702  0.1456
   18CHTO  H186 7261   7.201   7.651   0.422  1.5911  0.7282  1.7767
   18CHTO   N17 7262   7.101   7.534   0.563 -0.6181  0.0436 -0.3488
   18CHTO  H174 7263   7.135   7.456   0.497 -1.8723 -1.0814  0.3029
   18CHTO  H175 7264   6.997   7.508   0.579 -0.1689 -1.1486  0.7196
   18CHTO   C97 7265   6.989   7.712   0.429 -0.1303  0.4253 -0.3035
   18CHTO  H184 7266   6.913   7.723   0.508 -0.0551 -0.1324 -0.1495
   18CHTO   O64 7267   7.014   7.833   0.365 -0.5787 -0.2124  0.5308
   18CHTO  C104 7268   7.044   7.947   0.449 -0.2067 -0.8547 -0.1952
   18CHTO  H191 7269   6.969   7.957   0.528  1.0889 -1.8307  1.1974
   18CHTO  C108 7270   7.045   8.073   0.364 -0.1210 -0.0220 -0.7721
   18CHTO   O71 7271   6.911   8.124   0.345 -0.5636  0.0589 -0.3640
   18CHTO  H171 7272   6.864   8.077   0.279 -1.1574 -0.2048  0.2405
   18CHTO   O62 7273   6.941   7.633   0.316  0.2346  0.2256 -0.6895
   18CHTO   C91 7274   6.797   7.632   0.307 -0.1364  0.0852 -0.4190
   18CHTO  H178 7275   6.753   7.706   0.373  0.8693 -1.1913  1.7252
   18CHTO   C92 7276   6.732   7.494   0.345 -0.3803 -0.4329  0.2999
   18CHTO  H179 7277   6.761   7.422   0.267 -1.9530 -0.0051 -0.7142
   18CHTO   O66 7278   6.785   7.458   0.473 -0.8047  0.3399 -0.2419
   18CHTO  H166 7279   6.729   7.494   0.540 -0.9396  0.5771 -0.4839
   18CHTO   C93 7280   6.573   7.500   0.356  0.8255  0.2620 -0.6961
   18CHTO  H180 7281   6.553   7.550   0.452  4.2180  0.4979 -0.0621
   18CHTO   N16 7282   6.496   7.377   0.377  0.4022 -0.5715  0.4168
   18CHTO  H172 7283   6.390   7.378   0.356  0.8885 -1.7377 -2.3377
   18CHTO  H173 7284   6.524   7.337   0.473 -0.6674  0.1041  1.0095
   18CHTO   C94 7285   6.510   7.584   0.238 -0.1001 -0.4187 -0.2510
   18CHTO  H181 7286   6.433   7.530   0.183 -0.7251 -1.3850  1.5236
   18CHTO   O61 7287   6.604   7.635   0.148 -0.4309  0.5489  0.0842
   18CHTO   C95 7288   6.738   7.671   0.171  0.3833  0.6018  0.3903
   18CHTO  H182 7289   6.796   7.624   0.091 -0.7680  0.6364 -0.4766
   18CHTO  C106 7290   6.757   7.826   0.149  0.9276 -0.0661  0.0514
   18CHTO   O69 7291   6.741   7.886   0.022  0.1857 -0.1434  0.7818
   18CHTO  H169 7292   6.715   7.824  -0.044  1.2832 -1.0548  1.1921
   18CHTO   O63 7293   6.439   7.730   0.301 -0.2341 -0.1798 -0.3297
   18CHTO   C96 7294   6.306   7.782   0.238 -0.4383  0.9709 -0.8478
   18CHTO  H183 7295   6.242   7.814   0.321  2.6696  3.4777  0.7038
   18CHTO   C98 7296   6.231   7.690   0.140  0.2167  0.4041 -0.0054
   18CHTO  H185 7297   6.302   7.649   0.067  2.4467  1.9930  1.2065
   18CHTO   O67 7298   6.185   7.577   0.218 -0.1918  0.5502 -0.3124
   18CHTO  H167 7299   6.136   7.608   0.292  2.1955 -0.0880  1.6189
   18CHTO  C102 7300   6.112   7.766   0.062  0.4763  0.9733 -0.1910
   18CHTO  H189 7301   6.028   7.771   0.134  0.3507  0.9223 -0.3340
   18CHTO   N18 7302   6.063   7.686  -0.053  0.3122 -0.1662 -0.0229
   18CHTO  H176 7303   6.140   7.638  -0.112 -1.4930 -0.7060 -1.9795
   18CHTO  H177 7304   5.987   7.612  -0.030 -0.7572  0.1693 -2.3368
   18CHTO  C105 7305   6.148   7.909   0.005 -0.1452 -0.1312 -0.3006
   18CHTO  H192 7306   6.211   7.898  -0.083  1.3295  1.0289  0.5808
   18CHTO   O65 7307   6.225   7.973   0.113  0.2006  0.1561  0.4289
   18CHTO  C100 7308   6.347   7.912   0.160 -0.2013 -0.6897 -0.3816
   18CHTO  H187 7309   6.416   7.883   0.080  3.0129  2.0002  1.3042
   18CHTO  C107 7310   6.420   8.000   0.262 -0.8081 -0.2168 -0.0704
   18CHTO   O70 7311   6.441   8.128   0.197  0.4235 -0.1590 -0.2046
   18CHTO  H170 7312   6.534   8.142   0.191  0.6699 -2.3091 -1.7778
   18CHTO   O57 7313   6.014   7.992  -0.030  0.2393  0.9517 -0.1243
   18CHTO   C85 7314   6.030   8.116  -0.095  0.8696 -0.4432  0.3407
   18CHTO  H157 7315   6.138   8.142  -0.098  0.7134  0.1130 -0.6612
   18CHTO   C83 7316   5.974   8.220   0.002 -0.3562 -0.2613 -0.4891
   18CHTO  H155 7317   6.041   8.215   0.088 -1.4879 -3.0433  0.2923
   18CHTO   O56 7318   5.839   8.197   0.038 -0.8723  0.1726  0.4139
   18CHTO  H135 7319   5.818   8.207   0.129  0.9134  1.5236  0.7079
   18CHTO   C81 7320   5.993   8.361  -0.061 -0.7992  0.4474  0.0049
   18CHTO  H153 7321   6.098   8.374  -0.087  0.1432 -1.8654  2.4766
   18CHTO   N14 7322   5.976   8.474   0.040  0.7391  0.0166  0.1366
   18CHTO  H141 7323   6.061   8.538   0.033  0.0815  0.6662 -2.3863
   18CHTO  H142 7324   5.886   8.528   0.020  1.2546  0.6592 -0.4855
   18CHTO   C79 7325   5.907   8.378  -0.189 -0.2493 -0.0753 -0.7507
   18CHTO  H151 7326   5.927   8.477  -0.230 -1.5694  1.5547  2.3414
   18CHTO   O52 7327   5.957   8.277  -0.284  0.3893 -0.1932  0.0196
   18CHTO   C86 7328   5.962   8.140  -0.241  0.2204 -0.4411 -0.5543
   18CHTO  H158 7329   5.855   8.110  -0.243 -0.2442  0.3049  5.4239
   18CHTO   C90 7330   6.025   8.051  -0.347 -0.1402 -0.3249  0.7783
   18CHTO   O60 7331   6.022   7.919  -0.305  0.2539  0.0230 -0.8068
   18CHTO  H138 7332   6.097   7.888  -0.351  1.5607  1.9159 -0.0544
   18CHTO   O50 7333   5.762   8.354  -0.180 -0.3503 -0.3686 -0.1634
   18CHTO   C73 7334   5.632   8.358  -0.239 -1.1480  0.6813 -0.7166
   18CHTO  H145 7335   5.629   8.292  -0.327 -1.5116 -0.5190  0.1804
   18CHTO   C74 7336   5.585   8.501  -0.271 -0.2688 -0.0339  0.0969
   18CHTO  H146 7337   5.663   8.532  -0.341  0.6784 -3.0623 -0.2848
   18CHTO   O54 7338   5.456   8.497  -0.338 -0.2086 -0.2234 -0.9721
   18CHTO  H133 7339   5.432   8.587  -0.348  2.5615  0.6894  0.0900
   18CHTO   C75 7340   5.582   8.588  -0.138 -0.1817  0.9107 -0.5461
   18CHTO  H147 7341   5.682   8.591  -0.093  0.2664 -1.9917 -1.2632
   18CHTO   N13 7342   5.548   8.735  -0.166  0.1026 -0.8491 -0.0930
   18CHTO  H139 7343   5.470   8.758  -0.095  0.1757 -0.0494 -0.2701
   18CHTO  H140 7344   5.524   8.753  -0.270  1.5926  2.4542  0.0687
   18CHTO   C76 7345   5.484   8.512  -0.038 -0.3138 -0.3989  0.2824
   18CHTO  H148 7346   5.389   8.507  -0.091 -0.6279 -0.4946  0.8496
   18CHTO   O49 7347   5.524   8.377  -0.018 -0.1964  0.3668  0.3379
   18CHTO   C77 7348   5.524   8.301  -0.137 -0.6582 -0.1629 -0.0535
   18CHTO  H149 7349   5.424   8.298  -0.182 -1.1302  3.0816  0.6718
   18CHTO   C88 7350   5.542   8.159  -0.093  0.4241 -0.4444 -0.1216
   18CHTO   O58 7351   5.510   8.077  -0.212  0.1053  0.6552  0.2072
   18CHTO  H136 7352   5.580   8.014  -0.215 -0.5958 -0.1011 -0.4929
   18CHTO   O51 7353   5.479   8.568   0.104 -0.0971  0.3936  0.5256
   18CHTO   C78 7354   5.398   8.477   0.223  0.2529 -0.1223  0.2618
   18CHTO  H150 7355   5.364   8.378   0.186 -0.5297  0.5360 -0.8243
   18CHTO   C80 7356   5.275   8.553   0.269  0.3825  0.2033  0.3714
   18CHTO  H152 7357   5.301   8.658   0.292 -0.2162 -0.0995  2.5236
   18CHTO   O55 7358   5.169   8.553   0.170  0.1505  0.1033  0.0898
   18CHTO  H134 7359   5.121   8.630   0.190  0.9308  0.0471  2.2371
   18CHTO   C84 7360   5.221   8.503   0.409  0.4616 -0.1390  0.6270
   18CHTO  H156 7361   5.175   8.404   0.397  2.5856 -1.0524 -0.2124
   18CHTO   N15 7362   5.107   8.591   0.464 -0.1205  0.0482  0.0229
   18CHTO  H143 7363   5.018   8.578   0.405  0.7843  2.1942 -1.8634
   18CHTO  H144 7364   5.081   8.581   0.568  0.2814  2.1126  0.3466
   18CHTO   C87 7365   5.339   8.492   0.508 -0.0182  0.1550  0.2251
   18CHTO  H159 7366   5.385   8.590   0.505  0.9228 -0.3210 -1.0663
   18CHTO   O53 7367   5.425   8.394   0.452 -0.4720  0.6613 -0.4186
   18CHTO   C82 7368   5.502   8.450   0.340 -0.3969 -0.2900  0.1919
   18CHTO  H154 7369   5.548   8.545   0.364 -2.2971  0.2951  1.6233
   18CHTO   C89 7370   5.615   8.351   0.299 -0.4417  0.5778  0.1765
   18CHTO   O59 7371   5.721   8.347   0.394 -0.1176 -0.6107 -0.2370
   18CHTO  H137 7372   5.784   8.286   0.360  0.8046 -0.6126  1.4116
   18CHTO   O45 7373   5.298   8.449   0.652 -0.4565 -0.4703  0.2890
   18CHTO   C67 7374   5.395   8.486   0.753 -0.0918  0.9867 -0.3836
   18CHTO  H124 7375   5.495   8.486   0.708  0.8764 -0.8939  1.6710
   18CHTO   C65 7376   5.367   8.629   0.812  0.4005 -0.0606 -0.0146
   18CHTO  H122 7377   5.261   8.624   0.833  0.8058  0.1777  2.2012
   18CHTO   O44 7378   5.390   8.725   0.703 -0.1021  0.2952  0.1302
   18CHTO  H102 7379   5.370   8.814   0.726  0.8398  0.1550  1.6038
   18CHTO   C63 7380   5.430   8.645   0.957 -0.3031  0.0715 -0.4899
   18CHTO  H120 7381   5.357   8.625   1.035  1.1549 -1.0572  0.6078
   18CHTO   N11 7382   5.466   8.787   0.987  0.4408  0.8922  0.4025
   18CHTO  H108 7383   5.512   8.799   1.083  1.3506  2.9713 -0.2887
   18CHTO  H109 7384   5.385   8.850   0.957  0.0958 -0.2324 -1.0656
   18CHTO   C61 7385   5.546   8.550   0.986  0.4822 -0.6666  0.2125
   18CHTO  H118 7386   5.550   8.550   1.096  3.4275  1.0231  0.1635
   18CHTO   O40 7387   5.518   8.410   0.946 -0.1792 -0.8322 -0.1723
   18CHTO   C68 7388   5.404   8.379   0.871 -0.2265 -0.2972  0.3056
   18CHTO  H125 7389   5.312   8.382   0.933  1.6693 -0.7303  3.1710
   18CHTO   C72 7390   5.418   8.230   0.826 -0.1868 -0.6544 -0.3550
   18CHTO   O48 7391   5.294   8.178   0.781  0.1194  0.9257 -0.2088
   18CHTO  H105 7392   5.293   8.084   0.781  0.6820  0.9134  1.4433
   18CHTO   O38 7393   5.669   8.583   0.921  0.4819 -0.0474  0.5166
   18CHTO   C55 7394   5.790   8.524   0.971  0.3150  0.3758 -0.3280
   18CHTO  H112 7395   5.766   8.430   1.024  0.4787  0.7258  0.3644
   18CHTO   C56 7396   5.866   8.638   1.063  0.5265  0.1669 -0.2945
   18CHTO  H113 7397   5.875   8.731   1.004 -1.1200  0.5661  0.0756
   18CHTO   O42 7398   5.774   8.670   1.173 -0.1278 -0.0786  0.1585
   18CHTO  H100 7399   5.786   8.620   1.252 -1.7132  0.3324  0.6720
   18CHTO   C57 7400   6.008   8.584   1.107 -0.6886  0.4378 -0.3064
   18CHTO  H114 7401   5.998   8.503   1.179  3.3561  0.5345  0.4895
   18CHTO   N10 7402   6.080   8.687   1.176 -0.1028 -0.2398  0.0707
   18CHTO  H106 7403   6.064   8.685   1.283 -1.9503 -0.0592 -0.1820
   18CHTO  H107 7404   6.185   8.679   1.152 -0.2106  0.2384 -0.5767
   18CHTO   C58 7405   6.090   8.528   0.985 -0.4858  0.1997  0.3422
   18CHTO  H115 7406   6.111   8.608   0.911 -0.8696 -0.5287 -0.5672
   18CHTO   O37 7407   6.013   8.426   0.912  0.4799 -0.0641 -0.6314
   18CHTO   C59 7408   5.892   8.476   0.853 -0.0802  0.2731 -0.1435
   18CHTO  H116 7409   5.911   8.558   0.784 -1.9899 -0.2017 -1.2710
   18CHTO   C70 7410   5.836   8.355   0.784 -0.0094  0.5754 -0.7935
   18CHTO   O46 7411   5.734   8.380   0.684 -0.0787 -0.0180 -0.0865
   18CHTO  H103 7412   5.681   8.304   0.665  0.7120 -1.7512  4.0071
   18CHTO   O39 7413   6.259   8.453   1.029  0.0922 -0.0191  0.3217
   18CHTO   C60 7414   6.239   8.328   1.085  0.5001 -0.0634 -0.3214
   18CHTO  H117 7415   6.139   8.309   1.126  1.6121 -0.7150  2.2094
   18CHTO   C62 7416   6.256   8.215   0.985 -0.2150 -0.4049  0.7892
   18CHTO  H119 7417   6.149   8.200   0.961 -0.4967  2.4365  0.1310
   18CHTO   O43 7418   6.301   8.255   0.857 -0.3074  0.1194  0.4867
   18CHTO  H101 7419   6.247   8.320   0.817 -1.7019 -2.0781 -1.2817
   18CHTO   C66 7420   6.324   8.077   1.033  0.8113  0.3147  0.1479
   18CHTO  H123 7421   6.280   7.996   0.974 -4.2359  2.2777  0.9774
   18CHTO   N12 7422   6.473   8.065   1.012 -0.0737 -0.0026 -0.6011
   18CHTO  H110 7423   6.512   8.143   1.075 -0.2486 -0.2253 -0.2104
   18CHTO  H111 7424   6.494   8.091   0.910  0.8877 -0.3833 -0.4999
   18CHTO   C69 7425   6.296   8.049   1.180 -0.3931 -0.5007 -0.0389
   18CHTO  H126 7426   6.345   7.956   1.214  0.3960  0.8769  2.8066
   18CHTO   O41 7427   6.334   8.175   1.278  0.5337 -0.1304  0.3194
   18CHTO   C64 7428   6.339   8.313   1.205 -0.3043  0.0263 -0.1436
   18CHTO  H121 7429   6.439   8.344   1.168  0.1180 -0.7381  0.3511
   18CHTO   C71 7430   6.314   8.430   1.310 -0.1038  0.4795 -0.6478
   18CHTO   O47 7431   6.184   8.421   1.371 -0.0158  0.0573  0.4609
   18CHTO  H104 7432   6.160   8.506   1.402 -1.3949 -0.1361 -0.0548
   18CHTO   O34 7433   6.145   8.022   1.180 -0.1568 -0.1235 -0.3182
   18CHTO   C49 7434   6.028   7.996   1.295 -0.5110 -0.6234 -0.6620
   18CHTO   H91 7435   6.052   7.901   1.344  3.0080 -0.4469 -1.9085
   18CHTO   C47 7436   5.894   7.989   1.218  0.2999  0.4982  0.8618
   18CHTO   H89 7437   5.815   7.962   1.292  0.2797 -4.5144 -0.7769
   18CHTO   O33 7438   5.903   7.887   1.118  0.1807 -0.0280  0.5865
   18CHTO   H70 7439   5.961   7.819   1.148 -0.9572 -1.8050 -1.0436
   18CHTO   C45 7440   5.853   8.135   1.160  0.3915  0.7029  0.3264
   18CHTO   H87 7441   5.931   8.163   1.088  0.6888 -1.7256 -0.3309
   18CHTO    N8 7442   5.724   8.155   1.084  0.7022 -0.1856  0.0515
   18CHTO   H75 7443   5.649   8.094   1.133  0.6365  0.4453  0.7531
   18CHTO   H76 7444   5.695   8.258   1.097  0.9568 -0.0813 -0.1914
   18CHTO   C43 7445   5.861   8.240   1.278 -0.3197 -0.3384  0.3643
   18CHTO   H85 7446   5.836   8.338   1.238 -1.1922 -1.1513 -1.1066
   18CHTO   O29 7447   5.984   8.241   1.350 -0.0122  0.2849 -0.9815
   18CHTO   C50 7448   6.028   8.109   1.401 -0.1726  0.2947  0.1859
   18CHTO   H92 7449   6.133   8.124   1.430  0.2324  2.4153 -2.1826
   18CHTO   C54 7450   5.958   8.051   1.532  0.6471  0.3743  0.4882
   18CHTO   O36 7451   6.002   8.103   1.661 -0.5927 -0.4511  0.4868
   18CHTO   H72 7452   6.083   8.060   1.679  1.9701  2.3762 -3.3147
   18CHTO   O27 7453   5.749   8.216   1.368 -0.3677 -0.0909 -0.3498
   18CHTO   C37 7454   5.646   8.285   1.447  0.0531  0.1536  0.4271
   18CHTO   H79 7455   5.670   8.304   1.552  0.7989 -1.8004  0.6241
   18CHTO   C38 7456   5.625   8.428   1.389 -0.2320 -1.0610 -0.4103
   18CHTO   H80 7457   5.613   8.412   1.281 -2.0110  0.8468 -0.5350
   18CHTO   O31 7458   5.744   8.501   1.426  0.2408  0.3861  0.2511
   18CHTO   H68 7459   5.731   8.591   1.401 -0.3358 -0.7671 -4.0333
   18CHTO   C39 7460   5.494   8.495   1.454  0.3282 -0.1070  0.1797
   18CHTO   H81 7461   5.520   8.515   1.558  0.2015  1.2073 -0.0276
   18CHTO    N7 7462   5.447   8.621   1.390 -0.1717 -0.4581 -0.4722
   18CHTO   H73 7463   5.459   8.635   1.283  0.3739 -1.1713 -0.5123
   18CHTO   H74 7464   5.350   8.652   1.424 -0.0496 -0.4090 -0.1729
   18CHTO   C40 7465   5.371   8.392   1.462  0.5391 -1.1321 -0.1459
   18CHTO   H82 7466   5.319   8.377   1.368 -0.2584  7.6018 -1.5533
   18CHTO   O26 7467   5.416   8.267   1.519 -0.0124 -0.0359 -0.6078
   18CHTO   C41 7468   5.516   8.205   1.437 -0.1269  0.0169  0.1211
   18CHTO   H83 7469   5.490   8.201   1.331  1.1711 -0.5701 -0.1793
   18CHTO   C52 7470   5.532   8.062   1.474  0.2939 -0.1622 -0.4018
   18CHTO   O35 7471   5.430   7.988   1.451  0.2336 -0.7832  0.3325
   18CHTO   H71 7472   5.414   7.924   1.518 -0.1204 -0.3570  0.6571
   18CHTO   O28 7473   5.286   8.443   1.569  0.0111  0.0822  0.5274
   18CHTO   C42 7474   5.135   8.414   1.573  0.6448  0.2892 -0.5608
   18CHTO   H84 7475   5.104   8.453   1.670  0.0331  1.1689 -1.1052
   18CHTO   C44 7476   5.085   8.262   1.573 -0.0155 -0.0307  0.0357
   18CHTO   H86 7477   5.140   8.203   1.499  0.2740  0.2690  0.0086
   18CHTO   O32 7478   5.120   8.199   1.701 -0.2600 -0.1463  1.0122
   18CHTO   H69 7479   5.213   8.208   1.713 -0.1992 -0.2141  0.5986
   18CHTO   C48 7480   4.930   8.238   1.563  0.2690 -0.5497  0.1313
   18CHTO   H90 7481   4.883   8.254   1.660 -0.9119  1.0240 -0.6830
   18CHTO    N9 7482   4.896   8.095   1.533 -0.8756 -0.4611  0.0957
   18CHTO   H77 7483   4.988   8.042   1.555 -0.1141  1.0751  0.7618
   18CHTO   H78 7484   4.822   8.074   1.609 -1.3344  1.2493  0.1443
   18CHTO   C51 7485   4.865   8.334   1.460 -0.3783  0.3087  0.3540
   18CHTO   H93 7486   4.877   8.300   1.357  1.0942 -1.2743  1.0358
   18CHTO   O30 7487   4.909   8.471   1.481  0.6448 -0.2524 -0.2102
   18CHTO   C46 7488   5.051   8.491   1.462  0.0761 -0.1133 -0.0831
   18CHTO   H88 7489   5.087   8.453   1.366  2.1358  2.9063 -0.5884
   18CHTO   C53 7490   5.073   8.633   1.468 -0.1551 -0.2199 -0.1855
   18CHTO   O72 7491   5.057   8.688   1.599  0.2310  0.3718  0.0817
   18CHTO  H199 7492   4.971   8.726   1.606 -0.3824 -0.7121 -1.2501
   18CHTO   O22 7493   4.723   8.341   1.488  0.0752  0.3114  0.1446
   18CHTO   C31 7494   4.627   8.339   1.373  0.5383  0.2395  1.0171
   18CHTO   H59 7495   4.532   8.372   1.420  0.7617  0.6591  1.1820
   18CHTO   C29 7496   4.655   8.447   1.267 -0.5487  0.2428 -0.5952
   18CHTO   H57 7497   4.761   8.435   1.240 -0.3459  1.4024 -0.3248
   18CHTO   O21 7498   4.641   8.568   1.338  0.3113  0.1772  0.0565
   18CHTO   H37 7499   4.577   8.618   1.290 -1.2233 -1.3152  0.5207
   18CHTO   C27 7500   4.575   8.437   1.134 -0.2945  0.2136 -0.2241
   18CHTO   H55 7501   4.468   8.457   1.151  0.1006  1.3241  1.1262
   18CHTO    N5 7502   4.624   8.544   1.036 -0.5796 -0.6672 -0.7862
   18CHTO   H43 7503   4.573   8.635   1.063  0.3994 -0.8650  1.9388
   18CHTO   H44 7504   4.602   8.508   0.937 -0.3477 -1.4648 -0.5545
   18CHTO   C25 7505   4.598   8.297   1.077  0.4216 -0.0228 -0.8014
   18CHTO   H53 7506   4.704   8.269   1.071  0.2158 -0.8755 -0.5818
   18CHTO   O17 7507   4.544   8.202   1.183  0.6141  0.6362  0.1867
   18CHTO   C32 7508   4.603   8.196   1.310 -0.1659  0.4880 -0.2660
   18CHTO   H60 7509   4.701   8.149   1.308 -0.1385  0.4496  1.0806
   18CHTO   C36 7510   4.521   8.113   1.419 -0.4120 -0.4758 -0.0612
   18CHTO   O25 7511   4.534   7.973   1.386  0.0775 -0.0625  0.2868
   18CHTO   H40 7512   4.499   7.915   1.451 -2.1506  1.2287  0.2989
   18CHTO   O15 7513   4.524   8.263   0.945 -0.3915  0.1286 -0.1937
   18CHTO   C19 7514   4.580   8.220   0.817 -1.2575 -0.6368  0.1882
   18CHTO   H47 7515   4.496   8.172   0.766 -0.2270 -3.4446  1.0453
   18CHTO   C20 7516   4.632   8.344   0.730 -0.9451  0.4832 -0.2557
   18CHTO   H48 7517   4.707   8.402   0.786 -2.8993  2.0450  0.7861
   18CHTO   O19 7518   4.511   8.426   0.719 -0.0599  0.1801 -0.1172
   18CHTO   H35 7519   4.509   8.519   0.706  1.4541  0.1244 -0.9143
   18CHTO   C21 7520   4.687   8.290   0.597  0.2003 -0.0228  0.3199
   18CHTO   H49 7521   4.607   8.240   0.542  1.2959 -1.7317  0.2408
   18CHTO    N4 7522   4.735   8.396   0.501 -0.3181  0.2610 -0.6487
   18CHTO   H41 7523   4.824   8.364   0.448 -0.1659 -0.1765 -0.1423
   18CHTO   H42 7524   4.755   8.486   0.558  0.9440 -0.2388 -0.2782
   18CHTO   C22 7525   4.803   8.184   0.626 -0.3906  0.8447  0.8363
   18CHTO   H50 7526   4.875   8.231   0.693  2.3820  1.1070 -2.1358
   18CHTO   O14 7527   4.738   8.077   0.698  0.3332  0.3507 -0.0759
   18CHTO   C23 7528   4.690   8.110   0.831 -0.0119 -0.3289  0.2582
   18CHTO   H51 7529   4.773   8.138   0.897  1.8969 -2.2450 -1.2372
   18CHTO   C34 7530   4.637   7.978   0.898  0.6763 -0.6491  0.1823
   18CHTO   O23 7531   4.602   7.986   1.038 -0.1280  0.6637  0.2187
   18CHTO   H38 7532   4.532   8.045   1.057 -0.6199 -0.0360  0.6038
   18CHTO   O16 7533   4.861   8.121   0.509  0.3751 -0.1834  1.1006
   18CHTO   C24 7534   5.018   8.117   0.497  0.9985 -0.4658  1.0731
   18CHTO   H52 7535   5.065   8.190   0.563 -0.1159  1.6748 -0.4764
   18CHTO   C26 7536   5.040   8.152   0.348  0.2279  0.3614 -0.2544
   18CHTO   H54 7537   4.975   8.092   0.280 -0.1831  0.2678  0.2206
   18CHTO   O20 7538   5.005   8.286   0.309 -0.0002  0.3984  0.3867
   18CHTO   H36 7539   5.059   8.345   0.358 -0.3116 -0.5531  1.9278
   18CHTO   C30 7540   5.192   8.125   0.302  0.1308  0.1603  0.7825
   18CHTO   H58 7541   5.244   8.221   0.313  2.3863 -1.0384  0.8587
   18CHTO    N6 7542   5.186   8.096   0.155  0.2366 -0.1917 -0.1711
   18CHTO   H45 7543   5.252   8.148   0.087 -3.1611  3.2210 -1.0427
   18CHTO   H46 7544   5.086   8.103   0.116  0.2955  0.2318 -0.2584
   18CHTO   C33 7545   5.259   8.009   0.378 -0.4936  0.0524 -0.3224
   18CHTO   H61 7546   5.239   7.910   0.333 -0.1409  0.4021 -1.2619
   18CHTO   O18 7547   5.219   7.997   0.515  0.3884 -0.1132  0.0284
   18CHTO   C28 7548   5.080   7.981   0.527  0.0710  0.0747  0.2063
   18CHTO   H56 7549   5.048   7.907   0.453  0.7333 -2.3867  2.3293
   18CHTO   C35 7550   5.045   7.939   0.665  0.5567 -0.5454  0.2789
   18CHTO   O24 7551   5.110   7.814   0.690 -0.2056 -0.3835  0.9370
   18CHTO   H39 7552   5.192   7.824   0.734  0.0024 -1.1570  0.7231
   18CHTO    O9 7553   5.398   8.032   0.368  0.9108 -0.0974  0.0553
   18CHTO   C13 7554   5.504   7.911   0.428 -0.1486  0.1136 -0.2942
   18CHTO   H26 7555   5.438   7.822   0.420 -0.7818  0.4690  0.8126
   18CHTO   C11 7556   5.538   7.939   0.578 -0.1732  1.0508  0.4620
   18CHTO   H24 7557   5.455   7.921   0.648  1.9962  0.4126  2.9646
   18CHTO    O8 7558   5.557   8.085   0.584 -0.5457  0.1277  0.0474
   18CHTO    H3 7559   5.543   8.099   0.676 -0.6650 -1.5334  0.2844
   18CHTO    C9 7560   5.658   7.857   0.633  0.0386  0.4928 -0.3493
   18CHTO   H22 7561   5.616   7.755   0.632 -1.2746  1.0126 -1.6128
   18CHTO    N2 7562   5.687   7.878   0.772 -0.2753  0.0398  0.0425
   18CHTO   H10 7563   5.634   7.823   0.849 -1.3999 -1.0835 -1.5165
   18CHTO   H11 7564   5.694   7.983   0.797  1.5230  0.2688 -1.3636
   18CHTO    C7 7565   5.781   7.862   0.530 -0.1418  0.1752 -0.1869
   18CHTO   H20 7566   5.802   7.754   0.513 -4.2317 -0.5509 -1.3942
   18CHTO    O4 7567   5.752   7.920   0.404  0.1612  0.1530 -0.0214
   18CHTO   C14 7568   5.629   7.871   0.343 -0.4827  0.0779  0.0538
   18CHTO   H27 7569   5.633   7.760   0.342  0.2730  0.1133 -0.5439
   18CHTO   C18 7570   5.632   7.925   0.198 -0.3413  0.2890 -0.3021
   18CHTO   O13 7571   5.752   7.886   0.130  0.8598  0.0971 -0.1518
   18CHTO    H7 7572   5.787   7.942   0.064  1.9831 -1.3317 -0.8013
   18CHTO    O2 7573   5.922   7.926   0.586  0.4797  0.1470 -0.9972
   18CHTO    C1 7574   6.048   7.885   0.542 -0.5991  0.2337  0.3697
   18CHTO   H14 7575   6.069   7.926   0.441  3.5440 -1.3154  0.4863
   18CHTO    C2 7576   6.058   7.722   0.532 -0.0708 -0.2846 -0.0377
   18CHTO   H15 7577   5.993   7.694   0.617 -0.6406 -0.8959 -0.6710
   18CHTO    O6 7578   6.004   7.675   0.411  0.3795  0.2778 -0.0766
   18CHTO    H1 7579   5.912   7.696   0.405 -0.4198 -3.0608 -0.3752
   18CHTO    C3 7580   6.205   7.658   0.562 -0.3605 -0.3373  0.2160
   18CHTO   H16 7581   6.242   7.663   0.458  0.2094  0.2505  0.4453
   18CHTO    N1 7582   6.198   7.512   0.612  0.1850 -0.1522  0.1689
   18CHTO    H8 7583   6.292   7.465   0.590  0.6911  1.2709 -0.8308
   18CHTO    H9 7584   6.173   7.508   0.717  1.8388 -1.4215  0.5226
   18CHTO    C4 7585   6.302   7.740   0.641  0.0856 -0.2406 -0.2447
   18CHTO   H17 7586   6.289   7.717   0.747 -0.3030  1.2386  0.0457
   18CHTO    O1 7587   6.291   7.879   0.602 -0.7738  0.3894 -0.3501
   18CHTO    C5 7588   6.166   7.944   0.633  0.1888  0.6846  0.2412
   18CHTO   H18 7589   6.142   7.938   0.739  0.3928  2.0102  0.3661
   18CHTO   C16 7590   6.198   8.099   0.596 -0.5531 -0.0076 -0.8479
   18CHTO   O11 7591   6.079   8.178   0.617  0.2647 -0.0964 -0.4094
   18CHTO    H5 7592   6.082   8.259   0.571  1.5796  1.1679  1.7675
   18CHTO    O3 7593   6.436   7.700   0.607 -0.3755  0.0961  0.7015
   18CHTO    C6 7594   6.534   7.702   0.713  0.2939 -0.7399  0.1309
   18CHTO   H19 7595   6.485   7.757   0.793 -0.4623 -1.3751  0.1163
   18CHTO    C8 7596   6.585   7.553   0.767  0.6007 -0.0838 -0.1885
   18CHTO   H21 7597   6.602   7.493   0.678  0.3286  0.8691 -0.8928
   18CHTO    O7 7598   6.472   7.491   0.835  0.2154  0.1251 -0.6641
   18CHTO    H2 7599   6.487   7.399   0.831 -0.4256 -0.0290  0.3531
   18CHTO   C12 7600   6.702   7.564   0.872  0.2438 -0.2020  0.2194
   18CHTO   H25 7601   6.655   7.609   0.962  0.4961 -0.6817  0.5874
   18CHTO    N3 7602   6.751   7.426   0.910  0.3960  0.0882 -0.0147
   18CHTO   H12 7603   6.692   7.372   0.982 -0.9067  2.8682  1.1023
   18CHTO   H13 7604   6.857   7.413   0.926  0.7262  1.5507 -0.8901
   18CHTO   C15 7605   6.809   7.658   0.820  0.2757 -0.3297  0.0854
   18CHTO   H28 7606   6.850   7.614   0.728  1.5198  0.5339  0.2168
   18CHTO   O10 7607   6.911   7.698   0.922 -0.0301 -0.0762  0.8121
   18CHTO    H4 7608   6.974   7.760   0.889  0.5999 -0.6825  0.8712
   18CHTO    O5 7609   6.745   7.782   0.790  0.0358  0.3839 -0.8739
   18CHTO   C10 7610   6.660   7.773   0.679 -0.2685 -0.1186  0.6131
   18CHTO   H23 7611   6.713   7.715   0.604  2.3617  2.2870  0.5027
   18CHTO   C17 7612   6.641   7.913   0.613 -0.2234  0.3040  0.0436
   18CHTO   O12 7613   6.588   8.026   0.689  0.9952  0.2348  0.2311
   18CHTO    H6 7614   6.653   8.080   0.730  4.6298 -1.1095 -3.3672
   19CHTO  H203 7615   5.492   9.626   2.218  0.4829  0.7327  2.2740
   19CHTO   O82 7616   5.493   9.532   2.224  0.5739  0.5362 -0.2092
   19CHTO  C123 7617   5.404   9.469   2.129 -0.1289 -0.2291  0.1207
   19CHTO  H227 7618   5.336   9.545   2.087 -0.5706 -1.8626 -2.2287
   19CHTO   O77 7619   5.492   9.425   2.025  0.3407  0.6317  0.0444
   19CHTO  C118 7620   5.443   9.334   1.933 -0.3410 -0.1941 -0.3814
   19CHTO  H222 7621   5.371   9.376   1.861  1.5764 -0.3670 -2.4625
   19CHTO  C125 7622   5.567   9.285   1.848 -0.0738 -0.1949  0.3565
   19CHTO   O84 7623   5.654   9.394   1.794  0.6157  0.5356 -0.6379
   19CHTO  H205 7624   5.640   9.426   1.707  2.8870 -0.4778 -1.4047
   19CHTO  C114 7625   5.395   9.201   2.011  0.0875 -0.3950 -0.1979
   19CHTO  H218 7626   5.480   9.160   2.066 -0.5652 -0.4309  0.7881
   19CHTO  C116 7627   5.273   9.241   2.100 -0.3828  0.6117  0.0734
   19CHTO  H220 7628   5.188   9.271   2.036 -1.1497 -2.3431 -0.3571
   19CHTO   O79 7629   5.223   9.124   2.176 -0.1031  0.0384  0.0951
   19CHTO  H201 7630   5.293   9.069   2.205  0.3903  1.1085  1.0081
   19CHTO  C120 7631   5.320   9.357   2.201  0.1833  0.9965 -0.3806
   19CHTO  H224 7632   5.377   9.308   2.282  1.0177  2.3666 -0.1356
   19CHTO   N21 7633   5.206   9.417   2.269 -0.6459 -0.4681 -0.2109
   19CHTO  H211 7634   5.119   9.410   2.205 -0.0196 -1.1803 -1.0010
   19CHTO  H212 7635   5.178   9.368   2.361 -1.2093  0.5829  0.1988
   19CHTO   O75 7636   5.363   9.110   1.902  0.4880 -0.0385  0.1941
   19CHTO  C112 7637   5.378   8.937   1.961  0.0394  0.4269 -0.1877
   19CHTO  H216 7638   5.343   8.932   2.065 -3.1845  0.9117 -1.1968
   19CHTO   O73 7639   5.515   8.896   1.944 -0.1057 -0.1628 -0.1852
   19CHTO  C113 7640   5.541   8.760   2.009  0.1719 -0.2409 -0.0212
   19CHTO  H217 7641   5.506   8.755   2.114 -0.0772  0.0195 -0.0910
   19CHTO  C124 7642   5.686   8.728   2.021 -0.0116  0.0137  0.0015
   19CHTO   O83 7643   5.754   8.831   2.095  0.3623 -0.0700 -0.6889
   19CHTO  H204 7644   5.845   8.811   2.102  0.6775  1.5367 -0.1189
   19CHTO  C109 7645   5.467   8.654   1.914 -0.3356 -0.2900 -0.4562
   19CHTO  H213 7646   5.516   8.659   1.816 -2.1536  3.7854 -1.2169
   19CHTO  C110 7647   5.317   8.690   1.896  0.4049  0.1964 -0.9250
   19CHTO  H214 7648   5.269   8.669   1.992  1.1694 -1.6012 -0.9313
   19CHTO   O78 7649   5.269   8.606   1.791 -0.3781  0.3721 -0.1524
   19CHTO  H200 7650   5.290   8.515   1.806  1.0267  0.7604  0.2880
   19CHTO  C111 7651   5.296   8.845   1.872 -0.0781 -0.7630 -0.3925
   19CHTO  H215 7652   5.331   8.868   1.771  1.6611  0.7385  0.5115
   19CHTO   N19 7653   5.153   8.888   1.877  0.1774 -0.0039 -0.2977
   19CHTO  H207 7654   5.093   8.802   1.903  0.7454 -0.1323  0.6255
   19CHTO  H208 7655   5.123   8.925   1.780 -0.5258 -1.8462 -0.8102
   19CHTO   O74 7656   5.486   8.520   1.973 -0.3605  0.0001 -0.0375
   19CHTO  C115 7657   5.520   8.396   1.863  0.6306 -0.2808 -0.6466
   19CHTO  H219 7658   5.443   8.390   1.786 -2.3432  0.4575  2.1424
   19CHTO   O76 7659   5.642   8.423   1.791  0.4894  0.4603  0.1453
   19CHTO  C122 7660   5.763   8.373   1.856  0.5377 -0.4412 -0.3123
   19CHTO  H226 7661   5.784   8.441   1.939 -1.4943 -0.9111  0.6257
   19CHTO  C126 7662   5.874   8.402   1.745 -0.2137  0.1784 -0.1399
   19CHTO   O85 7663   5.892   8.534   1.697  0.2767 -0.0131 -0.1350
   19CHTO  H206 7664   5.812   8.583   1.697 -0.0768 -0.5885  0.5377
   19CHTO  C121 7665   5.767   8.223   1.899  0.2272 -0.1285 -0.0940
   19CHTO  H225 7666   5.831   8.170   1.825 -1.0081 -5.0259  2.1162
   19CHTO   O81 7667   5.831   8.206   2.024 -0.3277 -0.2541 -0.4674
   19CHTO  H202 7668   5.772   8.214   2.097  0.4216  0.1268  0.1030
   19CHTO  C119 7669   5.631   8.160   1.885  0.3480 -0.3318  0.7337
   19CHTO  H223 7670   5.619   8.150   1.777  1.3769  0.5479  0.5246
   19CHTO  C117 7671   5.521   8.250   1.942  0.6020 -0.4993 -0.1733
   19CHTO  H221 7672   5.537   8.265   2.049  1.6622 -3.5809  0.1395
   19CHTO   N20 7673   5.386   8.183   1.930 -0.0095 -0.3357 -0.0122
   19CHTO  H209 7674   5.390   8.075   1.923  0.0001 -0.2917 -0.8419
   19CHTO  H210 7675   5.306   8.222   1.991 -0.1554 -2.3888  1.1582
   19CHTO   O80 7676   5.632   8.014   1.929  0.0511  1.0053 -0.2193
   19CHTO  C103 7677   5.705   7.914   1.835 -0.0357  0.5519  0.3428
   19CHTO  H190 7678   5.718   7.956   1.735 -0.8077  0.8030  0.3451
   19CHTO  C101 7679   5.838   7.855   1.889 -0.2986  0.6837  0.4904
   19CHTO  H188 7680   5.816   7.811   1.986  0.4274  2.9532  1.7140
   19CHTO   O68 7681   5.952   7.968   1.910  0.7987  0.3856 -0.5149
   19CHTO  H168 7682   6.016   7.935   1.970  0.3961 -3.8277 -2.2022
   19CHTO   C99 7683   5.892   7.733   1.804 -0.3362 -0.8176 -0.0871
   19CHTO  H186 7684   5.917   7.779   1.706 -0.9223 -2.1931 -0.9061
   19CHTO   N17 7685   6.012   7.662   1.859 -0.3215  0.1039  0.5260
   19CHTO  H174 7686   6.046   7.588   1.789  1.8191  0.7841  0.8256
   19CHTO  H175 7687   6.094   7.733   1.860 -0.8566  0.7232  0.9585
   19CHTO   C97 7688   5.781   7.631   1.769 -0.0365 -0.1153  0.4995
   19CHTO  H184 7689   5.762   7.563   1.853  2.6689 -0.7655  0.6034
   19CHTO   O64 7690   5.661   7.701   1.726 -0.5173  0.2108 -0.5712
   19CHTO  C104 7691   5.606   7.795   1.821 -0.2631  0.5884  0.6105
   19CHTO  H191 7692   5.591   7.749   1.919 -1.4521 -2.2424 -0.8580
   19CHTO  C108 7693   5.465   7.835   1.770 -0.6995 -0.3234 -0.1602
   19CHTO   O71 7694   5.386   7.718   1.757 -0.2432 -0.3433  0.1633
   19CHTO  H171 7695   5.299   7.751   1.758 -0.4892 -0.9953  1.1473
   19CHTO   O62 7696   5.826   7.555   1.656  0.0943 -0.4709  1.0585
   19CHTO   C91 7697   5.734   7.454   1.605  0.6130 -0.7818  0.3117
   19CHTO  H178 7698   5.640   7.476   1.655  0.7016  0.1175  0.0912
   19CHTO   C92 7699   5.773   7.307   1.642  0.0296  0.3624 -0.6441
   19CHTO  H179 7700   5.872   7.286   1.600 -0.0703 -0.6208 -0.3832
   19CHTO   O66 7701   5.777   7.303   1.784 -0.1027 -0.6088  0.0190
   19CHTO  H166 7702   5.834   7.235   1.814 -1.2563 -0.7966  1.8206
   19CHTO   C93 7703   5.667   7.200   1.587  0.0105  0.6210  0.5883
   19CHTO  H180 7704   5.582   7.199   1.658 -0.9327  3.3291 -0.4282
   19CHTO   N16 7705   5.741   7.073   1.589  0.0339 -0.4124 -0.0091
   19CHTO  H172 7706   5.756   7.035   1.489  0.6388 -0.8641  0.2490
   19CHTO  H173 7707   5.686   7.004   1.649 -3.4107  1.1402 -1.2728
   19CHTO   C94 7708   5.616   7.234   1.444  0.2448  0.0669 -0.6504
   19CHTO  H181 7709   5.682   7.197   1.366 -1.2191 -0.7768 -1.5044
   19CHTO   O61 7710   5.592   7.370   1.416  0.0624  0.2346 -0.4795
   19CHTO   C95 7711   5.699   7.461   1.448  0.2482 -0.3686  0.2257
   19CHTO  H182 7712   5.785   7.435   1.387  0.2075  0.6026 -0.2603
   19CHTO  C106 7713   5.655   7.610   1.409  0.2567 -0.1075 -0.4723
   19CHTO   O69 7714   5.608   7.617   1.275 -0.1650  0.3107 -0.7245
   19CHTO  H169 7715   5.647   7.690   1.232 -1.0288  1.3193  0.1681
   19CHTO   O63 7716   5.492   7.182   1.419 -0.1036 -0.1411 -0.1102
   19CHTO   C96 7717   5.444   7.159   1.271 -0.7006 -0.5842  1.0160
   19CHTO  H183 7718   5.530   7.153   1.205 -0.3644  1.1681  1.2832
   19CHTO   C98 7719   5.340   7.265   1.221 -0.2979  0.1126 -0.6968
   19CHTO  H185 7720   5.382   7.366   1.232  0.6811 -0.0546 -2.7075
   19CHTO   O67 7721   5.327   7.250   1.081  0.5451  0.5697  0.4597
   19CHTO  H167 7722   5.353   7.332   1.043  1.3249  1.0841  2.0372
   19CHTO  C102 7723   5.185   7.256   1.281  0.8561 -0.4221 -0.1118
   19CHTO  H189 7724   5.124   7.305   1.204  2.5820  0.0902 -1.1927
   19CHTO   N18 7725   5.159   7.333   1.404  0.7461 -0.0420 -0.8684
   19CHTO  H176 7726   5.169   7.275   1.495  1.6251  0.6690 -0.5051
   19CHTO  H177 7727   5.214   7.425   1.401  2.2907 -0.9191 -0.2585
   19CHTO  C105 7728   5.154   7.105   1.305 -0.1262  0.1918  0.0970
   19CHTO  H192 7729   5.166   7.076   1.410 -0.9444 -1.9683 -0.3731
   19CHTO   O65 7730   5.242   7.021   1.228  0.0923  0.0955  0.5467
   19CHTO  C100 7731   5.376   7.018   1.272 -0.1051  0.4387  0.0274
   19CHTO  H187 7732   5.365   6.991   1.378  2.0279  0.6283  0.3240
   19CHTO  C107 7733   5.453   6.905   1.196  0.4828  0.7647 -0.3820
   19CHTO   O70 7734   5.579   6.888   1.256  0.2612  0.4454  0.3890
   19CHTO  H170 7735   5.621   6.815   1.215  0.8113  0.7420  0.4204
   19CHTO   O57 7736   5.004   7.090   1.255  0.2891  0.0834 -0.3059
   19CHTO   C85 7737   4.922   6.983   1.317  0.5790  0.4222 -0.3282
   19CHTO  H157 7738   4.977   6.980   1.414  0.8939 -0.2152 -0.5289
   19CHTO   C83 7739   4.932   6.840   1.255  0.2721 -0.1147  0.0591
   19CHTO  H155 7740   5.038   6.815   1.260  0.3001  0.0705  0.4415
   19CHTO   O56 7741   4.902   6.847   1.114 -0.1356  0.2973  0.5586
   19CHTO  H135 7742   4.926   6.933   1.085 -1.7151  0.8707  0.9461
   19CHTO   C81 7743   4.845   6.736   1.328 -0.2582  0.7356  0.0108
   19CHTO  H153 7744   4.887   6.731   1.428 -0.3394  0.9060  0.0540
   19CHTO   N14 7745   4.859   6.603   1.268  0.5636  0.6663 -0.2622
   19CHTO  H141 7746   4.904   6.585   1.173  0.1124  2.2602 -0.7803
   19CHTO  H142 7747   4.787   6.527   1.291  1.4250 -0.1538 -0.2548
   19CHTO   C79 7748   4.699   6.784   1.342  0.1051  0.1270 -0.3301
   19CHTO  H151 7749   4.649   6.716   1.411 -0.6205  0.4445 -0.5319
   19CHTO   O52 7750   4.691   6.916   1.403 -0.3908 -0.1567  0.0166
   19CHTO   C86 7751   4.768   7.020   1.339  0.3094 -0.1294  0.6111
   19CHTO  H158 7752   4.711   7.033   1.244 -0.0084  0.8353  0.9228
   19CHTO   C90 7753   4.759   7.152   1.415 -0.0502 -0.2009  0.2185
   19CHTO   O60 7754   4.633   7.200   1.384  0.0191 -0.3401 -0.1101
   19CHTO  H138 7755   4.607   7.270   1.441 -2.7075 -1.2798 -0.1269
   19CHTO   O50 7756   4.629   6.792   1.215  0.4026  0.0221  0.2246
   19CHTO   C73 7757   4.499   6.767   1.164  0.6473 -0.4701 -0.0622
   19CHTO  H145 7758   4.472   6.660   1.170  3.1786 -1.3890 -3.5517
   19CHTO   C74 7759   4.504   6.812   1.014 -0.2628 -0.4326 -0.1024
   19CHTO  H146 7760   4.590   6.761   0.969 -0.2795  0.4363 -1.1322
   19CHTO   O54 7761   4.389   6.757   0.942 -0.0205 -0.4961 -0.0790
   19CHTO  H133 7762   4.367   6.807   0.865 -1.7211  1.0931  1.3664
   19CHTO   C75 7763   4.521   6.968   1.007  0.1998  0.0065 -0.5717
   19CHTO  H147 7764   4.610   6.997   1.065 -0.5940  1.4709 -0.0393
   19CHTO   N13 7765   4.527   7.029   0.874  0.2101  0.6892 -0.0708
   19CHTO  H139 7766   4.514   6.952   0.799  2.3088 -0.5619  0.8031
   19CHTO  H140 7767   4.460   7.111   0.852  1.4663  1.8623  0.3929
   19CHTO   C76 7768   4.421   7.056   1.104  0.1695  0.5868 -0.4767
   19CHTO  H148 7769   4.322   7.053   1.059  0.4413  2.2493 -1.2080
   19CHTO   O49 7770   4.427   6.993   1.233  0.3305  0.1138 -0.2521
   19CHTO   C77 7771   4.390   6.858   1.242 -0.0214  0.5575  0.1265
   19CHTO  H149 7772   4.294   6.837   1.196  1.1210  0.3813 -2.2561
   19CHTO   C88 7773   4.381   6.821   1.393 -0.2914 -0.2339 -0.1697
   19CHTO   O58 7774   4.271   6.908   1.477 -0.0889  0.4115 -0.1486
   19CHTO  H136 7775   4.297   6.995   1.501 -1.4807  1.0398 -0.8473
   19CHTO   O51 7776   4.483   7.214   1.124  0.2879 -0.0359 -0.1216
   19CHTO   C78 7777   4.391   7.319   1.078 -0.8265  0.0090 -0.7888
   19CHTO  H150 7778   4.312   7.272   1.017 -0.2052  0.8976 -2.2926
   19CHTO   C80 7779   4.476   7.420   0.990  0.1789  0.4743 -0.7024
   19CHTO  H152 7780   4.563   7.455   1.048 -0.1219 -0.6472  0.4415
   19CHTO   O55 7781   4.524   7.346   0.880 -0.7110  0.7679  0.4496
   19CHTO  H134 7782   4.616   7.328   0.876 -1.0358 -0.4513 -3.4345
   19CHTO   C84 7783   4.395   7.542   0.937 -0.5623  0.5259  0.3347
   19CHTO  H156 7784   4.322   7.503   0.866 -1.3416 -0.0102  1.4226
   19CHTO   N15 7785   4.476   7.653   0.871  0.0858 -0.6245 -0.9670
   19CHTO  H143 7786   4.410   7.731   0.839  3.0162  1.5696 -1.8334
   19CHTO  H144 7787   4.534   7.688   0.953 -1.6666  2.3739 -0.9251
   19CHTO   C87 7788   4.309   7.596   1.058 -0.4043 -0.3097  0.2882
   19CHTO  H159 7789   4.384   7.632   1.129  0.0605 -0.9585  0.1274
   19CHTO   O53 7790   4.234   7.471   1.132 -0.2926 -0.1630 -0.6382
   19CHTO   C82 7791   4.324   7.386   1.197 -0.1008 -0.3372  0.2631
   19CHTO  H154 7792   4.397   7.446   1.252  0.0679 -1.1112  0.8820
   19CHTO   C89 7793   4.256   7.290   1.296  0.4109 -0.9397 -0.5367
   19CHTO   O59 7794   4.150   7.342   1.368  0.6197 -0.5685  0.2853
   19CHTO  H137 7795   4.178   7.418   1.415  1.6606 -0.8435  0.1025
   19CHTO   O45 7796   4.222   7.690   1.010  0.0474 -0.5195 -0.1390
   19CHTO   C67 7797   4.150   7.767   1.117 -0.3082 -0.3771 -0.4197
   19CHTO  H124 7798   4.158   7.726   1.217  1.0714  1.7267  0.3560
   19CHTO   C65 7799   4.216   7.907   1.120 -0.0361  0.4852  0.8900
   19CHTO  H122 7800   4.234   7.939   1.017 -0.5636 -1.0685  0.2846
   19CHTO   O44 7801   4.331   7.887   1.198  0.0896  0.1024  0.4920
   19CHTO  H102 7802   4.313   7.836   1.274 -0.7191  0.6371  0.6582
   19CHTO   C63 7803   4.121   8.021   1.181  0.0026  0.0397  0.3778
   19CHTO  H120 7804   4.065   8.066   1.100  2.5462 -0.4290 -1.7291
   19CHTO   N11 7805   4.193   8.145   1.222  0.0726 -0.1564  0.6140
   19CHTO  H108 7806   4.285   8.128   1.273 -1.1795  0.2120  3.0685
   19CHTO  H109 7807   4.127   8.208   1.280  0.0760 -0.0885  0.5444
   19CHTO   C61 7808   4.015   7.952   1.279  1.5220 -0.3955  0.4360
   19CHTO  H118 7809   3.944   8.029   1.314  1.1968  0.7102 -2.5276
   19CHTO   O40 7810   3.932   7.853   1.202 -0.0563  0.3094 -0.3162
   19CHTO   C68 7811   3.989   7.784   1.090  0.1853  0.1673 -0.5821
   19CHTO  H125 7812   3.980   7.850   1.001  0.6833 -1.0548 -1.5428
   19CHTO   C72 7813   3.925   7.652   1.062 -0.3015  0.0657  0.6618
   19CHTO   O48 7814   3.932   7.561   1.168 -0.0553 -0.5959  0.3314
   19CHTO  H105 7815   3.916   7.479   1.125 -2.3575  0.7062 -1.4158
   19CHTO   O38 7816   4.082   7.909   1.399 -0.1900 -0.4599  0.0325
   19CHTO   C55 7817   4.014   7.812   1.486  0.0558  0.3819  0.3386
   19CHTO  H112 7818   3.965   7.732   1.428  2.7930 -0.8110 -0.3802
   19CHTO   C56 7819   3.914   7.882   1.585 -0.5449  0.2875  0.0233
   19CHTO  H113 7820   3.960   7.965   1.640  1.6905 -0.9219  0.0293
   19CHTO   O42 7821   3.818   7.956   1.502 -0.1354  0.2205  0.3666
   19CHTO  H100 7822   3.728   7.941   1.520 -0.1359  0.8512  0.9115
   19CHTO   C57 7823   3.838   7.780   1.681  0.1299  0.3015  0.2185
   19CHTO  H114 7824   3.775   7.722   1.613 -0.3214 -1.7502  2.3333
   19CHTO   N10 7825   3.755   7.850   1.776 -0.2462 -0.3961  0.5668
   19CHTO  H106 7826   3.658   7.868   1.733  1.1451  0.1500 -2.5194
   19CHTO  H107 7827   3.797   7.944   1.808 -0.2068 -0.0891 -0.3765
   19CHTO   C58 7828   3.942   7.680   1.741 -0.1892 -0.1745  0.3865
   19CHTO  H115 7829   3.997   7.720   1.828  2.2426 -0.5518 -0.9349
   19CHTO   O37 7830   4.036   7.634   1.642  0.1438 -0.0100 -0.5784
   19CHTO   C59 7831   4.112   7.736   1.578 -0.0674  0.2796  0.5456
   19CHTO  H116 7832   4.161   7.799   1.652  2.7576 -1.2348  0.0250
   19CHTO   C70 7833   4.217   7.663   1.494 -0.2648  0.0129 -1.0162
   19CHTO   O46 7834   4.327   7.742   1.460 -0.2514  0.4983 -0.4533
   19CHTO  H103 7835   4.343   7.811   1.521 -0.8365  2.3700 -2.3582
   19CHTO   O39 7836   3.859   7.552   1.791  0.6444  0.7470  0.3320
   19CHTO   C60 7837   3.828   7.460   1.686 -0.2906  0.1026  0.1859
   19CHTO  H117 7838   3.844   7.509   1.590 -0.5923 -0.1295  0.0188
   19CHTO   C62 7839   3.907   7.334   1.717 -0.1335 -0.6861  0.2165
   19CHTO  H119 7840   4.015   7.360   1.730 -0.1012 -1.1272  0.9241
   19CHTO   O43 7841   3.881   7.273   1.848 -0.7744 -0.0449  0.0888
   19CHTO  H101 7842   3.920   7.324   1.916 -0.9171  0.6184 -0.3272
   19CHTO   C66 7843   3.891   7.238   1.588 -0.5640  0.5371  0.4819
   19CHTO  H123 7844   3.911   7.301   1.502  0.8155 -1.3803 -0.6232
   19CHTO   N12 7845   3.991   7.129   1.587  0.0885 -0.4964 -0.4928
   19CHTO  H110 7846   4.068   7.131   1.663 -2.0563 -1.1123  1.7599
   19CHTO  H111 7847   4.044   7.113   1.494  0.6784 -1.2723 -0.0301
   19CHTO   C69 7848   3.746   7.184   1.576 -0.1270  0.0548 -0.2762
   19CHTO  H126 7849   3.731   7.111   1.658  0.2873  0.4002  0.1034
   19CHTO   O41 7850   3.653   7.318   1.580  0.2332  0.4151 -0.2671
   19CHTO   C64 7851   3.676   7.429   1.691  0.2516  0.1345 -0.5556
   19CHTO  H121 7852   3.648   7.388   1.790 -0.2889  2.4274  0.2743
   19CHTO   C71 7853   3.571   7.540   1.676 -0.1668 -0.3043  0.3006
   19CHTO   O47 7854   3.436   7.503   1.651  0.8052  0.2559 -0.5035
   19CHTO  H104 7855   3.413   7.434   1.711  0.6724  1.2796  0.6465
   19CHTO   O34 7856   3.736   7.113   1.455  0.0314  0.1057  0.2715
   19CHTO   C49 7857   3.682   7.115   1.319  0.1432  0.8080  0.4167
   19CHTO   H91 7858   3.577   7.089   1.328  0.2801  0.8400  2.2510
   19CHTO   C47 7859   3.747   7.000   1.238  0.5754  0.5684 -0.6624
   19CHTO   H89 7860   3.688   7.011   1.144 -0.3353  1.2951 -0.0189
   19CHTO   O33 7861   3.713   6.867   1.299 -0.5686 -0.2701 -0.9971
   19CHTO   H70 7862   3.732   6.790   1.249  2.3462 -0.3562  0.1650
   19CHTO   C45 7863   3.898   7.045   1.210 -0.2138  0.4496  0.3061
   19CHTO   H87 7864   3.950   7.082   1.299 -1.5347  0.6942  0.9937
   19CHTO    N8 7865   3.975   6.927   1.155  0.0950  0.2777 -0.0811
   19CHTO   H75 7866   4.082   6.934   1.169  0.4903 -2.6283 -1.2432
   19CHTO   H76 7867   3.949   6.918   1.050 -0.2730  0.6202 -0.0197
   19CHTO   C43 7868   3.900   7.176   1.117  0.1680 -0.2284  0.3082
   19CHTO   H85 7869   4.005   7.203   1.109 -0.5799  2.1002 -2.5709
   19CHTO   O29 7870   3.827   7.274   1.193 -0.0948 -0.3218  0.5973
   19CHTO   C50 7871   3.695   7.248   1.246  0.1714  0.5896 -0.5463
   19CHTO   H92 7872   3.676   7.326   1.321  0.5942 -0.9085  1.1589
   19CHTO   C54 7873   3.577   7.266   1.151  0.3355 -0.5657  0.0834
   19CHTO   O36 7874   3.587   7.394   1.079 -0.2434  0.4936 -0.0807
   19CHTO   H72 7875   3.535   7.396   1.000  0.3938  1.3761 -0.4894
   19CHTO   O27 7876   3.850   7.150   0.982  0.1304  0.4526  0.4774
   19CHTO   C37 7877   3.889   7.191   0.855 -0.3202  0.5837  0.1277
   19CHTO   H79 7878   3.830   7.127   0.788 -0.7820  3.6795 -2.5417
   19CHTO   C38 7879   3.842   7.339   0.827  0.3623  0.5021 -0.6570
   19CHTO   H80 7880   3.861   7.397   0.918 -0.6937  0.3563 -0.3397
   19CHTO   O31 7881   3.696   7.323   0.819 -0.7397 -0.5492  0.3134
   19CHTO   H68 7882   3.660   7.406   0.845 -0.9382 -0.9805  1.4635
   19CHTO   C39 7883   3.904   7.399   0.692 -0.0695 -0.1082  0.3247
   19CHTO   H81 7884   3.848   7.353   0.610 -0.6043 -0.1643  0.7185
   19CHTO    N7 7885   3.867   7.541   0.663  0.7093  0.3940 -0.2239
   19CHTO   H73 7886   3.847   7.546   0.557  0.9816 -1.9395 -0.3965
   19CHTO   H74 7887   3.950   7.607   0.685  0.8210  0.0344  0.4529
   19CHTO   C40 7888   4.062   7.372   0.683 -0.2384 -0.1521 -0.7847
   19CHTO   H82 7889   4.098   7.433   0.766 -2.4709 -1.5562  1.2624
   19CHTO   O26 7890   4.091   7.237   0.708 -0.1346  0.4332 -0.3164
   19CHTO   C41 7891   4.037   7.174   0.828 -0.6001 -0.4802 -0.0262
   19CHTO   H83 7892   4.089   7.225   0.910  0.0998  1.3977 -1.6033
   19CHTO   C52 7893   4.092   7.032   0.833 -0.1917  0.2459 -0.2304
   19CHTO   O35 7894   4.032   6.942   0.704  0.0641  0.6122 -0.0511
   19CHTO   H71 7895   3.999   6.860   0.735 -1.0699  0.3991 -1.8084
   19CHTO   O28 7896   4.120   7.417   0.560 -0.6761  0.2939  0.1228
   19CHTO   C42 7897   4.240   7.498   0.560 -0.0045 -0.0585 -0.4174
   19CHTO   H84 7898   4.248   7.524   0.666 -0.9169  0.8997 -0.5721
   19CHTO   C44 7899   4.231   7.637   0.483 -0.0991 -0.6997 -0.0284
   19CHTO   H86 7900   4.197   7.625   0.380 -0.2486  0.7369 -0.1579
   19CHTO   O32 7901   4.125   7.723   0.541 -0.4128  0.4720  0.3674
   19CHTO   H69 7902   4.041   7.684   0.525  0.9218 -1.9445 -1.0457
   19CHTO   C48 7903   4.368   7.718   0.473 -0.1292  0.3427 -0.2614
   19CHTO   H90 7904   4.374   7.762   0.573  2.3330  1.0801 -0.7140
   19CHTO    N9 7905   4.379   7.830   0.379  0.6514 -0.0341 -0.1210
   19CHTO   H77 7906   4.464   7.824   0.313 -0.3812 -0.8077 -1.3955
   19CHTO   H78 7907   4.367   7.923   0.433  0.2320 -0.2735  0.2048
   19CHTO   C51 7908   4.484   7.613   0.453  0.2560  0.4303 -0.5285
   19CHTO   H93 7909   4.488   7.585   0.348 -0.0546 -1.5871 -0.0102
   19CHTO   O30 7910   4.485   7.496   0.538  0.6338 -0.2441  0.3909
   19CHTO   C46 7911   4.364   7.424   0.513 -0.0604  0.3796 -0.5148
   19CHTO   H88 7912   4.356   7.402   0.406  0.2064 -1.9423 -0.0826
   19CHTO   C53 7913   4.376   7.291   0.589  0.2004 -0.6733 -0.6531
   19CHTO   O72 7914   4.482   7.210   0.540  0.4540  0.0396  0.5317
   19CHTO  H199 7915   4.480   7.210   0.446  1.5854  0.4296  0.4952
   19CHTO   O22 7916   4.607   7.686   0.484 -0.0382 -0.1788 -0.4334
   19CHTO   C31 7917   4.736   7.618   0.443  0.0784  0.0943  0.5074
   19CHTO   H59 7918   4.711   7.519   0.400 -1.9282  0.5171  0.6477
   19CHTO   C29 7919   4.810   7.699   0.335 -0.0170 -0.9829  0.2497
   19CHTO   H57 7920   4.833   7.797   0.381 -0.5033 -0.6840 -0.1438
   19CHTO   O21 7921   4.717   7.714   0.226  0.1399  0.5980 -0.0957
   19CHTO   H37 7922   4.678   7.799   0.213 -1.0001  0.3056  1.2356
   19CHTO   C27 7923   4.944   7.625   0.300 -0.2697  0.8884 -0.1907
   19CHTO   H55 7924   4.918   7.534   0.244 -3.0278  1.5245 -0.0263
   19CHTO    N5 7925   5.026   7.710   0.207 -0.1801  0.1482  0.1578
   19CHTO   H43 7926   5.044   7.798   0.268 -2.0926 -0.5422  1.7823
   19CHTO   H44 7927   5.119   7.664   0.177  0.0851  2.3857 -2.7104
   19CHTO   C25 7928   5.030   7.600   0.433 -0.5845  0.6721 -0.3821
   19CHTO   H53 7929   5.067   7.693   0.478  0.7675 -0.1291  0.1742
   19CHTO   O17 7930   4.952   7.531   0.535 -0.2819  0.3813 -0.4958
   19CHTO   C32 7931   4.835   7.599   0.565 -0.7515 -0.1430  0.0938
   19CHTO   H60 7932   4.871   7.699   0.592  0.4150 -0.2050 -1.1877
   19CHTO   C36 7933   4.782   7.527   0.691  0.1726 -0.2918  0.3013
   19CHTO   O25 7934   4.753   7.385   0.662  0.3396 -0.5891 -0.9173
   19CHTO   H40 7935   4.820   7.340   0.615 -0.1914 -1.1137 -1.1883
   19CHTO   O15 7936   5.169   7.519   0.401  0.1833  0.0509  0.0311
   19CHTO   C19 7937   5.207   7.416   0.315  0.0968  0.1848 -0.0100
   19CHTO   H47 7938   5.156   7.430   0.218 -0.1951 -0.7157  0.0120
   19CHTO   C20 7939   5.363   7.429   0.291  0.3570  0.6450  0.1301
   19CHTO   H48 7940   5.417   7.422   0.386  0.0730 -0.0808  0.2401
   19CHTO   O19 7941   5.390   7.561   0.236 -0.3460 -0.1322  0.0797
   19CHTO   H35 7942   5.480   7.568   0.212 -0.6730  0.4184 -1.0538
   19CHTO   C21 7943   5.417   7.321   0.188  0.1273 -0.3121  0.6312
   19CHTO   H49 7944   5.389   7.353   0.088  0.3880 -0.3192  0.5551
   19CHTO    N4 7945   5.565   7.318   0.181 -0.1583  0.1418  0.0572
   19CHTO   H41 7946   5.596   7.219   0.209  0.9972  0.1401 -1.1945
   19CHTO   H42 7947   5.611   7.392   0.245 -0.9853 -0.3105  1.1816
   19CHTO   C22 7948   5.355   7.185   0.226  0.2668 -0.6574 -0.7769
   19CHTO   H50 7949   5.407   7.143   0.311 -0.1295  2.8957  1.3411
   19CHTO   O14 7950   5.214   7.186   0.252 -0.0327  0.1644  0.0228
   19CHTO   C23 7951   5.170   7.269   0.360  0.0653 -0.3670  0.2768
   19CHTO   H51 7952   5.218   7.238   0.454 -1.4191 -1.8393  0.5728
   19CHTO   C34 7953   5.015   7.253   0.368 -0.2175  0.6662 -0.1418
   19CHTO   O23 7954   4.988   7.114   0.395  0.3358  0.5989 -0.3490
   19CHTO   H38 7955   4.915   7.095   0.449  1.6001 -1.1873  0.7737
   19CHTO   O16 7956   5.356   7.092   0.117 -0.4678  0.0532 -0.3201
   19CHTO   C24 7957   5.447   6.966   0.131 -0.2927 -0.0636  0.3818
   19CHTO   H52 7958   5.524   6.977   0.207  0.1175 -0.5641  0.0500
   19CHTO   C26 7959   5.521   6.954  -0.007  0.6133  0.0360 -0.2835
   19CHTO   H54 7960   5.442   6.972  -0.083 -2.4461 -0.6322  2.6086
   19CHTO   O20 7961   5.622   7.051  -0.004  0.1289  0.2851  0.0677
   19CHTO   H36 7962   5.663   7.058  -0.089  0.3651 -2.5821 -0.1065
   19CHTO   C30 7963   5.575   6.809  -0.031 -0.0433 -0.3611 -0.0263
   19CHTO   H58 7964   5.670   6.793   0.023  0.1899 -0.3112 -0.4156
   19CHTO    N6 7965   5.609   6.793  -0.173 -0.7243  0.3926 -0.4606
   19CHTO   H45 7966   5.657   6.697  -0.186 -0.4974  0.6219 -1.3514
   19CHTO   H46 7967   5.523   6.793  -0.238 -0.8181  1.7024 -0.3399
   19CHTO   C33 7968   5.473   6.699   0.009 -1.0588 -0.0148 -0.3087
   19CHTO   H61 7969   5.377   6.717  -0.042 -0.7676  2.0958 -0.1522
   19CHTO   O18 7970   5.447   6.720   0.148 -0.1508  0.1475  0.7033
   19CHTO   C28 7971   5.361   6.837   0.167 -0.4795  0.0298  0.3328
   19CHTO   H56 7972   5.275   6.826   0.101  0.4589 -0.8191 -0.7874
   19CHTO   C35 7973   5.302   6.852   0.314  0.4558 -0.7063 -0.5982
   19CHTO   O24 7974   5.401   6.842   0.414 -0.1066  0.0599 -0.1867
   19CHTO   H39 7975   5.474   6.900   0.403  0.0819 -0.4730 -1.8605
   19CHTO    O9 7976   5.510   6.557  -0.019  0.4899 -0.8871 -0.1811
   19CHTO   C13 7977   5.365   6.455  -0.027 -0.2516 -0.1580 -0.1077
   19CHTO   H26 7978   5.314   6.479  -0.123 -1.1374 -2.6458 -0.2941
   19CHTO   C11 7979   5.266   6.465   0.102  0.0774  0.4259  0.4221
   19CHTO   H24 7980   5.215   6.562   0.111  2.4285  1.5898  1.5754
   19CHTO    O8 7981   5.343   6.456   0.222  0.4501  0.3572 -1.0296
   19CHTO    H3 7982   5.294   6.493   0.293  1.2450 -0.1293 -0.2016
   19CHTO    C9 7983   5.162   6.355   0.086  0.0935 -0.3979  0.4539
   19CHTO   H22 7984   5.110   6.372  -0.009 -1.2096 -1.1626  1.0121
   19CHTO    N2 7985   5.053   6.368   0.185  0.1734  0.2701  0.8003
   19CHTO   H10 7986   5.073   6.346   0.289  1.2593 -0.0808  0.5156
   19CHTO   H11 7987   4.968   6.310   0.150 -0.3517  2.2029 -1.2352
   19CHTO    C7 7988   5.225   6.208   0.077 -0.5032  0.5590 -0.0073
   19CHTO   H20 7989   5.188   6.170  -0.021 -1.6072  0.3806  0.4746
   19CHTO    O4 7990   5.370   6.211   0.060  0.0233 -0.5351 -0.0189
   19CHTO   C14 7991   5.420   6.298  -0.039  0.0061 -1.5136  0.5026
   19CHTO   H27 7992   5.392   6.260  -0.139 -1.7030  0.9676 -0.0198
   19CHTO   C18 7993   5.573   6.293  -0.029 -0.3229  0.3772  0.2051
   19CHTO   O13 7994   5.628   6.178  -0.087  0.3539  0.0779  0.1289
   19CHTO    H7 7995   5.701   6.192  -0.144 -0.0881 -0.3144 -0.5430
   19CHTO    O2 7996   5.181   6.092   0.211  0.2376  0.4355 -0.5155
   19CHTO    C1 7997   5.144   5.960   0.156 -0.0777  0.0276  0.0526
   19CHTO   H14 7998   5.222   5.935   0.081 -0.1278  0.1458 -0.0394
   19CHTO    C2 7999   5.001   5.946   0.087  0.4520  0.3891 -0.5539
   19CHTO   H15 8000   4.933   5.994   0.158 -0.8988  0.4830 -1.8736
   19CHTO    O6 8001   5.000   6.026  -0.033 -0.1747  0.6776 -0.1141
   19CHTO    H1 8002   4.937   6.095  -0.030 -1.0180 -0.0808 -0.3500
   19CHTO    C3 8003   4.946   5.801   0.070  0.0721 -0.1623  0.2466
   19CHTO   H16 8004   4.997   5.743  -0.008  0.3435  0.9594 -0.4241
   19CHTO    N1 8005   4.799   5.805   0.034 -0.1862 -0.0486 -0.2012
   19CHTO    H8 8006   4.774   5.739  -0.049 -0.5057  0.6921 -0.6943
   19CHTO    H9 8007   4.734   5.775   0.114  0.0871 -2.2505 -0.7534
   19CHTO    C4 8008   4.968   5.723   0.203  0.4451 -0.9052  0.2380
   19CHTO   H17 8009   4.902   5.761   0.281  0.5788 -2.3940  1.0834
   19CHTO    O1 8010   5.104   5.722   0.241  0.1171  0.9474 -0.7166
   19CHTO    C5 8011   5.155   5.855   0.274  0.1372 -0.2458  0.4393
   19CHTO   H18 8012   5.084   5.874   0.354 -1.7048  1.1206 -1.4943
   19CHTO   C16 8013   5.296   5.833   0.330  0.2066 -1.1712 -0.2080
   19CHTO   O11 8014   5.366   5.952   0.367 -0.1030 -0.0037 -0.5839
   19CHTO    H5 8015   5.438   5.966   0.308  2.3271  2.7581  2.8379
   19CHTO    O3 8016   4.941   5.587   0.171 -0.1088  0.2639  0.8328
   19CHTO    C6 8017   4.879   5.502   0.270  0.5419 -0.1681 -0.2786
   19CHTO   H19 8018   4.844   5.559   0.357 -1.3403  0.2610 -1.2892
   19CHTO    C8 8019   4.748   5.446   0.205 -0.5107  0.6279 -0.1445
   19CHTO   H21 8020   4.776   5.384   0.120  1.5089 -1.1633  1.7387
   19CHTO    O7 8021   4.655   5.552   0.176  0.0718 -0.3958  0.0016
   19CHTO    H2 8022   4.662   5.620   0.240  0.0883 -0.4983  0.1093
   19CHTO   C12 8023   4.674   5.340   0.305 -0.3581 -0.8968  0.4329
   19CHTO   H25 8024   4.625   5.400   0.385 -0.3857 -0.5687  0.1735
   19CHTO    N3 8025   4.561   5.272   0.232  0.0132 -0.0868  1.0359
   19CHTO   H12 8026   4.586   5.253   0.129  1.0084  0.2675  1.2035
   19CHTO   H13 8027   4.479   5.342   0.235  1.5078  1.6465  4.4270
   19CHTO   C15 8028   4.771   5.251   0.375 -0.0578 -0.1935  0.3615
   19CHTO   H28 8029   4.816   5.175   0.312  1.2930  0.3321  0.6752
   19CHTO   O10 8030   4.712   5.186   0.508  0.0383 -0.0993 -0.0420
   19CHTO    H4 8031   4.630   5.143   0.496  0.2061  0.0329 -1.7122
   19CHTO    O5 8032   4.888   5.317   0.422  0.2452 -0.4329 -0.0289
   19CHTO   C10 8033   4.967   5.385   0.326 -0.6442  0.7347  0.4495
   19CHTO   H23 8034   4.996   5.322   0.243 -0.7584 -1.1468  1.7976
   19CHTO   C17 8035   5.095   5.420   0.396 -0.9146  0.0269 -0.9506
   19CHTO   O12 8036   5.200   5.462   0.317  0.9603 -0.5288 -0.3264
   19CHTO    H6 8037   5.174   5.535   0.264  2.0957 -0.7059 -1.1449
   20CHTO  H203 8038   4.695   1.289   2.444  1.5318  0.3590  0.3389
   20CHTO   O82 8039   4.710   1.344   2.369  0.2542  0.2925  0.0298
   20CHTO  C123 8040   4.720   1.274   2.243 -0.9362  0.3744 -0.1422
   20CHTO  H227 8041   4.621   1.247   2.203 -0.6086 -1.6858  0.3582
   20CHTO   O77 8042   4.793   1.375   2.163  0.0506  0.1410 -0.7462
   20CHTO  C118 8043   4.824   1.335   2.028 -0.6084  0.0604  0.2205
   20CHTO  H222 8044   4.736   1.286   1.983 -0.5761  0.3270 -0.1401
   20CHTO  C125 8045   4.858   1.465   1.941 -0.5581 -0.0831 -0.1879
   20CHTO   O84 8046   4.975   1.529   1.983 -0.0120 -0.0173  0.2202
   20CHTO  H205 8047   4.957   1.596   2.046 -1.9520 -1.0364  0.7943
   20CHTO  C114 8048   4.934   1.229   2.032  0.1649  0.3643  0.0236
   20CHTO  H218 8049   5.020   1.284   2.071 -0.0849  1.3116 -0.7456
   20CHTO  C116 8050   4.906   1.115   2.130 -0.5579  0.7479 -0.6653
   20CHTO  H220 8051   4.834   1.055   2.071 -1.6063  0.6617  0.6892
   20CHTO   O79 8052   5.034   1.044   2.161  0.4228  0.0955 -0.4062
   20CHTO  H201 8053   5.042   0.968   2.107 -0.9986 -1.0549  0.9385
   20CHTO  C120 8054   4.816   1.148   2.259 -0.2556 -0.1665  0.4614
   20CHTO  H224 8055   4.882   1.182   2.341 -0.9136 -0.2213  1.0149
   20CHTO   N21 8056   4.755   1.024   2.315  0.2754 -0.6235  0.2295
   20CHTO  H211 8057   4.659   1.004   2.272 -1.1460  1.0179  2.4849
   20CHTO  H212 8058   4.731   1.044   2.419  0.4792  0.2094  0.1227
   20CHTO   O75 8059   4.960   1.203   1.889  0.5007  0.3287 -0.4343
   20CHTO  C112 8060   5.133   1.176   1.869 -0.1155  0.2465 -0.4271
   20CHTO  H216 8061   5.151   1.087   1.930  2.8216 -0.0963 -1.7136
   20CHTO   O73 8062   5.209   1.287   1.916  0.8022  0.2142  0.2705
   20CHTO  C113 8063   5.344   1.286   1.881 -0.5465  0.2362 -0.3489
   20CHTO  H217 8064   5.395   1.195   1.919 -0.2733  0.7851  0.6045
   20CHTO  C124 8065   5.424   1.390   1.966  0.7151  0.6549 -0.0260
   20CHTO   O83 8066   5.418   1.371   2.107 -0.0864  0.4327  0.1353
   20CHTO  H204 8067   5.451   1.286   2.129  1.4094  0.7729 -0.7287
   20CHTO  C109 8068   5.365   1.291   1.721 -0.8618  0.3062 -0.2904
   20CHTO  H213 8069   5.314   1.383   1.689  0.1617  0.7359 -0.6995
   20CHTO  C110 8070   5.308   1.158   1.671  0.4066 -0.6090  0.0633
   20CHTO  H214 8071   5.363   1.078   1.720 -3.2059 -1.7815  2.4023
   20CHTO   O78 8072   5.336   1.147   1.531 -0.0979  0.4154  0.2967
   20CHTO  H200 8073   5.407   1.199   1.500 -1.3146  1.2944 -1.0892
   20CHTO  C111 8074   5.161   1.150   1.712  0.2900 -0.2363 -0.2141
   20CHTO  H215 8075   5.105   1.229   1.659  1.1551  0.4592 -0.1169
   20CHTO   N19 8076   5.094   1.022   1.681 -0.1823  0.0406 -0.2665
   20CHTO  H207 8077   5.148   0.940   1.726 -0.7161 -0.7200 -1.0176
   20CHTO  H208 8078   5.093   1.003   1.575 -0.6118 -1.7835  0.0622
   20CHTO   O74 8079   5.515   1.303   1.702  0.0927  0.3193  0.2428
   20CHTO  C115 8080   5.548   1.454   1.644  0.1268  0.3689 -0.1210
   20CHTO  H219 8081   5.485   1.531   1.689  0.0326  0.9560 -1.2486
   20CHTO   O76 8082   5.703   1.497   1.669 -0.0063 -0.2789  0.0827
   20CHTO  C122 8083   5.806   1.453   1.580  0.3407 -0.0639 -0.0751
   20CHTO  H226 8084   5.829   1.348   1.597 -1.6469 -0.2414  1.8010
   20CHTO  C126 8085   5.933   1.525   1.621 -0.4775  0.0415  0.2155
   20CHTO   O85 8086   6.047   1.450   1.575 -0.1967  0.2246  0.0635
   20CHTO  H206 8087   6.124   1.465   1.628 -0.2007  2.7781 -0.5625
   20CHTO  C121 8088   5.765   1.473   1.427  0.0306  0.3207 -0.5513
   20CHTO  H225 8089   5.840   1.539   1.378  1.1129  0.1964  0.9082
   20CHTO   O81 8090   5.755   1.345   1.364  0.5726  0.4692 -0.2128
   20CHTO  H202 8091   5.777   1.344   1.273 -1.4337  2.7342 -0.7520
   20CHTO  C119 8092   5.630   1.534   1.406  0.7097 -0.3743 -0.3023
   20CHTO  H223 8093   5.643   1.636   1.443 -1.3056 -0.1767 -0.0749
   20CHTO  C117 8094   5.515   1.465   1.489 -0.7651  0.7141  0.9140
   20CHTO  H221 8095   5.506   1.358   1.472  0.7877  0.7817 -0.3812
   20CHTO   N20 8096   5.378   1.519   1.456  0.0181 -0.1967  0.0572
   20CHTO  H209 8097   5.366   1.618   1.498 -0.8190 -1.5097  3.0840
   20CHTO  H210 8098   5.362   1.509   1.350 -1.7506 -1.0572  0.3879
   20CHTO   O80 8099   5.588   1.567   1.245 -0.2998  0.0154 -0.2264
   20CHTO  C103 8100   5.693   1.655   1.151  0.0805 -0.0241 -0.1410
   20CHTO  H190 8101   5.758   1.713   1.217 -0.2450  1.1308 -0.8218
   20CHTO  C101 8102   5.779   1.572   1.056 -0.2852  0.2060 -0.0745
   20CHTO  H188 8103   5.714   1.514   0.989 -0.5813 -1.3016  1.4894
   20CHTO   O68 8104   5.878   1.490   1.128 -0.3850  0.0490 -0.6938
   20CHTO  H168 8105   5.939   1.446   1.071  0.1959 -2.4458  1.7798
   20CHTO   C99 8106   5.862   1.684   0.962 -0.4849 -0.2783 -0.4348
   20CHTO  H186 8107   5.924   1.743   1.033 -0.8747  0.0477 -0.3623
   20CHTO   N17 8108   5.969   1.617   0.879 -0.4525  0.0368  0.0298
   20CHTO  H174 8109   5.969   1.650   0.776  1.5057 -1.6447 -0.5757
   20CHTO  H175 8110   6.067   1.632   0.923 -0.9462  1.8896  0.5304
   20CHTO   C97 8111   5.768   1.784   0.898 -0.0240 -0.0676 -0.3550
   20CHTO  H184 8112   5.712   1.727   0.822  0.1037  0.3791 -0.7916
   20CHTO   O64 8113   5.683   1.847   0.992  0.2886  0.3328 -0.7913
   20CHTO  C104 8114   5.606   1.748   1.071  0.7629  0.3662  0.1250
   20CHTO  H191 8115   5.536   1.693   1.008 -1.9671  2.9806  0.7286
   20CHTO  C108 8116   5.519   1.838   1.153 -0.4597  0.0407 -0.3229
   20CHTO   O71 8117   5.393   1.864   1.101 -0.4562  0.1014 -0.2742
   20CHTO  H171 8118   5.374   1.818   1.021 -0.0398  1.9759 -1.5066
   20CHTO   O62 8119   5.841   1.894   0.843  0.4151 -0.0947 -0.1044
   20CHTO   C91 8120   5.764   1.988   0.761  0.1050 -0.0810  0.4979
   20CHTO  H178 8121   5.661   1.968   0.789 -0.4864  0.8365 -0.9840
   20CHTO   C92 8122   5.760   1.944   0.612 -0.0371  0.2306 -0.4569
   20CHTO  H179 8123   5.858   1.952   0.563  0.8976 -0.4375  1.2590
   20CHTO   O66 8124   5.718   1.803   0.600 -0.4971  0.1407  0.1166
   20CHTO  H166 8125   5.798   1.755   0.614 -1.7753 -2.0938  0.0920
   20CHTO   C93 8126   5.656   2.032   0.534  0.2488 -0.3549  0.0893
   20CHTO  H180 8127   5.555   2.009   0.569  0.3119 -0.7044  0.0439
   20CHTO   N16 8128   5.650   2.012   0.391 -0.1081  0.2695 -0.4426
   20CHTO  H172 8129   5.557   1.965   0.364 -0.8525  2.6253 -2.1308
   20CHTO  H173 8130   5.729   1.952   0.347  0.4260 -1.0199  2.1946
   20CHTO   C94 8131   5.679   2.189   0.554  0.0321  0.3870  0.2363
   20CHTO  H181 8132   5.772   2.223   0.509  1.1054 -1.3203  1.1192
   20CHTO   O61 8133   5.694   2.212   0.697  0.3179 -0.6168  0.6245
   20CHTO   C95 8134   5.796   2.143   0.767  0.9850 -0.5084  0.2851
   20CHTO  H182 8135   5.895   2.156   0.724  1.2852 -2.1179  0.4657
   20CHTO  C106 8136   5.798   2.172   0.918 -0.6719  0.4632  0.6546
   20CHTO   O69 8137   5.914   2.119   0.991  0.3553  0.2672 -0.7005
   20CHTO  H169 8138   5.876   2.074   1.063 -1.2786 -0.4304 -1.9692
   20CHTO   O63 8139   5.540   2.293   0.504  0.3392  0.0463  0.5681
   20CHTO   C96 8140   5.573   2.406   0.379 -0.7225 -0.0519  1.0859
   20CHTO  H183 8141   5.480   2.461   0.366  0.0568  1.6446  2.5655
   20CHTO   C98 8142   5.624   2.348   0.241 -0.1001 -0.3892  0.2370
   20CHTO  H185 8143   5.713   2.285   0.255 -0.6441 -1.2128  0.0288
   20CHTO   O67 8144   5.523   2.262   0.191  0.3351 -0.2574 -0.0112
   20CHTO  H167 8145   5.542   2.175   0.221 -2.0186 -0.3860  1.2298
   20CHTO  C102 8146   5.648   2.471   0.138 -0.1034 -0.0872 -0.7327
   20CHTO  H189 8147   5.548   2.513   0.119 -0.2276  0.0187  0.1244
   20CHTO   N18 8148   5.699   2.436   0.005 -0.0865 -0.9069  0.5581
   20CHTO  H176 8149   5.806   2.425   0.015  0.1441  1.7551  1.2318
   20CHTO  H177 8150   5.684   2.515  -0.066 -0.1556 -1.1067  0.3492
   20CHTO  C105 8151   5.725   2.592   0.203 -0.0957  0.1732  0.2019
   20CHTO  H192 8152   5.831   2.572   0.212 -0.4381 -1.7159  0.3081
   20CHTO   O65 8153   5.675   2.621   0.341 -0.0947 -0.1779 -0.0469
   20CHTO  C100 8154   5.679   2.515   0.438  0.5627  0.2004  0.6521
   20CHTO  H187 8155   5.781   2.475   0.444  1.7825  2.9993 -0.6791
   20CHTO  C107 8156   5.635   2.579   0.578  0.2528 -0.1283  0.1696
   20CHTO   O70 8157   5.665   2.493   0.681  0.0683  0.6205  0.0244
   20CHTO  H170 8158   5.630   2.409   0.659 -0.9630  0.9214  0.4936
   20CHTO   O57 8159   5.689   2.717   0.108  0.8910  0.3792  0.1218
   20CHTO   C85 8160   5.772   2.833   0.099  0.0902 -0.0682 -0.4105
   20CHTO  H157 8161   5.825   2.837   0.196 -0.7208 -0.4981  0.0531
   20CHTO   C83 8162   5.676   2.954   0.101  0.3424  0.3168  0.6637
   20CHTO  H155 8163   5.612   2.948   0.189 -0.9958 -2.4107 -0.4273
   20CHTO   O56 8164   5.582   2.943  -0.010  0.7719 -0.1913 -0.3503
   20CHTO  H135 8165   5.587   3.027  -0.051  1.9439  0.0881  0.3498
   20CHTO   C81 8166   5.761   3.081   0.102 -0.1434 -0.1793 -0.1161
   20CHTO  H153 8167   5.834   3.070   0.182 -0.7627  1.5826  0.7223
   20CHTO   N14 8168   5.680   3.206   0.124  0.4105  0.9151  0.0741
   20CHTO  H141 8169   5.715   3.264   0.207 -0.8985  0.5893  0.8622
   20CHTO  H142 8170   5.576   3.184   0.138  1.1113 -2.6284  0.1064
   20CHTO   C79 8171   5.847   3.097  -0.031  0.2711  0.8668  0.3708
   20CHTO  H151 8172   5.915   3.180  -0.012  2.3608 -0.1024 -2.4236
   20CHTO   O52 8173   5.928   2.979  -0.028  0.0007  0.5530  0.4930
   20CHTO   C86 8174   5.871   2.846  -0.021  0.2377 -0.0486  0.2396
   20CHTO  H158 8175   5.813   2.850  -0.115 -0.4535  0.5712  0.6854
   20CHTO   C90 8176   5.975   2.728  -0.026  0.2062  0.6169  0.4684
   20CHTO   O60 8177   6.045   2.735  -0.151 -0.6662  0.3455 -0.3516
   20CHTO  H138 8178   5.985   2.714  -0.220 -0.6488 -1.4603  0.1583
   20CHTO   O50 8179   5.770   3.101  -0.152  0.0184 -0.2621 -0.0780
   20CHTO   C73 8180   5.804   3.148  -0.282  0.0024  0.6332 -0.0188
   20CHTO  H145 8181   5.894   3.103  -0.326  0.6066  2.8039 -1.0857
   20CHTO   C74 8182   5.823   3.305  -0.269  0.0389 -0.2358  0.5890
   20CHTO  H146 8183   5.892   3.320  -0.185 -0.2222 -1.7020  1.0752
   20CHTO   O54 8184   5.882   3.354  -0.391 -0.5665 -0.3024  0.2361
   20CHTO  H133 8185   5.897   3.444  -0.372  0.7585 -0.1228 -1.4956
   20CHTO   C75 8186   5.684   3.375  -0.239  0.3200  0.3427  0.6567
   20CHTO  H147 8187   5.650   3.351  -0.136 -0.5745  1.8316  0.7277
   20CHTO   N13 8188   5.695   3.523  -0.226  0.3762  0.2614  0.0435
   20CHTO  H139 8189   5.739   3.557  -0.320  0.9300 -1.4016 -0.3212
   20CHTO  H140 8190   5.602   3.577  -0.217 -0.5351 -1.1811 -0.5905
   20CHTO   C76 8191   5.565   3.326  -0.341  0.5486  0.1846  0.4164
   20CHTO  H148 8192   5.593   3.368  -0.438  1.7946  0.0581  0.7114
   20CHTO   O49 8193   5.566   3.181  -0.339  0.3201  0.1237 -0.5076
   20CHTO   C77 8194   5.687   3.115  -0.383 -0.3022  0.2517 -0.1773
   20CHTO  H149 8195   5.721   3.147  -0.482 -0.7984  0.8492 -0.1615
   20CHTO   C88 8196   5.663   2.961  -0.396 -0.2310 -0.1397 -0.0970
   20CHTO   O58 8197   5.540   2.949  -0.503 -0.2985 -0.3915 -0.1095
   20CHTO  H136 8198   5.512   2.861  -0.517 -0.8881  0.0083 -1.4993
   20CHTO   O51 8199   5.400   3.349  -0.289 -1.1753  0.2320  0.5584
   20CHTO   C78 8200   5.351   3.276  -0.151 -0.1315  1.1316  0.4873
   20CHTO  H150 8201   5.435   3.216  -0.110  0.2176  0.4947 -1.0831
   20CHTO   C80 8202   5.237   3.179  -0.178  0.2408 -0.3515 -0.1269
   20CHTO  H152 8203   5.149   3.241  -0.204  1.2988  0.6789 -1.3139
   20CHTO   O55 8204   5.287   3.100  -0.287  0.4101 -0.1089  0.3947
   20CHTO  H134 8205   5.225   3.035  -0.313  1.1192 -0.4542 -0.4751
   20CHTO   C84 8206   5.195   3.099  -0.051  0.3301  0.0615 -0.4667
   20CHTO  H156 8207   5.286   3.047  -0.021 -1.4998 -0.8785  3.8884
   20CHTO   N15 8208   5.074   3.009  -0.078  0.1092 -0.0189  0.6710
   20CHTO  H143 8209   4.994   3.021  -0.008 -1.3377  0.6650 -1.0536
   20CHTO  H144 8210   5.108   2.908  -0.071 -0.5010 -0.4553 -2.1163
   20CHTO   C87 8211   5.166   3.194   0.069 -0.9110 -0.2478  0.8919
   20CHTO  H159 8212   5.074   3.251   0.064  0.1510  1.4703  0.2775
   20CHTO   O53 8213   5.286   3.306   0.082 -0.0952  0.4524  0.2499
   20CHTO   C82 8214   5.305   3.376  -0.041  0.2039 -0.1895  0.5741
   20CHTO  H154 8215   5.212   3.426  -0.065  0.2149  0.1669  1.2432
   20CHTO   C89 8216   5.406   3.494  -0.013 -0.2677  0.1649 -0.7286
   20CHTO   O59 8217   5.360   3.599   0.073  0.2388 -0.3041  0.4486
   20CHTO  H137 8218   5.431   3.621   0.131  0.3184  0.0578  0.2151
   20CHTO   O45 8219   5.168   3.123   0.208 -0.2798  0.1534  0.3355
   20CHTO   C67 8220   5.289   3.082   0.278 -0.3946 -0.5638 -0.3945
   20CHTO  H124 8221   5.367   3.066   0.203  0.4708 -0.7208  0.5228
   20CHTO   C65 8222   5.346   3.183   0.393  0.3738  0.3000  0.0072
   20CHTO  H122 8223   5.345   3.279   0.342  0.1924 -0.2638 -1.0772
   20CHTO   O44 8224   5.482   3.167   0.419  0.6693 -0.8202  0.5499
   20CHTO  H102 8225   5.510   3.094   0.470  1.1174 -0.3674  0.9638
   20CHTO   C63 8226   5.238   3.197   0.511 -0.0350 -0.4525 -0.3644
   20CHTO  H120 8227   5.142   3.210   0.461  0.2004 -1.8438 -1.1992
   20CHTO   N11 8228   5.266   3.308   0.603  0.4059 -0.7782  0.0368
   20CHTO  H108 8229   5.174   3.338   0.651  0.4598  0.7868 -0.8138
   20CHTO  H109 8230   5.345   3.310   0.675 -1.2710  2.7270  1.9286
   20CHTO   C61 8231   5.218   3.055   0.577  0.0737 -0.5518  0.2064
   20CHTO  H118 8232   5.125   3.072   0.633  0.4684 -0.7755  0.9413
   20CHTO   O40 8233   5.190   2.953   0.481  0.3757  0.1518  0.3082
   20CHTO   C68 8234   5.269   2.938   0.348  0.0065 -0.1848  0.2950
   20CHTO  H125 8235   5.213   2.871   0.281 -0.9864 -0.5776  1.5158
   20CHTO   C72 8236   5.406   2.872   0.369 -0.3882  0.3119 -0.0966
   20CHTO   O48 8237   5.406   2.730   0.341 -0.1171  0.3871  0.4376
   20CHTO  H105 8238   5.452   2.719   0.260  1.4406  0.1272  1.3236
   20CHTO   O38 8239   5.323   2.997   0.661  0.0314 -0.0892 -0.0757
   20CHTO   C55 8240   5.278   2.915   0.774  0.6838  0.2997  0.3109
   20CHTO  H112 8241   5.168   2.904   0.770  0.5218  1.7246  0.8049
   20CHTO   C56 8242   5.322   2.980   0.907 -0.3117 -0.4749 -0.3239
   20CHTO  H113 8243   5.419   3.029   0.892  0.3910 -0.0638  4.6201
   20CHTO   O42 8244   5.237   3.086   0.939  0.1882 -0.0661 -0.1103
   20CHTO  H100 8245   5.254   3.162   0.887  1.1573 -0.8011 -0.8781
   20CHTO   C57 8246   5.313   2.880   1.038  0.4725  0.0130  0.8538
   20CHTO  H114 8247   5.205   2.873   1.054  0.5940  0.4949  1.9244
   20CHTO   N10 8248   5.388   2.934   1.153  0.3923 -0.1525 -0.0960
   20CHTO  H106 8249   5.418   2.852   1.217 -0.1636  0.5910  1.1082
   20CHTO  H107 8250   5.327   2.998   1.214  1.7651  0.6376  0.4885
   20CHTO   C58 8251   5.369   2.742   1.004  0.1996  0.6359  0.1292
   20CHTO  H115 8252   5.479   2.757   0.992 -0.2665  1.8949 -2.8727
   20CHTO   O37 8253   5.303   2.695   0.892 -0.8115 -0.3942  0.0555
   20CHTO   C59 8254   5.331   2.769   0.768 -0.6501  0.1899  0.6946
   20CHTO  H116 8255   5.439   2.773   0.759 -0.6409  0.1432  0.7856
   20CHTO   C70 8256   5.280   2.686   0.644 -0.8668 -0.1648  0.2126
   20CHTO   O46 8257   5.135   2.677   0.654 -0.8900 -0.2449  0.4204
   20CHTO  H103 8258   5.110   2.671   0.564  4.3270  1.4512 -1.3809
   20CHTO   O39 8259   5.331   2.633   1.130  0.2983 -0.5273 -0.4170
   20CHTO   C60 8260   5.276   2.508   1.094  0.5008  0.2404 -0.1076
   20CHTO  H117 8261   5.200   2.523   1.018 -0.4386 -0.1707  0.7429
   20CHTO   C62 8262   5.394   2.416   1.028 -0.3163  0.3614 -0.2598
   20CHTO  H119 8263   5.438   2.481   0.951  0.1658  1.3298  0.8184
   20CHTO   O43 8264   5.501   2.397   1.126 -0.2848  0.0513  0.2427
   20CHTO  H101 8265   5.468   2.328   1.180 -1.2569  0.5805  0.3359
   20CHTO   C66 8266   5.331   2.275   0.966  0.0582 -0.0912  0.0907
   20CHTO  H123 8267   5.236   2.296   0.915 -0.1555 -1.6833 -0.1932
   20CHTO   N12 8268   5.425   2.206   0.873 -0.0793 -0.1426 -0.6428
   20CHTO  H110 8269   5.376   2.168   0.785  0.8261  1.5621 -1.9237
   20CHTO  H111 8270   5.495   2.282   0.842  0.8777 -1.5403 -1.9834
   20CHTO   C69 8271   5.278   2.182   1.079 -0.0939 -0.1140 -0.0881
   20CHTO  H126 8272   5.361   2.152   1.146  0.3538 -0.9117 -1.0047
   20CHTO   O41 8273   5.168   2.277   1.161 -0.1109 -0.2292  0.3040
   20CHTO   C64 8274   5.208   2.419   1.201  0.2147  0.6655  0.0523
   20CHTO  H121 8275   5.283   2.408   1.281  1.3095 -0.4526 -1.1006
   20CHTO   C71 8276   5.088   2.484   1.270 -0.3191 -0.4706  0.2698
   20CHTO   O47 8277   5.066   2.451   1.407  0.3643 -0.8588 -0.4090
   20CHTO  H104 8278   5.121   2.502   1.464 -1.2986 -0.0809  0.5635
   20CHTO   O34 8279   5.197   2.060   1.036 -0.5255 -0.1940 -0.2763
   20CHTO   C49 8280   5.076   2.003   0.969  0.4235 -0.0151  0.8395
   20CHTO   H91 8281   5.011   1.992   1.056  0.3626 -0.1174  0.7808
   20CHTO   C47 8282   5.113   1.868   0.909  0.4060  0.1912  0.1088
   20CHTO   H89 8283   5.022   1.822   0.863 -0.4347  0.6759  1.2686
   20CHTO   O33 8284   5.153   1.779   1.019 -0.4730  0.2690 -0.4129
   20CHTO   H70 8285   5.083   1.775   1.081  0.7712 -0.5246  0.9575
   20CHTO   C45 8286   5.235   1.899   0.802  0.2444 -0.2299  0.0557
   20CHTO   H87 8287   5.325   1.944   0.847 -1.8183  3.4607  0.7406
   20CHTO    N8 8288   5.273   1.767   0.749 -0.7305  0.0225  0.8227
   20CHTO   H75 8289   5.253   1.773   0.643  0.1530  1.0392  0.6959
   20CHTO   H76 8290   5.240   1.675   0.794  0.0873  0.1342  1.6580
   20CHTO   C43 8291   5.184   1.998   0.690  0.3741  0.5291  0.1051
   20CHTO   H85 8292   5.270   2.029   0.630  1.7216 -1.1199  1.1144
   20CHTO   O29 8293   5.113   2.108   0.746  0.0218 -0.0396 -0.5651
   20CHTO   C50 8294   5.025   2.098   0.860 -0.0744 -0.0742  0.1042
   20CHTO   H92 8295   5.014   2.201   0.898  0.1378 -0.4409  1.1532
   20CHTO   C54 8296   4.881   2.057   0.812 -0.1224 -0.0554  0.1813
   20CHTO   O36 8297   4.841   2.121   0.688  0.3284 -0.2943  0.2982
   20CHTO   H72 8298   4.815   2.054   0.628  1.0417 -0.2888 -0.0153
   20CHTO   O27 8299   5.094   1.930   0.594  0.5744 -0.2340 -0.5488
   20CHTO   C37 8300   5.077   1.930   0.448  0.0580  1.0279  0.6565
   20CHTO   H79 8301   4.973   1.918   0.414  0.5787 -0.9537 -0.3316
   20CHTO   C38 8302   5.117   2.064   0.379 -0.2180 -0.0988 -0.6370
   20CHTO   H80 8303   5.203   2.105   0.435 -1.4143 -0.8975  1.8807
   20CHTO   O31 8304   5.010   2.155   0.391  0.3682  0.2712 -0.4723
   20CHTO   H68 8305   5.037   2.245   0.387 -0.6091  0.7055  1.8688
   20CHTO   C39 8306   5.156   2.048   0.225  0.3724 -0.2703 -0.3813
   20CHTO   H81 8307   5.061   2.020   0.178  2.0685  1.5681 -5.1405
   20CHTO    N7 8308   5.197   2.170   0.154 -0.7967  0.1719  0.2267
   20CHTO   H73 8309   5.163   2.252   0.215 -0.5572 -0.7144  1.5738
   20CHTO   H74 8310   5.158   2.177   0.054 -0.3971  1.2901  0.1412
   20CHTO   C40 8311   5.254   1.921   0.196 -0.9370 -0.4534  0.1509
   20CHTO   H82 8312   5.338   1.945   0.261 -1.1014  3.1329 -0.8855
   20CHTO   O26 8313   5.188   1.799   0.240  0.2017 -0.2363  0.1376
   20CHTO   C41 8314   5.154   1.802   0.391  0.0203 -0.3161  0.5605
   20CHTO   H83 8315   5.257   1.811   0.428  0.0707  2.0084 -0.0795
   20CHTO   C52 8316   5.100   1.660   0.437 -0.3928  0.3096 -0.2015
   20CHTO   O35 8317   5.212   1.545   0.398  0.5972  0.0111 -0.0937
   20CHTO   H71 8318   5.217   1.474   0.460  2.5540  0.0797 -0.1330
   20CHTO   O28 8319   5.298   1.894   0.065  0.4994  0.4373 -0.2773
   20CHTO   C42 8320   5.419   1.819   0.037  0.4317  0.0875 -0.4117
   20CHTO   H84 8321   5.402   1.767  -0.057 -0.8246 -0.7040  0.2495
   20CHTO   C44 8322   5.467   1.701   0.125  0.4314 -0.3336 -0.4458
   20CHTO   H86 8323   5.456   1.734   0.228 -2.1256  0.9672 -1.0731
   20CHTO   O32 8324   5.360   1.608   0.109 -0.5045 -0.2989 -0.3862
   20CHTO   H69 8325   5.360   1.548   0.181  1.1404  0.5254  0.3319
   20CHTO   C48 8326   5.613   1.649   0.093 -0.2400  0.1207 -0.3052
   20CHTO   H90 8327   5.616   1.597  -0.003  0.2586 -2.3698  1.0091
   20CHTO    N9 8328   5.666   1.553   0.195 -0.1500 -0.1080  0.8424
   20CHTO   H77 8329   5.772   1.535   0.184 -0.1723 -1.3787  2.4666
   20CHTO   H78 8330   5.643   1.572   0.298 -0.8219 -0.4817  0.7624
   20CHTO   C51 8331   5.719   1.767   0.071  0.6315  0.1981 -0.3045
   20CHTO   H93 8332   5.756   1.823   0.157  3.7037 -1.8019 -0.2211
   20CHTO   O30 8333   5.665   1.853  -0.026  0.5883 -0.5408  0.5805
   20CHTO   C46 8334   5.535   1.921   0.005  0.4473 -0.6636  0.2337
   20CHTO   H88 8335   5.547   1.984   0.094 -1.6285  0.8153 -0.4764
   20CHTO   C53 8336   5.498   2.016  -0.114  0.4048 -0.7572 -0.2387
   20CHTO   O72 8337   5.539   1.980  -0.250  0.0706 -0.4417  0.2002
   20CHTO  H199 8338   5.498   2.049  -0.298 -1.7257  0.4675  2.9075
   20CHTO   O22 8339   5.841   1.714   0.015 -0.1278  0.1495  0.0814
   20CHTO   C31 8340   5.979   1.754   0.052  0.6966  0.2112  0.2388
   20CHTO   H59 8341   6.020   1.802  -0.040 -0.4998  0.5370 -0.1416
   20CHTO   C29 8342   6.001   1.856   0.168  0.0913 -0.4756 -0.1729
   20CHTO   H57 8343   5.941   1.825   0.255 -0.4297  1.8991  0.3303
   20CHTO   O21 8344   5.940   1.981   0.119 -0.2707 -0.1625 -0.7499
   20CHTO   H37 8345   5.857   1.963   0.079 -0.0284 -0.3967 -1.1440
   20CHTO   C27 8346   6.151   1.873   0.213  1.0992 -0.2951  0.1295
   20CHTO   H55 8347   6.201   1.941   0.142 -0.5234  1.6902  0.8333
   20CHTO    N5 8348   6.172   1.928   0.348 -0.3134  0.6472 -0.1418
   20CHTO   H43 8349   6.177   1.850   0.422  1.1619 -0.0242 -0.9183
   20CHTO   H44 8350   6.096   2.001   0.372 -0.3994  0.8490 -1.0016
   20CHTO   C25 8351   6.233   1.737   0.204 -0.3670 -0.3448 -0.1596
   20CHTO   H53 8352   6.203   1.679   0.293  0.7039 -1.4128 -0.4871
   20CHTO   O17 8353   6.197   1.663   0.080 -0.1152  0.1361 -0.4898
   20CHTO   C32 8354   6.057   1.627   0.078 -0.8426 -0.7701 -0.4127
   20CHTO   H60 8355   6.024   1.588   0.174 -1.6738  0.2554 -0.2834
   20CHTO   C36 8356   6.050   1.530  -0.040  0.7081 -0.3758 -0.1511
   20CHTO   O25 8357   6.123   1.417  -0.015  0.5212  0.2194 -0.3538
   20CHTO   H40 8358   6.144   1.368  -0.092  1.9620 -0.2817  0.3295
   20CHTO   O15 8359   6.380   1.757   0.203 -0.1101  0.3437  0.1319
   20CHTO   C19 8360   6.492   1.700   0.129 -0.2252 -0.8274  0.2853
   20CHTO   H47 8361   6.452   1.689   0.027 -1.0092  1.4092  0.3358
   20CHTO   C20 8362   6.621   1.789   0.128  0.4561 -0.3586  0.1019
   20CHTO   H48 8363   6.654   1.812   0.230 -0.1697 -1.0545  0.4653
   20CHTO   O19 8364   6.590   1.917   0.068  0.5431  0.1319 -0.3563
   20CHTO   H35 8365   6.641   1.946  -0.005  0.1679 -0.7502 -0.9834
   20CHTO   C21 8366   6.740   1.719   0.057 -0.1143 -0.0594 -0.1055
   20CHTO   H49 8367   6.726   1.715  -0.051  1.8072  0.0602 -0.3803
   20CHTO    N4 8368   6.864   1.788   0.083 -0.4925 -0.2711 -0.6554
   20CHTO   H41 8369   6.865   1.890   0.047  1.4807 -0.0375 -0.0425
   20CHTO   H42 8370   6.937   1.730   0.028 -0.2348 -0.7326  0.1697
   20CHTO   C22 8371   6.763   1.570   0.093  0.5846  0.3439  0.0970
   20CHTO   H50 8372   6.809   1.561   0.192  0.1033 -0.0892  0.2813
   20CHTO   O14 8373   6.635   1.503   0.093  0.3860 -0.0632 -0.3557
   20CHTO   C23 8374   6.536   1.559   0.176  0.4127 -0.2306  0.3573
   20CHTO   H51 8375   6.571   1.553   0.280 -1.0423 -3.2796  0.7334
   20CHTO   C34 8376   6.416   1.460   0.185  0.5083  0.5823 -0.1099
   20CHTO   O23 8377   6.436   1.331   0.249  0.3658 -0.4519 -0.3805
   20CHTO   H38 8378   6.526   1.319   0.270  0.3966 -0.2964 -0.4168
   20CHTO   O16 8379   6.848   1.512  -0.008  0.3774 -0.3466 -0.2231
   20CHTO   C24 8380   6.931   1.396   0.050  0.1442 -0.3952  0.1587
   20CHTO   H52 8381   6.910   1.382   0.156 -3.3769  0.8428 -0.3102
   20CHTO   C26 8382   7.077   1.415   0.021 -0.1051  0.3980 -0.2105
   20CHTO   H54 8383   7.091   1.415  -0.089  0.9772 -0.1246 -0.0795
   20CHTO   O20 8384   7.124   1.541   0.078 -0.4182  0.5385 -0.4517
   20CHTO   H36 8385   7.213   1.561   0.055  0.7678 -0.9985  2.4517
   20CHTO   C30 8386   7.159   1.300   0.085 -0.1482 -0.3320 -0.6787
   20CHTO   H58 8387   7.159   1.320   0.193  1.0670 -1.0192 -0.5415
   20CHTO    N6 8388   7.302   1.305   0.054  0.1406  0.6394  0.6596
   20CHTO   H45 8389   7.348   1.220   0.101  1.2517 -0.0098 -1.5427
   20CHTO   H46 8390   7.320   1.300  -0.053  0.0630  2.3577  0.5449
   20CHTO   C33 8391   7.105   1.160   0.050 -0.1437 -0.3490  0.3109
   20CHTO   H61 8392   7.131   1.119  -0.048  1.9273 -1.3227  1.2298
   20CHTO   O18 8393   6.960   1.168   0.057 -0.0038  0.1199  0.2154
   20CHTO   C28 8394   6.893   1.264  -0.015 -0.6046  0.0320  0.6699
   20CHTO   H56 8395   6.928   1.258  -0.118 -2.3512  2.2109 -0.0905
   20CHTO   C35 8396   6.738   1.237  -0.005 -0.1115  0.0722 -0.7968
   20CHTO   O24 8397   6.713   1.105  -0.060  0.1734 -1.2827  0.3724
   20CHTO   H39 8398   6.628   1.096  -0.100 -0.2877 -2.3509  1.5603
   20CHTO    O9 8399   7.156   1.062   0.142 -0.1540  0.5144 -0.7921
   20CHTO   C13 8400   7.093   0.887   0.138  0.0959  0.0634  0.2398
   20CHTO   H26 8401   7.165   0.831   0.201 -1.5536  0.4322  2.5547
   20CHTO   C11 8402   7.070   0.817  -0.005  0.0818  0.1290 -0.0090
   20CHTO   H24 8403   7.167   0.793  -0.050  1.5950 -0.8382  3.5873
   20CHTO    O8 8404   6.998   0.910  -0.088 -0.6098 -0.7111  0.1783
   20CHTO    H3 8405   7.008   0.873  -0.173 -0.1780  0.9439 -0.5092
   20CHTO    C9 8406   6.983   0.687   0.009  0.1482 -0.1678 -0.3631
   20CHTO   H22 8407   7.033   0.630   0.089 -1.5469 -1.2782 -0.0647
   20CHTO    N2 8408   6.986   0.609  -0.116  0.4013 -0.6895  0.3029
   20CHTO   H10 8409   7.028   0.670  -0.195 -1.4868 -0.3845 -0.4914
   20CHTO   H11 8410   7.029   0.510  -0.107  1.7813 -0.1769 -0.5409
   20CHTO    C7 8411   6.836   0.718   0.073 -0.1957  0.5818  0.1963
   20CHTO   H20 8412   6.821   0.634   0.144 -1.7152  0.2626 -0.4836
   20CHTO    O4 8413   6.845   0.843   0.150 -0.2151 -0.4953 -0.3829
   20CHTO   C14 8414   6.964   0.867   0.221 -0.6060  0.2627  0.0510
   20CHTO   H27 8415   6.982   0.774   0.279 -1.4701 -0.1943 -0.4055
   20CHTO   C18 8416   6.942   0.979   0.317  0.0547 -0.4189  0.8741
   20CHTO   O13 8417   6.853   0.958   0.427 -0.1290 -0.4514 -0.4817
   20CHTO    H7 8418   6.847   0.866   0.443 -2.7248 -0.2761 -0.2350
   20CHTO    O2 8419   6.707   0.727  -0.030  0.1842 -0.0766  0.1499
   20CHTO    C1 8420   6.588   0.655   0.011  0.0373 -0.2295  0.6326
   20CHTO   H14 8421   6.584   0.652   0.122 -1.3871  0.4858  0.6085
   20CHTO    C2 8422   6.584   0.506  -0.040  0.0828 -0.8048 -0.4881
   20CHTO   H15 8423   6.578   0.516  -0.150  2.4187 -0.1356 -0.5829
   20CHTO    O6 8424   6.702   0.435  -0.005 -1.3526 -0.0969 -0.1923
   20CHTO    H1 8425   6.716   0.362  -0.062  1.5781  1.2191 -1.2452
   20CHTO    C3 8426   6.447   0.441   0.011 -0.2487 -0.5115 -0.0387
   20CHTO   H16 8427   6.454   0.444   0.121  0.1356  2.1916 -0.0915
   20CHTO    N1 8428   6.426   0.295  -0.017 -0.1397 -0.1577 -0.1678
   20CHTO    H8 8429   6.452   0.234   0.068 -0.2682  1.4299  1.0397
   20CHTO    H9 8430   6.477   0.263  -0.107 -2.4427 -1.4996 -1.0551
   20CHTO    C4 8431   6.323   0.535  -0.018 -0.1017  0.3086 -0.1698
   20CHTO   H17 8432   6.296   0.529  -0.123 -0.2337 -2.6898 -0.0133
   20CHTO    O1 8433   6.346   0.675   0.015 -0.3708  0.2117  0.6242
   20CHTO    C5 8434   6.463   0.732  -0.046 -0.2318  0.3501 -0.3858
   20CHTO   H18 8435   6.455   0.708  -0.152  1.3534  2.0891 -0.9245
   20CHTO   C16 8436   6.466   0.879  -0.031 -0.2453 -0.6745 -0.7427
   20CHTO   O11 8437   6.347   0.939  -0.076  0.1319  0.2038  0.2479
   20CHTO    H5 8438   6.292   0.967  -0.006  0.6734  0.6859  0.4837
   20CHTO    O3 8439   6.223   0.493   0.080 -0.1516  0.1123 -0.1267
   20CHTO    C6 8440   6.085   0.533   0.043  0.5672  0.1457  0.6525
   20CHTO   H19 8441   6.080   0.629  -0.009  2.1645  1.0279  2.0771
   20CHTO    C8 8442   6.021   0.428  -0.053  0.5344 -0.1285 -0.8754
   20CHTO   H21 8443   6.042   0.331  -0.008 -1.1853 -0.5205 -0.8879
   20CHTO    O7 8444   6.087   0.451  -0.177 -0.2529 -0.3501  0.0262
   20CHTO    H2 8445   6.058   0.389  -0.242 -0.1315  0.5359 -0.8865
   20CHTO   C12 8446   5.867   0.451  -0.062  0.6602 -0.3664 -0.1121
   20CHTO   H25 8447   5.845   0.536  -0.130  1.6317 -1.0096 -1.2282
   20CHTO    N3 8448   5.805   0.330  -0.132 -0.3752  0.1390  0.7781
   20CHTO   H12 8449   5.873   0.246  -0.123 -1.0455 -0.6867 -1.6389
   20CHTO   H13 8450   5.710   0.303  -0.089 -0.7276 -1.5122 -0.9673
   20CHTO   C15 8451   5.793   0.483   0.073 -0.4775 -0.0027  0.3524
   20CHTO   H28 8452   5.769   0.402   0.142 -1.4808  0.0600  0.0962
   20CHTO   O10 8453   5.645   0.571   0.047 -0.6904 -0.0351 -0.9213
   20CHTO    H4 8454   5.594   0.597   0.121 -1.4542 -2.3399 -0.6045
   20CHTO    O5 8455   5.863   0.575   0.155  0.0230  0.3003  0.0496
   20CHTO   C10 8456   6.006   0.553   0.174 -0.1260  0.4256 -0.6550
   20CHTO   H23 8457   6.013   0.465   0.238  2.5146  1.3597  0.4094
   20CHTO   C17 8458   6.063   0.670   0.252 -0.4143 -0.5073 -0.9544
   20CHTO   O12 8459   5.983   0.681   0.368 -0.6575  0.2458  0.4557
   20CHTO    H6 8460   5.965   0.603   0.417 -1.9867  1.3504  1.7980
   21GLOH   H03 8461   0.523   4.172   1.417 -0.4960 -0.9343  1.2368
   21GLOH    O1 8462   0.509   4.226   1.498  0.0154  0.0831  0.6532
   21GLOH    C1 8463   0.397   4.308   1.470 -0.5730  0.5569  0.2232
   21GLOH   H02 8464   0.419   4.383   1.394 -2.1745 -0.4492 -1.2669
   21GLOH   H08 8465   0.361   4.361   1.558 -1.1558  0.7269 -0.1126
   21GLOH    C2 8466   0.283   4.224   1.409  0.2450 -0.0051 -0.4991
   21GLOH   H04 8467   0.203   4.300   1.404  0.2364  0.0025 -0.2565
   21GLOH    O2 8468   0.313   4.168   1.276 -0.1208 -0.7548 -0.3705
   21GLOH   H05 8469   0.242   4.191   1.214  1.1759 -0.7942 -1.8788
   21GLOH    C3 8470   0.237   4.120   1.512  0.5501 -0.0423  0.3822
   21GLOH   H06 8471   0.316   4.046   1.527  0.5800  0.8478  5.4709
   21GLOH   H07 8472   0.145   4.078   1.473  0.0771 -1.2496  2.7210
   21GLOH    O3 8473   0.211   4.177   1.637 -0.3365 -0.3314  0.1556
   21GLOH   H01 8474   0.189   4.104   1.699 -1.1572  0.9097  1.3620
   22GLOH   H03 8475   0.491   0.526   1.553 -2.0869 -2.0423  0.2032
   22GLOH    O1 8476   0.518   0.495   1.641 -0.4616 -0.1816  0.3961
   22GLOH    C1 8477   0.656   0.459   1.628  0.4526  0.2957 -0.0904
   22GLOH   H02 8478   0.705   0.544   1.581  1.3170  0.3819  0.9454
   22GLOH   H08 8479   0.663   0.368   1.569  0.7557  1.2244 -1.5135
   22GLOH    C2 8480   0.726   0.440   1.765 -0.5712 -0.1222  0.2336
   22GLOH   H04 8481   0.684   0.351   1.815  0.9366 -0.6242  0.6111
   22GLOH    O2 8482   0.863   0.408   1.741 -0.3058 -0.3434  0.6418
   22GLOH   H05 8483   0.894   0.434   1.653  1.8300  0.1567  1.4871
   22GLOH    C3 8484   0.709   0.571   1.852 -0.3422  0.1724  0.0871
   22GLOH   H06 8485   0.756   0.642   1.783  2.4646 -1.3561  0.3502
   22GLOH   H07 8486   0.778   0.577   1.936 -0.1069 -0.2715 -0.0728
   22GLOH    O3 8487   0.573   0.609   1.891 -0.6791 -0.5936  0.1441
   22GLOH   H01 8488   0.532   0.530   1.931  2.0007 -1.6276  0.9814
   23GLOH   H03 8489   3.602   5.686   2.230 -0.5442  0.1072  0.6633
   23GLOH    O1 8490   3.611   5.772   2.276 -0.6890  0.0951  0.7132
   23GLOH    C1 8491   3.528   5.752   2.393 -0.3938 -0.4362 -0.3576
   23GLOH   H02 8492   3.570   5.796   2.484  1.5272 -1.3789 -0.7469
   23GLOH   H08 8493   3.536   5.648   2.425  2.5833 -0.1516 -0.0242
   23GLOH    C2 8494   3.380   5.802   2.379  0.0917  0.1257  0.2987
   23GLOH   H04 8495   3.332   5.738   2.305 -1.5883  2.6693 -0.8977
   23GLOH    O2 8496   3.299   5.784   2.503 -0.1360  0.9154  0.3687
   23GLOH   H05 8497   3.257   5.697   2.503  2.9252 -0.6171 -0.1026
   23GLOH    C3 8498   3.386   5.954   2.333 -0.1886 -0.6356 -0.3530
   23GLOH   H06 8499   3.441   6.013   2.407  0.3375  1.4560 -2.3413
   23GLOH   H07 8500   3.285   5.995   2.332  0.6206  1.8839  4.6319
   23GLOH    O3 8501   3.446   5.960   2.203  0.2468  0.1810  0.4239
   23GLOH   H01 8502   3.537   5.926   2.200 -0.3133 -1.3113 -0.1934
   24GLOH   H03 8503   8.960   1.309   1.394  0.6140  1.7122  1.8313
   24GLOH    O1 8504   8.998   1.362   1.321 -0.2330 -0.3077 -0.1054
   24GLOH    C1 8505   9.124   1.406   1.364  0.4364 -0.6996 -0.1426
   24GLOH   H02 8506   9.188   1.328   1.404  1.6237  0.6077  0.5832
   24GLOH   H08 8507   9.107   1.468   1.452 -1.6171 -1.6901  0.1788
   24GLOH    C2 8508   9.209   1.484   1.261 -0.6609  0.2708  0.4440
   24GLOH   H04 8509   9.291   1.532   1.317 -1.6164  1.1464  1.1315
   24GLOH    O2 8510   9.268   1.393   1.165  0.1981 -0.0104 -0.2879
   24GLOH   H05 8511   9.199   1.379   1.099  0.7084  0.9766 -1.0496
   24GLOH    C3 8512   9.129   1.591   1.191  0.2325  0.1740 -0.0979
   24GLOH   H06 8513   9.052   1.535   1.138 -0.3175 -1.5831  2.4541
   24GLOH   H07 8514   9.185   1.642   1.112 -0.1864 -2.5324 -2.2242
   24GLOH    O3 8515   9.074   1.682   1.280  0.2657 -0.7906  0.0514
   24GLOH   H01 8516   9.000   1.637   1.324 -0.2928  0.4600  0.4277
   25GLOH   H03 8517   2.007   5.981   1.211 -1.3986 -0.2750 -2.8572
   25GLOH    O1 8518   1.931   5.924   1.235 -0.3110 -0.5420  0.0669
   25GLOH    C1 8519   1.907   5.945   1.376 -0.0814 -0.0662 -0.6756
   25GLOH   H02 8520   1.801   5.966   1.389 -0.7903 -2.3772 -2.6106
   25GLOH   H08 8521   1.967   6.031   1.408  3.2817 -1.5925 -2.6315
   25GLOH    C2 8522   1.964   5.821   1.444 -0.3232  0.1777  0.5443
   25GLOH   H04 8523   2.058   5.793   1.395 -0.5573  0.1496  0.1111
   25GLOH    O2 8524   1.998   5.831   1.584 -0.0082  0.6171  0.0555
   25GLOH   H05 8525   1.989   5.923   1.612 -0.9358  0.5495  0.0218
   25GLOH    C3 8526   1.878   5.696   1.426  0.0195  0.0955 -0.2632
   25GLOH   H06 8527   1.790   5.691   1.491  0.6590 -1.0408  0.5376
   25GLOH   H07 8528   1.946   5.617   1.457 -0.4672 -0.6220 -0.9711
   25GLOH    O3 8529   1.832   5.682   1.293  0.1821  0.4785 -0.5134
   25GLOH   H01 8530   1.872   5.757   1.244  1.2540 -0.4426 -1.0863
   26GLOH   H03 8531   0.679   3.013   1.399  0.2926  0.0173  0.3371
   26GLOH    O1 8532   0.639   2.934   1.439  0.5716 -0.1773  0.2366
   26GLOH    C1 8533   0.546   2.872   1.347  0.1958 -0.2288 -0.1872
   26GLOH   H02 8534   0.479   2.950   1.312 -0.9333 -1.0995 -0.0319
   26GLOH   H08 8535   0.483   2.801   1.401  0.1344 -1.5257 -1.9216
   26GLOH    C2 8536   0.603   2.802   1.219  0.0911  0.0077  0.2658
   26GLOH   H04 8537   0.524   2.760   1.156  0.5876  0.3223 -0.5767
   26GLOH    O2 8538   0.670   2.905   1.140 -0.1811  0.6493 -0.1303
   26GLOH   H05 8539   0.602   2.961   1.100 -2.1631 -1.3884  0.2622
   26GLOH    C3 8540   0.695   2.680   1.259 -0.1391 -0.4133  0.2173
   26GLOH   H06 8541   0.786   2.716   1.308 -0.6577  1.5665 -0.2347
   26GLOH   H07 8542   0.732   2.633   1.168  1.0286  0.9692 -0.0336
   26GLOH    O3 8543   0.617   2.590   1.343  0.1484  0.2925 -0.3085
   26GLOH   H01 8544   0.631   2.597   1.439 -0.8591 -0.3113 -0.1095
   27GLOH   H03 8545   3.198   6.055   0.410 -0.9106 -0.9282  0.7823
   27GLOH    O1 8546   3.126   6.106   0.367  0.1320 -0.0652  0.0116
   27GLOH    C1 8547   3.148   6.128   0.225 -0.1660  0.9487  0.0107
   27GLOH   H02 8548   3.202   6.214   0.185 -0.0891 -0.5030 -3.1693
   27GLOH   H08 8549   3.046   6.133   0.186 -0.2123 -0.8793 -0.1694
   27GLOH    C2 8550   3.202   5.998   0.157  0.1982  0.0627 -0.2064
   27GLOH   H04 8551   3.117   5.927   0.163  0.4272 -0.3903 -1.9935
   27GLOH    O2 8552   3.231   6.009   0.019 -0.5817 -0.4734 -0.3528
   27GLOH   H05 8553   3.248   5.923  -0.023  3.1798 -0.9695  2.0108
   27GLOH    C3 8554   3.326   5.949   0.238 -0.3723 -0.3680 -0.5465
   27GLOH   H06 8555   3.390   6.037   0.248  0.2467 -0.8136 -0.6087
   27GLOH   H07 8556   3.375   5.866   0.189  1.4329  1.0946 -1.2513
   27GLOH    O3 8557   3.284   5.910   0.374 -0.5936 -0.4768 -0.4295
   27GLOH   H01 8558   3.344   5.843   0.412 -0.6979  0.1962  0.9627
   28GLOH   H03 8559   9.428   4.103   0.233 -0.3280 -2.3077 -2.2790
   28GLOH    O1 8560   9.368   4.155   0.177  0.0228  0.3601 -0.2353
   28GLOH    C1 8561   9.353   4.280   0.245 -0.7044  0.3224 -0.0461
   28GLOH   H02 8562   9.400   4.282   0.343 -0.8506 -0.1640  0.0337
   28GLOH   H08 8563   9.246   4.285   0.265 -0.7016 -0.4596  0.1932
   28GLOH    C2 8564   9.412   4.405   0.176  0.3729  0.1964 -0.6569
   28GLOH   H04 8565   9.516   4.380   0.149  0.2142 -0.6615 -0.4944
   28GLOH    O2 8566   9.332   4.424   0.055 -0.5907 -0.1834 -0.3214
   28GLOH   H05 8567   9.314   4.518   0.035  1.7511  0.5229  0.6875
   28GLOH    C3 8568   9.413   4.527   0.272  0.7963 -0.0776  0.6084
   28GLOH   H06 8569   9.310   4.529   0.310  0.6831  0.0384  0.2968
   28GLOH   H07 8570   9.434   4.619   0.218  0.3501  0.4212  1.2659
   28GLOH    O3 8571   9.489   4.520   0.398  0.0707  0.0041 -0.4382
   28GLOH   H01 8572   9.442   4.465   0.463  0.0639 -0.3305 -0.7251
   29GLOH   H03 8573   9.269   7.023   1.290 -0.4042 -1.0554  1.0725
   29GLOH    O1 8574   9.353   7.052   1.330 -0.2533  0.0664 -0.0434
   29GLOH    C1 8575   9.423   7.158   1.255 -0.5232 -0.7107  0.5579
   29GLOH   H02 8576   9.415   7.140   1.148  1.9568  2.8716 -0.3156
   29GLOH   H08 8577   9.530   7.165   1.277 -0.6976 -0.1553  1.2631
   29GLOH    C2 8578   9.369   7.304   1.282 -0.7047  0.6472 -0.9670
   29GLOH   H04 8579   9.317   7.296   1.378 -2.7857  0.1983 -2.0987
   29GLOH    O2 8580   9.473   7.401   1.278 -0.3364  0.0264 -0.7950
   29GLOH   H05 8581   9.433   7.476   1.323  1.6844 -0.3934  1.8333
   29GLOH    C3 8582   9.256   7.327   1.182 -0.1318 -0.0045 -0.2021
   29GLOH   H06 8583   9.171   7.268   1.217 -0.8891 -1.2651 -3.9719
   29GLOH   H07 8584   9.294   7.284   1.090 -0.9671 -0.5805 -0.2810
   29GLOH    O3 8585   9.221   7.464   1.172  0.4485 -0.2879  0.0259
   29GLOH   H01 8586   9.244   7.514   1.253  0.8924  2.4769 -1.7243
   30GLOH   H03 8587   4.356   8.938   1.371 -0.2060  0.5099  0.3158
   30GLOH    O1 8588   4.321   8.878   1.440  0.0428  0.2882  0.2485
   30GLOH    C1 8589   4.294   8.933   1.571  0.6934 -0.6684  0.0797
   30GLOH   H02 8590   4.355   9.024   1.579  0.5028 -0.6729  1.8477
   30GLOH   H08 8591   4.326   8.867   1.653  2.1482  0.4478  0.4504
   30GLOH    C2 8592   4.143   8.959   1.602  0.2006 -0.6477  0.8080
   30GLOH   H04 8593   4.093   8.863   1.586 -2.9616  0.8789  1.0842
   30GLOH    O2 8594   4.135   9.016   1.735  0.0397  0.0166  0.3143
   30GLOH   H05 8595   4.040   9.030   1.745  0.2755  1.0148  1.2499
   30GLOH    C3 8596   4.086   9.057   1.492  0.2287 -0.4625 -0.3920
   30GLOH   H06 8597   3.979   9.076   1.498  0.9968  3.9223  0.9396
   30GLOH   H07 8598   4.105   9.002   1.400  1.6202 -1.5918  0.5403
   30GLOH    O3 8599   4.153   9.180   1.479  0.3879  0.2224 -0.1026
   30GLOH   H01 8600   4.219   9.171   1.409  0.7341 -1.0628  0.3824
   31GLOH   H03 8601   0.147   8.682   1.605 -0.1062 -0.6746  1.3517
   31GLOH    O1 8602   0.149   8.763   1.660 -0.2597  0.2730 -0.0100
   31GLOH    C1 8603   0.026   8.831   1.652  0.4503 -0.3836  0.6344
   31GLOH   H02 8604  -0.030   8.825   1.559 -1.5137 -1.1442  1.8241
   31GLOH   H08 8605   0.050   8.936   1.672  0.1803 -0.4677  1.4424
   31GLOH    C2 8606  -0.070   8.785   1.764  0.6203  0.6466  0.3311
   31GLOH   H04 8607  -0.026   8.806   1.862 -1.5106 -1.1947  1.7193
   31GLOH    O2 8608  -0.190   8.862   1.745 -0.3222 -0.2390 -0.3461
   31GLOH   H05 8609  -0.183   8.933   1.811 -0.4702  1.2557 -1.8819
   31GLOH    C3 8610  -0.088   8.637   1.778 -0.2655 -0.1552  0.3508
   31GLOH   H06 8611   0.011   8.593   1.765  0.4470  1.4986  0.0677
   31GLOH   H07 8612  -0.143   8.598   1.692  0.7067  1.3125 -0.9483
   31GLOH    O3 8613  -0.157   8.595   1.895 -0.0369  0.6377 -0.0058
   31GLOH   H01 8614  -0.093   8.580   1.968  0.8883  1.1317 -0.7036
   32GLOH   H03 8615   8.930   3.742   0.902 -0.4153 -1.2686 -0.9488
   32GLOH    O1 8616   8.974   3.785   0.827 -0.7095  0.3423 -0.2018
   32GLOH    C1 8617   8.929   3.711   0.711 -0.1691 -0.3732  1.0351
   32GLOH   H02 8618   8.991   3.711   0.622  0.7696  0.5291  1.6776
   32GLOH   H08 8619   8.834   3.755   0.681  0.3030  0.2840  0.5039
   32GLOH    C2 8620   8.913   3.561   0.753 -0.0836 -0.2549 -0.2655
   32GLOH   H04 8621   8.873   3.502   0.669  0.6921  1.2174 -1.6841
   32GLOH    O2 8622   9.040   3.500   0.789 -0.0939 -0.1520 -0.5606
   32GLOH   H05 8623   9.096   3.505   0.710 -3.0457 -1.7309 -2.8578
   32GLOH    C3 8624   8.806   3.550   0.869 -0.0991  0.0450  0.3154
   32GLOH   H06 8625   8.815   3.448   0.907 -0.0825  0.1123  0.4918
   32GLOH   H07 8626   8.704   3.561   0.830 -0.2862 -1.1419  0.4381
   32GLOH    O3 8627   8.826   3.651   0.973 -0.0412  0.7828 -0.5083
   32GLOH   H01 8628   8.776   3.621   1.051  0.6934  2.3393  0.5748
   33GLOH   H03 8629   0.452   7.227   1.174  2.0680 -1.8381 -0.8107
   33GLOH    O1 8630   0.516   7.291   1.137 -0.3665  1.1917  0.0617
   33GLOH    C1 8631   0.504   7.406   1.229  0.4987  0.4462  0.0455
   33GLOH   H02 8632   0.405   7.423   1.272 -0.3953 -1.3789 -1.2301
   33GLOH   H08 8633   0.519   7.498   1.174  2.8824  1.5141  2.3553
   33GLOH    C2 8634   0.597   7.407   1.340 -0.1927  0.3544  0.2039
   33GLOH   H04 8635   0.567   7.314   1.391  1.4405  0.5523  1.6009
   33GLOH    O2 8636   0.736   7.398   1.290  0.3376 -0.6249 -0.2602
   33GLOH   H05 8637   0.744   7.325   1.226 -0.9970  0.3193 -1.5411
   33GLOH    C3 8638   0.576   7.518   1.446  0.0090 -0.1497  0.4301
   33GLOH   H06 8639   0.549   7.612   1.399  0.1078  0.6009  1.8559
   33GLOH   H07 8640   0.665   7.530   1.507  0.1046 -2.8307  0.8858
   33GLOH    O3 8641   0.463   7.487   1.534  0.2909 -0.1681 -0.5199
   33GLOH   H01 8642   0.495   7.442   1.614 -1.0050  0.6403  0.4780
   34GLOH   H03 8643   3.356   2.066   1.662 -2.1439 -0.3587 -1.2601
   34GLOH    O1 8644   3.411   2.097   1.588 -0.1463  0.1724  0.4068
   34GLOH    C1 8645   3.533   2.152   1.630  0.1210  0.5542  0.3143
   34GLOH   H02 8646   3.555   2.248   1.584 -1.7666 -0.1141 -2.0869
   34GLOH   H08 8647   3.616   2.093   1.590 -1.0365 -0.1717 -1.0627
   34GLOH    C2 8648   3.547   2.177   1.782  0.3099  0.1734 -0.0859
   34GLOH   H04 8649   3.495   2.097   1.837 -0.4911  0.7517  0.0137
   34GLOH    O2 8650   3.690   2.179   1.819  0.3880 -0.6850  0.0696
   34GLOH   H05 8651   3.713   2.085   1.827 -0.8826 -1.0263 -0.1910
   34GLOH    C3 8652   3.467   2.300   1.826 -0.4751 -0.1677  0.3455
   34GLOH   H06 8653   3.510   2.391   1.783  1.2184 -0.1502  2.0082
   34GLOH   H07 8654   3.476   2.309   1.935 -2.4133 -0.5492  0.5521
   34GLOH    O3 8655   3.330   2.284   1.804 -0.4962 -0.1480  0.0431
   34GLOH   H01 8656   3.290   2.236   1.878 -0.0803  1.0295  1.0521
   35GLOH   H03 8657   8.225   1.669   1.131  1.6857 -0.7721 -1.1776
   35GLOH    O1 8658   8.200   1.597   1.192  0.5478  0.4671 -0.1477
   35GLOH    C1 8659   8.198   1.657   1.319  0.1694 -0.6394  0.4803
   35GLOH   H02 8660   8.188   1.574   1.389 -1.5510 -1.1577 -0.3307
   35GLOH   H08 8661   8.108   1.715   1.343  1.3783  0.9184  1.3313
   35GLOH    C2 8662   8.321   1.741   1.348  0.5905  0.9560 -0.6530
   35GLOH   H04 8663   8.330   1.826   1.279 -0.1747  1.2096 -0.4355
   35GLOH    O2 8664   8.321   1.797   1.479  0.2390  0.1830  0.0333
   35GLOH   H05 8665   8.390   1.865   1.477 -0.5795  1.0255  0.4361
   35GLOH    C3 8666   8.441   1.653   1.327  0.0160  0.3452 -0.2660
   35GLOH   H06 8667   8.434   1.567   1.393 -0.5823  1.6921  1.4524
   35GLOH   H07 8668   8.525   1.717   1.356  0.6082 -1.5200  2.3145
   35GLOH    O3 8669   8.454   1.600   1.192  0.4345  0.4736  0.2060
   35GLOH   H01 8670   8.364   1.572   1.169 -0.2015 -0.0351  3.0516
   36GLOH   H03 8671   1.366   0.936   1.539  0.0466  2.2404  1.1897
   36GLOH    O1 8672   1.269   0.936   1.530  0.0584  0.3058  0.6767
   36GLOH    C1 8673   1.226   0.816   1.484  0.1161 -0.7928 -0.4832
   36GLOH   H02 8674   1.166   0.775   1.566  0.7827  0.1710  0.5039
   36GLOH   H08 8675   1.305   0.742   1.473  1.6278  0.8476 -0.9723
   36GLOH    C2 8676   1.138   0.819   1.354 -0.2522 -0.3207  0.1625
   36GLOH   H04 8677   1.185   0.881   1.277  1.0211 -2.5467 -0.9254
   36GLOH    O2 8678   1.125   0.686   1.296  0.3121  0.1926 -0.0431
   36GLOH   H05 8679   1.038   0.673   1.255  0.1616 -0.3110  0.4398
   36GLOH    C3 8680   0.994   0.867   1.383 -0.5365 -0.2880  0.4215
   36GLOH   H06 8681   0.948   0.876   1.285  1.9394 -0.9618 -0.8426
   36GLOH   H07 8682   1.012   0.967   1.420  0.9519  0.1543 -1.4530
   36GLOH    O3 8683   0.912   0.790   1.475  0.3366 -0.3730 -0.5391
   36GLOH   H01 8684   0.904   0.840   1.558 -0.3440  0.0353 -0.8476
   37GLOH   H03 8685   2.188   5.202   0.562  0.2677  0.3717 -0.1406
   37GLOH    O1 8686   2.138   5.199   0.478  0.0084  0.3466  0.0135
   37GLOH    C1 8687   2.069   5.323   0.447  0.2084  0.2547 -0.1370
   37GLOH   H02 8688   2.133   5.391   0.390 -0.3734  1.3548  0.5092
   37GLOH   H08 8689   2.044   5.382   0.535 -2.1805 -2.3654  1.0208
   37GLOH    C2 8690   1.936   5.310   0.380 -0.4099  0.5806 -0.2975
   37GLOH   H04 8691   1.964   5.247   0.294 -2.9023  0.1881 -0.8647
   37GLOH    O2 8692   1.841   5.231   0.456 -0.3965 -0.1499  0.2207
   37GLOH   H05 8693   1.882   5.152   0.495 -1.1679 -1.6501 -1.8950
   37GLOH    C3 8694   1.895   5.444   0.318  0.2144 -0.0460 -0.2895
   37GLOH   H06 8695   1.876   5.525   0.387  0.7585 -0.6299  0.5507
   37GLOH   H07 8696   1.799   5.428   0.269 -0.9404  1.3690  1.5042
   37GLOH    O3 8697   1.992   5.487   0.217  0.2696  0.4552  0.7978
   37GLOH   H01 8698   1.996   5.426   0.141 -0.9425  0.0637  1.0275
   38GLOH   H03 8699   9.770   7.545   1.710 -0.8064 -0.0513  1.2783
   38GLOH    O1 8700   9.752   7.629   1.664 -0.2791 -0.2469  0.7115
   38GLOH    C1 8701   9.725   7.737   1.757 -0.2842  0.2096 -0.4462
   38GLOH   H02 8702   9.636   7.725   1.818 -0.0047  1.8694  0.3169
   38GLOH   H08 8703   9.709   7.830   1.701  0.0876 -1.0440 -2.6987
   38GLOH    C2 8704   9.837   7.755   1.864  0.5239 -0.3046  0.7892
   38GLOH   H04 8705   9.819   7.856   1.902  0.6863  0.5589 -1.3804
   38GLOH    O2 8706   9.826   7.651   1.960  0.3813  0.1423  0.1619
   38GLOH   H05 8707   9.794   7.567   1.922  0.0706 -0.2807  1.3312
   38GLOH    C3 8708   9.970   7.758   1.786 -0.6236  0.4001  0.6717
   38GLOH   H06 8709   9.988   7.658   1.747 -0.4220 -0.0717  1.9364
   38GLOH   H07 8710  10.044   7.784   1.862 -1.8101 -2.6323  2.9410
   38GLOH    O3 8711   9.966   7.868   1.686 -0.4471  0.2098  0.2069
   38GLOH   H01 8712  10.048   7.862   1.633 -0.9285 -3.1078 -0.3179
   39GLOH   H03 8713   9.403   4.889   1.361  0.9925 -0.0542 -0.1318
   39GLOH    O1 8714   9.356   4.804   1.352  0.0954  0.4531 -0.3530
   39GLOH    C1 8715   9.390   4.746   1.225  0.1152 -0.1424 -0.1533
   39GLOH   H02 8716   9.407   4.818   1.145  0.0639  1.4614  1.2556
   39GLOH   H08 8717   9.317   4.676   1.185  0.7422 -0.9847  0.1579
   39GLOH    C2 8718   9.521   4.665   1.228 -0.4393  0.3279 -0.3741
   39GLOH   H04 8719   9.605   4.735   1.234  1.8829 -2.4200  0.7602
   39GLOH    O2 8720   9.510   4.579   1.344 -0.0722  0.2360  0.4654
   39GLOH   H05 8721   9.429   4.529   1.327 -0.4122  1.3785 -1.3745
   39GLOH    C3 8722   9.535   4.575   1.103 -0.4498  0.2761  0.3601
   39GLOH   H06 8723   9.459   4.499   1.091  1.4888 -1.4207 -1.6550
   39GLOH   H07 8724   9.622   4.509   1.107 -1.9186 -1.8855 -1.8464
   39GLOH    O3 8725   9.532   4.656   0.987  0.1177 -0.8584 -0.1217
   39GLOH   H01 8726   9.516   4.612   0.902  0.0486 -0.5957 -0.2444
   40GLOH   H03 8727   4.153   1.837   1.599  1.2118 -0.3533 -0.8112
   40GLOH    O1 8728   4.103   1.794   1.527 -0.2211  0.4845 -0.3231
   40GLOH    C1 8729   4.056   1.673   1.587  0.2246  0.1690 -0.3370
   40GLOH   H02 8730   3.981   1.709   1.658  1.9355 -1.0422  2.1499
   40GLOH   H08 8731   4.139   1.629   1.643  0.9928 -0.4177 -1.9127
   40GLOH    C2 8732   4.008   1.567   1.490 -0.2958  0.1170 -0.5559
   40GLOH   H04 8733   4.097   1.543   1.429  1.7852  0.3368  2.2620
   40GLOH    O2 8734   3.965   1.445   1.553 -0.3992  0.2216 -0.0945
   40GLOH   H05 8735   3.879   1.474   1.586 -1.1798  1.0180 -2.6791
   40GLOH    C3 8736   3.901   1.628   1.394 -0.4477 -0.2061 -0.4104
   40GLOH   H06 8737   3.809   1.645   1.450  0.3599  0.9586  0.6075
   40GLOH   H07 8738   3.875   1.546   1.328  1.8413  0.6437 -2.4674
   40GLOH    O3 8739   3.940   1.751   1.333 -0.0224 -0.3745  0.4352
   40GLOH   H01 8740   3.990   1.810   1.393 -0.3292  2.6690 -2.1603
   41GLOH   H03 8741   2.859   8.011   1.501  1.1722  1.1673 -0.5758
   41GLOH    O1 8742   2.803   8.074   1.451 -0.6933  0.3205  0.4064
   41GLOH    C1 8743   2.866   8.197   1.420 -0.2503  0.3188  0.4393
   41GLOH   H02 8744   2.952   8.184   1.354 -1.0653 -0.0160 -0.5655
   41GLOH   H08 8745   2.897   8.248   1.511  1.3366  0.0916  0.0468
   41GLOH    C2 8746   2.780   8.303   1.343 -0.4106  0.4546 -0.5557
   41GLOH   H04 8747   2.689   8.313   1.403 -0.6512  0.3120 -0.8946
   41GLOH    O2 8748   2.859   8.426   1.342  0.5064  0.9035 -0.1615
   41GLOH   H05 8749   2.837   8.464   1.429  0.3276  1.4982 -0.4695
   41GLOH    C3 8750   2.747   8.252   1.201 -0.0782  0.6237 -0.3605
   41GLOH   H06 8751   2.700   8.154   1.210  1.9176 -0.2199  1.1924
   41GLOH   H07 8752   2.838   8.224   1.149 -1.0062  0.8608 -2.1575
   41GLOH    O3 8753   2.677   8.342   1.117  0.3634  0.0376  0.1991
   41GLOH   H01 8754   2.744   8.403   1.082  1.0215  0.4854  2.1630
   42GLOH   H03 8755   3.556   7.857   0.258  0.4807 -1.1083  0.5933
   42GLOH    O1 8756   3.570   7.830   0.165  0.1451 -0.6376  0.4088
   42GLOH    C1 8757   3.626   7.938   0.098  0.0430 -0.4018 -0.2318
   42GLOH   H02 8758   3.715   7.968   0.153  0.7820 -1.3477 -0.8902
   42GLOH   H08 8759   3.559   8.023   0.091  0.1539 -0.3602 -0.7438
   42GLOH    C2 8760   3.651   7.908  -0.047 -0.1597  0.3625  0.0093
   42GLOH   H04 8761   3.710   7.994  -0.080  0.9308 -1.1914 -2.2246
   42GLOH    O2 8762   3.746   7.800  -0.063  0.4984 -0.6346  0.4693
   42GLOH   H05 8763   3.711   7.714  -0.036  2.0771 -1.5731 -0.3908
   42GLOH    C3 8764   3.524   7.889  -0.130  0.6642  0.2615  0.4591
   42GLOH   H06 8765   3.476   7.794  -0.109 -0.9193  0.9613  0.0767
   42GLOH   H07 8766   3.557   7.881  -0.234 -0.6028  3.1519 -0.2283
   42GLOH    O3 8767   3.438   8.006  -0.122 -0.2954 -0.1826 -0.5490
   42GLOH   H01 8768   3.367   7.997  -0.055 -1.0601  1.0960 -1.1718
   43GLOH   H03 8769   2.181   1.864   1.639 -1.4726  2.3457  1.6200
   43GLOH    O1 8770   2.190   1.804   1.715 -0.1865  0.2547 -0.1057
   43GLOH    C1 8771   2.223   1.884   1.831 -0.2724  0.0242 -0.1163
   43GLOH   H02 8772   2.164   1.975   1.817 -0.7871 -0.3489 -0.3643
   43GLOH   H08 8773   2.330   1.904   1.829 -0.2759  0.0377 -0.1690
   43GLOH    C2 8774   2.181   1.811   1.958  0.2040  0.3511  0.2516
   43GLOH   H04 8775   2.212   1.867   2.048  0.4638 -0.6666  0.8102
   43GLOH    O2 8776   2.040   1.797   1.971 -0.1424 -0.1109  0.5782
   43GLOH   H05 8777   2.005   1.774   1.882 -3.3350 -0.9354  1.9574
   43GLOH    C3 8778   2.248   1.671   1.969 -0.9225  0.4704  0.1700
   43GLOH   H06 8779   2.184   1.613   1.902 -2.9545  0.1765  2.3337
   43GLOH   H07 8780   2.235   1.627   2.068  2.8915 -0.3220  0.4182
   43GLOH    O3 8781   2.395   1.667   1.945  0.1094 -0.3839 -0.1866
   43GLOH   H01 8782   2.423   1.576   1.923  0.4958 -0.4755  0.6671
   44GLOH   H03 8783   2.494   4.837   2.331 -1.4874 -1.2975  1.1744
   44GLOH    O1 8784   2.564   4.770   2.343 -0.2831 -0.2266  0.2667
   44GLOH    C1 8785   2.515   4.645   2.379  0.0953 -0.0797 -0.1031
   44GLOH   H02 8786   2.427   4.607   2.328 -0.5539  2.4801 -0.9435
   44GLOH   H08 8787   2.480   4.651   2.482 -0.3657 -0.5664 -0.2312
   44GLOH    C2 8788   2.620   4.532   2.367 -0.2978 -0.3158 -0.1271
   44GLOH   H04 8789   2.674   4.535   2.271 -0.1989 -0.3395 -0.0719
   44GLOH    O2 8790   2.717   4.547   2.472 -0.2228  0.3072 -0.2233
   44GLOH   H05 8791   2.783   4.477   2.465  0.5226  1.2182 -3.2115
   44GLOH    C3 8792   2.550   4.394   2.388  0.6337 -0.5705  0.3151
   44GLOH   H06 8793   2.493   4.399   2.481 -0.2358  0.6409 -0.2690
   44GLOH   H07 8794   2.631   4.323   2.403  0.1844 -1.1421  0.0784
   44GLOH    O3 8795   2.470   4.355   2.270 -0.3533 -0.6869 -0.6828
   44GLOH   H01 8796   2.378   4.362   2.300  0.3836 -0.0753  1.5685
   45GLOH   H03 8797   0.098   4.937   2.541 -0.3024 -1.6678 -0.7938
   45GLOH    O1 8798   0.057   4.992   2.472  0.1206 -0.0651  0.1764
   45GLOH    C1 8799   0.120   5.120   2.477 -0.7893 -0.1896 -0.1049
   45GLOH   H02 8800   0.146   5.149   2.578  1.8186  1.4539 -1.1956
   45GLOH   H08 8801   0.054   5.199   2.439 -0.2751 -0.0014 -0.6134
   45GLOH    C2 8802   0.255   5.127   2.399  0.0575  0.3688  0.1806
   45GLOH   H04 8803   0.292   5.226   2.427  1.6338 -0.2000  0.1797
   45GLOH    O2 8804   0.343   5.020   2.445 -0.2470 -0.4699  0.4889
   45GLOH   H05 8805   0.314   4.940   2.399 -1.6838  0.0630  0.4438
   45GLOH    C3 8806   0.225   5.122   2.246  0.1039  0.2286  0.8143
   45GLOH   H06 8807   0.150   5.197   2.221 -1.5572 -1.4570  0.6697
   45GLOH   H07 8808   0.186   5.023   2.224  0.4579  0.7678 -2.5455
   45GLOH    O3 8809   0.341   5.147   2.170  0.0656  0.4361 -1.5471
   45GLOH   H01 8810   0.335   5.090   2.091 -0.2575  0.3032 -1.4269
   46GLOH   H03 8811   3.730   8.324   0.051  1.8806  0.8719  2.3497
   46GLOH    O1 8812   3.680   8.261   0.106  0.4940 -0.3002 -0.1938
   46GLOH    C1 8813   3.548   8.265   0.063  0.0239  0.2545 -0.0117
   46GLOH   H02 8814   3.484   8.195   0.118 -1.2130  2.0485  0.8935
   46GLOH   H08 8815   3.540   8.244  -0.044  0.6160 -1.4834  0.2707
   46GLOH    C2 8816   3.481   8.401   0.088 -0.0397  0.8632  0.4758
   46GLOH   H04 8817   3.497   8.420   0.195 -1.5671  0.6252  0.7577
   46GLOH    O2 8818   3.532   8.512   0.012  0.0418  0.3407 -0.0950
   46GLOH   H05 8819   3.522   8.601   0.050 -0.7584  1.0536 -1.9061
   46GLOH    C3 8820   3.331   8.397   0.051  0.2376  0.2097  0.0896
   46GLOH   H06 8821   3.321   8.374  -0.055  1.7533 -4.0697  0.7332
   46GLOH   H07 8822   3.277   8.489   0.069  0.4347  0.1332  1.1105
   46GLOH    O3 8823   3.266   8.294   0.135 -0.0597  0.0989 -0.5839
   46GLOH   H01 8824   3.171   8.302   0.116  0.0351 -0.3104 -1.2345
   47GLOH   H03 8825   3.184   8.959   2.437  0.0824  0.7760  0.2711
   47GLOH    O1 8826   3.098   8.968   2.391  0.3249 -0.2593 -0.4015
   47GLOH    C1 8827   3.088   9.110   2.364 -0.1243  0.0820  0.8190
   47GLOH   H02 8828   3.163   9.140   2.291 -1.0278 -1.3941 -0.7485
   47GLOH   H08 8829   3.091   9.188   2.440  3.7201  1.3019 -0.4434
   47GLOH    C2 8830   2.946   9.139   2.311 -0.2678  0.3839 -0.3903
   47GLOH   H04 8831   2.876   9.129   2.396 -1.4336 -1.1238 -1.5086
   47GLOH    O2 8832   2.935   9.278   2.278  0.0334  0.0199  0.0005
   47GLOH   H05 8833   3.020   9.321   2.295  0.4500  0.0083 -1.8653
   47GLOH    C3 8834   2.896   9.055   2.191 -0.5235  0.3637  0.4640
   47GLOH   H06 8835   2.967   9.072   2.110 -1.5815  0.5883 -0.4259
   47GLOH   H07 8836   2.801   9.089   2.151 -1.2393 -0.2361  1.6141
   47GLOH    O3 8837   2.904   8.915   2.220 -0.1640  0.5766 -0.0502
   47GLOH   H01 8838   2.987   8.911   2.272 -0.3210  0.0462  0.1625
   48GLOH   H03 8839   3.749   3.679   1.045 -2.2871  0.9675 -2.0879
   48GLOH    O1 8840   3.678   3.668   1.111 -0.6650  0.2090 -0.4356
   48GLOH    C1 8841   3.633   3.534   1.106 -0.5496  1.1512  0.3638
   48GLOH   H02 8842   3.713   3.465   1.134 -2.1402 -2.1322 -2.7530
   48GLOH   H08 8843   3.598   3.503   1.008  0.4048  2.1424 -0.2908
   48GLOH    C2 8844   3.533   3.489   1.215 -0.0936  0.8137  0.4393
   48GLOH   H04 8845   3.438   3.522   1.170  0.6722 -0.1430 -1.9734
   48GLOH    O2 8846   3.530   3.344   1.218  0.5006  0.1933  0.3106
   48GLOH   H05 8847   3.501   3.315   1.130 -1.7238  1.4577  0.5895
   48GLOH    C3 8848   3.560   3.554   1.350  0.0425 -0.4247  0.1514
   48GLOH   H06 8849   3.655   3.515   1.386  0.3370 -0.5614 -0.7586
   48GLOH   H07 8850   3.480   3.520   1.416  1.2270  0.0534  1.8659
   48GLOH    O3 8851   3.550   3.695   1.327 -0.0952 -0.6686 -0.0811
   48GLOH   H01 8852   3.581   3.713   1.237 -0.3604 -0.3576 -0.1116
   49GLOH   H03 8853   0.465   9.701   0.820 -0.5520 -2.1951  1.3871
   49GLOH    O1 8854   0.560   9.693   0.841 -0.0490 -0.3353 -0.1287
   49GLOH    C1 8855   0.604   9.823   0.901  0.1482  0.1133  0.5275
   49GLOH   H02 8856   0.524   9.854   0.969 -2.5852  2.5735 -3.6199
   49GLOH   H08 8857   0.614   9.906   0.832  0.2557  0.1351  0.5710
   49GLOH    C2 8858   0.737   9.822   0.978 -0.0091 -0.1250  0.6823
   49GLOH   H04 8859   0.742   9.929   1.002  0.5696  0.4021 -1.6552
   49GLOH    O2 8860   0.736   9.741   1.096 -0.2608  0.1930  0.1407
   49GLOH   H05 8861   0.684   9.793   1.159  0.1004 -0.5666  1.0823
   49GLOH    C3 8862   0.858   9.783   0.892 -0.3099 -0.3598 -0.0242
   49GLOH   H06 8863   0.836   9.683   0.854 -0.8893 -0.9901  1.9168
   49GLOH   H07 8864   0.951   9.757   0.941  0.0918  1.3848  0.2023
   49GLOH    O3 8865   0.883   9.871   0.777  0.0373  0.1054  0.1337
   49GLOH   H01 8866   0.808   9.852   0.719  1.2109  0.7909 -1.6554
   50GLOH   H03 8867   4.557   1.514   2.084  2.1707 -0.7468  0.7739
   50GLOH    O1 8868   4.539   1.571   2.161  0.1293 -0.2023 -0.0857
   50GLOH    C1 8869   4.526   1.702   2.116  0.3451  0.9756 -0.0529
   50GLOH   H02 8870   4.435   1.726   2.061  1.0494  0.2770 -1.5427
   50GLOH   H08 8871   4.608   1.719   2.047  1.5407 -0.2789  1.0315
   50GLOH    C2 8872   4.558   1.802   2.227 -1.1451 -0.1025 -0.1756
   50GLOH   H04 8873   4.661   1.803   2.265 -0.9292  1.5659 -0.7644
   50GLOH    O2 8874   4.537   1.937   2.168 -0.3421 -0.1989 -0.3105
   50GLOH   H05 8875   4.563   2.008   2.228 -0.1166  1.7924 -2.7014
   50GLOH    C3 8876   4.454   1.782   2.337 -0.5791 -0.1845 -0.4548
   50GLOH   H06 8877   4.360   1.805   2.286 -0.3570 -0.5270 -1.0214
   50GLOH   H07 8878   4.464   1.848   2.423 -0.2944 -1.4063  0.4763
   50GLOH    O3 8879   4.455   1.651   2.382  0.3968  0.1012  0.2603
   50GLOH   H01 8880   4.478   1.597   2.304 -0.3280  0.9144 -0.5198
   51GLOH   H03 8881   8.896   6.701   1.002 -0.6290  2.6333  1.5417
   51GLOH    O1 8882   8.991   6.707   1.023 -0.2394  0.1961  0.6038
   51GLOH    C1 8883   9.040   6.580   1.076  0.1016 -0.0214 -0.2920
   51GLOH   H02 8884   8.997   6.562   1.175 -0.9504  1.0164 -0.5486
   51GLOH   H08 8885   9.148   6.577   1.089  0.0793  0.9878  0.1506
   51GLOH    C2 8886   8.992   6.474   0.983  0.7849 -0.0782  0.5716
   51GLOH   H04 8887   9.063   6.493   0.900  0.1424 -1.1961 -0.2430
   51GLOH    O2 8888   9.020   6.346   1.035  0.2300  0.4552 -0.2310
   51GLOH   H05 8889   9.115   6.333   1.016 -0.2827 -1.6934 -1.5287
   51GLOH    C3 8890   8.841   6.476   0.957 -0.8025  0.7309  0.1102
   51GLOH   H06 8891   8.786   6.450   1.047 -2.1947  3.9899  0.2863
   51GLOH   H07 8892   8.817   6.403   0.880 -2.0659  1.0357  0.1920
   51GLOH    O3 8893   8.796   6.602   0.901 -0.2829 -0.7156  0.3902
   51GLOH   H01 8894   8.836   6.609   0.812  1.9647 -0.6600  1.3822
   52GLOH   H03 8895   2.776   7.929   1.830 -0.6960  2.7641 -2.5517
   52GLOH    O1 8896   2.744   7.865   1.763 -0.7079 -0.1811  0.1004
   52GLOH    C1 8897   2.600   7.877   1.747  0.2531  0.1585 -0.3014
   52GLOH   H02 8898   2.560   7.823   1.661  2.3661  1.1622 -1.9325
   52GLOH   H08 8899   2.570   7.981   1.736  0.1969  0.2697  0.8215
   52GLOH    C2 8900   2.528   7.829   1.873 -0.6037  0.1151 -0.0566
   52GLOH   H04 8901   2.554   7.899   1.953 -0.3215  2.2439 -1.9761
   52GLOH    O2 8902   2.381   7.836   1.862  0.0441  0.6654 -0.3934
   52GLOH   H05 8903   2.340   7.876   1.940 -0.0389  1.3923 -0.8053
   52GLOH    C3 8904   2.560   7.683   1.906 -0.7292 -0.4659 -0.0663
   52GLOH   H06 8905   2.668   7.665   1.908 -0.6482 -0.1657 -1.7191
   52GLOH   H07 8906   2.515   7.624   1.826 -0.8521  2.4978 -2.2607
   52GLOH    O3 8907   2.516   7.641   2.032 -0.0773  0.1982 -0.2738
   52GLOH   H01 8908   2.585   7.638   2.100 -1.3803 -1.6341  1.0175
   53GLOH   H03 8909   9.134   5.713   1.751 -1.1317 -2.5182 -0.0917
   53GLOH    O1 8910   9.058   5.750   1.799  0.3432  0.5342  0.0027
   53GLOH    C1 8911   9.056   5.666   1.915  0.1232  0.7176 -0.0395
   53GLOH   H02 8912   9.120   5.579   1.909  0.0284  0.3278  3.5802
   53GLOH   H08 8913   8.958   5.624   1.936  0.3965  0.7265  1.3069
   53GLOH    C2 8914   9.095   5.743   2.044  0.2367  0.3397  0.1745
   53GLOH   H04 8915   9.059   5.846   2.034  1.8716  1.0999  1.9601
   53GLOH    O2 8916   9.053   5.667   2.164  0.3399  0.4162  0.2591
   53GLOH   H05 8917   9.083   5.715   2.243  2.4709 -2.8498  1.5435
   53GLOH    C3 8918   9.246   5.747   2.057  0.0998  0.3174  0.1371
   53GLOH   H06 8919   9.284   5.645   2.050 -2.2646 -0.5152 -0.9952
   53GLOH   H07 8920   9.279   5.796   2.149 -2.2928  0.3053  1.0373
   53GLOH    O3 8921   9.303   5.818   1.949  0.0148  0.5817 -0.4159
   53GLOH   H01 8922   9.379   5.765   1.919  0.0020  1.0253 -1.2276
   54GLOH   H03 8923   1.916   4.229   1.980 -2.3134  1.4436 -1.5450
   54GLOH    O1 8924   1.850   4.179   2.031 -0.3080  0.2242 -0.0816
   54GLOH    C1 8925   1.890   4.041   2.022  0.0421 -0.4559  0.1266
   54GLOH   H02 8926   1.998   4.034   2.008 -0.0112 -1.1964  0.0547
   54GLOH   H08 8927   1.840   3.996   1.936 -0.2794 -1.3134  0.7638
   54GLOH    C2 8928   1.853   3.963   2.147 -0.1951 -0.3344  0.1003
   54GLOH   H04 8929   1.743   3.958   2.154 -0.1966  1.6066  2.1405
   54GLOH    O2 8930   1.916   3.836   2.148  0.8785  0.7242  0.2317
   54GLOH   H05 8931   1.882   3.767   2.208  1.2120  0.0646 -0.3252
   54GLOH    C3 8932   1.884   4.042   2.275  0.0493  0.2593 -0.3808
   54GLOH   H06 8933   1.992   4.035   2.290 -0.1205  0.2838  0.8904
   54GLOH   H07 8934   1.831   3.991   2.355 -2.7447  0.7284 -1.8918
   54GLOH    O3 8935   1.824   4.174   2.275 -0.5255 -0.3935 -0.9743
   54GLOH   H01 8936   1.830   4.206   2.183  0.0388  0.2244 -0.7295
   55GLOH   H03 8937   4.128   9.457   1.196  1.8548  0.2760 -1.4471
   55GLOH    O1 8938   4.106   9.400   1.121 -0.0703 -0.1108 -0.6125
   55GLOH    C1 8939   3.981   9.332   1.154  0.5315  0.2349 -0.9905
   55GLOH   H02 8940   3.897   9.399   1.174  0.6659  0.3098 -0.6726
   55GLOH   H08 8941   3.987   9.285   1.252  0.3186  0.3622 -0.9148
   55GLOH    C2 8942   3.951   9.224   1.047  0.4290 -0.4172 -0.1748
   55GLOH   H04 8943   3.854   9.180   1.074  0.7058 -2.5560 -2.5607
   55GLOH    O2 8944   3.947   9.291   0.920  0.1373 -0.5846  0.4207
   55GLOH   H05 8945   3.960   9.385   0.941  2.4301 -0.4353 -1.5040
   55GLOH    C3 8946   4.056   9.105   1.052 -0.6401 -0.1566  0.3614
   55GLOH   H06 8947   4.157   9.145   1.061 -1.2879  1.3977  0.9161
   55GLOH   H07 8948   4.055   9.044   0.962  1.4849 -0.2581  0.3799
   55GLOH    O3 8949   4.037   9.013   1.163 -0.0925  0.3168  0.0387
   55GLOH   H01 8950   4.092   8.939   1.133  0.7326  0.4101  1.3119
   56GLOH   H03 8951   0.407   3.768   1.619  0.7815  1.0601 -0.0285
   56GLOH    O1 8952   0.338   3.785   1.686  0.2265  0.2262 -0.3780
   56GLOH    C1 8953   0.330   3.667   1.767 -0.4799 -0.6291  0.2733
   56GLOH   H02 8954   0.318   3.588   1.693  0.6519 -0.6123  0.0729
   56GLOH   H08 8955   0.250   3.668   1.842 -1.5944  1.8724 -0.8648
   56GLOH    C2 8956   0.465   3.643   1.840 -0.2752  0.2176  0.0662
   56GLOH   H04 8957   0.550   3.690   1.788  0.1462 -0.1220  0.4392
   56GLOH    O2 8958   0.459   3.713   1.965 -0.1453 -0.8337  0.0079
   56GLOH   H05 8959   0.491   3.804   1.954  0.8523 -0.9805  1.5904
   56GLOH    C3 8960   0.486   3.492   1.852 -0.5120  0.0962  0.3651
   56GLOH   H06 8961   0.399   3.457   1.909  1.2552 -3.8138  0.8187
   56GLOH   H07 8962   0.572   3.462   1.912 -0.0079 -1.8718 -1.3214
   56GLOH    O3 8963   0.499   3.427   1.723  0.0196 -0.3083  0.8052
   56GLOH   H01 8964   0.592   3.428   1.691 -0.9221  0.0146 -2.0676
   57GLOH   H03 8965   9.473   6.447   2.093 -1.6422  1.9153 -0.9253
   57GLOH    O1 8966   9.514   6.502   2.162 -0.1943 -0.3589  0.0860
   57GLOH    C1 8967   9.608   6.592   2.093  0.8255 -0.0522 -0.0066
   57GLOH   H02 8968   9.554   6.660   2.027  1.8530  1.1113  0.3286
   57GLOH   H08 8969   9.683   6.539   2.034  0.0415  0.4256 -1.4760
   57GLOH    C2 8970   9.695   6.681   2.189 -0.1839  0.7672 -0.3100
   57GLOH   H04 8971   9.772   6.738   2.135 -0.5013 -0.4539 -2.0934
   57GLOH    O2 8972   9.613   6.772   2.268  0.1194  0.2911 -0.1687
   57GLOH   H05 8973   9.522   6.761   2.236 -0.5495  0.0220  1.7416
   57GLOH    C3 8974   9.767   6.586   2.282  1.1593 -0.1796  0.0510
   57GLOH   H06 8975   9.691   6.533   2.339  0.4686  1.1663  0.4024
   57GLOH   H07 8976   9.834   6.639   2.351 -1.2311 -0.2854  2.5348
   57GLOH    O3 8977   9.854   6.495   2.212  0.3466  0.4410 -0.1552
   57GLOH   H01 8978   9.809   6.433   2.151  0.7088 -0.4507  0.4799
   58GLOH   H03 8979   8.405   8.120   0.804  0.3762  0.5511 -2.4849
   58GLOH    O1 8980   8.379   8.200   0.853  0.0613 -0.7133 -0.5542
   58GLOH    C1 8981   8.339   8.309   0.771  0.0146 -0.2505  1.0191
   58GLOH   H02 8982   8.232   8.326   0.779 -0.3234 -0.8413 -1.8332
   58GLOH   H08 8983   8.360   8.287   0.666  3.5340  6.5455  0.0461
   58GLOH    C2 8984   8.410   8.437   0.810 -0.5853  0.0587 -0.3854
   58GLOH   H04 8985   8.410   8.511   0.728 -0.7192  0.4462 -0.0335
   58GLOH    O2 8986   8.339   8.492   0.923 -0.1332  0.4728  0.0945
   58GLOH   H05 8987   8.402   8.552   0.966  1.2612 -1.3995  0.7448
   58GLOH    C3 8988   8.561   8.401   0.823 -0.3857 -0.0510  0.5358
   58GLOH   H06 8989   8.567   8.326   0.902 -2.3812  0.5520  1.2964
   58GLOH   H07 8990   8.618   8.487   0.858 -1.0932  0.8899 -0.5661
   58GLOH    O3 8991   8.620   8.347   0.702 -0.1488 -0.7891 -0.2594
   58GLOH   H01 8992   8.613   8.410   0.627  1.2124  1.2090  1.2330
   59GLOH   H03 8993   5.128   3.003   1.920 -0.0418  0.3046  2.0679
   59GLOH    O1 8994   5.050   2.950   1.943 -0.0172 -0.5140  0.3522
   59GLOH    C1 8995   4.935   3.036   1.936 -0.0128 -0.0660  0.2437
   59GLOH   H02 8996   4.958   3.130   1.988  1.3706 -1.2577  1.8343
   59GLOH   H08 8997   4.860   2.986   1.997  1.4612 -1.8780  0.6103
   59GLOH    C2 8998   4.879   3.071   1.793  0.0907  0.6423  0.4986
   59GLOH   H04 8999   4.837   2.976   1.758  2.0163 -0.1607  0.3352
   59GLOH    O2 9000   4.771   3.160   1.808  0.5728  0.0900 -0.1513
   59GLOH   H05 9001   4.741   3.183   1.718 -0.5811  0.9407  0.4369
   59GLOH    C3 9002   4.985   3.126   1.699 -0.2637 -0.5303 -0.8776
   59GLOH   H06 9003   4.962   3.087   1.599  0.6000 -1.8198 -0.5948
   59GLOH   H07 9004   5.071   3.070   1.736 -1.3449 -1.3987  0.3836
   59GLOH    O3 9005   5.017   3.266   1.708 -0.1649 -0.4375 -0.3448
   59GLOH   H01 9006   4.962   3.313   1.642  1.0839  0.9010 -0.4623
   60GLOH   H03 9007   4.783   2.933   1.372 -0.4072  0.1297  2.0491
   60GLOH    O1 9008   4.876   2.907   1.389  0.0003  0.0993 -0.1498
   60GLOH    C1 9009   4.950   2.960   1.279 -0.0711  0.2919 -0.2509
   60GLOH   H02 9010   4.970   2.880   1.208  2.4341  1.1681 -0.5993
   60GLOH   H08 9011   5.051   2.982   1.315 -0.1256  0.6180 -0.3004
   60GLOH    C2 9012   4.883   3.080   1.203  1.0041 -0.0685 -1.0553
   60GLOH   H04 9013   4.887   3.178   1.252 -1.4286 -0.5266  0.1422
   60GLOH    O2 9014   4.957   3.092   1.078 -0.8796  0.2831 -0.4587
   60GLOH   H05 9015   4.939   3.176   1.033  1.9631  0.7713 -0.7962
   60GLOH    C3 9016   4.732   3.050   1.183 -0.6119  0.8535  0.2858
   60GLOH   H06 9017   4.724   2.966   1.114 -0.0756  0.9390  0.1207
   60GLOH   H07 9018   4.686   3.132   1.128 -0.9760 -1.4611 -2.9992
   60GLOH    O3 9019   4.662   3.054   1.304 -0.5295  0.0953  0.7190
   60GLOH   H01 9020   4.573   3.023   1.278 -1.0693  0.3660  2.2095
   61GLOH   H03 9021   2.981   3.085   0.506  0.3891 -0.0436 -0.3382
   61GLOH    O1 9022   3.064   3.136   0.508  0.1131  0.3582  0.6341
   61GLOH    C1 9023   3.096   3.168   0.647 -0.4869  0.0073  0.0779
   61GLOH   H02 9024   3.205   3.175   0.650 -0.1838 -3.4653 -0.2399
   61GLOH   H08 9025   3.072   3.082   0.710 -1.8518  0.5140  0.2806
   61GLOH    C2 9026   3.026   3.287   0.711  0.1427  0.0675 -0.3853
   61GLOH   H04 9027   2.918   3.263   0.712  0.4470 -1.2798 -0.4457
   61GLOH    O2 9028   3.069   3.294   0.852 -0.4646 -0.0882 -0.0538
   61GLOH   H05 9029   3.029   3.371   0.896 -0.8034  0.0383 -0.5794
   61GLOH    C3 9030   3.041   3.420   0.632  0.2855  0.4996  0.5421
   61GLOH   H06 9031   3.132   3.414   0.573 -0.5372 -0.2827 -0.6609
   61GLOH   H07 9032   3.051   3.506   0.697  0.4130  0.2757  0.8208
   61GLOH    O3 9033   2.937   3.425   0.538  0.2760 -0.0010 -0.0756
   61GLOH   H01 9034   2.862   3.363   0.549 -0.5265  0.7459 -1.3046
   62GLOH   H03 9035   0.721   2.869   0.712 -1.5313  1.6334 -2.7187
   62GLOH    O1 9036   0.640   2.838   0.757  0.5820 -0.6245 -0.3147
   62GLOH    C1 9037   0.676   2.766   0.875  0.5196 -0.0803 -0.5267
   62GLOH   H02 9038   0.604   2.774   0.956  0.6933 -0.4143 -0.3369
   62GLOH   H08 9039   0.767   2.809   0.917  0.3539 -0.2650  0.0244
   62GLOH    C2 9040   0.719   2.620   0.856 -0.1434  0.1001  0.0604
   62GLOH   H04 9041   0.748   2.593   0.959 -1.1923  1.9842  0.8663
   62GLOH    O2 9042   0.599   2.541   0.826  0.5215  0.2566  0.1484
   62GLOH   H05 9043   0.542   2.538   0.905 -0.4100 -1.6975 -0.5710
   62GLOH    C3 9044   0.829   2.615   0.754  0.0937 -0.6998  0.0771
   62GLOH   H06 9045   0.892   2.703   0.766 -2.9217  1.5772  0.0027
   62GLOH   H07 9046   0.781   2.629   0.657  0.2209  0.4002  0.1608
   62GLOH    O3 9047   0.896   2.488   0.748  0.0428  0.0234 -0.0278
   62GLOH   H01 9048   0.828   2.419   0.742  1.8857 -1.9967  1.5782
   63GLOH   H03 9049   9.727   6.565   0.608  0.2664 -0.2640  0.7364
   63GLOH    O1 9050   9.702   6.522   0.692 -0.1174  0.0047  0.7568
   63GLOH    C1 9051   9.560   6.536   0.692 -0.5762 -0.5326  0.2318
   63GLOH   H02 9052   9.508   6.440   0.700 -1.0241 -0.2456  0.7803
   63GLOH   H08 9053   9.524   6.592   0.606 -1.0351  0.5486  1.1177
   63GLOH    C2 9054   9.516   6.614   0.815  0.5887  0.9048  0.6518
   63GLOH   H04 9055   9.535   6.552   0.904 -1.0005  0.9050  1.0051
   63GLOH    O2 9056   9.588   6.741   0.827 -0.0441  0.1302  0.0191
   63GLOH   H05 9057   9.552   6.782   0.907  1.1720  0.0931  0.5992
   63GLOH    C3 9058   9.367   6.643   0.808 -0.1695 -0.0800 -0.0312
   63GLOH   H06 9059   9.357   6.735   0.750 -0.5338  1.1405  1.9189
   63GLOH   H07 9060   9.333   6.670   0.909 -0.3270  0.9164 -0.3378
   63GLOH    O3 9061   9.288   6.535   0.753  0.4554  0.4845  0.2096
   63GLOH   H01 9062   9.277   6.466   0.821 -0.0108  2.4340  2.1682
   64GLOH   H03 9063   1.080   2.586   2.045  1.1352 -0.5968  0.6865
   64GLOH    O1 9064   1.147   2.537   1.994  0.5167 -1.0587  0.2952
   64GLOH    C1 9065   1.213   2.430   2.064  0.2128 -0.3717  0.2447
   64GLOH   H02 9066   1.220   2.449   2.172  1.6676  1.3870 -0.1330
   64GLOH   H08 9067   1.314   2.415   2.026 -0.7018 -1.5023 -1.8084
   64GLOH    C2 9068   1.148   2.295   2.038  0.0485  0.4283  0.3838
   64GLOH   H04 9069   1.155   2.277   1.930  0.3855 -2.3594  0.8423
   64GLOH    O2 9070   1.231   2.199   2.106  0.3413  0.1524 -0.3872
   64GLOH   H05 9071   1.233   2.111   2.064  0.8018 -0.0885  0.1513
   64GLOH    C3 9072   1.001   2.300   2.083 -0.0892  0.1900 -0.3567
   64GLOH   H06 9073   0.960   2.391   2.038 -1.4043 -0.2902 -0.1637
   64GLOH   H07 9074   0.995   2.315   2.191 -0.6001  0.0051 -0.3588
   64GLOH    O3 9075   0.937   2.184   2.034 -0.2282 -0.0602  0.2335
   64GLOH   H01 9076   0.991   2.109   2.065 -0.2041 -1.1382 -2.3217
   65GLOH   H03 9077   4.342   0.797   2.496  0.0452  1.9010  0.7320
   65GLOH    O1 9078   4.395   0.822   2.419 -0.3427 -0.0161 -0.1896
   65GLOH    C1 9079   4.449   0.702   2.369  0.2260 -0.1162 -0.1930
   65GLOH   H02 9080   4.505   0.657   2.451  0.7064  1.9452  0.6442
   65GLOH   H08 9081   4.535   0.728   2.307  1.1741 -0.5120  0.9423
   65GLOH    C2 9082   4.354   0.601   2.294  0.6764  0.0039 -0.4428
   65GLOH   H04 9083   4.305   0.652   2.209  0.3855 -0.4031 -0.5202
   65GLOH    O2 9084   4.436   0.493   2.233 -0.6684  0.1928  0.4061
   65GLOH   H05 9085   4.414   0.413   2.285 -2.6988 -0.1240 -0.8754
   65GLOH    C3 9086   4.247   0.554   2.395 -0.0749 -0.2376 -0.7294
   65GLOH   H06 9087   4.204   0.645   2.438  1.4908 -0.9805  2.5327
   65GLOH   H07 9088   4.295   0.519   2.486  0.8052  2.9598  0.1033
   65GLOH    O3 9089   4.156   0.457   2.341  0.4258  0.2352 -0.0038
   65GLOH   H01 9090   4.207   0.373   2.335  0.2971  0.2003 -0.7540
   66GLOH   H03 9091   4.203   3.455   1.680 -2.1218  0.9100 -0.7667
   66GLOH    O1 9092   4.224   3.405   1.599 -0.4414  0.2385  0.0669
   66GLOH    C1 9093   4.241   3.269   1.627  0.0574  0.0821 -0.4983
   66GLOH   H02 9094   4.184   3.233   1.714  1.7870 -0.2680  0.5109
   66GLOH   H08 9095   4.346   3.255   1.651  0.4173  0.9506 -1.5644
   66GLOH    C2 9096   4.209   3.180   1.509 -0.1538  0.6669  0.2788
   66GLOH   H04 9097   4.284   3.195   1.430 -0.6825  0.8204 -0.1967
   66GLOH    O2 9098   4.194   3.041   1.538  0.3611  0.1842 -0.5946
   66GLOH   H05 9099   4.278   2.992   1.529  0.9313  0.9016  0.6531
   66GLOH    C3 9100   4.073   3.224   1.440  0.0490  0.4742  0.6598
   66GLOH   H06 9101   3.992   3.217   1.513 -0.0384 -1.5334  0.3913
   66GLOH   H07 9102   4.059   3.164   1.350  0.7206  1.3442 -0.0382
   66GLOH    O3 9103   4.087   3.354   1.395  0.2596 -0.3752  0.4532
   66GLOH   H01 9104   4.142   3.395   1.464  1.7813  0.4783 -1.2350
   67GLOH   H03 9105   0.758   6.805   1.749 -3.0083 -0.8719 -0.6938
   67GLOH    O1 9106   0.765   6.829   1.655 -0.0419  0.5024 -0.1873
   67GLOH    C1 9107   0.654   6.919   1.620 -0.5390  1.0601  0.2191
   67GLOH   H02 9108   0.691   6.995   1.551  1.8628  0.7860  1.1436
   67GLOH   H08 9109   0.615   6.960   1.713  0.2963 -0.8989  1.4633
   67GLOH    C2 9110   0.539   6.853   1.548  0.5405 -0.3950 -0.3018
   67GLOH   H04 9111   0.494   6.785   1.622 -1.1865 -0.4445 -1.3874
   67GLOH    O2 9112   0.437   6.944   1.503  0.2011 -0.4476  0.6601
   67GLOH   H05 9113   0.396   6.989   1.578 -0.8714  1.9823 -1.2866
   67GLOH    C3 9114   0.590   6.758   1.438 -0.4250 -0.0569  0.4647
   67GLOH   H06 9115   0.667   6.694   1.481 -1.7575 -0.1800  2.7504
   67GLOH   H07 9116   0.636   6.823   1.364  1.2818 -1.7574 -0.0255
   67GLOH    O3 9117   0.481   6.688   1.378 -0.1581  0.3414  0.7112
   67GLOH   H01 9118   0.416   6.749   1.338  0.7885  0.1692 -1.1580
   68GLOH   H03 9119   8.111   9.743   0.711 -0.0113  0.5870  0.1937
   68GLOH    O1 9120   8.044   9.812   0.695 -0.0306  0.4880 -0.1589
   68GLOH    C1 9121   7.926   9.799   0.782 -0.0766 -0.1752 -0.0814
   68GLOH   H02 9122   7.919   9.877   0.858 -0.2794 -0.3739  0.1043
   68GLOH   H08 9123   7.929   9.705   0.837 -1.2844  0.5358  1.2469
   68GLOH    C2 9124   7.797   9.799   0.696  0.2398 -0.1033 -0.3842
   68GLOH   H04 9125   7.800   9.877   0.618  1.9560  1.7931  1.5170
   68GLOH    O2 9126   7.763   9.672   0.637  0.2909 -0.3810 -0.0781
   68GLOH   H05 9127   7.845   9.620   0.630  1.3273  1.4089 -1.5886
   68GLOH    C3 9128   7.664   9.831   0.771  0.0654 -0.1306 -0.4486
   68GLOH   H06 9129   7.645   9.772   0.861  4.1560 -0.8711  0.0150
   68GLOH   H07 9130   7.577   9.808   0.709  0.6718 -0.3683 -1.2220
   68GLOH    O3 9131   7.657   9.974   0.803 -0.0833  0.6105  0.4154
   68GLOH   H01 9132   7.587  10.015   0.749  1.3357  1.7502 -0.6142
   69GLOH   H03 9133   4.148   4.657   1.110  0.7091  1.7327 -0.5149
   69GLOH    O1 9134   4.169   4.680   1.202  0.1048  0.0873  0.0632
   69GLOH    C1 9135   4.080   4.598   1.281 -1.0148  0.2488 -0.4719
   69GLOH   H02 9136   4.109   4.493   1.287  0.0773  0.5605 -0.1778
   69GLOH   H08 9137   3.986   4.598   1.225 -0.5593  1.4452 -1.2617
   69GLOH    C2 9138   4.072   4.663   1.416  0.6413 -0.3997  0.3692
   69GLOH   H04 9139   4.028   4.763   1.403  0.7292 -0.4906 -0.6145
   69GLOH    O2 9140   4.005   4.581   1.511 -0.2526 -0.3570 -0.0581
   69GLOH   H05 9141   3.912   4.561   1.494 -0.8677  2.6443 -0.5353
   69GLOH    C3 9142   4.209   4.684   1.464  0.2398 -0.0698  0.2848
   69GLOH   H06 9143   4.270   4.594   1.469 -0.5137 -0.6550 -1.0506
   69GLOH   H07 9144   4.200   4.713   1.569  0.3141  1.3436 -0.0878
   69GLOH    O3 9145   4.281   4.784   1.395 -0.0269  0.1864  0.5891
   69GLOH   H01 9146   4.271   4.754   1.302 -1.6009  0.5739  0.6140
   70GLOH   H03 9147   3.613   5.465   1.016 -0.3948  2.0473  1.2785
   70GLOH    O1 9148   3.671   5.509   0.952 -0.5711  0.6255  0.1182
   70GLOH    C1 9149   3.593   5.545   0.839 -0.0455 -0.2010  0.2222
   70GLOH   H02 9150   3.505   5.482   0.840  1.5564 -2.5134 -0.9977
   70GLOH   H08 9151   3.642   5.513   0.747  0.9894 -0.5461  0.8892
   70GLOH    C2 9152   3.550   5.691   0.833  0.4273  0.1033 -0.4446
   70GLOH   H04 9153   3.631   5.755   0.797 -1.8128  2.1702 -1.8934
   70GLOH    O2 9154   3.449   5.696   0.730  0.2026  0.1854  0.1809
   70GLOH   H05 9155   3.379   5.758   0.755 -1.0792 -1.1576  0.0397
   70GLOH    C3 9156   3.495   5.736   0.968  0.9723 -0.1012  0.0937
   70GLOH   H06 9157   3.446   5.829   0.940  1.4869 -0.0443 -0.6396
   70GLOH   H07 9158   3.579   5.761   1.033 -0.0175  2.1573  0.5583
   70GLOH    O3 9159   3.395   5.649   1.024  0.4944  0.6701  0.0992
   70GLOH   H01 9160   3.312   5.699   1.031  0.7254  0.8616  1.8314
   71GLOH   H03 9161   8.604   4.638   1.842 -1.8605 -0.5753  1.4317
   71GLOH    O1 9162   8.622   4.719   1.893 -0.3483 -0.2346  0.4045
   71GLOH    C1 9163   8.735   4.802   1.855  0.3684  0.2070  0.2275
   71GLOH   H02 9164   8.736   4.894   1.913 -0.1973 -0.1197  0.7626
   71GLOH   H08 9165   8.716   4.839   1.754  0.4782 -0.3766 -0.0059
   71GLOH    C2 9166   8.872   4.733   1.871 -0.2898  0.2090 -0.0428
   71GLOH   H04 9167   8.863   4.639   1.813 -0.7610  1.6749 -2.4156
   71GLOH    O2 9168   8.958   4.805   1.782 -0.0476 -0.0907 -0.1655
   71GLOH   H05 9169   8.982   4.752   1.705 -0.2941  0.5732 -0.7125
   71GLOH    C3 9170   8.913   4.718   2.019  0.4087  1.1305 -0.4673
   71GLOH   H06 9171   8.902   4.809   2.078 -2.1086  1.4058 -1.2782
   71GLOH   H07 9172   9.018   4.690   2.024  0.7396  2.2893 -0.8159
   71GLOH    O3 9173   8.837   4.610   2.088  0.4568 -0.2505  0.4643
   71GLOH   H01 9174   8.748   4.635   2.121 -0.4545 -1.1295 -1.2817
   72GLOH   H03 9175   7.378   9.634   0.498  1.0920 -1.1799  0.7930
   72GLOH    O1 9176   7.442   9.705   0.476  0.3208 -0.6608  0.2069
   72GLOH    C1 9177   7.389   9.778   0.366 -0.1023  0.3865  0.2705
   72GLOH   H02 9178   7.353   9.715   0.284 -0.2672  0.1011  0.5594
   72GLOH   H08 9179   7.471   9.836   0.324 -1.6154  1.3896 -1.3656
   72GLOH    C2 9180   7.275   9.886   0.390  0.2338  0.7782 -0.2469
   72GLOH   H04 9181   7.290   9.925   0.492 -3.4005  0.0230  0.6493
   72GLOH    O2 9182   7.275   9.993   0.294 -0.0864 -0.6048 -0.4118
   72GLOH   H05 9183   7.343  10.057   0.319  0.9085 -1.6537 -0.3702
   72GLOH    C3 9184   7.141   9.815   0.402 -0.1945  0.3586 -0.6535
   72GLOH   H06 9185   7.122   9.760   0.310 -0.7531  0.7190 -0.7558
   72GLOH   H07 9186   7.059   9.886   0.407 -0.3730  0.0503  1.5478
   72GLOH    O3 9187   7.129   9.729   0.524 -0.3800 -0.3785  0.0968
   72GLOH   H01 9188   7.186   9.651   0.509  0.3046  0.0224  0.5463
   73GLOH   H03 9189   9.955   0.229   2.037  0.9988 -3.7190 -0.0241
   73GLOH    O1 9190   9.918   0.214   1.948 -0.4431  0.4793 -0.2650
   73GLOH    C1 9191   9.929   0.080   1.897  0.2021  0.3000  0.0569
   73GLOH   H02 9192   9.931   0.007   1.978 -0.3263  0.5437  0.2906
   73GLOH   H08 9193  10.025   0.068   1.846  0.3619 -0.3490  0.5029
   73GLOH    C2 9194   9.806   0.053   1.793 -0.1421 -0.7042 -0.7807
   73GLOH   H04 9195   9.795   0.143   1.730  0.8483  0.0696  0.1069
   73GLOH    O2 9196   9.836  -0.064   1.713  0.2004 -0.4284  0.1870
   73GLOH   H05 9197   9.773  -0.050   1.641  0.6898  1.8705  0.1660
   73GLOH    C3 9198   9.678   0.053   1.871  0.2799 -0.4376 -0.7439
   73GLOH   H06 9199   9.666   0.153   1.912 -0.8968 -0.4353 -1.0757
   73GLOH   H07 9200   9.692  -0.010   1.959 -0.8848  0.2485 -0.0592
   73GLOH    O3 9201   9.564   0.022   1.797 -0.0497  0.6750 -0.1254
   73GLOH   H01 9202   9.578   0.033   1.701 -0.7032 -1.3775 -0.4723
   74GLOH   H03 9203   2.703   4.289   1.920 -1.8130 -1.8318  1.7292
   74GLOH    O1 9204   2.632   4.319   1.861  0.0837 -0.1101  0.2429
   74GLOH    C1 9205   2.610   4.233   1.744  0.3181 -0.3913 -0.2619
   74GLOH   H02 9206   2.524   4.171   1.769 -0.4029  0.5774 -0.3138
   74GLOH   H08 9207   2.695   4.171   1.716  0.0435  0.2863 -2.7328
   74GLOH    C2 9208   2.567   4.314   1.620 -0.1913 -0.2139  0.2129
   74GLOH   H04 9209   2.571   4.243   1.536  0.2214 -2.3133  1.9455
   74GLOH    O2 9210   2.434   4.362   1.620 -0.0046 -0.0432  0.0038
   74GLOH   H05 9211   2.378   4.288   1.593  2.0710 -1.2939 -1.0414
   74GLOH    C3 9212   2.669   4.423   1.573 -0.7303  0.1977  0.1858
   74GLOH   H06 9213   2.622   4.489   1.500 -1.9991 -2.4555 -1.4493
   74GLOH   H07 9214   2.752   4.371   1.525 -1.8894  0.0442 -1.6922
   74GLOH    O3 9215   2.725   4.498   1.684 -0.4011 -0.2566 -0.0240
   74GLOH   H01 9216   2.707   4.442   1.762  2.6609  0.7193  1.4397
   75GLOH   H03 9217   0.838   9.297   2.368 -1.1830 -0.0713  0.5754
   75GLOH    O1 9218   0.803   9.234   2.302  0.0020 -0.3803  0.2278
   75GLOH    C1 9219   0.829   9.099   2.354  0.1078  0.2046 -0.0198
   75GLOH   H02 9220   0.840   9.098   2.463 -1.3453  1.3554  0.1531
   75GLOH   H08 9221   0.920   9.054   2.314 -0.0074  0.6303 -0.7569
   75GLOH    C2 9222   0.714   9.006   2.321 -0.5484 -0.5534 -0.3118
   75GLOH   H04 9223   0.737   8.912   2.373 -0.9455 -0.3835  0.1729
   75GLOH    O2 9224   0.582   9.047   2.358  0.0975  0.1980  0.0519
   75GLOH   H05 9225   0.567   9.012   2.447 -0.9630 -0.9336 -0.5519
   75GLOH    C3 9226   0.714   8.987   2.172 -0.3212 -0.1053  0.3897
   75GLOH   H06 9227   0.709   9.084   2.123  2.5656 -1.7332 -3.5041
   75GLOH   H07 9228   0.627   8.929   2.140 -0.5508  0.0877  0.6704
   75GLOH    O3 9229   0.831   8.914   2.121  0.4646 -0.3192 -0.8054
   75GLOH   H01 9230   0.816   8.825   2.157 -1.5891  0.1142 -0.5367
   76GLOH   H03 9231   2.439   3.397   1.161  0.8634  0.5556  0.0996
   76GLOH    O1 9232   2.490   3.340   1.221 -0.1667 -0.3606  0.1206
   76GLOH    C1 9233   2.413   3.220   1.212 -0.9338  0.0169 -0.1335
   76GLOH   H02 9234   2.482   3.136   1.210 -0.3990  0.4515  0.0108
   76GLOH   H08 9235   2.365   3.218   1.114 -2.3542 -4.8316  0.5288
   76GLOH    C2 9236   2.310   3.198   1.324  0.1843  0.4375  0.2830
   76GLOH   H04 9237   2.359   3.211   1.421  0.4885  2.2609 -0.0865
   76GLOH    O2 9238   2.205   3.294   1.322  0.3573  0.3646  0.5170
   76GLOH   H05 9239   2.149   3.277   1.400 -0.2709  0.1069  0.0056
   76GLOH    C3 9240   2.240   3.060   1.320 -0.0761  0.3894  0.0805
   76GLOH   H06 9241   2.154   3.071   1.254 -0.1448  0.0978  0.1211
   76GLOH   H07 9242   2.215   3.027   1.421 -3.0151 -0.9774 -1.0574
   76GLOH    O3 9243   2.316   2.962   1.248 -0.1954 -0.0103 -0.0073
   76GLOH   H01 9244   2.383   2.930   1.311 -0.7383 -2.2410 -0.5233
   77GLOH   H03 9245   7.882   8.663   2.188 -1.4566 -0.3056 -2.8655
   77GLOH    O1 9246   7.836   8.584   2.220  0.2741 -0.1909  0.1179
   77GLOH    C1 9247   7.867   8.467   2.139 -0.0005  0.9288  0.6889
   77GLOH   H02 9248   7.975   8.454   2.138 -0.3546 -2.5094 -1.5967
   77GLOH   H08 9249   7.837   8.479   2.035 -1.3878 -0.5208  0.9186
   77GLOH    C2 9250   7.817   8.333   2.200  0.4064 -0.5684 -0.6944
   77GLOH   H04 9251   7.709   8.329   2.180  0.3871  0.6169 -0.8713
   77GLOH    O2 9252   7.883   8.218   2.138 -0.1024 -0.3998  0.4638
   77GLOH   H05 9253   7.953   8.191   2.200  0.5169 -0.0385 -0.0640
   77GLOH    C3 9254   7.833   8.324   2.352  0.7230 -0.3957  0.0095
   77GLOH   H06 9255   7.938   8.335   2.375  1.3933  0.0984 -3.0518
   77GLOH   H07 9256   7.792   8.230   2.389 -1.1545  0.6967  0.8145
   77GLOH    O3 9257   7.771   8.433   2.408 -0.0362  0.2814  0.4346
   77GLOH   H01 9258   7.795   8.500   2.341  1.9293  0.2154  1.0456
   78GLOH   H03 9259   2.093   6.441   1.238  2.6948  2.5014  0.3681
   78GLOH    O1 9260   2.117   6.396   1.321  0.5910  0.0774 -0.2596
   78GLOH    C1 9261   2.008   6.381   1.414  0.6635  0.8665  0.1322
   78GLOH   H02 9262   2.044   6.387   1.516  2.3488 -0.3606 -0.3672
   78GLOH   H08 9263   1.968   6.280   1.399 -3.1831  1.7883  3.3564
   78GLOH    C2 9264   1.892   6.477   1.379 -0.0722  0.6228 -0.0815
   78GLOH   H04 9265   1.863   6.454   1.276  2.3149 -2.3176 -0.1652
   78GLOH    O2 9266   1.793   6.458   1.486 -0.0811 -0.2574 -0.5917
   78GLOH   H05 9267   1.762   6.366   1.485  0.0279 -0.2872 -1.6379
   78GLOH    C3 9268   1.960   6.619   1.380  0.2453 -0.6079  0.6573
   78GLOH   H06 9269   2.027   6.631   1.295 -2.4173 -0.2334 -1.4579
   78GLOH   H07 9270   2.021   6.617   1.471  1.5185 -2.9457 -0.2091
   78GLOH    O3 9271   1.869   6.728   1.365  0.0126 -1.0109 -0.2132
   78GLOH   H01 9272   1.858   6.781   1.446 -0.1592  0.5140 -1.2121
   79GLOH   H03 9273   4.004   1.104   0.818 -0.3838 -2.0342  0.9113
   79GLOH    O1 9274   3.950   1.074   0.743  0.4339 -0.3593 -0.3589
   79GLOH    C1 9275   3.827   1.029   0.792  0.0036  0.3083 -0.5347
   79GLOH   H02 9276   3.840   0.951   0.867  0.7938  0.9668  0.0115
   79GLOH   H08 9277   3.766   0.980   0.715 -1.3016  0.2272  0.5285
   79GLOH    C2 9278   3.737   1.142   0.849 -0.2594 -0.1015 -0.1741
   79GLOH   H04 9279   3.710   1.222   0.779 -2.1458  0.6216  1.3297
   79GLOH    O2 9280   3.608   1.093   0.885 -0.2548 -0.1970 -0.2784
   79GLOH   H05 9281   3.613   1.036   0.964  3.1693  0.0781 -0.2252
   79GLOH    C3 9282   3.802   1.216   0.971  0.0930 -0.0668  0.2507
   79GLOH   H06 9283   3.720   1.271   1.016  0.1715 -1.4516  2.1607
   79GLOH   H07 9284   3.874   1.293   0.943 -0.1421  0.3951  0.9017
   79GLOH    O3 9285   3.854   1.138   1.084 -0.2473  0.2041 -0.1138
   79GLOH   H01 9286   3.914   1.194   1.136  0.1566 -1.5446  1.3327
   80GLOH   H03 9287   1.167   3.123   0.736  0.6610  1.2288 -0.3257
   80GLOH    O1 9288   1.148   3.125   0.832 -0.0847  0.1247 -0.4444
   80GLOH    C1 9289   1.205   3.244   0.890  0.5418 -0.0890  0.2383
   80GLOH   H02 9290   1.306   3.274   0.861  0.1625  1.1092  0.1290
   80GLOH   H08 9291   1.197   3.235   0.998 -1.1701 -2.2809 -0.0273
   80GLOH    C2 9292   1.127   3.364   0.835 -0.3293  0.6927  0.2902
   80GLOH   H04 9293   1.146   3.372   0.727  1.6593 -0.2038  0.5451
   80GLOH    O2 9294   0.985   3.361   0.878 -0.6644 -0.1521  0.2750
   80GLOH   H05 9295   0.936   3.283   0.850  0.4393 -0.3148 -1.2533
   80GLOH    C3 9296   1.193   3.490   0.890  0.2886 -0.5026  0.7052
   80GLOH   H06 9297   1.197   3.478   0.999  1.9931 -0.5169  0.6587
   80GLOH   H07 9298   1.131   3.579   0.879  0.6902 -0.2679  0.3253
   80GLOH    O3 9299   1.332   3.515   0.845  0.0915  0.6035 -0.0642
   80GLOH   H01 9300   1.340   3.486   0.752 -3.5481 -0.0613 -0.2733
   81GLOH   H03 9301   9.642   9.819   0.802 -0.7917 -0.8644  0.8698
   81GLOH    O1 9302   9.717   9.840   0.860 -0.2421  0.2268 -0.2369
   81GLOH    C1 9303   9.728   9.735   0.956 -0.4433 -0.3721 -0.3617
   81GLOH   H02 9304   9.745   9.636   0.913  3.1346  0.5463 -1.2512
   81GLOH   H08 9305   9.633   9.721   1.007 -0.3329  0.5198  0.0802
   81GLOH    C2 9306   9.837   9.772   1.065  0.0915 -0.4627 -0.7382
   81GLOH   H04 9307   9.937   9.795   1.024 -0.2574  0.3590 -1.1313
   81GLOH    O2 9308   9.800   9.884   1.148 -0.4039 -0.6364  0.3528
   81GLOH   H05 9309   9.804   9.963   1.093 -0.1504 -1.0329 -0.2053
   81GLOH    C3 9310   9.855   9.652   1.157 -0.3642  0.0007  0.0325
   81GLOH   H06 9311   9.758   9.643   1.205  0.1983  1.4444  1.4905
   81GLOH   H07 9312   9.933   9.667   1.233 -0.7336 -2.6389  0.9923
   81GLOH    O3 9313   9.886   9.528   1.097 -0.2237 -0.7384  0.2772
   81GLOH   H01 9314   9.842   9.459   1.150  0.8784 -1.5174  0.1933
   82GLOH   H03 9315   9.489   2.155   1.337 -0.0766  0.5598 -0.3207
   82GLOH    O1 9316   9.529   2.231   1.382 -0.2186  0.4710 -0.0410
   82GLOH    C1 9317   9.669   2.244   1.358  0.4877  0.1238  0.1481
   82GLOH   H02 9318   9.715   2.148   1.379  0.5438 -0.4122 -2.2069
   82GLOH   H08 9319   9.714   2.319   1.423  0.6410 -0.1915  0.4051
   82GLOH    C2 9320   9.718   2.269   1.211 -0.4580  0.0266  0.2412
   82GLOH   H04 9321   9.683   2.182   1.155  1.0871  0.4511 -1.4550
   82GLOH    O2 9322   9.665   2.390   1.149 -0.0276  0.3273  0.0039
   82GLOH   H05 9323   9.568   2.385   1.159 -0.2061 -0.8992 -1.8863
   82GLOH    C3 9324   9.874   2.261   1.209  0.0299 -0.0314  0.3732
   82GLOH   H06 9325   9.920   2.347   1.258  0.1790 -0.5942  1.2211
   82GLOH   H07 9326   9.895   2.253   1.102 -0.9113  1.1836  0.0750
   82GLOH    O3 9327   9.932   2.144   1.270 -0.4213 -0.2089 -0.2400
   82GLOH   H01 9328   9.904   2.067   1.218 -1.5037 -1.0220  1.5185
   83GLOH   H03 9329   8.333   9.733   1.796 -1.2836  1.4339  2.2250
   83GLOH    O1 9330   8.246   9.693   1.777 -0.2024  0.3393 -0.8072
   83GLOH    C1 9331   8.217   9.696   1.638 -0.2645  0.1831 -0.4318
   83GLOH   H02 9332   8.267   9.779   1.588 -0.8084  0.6039 -0.2702
   83GLOH   H08 9333   8.110   9.709   1.627  0.1436  3.7624 -0.8624
   83GLOH    C2 9334   8.262   9.573   1.555 -0.5872 -0.2604  0.0941
   83GLOH   H04 9335   8.191   9.495   1.587 -1.2950  0.6283  0.7303
   83GLOH    O2 9336   8.240   9.603   1.410  0.4414  0.7558  0.1258
   83GLOH   H05 9337   8.154   9.565   1.384  1.3711 -0.2942 -1.4315
   83GLOH    C3 9338   8.403   9.527   1.588 -0.1977 -0.3699 -0.1892
   83GLOH   H06 9339   8.483   9.598   1.571 -0.7630  0.0753 -1.0015
   83GLOH   H07 9340   8.420   9.451   1.512 -3.0734 -3.0507  1.7126
   83GLOH    O3 9341   8.407   9.467   1.723  0.0305  0.2928  0.4194
   83GLOH   H01 9342   8.318   9.459   1.762  0.3710  1.4320  1.4916
   84GLOH   H03 9343   9.077   4.434   0.571 -0.5218 -0.4688  0.0136
   84GLOH    O1 9344   9.080   4.471   0.481 -0.1774 -0.1117  0.1710
   84GLOH    C1 9345   8.953   4.528   0.450  0.4314 -0.4928  0.0716
   84GLOH   H02 9346   8.898   4.558   0.539 -2.0974  3.2855 -2.6038
   84GLOH   H08 9347   8.888   4.463   0.392 -1.1953  1.4066 -0.3045
   84GLOH    C2 9348   8.979   4.662   0.374  0.1844 -0.6014 -0.2103
   84GLOH   H04 9349   9.042   4.642   0.286 -0.0881  1.4060 -0.8632
   84GLOH    O2 9350   8.863   4.713   0.317  0.0434 -0.0405 -0.2913
   84GLOH   H05 9351   8.880   4.754   0.231  0.8133 -0.1402 -0.1920
   84GLOH    C3 9352   9.066   4.754   0.463  0.5511 -0.1262  0.6427
   84GLOH   H06 9353   9.113   4.831   0.401 -0.4324  0.5498  0.7310
   84GLOH   H07 9354   9.147   4.697   0.510  1.0542  3.1661  3.9775
   84GLOH    O3 9355   8.993   4.820   0.563  0.2292 -0.2847  0.1272
   84GLOH   H01 9356   8.907   4.849   0.526 -0.5372 -1.8333  0.6103
   85GLOH   H03 9357   1.910   3.466   0.773 -0.8628  0.0980 -0.2434
   85GLOH    O1 9358   1.939   3.529   0.705  0.3617 -0.1188  0.0512
   85GLOH    C1 9359   2.076   3.560   0.720  0.4692 -0.7195 -0.1505
   85GLOH   H02 9360   2.137   3.486   0.771  0.5410 -2.4068 -2.5823
   85GLOH   H08 9361   2.088   3.654   0.773 -1.6372 -1.5563  1.9050
   85GLOH    C2 9362   2.150   3.593   0.590  0.2672 -0.4855 -0.2720
   85GLOH   H04 9363   2.108   3.690   0.559 -2.2184 -0.6848  2.2199
   85GLOH    O2 9364   2.290   3.609   0.606 -0.6217 -0.8103  0.3524
   85GLOH   H05 9365   2.324   3.535   0.553  0.5039  0.0773 -0.1827
   85GLOH    C3 9366   2.133   3.484   0.480 -0.0757 -0.2713 -0.3099
   85GLOH   H06 9367   2.027   3.461   0.486 -0.0641 -0.1590  0.3776
   85GLOH   H07 9368   2.179   3.389   0.507  3.6715  1.3113 -0.8374
   85GLOH    O3 9369   2.176   3.516   0.350 -0.0159  0.6423  0.0470
   85GLOH   H01 9370   2.109   3.502   0.281  0.1224 -4.1564  0.6865
   86GLOH   H03 9371   9.718   8.724   1.275  1.4975  1.2925  2.3862
   86GLOH    O1 9372   9.729   8.634   1.313 -0.0688 -0.0179 -0.1589
   86GLOH    C1 9373   9.655   8.527   1.247  0.0734 -0.0984  0.4202
   86GLOH   H02 9374   9.690   8.517   1.144 -0.0352  0.2947  0.3455
   86GLOH   H08 9375   9.547   8.545   1.246  0.1990  0.6422  0.2214
   86GLOH    C2 9376   9.677   8.398   1.333 -0.3275  0.4586 -0.1984
   86GLOH   H04 9377   9.628   8.423   1.428 -1.4375  0.6581 -0.8210
   86GLOH    O2 9378   9.616   8.291   1.264  0.2715  0.4079 -0.3669
   86GLOH   H05 9379   9.658   8.205   1.282  0.8993  0.6840 -0.4733
   86GLOH    C3 9380   9.830   8.373   1.355 -0.4124 -0.2578 -0.3415
   86GLOH   H06 9381   9.882   8.362   1.260 -0.2144  1.5032 -0.4599
   86GLOH   H07 9382   9.837   8.276   1.405  1.9948 -0.4612 -1.0001
   86GLOH    O3 9383   9.900   8.472   1.431  0.1664  0.5362 -0.5173
   86GLOH   H01 9384   9.868   8.559   1.401 -0.0984 -0.1622 -2.3312
   87GLOH   H03 9385   8.948   9.505   2.401 -0.2469  0.7578 -0.4559
   87GLOH    O1 9386   8.866   9.523   2.451  0.1791 -0.1905  0.6115
   87GLOH    C1 9387   8.779   9.421   2.400  0.0470  0.8709  0.1731
   87GLOH   H02 9388   8.791   9.323   2.444 -1.7175  1.0187  1.0172
   87GLOH   H08 9389   8.784   9.412   2.291  1.3049 -0.0612  0.3001
   87GLOH    C2 9390   8.637   9.466   2.430  0.2802  0.1499  0.2982
   87GLOH   H04 9391   8.644   9.501   2.534 -1.7365  2.4966 -0.2915
   87GLOH    O2 9392   8.597   9.578   2.350  0.7695  0.3378 -0.3487
   87GLOH   H05 9393   8.583   9.543   2.261 -1.5552 -0.6805  0.3812
   87GLOH    C3 9394   8.537   9.352   2.437 -0.1759  0.7611 -0.1828
   87GLOH   H06 9395   8.541   9.291   2.346 -0.8077  1.9708 -1.0298
   87GLOH   H07 9396   8.439   9.395   2.456 -0.1814 -0.2825  2.3864
   87GLOH    O3 9397   8.567   9.257   2.539  0.3967 -0.3840  0.4193
   87GLOH   H01 9398   8.530   9.170   2.516  0.5832  0.2695 -2.5301
   88GLOH   H03 9399   4.902   3.882   2.135  1.3723 -0.2864  0.3264
   88GLOH    O1 9400   4.959   3.897   2.057  0.4704  0.6203 -0.1657
   88GLOH    C1 9401   4.873   3.908   1.947 -0.4324  0.7485 -0.2171
   88GLOH   H02 9402   4.939   3.959   1.877  1.5155 -1.7960 -0.3190
   88GLOH   H08 9403   4.781   3.962   1.970 -2.0128 -1.6480 -0.6915
   88GLOH    C2 9404   4.837   3.773   1.880 -0.2562 -0.4211 -0.1586
   88GLOH   H04 9405   4.838   3.686   1.947 -1.0825 -0.7903 -0.6142
   88GLOH    O2 9406   4.709   3.787   1.809  0.5187  0.2875 -0.0650
   88GLOH   H05 9407   4.630   3.787   1.865  0.6215 -0.8083  0.0921
   88GLOH    C3 9408   4.949   3.750   1.783 -0.5630 -0.1615  0.8350
   88GLOH   H06 9409   4.946   3.827   1.705 -1.0599 -1.3630 -0.3574
   88GLOH   H07 9410   4.933   3.649   1.746 -1.0337 -0.4287  1.7763
   88GLOH    O3 9411   5.074   3.753   1.854 -0.2727 -0.6577  0.0565
   88GLOH   H01 9412   5.081   3.809   1.933  0.1818  1.8060 -1.6734
   89GLOH   H03 9413   1.291   3.584   1.589 -1.2649  0.1181  1.8552
   89GLOH    O1 9414   1.359   3.562   1.655 -0.4380 -0.1415  0.9430
   89GLOH    C1 9415   1.350   3.424   1.709 -0.1359 -0.0120  0.1592
   89GLOH   H02 9416   1.442   3.367   1.700  1.1664  2.2891 -1.4227
   89GLOH   H08 9417   1.278   3.370   1.647 -0.0427 -0.4987  0.4690
   89GLOH    C2 9418   1.306   3.411   1.860 -0.4511  0.3840  0.4028
   89GLOH   H04 9419   1.217   3.475   1.866  0.9204  2.2757  0.8421
   89GLOH    O2 9420   1.265   3.277   1.883  0.0608 -0.3435 -0.5653
   89GLOH   H05 9421   1.177   3.276   1.843 -0.1962  1.4657 -0.0621
   89GLOH    C3 9422   1.429   3.449   1.947  0.2604  0.1149 -0.4920
   89GLOH   H06 9423   1.512   3.390   1.909  0.9646  1.6328 -1.3465
   89GLOH   H07 9424   1.399   3.425   2.049 -0.6582  0.4438 -0.6813
   89GLOH    O3 9425   1.451   3.591   1.925  0.2818  0.4047 -0.4297
   89GLOH   H01 9426   1.406   3.612   1.841 -0.8217  0.0243  0.0537
   90GLOH   H03 9427   2.704   5.579   0.914  1.0092 -2.2354  2.5906
   90GLOH    O1 9428   2.776   5.637   0.942  0.3271 -0.0513  0.0342
   90GLOH    C1 9429   2.825   5.580   1.063  0.5956  0.2592 -0.4215
   90GLOH   H02 9430   2.907   5.631   1.114  1.1034 -0.3267 -0.6498
   90GLOH   H08 9431   2.868   5.484   1.035  0.9098  0.2107  0.2258
   90GLOH    C2 9432   2.725   5.558   1.178 -0.8998 -0.2852  0.5091
   90GLOH   H04 9433   2.646   5.487   1.148 -0.8973 -0.0846  0.0359
   90GLOH    O2 9434   2.801   5.493   1.287 -0.3451  0.1769 -0.2528
   90GLOH   H05 9435   2.747   5.482   1.367  1.3390 -1.5166  0.6656
   90GLOH    C3 9436   2.655   5.693   1.212  0.5145 -0.5445 -1.0927
   90GLOH   H06 9437   2.631   5.745   1.120  0.8237  0.5051 -0.5969
   90GLOH   H07 9438   2.724   5.763   1.260 -1.1973  0.1284  0.4756
   90GLOH    O3 9439   2.542   5.670   1.293  0.1000  0.5341 -0.1860
   90GLOH   H01 9440   2.468   5.715   1.248  0.6242  2.3174  0.6741
   91GLOH   H03 9441   4.026   1.742   0.158  0.2960  0.1025  0.1142
   91GLOH    O1 9442   3.971   1.765   0.235  0.0147 -1.0690  0.2768
   91GLOH    C1 9443   4.026   1.887   0.291  0.0466 -0.3911 -0.7495
   91GLOH   H02 9444   3.976   1.914   0.384  2.6485 -0.0423  0.6009
   91GLOH   H08 9445   3.997   1.969   0.226 -1.2001  0.9245  1.3987
   91GLOH    C2 9446   4.174   1.880   0.331  0.1042 -0.2492 -0.0155
   91GLOH   H04 9447   4.241   1.850   0.250 -0.4115 -1.2057 -0.0938
   91GLOH    O2 9448   4.215   2.005   0.389  0.2968 -0.3406  0.3771
   91GLOH   H05 9449   4.216   2.078   0.324 -0.9637  0.3279  1.1012
   91GLOH    C3 9450   4.182   1.767   0.442 -0.3974 -1.0296  0.0277
   91GLOH   H06 9451   4.135   1.809   0.531 -1.5110 -4.9463  1.3418
   91GLOH   H07 9452   4.288   1.758   0.466 -0.3093  0.9852  0.4918
   91GLOH    O3 9453   4.116   1.643   0.402  0.2358 -0.4207  0.3895
   91GLOH   H01 9454   4.029   1.668   0.366  0.9895  0.3933 -0.8690
   92GLOH   H03 9455   3.467   5.669   0.338  0.5278 -0.0025  0.4325
   92GLOH    O1 9456   3.535   5.689   0.272  0.1489  0.2980  0.1301
   92GLOH    C1 9457   3.515   5.637   0.142  0.4901  0.1145 -0.5762
   92GLOH   H02 9458   3.560   5.707   0.071  1.0202 -0.1726 -0.5255
   92GLOH   H08 9459   3.409   5.634   0.117  0.5893 -0.5400 -0.9133
   92GLOH    C2 9460   3.567   5.497   0.122 -0.2425  0.5003  0.2006
   92GLOH   H04 9461   3.528   5.436   0.205 -2.1956 -0.1454 -1.1640
   92GLOH    O2 9462   3.532   5.439  -0.001 -0.0173  0.3301  0.4462
   92GLOH   H05 9463   3.575   5.353  -0.017 -3.0114 -1.1730  0.1733
   92GLOH    C3 9464   3.723   5.500   0.129  0.3148  0.5598  0.0406
   92GLOH   H06 9465   3.769   5.568   0.057  2.5498  0.2257  1.1161
   92GLOH   H07 9466   3.759   5.401   0.099 -0.3059 -0.0838  1.3726
   92GLOH    O3 9467   3.773   5.532   0.259  0.7883  0.0305  0.5264
   92GLOH   H01 9468   3.718   5.607   0.289 -1.5811 -1.3070 -0.3459
   93GLOH   H03 9469   3.065   7.666   1.695 -1.0713  0.5710 -0.0294
   93GLOH    O1 9470   3.014   7.584   1.682  0.2331 -0.2057 -0.4054
   93GLOH    C1 9471   3.097   7.498   1.597 -0.5506 -0.2692  0.4242
   93GLOH   H02 9472   3.057   7.398   1.580  2.6936 -1.8347  1.5827
   93GLOH   H08 9473   3.194   7.484   1.644  1.3707  1.2517 -2.9099
   93GLOH    C2 9474   3.124   7.569   1.466 -0.3943 -0.1613 -0.4939
   93GLOH   H04 9475   3.045   7.639   1.436 -0.3404  0.3848  0.6180
   93GLOH    O2 9476   3.248   7.639   1.479  0.4479 -0.0774 -0.1188
   93GLOH   H05 9477   3.233   7.714   1.539 -2.0164 -0.1234 -0.6098
   93GLOH    C3 9478   3.130   7.466   1.345  0.5447 -0.1259  0.1743
   93GLOH   H06 9479   3.187   7.379   1.376 -1.6249 -0.8719  2.2135
   93GLOH   H07 9480   3.192   7.516   1.270 -0.0191  3.0892  1.7529
   93GLOH    O3 9481   3.003   7.424   1.296  0.1916  0.2522 -0.2250
   93GLOH   H01 9482   3.012   7.381   1.209  0.1945 -2.7932  1.2212
   94GLOH   H03 9483   3.763   9.765   0.215  0.4086  1.7776 -2.0669
   94GLOH    O1 9484   3.794   9.819   0.290 -0.7577  0.1036 -0.3419
   94GLOH    C1 9485   3.822   9.953   0.249  0.5495 -0.1281 -0.6824
   94GLOH   H02 9486   3.855  10.010   0.336 -1.5402 -0.0388  0.1060
   94GLOH   H08 9487   3.730  10.005   0.223  1.9362  2.6331 -0.2745
   94GLOH    C2 9488   3.930   9.977   0.142  0.6404  0.2908  0.2390
   94GLOH   H04 9489   4.022   9.936   0.186  1.0304  0.2492 -0.6192
   94GLOH    O2 9490   3.898   9.910   0.018 -0.1474  0.3867 -0.2392
   94GLOH   H05 9491   3.802   9.907   0.003 -0.2521 -2.6419  0.8009
   94GLOH    C3 9492   3.974  10.125   0.113 -0.2416 -0.0384  0.4504
   94GLOH   H06 9493   3.879  10.171   0.087  0.1512 -1.4687 -3.9546
   94GLOH   H07 9494   4.037  10.114   0.024  0.5940  0.0152  1.0360
   94GLOH    O3 9495   4.041  10.190   0.224  0.0963  0.6609  0.0967
   94GLOH   H01 9496   4.086  10.267   0.184  1.5929 -0.0060  0.4563
   95GLOH   H03 9497   0.109   1.555   1.976  1.2617 -0.3765  0.7537
   95GLOH    O1 9498   0.157   1.639   1.964  0.9140 -0.2639  0.1287
   95GLOH    C1 9499   0.068   1.739   1.910 -0.6569  0.7546 -0.0761
   95GLOH   H02 9500   0.015   1.702   1.822  0.3920 -0.7703 -0.0872
   95GLOH   H08 9501   0.124   1.821   1.865  3.3057 -2.3695 -1.0381
   95GLOH    C2 9502  -0.050   1.783   2.000 -0.2827  0.6819 -0.4473
   95GLOH   H04 9503  -0.103   1.692   2.030 -1.0341  1.1815 -0.2320
   95GLOH    O2 9504   0.002   1.846   2.126 -0.4570  1.2066 -0.5548
   95GLOH   H05 9505   0.096   1.822   2.134 -0.4307  1.5961  0.4061
   95GLOH    C3 9506  -0.152   1.877   1.928 -0.1043 -0.0253  0.7027
   95GLOH   H06 9507  -0.129   1.984   1.926 -2.3792  0.4720  0.0000
   95GLOH   H07 9508  -0.236   1.876   1.997  0.3725 -0.8133  1.2776
   95GLOH    O3 9509  -0.183   1.828   1.797 -0.0941 -0.2123 -0.3521
   95GLOH   H01 9510  -0.272   1.790   1.806  0.0640 -0.3657  0.5224
   96GLOH   H03 9511   2.653   7.668   0.985  0.2002 -0.9710 -0.5136
   96GLOH    O1 9512   2.558   7.647   0.991 -0.1106  0.4196 -0.1932
   96GLOH    C1 9513   2.486   7.714   0.884  0.4606 -0.2741 -0.3898
   96GLOH   H02 9514   2.564   7.755   0.819 -0.0271  2.8514  0.8982
   96GLOH   H08 9515   2.414   7.786   0.923 -1.6396 -1.4092 -2.0785
   96GLOH    C2 9516   2.398   7.614   0.813 -0.2447  0.2525 -0.2456
   96GLOH   H04 9517   2.340   7.556   0.886 -2.3793  1.0306 -1.2823
   96GLOH    O2 9518   2.302   7.667   0.716 -0.4966 -0.5262  0.2336
   96GLOH   H05 9519   2.225   7.707   0.759 -1.0365 -0.6765 -0.5918
   96GLOH    C3 9520   2.479   7.509   0.744 -0.2358 -0.8783 -0.1334
   96GLOH   H06 9521   2.551   7.558   0.679  0.1014  0.1152  0.9730
   96GLOH   H07 9522   2.405   7.458   0.682 -2.0119  1.4829 -0.0405
   96GLOH    O3 9523   2.548   7.418   0.832 -0.3518 -0.5850 -0.2129
   96GLOH   H01 9524   2.487   7.407   0.907 -0.0991  1.9674  0.4070
   97GLOH   H03 9525   4.734   4.051   0.040  0.4662 -1.2206  0.5077
   97GLOH    O1 9526   4.638   4.035   0.030  0.4384 -0.6296 -0.2319
   97GLOH    C1 9527   4.586   4.161  -0.025  0.0424 -0.1595  0.7997
   97GLOH   H02 9528   4.608   4.161  -0.132  3.0634 -1.1027  1.3528
   97GLOH   H08 9529   4.634   4.244   0.025  2.0600  1.0078 -2.8679
   97GLOH    C2 9530   4.432   4.170  -0.015 -0.1779 -0.5853 -0.4408
   97GLOH   H04 9531   4.395   4.147   0.086 -0.3565 -2.4833 -0.9299
   97GLOH    O2 9532   4.392   4.301  -0.058 -0.5271  0.3703  0.1842
   97GLOH   H05 9533   4.296   4.306  -0.045 -0.4318  1.9833  0.3722
   97GLOH    C3 9534   4.366   4.078  -0.116 -0.2281  0.2697 -0.5728
   97GLOH   H06 9535   4.403   4.106  -0.215 -1.0288  0.5065 -0.8112
   97GLOH   H07 9536   4.261   4.106  -0.104 -1.7330 -3.8160 -2.9132
   97GLOH    O3 9537   4.383   3.943  -0.087 -0.0733 -0.2914  0.2296
   97GLOH   H01 9538   4.451   3.906  -0.146 -0.7273 -1.6909  0.3321
   98GLOH   H03 9539   1.330   7.256   0.512  0.9431 -1.1234  0.6500
   98GLOH    O1 9540   1.247   7.219   0.547  0.0963 -0.1783 -0.2844
   98GLOH    C1 9541   1.143   7.326   0.546 -0.2663 -0.6180 -0.1211
   98GLOH   H02 9542   1.140   7.369   0.647 -0.2628 -1.2375  0.1474
   98GLOH   H08 9543   1.046   7.279   0.531 -0.5127 -0.7209  1.6452
   98GLOH    C2 9544   1.162   7.451   0.457  0.5289 -0.6500  0.0312
   98GLOH   H04 9545   1.246   7.507   0.500 -0.0277 -0.5423  1.0091
   98GLOH    O2 9546   1.179   7.422   0.310  0.4446 -0.3683 -0.4197
   98GLOH   H05 9547   1.220   7.494   0.259  1.3423 -1.3623 -1.1247
   98GLOH    C3 9548   1.048   7.555   0.480 -0.4880 -0.3429  1.0951
   98GLOH   H06 9549   0.966   7.516   0.420 -0.3832 -0.9914  1.3647
   98GLOH   H07 9550   1.071   7.652   0.435  2.0000 -0.7553  1.3747
   98GLOH    O3 9551   1.014   7.576   0.615  1.3232 -0.3894  0.0580
   98GLOH   H01 9552   1.066   7.649   0.652 -0.4999  0.2006  1.5872
   99GLOH   H03 9553   8.334   2.040   0.655 -2.6400  0.4136  0.0340
   99GLOH    O1 9554   8.332   2.017   0.561  0.1853  0.2356 -0.0335
   99GLOH    C1 9555   8.246   2.110   0.503 -0.2591  0.3066 -0.3831
   99GLOH   H02 9556   8.290   2.210   0.500 -0.4419  0.3503 -2.0403
   99GLOH   H08 9557   8.162   2.132   0.568 -0.3985 -2.0528  0.2761
   99GLOH    C2 9558   8.199   2.066   0.361 -0.4227 -0.3254 -0.0238
   99GLOH   H04 9559   8.124   1.986   0.376 -0.2677 -0.8041 -1.6747
   99GLOH    O2 9560   8.143   2.175   0.284 -0.0292 -0.0459  0.2306
   99GLOH   H05 9561   8.211   2.189   0.216 -0.6581  1.6170 -0.0849
   99GLOH    C3 9562   8.311   2.004   0.276 -0.2518 -0.5866  0.4754
   99GLOH   H06 9563   8.267   1.960   0.187  1.2925  2.0877 -1.6928
   99GLOH   H07 9564   8.359   1.927   0.336 -3.9888 -1.5573  2.3987
   99GLOH    O3 9565   8.413   2.091   0.235 -0.4652 -0.7236  0.2317
   99GLOH   H01 9566   8.463   2.046   0.165 -3.5879 -0.9072 -1.9972
  100GLOH   H03 9567   8.711   7.477   0.936  0.8062  0.8466 -3.3919
  100GLOH    O1 9568   8.720   7.389   0.896 -0.0586 -0.8803 -0.0286
  100GLOH    C1 9569   8.717   7.409   0.756  0.5035 -0.0506  0.2377
  100GLOH   H02 9570   8.778   7.333   0.708  1.8874  1.1572  0.0307
  100GLOH   H08 9571   8.756   7.508   0.731 -0.0854  0.5881  1.7755
  100GLOH    C2 9572   8.580   7.405   0.691  0.0648 -0.3564  0.3290
  100GLOH   H04 9573   8.523   7.474   0.756 -0.6010 -0.3385 -0.2643
  100GLOH    O2 9574   8.572   7.457   0.554  0.5792 -0.7232  0.0573
  100GLOH   H05 9575   8.632   7.405   0.498 -1.6390  0.5552 -3.6820
  100GLOH    C3 9576   8.516   7.271   0.713  0.0051  0.0855 -0.7237
  100GLOH   H06 9577   8.421   7.274   0.660 -1.0285 -2.8108  0.8715
  100GLOH   H07 9578   8.493   7.263   0.819 -3.2125  1.2172 -1.2751
  100GLOH    O3 9579   8.596   7.159   0.669  0.1087 -0.8755  0.0709
  100GLOH   H01 9580   8.621   7.189   0.580 -0.6805  0.7253  0.3665
  101GLOH   H03 9581   2.806   6.736   2.429  1.6679 -0.5577 -0.4008
  101GLOH    O1 9582   2.801   6.702   2.338  0.8583  0.1547 -0.6302
  101GLOH    C1 9583   2.755   6.812   2.259  0.2092  0.4099  0.3803
  101GLOH   H02 9584   2.673   6.867   2.306  0.1732 -0.6392  1.5723
  101GLOH   H08 9585   2.727   6.777   2.160 -0.0669  0.1997  0.5350
  101GLOH    C2 9586   2.872   6.910   2.243 -0.3833 -0.0208 -0.1525
  101GLOH   H04 9587   2.840   6.989   2.174 -0.1602  1.4729  1.4274
  101GLOH    O2 9588   2.910   6.972   2.369 -0.3943  0.2617  0.2155
  101GLOH   H05 9589   2.894   6.914   2.445 -1.2092  0.1925  0.0054
  101GLOH    C3 9590   3.002   6.849   2.188  0.2056 -0.3181  0.3459
  101GLOH   H06 9591   3.046   6.780   2.260 -1.4844 -2.4476 -0.6007
  101GLOH   H07 9592   3.076   6.927   2.167  3.9775 -3.9914 -0.6269
  101GLOH    O3 9593   2.977   6.787   2.055 -0.1543 -0.2525  0.0323
  101GLOH   H01 9594   3.022   6.701   2.061  1.8252  0.6940 -1.0164
  102GLOH   H03 9595   4.349   1.122   0.284 -0.0004  2.2327 -1.4605
  102GLOH    O1 9596   4.372   1.088   0.195 -0.2132  0.0275 -0.7003
  102GLOH    C1 9597   4.346   0.949   0.191  0.2183 -0.2110 -0.6760
  102GLOH   H02 9598   4.325   0.927   0.295 -0.2339  3.6305  0.0875
  102GLOH   H08 9599   4.436   0.890   0.172  0.3260 -0.5130  0.7225
  102GLOH    C2 9600   4.231   0.906   0.101 -0.7531 -0.3709 -0.6626
  102GLOH   H04 9601   4.229   0.981   0.020  1.4551 -0.1081 -0.4862
  102GLOH    O2 9602   4.256   0.773   0.048 -0.5151 -0.0568 -0.8886
  102GLOH   H05 9603   4.262   0.713   0.123  1.1692  1.4776  0.2537
  102GLOH    C3 9604   4.102   0.909   0.179  0.3842 -0.0527  0.3585
  102GLOH   H06 9605   4.084   1.013   0.208 -0.6133  0.2053 -1.1077
  102GLOH   H07 9606   4.103   0.859   0.275 -0.2914 -0.3735  0.2019
  102GLOH    O3 9607   3.981   0.870   0.115  0.4003 -0.0519  0.3812
  102GLOH   H01 9608   3.975   0.774   0.095  1.2390  0.1647 -0.9285
  103GLOH   H03 9609   3.082   1.969   0.351  0.3696  3.3170 -1.7675
  103GLOH    O1 9610   3.013   1.942   0.287  0.2769  0.2183 -0.4493
  103GLOH    C1 9611   3.044   1.984   0.151 -0.0249  0.0604  0.1957
  103GLOH   H02 9612   3.142   1.948   0.119  1.7673 -0.3008  5.5209
  103GLOH   H08 9613   3.054   2.093   0.148  1.2748 -0.0922 -1.7715
  103GLOH    C2 9614   2.929   1.955   0.059  0.0904  0.2993 -0.0357
  103GLOH   H04 9615   2.838   1.998   0.104 -0.9918 -0.8144 -1.1009
  103GLOH    O2 9616   2.946   2.014  -0.071  0.0152 -0.0369  0.0151
  103GLOH   H05 9617   3.009   1.966  -0.127 -1.6448  1.1618 -3.0184
  103GLOH    C3 9618   2.902   1.802   0.040  0.2641 -0.3785  0.9418
  103GLOH   H06 9619   2.888   1.760   0.140  1.3527  1.8737  2.0743
  103GLOH   H07 9620   2.993   1.754   0.005  0.3492 -2.2354  3.6197
  103GLOH    O3 9621   2.784   1.790  -0.047  0.1450  0.2632  0.7086
  103GLOH   H01 9622   2.700   1.799   0.003 -2.0514 -3.1691 -2.0309
  104GLOH   H03 9623   1.840   9.099   1.703 -0.1342 -0.1214 -0.0434
  104GLOH    O1 9624   1.794   9.043   1.638 -0.0768 -0.1627 -0.0489
  104GLOH    C1 9625   1.819   8.908   1.686 -0.3364  0.5154  0.2564
  104GLOH   H02 9626   1.922   8.884   1.662 -0.5626  0.2233 -0.4165
  104GLOH   H08 9627   1.756   8.829   1.645  0.3421  0.3397 -0.4347
  104GLOH    C2 9628   1.808   8.907   1.842  0.0496  0.2326  0.3018
  104GLOH   H04 9629   1.702   8.925   1.865  0.0310  0.4618  0.0375
  104GLOH    O2 9630   1.844   8.777   1.896  0.1117  0.1806  0.4478
  104GLOH   H05 9631   1.838   8.708   1.828  2.0074  0.0787  0.3473
  104GLOH    C3 9632   1.897   9.015   1.898  1.0880 -0.6255  0.8151
  104GLOH   H06 9633   1.999   8.997   1.863  1.7410  2.8292  0.7211
  104GLOH   H07 9634   1.904   9.003   2.006  1.0873 -2.2393  0.6413
  104GLOH    O3 9635   1.870   9.153   1.860  0.0737 -0.0780  0.1248
  104GLOH   H01 9636   1.837   9.197   1.941 -3.9369  1.9426 -2.4010
  105GLOH   H03 9637   3.216   8.373   1.195  0.3345 -0.4386  1.1275
  105GLOH    O1 9638   3.274   8.299   1.168 -0.0049 -0.4889  0.5341
  105GLOH    C1 9639   3.201   8.177   1.159  0.2035 -0.3820 -0.0630
  105GLOH   H02 9640   3.155   8.173   1.060 -1.3567  1.7978  0.5324
  105GLOH   H08 9641   3.120   8.182   1.233 -1.9002 -0.0175 -2.3142
  105GLOH    C2 9642   3.282   8.054   1.194 -0.2330 -0.3269  0.5025
  105GLOH   H04 9643   3.377   8.063   1.139  0.7936  1.4173  2.4647
  105GLOH    O2 9644   3.305   8.029   1.335  0.1283  0.0209  0.4321
  105GLOH   H05 9645   3.363   7.950   1.343 -0.7516 -0.9767 -2.4671
  105GLOH    C3 9646   3.203   7.932   1.144 -1.2792 -0.6059  0.1577
  105GLOH   H06 9647   3.102   7.940   1.186 -1.1506  2.8653 -0.0666
  105GLOH   H07 9648   3.242   7.839   1.186  1.2753 -0.2399 -1.3248
  105GLOH    O3 9649   3.176   7.919   1.003 -0.0903 -0.1141 -0.0617
  105GLOH   H01 9650   3.079   7.930   1.001 -0.3352 -1.4813  2.1841
  106GLOH   H03 9651   3.136   5.591   0.724 -2.7127 -0.6045  0.8323
  106GLOH    O1 9652   3.081   5.618   0.648 -0.6850  0.3205 -0.3405
  106GLOH    C1 9653   2.955   5.548   0.665 -0.4269 -1.4442 -0.3876
  106GLOH   H02 9654   2.872   5.619   0.668 -1.1151 -2.2649  0.6880
  106GLOH   H08 9655   2.950   5.500   0.763  0.0148  2.9005  1.9137
  106GLOH    C2 9656   2.930   5.442   0.562 -0.1061 -0.5974 -0.0678
  106GLOH   H04 9657   2.844   5.379   0.589 -0.3881  0.6993  2.1874
  106GLOH    O2 9658   2.899   5.511   0.437 -0.7947 -0.3813 -0.1306
  106GLOH   H05 9659   2.840   5.586   0.458 -0.3691 -0.1247  0.1437
  106GLOH    C3 9660   3.049   5.347   0.548 -0.6443 -0.3710 -0.2051
  106GLOH   H06 9661   3.119   5.404   0.487  0.1118 -0.4337  0.5901
  106GLOH   H07 9662   3.011   5.258   0.499 -3.9305 -0.2241  1.8911
  106GLOH    O3 9663   3.106   5.312   0.677  0.2129 -0.7463  0.8350
  106GLOH   H01 9664   3.183   5.367   0.699 -1.3124  2.2582 -0.8399
  107GLOH   H03 9665   8.045   1.115   2.326 -0.2374  1.2778 -0.4987
  107GLOH    O1 9666   8.123   1.106   2.269  0.2876  0.1269  0.3801
  107GLOH    C1 9667   8.079   1.137   2.139  0.2929 -0.3499  0.1534
  107GLOH   H02 9668   8.165   1.179   2.086  0.0898  0.8181  0.7235
  107GLOH   H08 9669   7.994   1.205   2.142  1.5748  1.3209 -0.2813
  107GLOH    C2 9670   8.021   1.018   2.069 -0.4531 -0.1546 -0.1562
  107GLOH   H04 9671   7.933   0.974   2.119  0.0248 -0.9499 -0.0143
  107GLOH    O2 9672   7.976   1.063   1.940 -0.1166 -0.5239 -0.3393
  107GLOH   H05 9673   7.934   0.993   1.887 -1.6680 -0.5102  0.8546
  107GLOH    C3 9674   8.122   0.899   2.048  0.1676 -0.2060 -0.0850
  107GLOH   H06 9675   8.202   0.940   1.987 -0.9933 -0.4082 -1.8108
  107GLOH   H07 9676   8.080   0.819   1.986 -0.2132  0.0063 -0.1021
  107GLOH    O3 9677   8.168   0.842   2.169  0.0655 -0.2406 -0.0789
  107GLOH   H01 9678   8.221   0.912   2.211 -0.2049 -0.3290  0.4050
  108GLOH   H03 9679   2.527   8.594   2.134  0.5931 -0.8908  1.5620
  108GLOH    O1 9680   2.609   8.640   2.158  0.1074  0.7148  0.2347
  108GLOH    C1 9681   2.608   8.751   2.063 -1.0852 -0.6060 -0.3764
  108GLOH   H02 9682   2.680   8.828   2.089  1.4057 -2.5651 -1.2728
  108GLOH   H08 9683   2.514   8.807   2.055 -0.7890 -0.0568 -0.0634
  108GLOH    C2 9684   2.635   8.712   1.914 -0.0066 -0.0982 -0.7151
  108GLOH   H04 9685   2.564   8.633   1.886 -2.0317 -0.0132  3.8937
  108GLOH    O2 9686   2.629   8.835   1.833  0.0917 -0.2376 -0.6312
  108GLOH   H05 9687   2.610   8.804   1.742 -0.3296 -0.9013 -0.3242
  108GLOH    C3 9688   2.781   8.662   1.910 -0.2273  0.8168 -0.8763
  108GLOH   H06 9689   2.839   8.737   1.963  0.8962  1.0662 -2.4185
  108GLOH   H07 9690   2.824   8.654   1.811  1.2978 -0.6268 -0.1363
  108GLOH    O3 9691   2.800   8.536   1.974  0.4320  0.4276 -0.1923
  108GLOH   H01 9692   2.854   8.548   2.054  0.3389  0.5855 -0.1523
  109GLOH   H03 9693   4.917   4.181   2.098 -2.2911 -0.7207  1.4097
  109GLOH    O1 9694   4.961   4.205   2.181  0.3911  0.1952 -0.2226
  109GLOH    C1 9695   4.863   4.271   2.265  0.3719 -0.3066  0.0333
  109GLOH   H02 9696   4.893   4.376   2.264  0.5166 -0.3342 -1.8374
  109GLOH   H08 9697   4.871   4.231   2.366 -0.8764 -1.7070 -0.4054
  109GLOH    C2 9698   4.716   4.265   2.204 -0.1308  0.3492 -0.3768
  109GLOH   H04 9699   4.679   4.164   2.226 -2.7104  1.2355 -0.4116
  109GLOH    O2 9700   4.637   4.364   2.279 -0.2449 -0.0583  0.3698
  109GLOH   H05 9701   4.544   4.364   2.250  0.2149  3.1166 -1.3099
  109GLOH    C3 9702   4.727   4.305   2.056 -0.2894  0.3499  0.1543
  109GLOH   H06 9703   4.790   4.394   2.056 -0.7307  0.6803  2.3427
  109GLOH   H07 9704   4.630   4.327   2.013 -0.6398  0.9247  1.2263
  109GLOH    O3 9705   4.796   4.208   1.973  0.7679 -0.6963  0.7717
  109GLOH   H01 9706   4.779   4.205   1.877  0.6471 -0.0892  0.7719
  110GLOH   H03 9707   8.359   2.819   0.461  0.3051  0.9560 -0.2680
  110GLOH    O1 9708   8.352   2.830   0.558  0.2711 -0.3720 -0.1158
  110GLOH    C1 9709   8.369   2.702   0.625 -0.3743  0.4040  0.1489
  110GLOH   H02 9710   8.275   2.647   0.623 -1.0620  1.5485  0.3860
  110GLOH   H08 9711   8.403   2.714   0.728  1.1422  1.0026 -0.3990
  110GLOH    C2 9712   8.488   2.634   0.548  0.8775 -0.4179 -0.4632
  110GLOH   H04 9713   8.563   2.715   0.538 -0.0583  0.7977  1.9499
  110GLOH    O2 9714   8.547   2.527   0.627  0.0516 -0.4450  0.4877
  110GLOH   H05 9715   8.593   2.550   0.709  1.0596 -0.5997 -0.0301
  110GLOH    C3 9716   8.436   2.593   0.408  0.5006 -0.6534 -0.3120
  110GLOH   H06 9717   8.341   2.539   0.407 -0.9885  1.8640 -0.8891
  110GLOH   H07 9718   8.506   2.526   0.358  2.1320  0.4248  0.4828
  110GLOH    O3 9719   8.412   2.723   0.339  0.0393 -0.5468 -0.4064
  110GLOH   H01 9720   8.443   2.718   0.246  0.5575  1.2810 -0.3464
  111GLOH   H03 9721   0.317   0.211   0.569 -2.4777  0.1794  0.8641
  111GLOH    O1 9722   0.327   0.222   0.666 -0.1313 -0.0132  0.6582
  111GLOH    C1 9723   0.384   0.354   0.681  0.0089  0.0453 -0.2065
  111GLOH   H02 9724   0.396   0.412   0.590 -0.7979 -0.1680 -0.4489
  111GLOH   H08 9725   0.485   0.343   0.723  0.3046  3.2458 -0.0064
  111GLOH    C2 9726   0.309   0.439   0.788 -0.1922  0.3172 -0.1930
  111GLOH   H04 9727   0.329   0.375   0.875  1.1970 -2.4528 -2.4769
  111GLOH    O2 9728   0.362   0.578   0.806 -0.7870  0.4808 -0.1240
  111GLOH   H05 9729   0.361   0.619   0.718  0.3746 -0.4679 -0.5962
  111GLOH    C3 9730   0.158   0.446   0.754  0.7125 -0.1575  0.7075
  111GLOH   H06 9731   0.116   0.504   0.837 -2.4784  0.0141 -0.9542
  111GLOH   H07 9732   0.118   0.346   0.772 -0.0687  0.0872  0.3499
  111GLOH    O3 9733   0.115   0.503   0.629 -0.4879 -0.2983 -0.1077
  111GLOH   H01 9734   0.084   0.590   0.661  0.5402 -0.7643  2.3025
  112GLOH   H03 9735   8.647   3.060   0.983  0.2088 -0.3960  0.5319
  112GLOH    O1 9736   8.735   3.045   0.942 -0.1483 -0.7695 -0.1092
  112GLOH    C1 9737   8.722   3.055   0.800 -0.7084 -0.8121  0.2119
  112GLOH   H02 9738   8.671   2.967   0.761  2.2309 -2.7342  0.5765
  112GLOH   H08 9739   8.823   3.052   0.760 -0.5235 -0.7135  0.6708
  112GLOH    C2 9740   8.648   3.180   0.748 -0.0863  1.0714 -0.2998
  112GLOH   H04 9741   8.688   3.270   0.797  0.4204  1.1000 -0.7559
  112GLOH    O2 9742   8.670   3.192   0.614  0.8971  0.3830  0.2543
  112GLOH   H05 9743   8.757   3.226   0.588  0.5153  0.4884 -0.9503
  112GLOH    C3 9744   8.505   3.179   0.788  0.4729 -0.0277 -0.0912
  112GLOH   H06 9745   8.461   3.095   0.733  2.5932 -0.7617 -0.7172
  112GLOH   H07 9746   8.465   3.271   0.746  0.9134 -0.2703 -1.0510
  112GLOH    O3 9747   8.489   3.173   0.929 -0.3012  0.0234  0.2892
  112GLOH   H01 9748   8.438   3.093   0.950  0.2946 -0.2725  0.6294
  113GLOH   H03 9749   0.797   3.855   2.027  1.0639  0.9764  0.4486
  113GLOH    O1 9750   0.814   3.808   2.111 -0.2804  0.1437  0.2905
  113GLOH    C1 9751   0.746   3.868   2.220  0.7611 -0.3966 -0.1079
  113GLOH   H02 9752   0.737   3.795   2.301 -2.1379  2.3934  2.2064
  113GLOH   H08 9753   0.651   3.908   2.186  1.0165  0.1218 -0.2287
  113GLOH    C2 9754   0.820   3.988   2.277 -0.0634  0.1448  0.8388
  113GLOH   H04 9755   0.865   4.056   2.204 -0.8695 -0.6785 -0.4449
  113GLOH    O2 9756   0.729   4.060   2.354 -0.4542  0.0708 -0.2796
  113GLOH   H05 9757   0.661   4.006   2.397 -0.0715 -1.2864 -1.3401
  113GLOH    C3 9758   0.933   3.941   2.375 -0.1833 -0.5139  0.0843
  113GLOH   H06 9759   1.001   3.863   2.340  0.8715  0.0451  0.8623
  113GLOH   H07 9760   0.884   3.907   2.466 -0.1979  1.2091  0.7429
  113GLOH    O3 9761   1.011   4.054   2.405  0.0469 -0.1361  0.5384
  113GLOH   H01 9762   0.950   4.110   2.456  0.5410  0.5892  0.3349
  114GLOH   H03 9763   9.687   2.854   0.179 -0.0611 -0.7123  0.0944
  114GLOH    O1 9764   9.593   2.836   0.195 -0.3472  0.2868 -0.4849
  114GLOH    C1 9765   9.557   2.697   0.198 -0.0426  0.1063  0.0475
  114GLOH   H02 9766   9.589   2.647   0.289 -0.5759 -0.9324 -0.3239
  114GLOH   H08 9767   9.606   2.660   0.108 -0.6991  0.2111 -0.3600
  114GLOH    C2 9768   9.406   2.676   0.186 -0.6559 -0.0518 -0.4662
  114GLOH   H04 9769   9.372   2.756   0.118  0.1193  0.9967  0.3462
  114GLOH    O2 9770   9.378   2.548   0.139 -0.0682  0.1760  0.2237
  114GLOH   H05 9771   9.408   2.534   0.048  0.2985 -2.2657  0.7037
  114GLOH    C3 9772   9.346   2.708   0.324  0.3034  0.4875  0.3882
  114GLOH   H06 9773   9.406   2.789   0.364  0.5753  1.2472 -1.4987
  114GLOH   H07 9774   9.368   2.619   0.384  1.6702 -0.7144 -1.8285
  114GLOH    O3 9775   9.207   2.740   0.323 -0.3758  0.6386 -0.0465
  114GLOH   H01 9776   9.161   2.665   0.365  1.1194 -1.1511 -1.4817
  115GLOH   H03 9777   8.600   8.211   1.748  1.0885  0.3607  2.1424
  115GLOH    O1 9778   8.666   8.261   1.697 -0.0031 -0.2243  0.0866
  115GLOH    C1 9779   8.733   8.333   1.806  0.1005 -0.1747  0.5866
  115GLOH   H02 9780   8.826   8.283   1.830 -0.1516 -0.6446  0.5807
  115GLOH   H08 9781   8.668   8.336   1.893  0.5137 -1.6490  0.9468
  115GLOH    C2 9782   8.761   8.476   1.752 -0.1269  0.4030 -0.4378
  115GLOH   H04 9783   8.793   8.534   1.840  1.3530  0.6615 -1.1211
  115GLOH    O2 9784   8.858   8.476   1.653  0.8429 -0.1235  0.2197
  115GLOH   H05 9785   8.939   8.492   1.704  0.4166 -0.3485  0.9647
  115GLOH    C3 9786   8.631   8.550   1.706 -0.3627 -0.6570 -0.5721
  115GLOH   H06 9787   8.597   8.506   1.612  0.3326 -1.7207 -0.3395
  115GLOH   H07 9788   8.652   8.653   1.677  0.3099 -0.4957  0.4698
  115GLOH    O3 9789   8.535   8.548   1.808  0.2443  0.2656  0.2338
  115GLOH   H01 9790   8.452   8.500   1.790 -0.1529  1.1954 -0.4472
  116GLOH   H03 9791   2.490   6.539   0.295 -2.2999  0.4532 -1.3069
  116GLOH    O1 9792   2.540   6.623   0.293 -0.3866 -0.6062 -0.0919
  116GLOH    C1 9793   2.472   6.701   0.190 -0.2180 -0.4528 -0.8367
  116GLOH   H02 9794   2.448   6.798   0.233  0.9585 -0.3710 -0.3395
  116GLOH   H08 9795   2.389   6.642   0.152  0.4428 -1.1520 -1.1952
  116GLOH    C2 9796   2.563   6.722   0.066  1.1063 -0.3199 -0.3530
  116GLOH   H04 9797   2.585   6.627   0.016  3.5572 -0.1225  0.2972
  116GLOH    O2 9798   2.488   6.811  -0.028 -0.2894  0.5162  0.2640
  116GLOH   H05 9799   2.468   6.764  -0.111 -1.7735 -0.0264  0.9015
  116GLOH    C3 9800   2.704   6.775   0.102  0.0387 -0.2460  0.0393
  116GLOH   H06 9801   2.735   6.717   0.190 -1.3785 -1.1593 -0.0482
  116GLOH   H07 9802   2.681   6.877   0.136  1.8875  0.2590 -0.1904
  116GLOH    O3 9803   2.802   6.782   0.001  0.3421 -0.5751 -0.1842
  116GLOH   H01 9804   2.873   6.835   0.041 -0.2093  1.4566 -1.8173
  117GLOH   H03 9805   0.192   6.311   1.322  0.8209  0.7741 -3.0657
  117GLOH    O1 9806   0.164   6.221   1.297  0.0512 -0.0304  0.5026
  117GLOH    C1 9807   0.135   6.228   1.156  0.2952  0.1346 -0.6027
  117GLOH   H02 9808   0.098   6.329   1.143  0.9019  0.6537  1.4523
  117GLOH   H08 9809   0.057   6.155   1.136  0.5420 -0.2713 -0.1027
  117GLOH    C2 9810   0.244   6.188   1.054 -0.7653 -0.7778  0.1058
  117GLOH   H04 9811   0.338   6.227   1.095 -0.5448 -2.0843  0.8853
  117GLOH    O2 9812   0.265   6.039   1.046 -0.0324 -0.7029  0.3227
  117GLOH   H05 9813   0.343   6.009   1.097 -0.1443  0.3427  1.1407
  117GLOH    C3 9814   0.222   6.249   0.913  0.0005  0.3017 -0.1621
  117GLOH   H06 9815   0.288   6.199   0.842 -0.5005 -0.0439 -0.3887
  117GLOH   H07 9816   0.252   6.353   0.924 -3.1296  1.0364  1.7961
  117GLOH    O3 9817   0.083   6.241   0.871 -0.0339  0.0661 -0.0293
  117GLOH   H01 9818   0.055   6.150   0.853 -2.1183  1.2614 -3.3680
  118GLOH   H03 9819   4.759   4.262   1.169  2.5836  1.0360  1.0863
  118GLOH    O1 9820   4.779   4.302   1.082  0.0884 -0.3326 -0.1556
  118GLOH    C1 9821   4.666   4.371   1.017  0.0266  0.0722  0.3456
  118GLOH   H02 9822   4.629   4.462   1.065 -1.0012 -0.0558 -0.2025
  118GLOH   H08 9823   4.580   4.304   1.018 -0.3125  0.5047  0.4452
  118GLOH    C2 9824   4.691   4.422   0.875  0.1789  0.0344 -0.8208
  118GLOH   H04 9825   4.727   4.344   0.806 -0.6297 -2.8011  1.8159
  118GLOH    O2 9826   4.574   4.471   0.815 -0.0630 -0.1918 -0.9892
  118GLOH   H05 9827   4.567   4.464   0.718 -1.9940  0.7313 -0.9463
  118GLOH    C3 9828   4.804   4.516   0.886 -0.1131 -0.2173  0.3414
  118GLOH   H06 9829   4.776   4.594   0.957  1.2294  1.0035 -0.4574
  118GLOH   H07 9830   4.824   4.563   0.790  1.3756  0.6649  1.0682
  118GLOH    O3 9831   4.925   4.454   0.922 -0.3625  0.3529 -0.5928
  118GLOH   H01 9832   4.900   4.402   1.000 -1.9691  4.4203  1.7358
  119GLOH   H03 9833   2.035   7.645   1.256 -0.3270 -0.1733  0.0253
  119GLOH    O1 9834   2.005   7.654   1.348  0.1052  0.3304  0.1217
  119GLOH    C1 9835   1.924   7.773   1.363  0.6784  0.0271  0.7541
  119GLOH   H02 9836   1.900   7.828   1.272  0.9489 -0.1635  0.5654
  119GLOH   H08 9837   1.974   7.838   1.434  1.6225 -0.0832  0.1920
  119GLOH    C2 9838   1.789   7.732   1.423  0.3390 -0.2315  0.5599
  119GLOH   H04 9839   1.802   7.690   1.524 -2.9745 -1.4482  0.5397
  119GLOH    O2 9840   1.707   7.849   1.424 -0.4930  1.0612 -0.0341
  119GLOH   H05 9841   1.671   7.850   1.514  1.0315 -0.8532  0.6361
  119GLOH    C3 9842   1.723   7.620   1.337 -0.0353 -0.0837  0.4560
  119GLOH   H06 9843   1.724   7.644   1.230  1.2723 -0.3692  0.3972
  119GLOH   H07 9844   1.617   7.599   1.354 -0.3988 -1.1165 -2.7570
  119GLOH    O3 9845   1.800   7.501   1.344 -0.1263 -0.2035 -0.4185
  119GLOH   H01 9846   1.893   7.528   1.335 -0.3807  1.0105  0.5617
  120GLOH   H03 9847   3.584   0.818   0.972 -0.0105  1.4154 -1.3001
  120GLOH    O1 9848   3.558   0.885   1.037 -0.1081  0.5617 -0.4497
  120GLOH    C1 9849   3.482   0.813   1.140 -0.0657  0.3963 -0.2648
  120GLOH   H02 9850   3.552   0.773   1.213 -0.4120  1.5515  0.7144
  120GLOH   H08 9851   3.419   0.732   1.104  0.6615 -0.9878  1.5041
  120GLOH    C2 9852   3.386   0.911   1.207  0.3156 -0.5852 -0.7025
  120GLOH   H04 9853   3.315   0.850   1.266  0.0142  0.3673 -0.0747
  120GLOH    O2 9854   3.461   0.991   1.302 -0.0727 -0.3775  0.7856
  120GLOH   H05 9855   3.499   1.066   1.253  1.5172 -1.9760 -0.4857
  120GLOH    C3 9856   3.304   0.996   1.105 -0.0397 -0.2080 -0.0452
  120GLOH   H06 9857   3.369   1.029   1.023  0.0331  1.2033  0.5629
  120GLOH   H07 9858   3.272   1.082   1.163 -2.9191 -1.8969  0.9746
  120GLOH    O3 9859   3.195   0.921   1.049 -0.0626  0.0625  0.7260
  120GLOH   H01 9860   3.124   0.906   1.113 -0.1327 -3.0194 -0.0098
  121ACOH    H4 9861   2.146   4.278   2.222  3.6678 -0.1933  0.3250
  121ACOH    O2 9862   2.141   4.219   2.146  0.5846  0.0808  0.2778
  121ACOH    C2 9863   2.234   4.128   2.154  0.3558 -0.0664 -0.3771
  121ACOH    O1 9864   2.272   4.070   2.252 -0.1301 -0.6391  0.1743
  121ACOH    C1 9865   2.251   4.052   2.023 -0.0998  0.3649 -0.7054
  121ACOH    H1 9866   2.233   3.945   2.024 -3.0633  0.8283  0.4833
  121ACOH    H2 9867   2.351   4.073   1.986  1.0531 -3.0276  0.3385
  121ACOH    H3 9868   2.189   4.087   1.940  1.3936  0.6507 -1.7202
  122ACOH    H4 9869   3.756   8.324   1.402  2.1758 -0.2434 -2.1670
  122ACOH    O2 9870   3.716   8.240   1.375  0.9178 -0.2527 -0.3917
  122ACOH    C2 9871   3.746   8.212   1.248 -0.0117  0.0156  0.0392
  122ACOH    O1 9872   3.825   8.274   1.178  0.1133 -0.1819 -0.4379
  122ACOH    C1 9873   3.676   8.094   1.193 -0.6123  0.7869 -0.1911
  122ACOH    H1 9874   3.608   8.040   1.259  0.9953  0.1852  0.9914
  122ACOH    H2 9875   3.759   8.028   1.166  0.0793  0.8032  1.8030
  122ACOH    H3 9876   3.624   8.128   1.103 -0.3159 -0.9735 -1.0421
  123ACOH    H4 9877   1.966   3.549   0.133 -1.2722 -1.5082 -0.2177
  123ACOH    O2 9878   2.039   3.485   0.136  0.4713  0.4153  0.1128
  123ACOH    C2 9879   2.119   3.526   0.032  0.0019  0.7434  0.0791
  123ACOH    O1 9880   2.084   3.598  -0.061  0.3989 -0.4389 -0.2008
  123ACOH    C1 9881   2.243   3.445   0.024  0.1366  0.0917 -0.0144
  123ACOH    H1 9882   2.297   3.459   0.117 -0.8030 -3.4457  1.1677
  123ACOH    H2 9883   2.308   3.479  -0.057  1.7159 -2.3307  0.1962
  123ACOH    H3 9884   2.212   3.342   0.006 -0.8152  0.5767 -1.2966
  124ACOH    H4 9885   4.384   1.303   1.339  1.7033  0.9876 -1.0556
  124ACOH    O2 9886   4.406   1.325   1.431  0.6553 -0.5250 -0.4223
  124ACOH    C2 9887   4.458   1.449   1.430 -0.4192 -0.3955  0.6190
  124ACOH    O1 9888   4.473   1.519   1.333 -0.3990  0.4162  0.2187
  124ACOH    C1 9889   4.452   1.509   1.567 -0.0882 -1.2599 -0.5076
  124ACOH    H1 9890   4.433   1.616   1.557 -1.3090 -0.8669  4.4533
  124ACOH    H2 9891   4.553   1.504   1.608  0.1892  0.2860 -0.9746
  124ACOH    H3 9892   4.379   1.465   1.635 -1.0023  0.0750 -0.5941
  125ACOH    H4 9893   8.600   2.944   0.261 -1.5892 -1.2093  0.2331
  125ACOH    O2 9894   8.600   2.976   0.169  0.1073 -0.4515  0.4756
  125ACOH    C2 9895   8.598   2.864   0.086  0.2329 -0.5341  0.6034
  125ACOH    O1 9896   8.592   2.745   0.114 -0.2929  0.0909  0.1396
  125ACOH    C1 9897   8.566   2.910  -0.050 -0.2017  0.2483  0.0603
  125ACOH    H1 9898   8.481   2.978  -0.055 -0.9128 -0.6026  0.4515
  125ACOH    H2 9899   8.541   2.819  -0.105 -0.6321 -0.0485  0.7411
  125ACOH    H3 9900   8.649   2.948  -0.109 -1.3778 -1.4517 -2.7987
  126ACOH    H4 9901   8.586   6.919   1.627 -0.8321 -0.3581  0.1457
  126ACOH    O2 9902   8.512   6.982   1.621 -0.2610  0.3474  0.4367
  126ACOH    C2 9903   8.550   7.103   1.570  0.1315  0.1161 -0.7169
  126ACOH    O1 9904   8.665   7.126   1.530 -0.3960  0.1367  0.3526
  126ACOH    C1 9905   8.445   7.203   1.565 -0.0156  0.3655  0.2571
  126ACOH    H1 9906   8.436   7.234   1.461 -0.3911 -1.5888 -0.3215
  126ACOH    H2 9907   8.477   7.278   1.637  4.3610 -0.1993 -0.9140
  126ACOH    H3 9908   8.356   7.153   1.603  0.9315 -0.6390  1.1983
  127ACOH    H4 9909   3.931   5.346   1.548  0.8205  0.3307 -0.4884
  127ACOH    O2 9910   3.911   5.370   1.455 -0.4682  0.2318 -0.2427
  127ACOH    C2 9911   3.784   5.414   1.445  0.6894 -0.6177 -0.7316
  127ACOH    O1 9912   3.705   5.431   1.536  0.6692  0.7741  0.0915
  127ACOH    C1 9913   3.742   5.422   1.304 -0.1920  0.3764  0.9490
  127ACOH    H1 9914   3.817   5.381   1.236 -2.7940 -1.9733 -0.5999
  127ACOH    H2 9915   3.708   5.521   1.276 -0.1209  0.3898  0.9119
  127ACOH    H3 9916   3.652   5.361   1.293 -0.3414  0.4828  1.5819
  128ACOH    H4 9917   8.801   6.075   0.331 -0.7550  2.4714 -0.7434
  128ACOH    O2 9918   8.724   6.016   0.325  0.3550  0.9386 -0.3172
  128ACOH    C2 9919   8.640   6.085   0.250 -0.7466  0.2936  0.5880
  128ACOH    O1 9920   8.649   6.192   0.188  0.1739  0.0118  0.5418
  128ACOH    C1 9921   8.527   5.993   0.229 -0.1739  0.2354  0.1518
  128ACOH    H1 9922   8.548   5.924   0.147 -0.7235  0.5242 -0.2379
  128ACOH    H2 9923   8.445   6.053   0.190  0.9532  1.0156 -1.0564
  128ACOH    H3 9924   8.494   5.941   0.319 -1.7744 -1.0796 -1.1653
  129ACOH    H4 9925   3.061   7.115   0.891 -0.3230  0.2193 -0.1670
  129ACOH    O2 9926   3.059   7.052   0.965 -0.0927  0.0477 -0.3061
  129ACOH    C2 9927   3.030   7.120   1.080 -0.1717 -1.3239 -0.4335
  129ACOH    O1 9928   3.034   7.242   1.092  0.4809 -0.8417  0.2244
  129ACOH    C1 9929   2.992   7.029   1.191  0.4767  0.0940 -0.5994
  129ACOH    H1 9930   3.069   7.035   1.267 -0.3423  1.2347  0.1525
  129ACOH    H2 9931   2.969   6.928   1.157 -2.6841  1.1517 -1.8139
  129ACOH    H3 9932   2.906   7.069   1.245  0.7364 -0.6154  0.3465
  130ACOH    H4 9933   9.508   8.063   1.913 -0.1570  0.5481 -0.4282
  130ACOH    O2 9934   9.468   8.041   1.999  0.7961 -0.0557 -0.1267
  130ACOH    C2 9935   9.439   8.150   2.074 -0.7550  0.2680 -0.1255
  130ACOH    O1 9936   9.433   8.265   2.026 -0.4730  0.5731 -0.2857
  130ACOH    C1 9937   9.424   8.122   2.218  0.1534 -0.5100 -0.6942
  130ACOH    H1 9938   9.405   8.205   2.286 -0.8867 -2.4546  1.4663
  130ACOH    H2 9939   9.514   8.068   2.247 -0.0641 -0.1758  0.6381
  130ACOH    H3 9940   9.340   8.053   2.228 -0.6947  0.2716 -2.2495
  131ACOH    H4 9941   8.334   7.581   1.196 -0.0836  0.2836 -0.9374
  131ACOH    O2 9942   8.366   7.519   1.128  0.2572 -0.4161 -0.1447
  131ACOH    C2 9943   8.346   7.390   1.176  0.4968 -0.7241  0.0225
  131ACOH    O1 9944   8.288   7.356   1.277  0.5197 -1.0097  0.2491
  131ACOH    C1 9945   8.396   7.302   1.074 -0.1537  0.1694 -0.2400
  131ACOH    H1 9946   8.504   7.307   1.083 -0.1145 -0.8496 -0.0969
  131ACOH    H2 9947   8.358   7.338   0.979 -0.6443 -0.1355 -0.1636
  131ACOH    H3 9948   8.348   7.205   1.088 -0.3665  0.5415  1.7371
  132ACOH    H4 9949   5.403   9.505   1.270  0.0379  3.1445 -1.0707
  132ACOH    O2 9950   5.494   9.488   1.241 -0.2664 -0.2942 -0.1871
  132ACOH    C2 9951   5.549   9.441   1.353  0.6367  0.0686  0.4182
  132ACOH    O1 9952   5.493   9.408   1.458 -0.5759 -0.1742  0.9100
  132ACOH    C1 9953   5.696   9.445   1.350  0.4309 -0.9334  0.5769
  132ACOH    H1 9954   5.742   9.353   1.386 -0.5701 -2.2900 -1.4951
  132ACOH    H2 9955   5.731   9.528   1.412 -0.3378  0.2882 -0.5891
  132ACOH    H3 9956   5.726   9.460   1.247  1.5245 -0.8286  0.8986
  133ACOH    H4 9957   3.038   9.389   2.039  0.4506  1.2919  0.5709
  133ACOH    O2 9958   2.957   9.429   2.004  0.3352  0.0960 -0.5091
  133ACOH    C2 9959   2.905   9.331   1.931  0.1160  0.4839 -0.6625
  133ACOH    O1 9960   2.962   9.227   1.895 -0.2489  0.1361  0.3430
  133ACOH    C1 9961   2.765   9.356   1.902 -0.3046  0.6218  0.2812
  133ACOH    H1 9962   2.729   9.281   1.832  0.8990 -0.6654  1.0086
  133ACOH    H2 9963   2.753   9.452   1.851  1.8933  0.1766 -1.1078
  133ACOH    H3 9964   2.705   9.357   1.994  1.0941  3.3308  1.2313
  134ACOH    H4 9965   8.790   4.460   1.436 -1.5472  0.7963  1.5075
  134ACOH    O2 9966   8.759   4.525   1.370 -0.4722 -0.4300 -0.2443
  134ACOH    C2 9967   8.854   4.559   1.278  0.1803  0.1126 -0.0956
  134ACOH    O1 9968   8.968   4.526   1.282 -0.1744  0.6042  0.2494
  134ACOH    C1 9969   8.799   4.646   1.171 -0.2381  0.6720  0.2356
  134ACOH    H1 9970   8.697   4.679   1.190 -0.4731  0.2775 -0.3225
  134ACOH    H2 9971   8.795   4.569   1.094 -0.7986  0.4258  0.5117
  134ACOH    H3 9972   8.860   4.732   1.142 -0.7439  1.1421  0.5434
  135ACOH    H4 9973   7.341   0.970   0.775 -1.4723  2.0274  2.6332
  135ACOH    O2 9974   7.391   1.052   0.760 -0.1231  0.7468 -0.2305
  135ACOH    C2 9975   7.510   1.041   0.822  0.7557 -0.7451  0.0365
  135ACOH    O1 9976   7.543   0.954   0.902 -0.7985 -0.3940 -0.2246
  135ACOH    C1 9977   7.586   1.167   0.812  0.1888  0.5911  0.1026
  135ACOH    H1 9978   7.666   1.166   0.886 -2.0135 -0.4696  2.5519
  135ACOH    H2 9979   7.515   1.245   0.840 -1.2214 -0.7234  0.2773
  135ACOH    H3 9980   7.619   1.186   0.710 -0.6531  2.3001  0.1309
  136ACOH    H4 9981   4.025   1.390   2.192  1.0809  1.8178 -1.5831
  136ACOH    O2 9982   3.969   1.364   2.118 -0.6402 -0.2387  0.3621
  136ACOH    C2 9983   3.999   1.238   2.097 -1.2343  0.8993  0.6336
  136ACOH    O1 9984   4.084   1.171   2.154 -0.0255  0.1321 -0.2156
  136ACOH    C1 9985   3.926   1.178   1.984  0.0065 -0.1833 -0.2355
  136ACOH    H1 9986   3.950   1.211   1.883  0.0711 -1.0940 -0.5308
  136ACOH    H2 9987   3.822   1.207   1.995 -0.5721 -1.9734 -0.7966
  136ACOH    H3 9988   3.927   1.069   1.975 -0.6351 -0.0850 -1.6527
  137ACOH    H4 9989   7.995   8.410   1.490 -0.7085  0.1162  0.3213
  137ACOH    O2 9990   7.959   8.429   1.578 -0.0854  0.4027  0.5180
  137ACOH    C2 9991   7.869   8.529   1.576  0.4136 -0.3584 -0.9624
  137ACOH    O1 9992   7.821   8.586   1.478 -0.1229  0.8380 -0.4310
  137ACOH    C1 9993   7.829   8.553   1.719 -0.7550  0.2056 -0.0826
  137ACOH    H1 9994   7.742   8.618   1.725 -0.7205  0.2878 -0.4980
  137ACOH    H2 9995   7.909   8.587   1.784 -2.3099  2.2061  0.8509
  137ACOH    H3 9996   7.801   8.455   1.758  1.7081 -0.7822 -0.7380
  138ACOH    H4 9997   4.572   0.471   2.141 -1.4327 -2.9488  0.3782
  138ACOH    O2 9998   4.662   0.447   2.113 -0.2364  0.8196  0.7949
  138ACOH    C2 9999   4.647   0.358   2.016  0.6059  0.4159 -0.7669
  138ACOH    O110000   4.547   0.294   1.986  0.1277 -0.1271 -0.0596
  138ACOH    C110001   4.780   0.321   1.955 -0.4005  0.6077  0.3299
  138ACOH    H110002   4.855   0.396   1.981 -0.7004  0.7724  0.7313
  138ACOH    H210003   4.775   0.321   1.847 -0.3141  1.7700  0.3259
  138ACOH    H310004   4.802   0.221   1.995 -0.2780  0.4511 -0.1321
  139ACOH    H410005   7.190   9.401   2.161 -0.3532 -1.2590 -0.5320
  139ACOH    O210006   7.095   9.392   2.143 -0.4551 -0.6256 -0.3255
  139ACOH    C210007   7.035   9.504   2.192  0.0399  0.6420 -0.4225
  139ACOH    O110008   7.091   9.598   2.245 -0.1429  0.2638 -0.5727
  139ACOH    C110009   6.895   9.499   2.178  0.2914  0.4003  0.6767
  139ACOH    H110010   6.863   9.401   2.143  1.7653 -0.5845  1.9862
  139ACOH    H210011   6.852   9.575   2.113 -0.0284 -2.3215 -2.4095
  139ACOH    H310012   6.859   9.515   2.280 -0.8337  2.7158 -0.0665
  140ACOH    H410013   5.153   3.753   0.961  1.5496  1.1366  0.1541
  140ACOH    O210014   5.203   3.679   0.923 -0.4102 -0.1225 -0.0711
  140ACOH    C210015   5.320   3.681   0.979 -0.1008 -0.1772 -0.4161
  140ACOH    O110016   5.343   3.739   1.080  0.0866 -0.6016  0.3697
  140ACOH    C110017   5.406   3.568   0.927  0.1226 -1.4974 -0.6125
  140ACOH    H110018   5.511   3.576   0.956  0.1327  1.1518 -1.2292
  140ACOH    H210019   5.412   3.570   0.818  0.3690  0.1488 -0.5836
  140ACOH    H310020   5.368   3.471   0.959 -2.4037 -0.0512  0.8458
  141ACOH    H410021   2.998   2.277   1.584 -1.4258  0.7793 -0.2202
  141ACOH    O210022   2.992   2.239   1.495  0.5011 -0.2820  0.0853
  141ACOH    C210023   2.999   2.104   1.497  0.7675  0.0395  0.2877
  141ACOH    O110024   2.995   2.029   1.593 -0.1953  0.5306 -0.2129
  141ACOH    C110025   2.978   2.040   1.365  0.0474  0.1286 -0.2575
  141ACOH    H110026   2.979   2.119   1.291  1.3242  1.2287  0.9105
  141ACOH    H210027   2.880   1.990   1.361  0.4115 -0.5126 -1.5121
  141ACOH    H310028   3.047   1.959   1.340  1.2558  1.3987 -1.0599
  142ACOH    H410029   4.254   8.852   2.285 -2.4701  1.6684 -2.9935
  142ACOH    O210030   4.281   8.945   2.287  1.0223  0.7088 -0.1212
  142ACOH    C210031   4.382   8.970   2.378  0.8115 -0.1015 -0.3679
  142ACOH    O110032   4.447   8.881   2.431  0.6166 -0.1617  0.6134
  142ACOH    C110033   4.407   9.113   2.412  0.0004  0.4710 -0.2531
  142ACOH    H110034   4.509   9.141   2.385  0.9695 -0.9410  1.7123
  142ACOH    H210035   4.402   9.134   2.519 -1.4225  1.8538 -0.5741
  142ACOH    H310036   4.347   9.187   2.360  0.5601 -0.0106 -1.5908
  143ACOH    H410037   7.585   0.112   1.778 -0.1374 -1.1918 -0.4648
  143ACOH    O210038   7.538   0.062   1.847 -0.1965  0.2003  0.5142
  143ACOH    C210039   7.576   0.112   1.959  0.0377  0.1715  0.1187
  143ACOH    O110040   7.647   0.210   1.977  0.0609 -0.1424 -0.3501
  143ACOH    C110041   7.522   0.030   2.069  0.0867  0.1561 -1.0820
  143ACOH    H110042   7.557   0.050   2.170 -0.9897 -1.5849 -0.3229
  143ACOH    H210043   7.541  -0.077   2.058 -0.0532 -0.4088  3.2826
  143ACOH    H310044   7.413   0.037   2.070 -0.1509 -2.7144 -0.9324
  144ACOH    H410045   8.798   4.089   2.435  0.6543 -1.0354 -1.4781
  144ACOH    O210046   8.732   4.018   2.442 -0.2667 -0.0169  0.3708
  144ACOH    C210047   8.741   3.938   2.342 -0.1595  0.3093 -0.5509
  144ACOH    O110048   8.811   3.953   2.245  0.0456  0.0176  0.7465
  144ACOH    C110049   8.659   3.815   2.356 -0.0980 -1.0491 -0.8422
  144ACOH    H110050   8.617   3.807   2.456 -0.2708 -1.3345 -0.9364
  144ACOH    H210051   8.714   3.725   2.328 -1.6882 -1.6740 -2.0827
  144ACOH    H310052   8.576   3.817   2.285 -1.6955  0.0457  1.0097
  145ACOH    H410053   9.001   1.055   1.360 -1.2162  0.7432 -1.1508
  145ACOH    O210054   9.059   0.988   1.320 -0.6827  0.2339  0.4335
  145ACOH    C210055   8.974   0.889   1.286  0.1650 -1.0935 -0.7821
  145ACOH    O110056   8.853   0.895   1.290 -0.0592 -0.5096 -0.1577
  145ACOH    C110057   9.041   0.761   1.270  0.2912 -0.5438  0.5134
  145ACOH    H110058   8.969   0.679   1.262  2.3229 -2.3173 -0.0393
  145ACOH    H210059   9.116   0.746   1.348 -1.2712 -1.8147  1.8130
  145ACOH    H310060   9.098   0.778   1.179  0.9471  0.7143  1.1548
  146ACOH    H410061   5.019   8.330   0.901 -0.0944  0.1493 -0.2648
  146ACOH    O210062   5.021   8.234   0.921 -0.2532  0.2296  0.1304
  146ACOH    C210063   5.050   8.216   1.051  0.2998  0.1280  0.5007
  146ACOH    O110064   5.048   8.307   1.133 -0.0397  0.4066 -0.0954
  146ACOH    C110065   5.024   8.074   1.097  0.2375  0.0457 -0.1900
  146ACOH    H110066   4.951   8.034   1.026 -0.7798 -0.5953  1.2128
  146ACOH    H210067   4.985   8.054   1.197 -2.5026 -1.2785 -1.4576
  146ACOH    H310068   5.121   8.025   1.091 -0.3114 -1.2343  1.1536
  147ACOH    H410069   5.136   3.949   0.216  1.7817 -0.4155 -1.7216
  147ACOH    O210070   5.161   4.043   0.226 -0.3404 -0.0067  0.3034
  147ACOH    C210071   5.288   4.074   0.184 -0.2048 -0.2403 -0.1492
  147ACOH    O110072   5.363   3.991   0.137  0.1735 -0.2551  0.3248
  147ACOH    C110073   5.312   4.219   0.194  0.2290  0.2308 -0.2566
  147ACOH    H110074   5.409   4.231   0.146  0.9169 -1.2595  0.7295
  147ACOH    H210075   5.319   4.264   0.293 -0.9305 -0.1095 -0.0108
  147ACOH    H310076   5.232   4.273   0.144  0.4788  0.6971 -0.1581
  148ACOH    H410077   4.699   1.234   0.763 -0.2358 -1.4136  1.5568
  148ACOH    O210078   4.785   1.271   0.787 -0.2837 -0.1157 -0.2293
  148ACOH    C210079   4.771   1.391   0.850  0.0711  0.3607  0.7405
  148ACOH    O110080   4.668   1.447   0.876  0.9996 -0.5257  0.3938
  148ACOH    C110081   4.900   1.462   0.875  0.7807 -0.3656 -0.0237
  148ACOH    H110082   4.984   1.393   0.859  2.0853  0.7736  1.7118
  148ACOH    H210083   4.907   1.514   0.970  1.0649 -1.9448  0.8452
  148ACOH    H310084   4.899   1.534   0.794  2.4707  0.4432  0.6370
  149ACOH    H410085   8.603   6.456   2.506 -1.3863 -0.9226  0.9598
  149ACOH    O210086   8.550   6.425   2.430 -0.1671  0.1058 -0.3471
  149ACOH    C210087   8.563   6.520   2.337 -0.8945 -0.0055 -0.7864
  149ACOH    O110088   8.564   6.636   2.374 -0.3229  0.6052 -0.5625
  149ACOH    C110089   8.500   6.467   2.216  0.3713 -0.0720  0.1449
  149ACOH    H110090   8.445   6.374   2.231 -0.8923  0.2992 -1.9742
  149ACOH    H210091   8.578   6.449   2.142 -0.8461  0.9019 -1.4222
  149ACOH    H310092   8.439   6.551   2.182 -1.1554 -0.3330  2.1634
  150ACOH    H410093   3.365   7.628   1.345 -0.5944  0.0654 -0.2764
  150ACOH    O210094   3.454   7.614   1.308 -0.4840  0.4234 -0.1496
  150ACOH    C210095   3.531   7.710   1.353  0.4069 -0.6450 -0.6079
  150ACOH    O110096   3.490   7.822   1.385 -0.4706  0.5470 -0.0466
  150ACOH    C110097   3.672   7.688   1.324  0.1268 -0.1152  0.3943
  150ACOH    H110098   3.729   7.711   1.414  1.3108 -1.7642  0.0816
  150ACOH    H210099   3.712   7.739   1.236  1.8100 -0.9382  0.6716
  150ACOH    H310100   3.681   7.581   1.307 -0.4157 -0.0188 -0.5880
  151ACOH    H410101   4.962   2.872   1.495 -0.1394 -1.1615 -0.3344
  151ACOH    O210102   5.025   2.853   1.567 -0.7602  0.2595  0.6077
  151ACOH    C210103   4.991   2.738   1.624  0.3107 -0.1864 -0.0257
  151ACOH    O110104   4.880   2.692   1.620  0.0499  0.1579  0.1296
  151ACOH    C110105   5.094   2.715   1.729  0.5883  0.0773  0.2503
  151ACOH    H110106   5.180   2.780   1.716  0.5954 -0.0132 -0.1724
  151ACOH    H210107   5.122   2.610   1.742  0.7770  0.2015  0.8645
  151ACOH    H310108   5.053   2.732   1.829  2.3983 -2.6514  1.5031
  152ACOH    H410109   7.076   9.739   2.344 -0.6744  0.1886 -0.4866
  152ACOH    O210110   7.061   9.821   2.394  0.0725 -0.0638  0.1588
  152ACOH    C210111   6.977   9.787   2.497 -0.9819  0.4802 -0.1128
  152ACOH    O110112   6.906   9.690   2.510  0.5142  0.1261  0.0453
  152ACOH    C110113   6.978   9.897   2.592 -0.3973  0.5828 -0.1213
  152ACOH    H110114   6.920   9.977   2.547 -1.9885 -0.7536 -0.4890
  152ACOH    H210115   7.079   9.933   2.611 -0.8766  1.0753  1.5425
  152ACOH    H310116   6.929   9.882   2.689  0.2966 -1.0094 -0.0032
  153ACOH    H410117   8.532   7.003   0.613  2.8871  0.0882 -1.4478
  153ACOH    O210118   8.498   6.914   0.596 -0.2913  1.0216 -0.3049
  153ACOH    C210119   8.597   6.831   0.634  0.5896  0.0366  0.0829
  153ACOH    O110120   8.701   6.861   0.690 -0.1900  0.1074  0.5040
  153ACOH    C110121   8.554   6.691   0.623 -0.5780  0.8742  0.7035
  153ACOH    H110122   8.540   6.662   0.519 -1.3189  1.0406  0.7591
  153ACOH    H210123   8.457   6.688   0.671 -0.3990  1.1892  1.0919
  153ACOH    H310124   8.623   6.626   0.677  0.9165  0.0069 -2.1663
  154ACOH    H410125   4.454   0.931   1.563  1.4952  0.8667 -0.0102
  154ACOH    O210126   4.497   0.844   1.566 -0.4189 -0.1017  0.3762
  154ACOH    C210127   4.416   0.742   1.556 -0.2635 -0.0300 -0.6417
  154ACOH    O110128   4.297   0.747   1.543  0.0967  0.4703 -0.5564
  154ACOH    C110129   4.493   0.621   1.544 -0.1033  0.5423 -0.5367
  154ACOH    H110130   4.536   0.597   1.641 -0.0651 -0.9313 -0.9151
  154ACOH    H210131   4.571   0.634   1.469  0.6658 -1.8119 -0.1636
  154ACOH    H310132   4.431   0.535   1.517 -3.8224  2.8187  0.3193
  155ACOH    H410133   3.344   9.174   2.029  1.7519 -1.4108  0.0279
  155ACOH    O210134   3.411   9.236   2.060 -0.4634  0.7346  0.7107
  155ACOH    C210135   3.378   9.363   2.036 -0.5049 -0.6031  0.4302
  155ACOH    O110136   3.271   9.398   1.984 -0.0862  0.4556  0.5589
  155ACOH    C110137   3.482   9.472   2.053 -0.1822  0.3605  0.1890
  155ACOH    H110138   3.574   9.436   2.099 -0.0974  2.2779  1.5727
  155ACOH    H210139   3.435   9.551   2.112  0.1907  1.1595 -0.5730
  155ACOH    H310140   3.496   9.512   1.953 -3.9596  1.7439  0.1173
  156ACOH    H410141   4.280   9.574   0.636 -0.0656  0.8297  0.1196
  156ACOH    O210142   4.359   9.522   0.615 -0.2809  0.4433  0.2684
  156ACOH    C210143   4.461   9.609   0.584  1.0868 -0.0572  0.2096
  156ACOH    O110144   4.446   9.730   0.572  0.5050 -0.4891 -0.1790
  156ACOH    C110145   4.591   9.537   0.561 -0.2931 -0.3718 -0.0409
  156ACOH    H110146   4.573   9.457   0.490 -2.3833 -0.6439  0.7561
  156ACOH    H210147   4.620   9.492   0.656  0.2001 -2.5133 -1.1849
  156ACOH    H310148   4.665   9.603   0.516 -0.2527  0.9077  1.8375
  157ACOH    H410149   4.535   1.133   1.949 -1.5745  0.4877 -2.4667
  157ACOH    O210150   4.600   1.074   1.907 -0.5941 -0.1606 -0.0960
  157ACOH    C210151   4.649   1.137   1.801 -0.6192 -0.0163  0.1740
  157ACOH    O110152   4.629   1.248   1.753  0.1163 -0.0099  0.3084
  157ACOH    C110153   4.756   1.055   1.726 -0.4143 -0.1952  0.6387
  157ACOH    H110154   4.824   1.117   1.667 -1.7979 -0.0938 -0.9202
  157ACOH    H210155   4.700   0.995   1.654  2.2633 -1.0951 -0.7331
  157ACOH    H310156   4.808   0.988   1.794  0.1670 -0.3199  0.0733
  158ACOH    H410157   3.725   7.874   0.414 -0.1275  0.6599 -0.8322
  158ACOH    O210158   3.802   7.829   0.376 -0.2152  0.0432 -0.2870
  158ACOH    C210159   3.781   7.691   0.364 -0.0191 -1.5408 -0.5782
  158ACOH    O110160   3.676   7.636   0.392 -0.1685  0.1184 -0.3537
  158ACOH    C110161   3.886   7.620   0.289  0.5714  0.5235 -0.6351
  158ACOH    H110162   3.976   7.608   0.350 -0.3537 -3.3816  0.0807
  158ACOH    H210163   3.913   7.685   0.205 -0.9810  4.6443  1.8928
  158ACOH    H310164   3.852   7.520   0.265  0.4659  0.7565 -1.4604
  159ACOH    H410165   3.337   5.941   2.096 -0.1705 -4.1680  0.2224
  159ACOH    O210166   3.261   5.940   2.035 -0.3004  0.0301  0.1925
  159ACOH    C210167   3.278   5.835   1.958 -0.4064  1.0905  0.1141
  159ACOH    O110168   3.373   5.754   1.960  0.7217  0.1052 -0.3057
  159ACOH    C110169   3.142   5.806   1.900  0.2190  0.4549  0.0196
  159ACOH    H110170   3.096   5.904   1.894 -0.4082  0.1405 -0.4334
  159ACOH    H210171   3.089   5.753   1.980  0.7998  0.0797  0.1637
  159ACOH    H310172   3.165   5.750   1.809  1.5394  1.1519 -0.0854
  160ACOH    H410173   4.036   8.011   2.282 -1.1439 -1.8361 -0.5204
  160ACOH    O210174   4.060   8.049   2.196 -0.0778  0.1410  0.6318
  160ACOH    C210175   4.171   8.121   2.215 -0.3986 -0.9450 -0.4244
  160ACOH    O110176   4.246   8.134   2.314  0.0893 -0.5889  0.6589
  160ACOH    C110177   4.200   8.199   2.093  0.4445 -0.3785  0.7287
  160ACOH    H110178   4.207   8.303   2.124 -0.0720  0.1203 -0.7978
  160ACOH    H210179   4.124   8.181   2.017  0.8123  2.8371 -0.4611
  160ACOH    H310180   4.292   8.172   2.042  1.1687 -0.1974  1.9244
  161ACOH    H410181   3.829   5.574   0.941 -2.0705  2.4064  1.3972
  161ACOH    O210182   3.911   5.626   0.941 -0.1862 -0.4512  0.7818
  161ACOH    C210183   4.009   5.578   0.856  0.6816 -0.1787 -0.5518
  161ACOH    O110184   3.995   5.482   0.785 -0.2059 -0.1436  0.0456
  161ACOH    C110185   4.110   5.676   0.826 -0.5409 -0.3766 -0.5588
  161ACOH    H110186   4.073   5.778   0.840 -1.4348 -0.9271  1.1664
  161ACOH    H210187   4.147   5.664   0.724  1.3593  2.8637 -0.3226
  161ACOH    H310188   4.188   5.650   0.896 -1.5869 -1.6754  0.1519
  162ACOH    H410189   5.104   4.112   2.204 -0.8725 -0.8994  0.0727
  162ACOH    O210190   5.174   4.045   2.209  0.0136 -0.0320 -0.4089
  162ACOH    C210191   5.185   4.005   2.337  0.4738  0.3287 -0.8835
  162ACOH    O110192   5.096   4.014   2.422  0.4693 -0.2587  0.3438
  162ACOH    C110193   5.290   3.907   2.361  0.3963  0.0548  0.6399
  162ACOH    H110194   5.381   3.927   2.305  0.0798 -1.4113 -0.4151
  162ACOH    H210195   5.259   3.811   2.321 -0.6537  0.2760  0.8974
  162ACOH    H310196   5.310   3.886   2.466  1.3266  1.1457  0.6894
  163ACOH    H410197   3.895   7.817   2.541  0.1689  0.1551 -0.3767
  163ACOH    O210198   3.969   7.845   2.597 -0.1797 -0.0147  0.1761
  163ACOH    C210199   3.981   7.974   2.567 -0.2859  0.8819  0.2819
  163ACOH    O110200   3.980   8.018   2.450 -0.4551  0.0263 -0.5199
  163ACOH    C110201   4.047   8.042   2.676  0.3638  0.0391  0.0423
  163ACOH    H110202   4.141   7.991   2.701 -0.8429 -1.7597  1.0043
  163ACOH    H210203   3.982   8.040   2.763  0.0544 -1.5521 -0.2157
  163ACOH    H310204   4.075   8.146   2.657  0.2998  0.3219  1.4488
  164ACOH    H410205   8.553   2.661   2.085 -1.5880  1.8476  0.9493
  164ACOH    O210206   8.476   2.613   2.050  0.1599 -0.5791  0.2382
  164ACOH    C210207   8.507   2.486   2.086  0.4081  0.2110 -0.1760
  164ACOH    O110208   8.619   2.444   2.117 -0.1200 -0.0514 -0.0910
  164ACOH    C110209   8.387   2.400   2.063  0.9080  0.2942 -0.0821
  164ACOH    H110210   8.365   2.338   2.150 -1.1912 -0.0903 -0.8353
  164ACOH    H210211   8.420   2.341   1.978  0.3458 -1.4268  0.8575
  164ACOH    H310212   8.298   2.462   2.050  1.0956  0.6827  0.4901
  165ACOH    H410213   7.843   8.215   1.987 -1.9873 -1.2882  0.5845
  165ACOH    O210214   7.810   8.202   1.896 -0.0754  0.2296 -0.3573
  165ACOH    C210215   7.900   8.116   1.837 -0.0617 -0.2899 -0.2971
  165ACOH    O110216   7.989   8.056   1.895  0.1931 -0.3189  0.2225
  165ACOH    C110217   7.886   8.113   1.687  0.1359  0.6178  0.3943
  165ACOH    H110218   7.801   8.174   1.655 -0.7542 -0.8983 -0.2019
  165ACOH    H210219   7.870   8.007   1.667  2.0440 -0.0819  2.3978
  165ACOH    H310220   7.975   8.142   1.631  1.8090 -4.4829  0.1432
  166ACOH    H410221   2.961   7.115   2.351  1.3210 -0.8109 -1.0707
  166ACOH    O210222   2.971   7.208   2.323 -0.2084 -0.3768 -0.2608
  166ACOH    C210223   2.984   7.287   2.427 -0.0093 -0.2227 -0.8572
  166ACOH    O110224   2.958   7.273   2.543  0.4800  0.1086  0.3198
  166ACOH    C110225   3.056   7.410   2.373  0.3426 -0.2947 -0.0760
  166ACOH    H110226   2.983   7.477   2.328 -0.7089 -0.8247  0.7956
  166ACOH    H210227   3.129   7.382   2.297  0.0104 -0.4310 -0.3459
  166ACOH    H310228   3.113   7.465   2.448  1.1543  0.9894 -1.6093
  167ACOH    H410229   8.297   6.966   0.047  0.4158 -0.9477 -1.2029
  167ACOH    O210230   8.207   6.974   0.012 -0.2004 -0.7522  0.3917
  167ACOH    C210231   8.189   7.056  -0.090  0.4128  0.2670 -0.8389
  167ACOH    O110232   8.269   7.137  -0.132  0.2873  0.6348 -0.6251
  167ACOH    C110233   8.043   7.048  -0.122 -0.0168  0.3923  0.2077
  167ACOH    H110234   7.992   7.068  -0.028  0.1691 -2.2196  0.9046
  167ACOH    H210235   8.023   6.947  -0.157 -0.8960  1.2917 -2.0596
  167ACOH    H310236   7.999   7.112  -0.199 -1.6243 -0.1613  0.6421
  168ACOH    H410237   3.679   5.068   1.293 -1.5180  1.6468  1.8443
  168ACOH    O210238   3.736   5.026   1.359 -0.3451 -0.1303 -0.2314
  168ACOH    C210239   3.674   5.032   1.476 -0.1030 -0.0019  0.0965
  168ACOH    O110240   3.569   5.079   1.498  0.0636  0.2847 -0.3580
  168ACOH    C110241   3.751   4.957   1.581 -0.5019  0.3261 -0.6762
  168ACOH    H110242   3.781   4.857   1.548  0.9315  0.0532  1.3499
  168ACOH    H210243   3.686   4.936   1.666 -0.9805  2.0043 -0.6090
  168ACOH    H310244   3.834   5.013   1.625 -1.6135  1.5943 -0.1843
  169ACOH    H410245   4.324   5.028   1.094 -0.4204 -1.1147  0.3694
  169ACOH    O210246   4.257   5.021   1.025 -0.0124 -0.4533 -0.0996
  169ACOH    C210247   4.317   4.960   0.915 -0.4772 -0.5023 -0.8088
  169ACOH    O110248   4.432   4.924   0.896  0.0769  0.5706 -0.0077
  169ACOH    C110249   4.218   4.947   0.801 -0.4108  0.5736  0.2045
  169ACOH    H110250   4.257   4.902   0.710 -1.0535  0.2137  0.1025
  169ACOH    H210251   4.186   5.045   0.764  2.6149  1.7514  0.5980
  169ACOH    H310252   4.132   4.892   0.839 -0.6945 -1.0665 -2.6634
  170ACOH    H410253   8.508   2.734   1.144 -0.4278 -0.9425 -1.7321
  170ACOH    O210254   8.423   2.760   1.183  0.1249 -0.4099 -0.8569
  170ACOH    C210255   8.408   2.890   1.162  0.5904 -0.1881  0.2178
  170ACOH    O110256   8.422   2.947   1.053 -0.3058 -0.3881 -0.0810
  170ACOH    C110257   8.342   2.952   1.280  0.1819 -0.2022  0.5190
  170ACOH    H110258   8.273   3.021   1.232 -1.5638 -0.9337  1.9355
  170ACOH    H210259   8.412   3.005   1.344  1.2266 -1.4997  0.4750
  170ACOH    H310260   8.291   2.879   1.342  0.7446  1.4339  2.9710
  171ACOH    H410261   4.580   0.265   0.973  1.2670 -0.8333 -0.7970
  171ACOH    O210262   4.638   0.277   1.049  0.2160  0.4947 -0.1887
  171ACOH    C210263   4.576   0.372   1.126 -0.0016 -0.6233  0.3340
  171ACOH    O110264   4.498   0.457   1.081  0.2925 -0.3672  0.6870
  171ACOH    C110265   4.635   0.376   1.258 -0.0830 -0.2665  0.8550
  171ACOH    H110266   4.571   0.345   1.340  0.5069 -0.0890  1.3859
  171ACOH    H210267   4.654   0.481   1.277  0.0689  0.1055 -1.1973
  171ACOH    H310268   4.729   0.321   1.266  1.0618  1.3493 -0.9936
  172ACOH    H410269   4.919   2.735   0.879 -0.2207  0.1066 -0.9836
  172ACOH    O210270   4.912   2.645   0.915 -0.4165  0.4746 -0.1013
  172ACOH    C210271   4.853   2.574   0.819 -0.0309 -0.5299 -0.2851
  172ACOH    O110272   4.786   2.614   0.726  0.4516  0.5286  0.7683
  172ACOH    C110273   4.871   2.430   0.838  0.6554  0.1118 -0.0042
  172ACOH    H110274   4.905   2.406   0.938  1.6226 -1.0492 -0.6007
  172ACOH    H210275   4.946   2.392   0.768 -0.2928  1.5808 -1.8973
  172ACOH    H310276   4.774   2.385   0.817  0.1667  1.4177 -0.5715
  173ACOH    H410277   8.074   2.693   0.963  0.1710 -0.9545 -0.8296
  173ACOH    O210278   8.043   2.641   1.039  0.0598  0.0999 -0.1364
  173ACOH    C210279   8.136   2.558   1.076  0.6111  0.6839  0.1082
  173ACOH    O110280   8.243   2.544   1.018  0.1366 -0.4554  0.3930
  173ACOH    C110281   8.085   2.471   1.188  1.5525  0.0612 -0.2004
  173ACOH    H110282   8.169   2.456   1.256  2.4434 -1.1852 -1.5310
  173ACOH    H210283   8.054   2.376   1.145  3.8911 -0.7341 -0.1934
  173ACOH    H310284   8.000   2.512   1.242 -0.1816 -2.9137 -0.5577
  174ACOH    H410285   4.260   8.292   0.639  0.2108 -0.2139 -0.1919
  174ACOH    O210286   4.315   8.238   0.580  0.6459 -0.0093  0.0235
  174ACOH    C210287   4.333   8.306   0.466 -0.3665 -0.4084  0.2575
  174ACOH    O110288   4.294   8.413   0.434 -0.0024 -0.3370 -0.0077
  174ACOH    C110289   4.387   8.216   0.356  0.1596 -0.6365  0.2039
  174ACOH    H110290   4.425   8.271   0.270 -1.9344  1.4052  0.5362
  174ACOH    H210291   4.297   8.168   0.317 -0.5414 -0.4250  1.5427
  174ACOH    H310292   4.457   8.137   0.384  0.4832 -0.5136 -0.2478
  175ACOH    H410293   4.186   1.774   1.377 -0.6083  2.3135 -0.7615
  175ACOH    O210294   4.252   1.777   1.305 -0.2243  0.1957 -0.5312
  175ACOH    C210295   4.254   1.905   1.259 -0.4858 -0.0746  0.2392
  175ACOH    O110296   4.179   1.994   1.289 -0.0829  0.1441 -0.5161
  175ACOH    C110297   4.366   1.925   1.161  0.6614  0.1640  0.1640
  175ACOH    H110298   4.372   2.024   1.115 -2.2116 -0.1028 -0.8399
  175ACOH    H210299   4.347   1.862   1.074  2.0988  1.2785 -0.9938
  175ACOH    H310300   4.460   1.896   1.208  0.2069  0.2913  1.1503
  176ACOH    H410301   7.438   9.212   0.827 -0.8707  0.5772  2.1146
  176ACOH    O210302   7.352   9.169   0.838 -0.3833 -1.0218  0.0127
  176ACOH    C210303   7.301   9.172   0.712  0.0751 -0.5790  0.2641
  176ACOH    O110304   7.345   9.239   0.622  0.4287 -0.0592  0.4958
  176ACOH    C110305   7.166   9.096   0.719  0.8488 -0.1196 -0.1600
  176ACOH    H110306   7.179   9.012   0.651 -1.4277 -3.0010  2.8122
  176ACOH    H210307   7.083   9.155   0.681 -0.1899 -2.1857 -1.1731
  176ACOH    H310308   7.142   9.054   0.817 -2.3911  1.9224 -0.0005
  177ACOH    H410309   2.854   6.945   1.725  1.1104 -4.5720 -1.5694
  177ACOH    O210310   2.846   6.986   1.637 -0.3042  0.3728  0.6400
  177ACOH    C210311   2.887   7.116   1.660  0.3941  0.3891 -0.2729
  177ACOH    O110312   2.905   7.173   1.771 -0.3009 -0.2508  0.4803
  177ACOH    C110313   2.884   7.196   1.531  0.2593  0.1682  0.1657
  177ACOH    H110314   2.862   7.301   1.551 -0.1704  0.4755 -1.8568
  177ACOH    H210315   2.807   7.152   1.468  1.9532 -0.7031 -1.3617
  177ACOH    H310316   2.986   7.188   1.491 -0.4535  0.2353 -1.6977
  178ACOH    H410317   3.046   0.481   0.580 -3.1653  5.0011 -0.7969
  178ACOH    O210318   3.091   0.526   0.654 -0.5002 -0.2504  0.9779
  178ACOH    C210319   3.019   0.510   0.772 -0.1564 -0.5462 -0.3656
  178ACOH    O110320   2.930   0.430   0.790 -0.4004  0.4343  0.7493
  178ACOH    C110321   3.082   0.604   0.875 -0.2033  0.1228  0.0483
  178ACOH    H110322   3.069   0.709   0.846  0.5464  0.2859  0.2825
  178ACOH    H210323   3.189   0.584   0.874 -0.2296 -0.0165  0.1235
  178ACOH    H310324   3.042   0.581   0.974 -1.3732 -2.5025 -0.9929
  179ACOH    H410325   1.536   5.839   0.374 -0.1349 -0.4403  1.3149
  179ACOH    O210326   1.625   5.801   0.363 -0.0954  0.0679 -0.2125
  179ACOH    C210327   1.705   5.900   0.399  0.1208  0.7226 -0.4440
  179ACOH    O110328   1.687   5.991   0.478 -0.3127 -0.0687  0.3381
  179ACOH    C110329   1.845   5.869   0.359 -0.0228  0.4148 -0.1639
  179ACOH    H110330   1.908   5.841   0.444 -0.0429  1.5860  0.2397
  179ACOH    H210331   1.895   5.953   0.313 -0.2441  0.9156  0.4964
  179ACOH    H310332   1.841   5.796   0.278 -1.3661  1.2020 -0.8282
  180ACOH    H410333   8.233   2.913   0.662 -0.5526  0.8010 -2.3929
  180ACOH    O210334   8.204   2.993   0.709  0.1950 -0.1585 -0.2666
  180ACOH    C210335   8.152   2.941   0.825  0.9716 -0.5868 -0.3048
  180ACOH    O110336   8.129   2.821   0.844  0.3249  0.4870 -0.2908
  180ACOH    C110337   8.109   3.050   0.921 -0.0036  0.2623 -0.1182
  180ACOH    H110338   8.197   3.091   0.969 -0.3853  0.0881  0.7434
  180ACOH    H210339   8.040   3.011   0.996  0.8073  0.1310  0.5657
  180ACOH    H310340   8.074   3.131   0.857  0.0244  0.2646 -0.1298
  181ACOH    H410341   3.857   8.198   1.866 -0.2227 -0.5520 -0.3467
  181ACOH    O210342   3.929   8.195   1.801 -0.0515  0.0333 -0.1850
  181ACOH    C210343   3.929   8.313   1.738 -0.4430  0.4113  0.3515
  181ACOH    O110344   3.840   8.395   1.736  0.4358 -0.5474 -0.6517
  181ACOH    C110345   4.038   8.332   1.644 -0.4261 -0.2369  0.0825
  181ACOH    H110346   4.129   8.294   1.690 -0.8512 -0.8087  0.4575
  181ACOH    H210347   4.046   8.438   1.620 -0.4621  0.1817  1.8764
  181ACOH    H310348   4.020   8.273   1.554  1.4573 -1.3446  0.4192
  182ACOH    H410349   1.506   9.958   2.225  0.1907 -0.6231 -0.7848
  182ACOH    O210350   1.433   9.967   2.162 -0.2533  0.0587 -0.1844
  182ACOH    C210351   1.318  10.013   2.227 -0.8090  0.1663 -0.0632
  182ACOH    O110352   1.322  10.095   2.314  0.6368  0.3238 -0.4685
  182ACOH    C110353   1.197   9.970   2.153 -0.5486 -0.3051  0.3077
  182ACOH    H110354   1.186   9.863   2.167  0.3469 -0.7038 -1.8100
  182ACOH    H210355   1.210   9.986   2.046 -1.4263 -0.3648  0.1849
  182ACOH    H310356   1.108  10.026   2.183 -0.9930 -0.5245 -0.5788
  183ACOH    H410357   8.608   4.539   1.444  0.3205  1.2392  0.0931
  183ACOH    O210358   8.517   4.558   1.474  0.0088 -0.0598 -0.0047
  183ACOH    C210359   8.511   4.533   1.607  0.3484  0.4698  0.5665
  183ACOH    O110360   8.614   4.524   1.674  0.8390 -0.0503 -0.0416
  183ACOH    C110361   8.382   4.572   1.665  0.8570 -0.0434 -0.3959
  183ACOH    H110362   8.301   4.554   1.594 -1.1516 -2.0216  2.2928
  183ACOH    H210363   8.374   4.675   1.699  3.3099  0.1686 -0.3820
  183ACOH    H310364   8.358   4.502   1.745  1.8962 -0.4496 -0.4286
  184ACOH    H410365   3.596   0.953   0.447 -2.0997 -0.9251  2.8450
  184ACOH    O210366   3.642   1.024   0.494 -0.4394  0.4864 -0.6860
  184ACOH    C210367   3.607   1.141   0.438 -0.2663 -0.0870  0.0847
  184ACOH    O110368   3.502   1.168   0.382  0.1649 -0.0513 -0.2289
  184ACOH    C110369   3.692   1.253   0.486 -0.0531  0.2541 -0.9541
  184ACOH    H110370   3.643   1.293   0.575 -0.9511 -2.4421 -0.1811
  184ACOH    H210371   3.691   1.331   0.410 -0.0717 -0.5147 -1.7363
  184ACOH    H310372   3.787   1.212   0.518 -0.7999 -0.7815 -0.0110
  185ACOH    H410373   5.010   2.500   0.355  0.5787  1.7642  0.0502
  185ACOH    O210374   5.093   2.481   0.308  0.1765  0.4111 -0.1225
  185ACOH    C210375   5.085   2.569   0.202 -0.9125  0.5477  0.2767
  185ACOH    O110376   5.004   2.660   0.198  0.4724  0.1744  0.1745
  185ACOH    C110377   5.199   2.551   0.103  0.7801 -0.6862  0.0643
  185ACOH    H110378   5.216   2.640   0.042  1.0932 -0.1082  0.9955
  185ACOH    H210379   5.170   2.469   0.036  3.1021  0.5313 -2.5146
  185ACOH    H310380   5.287   2.521   0.159 -0.9839 -3.4715  1.5118
  186ACOH    H410381   5.035   4.438   0.805  0.7542  1.8777  1.6379
  186ACOH    O210382   5.108   4.440   0.741 -0.4486  0.1371  0.1512
  186ACOH    C210383   5.108   4.325   0.668  0.2435  0.2537 -0.4338
  186ACOH    O110384   5.046   4.218   0.679 -0.5051 -0.2448 -1.1272
  186ACOH    C110385   5.212   4.341   0.563  0.3234  0.0976  0.1055
  186ACOH    H110386   5.232   4.243   0.520 -0.7866  0.4730 -1.3054
  186ACOH    H210387   5.307   4.390   0.586  0.6212  0.5782 -1.9918
  186ACOH    H310388   5.152   4.399   0.493  0.8620 -0.7305 -1.0594
  187ACOH    H410389   7.489   9.105   0.001  1.5369 -2.5552  2.8682
  187ACOH    O210390   7.426   9.036  -0.026 -0.5178  0.0857  0.6186
  187ACOH    C210391   7.429   9.055  -0.160  0.8125  0.5576  0.1259
  187ACOH    O110392   7.421   9.165  -0.210 -0.0772 -0.1828  0.6628
  187ACOH    C110393   7.378   8.938  -0.239 -0.1729 -0.5010  0.2770
  187ACOH    H110394   7.437   8.923  -0.330 -1.0000 -2.9205  0.1124
  187ACOH    H210395   7.276   8.949  -0.274 -0.5318 -0.9921  1.1364
  187ACOH    H310396   7.378   8.847  -0.180 -1.0442  0.0701  1.1735
  188ACOH    H410397   4.380   0.626   1.897 -1.0273  2.3633 -2.1090
  188ACOH    O210398   4.474   0.641   1.875 -0.1233  0.3043  0.1898
  188ACOH    C210399   4.524   0.746   1.942  0.2212 -0.0311  0.4947
  188ACOH    O110400   4.466   0.818   2.021 -0.2074 -0.3500  0.0657
  188ACOH    C110401   4.663   0.766   1.903 -0.2881 -0.4085 -0.9505
  188ACOH    H110402   4.714   0.672   1.925  0.8001  0.4332  0.2057
  188ACOH    H210403   4.711   0.844   1.962  0.6450 -1.7711  0.1510
  188ACOH    H310404   4.668   0.798   1.799  1.4551 -0.5942 -0.9436
  189ACOH    H410405   7.714   8.445   2.578 -2.5382 -0.0763 -2.1120
  189ACOH    O210406   7.655   8.462   2.653 -0.0444 -0.1199 -0.0731
  189ACOH    C210407   7.664   8.593   2.671  0.3251 -0.0400 -0.1177
  189ACOH    O110408   7.705   8.677   2.592 -0.1365 -0.4325 -0.0041
  189ACOH    C110409   7.631   8.632   2.807  0.9028 -0.3395 -0.4404
  189ACOH    H110410   7.701   8.588   2.878  0.0827 -1.2595 -0.1751
  189ACOH    H210411   7.532   8.592   2.831 -0.8172  2.2923 -2.9231
  189ACOH    H310412   7.633   8.740   2.819 -1.6742 -0.2197 -0.7603
  190ACOH    H410413   3.282   7.816   0.974  1.5083  1.7125  1.3996
  190ACOH    O210414   3.347   7.743   0.971 -0.3959  0.0145 -0.0259
  190ACOH    C210415   3.437   7.785   0.886 -0.7625 -0.4849  0.5844
  190ACOH    O110416   3.458   7.900   0.863  0.1678 -0.0448  0.6467
  190ACOH    C110417   3.545   7.683   0.865  1.4993 -0.4251 -0.1558
  190ACOH    H110418   3.595   7.692   0.769  0.2543 -0.1503 -0.7987
  190ACOH    H210419   3.511   7.583   0.891  0.6963  0.6764  3.4204
  190ACOH    H310420   3.619   7.709   0.941 -1.3847  0.1509  2.6114
  191ACOH    H410421   8.147   2.216   1.489  0.4019 -1.4420  0.2547
  191ACOH    O210422   8.088   2.201   1.412  0.0114  0.1643  0.2144
  191ACOH    C210423   8.165   2.136   1.316  0.0370 -0.3175 -0.5397
  191ACOH    O110424   8.288   2.141   1.302  0.4212 -0.2394 -0.4506
  191ACOH    C110425   8.079   2.063   1.222  0.4286 -0.6541 -0.3013
  191ACOH    H110426   7.971   2.073   1.235  0.4237  0.0872 -0.8326
  191ACOH    H210427   8.106   1.958   1.212  3.7400 -0.0837  1.9050
  191ACOH    H310428   8.097   2.111   1.125  0.6841  1.4255  0.7524
  192ACOH    H410429   4.299   9.957   1.567  1.4912 -1.2130 -0.4043
  192ACOH    O210430   4.322   9.992   1.479  0.3936  0.1863 -0.1399
  192ACOH    C210431   4.256   9.908   1.398 -0.0233 -0.3991 -0.2132
  192ACOH    O110432   4.200   9.803   1.422 -0.5726  0.1177 -0.1315
  192ACOH    C110433   4.276   9.947   1.261 -0.3511  0.7489 -0.0595
  192ACOH    H110434   4.183   9.951   1.205 -0.3080 -1.1892 -0.3014
  192ACOH    H210435   4.345   9.874   1.218  2.1539  1.2151  2.9658
  192ACOH    H310436   4.329  10.041   1.247  3.0650 -0.8452  1.3992
  193ACOH    H410437   4.617   8.965   0.499 -2.0045  2.6912  1.0804
  193ACOH    O210438   4.676   8.996   0.570 -0.2156  0.2101  0.7460
  193ACOH    C210439   4.716   9.123   0.532  0.6332  0.4331  0.0014
  193ACOH    O110440   4.662   9.184   0.440 -0.7978 -0.1447  0.1038
  193ACOH    C110441   4.819   9.181   0.616  0.3518 -0.3622  0.0688
  193ACOH    H110442   4.881   9.100   0.653  0.6881  0.2817  0.9420
  193ACOH    H210443   4.753   9.229   0.688 -0.1519  1.3568 -1.5094
  193ACOH    H310444   4.869   9.256   0.555 -2.2004  0.7278 -0.7219
  194ACOH    H410445   3.363   5.265   1.816  2.0081 -0.0405 -0.3446
  194ACOH    O210446   3.379   5.249   1.722  0.2930  0.1933 -0.6932
  194ACOH    C210447   3.354   5.365   1.657  0.1487  0.3767  0.0793
  194ACOH    O110448   3.295   5.458   1.707 -0.2288  0.1594  0.3380
  194ACOH    C110449   3.379   5.360   1.506 -0.2166  0.2680 -0.3967
  194ACOH    H110450   3.304   5.299   1.454 -1.6250  0.9688  0.7687
  194ACOH    H210451   3.478   5.322   1.481 -0.2666 -0.5470  0.6275
  194ACOH    H310452   3.363   5.459   1.463  1.4067  0.7235  0.0358
  195ACOH    H410453   5.037   2.861   2.075 -0.2336 -2.7870 -2.1421
  195ACOH    O210454   5.021   2.802   2.151  0.3063 -0.2062  0.0374
  195ACOH    C210455   4.949   2.694   2.122  0.3477  0.7052 -0.5908
  195ACOH    O110456   4.858   2.703   2.045 -0.4727  0.0280 -0.2894
  195ACOH    C110457   4.936   2.595   2.230  0.1157  0.8749  0.1816
  195ACOH    H110458   4.839   2.622   2.271 -1.5112 -1.2971 -2.1270
  195ACOH    H210459   5.015   2.595   2.306 -0.6358 -0.0894  0.9702
  195ACOH    H310460   4.930   2.495   2.189  0.3756  0.2007  1.7694
  196ACOH    H410461   2.925   6.658   0.327 -1.1868 -1.0492 -0.4837
  196ACOH    O210462   2.996   6.644   0.262 -0.6595 -0.0697 -0.1330
  196ACOH    C210463   2.992   6.517   0.232 -0.0701  0.9106  0.2145
  196ACOH    O110464   2.896   6.442   0.247 -0.7989  0.2064  0.1174
  196ACOH    C110465   3.110   6.465   0.157 -0.2819  0.5823  0.1502
  196ACOH    H110466   3.088   6.387   0.084 -1.2338  0.5759  0.4310
  196ACOH    H210467   3.189   6.434   0.225 -0.0782  0.8822  0.0523
  196ACOH    H310468   3.148   6.549   0.098 -0.1401  0.3043 -0.1568
  197ACOH    H410469   3.073   5.774   0.621  0.5450  0.4679 -0.3243
  197ACOH    O210470   3.075   5.870   0.611  0.4998  0.4714 -0.2958
  197ACOH    C210471   3.161   5.932   0.693  0.2222  0.0913  0.0500
  197ACOH    O110472   3.246   5.875   0.755  0.5262 -0.1778  0.1781
  197ACOH    C110473   3.156   6.083   0.681  0.2967 -0.3731  0.4279
  197ACOH    H110474   3.250   6.119   0.638 -1.7516  1.9698 -2.3350
  197ACOH    H210475   3.140   6.128   0.779 -0.0363 -1.4721  0.8860
  197ACOH    H310476   3.079   6.115   0.611  0.2225 -0.7885  0.3208
  198ACOH    H410477   4.565   2.889   1.847 -0.4474  1.7890  1.6366
  198ACOH    O210478   4.553   2.922   1.757  0.0065 -0.1400  0.8264
  198ACOH    C210479   4.476   2.837   1.688  0.1848  0.4664  0.3560
  198ACOH    O110480   4.412   2.866   1.586  0.3874 -0.6931  0.2075
  198ACOH    C110481   4.426   2.715   1.766 -0.3517 -0.8398  0.6684
  198ACOH    H110482   4.518   2.657   1.776 -0.4334 -0.7719  1.8447
  198ACOH    H210483   4.350   2.669   1.703  0.0604  0.6286 -0.9452
  198ACOH    H310484   4.388   2.749   1.862 -1.5930  1.8077 -0.6820
  199ACOH    H410485   7.884   1.344   0.636 -0.3797  0.0393 -3.6003
  199ACOH    O210486   7.798   1.389   0.646 -0.1670 -0.3155  0.1713
  199ACOH    C210487   7.812   1.456   0.764 -0.3001 -0.2765 -0.8026
  199ACOH    O110488   7.881   1.442   0.862  0.6717 -0.1917 -0.7748
  199ACOH    C110489   7.688   1.538   0.771 -0.2620 -0.3079  0.2034
  199ACOH    H110490   7.618   1.478   0.828  0.4208 -1.3076  0.0021
  199ACOH    H210491   7.648   1.567   0.674 -2.3117  0.4599  1.2500
  199ACOH    H310492   7.714   1.634   0.817  1.1721 -0.2928 -0.5840
  200ACOH    H410493   4.755   4.372   0.512 -0.2185  1.5016  0.3998
  200ACOH    O210494   4.839   4.381   0.464 -0.3278  1.1035  0.1322
  200ACOH    C210495   4.805   4.422   0.339 -0.1710 -0.0525 -0.0165
  200ACOH    O110496   4.702   4.474   0.301 -0.2198  0.2414 -0.0719
  200ACOH    C110497   4.920   4.408   0.252  0.6315  0.1831  0.4492
  200ACOH    H110498   4.954   4.508   0.227  1.4413 -0.0692  0.5359
  200ACOH    H210499   4.885   4.361   0.160 -1.0320  1.1488  0.5646
  200ACOH    H310500   4.998   4.348   0.298  1.9203  0.4462 -1.3376
  201ACOH    H410501   4.661   4.509   2.339  0.5574  0.4295 -1.6422
  201ACOH    O210502   4.704   4.562   2.408 -0.0620 -0.4175 -0.5849
  201ACOH    C210503   4.596   4.599   2.480  0.3333 -0.7288 -0.5202
  201ACOH    O110504   4.474   4.595   2.452 -0.3999  0.1579  0.3372
  201ACOH    C110505   4.643   4.664   2.602  0.2167 -0.1255 -0.8761
  201ACOH    H110506   4.689   4.757   2.570 -3.1631  2.1706  0.6106
  201ACOH    H210507   4.718   4.600   2.649 -0.2569 -1.9988 -2.5888
  201ACOH    H310508   4.566   4.696   2.673 -0.5133  1.0186 -2.1793
  202ACOH    H410509   3.922   5.473   0.338  0.5717 -0.0807 -0.4206
  202ACOH    O210510   4.005   5.422   0.338  0.6378  0.0252 -0.0122
  202ACOH    C210511   4.096   5.514   0.359  0.2454  0.3917  0.0232
  202ACOH    O110512   4.079   5.631   0.377 -0.2296 -0.0789 -0.2034
  202ACOH    C110513   4.232   5.459   0.358 -0.7875 -0.8404 -0.2277
  202ACOH    H110514   4.257   5.460   0.252  0.1540  0.2882 -0.0099
  202ACOH    H210515   4.230   5.362   0.407 -2.8831 -1.3624 -1.2553
  202ACOH    H310516   4.303   5.521   0.413 -1.3179 -1.5410  1.2723
  203ACOH    H410517   2.450   0.245   1.965 -0.2832  0.2711  0.0879
  203ACOH    O210518   2.489   0.230   2.053  0.2621  0.8179 -0.0575
  203ACOH    C210519   2.490   0.095   2.064 -0.3224  0.4795 -0.0734
  203ACOH    O110520   2.441   0.009   1.995  0.6737 -0.1838  0.4466
  203ACOH    C110521   2.563   0.054   2.190  0.6935 -0.1375  0.0062
  203ACOH    H110522   2.499   0.079   2.274 -0.1243  2.6612 -1.3977
  203ACOH    H210523   2.655   0.112   2.193  1.7420 -1.6364 -1.7173
  203ACOH    H310524   2.584  -0.053   2.187 -1.7608 -0.6320 -0.5347
  204ACOH    H410525   4.374   4.921   1.414 -1.3639  0.8388  0.2537
  204ACOH    O210526   4.398   5.007   1.452  0.0461  0.6472 -0.1662
  204ACOH    C210527   4.457   5.075   1.360 -0.5448 -0.0771  0.3497
  204ACOH    O110528   4.427   5.066   1.242 -0.1183 -0.2713  0.1901
  204ACOH    C110529   4.521   5.192   1.417 -0.2119 -0.4312 -0.7017
  204ACOH    H110530   4.462   5.215   1.506 -0.7473  0.3294 -1.2517
  204ACOH    H210531   4.512   5.274   1.346  0.8572  0.2193 -0.0868
  204ACOH    H310532   4.623   5.172   1.448 -0.4267 -1.4825 -0.6377
  205ACOH    H410533   3.168   4.981   1.882  2.3262  1.7471  1.3708
  205ACOH    O210534   3.094   5.038   1.909 -0.4050 -1.0567  0.1077
  205ACOH    C210535   3.090   5.127   1.809  0.2247  0.0158  0.8145
  205ACOH    O110536   3.113   5.105   1.695  0.4016  0.2512  0.1279
  205ACOH    C110537   3.019   5.252   1.841 -0.5453  0.5581  0.5587
  205ACOH    H110538   2.916   5.231   1.810  0.6079 -0.5461 -2.7846
  205ACOH    H210539   3.059   5.335   1.783  1.0752  0.7916  1.9742
  205ACOH    H310540   3.030   5.269   1.948 -1.3998 -2.5216  1.1882
  206ACOH    H410541   4.425   3.669   1.580 -0.1176 -1.7240 -1.7778
  206ACOH    O210542   4.337   3.699   1.554 -0.3263 -0.3046  0.4473
  206ACOH    C210543   4.338   3.692   1.424  0.0158  0.8838  0.7119
  206ACOH    O110544   4.430   3.691   1.343 -0.0994 -0.0616 -0.3651
  206ACOH    C110545   4.203   3.708   1.377 -0.5480  0.0214  0.0630
  206ACOH    H110546   4.163   3.619   1.329  3.3778  1.3822 -6.3598
  206ACOH    H210547   4.202   3.785   1.300  0.7488  0.1671  0.1797
  206ACOH    H310548   4.135   3.747   1.453  0.3561  2.9840 -0.5939
  207ACOH    H410549   8.968   4.081   0.820  0.4738  0.1624 -1.3349
  207ACOH    O210550   8.886   4.074   0.769 -0.3509  0.3073 -0.0457
  207ACOH    C210551   8.795   4.019   0.856 -0.2322 -0.0784  0.2768
  207ACOH    O110552   8.813   4.003   0.976 -0.4253 -0.0533  0.3949
  207ACOH    C110553   8.669   4.026   0.785  0.5929  0.4686 -0.5604
  207ACOH    H110554   8.643   4.131   0.773  1.5437  1.0069  1.7181
  207ACOH    H210555   8.588   3.968   0.828  0.5001  0.9256 -0.1046
  207ACOH    H310556   8.690   3.985   0.687 -1.4175 -0.7685 -0.4895
  208ACOH    H410557   3.274   7.527   0.632 -1.3793 -0.8193 -0.8187
  208ACOH    O210558   3.226   7.491   0.709  0.5037  0.2645  0.8995
  208ACOH    C210559   3.156   7.577   0.778  0.8272 -0.3102  0.5100
  208ACOH    O110560   3.153   7.695   0.756  0.1892  0.2299  0.0328
  208ACOH    C110561   3.091   7.525   0.901 -0.0196  0.0358  0.0395
  208ACOH    H110562   3.011   7.596   0.922 -0.1049  0.6519 -2.2407
  208ACOH    H210563   3.165   7.535   0.981 -1.6619  0.9037  1.4656
  208ACOH    H310564   3.049   7.426   0.884 -1.5987  0.9284 -1.4412
  209ACOH    H410565   1.407   1.227   1.419 -2.6373 -0.1702  0.7769
  209ACOH    O210566   1.430   1.267   1.505  0.5836 -0.2976  0.0264
  209ACOH    C210567   1.557   1.302   1.488  0.2903 -0.7269  0.1500
  209ACOH    O110568   1.628   1.296   1.387 -0.0034 -0.1092  0.6265
  209ACOH    C110569   1.596   1.362   1.616 -0.3930  0.1839  0.6495
  209ACOH    H110570   1.602   1.298   1.704 -2.5226 -1.5242 -0.4125
  209ACOH    H210571   1.521   1.439   1.637 -1.5011 -0.9397  0.8621
  209ACOH    H310572   1.690   1.418   1.613  0.2251 -0.8929 -0.6252
  210ACOH    H410573   5.433   3.389   1.701 -0.3194  1.4653 -2.4489
  210ACOH    O210574   5.498   3.446   1.745 -0.5338  0.2954 -0.5755
  210ACOH    C210575   5.448   3.485   1.862  0.7102 -0.2489 -0.0329
  210ACOH    O110576   5.376   3.421   1.939  0.1893 -0.4252 -0.3489
  210ACOH    C110577   5.513   3.616   1.911 -0.2851 -0.1729 -0.1442
  210ACOH    H110578   5.597   3.635   1.844 -0.4794 -0.0500 -0.3533
  210ACOH    H210579   5.551   3.591   2.010 -0.8079  1.0208  0.3668
  210ACOH    H310580   5.437   3.693   1.922 -0.4422 -0.1626 -1.2140
  211ACOH    H410581   4.657   9.481   0.033  0.7605 -0.5187  0.6523
  211ACOH    O210582   4.727   9.482  -0.034 -0.2775 -0.0292 -0.4640
  211ACOH    C210583   4.768   9.358  -0.051 -0.2972  0.5321  0.0513
  211ACOH    O110584   4.717   9.254  -0.014 -0.5174 -0.8092 -0.0211
  211ACOH    C110585   4.886   9.352  -0.136  0.1800 -0.2018 -0.4798
  211ACOH    H110586   4.872   9.411  -0.226 -2.0637 -1.2080 -0.8004
  211ACOH    H210587   4.914   9.250  -0.163  4.3451  0.6270  0.2470
  211ACOH    H310588   4.970   9.393  -0.079  0.2173 -0.5478 -0.2853
  212ACOH    H410589   3.690   5.280   1.933 -2.2072  0.3509 -0.0251
  212ACOH    O210590   3.691   5.271   2.029 -0.5462 -0.3267 -0.0893
  212ACOH    C210591   3.811   5.205   2.044  0.2390 -0.0668 -0.8616
  212ACOH    O110592   3.908   5.207   1.970  0.0597  0.2371  0.7866
  212ACOH    C110593   3.833   5.183   2.189  0.4492  0.0703  0.1813
  212ACOH    H110594   3.940   5.189   2.209  0.8483  1.2539 -2.2105
  212ACOH    H210595   3.799   5.081   2.209 -0.1017  0.0989 -0.5769
  212ACOH    H310596   3.776   5.249   2.255 -1.0226 -0.2952 -0.6940
  213ACOH    H410597   5.225   3.870   0.543  4.3155 -0.5730 -1.6337
  213ACOH    O210598   5.258   3.919   0.621 -0.2010 -0.1277  0.1741
  213ACOH    C210599   5.374   3.850   0.650  0.5979 -0.0160 -0.7071
  213ACOH    O110600   5.401   3.743   0.601 -0.4740  0.9455  0.7494
  213ACOH    C110601   5.451   3.905   0.766 -0.1443  0.3422  0.3640
  213ACOH    H110602   5.514   3.987   0.732 -0.4606  0.4083 -0.0675
  213ACOH    H210603   5.520   3.826   0.796 -1.2928 -0.5719  0.6553
  213ACOH    H310604   5.391   3.934   0.851 -0.0799  0.5397  0.3427
  214ACOH    H410605   8.056   2.313   0.317 -0.9146 -0.8017  3.0036
  214ACOH    O210606   8.024   2.403   0.333 -0.1999  0.0781 -0.0230
  214ACOH    C210607   8.093   2.462   0.433 -0.3467  0.4357  0.8705
  214ACOH    O110608   8.157   2.416   0.525  0.3496  0.2226 -0.2108
  214ACOH    C110609   8.035   2.598   0.447  0.8221  0.2279 -0.2013
  214ACOH    H110610   8.049   2.669   0.366  0.0273  1.0006  0.3258
  214ACOH    H210611   8.070   2.638   0.542  1.2241  0.4226 -0.4307
  214ACOH    H310612   7.930   2.572   0.461  0.5450  0.5174 -1.7311
  215ACOH    H410613   4.100   8.200   0.854 -0.9248 -1.6495  0.9276
  215ACOH    O210614   4.183   8.154   0.836  0.0452  0.5630 -0.4360
  215ACOH    C210615   4.145   8.044   0.762 -0.6821 -0.3240 -0.4799
  215ACOH    O110616   4.033   8.000   0.737 -0.3045 -0.9982 -0.2918
  215ACOH    C110617   4.273   7.970   0.728 -0.1873 -0.5531  0.3344
  215ACOH    H110618   4.352   8.020   0.785  0.1141 -1.5202  0.7677
  215ACOH    H210619   4.300   7.971   0.623  0.1839 -3.6392  0.3636
  215ACOH    H310620   4.266   7.867   0.762  1.1878  0.1384  2.9259
  216ACOH    H410621   1.259   3.898   1.890 -0.4766 -0.0698 -2.7664
  216ACOH    O210622   1.205   3.819   1.907  0.3842 -0.0756  0.2607
  216ACOH    C210623   1.222   3.800   2.043  0.4613  0.4300 -0.5561
  216ACOH    O110624   1.282   3.866   2.128  0.1036 -0.1580  0.4616
  216ACOH    C110625   1.134   3.687   2.084  0.6250  0.0214  0.1915
  216ACOH    H110626   1.153   3.662   2.188  2.3148  0.5666  0.0380
  216ACOH    H210627   1.151   3.596   2.027  0.3091 -0.0997  0.2920
  216ACOH    H310628   1.030   3.719   2.086  0.0014 -1.9605  3.3160
  217ACOH    H410629   9.083   3.151   2.509  1.3349  0.8114 -0.8337
  217ACOH    O210630   9.070   3.187   2.598 -0.9160 -0.1069 -0.7575
  217ACOH    C210631   8.964   3.122   2.652 -0.3997  0.3989  0.7243
  217ACOH    O110632   8.909   3.025   2.600 -0.9185  0.4286  0.6288
  217ACOH    C110633   8.915   3.165   2.782  0.4744 -0.8065  0.3439
  217ACOH    H110634   8.814   3.201   2.765  0.6631  0.4256  1.7841
  217ACOH    H210635   8.981   3.235   2.833  1.2861 -2.1270  1.1459
  217ACOH    H310636   8.898   3.075   2.841  0.3362  0.0265  1.5875
  218ACOH    H410637   1.575   3.709   1.544 -0.2789 -1.3129  0.1810
  218ACOH    O210638   1.607   3.703   1.636 -0.7118 -0.2742  0.4056
  218ACOH    C210639   1.558   3.821   1.682  0.4098 -1.1294 -0.7642
  218ACOH    O110640   1.487   3.902   1.630  0.1295  0.5233  0.6795
  218ACOH    C110641   1.628   3.862   1.803  0.1693 -0.3192  0.1064
  218ACOH    H110642   1.709   3.792   1.821  0.7852  0.3686  0.0395
  218ACOH    H210643   1.568   3.865   1.894  0.0667  1.5336  0.0012
  218ACOH    H310644   1.668   3.963   1.791  0.7069 -0.6182 -0.6820
  219ACOH    H410645   2.709   0.607   2.196 -1.4398  1.9212 -0.7260
  219ACOH    O210646   2.740   0.680   2.252  0.5180  0.4105  0.1988
  219ACOH    C210647   2.849   0.729   2.203 -0.5510 -0.2335 -0.2656
  219ACOH    O110648   2.913   0.692   2.105 -0.5623 -0.1768 -0.7364
  219ACOH    C110649   2.875   0.865   2.262 -0.4934  0.5009 -0.2816
  219ACOH    H110650   2.930   0.856   2.356 -1.5342  1.5729  0.4464
  219ACOH    H210651   2.783   0.919   2.284 -0.0800  1.0794  0.0372
  219ACOH    H310652   2.932   0.932   2.198  1.2634 -1.0477 -0.4139
  220ACOH    H410653   4.363   9.758   1.987 -1.0608 -0.3217  1.0452
  220ACOH    O210654   4.442   9.787   2.036  0.3212 -0.5365 -0.9818
  220ACOH    C210655   4.498   9.676   2.089 -0.7966  0.2828 -0.3491
  220ACOH    O110656   4.462   9.560   2.074  0.1133 -0.0324 -0.3762
  220ACOH    C110657   4.630   9.706   2.153  0.5467 -0.0630 -0.6511
  220ACOH    H110658   4.632   9.659   2.252 -2.4114 -1.2891 -1.1206
  220ACOH    H210659   4.638   9.812   2.175  1.0674 -0.3559  0.6185
  220ACOH    H310660   4.711   9.676   2.086  0.6248 -1.9228  0.2306
  221ACOH    H410661   9.542   0.742   1.120 -0.2231 -2.0046 -2.2763
  221ACOH    O210662   9.496   0.823   1.093  0.4932 -0.9906 -0.6018
  221ACOH    C210663   9.454   0.795   0.967  0.2441  0.8706 -1.0479
  221ACOH    O110664   9.508   0.722   0.893 -0.3932 -0.2604  0.2198
  221ACOH    C110665   9.344   0.885   0.928  0.2470 -0.7469  0.1454
  221ACOH    H110666   9.374   0.986   0.958  1.4063 -1.8342  2.8264
  221ACOH    H210667   9.258   0.861   0.989 -1.3607  0.2068 -1.6926
  221ACOH    H310668   9.318   0.893   0.823 -2.9113  1.0849  1.0060
  222ACOH    H410669   7.669   1.430   0.449  1.3084  3.5500  2.8010
  222ACOH    O210670   7.583   1.422   0.493  0.1112  0.0830  0.1247
  222ACOH    C210671   7.536   1.296   0.484  0.6989 -0.0096  0.4353
  222ACOH    O110672   7.610   1.198   0.478  0.4221  0.0242  0.2758
  222ACOH    C110673   7.392   1.288   0.524  0.4448 -0.4666 -0.2581
  222ACOH    H110674   7.385   1.344   0.617  1.6516  1.8085 -1.5024
  222ACOH    H210675   7.348   1.188   0.537 -0.7463  0.2846  1.7493
  222ACOH    H310676   7.342   1.352   0.452 -0.2354 -0.0280  0.5991
  223ACOH    H410677   2.180   4.835   1.641 -0.3677  1.1418 -0.2173
  223ACOH    O210678   2.249   4.885   1.689  0.0354  0.2547  0.1343
  223ACOH    C210679   2.197   4.994   1.740  0.0687 -0.3880  0.3507
  223ACOH    O110680   2.076   5.020   1.733 -0.7339 -0.4437 -0.8863
  223ACOH    C110681   2.297   5.063   1.824  0.2880  0.3182  0.0306
  223ACOH    H110682   2.291   5.015   1.922  0.3613  0.9618  0.3520
  223ACOH    H210683   2.277   5.170   1.822  0.9833  0.4460 -0.9613
  223ACOH    H310684   2.396   5.050   1.779  0.3680  1.7984 -0.2518
  224ACOH    H410685   8.604   4.799   2.033  1.1915 -1.4740  1.7673
  224ACOH    O210686   8.569   4.842   2.113 -0.0821  0.0036  0.4573
  224ACOH    C210687   8.545   4.749   2.207 -0.0269 -0.3586  0.1275
  224ACOH    O110688   8.603   4.644   2.210 -0.5205  0.0968 -0.5872
  224ACOH    C110689   8.475   4.801   2.329  0.1133  0.2537  0.1363
  224ACOH    H110690   8.376   4.831   2.294  0.1976 -0.0042 -0.3290
  224ACOH    H210691   8.523   4.894   2.358 -0.8682  1.3663 -1.7211
  224ACOH    H310692   8.472   4.732   2.413 -0.6737  0.3806  0.2242
  225ACOH    H410693   8.674   6.622   1.000 -1.4288 -2.4433  0.5210
  225ACOH    O210694   8.599   6.679   1.023  0.3608  0.4248 -0.4889
  225ACOH    C210695   8.637   6.778   1.102 -0.8580 -0.0543  0.0116
  225ACOH    O110696   8.739   6.784   1.168  0.0071  0.0752 -0.4695
  225ACOH    C110697   8.530   6.870   1.128 -0.0204  0.0722  0.6320
  225ACOH    H110698   8.557   6.968   1.088  1.2533 -0.5569 -0.0721
  225ACOH    H210699   8.507   6.872   1.234 -2.7016 -1.4404  0.1244
  225ACOH    H310700   8.439   6.834   1.080 -0.7914  1.0381  1.3487
  226ACOH    H410701   4.261   4.572   1.974  1.2297  2.2374  0.8215
  226ACOH    O210702   4.188   4.631   1.996 -0.5134  0.4212  0.0205
  226ACOH    C210703   4.115   4.578   2.097 -0.1204 -0.2573 -0.8920
  226ACOH    O110704   4.094   4.459   2.124  0.1260  0.1672  0.3850
  226ACOH    C110705   4.042   4.687   2.174  0.2281  0.6838 -0.0021
  226ACOH    H110706   4.103   4.777   2.167 -0.3596  1.0255 -0.9121
  226ACOH    H210707   4.023   4.659   2.277 -1.0081  1.2035 -0.0816
  226ACOH    H310708   3.958   4.712   2.109  0.7448  0.2013 -0.8774
  227ACOH    H410709   7.383   0.209   0.605 -0.7322 -0.1946  0.9299
  227ACOH    O210710   7.306   0.189   0.549 -0.2634  0.1295  0.1719
  227ACOH    C210711   7.204   0.183   0.632 -0.5333  1.2643  0.2568
  227ACOH    O110712   7.194   0.226   0.742  0.6204 -0.2770  0.0678
  227ACOH    C110713   7.093   0.127   0.549  0.4457  0.1466 -0.2907
  227ACOH    H110714   7.002   0.174   0.586 -0.1107  0.3875 -1.9296
  227ACOH    H210715   7.085   0.019   0.553  0.0054  0.2081  0.5851
  227ACOH    H310716   7.107   0.157   0.445 -1.8768 -0.7502 -0.8900
  228ACOH    H410717   5.064   8.492   1.098  3.0405  1.1516  1.3880
  228ACOH    O210718   5.063   8.587   1.077 -0.1261  0.7647 -0.5367
  228ACOH    C210719   5.048   8.597   0.944  0.5434  0.6657  0.0616
  228ACOH    O110720   5.031   8.503   0.871 -0.1878 -0.0525 -0.0204
  228ACOH    C110721   5.027   8.736   0.908  0.0795  0.3881 -0.0637
  228ACOH    H110722   5.122   8.790   0.916 -0.2402  0.7076  1.8755
  228ACOH    H210723   4.950   8.778   0.973  0.6236  0.9978  0.1941
  228ACOH    H310724   4.999   8.748   0.803  1.4955  2.1438 -0.2730
  229ACOH    H410725   8.733   4.695   0.404  0.0015  0.2323  0.6657
  229ACOH    O210726   8.642   4.692   0.440 -0.2718 -0.1597 -0.0434
  229ACOH    C210727   8.630   4.800   0.517  0.4345 -0.2261 -0.5138
  229ACOH    O110728   8.720   4.879   0.537 -1.1957  0.4147  0.4061
  229ACOH    C110729   8.495   4.823   0.566  0.4543 -0.2365  0.0165
  229ACOH    H110730   8.458   4.918   0.528 -0.6687 -0.2913  0.9101
  229ACOH    H210731   8.496   4.822   0.675  1.1486  0.5387  0.0191
  229ACOH    H310732   8.432   4.747   0.519  0.4218 -0.9090  1.1334
  230ACOH    H410733   1.159   2.885   1.786  0.3105 -0.7427 -3.5502
  230ACOH    O210734   1.251   2.914   1.770  0.6672  0.2874 -0.1770
  230ACOH    C210735   1.309   2.824   1.687  0.0938  0.0836  0.1560
  230ACOH    O110736   1.252   2.724   1.647 -0.3757 -0.0846  0.1831
  230ACOH    C110737   1.445   2.863   1.642 -0.2130  0.5212  0.1679
  230ACOH    H110738   1.435   2.878   1.535 -0.2717  1.5772  0.3156
  230ACOH    H210739   1.508   2.776   1.656 -0.2692  0.6753  1.4220
  230ACOH    H310740   1.491   2.952   1.686 -0.8226  1.7190 -1.5345
  231ACOH    H410741   5.194   3.717   1.718  3.1254  0.9074  1.6734
  231ACOH    O210742   5.249   3.653   1.670  0.4213 -0.2116 -0.0345
  231ACOH    C210743   5.199   3.657   1.546 -0.2326  0.2295  0.2979
  231ACOH    O110744   5.094   3.716   1.513 -0.3953  0.5281 -0.1867
  231ACOH    C110745   5.265   3.566   1.460 -0.6774  0.7018  0.1822
  231ACOH    H110746   5.296   3.610   1.366  1.5643  0.4151  0.7729
  231ACOH    H210747   5.195   3.487   1.432 -1.7318  1.2812  1.1181
  231ACOH    H310748   5.347   3.513   1.508 -0.6131  0.7894  0.1697
  232ACOH    H410749   4.612   2.147   2.456  0.4152  0.0706 -0.7670
  232ACOH    O210750   4.700   2.171   2.488  0.1405  0.8649 -0.5965
  232ACOH    C210751   4.681   2.265   2.588 -0.0828  0.4411  0.8268
  232ACOH    O110752   4.580   2.314   2.630  0.1799  0.3937  0.1701
  232ACOH    C110753   4.819   2.306   2.628  0.2948  0.3285 -0.2948
  232ACOH    H110754   4.816   2.382   2.706  2.2688  2.1764 -1.9536
  232ACOH    H210755   4.874   2.349   2.545  0.5061  0.3905 -0.1237
  232ACOH    H310756   4.878   2.220   2.659 -0.3573 -1.5325 -3.9602
  233ACOH    H410757   9.127   0.975   0.140 -0.3181  0.5150 -0.0941
  233ACOH    O210758   9.221   0.957   0.159 -0.4586 -0.5215 -0.3608
  233ACOH    C210759   9.228   0.823   0.162 -0.7334 -0.0987  0.8417
  233ACOH    O110760   9.169   0.743   0.093  0.3409  0.2997  0.3666
  233ACOH    C110761   9.354   0.791   0.231 -0.4905  0.4657 -0.2664
  233ACOH    H110762   9.330   0.786   0.338 -1.4616 -1.7683 -0.5509
  233ACOH    H210763   9.440   0.857   0.224  0.3693 -0.6199 -0.1795
  233ACOH    H310764   9.377   0.689   0.201  1.1502  0.1633  1.8996
  234ACOH    H410765   2.896   6.696   0.889  1.6192  0.7113  0.1397
  234ACOH    O210766   2.925   6.633   0.821 -0.7262 -1.0055  0.6591
  234ACOH    C210767   2.882   6.511   0.858 -0.3102 -0.4019 -0.0301
  234ACOH    O110768   2.802   6.486   0.945 -0.2723 -0.4191  0.2478
  234ACOH    C110769   2.927   6.410   0.757 -0.0903 -0.0324  1.1706
  234ACOH    H110770   2.883   6.439   0.662 -0.6231 -0.9789  1.1188
  234ACOH    H210771   2.878   6.314   0.774  1.9936 -1.4287 -0.3760
  234ACOH    H310772   3.036   6.402   0.746 -0.2431 -0.1050 -0.4367
  235ACOH    H410773   9.094   5.829   0.201  0.6202 -0.7565  1.5950
  235ACOH    O210774   8.998   5.829   0.216  0.4475  0.1113  0.5918
  235ACOH    C210775   8.978   5.786   0.345 -0.0135  0.5146  0.5148
  235ACOH    O110776   9.051   5.822   0.433  0.0367  0.3943 -0.6034
  235ACOH    C110777   8.855   5.709   0.373  0.3925  0.5066  0.1364
  235ACOH    H110778   8.816   5.723   0.474  2.6808  1.2803  0.9195
  235ACOH    H210779   8.855   5.600   0.364  1.8571  0.5870 -0.9716
  235ACOH    H310780   8.780   5.744   0.302  0.0268  0.7889  0.6569
  236ACOH    H410781   4.572   4.900   1.001  0.6765 -0.7698  0.3802
  236ACOH    O210782   4.660   4.914   1.040  0.6840 -0.2428  0.1762
  236ACOH    C210783   4.690   4.837   1.144  0.7635  0.6304 -0.1389
  236ACOH    O110784   4.629   4.733   1.174 -0.1431  0.4565 -0.1353
  236ACOH    C110785   4.798   4.896   1.221 -0.5876  0.3631 -0.0142
  236ACOH    H110786   4.845   4.979   1.168 -2.0193 -0.1342 -2.1307
  236ACOH    H210787   4.870   4.816   1.236 -1.0957 -0.2171 -0.6280
  236ACOH    H310788   4.769   4.933   1.319  0.9382  1.5834 -0.0000
  237ACOH    H410789   5.630   3.869   0.467 -0.7712 -2.1184  2.0888
  237ACOH    O210790   5.704   3.888   0.528  0.1694 -0.2744  0.4237
  237ACOH    C210791   5.728   4.024   0.525 -0.3612 -0.2073  0.4998
  237ACOH    O110792   5.652   4.106   0.473 -0.1450  0.0689  0.6946
  237ACOH    C110793   5.841   4.066   0.617 -0.4888  0.8596  0.0602
  237ACOH    H110794   5.931   4.007   0.602 -2.3457 -1.9499 -0.5831
  237ACOH    H210795   5.801   4.040   0.715 -2.7606 -0.5264 -1.1734
  237ACOH    H310796   5.860   4.173   0.623  2.3327  0.4465 -0.7475
  238ACOH    H410797   2.241   3.962   0.248  0.3706  0.8321  0.4220
  238ACOH    O210798   2.161   3.981   0.197  0.2778 -0.0752  0.2240
  238ACOH    C210799   2.180   3.918   0.081  0.3954  0.2762 -0.2346
  238ACOH    O110800   2.269   3.847   0.043 -0.4640 -0.2004 -0.2050
  238ACOH    C110801   2.070   3.954  -0.008 -0.3200  0.2924 -0.4771
  238ACOH    H110802   2.048   3.895  -0.097  2.8704 -1.3366 -0.2504
  238ACOH    H210803   2.081   4.056  -0.046  2.4822 -0.9581 -3.1390
  238ACOH    H310804   1.976   3.947   0.047 -0.9621 -3.3222 -1.9164
  239ACOH    H410805   4.116   8.451   0.655 -0.0286  1.2203  0.3214
  239ACOH    O210806   4.183   8.428   0.721 -0.2806  0.3481  0.2688
  239ACOH    C210807   4.170   8.520   0.821 -0.6893 -0.1608  0.8743
  239ACOH    O110808   4.149   8.634   0.798  0.6155 -0.3874 -0.0529
  239ACOH    C110809   4.238   8.475   0.943 -0.2589 -0.3246 -0.2846
  239ACOH    H110810   4.334   8.427   0.921 -0.0630  0.2670 -0.7015
  239ACOH    H210811   4.176   8.408   1.004 -1.1379  0.9934  0.2863
  239ACOH    H310812   4.256   8.565   1.001 -0.1360 -0.5107 -0.0309
  240ACOH    H410813   4.619   1.714   0.605  0.0982  0.1730 -0.2217
  240ACOH    O210814   4.662   1.755   0.528  0.0645  0.5370 -0.0508
  240ACOH    C210815   4.598   1.871   0.490 -0.1284  0.0267 -0.0337
  240ACOH    O110816   4.554   1.948   0.571 -0.1644  0.1887  0.2611
  240ACOH    C110817   4.626   1.899   0.348  0.2398 -0.2219  0.5872
  240ACOH    H110818   4.553   1.858   0.277  0.4965 -1.1190  0.8357
  240ACOH    H210819   4.719   1.848   0.325  0.4520  1.1187 -1.5914
  240ACOH    H310820   4.628   2.006   0.332  1.2833 -0.3022  0.1666
  241ACOH    H410821   3.594   7.559   0.222 -0.0801 -0.1175  0.2661
  241ACOH    O210822   3.522   7.531   0.164  0.1464 -0.0386 -0.0573
  241ACOH    C210823   3.549   7.524   0.030  0.5630  0.2404 -0.4182
  241ACOH    O110824   3.649   7.562  -0.025  0.0551  0.7890  0.0519
  241ACOH    C110825   3.429   7.472  -0.049 -0.3209 -0.0444 -0.8630
  241ACOH    H110826   3.460   7.369  -0.064  0.5745 -0.0957  1.0771
  241ACOH    H210827   3.406   7.528  -0.139 -0.5396  1.2067 -0.0487
  241ACOH    H310828   3.343   7.481   0.017  0.6180 -1.6685  0.6326
  242SOL     OW10829   2.924   4.335   2.482  0.3791 -0.5066  0.3284
  242SOL    HW110830   2.954   4.282   2.403 -1.4094 -0.5835 -0.3320
  242SOL    HW210831   2.913   4.275   2.561  0.1500 -0.8072  0.0704
  243SOL     OW10832   2.096   9.772   1.742 -0.6340 -0.0028  0.4426
  243SOL    HW110833   2.055   9.681   1.750 -0.2019 -0.0333  2.4090
  243SOL    HW210834   2.188   9.764   1.704 -1.3312 -0.1886 -1.2600
  244SOL     OW10835   1.380   5.920   0.404  0.1237 -0.0519 -0.1443
  244SOL    HW110836   1.306   5.859   0.432  0.9289 -0.9878 -0.0174
  244SOL    HW210837   1.348   6.015   0.404 -1.0428 -0.4462 -0.0142
  245SOL     OW10838   1.833   8.596   1.700 -0.0116 -0.6855  0.2089
  245SOL    HW110839   1.742   8.562   1.679 -1.2133  1.1863  2.1389
  245SOL    HW210840   1.883   8.613   1.615 -0.9711 -2.9674 -0.8428
  246SOL     OW10841   0.460   3.994   0.296 -0.0358 -0.1502 -0.0892
  246SOL    HW110842   0.419   4.067   0.351 -0.0139 -0.1917 -0.0173
  246SOL    HW210843   0.559   4.007   0.294 -0.2079  1.0294 -1.8090
  247SOL     OW10844   1.641   9.502   1.042 -0.2552  0.3554 -0.2645
  247SOL    HW110845   1.614   9.406   1.045  1.0056 -0.0215 -0.3807
  247SOL    HW210846   1.591   9.554   1.111 -2.3135 -0.0099 -1.4356
  248SOL     OW10847   1.036   4.211   1.424 -0.0472  0.3537  0.0701
  248SOL    HW110848   1.018   4.142   1.355 -1.2533 -0.0175  0.7520
  248SOL    HW210849   1.090   4.285   1.383 -2.8390  1.3512 -1.9513
  249SOL     OW10850   0.416   0.837   0.209 -0.4575  0.1804  1.3505
  249SOL    HW110851   0.454   0.929   0.222  1.3484 -0.2526 -0.5581
  249SOL    HW210852   0.486   0.769   0.228 -1.4019 -0.7675  1.4572
  250SOL     OW10853   1.987   4.267   1.006  0.0740  0.3715  0.0640
  250SOL    HW110854   1.959   4.234   1.096  0.1883 -2.8195 -0.9975
  250SOL    HW210855   1.973   4.194   0.939  1.6884  2.0906 -2.1836
  251SOL     OW10856   2.843   6.247   0.029 -0.0142 -0.2705  0.3172
  251SOL    HW110857   2.920   6.232  -0.033 -0.3828  2.9824 -1.0141
  251SOL    HW210858   2.872   6.304   0.106 -0.7764 -0.1828  0.5496
  252SOL     OW10859   3.334   0.599   1.334  0.5076  0.1553  0.2317
  252SOL    HW110860   3.266   0.559   1.273 -0.2423  0.2205  1.0179
  252SOL    HW210861   3.426   0.577   1.300  0.1173 -1.8307  0.3867
  253SOL     OW10862   9.974   8.319   0.050  0.0093 -0.2178 -0.6873
  253SOL    HW110863   9.977   8.401   0.106  0.8424 -0.5449 -0.2517
  253SOL    HW210864  10.063   8.274   0.050 -1.2170 -2.8513  1.6657
  254SOL     OW10865   2.402   9.869   1.345 -0.0506  0.1490  0.5164
  254SOL    HW110866   2.431   9.842   1.437 -2.1155 -3.0663  0.3221
  254SOL    HW210867   2.352   9.955   1.350  1.3172  0.8770  2.1471
  255SOL     OW10868   3.464   5.402   2.322 -0.0770  0.0456 -0.0731
  255SOL    HW110869   3.503   5.421   2.413 -0.4616 -0.3485  0.1709
  255SOL    HW210870   3.503   5.467   2.256  0.3910  0.1748  0.3240
  256SOL     OW10871   9.255   4.194   1.530 -0.0273  0.3248  0.1904
  256SOL    HW110872   9.239   4.187   1.629  0.5279  0.2174  0.2759
  256SOL    HW210873   9.202   4.124   1.483  0.7218 -0.4692  0.5261
  257SOL     OW10874   9.575   1.757   1.794  0.1942  0.1194 -0.0127
  257SOL    HW110875   9.506   1.686   1.778 -0.4909  0.7370  0.1290
  257SOL    HW210876   9.533   1.831   1.847  0.8685  0.6822 -0.2659
  258SOL     OW10877   9.668   6.142   1.358 -0.0967 -0.5161  0.0641
  258SOL    HW110878   9.596   6.199   1.397  1.3036  1.6365 -0.3929
  258SOL    HW210879   9.757   6.175   1.391  0.7885 -1.8929 -0.9123
  259SOL     OW10880   2.206   6.875   2.565 -0.5925  0.1090 -0.2162
  259SOL    HW110881   2.172   6.851   2.474 -0.3249 -1.2951  0.0424
  259SOL    HW210882   2.306   6.874   2.566 -0.5874 -1.1920  0.4011
  260SOL     OW10883   1.671   7.830   0.627 -0.3007  0.1146 -0.4089
  260SOL    HW110884   1.591   7.770   0.614  0.5615 -1.4571  1.2161
  260SOL    HW210885   1.650   7.898   0.697 -0.4687  0.1795 -0.5221
  261SOL     OW10886   3.378   3.241   1.952  0.1295 -0.1328  0.2306
  261SOL    HW110887   3.449   3.305   1.981  1.6901 -2.2445  1.1877
  261SOL    HW210888   3.386   3.156   2.004 -2.3325 -0.8741 -0.5332
  262SOL     OW10889   0.239   0.146   2.152 -0.3899 -0.3284  0.1159
  262SOL    HW110890   0.258   0.211   2.226  1.1623 -0.4628 -0.1479
  262SOL    HW210891   0.186   0.069   2.187 -0.8963  0.3076  0.7658
  263SOL     OW10892   0.248   6.844   1.876  0.3681  0.5066  0.1667
  263SOL    HW110893   0.324   6.817   1.934  0.0488 -1.6350 -0.3702
  263SOL    HW210894   0.196   6.917   1.921  2.0116  1.1211  1.0778
  264SOL     OW10895   1.060   0.219   0.440  0.3800 -0.5950  0.6952
  264SOL    HW110896   1.053   0.144   0.374 -1.0923 -1.6173  1.9719
  264SOL    HW210897   0.976   0.273   0.437  0.9110  0.2248  0.6902
  265SOL     OW10898   9.380   1.279   2.149 -0.1695 -0.1020 -0.1745
  265SOL    HW110899   9.281   1.269   2.152 -0.0511 -1.1545  1.9922
  265SOL    HW210900   9.414   1.295   2.242  1.6467  0.7111 -0.9554
  266SOL     OW10901   2.464   2.732   1.008  0.5878  0.0535  0.2685
  266SOL    HW110902   2.409   2.665   0.958  2.9042 -0.3981 -1.7875
  266SOL    HW210903   2.519   2.686   1.077  0.6562  0.0875  0.2378
  267SOL     OW10904   0.033   9.347   0.960  0.2758 -0.0964 -0.0561
  267SOL    HW110905   0.003   9.427   1.012 -0.4044  0.4878 -1.3077
  267SOL    HW210906  -0.047   9.300   0.923  0.5911 -2.1824  1.8338
  268SOL     OW10907   8.637   8.245   1.435  0.7405 -0.0213 -0.1556
  268SOL    HW110908   8.667   8.151   1.418 -0.2958 -0.6803  1.5558
  268SOL    HW210909   8.612   8.255   1.531  0.3093  1.8737 -0.4431
  269SOL     OW10910   0.645   3.638   1.069  0.6230  0.1287 -0.3221
  269SOL    HW110911   0.743   3.652   1.062  0.2922  2.0576 -1.6129
  269SOL    HW210912   0.613   3.588   0.988  0.5598 -0.5566  0.1286
  270SOL     OW10913   0.345   8.486   0.639  0.3699 -0.1150 -0.4171
  270SOL    HW110914   0.383   8.579   0.644  1.7236 -0.7223  1.6460
  270SOL    HW210915   0.391   8.435   0.566  1.5177  0.0574  0.1582
  271SOL     OW10916   9.118   6.125   1.198  0.4898  0.2403 -0.2577
  271SOL    HW110917   9.064   6.195   1.150  2.4022  0.0319 -2.8653
  271SOL    HW210918   9.198   6.168   1.240 -0.2526  0.1483  1.2566
  272SOL     OW10919   4.061   0.259   2.099  0.1408  0.1962 -0.0788
  272SOL    HW110920   4.128   0.233   2.030 -0.3881  0.2971 -0.6399
  272SOL    HW210921   4.074   0.355   2.123  1.0238 -0.1355  0.7635
  273SOL     OW10922   2.481   2.600   2.062  0.0476 -0.8623 -0.4772
  273SOL    HW110923   2.543   2.617   2.138 -0.5658 -1.8645  0.2700
  273SOL    HW210924   2.471   2.501   2.049 -2.8795 -0.7680  0.6835
  274SOL     OW10925   2.399   6.139   1.105 -0.3078  0.0450 -0.1503
  274SOL    HW110926   2.381   6.217   1.045  1.9429  0.3014 -0.5284
  274SOL    HW210927   2.497   6.133   1.123 -0.7553 -1.0978  2.0664
  275SOL     OW10928   8.936   8.491   0.721 -0.1717  0.4662  0.1371
  275SOL    HW110929   8.954   8.407   0.772  2.7312  1.7527  1.3573
  275SOL    HW210930   8.916   8.565   0.785  0.2022  1.3565 -0.7599
  276SOL     OW10931   9.115   3.064   2.369  0.0577 -0.1592  0.0836
  276SOL    HW110932   9.060   3.040   2.289 -0.8621 -0.9464  0.9378
  276SOL    HW210933   9.158   2.982   2.406  0.0227  0.1126  0.7387
  277SOL     OW10934   8.833   2.420   1.446  0.7375 -0.7446 -0.6853
  277SOL    HW110935   8.896   2.371   1.505  0.6710 -1.4210 -1.1679
  277SOL    HW210936   8.755   2.362   1.425 -0.7438  0.5483  1.0212
  278SOL     OW10937   2.793   9.984   0.991 -0.0382 -0.1052 -0.0676
  278SOL    HW110938   2.743   9.903   0.962 -0.1799 -0.0466  0.0130
  278SOL    HW210939   2.775  10.002   1.088  0.8863 -0.6245  0.2056
  279SOL     OW10940   2.163   4.163   0.753 -0.4133  0.7120 -0.2002
  279SOL    HW110941   2.145   4.076   0.708 -0.3578  1.1878 -1.1471
  279SOL    HW210942   2.148   4.238   0.689 -0.8329  1.4290  0.7131
  280SOL     OW10943   1.116   0.302   2.336  0.1142 -0.1126 -0.2330
  280SOL    HW110944   1.072   0.334   2.420  0.4588 -1.0536  0.3110
  280SOL    HW210945   1.175   0.224   2.357  0.8161  0.1503 -1.2228
  281SOL     OW10946   8.087   8.092   0.821 -0.5777  0.3910 -0.0601
  281SOL    HW110947   8.180   8.120   0.845  1.0725 -2.6465 -2.5212
  281SOL    HW210948   8.065   8.123   0.729 -1.2233 -0.6038 -0.2546
  282SOL     OW10949   3.996   5.095   0.255 -0.0467 -0.7491  0.1176
  282SOL    HW110950   3.982   5.194   0.259  2.5447 -0.2949 -0.9303
  282SOL    HW210951   3.923   5.053   0.201  0.4130  0.9825 -1.9033
  283SOL     OW10952   8.048   9.226   0.950 -0.6825 -0.2154  0.6429
  283SOL    HW110953   7.966   9.170   0.938 -0.3156 -0.6691  0.2164
  283SOL    HW210954   8.095   9.236   0.862 -0.4162  0.2536  0.8350
  284SOL     OW10955   3.648   9.023   2.422  0.3159  0.3917  0.5240
  284SOL    HW110956   3.555   9.046   2.393  0.2331 -3.2497 -2.5663
  284SOL    HW210957   3.708   9.100   2.401 -1.1018  0.7345 -2.7254
  285SOL     OW10958   1.441   3.359   0.278 -0.0186  0.1508 -0.0467
  285SOL    HW110959   1.463   3.335   0.184 -1.2955  0.2510 -0.3841
  285SOL    HW210960   1.436   3.459   0.287  1.4958  0.1829  0.4570
  286SOL     OW10961   9.088   4.397   0.735 -0.1919 -0.0604 -0.4680
  286SOL    HW110962   8.989   4.408   0.727 -0.3388 -1.6127 -0.9667
  286SOL    HW210963   9.124   4.467   0.796 -1.4242  1.2868 -1.2471
  287SOL     OW10964   0.166   0.672   1.267 -0.5921  0.3012 -0.2517
  287SOL    HW110965   0.083   0.643   1.220  1.0188  0.5530 -3.3539
  287SOL    HW210966   0.177   0.771   1.258  0.0539  0.2682  0.1259
  288SOL     OW10967   1.899   0.023   2.331 -0.1540  0.3449  0.1848
  288SOL    HW110968   1.951  -0.038   2.271 -0.9215 -0.8162  0.6595
  288SOL    HW210969   1.923   0.118   2.313  2.3090 -0.1896  0.5718
  289SOL     OW10970   0.413   3.326   0.608 -0.3234 -0.2734  0.9401
  289SOL    HW110971   0.349   3.391   0.649  1.0106  1.7432 -0.0958
  289SOL    HW210972   0.395   3.319   0.510  1.0438  0.3585  0.6267
  290SOL     OW10973   4.698   3.876   1.394 -0.1659  0.2385 -0.4032
  290SOL    HW110974   4.680   3.863   1.492 -2.1558 -0.3323 -0.8118
  290SOL    HW210975   4.652   3.959   1.363  3.5769  2.5427 -0.1041
  291SOL     OW10976   0.823   3.567   1.372 -0.1197 -0.0778 -0.2367
  291SOL    HW110977   0.813   3.664   1.352 -1.9131  0.1339  1.5580
  291SOL    HW210978   0.908   3.533   1.331  1.0599  2.4760  0.0168
  292SOL     OW10979   2.673   5.388   2.389  0.4223  0.0181 -0.3106
  292SOL    HW110980   2.699   5.292   2.375 -1.5525 -0.6209  0.2058
  292SOL    HW210981   2.666   5.434   2.301  1.3740 -0.3230 -0.5654
  293SOL     OW10982   3.353   8.972   2.503 -0.0604 -0.2266 -0.2769
  293SOL    HW110983   3.412   8.893   2.520 -0.8756 -0.5065  1.2658
  293SOL    HW210984   3.380   9.016   2.417  0.1209 -2.4424 -1.3797
  294SOL     OW10985   2.446   2.199   0.503 -0.7131 -0.5229  0.0962
  294SOL    HW110986   2.450   2.247   0.591 -0.4394 -1.3365  0.5389
  294SOL    HW210987   2.425   2.102   0.519  0.1861 -0.8589 -0.6657
  295SOL     OW10988   9.071   7.752   2.223  0.0675  0.4724 -0.2406
  295SOL    HW110989   9.041   7.706   2.140 -0.2916 -0.9869  0.6835
  295SOL    HW210990   8.993   7.768   2.283  0.6712 -0.6626  0.8669
  296SOL     OW10991   1.827   2.414   0.682  0.1516  0.3218  0.3466
  296SOL    HW110992   1.847   2.402   0.780 -0.8119  0.3750  0.5549
  296SOL    HW210993   1.824   2.511   0.661  1.9877  0.3026 -0.0878
  297SOL     OW10994   0.129   7.989   2.070  1.0744  0.2456  0.3246
  297SOL    HW110995   0.042   8.037   2.081  1.5617  0.4820  3.5997
  297SOL    HW210996   0.136   7.915   2.136  1.4626 -2.7786 -2.9561
  298SOL     OW10997   3.186   0.301   0.188 -0.6341 -0.3873 -0.4118
  298SOL    HW110998   3.276   0.325   0.222 -0.7768  1.2789 -1.1540
  298SOL    HW210999   3.152   0.374   0.127 -0.7407 -2.8306 -3.4085
  299SOL     OW11000   9.402   5.383   2.043  0.2716  0.4428  0.1160
  299SOL    HW111001   9.478   5.319   2.033  0.6001  1.0232 -1.2114
  299SOL    HW211002   9.352   5.390   1.956  1.4974  3.5365 -0.3866
  300SOL     OW11003   3.831   9.450   2.177  0.6810 -0.7937 -0.2621
  300SOL    HW111004   3.843   9.550   2.179 -0.1780 -0.6927 -0.2045
  300SOL    HW211005   3.809   9.422   2.083  0.3069 -0.8626 -0.1517
  301SOL     OW11006   9.678   2.183   0.131 -0.4833 -0.8577  0.2815
  301SOL    HW111007   9.590   2.221   0.103 -0.3460  0.5087  1.6648
  301SOL    HW211008   9.663   2.104   0.191 -0.7891 -0.1800  1.1120
  302SOL     OW11009   2.520   3.327   1.818  0.6179  0.1599  0.1493
  302SOL    HW111010   2.525   3.250   1.881  3.1022 -0.1690 -0.3903
  302SOL    HW211011   2.528   3.413   1.870  0.3098 -0.0383  0.5207
  303SOL     OW11012   2.701   2.535   1.886  0.0695  0.3389 -0.5283
  303SOL    HW111013   2.625   2.581   1.932  1.4054  1.5865  0.5115
  303SOL    HW211014   2.719   2.579   1.798  0.9552  1.4650  0.1947
  304SOL     OW11015   2.433   1.846   1.340  0.7475  0.0166 -0.1320
  304SOL    HW111016   2.508   1.908   1.364 -0.2291  0.5917  1.4786
  304SOL    HW211017   2.456   1.753   1.369  0.7502  0.2315  0.5674
  305SOL     OW11018   1.442   2.889   0.581  0.1990 -0.0623 -0.3677
  305SOL    HW111019   1.441   2.915   0.484 -1.2489 -1.1020 -0.6477
  305SOL    HW211020   1.510   2.817   0.595 -0.7970 -1.1536 -0.9751
  306SOL     OW11021   4.258   4.625   0.565 -0.0335  0.3236  0.0149
  306SOL    HW111022   4.323   4.662   0.499  1.1082 -3.2618 -0.9918
  306SOL    HW211023   4.299   4.628   0.657 -0.1135  1.8081  0.0184
  307SOL     OW11024   1.626   6.341   0.009 -0.3334  0.6172  0.0316
  307SOL    HW111025   1.554   6.372  -0.053  0.7375  0.9675 -1.0382
  307SOL    HW211026   1.640   6.410   0.080 -1.8786  0.0089  0.9666
  308SOL     OW11027   1.537   7.874   1.211  0.1159  0.0157 -0.2834
  308SOL    HW111028   1.587   7.885   1.297  0.5006  0.1387 -0.5229
  308SOL    HW211029   1.452   7.926   1.216  1.6588  2.7511 -1.1988
  309SOL     OW11030   4.286   1.621   1.856  0.0453 -0.5470 -0.6432
  309SOL    HW111031   4.333   1.539   1.888 -0.3558 -0.3815  0.3854
  309SOL    HW211032   4.195   1.626   1.898 -0.2263  0.0221 -1.2970
  310SOL     OW11033   0.782   3.821   1.310 -0.5303 -0.8697  0.0249
  310SOL    HW111034   0.839   3.867   1.378 -0.4710 -1.5818  0.4507
  310SOL    HW211035   0.754   3.888   1.241 -0.7406 -0.1084  0.8357
  311SOL     OW11036   2.420   1.443   0.425  0.0773 -0.1941 -0.0123
  311SOL    HW111037   2.438   1.484   0.514 -1.3252 -0.6991  0.5191
  311SOL    HW211038   2.387   1.514   0.362  1.3612  0.2214 -0.2344
  312SOL     OW11039   1.402   1.107   0.352 -0.3547  0.1500  0.1699
  312SOL    HW111040   1.415   1.154   0.439 -0.5625 -1.3248  1.0103
  312SOL    HW211041   1.311   1.067   0.348 -0.4645  0.4830 -0.8601
  313SOL     OW11042   2.249   2.503   0.533 -0.1253  0.0903  0.0804
  313SOL    HW111043   2.339   2.540   0.555 -0.3213  1.6379 -1.5405
  313SOL    HW211044   2.223   2.532   0.441 -1.4092 -2.0573 -0.2702
  314SOL     OW11045   4.109   1.010   1.372  0.1438  0.4511 -0.2505
  314SOL    HW111046   4.079   0.924   1.415 -0.7699  0.1773 -1.4058
  314SOL    HW211047   4.182   0.991   1.306 -1.8038  0.1769 -2.3906
  315SOL     OW11048   3.074   0.485   2.382 -0.1816 -0.0560  0.0937
  315SOL    HW111049   3.135   0.412   2.352  0.5420 -0.4718  2.4640
  315SOL    HW211050   3.099   0.513   2.474 -0.9956  2.6143 -0.4651
  316SOL     OW11051   1.872   8.792   0.798 -0.2436 -0.5171 -0.3712
  316SOL    HW111052   1.950   8.838   0.840 -0.6610 -0.9197  0.8723
  316SOL    HW211053   1.811   8.860   0.757  0.5806 -0.1772 -1.0217
  317SOL     OW11054   4.274   0.242   1.916  0.3939 -0.1430  0.0003
  317SOL    HW111055   4.248   0.313   1.850 -0.3802  0.6711  1.1562
  317SOL    HW211056   4.372   0.250   1.936  0.1545  1.1660  0.7536
  318SOL     OW11057   9.014   4.418   2.020  0.1729 -0.0106 -0.7446
  318SOL    HW111058   9.097   4.442   2.070  0.1350 -1.6869  0.1616
  318SOL    HW211059   8.940   4.481   2.045  0.1909 -0.7566  1.2542
  319SOL     OW11060   2.079   6.345   0.450 -0.0017  0.0650  0.3427
  319SOL    HW111061   2.078   6.255   0.494 -0.0806  0.3391  0.9028
  319SOL    HW211062   2.105   6.334   0.353  0.5241 -0.5017  0.5391
  320SOL     OW11063   0.487   4.961   1.015  0.1500 -0.2299 -0.3799
  320SOL    HW111064   0.390   4.976   1.038 -0.1346  0.0549 -1.6880
  320SOL    HW211065   0.538   4.941   1.098 -1.3884 -2.3817  0.1057
  321SOL     OW11066   9.884   8.355   1.661 -0.1428  0.0065 -0.3527
  321SOL    HW111067   9.910   8.423   1.593 -0.0604  1.1334  0.7831
  321SOL    HW211068   9.916   8.265   1.632  1.8363  0.8110 -0.7464
  322SOL     OW11069   3.274   3.854   1.055  0.4811  0.1656  0.1445
  322SOL    HW111070   3.268   3.937   1.110  1.3952  1.5210 -1.7533
  322SOL    HW211071   3.259   3.876   0.959  1.7058 -1.7015 -0.5165
  323SOL     OW11072   0.893   8.037   2.329 -0.3175 -0.4046  0.2894
  323SOL    HW111073   0.945   7.985   2.396 -0.1325 -0.5856  0.0087
  323SOL    HW211074   0.830   8.098   2.375 -0.0321 -0.3668  0.6270
  324SOL     OW11075   1.801   2.625   1.373 -0.1087 -0.2429  0.0529
  324SOL    HW111076   1.753   2.649   1.458  0.2453 -1.3053  0.5599
  324SOL    HW211077   1.899   2.627   1.390 -0.0083  0.4387 -0.5856
  325SOL     OW11078   3.004   3.925   0.299 -0.1055 -0.0437 -0.1392
  325SOL    HW111079   3.049   3.892   0.216  2.2676  0.3528  0.9427
  325SOL    HW211080   2.991   3.849   0.362 -1.4143 -0.2417 -0.6238
  326SOL     OW11081   9.933   3.020   1.705  0.9228  0.3772 -0.1329
  326SOL    HW111082  10.005   3.089   1.711  0.7289  0.5713 -0.0090
  326SOL    HW211083   9.940   2.956   1.782  0.4558  0.8954  0.3489
  327SOL     OW11084   8.829   2.320   1.974 -0.0424 -0.0639  0.5471
  327SOL    HW111085   8.748   2.345   2.027 -1.3270 -0.8560 -0.9934
  327SOL    HW211086   8.835   2.379   1.893  0.2387 -0.8187  0.0179
  328SOL     OW11087   0.397   1.175   2.572  0.9529  0.1570 -0.0680
  328SOL    HW111088   0.363   1.086   2.600  0.7257  0.7016  1.4316
  328SOL    HW211089   0.491   1.187   2.604  1.2962  0.1039 -1.0377
  329SOL     OW11090   9.425   2.261   0.033 -0.1843  0.1230 -0.0413
  329SOL    HW111091   9.402   2.342   0.088  2.0037  1.5122 -1.1421
  329SOL    HW211092   9.380   2.267  -0.056  0.2125  0.2446 -0.2308
  330SOL     OW11093   3.218   4.673   0.713  0.0631 -0.4068  0.2091
  330SOL    HW111094   3.215   4.625   0.626  2.0998 -2.3726  1.1791
  330SOL    HW211095   3.237   4.770   0.698  0.7328 -0.7919 -1.4966
  331SOL     OW11096   7.842   9.071   1.438 -0.0902 -0.2170 -0.3224
  331SOL    HW111097   7.819   9.023   1.523  1.2489 -0.7624 -0.2447
  331SOL    HW211098   7.808   9.018   1.360 -1.2054  0.2164 -0.1307
  332SOL     OW11099   9.128   1.299   0.953  0.5682  0.1357 -0.3700
  332SOL    HW111100   9.136   1.200   0.946  0.4308  0.1679 -1.0113
  332SOL    HW211101   9.033   1.324   0.971  0.3601  0.2222 -1.5717
  333SOL     OW11102   3.047   3.779   2.339 -0.2091 -0.0949  0.3098
  333SOL    HW111103   2.981   3.751   2.270  0.2882 -1.1748  0.2461
  333SOL    HW211104   3.002   3.786   2.428 -0.5341 -0.2554  0.1588
  334SOL     OW11105   8.399   8.005   0.695  0.0581 -0.3304  0.7193
  334SOL    HW111106   8.381   8.041   0.604 -0.4298 -0.1993  0.8631
  334SOL    HW211107   8.415   7.906   0.689  1.8106 -0.0297  0.2766
  335SOL     OW11108   8.945   8.493   0.454  1.0912  1.0598  0.0782
  335SOL    HW111109   8.954   8.473   0.552  3.3172 -0.2505 -0.3557
  335SOL    HW211110   8.920   8.409   0.405 -1.5484  2.0348 -0.3368
  336SOL     OW11111   8.254   9.337   2.152 -0.1828  0.0695  0.5578
  336SOL    HW111112   8.158   9.358   2.174 -0.1418  0.2274  0.5817
  336SOL    HW211113   8.265   9.238   2.147 -0.7789  0.0799 -1.3811
  337SOL     OW11114   1.253   0.754   2.440 -0.4978 -0.0508  0.0443
  337SOL    HW111115   1.163   0.797   2.442 -0.5431 -0.1938  1.8825
  337SOL    HW211116   1.243   0.656   2.423 -0.7234 -0.1341  0.6472
  338SOL     OW11117   9.109   2.339   2.006 -0.2351 -0.4512  0.5632
  338SOL    HW111118   9.014   2.313   1.987 -0.0987 -0.1665 -0.5703
  338SOL    HW211119   9.110   2.426   2.056 -0.5748 -0.1125  0.0016
  339SOL     OW11120   8.931   1.771   1.652  0.2483  0.5388  0.2687
  339SOL    HW111121   9.030   1.775   1.640  0.3157 -0.9059  0.2596
  339SOL    HW211122   8.890   1.855   1.617  1.5155  1.3784  0.7732
  340SOL     OW11123   0.791   8.685   2.227  0.4689 -0.2175  0.1382
  340SOL    HW111124   0.840   8.683   2.314 -1.2287  2.1862  1.2009
  340SOL    HW211125   0.753   8.594   2.208  1.1165 -0.8412  1.7615
  341SOL     OW11126   2.090   6.499   1.080  0.0006  0.0434 -0.2291
  341SOL    HW111127   1.997   6.500   1.044  0.0098 -1.8432 -0.3279
  341SOL    HW211128   2.151   6.456   1.013  0.6388 -0.2804  0.5550
  342SOL     OW11129   9.085   9.742   1.000 -0.5701  0.8796 -0.1903
  342SOL    HW111130   9.002   9.711   0.952 -0.3189  1.0193 -0.7217
  342SOL    HW211131   9.066   9.748   1.098 -1.5200  1.9030 -0.4127
  343SOL     OW11132   9.382   9.260   0.152  0.3542 -0.4338 -0.8363
  343SOL    HW111133   9.305   9.244   0.090 -0.0840 -1.4971 -0.0274
  343SOL    HW211134   9.390   9.358   0.170 -0.4346 -0.2572 -1.3994
  344SOL     OW11135   9.309   2.008   0.250  0.0427  0.1084  0.5342
  344SOL    HW111136   9.375   1.972   0.184  1.0705 -0.4859  1.8735
  344SOL    HW211137   9.285   2.102   0.226 -1.7447 -1.0276 -2.3152
  345SOL     OW11138   1.432   8.043   1.397 -0.2690 -0.1690  0.7303
  345SOL    HW111139   1.466   8.023   1.489  0.1984  1.3763  0.9049
  345SOL    HW211140   1.337   8.073   1.401  0.0366  0.8095  0.8192
  346SOL     OW11141   3.174   9.931   0.339 -0.0327 -0.1293  0.3566
  346SOL    HW111142   3.174   9.856   0.405 -1.3514  0.7960  1.4396
  346SOL    HW211143   3.095   9.990   0.355  0.2301  0.7312 -1.3612
  347SOL     OW11144   9.341   6.747   2.239 -0.2488 -0.7771  1.0002
  347SOL    HW111145   9.298   6.689   2.169 -1.3682  0.5546  0.5655
  347SOL    HW211146   9.308   6.720   2.330 -0.8035 -0.7877  0.7962
  348SOL     OW11147   9.697   4.284   1.927  0.2197  0.0951 -0.2930
  348SOL    HW111148   9.628   4.355   1.940  0.6730  0.6926 -1.1225
  348SOL    HW211149   9.665   4.217   1.860  0.4765  0.4107 -0.7303
  349SOL     OW11150   8.690   0.336   0.994 -0.8386  0.0484  0.0454
  349SOL    HW111151   8.634   0.259   0.965  0.2520  0.1412 -2.3973
  349SOL    HW211152   8.631   0.413   1.020 -1.8791 -0.8975  0.4987
  350SOL     OW11153   7.938   9.565   2.374 -0.0420 -0.0827  0.1570
  350SOL    HW111154   8.017   9.587   2.317  0.8704 -3.1901  0.1018
  350SOL    HW211155   7.964   9.573   2.471  0.5049 -1.4366  0.1443
  351SOL     OW11156   2.249   2.706   2.311  0.3946  0.1695  0.1830
  351SOL    HW111157   2.283   2.746   2.226  0.5042 -0.0372  0.1315
  351SOL    HW211158   2.187   2.772   2.356  0.9826  0.6027  0.3602
  352SOL     OW11159   3.202   4.735   2.243  0.6273 -0.2823 -0.1299
  352SOL    HW111160   3.103   4.751   2.252  0.3091 -1.1402 -1.7942
  352SOL    HW211161   3.234   4.681   2.321 -0.0216  0.8210  0.9164
  353SOL     OW11162   2.364   0.863   1.694 -0.0414 -0.3566 -0.1118
  353SOL    HW111163   2.301   0.940   1.694  0.0607 -0.2750  0.0711
  353SOL    HW211164   2.406   0.853   1.784 -2.3025 -2.4549  0.7573
  354SOL     OW11165   1.530   5.244   1.144  0.1873 -0.4384  0.1894
  354SOL    HW111166   1.575   5.282   1.225  1.2127 -0.2849 -0.4345
  354SOL    HW211167   1.588   5.261   1.064 -0.2799 -1.5889 -0.3911
  355SOL     OW11168   2.472   9.214   1.781 -0.1323 -0.0581  0.9569
  355SOL    HW111169   2.496   9.179   1.871  1.2825  1.2665  1.1176
  355SOL    HW211170   2.433   9.306   1.790  2.7485  1.3227  0.0463
  356SOL     OW11171   9.574   7.239   1.907 -0.3300  0.0067  0.0780
  356SOL    HW111172   9.516   7.267   1.983 -0.1226  2.5698 -0.6417
  356SOL    HW211173   9.632   7.163   1.935 -0.7496  0.4534  2.2562
  357SOL     OW11174   2.872   2.197   0.707 -0.1252 -0.3306 -0.1459
  357SOL    HW111175   2.856   2.174   0.803  1.5166 -0.9722 -0.0075
  357SOL    HW211176   2.952   2.147   0.674 -0.5687  0.0228 -1.8043
  358SOL     OW11177   1.695   0.994   0.903 -0.1527 -0.7105  0.0466
  358SOL    HW111178   1.622   0.931   0.929  0.3967 -0.6586  1.7784
  358SOL    HW211179   1.677   1.084   0.944  1.1906 -0.8660  0.9888
  359SOL     OW11180   3.349   3.736   0.035 -0.0079  0.1159  0.2287
  359SOL    HW111181   3.313   3.829   0.024  0.7938  0.3126 -0.7865
  359SOL    HW211182   3.321   3.680  -0.043  1.7407  0.2340 -0.5089
  360SOL     OW11183   3.228   9.175   1.083  0.0737  0.0302  0.3148
  360SOL    HW111184   3.316   9.144   1.119  1.2583  3.3373  0.4385
  360SOL    HW211185   3.242   9.217   0.993 -1.0913  1.9909  1.0232
  361SOL     OW11186   2.991   0.464   1.517  0.0084  0.7370  0.3017
  361SOL    HW111187   3.075   0.426   1.478 -0.3114 -0.2389  0.5544
  361SOL    HW211188   2.964   0.410   1.596 -1.5082  0.3201 -0.4769
  362SOL     OW11189   1.424   6.279   1.363 -0.1779  0.3394 -0.0979
  362SOL    HW111190   1.370   6.209   1.409 -0.1977 -0.6607 -1.6202
  362SOL    HW211191   1.368   6.361   1.349 -0.4550  0.3022  0.7997
  363SOL     OW11192   2.695   2.841   1.962 -0.1746 -0.0138  0.6708
  363SOL    HW111193   2.701   2.757   2.016 -3.6450  1.0877  2.9885
  363SOL    HW211194   2.730   2.918   2.017  0.9852  0.4130 -0.6236
  364SOL     OW11195   0.947   5.240   1.880 -0.0274 -0.2175  0.1407
  364SOL    HW111196   0.945   5.190   1.966  0.2301  0.4593  0.5436
  364SOL    HW211197   0.862   5.224   1.830  0.0122 -0.9738  0.3092
  365SOL     OW11198   1.691   9.007   0.755 -0.1253  0.1150 -0.3255
  365SOL    HW111199   1.689   9.042   0.849  0.9017 -2.8408  0.8512
  365SOL    HW211200   1.606   8.959   0.736  0.6104 -1.3193 -0.0658
  366SOL     OW11201   9.488   7.666   0.589  0.2496  0.1797  0.3818
  366SOL    HW111202   9.426   7.697   0.660  1.2692 -0.8719  1.7651
  366SOL    HW211203   9.545   7.591   0.624  0.9737 -0.1605 -1.4408
  367SOL     OW11204   4.866   3.330   0.989 -0.1562 -0.0374 -0.5504
  367SOL    HW111205   4.891   3.388   0.911 -0.5633  0.1778 -0.5236
  367SOL    HW211206   4.779   3.361   1.026  0.0990 -0.0554  0.0722
  368SOL     OW11207   1.013   5.374   1.657  0.0620 -0.1236 -0.1744
  368SOL    HW111208   1.021   5.304   1.728  0.4061 -0.1552 -0.2464
  368SOL    HW211209   1.022   5.331   1.567 -1.5614 -0.2737 -0.2894
  369SOL     OW11210   1.333   4.891   1.783 -0.3240  0.1437  0.2635
  369SOL    HW111211   1.288   4.979   1.800 -0.1613  0.3486 -0.3644
  369SOL    HW211212   1.420   4.888   1.831  0.2229  0.7952 -0.6827
  370SOL     OW11213   2.442   1.901   0.477  0.5296  0.0001  0.2545
  370SOL    HW111214   2.362   1.843   0.458 -0.4498  0.5202  2.6937
  370SOL    HW211215   2.510   1.889   0.404 -1.3455 -1.2042 -1.3186
  371SOL     OW11216   4.022   0.686   1.530 -0.4574  0.4305 -0.0695
  371SOL    HW111217   4.118   0.709   1.547 -0.0161 -0.8109 -0.8549
  371SOL    HW211218   3.976   0.669   1.618  0.2299  0.2866  0.2656
  372SOL     OW11219   7.972   9.967   1.201 -0.5510  0.0231  0.4821
  372SOL    HW111220   7.929   9.901   1.139  1.0022 -0.3107 -0.2780
  372SOL    HW211221   8.059   9.930   1.234  0.5362  1.8432 -0.2820
  373SOL     OW11222   8.999   6.317   1.793  0.8308  0.0477 -0.5441
  373SOL    HW111223   8.951   6.395   1.755  0.8435  0.3978  0.1510
  373SOL    HW211224   8.982   6.312   1.892  2.8249  0.6285 -0.1402
  374SOL     OW11225   3.666   3.923   0.841 -0.2869 -0.4943  0.1721
  374SOL    HW111226   3.603   3.846   0.827  1.9554 -1.9506 -2.5882
  374SOL    HW211227   3.740   3.917   0.774  0.6910  3.3504  0.8085
  375SOL     OW11228   2.102   9.399   2.368  0.6084 -0.2742 -0.0530
  375SOL    HW111229   2.033   9.459   2.408  0.0929 -1.1304  0.3292
  375SOL    HW211230   2.079   9.381   2.272  0.5545 -0.1842 -0.0572
  376SOL     OW11231   2.756   4.076   2.427 -0.0612 -0.1642  0.4925
  376SOL    HW111232   2.745   4.139   2.351  0.4691 -0.1617  0.4203
  376SOL    HW211233   2.756   3.982   2.394  0.4159 -0.1548  0.4597
  377SOL     OW11234   0.842   8.452   1.062  0.1578 -0.2152 -0.2100
  377SOL    HW111235   0.833   8.458   1.162 -2.0850 -1.3396 -0.3140
  377SOL    HW211236   0.778   8.516   1.019  1.4894  0.6383 -0.9279
  378SOL     OW11237   3.455   3.256   1.448  0.2780  0.1150  0.2799
  378SOL    HW111238   3.471   3.285   1.354 -1.0122  1.6773  0.5215
  378SOL    HW211239   3.389   3.317   1.491 -0.5179 -1.6652  1.6490
  379SOL     OW11240   1.908   5.591   1.919 -0.4982  0.1132 -0.0968
  379SOL    HW111241   1.841   5.518   1.901  0.0054 -0.3708 -0.0349
  379SOL    HW211242   1.997   5.563   1.882  0.2297 -0.2719  1.9153
  380SOL     OW11243   2.798   3.350   2.242  0.0158 -0.4034  0.0991
  380SOL    HW111244   2.738   3.390   2.312 -0.6434 -1.3209  0.0606
  380SOL    HW211245   2.893   3.358   2.272 -0.0419  1.7582 -0.1900
  381SOL     OW11246   8.235   8.452   0.209  0.0155  0.5433 -0.3676
  381SOL    HW111247   8.330   8.421   0.219 -0.4288 -0.9282 -0.5439
  381SOL    HW211248   8.180   8.417   0.285 -0.4809  0.9991 -0.5150
  382SOL     OW11249   1.603   3.622   2.139 -0.4431  0.4558 -0.5664
  382SOL    HW111250   1.547   3.615   2.056 -0.4122  1.1925 -0.6512
  382SOL    HW211251   1.627   3.718   2.155 -0.1034  0.2660  0.0674
  383SOL     OW11252   9.646   9.408   2.077  0.3895  0.2946  0.3151
  383SOL    HW111253   9.710   9.399   2.153 -0.8589 -0.4622  1.2864
  383SOL    HW211254   9.581   9.332   2.079 -0.2677  0.8111 -0.9299
  384SOL     OW11255   2.272   8.372   0.727 -0.3413 -0.1217  0.1848
  384SOL    HW111256   2.347   8.399   0.667  1.0487 -2.2306  0.9302
  384SOL    HW211257   2.293   8.397   0.822 -0.3142 -1.2081  0.4764
  385SOL     OW11258   8.038   9.120   2.472  0.6872  0.5677  0.2532
  385SOL    HW111259   7.959   9.079   2.517  0.3754  1.3868  0.4588
  385SOL    HW211260   8.092   9.171   2.539  1.8597 -0.7019  0.2796
  386SOL     OW11261   2.422   8.176   1.127  0.2017  0.1299  0.2905
  386SOL    HW111262   2.519   8.180   1.104 -0.0994 -2.0657 -1.4231
  386SOL    HW211263   2.398   8.257   1.181  2.7856  1.1020  0.0555
  387SOL     OW11264   2.535   2.949   1.384 -0.5776 -0.3621  0.2970
  387SOL    HW111265   2.633   2.935   1.382 -0.4676  0.4015 -0.0022
  387SOL    HW211266   2.509   2.988   1.473 -0.7554 -1.5542  0.7734
  388SOL     OW11267   2.896   6.885   0.683 -0.6711  0.4102  0.2972
  388SOL    HW111268   2.941   6.821   0.745 -1.4258  0.4474  0.8901
  388SOL    HW211269   2.940   6.974   0.689 -0.3477  0.2474  0.3235
  389SOL     OW11270   1.319   8.007   2.456 -0.2682 -0.1919  0.0677
  389SOL    HW111271   1.315   7.908   2.446  3.3572 -0.4273  0.4374
  389SOL    HW211272   1.258   8.036   2.530 -0.7522 -2.2031  0.4754
  390SOL     OW11273   3.666   5.279   0.537  0.2838  0.0974  0.2336
  390SOL    HW111274   3.741   5.267   0.602  0.7194 -0.8177 -0.4351
  390SOL    HW211275   3.669   5.207   0.468 -0.5644  0.6836 -0.4314
  391SOL     OW11276   0.429   6.778   0.609  0.4344  0.2293 -0.5360
  391SOL    HW111277   0.436   6.682   0.636  1.2416  0.0299 -1.4243
  391SOL    HW211278   0.362   6.787   0.535 -1.0768  0.6418  0.8387
  392SOL     OW11279   2.540   9.655   1.482  0.1281 -0.6369  0.0850
  392SOL    HW111280   2.497   9.576   1.436 -0.6347 -0.1299 -0.0875
  392SOL    HW211281   2.626   9.626   1.524  0.3282 -1.3451 -0.7918
  393SOL     OW11282   3.394   0.428   0.347 -0.1806 -0.1445 -0.5170
  393SOL    HW111283   3.436   0.489   0.279 -0.5841  1.1406  0.3680
  393SOL    HW211284   3.409   0.465   0.439  0.3769 -1.8805  0.1113
  394SOL     OW11285   2.425   0.282   1.768 -0.3360  0.4521 -0.5855
  394SOL    HW111286   2.325   0.274   1.764 -0.4328 -0.3527  2.3821
  394SOL    HW211287   2.466   0.226   1.696 -1.9887 -0.4916 -0.8198
  395SOL     OW11288   1.144   9.862   1.145 -0.6994 -0.1066  0.4972
  395SOL    HW111289   1.141   9.919   1.063 -1.5984  1.5411  1.6277
  395SOL    HW211290   1.119   9.918   1.225  1.0501 -1.4475  2.0200
  396SOL     OW11291   2.825   4.741   0.944  0.1364 -0.2192  0.1943
  396SOL    HW111292   2.809   4.833   0.982 -3.5767  0.2428 -2.1551
  396SOL    HW211293   2.765   4.676   0.990 -0.6146 -0.5900 -1.2903
  397SOL     OW11294   2.686   4.343   0.539 -0.0954  0.0832  0.1593
  397SOL    HW111295   2.685   4.400   0.621 -0.3407  0.8649 -0.3785
  397SOL    HW211296   2.650   4.253   0.561  0.4271  0.0804  1.0538
  398SOL     OW11297   2.699   7.429   0.464  0.4451 -0.2815 -0.4765
  398SOL    HW111298   2.613   7.380   0.475  0.5863 -0.4424 -0.0521
  398SOL    HW211299   2.758   7.411   0.543  0.3402  0.8886 -0.1221
  399SOL     OW11300   4.356   0.988   0.934  0.5338  0.7219  0.1563
  399SOL    HW111301   4.401   1.007   0.847 -1.6446  2.3523 -0.6575
  399SOL    HW211302   4.372   0.893   0.959  0.2163 -0.1246 -2.6274
  400SOL     OW11303   0.835   1.805   2.141 -0.1361  0.0644  0.5227
  400SOL    HW111304   0.926   1.846   2.142  0.3672 -0.8603 -2.6421
  400SOL    HW211305   0.766   1.877   2.143  0.6995  0.8792  0.3672
  401SOL     OW11306   1.983   6.883   0.552  0.1991 -0.0622  0.5203
  401SOL    HW111307   2.057   6.856   0.491  0.7802 -0.9789  1.6255
  401SOL    HW211308   1.895   6.866   0.507  0.6403  0.4093 -0.5309
  402SOL     OW11309   4.204   3.391   2.278 -0.5215 -0.1385 -0.7619
  402SOL    HW111310   4.228   3.478   2.321  0.6088 -0.8708  0.1409
  402SOL    HW211311   4.105   3.385   2.266 -0.6412  1.0733 -0.4204
  403SOL     OW11312   0.893   3.362   0.540 -0.4380  0.2802 -0.4788
  403SOL    HW111313   0.902   3.430   0.613  0.9992 -1.8416  1.4245
  403SOL    HW211314   0.803   3.319   0.545 -0.2456 -0.0414  0.2106
  404SOL     OW11315   8.018   0.397   1.524 -0.1038  0.2805 -0.3587
  404SOL    HW111316   8.050   0.331   1.593 -1.2733  0.3121  0.2282
  404SOL    HW211317   7.918   0.392   1.518 -0.1333  1.4792 -0.8519
  405SOL     OW11318   2.691   7.899   2.551  0.4448  0.1415 -0.0044
  405SOL    HW111319   2.767   7.845   2.586  2.3944  2.6502 -0.2697
  405SOL    HW211320   2.643   7.943   2.627  0.1661 -0.2355  0.0417
  406SOL     OW11321   8.929   3.089   1.116 -0.0383  0.4500 -0.3900
  406SOL    HW111322   9.016   3.066   1.074 -0.0336  1.4872 -0.9665
  406SOL    HW211323   8.856   3.081   1.049 -0.4260 -0.6191  0.1463
  407SOL     OW11324   9.779   3.069   0.563 -0.0340 -0.6388  0.0641
  407SOL    HW111325   9.857   3.125   0.533 -1.5229  1.3005 -0.2491
  407SOL    HW211326   9.793   3.040   0.658  1.5576 -1.2125 -0.3274
  408SOL     OW11327   0.209   3.595   2.403 -0.0082 -0.0050  0.5483
  408SOL    HW111328   0.155   3.633   2.329  1.1805 -0.1221 -0.3990
  408SOL    HW211329   0.259   3.669   2.449 -0.7264  0.0655  1.2341
  409SOL     OW11330   8.447   0.365   1.432  0.4052  0.1981  0.0601
  409SOL    HW111331   8.474   0.278   1.392  2.2966 -0.3718  2.4584
  409SOL    HW211332   8.524   0.429   1.427  0.6758  0.1197  2.6988
  410SOL     OW11333   2.555   7.364   1.698  0.4482  0.7532 -0.0073
  410SOL    HW111334   2.540   7.290   1.763 -2.4279  0.1425 -1.2622
  410SOL    HW211335   2.474   7.423   1.696  0.8821  1.3127 -2.2961
  411SOL     OW11336   1.077   7.343   1.790 -0.0083 -0.6002 -0.1928
  411SOL    HW111337   1.165   7.380   1.759 -0.0802  0.2749  0.6476
  411SOL    HW211338   1.089   7.246   1.812  0.6329 -0.6061 -0.5406
  412SOL     OW11339   0.758   6.473   1.808 -0.0845 -0.6794 -0.1818
  412SOL    HW111340   0.729   6.562   1.844 -0.4980 -0.4432 -1.0849
  412SOL    HW211341   0.843   6.445   1.853 -0.6649 -0.4662  1.0791
  413SOL     OW11342   1.531   3.900   2.296  0.5907  0.0168  0.3768
  413SOL    HW111343   1.556   3.996   2.302  1.1132 -0.1012  0.0959
  413SOL    HW211344   1.441   3.891   2.253 -0.6023  0.5324  2.6796
  414SOL     OW11345   4.329   1.533   0.009 -0.2990  0.0450  0.5050
  414SOL    HW111346   4.350   1.437  -0.009  1.3078  0.4770  0.0198
  414SOL    HW211347   4.372   1.590  -0.061 -2.9023  0.9949 -0.3552
  415SOL     OW11348   1.170   6.349   2.406 -0.1800 -0.5248 -0.4083
  415SOL    HW111349   1.177   6.308   2.497 -0.2990 -0.9663 -0.5986
  415SOL    HW211350   1.134   6.442   2.414 -0.0383 -0.5041  0.0092
  416SOL     OW11351   1.094   2.986   2.227 -0.3066 -0.1109  0.9058
  416SOL    HW111352   1.159   3.025   2.161  1.9509 -0.1376  3.0510
  416SOL    HW211353   1.046   3.060   2.273 -0.7825 -0.0559  0.3306
  417SOL     OW11354   0.297   5.415   2.167 -0.2638 -0.0125  0.2924
  417SOL    HW111355   0.308   5.316   2.151 -0.1009 -0.1706  1.3726
  417SOL    HW211356   0.252   5.456   2.088 -0.7627 -1.0348  0.0332
  418SOL     OW11357   8.644   9.119   0.596 -0.3689  0.0612 -0.0888
  418SOL    HW111358   8.722   9.065   0.630 -0.2619  0.0109 -0.4089
  418SOL    HW211359   8.660   9.216   0.616 -1.2918 -0.1780  1.8941
  419SOL     OW11360   2.395   2.173   1.624 -0.4968  0.0883  0.2343
  419SOL    HW111361   2.466   2.121   1.670 -0.8952 -0.8792 -0.2302
  419SOL    HW211362   2.317   2.113   1.604 -1.6473  1.2384  1.1675
  420SOL     OW11363   2.790   8.339   1.803  0.3202 -0.2834  0.2390
  420SOL    HW111364   2.790   8.402   1.881  1.2387 -1.3507  1.1100
  420SOL    HW211365   2.883   8.332   1.766  0.0680 -0.5206 -0.3471
  421SOL     OW11366   0.348   2.351   0.158  0.3775 -0.2849 -1.0932
  421SOL    HW111367   0.292   2.278   0.120 -1.5797 -0.0107  1.1240
  421SOL    HW211368   0.385   2.322   0.246 -0.3412  1.3487 -0.2341
  422SOL     OW11369   2.588   8.797   1.583  0.1266  0.5702  0.6759
  422SOL    HW111370   2.515   8.863   1.566 -1.5946 -1.6784 -0.9826
  422SOL    HW211371   2.621   8.760   1.496  2.9097  1.1687  1.4308
  423SOL     OW11372   2.151   7.146   2.182 -0.0650  0.5518 -0.0840
  423SOL    HW111373   2.096   7.157   2.265  1.7026 -2.9560  1.6514
  423SOL    HW211374   2.223   7.215   2.180 -0.9304  1.4810  0.6322
  424SOL     OW11375   0.031   0.773   1.612 -0.5137  0.1826 -0.1671
  424SOL    HW111376   0.004   0.864   1.581 -1.7639 -0.7463 -1.8725
  424SOL    HW211377  -0.051   0.718   1.628  0.2916 -1.4797 -1.6926
  425SOL     OW11378   2.897   2.582   0.037  0.6142 -0.0016 -0.4683
  425SOL    HW111379   2.854   2.504   0.084  0.7460  0.3719  0.2800
  425SOL    HW211380   2.987   2.556   0.005 -0.6043 -1.1574 -3.0703
  426SOL     OW11381   0.790   1.621   1.065  0.0916 -0.4880  0.0449
  426SOL    HW111382   0.818   1.717   1.072  1.2249 -0.9014  1.3704
  426SOL    HW211383   0.844   1.566   1.129 -0.6131 -1.9977 -0.6441
  427SOL     OW11384   9.454   3.725   0.190  0.0024 -0.6944 -0.4717
  427SOL    HW111385   9.445   3.776   0.104  2.1216  0.6487  0.0658
  427SOL    HW211386   9.469   3.789   0.265 -0.0183 -1.9666  0.6321
  428SOL     OW11387   3.793   2.007   2.477 -0.2601 -0.1533  0.4058
  428SOL    HW111388   3.776   1.921   2.526 -0.9204  0.0345  0.5197
  428SOL    HW211389   3.834   2.073   2.539 -0.5017 -0.1242  0.5347
  429SOL     OW11390   3.728   1.040   1.567  0.1602 -0.9702  0.5067
  429SOL    HW111391   3.731   1.000   1.476  0.7254 -2.2726  1.0767
  429SOL    HW211392   3.816   1.085   1.586 -0.8575  1.4942 -0.5410
  430SOL     OW11393   4.463   3.560   2.502  0.4041 -0.3143 -0.1083
  430SOL    HW111394   4.509   3.639   2.542  0.2411 -1.2080  1.8803
  430SOL    HW211395   4.406   3.591   2.425  0.4092  1.4970  0.5813
  431SOL     OW11396   0.180   2.920   1.391  0.0826  0.2985  0.2623
  431SOL    HW111397   0.228   2.862   1.457 -2.0563 -1.5289  0.2520
  431SOL    HW211398   0.154   3.006   1.435 -1.7000 -1.0724  1.9751
  432SOL     OW11399   8.501   2.464   1.045  0.0048  0.0912  0.6522
  432SOL    HW111400   8.411   2.494   1.078 -1.5426  0.6186 -3.7403
  432SOL    HW211401   8.515   2.368   1.070 -1.3828  0.2477  2.1355
  433SOL     OW11402   2.175   2.855   0.346  0.4356 -0.1334 -0.4354
  433SOL    HW111403   2.219   2.767   0.333  1.6941  0.1701  1.5211
  433SOL    HW211404   2.106   2.848   0.418  1.3886  0.7490  0.5817
  434SOL     OW11405   8.552   8.543   2.451  0.0601  0.3764 -0.8429
  434SOL    HW111406   8.597   8.476   2.391  1.7111 -0.9266  1.7236
  434SOL    HW211407   8.455   8.519   2.461  1.0908 -3.2186  1.9113
  435SOL     OW11408   8.675   0.349   0.322 -0.4523  0.2287 -0.3134
  435SOL    HW111409   8.760   0.362   0.272 -0.5971  1.0817 -0.3453
  435SOL    HW211410   8.665   0.253   0.346 -0.0218 -0.0561 -1.2708
  436SOL     OW11411   8.442   8.980   2.560 -0.3675 -0.1730  0.0466
  436SOL    HW111412   8.456   8.932   2.473  1.7734 -1.1686  0.8891
  436SOL    HW211413   8.357   8.948   2.602 -1.2069  0.0023 -1.4633
  437SOL     OW11414   2.306   1.857   2.517 -0.2213 -0.1494  0.3355
  437SOL    HW111415   2.398   1.844   2.554 -1.1016 -1.1216  2.2563
  437SOL    HW211416   2.282   1.954   2.520  0.6709  0.0861 -0.0241
  438SOL     OW11417   1.287   6.897   1.347 -0.0475  0.3598 -0.1450
  438SOL    HW111418   1.329   6.876   1.436 -0.9609  0.3761  0.2933
  438SOL    HW211419   1.338   6.971   1.304 -1.3882  2.4494  1.7332
  439SOL     OW11420   9.969   9.801   2.547  0.2702 -0.0706 -0.2996
  439SOL    HW111421   9.918   9.751   2.478 -0.0846  0.1041 -0.1636
  439SOL    HW211422   9.990   9.893   2.513 -0.1720  0.1223 -0.0552
  440SOL     OW11423   0.707   3.747   0.158  0.1987  0.3647  0.2285
  440SOL    HW111424   0.724   3.826   0.217  0.1262  0.2768  0.3669
  440SOL    HW211425   0.609   3.741   0.138  0.1845  0.2186  0.3448
  441SOL     OW11426   0.109   9.358   2.131  0.1250  0.5427  0.1547
  441SOL    HW111427   0.154   9.446   2.112 -0.9128  1.9679  3.8063
  441SOL    HW211428   0.178   9.289   2.150  0.8892  1.1745 -0.2701
  442SOL     OW11429   2.971   9.977   1.718  0.3439 -0.1961  0.0933
  442SOL    HW111430   2.998  10.073   1.711  0.9748 -0.4708 -1.3925
  442SOL    HW211431   2.884   9.971   1.767  0.2128  1.1536  0.0558
  443SOL     OW11432   3.231   3.923   0.648 -0.5342 -0.3324 -0.3380
  443SOL    HW111433   3.286   3.855   0.599  0.7734  0.1394  0.4432
  443SOL    HW211434   3.136   3.893   0.651 -0.5595 -0.5694 -2.7616
  444SOL     OW11435   1.692   5.392   0.013  0.1433  0.2197  0.7159
  444SOL    HW111436   1.655   5.444   0.090 -0.1545  0.9815  0.0675
  444SOL    HW211437   1.732   5.455  -0.053  0.3775 -0.4269  0.2393
  445SOL     OW11438   1.477   4.885   1.022  0.4099  0.0038 -0.2769
  445SOL    HW111439   1.527   4.916   1.103 -0.9846  0.5773  0.3787
  445SOL    HW211440   1.490   4.950   0.947  1.0557 -0.1231 -0.2803
  446SOL     OW11441   9.940   8.923   0.811 -0.5336  0.3419 -0.2382
  446SOL    HW111442   9.921   8.868   0.893 -0.1888  1.9915  0.9792
  446SOL    HW211443   9.885   8.889   0.735  0.9732 -2.8164 -0.0217
  447SOL     OW11444   9.260   1.843   2.123 -0.0709 -0.1859 -0.1667
  447SOL    HW111445   9.191   1.894   2.072 -0.1376  0.4535  0.5646
  447SOL    HW211446   9.229   1.827   2.217  1.6699  2.0083  0.8286
  448SOL     OW11447   9.674   4.756   2.175 -0.0624  0.3161 -0.5546
  448SOL    HW111448   9.746   4.825   2.175 -0.1001  0.3570 -0.2824
  448SOL    HW211449   9.595   4.790   2.226  0.2931 -0.3101  0.4259
  449SOL     OW11450   1.723   4.045   1.032 -0.0014  0.5841 -0.1953
  449SOL    HW111451   1.697   4.136   1.064 -1.9695 -0.3912  1.0216
  449SOL    HW211452   1.668   4.021   0.952 -1.2245 -0.5077  0.9501
  450SOL     OW11453   1.646   3.768   2.492 -0.0093  0.1108  0.3431
  450SOL    HW111454   1.623   3.806   2.402  0.2436 -0.9454 -0.1713
  450SOL    HW211455   1.574   3.791   2.557 -0.0977  1.0632 -0.0712
  451SOL     OW11456   0.429   6.484   0.663 -0.3205  0.4385  0.1237
  451SOL    HW111457   0.403   6.401   0.615  1.5617  0.7195 -1.4555
  451SOL    HW211458   0.414   6.472   0.761 -1.9102 -1.0282 -0.2816
  452SOL     OW11459   2.038   1.507   0.279  0.2193 -0.4445 -0.1099
  452SOL    HW111460   2.071   1.462   0.362  0.9524 -0.6037 -0.4879
  452SOL    HW211461   1.969   1.575   0.303  1.4822  0.5474  0.7656
  453SOL     OW11462   8.739   7.134   0.914 -0.6999  0.4928 -0.5640
  453SOL    HW111463   8.706   7.092   0.829 -1.3388  0.3344 -0.2443
  453SOL    HW211464   8.747   7.233   0.901 -1.5599  0.5668 -0.5747
  454SOL     OW11465   1.355   2.575   0.403 -0.0305  0.6715  0.7628
  454SOL    HW111466   1.293   2.499   0.424 -0.5780  1.1896  1.0509
  454SOL    HW211467   1.314   2.634   0.334 -0.3147  1.5609  1.6628
  455SOL     OW11468   0.976   8.985   0.598  0.1141  0.3068  0.2461
  455SOL    HW111469   1.002   8.895   0.565 -1.4385 -0.2062  0.4269
  455SOL    HW211470   1.059   9.038   0.619  1.0152 -1.3433  0.9012
  456SOL     OW11471   9.740   3.382   0.451  0.4305  0.2910  0.4329
  456SOL    HW111472   9.793   3.331   0.384 -0.4844  2.9268 -2.4168
  456SOL    HW211473   9.642   3.364   0.437  0.1009  2.6446 -0.5707
  457SOL     OW11474   9.807   4.512   1.375 -0.9217  0.1389 -0.5930
  457SOL    HW111475   9.825   4.434   1.435 -0.7542 -0.3350 -1.2475
  457SOL    HW211476   9.717   4.501   1.332 -2.1800  1.7623  1.5289
  458SOL     OW11477   8.155   8.365   1.105  0.8898 -0.1809 -0.4629
  458SOL    HW111478   8.242   8.376   1.057  1.2164  3.1084  0.7366
  458SOL    HW211479   8.081   8.359   1.039  1.7763 -0.2269 -1.4562
  459SOL     OW11480   2.235   1.148   0.156  0.7338  0.5467 -0.6500
  459SOL    HW111481   2.269   1.058   0.129  1.4412  0.7805 -0.5498
  459SOL    HW211482   2.136   1.151   0.143  0.4182 -0.8934  1.1650
  460SOL     OW11483   9.093   1.685   2.376 -0.4866  0.3550  0.2185
  460SOL    HW111484   9.104   1.628   2.458  1.1578 -1.1282 -0.9728
  460SOL    HW211485   9.047   1.632   2.305 -2.0520  1.6875  0.2192
  461SOL     OW11486   9.699   6.298   0.416 -0.2845  0.1309  0.1874
  461SOL    HW111487   9.634   6.240   0.466  1.0045 -1.0579  0.5046
  461SOL    HW211488   9.756   6.348   0.481  0.4423 -0.3405 -0.0801
  462SOL     OW11489   0.987   5.116   2.108  0.2095 -0.4062  0.4133
  462SOL    HW111490   1.056   5.044   2.102  0.0607 -0.6582  1.5017
  462SOL    HW211491   0.910   5.083   2.163 -0.9562 -0.2703 -1.1019
  463SOL     OW11492   9.771   0.024   0.253  0.1019  0.2174  0.3795
  463SOL    HW111493   9.724   0.086   0.316 -0.2765 -0.3734  0.6761
  463SOL    HW211494   9.861   0.002   0.291 -0.4423 -0.7772  1.1097
  464SOL     OW11495   4.352   0.272   1.442  0.0800  0.2135 -0.1172
  464SOL    HW111496   4.316   0.305   1.355 -0.7389  0.6657  0.3793
  464SOL    HW211497   4.326   0.177   1.455 -2.0077  0.8692  0.7730
  465SOL     OW11498   2.079   2.317   0.644 -0.2577 -0.1091 -0.0955
  465SOL    HW111499   1.990   2.362   0.643  0.0170  0.4513 -1.4392
  465SOL    HW211500   2.150   2.383   0.616  0.2146 -1.2342 -1.6177
  466SOL     OW11501   1.468   0.844   0.326  0.6123  0.3477  0.5120
  466SOL    HW111502   1.457   0.824   0.228 -2.4470 -0.1428  0.9157
  466SOL    HW211503   1.443   0.939   0.344 -3.2582 -0.7840  1.4598
  467SOL     OW11504   4.357   1.592   1.060  0.4658  0.0750  0.1263
  467SOL    HW111505   4.451   1.573   1.032  0.1529  0.0874 -0.9464
  467SOL    HW211506   4.358   1.650   1.142  1.3822  0.3224 -0.0525
  468SOL     OW11507   2.547   0.132   1.101  0.1692  0.2886  0.0614
  468SOL    HW111508   2.630   0.153   1.050 -0.6133  2.2830 -0.4297
  468SOL    HW211509   2.552   0.038   1.135  1.9138 -0.1434 -1.3022
  469SOL     OW11510   9.577   6.080   1.792  0.2672 -0.2244 -0.1877
  469SOL    HW111511   9.584   6.033   1.704 -0.4445  0.7201 -0.7488
  469SOL    HW211512   9.624   6.168   1.786  1.2918 -0.6815  0.7586
  470SOL     OW11513   3.544   3.483   1.677 -1.2494 -0.2747  0.4304
  470SOL    HW111514   3.530   3.562   1.736 -1.5203 -0.5457  0.7376
  470SOL    HW211515   3.469   3.418   1.691 -0.4192 -1.1017  1.0183
  471SOL     OW11516   1.203   0.444   1.573 -0.3744 -0.0521 -0.3051
  471SOL    HW111517   1.274   0.475   1.510  1.0746 -0.4711  1.0991
  471SOL    HW211518   1.245   0.405   1.654 -2.2211  0.1474  0.7741
  472SOL     OW11519   3.625   4.919   2.411  0.8394  0.5025 -0.8272
  472SOL    HW111520   3.602   4.899   2.316 -0.3342  1.6199 -0.7844
  472SOL    HW211521   3.542   4.935   2.463  1.4092 -0.9770  0.6105
  473SOL     OW11522   0.702   2.948   2.443 -0.2021  0.2146  0.2006
  473SOL    HW111523   0.702   3.000   2.358  1.8335 -0.4456 -0.2145
  473SOL    HW211524   0.613   2.903   2.454 -1.7819  3.1766  0.2404
  474SOL     OW11525   0.997   4.784   0.089 -0.0186 -0.7852 -0.2475
  474SOL    HW111526   1.032   4.810  -0.000 -0.9400 -1.9101 -0.9613
  474SOL    HW211527   1.008   4.859   0.153  0.9568 -0.0900 -1.2240
  475SOL     OW11528   1.672   7.303   0.176  0.1207  0.0555 -0.6390
  475SOL    HW111529   1.623   7.356   0.108  0.0994 -0.1601 -0.7929
  475SOL    HW211530   1.655   7.341   0.267  0.3055  0.4639 -0.7715
  476SOL     OW11531   7.525   0.186   0.713  0.3228 -0.5370 -0.3298
  476SOL    HW111532   7.489   0.224   0.798 -1.0927 -0.6746 -0.8548
  476SOL    HW211533   7.611   0.231   0.690 -1.1304  2.1185 -0.7302
  477SOL     OW11534   8.919   8.225   2.523 -0.9241 -0.6578 -0.6574
  477SOL    HW111535   8.933   8.323   2.531  0.1342 -0.8363 -0.1425
  477SOL    HW211536   8.983   8.187   2.456 -1.6000 -0.9381 -1.1483
  478SOL     OW11537   1.808   6.875   0.133  0.1276  0.2327  0.0600
  478SOL    HW111538   1.820   6.925   0.046  0.3869  2.0275  1.0995
  478SOL    HW211539   1.890   6.821   0.151  0.4685  0.6131 -0.3274
  479SOL     OW11540   1.469   1.747   1.464 -0.4509  0.4255  0.2361
  479SOL    HW111541   1.546   1.730   1.402  1.4402  2.2903  1.9964
  479SOL    HW211542   1.411   1.665   1.467  1.1730 -0.8542 -1.5064
  480SOL     OW11543   4.175   9.528   1.343 -0.0640  0.5669 -0.5083
  480SOL    HW111544   4.134   9.470   1.413  0.4321  0.7996 -0.0213
  480SOL    HW211545   4.170   9.624   1.371 -0.5899  0.7345 -1.1622
  481SOL     OW11546   9.204   1.744   1.644 -1.3324 -0.2799  0.3813
  481SOL    HW111547   9.249   1.659   1.671 -1.9416 -0.6354  0.2805
  481SOL    HW211548   9.206   1.809   1.721 -0.8313 -0.3704  0.4426
  482SOL     OW11549   8.867   4.744   0.872  1.2996  0.3128  0.0811
  482SOL    HW111550   8.947   4.761   0.929  0.8078  0.4347  0.7424
  482SOL    HW211551   8.860   4.816   0.803  1.3892  0.6744  0.4436
  483SOL     OW11552   0.305   3.665   0.499 -0.3944  0.9285  0.4572
  483SOL    HW111553   0.273   3.594   0.436  0.6453  0.5556  0.3377
  483SOL    HW211554   0.401   3.687   0.478 -0.3594  1.5323  1.2448
  484SOL     OW11555   1.923   4.344   0.637  0.3090 -0.2316 -0.3236
  484SOL    HW111556   1.856   4.276   0.670 -0.0404  1.2067  2.1079
  484SOL    HW211557   1.958   4.316   0.548 -1.2762 -2.5941 -0.2614
  485SOL     OW11558   2.268   5.172   2.564  0.0084 -0.3830 -0.1142
  485SOL    HW111559   2.296   5.261   2.601  0.5552 -0.5948 -0.0234
  485SOL    HW211560   2.173   5.155   2.590  0.3767 -0.5246  1.2165
  486SOL     OW11561   1.937   9.932   2.569 -0.2677  0.2052 -0.5427
  486SOL    HW111562   1.904   9.975   2.486 -1.4284 -0.0568 -0.2250
  486SOL    HW211563   2.019   9.877   2.549 -0.2570  0.5372 -1.4051
  487SOL     OW11564   0.382   3.373   2.503 -0.1195 -0.6148 -0.0766
  487SOL    HW111565   0.389   3.336   2.411 -0.7329  2.6500 -1.5042
  487SOL    HW211566   0.319   3.451   2.503  0.8733  0.2487  2.8387
  488SOL     OW11567   9.407   4.934   0.125 -0.1883  0.4852 -1.2126
  488SOL    HW111568   9.389   4.926   0.223  0.5860 -0.4409 -1.1409
  488SOL    HW211569   9.338   4.993   0.083 -0.4108  1.0363 -0.0790
  489SOL     OW11570   0.093   3.488   1.537  0.3789  0.7676 -0.1983
  489SOL    HW111571   0.013   3.546   1.550 -0.3569 -0.1188 -0.6760
  489SOL    HW211572   0.114   3.440   1.622 -0.4157 -0.0146 -0.4376
  490SOL     OW11573   9.672   1.225   2.081 -0.1902 -0.0425 -0.3812
  490SOL    HW111574   9.667   1.125   2.088  0.7997 -0.0571  0.2012
  490SOL    HW211575   9.580   1.263   2.084 -0.7176 -1.0508 -2.4149
  491SOL     OW11576   4.504   4.316   1.363 -0.3095 -0.4445 -0.2966
  491SOL    HW111577   4.503   4.410   1.330 -0.7758 -0.5154 -0.4812
  491SOL    HW211578   4.432   4.263   1.318  2.2806 -1.8456 -2.9211
  492SOL     OW11579   9.595   8.120   0.176  0.3337 -0.4317 -0.1587
  492SOL    HW111580   9.527   8.104   0.104 -0.3641  0.6343  0.2394
  492SOL    HW211581   9.563   8.079   0.261 -1.1379  2.3618  0.6967
  493SOL     OW11582   9.360   8.906   0.912  0.0846  0.4973 -0.1847
  493SOL    HW111583   9.371   8.849   0.830 -0.5462 -0.1216  0.1583
  493SOL    HW211584   9.401   8.860   0.990 -1.1601  0.1163  0.2604
  494SOL     OW11585   2.662   5.209   1.399 -0.5963 -0.1911  0.6532
  494SOL    HW111586   2.687   5.304   1.416 -0.2919 -0.0865 -0.3833
  494SOL    HW211587   2.691   5.153   1.477 -0.1489  0.4572  0.9568
  495SOL     OW11588   3.328   9.418   0.183  0.4378 -0.4028 -0.2201
  495SOL    HW111589   3.357   9.328   0.151 -1.3984 -1.4257  0.8970
  495SOL    HW211590   3.254   9.452   0.125 -1.5394 -1.3806  1.6732
  496SOL     OW11591   3.630   5.136   0.803 -0.2790 -0.0241 -0.0520
  496SOL    HW111592   3.536   5.100   0.803  0.0393 -0.8838  0.4188
  496SOL    HW211593   3.694   5.060   0.789  0.4198  0.3055  1.3006
  497SOL     OW11594   2.686   9.871   1.261  0.0368 -0.2205 -0.2302
  497SOL    HW111595   2.594   9.848   1.292  0.6039 -0.1256  1.5802
  497SOL    HW211596   2.735   9.919   1.334  0.7627  1.7486 -1.9764
  498SOL     OW11597   0.451   2.580   1.027 -0.6140 -0.2172 -0.1169
  498SOL    HW111598   0.461   2.567   1.126 -0.5932  1.1442  0.0724
  498SOL    HW211599   0.407   2.669   1.010  2.0853  0.9003 -1.4107
  499SOL     OW11600   9.247   2.249   1.759 -0.0423 -0.1818  0.2000
  499SOL    HW111601   9.221   2.319   1.825 -2.0156  0.3821 -1.1348
  499SOL    HW211602   9.343   2.261   1.734  0.9320 -0.7635  3.3539
  500SOL     OW11603   9.860   9.970   2.302  0.4774 -0.0069  0.3191
  500SOL    HW111604   9.824   9.877   2.308  1.6177 -0.6002 -1.8482
  500SOL    HW211605   9.785  10.035   2.312 -0.2508 -1.1216  2.4557
  501SOL     OW11606   3.761   9.300   2.404  0.1145  0.4749 -0.2966
  501SOL    HW111607   3.723   9.321   2.494  1.2631  1.5945 -0.0601
  501SOL    HW211608   3.779   9.385   2.354  1.1815 -0.0683 -0.8716
  502SOL     OW11609   0.948   0.744   0.466 -0.5450 -0.0072 -0.0637
  502SOL    HW111610   0.953   0.770   0.369 -1.8213 -2.3298 -0.7753
  502SOL    HW211611   0.995   0.657   0.479  1.0471  1.0938  1.7384
  503SOL     OW11612   8.539   1.864   0.944 -0.5460 -0.2125 -0.0367
  503SOL    HW111613   8.587   1.776   0.935 -1.0789 -0.6332  1.0764
  503SOL    HW211614   8.557   1.901   1.035 -2.6706 -0.5817  0.5530
  504SOL     OW11615   1.832   4.561   2.295 -0.3337  0.2318  0.6975
  504SOL    HW111616   1.766   4.616   2.244 -1.3266 -0.3431  1.3577
  504SOL    HW211617   1.917   4.554   2.242 -1.3722 -0.4388 -0.9117
  505SOL     OW11618   3.122   1.377   1.169 -0.2264  0.7069 -0.1216
  505SOL    HW111619   3.070   1.440   1.226  1.5682  1.9487  0.2073
  505SOL    HW211620   3.219   1.380   1.196  0.2880 -0.3344 -1.7754
  506SOL     OW11621   1.263   4.965   0.324 -0.1471 -0.3799 -0.2188
  506SOL    HW111622   1.171   4.979   0.289 -1.3485 -0.2961  2.7834
  506SOL    HW211623   1.320   5.044   0.302 -1.6803  0.9684  0.5483
  507SOL     OW11624   9.643   3.684   0.686  0.1326 -0.2262 -0.0650
  507SOL    HW111625   9.736   3.685   0.649  0.4918 -2.0173  0.7192
  507SOL    HW211626   9.597   3.600   0.655 -0.7253 -0.0500  0.7346
  508SOL     OW11627   9.346   9.161   0.986 -0.2674  0.2407  0.4012
  508SOL    HW111628   9.333   9.148   1.085 -1.5075 -1.2941  0.0512
  508SOL    HW211629   9.343   9.072   0.940 -1.2670  1.0989 -1.2123
  509SOL     OW11630   9.694   3.402   2.185  0.0186 -0.6064 -0.2450
  509SOL    HW111631   9.676   3.373   2.091 -0.7071 -1.3363  0.1122
  509SOL    HW211632   9.664   3.331   2.248 -1.0920  0.6265  0.6318
  510SOL     OW11633   3.890   3.121   1.913  0.3634 -0.6127  0.3398
  510SOL    HW111634   3.892   3.214   1.877 -0.3688 -0.8610 -0.3750
  510SOL    HW211635   3.918   3.057   1.841 -0.7465 -1.0863  0.3051
  511SOL     OW11636   2.243   6.501   2.280 -0.6137  0.0649 -0.2663
  511SOL    HW111637   2.311   6.465   2.345 -0.6139  0.6088  0.0373
  511SOL    HW211638   2.238   6.441   2.201 -0.3435 -0.4085  0.0711
  512SOL     OW11639   0.996   4.667   0.953 -0.6247  0.1450  0.0130
  512SOL    HW111640   0.897   4.662   0.943 -0.7136 -1.9258  1.5158
  512SOL    HW211641   1.039   4.598   0.895 -0.0743  0.8316 -0.4004
  513SOL     OW11642   3.223   1.514   2.539  0.2284  0.7225  0.7592
  513SOL    HW111643   3.248   1.420   2.520 -1.0032  0.7813 -1.2851
  513SOL    HW211644   3.299   1.575   2.517 -0.5593  0.6169 -2.4791
  514SOL     OW11645   7.311   9.797   2.097 -0.4074  0.6026  0.5068
  514SOL    HW111646   7.316   9.847   2.184 -0.3613 -0.5459  1.1721
  514SOL    HW211647   7.241   9.726   2.104  0.5051 -0.3414  0.0327
  515SOL     OW11648   8.625   9.541   1.895 -0.0100  0.4178  0.1505
  515SOL    HW111649   8.563   9.527   1.818 -0.3199 -1.0062  0.6376
  515SOL    HW211650   8.719   9.522   1.866  0.0176  1.0964 -0.1972
  516SOL     OW11651   2.711   4.437   0.280  0.2261 -0.4840  0.0201
  516SOL    HW111652   2.808   4.414   0.278  0.1414 -0.8394 -0.1727
  516SOL    HW211653   2.668   4.395   0.360  0.2550 -0.2362  0.1641
  517SOL     OW11654   1.748   2.721   1.644  0.6000  0.2012  0.2244
  517SOL    HW111655   1.828   2.714   1.705 -0.6858  3.9758  2.5722
  517SOL    HW211656   1.762   2.798   1.581 -1.2087  0.9976  0.7708
  518SOL     OW11657   2.327   8.599   0.380  0.6018  0.0433 -0.4036
  518SOL    HW111658   2.285   8.536   0.315  2.3567 -0.5070 -1.0230
  518SOL    HW211659   2.345   8.686   0.334  1.8871 -0.3631 -0.6728
  519SOL     OW11660   0.683   1.643   0.035 -0.3015  0.9238  0.0775
  519SOL    HW111661   0.740   1.718   0.001 -1.5002  2.2685  0.9670
  519SOL    HW211662   0.588   1.674   0.041 -0.8766 -0.8046  0.0701
  520SOL     OW11663   8.523   1.990   2.109 -0.3779  0.1310  0.0839
  520SOL    HW111664   8.617   1.988   2.144 -0.1939 -0.9452 -0.4722
  520SOL    HW211665   8.510   1.916   2.043 -2.0264 -0.6263  1.2135
  521SOL     OW11666   3.553   1.627   2.530  0.2729  0.6731  0.3093
  521SOL    HW111667   3.607   1.594   2.452  0.4575  1.3469  0.1472
  521SOL    HW211668   3.606   1.695   2.581  1.0120 -1.3415  2.3186
  522SOL     OW11669   8.852   2.813   0.924  0.2433  0.0948  0.4196
  522SOL    HW111670   8.802   2.899   0.939 -1.2744 -0.6636 -0.1742
  522SOL    HW211671   8.933   2.831   0.868 -0.0959  1.1323  0.2490
  523SOL     OW11672   2.410   2.495   1.596  0.7002  0.1702  0.8911
  523SOL    HW111673   2.411   2.404   1.636  0.4796 -0.5828 -0.7707
  523SOL    HW211674   2.428   2.563   1.667 -2.3011 -0.9110  2.8001
  524SOL     OW11675   9.237   5.929   1.049 -0.2360 -0.2523  0.4299
  524SOL    HW111676   9.180   5.996   1.097  0.4658  0.4099  0.3444
  524SOL    HW211677   9.298   5.884   1.114  0.2675  0.1890  0.2688
  525SOL     OW11678   1.418   5.330   0.483  0.5879  0.3751  0.5400
  525SOL    HW111679   1.440   5.428   0.482  0.7187  0.3617  1.9084
  525SOL    HW211680   1.320   5.318   0.497  0.6013  0.3042  0.5710
  526SOL     OW11681   8.165   0.069   1.652 -0.3698 -0.2016  0.4491
  526SOL    HW111682   8.177   0.161   1.689 -1.0412 -0.5213  1.4781
  526SOL    HW211683   8.245   0.013   1.675 -0.6441 -0.3084  1.1457
  527SOL     OW11684   9.223   5.229   2.422 -0.2563  0.4872 -0.8484
  527SOL    HW111685   9.294   5.252   2.490  0.2600  0.8822 -1.5091
  527SOL    HW211686   9.184   5.314   2.386 -0.3239  0.2859 -1.2480
  528SOL     OW11687   0.072   3.618   0.335  0.0895  0.6150  0.0418
  528SOL    HW111688   0.090   3.527   0.372 -0.1964  0.8014  0.6512
  528SOL    HW211689   0.014   3.611   0.255 -1.5836  0.4007  1.2556
  529SOL     OW11690   3.189   8.216   0.599  0.1538 -0.1492  0.4075
  529SOL    HW111691   3.119   8.145   0.612  0.0722 -0.1896 -0.2180
  529SOL    HW211692   3.253   8.215   0.676  0.0844 -0.8272  0.4585
  530SOL     OW11693   3.455   3.856   0.265 -0.3678 -0.0544  0.2388
  530SOL    HW111694   3.455   3.954   0.244  0.4986  0.1332  1.1058
  530SOL    HW211695   3.419   3.805   0.186 -1.8402  1.0345  0.1833
  531SOL     OW11696   5.094   3.382   1.206  0.4751 -0.0022 -0.4244
  531SOL    HW111697   5.109   3.474   1.243  3.2795 -0.0704 -1.2888
  531SOL    HW211698   5.019   3.385   1.139  0.4704  1.6368 -0.3703
  532SOL     OW11699   2.388   9.097   0.969 -0.2416  0.5743 -0.1764
  532SOL    HW111700   2.438   9.073   1.052 -2.1185 -0.7117  0.6264
  532SOL    HW211701   2.432   9.055   0.890  1.3580  1.5229  0.1920
  533SOL     OW11702   8.413   0.008   1.279  0.0855 -0.7512  0.2911
  533SOL    HW111703   8.491   0.039   1.332  0.2670  0.4349 -0.6528
  533SOL    HW211704   8.341   0.078   1.280 -0.8243 -1.6782  0.8557
  534SOL     OW11705   2.092   7.361   0.284  0.1692 -0.0129 -0.1259
  534SOL    HW111706   2.096   7.313   0.196 -0.5709  0.0725 -0.2090
  534SOL    HW211707   2.061   7.298   0.355  1.5961 -0.3051  0.2386
  535SOL     OW11708   8.984   6.884   0.560  0.1604  0.0232  0.2806
  535SOL    HW111709   9.058   6.951   0.553 -1.2817  1.3722 -2.9024
  535SOL    HW211710   8.898   6.931   0.578 -0.8018 -0.9704 -1.5789
  536SOL     OW11711   1.052   5.419   0.842 -0.1868 -0.0536  0.1746
  536SOL    HW111712   1.151   5.430   0.832 -0.1753 -1.5268 -1.6547
  536SOL    HW211713   1.033   5.327   0.877 -0.9142  0.3770  0.9380
  537SOL     OW11714   7.819   9.056   0.924  0.1759  0.8223 -0.2120
  537SOL    HW111715   7.800   9.011   1.012 -0.1265 -1.3563 -1.3611
  537SOL    HW211716   7.875   8.996   0.867  2.9122  3.4668 -0.3994
  538SOL     OW11717   2.652   2.361   0.982  0.9290  0.3815  0.3475
  538SOL    HW111718   2.709   2.279   0.971  1.4098  0.9357 -1.4227
  538SOL    HW211719   2.606   2.358   1.070  2.4011 -0.9026  1.0908
  539SOL     OW11720   1.263   2.269   1.128 -0.1299 -0.2427  0.0437
  539SOL    HW111721   1.301   2.350   1.084 -0.1967 -0.1203  0.2124
  539SOL    HW211722   1.333   2.197   1.130  0.0589 -0.0538  0.2608
  540SOL     OW11723   0.223   1.041   1.506 -0.0189 -0.0521  0.2005
  540SOL    HW111724   0.148   1.072   1.564  0.1083  0.1377  0.2640
  540SOL    HW211725   0.261   0.957   1.544 -0.0680 -0.0394  0.2794
  541SOL     OW11726   0.671   1.363   0.047 -0.3914  0.1934 -0.4961
  541SOL    HW111727   0.678   1.366  -0.053  0.7154  1.2284 -0.4108
  541SOL    HW211728   0.629   1.448   0.080  2.1558  1.2870  0.0938
  542SOL     OW11729   9.744   6.802   1.856 -0.0262 -0.6520 -0.6972
  542SOL    HW111730   9.830   6.780   1.902  0.0457  0.1131 -0.4653
  542SOL    HW211731   9.761   6.823   1.760  0.0354 -0.5457 -0.6621
  543SOL     OW11732   9.383   1.505   2.488 -0.1495 -0.2942 -0.0104
  543SOL    HW111733   9.440   1.431   2.451  1.3526  0.3196  1.0449
  543SOL    HW211734   9.380   1.499   2.588  1.2712  1.9802  0.1920
  544SOL     OW11735   7.749   8.942   2.493 -0.2370 -0.4663 -0.2792
  544SOL    HW111736   7.724   9.025   2.544  0.0952  0.2073 -1.1828
  544SOL    HW211737   7.711   8.862   2.538 -0.4624  0.1717  0.6835
  545SOL     OW11738   9.899   8.986   0.034  0.3596 -0.1167  0.1947
  545SOL    HW111739   9.892   8.945   0.125 -0.2256  0.3519  0.3590
  545SOL    HW211740   9.935   9.079   0.043 -1.9698  0.8165  0.1692
  546SOL     OW11741   1.475   8.247   0.057 -0.2882  0.1528 -0.8523
  546SOL    HW111742   1.562   8.282   0.092  0.1941 -1.3604 -0.4785
  546SOL    HW211743   1.488   8.154   0.023 -1.9891 -0.5280  0.2452
  547SOL     OW11744   9.912   4.110   1.404  0.0705 -0.1635  0.2840
  547SOL    HW111745   9.960   4.031   1.440 -1.8365 -1.1561  0.7432
  547SOL    HW211746   9.904   4.180   1.475  0.2596 -0.2753  0.4125
  548SOL     OW11747   3.176   9.146   0.321 -0.4936  0.3426  0.2693
  548SOL    HW111748   3.109   9.205   0.276  0.4824 -0.1500 -1.8690
  548SOL    HW211749   3.267   9.162   0.282  0.1770 -0.9363  1.2605
  549SOL     OW11750   4.441   3.846   1.091  0.1168  0.2551 -0.1606
  549SOL    HW111751   4.345   3.872   1.101  0.3278  1.1072 -0.2715
  549SOL    HW211752   4.463   3.773   1.156 -0.6248 -0.0147 -0.2046
  550SOL     OW11753   7.938   9.369   0.285  0.0621 -0.2620 -0.1086
  550SOL    HW111754   7.850   9.321   0.286  0.3631 -0.8193  0.5538
  550SOL    HW211755   8.010   9.306   0.315  0.8401 -0.0904 -1.5577
  551SOL     OW11756   2.000   9.855   2.145  0.0363  0.2428 -0.3739
  551SOL    HW111757   1.921   9.821   2.094 -0.2005  0.7976 -0.3768
  551SOL    HW211758   2.065   9.780   2.161 -1.3753 -0.6694  1.2873
  552SOL     OW11759   1.658   2.016   0.182  0.0242  0.7033  0.0176
  552SOL    HW111760   1.668   1.972   0.271  1.9192  0.3150 -0.3673
  552SOL    HW211761   1.662   1.947   0.110  1.9977  1.3860 -0.5387
  553SOL     OW11762   9.744   5.313   1.927  0.2158 -0.1325  0.1820
  553SOL    HW111763   9.755   5.279   2.020  0.4334  1.5224  0.7794
  553SOL    HW211764   9.816   5.379   1.907 -0.4409  0.2938 -0.7980
  554SOL     OW11765   3.067   5.582   2.394  0.4444 -0.0234  0.0077
  554SOL    HW111766   3.162   5.558   2.414  0.2253 -0.0800  0.9808
  554SOL    HW211767   3.007   5.546   2.465 -0.1920  0.9361 -0.0286
  555SOL     OW11768   3.982   4.815   0.263  0.2670 -0.5148 -0.4090
  555SOL    HW111769   3.909   4.878   0.238 -0.6229 -1.9267 -1.4483
  555SOL    HW211770   4.071   4.853   0.235 -0.3985 -0.4546 -2.5190
  556SOL     OW11771   2.584   7.881   1.231 -0.2381 -0.0476 -0.0457
  556SOL    HW111772   2.539   7.916   1.313  3.0633  1.0151  1.3813
  556SOL    HW211773   2.624   7.792   1.251 -3.5292 -2.0696 -1.9745
  557SOL     OW11774   3.684   4.316   1.248 -0.0959 -0.2337  0.2535
  557SOL    HW111775   3.720   4.343   1.159 -1.5589 -0.3074 -0.3813
  557SOL    HW211776   3.584   4.317   1.245 -0.1652 -1.7048  1.4509
  558SOL     OW11777   2.943   7.685   0.420 -0.0764 -0.3212  0.0334
  558SOL    HW111778   2.867   7.625   0.394  0.2773 -1.7244  2.1190
  558SOL    HW211779   2.906   7.770   0.458 -0.6048 -0.2685 -0.5960
  559SOL     OW11780   1.810   9.348   2.370 -0.0650  0.1675  0.4468
  559SOL    HW111781   1.838   9.426   2.425 -1.3072  0.1241  1.1494
  559SOL    HW211782   1.736   9.299   2.416 -0.6305 -0.2800 -0.9176
  560SOL     OW11783   8.169   9.286   0.073  0.0341 -0.0257  0.0061
  560SOL    HW111784   8.115   9.370   0.078  0.3735  0.1790  0.2545
  560SOL    HW211785   8.223   9.276   0.156  0.8487  0.0960 -0.5017
  561SOL     OW11786   9.072   5.806   2.388  0.6004 -0.6850 -0.5650
  561SOL    HW111787   9.146   5.861   2.426  0.6708 -0.4030 -1.1049
  561SOL    HW211788   8.993   5.809   2.449  0.8432 -0.5435 -0.2568
  562SOL     OW11789   2.657   3.741   0.305 -0.0466  0.4302 -0.0654
  562SOL    HW111790   2.656   3.839   0.325 -1.9173  0.6356 -1.0347
  562SOL    HW211791   2.642   3.727   0.207 -1.4389 -0.8837  0.3259
  563SOL     OW11792   3.809   3.730   1.514 -1.0967 -0.2589  0.1680
  563SOL    HW111793   3.716   3.757   1.490 -0.7098  0.4840 -0.5572
  563SOL    HW211794   3.845   3.670   1.443 -0.5744  0.5089 -0.2359
  564SOL     OW11795   0.834   9.314   1.293 -0.2974 -0.1123 -0.0575
  564SOL    HW111796   0.787   9.291   1.208  0.2797 -0.4646 -0.2809
  564SOL    HW211797   0.767   9.319   1.368 -0.6574 -0.8791 -0.3233
  565SOL     OW11798   1.918   0.126   0.532  0.6932 -0.4201  0.0131
  565SOL    HW111799   1.914   0.196   0.603  2.8320 -0.7781  0.5380
  565SOL    HW211800   1.993   0.146   0.469  1.7970 -2.5115  0.5631
  566SOL     OW11801   1.589   8.680   1.249  0.2443  0.2360 -0.2023
  566SOL    HW111802   1.550   8.685   1.158 -0.2868  0.1883  0.0216
  566SOL    HW211803   1.518   8.659   1.315  0.5527  0.6526  0.2741
  567SOL     OW11804   3.035   4.654   2.522  0.2682  0.1601  0.4766
  567SOL    HW111805   3.030   4.574   2.463  0.4159  0.1162  0.5244
  567SOL    HW211806   2.970   4.723   2.490 -1.7243 -0.9819  1.9581
  568SOL     OW11807   3.754   8.019   0.646 -0.1139  0.1640 -0.5770
  568SOL    HW111808   3.695   8.060   0.715 -0.6581 -0.0904 -0.8915
  568SOL    HW211809   3.841   7.993   0.688 -1.3125 -2.1230  0.5313
  569SOL     OW11810   0.689   6.700   0.293 -0.1971 -0.4778  0.4974
  569SOL    HW111811   0.735   6.789   0.288  2.0436 -1.5585  1.4463
  569SOL    HW211812   0.671   6.678   0.389 -4.1955  0.6388  0.0911
  570SOL     OW11813   9.272   4.858   0.744  0.3756  0.0916 -0.5993
  570SOL    HW111814   9.179   4.863   0.707 -0.4380  0.8152  1.4559
  570SOL    HW211815   9.281   4.778   0.803  0.9456  0.2390 -0.4824
  571SOL     OW11816   9.526   4.504   1.956 -0.0014 -0.0434  0.6155
  571SOL    HW111817   9.496   4.521   2.050 -0.7447 -0.9917  0.5593
  571SOL    HW211818   9.446   4.500   1.896  0.3610 -0.9335  0.1915
  572SOL     OW11819   2.798   0.582   1.863 -0.2694  0.0728 -0.2492
  572SOL    HW111820   2.860   0.574   1.942 -1.8067  0.5067  1.0282
  572SOL    HW211821   2.766   0.677   1.855  1.0545  0.3822 -2.3373
  573SOL     OW11822   2.576   0.939   0.284  0.2538 -0.0899  0.3620
  573SOL    HW111823   2.580   0.842   0.307 -1.4834  0.0330  1.2274
  573SOL    HW211824   2.528   0.951   0.197 -0.8493  0.0915  0.9861
  574SOL     OW11825   1.785   7.105   1.732 -0.3198 -0.0966  0.7410
  574SOL    HW111826   1.816   7.191   1.691  0.6443  0.2352  2.1125
  574SOL    HW211827   1.795   7.111   1.832 -1.3225 -1.3811  0.9220
  575SOL     OW11828   1.521   7.883   1.626 -0.3394  0.4261 -0.2809
  575SOL    HW111829   1.492   7.788   1.618 -0.1454  0.2765  0.6878
  575SOL    HW211830   1.490   7.920   1.714 -0.1844  1.1750 -0.5355
  576SOL     OW11831   9.990   5.595   2.381  0.0016 -0.2706  0.4660
  576SOL    HW111832   9.961   5.637   2.467  0.3503  0.8085  0.0653
  576SOL    HW211833   9.913   5.544   2.341 -1.1409  1.9006 -0.1941
  577SOL     OW11834   1.456   4.458   0.698 -0.1022  0.4367 -0.1951
  577SOL    HW111835   1.491   4.404   0.621  2.0201  0.3475  0.8128
  577SOL    HW211836   1.473   4.555   0.681  0.9651  0.3703  0.4345
  578SOL     OW11837   2.489   5.998   0.516  0.3422  0.3273 -0.3373
  578SOL    HW111838   2.423   5.983   0.590  0.8602  0.0670  0.0703
  578SOL    HW211839   2.483   5.922   0.451 -0.9561  1.1444 -1.2043
  579SOL     OW11840   0.452   9.332   0.487  0.1458  0.0767  0.5024
  579SOL    HW111841   0.542   9.361   0.519  0.6975  0.9990 -1.7960
  579SOL    HW211842   0.459   9.243   0.442 -0.1699 -0.0385  0.6771
  580SOL     OW11843   9.497   1.945   0.073  0.1753  0.1060  0.0414
  580SOL    HW111844   9.509   2.011  -0.001 -0.9623  1.1491  0.7634
  580SOL    HW211845   9.441   1.869   0.042 -1.2432  1.0958  0.1377
  581SOL     OW11846   1.686   4.862   0.473  0.3836 -0.0241 -0.1870
  581SOL    HW111847   1.648   4.791   0.415 -0.8907 -1.2397  2.0616
  581SOL    HW211848   1.617   4.891   0.540  1.2516  2.5332 -0.3255
  582SOL     OW11849   0.887   9.276   1.826  0.2029 -0.4822 -0.5540
  582SOL    HW111850   0.928   9.280   1.917 -0.5897  1.9335 -0.2509
  582SOL    HW211851   0.798   9.231   1.831 -0.1138  0.2021 -0.0158
  583SOL     OW11852   0.625   0.974   1.920  0.3228 -0.0055 -0.1121
  583SOL    HW111853   0.660   0.943   2.008 -0.8561 -0.8063  0.0898
  583SOL    HW211854   0.601   0.895   1.864 -0.5901  0.5226 -0.4755
  584SOL     OW11855   0.471   9.164   1.989 -0.5417 -0.1970  0.0130
  584SOL    HW111856   0.417   9.246   1.970  0.5533  0.7992  1.1071
  584SOL    HW211857   0.554   9.165   1.932 -0.6973 -0.7276 -0.2257
  585SOL     OW11858   0.973   6.392   0.078  0.1004 -0.0661 -0.3022
  585SOL    HW111859   1.033   6.322   0.116  0.5726 -0.3696 -1.5934
  585SOL    HW211860   0.984   6.477   0.131  2.2047  0.0965 -0.9580
  586SOL     OW11861   3.877   0.698   0.985  0.4672  0.1315 -0.0622
  586SOL    HW111862   3.883   0.725   1.081  0.2207  0.9296 -0.2699
  586SOL    HW211863   3.782   0.685   0.960  0.4902  0.6508 -0.4043
  587SOL     OW11864   4.401   4.470   0.244 -0.8112 -0.2142 -0.3656
  587SOL    HW111865   4.497   4.498   0.251 -0.9973 -0.1125  2.1115
  587SOL    HW211866   4.393   4.391   0.183  0.6477  0.6525 -1.7142
  588SOL     OW11867   2.163   3.541   1.399  0.6379  0.4113  0.0722
  588SOL    HW111868   2.113   3.520   1.483  0.1743  1.9389  0.1916
  588SOL    HW211869   2.183   3.456   1.350 -1.6795 -0.2602  0.2365
  589SOL     OW11870   1.364   1.375   0.866 -0.1531 -0.0756  0.6116
  589SOL    HW111871   1.463   1.388   0.879 -0.1463  0.9863 -0.3333
  589SOL    HW211872   1.331   1.443   0.800 -1.3341 -1.0810  0.1620
  590SOL     OW11873   0.948   4.063   1.695 -0.7569 -0.0673 -0.5449
  590SOL    HW111874   0.859   4.109   1.692 -0.4969  0.4895  0.3634
  590SOL    HW211875   1.020   4.130   1.708  0.0439 -0.2333 -3.5901
  591SOL     OW11876   9.433   7.016   2.180 -0.4010  0.0145  0.4841
  591SOL    HW111877   9.454   6.994   2.275  0.3332 -3.1132 -0.3211
  591SOL    HW211878   9.346   6.974   2.155 -0.5838  0.8107 -0.2232
  592SOL     OW11879   2.448   3.473   0.821 -0.2110 -0.3516  0.6260
  592SOL    HW111880   2.403   3.507   0.739 -1.8761 -3.0472  0.3547
  592SOL    HW211881   2.543   3.505   0.823 -0.4866  0.7047 -1.7478
  593SOL     OW11882   2.659   3.171   0.828  0.1301 -0.1480  0.0448
  593SOL    HW111883   2.636   3.074   0.832 -0.7857  0.0429 -0.4970
  593SOL    HW211884   2.691   3.202   0.918 -1.6841 -0.4317  0.8158
  594SOL     OW11885   1.307   1.988   0.055  0.0594  0.1147  0.0049
  594SOL    HW111886   1.274   2.014   0.146  0.6202 -1.1920  0.6004
  594SOL    HW211887   1.298   2.065  -0.008  1.8942  1.8404  1.7731
  595SOL     OW11888   9.693   3.615   0.311 -0.8257  0.0084  0.1359
  595SOL    HW111889   9.683   3.536   0.372 -0.1427  0.0130  0.2511
  595SOL    HW211890   9.606   3.630   0.263 -1.0870 -0.5568  0.4186
  596SOL     OW11891   3.154   0.751   1.506 -0.0034 -0.4140 -0.3060
  596SOL    HW111892   3.214   0.831   1.512  0.6741 -1.0016  0.9098
  596SOL    HW211893   3.197   0.681   1.449 -0.1623 -0.2922 -0.5763
  597SOL     OW11894   0.211   8.763   2.490 -0.4742 -0.1010 -0.1201
  597SOL    HW111895   0.191   8.861   2.487 -1.1042 -0.2363 -0.4521
  597SOL    HW211896   0.290   8.743   2.433  0.8797  0.4977  1.4968
  598SOL     OW11897   2.651   4.019   0.357 -0.4156 -0.4857 -0.0944
  598SOL    HW111898   2.666   4.067   0.443 -0.9957 -1.5331  0.6144
  598SOL    HW211899   2.716   4.050   0.288 -0.0265  0.4442  0.6955
  599SOL     OW11900   0.842   7.850   0.422 -0.2246 -0.0543  0.0903
  599SOL    HW111901   0.846   7.810   0.330 -0.2121  0.0739  0.0349
  599SOL    HW211902   0.920   7.911   0.435 -0.0814 -0.2783  0.2836
  600SOL     OW11903   9.391   7.220   0.376 -0.1729  0.1070 -0.3450
  600SOL    HW111904   9.396   7.299   0.436 -2.1724 -0.8615  1.1900
  600SOL    HW211905   9.446   7.145   0.414 -1.3187 -0.4592  0.2208
  601SOL     OW11906   0.876   2.928   0.704 -0.2850 -0.1266 -0.2871
  601SOL    HW111907   0.973   2.911   0.720 -0.4000 -0.7761 -0.2349
  601SOL    HW211908   0.854   3.023   0.724  0.4422  0.1468 -0.7990
  602SOL     OW11909   8.913   9.291   1.084  0.1363  0.4478  0.3917
  602SOL    HW111910   8.838   9.290   1.151 -0.8876  2.6420 -0.6765
  602SOL    HW211911   8.957   9.381   1.085  2.2434 -0.5478  0.4047
  603SOL     OW11912   3.372   5.242   1.988  0.1644 -0.1517 -0.1437
  603SOL    HW111913   3.449   5.189   2.024  0.8291  0.8476 -0.0608
  603SOL    HW211914   3.352   5.318   2.051 -2.7202 -2.0241  1.2805
  604SOL     OW11915   9.645   1.005   1.714 -0.1681 -0.1487 -0.2422
  604SOL    HW111916   9.732   1.038   1.750 -0.7071  1.6902 -0.5785
  604SOL    HW211917   9.594   0.958   1.786 -0.1231  1.2369  0.7012
  605SOL     OW11918   9.534   1.398   0.374  0.3992  0.4108  0.1382
  605SOL    HW111919   9.495   1.484   0.340  0.6679  0.6463  0.4316
  605SOL    HW211920   9.611   1.372   0.316 -0.6019 -0.4024 -0.8542
  606SOL     OW11921   3.892   4.238   1.466  0.2106 -0.2383  0.5723
  606SOL    HW111922   3.848   4.160   1.423 -1.3773  1.0767 -0.2494
  606SOL    HW211923   3.835   4.320   1.455  2.5594  1.3963  0.0364
  607SOL     OW11924   7.969   0.560   0.566  0.5573  0.3486  0.4931
  607SOL    HW111925   8.030   0.619   0.618 -1.3652  1.0348  2.0229
  607SOL    HW211926   7.913   0.615   0.505  0.9218 -0.1978 -0.3367
  608SOL     OW11927   0.172   6.628   1.686 -0.0707  0.3703 -0.3571
  608SOL    HW111928   0.189   6.714   1.734  0.6805 -1.3333  2.5451
  608SOL    HW211929   0.260   6.588   1.659 -0.2251 -0.8763  0.9063
  609SOL     OW11930   3.509   4.684   0.169  0.2674 -0.0893  0.6629
  609SOL    HW111931   3.603   4.653   0.160  0.0803 -0.9188  1.5409
  609SOL    HW211932   3.485   4.695   0.265 -0.4942  0.2639  0.4459
  610SOL     OW11933   1.992   0.813   0.326 -0.1870 -0.3945  0.3527
  610SOL    HW111934   1.894   0.799   0.341 -0.1808  0.4851  1.2802
  610SOL    HW211935   2.009   0.909   0.305  0.9263  0.4311  4.4252
  611SOL     OW11936   9.686   5.578   1.592  0.2618 -0.2824 -0.1636
  611SOL    HW111937   9.627   5.584   1.512  0.4116 -0.6795 -0.3031
  611SOL    HW211938   9.636   5.535   1.667  0.8627 -2.0108 -0.7474
  612SOL     OW11939   1.831   2.721   2.300  0.3475  0.3288  0.1669
  612SOL    HW111940   1.800   2.790   2.365 -1.4103 -0.2229 -0.0706
  612SOL    HW211941   1.785   2.733   2.212  0.3375 -0.8723 -0.0070
  613SOL     OW11942   3.678   8.860   0.047  0.9939  0.3869 -0.4662
  613SOL    HW111943   3.760   8.803   0.044  0.0753 -0.9109 -1.4536
  613SOL    HW211944   3.667   8.906  -0.041 -2.2681 -3.7091 -2.3344
  614SOL     OW11945   3.674   0.656   0.072  0.0867 -0.5507  0.4155
  614SOL    HW111946   3.621   0.575   0.094 -0.6409 -0.0133  0.6543
  614SOL    HW211947   3.732   0.638  -0.008 -0.2896 -1.1984  0.2901
  615SOL     OW11948   9.440   9.552   2.490  0.0975 -0.2068  0.2602
  615SOL    HW111949   9.423   9.481   2.422  2.1136 -1.6356  1.2149
  615SOL    HW211950   9.392   9.528   2.575  0.5825 -0.3049  0.5066
  616SOL     OW11951   1.727   9.723   1.733 -0.2735  0.0069  0.0131
  616SOL    HW111952   1.758   9.639   1.689 -0.2970  0.4698 -0.9087
  616SOL    HW211953   1.684   9.782   1.664 -2.6945 -0.3837  1.1368
  617SOL     OW11954   8.987   0.919   1.695  0.0154 -0.4467 -0.6333
  617SOL    HW111955   8.924   0.986   1.734  1.1885  0.9316 -1.0670
  617SOL    HW211956   9.063   0.905   1.758  1.0124  0.4635 -1.6288
  618SOL     OW11957   9.758   8.051   1.558 -0.0271 -0.1924  0.1393
  618SOL    HW111958   9.803   7.986   1.619  0.1503  0.6976  0.9509
  618SOL    HW211959   9.667   8.072   1.593 -0.6863 -1.1816 -0.9453
  619SOL     OW11960   1.815   3.201   1.596  0.2799 -0.4075  0.2102
  619SOL    HW111961   1.820   3.210   1.696 -0.0705  0.5190  0.1546
  619SOL    HW211962   1.779   3.286   1.558  0.0754 -0.8979 -0.6802
  620SOL     OW11963   3.249   4.204   1.664  0.0219  0.0056  0.0796
  620SOL    HW111964   3.284   4.298   1.669 -2.6569  1.0577 -0.2016
  620SOL    HW211965   3.265   4.167   1.573 -0.2724  0.7265 -0.2641
  621SOL     OW11966   1.352   5.416   1.472  0.0967 -0.4180 -0.2825
  621SOL    HW111967   1.442   5.405   1.514  1.0020 -0.2631 -2.1205
  621SOL    HW211968   1.302   5.488   1.519  1.5163  0.5094 -0.1445
  622SOL     OW11969   1.221   5.169   1.825 -0.0079  0.2345  0.2620
  622SOL    HW111970   1.265   5.257   1.815 -0.4156  0.2818 -1.2431
  622SOL    HW211971   1.122   5.182   1.838  0.2204  0.0790  2.2327
  623SOL     OW11972   1.163   8.947   2.366  0.8251  0.6309  0.0910
  623SOL    HW111973   1.139   8.934   2.269 -0.8010 -1.5613  0.7554
  623SOL    HW211974   1.246   8.895   2.386  0.5054  0.1432  0.1511
  624SOL     OW11975   2.320   8.588   1.388  0.3439 -0.5775 -0.5710
  624SOL    HW111976   2.349   8.548   1.475 -0.6094 -1.1332 -0.4999
  624SOL    HW211977   2.400   8.601   1.329  1.0337  0.0898  0.4956
  625SOL     OW11978   9.327   6.931   0.204  0.3235  0.0053  0.4336
  625SOL    HW111979   9.327   6.883   0.291 -0.4855  0.1987  0.5470
  625SOL    HW211980   9.249   6.994   0.200  0.3140 -0.0455 -0.4478
  626SOL     OW11981   9.246   3.733   1.916 -0.6849 -0.0359  0.0140
  626SOL    HW111982   9.261   3.634   1.917 -0.0147  0.0590 -0.3970
  626SOL    HW211983   9.196   3.760   1.998 -2.3880 -0.9468 -0.7006
  627SOL     OW11984   9.327   8.735   0.664 -0.3233 -0.5812 -0.2928
  627SOL    HW111985   9.363   8.825   0.643  0.0452 -0.3815  1.1016
  627SOL    HW211986   9.398   8.666   0.649 -0.5542 -0.6252 -1.2013
  628SOL     OW11987   1.533   3.697   1.389 -0.0933  0.3603  0.3457
  628SOL    HW111988   1.593   3.705   1.310 -0.3751  0.9039  0.1891
  628SOL    HW211989   1.447   3.655   1.361 -0.3578  0.9430  0.2776
  629SOL     OW11990   0.519   8.458   1.890 -0.7391 -0.5669  0.0728
  629SOL    HW111991   0.560   8.546   1.917  0.5817 -1.9269  2.7195
  629SOL    HW211992   0.447   8.434   1.954 -0.2237 -2.0260  0.1140
  630SOL     OW11993   9.644   5.226   2.189  0.1571  0.5219  0.3548
  630SOL    HW111994   9.547   5.207   2.203 -0.5153  3.0657 -0.6979
  630SOL    HW211995   9.688   5.145   2.150 -2.0746  0.2000 -1.6164
  631SOL     OW11996   1.560   5.561   2.251 -0.1684  0.2342 -0.2925
  631SOL    HW111997   1.479   5.537   2.304  0.6298 -0.0516  0.8263
  631SOL    HW211998   1.546   5.650   2.208  0.3692  2.0582  3.0782
  632SOL     OW11999   4.541   2.500   1.147 -0.3942 -0.2530 -0.0248
  632SOL    HW112000   4.525   2.463   1.056 -0.0501 -0.2043 -0.1059
  632SOL    HW212001   4.624   2.556   1.146 -0.2764 -0.4197  0.3661
  633SOL     OW12002   8.178   8.066   2.563  0.1640 -0.1209 -0.1487
  633SOL    HW112003   8.150   8.105   2.650  0.2809  0.0991 -0.2099
  633SOL    HW212004   8.263   8.014   2.574 -2.0157 -3.6940  0.7768
  634SOL     OW12005   8.694   8.250   0.207 -0.2457 -0.4785  0.2798
  634SOL    HW112006   8.782   8.222   0.248 -0.0732 -0.0281  0.2136
  634SOL    HW212007   8.701   8.344   0.173 -0.4617 -0.7637 -0.5781
  635SOL     OW12008   8.248   1.375   0.876 -0.1050 -0.1831 -0.5955
  635SOL    HW112009   8.223   1.350   0.969  0.6187 -1.7909 -0.8213
  635SOL    HW212010   8.326   1.321   0.846  0.6918  1.4543 -1.5839
  636SOL     OW12011   8.041   0.529   1.836  0.0496  0.2303 -0.1551
  636SOL    HW112012   8.027   0.514   1.934 -0.5167 -2.6747 -0.6291
  636SOL    HW212013   7.954   0.556   1.794  0.4873  2.3663  0.2632
  637SOL     OW12014   1.175   5.586   1.625  0.3327 -0.2214  0.2649
  637SOL    HW112015   1.133   5.652   1.561  0.9770 -0.3449 -0.2907
  637SOL    HW212016   1.116   5.505   1.631  0.9089 -0.7710 -1.1945
  638SOL     OW12017   0.539   5.274   1.920 -0.6128 -0.2390  0.4398
  638SOL    HW112018   0.441   5.289   1.904 -0.6646 -2.3176 -1.3131
  638SOL    HW212019   0.552   5.188   1.970  0.3151  0.2971  1.1529
  639SOL     OW12020   1.104   8.073   0.063  0.2662  0.2640  0.0039
  639SOL    HW112021   1.135   8.153   0.113 -1.2893  0.7746  0.1776
  639SOL    HW212022   1.005   8.076   0.052  0.3906 -0.6434 -1.7070
  640SOL     OW12023   3.179   4.957   0.759  0.2258  0.0370 -0.6727
  640SOL    HW112024   3.187   5.023   0.684  0.6047 -1.6694 -2.1752
  640SOL    HW212025   3.098   4.900   0.744  0.8993 -1.0143 -0.3586
  641SOL     OW12026   0.158   0.430   1.411 -0.1578 -0.2991 -0.1094
  641SOL    HW112027   0.099   0.456   1.488 -1.0381 -0.6130 -0.6705
  641SOL    HW212028   0.191   0.513   1.366  0.3568 -0.1145  0.5996
  642SOL     OW12029   0.140   8.159   0.651  0.4708  0.1525 -0.0399
  642SOL    HW112030   0.114   8.184   0.558  0.4041  0.0776 -0.0409
  642SOL    HW212031   0.152   8.242   0.706  1.1985  0.2311 -0.3006
  643SOL     OW12032   0.408   6.281   0.396 -0.3172 -0.1269  0.2648
  643SOL    HW112033   0.473   6.340   0.349 -1.5417  1.3980  0.4560
  643SOL    HW212034   0.316   6.298   0.361 -0.6620 -2.0866  0.1731
  644SOL     OW12035   0.729   2.111   1.250  0.1024  0.4777 -0.1631
  644SOL    HW112036   0.785   2.130   1.330 -0.5533  0.7334  0.2372
  644SOL    HW212037   0.669   2.189   1.231  1.2190  0.9905 -1.7305
  645SOL     OW12038   8.661   3.036   1.256  0.3959 -0.2036  0.0270
  645SOL    HW112039   8.629   2.980   1.332  0.8383 -1.9550 -1.0678
  645SOL    HW212040   8.761   3.030   1.250  0.5981  1.8802  0.8006
  646SOL     OW12041   8.850   4.356   1.543  0.0587  0.6001 -0.0831
  646SOL    HW112042   8.911   4.374   1.620 -0.1035  0.1155  0.1606
  646SOL    HW212043   8.807   4.266   1.555  0.4125  0.3017 -0.9881
  647SOL     OW12044   9.918   1.307   2.193 -0.9458 -0.5965 -0.0807
  647SOL    HW112045   9.831   1.267   2.163  0.0395 -1.5835 -1.7008
  647SOL    HW212046   9.981   1.235   2.220 -1.2804  0.2148  3.0844
  648SOL     OW12047   3.507   8.068   1.937  0.3219  0.7222  0.4553
  648SOL    HW112048   3.585   8.114   1.981  0.0633 -0.4001  2.1254
  648SOL    HW212049   3.482   7.987   1.990 -1.3313  0.4907 -0.6531
  649SOL     OW12050   3.224   2.077   0.703 -0.0199 -0.2014  0.2206
  649SOL    HW112051   3.289   2.152   0.716 -2.3227  2.1399 -1.3256
  649SOL    HW212052   3.239   2.036   0.613 -0.7445  0.4265 -0.1916
  650SOL     OW12053   3.188   3.598   1.086  0.0539  0.1229  0.1719
  650SOL    HW112054   3.228   3.688   1.098  1.3205 -0.5529  1.1445
  650SOL    HW212055   3.199   3.545   1.170  1.1413 -1.6344 -1.0482
  651SOL     OW12056   7.384   0.615   0.872  0.0829  0.0994 -0.0066
  651SOL    HW112057   7.467   0.648   0.828  0.0871  0.4181  0.2313
  651SOL    HW212058   7.388   0.516   0.881 -0.5038 -0.0992 -1.8879
  652SOL     OW12059   9.833   5.002   1.556 -0.4844 -0.2129  0.2549
  652SOL    HW112060   9.927   5.017   1.527 -0.1416 -0.2004  1.3571
  652SOL    HW212061   9.814   4.904   1.562 -0.5643 -0.2158  0.0096
  653SOL     OW12062   0.028   0.081   0.638  0.5095 -0.4210  0.4153
  653SOL    HW112063   0.114   0.118   0.672 -0.3519  1.2508  0.8608
  653SOL    HW212064   0.010  -0.007   0.682  1.7120 -0.5145  0.7379
  654SOL     OW12065   1.973   5.022   0.595 -0.0486 -0.3927 -0.6015
  654SOL    HW112066   2.013   4.932   0.580  2.0762  0.6686 -1.3864
  654SOL    HW212067   2.035   5.093   0.563 -1.6021  1.3875  0.1970
  655SOL     OW12068   0.499   6.373   2.525  0.0943 -0.2357 -0.9056
  655SOL    HW112069   0.598   6.369   2.514  0.2543  2.9425 -0.8751
  655SOL    HW212070   0.469   6.468   2.530 -3.0581 -1.1185 -1.7663
  656SOL     OW12071   2.334   4.328   0.387 -0.6589  0.0050  0.6978
  656SOL    HW112072   2.368   4.414   0.425 -1.0503 -0.2632  1.6678
  656SOL    HW212073   2.234   4.327   0.389 -0.7353  0.4626 -1.4228
  657SOL     OW12074   4.262   2.639   2.226 -0.3633  0.0516  0.5610
  657SOL    HW112075   4.314   2.556   2.243  0.6012  0.8382  1.5423
  657SOL    HW212076   4.171   2.616   2.192 -0.2950 -1.3981  1.3452
  658SOL     OW12077   9.764   6.909   1.594 -0.1215  0.0636 -0.4174
  658SOL    HW112078   9.686   6.969   1.575 -1.4661 -1.9130 -1.2895
  658SOL    HW212079   9.831   6.917   1.521 -0.3907  0.3471 -0.6348
  659SOL     OW12080   2.386   1.316   2.245 -0.0502  0.1026  0.1184
  659SOL    HW112081   2.401   1.377   2.168  0.5367  0.6411  0.6507
  659SOL    HW212082   2.303   1.344   2.295 -0.3700 -0.1821 -0.2470
  660SOL     OW12083   1.140   8.352   1.422  0.0469  0.0364  0.3949
  660SOL    HW112084   1.067   8.342   1.490 -0.2435  0.3120  0.1216
  660SOL    HW212085   1.160   8.263   1.382  0.1000 -0.0982  0.7157
  661SOL     OW12086   2.062   6.308   0.786 -0.4043 -0.5387 -0.5441
  661SOL    HW112087   2.087   6.327   0.691  0.8381  0.4164 -0.0553
  661SOL    HW212088   1.966   6.328   0.801 -0.3111  0.4778 -1.3113
  662SOL     OW12089   1.554   0.831   1.354  0.8729  0.1125 -0.1283
  662SOL    HW112090   1.654   0.834   1.353  0.9242 -1.0640 -1.6861
  662SOL    HW212091   1.521   0.857   1.444  2.5042  2.3975 -0.1211
  663SOL     OW12092   0.793   2.520   0.358 -0.5793  0.2645  0.3010
  663SOL    HW112093   0.833   2.513   0.266 -0.0748  1.0497  0.4519
  663SOL    HW212094   0.696   2.543   0.350 -0.5631  0.2220 -0.0456
  664SOL     OW12095   0.272   6.446   1.383 -0.0956 -0.5740  0.3581
  664SOL    HW112096   0.333   6.469   1.307 -0.8690 -2.8911 -1.0177
  664SOL    HW212097   0.289   6.508   1.460  1.3118  1.2520 -1.3770
  665SOL     OW12098   8.904   8.267   0.905  0.5576  0.2928  0.0117
  665SOL    HW112099   8.983   8.214   0.934  0.0420 -0.9116 -0.7464
  665SOL    HW212100   8.841   8.209   0.853  0.1307  1.7139 -1.1235
  666SOL     OW12101   4.937   3.588   0.820  0.1945  0.0487 -0.0275
  666SOL    HW112102   4.983   3.627   0.900  1.0113 -1.1855  0.1220
  666SOL    HW212103   4.874   3.655   0.782  1.3369  1.4023  0.4004
  667SOL     OW12104   9.295   6.346   0.965  0.0984  0.0579  0.2311
  667SOL    HW112105   9.363   6.392   1.022  0.8309 -1.2973  0.4915
  667SOL    HW212106   9.342   6.279   0.906 -0.4923  2.1511 -2.7389
  668SOL     OW12107   9.791   0.299   1.303 -0.3504  0.2062 -0.5192
  668SOL    HW112108   9.804   0.392   1.338 -0.0609 -0.0441  0.0540
  668SOL    HW212109   9.712   0.296   1.243 -1.0298  0.5967  0.3497
  669SOL     OW12110   0.628   3.073   1.687 -0.5285 -0.6036  0.6999
  669SOL    HW112111   0.699   3.131   1.727 -1.3924  0.5947  0.5116
  669SOL    HW212112   0.643   3.064   1.589 -0.5581 -0.4582  0.6821
  670SOL     OW12113   3.035   1.553   2.362  0.8050  0.0250  0.5185
  670SOL    HW112114   2.951   1.513   2.399 -0.1806  1.0725 -0.5379
  670SOL    HW212115   3.110   1.541   2.427  0.3106 -2.6743  0.6340
  671SOL     OW12116   0.559   8.696   2.002  0.3871 -0.6735  0.4791
  671SOL    HW112117   0.515   8.778   1.966 -0.3481 -1.2850 -0.0334
  671SOL    HW212118   0.627   8.722   2.071  1.3288  0.4738 -0.8530
  672SOL     OW12119   7.602   9.226   0.812 -0.2722  0.0436 -0.0522
  672SOL    HW112120   7.632   9.321   0.814 -1.0873  0.3097 -0.1117
  672SOL    HW212121   7.671   9.168   0.854  0.1965  0.6727  0.0519
  673SOL     OW12122   3.108   1.719   1.032  0.3355  0.2250 -0.3579
  673SOL    HW112123   3.100   1.681   1.124  0.2063  0.4279 -0.2834
  673SOL    HW212124   3.038   1.678   0.972  1.3266 -0.9429 -0.7275
  674SOL     OW12125   0.095   2.186   0.211  0.2539 -0.1184  0.3289
  674SOL    HW112126   0.154   2.118   0.254  0.8704  0.0213 -0.2736
  674SOL    HW212127   0.056   2.246   0.281  0.9392 -0.1284  0.7233
  675SOL     OW12128   2.434   3.902   0.728  0.4105 -0.7621 -0.1158
  675SOL    HW112129   2.444   3.868   0.634 -1.1055  0.5016 -0.7741
  675SOL    HW212130   2.347   3.869   0.765  0.1227  0.2834  0.1455
  676SOL     OW12131   8.090   8.128   2.297  0.1840  0.3761  0.0838
  676SOL    HW112132   8.109   8.106   2.393  1.4454  0.6700 -0.0893
  676SOL    HW212133   8.112   8.049   2.241 -1.7770 -0.2455  0.1517
  677SOL     OW12134   2.473   2.339   0.783 -0.1964 -0.3261  0.0806
  677SOL    HW112135   2.536   2.324   0.859 -0.7764  3.0887  1.3072
  677SOL    HW212136   2.381   2.311   0.809 -0.5542  1.6384  0.9612
  678SOL     OW12137   8.904   6.699   1.985 -0.5151  0.0046  0.0947
  678SOL    HW112138   8.857   6.763   2.046  0.7961  0.2146  0.8970
  678SOL    HW212139   8.902   6.735   1.892 -0.0347  1.0815  0.4980
  679SOL     OW12140   2.934   0.757   0.454  0.2446  0.1496 -1.3181
  679SOL    HW112141   2.865   0.685   0.464  1.7984 -1.1998  0.1148
  679SOL    HW212142   2.923   0.824   0.527  1.3999 -0.9267 -0.1177
  680SOL     OW12143   1.971   3.757   1.113  0.3075 -0.5559  0.3254
  680SOL    HW112144   1.984   3.784   1.209 -2.0672  2.6676 -0.1777
  680SOL    HW212145   1.976   3.838   1.055  1.4073 -2.4357 -2.2995
  681SOL     OW12146   3.722   1.840   1.213  0.0862  0.2165  0.2580
  681SOL    HW112147   3.723   1.933   1.178 -0.3231  0.6503  1.3709
  681SOL    HW212148   3.811   1.818   1.253  0.2837  0.0139 -0.2849
  682SOL     OW12149   0.562   1.837   0.734 -0.0002  0.1052  0.0754
  682SOL    HW112150   0.638   1.796   0.685 -1.4789 -3.4600  0.5756
  682SOL    HW212151   0.571   1.817   0.832 -1.4287 -0.1800  0.1620
  683SOL     OW12152   3.757   4.510   1.449 -0.5157 -0.3416  0.6066
  683SOL    HW112153   3.696   4.572   1.499 -0.8058  0.1107 -0.2932
  683SOL    HW212154   3.702   4.438   1.407 -0.4592  0.1977 -0.3982
  684SOL     OW12155   9.110   3.976   1.088 -0.1921  0.7957 -0.5024
  684SOL    HW112156   9.030   3.998   1.032  0.6856 -0.4950 -2.3036
  684SOL    HW212157   9.111   4.035   1.169 -3.0949  0.6529 -0.3149
  685SOL     OW12158   1.837   4.343   1.664 -0.1016 -0.2063 -0.2967
  685SOL    HW112159   1.861   4.246   1.659 -1.4603 -0.5211 -0.8427
  685SOL    HW212160   1.739   4.353   1.680 -0.2792  1.0957 -2.0056
  686SOL     OW12161   1.801   8.175   1.682  0.2942  0.3729  0.0960
  686SOL    HW112162   1.737   8.194   1.608 -0.0781  1.7560  0.7612
  686SOL    HW212163   1.895   8.177   1.647  0.0450 -0.4145 -0.6237
  687SOL     OW12164   9.851   7.160   0.452  0.1025 -0.2587  0.5407
  687SOL    HW112165   9.876   7.084   0.513  0.9128 -1.1661 -0.8911
  687SOL    HW212166   9.800   7.125   0.374 -1.8523  1.0428  1.2034
  688SOL     OW12167   4.252   3.071   1.018  0.2219  0.2255  0.2974
  688SOL    HW112168   4.270   3.155   0.968  0.7575  1.4023  2.3804
  688SOL    HW212169   4.165   3.079   1.068  0.3747 -0.3666  0.6725
  689SOL     OW12170   9.617   9.648   1.478 -0.0768 -0.3186  0.2425
  689SOL    HW112171   9.597   9.592   1.559  0.7517 -0.4485  0.3539
  689SOL    HW212172   9.538   9.647   1.417 -0.1862 -1.3338  0.4001
  690SOL     OW12173   9.844   2.074   2.172  0.7612 -0.1506 -0.3280
  690SOL    HW112174   9.873   2.145   2.236  0.7739 -2.5536  2.4839
  690SOL    HW212175   9.923   2.021   2.142  0.4208 -0.9175  0.0928
  691SOL     OW12176   0.532   4.563   1.905  0.3087  0.0917  0.7682
  691SOL    HW112177   0.480   4.482   1.933  0.1222 -0.7287 -1.7858
  691SOL    HW212178   0.629   4.540   1.897  0.1702 -0.0722 -0.5699
  692SOL     OW12179   5.084   3.791   0.139 -0.3531  0.3245  0.2658
  692SOL    HW112180   5.018   3.716   0.133  2.4342 -2.1642 -0.4744
  692SOL    HW212181   5.122   3.809   0.049  1.4934  0.2933  1.0126
  693SOL     OW12182   8.650   2.748   2.171  0.4115 -0.1737  0.2802
  693SOL    HW112183   8.670   2.665   2.223 -0.1222 -0.5761 -0.1502
  693SOL    HW212184   8.690   2.827   2.218  0.1912 -0.5627  1.1425
  694SOL     OW12185   2.812   4.971   2.051 -0.8589 -0.3524 -0.0462
  694SOL    HW112186   2.756   4.892   2.075 -1.2775  0.0453  0.3024
  694SOL    HW212187   2.848   5.013   2.134 -1.3229  0.3083 -0.1703
  695SOL     OW12188   1.143   1.014   0.315  0.0526 -0.6620 -1.1763
  695SOL    HW112189   1.081   1.063   0.376 -0.7080 -1.4844 -1.2611
  695SOL    HW212190   1.103   0.924   0.293  1.4127 -1.3224 -1.0017
  696SOL     OW12191   1.444   4.541   1.319 -0.3854  0.2081 -0.0508
  696SOL    HW112192   1.433   4.616   1.385  0.1733  1.2471 -1.1082
  696SOL    HW212193   1.515   4.566   1.253 -1.9382 -0.1779 -1.9126
  697SOL     OW12194   9.149   8.724   0.209  0.2480 -0.5584  0.3294
  697SOL    HW112195   9.212   8.691   0.279 -1.5751  0.9558  2.7733
  697SOL    HW212196   9.066   8.667   0.210 -0.4939  0.5080  0.5993
  698SOL     OW12197   8.699   0.245   2.021  0.2825 -0.7361 -0.1249
  698SOL    HW112198   8.757   0.273   1.944  0.4094 -0.8796 -0.0811
  698SOL    HW212199   8.757   0.212   2.095  0.2310  0.6186  0.5287
  699SOL     OW12200   2.746   9.720   1.934 -0.1844 -0.1692  0.2439
  699SOL    HW112201   2.720   9.704   2.030 -0.6615  0.0509  0.1511
  699SOL    HW212202   2.753   9.818   1.917  0.6086 -0.2292  0.2403
  700SOL     OW12203   0.946   4.470   0.113 -0.4530  0.2304  0.3694
  700SOL    HW112204   0.893   4.464   0.199 -0.3065  1.4744  0.5517
  700SOL    HW212205   0.961   4.566   0.090 -0.3577 -0.1012 -0.9825
  701SOL     OW12206   4.005   8.640   1.363 -0.1637  0.5202  0.0537
  701SOL    HW112207   4.100   8.612   1.360 -0.2528  0.1432  0.7104
  701SOL    HW212208   3.986   8.686   1.450 -1.4419 -2.4967  1.4204
  702SOL     OW12209   9.499   7.660   1.056 -0.2254  0.4376 -0.0154
  702SOL    HW112210   9.458   7.654   1.146  0.5717 -0.4311  0.2976
  702SOL    HW212211   9.582   7.716   1.061 -0.2975  0.5684 -0.2544
  703SOL     OW12212   2.153   8.343   1.345 -0.1881  0.1339  0.6934
  703SOL    HW112213   2.121   8.357   1.251 -0.7127 -0.5101  0.7734
  703SOL    HW212214   2.210   8.421   1.372 -1.9809  1.5124  0.6785
  704SOL     OW12215   9.906   8.734   1.005 -0.0593 -0.2616 -0.1550
  704SOL    HW112216   9.986   8.718   1.064  0.7333  0.6000 -0.9900
  704SOL    HW212217   9.892   8.654   0.946  0.3364 -0.3057 -0.1920
  705SOL     OW12218   9.796   7.382   1.788  0.0938 -0.1723  0.5874
  705SOL    HW112219   9.847   7.307   1.746 -1.6112 -0.7279 -0.5492
  705SOL    HW212220   9.713   7.346   1.831  0.6545  0.7061  2.4831
  706SOL     OW12221   0.215   8.336   0.861 -0.2265 -0.1938  0.4016
  706SOL    HW112222   0.241   8.292   0.946 -1.8582  0.5238  1.2910
  706SOL    HW212223   0.297   8.361   0.809  0.7402 -1.5686  1.2691
  707SOL     OW12224   9.567   8.325   0.997  0.5812 -0.0070  0.0604
  707SOL    HW112225   9.646   8.292   0.945 -0.4003 -0.7092 -0.9858
  707SOL    HW212226   9.584   8.310   1.095  2.2198  0.8777 -0.0705
  708SOL     OW12227   8.948   6.813   0.287 -0.7490  0.5935  0.3179
  708SOL    HW112228   8.924   6.719   0.262 -0.1552  0.4597  0.2396
  708SOL    HW212229   8.954   6.820   0.387 -2.7748  1.0434  0.4243
  709SOL     OW12230   3.450   2.275   1.384  0.0901  0.3225  0.4345
  709SOL    HW112231   3.434   2.205   1.454 -1.1926  0.5638  0.4066
  709SOL    HW212232   3.548   2.282   1.364  0.5675  0.8180  2.8142
  710SOL     OW12233   0.345   2.402   2.247 -0.0735  0.4746 -0.3437
  710SOL    HW112234   0.328   2.311   2.283  4.4098 -0.2597  0.1769
  710SOL    HW212235   0.301   2.470   2.305 -1.3503 -1.1915  0.6849
  711SOL     OW12236   2.153   2.367   0.154 -0.2368  0.1843  0.3019
  711SOL    HW112237   2.131   2.449   0.102 -0.1652 -2.1300 -3.6030
  711SOL    HW212238   2.249   2.370   0.183  0.1067  0.8907 -0.9017
  712SOL     OW12239   7.774   0.962   0.483 -0.9241 -0.0222  0.0967
  712SOL    HW112240   7.819   0.947   0.571 -0.0405  0.0783 -0.3284
  712SOL    HW212241   7.711   1.038   0.490  0.4647  1.1400  0.1817
  713SOL     OW12242   8.813   8.778   1.153  0.4939  0.3751 -0.1853
  713SOL    HW112243   8.761   8.798   1.236  1.1024 -0.6032  0.4402
  713SOL    HW212244   8.834   8.863   1.105  1.2805  1.0734  1.3519
  714SOL     OW12245   4.329   9.172   1.305 -0.6293  0.1871 -0.2941
  714SOL    HW112246   4.357   9.118   1.225  0.9421 -0.0042  0.3662
  714SOL    HW212247   4.375   9.261   1.303 -1.4983  0.6446 -0.2103
  715SOL     OW12248   9.794   1.698   1.246 -0.5472 -0.2663 -0.0256
  715SOL    HW112249   9.746   1.626   1.196  2.7759 -2.2618 -0.4745
  715SOL    HW212250   9.761   1.702   1.340 -3.1602 -0.0187 -0.9194
  716SOL     OW12251   9.987   2.732   0.655  0.1273  0.4381  0.1741
  716SOL    HW112252  10.022   2.807   0.712 -1.0931 -0.0625  1.6329
  716SOL    HW212253   9.987   2.648   0.709 -2.1082  0.1861 -0.1936
  717SOL     OW12254   1.664   4.695   1.475  0.2766  0.1514 -0.2244
  717SOL    HW112255   1.722   4.672   1.553  0.5821  1.5987  0.0012
  717SOL    HW212256   1.683   4.633   1.399  0.2589 -1.0190  0.7304
  718SOL     OW12257   9.732   0.970   2.192  0.2174  0.1811 -0.2492
  718SOL    HW112258   9.636   0.940   2.190 -0.0808  1.0436  0.4371
  718SOL    HW212259   9.792   0.892   2.178 -0.5751 -0.5266  0.2658
  719SOL     OW12260   3.756   8.829   1.811 -0.1218  0.1106 -0.2630
  719SOL    HW112261   3.768   8.807   1.908  0.4372  0.5861 -0.2210
  719SOL    HW212262   3.787   8.923   1.795  0.4807 -0.2221 -1.0427
  720SOL     OW12263   3.540   3.294   0.428 -0.6290 -0.2932  0.9433
  720SOL    HW112264   3.629   3.326   0.462 -0.0332 -0.1295 -0.7141
  720SOL    HW212265   3.520   3.205   0.467  0.6120 -0.6510  0.8084
  721SOL     OW12266   3.771   8.223   2.277 -0.1354 -0.5747 -0.6469
  721SOL    HW112267   3.855   8.180   2.308 -0.1789 -0.3438 -0.1998
  721SOL    HW212268   3.764   8.314   2.317 -1.1466 -1.0268  0.2381
  722SOL     OW12269   8.980   9.217   0.500 -0.4210  0.1867  0.2128
  722SOL    HW112270   9.066   9.262   0.476 -1.1193  1.1552 -0.5084
  722SOL    HW212271   8.998   9.123   0.528  0.8914  0.4386  0.2382
  723SOL     OW12272   9.311   5.964   2.478 -0.3295 -0.0608 -0.2893
  723SOL    HW112273   9.369   5.883   2.464 -0.0197 -0.0438  0.8302
  723SOL    HW212274   9.342   6.038   2.418  0.4420 -0.2412 -0.1210
  724SOL     OW12275   9.618   4.923   1.776  0.3224  0.5275  0.0821
  724SOL    HW112276   9.607   4.865   1.695 -0.1448  0.5175  0.1522
  724SOL    HW212277   9.715   4.943   1.789  0.7137 -2.0215  1.3171
  725SOL     OW12278   0.654   0.391   0.007 -0.2363 -0.7653  0.0481
  725SOL    HW112279   0.618   0.359  -0.081 -1.0978 -0.7727  0.3954
  725SOL    HW212280   0.642   0.320   0.076  0.5607 -0.8076  0.1436
  726SOL     OW12281   9.112   7.962   0.680  0.2401 -0.2799  0.8217
  726SOL    HW112282   9.114   8.038   0.616  2.1025  0.0755  1.2613
  726SOL    HW212283   9.148   7.993   0.769 -1.4196 -0.9999  1.7598
  727SOL     OW12284   9.766   7.830   0.435 -0.2899  0.4792 -0.2369
  727SOL    HW112285   9.723   7.741   0.447 -0.5952  0.5872 -0.5157
  727SOL    HW212286   9.814   7.856   0.518  0.1634 -0.1421 -0.3079
  728SOL     OW12287   1.044   8.726   0.541  0.0581  0.0773 -0.6177
  728SOL    HW112288   0.959   8.693   0.582  0.0205  0.7341 -0.1594
  728SOL    HW212289   1.079   8.657   0.477  0.7980 -1.4951  1.4560
  729SOL     OW12290   7.989   9.328   2.251  0.6236 -0.0604  0.4059
  729SOL    HW112291   7.949   9.404   2.303 -1.8886 -0.5489 -0.7052
  729SOL    HW212292   7.997   9.248   2.310 -1.5092 -0.3950  0.2839
  730SOL     OW12293   9.814   6.555   1.379  0.0497 -0.1108  0.2573
  730SOL    HW112294   9.824   6.534   1.282  0.2273  1.5128 -0.0923
  730SOL    HW212295   9.721   6.587   1.397 -0.2008 -1.1151  0.7622
  731SOL     OW12296   7.992   9.777   0.419 -0.3531 -0.0056 -0.0025
  731SOL    HW112297   8.020   9.791   0.514  0.3488 -0.8096 -0.0799
  731SOL    HW212298   8.067   9.802   0.358 -0.6600  0.1303 -0.3249
  732SOL     OW12299   1.650   1.231   1.090 -0.6112  0.4421 -0.4624
  732SOL    HW112300   1.659   1.269   1.183  0.3281 -0.7868 -0.0261
  732SOL    HW212301   1.662   1.304   1.023  1.0010  0.9610  0.3604
  733SOL     OW12302   8.848   2.914   2.338  0.7005  0.1428  0.1944
  733SOL    HW112303   8.880   2.821   2.358  0.3902  0.0057  0.0620
  733SOL    HW212304   8.867   2.973   2.416  0.0176 -0.2571  0.6715
  734SOL     OW12305   9.541   2.330   1.924  0.1621 -0.2927 -0.2980
  734SOL    HW112306   9.495   2.416   1.945  0.8814 -0.0405  0.2639
  734SOL    HW212307   9.549   2.319   1.825  1.8666  1.2516 -0.3449
  735SOL     OW12308   3.530   4.499   0.816 -0.3832  0.0034  0.2159
  735SOL    HW112309   3.436   4.522   0.792  0.3492  2.3828 -0.5127
  735SOL    HW212310   3.564   4.430   0.752 -0.6549  1.3744 -1.4693
  736SOL     OW12311   2.747   0.855   1.830 -0.6191  0.2169  0.4676
  736SOL    HW112312   2.809   0.885   1.903 -0.2287 -3.0881  1.5780
  736SOL    HW212313   2.779   0.892   1.743  3.1106 -1.5599  0.9744
  737SOL     OW12314   4.056   2.056   0.590  0.3079 -0.5758  0.2435
  737SOL    HW112315   4.122   2.062   0.516  1.9498 -0.4448  1.7011
  737SOL    HW212316   4.096   2.006   0.667 -1.0865 -0.0071  1.3555
  738SOL     OW12317   9.261   9.434   1.452 -0.4044  0.2594 -0.3199
  738SOL    HW112318   9.211   9.510   1.492  0.1693  0.2994  0.3370
  738SOL    HW212319   9.209   9.349   1.465 -0.0456  0.2061  0.8987
  739SOL     OW12320   7.902   0.003   1.719  0.0221 -0.0360  0.0194
  739SOL    HW112321   7.996   0.020   1.689  0.0669  0.1877  0.2849
  739SOL    HW212322   7.901  -0.018   1.817  0.1089 -2.8058 -0.5258
  740SOL     OW12323   2.103   9.196   0.037 -0.0197 -0.1910 -0.4033
  740SOL    HW112324   2.013   9.160   0.058 -0.3938  0.4113 -0.9810
  740SOL    HW212325   2.104   9.236  -0.055  1.0126 -0.8028 -0.6689
  741SOL     OW12326   9.501   3.418   0.649  0.3413  0.4426 -0.3668
  741SOL    HW112327   9.479   3.358   0.573 -0.3870  0.4466 -0.1583
  741SOL    HW212328   9.555   3.367   0.717  0.3605  0.2374 -0.5368
  742SOL     OW12329   1.070   6.729   1.815  0.2333  0.2190 -0.2398
  742SOL    HW112330   1.060   6.825   1.788  0.1214  0.3754  0.3427
  742SOL    HW212331   1.125   6.680   1.747 -0.3759  0.5106 -0.9505
  743SOL     OW12332   2.215   6.843   0.415 -0.0089  0.1059  0.1979
  743SOL    HW112333   2.254   6.934   0.407  0.1508  0.0774  0.6549
  743SOL    HW212334   2.259   6.794   0.490  1.1804 -1.0045 -1.2019
  744SOL     OW12335   8.834   0.726   0.083 -0.1357 -0.3487 -0.3420
  744SOL    HW112336   8.798   0.681   0.001 -0.9279 -0.3938  0.0267
  744SOL    HW212337   8.867   0.817   0.059 -0.7730 -0.1918 -0.6186
  745SOL     OW12338   4.682   2.704   1.417  0.4063 -0.0985 -0.3332
  745SOL    HW112339   4.725   2.678   1.331  0.0793 -1.0095 -0.2307
  745SOL    HW212340   4.752   2.710   1.489  0.3084 -2.2715 -0.0084
  746SOL     OW12341   0.325   9.955   1.725  0.2402  0.1315  0.0119
  746SOL    HW112342   0.396   9.998   1.670  0.8773 -1.2630 -0.2628
  746SOL    HW212343   0.244   9.938   1.668 -0.0464  1.0268  0.1420
  747SOL     OW12344   1.423   0.511   0.039 -0.6534 -0.5367  0.2555
  747SOL    HW112345   1.485   0.451   0.090  0.4318 -0.6796 -1.1961
  747SOL    HW212346   1.422   0.483  -0.057 -0.1844  1.6974 -0.4338
  748SOL     OW12347   2.805   7.730   0.976  0.3133  0.1814 -0.7284
  748SOL    HW112348   2.835   7.817   0.936 -1.1542  0.8958 -0.3154
  748SOL    HW212349   2.831   7.727   1.072  0.3706  0.1657 -0.7446
  749SOL     OW12350   2.697   0.602   1.171  0.0871 -0.5185  0.3489
  749SOL    HW112351   2.640   0.605   1.253 -2.1887 -0.2269 -1.1910
  749SOL    HW212352   2.753   0.684   1.166  0.3427 -0.6004  1.6585
  750SOL     OW12353   9.871   1.936   1.119  0.1526 -0.4624  0.1558
  750SOL    HW112354   9.937   1.932   1.044  0.2607 -0.6167  0.2599
  750SOL    HW212355   9.885   1.858   1.180  1.1221  0.5388  1.2244
  751SOL     OW12356   1.279   1.384   1.111  0.0456  0.1694  0.2078
  751SOL    HW112357   1.219   1.313   1.148  1.4848  0.0105  2.3154
  751SOL    HW212358   1.290   1.371   1.012 -0.8023 -1.7111  0.3443
  752SOL     OW12359   4.426   2.393   1.340 -0.6374 -0.1070  0.2653
  752SOL    HW112360   4.453   2.427   1.430  0.4347 -0.2657  0.0082
  752SOL    HW212361   4.485   2.432   1.270 -1.4903  0.0392 -0.3785
  753SOL     OW12362   0.399   5.803   1.470 -0.5214  0.2585 -0.0837
  753SOL    HW112363   0.480   5.847   1.430 -0.1024 -0.8595 -0.4850
  753SOL    HW212364   0.427   5.720   1.519 -1.4324 -0.1564 -0.2556
  754SOL     OW12365   4.520   2.715   0.052 -0.2552  0.1614  0.2990
  754SOL    HW112366   4.563   2.802   0.032 -2.7673  1.6144  1.0234
  754SOL    HW212367   4.526   2.697   0.150  0.2713 -0.5140  0.1500
  755SOL     OW12368   0.209   1.950   1.126  0.2602 -0.3679 -0.0254
  755SOL    HW112369   0.285   1.977   1.184 -1.1336 -1.9480  2.6050
  755SOL    HW212370   0.134   1.915   1.182 -1.0357 -2.2466 -2.7813
  756SOL     OW12371   1.049   5.187   2.441 -0.4135  0.4714 -0.4212
  756SOL    HW112372   1.008   5.128   2.372 -2.1114  0.4018  0.6221
  756SOL    HW212373   0.988   5.264   2.460  0.4235  0.9523  0.4071
  757SOL     OW12374   0.937   0.701   1.135 -0.4114 -0.3116 -0.3047
  757SOL    HW112375   0.897   0.637   1.069 -0.1704 -0.4748 -0.2933
  757SOL    HW212376   0.941   0.792   1.093  0.6571 -0.6147 -0.8918
  758SOL     OW12377   3.580   1.553   0.533  0.2411  0.2228  0.2076
  758SOL    HW112378   3.585   1.649   0.563  0.8879  0.0437  0.6771
  758SOL    HW212379   3.558   1.495   0.610  0.5623 -0.0854  0.0696
  759SOL     OW12380   3.050   3.299   2.338 -0.1668 -0.3561 -0.4777
  759SOL    HW112381   3.068   3.267   2.431 -0.3048  2.2346  0.4639
  759SOL    HW212382   3.136   3.304   2.287  0.0303 -0.8227 -0.1962
  760SOL     OW12383   4.378   4.127   0.361 -0.0455 -0.0320 -0.1821
  760SOL    HW112384   4.352   4.151   0.454  0.4691  2.3007 -0.6047
  760SOL    HW212385   4.457   4.065   0.363  0.3555  0.5038  0.9252
  761SOL     OW12386   9.475   3.164   1.471  0.4637 -0.1644  0.1552
  761SOL    HW112387   9.500   3.068   1.481  2.3140  0.0221 -2.1947
  761SOL    HW212388   9.385   3.171   1.428  0.4306 -0.8589  0.1112
  762SOL     OW12389   2.078   8.077   1.657 -0.0027  0.0776  0.3200
  762SOL    HW112390   2.050   7.987   1.689 -0.4741  0.4007  0.8312
  762SOL    HW212391   2.083   8.078   1.557  0.0805 -0.5318  0.3175
  763SOL     OW12392   2.212   5.138   1.445  0.5163 -0.0921  0.4829
  763SOL    HW112393   2.299   5.188   1.443  0.2382  0.3730 -1.0728
  763SOL    HW212394   2.226   5.046   1.409  0.0625  0.5418 -1.4065
  764SOL     OW12395   4.856   3.016   0.635 -0.4406  0.4756 -0.7381
  764SOL    HW112396   4.765   3.050   0.657 -0.5153  0.7801 -1.5121
  764SOL    HW212397   4.881   3.044   0.542 -0.2045 -0.9315 -1.1163
  765SOL     OW12398   3.137   0.802   1.928  0.2462 -0.1890  0.2596
  765SOL    HW112399   3.086   0.787   2.012  1.1479 -0.1663  0.8236
  765SOL    HW212400   3.170   0.897   1.926 -1.7710  0.5136 -1.2452
  766SOL     OW12401   2.882   7.740   0.073 -0.1608  0.4258 -0.2105
  766SOL    HW112402   2.851   7.650   0.102  0.6987 -0.5108 -2.0938
  766SOL    HW212403   2.909   7.794   0.153  0.0010 -1.2319  0.8756
  767SOL     OW12404   1.843   7.383   1.663 -0.3187  0.2852 -0.1970
  767SOL    HW112405   1.871   7.414   1.572  0.4372 -1.8772 -0.7283
  767SOL    HW212406   1.922   7.345   1.710 -1.5664 -2.4554 -0.2647
  768SOL     OW12407   5.113   3.824   0.448  0.4512  0.0949 -0.1844
  768SOL    HW112408   5.103   3.729   0.477 -1.8112  0.0764 -0.9767
  768SOL    HW212409   5.142   3.826   0.352 -0.6959  0.1955 -0.5362
  769SOL     OW12410   4.311   4.210   1.953 -0.1459  0.3960 -0.2917
  769SOL    HW112411   4.221   4.188   1.990 -0.2654 -0.1903 -0.9188
  769SOL    HW212412   4.319   4.309   1.940  0.3169  0.7305  2.3618
  770SOL     OW12413   3.707   2.270   1.312 -0.6903  0.3584  0.0216
  770SOL    HW112414   3.802   2.302   1.306 -0.9102  0.9004 -0.6585
  770SOL    HW212415   3.691   2.200   1.243 -1.0238  0.8995 -0.4584
  771SOL     OW12416   0.651   8.707   0.996 -0.1047  0.1961 -0.5940
  771SOL    HW112417   0.583   8.688   0.925  0.4864  1.3380 -1.4938
  771SOL    HW212418   0.626   8.792   1.044 -0.3744 -0.4451  0.4218
  772SOL     OW12419   4.067   9.955   2.065  0.1685  0.0787  0.5610
  772SOL    HW112420   4.101   9.946   1.972  0.2324  0.3407  0.5583
  772SOL    HW212421   3.997  10.027   2.069 -1.1103 -1.1356  0.3802
  773SOL     OW12422   2.103   8.703   2.276 -0.3917  0.5900  0.3797
  773SOL    HW112423   2.172   8.755   2.327  1.4066 -1.4409  0.1291
  773SOL    HW212424   2.130   8.699   2.179 -1.2086  0.3370  0.1617
  774SOL     OW12425   0.205   8.978   0.927 -0.6705 -0.0089 -0.2306
  774SOL    HW112426   0.282   9.021   0.879 -0.7641  1.8232  1.2241
  774SOL    HW212427   0.128   8.968   0.864 -0.0596  0.3614 -1.0488
  775SOL     OW12428   2.618   2.067   1.445 -0.2918  0.1430  0.8169
  775SOL    HW112429   2.646   2.011   1.523  1.6483 -0.6918 -0.4311
  775SOL    HW212430   2.547   2.131   1.473 -1.3544 -1.7997  2.6827
  776SOL     OW12431   2.952   0.261   1.724 -0.4966 -0.1207  0.1086
  776SOL    HW112432   3.015   0.255   1.801 -0.0427 -0.2411 -0.2689
  776SOL    HW212433   2.858   0.267   1.758 -0.3852 -1.3223  0.6510
  777SOL     OW12434   9.640   1.306   0.818 -0.4562  0.4206  0.2172
  777SOL    HW112435   9.667   1.309   0.721  1.2145  1.8768  0.7082
  777SOL    HW212436   9.559   1.362   0.832 -1.3869 -0.7142 -0.5367
  778SOL     OW12437   8.178   9.218   1.450 -0.7472 -0.0788 -0.0834
  778SOL    HW112438   8.093   9.261   1.480 -0.4570 -0.6234  1.6144
  778SOL    HW212439   8.158   9.125   1.418 -1.0250  0.4039 -1.3041
  779SOL     OW12440   3.871   2.044   1.479  0.1523 -0.6604  0.3888
  779SOL    HW112441   3.797   2.098   1.438  1.2219 -0.3359 -1.1644
  779SOL    HW212442   3.938   2.106   1.520 -1.1663 -0.9982  3.1444
  780SOL     OW12443   0.119   0.341   1.830 -0.0639  0.6141 -0.3473
  780SOL    HW112444   0.059   0.270   1.866 -1.3130  0.8326 -1.9189
  780SOL    HW212445   0.202   0.300   1.793 -1.3154 -0.1651 -2.3341
  781SOL     OW12446   3.214   8.171   2.333 -0.3584  0.2408 -0.3625
  781SOL    HW112447   3.164   8.098   2.380 -0.3321  1.4109  1.5185
  781SOL    HW212448   3.309   8.143   2.321 -0.5785 -0.4459 -0.5682
  782SOL     OW12449   0.682   4.877   1.796 -0.4864  0.0752 -0.3815
  782SOL    HW112450   0.772   4.850   1.760 -0.9193 -1.3880 -0.3850
  782SOL    HW212451   0.614   4.810   1.769 -1.5841  1.1478 -0.3137
  783SOL     OW12452   0.492   3.613   1.283 -0.6358  0.2829 -0.3509
  783SOL    HW112453   0.558   3.619   1.208  0.1542  0.0002  0.3122
  783SOL    HW212454   0.516   3.678   1.354 -1.9143  1.1909 -0.7361
  784SOL     OW12455   1.803   2.927   2.477  0.0748 -0.3255 -0.1807
  784SOL    HW112456   1.756   2.978   2.405 -1.0612  0.5000  1.1419
  784SOL    HW212457   1.817   2.986   2.557  0.0567 -1.6530  0.8174
  785SOL     OW12458   2.893   9.696   2.550 -0.5830 -0.3262  0.0862
  785SOL    HW112459   2.841   9.722   2.631  0.5745 -0.3581  0.8559
  785SOL    HW212460   2.852   9.614   2.509 -2.8816  1.3359 -1.0402
  786SOL     OW12461   9.422   0.031   0.646 -0.4392  0.2996 -0.5226
  786SOL    HW112462   9.352   0.045   0.716 -0.6197 -0.0430 -0.6342
  786SOL    HW212463   9.384   0.055   0.556 -0.0094  1.3604 -0.4318
  787SOL     OW12464   9.260   2.242   0.996  0.3617 -0.1273  0.0233
  787SOL    HW112465   9.219   2.176   0.933  0.5692  0.1482 -0.3973
  787SOL    HW212466   9.358   2.249   0.978 -0.0070  1.7931 -1.2587
  788SOL     OW12467   9.600   3.213   0.142  0.6159  0.4137 -0.0529
  788SOL    HW112468   9.501   3.201   0.147  0.6591  0.1755  0.2492
  788SOL    HW212469   9.623   3.275   0.068  0.3674 -1.0596 -1.3827
  789SOL     OW12470   3.707   2.102   1.079  0.4645  0.5221  0.3754
  789SOL    HW112471   3.650   2.050   1.015 -0.6315  1.2686  0.7198
  789SOL    HW212472   3.763   2.167   1.027 -0.6390  1.3355  0.1664
  790SOL     OW12473   1.766   7.521   1.985 -0.0220  0.3923  0.1297
  790SOL    HW112474   1.862   7.493   1.986  0.9653  3.5666  0.5494
  790SOL    HW212475   1.760   7.620   2.002 -3.3044  0.4045 -0.7420
  791SOL     OW12476   9.100   2.054   0.046 -0.1373  0.0097 -0.0191
  791SOL    HW112477   9.096   2.123   0.119 -0.2473 -0.1914  0.1638
  791SOL    HW212478   9.159   2.088  -0.028 -2.5449  1.6275 -1.2850
  792SOL     OW12479   0.336   2.871   2.256  0.5777  0.4063 -0.0572
  792SOL    HW112480   0.283   2.924   2.190 -0.5627  0.2677  0.7294
  792SOL    HW212481   0.347   2.924   2.340  0.8318  0.0453  0.1400
  793SOL     OW12482   8.318   1.662   2.193 -0.4293  0.4027 -0.0592
  793SOL    HW112483   8.305   1.713   2.279 -1.9234 -0.4473  0.2263
  793SOL    HW212484   8.396   1.600   2.203  0.4658  1.5235  0.1003
  794SOL     OW12485   2.109   7.647   1.104  0.1233  0.2318  0.1069
  794SOL    HW112486   2.107   7.625   1.006  0.7706 -1.4075  0.4427
  794SOL    HW212487   2.202   7.672   1.130  0.3557 -1.2051  0.6854
  795SOL     OW12488   2.871   9.407   1.281 -0.1160 -0.1271 -0.1791
  795SOL    HW112489   2.869   9.317   1.238 -0.0981 -0.7823  1.1677
  795SOL    HW212490   2.857   9.397   1.380  0.4189  1.2963  0.0526
  796SOL     OW12491   3.579   0.241   1.808 -0.5709 -0.2570 -0.6816
  796SOL    HW112492   3.602   0.284   1.720  0.6797  3.2474  1.2291
  796SOL    HW212493   3.662   0.233   1.863 -2.0372  2.0791  1.9908
  797SOL     OW12494   3.062   5.123   2.184  0.1901  0.0803  0.1558
  797SOL    HW112495   3.104   5.212   2.166 -0.6900  0.6286  0.7880
  797SOL    HW212496   3.090   5.058   2.113  0.5677  0.9451 -0.4917
  798SOL     OW12497   2.731   2.606   2.238 -0.6147 -0.1041  0.5806
  798SOL    HW112498   2.770   2.666   2.309  1.6680 -1.6535  0.7005
  798SOL    HW212499   2.700   2.521   2.280 -3.8038  0.9100  0.4027
  799SOL     OW12500   1.162   1.745   0.230 -0.0392 -0.1583  0.2076
  799SOL    HW112501   1.256   1.745   0.264 -0.3845 -0.5751  1.1921
  799SOL    HW212502   1.124   1.837   0.236  0.5261  0.1574 -0.8484
  800SOL     OW12503   3.953   9.445   0.416 -0.2934 -0.0202 -0.5530
  800SOL    HW112504   3.984   9.376   0.482 -0.3068 -0.4490 -0.9963
  800SOL    HW212505   4.025   9.462   0.349 -0.1113  0.7437 -0.1715
  801SOL     OW12506   1.811   9.310   2.095  0.3055 -0.6004 -0.3561
  801SOL    HW112507   1.720   9.294   2.056 -0.2596  0.0358  0.6516
  801SOL    HW212508   1.807   9.297   2.194  0.8716  1.2186 -0.0687
  802SOL     OW12509   0.719   8.989   0.685 -0.6689 -0.2862  0.7064
  802SOL    HW112510   0.690   9.070   0.635 -1.5328 -1.7041 -1.1337
  802SOL    HW212511   0.819   8.992   0.697 -0.4312  0.0050 -1.2291
  803SOL     OW12512   0.134   2.965   0.757  0.2935 -0.6060  0.1439
  803SOL    HW112513   0.208   2.899   0.773  0.3198 -0.5719  0.1630
  803SOL    HW212514   0.148   3.045   0.815  0.5145 -0.3804 -0.2151
  804SOL     OW12515   1.478   5.570   0.979 -0.2720 -0.1444 -1.2270
  804SOL    HW112516   1.440   5.567   1.072 -0.5300  0.9548 -1.2943
  804SOL    HW212517   1.512   5.662   0.960  2.1779 -1.0128 -1.2607
  805SOL     OW12518   9.320   9.525   0.137 -0.0610 -0.6084  0.7310
  805SOL    HW112519   9.337   9.582   0.218  1.0311 -1.1541  0.8958
  805SOL    HW212520   9.237   9.557   0.091  0.4424  1.0211  0.9029
  806SOL     OW12521   9.333   8.568   0.375 -0.1679 -0.0456  0.4122
  806SOL    HW112522   9.327   8.471   0.351 -0.9210  0.0136  0.3734
  806SOL    HW212523   9.428   8.598   0.366 -0.1239 -0.4975 -0.6932
  807SOL     OW12524   1.986   7.026   1.999 -0.0437  0.0270 -0.1016
  807SOL    HW112525   1.970   6.928   2.012  1.7660 -0.2495  0.1668
  807SOL    HW212526   2.049   7.059   2.069  0.2476  1.1391 -0.8788
  808SOL     OW12527   3.968   2.303   1.609  0.2795  0.5382 -0.1226
  808SOL    HW112528   4.054   2.345   1.580  0.5943  0.5422  0.7942
  808SOL    HW212529   3.971   2.287   1.708 -0.9722  1.0137  0.0045
  809SOL     OW12530   3.841   5.215   0.973 -0.5671 -0.4760  0.3305
  809SOL    HW112531   3.899   5.265   0.908 -1.1890  1.7211  1.4079
  809SOL    HW212532   3.758   5.185   0.928 -0.9246  0.8994  0.0507
  810SOL     OW12533   8.951   2.892   1.660  0.0519 -0.8048  0.0375
  810SOL    HW112534   9.014   2.850   1.595 -0.9583 -1.4792 -0.5152
  810SOL    HW212535   8.955   2.843   1.747  1.0831 -0.1692  0.3647
  811SOL     OW12536   9.724   6.085   1.050 -0.7748  0.2285  0.0542
  811SOL    HW112537   9.716   6.112   1.146  0.2096 -1.1254  0.5375
  811SOL    HW212538   9.764   6.160   0.997 -0.2750  0.5813  0.9194
  812SOL     OW12539   2.990   4.170   1.701  0.1956  0.5456  0.7359
  812SOL    HW112540   3.088   4.184   1.694 -0.1984  2.0891 -2.7192
  812SOL    HW212541   2.967   4.078   1.669  0.4182  0.4315  0.8993
  813SOL     OW12542   3.404   4.972   0.908 -0.0777 -0.0302 -0.3459
  813SOL    HW112543   3.456   4.888   0.895 -1.4796 -1.2405  1.5948
  813SOL    HW212544   3.329   4.976   0.843 -1.5039 -1.5316  1.1627
  814SOL     OW12545   0.069   2.121   1.794 -0.9466  0.0025 -0.2033
  814SOL    HW112546   0.091   2.213   1.826 -0.9866 -0.6823  1.9057
  814SOL    HW212547   0.030   2.125   1.702  0.2025  1.9670 -0.6182
  815SOL     OW12548   9.535   2.497   1.492 -0.3643  0.4186  0.1846
  815SOL    HW112549   9.602   2.482   1.419  0.9335  0.2434  1.3915
  815SOL    HW212550   9.535   2.594   1.517 -0.1623  0.3181  0.5718
  816SOL     OW12551   9.986   8.748   0.520  0.2217  0.0385 -0.4983
  816SOL    HW112552  10.002   8.695   0.603 -0.6574  0.8646  0.2052
  816SOL    HW212553   9.892   8.736   0.490  0.7051 -0.7728 -1.7604
  817SOL     OW12554   8.852   7.767   2.379  0.2902  0.1179  0.0362
  817SOL    HW112555   8.846   7.836   2.451  2.6197 -1.4321  1.7929
  817SOL    HW212556   8.868   7.677   2.420  0.2881 -1.0346 -2.3684
  818SOL     OW12557   2.558   3.438   2.073  0.1461 -0.2987 -0.4813
  818SOL    HW112558   2.497   3.379   2.126 -2.1838  1.5770 -0.9944
  818SOL    HW212559   2.647   3.444   2.119 -0.5832 -1.7385  1.1746
  819SOL     OW12560   0.459   1.981   1.306 -0.1880  0.3807  0.2704
  819SOL    HW112561   0.549   2.023   1.300  0.0806 -0.0680  1.0024
  819SOL    HW212562   0.469   1.881   1.307 -0.4399  0.3376  3.5677
  820SOL     OW12563   2.817   7.019   0.346 -0.0004 -0.1141 -0.3187
  820SOL    HW112564   2.807   6.921   0.330  0.9924 -0.3091  0.2758
  820SOL    HW212565   2.789   7.041   0.439  1.8778 -0.1636  0.2649
  821SOL     OW12566   8.833   7.580   1.518  0.0660 -0.0306 -0.0006
  821SOL    HW112567   8.773   7.577   1.597 -0.0377  0.8036 -0.0414
  821SOL    HW212568   8.790   7.533   1.441  0.2244 -0.9509  0.4689
  822SOL     OW12569   4.115   9.103   2.127  0.1766  0.3779  0.2613
  822SOL    HW112570   4.157   9.034   2.186  0.3364  1.5292  1.5089
  822SOL    HW212571   4.183   9.171   2.102 -0.3409  0.8966  0.2537
  823SOL     OW12572   9.008   7.333   1.500  0.2002 -0.4902 -0.1156
  823SOL    HW112573   8.991   7.427   1.531 -0.5562 -1.1124  1.4360
  823SOL    HW212574   8.951   7.313   1.421 -1.0759 -0.2491  0.7259
  824SOL     OW12575   3.351   3.435   0.036 -0.4998 -1.0163 -0.2458
  824SOL    HW112576   3.451   3.431   0.032 -0.4242  0.5475 -0.1952
  824SOL    HW212577   3.316   3.465  -0.053 -0.8504 -0.3453  0.1161
  825SOL     OW12578   0.310   7.792   1.272  0.0664 -0.0719  0.2568
  825SOL    HW112579   0.287   7.698   1.244 -1.0240  0.4769 -0.7506
  825SOL    HW212580   0.410   7.802   1.275  0.2163 -1.6965  1.9224
  826SOL     OW12581   9.749   8.344   2.078 -0.0281  0.3828  0.2580
  826SOL    HW112582   9.800   8.386   2.003 -0.1722 -0.2626 -0.2112
  826SOL    HW212583   9.654   8.331   2.050 -0.5277  1.8754  1.2453
  827SOL     OW12584   2.815   5.049   1.599  0.1124 -0.2319  0.1426
  827SOL    HW112585   2.887   5.080   1.537 -1.5015  0.1428 -1.5701
  827SOL    HW212586   2.803   4.950   1.590  1.9371 -0.6670  2.0877
  828SOL     OW12587   0.037   0.736   1.022 -0.1660 -0.7111  0.3907
  828SOL    HW112588  -0.030   0.810   1.029  1.5963  0.8423  1.3881
  828SOL    HW212589   0.100   0.756   0.946  0.3489 -1.1590  0.6997
  829SOL     OW12590   9.762   8.117   0.653  0.0463  0.3338 -0.4060
  829SOL    HW112591   9.707   8.122   0.570  1.3665 -0.7137 -1.3839
  829SOL    HW212592   9.824   8.038   0.647  0.2576  0.3343  1.5122
  830SOL     OW12593   9.479   6.141   0.858  0.0475  0.1622  0.3089
  830SOL    HW112594   9.550   6.122   0.926 -1.2467  0.3905  1.7510
  830SOL    HW212595   9.520   6.146   0.767  1.6888 -0.8981  0.9828
  831SOL     OW12596   9.081   9.789   0.472 -0.4015  0.6066 -0.1019
  831SOL    HW112597   9.115   9.754   0.559 -2.4199  2.8568  1.6422
  831SOL    HW212598   9.115   9.882   0.458 -0.2964  0.3578 -1.6273
  832SOL     OW12599   0.494   8.403   1.162  0.2109 -0.2583 -0.0524
  832SOL    HW112600   0.551   8.461   1.220  0.0916  0.2085 -0.3959
  832SOL    HW212601   0.497   8.437   1.068  0.7939 -1.3039 -0.4107
  833SOL     OW12602   2.600   7.376   2.086  0.0346  0.7236  0.7242
  833SOL    HW112603   2.623   7.462   2.131  1.4202  0.3528  0.7411
  833SOL    HW212604   2.636   7.375   1.993  0.9431 -0.2399  1.0691
  834SOL     OW12605   1.702   1.075   0.303 -0.6888 -0.0841 -0.0755
  834SOL    HW112606   1.605   1.098   0.318 -0.7679  2.2290 -3.6238
  834SOL    HW212607   1.712   1.030   0.214  1.7523  1.5601 -0.6751
  835SOL     OW12608   0.538   8.493   0.168 -0.0375  0.1883 -0.5727
  835SOL    HW112609   0.575   8.585   0.159 -2.3803  1.4385  1.8939
  835SOL    HW212610   0.452   8.487   0.117 -0.7036 -0.1465  0.5821
  836SOL     OW12611   0.916   7.480   1.613 -0.0834 -0.1717  0.0084
  836SOL    HW112612   0.983   7.457   1.684  1.3279 -1.7227 -1.7753
  836SOL    HW212613   0.852   7.404   1.602 -0.1326 -0.0539 -0.5468
  837SOL     OW12614   0.789   0.191   0.753  0.1061  0.2455 -0.0429
  837SOL    HW112615   0.782   0.248   0.671 -0.4340  0.1001 -0.1030
  837SOL    HW212616   0.862   0.226   0.812  0.4441  0.3961 -0.5479
  838SOL     OW12617   3.202   3.059   1.722 -0.0605 -0.1867  0.2857
  838SOL    HW112618   3.187   2.979   1.664  1.1140  0.0400 -0.3588
  838SOL    HW212619   3.283   3.044   1.779 -0.4388  0.1272  0.9065
  839SOL     OW12620   1.802   8.319   1.925 -0.3910 -0.4371  0.5560
  839SOL    HW112621   1.806   8.251   1.852  0.0945 -2.2750  2.2449
  839SOL    HW212622   1.885   8.374   1.924  1.3083 -2.8556  1.9192
  840SOL     OW12623   9.416   6.315   0.130 -0.5876 -0.7492  0.4799
  840SOL    HW112624   9.514   6.309   0.114 -0.6763  2.0684 -1.3940
  840SOL    HW212625   9.390   6.251   0.203  2.6095 -1.4958  1.0231
  841SOL     OW12626   7.832   9.774   1.580  0.5920 -0.1083 -0.4767
  841SOL    HW112627   7.789   9.721   1.653  1.6613  0.2204  0.4069
  841SOL    HW212628   7.875   9.855   1.618  3.0111 -1.0125 -1.1427
  842SOL     OW12629   8.713   1.860   2.454  0.4472 -0.5087 -0.0398
  842SOL    HW112630   8.694   1.902   2.365 -1.1161 -2.2906 -0.5582
  842SOL    HW212631   8.664   1.909   2.525 -0.4035 -0.7073 -0.4889
  843SOL     OW12632   3.174   7.605   0.274 -0.3559  0.5719 -0.2721
  843SOL    HW112633   3.102   7.643   0.332  0.9356  1.3493  0.8561
  843SOL    HW212634   3.150   7.511   0.249 -2.0583  1.0364 -0.4673
  844SOL     OW12635   1.901   8.176   0.979 -0.2019  0.1640 -0.0946
  844SOL    HW112636   1.859   8.183   0.889  0.5167  0.7336 -0.3977
  844SOL    HW212637   1.833   8.194   1.050 -0.2535  2.1342 -0.6065
  845SOL     OW12638   9.262   7.889   2.401 -0.2814 -1.3062 -0.1531
  845SOL    HW112639   9.248   7.846   2.490  0.0411  0.6001  0.8509
  845SOL    HW212640   9.196   7.853   2.336 -2.4460 -0.6451  1.6149
  846SOL     OW12641   3.137   4.450   1.982 -0.9366 -0.4030  0.0669
  846SOL    HW112642   3.203   4.525   1.970 -1.9474  0.6688  1.1305
  846SOL    HW212643   3.090   4.434   1.895 -0.5702  0.0669 -0.2229
  847SOL     OW12644   9.124   5.063   0.914 -0.1316 -0.1019  0.9241
  847SOL    HW112645   9.131   5.049   0.815  0.2659 -0.9773  1.0709
  847SOL    HW212646   9.143   5.159   0.936 -0.8945  0.2414  0.0870
  848SOL     OW12647   0.549   3.556   0.827  0.4685  0.2666 -0.2096
  848SOL    HW112648   0.457   3.519   0.811  0.6599 -1.1465  1.7345
  848SOL    HW212649   0.585   3.594   0.742 -2.0301  1.1215 -0.9229
  849SOL     OW12650   1.457   6.936   0.838  0.3890 -0.5614  0.1757
  849SOL    HW112651   1.463   6.901   0.745  1.4472  1.9585 -0.7647
  849SOL    HW212652   1.363   6.962   0.858  0.4436  0.4589 -0.8262
  850SOL     OW12653   0.484   8.379   0.416  0.1801  0.0133  0.0924
  850SOL    HW112654   0.488   8.280   0.405 -2.0560 -0.1313  0.3901
  850SOL    HW212655   0.513   8.424   0.331 -1.7387 -0.9421 -1.1004
  851SOL     OW12656   1.956   2.000   1.265 -0.5236 -0.1958  1.1472
  851SOL    HW112657   1.941   2.025   1.361 -0.0916 -0.9012  1.4066
  851SOL    HW212658   1.964   1.900   1.258 -0.9313 -0.1769  0.3239
  852SOL     OW12659   2.645   2.905   0.912 -0.2012 -0.0556  0.2288
  852SOL    HW112660   2.706   2.854   0.851  1.1764  0.9634  0.7290
  852SOL    HW212661   2.578   2.843   0.953  0.7765 -1.2621  0.0091
  853SOL     OW12662   1.517   6.735   2.080 -0.2875  0.2557 -0.1249
  853SOL    HW112663   1.597   6.765   2.132  0.8108 -2.3228 -0.2797
  853SOL    HW212664   1.434   6.767   2.127  0.7761  1.9030  0.6979
  854SOL     OW12665   9.999   1.430   1.984  0.3075 -0.5266  0.2624
  854SOL    HW112666   9.916   1.419   1.930  0.5892  1.7861 -0.6963
  854SOL    HW212667   9.987   1.388   2.074 -1.8529 -0.2740  0.1014
  855SOL     OW12668   0.855   5.418   1.282  0.0628 -0.2040 -0.2593
  855SOL    HW112669   0.841   5.379   1.191  0.3512  1.0939 -0.8782
  855SOL    HW212670   0.782   5.483   1.302 -1.1508 -1.9962  1.3092
  856SOL     OW12671   3.764   8.484   1.431  0.1210 -1.2122 -0.3235
  856SOL    HW112672   3.705   8.556   1.393  0.0239 -1.5850 -0.8793
  856SOL    HW212673   3.834   8.526   1.489 -0.4380 -0.7299  0.0156
  857SOL     OW12674   0.054   4.119   2.322 -0.2425 -0.2351 -0.7037
  857SOL    HW112675   0.029   4.111   2.419 -0.3008  1.7722 -0.5271
  857SOL    HW212676  -0.012   4.178   2.276 -0.5986 -1.7138 -2.1396
  858SOL     OW12677   3.634   0.697   0.876 -0.1104 -0.2674  0.3154
  858SOL    HW112678   3.564   0.729   0.813 -0.3966 -0.5103  0.5073
  858SOL    HW212679   3.626   0.598   0.887  0.5727 -0.3602 -0.0368
  859SOL     OW12680   9.464   1.987   1.274  0.2737  0.3009 -0.3101
  859SOL    HW112681   9.493   1.919   1.341 -0.4359 -1.1703 -1.4473
  859SOL    HW212682   9.515   1.974   1.189  1.6938  2.6235  0.1671
  860SOL     OW12683   4.197   0.454   0.992  0.3940 -0.1913  0.7168
  860SOL    HW112684   4.181   0.551   0.975 -1.2105 -0.5699 -0.0078
  860SOL    HW212685   4.293   0.432   0.976  0.4400  0.9652 -0.6633
  861SOL     OW12686   1.308   2.447   1.424 -0.4560  0.3137  0.0978
  861SOL    HW112687   1.279   2.515   1.492 -0.6430  1.2300 -0.8752
  861SOL    HW212688   1.293   2.484   1.333  0.2859 -0.6969 -0.4387
  862SOL     OW12689   0.118   7.400   1.771 -0.0613  0.3568  0.2280
  862SOL    HW112690   0.156   7.484   1.734  0.1559  0.7510  1.3271
  862SOL    HW212691   0.019   7.407   1.776 -0.0506  0.5036  0.2185
  863SOL     OW12692   9.382   9.840   1.002  0.5517  0.2839  0.5887
  863SOL    HW112693   9.420   9.858   1.093 -0.1181  2.2021  0.5036
  863SOL    HW212694   9.320   9.914   0.976  0.6797 -0.2667 -1.4011
  864SOL     OW12695   9.921   2.621   0.228  0.3596 -0.3160 -0.2454
  864SOL    HW112696  10.010   2.582   0.252  0.4505 -1.7276 -2.7419
  864SOL    HW212697   9.852   2.549   0.226 -0.7452  0.6880  1.1482
  865SOL     OW12698   0.552   7.254   0.691  0.5318 -0.0823  0.1161
  865SOL    HW112699   0.650   7.240   0.684  0.7415  0.7250  1.2277
  865SOL    HW212700   0.533   7.321   0.763 -0.8029  0.1018 -0.3860
  866SOL     OW12701   3.045   2.940   2.019 -0.1732  0.1152  0.4052
  866SOL    HW112702   3.088   3.010   2.077  0.1803 -0.4035  0.7692
  866SOL    HW212703   2.948   2.960   2.010  0.2322  1.6443 -0.9061
  867SOL     OW12704   3.101   1.327   0.901 -0.0622 -0.6044 -0.3341
  867SOL    HW112705   3.195   1.299   0.879  1.0109  1.8362  0.9185
  867SOL    HW212706   3.093   1.344   0.999 -0.7013  3.0626 -0.9560
  868SOL     OW12707   1.806   0.165   1.061 -0.0463  0.4735 -0.2881
  868SOL    HW112708   1.798   0.070   1.090  0.9617 -0.0748 -1.7587
  868SOL    HW212709   1.895   0.180   1.017 -1.0443  1.5537 -2.0250
  869SOL     OW12710   3.999   4.031   0.231  0.3275 -0.5966 -0.8102
  869SOL    HW112711   4.084   3.992   0.196  1.0550 -0.0105  0.2577
  869SOL    HW212712   4.020   4.111   0.287 -1.0029  0.1334 -1.3308
  870SOL     OW12713   1.831   1.108   1.408 -0.1039 -0.5004 -0.4442
  870SOL    HW112714   1.747   1.157   1.384 -0.2734 -1.0382 -0.9764
  870SOL    HW212715   1.809   1.011   1.420 -0.0303 -0.2772  1.8755
  871SOL     OW12716   0.889   0.890   0.691 -0.6223 -0.0018  0.8102
  871SOL    HW112717   0.911   0.829   0.615 -1.8943 -0.9820  1.2209
  871SOL    HW212718   0.799   0.930   0.677 -0.9970 -0.4358  1.9614
  872SOL     OW12719   1.986   1.080   0.309  0.0167  0.8151  0.6552
  872SOL    HW112720   1.887   1.095   0.302 -0.3074 -0.6350  1.9245
  872SOL    HW212721   2.023   1.139   0.381 -0.1928  0.2563  1.2297
  873SOL     OW12722   0.768   8.964   0.118  0.2053 -0.1228  0.1402
  873SOL    HW112723   0.675   8.967   0.081  0.8699  1.5697 -1.4764
  873SOL    HW212724   0.764   8.966   0.218 -1.4585  1.0161  0.0730
  874SOL     OW12725   9.459   0.423   0.938 -0.0233 -0.8003  0.2737
  874SOL    HW112726   9.464   0.522   0.925  1.6623 -0.8704  0.2508
  874SOL    HW212727   9.431   0.379   0.852 -1.0442 -0.3231  0.3635
  875SOL     OW12728   0.045   3.499   1.938  0.1536  0.4737  0.3624
  875SOL    HW112729   0.055   3.435   2.014  2.3462  1.2814  0.7901
  875SOL    HW212730   0.080   3.458   1.854 -0.0835  0.4543  0.2723
  876SOL     OW12731   9.864   8.500   0.883  0.0413 -0.0384  0.2118
  876SOL    HW112732   9.832   8.405   0.891  3.3274 -1.3216 -1.2089
  876SOL    HW212733   9.940   8.504   0.818  1.6556  3.1808  2.2211
  877SOL     OW12734   3.703   8.577   0.622  0.4046  0.6717 -0.1278
  877SOL    HW112735   3.750   8.615   0.702 -1.2030  0.1601  1.0887
  877SOL    HW212736   3.622   8.527   0.652 -1.0096  1.6817 -2.2010
  878SOL     OW12737   3.010   8.031   2.465 -0.0036  0.5367  0.3728
  878SOL    HW112738   2.986   8.061   2.372  3.2450  0.0589 -0.6745
  878SOL    HW212739   3.012   7.931   2.468  3.2679  0.5600 -0.0018
  879SOL     OW12740   3.426   2.172   0.081 -0.8059  0.2032  0.0772
  879SOL    HW112741   3.388   2.199   0.169  2.3459 -0.0692  1.6161
  879SOL    HW212742   3.492   2.241   0.051 -3.0117  1.1162 -2.9235
  880SOL     OW12743   9.972   1.075   2.578 -0.1054  0.0319 -0.4434
  880SOL    HW112744  10.028   0.999   2.545  0.2362  0.0491  0.0885
  880SOL    HW212745   9.891   1.084   2.520 -1.0256 -1.8500  0.4993
  881SOL     OW12746   8.902   2.025   0.335 -0.3994  0.3631  0.0393
  881SOL    HW112747   8.978   1.991   0.280 -0.7903 -0.0867 -0.2155
  881SOL    HW212748   8.824   2.045   0.277  0.1937  2.7872  0.0179
  882SOL     OW12749   0.857   4.113   0.709  0.3353  0.4076  0.4504
  882SOL    HW112750   0.898   4.128   0.619 -0.4490 -0.5079 -0.0688
  882SOL    HW212751   0.858   4.198   0.761  0.9459  0.9030 -0.3642
  883SOL     OW12752   0.363   7.110   2.338 -0.6256  0.2625 -0.1787
  883SOL    HW112753   0.374   7.020   2.381 -0.7374 -0.2357 -1.1871
  883SOL    HW212754   0.266   7.126   2.318 -0.3873 -0.2325 -1.7854
  884SOL     OW12755   9.363   5.180   1.567  0.2791 -0.1676  0.3099
  884SOL    HW112756   9.279   5.233   1.555 -0.6155 -1.8081 -0.9897
  884SOL    HW212757   9.390   5.180   1.663 -1.2794  0.2907  0.7537
  885SOL     OW12758   7.819   8.923   1.989  0.2616  0.2206  0.2388
  885SOL    HW112759   7.884   8.864   2.036 -0.4912  0.0703  1.1184
  885SOL    HW212760   7.765   8.868   1.924  1.7105  0.5410 -1.2575
  886SOL     OW12761   3.956   0.058   1.835 -0.1758  0.7009  0.1397
  886SOL    HW112762   3.979   0.144   1.789  1.9777 -0.7930 -1.6473
  886SOL    HW212763   3.923  -0.008   1.768 -1.3044 -0.0618  1.4312
  887SOL     OW12764   2.124   6.125   1.210  0.3673  0.5595  0.2366
  887SOL    HW112765   2.213   6.120   1.165  0.5037  0.0168  0.5576
  887SOL    HW212766   2.118   6.210   1.263  1.6588 -0.5188  2.1873
  888SOL     OW12767   1.872   7.490   0.698  0.3501 -0.3241  0.1181
  888SOL    HW112768   1.964   7.463   0.725 -0.2390 -0.9642  1.5392
  888SOL    HW212769   1.877   7.564   0.631  1.8750  1.0110  1.6842
  889SOL     OW12770   1.088   1.232   2.332  0.0585  0.5180  0.5987
  889SOL    HW112771   1.045   1.321   2.316 -1.0575  0.1744  1.6161
  889SOL    HW212772   1.106   1.221   2.430 -1.2713 -1.0466  0.6740
  890SOL     OW12773   2.692   6.300   1.850  0.2103 -0.3049  0.6987
  890SOL    HW112774   2.781   6.280   1.808  0.5918  2.1891  0.2259
  890SOL    HW212775   2.697   6.388   1.897 -2.3540  0.4376 -0.3508
  891SOL     OW12776   8.528   9.436   2.122 -0.0778 -0.1372  0.3050
  891SOL    HW112777   8.553   9.471   2.032  0.2148 -2.3689 -0.5391
  891SOL    HW212778   8.436   9.396   2.118 -0.7520  1.2659  1.4409
  892SOL     OW12779   9.378   5.149   2.210 -0.4820  0.1054  0.2497
  892SOL    HW112780   9.305   5.163   2.277 -0.7595 -0.4431  0.0605
  892SOL    HW212781   9.340   5.110   2.126 -0.3268  1.8554 -0.6673
  893SOL     OW12782   8.891   9.031   1.469  0.0482 -0.0476  0.4682
  893SOL    HW112783   8.919   9.127   1.473 -0.2263  0.0231  0.6272
  893SOL    HW212784   8.953   8.976   1.524 -0.7902  0.2621  1.7231
  894SOL     OW12785   0.671   5.798   0.945  0.0814 -0.3641 -0.0127
  894SOL    HW112786   0.585   5.767   0.904  0.0449  0.9275 -0.9436
  894SOL    HW212787   0.657   5.887   0.988  1.1318  0.2379 -0.8768
  895SOL     OW12788   3.057   1.445   0.380 -0.0270 -0.0979 -0.3052
  895SOL    HW112789   3.017   1.448   0.471 -1.5002 -0.1321 -0.9336
  895SOL    HW212790   3.155   1.468   0.385 -0.5654  1.9946  1.0187
  896SOL     OW12791   0.464   1.509   2.301  0.0492 -0.3021  0.3559
  896SOL    HW112792   0.501   1.601   2.290 -0.1890 -0.1949  0.4341
  896SOL    HW212793   0.441   1.494   2.397  2.5648 -1.4108  0.8111
  897SOL     OW12794   9.042   1.014   0.636 -0.4206  0.3696  0.4395
  897SOL    HW112795   8.967   1.031   0.572 -1.6533 -0.2269  1.6987
  897SOL    HW212796   9.129   1.016   0.587 -1.3510 -0.2248 -1.2625
  898SOL     OW12797   9.038   2.552   0.398 -0.5491  0.0268  0.2074
  898SOL    HW112798   8.986   2.469   0.377 -2.2897  1.2377 -0.2969
  898SOL    HW212799   8.983   2.613   0.455  0.6960  0.8831  0.5065
  899SOL     OW12800   2.478   4.524   0.513 -0.3623 -0.1912  0.3699
  899SOL    HW112801   2.516   4.612   0.542  0.9101 -0.1516 -1.3667
  899SOL    HW212802   2.552   4.457   0.505 -0.9444 -0.6885 -0.9744
  900SOL     OW12803   0.999   0.332   0.909  0.0679 -0.1999  0.2451
  900SOL    HW112804   1.063   0.396   0.867  1.7105 -1.4464  0.7745
  900SOL    HW212805   0.917   0.381   0.939  0.0981  1.1613 -1.8296
  901SOL     OW12806   2.349   0.402   0.761 -0.1175 -0.1287 -0.5681
  901SOL    HW112807   2.421   0.432   0.823  1.1176 -0.3611 -1.8501
  901SOL    HW212808   2.272   0.465   0.767  0.5462  0.6290  0.1911
  902SOL     OW12809   8.466   9.304   0.883 -0.5075 -0.0615  0.1848
  902SOL    HW112810   8.519   9.263   0.957  1.7833  2.2441 -0.1079
  902SOL    HW212811   8.430   9.393   0.912  0.5145  0.9281 -1.4609
  903SOL     OW12812   0.654   3.983   0.865 -0.1611  0.2912 -0.4151
  903SOL    HW112813   0.732   4.031   0.824  0.5275 -0.2647  0.2325
  903SOL    HW212814   0.593   3.951   0.793  1.3390 -1.1997 -1.0652
  904SOL     OW12815   0.822   9.487   1.652 -0.2431  0.7680  0.7502
  904SOL    HW112816   0.827   9.397   1.696 -0.9154  0.3430 -0.0284
  904SOL    HW212817   0.734   9.530   1.673 -0.2572  0.8922  0.4339
  905SOL     OW12818   7.703   0.279   2.401 -0.0887  0.7305  0.7472
  905SOL    HW112819   7.777   0.221   2.366 -0.7100  0.2885  0.1301
  905SOL    HW212820   7.732   0.324   2.485  0.7760  0.3358  0.6660
  906SOL     OW12821   9.497   4.045   2.124 -0.6928  0.0892  0.0720
  906SOL    HW112822   9.510   4.083   2.216 -1.1047 -1.2662  0.7073
  906SOL    HW212823   9.522   3.948   2.124 -0.8213  0.0429 -1.2200
  907SOL     OW12824   0.963   7.366   2.484 -0.0693 -0.3877  0.5597
  907SOL    HW112825   0.922   7.316   2.407 -2.7135  1.5319  0.6565
  907SOL    HW212826   1.015   7.444   2.449 -1.2116  0.4431  0.6837
  908SOL     OW12827   2.778   3.635   0.538 -0.0440 -0.4032  0.6236
  908SOL    HW112828   2.739   3.659   0.449  1.2503 -1.3371 -0.2151
  908SOL    HW212829   2.857   3.574   0.525  0.9770  0.5043  2.3390
  909SOL     OW12830   1.001   1.525   0.262  0.2587  0.4105  0.0049
  909SOL    HW112831   1.068   1.597   0.283 -1.3866  2.3618 -1.2352
  909SOL    HW212832   0.996   1.512   0.163 -0.9728  0.0664  0.1075
  910SOL     OW12833   2.156   1.065   1.725  0.3421 -0.0327  0.1492
  910SOL    HW112834   2.152   1.065   1.625  0.3626  1.1261  0.1412
  910SOL    HW212835   2.066   1.086   1.762  0.4035 -0.1616  0.3738
  911SOL     OW12836   0.468   3.634   2.238 -0.3449 -0.2125 -0.1859
  911SOL    HW112837   0.420   3.719   2.260  0.1899 -0.3246  1.4446
  911SOL    HW212838   0.476   3.626   2.138 -1.5972  0.9709 -0.3980
  912SOL     OW12839   7.725   8.953   0.392  0.0770 -0.0362 -0.8120
  912SOL    HW112840   7.677   8.867   0.407 -2.9888  1.6117 -0.8895
  912SOL    HW212841   7.792   8.966   0.465 -1.7570 -0.9191  1.0948
  913SOL     OW12842   8.637   0.152   1.356 -0.4809 -0.9449  0.0918
  913SOL    HW112843   8.696   0.197   1.423 -1.1935 -1.2166  0.9089
  913SOL    HW212844   8.691   0.088   1.302  0.3032  0.0209 -0.2859
  914SOL     OW12845   9.770   4.184   0.314 -0.3091  0.5861  0.0372
  914SOL    HW112846   9.675   4.154   0.314 -0.6133  1.5245  0.3205
  914SOL    HW212847   9.773   4.284   0.315  0.6544  0.5878  3.4080
  915SOL     OW12848   0.720   3.444   1.583  0.0887 -0.4386  0.2024
  915SOL    HW112849   0.757   3.498   1.507  2.7901 -2.6083 -0.1156
  915SOL    HW212850   0.776   3.458   1.665 -1.3307 -0.0209  1.1135
  916SOL     OW12851   1.406   3.717   1.042 -0.7349  0.1615  0.0125
  916SOL    HW112852   1.504   3.709   1.063 -0.7940  0.5041  0.4493
  916SOL    HW212853   1.369   3.796   1.092 -1.5396 -0.8342  1.0070
  917SOL     OW12854   1.006   6.610   0.914 -0.6452  0.1641  0.0409
  917SOL    HW112855   1.015   6.693   0.969 -0.2990  0.2621 -0.1598
  917SOL    HW212856   1.028   6.631   0.819 -2.0401  0.1787 -0.2940
  918SOL     OW12857   3.309   1.882   1.097  0.1803  0.0383  0.0947
  918SOL    HW112858   3.224   1.835   1.073  1.0973 -0.1093 -3.0826
  918SOL    HW212859   3.372   1.818   1.141 -0.6533 -0.3119  0.7804
  919SOL     OW12860   1.258   0.325   1.847  0.4899  0.2191 -0.2213
  919SOL    HW112861   1.317   0.256   1.889  0.5935  1.3758  1.5888
  919SOL    HW212862   1.166   0.317   1.885  0.3293  0.6428 -0.5225
  920SOL     OW12863   2.281   7.200   1.201 -0.3471 -0.0309  0.4949
  920SOL    HW112864   2.183   7.187   1.215 -0.1175 -1.1344  1.1534
  920SOL    HW212865   2.331   7.135   1.258  0.7693  0.5853  0.2234
  921SOL     OW12866   1.072   4.241   0.467  0.0167  0.6726 -0.2626
  921SOL    HW112867   1.124   4.326   0.466  1.0825  0.0374  0.4364
  921SOL    HW212868   1.101   4.184   0.544 -1.7169  0.3014  0.1478
  922SOL     OW12869   9.750   5.811   1.862  0.0404  0.2642 -0.3696
  922SOL    HW112870   9.771   5.897   1.908 -0.7619 -0.1268  0.7387
  922SOL    HW212871   9.832   5.778   1.814  1.4047 -0.1879  2.1956
  923SOL     OW12872   0.924   4.210   0.029  0.1444 -0.4660 -0.0380
  923SOL    HW112873   0.937   4.302   0.066  0.6782 -0.0046 -1.3544
  923SOL    HW212874   0.939   4.143   0.102 -1.2488  0.5101  1.1799
  924SOL     OW12875   2.391   6.833   1.787  0.2125 -0.0255 -0.2928
  924SOL    HW112876   2.444   6.901   1.835 -0.3753  0.2036  0.0351
  924SOL    HW212877   2.321   6.795   1.848  0.6354 -1.0282 -0.4229
  925SOL     OW12878   3.349   1.641   0.901 -0.5372 -0.6128  0.8804
  925SOL    HW112879   3.335   1.652   0.802 -1.2682  0.4771  1.0902
  925SOL    HW212880   3.268   1.676   0.949  0.8591  1.2455  1.9604
  926SOL     OW12881   0.254   0.941   1.227 -0.0538 -0.1423 -0.2181
  926SOL    HW112882   0.261   0.964   1.324 -0.1782 -3.5038  0.6570
  926SOL    HW212883   0.316   0.998   1.174  0.3947  1.3720  1.8857
  927SOL     OW12884   3.738   1.427   1.671 -0.3485 -0.0338  0.2815
  927SOL    HW112885   3.641   1.448   1.684 -0.0195  2.1434 -0.5125
  927SOL    HW212886   3.759   1.339   1.713 -2.0500  0.8054  3.0223
  928SOL     OW12887   1.419   0.497   1.412 -0.4219 -0.1078  0.1980
  928SOL    HW112888   1.400   0.539   1.323 -1.3480 -0.6984  0.1135
  928SOL    HW212889   1.461   0.408   1.398  0.0519  0.0870  0.3651
  929SOL     OW12890   3.562   1.968   0.233 -0.3961  0.6004 -0.2152
  929SOL    HW112891   3.524   2.045   0.182  0.0532 -0.0639 -1.5867
  929SOL    HW212892   3.599   2.000   0.320 -1.6403  1.6722 -0.0708
  930SOL     OW12893   0.679   4.894   1.507 -0.9306 -0.3042  0.0179
  930SOL    HW112894   0.620   4.971   1.529 -0.9676 -0.4916  0.5823
  930SOL    HW212895   0.771   4.927   1.487 -0.3341 -0.2856  2.5568
  931SOL     OW12896   0.536   9.908   2.325  0.2450  0.4694 -0.4225
  931SOL    HW112897   0.605   9.836   2.326  0.3728  0.5920 -0.4441
  931SOL    HW212898   0.546   9.962   2.242  0.2390  0.6015 -0.3368
  932SOL     OW12899   0.323   5.801   0.274 -0.1978  0.1351 -0.3633
  932SOL    HW112900   0.403   5.834   0.324 -0.5999  0.8868 -0.2145
  932SOL    HW212901   0.350   5.726   0.214  0.7789  0.8921 -0.8858
  933SOL     OW12902   3.103   9.509   0.027 -0.2853 -0.1476 -0.1469
  933SOL    HW112903   3.125   9.499  -0.070  1.5911  0.4924  0.1980
  933SOL    HW212904   3.047   9.591   0.040 -2.2785 -1.3631 -0.9385
  934SOL     OW12905   3.078   5.154   1.403 -0.0396  0.9358  0.3229
  934SOL    HW112906   3.080   5.128   1.500 -1.7684 -0.2724  0.0616
  934SOL    HW212907   3.137   5.093   1.351 -0.4987  0.4395  0.3748
  935SOL     OW12908   8.208   0.849   1.158  0.2298 -0.0868  0.6001
  935SOL    HW112909   8.203   0.809   1.249 -1.4863 -2.0552 -0.3126
  935SOL    HW212910   8.178   0.782   1.090  1.9874  1.1747 -1.4813
  936SOL     OW12911   2.100   2.646   0.732 -0.0376 -0.3688  0.1055
  936SOL    HW112912   2.131   2.617   0.641 -0.9880  1.1940 -0.7333
  936SOL    HW212913   2.070   2.741   0.728 -0.5867 -0.4552  1.9463
  937SOL     OW12914   9.765   4.455   0.283 -0.1437 -0.2238 -0.3679
  937SOL    HW112915   9.682   4.489   0.326  0.7484  1.4405  0.0773
  937SOL    HW212916   9.769   4.488   0.189 -0.7168 -1.5627 -0.8794
  938SOL     OW12917   8.934   6.621   0.662 -0.7303  0.2656  0.0268
  938SOL    HW112918   9.029   6.590   0.667 -0.9484 -0.3711  0.2061
  938SOL    HW212919   8.932   6.720   0.647 -0.0254  0.0509 -1.5438
  939SOL     OW12920   2.382   8.439   0.989  0.4319  0.3339  0.1532
  939SOL    HW112921   2.442   8.374   0.943 -0.5728  0.2238 -1.0488
  939SOL    HW212922   2.436   8.505   1.041  1.4671 -1.4043  1.3175
  940SOL     OW12923   0.885   0.543   0.044  0.7392  0.1719 -0.2568
  940SOL    HW112924   0.951   0.471   0.023  0.5322  0.1038 -0.6718
  940SOL    HW212925   0.792   0.511   0.022  0.6594  0.6210 -0.5872
  941SOL     OW12926   2.630   4.758   0.610  0.3469 -0.5726 -0.2449
  941SOL    HW112927   2.610   4.838   0.667 -1.5398 -1.4049  0.3225
  941SOL    HW212928   2.668   4.787   0.523  0.7796  0.8743  0.4145
  942SOL     OW12929   2.711   2.264   0.476  0.0048  0.1914  0.0277
  942SOL    HW112930   2.756   2.257   0.565 -1.7531  1.3548  1.0542
  942SOL    HW212931   2.619   2.224   0.482 -0.7153  1.6532 -0.7809
  943SOL     OW12932   8.831   9.881   1.495  0.3407 -0.4276  0.0285
  943SOL    HW112933   8.880   9.939   1.430 -0.3816  0.1308 -0.0228
  943SOL    HW212934   8.746   9.849   1.453 -1.1538  1.6175  1.3871
  944SOL     OW12935   0.347   8.362   2.053  0.1860 -0.1302  0.1154
  944SOL    HW112936   0.278   8.306   2.008  0.7510 -1.2441  0.6241
  944SOL    HW212937   0.320   8.379   2.147  1.0031 -1.2875  0.5714
  945SOL     OW12938   8.362   0.678   0.822 -0.5170  0.8989 -0.2305
  945SOL    HW112939   8.419   0.735   0.762 -1.4010  2.2276  0.1799
  945SOL    HW212940   8.267   0.683   0.792 -0.5318 -0.7639 -0.4860
  946SOL     OW12941   0.240   0.728   2.194  0.4873 -0.3611  0.2869
  946SOL    HW112942   0.282   0.740   2.104 -0.0361  0.4447  0.1404
  946SOL    HW212943   0.286   0.786   2.261 -0.3328  0.4948  0.1336
  947SOL     OW12944   4.253   3.691   2.373  0.3030 -0.0498 -0.1348
  947SOL    HW112945   4.269   3.790   2.385 -0.6867 -0.0010  0.8507
  947SOL    HW212946   4.155   3.674   2.368  0.4016 -1.1926  1.6132
  948SOL     OW12947   1.503   7.527   2.144  0.4221 -0.2896 -0.3225
  948SOL    HW112948   1.602   7.529   2.134  0.3418 -0.5158 -1.2700
  948SOL    HW212949   1.466   7.448   2.094 -0.4463  1.1927 -2.0923
  949SOL     OW12950   0.112   9.216   1.654 -0.1130 -1.0005 -0.7264
  949SOL    HW112951   0.084   9.230   1.749  0.3377 -2.3048 -0.3937
  949SOL    HW212952   0.079   9.292   1.598 -0.9019 -0.5275  0.3637
  950SOL     OW12953   2.933   6.276   1.639  0.0842 -0.0754  0.4955
  950SOL    HW112954   2.903   6.368   1.616 -0.3388 -0.1999  0.5471
  950SOL    HW212955   2.918   6.216   1.560 -1.1158 -0.4442  0.9953
  951SOL     OW12956   1.616   9.316   1.293  0.3390  0.4549  0.2488
  951SOL    HW112957   1.694   9.376   1.308  1.1164 -0.6061  0.5562
  951SOL    HW212958   1.641   9.222   1.318 -0.4921 -0.1869 -1.2446
  952SOL     OW12959   8.080   1.482   0.237  0.3213 -0.5755  0.1409
  952SOL    HW112960   8.162   1.539   0.239  1.0433 -1.5749 -0.7092
  952SOL    HW212961   8.103   1.390   0.267  0.0713 -1.5606 -2.6242
  953SOL     OW12962   1.532   2.458   0.832 -0.3317 -0.3826 -0.3075
  953SOL    HW112963   1.493   2.405   0.757 -0.3307  0.4017 -0.8713
  953SOL    HW212964   1.615   2.413   0.866 -1.0499 -1.4318  0.1107
  954SOL     OW12965   4.416   1.199   2.052 -0.0957  0.1515 -0.0585
  954SOL    HW112966   4.398   1.173   2.147 -1.0008  1.9042  0.2788
  954SOL    HW212967   4.330   1.218   2.006  0.4548  1.4406 -0.5897
  955SOL     OW12968   1.205   0.088   0.671  0.0040  0.3909  0.1782
  955SOL    HW112969   1.268   0.124   0.740  2.9273 -0.2734 -2.0538
  955SOL    HW212970   1.175   0.162   0.611  0.1320  0.3670  0.0864
  956SOL     OW12971   3.984   9.168   2.458 -0.0468  0.4084  0.9649
  956SOL    HW112972   3.891   9.191   2.428 -0.7260 -0.0819  2.6372
  956SOL    HW212973   4.041   9.250   2.454  0.0142  0.2917 -1.9844
  957SOL     OW12974   8.729   1.624   1.149 -0.1685 -0.0352  0.3718
  957SOL    HW112975   8.632   1.626   1.172 -0.0138 -1.3963  1.2308
  957SOL    HW212976   8.782   1.657   1.227  0.0441  1.2811 -0.3089
  958SOL     OW12977   9.476   6.413   1.168 -0.0227  0.2836 -0.4438
  958SOL    HW112978   9.430   6.357   1.237 -1.0867  0.6019 -0.8936
  958SOL    HW212979   9.570   6.431   1.198 -0.1549 -0.4249  0.4405
  959SOL     OW12980   0.788   7.133   1.200  0.5320 -0.6272 -0.1141
  959SOL    HW112981   0.708   7.075   1.186  0.4003 -0.2812 -0.7988
  959SOL    HW212982   0.818   7.170   1.113  1.2402 -0.4870  0.1862
  960SOL     OW12983   2.284   4.127   1.173  0.2183  0.5190 -1.0456
  960SOL    HW112984   2.270   4.091   1.081 -0.2694 -1.0964 -0.3454
  960SOL    HW212985   2.197   4.162   1.208  0.2747  0.5455 -0.9337
  961SOL     OW12986   1.100   5.123   0.944 -0.3268  0.5142 -0.4083
  961SOL    HW112987   1.052   5.117   0.857  1.4030 -0.1556 -1.3351
  961SOL    HW212988   1.145   5.037   0.963 -0.5685  0.7109  1.0960
  962SOL     OW12989   2.606   3.987   0.939 -0.5002  0.5517 -0.1569
  962SOL    HW112990   2.636   4.080   0.920 -1.5382  1.1748  1.2002
  962SOL    HW212991   2.571   3.945   0.855  0.0213  1.3562 -0.7813
  963SOL     OW12992   3.772   0.903   1.791 -0.0218 -0.2654  0.1296
  963SOL    HW112993   3.684   0.883   1.833 -0.6349  0.7489 -0.6530
  963SOL    HW212994   3.758   0.936   1.697  1.0207  2.1286  0.7665
  964SOL     OW12995   9.596   2.013   2.396 -0.0917 -0.2596  0.2760
  964SOL    HW112996   9.650   2.092   2.369  1.8798 -1.3198  1.0382
  964SOL    HW212997   9.608   1.939   2.330 -1.4174 -0.1633 -0.0911
  965SOL     OW12998   9.135   0.179   1.957 -0.1816  1.1577 -0.1715
  965SOL    HW112999   9.148   0.231   1.872 -0.5554  0.5881 -0.5782
  965SOL    HW213000   9.123   0.243   2.033 -3.1705  1.6837 -1.0480
  966SOL     OW13001   3.053   1.081   2.553  0.4678 -0.1711 -0.0124
  966SOL    HW113002   3.024   1.097   2.648  1.3996 -0.5284  0.3422
  966SOL    HW213003   2.991   1.129   2.491 -2.1705 -2.6150  0.6058
  967SOL     OW13004   8.479   8.082   0.093 -0.5497 -0.6788 -0.1606
  967SOL    HW113005   8.533   8.134   0.159 -0.0574 -1.6402  0.1995
  967SOL    HW213006   8.532   8.003   0.061 -1.7391 -1.6250  0.1872
  968SOL     OW13007   1.166   3.602   0.412 -0.3164  0.1699 -0.2938
  968SOL    HW113008   1.195   3.619   0.318  1.4719  0.0614  0.2201
  968SOL    HW213009   1.241   3.561   0.463 -1.4457 -0.2605  1.0541
  969SOL     OW13010   8.680   8.081   1.072 -0.2646 -0.2382  0.5178
  969SOL    HW113011   8.605   8.143   1.051  0.2452 -0.5344 -2.3213
  969SOL    HW213012   8.762   8.134   1.094 -0.3001  0.0890 -0.1407
  970SOL     OW13013   0.029   1.914   0.158  0.0020  0.5306 -0.1128
  970SOL    HW113014   0.060   1.977   0.087  0.0602 -1.5936 -2.0617
  970SOL    HW213015  -0.061   1.877   0.133 -0.1889  0.1203  1.1475
  971SOL     OW13016   2.770   6.292   0.479 -0.2303 -0.0576  0.2354
  971SOL    HW113017   2.834   6.216   0.469  0.5507  0.4411  1.3048
  971SOL    HW213018   2.789   6.360   0.408  0.1776 -0.0940  0.3061
  972SOL     OW13019   1.056   2.708   2.175  0.0119  0.4988  1.1218
  972SOL    HW113020   1.089   2.803   2.172  1.4885 -0.0300 -0.2294
  972SOL    HW213021   0.971   2.704   2.227  0.9999  2.2525  2.9851
  973SOL     OW13022   0.590   2.927   1.987  0.8506 -0.4240 -0.0832
  973SOL    HW113023   0.519   2.860   2.006  1.0410 -0.4719  0.4683
  973SOL    HW213024   0.583   2.957   1.892 -0.1585 -0.1210  0.0852
  974SOL     OW13025   2.300   1.693   2.309 -0.2770  1.0431  0.3886
  974SOL    HW113026   2.292   1.740   2.397 -1.6467  0.5116  0.5592
  974SOL    HW213027   2.396   1.691   2.281  0.3655 -0.1401  2.6082
  975SOL     OW13028   3.503   8.724   0.170 -0.0447  0.5616 -0.0864
  975SOL    HW113029   3.573   8.773   0.118  0.8185  1.9462  2.3246
  975SOL    HW213030   3.545   8.677   0.248 -1.3780 -1.1927 -0.3731
  976SOL     OW13031   1.352   5.813   1.798  0.2286 -0.1213  0.1491
  976SOL    HW113032   1.360   5.771   1.707 -1.2861  1.3795 -0.7072
  976SOL    HW213033   1.256   5.835   1.815  0.9596  2.7474  0.6797
  977SOL     OW13034   1.719   7.640   2.364 -0.6948  0.2564  0.4058
  977SOL    HW113035   1.694   7.735   2.347 -1.8934 -0.3431 -1.3347
  977SOL    HW213036   1.795   7.613   2.305 -1.0059 -0.1435  0.1828
  978SOL     OW13037   9.058   2.808   0.723 -0.0382 -0.5940 -0.0560
  978SOL    HW113038   9.053   2.867   0.642 -1.1395 -1.7825 -0.8798
  978SOL    HW213039   9.153   2.795   0.749  0.2679  0.7219 -0.4816
  979SOL     OW13040   1.945   3.943   0.927 -0.0182 -0.0293  0.4173
  979SOL    HW113041   1.854   3.972   0.957 -0.9640 -0.6075 -1.7873
  979SOL    HW213042   1.936   3.879   0.851  2.2480  0.3927 -0.2413
  980SOL     OW13043   3.672   2.648   0.616  0.1323 -0.1208 -0.3534
  980SOL    HW113044   3.718   2.704   0.685  1.4644 -1.3092 -0.2582
  980SOL    HW213045   3.737   2.625   0.543 -1.2721  1.1775 -2.0663
  981SOL     OW13046   1.386   3.499   0.570  0.4379  0.0532 -0.1886
  981SOL    HW113047   1.411   3.403   0.560  0.6542 -0.1762  2.2590
  981SOL    HW213048   1.458   3.557   0.533 -0.0169 -0.7198 -2.3288
  982SOL     OW13049   2.456   9.341   0.291 -0.4605  0.0095 -0.1210
  982SOL    HW113050   2.465   9.244   0.269 -0.3456  0.4585 -2.0994
  982SOL    HW213051   2.360   9.365   0.299 -0.5012 -0.1415 -0.1521
  983SOL     OW13052   1.818   0.890   0.657 -0.1394  0.0654  0.1192
  983SOL    HW113053   1.778   0.927   0.741 -2.2827  1.1733 -1.3351
  983SOL    HW213054   1.898   0.943   0.631 -0.3934  0.6931  0.6214
  984SOL     OW13055   9.163   8.574   1.393 -0.4812 -0.7917 -0.1174
  984SOL    HW113056   9.071   8.554   1.361 -1.9785 -0.1211  3.4933
  984SOL    HW213057   9.181   8.672   1.383 -0.3284 -0.8448 -0.3719
  985SOL     OW13058   4.120   1.819   2.369  0.2928 -0.3875 -0.4790
  985SOL    HW113059   4.113   1.914   2.403 -2.8414 -0.8385  0.3419
  985SOL    HW213060   4.132   1.820   2.270  2.6638  0.8789 -0.2147
  986SOL     OW13061   0.896   7.416   1.976  0.0232  0.0885 -0.2285
  986SOL    HW113062   0.931   7.505   2.004 -0.3743  0.0329  0.4470
  986SOL    HW213063   0.951   7.381   1.900  0.4905  0.6783 -0.1661
  987SOL     OW13064   9.409   8.564   2.318  0.0742 -0.2213 -0.3152
  987SOL    HW113065   9.378   8.503   2.245  0.9041 -0.4917 -0.4488
  987SOL    HW213066   9.377   8.657   2.299 -0.7759 -0.5228 -0.3665
  988SOL     OW13067   3.013   1.647   0.776  0.4586 -0.6811  0.3368
  988SOL    HW113068   3.038   1.551   0.761  0.3982 -0.3143 -2.3037
  988SOL    HW213069   2.920   1.663   0.743  0.8421  0.5169 -0.1673
  989SOL     OW13070   1.006   8.336   0.669  0.6852 -0.1551  0.3201
  989SOL    HW113071   1.038   8.329   0.575  0.7907 -0.2866  0.3648
  989SOL    HW213072   0.980   8.430   0.689  0.7965 -0.0985  0.2029
  990SOL     OW13073   0.827   7.638   1.285 -1.0207 -0.1777 -0.4536
  990SOL    HW113074   0.832   7.678   1.376 -2.1951  1.1468 -0.9485
  990SOL    HW213075   0.820   7.538   1.292 -0.0441 -0.1610  0.8547
  991SOL     OW13076   0.627   0.287   2.308 -0.1953  0.0223  0.0158
  991SOL    HW113077   0.568   0.222   2.260 -1.2181 -1.5550  3.2893
  991SOL    HW213078   0.721   0.253   2.307 -0.4176 -0.6018  0.1763
  992SOL     OW13079   2.993   1.509   0.119  0.4499  0.2317 -0.5977
  992SOL    HW113080   3.083   1.515   0.076  1.1578  2.3910  1.0914
  992SOL    HW213081   3.001   1.462   0.207 -0.1935 -0.2118 -0.7745
  993SOL     OW13082   9.197   3.084   1.011 -0.3559  0.0710  1.0710
  993SOL    HW113083   9.245   3.060   0.926 -1.0634  0.2121  0.6280
  993SOL    HW213084   9.253   3.150   1.062 -0.2782  0.5836  0.3416
  994SOL     OW13085   3.989   3.118   2.149  0.1867  0.1159  0.3979
  994SOL    HW113086   3.947   3.115   2.058  1.7717  2.0684 -0.4358
  994SOL    HW213087   4.005   3.213   2.175 -0.6405 -0.3923  2.9467
  995SOL     OW13088   2.341   3.124   0.485  0.4686  0.2377 -0.0039
  995SOL    HW113089   2.354   3.162   0.577 -2.2288 -0.6059  0.7692
  995SOL    HW213090   2.350   3.024   0.489 -0.0974  0.1657 -0.5850
  996SOL     OW13091   8.122   8.360   1.938 -0.4121  0.0041 -0.2502
  996SOL    HW113092   8.159   8.300   2.009 -1.4045 -0.2722  0.0395
  996SOL    HW213093   8.195   8.384   1.874  0.3251 -0.3342  0.4498
  997SOL     OW13094   3.024   6.473   2.356  0.2832  0.1427 -0.2107
  997SOL    HW113095   2.981   6.388   2.386  0.4715  0.3547  0.6752
  997SOL    HW213096   2.971   6.551   2.389 -0.6245  0.3769 -2.1180
  998SOL     OW13097   7.387   0.342   0.893 -0.0416  0.7631  0.1521
  998SOL    HW113098   7.373   0.329   0.991 -0.2789  0.5617  0.0943
  998SOL    HW213099   7.306   0.311   0.844  0.9590 -1.2725 -0.2576
  999SOL     OW13100   0.441   5.742   0.553  0.0086 -0.5313 -0.0221
  999SOL    HW113101   0.500   5.814   0.517  0.4478 -0.8945 -0.0319
  999SOL    HW213102   0.484   5.654   0.540 -0.6610 -0.8274 -0.2725
 1000SOL     OW13103   7.853   0.928   0.748  0.4790  0.6995 -1.0355
 1000SOL    HW113104   7.829   0.901   0.841  0.8423  0.8350 -0.9012
 1000SOL    HW213105   7.942   0.974   0.748  0.5207  0.6268 -1.4611
 1001SOL     OW13106   2.832   3.421   0.241  0.2373 -0.3101  0.0570
 1001SOL    HW113107   2.930   3.410   0.255  0.4882 -0.7105 -1.9269
 1001SOL    HW213108   2.784   3.340   0.276  0.7867 -0.9696 -0.7016
 1002SOL     OW13109   0.221   1.337   2.303 -0.1728  0.1802 -0.4559
 1002SOL    HW113110   0.185   1.328   2.396  0.8698  1.0661  0.0369
 1002SOL    HW213111   0.293   1.406   2.301 -0.1064  0.0907 -1.9050
 1003SOL     OW13112   2.996   9.756   1.109 -0.3295  0.1730 -0.1669
 1003SOL    HW113113   3.031   9.689   1.044 -2.4359 -3.3118  2.1249
 1003SOL    HW213114   2.900   9.776   1.087  0.6342  3.5784 -1.6326
 1004SOL     OW13115   0.200   2.502   1.681 -0.2747  0.6044  0.1091
 1004SOL    HW113116   0.176   2.460   1.594 -2.0064  0.5210  0.6106
 1004SOL    HW213117   0.234   2.431   1.743  0.9684  0.6664 -0.4955
 1005SOL     OW13118   2.195   0.465   1.344  0.3582 -0.3940  0.1560
 1005SOL    HW113119   2.271   0.418   1.300  1.0842 -1.4197  2.4246
 1005SOL    HW213120   2.145   0.401   1.402  0.3477  1.2326  1.9948
 1006SOL     OW13121   8.738   9.295   1.320  0.3913 -0.5578  0.3355
 1006SOL    HW113122   8.774   9.388   1.311  1.9979 -1.4464 -3.3308
 1006SOL    HW213123   8.649   9.290   1.275  0.9435 -1.0982 -0.7181
 1007SOL     OW13124   4.154   0.881   2.040 -0.1238  0.5436  0.0237
 1007SOL    HW113125   4.253   0.870   2.046 -0.4015 -0.7862  2.3326
 1007SOL    HW213126   4.126   0.961   2.093 -0.2608  1.2712 -1.1077
 1008SOL     OW13127   1.396   3.346   1.416 -0.2346  0.0155  0.1838
 1008SOL    HW113128   1.493   3.335   1.439 -0.1552  1.4076  0.5209
 1008SOL    HW213129   1.345   3.266   1.449  0.6367 -0.2594  0.8881
 1009SOL     OW13130   0.110   6.202   2.341  0.4185 -0.1212  0.2753
 1009SOL    HW113131   0.039   6.259   2.381 -0.0301  0.9735 -2.0060
 1009SOL    HW213132   0.072   6.111   2.321  0.7119 -0.7703  2.4442
 1010SOL     OW13133   9.438   0.957   2.174 -0.2371 -0.1507 -0.1226
 1010SOL    HW113134   9.364   0.890   2.178 -0.0030 -0.3336  1.6824
 1010SOL    HW213135   9.430   1.020   2.251 -0.0502  1.4902 -1.4121
 1011SOL     OW13136   0.903   1.310   1.779 -0.1516  0.2377  0.6704
 1011SOL    HW113137   0.878   1.400   1.744  4.1929  2.4014  2.8069
 1011SOL    HW213138   0.958   1.262   1.712 -0.1788  0.2825  0.6159
 1012SOL     OW13139   8.666   8.980   1.333  0.0196 -0.1925  0.0897
 1012SOL    HW113140   8.647   9.060   1.276  2.6791 -0.0815 -0.6917
 1012SOL    HW213141   8.743   9.000   1.394 -0.8650 -1.3414  1.6309
 1013SOL     OW13142   1.093   5.869   0.750  0.5072 -0.4768 -0.0454
 1013SOL    HW113143   1.144   5.833   0.828  1.3430  0.2435 -0.2618
 1013SOL    HW213144   1.123   5.823   0.666 -0.0975 -0.9571  0.0018
 1014SOL     OW13145   1.766   5.386   1.272  0.3893 -0.6381  0.0649
 1014SOL    HW113146   1.804   5.336   1.349  2.0874 -0.5803 -0.7002
 1014SOL    HW213147   1.795   5.482   1.277  0.1657 -0.5417 -0.4027
 1015SOL     OW13148   8.739   7.859   0.872  0.2930 -0.1898  0.2593
 1015SOL    HW113149   8.839   7.854   0.874  0.2244 -2.0171 -0.2729
 1015SOL    HW213150   8.711   7.954   0.859  1.9417  0.4469  1.2081
 1016SOL     OW13151   7.829   1.393   0.331 -0.4328 -0.0111  0.1990
 1016SOL    HW113152   7.899   1.428   0.269 -1.0663 -1.7809 -1.5537
 1016SOL    HW213153   7.872   1.350   0.410  0.4770 -1.2246 -0.9341
 1017SOL     OW13154   1.375   6.914   2.444  0.1791 -0.1465 -0.1418
 1017SOL    HW113155   1.385   6.979   2.519  0.4881 -0.7693  0.3644
 1017SOL    HW213156   1.444   6.841   2.453  0.4212 -0.0564 -1.2036
 1018SOL     OW13157   3.956   8.262   0.905  0.1010 -0.8911 -0.2491
 1018SOL    HW113158   3.910   8.244   0.992 -1.9680  0.3541 -1.0518
 1018SOL    HW213159   3.890   8.253   0.830  0.9137  1.8718 -1.3451
 1019SOL     OW13160   1.541   0.638   1.663  0.6799  0.0587  0.1915
 1019SOL    HW113161   1.521   0.576   1.739  1.9240  0.5801  0.9694
 1019SOL    HW213162   1.534   0.589   1.576 -2.1897 -0.1893  0.5196
 1020SOL     OW13163   2.086   2.260   2.057  0.1141 -0.0874  0.1789
 1020SOL    HW113164   2.041   2.333   2.108  0.5019  0.2512  0.0405
 1020SOL    HW213165   2.104   2.183   2.119  1.3941  0.6731  0.7920
 1021SOL     OW13166   2.752   5.716   0.481 -0.4202  0.3885  0.0657
 1021SOL    HW113167   2.712   5.754   0.398  1.0731  2.5858  0.2929
 1021SOL    HW213168   2.761   5.789   0.550  0.0659 -0.9842  1.4891
 1022SOL     OW13169   0.844   2.474   0.095 -0.3567 -0.1175  0.6433
 1022SOL    HW113170   0.869   2.401   0.032  3.3201  0.6488  1.0961
 1022SOL    HW213171   0.814   2.554   0.043 -2.2456 -1.1550  0.0856
 1023SOL     OW13172   1.271   3.924   1.173  0.5420 -0.2726 -0.6050
 1023SOL    HW113173   1.278   4.023   1.163 -2.5411  0.0272 -0.1559
 1023SOL    HW213174   1.258   3.900   1.269  3.0272 -1.2833 -0.4711
 1024SOL     OW13175   1.889   3.917   0.311 -0.2685 -0.0435 -0.5416
 1024SOL    HW113176   1.982   3.954   0.302 -0.6057  1.1099  0.5678
 1024SOL    HW213177   1.860   3.923   0.407 -1.3205 -0.8047 -0.8082
 1025SOL     OW13178   3.079   3.678   0.410 -0.8532 -0.1047  0.0749
 1025SOL    HW113179   3.055   3.600   0.352  0.3048 -1.0867  0.8897
 1025SOL    HW213180   3.177   3.696   0.403 -0.5173 -0.8171  2.3895
 1026SOL     OW13181   9.532   3.040   0.403 -0.5189  0.5028  0.2559
 1026SOL    HW113182   9.619   3.066   0.445 -0.2216  0.5364 -0.3875
 1026SOL    HW213183   9.549   2.975   0.329 -1.0110  0.8001 -0.1183
 1027SOL     OW13184   0.065   1.767   0.947  0.5144  0.0244 -0.6222
 1027SOL    HW113185   0.116   1.853   0.934  0.9520 -0.3880 -1.6632
 1027SOL    HW213186   0.032   1.734   0.859  0.9854 -1.2676 -0.3270
 1028SOL     OW13187   9.340   2.659   1.073 -0.7284  0.4273 -0.7422
 1028SOL    HW113188   9.348   2.569   1.115 -1.0440  1.3328  1.3700
 1028SOL    HW213189   9.244   2.679   1.055 -1.0780  1.8453  2.3730
 1029SOL     OW13190   9.507   7.400   1.641  0.2825 -0.5317 -0.2436
 1029SOL    HW113191   9.456   7.482   1.667 -1.2342 -1.1244 -1.2612
 1029SOL    HW213192   9.524   7.344   1.722 -0.5667 -0.2432  0.1457
 1030SOL     OW13193   1.369   4.754   1.515  0.1654  0.8434 -0.4922
 1030SOL    HW113194   1.462   4.776   1.486  1.3351 -1.6570  1.2122
 1030SOL    HW213195   1.365   4.747   1.615 -1.4147 -0.7780 -0.6276
 1031SOL     OW13196   8.856   1.017   0.417 -0.2031  0.3086  0.5041
 1031SOL    HW113197   8.881   1.099   0.366 -2.5838  0.1327 -0.9942
 1031SOL    HW213198   8.767   1.030   0.460 -0.5018 -1.4008  0.4318
 1032SOL     OW13199   1.503   6.597   1.842  0.3132 -0.0115  0.1059
 1032SOL    HW113200   1.493   6.652   1.925 -0.1717 -2.0153  1.4082
 1032SOL    HW213201   1.528   6.657   1.765 -0.0445  1.9839  1.4989
 1033SOL     OW13202   9.534   5.686   1.907 -0.0365 -0.0795 -0.0549
 1033SOL    HW113203   9.614   5.742   1.885  0.4428 -1.2643 -1.3381
 1033SOL    HW213204   9.547   5.593   1.874 -1.2266 -0.7407  1.2578
 1034SOL     OW13205   4.179   1.369   1.095  0.1106 -0.1126  0.3488
 1034SOL    HW113206   4.250   1.440   1.106  0.3595 -0.5040  1.3876
 1034SOL    HW213207   4.089   1.412   1.096  0.2494  0.1853  1.2463
 1035SOL     OW13208   0.321   5.174   0.552 -0.2982  0.1158  0.0677
 1035SOL    HW113209   0.387   5.109   0.516  0.2813  0.8142 -0.1565
 1035SOL    HW213210   0.280   5.226   0.477 -0.1620  0.5585  0.2940
 1036SOL     OW13211   9.361   9.344   2.323  0.1568 -0.6657  0.6958
 1036SOL    HW113212   9.396   9.274   2.385 -1.6599 -2.4065 -0.2113
 1036SOL    HW213213   9.384   9.320   2.229  1.2857  1.0250  0.5057
 1037SOL     OW13214   1.841   1.595   0.058  0.1981 -0.3683  0.4265
 1037SOL    HW113215   1.793   1.678   0.028 -0.4179 -0.3975  1.3348
 1037SOL    HW213216   1.929   1.621   0.099  0.0093 -0.1710  0.7044
 1038SOL     OW13217   1.550   4.353   0.445  0.1110  0.3089 -0.2293
 1038SOL    HW113218   1.561   4.314   0.354 -1.3459 -0.3622 -0.1317
 1038SOL    HW213219   1.614   4.429   0.457  0.1645  0.5346 -1.8739
 1039SOL     OW13220   1.352   7.497   1.137 -0.3941 -0.2295  0.4527
 1039SOL    HW113221   1.439   7.475   1.091  0.3946 -0.7870  2.1589
 1039SOL    HW213222   1.306   7.412   1.163 -1.5715  0.0699 -0.6738
 1040SOL     OW13223   3.590   3.407   2.010  0.8470 -0.9841  0.0298
 1040SOL    HW113224   3.686   3.436   2.013  1.9275 -3.6493 -4.1840
 1040SOL    HW213225   3.533   3.485   1.984  2.0791  0.1760  0.7164
 1041SOL     OW13226   8.590   2.236   0.341 -0.4606  0.3286 -0.7030
 1041SOL    HW113227   8.549   2.260   0.430 -1.1079  1.5774 -1.3244
 1041SOL    HW213228   8.524   2.185   0.287 -1.4581  2.8537 -1.9390
 1042SOL     OW13229   2.176   6.311   2.067 -0.0483 -0.4318  0.0147
 1042SOL    HW113230   2.224   6.238   2.116 -0.7293 -1.0431 -0.2241
 1042SOL    HW213231   2.199   6.308   1.970 -0.8452 -0.9509 -0.1602
 1043SOL     OW13232   1.802   1.551   2.264  0.2273 -0.0907 -0.1336
 1043SOL    HW113233   1.889   1.601   2.260 -0.1819  0.5852 -0.6794
 1043SOL    HW213234   1.814   1.468   2.318  0.9223  0.5900  0.7743
 1044SOL     OW13235   4.253   8.872   0.627 -0.3693 -0.0757  0.1075
 1044SOL    HW113236   4.266   8.801   0.696 -0.9600  1.6482  2.0468
 1044SOL    HW213237   4.327   8.868   0.560  1.3266 -0.5388  1.9585
 1045SOL     OW13238   1.236   8.866   0.343 -0.1823  0.2665 -0.5319
 1045SOL    HW113239   1.286   8.946   0.310 -1.7089  1.0171 -1.0866
 1045SOL    HW213240   1.149   8.895   0.384 -0.3461 -1.0337  0.0765
 1046SOL     OW13241   3.119   5.061   1.017 -0.1634 -0.6841 -0.0391
 1046SOL    HW113242   3.022   5.048   1.039 -0.7205  2.0726 -0.6528
 1046SOL    HW213243   3.139   5.019   0.928 -1.2343  0.2129 -0.7188
 1047SOL     OW13244   0.090   6.574   0.588 -0.1971  0.1965 -0.2505
 1047SOL    HW113245   0.090   6.477   0.561 -1.3754 -0.1752  1.0073
 1047SOL    HW213246   0.041   6.584   0.675  1.5866  1.6604  0.6312
 1048SOL     OW13247   9.016   9.657   1.286 -0.2965 -0.3337  0.3368
 1048SOL    HW113248   9.042   9.671   1.381  2.2770  0.8456 -0.5030
 1048SOL    HW213249   9.078   9.592   1.243 -0.9442 -0.2387 -0.7602
 1049SOL     OW13250   1.421   2.897   1.211 -0.1088 -0.5195 -0.1263
 1049SOL    HW113251   1.449   2.890   1.116  1.0174 -0.6337  0.1996
 1049SOL    HW213252   1.502   2.911   1.269 -0.9936  1.9874  0.5842
 1050SOL     OW13253   1.512   6.672   2.516  0.3986 -0.0282 -0.7909
 1050SOL    HW113254   1.561   6.647   2.599 -0.5527  1.5134  0.2490
 1050SOL    HW213255   1.473   6.589   2.475  1.5026 -0.8896 -0.1296
 1051SOL     OW13256   3.416   3.056   0.541 -0.4439 -0.7766 -0.4930
 1051SOL    HW113257   3.346   3.068   0.470 -0.8372 -1.8699 -0.2880
 1051SOL    HW213258   3.416   2.962   0.572  0.6395 -0.6058  0.0255
 1052SOL     OW13259   1.847   1.999   2.355 -0.5239  0.1143  0.5246
 1052SOL    HW113260   1.784   1.959   2.288  1.2828  0.0615 -1.1824
 1052SOL    HW213261   1.833   2.097   2.360 -0.6913  0.1153  0.0754
 1053SOL     OW13262   0.071   8.489   0.686  0.3247  0.0181  0.2446
 1053SOL    HW113263   0.163   8.494   0.647  0.1048 -0.8550 -0.3892
 1053SOL    HW213264   0.070   8.421   0.760  0.2649  0.2592  0.4670
 1054SOL     OW13265   7.625   9.788   2.496  0.0806  0.1165 -0.1139
 1054SOL    HW113266   7.535   9.826   2.472 -0.3139 -0.1619  0.9305
 1054SOL    HW213267   7.653   9.723   2.425 -1.5367 -1.4497  0.6554
 1055SOL     OW13268   0.093   3.967   0.046 -0.0472  0.1728 -0.0566
 1055SOL    HW113269   0.113   3.947   0.142 -2.1056 -0.4280  0.2719
 1055SOL    HW213270  -0.002   3.999   0.038 -0.1315 -0.5049 -1.9951
 1056SOL     OW13271   4.537   2.523   2.429  0.3831 -0.3871 -0.1734
 1056SOL    HW113272   4.551   2.450   2.496 -0.0031 -0.7643 -0.4960
 1056SOL    HW213273   4.534   2.611   2.476  0.0921 -0.6512  0.3106
 1057SOL     OW13274   1.785   0.914   2.304 -0.3100 -0.4575 -0.1774
 1057SOL    HW113275   1.701   0.877   2.343  0.4341 -1.7611  0.1957
 1057SOL    HW213276   1.858   0.909   2.372 -0.2303  1.9238 -0.0143
 1058SOL     OW13277   2.641   1.103   0.745  0.2357  0.3979 -0.4567
 1058SOL    HW113278   2.571   1.042   0.782  0.1432  1.2277  0.7640
 1058SOL    HW213279   2.658   1.177   0.810  0.4084  1.6220 -1.8741
 1059SOL     OW13280   2.479   3.782   1.327 -0.4171 -0.3362  0.1182
 1059SOL    HW113281   2.567   3.736   1.336 -0.7978 -0.7821  1.7802
 1059SOL    HW213282   2.437   3.756   1.240  1.0643 -0.1456 -0.6721
 1060SOL     OW13283   4.250   2.463   1.129 -0.3173 -0.8749 -0.1557
 1060SOL    HW113284   4.218   2.556   1.142 -1.5360 -1.4388  0.9554
 1060SOL    HW213285   4.341   2.453   1.171 -0.5604 -0.4223  0.4824
 1061SOL     OW13286   7.931   0.960   1.181 -0.4163 -0.2652  0.0564
 1061SOL    HW113287   7.946   1.043   1.127 -0.3769 -0.6618 -0.5408
 1061SOL    HW213288   8.017   0.911   1.191 -0.7823 -1.1624 -1.1177
 1062SOL     OW13289   4.339   8.676   0.295  0.3184  0.3820  0.0006
 1062SOL    HW113290   4.239   8.677   0.292  0.2409  1.6070  2.3038
 1062SOL    HW213291   4.370   8.590   0.336  0.2312  0.1549 -0.3952
 1063SOL     OW13292   8.305   1.173   0.643 -0.2800 -0.0763  0.2021
 1063SOL    HW113293   8.391   1.197   0.688 -0.1910 -0.8374  0.4480
 1063SOL    HW213294   8.313   1.192   0.545 -0.1773  0.7844  0.3693
 1064SOL     OW13295   3.715   9.602   0.471 -0.4191 -0.1197 -0.1854
 1064SOL    HW113296   3.743   9.693   0.442  1.3778 -0.6844 -0.2298
 1064SOL    HW213297   3.783   9.534   0.443 -0.4354 -1.1451  2.1085
 1065SOL     OW13298   7.903   0.891   1.760  0.2444 -0.2349  0.7463
 1065SOL    HW113299   7.895   0.792   1.772 -1.3397 -0.1705  0.3100
 1065SOL    HW213300   7.864   0.918   1.672  1.0168  0.7381  0.6905
 1066SOL     OW13301   4.318   3.595   2.093  0.4868  0.0965 -0.2485
 1066SOL    HW113302   4.360   3.506   2.112 -0.3787 -0.1459  0.5512
 1066SOL    HW213303   4.297   3.641   2.179 -3.6193 -1.0696 -0.5254
 1067SOL     OW13304   2.144   1.683   1.080 -0.3282 -0.2881 -0.1840
 1067SOL    HW113305   2.211   1.614   1.105 -0.8753 -0.7014  0.1529
 1067SOL    HW213306   2.072   1.642   1.025 -1.1436 -0.1910  0.7926
 1068SOL     OW13307   2.608   3.197   2.548 -0.3857  0.0010  0.0171
 1068SOL    HW113308   2.619   3.273   2.484 -1.0926  0.4455  0.4197
 1068SOL    HW213309   2.622   3.111   2.500  1.0239  0.3916 -0.3228
 1069SOL     OW13310   2.311   8.781   0.931  0.1590 -0.1243 -0.1742
 1069SOL    HW113311   2.291   8.683   0.941 -0.5552 -0.1467 -1.6793
 1069SOL    HW213312   2.410   8.796   0.938 -0.0385 -0.3560  4.6261
 1070SOL     OW13313   2.165   5.663   0.525  0.8710 -0.5040 -0.2591
 1070SOL    HW113314   2.109   5.590   0.564  1.7840 -0.2502  1.6178
 1070SOL    HW213315   2.176   5.736   0.593  2.1418  0.1782 -1.1770
 1071SOL     OW13316   8.541   0.798   1.123 -0.0821  0.5498 -0.5048
 1071SOL    HW113317   8.490   0.840   1.198  0.8453 -0.6285  0.8079
 1071SOL    HW213318   8.637   0.825   1.130  0.1617 -0.2459 -0.7588
 1072SOL     OW13319   1.346   1.136   0.738  0.1708 -0.2729 -0.3875
 1072SOL    HW113320   1.428   1.128   0.681  0.6573 -2.0169  0.4964
 1072SOL    HW213321   1.351   1.220   0.793 -0.0811  1.1677 -2.5270
 1073SOL     OW13322   8.507   8.674   0.987  0.0025 -1.0216  0.3872
 1073SOL    HW113323   8.562   8.692   0.905 -1.3478 -1.6515 -0.6773
 1073SOL    HW213324   8.523   8.747   1.054  1.5452 -0.7954 -0.1989
 1074SOL     OW13325   1.793   6.112   2.527  0.2442  0.1734  0.3100
 1074SOL    HW113326   1.765   6.198   2.569 -0.8713  0.8166 -1.7278
 1074SOL    HW213327   1.819   6.128   2.432 -0.5050 -1.8388 -0.2448
 1075SOL     OW13328   2.250   1.438   0.112  0.0948  0.3169 -0.5118
 1075SOL    HW113329   2.165   1.466   0.158 -0.0461 -1.0202  0.0601
 1075SOL    HW213330   2.276   1.347   0.142  1.7465  0.7046 -0.7017
 1076SOL     OW13331   3.911   3.547   1.336  0.1008 -0.1552 -0.1258
 1076SOL    HW113332   3.983   3.485   1.367 -1.2126 -1.4605  0.4162
 1076SOL    HW213333   3.891   3.528   1.239  0.2511 -0.0174 -0.1846
 1077SOL     OW13334   1.302   7.651   0.180  0.3133  0.5501  0.0781
 1077SOL    HW113335   1.236   7.715   0.218 -0.4590  0.8041 -1.6482
 1077SOL    HW213336   1.354   7.696   0.107  2.5113  0.4077  1.4835
 1078SOL     OW13337   9.196   1.903   1.210 -0.1108 -0.0493  0.1483
 1078SOL    HW113338   9.156   1.819   1.245  0.5688 -0.9152 -1.1041
 1078SOL    HW213339   9.273   1.931   1.267 -0.5533 -0.0874  0.7629
 1079SOL     OW13340   0.749   1.598   0.363 -0.6517  0.4483 -0.0452
 1079SOL    HW113341   0.846   1.581   0.344 -0.9451 -1.0722 -0.2208
 1079SOL    HW213342   0.700   1.612   0.277 -1.2364 -2.3956 -0.2123
 1080SOL     OW13343   4.757   2.528   1.831  0.3573  0.1282 -0.1422
 1080SOL    HW113344   4.807   2.568   1.754  0.2971  0.5728  0.0478
 1080SOL    HW213345   4.766   2.588   1.911 -1.6021  0.8900 -0.4691
 1081SOL     OW13346   0.343   0.189   0.413 -0.1677  0.1861 -0.4268
 1081SOL    HW113347   0.359   0.281   0.376  0.7578 -0.5899 -1.9531
 1081SOL    HW213348   0.318   0.127   0.340 -1.6003 -0.6345  0.7197
 1082SOL     OW13349   3.609   4.788   0.854 -0.2447 -0.2311 -0.1668
 1082SOL    HW113350   3.580   4.694   0.873 -1.0099  0.0674  0.1854
 1082SOL    HW213351   3.671   4.819   0.926 -1.6370  0.2416  0.8498
 1083SOL     OW13352   0.098   4.321   0.102  0.0241  0.5030  0.1973
 1083SOL    HW113353   0.053   4.248   0.153 -1.2789 -0.4523 -2.2195
 1083SOL    HW213354   0.183   4.287   0.061 -0.0671  0.6189 -0.0956
 1084SOL     OW13355   1.669   0.314   2.003 -0.0378 -0.7438  0.0751
 1084SOL    HW113356   1.677   0.335   2.100 -1.2232  0.6816 -0.1141
 1084SOL    HW213357   1.589   0.256   1.988 -0.1406 -0.5559 -0.1066
 1085SOL     OW13358   0.567   9.336   2.489 -1.3721 -0.4063  0.1045
 1085SOL    HW113359   0.569   9.328   2.390 -0.7909 -2.8000  0.2819
 1085SOL    HW213360   0.486   9.291   2.525  0.4980 -3.2393  0.9594
 1086SOL     OW13361   8.951   0.057   1.340 -0.1629  0.6071 -0.3765
 1086SOL    HW113362   8.925   0.058   1.243  1.1912  2.3956 -0.7446
 1086SOL    HW213363   8.996   0.143   1.363 -2.1177  0.9608  2.3145
 1087SOL     OW13364   3.091   6.126   2.151 -0.1787 -0.0140 -0.1234
 1087SOL    HW113365   3.073   6.184   2.230  0.7614  1.4049 -0.9205
 1087SOL    HW213366   3.164   6.061   2.173  1.7529  1.9515 -0.5346
 1088SOL     OW13367   9.662   8.335   0.330  0.4223  0.0955 -0.3934
 1088SOL    HW113368   9.755   8.330   0.365  0.5494 -1.7579 -0.9187
 1088SOL    HW213369   9.637   8.246   0.290 -1.5530  0.5745 -0.2692
 1089SOL     OW13370   0.142   5.022   1.668 -0.6448 -0.3424 -0.2344
 1089SOL    HW113371   0.234   5.060   1.663 -0.8374  0.1215 -0.2819
 1089SOL    HW213372   0.133   4.965   1.749 -0.6763  0.5816  0.4175
 1090SOL     OW13373   2.947   2.237   2.072 -0.0622 -0.7842  0.5893
 1090SOL    HW113374   2.967   2.326   2.113  0.2957 -0.1794 -0.8565
 1090SOL    HW213375   2.882   2.248   1.997 -0.3765 -1.8034  0.7031
 1091SOL     OW13376   2.482   7.678   0.131  0.1218 -0.0638 -0.0521
 1091SOL    HW113377   2.422   7.612   0.175  0.7214 -0.0997  0.7256
 1091SOL    HW213378   2.552   7.707   0.195  1.9084 -1.2237 -1.4286
 1092SOL     OW13379   7.963   9.507   0.572 -0.2569  0.5654  0.3577
 1092SOL    HW113380   8.051   9.538   0.608  0.8158 -0.8585 -0.9865
 1092SOL    HW213381   7.977   9.458   0.487 -2.3738  0.3357  0.1109
 1093SOL     OW13382   0.653   0.331   1.208  0.2840  0.5082 -0.3436
 1093SOL    HW113383   0.742   0.334   1.251  0.5276 -0.4540 -0.7640
 1093SOL    HW213384   0.582   0.356   1.274  0.8040  0.6598  0.1550
 1094SOL     OW13385   3.216   0.125   2.569 -0.1108 -0.1543  0.3525
 1094SOL    HW113386   3.155   0.055   2.531  0.2632 -0.5058  0.4008
 1094SOL    HW213387   3.169   0.172   2.644  0.1107 -1.2399  1.1824
 1095SOL     OW13388   9.118   8.109   0.921  0.4628  0.3627 -0.1632
 1095SOL    HW113389   9.209   8.147   0.933  0.0878  1.0070  0.6775
 1095SOL    HW213390   9.091   8.060   1.004 -0.2048  0.7066 -0.1702
 1096SOL     OW13391   2.816   9.536   0.782  0.1953 -0.1409  0.1557
 1096SOL    HW113392   2.844   9.442   0.761  1.4047  0.2104  0.1430
 1096SOL    HW213393   2.870   9.599   0.728 -0.9437  0.5557 -0.1770
 1097SOL     OW13394   9.322   3.238   0.150  0.1670  0.5278  0.3243
 1097SOL    HW113395   9.226   3.210   0.143  0.5391 -0.7455  0.1886
 1097SOL    HW213396   9.327   3.336   0.171 -1.1675  0.4957  0.8332
 1098SOL     OW13397   3.080   9.880   2.207  0.3431  0.0820  0.7419
 1098SOL    HW113398   3.170   9.922   2.189  0.8460 -1.1133  0.4240
 1098SOL    HW213399   3.011   9.923   2.149  0.7100  1.0102  0.9857
 1099SOL     OW13400   9.524   9.519   1.688  0.1721  0.0161  0.2105
 1099SOL    HW113401   9.461   9.573   1.743 -0.5079 -0.9435  0.3947
 1099SOL    HW213402   9.607   9.500   1.740  1.0423  2.0837 -0.3660
 1100SOL     OW13403   4.283   3.188   0.552 -0.4084  0.3851 -0.4226
 1100SOL    HW113404   4.342   3.135   0.492  0.4452  0.5576  0.2598
 1100SOL    HW213405   4.259   3.275   0.507 -0.2999  0.2298 -0.7792
 1101SOL     OW13406   1.458   8.963   2.551  0.1702  0.3302  0.2240
 1101SOL    HW113407   1.414   8.988   2.638 -1.2761  1.2711 -0.7440
 1101SOL    HW213408   1.432   8.870   2.526 -0.5698  0.5652  0.1037
 1102SOL     OW13409   2.886   6.041   0.419  0.0578 -0.2020  0.0730
 1102SOL    HW113410   2.983   6.058   0.405 -0.1009 -0.1352 -0.9526
 1102SOL    HW213411   2.851   5.980   0.348 -0.7906  0.2943  0.0465
 1103SOL     OW13412   0.759   6.783   2.368 -0.1394 -0.1013 -0.1306
 1103SOL    HW113413   0.760   6.742   2.460  2.5727 -2.0785 -0.9912
 1103SOL    HW213414   0.697   6.731   2.309  1.3889 -1.4678 -0.5489
 1104SOL     OW13415   3.913   8.687   1.619 -0.8826 -0.6793  0.1629
 1104SOL    HW113416   3.835   8.736   1.657 -0.2466 -0.0774  0.7019
 1104SOL    HW213417   3.955   8.630   1.690 -0.7941 -0.9633 -0.1118
 1105SOL     OW13418   0.396   5.565   0.164  0.3330  0.0472  0.3206
 1105SOL    HW113419   0.318   5.503   0.162  0.7999 -0.5306 -0.3052
 1105SOL    HW213420   0.436   5.571   0.073  1.6199 -0.4408  0.8411
 1106SOL     OW13421   1.400   1.612   2.407 -0.0247  0.8198  0.1676
 1106SOL    HW113422   1.303   1.613   2.430  0.3118 -0.6503  1.7296
 1106SOL    HW213423   1.437   1.519   2.420  1.2096  0.9552 -2.0463
 1107SOL     OW13424   3.811   2.816   1.505  0.3950  0.5994 -0.1006
 1107SOL    HW113425   3.862   2.822   1.591 -0.4377 -0.8257  0.5162
 1107SOL    HW213426   3.714   2.801   1.525  0.0772  0.9979 -1.2899
 1108SOL     OW13427   1.793   6.473   1.038  0.1713 -0.5562 -0.1668
 1108SOL    HW113428   1.806   6.449   0.942 -0.6271 -0.9139 -0.1966
 1108SOL    HW213429   1.756   6.394   1.087 -0.8152  0.0779  0.1211
 1109SOL     OW13430   3.684   3.130   0.093  0.2504  0.9606  0.1573
 1109SOL    HW113431   3.751   3.127   0.167  0.0126  0.2260  0.3421
 1109SOL    HW213432   3.598   3.090   0.124  0.3828 -0.0451 -0.7474
 1110SOL     OW13433   1.702   0.381   1.193 -0.2908 -0.2361 -0.6519
 1110SOL    HW113434   1.729   0.292   1.157  1.6404  0.1105 -0.1509
 1110SOL    HW213435   1.705   0.379   1.292 -0.4724  0.3193 -0.6344
 1111SOL     OW13436   2.693   1.466   1.717  0.1871  0.0780 -0.2049
 1111SOL    HW113437   2.779   1.460   1.768  1.0296 -0.5235 -1.6371
 1111SOL    HW213438   2.688   1.390   1.652 -1.4429  0.1160 -0.1243
 1112SOL     OW13439   8.629   7.866   2.201 -0.6553 -0.0591 -0.4342
 1112SOL    HW113440   8.670   7.845   2.290 -1.7004  0.9839  0.2876
 1112SOL    HW213441   8.674   7.810   2.131 -0.5149 -1.6301  0.8759
 1113SOL     OW13442   9.310   1.788   0.418  0.7042 -0.5222  0.3508
 1113SOL    HW113443   9.307   1.878   0.373  0.1313 -0.5170  0.3991
 1113SOL    HW213444   9.397   1.779   0.467  0.0655  0.6824  1.7444
 1114SOL     OW13445   9.605   1.970   1.023  0.6998  0.2329  0.4503
 1114SOL    HW113446   9.581   1.916   0.942 -0.9894 -1.7127  2.1746
 1114SOL    HW213447   9.697   1.945   1.054  0.4147 -0.7879  0.5027
 1115SOL     OW13448   0.960   5.973   2.259 -0.0417  0.0015  0.1519
 1115SOL    HW113449   0.925   5.880   2.248 -0.0958 -0.0850  0.9766
 1115SOL    HW213450   0.885   6.039   2.244 -0.4765 -0.1690  1.5202
 1116SOL     OW13451   1.275   0.529   2.317 -0.1054 -0.0077 -0.3297
 1116SOL    HW113452   1.251   0.432   2.319  0.7056 -0.1997  0.0032
 1116SOL    HW213453   1.335   0.548   2.239  0.4388  0.0666  0.1092
 1117SOL     OW13454   3.223   1.587   1.495 -0.2395  0.0665 -0.0098
 1117SOL    HW113455   3.281   1.517   1.453 -0.1066  1.5672 -2.3757
 1117SOL    HW213456   3.281   1.659   1.532 -0.4538 -0.2476  0.9536
 1118SOL     OW13457   0.033   3.877   1.430  0.4141  0.2419  0.2696
 1118SOL    HW113458   0.113   3.834   1.388  0.2671 -0.5357  0.7696
 1118SOL    HW213459  -0.016   3.809   1.485 -0.6277  0.6968 -0.0931
 1119SOL     OW13460   0.183   6.003   0.126  0.1801  0.1212 -0.4970
 1119SOL    HW113461   0.223   6.080   0.077  0.2211  1.8191  2.0707
 1119SOL    HW213462   0.254   5.956   0.178 -0.1261 -0.6305 -0.7518
 1120SOL     OW13463   2.470   8.065   2.270 -0.5258 -0.1567 -0.0557
 1120SOL    HW113464   2.567   8.062   2.245 -0.7736  2.4437 -1.5944
 1120SOL    HW213465   2.462   8.084   2.368  0.5236 -0.7032  0.1442
 1121SOL     OW13466   9.537   4.523   0.769 -0.2105 -0.1487 -0.4537
 1121SOL    HW113467   9.625   4.488   0.802 -1.2820 -0.2422  2.3801
 1121SOL    HW213468   9.499   4.459   0.702  0.9885 -1.0273 -0.3255
 1122SOL     OW13469   8.865   5.091   0.327  0.8548  0.5137 -0.3364
 1122SOL    HW113470   8.792   5.069   0.392  0.7949  0.0701 -0.5515
 1122SOL    HW213471   8.884   5.189   0.330  1.7090  0.3160  1.2426
 1123SOL     OW13472   9.341   8.819   0.054  0.0987 -0.3548 -0.3029
 1123SOL    HW113473   9.265   8.793   0.113  0.3644  0.4918  0.4302
 1123SOL    HW213474   9.391   8.738   0.026 -0.4826 -0.8288  0.0248
 1124SOL     OW13475   9.419   6.874   1.016 -0.1227  0.1142 -0.1089
 1124SOL    HW113476   9.327   6.908   1.039 -0.2467 -0.0965 -0.2880
 1124SOL    HW213477   9.463   6.839   1.099  0.6635  2.2461  0.4069
 1125SOL     OW13478   3.782   8.770   2.348 -0.7955  0.0019  0.0080
 1125SOL    HW113479   3.853   8.751   2.417 -0.6418 -1.7593 -0.6147
 1125SOL    HW213480   3.742   8.860   2.366  0.8896  0.5900  0.9834
 1126SOL     OW13481   1.406   1.110   1.256  0.7776 -0.3185 -0.1387
 1126SOL    HW113482   1.458   1.025   1.264  1.9333  0.5977  2.6905
 1126SOL    HW213483   1.436   1.160   1.175  2.1398 -1.2556 -0.2265
 1127SOL     OW13484   9.099   9.486   2.336  0.2942 -0.5002 -0.6403
 1127SOL    HW113485   9.138   9.579   2.334  0.4827 -0.5299  0.8861
 1127SOL    HW213486   9.172   9.420   2.346 -0.1492 -0.5113  3.0425
 1128SOL     OW13487   1.012   0.507   2.187  0.2776 -0.3044 -0.2912
 1128SOL    HW113488   1.058   0.445   2.251  1.1602 -0.0399 -0.6664
 1128SOL    HW213489   1.075   0.580   2.160 -0.2361 -0.1617 -1.1193
 1129SOL     OW13490   9.595   7.834   2.561 -0.4656  0.3466  0.0385
 1129SOL    HW113491   9.660   7.788   2.621 -0.5145  0.2868  0.0482
 1129SOL    HW213492   9.557   7.914   2.607 -2.1779 -0.9591  0.9519
 1130SOL     OW13493   0.378   3.171   0.107  0.4901 -0.1365 -0.6756
 1130SOL    HW113494   0.468   3.128   0.111  2.3157  3.5817  0.5261
 1130SOL    HW213495   0.382   3.251   0.047 -1.7814  0.6477  0.1632
 1131SOL     OW13496   0.589   5.600   2.518 -0.4566 -0.3622 -0.4991
 1131SOL    HW113497   0.625   5.690   2.544  0.9584 -0.5943 -1.5892
 1131SOL    HW213498   0.613   5.582   2.423  1.6452 -3.0464  0.4767
 1132SOL     OW13499   2.266   0.414   2.168 -0.4099  0.2667  0.2464
 1132SOL    HW113500   2.335   0.469   2.120  1.2684 -0.8555  1.3143
 1132SOL    HW213501   2.177   0.427   2.124  0.5522  1.3865 -1.4551
 1133SOL     OW13502   0.456   3.022   1.041  0.3627 -0.8115  0.2228
 1133SOL    HW113503   0.401   3.073   1.106 -0.9977 -1.0180 -0.7576
 1133SOL    HW213504   0.480   3.080   0.964  0.0442 -1.2210 -0.1901
 1134SOL     OW13505   2.683   6.489   2.183  0.4578 -0.5471 -0.1910
 1134SOL    HW113506   2.631   6.544   2.118 -0.4312 -0.2152  0.7774
 1134SOL    HW213507   2.734   6.550   2.245 -0.5991 -0.7924  0.9409
 1135SOL     OW13508   8.616   3.284   1.179 -0.0132  0.6482  0.9086
 1135SOL    HW113509   8.648   3.205   1.230 -1.9512  0.2822  1.5750
 1135SOL    HW213510   8.551   3.255   1.108  0.7040  1.4360 -0.1024
 1136SOL     OW13511   9.702   1.230   0.555 -0.3896 -0.2333 -0.3837
 1136SOL    HW113512   9.799   1.256   0.558 -1.0489  2.2022  1.2372
 1136SOL    HW213513   9.665   1.249   0.464  0.5878 -0.9553 -0.9414
 1137SOL     OW13514   9.907   6.978   0.036 -0.6281  0.2840 -0.2309
 1137SOL    HW113515   9.915   6.886   0.073  0.8492  0.3505 -0.3331
 1137SOL    HW213516   9.884   6.973  -0.061 -1.3538  0.0376 -0.0431
 1138SOL     OW13517   1.665   6.546   0.198 -0.1769 -0.3216  0.4433
 1138SOL    HW113518   1.600   6.545   0.274 -0.6462  0.5362  0.0618
 1138SOL    HW213519   1.758   6.558   0.234 -0.4091  0.2129  0.8752
 1139SOL     OW13520   3.955   2.053   2.044 -0.3022 -0.4458  0.1508
 1139SOL    HW113521   4.022   1.981   2.060  0.5170  0.1031 -0.7657
 1139SOL    HW213522   3.971   2.128   2.108  0.5502  0.0895 -0.6876
 1140SOL     OW13523   9.425   7.511   2.412  0.2479 -0.3591 -0.6852
 1140SOL    HW113524   9.507   7.453   2.412  0.0278 -0.6704 -0.3162
 1140SOL    HW213525   9.449   7.601   2.377  0.9011 -0.2419  0.0463
 1141SOL     OW13526   9.943   1.495   2.379 -0.0196  0.3441  0.1198
 1141SOL    HW113527  10.035   1.534   2.379  0.4281 -0.6921  0.6510
 1141SOL    HW213528   9.939   1.418   2.316 -0.2928 -0.1316  0.7086
 1142SOL     OW13529   1.384   9.333   0.149  0.4023  0.2545  0.4074
 1142SOL    HW113530   1.356   9.371   0.061  1.6352  2.2478  0.8545
 1142SOL    HW213531   1.339   9.382   0.223  1.0998  0.0605  0.9627
 1143SOL     OW13532   9.713   2.611   1.273  0.1841  0.0360 -0.2684
 1143SOL    HW113533   9.718   2.522   1.227 -1.6969  0.2289 -0.9026
 1143SOL    HW213534   9.691   2.682   1.206 -1.3561  0.5122  0.7094
 1144SOL     OW13535   9.005   9.513   0.108 -0.4938 -0.7692  0.2195
 1144SOL    HW113536   8.949   9.495   0.189 -1.8790  2.0287 -0.0424
 1144SOL    HW213537   8.946   9.516   0.027  0.3240  0.2159 -0.3456
 1145SOL     OW13538   1.213   4.670   0.276 -0.4677 -0.0629 -0.3556
 1145SOL    HW113539   1.127   4.684   0.225 -0.6935 -0.6085 -0.1306
 1145SOL    HW213540   1.251   4.758   0.302 -0.1099  0.2501 -1.8823
 1146SOL     OW13541   8.662   7.601   1.753 -0.3091  0.0541  0.4408
 1146SOL    HW113542   8.687   7.578   1.847  0.1831  0.3884  0.3929
 1146SOL    HW213543   8.651   7.701   1.745 -0.2866  0.0312  0.1284
 1147SOL     OW13544   9.769   5.008   2.069  0.3061 -0.2911  0.3597
 1147SOL    HW113545   9.736   4.981   1.978 -0.8387  1.1548  0.3358
 1147SOL    HW213546   9.869   5.008   2.069  0.3177 -0.9742 -0.6978
 1148SOL     OW13547   9.039   6.518   2.371  0.5575 -0.1263  0.0582
 1148SOL    HW113548   8.973   6.589   2.392  0.3569  0.3179 -1.9084
 1148SOL    HW213549   9.098   6.502   2.450 -1.3900  0.0135  1.5690
 1149SOL     OW13550   9.970   5.117   0.318  0.1168 -0.6674  0.1227
 1149SOL    HW113551   9.968   5.050   0.392 -0.8280 -0.9098 -0.1210
 1149SOL    HW213552  10.035   5.190   0.341  0.0134 -0.8715  1.0755
 1150SOL     OW13553   3.104   9.281   0.559  0.5657 -0.3724 -0.2198
 1150SOL    HW113554   3.120   9.202   0.500  2.2715 -0.4732  0.3364
 1150SOL    HW213555   3.076   9.359   0.503  1.3920 -0.6834 -1.0880
 1151SOL     OW13556   1.809   7.039   2.498 -0.2593 -0.6434 -0.2316
 1151SOL    HW113557   1.869   7.118   2.484 -1.2801  0.1257 -0.3026
 1151SOL    HW213558   1.741   7.036   2.425 -1.8771 -0.0693  1.2225
 1152SOL     OW13559   9.955   3.987   0.468 -0.6218 -0.0521 -0.7304
 1152SOL    HW113560   9.918   4.079   0.458 -1.2829 -0.5695 -3.2268
 1152SOL    HW213561  10.033   3.975   0.406  0.8834 -0.4621  1.1906
 1153SOL     OW13562   2.504   3.664   1.767 -0.5674 -0.0308 -0.1190
 1153SOL    HW113563   2.461   3.747   1.731 -0.0620 -0.6348 -2.1984
 1153SOL    HW213564   2.477   3.586   1.710  0.1254 -1.0440  0.9395
 1154SOL     OW13565   0.891   8.630   2.469 -0.0237 -0.1242 -0.2855
 1154SOL    HW113566   0.930   8.704   2.524 -0.7954  1.0029 -1.2197
 1154SOL    HW213567   0.877   8.549   2.526  1.0274  0.3861  0.7023
 1155SOL     OW13568   3.806   9.531   0.954 -0.1384 -0.1007 -0.2065
 1155SOL    HW113569   3.739   9.521   1.028 -0.6782  2.2424 -0.3532
 1155SOL    HW213570   3.759   9.562   0.871  1.4302  3.9452  0.3366
 1156SOL     OW13571   8.036   1.426   2.304  0.6182  0.1862 -0.3509
 1156SOL    HW113572   8.107   1.447   2.371  0.0233 -1.0513  0.6880
 1156SOL    HW213573   7.973   1.359   2.342 -0.4935  0.4598 -1.6694
 1157SOL     OW13574   9.710   6.322   1.819 -0.2916  0.3738  0.1272
 1157SOL    HW113575   9.797   6.355   1.783  0.1814 -1.5050 -0.5436
 1157SOL    HW213576   9.720   6.300   1.916 -0.4168  1.4627  0.3981
 1158SOL     OW13577   1.924   0.178   0.110 -0.4918  0.0702 -0.1861
 1158SOL    HW113578   1.826   0.187   0.126 -0.4588  2.0021 -0.9402
 1158SOL    HW213579   1.941   0.097   0.053 -1.7192  0.1979 -0.7455
 1159SOL     OW13580   0.232   0.029   0.200  0.3730 -0.1862 -0.3819
 1159SOL    HW113581   0.209   0.082   0.119 -0.3774 -1.2042 -0.8488
 1159SOL    HW213582   0.298  -0.043   0.176 -1.8144 -2.1635 -0.6824
 1160SOL     OW13583   9.795   1.747   2.378 -0.1372  0.0767 -0.3926
 1160SOL    HW113584   9.839   1.657   2.367  1.6589  0.8918  0.0090
 1160SOL    HW213585   9.716   1.753   2.317  1.8566 -0.4371 -3.0765
 1161SOL     OW13586   2.963   8.304   0.421 -1.0603 -0.6772 -0.1871
 1161SOL    HW113587   2.892   8.310   0.492 -0.2089 -1.7466  0.7695
 1161SOL    HW213588   3.044   8.260   0.458  0.3867  1.1978 -1.0857
 1162SOL     OW13589   9.670   2.673   2.217  0.1248 -0.2580 -0.1491
 1162SOL    HW113590   9.637   2.707   2.304  1.5658  0.4660  0.1125
 1162SOL    HW213591   9.609   2.704   2.144  0.3572  1.2940  0.3010
 1163SOL     OW13592   1.031   2.260   0.999  0.1770  0.5969  0.4725
 1163SOL    HW113593   1.119   2.304   1.018  0.3071  0.1913  0.8167
 1163SOL    HW213594   0.960   2.301   1.056  0.3171  0.2987  0.8656
 1164SOL     OW13595   2.221   9.028   2.344  0.9635 -0.3590 -0.1228
 1164SOL    HW113596   2.289   9.077   2.289 -0.2102  1.0115 -0.3915
 1164SOL    HW213597   2.130   9.067   2.326  0.6667  0.7967  3.5536
 1165SOL     OW13598   4.287   1.898   1.684 -0.6274 -0.4924 -0.2876
 1165SOL    HW113599   4.303   1.806   1.718  0.1430 -0.3722 -0.3093
 1165SOL    HW213600   4.311   1.965   1.755 -0.1723 -0.2792 -0.6380
 1166SOL     OW13601   1.999   1.938   0.249 -0.5741  0.2341 -0.5584
 1166SOL    HW113602   2.057   1.883   0.189 -1.2534 -0.6754 -0.3759
 1166SOL    HW213603   2.054   2.012   0.288  0.0253  0.4717 -1.8131
 1167SOL     OW13604   1.780   1.380   2.478  0.3411 -0.2156  0.2581
 1167SOL    HW113605   1.858   1.318   2.486  0.2620 -0.5930 -1.5462
 1167SOL    HW213606   1.801   1.468   2.520  0.2565 -1.6185  3.3624
 1168SOL     OW13607   1.261   8.538   1.904 -0.1734 -0.2838  0.2162
 1168SOL    HW113608   1.310   8.573   1.824 -0.8160 -0.7607 -0.3848
 1168SOL    HW213609   1.165   8.525   1.882 -0.2798 -0.7824  0.9504
 1169SOL     OW13610   8.649   0.669   0.347 -0.2125 -0.3912  0.9636
 1169SOL    HW113611   8.678   0.573   0.342  0.3784 -0.2256  1.3101
 1169SOL    HW213612   8.712   0.726   0.295 -1.3871 -0.3739 -0.4817
 1170SOL     OW13613   0.709   9.811   0.606  0.3275 -0.6776  0.7832
 1170SOL    HW113614   0.641   9.883   0.594  0.3516 -0.9069 -0.8871
 1170SOL    HW213615   0.678   9.728   0.560  1.5269 -0.9187  0.3791
 1171SOL     OW13616   1.382   0.948   2.041  0.3240  0.2174  0.0985
 1171SOL    HW113617   1.419   1.037   2.070 -1.6588  0.8662  0.6986
 1171SOL    HW213618   1.315   0.963   1.968 -0.1221 -0.7845  0.3069
 1172SOL     OW13619   4.282   4.203   1.238 -0.0640  0.4221 -0.2684
 1172SOL    HW113620   4.238   4.149   1.310  3.0164  0.2439  1.5593
 1172SOL    HW213621   4.212   4.248   1.183 -2.6621 -3.7294 -0.5246
 1173SOL     OW13622   2.623   4.180   2.158 -0.0998 -0.1535 -0.2216
 1173SOL    HW113623   2.559   4.232   2.215  0.5467 -0.3209  0.6698
 1173SOL    HW213624   2.703   4.236   2.137 -0.2377 -0.1651 -0.7919
 1174SOL     OW13625   9.342   3.063   0.750  0.8649 -0.0997  0.4658
 1174SOL    HW113626   9.340   3.115   0.664 -1.0469 -1.0572 -0.0920
 1174SOL    HW213627   9.364   2.968   0.731 -0.9815 -0.6225  0.8546
 1175SOL     OW13628   2.145   3.705   2.161 -0.1030  0.3104  0.4848
 1175SOL    HW113629   2.057   3.752   2.168  0.6713  2.2725 -2.2773
 1175SOL    HW213630   2.211   3.748   2.224 -0.2152  0.9925  0.1411
 1176SOL     OW13631   2.332   9.359   0.592  0.5625  0.2087 -0.0930
 1176SOL    HW113632   2.347   9.266   0.558  1.3546  0.3585 -0.1664
 1176SOL    HW213633   2.407   9.385   0.653 -0.2200  0.4026  0.7884
 1177SOL     OW13634   4.450   0.204   0.875 -0.2846  0.4543  0.4061
 1177SOL    HW113635   4.423   0.274   0.809 -0.6940 -1.1363 -1.1457
 1177SOL    HW213636   4.390   0.125   0.867 -0.0737  0.0490  2.4067
 1178SOL     OW13637   0.493   3.992   1.325  0.2896 -0.3117  0.0402
 1178SOL    HW113638   0.539   3.954   1.245  1.0431 -0.4043  0.5128
 1178SOL    HW213639   0.413   4.044   1.296  0.8872  0.1402 -0.8126
 1179SOL     OW13640   3.970   1.174   1.595  0.2608  0.2012  0.9066
 1179SOL    HW113641   4.020   1.145   1.513 -0.7188 -1.3296  0.8371
 1179SOL    HW213642   3.982   1.273   1.607  2.9142 -0.0460  0.6603
 1180SOL     OW13643   8.784   0.270   1.556 -0.4072 -0.8433  0.0585
 1180SOL    HW113644   8.861   0.239   1.612  1.7374  2.9051 -0.6146
 1180SOL    HW213645   8.705   0.288   1.615  0.1965 -1.8012  1.1798
 1181SOL     OW13646   9.819   9.214   0.574  0.0825 -0.7178  0.4415
 1181SOL    HW113647   9.786   9.132   0.528 -0.0145 -0.3094 -0.2165
 1181SOL    HW213648   9.766   9.293   0.544  0.6359 -0.3020  0.5487
 1182SOL     OW13649   3.224   9.092   1.974 -0.8648 -0.1902  0.0369
 1182SOL    HW113650   3.194   8.998   1.957 -1.3213 -0.0625  0.1248
 1182SOL    HW213651   3.158   9.156   1.934  0.4440  0.0966 -1.7567
 1183SOL     OW13652   1.775   6.581   1.952 -0.3875 -0.3501  0.7298
 1183SOL    HW113653   1.678   6.588   1.933 -0.1624 -0.9972 -0.7316
 1183SOL    HW213654   1.819   6.524   1.882  0.7031 -1.7014  2.4709
 1184SOL     OW13655   2.565   1.772   2.258 -0.0110  0.1380 -0.2670
 1184SOL    HW113656   2.621   1.799   2.336 -0.7112  0.5639  0.1015
 1184SOL    HW213657   2.613   1.792   2.173  0.7163 -0.2357  0.0539
 1185SOL     OW13658   9.482   1.929   1.979  0.3078 -0.2109  0.0761
 1185SOL    HW113659   9.530   2.014   2.001 -0.7362  0.3855  0.1067
 1185SOL    HW213660   9.419   1.907   2.054 -1.6546  0.6479 -1.2825
 1186SOL     OW13661   9.935   2.259   0.828 -0.2346 -0.3166 -0.7439
 1186SOL    HW113662   9.961   2.355   0.817 -1.8587  0.0547 -1.4385
 1186SOL    HW213663  10.013   2.208   0.865  0.0668  1.5882  1.3146
 1187SOL     OW13664   9.619   9.164   1.718 -0.3603 -0.0929  0.3735
 1187SOL    HW113665   9.680   9.158   1.639 -1.7207 -1.7654 -0.5900
 1187SOL    HW213666   9.669   9.139   1.801  0.0990 -2.3047 -0.5181
 1188SOL     OW13667   3.618   9.607   0.741 -0.3916  0.2272  0.4793
 1188SOL    HW113668   3.610   9.591   0.642 -0.5023 -2.2373  0.8464
 1188SOL    HW213669   3.561   9.686   0.766 -0.2121  1.0076 -1.4401
 1189SOL     OW13670   9.922   3.636   0.608 -0.4729 -0.2495  0.4669
 1189SOL    HW113671   9.926   3.536   0.606  0.7960 -0.2476  1.8702
 1189SOL    HW213672   9.966   3.674   0.527 -1.7808 -0.8259 -0.5375
 1190SOL     OW13673   4.895   2.905   0.891 -0.0652  0.5223  0.2820
 1190SOL    HW113674   4.897   2.981   0.956  0.5263  1.1976 -0.5179
 1190SOL    HW213675   4.889   2.941   0.798  1.6989 -0.3536 -0.1995
 1191SOL     OW13676   3.462   0.950   0.055  0.1772 -0.3393 -0.3246
 1191SOL    HW113677   3.409   1.021   0.102  2.3059  1.5858 -0.7782
 1191SOL    HW213678   3.547   0.933   0.105 -0.2145 -2.5097 -0.3092
 1192SOL     OW13679   2.070   2.817   2.016 -0.0414 -0.3720  0.3166
 1192SOL    HW113680   2.167   2.814   2.037  0.3998 -0.1798 -1.6102
 1192SOL    HW213681   2.024   2.877   2.081  0.9551 -1.2475  1.8493
 1193SOL     OW13682   0.743   1.143   1.527 -0.4458  0.3468 -0.4924
 1193SOL    HW113683   0.647   1.168   1.528 -0.5122  0.1283 -1.1223
 1193SOL    HW213684   0.753   1.047   1.552 -0.1761  1.0266  2.1020
 1194SOL     OW13685   1.172   6.429   1.285  0.2007 -0.2930  0.3336
 1194SOL    HW113686   1.181   6.525   1.257  0.7026 -0.7438 -1.0751
 1194SOL    HW213687   1.119   6.379   1.217 -0.6412 -0.8869  1.4043
 1195SOL     OW13688   1.041   3.431   1.267 -0.0561  0.0014  0.2665
 1195SOL    HW113689   1.128   3.463   1.228  0.3299  0.6840  1.6581
 1195SOL    HW213690   1.061   3.371   1.345 -0.8101 -1.7649 -0.8607
 1196SOL     OW13691   3.477   4.322   2.388  0.2298 -0.2535  0.0543
 1196SOL    HW113692   3.542   4.290   2.457 -0.4202 -2.4247 -0.3005
 1196SOL    HW213693   3.522   4.324   2.299 -0.0086 -1.1628 -0.0895
 1197SOL     OW13694   1.197   8.603   0.318 -0.2643  0.1832  0.1552
 1197SOL    HW113695   1.233   8.695   0.333 -0.3961  0.1674  0.5806
 1197SOL    HW213696   1.269   8.536   0.335 -0.5806  0.1320  1.3413
 1198SOL     OW13697   9.334   9.146   1.288 -0.3480 -0.3060 -0.2901
 1198SOL    HW113698   9.262   9.156   1.357 -0.7987 -1.3352 -0.5926
 1198SOL    HW213699   9.411   9.206   1.310 -0.7838 -0.1091  0.7145
 1199SOL     OW13700   3.109   0.549   0.081 -0.0166 -0.3426 -0.8083
 1199SOL    HW113701   3.018   0.527   0.116 -0.1147 -0.5816 -1.2064
 1199SOL    HW213702   3.141   0.634   0.123 -0.7654  0.1761 -1.2772
 1200SOL     OW13703   9.155   3.271   2.138  0.3231 -0.6430 -0.0763
 1200SOL    HW113704   9.152   3.222   2.225 -1.7484  1.5338  1.1290
 1200SOL    HW213705   9.182   3.366   2.154  0.0992 -0.2734 -1.8310
 1201SOL     OW13706   9.783   4.155   0.795 -0.2652 -0.3634 -0.2314
 1201SOL    HW113707   9.774   4.105   0.881  0.8368 -1.9247 -0.9834
 1201SOL    HW213708   9.756   4.250   0.808  0.7098 -0.3769  2.0407
 1202SOL     OW13709   0.855   5.860   0.456 -0.3709  0.2102  0.5347
 1202SOL    HW113710   0.870   5.959   0.458  0.1787  0.1142  1.1941
 1202SOL    HW213711   0.857   5.825   0.549 -0.2415 -0.4801  0.2699
 1203SOL     OW13712   4.072   0.570   0.454  0.1195  0.4306 -0.1607
 1203SOL    HW113713   3.997   0.633   0.475 -0.2237 -0.2784  0.7943
 1203SOL    HW213714   4.071   0.494   0.520 -1.8160 -2.6135 -3.5372
 1204SOL     OW13715   1.297   2.784   0.164  0.3582  0.4013 -0.5692
 1204SOL    HW113716   1.220   2.823   0.114  0.1233  0.0084 -0.5123
 1204SOL    HW213717   1.360   2.740   0.100 -0.4933 -1.0627 -0.4262
 1205SOL     OW13718   1.850   9.841   1.327 -0.0153  0.6419 -0.2060
 1205SOL    HW113719   1.813   9.850   1.234 -1.7540 -2.7390  0.0782
 1205SOL    HW213720   1.781   9.871   1.393 -0.5624 -1.3882  0.1562
 1206SOL     OW13721   0.043   5.938   2.290  0.1065 -0.6546  0.3092
 1206SOL    HW113722   0.114   5.868   2.285 -1.3182 -2.1499  0.4287
 1206SOL    HW213723  -0.047   5.894   2.286 -0.8096  1.2331 -0.2344
 1207SOL     OW13724   9.800   3.704   1.948 -0.9352  0.1931 -0.0215
 1207SOL    HW113725   9.744   3.653   1.883 -1.9640  0.0244  0.9668
 1207SOL    HW213726   9.895   3.702   1.919 -1.0565 -1.6938 -0.3930
 1208SOL     OW13727   2.444   4.871   0.862  0.1729 -0.2031 -0.3233
 1208SOL    HW113728   2.360   4.820   0.841 -0.5012  0.7593 -0.0433
 1208SOL    HW213729   2.472   4.851   0.956  0.0465 -0.2433 -0.2933
 1209SOL     OW13730   9.888   1.433   1.432  0.0576  0.0230 -0.2978
 1209SOL    HW113731   9.838   1.382   1.502 -1.8593  2.5716  0.2793
 1209SOL    HW213732   9.958   1.489   1.476  0.1588  0.1596 -0.6348
 1210SOL     OW13733   9.174   6.945   2.108  0.3712 -0.0728 -0.4161
 1210SOL    HW113734   9.181   6.953   2.009  1.6307 -2.2318 -0.5326
 1210SOL    HW213735   9.173   6.848   2.133  0.7122  0.4617  1.7336
 1211SOL     OW13736   3.518   4.235   1.954 -0.4494 -0.7816 -0.3239
 1211SOL    HW113737   3.542   4.139   1.965 -1.6215 -1.0080  0.2362
 1211SOL    HW213738   3.550   4.287   2.033 -1.3200 -0.9922  0.1658
 1212SOL     OW13739   9.766   2.506   2.020  0.0755 -0.4443  0.3000
 1212SOL    HW113740   9.710   2.580   2.058  1.6715 -0.6931  3.2945
 1212SOL    HW213741   9.736   2.486   1.927 -1.1185  3.2101 -0.1761
 1213SOL     OW13742   1.129   8.547   2.258  0.7915  0.1986 -0.4033
 1213SOL    HW113743   1.179   8.567   2.174  1.0544  0.7062 -0.1306
 1213SOL    HW213744   1.065   8.621   2.276  1.1650  0.3860  0.1649
 1214SOL     OW13745   8.023   0.486   2.117 -0.0817 -0.0599 -0.4910
 1214SOL    HW113746   8.096   0.500   2.185 -0.6820  1.4692 -0.1440
 1214SOL    HW213747   7.939   0.527   2.150 -0.8348 -0.8522 -1.3989
 1215SOL     OW13748   1.830   9.689   1.988 -0.1845  0.5403 -0.0261
 1215SOL    HW113749   1.805   9.721   1.897  0.0305 -0.5357 -0.4644
 1215SOL    HW213750   1.890   9.610   1.980 -0.2862  0.3492  1.0555
 1216SOL     OW13751   0.684   4.281   2.217  0.3627  0.5367  0.1624
 1216SOL    HW113752   0.685   4.215   2.292  0.6694  1.2780  0.8148
 1216SOL    HW213753   0.718   4.370   2.250 -0.3545  1.1053 -0.6206
 1217SOL     OW13754   3.724   1.954   1.923  0.2048 -0.0541 -0.4374
 1217SOL    HW113755   3.798   1.992   1.978  0.1359  1.0356 -1.0896
 1217SOL    HW213756   3.678   1.882   1.975  0.6276  0.4348  0.6323
 1218SOL     OW13757   0.581   5.874   0.366  0.2745 -0.3264  0.7170
 1218SOL    HW113758   0.576   5.945   0.295  1.8805 -1.2626 -0.3669
 1218SOL    HW213759   0.676   5.860   0.392 -0.0060 -2.2144  0.7776
 1219SOL     OW13760   4.295   3.199   0.186 -0.5614  0.0286  0.0166
 1219SOL    HW113761   4.215   3.185   0.128 -1.6434  1.5138  1.1099
 1219SOL    HW213762   4.328   3.293   0.175 -1.3822  0.6557  2.4936
 1220SOL     OW13763   9.510   0.833   1.943 -0.3038  0.0871  0.8951
 1220SOL    HW113764   9.591   0.777   1.961  0.1568 -0.1222 -1.6429
 1220SOL    HW213765   9.458   0.844   2.027  1.6389 -0.9246  2.2697
 1221SOL     OW13766   0.345   1.612   0.845  0.7161 -0.3213  0.4466
 1221SOL    HW113767   0.310   1.701   0.812  0.5747 -0.2422  0.8061
 1221SOL    HW213768   0.412   1.627   0.917  1.5223 -0.4774 -0.2695
 1222SOL     OW13769   3.651   2.635   0.180 -0.2486  0.1622 -0.0353
 1222SOL    HW113770   3.658   2.651   0.081 -0.6282 -0.3582 -0.1487
 1222SOL    HW213771   3.711   2.699   0.228  0.0579  0.3158 -0.6115
 1223SOL     OW13772   0.740   6.966   0.934  0.0752  0.0949  0.0281
 1223SOL    HW113773   0.658   6.935   0.983  1.5378 -1.0807  1.8192
 1223SOL    HW213774   0.722   6.966   0.836 -1.9274 -0.5781  0.3605
 1224SOL     OW13775   2.984   8.589   0.082 -0.2446 -0.2778 -0.0468
 1224SOL    HW113776   3.007   8.495   0.109  1.4084  0.5212  1.4508
 1224SOL    HW213777   2.980   8.646   0.164  0.1043  1.2414 -1.0892
 1225SOL     OW13778   3.994   2.543   2.186 -0.4191  0.2033  0.2109
 1225SOL    HW113779   3.960   2.589   2.268  0.2162  0.0131  0.5876
 1225SOL    HW213780   3.919   2.497   2.139 -0.5377 -0.9290  1.5010
 1226SOL     OW13781   0.313   8.970   0.636  0.0474 -0.0937  0.2029
 1226SOL    HW113782   0.379   9.009   0.572  1.2329  0.6949  1.8662
 1226SOL    HW213783   0.226   9.018   0.627  0.3951  0.4424 -0.3614
 1227SOL     OW13784   4.596   3.744   0.054 -0.0760  0.3943 -0.2418
 1227SOL    HW113785   4.579   3.752   0.152 -0.9681  1.6492 -0.4864
 1227SOL    HW213786   4.581   3.833   0.010 -3.5052 -0.9920 -2.0972
 1228SOL     OW13787   9.568   7.979   0.874  0.2864  1.1428 -0.0309
 1228SOL    HW113788   9.631   8.056   0.874  1.6196  0.0865 -1.1106
 1228SOL    HW213789   9.526   7.969   0.964  1.9295  1.6509  0.8111
 1229SOL     OW13790   8.457   6.967   0.132  0.0049 -0.3495 -0.7663
 1229SOL    HW113791   8.515   6.938   0.208  1.2609 -2.9401 -2.6538
 1229SOL    HW213792   8.468   7.066   0.117  1.4410 -0.2244  0.9526
 1230SOL     OW13793   2.939   8.856   0.638  0.4754 -0.4092 -0.3246
 1230SOL    HW113794   3.014   8.853   0.572 -0.0041 -2.6072 -0.8174
 1230SOL    HW213795   2.867   8.916   0.604  0.9027 -0.3016 -1.0553
 1231SOL     OW13796   2.036   1.754   1.326 -0.1760  0.1932  0.3443
 1231SOL    HW113797   2.023   1.672   1.382  0.6823  0.0559  0.3411
 1231SOL    HW213798   2.069   1.728   1.236  0.5613  0.5819  0.5030
 1232SOL     OW13799   8.088   9.138   1.822 -0.4944  0.6933 -0.0878
 1232SOL    HW113800   8.042   9.090   1.747  0.5228 -1.0068  0.3481
 1232SOL    HW213801   8.020   9.172   1.887 -1.3263  1.3994 -1.3135
 1233SOL     OW13802   0.846   3.034   0.312 -0.2098 -0.5044  0.0165
 1233SOL    HW113803   0.932   2.996   0.344  0.3690  1.0358  0.3442
 1233SOL    HW213804   0.776   3.022   0.382 -0.0503 -1.0021  0.0915
 1234SOL     OW13805   9.340   6.164   0.331  0.7338  0.2154 -0.3091
 1234SOL    HW113806   9.268   6.134   0.394 -0.0642  0.3552 -1.1516
 1234SOL    HW213807   9.404   6.088   0.315  1.1903  0.3159  1.0171
 1235SOL     OW13808   8.893   1.973   1.271  0.1073  0.2188  0.6620
 1235SOL    HW113809   8.898   2.055   1.213 -0.0259 -0.6339 -0.5688
 1235SOL    HW213810   8.984   1.934   1.281  0.1249  0.3511  0.9962
 1236SOL     OW13811   4.144   4.596   0.961 -0.1140 -0.1264 -0.4808
 1236SOL    HW113812   4.048   4.593   0.932 -0.2611 -2.2270  0.1211
 1236SOL    HW213813   4.202   4.618   0.882 -1.0955  1.4869 -0.7767
 1237SOL     OW13814   2.033  10.000   1.912 -0.1477  0.5278  0.1241
 1237SOL    HW113815   2.068   9.929   1.851  1.3006  2.1431 -0.9823
 1237SOL    HW213816   2.055   9.976   2.007 -0.9903 -1.2070 -0.0922
 1238SOL     OW13817   1.692   5.407   0.591  0.7780  0.0911  0.3505
 1238SOL    HW113818   1.747   5.338   0.546  0.0656 -0.6012  0.5290
 1238SOL    HW213819   1.606   5.366   0.622 -0.1160  1.3004 -0.4836
 1239SOL     OW13820   1.983   3.293   0.884  0.5375 -0.4171  0.3428
 1239SOL    HW113821   2.031   3.349   0.952  0.9955 -0.3647 -0.0239
 1239SOL    HW213822   2.041   3.216   0.857  0.8605  0.2624 -0.9304
 1240SOL     OW13823   3.342   2.037   2.420  0.2754  0.8985 -0.1955
 1240SOL    HW113824   3.367   2.084   2.505  0.2693 -1.6126  1.2396
 1240SOL    HW213825   3.422   2.031   2.361  0.9274  0.4324  0.7189
 1241SOL     OW13826   8.895   7.245   1.720  0.5825  0.1876  0.0837
 1241SOL    HW113827   8.920   7.276   1.629  1.0456 -1.0856 -0.2308
 1241SOL    HW213828   8.821   7.178   1.714  0.4148  0.3146  0.6599
 1242SOL     OW13829   3.539   0.395   0.079  0.1373  0.1088 -0.2383
 1242SOL    HW113830   3.468   0.439   0.024 -0.5081  1.5809  1.7171
 1242SOL    HW213831   3.541   0.297   0.058 -1.2423  0.3419 -1.6125
 1243SOL     OW13832   0.231   7.034   0.410  0.0881  0.0585 -0.3505
 1243SOL    HW113833   0.230   7.073   0.318 -0.4237 -1.1835 -0.8881
 1243SOL    HW213834   0.203   6.938   0.405  3.4807 -1.0403  0.6261
 1244SOL     OW13835   1.322   8.731   1.719 -0.6833  0.3635  0.4235
 1244SOL    HW113836   1.377   8.775   1.791 -2.0936  1.4379  0.8819
 1244SOL    HW213837   1.243   8.789   1.699 -1.0433 -0.6176 -1.0177
 1245SOL     OW13838   0.846   8.255   0.377 -0.0797 -0.3030 -0.0102
 1245SOL    HW113839   0.822   8.340   0.425  0.4426 -0.5046  0.6074
 1245SOL    HW213840   0.945   8.246   0.372 -0.0741 -2.2938  2.4919
 1246SOL     OW13841   1.518   7.341   1.420 -0.2653 -0.5588  0.5963
 1246SOL    HW113842   1.437   7.371   1.370 -1.1253  0.2918  2.4546
 1246SOL    HW213843   1.599   7.349   1.361 -1.1571  1.0455 -0.4288
 1247SOL     OW13844   7.967   0.098   0.620  0.2838  0.1106  0.0539
 1247SOL    HW113845   7.940   0.130   0.711  0.3042 -1.7157  0.7303
 1247SOL    HW213846   7.986  -0.000   0.624 -0.2673 -0.0981 -2.0560
 1248SOL     OW13847   0.054   5.582   0.971  0.4846 -0.4114  0.0336
 1248SOL    HW113848   0.076   5.614   1.063  1.9807 -0.9856 -0.1054
 1248SOL    HW213849   0.038   5.483   0.974 -1.9750 -0.0330  0.0983
 1249SOL     OW13850   0.785   5.773   1.527 -0.3392  0.1005 -0.0493
 1249SOL    HW113851   0.765   5.699   1.591 -1.1156  1.2697  1.0934
 1249SOL    HW213852   0.871   5.754   1.479 -0.5436 -1.5349  0.2104
 1250SOL     OW13853   2.778   1.815   1.544 -0.1880  0.0008 -0.3341
 1250SOL    HW113854   2.711   1.795   1.616 -1.4701  2.9607 -0.6634
 1250SOL    HW213855   2.849   1.875   1.581  1.2543 -1.5282 -0.5474
 1251SOL     OW13856   1.583   5.890   2.317 -0.3910 -0.1552 -0.5443
 1251SOL    HW113857   1.550   5.871   2.409 -0.9850 -0.0273 -0.7271
 1251SOL    HW213858   1.549   5.979   2.288  1.2141  0.5783 -0.2276
 1252SOL     OW13859   2.788   5.971   0.676  0.0980  0.2330 -0.1985
 1252SOL    HW113860   2.704   6.025   0.682 -0.8312 -0.9269 -1.9969
 1252SOL    HW213861   2.834   5.991   0.590  0.4329 -0.8344 -0.2837
 1253SOL     OW13862   0.902   2.357   2.424 -0.5698  0.4409 -0.7635
 1253SOL    HW113863   1.001   2.343   2.426 -0.5399  0.6619 -0.6691
 1253SOL    HW213864   0.881   2.438   2.369 -0.7011  0.3764 -0.8085
 1254SOL     OW13865   1.280   6.436   1.762  0.0786 -0.3038  0.1746
 1254SOL    HW113866   1.370   6.468   1.793  0.3988 -1.6318  0.6870
 1254SOL    HW213867   1.252   6.486   1.681  1.7340 -0.5428 -0.5587
 1255SOL     OW13868   3.626   9.339   0.064  0.4397 -0.2903 -0.3640
 1255SOL    HW113869   3.674   9.417   0.102  1.7094 -1.2318 -0.0225
 1255SOL    HW213870   3.609   9.271   0.135 -0.1680 -0.5782 -0.7704
 1256SOL     OW13871   9.407   9.810   2.437  0.0653  0.1586 -0.3226
 1256SOL    HW113872   9.453   9.872   2.500 -0.6813  1.8307 -1.3803
 1256SOL    HW213873   9.396   9.721   2.481  3.1131  0.0898  0.4115
 1257SOL     OW13874   9.359   2.827   2.225 -0.1370 -0.3216 -0.4191
 1257SOL    HW113875   9.326   2.825   2.320  0.1907 -0.2610 -0.3045
 1257SOL    HW213876   9.335   2.914   2.184 -0.0009 -0.2275 -0.2962
 1258SOL     OW13877   9.469   7.297   2.144  0.6476  0.3579 -0.4612
 1258SOL    HW113878   9.536   7.324   2.213  0.5106 -1.8413  0.5942
 1258SOL    HW213879   9.443   7.201   2.159 -1.7566  0.7830 -1.6345
 1259SOL     OW13880   0.781   9.243   0.121  0.0513 -0.3067 -0.0444
 1259SOL    HW113881   0.705   9.297   0.085 -0.7926 -0.8451  0.8746
 1259SOL    HW213882   0.778   9.151   0.081  0.3780 -0.2499 -0.2022
 1260SOL     OW13883   9.736   4.305   2.417 -0.5458 -0.0957 -0.1451
 1260SOL    HW113884   9.701   4.367   2.488  1.3378  0.9170 -0.0875
 1260SOL    HW213885   9.736   4.352   2.329 -1.4769 -0.8634 -0.5607
 1261SOL     OW13886   8.972   6.576   0.146  0.3216 -0.4007 -0.0908
 1261SOL    HW113887   9.045   6.621   0.095 -0.7468 -0.0441 -1.3237
 1261SOL    HW213888   9.012   6.507   0.207  1.8644  1.3540  0.9525
 1262SOL     OW13889   2.837   5.989   1.149  0.1218  0.5482  0.2741
 1262SOL    HW113890   2.872   5.932   1.223 -1.6606 -1.9019 -0.7258
 1262SOL    HW213891   2.873   5.957   1.062 -1.1902  0.7069 -0.3403
 1263SOL     OW13892   8.761   7.673   2.032  0.2161 -0.1964 -0.4136
 1263SOL    HW113893   8.695   7.598   2.025  0.3190 -0.1610 -1.9254
 1263SOL    HW213894   8.845   7.639   2.075 -0.1976 -0.6422  0.0406
 1264SOL     OW13895   2.249   1.724   0.391 -0.3713  0.5325 -0.3902
 1264SOL    HW113896   2.218   1.742   0.484  1.2925  0.2470  0.2524
 1264SOL    HW213897   2.171   1.711   0.330 -1.4649  0.6013  0.9973
 1265SOL     OW13898   8.462   8.340   0.335  0.3442  0.8401 -0.3714
 1265SOL    HW113899   8.467   8.410   0.406 -0.8710  0.6168 -0.0606
 1265SOL    HW213900   8.553   8.328   0.293  1.1723  0.6637  1.4347
 1266SOL     OW13901   7.488   9.535   0.766  0.1369 -0.2427  0.1594
 1266SOL    HW113902   7.438   9.622   0.772 -0.0383 -0.4160  1.3980
 1266SOL    HW213903   7.423   9.461   0.748  0.4166  0.0086 -2.0284
 1267SOL     OW13904   9.810   9.792   0.436 -0.2948  0.2112 -0.2805
 1267SOL    HW113905   9.718   9.830   0.421 -1.0087 -1.8324 -1.1868
 1267SOL    HW213906   9.876   9.867   0.440 -2.0581  1.7707  1.0062
 1268SOL     OW13907   1.985   9.498   1.664 -0.7079 -0.7193  0.2793
 1268SOL    HW113908   2.009   9.534   1.574 -0.1525  0.0228  0.7208
 1268SOL    HW213909   1.890   9.466   1.663 -1.2082  0.7402 -0.1176
 1269SOL     OW13910   2.430   2.081   2.282 -0.4401 -0.3911 -0.4444
 1269SOL    HW113911   2.381   2.010   2.230  0.2826  0.3521 -2.1834
 1269SOL    HW213912   2.528   2.063   2.276 -0.4033 -1.1782  2.0037
 1270SOL     OW13913   8.138   1.610   0.814 -0.4038 -0.1547  0.1255
 1270SOL    HW113914   8.189   1.525   0.823  1.2739  0.6865 -1.0933
 1270SOL    HW213915   8.045   1.597   0.848 -0.3431 -2.6179 -0.5512
 1271SOL     OW13916   0.153   0.564   0.227  0.5613 -0.2440 -0.2916
 1271SOL    HW113917   0.154   0.659   0.258  0.0634 -0.1527 -0.5644
 1271SOL    HW213918   0.078   0.515   0.272 -1.0754  0.2442 -2.4192
 1272SOL     OW13919   9.409   7.993   0.626  0.5814  0.0954 -0.7669
 1272SOL    HW113920   9.466   7.983   0.707  1.3850 -1.3729 -1.4900
 1272SOL    HW213921   9.323   7.943   0.639  0.2765  0.7046 -0.4300
 1273SOL     OW13922   0.147   5.885   1.860  0.2732  0.5189 -0.0440
 1273SOL    HW113923   0.143   5.895   1.761  2.5035 -0.0540 -0.2135
 1273SOL    HW213924   0.241   5.897   1.891 -0.4447  0.8992  2.0314
 1274SOL     OW13925   4.726   3.569   2.293 -0.2682 -0.1338 -0.8257
 1274SOL    HW113926   4.669   3.518   2.228 -1.2463  0.3938 -0.3973
 1274SOL    HW213927   4.669   3.634   2.343 -0.0307 -2.1890  2.2605
 1275SOL     OW13928   9.386   8.243   1.386 -0.5666 -0.1364 -0.4060
 1275SOL    HW113929   9.463   8.277   1.332 -0.5604 -0.0341 -0.3333
 1275SOL    HW213930   9.362   8.311   1.456  0.1459 -0.7563  0.4531
 1276SOL     OW13931   2.588   8.800   0.899  0.5235 -0.3537  0.3946
 1276SOL    HW113932   2.676   8.830   0.937  0.7763 -0.8888  0.2395
 1276SOL    HW213933   2.561   8.862   0.826  1.8276 -1.4003 -1.0104
 1277SOL     OW13934   9.493   9.627   2.008 -0.1478  0.1771 -0.2775
 1277SOL    HW113935   9.496   9.679   2.093 -0.5246  2.1151 -1.4318
 1277SOL    HW213936   9.548   9.545   2.017 -1.0350 -0.1791  2.1941
 1278SOL     OW13937   8.530   1.931   1.497  0.0346 -0.0052  0.8891
 1278SOL    HW113938   8.507   2.024   1.471  2.9688  0.2704 -0.9603
 1278SOL    HW213939   8.546   1.927   1.596  0.6510  1.6244  0.8712
 1279SOL     OW13940   4.551   2.883   0.487  0.6250 -0.4616 -0.5020
 1279SOL    HW113941   4.573   2.981   0.492  0.8631 -0.3712 -2.7132
 1279SOL    HW213942   4.554   2.843   0.579  0.8989  1.5222  0.3770
 1280SOL     OW13943   0.322   5.194   1.294 -0.2247 -0.2992  0.0834
 1280SOL    HW113944   0.234   5.200   1.342 -0.2118 -1.4676  0.2686
 1280SOL    HW213945   0.306   5.185   1.196 -0.2986 -0.0833  0.0746
 1281SOL     OW13946   9.242   4.374   1.095  0.2952 -0.6202  0.5133
 1281SOL    HW113947   9.311   4.303   1.094  1.1642  0.2036  1.2296
 1281SOL    HW213948   9.212   4.391   1.189 -1.2403 -1.3062  0.1643
 1282SOL     OW13949   3.224   4.189   2.430  0.6496  0.1210 -0.7416
 1282SOL    HW113950   3.230   4.106   2.376 -0.1287  0.4371 -1.3150
 1282SOL    HW213951   3.299   4.251   2.405  1.0649 -0.2897 -0.5100
 1283SOL     OW13952   9.412   5.810   1.390 -0.6659  0.0288  0.2463
 1283SOL    HW113953   9.467   5.855   1.461 -0.2557  0.1908 -0.1698
 1283SOL    HW213954   9.324   5.855   1.383 -1.0194 -0.4880  1.2043
 1284SOL     OW13955   2.117   6.755   1.646 -0.2193 -0.1222 -0.0677
 1284SOL    HW113956   2.112   6.674   1.704  1.7668 -1.5904 -1.8964
 1284SOL    HW213957   2.210   6.791   1.647 -0.6422  1.0149 -0.7731
 1285SOL     OW13958   2.390   6.727   2.253  0.0423  0.5108 -0.0539
 1285SOL    HW113959   2.420   6.710   2.159  2.4423  2.0246  0.4176
 1285SOL    HW213960   2.331   6.651   2.283  0.6195 -0.8240 -2.1748
 1286SOL     OW13961   3.149   5.730   1.066 -0.4777 -1.1676 -0.0816
 1286SOL    HW113962   3.116   5.765   1.154  1.8516 -1.2013  0.8439
 1286SOL    HW213963   3.089   5.761   0.993 -1.1548  0.7542  1.2574
 1287SOL     OW13964   8.649   0.125   0.649 -0.2640  0.2277 -0.0567
 1287SOL    HW113965   8.674   0.208   0.699  2.1645  1.3109 -2.8976
 1287SOL    HW213966   8.550   0.120   0.640 -0.6459  1.1381  2.8364
 1288SOL     OW13967   3.389   0.327   0.762 -0.1414  0.3626 -0.3498
 1288SOL    HW113968   3.468   0.270   0.738 -0.4160 -0.1985  0.0822
 1288SOL    HW213969   3.401   0.418   0.722  1.4602  0.7648  0.9782
 1289SOL     OW13970   0.909   8.741   1.619  0.4121 -0.3388 -0.5561
 1289SOL    HW113971   0.939   8.658   1.666 -0.8282 -0.8640 -0.6820
 1289SOL    HW213972   0.942   8.739   1.524  2.5701  0.5320  0.1327
 1290SOL     OW13973   3.372   0.549   0.611 -0.2058  0.2032  0.2073
 1290SOL    HW113974   3.423   0.635   0.620 -1.6302  1.1392 -0.5679
 1290SOL    HW213975   3.280   0.568   0.578 -0.7888 -1.5615  0.7653
 1291SOL     OW13976   2.306   6.746   0.656 -0.4496  0.0124  1.0102
 1291SOL    HW113977   2.371   6.700   0.717 -0.7164 -1.8239 -0.0434
 1291SOL    HW213978   2.213   6.729   0.689 -0.5373 -0.0544  0.7305
 1292SOL     OW13979   9.647   3.577   1.703  0.4566  0.5092  0.0445
 1292SOL    HW113980   9.621   3.505   1.638 -0.0156  0.4888  0.2536
 1292SOL    HW213981   9.571   3.640   1.715  0.3091  0.1374  1.0773
 1293SOL     OW13982   1.629   0.556   0.621 -0.0589  0.1214 -0.5849
 1293SOL    HW113983   1.695   0.627   0.596  1.2422  0.5698  3.8069
 1293SOL    HW213984   1.677   0.470   0.636 -0.9057 -0.3209 -0.3976
 1294SOL     OW13985   2.762   6.594   1.896  0.4126 -0.0419  0.0293
 1294SOL    HW113986   2.835   6.654   1.929  1.4879 -1.2090 -0.1454
 1294SOL    HW213987   2.760   6.597   1.796 -1.2480  1.6562  0.0920
 1295SOL     OW13988   9.483   6.003   2.039 -0.2943  0.6521 -0.1157
 1295SOL    HW113989   9.408   5.940   2.019  1.1873 -1.1575 -0.1436
 1295SOL    HW213990   9.535   6.021   1.955 -0.5032  1.6635 -0.0372
 1296SOL     OW13991   9.125   6.970   1.019 -0.1026  0.7531 -0.0844
 1296SOL    HW113992   9.059   7.010   1.083 -0.5402  0.4056 -0.3097
 1296SOL    HW213993   9.082   6.892   0.973  1.0385 -0.5692  1.0406
 1297SOL     OW13994   1.174   7.456   1.476  0.0202 -0.0849  0.0955
 1297SOL    HW113995   1.083   7.475   1.512 -0.1868  0.2312 -0.5803
 1297SOL    HW213996   1.187   7.506   1.390  0.3811 -1.0729 -0.4354
 1298SOL     OW13997   1.004   0.928   0.938  0.4137  0.0987 -0.1140
 1298SOL    HW113998   0.976   1.023   0.948 -0.5333 -0.2921  1.0052
 1298SOL    HW213999   0.997   0.901   0.841  0.9812  1.2406 -0.4788
 1299SOL     OW14000   9.919   5.438   1.473  0.0268 -0.3453  0.3133
 1299SOL    HW114001   9.837   5.472   1.520  0.7676  0.3838  1.0983
 1299SOL    HW214002   9.965   5.514   1.427  1.1103 -0.4680  1.1756
 1300SOL     OW14003   1.855   5.128   2.317 -0.0562 -0.4343  0.1411
 1300SOL    HW114004   1.769   5.097   2.276 -1.6234  2.5778  0.9414
 1300SOL    HW214005   1.904   5.186   2.253 -0.8392  1.4663  1.1961
 1301SOL     OW14006   1.106   7.942   0.478  0.2910 -0.2907  0.2397
 1301SOL    HW114007   1.089   8.038   0.500 -1.1836 -0.6475  0.7368
 1301SOL    HW214008   1.118   7.890   0.563  1.9576 -0.4131 -0.0473
 1302SOL     OW14009   2.181   2.832   1.045 -0.7181 -0.4397 -0.3205
 1302SOL    HW114010   2.213   2.737   1.043 -0.4596 -0.3228 -2.3447
 1302SOL    HW214011   2.220   2.878   1.125  1.5195 -1.2317 -0.9071
 1303SOL     OW14012   1.093   5.882   1.817  0.1796 -0.5074  0.6333
 1303SOL    HW114013   1.023   5.949   1.840  0.2160 -0.2786  0.0981
 1303SOL    HW214014   1.079   5.851   1.723  1.3510  0.2551  0.1873
 1304SOL     OW14015   0.511   2.286   0.370 -0.5264  0.0208  0.2045
 1304SOL    HW114016   0.600   2.243   0.382 -0.7041 -0.0130  1.4987
 1304SOL    HW214017   0.519   2.385   0.385 -0.4433  0.2032 -1.0522
 1305SOL     OW14018   4.265   9.954   1.741  0.0963 -0.0512 -0.0086
 1305SOL    HW114019   4.264   9.876   1.803 -0.3584 -0.4480 -0.5120
 1305SOL    HW214020   4.295  10.036   1.791 -0.3060 -0.3554  0.7485
 1306SOL     OW14021   1.992   2.441   1.809 -0.0478  0.0696 -0.0774
 1306SOL    HW114022   1.909   2.390   1.788  0.2886 -0.5435  0.0870
 1306SOL    HW214023   2.041   2.397   1.884 -0.1731  1.0900  0.6222
 1307SOL     OW14024   1.521   0.030   1.307 -0.3343 -0.1759 -0.4125
 1307SOL    HW114025   1.452  -0.036   1.338 -0.4157 -0.0136 -0.2376
 1307SOL    HW214026   1.527   0.029   1.208 -0.8797  0.0926 -0.4525
 1308SOL     OW14027   2.293   7.888   2.103 -0.0313  0.2268  0.0221
 1308SOL    HW114028   2.331   7.971   2.144 -0.0300  0.0367  0.4071
 1308SOL    HW214029   2.289   7.816   2.172 -1.8625  0.4862  0.2243
 1309SOL     OW14030   0.166   2.384   1.436 -0.2727  0.4771 -0.1392
 1309SOL    HW114031   0.235   2.314   1.418  0.3990  1.0865  0.0469
 1309SOL    HW214032   0.131   2.420   1.350 -0.7076 -0.1695 -0.2367
 1310SOL     OW14033   9.445   0.117   0.213 -0.3433  0.2030 -0.2250
 1310SOL    HW114034   9.430   0.195   0.152 -3.3023  1.8455  2.4752
 1310SOL    HW214035   9.521   0.136   0.275  0.6866 -0.2238 -1.3286
 1311SOL     OW14036   2.476   8.446   0.589 -0.1993  0.2749  0.4302
 1311SOL    HW114037   2.452   8.501   0.509 -3.1257 -1.9904 -0.3575
 1311SOL    HW214038   2.520   8.362   0.559 -0.1837 -0.0233  1.2787
 1312SOL     OW14039   0.628   1.986   2.090 -1.0133  0.3211  0.3669
 1312SOL    HW114040   0.660   2.069   2.044  1.9363 -0.6969  0.4598
 1312SOL    HW214041   0.556   1.943   2.037 -1.5755  2.1815 -0.3997
 1313SOL     OW14042   2.125   5.821   2.520  0.4408  0.3007  0.0629
 1313SOL    HW114043   2.172   5.756   2.581  0.9468  1.2544  0.7037
 1313SOL    HW214044   2.193   5.867   2.463  0.1888  1.0174  0.3426
 1314SOL     OW14045   2.702   0.380   1.459  0.6622  0.1822  0.4142
 1314SOL    HW114046   2.694   0.322   1.540 -0.0878  2.6272  2.1487
 1314SOL    HW214047   2.783   0.439   1.469 -0.5621  1.8944  0.3191
 1315SOL     OW14048   9.618   3.389   1.503 -0.1575  0.2336  0.1149
 1315SOL    HW114049   9.681   3.404   1.428 -0.1385 -1.0772 -0.1329
 1315SOL    HW214050   9.576   3.299   1.495 -2.5900  1.3340 -0.1208
 1316SOL     OW14051   4.560   2.644   0.314 -0.1805  0.1327 -0.5298
 1316SOL    HW114052   4.616   2.573   0.357 -1.3741 -0.4191  0.1309
 1316SOL    HW214053   4.522   2.704   0.384 -2.1148 -0.7490 -0.7901
 1317SOL     OW14054   1.802   5.115   0.801 -0.6895 -0.1011  0.2241
 1317SOL    HW114055   1.846   5.080   0.718 -0.6722 -0.1823  0.2681
 1317SOL    HW214056   1.703   5.117   0.787 -0.7388 -0.7448  0.4407
 1318SOL     OW14057   3.183   9.335   1.305  0.5934 -0.1600 -0.0463
 1318SOL    HW114058   3.107   9.397   1.284  1.2971  0.0070 -2.1894
 1318SOL    HW214059   3.200   9.275   1.227  1.1764 -1.7747  1.2880
 1319SOL     OW14060   9.751   7.394   0.200 -0.5509 -0.0483 -0.1937
 1319SOL    HW114061   9.802   7.353   0.276  1.6169 -0.0363 -1.6048
 1319SOL    HW214062   9.670   7.339   0.181  0.2836 -1.5170  0.4305
 1320SOL     OW14063   9.193   6.331   2.160  0.2767 -0.3211  0.0570
 1320SOL    HW114064   9.112   6.342   2.103  0.7478 -1.2801 -0.7976
 1320SOL    HW214065   9.203   6.412   2.219 -0.4790  0.4488 -0.8613
 1321SOL     OW14066   2.595   9.758   0.533  0.4058  0.5848 -0.1141
 1321SOL    HW114067   2.569   9.761   0.630 -1.0665  2.9693 -0.5468
 1321SOL    HW214068   2.667   9.826   0.516  0.8100  0.0211 -0.6661
 1322SOL     OW14069   9.625   8.323   1.733  0.2591  0.2068  0.3007
 1322SOL    HW114070   9.725   8.321   1.725  0.1891 -0.0645 -0.4500
 1322SOL    HW214071   9.590   8.409   1.696  0.0629 -0.4553 -1.0826
 1323SOL     OW14072   1.067   0.017   0.919 -0.6191  0.2037  0.5720
 1323SOL    HW114073   1.007  -0.047   0.872  0.8707 -1.3540  0.7189
 1323SOL    HW214074   1.090   0.093   0.859 -2.2951  0.5462  0.3438
 1324SOL     OW14075   3.110   9.482   1.729 -0.2588  0.9279 -0.5505
 1324SOL    HW114076   3.157   9.461   1.815 -0.4293  0.2517 -0.6241
 1324SOL    HW214077   3.148   9.566   1.691 -0.2007  1.2494  0.2009
 1325SOL     OW14078   0.598   9.636   0.399 -0.2308 -0.2428 -0.2441
 1325SOL    HW114079   0.519   9.608   0.345  0.6035 -1.2394 -0.9710
 1325SOL    HW214080   0.648   9.555   0.430  0.0318  0.3528  0.9301
 1326SOL     OW14081   3.722   1.168   0.055  0.1661  0.1267  0.1480
 1326SOL    HW114082   3.689   1.106   0.127 -1.0908  0.8046  0.1716
 1326SOL    HW214083   3.698   1.262   0.078  1.0337  0.5065 -0.4617
 1327SOL     OW14084   9.045   9.971   0.003 -0.0940 -0.4362  0.0400
 1327SOL    HW114085   8.990   9.918  -0.062 -1.8702  1.5423 -0.1080
 1327SOL    HW214086   9.026   9.939   0.096 -1.0922 -0.1390 -0.0549
 1328SOL     OW14087   3.226   8.767   0.171  0.2258 -0.0033 -0.0268
 1328SOL    HW114088   3.194   8.676   0.194 -1.0529  0.1696 -1.0778
 1328SOL    HW214089   3.318   8.780   0.207  0.9040 -2.1399 -0.9193
 1329SOL     OW14090   9.746   1.812   0.068  0.3131 -0.7018 -0.4963
 1329SOL    HW114091   9.783   1.789  -0.022 -0.0852 -0.2342 -0.7886
 1329SOL    HW214092   9.662   1.867   0.056  0.2974 -0.5800  0.1571
 1330SOL     OW14093   2.343   2.203   1.204  0.1548  0.4336  0.1910
 1330SOL    HW114094   2.277   2.259   1.254 -0.4412 -0.2822  0.2101
 1330SOL    HW214095   2.295   2.133   1.152  0.9039 -0.1032  0.2120
 1331SOL     OW14096   9.122   3.670   1.602  0.2973  0.9457 -0.2306
 1331SOL    HW114097   9.191   3.601   1.576  0.3735  0.8336  0.2732
 1331SOL    HW214098   9.100   3.660   1.698 -1.1806  0.3226 -0.6206
 1332SOL     OW14099   9.579   2.823   0.901 -0.6073 -0.4035 -0.0209
 1332SOL    HW114100   9.596   2.725   0.901 -1.3750 -0.5370 -0.2949
 1332SOL    HW214101   9.537   2.850   0.814 -1.0216  0.0610  0.3227
 1333SOL     OW14102   9.711   5.477   2.224 -0.1700 -0.0202 -0.6655
 1333SOL    HW114103   9.632   5.531   2.195  0.6331  1.5349  0.0453
 1333SOL    HW214104   9.690   5.380   2.212 -2.4750  0.3314  0.2308
 1334SOL     OW14105   8.572   0.546   2.500  0.2257 -0.8014  0.0766
 1334SOL    HW114106   8.639   0.503   2.440 -0.0053 -1.1538  0.0645
 1334SOL    HW214107   8.580   0.507   2.592  0.7905 -0.0386  0.3585
 1335SOL     OW14108   9.539   2.280   0.656  0.2053 -0.0811 -0.7947
 1335SOL    HW114109   9.502   2.208   0.597  1.3945 -0.9344 -0.5213
 1335SOL    HW214110   9.506   2.267   0.749  2.2851 -1.7300 -0.2254
 1336SOL     OW14111   2.276   7.711   2.337  0.1630 -0.1391  0.4924
 1336SOL    HW114112   2.370   7.702   2.371  0.9833  0.0821 -1.6374
 1336SOL    HW214113   2.228   7.624   2.347  0.8232 -0.4490  0.9609
 1337SOL     OW14114   9.656   5.308   2.491  0.2390 -0.4859 -0.2750
 1337SOL    HW114115   9.702   5.363   2.421  0.1843 -0.6603 -0.4487
 1337SOL    HW214116   9.657   5.211   2.464 -1.7723 -0.2829 -1.1302
 1338SOL     OW14117   4.307   9.707   2.337  0.6080 -0.1008 -0.2763
 1338SOL    HW114118   4.279   9.644   2.265  0.7144  1.3416 -1.6138
 1338SOL    HW214119   4.297   9.663   2.426 -0.5766 -1.5284 -1.0946
 1339SOL     OW14120   1.868   7.578   0.355  0.2389 -0.0552 -0.4223
 1339SOL    HW114121   1.927   7.526   0.294  0.8454  0.0912  0.0384
 1339SOL    HW214122   1.783   7.602   0.307  1.0563  0.7735 -1.4798
 1340SOL     OW14123   1.740   0.749   0.432 -0.5954 -0.3223  0.0147
 1340SOL    HW114124   1.749   0.804   0.515  0.2922  0.4569 -0.5761
 1340SOL    HW214125   1.655   0.773   0.385 -0.2495  0.5151 -0.2007
 1341SOL     OW14126   1.543   6.585   1.411  0.6499  0.0873  0.6084
 1341SOL    HW114127   1.559   6.609   1.315 -0.9613 -0.7732  0.1085
 1341SOL    HW214128   1.628   6.548   1.450  1.4132  0.7791 -0.3806
 1342SOL     OW14129   2.541   6.683   0.867 -0.3071 -0.2354 -0.2838
 1342SOL    HW114130   2.639   6.679   0.888 -0.6736 -0.3869  1.4513
 1342SOL    HW214131   2.494   6.734   0.938 -1.3247  0.9660 -1.7817
 1343SOL     OW14132   2.816   2.770   2.452  0.2936 -0.0117 -0.7323
 1343SOL    HW114133   2.890   2.837   2.449 -0.7954  1.1872 -1.5566
 1343SOL    HW214134   2.828   2.710   2.531  0.9263  1.5801  0.4111
 1344SOL     OW14135   3.347   0.656   1.825 -0.1644 -0.0864  0.4185
 1344SOL    HW114136   3.262   0.703   1.849 -0.7235 -1.4724  1.1647
 1344SOL    HW214137   3.331   0.558   1.819  0.7217 -0.1124 -2.2975
 1345SOL     OW14138   8.240   9.237   0.748 -0.1234 -0.2860 -0.4472
 1345SOL    HW114139   8.330   9.254   0.788 -0.3338  2.9980 -1.2365
 1345SOL    HW214140   8.250   9.214   0.652 -0.1564  1.4915 -0.9007
 1346SOL     OW14141   1.474   7.763   2.559  0.7100 -0.4902 -0.0536
 1346SOL    HW114142   1.481   7.682   2.500 -0.8842  1.2004 -2.6793
 1346SOL    HW214143   1.539   7.833   2.527  0.2758  0.2164  0.6004
 1347SOL     OW14144   4.000   0.108   2.344 -0.4505 -0.0259  0.5052
 1347SOL    HW114145   4.046   0.157   2.271 -0.0587 -0.8191  0.2158
 1347SOL    HW214146   4.062   0.039   2.383 -0.9533 -0.2190  0.9802
 1348SOL     OW14147   3.818   3.038   1.328  0.4190  0.6629  0.0895
 1348SOL    HW114148   3.773   3.105   1.388 -2.9811 -1.2956 -0.1372
 1348SOL    HW214149   3.866   2.971   1.384 -1.8628 -0.5476  0.6778
 1349SOL     OW14150   0.970   3.856   1.514  0.2598  0.1746  0.3984
 1349SOL    HW114151   0.984   3.767   1.558  1.9359 -0.7195 -1.8680
 1349SOL    HW214152   0.969   3.928   1.584 -2.7743 -1.7393  2.4262
 1350SOL     OW14153   2.946   4.793   1.369  0.2084  0.2379 -0.5670
 1350SOL    HW114154   3.020   4.733   1.341  0.1661 -0.6443  1.1098
 1350SOL    HW214155   2.919   4.771   1.463 -0.8439  1.8638 -0.4576
 1351SOL     OW14156   1.142   3.874   0.403 -0.2230  0.0025  0.0266
 1351SOL    HW114157   1.063   3.923   0.441  0.1837 -0.4400  1.4994
 1351SOL    HW214158   1.120   3.777   0.394 -0.0606 -0.0160 -0.1736
 1352SOL     OW14159   1.588   9.680   0.292  0.1961  0.1577  0.3485
 1352SOL    HW114160   1.499   9.717   0.321  0.7898  1.7173  0.2167
 1352SOL    HW214161   1.640   9.751   0.246  0.9030 -1.1789 -0.9887
 1353SOL     OW14162   3.007   4.448   1.745  0.4024  0.1364  0.5541
 1353SOL    HW114163   2.927   4.502   1.720  1.7055  1.1124 -1.6289
 1353SOL    HW214164   2.988   4.351   1.728 -0.2997  0.3668 -0.0058
 1354SOL     OW14165   0.190   4.901   0.543  0.0003  0.1782  0.0761
 1354SOL    HW114166   0.211   4.998   0.555  1.0797 -0.0019 -0.2416
 1354SOL    HW214167   0.237   4.848   0.614  2.4642 -0.4365 -1.9156
 1355SOL     OW14168   2.961   1.470   1.923 -0.0639 -0.0155 -0.3439
 1355SOL    HW114169   3.037   1.480   1.858  2.3982  1.3947  2.6268
 1355SOL    HW214170   2.996   1.439   2.011 -3.3390 -1.8656  0.4058
 1356SOL     OW14171   3.583   9.412   1.141 -0.3887 -0.0575 -0.1737
 1356SOL    HW114172   3.560   9.347   1.068 -1.8803 -1.0255  1.1337
 1356SOL    HW214173   3.507   9.475   1.155 -1.0098 -1.2450  2.0024
 1357SOL     OW14174   7.840   9.275   0.633 -0.7888 -0.5112  0.2329
 1357SOL    HW114175   7.748   9.287   0.671 -1.9546  1.2456 -2.9310
 1357SOL    HW214176   7.885   9.365   0.628 -0.1035 -0.9270 -1.1243
 1358SOL     OW14177   0.836   3.871   0.565  0.4710 -0.5218 -0.1061
 1358SOL    HW114178   0.902   3.815   0.615  1.1684 -0.0411 -0.4821
 1358SOL    HW214179   0.812   3.951   0.619  0.1614 -0.7182  0.0487
 1359SOL     OW14180   8.759   9.569   1.269 -0.6407 -0.2717  0.1295
 1359SOL    HW114181   8.714   9.614   1.191 -1.1176 -1.2100 -0.1447
 1359SOL    HW214182   8.850   9.609   1.282 -1.4562  1.4795  0.5364
 1360SOL     OW14183   3.882   0.749   0.443  0.0280 -0.1986  0.2363
 1360SOL    HW114184   3.830   0.742   0.358 -1.4586  0.3694  1.0870
 1360SOL    HW214185   3.921   0.841   0.450  0.2844 -0.2956  0.1018
 1361SOL     OW14186   9.123   2.594   1.631 -0.3304 -0.3306 -0.7842
 1361SOL    HW114187   9.114   2.669   1.565 -0.9285 -1.3196 -1.8467
 1361SOL    HW214188   9.162   2.514   1.585  1.8144 -0.1906  0.7190
 1362SOL     OW14189   9.145   8.215   0.532 -0.4178 -0.0896  0.1571
 1362SOL    HW114190   9.152   8.305   0.574  0.6260 -0.3195  0.4955
 1362SOL    HW214191   9.232   8.191   0.488 -0.6969 -0.9141  0.0376
 1363SOL     OW14192   8.456   8.616   2.033  0.5332  0.1964  0.2758
 1363SOL    HW114193   8.510   8.684   2.083  1.0552 -1.0236  1.4103
 1363SOL    HW214194   8.509   8.583   1.955  0.4401  0.7835 -0.0420
 1364SOL     OW14195   3.669   2.405   0.721  0.4638  0.0455 -0.1123
 1364SOL    HW114196   3.675   2.504   0.708  1.3934  0.0891  0.6076
 1364SOL    HW214197   3.746   2.361   0.674 -0.6245 -0.4450 -1.4674
 1365SOL     OW14198   0.340   1.275   0.391  0.1653 -0.3505  0.0697
 1365SOL    HW114199   0.388   1.358   0.417  0.4592 -0.5204  0.0709
 1365SOL    HW214200   0.311   1.225   0.473 -2.3966  1.1101  0.1059
 1366SOL     OW14201   1.901   0.671   0.835  0.3860 -0.0646  0.2294
 1366SOL    HW114202   1.835   0.740   0.803  1.4436  1.0940  0.5198
 1366SOL    HW214203   1.870   0.634   0.922 -0.9577 -1.0425 -0.6537
 1367SOL     OW14204   2.940   8.020   0.960  0.3215 -0.1997 -0.2203
 1367SOL    HW114205   2.843   8.026   0.984 -0.2514 -1.2072 -2.1141
 1367SOL    HW214206   2.962   8.091   0.894  1.2858  1.0544  1.4311
 1368SOL     OW14207   8.937   1.805   2.076  0.4147 -0.4989 -0.2163
 1368SOL    HW114208   8.922   1.880   2.012 -1.2835 -1.2583 -0.7494
 1368SOL    HW214209   8.960   1.841   2.166 -0.4431  0.6582 -0.4542
 1369SOL     OW14210   1.042   3.264   1.500  0.0021 -0.8304  0.7472
 1369SOL    HW114211   1.041   3.285   1.598  1.2542  1.1020  0.3672
 1369SOL    HW214212   1.061   3.166   1.488  0.6929 -0.9187  2.4168
 1370SOL     OW14213   8.908   4.931   0.111  0.0227 -0.3865 -0.0669
 1370SOL    HW114214   9.001   4.958   0.087 -0.2243 -0.5679 -1.2682
 1370SOL    HW214215   8.866   5.001   0.168  1.3535 -0.9179  1.5899
 1371SOL     OW14216   3.379   8.640   1.630 -0.0847 -0.5049 -0.3693
 1371SOL    HW114217   3.401   8.731   1.664 -0.8456  0.0077 -1.2564
 1371SOL    HW214218   3.454   8.577   1.653  0.3033  0.2645  0.5032
 1372SOL     OW14219   3.649   2.689   2.481 -0.3921 -0.1809 -0.6993
 1372SOL    HW114220   3.634   2.775   2.432  0.4089  0.0331 -0.5691
 1372SOL    HW214221   3.582   2.622   2.450 -0.5162  0.2494 -1.3801
 1373SOL     OW14222   0.073   1.706   1.227 -0.4819  0.0203  0.0170
 1373SOL    HW114223   0.075   1.683   1.130  0.9389  0.2264 -0.0248
 1373SOL    HW214224  -0.014   1.679   1.267 -1.0403 -0.1407 -1.2979
 1374SOL     OW14225   1.681   9.089   1.035 -0.1141 -0.3101  0.6589
 1374SOL    HW114226   1.589   9.099   1.074 -0.2331 -0.3882  0.3989
 1374SOL    HW214227   1.717   8.998   1.059  0.0704 -0.1159  1.1283
 1375SOL     OW14228   2.049   6.464   2.554 -0.0545  0.6009  0.4012
 1375SOL    HW114229   2.070   6.482   2.458  0.1008 -0.6942  0.1804
 1375SOL    HW214230   1.967   6.514   2.580 -0.3723  0.5762 -0.5326
 1376SOL     OW14231   4.130   2.804   0.418 -0.2480  0.0808 -0.3166
 1376SOL    HW114232   4.195   2.857   0.364 -0.2174 -0.3421 -0.6943
 1376SOL    HW214233   4.173   2.719   0.450 -0.5724 -0.1397 -0.4625
 1377SOL     OW14234   2.764   2.083   2.338 -0.2269  0.3673 -0.1939
 1377SOL    HW114235   2.812   2.061   2.253 -1.6452 -0.8245 -0.6958
 1377SOL    HW214236   2.809   2.037   2.414 -0.5490 -0.7349 -0.6595
 1378SOL     OW14237   3.964   3.339   1.062  0.1464  0.5871  0.1886
 1378SOL    HW114238   3.941   3.255   1.111  0.2611  0.6108  0.2841
 1378SOL    HW214239   4.054   3.372   1.093  0.2574  0.5564 -0.0972
 1379SOL     OW14240   3.362   9.038   0.539 -0.1752 -0.0615  0.5772
 1379SOL    HW114241   3.291   8.985   0.493 -0.1762 -1.6640  2.3829
 1379SOL    HW214242   3.385   9.117   0.483 -0.6131 -1.6183 -1.8890
 1380SOL     OW14243   2.920   3.528   2.550  0.4848  0.5875 -0.3802
 1380SOL    HW114244   2.867   3.489   2.626 -1.4728  0.9698 -1.5327
 1380SOL    HW214245   3.000   3.470   2.534 -0.6706 -1.1866  0.0359
 1381SOL     OW14246   8.903   1.562   0.648 -0.3067  0.2534  0.0155
 1381SOL    HW114247   8.987   1.614   0.633 -0.0922 -0.1606 -0.2351
 1381SOL    HW214248   8.832   1.596   0.586 -0.6555  1.3368  0.9898
 1382SOL     OW14249   1.613   0.757   2.010 -0.5571  0.1779  0.2216
 1382SOL    HW114250   1.594   0.690   2.081  0.8878  0.9576  1.3616
 1382SOL    HW214251   1.550   0.835   2.020 -1.0459 -0.1845 -0.0065
 1383SOL     OW14252   0.654   6.527   0.534  0.0557 -0.0257 -0.0445
 1383SOL    HW114253   0.565   6.510   0.576 -0.5728  2.3377 -0.3829
 1383SOL    HW214254   0.702   6.598   0.586  0.2367  1.2690 -1.9479
 1384SOL     OW14255   1.681   6.221   1.464 -0.2082  0.1118 -0.2295
 1384SOL    HW114256   1.673   6.143   1.526 -0.1467  1.1878  1.1357
 1384SOL    HW214257   1.590   6.246   1.431 -0.5573  1.2558  1.5688
 1385SOL     OW14258   8.715   8.120   0.763 -0.0556 -0.8467  0.4967
 1385SOL    HW114259   8.731   8.081   0.672 -2.9868 -2.2362  0.5076
 1385SOL    HW214260   8.680   8.213   0.754  0.9252 -0.4942  0.2577
 1386SOL     OW14261   4.742   3.596   1.318 -0.7898  0.0403 -0.0084
 1386SOL    HW114262   4.834   3.608   1.281 -0.7949  0.0940 -0.0034
 1386SOL    HW214263   4.698   3.685   1.327 -0.8458  0.0136 -0.0192
 1387SOL     OW14264   2.404   0.535   1.964 -0.0981 -0.2838 -0.2747
 1387SOL    HW114265   2.313   0.571   1.946  0.1254  0.0463 -0.7864
 1387SOL    HW214266   2.466   0.610   1.988 -0.5147 -0.7898  2.4950
 1388SOL     OW14267   2.432   9.511   0.803 -0.0766  0.0302 -0.2062
 1388SOL    HW114268   2.363   9.581   0.786  2.0245  1.6416 -2.4132
 1388SOL    HW214269   2.440   9.495   0.902 -2.5216  0.8635  0.1587
 1389SOL     OW14270   0.588   0.633   0.117  0.1956  0.3399 -0.1141
 1389SOL    HW114271   0.590   0.536   0.094 -0.8174  0.8077 -2.3548
 1389SOL    HW214272   0.602   0.687   0.034  0.4580  2.1083  1.0614
 1390SOL     OW14273   1.652   7.229   1.968 -0.0098  0.8595  0.3043
 1390SOL    HW114274   1.563   7.258   2.003 -1.1008  0.6414 -2.1273
 1390SOL    HW214275   1.702   7.308   1.932  1.4839  1.2209  3.0909
 1391SOL     OW14276   2.048   6.657   0.700  0.3202  0.2769  0.2355
 1391SOL    HW114277   2.024   6.745   0.661 -0.0167  0.2828  0.4447
 1391SOL    HW214278   2.055   6.665   0.800  1.0539  0.2380  0.1907
 1392SOL     OW14279   9.130   3.351   1.422  0.1794  0.5609 -0.0905
 1392SOL    HW114280   9.096   3.266   1.462  0.6206  0.2880 -0.2848
 1392SOL    HW214281   9.080   3.371   1.338 -1.1149  1.4184  0.8691
 1393SOL     OW14282   9.080   4.825   1.018  0.1570 -0.0830  0.6923
 1393SOL    HW114283   9.092   4.913   0.972  0.1550  0.6448  2.0729
 1393SOL    HW214284   9.083   4.838   1.117  1.9689 -1.8803  0.9030
 1394SOL     OW14285   0.284   4.784   2.349 -0.4735 -0.2245  0.5967
 1394SOL    HW114286   0.339   4.766   2.267  0.8966  1.0810  1.1908
 1394SOL    HW214287   0.287   4.705   2.409  0.3701 -0.3695  0.3782
 1395SOL     OW14288   9.353   3.493   1.500  0.2136  0.1373 -0.1002
 1395SOL    HW114289   9.274   3.440   1.471 -0.8371  0.5291  1.9279
 1395SOL    HW214290   9.437   3.440   1.487 -0.6664 -1.3805  0.3503
 1396SOL     OW14291   1.415   2.279   0.647 -0.2575 -0.5167  0.7715
 1396SOL    HW114292   1.370   2.364   0.673 -0.2926 -0.2929 -0.0273
 1396SOL    HW214293   1.401   2.261   0.550  0.2902 -1.1035  0.7940
 1397SOL     OW14294   2.677   8.826   0.428 -0.4507 -0.4366 -0.3850
 1397SOL    HW114295   2.623   8.869   0.355 -0.6514 -0.5046 -0.2770
 1397SOL    HW214296   2.625   8.828   0.513 -0.6117 -1.2156 -0.4608
 1398SOL     OW14297   8.194   9.597   0.721  0.1052 -0.5408 -0.2684
 1398SOL    HW114298   8.209   9.553   0.810  1.1827 -0.4832 -0.4102
 1398SOL    HW214299   8.272   9.578   0.661 -0.2393  0.0936 -0.9251
 1399SOL     OW14300   9.906   8.117   2.122 -0.0511  0.2918  0.1687
 1399SOL    HW114301   9.854   8.032   2.117 -0.1854  0.2278  2.2745
 1399SOL    HW214302   9.844   8.195   2.113 -0.1821  0.1815  0.1251
 1400SOL     OW14303   9.762   9.492   1.836  0.4349  0.0011 -0.3233
 1400SOL    HW114304   9.724   9.465   1.924 -2.0336 -1.4450 -1.7729
 1400SOL    HW214305   9.803   9.583   1.844 -2.2133  1.0703  1.6686
 1401SOL     OW14306   9.368   3.760   2.273 -0.1095 -0.6516  0.1753
 1401SOL    HW114307   9.289   3.792   2.221  0.1061 -1.3538 -0.5995
 1401SOL    HW214308   9.448   3.754   2.213 -0.1149 -2.5035  0.3165
 1402SOL     OW14309   2.044   0.406   2.578 -0.2900 -0.1077  0.5082
 1402SOL    HW114310   2.032   0.498   2.615 -1.1240 -0.0528  0.1095
 1402SOL    HW214311   1.972   0.346   2.613  0.4366 -0.6903  1.0175
 1403SOL     OW14312   2.020   3.863   1.811 -0.1653 -0.5932  0.0434
 1403SOL    HW114313   2.107   3.912   1.800 -0.7829  1.3850  3.1262
 1403SOL    HW214314   2.027   3.800   1.888 -1.0980 -1.3184 -0.4554
 1404SOL     OW14315   1.869   1.751   0.859  0.3066 -0.0997  0.2675
 1404SOL    HW114316   1.816   1.741   0.944  2.1750 -0.2374  1.4400
 1404SOL    HW214317   1.879   1.849   0.838  0.2587 -0.0514  0.4664
 1405SOL     OW14318   9.752   9.340   1.220 -0.2738 -0.0174  0.7345
 1405SOL    HW114319   9.758   9.250   1.177  1.4230  1.0471 -1.3414
 1405SOL    HW214320   9.657   9.360   1.242 -1.0072 -1.1659 -1.2733
 1406SOL     OW14321   2.905   9.393   1.559  0.0401 -0.3460 -0.4511
 1406SOL    HW114322   2.851   9.313   1.583 -0.1232  0.5134  2.2331
 1406SOL    HW214323   2.983   9.401   1.621  1.0308  0.6222 -1.7768
 1407SOL     OW14324   1.190   6.705   1.179 -0.1712  0.3318 -0.3088
 1407SOL    HW114325   1.207   6.745   1.269 -0.3683  1.2251 -0.6653
 1407SOL    HW214326   1.277   6.682   1.135 -0.1053 -1.6154  0.7686
 1408SOL     OW14327   2.360   3.292   0.274  0.6271 -0.1730 -0.0458
 1408SOL    HW114328   2.354   3.209   0.330 -0.3215 -0.2529 -0.2537
 1408SOL    HW214329   2.313   3.367   0.320  1.6409  0.3027  0.2248
 1409SOL     OW14330   0.633   1.071   0.945 -0.4231  0.0484 -0.1026
 1409SOL    HW114331   0.651   1.001   0.876 -0.3060 -1.8015  1.7158
 1409SOL    HW214332   0.719   1.100   0.987 -0.6042  0.0146  0.3028
 1410SOL     OW14333   9.284   1.121   1.928  0.0792 -0.2997 -0.2713
 1410SOL    HW114334   9.211   1.161   1.983 -0.9579 -0.7459 -1.3106
 1410SOL    HW214335   9.366   1.109   1.984 -1.1788 -1.4075  1.3457
 1411SOL     OW14336   3.319   2.633   1.858 -0.5799 -0.2799  0.0099
 1411SOL    HW114337   3.407   2.669   1.889 -1.7606  0.2699  2.9480
 1411SOL    HW214338   3.331   2.585   1.771  2.5505  0.0131  0.2176
 1412SOL     OW14339   1.657   5.329   2.124  0.3585 -0.9353 -0.1437
 1412SOL    HW114340   1.675   5.359   2.030 -4.3983 -3.0635 -1.8964
 1412SOL    HW214341   1.621   5.407   2.176  2.0940  0.0107 -0.3026
 1413SOL     OW14342   8.273   2.208   1.630  0.1999 -0.4121  0.2083
 1413SOL    HW114343   8.230   2.292   1.662 -2.0327 -1.2383 -0.5816
 1413SOL    HW214344   8.308   2.156   1.708 -0.6508  0.0346  0.8871
 1414SOL     OW14345   2.374   3.517   1.081 -0.5028 -0.4355 -0.0486
 1414SOL    HW114346   2.371   3.617   1.076  0.0780 -0.3821  0.6323
 1414SOL    HW214347   2.392   3.480   0.990 -0.0484  0.1105 -0.1841
 1415SOL     OW14348   2.266   0.168   2.290 -0.1489  0.1490 -0.4373
 1415SOL    HW114349   2.168   0.165   2.310 -0.3919  2.1722 -1.1686
 1415SOL    HW214350   2.288   0.256   2.248  2.4501  0.8579  2.1955
 1416SOL     OW14351   0.773   7.972   0.694 -0.1434 -0.3609 -0.0206
 1416SOL    HW114352   0.716   7.914   0.751  0.6742 -0.3531  0.8070
 1416SOL    HW214353   0.839   7.916   0.643  2.5641  0.0143  2.9184
 1417SOL     OW14354   3.050   0.387   0.429 -0.7569 -0.5462  0.1210
 1417SOL    HW114355   2.954   0.369   0.409 -1.0750  2.4556 -1.3454
 1417SOL    HW214356   3.105   0.362   0.349 -0.7318  0.8511 -0.3154
 1418SOL     OW14357   9.078   5.116   1.204  0.2876 -0.6717  0.0467
 1418SOL    HW114358   9.048   5.211   1.214 -0.8233 -1.0444  0.3349
 1418SOL    HW214359   9.132   5.107   1.121 -1.4156 -0.2247 -1.1261
 1419SOL     OW14360   9.646   7.481   0.687  0.4755  0.3049 -0.0008
 1419SOL    HW114361   9.740   7.451   0.669 -0.0160 -1.6287  0.5233
 1419SOL    HW214362   9.630   7.484   0.785 -1.1020 -3.1011 -0.0721
 1420SOL     OW14363   1.544   3.210   0.948  0.4487  0.6713 -0.4931
 1420SOL    HW114364   1.622   3.175   1.001  1.5898 -0.2179 -2.6851
 1420SOL    HW214365   1.479   3.135   0.931 -1.0651  1.4696  1.5614
 1421SOL     OW14366   9.806   8.225   0.895  0.3391  0.2806  0.5295
 1421SOL    HW114367   9.870   8.182   0.958 -0.0941  0.6602  1.2363
 1421SOL    HW214368   9.806   8.176   0.808  0.3263 -0.7443  1.1096
 1422SOL     OW14369   8.566   8.113   2.085 -0.5461  0.2120  0.0332
 1422SOL    HW114370   8.496   8.152   2.145  0.3915  1.9449  0.0518
 1422SOL    HW214371   8.595   8.024   2.119 -2.0087 -0.0536  0.5852
 1423SOL     OW14372   9.040   4.405   2.541  0.2359 -0.1798 -0.1452
 1423SOL    HW114373   9.022   4.491   2.492 -0.3409  0.7405  1.6399
 1423SOL    HW214374   9.138   4.398   2.560  0.7241 -1.3441 -2.8389
 1424SOL     OW14375   3.889   8.562   1.126  0.1604  0.1991  0.5613
 1424SOL    HW114376   3.848   8.475   1.155  1.2458 -0.3937  0.3648
 1424SOL    HW214377   3.929   8.608   1.205 -1.0424  0.8612  0.7815
 1425SOL     OW14378   1.513   7.159   2.387 -0.3130  0.1638 -0.2533
 1425SOL    HW114379   1.560   7.117   2.310  0.3671  0.6058 -0.0767
 1425SOL    HW214380   1.424   7.194   2.356  0.5453  1.5806 -1.1614
 1426SOL     OW14381   2.097   8.278   2.342  0.1771 -0.1349  0.1151
 1426SOL    HW114382   2.089   8.312   2.248  1.7833 -0.0204  0.0048
 1426SOL    HW214383   2.188   8.300   2.378  0.2856 -1.9546  0.9951
 1427SOL     OW14384   4.021   2.986   1.719 -0.8353 -0.0369 -0.5393
 1427SOL    HW114385   4.085   3.002   1.644  0.1859  2.5027  0.8363
 1427SOL    HW214386   4.033   2.893   1.753  3.4849  0.9434  0.9008
 1428SOL     OW14387   0.196   4.816   1.438 -0.3157 -0.2855 -0.2264
 1428SOL    HW114388   0.162   4.890   1.496 -0.9718  0.4897 -1.5703
 1428SOL    HW214389   0.254   4.755   1.492 -0.7122  0.5525  1.1734
 1429SOL     OW14390   1.404   0.666   1.198 -0.1156  0.4776  0.1082
 1429SOL    HW114391   1.314   0.697   1.230 -1.3750 -1.5060 -1.3885
 1429SOL    HW214392   1.476   0.707   1.255 -1.9294  2.4080  1.0781
 1430SOL     OW14393   1.551   8.542   0.386  0.4025 -0.0234  0.4891
 1430SOL    HW114394   1.528   8.632   0.350 -0.3686 -0.2483  0.4119
 1430SOL    HW214395   1.649   8.525   0.374  0.4212  0.5172 -0.1227
 1431SOL     OW14396   2.429   5.834   2.537  0.2889  0.3970  0.1251
 1431SOL    HW114397   2.434   5.904   2.608 -0.9969 -0.1475  0.7865
 1431SOL    HW214398   2.477   5.865   2.455  0.4113  1.7077  0.6823
 1432SOL     OW14399   1.603   8.503   1.640 -0.7638  0.1387 -0.0883
 1432SOL    HW114400   1.562   8.560   1.569 -1.7911 -0.5351 -0.0571
 1432SOL    HW214401   1.618   8.411   1.604  0.3850  0.2804  0.0230
 1433SOL     OW14402   9.896   2.832   1.953 -0.2306 -0.5726  0.2603
 1433SOL    HW114403   9.923   2.753   1.899 -1.5930 -0.2329 -0.9507
 1433SOL    HW214404   9.797   2.828   1.971 -0.9193  2.3600 -2.4293
 1434SOL     OW14405   0.828   3.151   0.820  0.3290  0.2086  0.1391
 1434SOL    HW114406   0.738   3.167   0.780  1.0369  0.4303 -1.4091
 1434SOL    HW214407   0.818   3.135   0.918 -1.4446 -0.2831 -0.0945
 1435SOL     OW14408   9.127   9.828   2.026  0.1039 -0.0323  0.2079
 1435SOL    HW114409   9.207   9.851   1.971  0.1411 -1.4587 -0.3559
 1435SOL    HW214410   9.054   9.894   2.009  0.7611  0.6002 -0.1500
 1436SOL     OW14411   4.125   4.845   2.507 -0.2373 -0.3130  0.4429
 1436SOL    HW114412   4.027   4.828   2.496  0.0345 -0.7842 -1.4605
 1436SOL    HW214413   4.152   4.921   2.447  0.6927 -0.6716  0.4129
 1437SOL     OW14414   9.448   4.540   2.333 -0.2274  0.1709 -0.1063
 1437SOL    HW114415   9.486   4.556   2.424  0.7523 -0.0295 -0.4775
 1437SOL    HW214416   9.519   4.504   2.272 -0.6186  1.2146 -1.2138
 1438SOL     OW14417   1.455   2.041   1.313 -0.1245  0.4095  0.2871
 1438SOL    HW114418   1.375   2.001   1.358 -1.8002  1.8798 -1.3055
 1438SOL    HW214419   1.487   1.978   1.242 -0.6429  0.3461  0.1000
 1439SOL     OW14420   2.420   1.327   1.425  0.1434  0.0108  0.2708
 1439SOL    HW114421   2.431   1.279   1.338  0.5134  0.6664 -0.0424
 1439SOL    HW214422   2.371   1.268   1.489 -1.3947  0.0588 -0.8308
 1440SOL     OW14423   0.127   5.903   1.590  0.0693  0.0581  0.1029
 1440SOL    HW114424   0.211   5.857   1.562  0.5317  0.0964  1.3869
 1440SOL    HW214425   0.055   5.883   1.524  1.0083 -0.2035 -0.8640
 1441SOL     OW14426   2.721   0.030   1.867  0.1281 -0.3215  0.2641
 1441SOL    HW114427   2.692  -0.007   1.779  3.5918 -0.8023 -0.7552
 1441SOL    HW214428   2.717   0.130   1.864 -0.6432 -0.3568 -0.0885
 1442SOL     OW14429   9.876   2.957   0.813  0.2343 -0.4103  0.8046
 1442SOL    HW114430   9.856   2.887   0.882  1.2081 -0.3629  1.1379
 1442SOL    HW214431   9.975   2.964   0.801  0.1483  1.0289  0.8897
 1443SOL     OW14432   9.515   8.505   2.568  0.4475  0.4750  0.4424
 1443SOL    HW114433   9.467   8.520   2.482  1.2418  1.4206  0.1598
 1443SOL    HW214434   9.607   8.471   2.549  0.0901 -0.8012  0.9645
 1444SOL     OW14435   9.564   2.153   2.114 -0.0924  0.4061 -0.1896
 1444SOL    HW114436   9.662   2.138   2.131 -0.1093 -1.1517 -1.3876
 1444SOL    HW214437   9.553   2.225   2.046  0.2156  0.8362  0.2145
 1445SOL     OW14438   1.356   9.764   1.322 -0.0178 -0.4134 -0.5887
 1445SOL    HW114439   1.282   9.763   1.255 -0.7169  0.1303  0.1565
 1445SOL    HW214440   1.419   9.689   1.304 -1.3285 -1.5298 -0.5965
 1446SOL     OW14441   0.849   5.087   1.103 -0.1379 -0.1067 -0.0322
 1446SOL    HW114442   0.936   5.121   1.067  0.5565 -2.4812 -0.6532
 1446SOL    HW214443   0.860   5.063   1.200 -0.9741  2.5781  0.7700
 1447SOL     OW14444   9.643   3.073   1.045  0.4182  0.2308 -0.3969
 1447SOL    HW114445   9.718   3.035   1.100 -0.2672  1.6779  1.5832
 1447SOL    HW214446   9.594   2.999   1.000  0.4757 -1.0501  1.6144
 1448SOL     OW14447   8.785   9.183   1.839  0.1738  0.3173  0.2709
 1448SOL    HW114448   8.699   9.213   1.797  0.7411 -0.2259 -1.3314
 1448SOL    HW214449   8.794   9.084   1.830  0.7828  0.3184  0.7919
 1449SOL     OW14450   0.006   6.101   1.975  0.5129  0.6806  0.2850
 1449SOL    HW114451   0.027   6.035   1.903 -0.1790  1.7978 -0.9680
 1449SOL    HW214452   0.011   6.056   2.064  2.3701 -0.4772 -0.3795
 1450SOL     OW14453   4.522   1.622   0.698 -0.1379  0.5123  0.1607
 1450SOL    HW114454   4.557   1.547   0.755 -0.5185  0.9002  0.9210
 1450SOL    HW214455   4.425   1.605   0.679 -0.1650  0.6964  0.1407
 1451SOL     OW14456   1.449   5.165   0.246 -0.4839 -0.9080  0.5339
 1451SOL    HW114457   1.539   5.121   0.246  0.5859  1.2054 -0.1969
 1451SOL    HW214458   1.444   5.230   0.322 -0.8176  0.1097 -0.3552
 1452SOL     OW14459   4.614   3.973   1.666  0.4196 -0.9150  0.4942
 1452SOL    HW114460   4.638   3.890   1.715  0.6255 -1.6066 -0.7673
 1452SOL    HW214461   4.520   4.000   1.687  0.3975 -1.3977  0.9941
 1453SOL     OW14462   8.855   2.605   0.648 -0.0037 -0.1250 -0.5034
 1453SOL    HW114463   8.929   2.662   0.685  0.1775 -0.2398 -0.6908
 1453SOL    HW214464   8.784   2.595   0.717 -0.4358  1.0518 -0.7590
 1454SOL     OW14465   2.241   6.706   1.962  0.0079  0.6422  0.1162
 1454SOL    HW114466   2.182   6.726   2.039 -0.6359  4.0318 -1.1701
 1454SOL    HW214467   2.202   6.630   1.909 -1.6999  0.9783  0.8508
 1455SOL     OW14468   9.432   8.267   0.666 -0.4246  0.2636  0.2415
 1455SOL    HW114469   9.364   8.290   0.736  0.0777  1.8217  0.2448
 1455SOL    HW214470   9.434   8.168   0.652 -2.1902  0.1527  0.7364
 1456SOL     OW14471   2.681   7.628   2.237  0.2062 -0.3139  0.2789
 1456SOL    HW114472   2.781   7.625   2.248  0.4989  1.2237 -1.7171
 1456SOL    HW214473   2.639   7.657   2.323  1.5264 -0.3162  0.9432
 1457SOL     OW14474   1.592   0.373   0.230 -0.3150  0.3202  0.0678
 1457SOL    HW114475   1.573   0.278   0.205  1.1344 -0.1065  0.5773
 1457SOL    HW214476   1.641   0.375   0.317 -1.3458  1.5903  0.6301
 1458SOL     OW14477   4.106   4.361   0.100  0.2254 -0.3394 -0.4061
 1458SOL    HW114478   4.112   4.373   0.199  0.6773 -3.0548 -0.0600
 1458SOL    HW214479   4.128   4.447   0.055  2.9340  0.2099  1.8025
 1459SOL     OW14480   0.514   4.245   0.696  0.1221  0.2071  0.3007
 1459SOL    HW114481   0.452   4.218   0.623 -2.2208  1.8254  1.6233
 1459SOL    HW214482   0.538   4.165   0.752 -1.5268 -0.2750  0.3275
 1460SOL     OW14483   8.689   0.988   0.086  0.5214  0.3318  0.0517
 1460SOL    HW114484   8.745   1.032   0.016  0.3780  0.2582 -0.1066
 1460SOL    HW214485   8.745   0.922   0.136 -0.3267 -2.3317 -2.4133
 1461SOL     OW14486   1.574   2.295   2.335 -0.3589  0.0739 -0.0736
 1461SOL    HW114487   1.492   2.263   2.384 -1.2181  1.1195 -0.8101
 1461SOL    HW214488   1.570   2.265   2.240  0.0878  0.1913 -0.1296
 1462SOL     OW14489   1.812   0.321   1.505  0.0878  0.1425 -0.4419
 1462SOL    HW114490   1.908   0.295   1.512 -0.0700 -0.3986 -0.2754
 1462SOL    HW214491   1.802   0.418   1.526  0.9397  0.8032 -2.8386
 1463SOL     OW14492   0.975   7.021   0.579 -0.1356  0.0820 -0.6730
 1463SOL    HW114493   1.070   7.021   0.611  0.0959 -0.3943 -1.3428
 1463SOL    HW214494   0.920   7.080   0.637  1.0005  2.0575 -1.5525
 1464SOL     OW14495   1.634   1.060   1.803  0.0373  0.7191  0.0942
 1464SOL    HW114496   1.687   1.010   1.871 -0.5031  0.6133  0.4429
 1464SOL    HW214497   1.569   1.120   1.849  2.4243  3.6980 -0.2961
 1465SOL     OW14498   1.072   9.661   0.051  0.0632  0.4909  0.7330
 1465SOL    HW114499   1.122   9.641  -0.033  0.0057 -2.6123  1.3836
 1465SOL    HW214500   1.126   9.631   0.130 -1.4799 -0.0823  1.5932
 1466SOL     OW14501   2.824   1.638   0.359  0.2943  0.7607  0.4077
 1466SOL    HW114502   2.793   1.612   0.268 -0.4051  1.1533  0.5298
 1466SOL    HW214503   2.909   1.590   0.381 -0.7272 -1.0508  0.4422
 1467SOL     OW14504   4.326   9.291   0.411 -0.3190  0.2299  0.2339
 1467SOL    HW114505   4.289   9.348   0.484 -1.1643  0.1071 -0.0926
 1467SOL    HW214506   4.404   9.239   0.446  1.2342  2.4838  0.2111
 1468SOL     OW14507   0.532   4.488   0.884  0.2484  0.1050  0.0833
 1468SOL    HW114508   0.447   4.537   0.906 -0.8763 -1.8639  0.2641
 1468SOL    HW214509   0.514   4.424   0.809  1.4374 -0.7111  0.4885
 1469SOL     OW14510   1.971   5.279   0.048 -0.1946 -0.4044 -0.0841
 1469SOL    HW114511   1.992   5.329  -0.035 -0.7888 -1.3186 -0.7978
 1469SOL    HW214512   1.880   5.237   0.040 -1.1603  1.2528  1.8652
 1470SOL     OW14513   8.992   0.329   1.365  0.3590  0.4004  0.1152
 1470SOL    HW114514   9.081   0.370   1.386  0.2010  0.8829 -0.1509
 1470SOL    HW214515   8.932   0.337   1.444  0.4049  0.4739  0.1428
 1471SOL     OW14516   3.011   5.876   2.414  0.6614 -0.0217  0.0974
 1471SOL    HW114517   3.049   5.791   2.378 -1.2711 -0.3901 -1.1478
 1471SOL    HW214518   2.974   5.859   2.506  0.3428 -0.5216 -0.1182
 1472SOL     OW14519   1.549   0.261   1.466 -0.1805 -0.5878 -0.2380
 1472SOL    HW114520   1.640   0.253   1.507 -0.0978 -0.0668 -0.3179
 1472SOL    HW214521   1.532   0.181   1.408 -0.5641 -1.6529  1.3088
 1473SOL     OW14522   8.415   0.273   1.944  0.1231 -0.1832  0.2050
 1473SOL    HW114523   8.497   0.318   1.979 -1.1332  2.0615  0.3229
 1473SOL    HW214524   8.355   0.250   2.021 -0.9535  1.3993 -0.1454
 1474SOL     OW14525   2.422   4.321   0.705 -0.5754  0.1046 -0.3839
 1474SOL    HW114526   2.467   4.411   0.701  0.5387 -0.4036  0.4324
 1474SOL    HW214527   2.460   4.269   0.781 -0.8486 -1.2598 -1.1719
 1475SOL     OW14528   0.559   6.974   0.130 -0.5811  0.0980 -0.1609
 1475SOL    HW114529   0.657   6.989   0.145 -0.1602 -1.2029 -1.4130
 1475SOL    HW214530   0.529   6.897   0.186 -0.4363 -0.7355 -1.2159
 1476SOL     OW14531   2.171   9.538   0.464 -0.0166  0.0464  0.0202
 1476SOL    HW114532   2.242   9.499   0.522 -0.1390  0.0444  0.1678
 1476SOL    HW214533   2.081   9.518   0.503 -0.1898 -1.5541 -1.1425
 1477SOL     OW14534   9.756   8.399   2.476  0.6101  0.3140  0.0984
 1477SOL    HW114535   9.803   8.477   2.434 -0.8051  1.0074 -0.2394
 1477SOL    HW214536   9.811   8.364   2.551  2.3660  0.1734 -1.2081
 1478SOL     OW14537   3.888   4.152   0.638 -0.7413 -0.1876  0.0184
 1478SOL    HW114538   3.951   4.104   0.698 -1.7706  1.1464  2.2305
 1478SOL    HW214539   3.938   4.219   0.583 -0.2685  1.4058  2.3018
 1479SOL     OW14540   0.859   3.706   0.804 -0.5424 -0.0407  0.4123
 1479SOL    HW114541   0.941   3.673   0.759 -1.3295 -0.6558 -0.5882
 1479SOL    HW214542   0.863   3.683   0.902  0.4210 -0.1475  0.3500
 1480SOL     OW14543   0.025   6.661   2.555  0.5041 -0.3743 -0.6479
 1480SOL    HW114544  -0.069   6.684   2.580  0.7954 -0.0525  0.1417
 1480SOL    HW214545   0.063   6.735   2.500  0.8303  0.2094  0.3689
 1481SOL     OW14546   0.741   7.462   0.577 -0.1130  0.1769 -0.6360
 1481SOL    HW114547   0.705   7.473   0.484 -0.1439  0.9343 -0.5372
 1481SOL    HW214548   0.828   7.511   0.585 -0.8699  1.4164  0.1700
 1482SOL     OW14549   9.751   5.028   0.062 -0.2669  0.3386  0.0386
 1482SOL    HW114550   9.786   4.977   0.141  1.3047 -0.2589 -1.0093
 1482SOL    HW214551   9.754   4.969  -0.019 -0.6783  1.3416 -0.7194
 1483SOL     OW14552   9.544   5.459   1.778  0.1857 -0.0405  0.7469
 1483SOL    HW114553   9.597   5.401   1.840  0.5082 -0.1469  0.3722
 1483SOL    HW214554   9.451   5.424   1.771  0.2233 -0.1814  0.9648
 1484SOL     OW14555   0.750   4.296   1.315  0.4393  0.5979  0.2098
 1484SOL    HW114556   0.731   4.271   1.410  1.2669 -1.2269 -0.0943
 1484SOL    HW214557   0.847   4.281   1.296  0.0054 -0.2895 -1.3047
 1485SOL     OW14558   9.572   7.091   0.957  0.3018 -0.4772 -0.5387
 1485SOL    HW114559   9.577   7.118   0.861 -1.2133 -0.4351 -0.6227
 1485SOL    HW214560   9.519   7.007   0.965 -0.4737  0.0921  0.3637
 1486SOL     OW14561   8.692   0.844   2.298 -0.0512  1.1021 -0.1183
 1486SOL    HW114562   8.645   0.821   2.213  0.9374 -0.4622 -0.2511
 1486SOL    HW214563   8.624   0.863   2.369 -0.8829  0.7853 -0.8120
 1487SOL     OW14564   9.018   8.772   1.991  0.0880  0.1538  0.3735
 1487SOL    HW114565   8.942   8.784   1.928 -1.2182  2.7986  2.3547
 1487SOL    HW214566   8.986   8.724   2.073  1.3315 -1.6156 -0.1507
 1488SOL     OW14567   1.812   6.180   1.847 -0.0324  0.0731 -0.0340
 1488SOL    HW114568   1.866   6.114   1.793 -0.4925 -0.6607  0.3867
 1488SOL    HW214569   1.778   6.135   1.929  0.3851  1.1046  0.7071
 1489SOL     OW14570   7.251   9.503   0.474  0.2613 -0.6963 -0.2899
 1489SOL    HW114571   7.269   9.421   0.529  1.1467 -1.5607 -1.8290
 1489SOL    HW214572   7.230   9.476   0.380 -2.2256  0.7059 -0.1790
 1490SOL     OW14573   8.414   2.520   1.663  0.5878  0.1137  0.0059
 1490SOL    HW114574   8.407   2.576   1.745  0.4452 -1.3848  1.0503
 1490SOL    HW214575   8.431   2.578   1.584  3.0242  1.4164  1.4044
 1491SOL     OW14576   1.262   9.106   1.924 -0.0908  0.3769  0.0807
 1491SOL    HW114577   1.209   9.130   1.842 -0.1797  1.3368  0.4115
 1491SOL    HW214578   1.296   9.189   1.967 -1.6299  0.0201  2.0668
 1492SOL     OW14579   1.207   9.505   0.280  0.2695  0.1629  0.5184
 1492SOL    HW114580   1.216   9.482   0.376  1.8763 -2.2660 -0.1729
 1492SOL    HW214581   1.136   9.449   0.238  1.4409 -0.7263 -0.2988
 1493SOL     OW14582   0.777   5.550   0.223 -0.2834 -0.0518 -0.6997
 1493SOL    HW114583   0.803   5.610   0.148  1.1891  2.3008  1.6042
 1493SOL    HW214584   0.681   5.566   0.247 -0.4316  0.0097 -1.3366
 1494SOL     OW14585   9.628   9.095   1.026  0.4286  0.2615 -0.1683
 1494SOL    HW114586   9.530   9.111   1.040  0.2264 -0.5647 -0.6010
 1494SOL    HW214587   9.659   9.022   1.087  0.8457  0.7224  0.1779
 1495SOL     OW14588   8.961   0.079   0.249  0.5508  0.8294  0.5833
 1495SOL    HW114589   8.877   0.066   0.303 -0.5212  0.7388 -1.0597
 1495SOL    HW214590   8.956   0.167   0.202 -0.0596 -0.5801 -2.0331
 1496SOL     OW14591   9.743   1.351   2.528 -0.3821 -0.3668 -0.1455
 1496SOL    HW114592   9.807   1.423   2.500  0.6516 -1.2714 -0.1070
 1496SOL    HW214593   9.754   1.272   2.467 -2.1351 -0.1711 -0.7513
 1497SOL     OW14594   7.886   9.353   1.540 -0.1502 -0.1112  0.4221
 1497SOL    HW114595   7.884   9.268   1.488 -0.4553 -0.5072  1.0768
 1497SOL    HW214596   7.840   9.340   1.628 -0.0593  0.6847  0.5959
 1498SOL     OW14597   9.804   1.099   1.323  0.0358 -0.8010 -0.0874
 1498SOL    HW114598   9.811   1.167   1.396 -0.9025  0.7992 -1.4518
 1498SOL    HW214599   9.890   1.097   1.272  0.4709 -1.4739  0.6662
 1499SOL     OW14600   0.723   0.364   0.544 -0.3541 -0.0937 -0.0191
 1499SOL    HW114601   0.743   0.443   0.603 -0.8433 -0.1962  0.2876
 1499SOL    HW214602   0.733   0.391   0.448 -0.8481  0.4343  0.0748
 1500SOL     OW14603   4.649   3.131   1.551 -0.2235  0.3813 -0.0561
 1500SOL    HW114604   4.638   3.106   1.455 -2.7044  0.5347  0.1467
 1500SOL    HW214605   4.601   3.066   1.608  0.4615  0.8213  1.0382
 1501SOL     OW14606   1.724   1.851   0.640  0.7235 -0.0041  0.2873
 1501SOL    HW114607   1.736   1.945   0.672 -0.5530  0.1471  0.3413
 1501SOL    HW214608   1.738   1.788   0.716  0.2861  0.2152  0.5508
 1502SOL     OW14609   1.375   2.020   1.930  0.0480  0.2820  0.8632
 1502SOL    HW114610   1.448   2.047   1.993 -0.1401  1.0878  0.7372
 1502SOL    HW214611   1.373   2.083   1.853 -1.0792  0.5328  1.0896
 1503SOL     OW14612   9.060   2.662   1.063  0.3967  0.0373  0.6271
 1503SOL    HW114613   9.024   2.736   1.006 -0.1824 -0.1234  0.7755
 1503SOL    HW214614   9.081   2.583   1.006 -0.5198 -0.2493  0.6735
 1504SOL     OW14615   4.047   8.368   0.267  0.1225 -0.8671 -0.0409
 1504SOL    HW114616   4.004   8.301   0.327  0.3113  0.0204  1.0744
 1504SOL    HW214617   4.130   8.404   0.310  0.2373 -0.1921 -0.8067
 1505SOL     OW14618   3.495   2.838   2.160 -0.2948  0.4402  0.1449
 1505SOL    HW114619   3.509   2.838   2.061  0.9502 -2.1486  0.2815
 1505SOL    HW214620   3.582   2.851   2.206 -0.7619  0.8707  0.9278
 1506SOL     OW14621   2.664   1.250   1.584  0.2007 -0.7488 -0.4967
 1506SOL    HW114622   2.667   1.287   1.491 -1.0319 -1.2239 -0.7426
 1506SOL    HW214623   2.622   1.159   1.582  0.7023 -1.0045  0.4509
 1507SOL     OW14624   8.685   4.117   1.496  0.1050 -0.1208 -0.7919
 1507SOL    HW114625   8.698   4.054   1.420 -0.9829 -0.8761 -0.3479
 1507SOL    HW214626   8.663   4.066   1.579  0.0059  0.7929 -0.2504
 1508SOL     OW14627   9.159   4.108   1.771 -0.4493  0.0926 -0.2192
 1508SOL    HW114628   9.187   4.130   1.865  0.4662  0.4416 -0.5627
 1508SOL    HW214629   9.193   4.018   1.746 -1.8375 -0.5709  0.2351
 1509SOL     OW14630   9.910   9.600   1.486 -0.0701  0.2619 -0.9345
 1509SOL    HW114631   9.902   9.636   1.579  1.3708 -1.1627 -0.2318
 1509SOL    HW214632   9.819   9.595   1.445 -0.5660  2.3884 -0.1989
 1510SOL     OW14633   9.259   2.901   1.938 -0.1918 -0.0629  0.4139
 1510SOL    HW114634   9.289   2.823   1.883 -0.7440  0.5618 -0.7971
 1510SOL    HW214635   9.192   2.870   2.005  0.1582 -0.7578  0.4488
 1511SOL     OW14636   0.878   1.456   0.815  0.3090 -0.0366  0.5981
 1511SOL    HW114637   0.860   1.524   0.886 -0.0537 -0.7173  1.1640
 1511SOL    HW214638   0.976   1.433   0.814  0.5638  1.0523 -0.1078
 1512SOL     OW14639   9.183   0.481   0.002 -0.8800 -0.9077 -0.0335
 1512SOL    HW114640   9.176   0.580   0.015  2.4359 -0.8945  2.5198
 1512SOL    HW214641   9.191   0.461  -0.095 -2.7123  1.2071 -0.6749
 1513SOL     OW14642   1.177   5.756   0.420  0.1059 -0.2669  0.2631
 1513SOL    HW114643   1.105   5.697   0.457 -1.9803  1.5606 -0.7518
 1513SOL    HW214644   1.152   5.783   0.327  2.0483  0.5456 -0.0364
 1514SOL     OW14645   7.255   0.817   0.750 -0.3165 -0.1140  0.2551
 1514SOL    HW114646   7.292   0.746   0.810  1.8654  1.3097  0.6652
 1514SOL    HW214647   7.203   0.775   0.677 -0.1494 -2.0659  1.2257
 1515SOL     OW14648   0.642   5.028   0.035  0.0483 -0.1718 -0.8050
 1515SOL    HW114649   0.639   5.127   0.050  0.8700 -0.0516 -1.3950
 1515SOL    HW214650   0.606   4.981   0.116  1.6990  0.5454  0.3905
 1516SOL     OW14651   2.522   9.126   2.262 -0.0693 -0.1377 -0.2675
 1516SOL    HW114652   2.518   9.056   2.333 -0.0242 -0.5343 -0.6551
 1516SOL    HW214653   2.580   9.202   2.294 -2.3688  1.0290  1.2731
 1517SOL     OW14654   2.479   9.485   1.092 -0.2237 -0.3325  0.1811
 1517SOL    HW114655   2.420   9.563   1.114 -0.0825 -0.4682  1.0601
 1517SOL    HW214656   2.574   9.517   1.087 -0.5565  0.3096 -3.3653
 1518SOL     OW14657   8.905   6.086   2.506  0.2570 -1.1880 -0.3206
 1518SOL    HW114658   8.842   6.137   2.564  0.2906  0.6976 -1.8929
 1518SOL    HW214659   8.991   6.071   2.555  0.0035 -0.3263  0.3967
 1519SOL     OW14660   3.255   1.983   1.759 -0.2198  0.6702  0.1780
 1519SOL    HW114661   3.175   1.982   1.699 -0.7080 -1.1308  0.8303
 1519SOL    HW214662   3.230   1.944   1.847  1.0093  1.4883  0.8941
 1520SOL     OW14663   9.798   4.655   0.651  0.6381  0.1130  0.0770
 1520SOL    HW114664   9.702   4.672   0.630  1.2752  1.0134 -2.2990
 1520SOL    HW214665   9.837   4.734   0.697  0.6787  0.4522 -0.5364
 1521SOL     OW14666   4.574   2.181   1.189 -0.4425 -0.1974  0.1584
 1521SOL    HW114667   4.622   2.099   1.222 -0.7270 -0.1566  0.6844
 1521SOL    HW214668   4.483   2.185   1.231 -1.7836 -1.4345 -2.5351
 1522SOL     OW14669   1.750   6.901   0.864 -0.4676 -0.5747  0.0847
 1522SOL    HW114670   1.657   6.937   0.856 -0.1851  0.0520 -0.3701
 1522SOL    HW214671   1.749   6.802   0.850 -0.8700 -0.3781 -1.3484
 1523SOL     OW14672   3.659   8.680   0.388  0.6087 -0.3649 -0.3757
 1523SOL    HW114673   3.672   8.606   0.454 -0.3145 -1.1433 -1.0475
 1523SOL    HW214674   3.661   8.768   0.435  0.1600 -0.9041  0.6577
 1524SOL     OW14675   2.016   5.557   0.840 -0.2649 -0.0334 -0.3299
 1524SOL    HW114676   1.930   5.582   0.796 -0.0739 -1.0016 -1.2843
 1524SOL    HW214677   2.026   5.458   0.839  0.3863  0.0194  0.6963
 1525SOL     OW14678   8.402   7.506   1.775 -0.0894  0.2800 -0.4125
 1525SOL    HW114679   8.484   7.541   1.729 -0.4455  0.9775 -0.5114
 1525SOL    HW214680   8.345   7.458   1.709 -0.0698  0.3456 -0.4771
 1526SOL     OW14681   0.642   3.582   2.441  0.0906  0.1066 -0.2105
 1526SOL    HW114682   0.631   3.496   2.490  1.7530 -0.3800 -0.6613
 1526SOL    HW214683   0.564   3.594   2.379  0.8338 -2.1021 -1.6578
 1527SOL     OW14684   1.556   5.368   1.662 -0.3015  0.1219  0.4876
 1527SOL    HW114685   1.563   5.269   1.655  0.3047  0.1106  1.1860
 1527SOL    HW214686   1.487   5.392   1.731 -1.5968  0.1985 -0.8164
 1528SOL     OW14687   1.417   4.259   1.335  0.5264  0.4867 -0.0177
 1528SOL    HW114688   1.359   4.224   1.408  0.3820  0.4666 -0.1419
 1528SOL    HW214689   1.426   4.358   1.343 -1.6106  0.8420 -1.4894
 1529SOL     OW14690   2.435   0.738   0.707 -0.3857  0.3793  0.2399
 1529SOL    HW114691   2.425   0.798   0.628 -2.4202  1.2991  1.1491
 1529SOL    HW214692   2.530   0.736   0.736 -0.2572  3.0212  0.0607
 1530SOL     OW14693   9.965   1.214   0.664 -0.1182 -0.0721 -0.4781
 1530SOL    HW114694   9.976   1.202   0.763  0.6004  0.6611 -0.4608
 1530SOL    HW214695  10.046   1.177   0.618  0.0460  0.5838 -0.7179
 1531SOL     OW14696   1.093   6.104   1.279 -0.2103 -0.2405  0.3851
 1531SOL    HW114697   1.192   6.090   1.283  0.0478  1.6998  0.9519
 1531SOL    HW214698   1.051   6.027   1.230  1.8321  0.1226 -2.0267
 1532SOL     OW14699   1.950   8.572   1.163 -0.0542  0.0108 -0.2852
 1532SOL    HW114700   1.865   8.593   1.115  0.3771 -0.3983 -1.2543
 1532SOL    HW214701   2.005   8.509   1.107 -0.1052 -1.4993  1.3424
 1533SOL     OW14702   2.859   2.982   0.529 -0.6989  0.3495  0.3583
 1533SOL    HW114703   2.782   2.966   0.467  1.6412 -5.2611 -1.3933
 1533SOL    HW214704   2.854   2.920   0.607  0.6506  1.7899  1.6424
 1534SOL     OW14705   0.497   9.007   1.391  0.2727 -0.3606 -0.0596
 1534SOL    HW114706   0.407   9.048   1.405  0.0860 -0.6606 -0.3900
 1534SOL    HW214707   0.517   9.002   1.294  1.5026  1.5501  0.0778
 1535SOL     OW14708   9.975   1.144   0.909  0.6999 -0.1225  0.1443
 1535SOL    HW114709   9.880   1.124   0.935  0.5282 -0.9172 -1.0359
 1535SOL    HW214710  10.019   1.195   0.982 -0.4414 -0.3254  1.0002
 1536SOL     OW14711   9.248   6.678   1.765 -0.1805 -0.3389 -0.3455
 1536SOL    HW114712   9.250   6.631   1.676  0.5065 -0.6357 -0.1803
 1536SOL    HW214713   9.325   6.741   1.770  0.3922 -1.0940  0.4548
 1537SOL     OW14714   3.770   9.685   1.748 -0.2915  0.2093  0.0492
 1537SOL    HW114715   3.737   9.777   1.725  1.4773  0.6238 -0.9870
 1537SOL    HW214716   3.693   9.622   1.755 -1.5780  1.8664  1.2528
 1538SOL     OW14717   1.417   5.617   0.525 -0.1537  0.7273 -0.1974
 1538SOL    HW114718   1.347   5.665   0.473 -2.2906 -0.0809  1.8556
 1538SOL    HW214719   1.466   5.681   0.584 -0.7187  0.9229  0.0566
 1539SOL     OW14720   3.280   3.347   1.701 -0.0014 -0.4265 -0.7558
 1539SOL    HW114721   3.214   3.287   1.657  0.2374 -1.2880  0.0327
 1539SOL    HW214722   3.285   3.325   1.799  0.2899  0.6970 -0.5054
 1540SOL     OW14723   8.790   8.038   0.463 -0.3287  0.4867  0.3082
 1540SOL    HW114724   8.693   8.032   0.437 -0.8042 -0.0894  2.1590
 1540SOL    HW214725   8.833   7.948   0.451 -0.8265 -0.0755  2.4709
 1541SOL     OW14726   0.701   7.863   1.638  0.2129 -0.0937 -0.0352
 1541SOL    HW114727   0.774   7.813   1.592 -2.3025 -2.1226 -1.9981
 1541SOL    HW214728   0.695   7.835   1.733  0.6675 -1.4465 -0.4056
 1542SOL     OW14729   9.347   4.463   1.749 -0.0047 -0.2355 -0.1590
 1542SOL    HW114730   9.262   4.411   1.761 -0.7288  0.9869  0.1273
 1542SOL    HW214731   9.331   4.538   1.685  0.5210  0.7266  0.8121
 1543SOL     OW14732   8.864   1.028   2.445 -0.0728 -0.0222 -0.3249
 1543SOL    HW114733   8.817   0.971   2.378 -0.9243  0.7606 -0.4043
 1543SOL    HW214734   8.909   1.104   2.397  0.5992 -0.3086 -0.1615
 1544SOL     OW14735   7.994   8.769   2.115 -0.3398 -0.2675  0.4706
 1544SOL    HW114736   8.068   8.708   2.086 -0.3176 -0.0197  0.0047
 1544SOL    HW214737   8.032   8.843   2.169  0.1108  1.2937 -1.8973
 1545SOL     OW14738   1.702   2.181   0.658  0.0752 -0.1354 -0.4415
 1545SOL    HW114739   1.605   2.204   0.654 -0.3802 -1.8556 -0.0656
 1545SOL    HW214740   1.757   2.261   0.636 -1.4259  0.9371 -0.3557
 1546SOL     OW14741   0.969   3.653   0.158  0.1778  0.0121  0.0624
 1546SOL    HW114742   0.875   3.679   0.133  0.2748  1.2317  0.9453
 1546SOL    HW214743   0.974   3.636   0.256  0.8752 -0.1316  0.0053
 1547SOL     OW14744   1.725   9.417   1.636  0.6545  0.2588  0.1395
 1547SOL    HW114745   1.627   9.413   1.621  0.6958 -0.0201 -0.0755
 1547SOL    HW214746   1.773   9.385   1.553  0.9143  0.0021  0.3875
 1548SOL     OW14747   7.941   9.244   1.273  0.0155 -0.3422  0.1270
 1548SOL    HW114748   7.958   9.219   1.178  1.3361  0.4632  0.1387
 1548SOL    HW214749   7.905   9.164   1.322  0.5301 -1.1198 -0.7321
 1549SOL     OW14750   9.730   1.118   1.003  0.1204 -0.7647  0.7454
 1549SOL    HW114751   9.675   1.176   0.943  1.0866 -0.2406  0.3672
 1549SOL    HW214752   9.676   1.094   1.084 -0.7348 -0.4126  0.2866
 1550SOL     OW14753   0.944   4.878   1.708 -0.1249  0.2665 -0.0413
 1550SOL    HW114754   0.967   4.976   1.715 -0.7508  0.4382 -0.3790
 1550SOL    HW214755   1.014   4.832   1.653  0.3977  0.4400  0.4643
 1551SOL     OW14756   3.901   8.813   0.728  0.2366  0.1837 -0.5747
 1551SOL    HW114757   3.991   8.781   0.758  0.4668 -0.7894 -2.2306
 1551SOL    HW214758   3.909   8.853   0.637 -0.7169  1.6710 -0.0253
 1552SOL     OW14759   3.840   4.861   1.917  0.1938 -0.1524 -0.2017
 1552SOL    HW114760   3.938   4.863   1.895  0.4569  0.0919  0.9654
 1552SOL    HW214761   3.795   4.792   1.861  1.0656 -0.3926 -0.6226
 1553SOL     OW14762   0.316   7.719   1.890 -0.2625 -0.7986 -0.1946
 1553SOL    HW114763   0.289   7.662   1.812 -1.6164  0.0589 -0.3614
 1553SOL    HW214764   0.333   7.812   1.858  0.7748 -0.8188  0.2771
 1554SOL     OW14765   1.739   8.600   0.954 -0.2981 -0.3478 -0.3281
 1554SOL    HW114766   1.680   8.535   0.907 -2.1188  0.5651  0.6577
 1554SOL    HW214767   1.794   8.650   0.886 -1.0502 -0.8275 -1.3022
 1555SOL     OW14768   1.677   3.646   1.182  0.2514  0.5626  0.2884
 1555SOL    HW114769   1.645   3.561   1.141 -0.0487  0.8843 -0.1589
 1555SOL    HW214770   1.767   3.668   1.145 -0.6550  1.6249 -1.3628
 1556SOL     OW14771   8.894   9.684   0.801 -0.0300  0.1727  0.1176
 1556SOL    HW114772   8.807   9.726   0.828 -0.0462 -1.2520  2.4651
 1556SOL    HW214773   8.942   9.745   0.738 -0.8564  2.8772  1.9995
 1557SOL     OW14774   9.298   4.795   1.622  0.2324  0.0645 -0.1767
 1557SOL    HW114775   9.208   4.759   1.602 -0.9006  2.4380  0.4556
 1557SOL    HW214776   9.343   4.823   1.537 -0.1249  0.0282 -0.3748
 1558SOL     OW14777   9.451   9.321   0.491 -0.1619  0.0516 -0.1473
 1558SOL    HW114778   9.544   9.358   0.483  0.3826 -1.4675 -0.9031
 1558SOL    HW214779   9.442   9.273   0.579 -0.3814  0.6047  0.1339
 1559SOL     OW14780   0.602   8.111   0.445  0.0023 -0.6057 -0.7695
 1559SOL    HW114781   0.694   8.137   0.415  0.7952 -0.8805  1.3342
 1559SOL    HW214782   0.608   8.035   0.508 -1.4983  0.7626  1.0748
 1560SOL     OW14783   8.586   1.889   0.485  0.1058  0.0655 -0.5999
 1560SOL    HW114784   8.655   1.910   0.555  0.3662 -1.0195 -0.5244
 1560SOL    HW214785   8.504   1.944   0.501  0.3103  0.1090  0.3200
 1561SOL     OW14786   1.475   5.239   2.551 -0.4406 -0.2738 -0.4438
 1561SOL    HW114787   1.561   5.288   2.562 -0.0867 -0.6806 -1.3890
 1561SOL    HW214788   1.426   5.237   2.639  0.2754  0.3863 -0.0285
 1562SOL     OW14789   0.330   7.553   0.546  0.2361 -0.1330 -0.2537
 1562SOL    HW114790   0.426   7.534   0.526  0.6371  0.7065  0.8112
 1562SOL    HW214791   0.298   7.492   0.618  0.9035  1.6690  1.6345
 1563SOL     OW14792   2.281   6.297   1.789  0.3795  0.3894 -0.7458
 1563SOL    HW114793   2.299   6.224   1.723 -1.3035 -0.6118 -0.1366
 1563SOL    HW214794   2.354   6.365   1.784  0.3534  0.2658 -3.5007
 1564SOL     OW14795   0.499   4.829   0.744  0.2803 -0.1735  0.5625
 1564SOL    HW114796   0.460   4.882   0.820  0.9006 -0.1199  0.8532
 1564SOL    HW214797   0.594   4.805   0.766  0.4585 -0.1743 -0.1881
 1565SOL     OW14798   9.484   2.860   1.287 -0.2990 -0.1379 -0.2717
 1565SOL    HW114799   9.440   2.824   1.205 -0.3658  0.5253 -0.5358
 1565SOL    HW214800   9.582   2.868   1.272 -0.5833  2.1577 -1.1361
 1566SOL     OW14801   8.552   2.197   1.439  1.1420 -0.4998  0.1089
 1566SOL    HW114802   8.563   2.181   1.341  0.9088 -1.5335  0.2428
 1566SOL    HW214803   8.470   2.252   1.455  1.9990  0.9594 -0.3692
 1567SOL     OW14804   9.303   3.503   0.217  0.2366 -0.1865  0.5170
 1567SOL    HW114805   9.359   3.581   0.189  2.2615 -1.9106 -0.3944
 1567SOL    HW214806   9.221   3.535   0.264  1.6203  2.4340  1.2070
 1568SOL     OW14807   8.145   0.757   2.413  0.4387 -0.5074 -0.1108
 1568SOL    HW114808   8.233   0.736   2.456  1.0580  1.1193 -0.5397
 1568SOL    HW214809   8.157   0.763   2.314 -1.0033 -4.3209 -0.5953
 1569SOL     OW14810   4.072   8.658   0.372  0.1490  0.5233 -0.3473
 1569SOL    HW114811   4.026   8.746   0.386 -1.1789 -0.0088 -1.2195
 1569SOL    HW214812   4.061   8.601   0.453 -1.6826  0.0060 -0.9215
 1570SOL     OW14813   0.437   9.891   0.127 -0.5407 -0.1961  0.0125
 1570SOL    HW114814   0.458   9.845   0.041  0.2100 -0.7006  0.4534
 1570SOL    HW214815   0.513   9.878   0.191 -1.2574 -0.1607  0.8866
 1571SOL     OW14816   1.575   7.477   2.537  0.1782  0.0747 -0.1781
 1571SOL    HW114817   1.644   7.504   2.469 -0.5780 -0.7617 -1.3030
 1571SOL    HW214818   1.485   7.506   2.505  0.0494  1.6499  1.5428
 1572SOL     OW14819   2.960   3.908   0.901  0.1069  0.8568 -0.0576
 1572SOL    HW114820   2.931   3.834   0.961  0.7697  1.8319  1.5144
 1572SOL    HW214821   2.946   3.882   0.806 -1.8222 -0.3776  0.5366
 1573SOL     OW14822   0.924   8.836   1.027 -0.7386  0.2830  0.2922
 1573SOL    HW114823   0.940   8.934   1.030 -3.3459  0.7088  1.9557
 1573SOL    HW214824   0.826   8.818   1.030 -0.2623 -2.3959  1.8861
 1574SOL     OW14825   0.921   6.106   1.496  0.0139  0.0683 -0.5566
 1574SOL    HW114826   0.864   6.188   1.510  0.7750  0.5867 -0.4640
 1574SOL    HW214827   0.965   6.112   1.406  1.5186  0.6622  0.1921
 1575SOL     OW14828   0.733   0.564   2.259  0.8087 -0.0484  0.0887
 1575SOL    HW114829   0.830   0.541   2.259  1.0145  0.6769 -2.0212
 1575SOL    HW214830   0.679   0.481   2.249  1.1911 -0.4752  1.4927
 1576SOL     OW14831   9.974   1.669   0.676 -0.1289  0.0780 -0.3720
 1576SOL    HW114832   9.932   1.752   0.639  3.6056  2.8850  1.3448
 1576SOL    HW214833  10.058   1.649   0.626  1.2707 -0.1427  1.9902
 1577SOL     OW14834   0.777   7.617   1.000  0.8729 -0.1358 -0.3734
 1577SOL    HW114835   0.790   7.621   1.099 -0.7360  2.1297 -0.2232
 1577SOL    HW214836   0.862   7.587   0.956  2.0811  0.3833  1.5722
 1578SOL     OW14837   8.469   2.722   1.459  0.1223 -0.4308 -0.2367
 1578SOL    HW114838   8.548   2.781   1.471  0.8720 -1.4531 -0.1106
 1578SOL    HW214839   8.439   2.724   1.364 -1.9545  2.7697  0.3903
 1579SOL     OW14840   9.747   1.289   0.238 -0.1494 -1.1512 -0.1918
 1579SOL    HW114841   9.729   1.306   0.141 -1.4919  0.0716  0.2585
 1579SOL    HW214842   9.838   1.249   0.248 -0.0698 -1.4645 -1.9706
 1580SOL     OW14843   3.106   0.815   0.122  0.0736  0.1926 -0.5082
 1580SOL    HW114844   3.150   0.905   0.117  0.7499 -0.1449 -0.6363
 1580SOL    HW214845   3.007   0.827   0.135  0.3102  0.9486  0.6179
 1581SOL     OW14846   1.782   8.857   1.181  0.1907  0.6685 -0.4172
 1581SOL    HW114847   1.710   8.801   1.223  2.3199 -1.5492  0.3831
 1581SOL    HW214848   1.803   8.820   1.090  2.1796 -0.3726  0.4481
 1582SOL     OW14849   2.709   4.564   1.143  0.2490 -0.2515 -0.3149
 1582SOL    HW114850   2.697   4.629   1.219  0.5436 -0.8835  0.2743
 1582SOL    HW214851   2.673   4.475   1.169  0.5911 -0.5394 -0.8197
 1583SOL     OW14852   0.152   7.328   1.443 -0.1859  0.2134 -0.5083
 1583SOL    HW114853   0.173   7.422   1.469  0.1117 -0.5013  2.0022
 1583SOL    HW214854   0.237   7.276   1.433 -0.3750  0.0141 -1.1281
 1584SOL     OW14855   9.084   1.785   0.597  0.5131  0.1729  0.4722
 1584SOL    HW114856   9.152   1.790   0.524  1.2100 -0.3340  1.0768
 1584SOL    HW214857   9.047   1.876   0.615 -0.8918  0.0593 -1.6433
 1585SOL     OW14858   3.548   4.662   1.560 -0.2123  0.2738 -0.2761
 1585SOL    HW114859   3.454   4.655   1.525 -0.9194  0.8973  1.4425
 1585SOL    HW214860   3.547   4.656   1.660  1.6696 -0.4860 -0.2813
 1586SOL     OW14861   1.867   2.025   0.813 -0.3530  0.0459  0.3207
 1586SOL    HW114862   1.808   2.089   0.763  1.5021  1.1866 -0.4675
 1586SOL    HW214863   1.867   2.048   0.910 -1.4719 -0.1868  0.3843
 1587SOL     OW14864   8.826   9.062   2.330 -0.3549 -0.7193 -0.2650
 1587SOL    HW114865   8.796   8.966   2.332 -2.2680 -0.1087  1.1078
 1587SOL    HW214866   8.798   9.104   2.244  0.3140 -1.3090 -0.7864
 1588SOL     OW14867   2.749   2.325   1.393 -0.5507 -0.0640 -0.0663
 1588SOL    HW114868   2.699   2.248   1.432  0.9904 -0.4742  1.1637
 1588SOL    HW214869   2.847   2.304   1.391 -0.3416  0.9635 -1.8306
 1589SOL     OW14870   9.960   2.620   1.787 -0.2668  0.5234 -0.1668
 1589SOL    HW114871   9.889   2.549   1.787  0.0509  0.2017  0.6196
 1589SOL    HW214872  10.039   2.587   1.737 -1.0947  1.3236 -2.0490
 1590SOL     OW14873   0.267   3.004   0.490 -0.2276 -0.6154 -0.3789
 1590SOL    HW114874   0.319   2.963   0.565 -0.4238 -0.6098 -0.2391
 1590SOL    HW214875   0.207   3.076   0.526  1.2801  0.9083 -0.8356
 1591SOL     OW14876   1.235   4.213   2.567  0.3086  0.0389 -0.5785
 1591SOL    HW114877   1.219   4.303   2.607 -0.4885 -0.7085  0.8376
 1591SOL    HW214878   1.148   4.165   2.557  0.7038 -0.4929 -1.5326
 1592SOL     OW14879   2.721   6.004   0.035  0.2548 -0.0344 -0.3385
 1592SOL    HW114880   2.709   5.957  -0.053  1.5802 -0.4021 -0.3227
 1592SOL    HW214881   2.766   6.092   0.020  2.1141 -0.8860  0.1622
 1593SOL     OW14882   3.862   3.123   0.291  0.8345 -0.3370 -0.7285
 1593SOL    HW114883   3.914   3.058   0.347  0.3378 -1.6033 -1.7110
 1593SOL    HW214884   3.924   3.195   0.258  1.6294 -0.9163 -0.5288
 1594SOL     OW14885   2.971   3.831   0.647  0.1669 -0.0364  0.4448
 1594SOL    HW114886   2.923   3.913   0.616  0.4242 -0.6492 -1.5929
 1594SOL    HW214887   2.940   3.752   0.595  1.4075 -0.9064  1.0021
 1595SOL     OW14888   3.724   9.621   0.088 -0.2208 -0.0349 -0.2498
 1595SOL    HW114889   3.650   9.636   0.023 -0.4853  0.5336  0.1805
 1595SOL    HW214890   3.811   9.615   0.038  0.1196  4.2866 -0.4254
 1596SOL     OW14891   9.948   2.691   2.204  0.0301 -0.2719  0.3355
 1596SOL    HW114892   9.965   2.749   2.124 -0.0220  0.3700  0.7892
 1596SOL    HW214893   9.855   2.656   2.201  0.6412 -1.8592 -0.9150
 1597SOL     OW14894   3.232   1.974   0.447 -0.1538  0.4663 -0.4495
 1597SOL    HW114895   3.274   2.057   0.410  0.0484 -0.2686 -1.8880
 1597SOL    HW214896   3.255   1.896   0.389  0.5203 -0.7938  1.4728
 1598SOL     OW14897   0.921   5.011   1.436  0.3828  0.3218  0.1182
 1598SOL    HW114898   1.000   4.950   1.442 -0.1610 -0.2797  1.1839
 1598SOL    HW214899   0.953   5.104   1.418  1.3687  0.1841  1.0846
 1599SOL     OW14900   9.409   1.434   0.859 -0.0872  0.1405 -0.0450
 1599SOL    HW114901   9.366   1.519   0.827 -0.2122  0.1127  0.0500
 1599SOL    HW214902   9.358   1.398   0.937 -1.0952 -0.9894 -1.2068
 1600SOL     OW14903   2.697   1.324   0.591 -0.2274 -0.3392 -0.8669
 1600SOL    HW114904   2.635   1.389   0.636  2.6568  1.7404  0.2503
 1600SOL    HW214905   2.676   1.231   0.622 -2.8550  0.3001 -0.6452
 1601SOL     OW14906   9.019   8.819   0.002 -0.4354  0.1369 -0.2307
 1601SOL    HW114907   9.065   8.893  -0.048 -0.1871  0.0793 -0.0869
 1601SOL    HW214908   9.072   8.795   0.083 -1.0605  0.5247  0.3041
 1602SOL     OW14909   2.237   1.131   0.718 -0.1208  0.4142 -0.3416
 1602SOL    HW114910   2.272   1.131   0.624  2.6548  1.9768  0.6264
 1602SOL    HW214911   2.294   1.072   0.775  0.2138  2.0247  1.0246
 1603SOL     OW14912   1.708   8.209   1.202 -0.2899  0.1284  0.0420
 1603SOL    HW114913   1.756   8.279   1.256 -0.4988 -0.3443  0.8453
 1603SOL    HW214914   1.740   8.119   1.230 -0.3594 -0.1174 -0.6718
 1604SOL     OW14915   2.933   9.156   0.999  0.3369 -0.4026  0.6321
 1604SOL    HW114916   3.023   9.160   1.042  0.5273  1.3846  0.1157
 1604SOL    HW214917   2.862   9.174   1.067  0.4915 -0.0022  0.6891
 1605SOL     OW14918   8.152   0.176   2.480 -0.4747  0.6776 -0.6153
 1605SOL    HW114919   8.058   0.164   2.447 -0.5398  0.5071 -0.3688
 1605SOL    HW214920   8.210   0.104   2.441 -0.6183  0.2799 -0.1054
 1606SOL     OW14921   4.312   2.613   0.555 -0.3254 -0.0547  0.1795
 1606SOL    HW114922   4.372   2.540   0.525  0.8417  0.6127  0.8673
 1606SOL    HW214923   4.320   2.626   0.654  1.0060  2.3253 -0.1992
 1607SOL     OW14924   1.738   7.271   1.213  0.0108  1.0500  0.4445
 1607SOL    HW114925   1.766   7.360   1.249 -0.5657  1.3416  0.1766
 1607SOL    HW214926   1.717   7.279   1.116 -0.0706  0.6280  0.4252
 1608SOL     OW14927   1.533   3.403   2.334  0.1278 -0.4329  0.0327
 1608SOL    HW114928   1.588   3.453   2.268  1.1936 -0.7819  0.6390
 1608SOL    HW214929   1.475   3.336   2.287  1.0066 -0.7997 -0.5306
 1609SOL     OW14930   3.039   2.374   1.713  0.2211  0.1291 -0.5215
 1609SOL    HW114931   2.996   2.464   1.712  0.3276  0.1788 -1.6115
 1609SOL    HW214932   3.135   2.383   1.736  0.0559  0.2126  0.1316
 1610SOL     OW14933   3.098   3.150   1.240  0.0951 -0.0111 -0.0461
 1610SOL    HW114934   3.093   3.118   1.146  2.5183  1.5319 -0.7626
 1610SOL    HW214935   3.186   3.124   1.280  0.5001  2.2784  0.6312
 1611SOL     OW14936   2.305   7.913   0.128  0.6360 -0.4325  0.2398
 1611SOL    HW114937   2.355   7.828   0.145 -0.2857 -0.9547  0.3470
 1611SOL    HW214938   2.253   7.905   0.043  1.3258  0.3897 -0.2728
 1612SOL     OW14939   2.572   3.471   0.147 -0.3029 -0.4001  0.0208
 1612SOL    HW114940   2.499   3.405   0.167  0.7091 -1.3285  0.6871
 1612SOL    HW214941   2.661   3.430   0.167  0.4204  0.6880 -0.9079
 1613SOL     OW14942   0.794   5.574   1.725  0.2067  0.5075 -0.3523
 1613SOL    HW114943   0.741   5.548   1.806 -2.3325 -1.2252 -2.4932
 1613SOL    HW214944   0.863   5.504   1.706  0.1571  0.4344 -0.2595
 1614SOL     OW14945   2.378   1.166   1.211 -0.5230 -0.3538  0.1474
 1614SOL    HW114946   2.441   1.095   1.177  2.1929  1.0193  2.1618
 1614SOL    HW214947   2.394   1.251   1.161  0.6767  0.5456  1.9793
 1615SOL     OW14948   0.234   1.846   2.340  0.2299  0.3560 -0.1522
 1615SOL    HW114949   0.145   1.891   2.350 -0.3446 -1.1893  2.2055
 1615SOL    HW214950   0.241   1.772   2.407  3.3138  0.4395 -0.3373
 1616SOL     OW14951   3.312   3.045   2.185  0.0598  0.3409  0.4336
 1616SOL    HW114952   3.319   3.073   2.280  0.6680 -0.0586  0.5129
 1616SOL    HW214953   3.365   2.961   2.171 -1.0085 -0.2767  0.0122
 1617SOL     OW14954   1.655   9.571   2.189 -0.0383 -0.1152 -0.0400
 1617SOL    HW114955   1.709   9.489   2.208  1.2285  0.2726 -1.8579
 1617SOL    HW214956   1.714   9.641   2.149 -1.3263  1.3350  0.5407
 1618SOL     OW14957   0.563   9.854   1.281 -0.8289 -0.3758 -0.6720
 1618SOL    HW114958   0.464   9.863   1.272 -0.9316 -0.7643  0.0960
 1618SOL    HW214959   0.600   9.936   1.326 -0.8548 -0.4262 -0.5592
 1619SOL     OW14960   1.992   5.274   1.856 -0.4680 -0.2004 -0.1720
 1619SOL    HW114961   2.017   5.203   1.790 -1.8062  0.1227 -1.0237
 1619SOL    HW214962   2.046   5.357   1.838  1.1713 -1.0019  0.8879
 1620SOL     OW14963   9.362   8.470   1.874 -0.1792  0.1591 -0.3994
 1620SOL    HW114964   9.434   8.529   1.839  0.4914 -0.6020 -0.3277
 1620SOL    HW214965   9.402   8.399   1.932 -1.0295 -0.0080 -0.0079
 1621SOL     OW14966   2.527   5.317   0.255 -0.0632 -0.0707 -0.1284
 1621SOL    HW114967   2.552   5.290   0.348  1.4455  1.4159 -0.0674
 1621SOL    HW214968   2.520   5.236   0.197  1.1160 -0.8488  0.7893
 1622SOL     OW14969   9.261   7.437   2.011 -0.0881 -0.1567 -0.1401
 1622SOL    HW114970   9.203   7.376   1.957 -0.4953  0.5155 -0.4653
 1622SOL    HW214971   9.330   7.383   2.058  1.9907 -0.5041 -3.4479
 1623SOL     OW14972   9.424   0.179   1.965 -0.1436 -0.2804 -0.2570
 1623SOL    HW114973   9.494   0.128   1.915  0.2908 -0.5981  0.6668
 1623SOL    HW214974   9.338   0.175   1.913 -0.1118 -1.9383 -0.2339
 1624SOL     OW14975   1.525   7.527   0.321 -0.0314  0.3483  0.8485
 1624SOL    HW114976   1.589   7.554   0.249  0.4643  0.2180  1.2348
 1624SOL    HW214977   1.445   7.587   0.319  0.6399  1.2685  1.1152
 1625SOL     OW14978   3.096   3.367   0.294 -0.2018 -0.5060  0.2256
 1625SOL    HW114979   3.085   3.281   0.343 -0.4481  0.6954  2.3881
 1625SOL    HW214980   3.181   3.412   0.324 -0.4540  0.3329 -0.2889
 1626SOL     OW14981   7.461   9.712   1.879 -0.2093  0.3821 -0.1410
 1626SOL    HW114982   7.428   9.745   1.968 -0.1679  1.5126 -0.5418
 1626SOL    HW214983   7.486   9.790   1.822  1.1578 -0.4025 -0.6214
 1627SOL     OW14984   2.490   4.498   2.020  0.1698  0.1006 -0.5917
 1627SOL    HW114985   2.457   4.453   2.103 -2.2418 -1.0939 -2.1405
 1627SOL    HW214986   2.526   4.429   1.957  0.2994  0.8050 -1.2961
 1628SOL     OW14987   1.660   7.626   0.828  0.1836 -0.0669 -0.4745
 1628SOL    HW114988   1.744   7.595   0.783  1.7955 -0.3350  2.5975
 1628SOL    HW214989   1.678   7.712   0.876 -1.6571  0.5324 -0.8216
 1629SOL     OW14990   0.388   2.811   0.698  0.0678 -0.0158  0.0701
 1629SOL    HW114991   0.483   2.806   0.730  0.2700  0.1856 -0.4916
 1629SOL    HW214992   0.374   2.744   0.625 -0.4029 -0.4966  0.5978
 1630SOL     OW14993   1.179   7.413   2.210 -0.3714  0.4547  0.2963
 1630SOL    HW114994   1.229   7.327   2.210 -0.7384  0.2324 -0.5260
 1630SOL    HW214995   1.081   7.396   2.221 -0.3173  0.8555  1.4192
 1631SOL     OW14996   9.955   6.642   0.817  0.0155  0.1410  0.2293
 1631SOL    HW114997   9.965   6.723   0.874 -1.0874 -0.0897  0.7632
 1631SOL    HW214998   9.860   6.633   0.788  0.3235 -0.4348 -0.6188
 1632SOL     OW14999   3.709   4.364   0.219 -0.6036 -0.2725  0.7040
 1632SOL    HW115000   3.730   4.454   0.181  0.3912  0.1556  2.2288
 1632SOL    HW215001   3.686   4.301   0.145  1.0586  0.6101 -0.5764
 1633SOL     OW15002   3.306   2.203   0.323 -0.1382  0.1141 -0.2586
 1633SOL    HW115003   3.378   2.247   0.377  0.3263 -0.2164 -0.6080
 1633SOL    HW215004   3.226   2.263   0.319 -0.2908  0.0251  1.0520
 1634SOL     OW15005   0.234   7.408   0.756  0.9760  0.1559  0.1016
 1634SOL    HW115006   0.150   7.382   0.803  2.0783  0.5355  2.3346
 1634SOL    HW215007   0.283   7.325   0.727  0.8596 -0.1111  0.6640
 1635SOL     OW15008   0.267   8.575   0.089  0.0880 -0.4296  0.3674
 1635SOL    HW115009   0.231   8.657   0.044  0.1789 -0.1874  0.7367
 1635SOL    HW215010   0.211   8.496   0.063  0.0998 -0.2814 -0.1200
 1636SOL     OW15011   9.204   9.314   0.388  0.1991 -0.3942 -0.1416
 1636SOL    HW115012   9.188   9.352   0.297 -0.6704 -1.1006 -0.2862
 1636SOL    HW215013   9.303   9.301   0.401  0.3579  0.0902 -0.8231
 1637SOL     OW15014   1.692   7.280   0.662 -0.1731 -0.0320  0.2395
 1637SOL    HW115015   1.753   7.201   0.656  1.8092  1.5536 -0.8104
 1637SOL    HW215016   1.745   7.362   0.682 -1.9788  1.3471 -0.4968
 1638SOL     OW15017   9.523   2.253   1.659  0.1534 -0.1479  0.0003
 1638SOL    HW115018   9.593   2.183   1.649  1.0955  1.0553 -2.2141
 1638SOL    HW215019   9.505   2.295   1.570 -0.5681  2.2354  1.2253
 1639SOL     OW15020   2.576   6.076   2.157 -0.0293 -0.0129 -0.0817
 1639SOL    HW115021   2.557   6.073   2.059 -1.1114  1.5890  0.0676
 1639SOL    HW215022   2.669   6.111   2.172 -0.0563  0.2488 -0.5193
 1640SOL     OW15023   3.810   9.049   1.319  0.1416 -0.4267 -0.0136
 1640SOL    HW115024   3.906   9.065   1.294 -0.3486  0.2915 -1.4729
 1640SOL    HW215025   3.759   9.022   1.238 -1.4867  1.9852  0.1633
 1641SOL     OW15026   0.697   1.028   2.456 -0.5798  0.5140 -0.2231
 1641SOL    HW115027   0.794   1.012   2.440  0.0793  1.5468  2.5630
 1641SOL    HW215028   0.673   1.122   2.434 -0.7720  0.4861 -0.1448
 1642SOL     OW15029   4.166   9.437   1.954  0.4977 -0.0272  0.3930
 1642SOL    HW115030   4.077   9.453   1.912  0.3785  1.5589  1.1979
 1642SOL    HW215031   4.227   9.392   1.888 -0.0486  1.3325 -1.0748
 1643SOL     OW15032   2.833   0.831   1.084  0.1356  0.2834 -0.2415
 1643SOL    HW115033   2.828   0.890   1.004  1.4906 -1.1029 -1.3986
 1643SOL    HW215034   2.913   0.855   1.139  0.3824 -0.1219 -0.4225
 1644SOL     OW15035   8.521   7.211   0.041 -0.1937  0.1156 -0.3997
 1644SOL    HW115036   8.481   7.183  -0.046 -1.8254  1.7460 -0.1992
 1644SOL    HW215037   8.564   7.301   0.031  1.9558 -0.8442 -0.1640
 1645SOL     OW15038   9.180   0.600   1.046  0.2701 -0.4141 -0.1258
 1645SOL    HW115039   9.113   0.531   1.073  0.7585 -0.8874 -0.1192
 1645SOL    HW215040   9.143   0.654   0.970 -1.0476  0.8535  1.4089
 1646SOL     OW15041   9.021   7.527   0.550 -0.4266  0.0275 -0.5785
 1646SOL    HW115042   9.057   7.605   0.600  0.3977 -0.6915 -0.0206
 1646SOL    HW215043   9.085   7.502   0.476 -1.6242  1.0730 -1.9950
 1647SOL     OW15044   8.944   2.440   0.122  0.1692  0.0242 -0.9667
 1647SOL    HW115045   8.887   2.379   0.177 -0.1477  1.2792  0.1160
 1647SOL    HW215046   8.979   2.390   0.043 -0.9854 -1.2488 -0.6949
 1648SOL     OW15047   8.958   2.033   0.596  0.2737 -0.0003  0.6624
 1648SOL    HW115048   8.944   2.007   0.501  0.6943 -2.1855  1.1576
 1648SOL    HW215049   8.873   2.068   0.634 -0.1280  0.0650 -0.2865
 1649SOL     OW15050   1.063   2.258   1.326 -0.2051 -0.2627  0.1921
 1649SOL    HW115051   1.153   2.280   1.288  0.4977 -1.6280  1.0224
 1649SOL    HW215052   1.071   2.247   1.426 -2.0141  3.3009  0.8005
 1650SOL     OW15053   4.852   3.881   2.289  0.4864  0.1720 -0.2323
 1650SOL    HW115054   4.911   3.802   2.304 -1.2950 -1.2975 -0.7598
 1650SOL    HW215055   4.902   3.965   2.311  2.7538 -1.0180 -0.7074
 1651SOL     OW15056   0.185   7.054   2.063 -0.0787 -0.1760 -0.1145
 1651SOL    HW115057   0.135   7.077   2.147 -1.8101  0.2952 -1.2439
 1651SOL    HW215058   0.256   7.123   2.047 -1.2028  0.9825 -0.2024
 1652SOL     OW15059   9.205   5.451   2.247  0.0870 -0.4303 -0.4236
 1652SOL    HW115060   9.139   5.518   2.213 -0.2441 -0.8486 -0.6004
 1652SOL    HW215061   9.271   5.429   2.176 -0.5946 -1.2927 -0.8013
 1653SOL     OW15062   7.943   9.580   1.360 -0.6884 -1.0849 -0.6927
 1653SOL    HW115063   7.901   9.657   1.407  1.6440 -1.0361  1.4139
 1653SOL    HW215064   7.915   9.495   1.404 -1.1222 -1.2673 -1.3147
 1654SOL     OW15065   9.255   7.145   2.502 -0.4631  0.2443 -0.0225
 1654SOL    HW115066   9.352   7.124   2.490 -0.7178 -0.4650 -0.8597
 1654SOL    HW215067   9.212   7.073   2.557 -0.9925 -0.6183 -1.5455
 1655SOL     OW15068   3.769   3.752   0.657 -0.2059 -0.2385 -0.2177
 1655SOL    HW115069   3.789   3.811   0.579  1.0477 -0.6789 -0.2282
 1655SOL    HW215070   3.702   3.683   0.630 -1.8342  1.2665 -0.1570
 1656SOL     OW15071   0.004   3.603   0.887  0.3432 -0.8898  0.2968
 1656SOL    HW115072  -0.063   3.639   0.952  0.5716  0.1556 -0.0295
 1656SOL    HW215073  -0.014   3.642   0.796  0.2945 -1.9943 -0.1763
 1657SOL     OW15074   3.324   1.775   0.282  0.0338 -0.0376 -0.2669
 1657SOL    HW115075   3.399   1.831   0.247  0.0402 -0.7585 -1.4269
 1657SOL    HW215076   3.344   1.678   0.266 -0.0535 -0.3861  1.5695
 1658SOL     OW15077   2.965   9.481   0.394  0.6201  0.3553 -0.4118
 1658SOL    HW115078   2.990   9.403   0.337  0.4519 -0.5640  0.7532
 1658SOL    HW215079   2.866   9.492   0.395  0.5955  0.1006  0.0501
 1659SOL     OW15080   2.714   0.749   0.794  0.4067  0.1382  0.1622
 1659SOL    HW115081   2.747   0.712   0.880  1.1286 -1.8848 -0.9431
 1659SOL    HW215082   2.720   0.679   0.723  0.7765  2.0597 -1.7691
 1660SOL     OW15083   1.693   8.112   2.202  0.5467  0.2587  0.3217
 1660SOL    HW115084   1.682   8.086   2.106 -1.8601  0.1015  0.6105
 1660SOL    HW215085   1.696   8.211   2.210  0.5745  0.2759  0.1050
 1661SOL     OW15086   0.505   9.045   0.442 -0.3069 -0.0713  0.0908
 1661SOL    HW115087   0.598   9.013   0.422 -0.4098 -0.6818  0.5718
 1661SOL    HW215088   0.444   9.019   0.367 -0.4551 -1.2952  0.6370
 1662SOL     OW15089   4.091   9.428   2.505  0.1389 -0.1318 -0.1476
 1662SOL    HW115090   4.140   9.400   2.423  0.1160 -0.2987 -0.1045
 1662SOL    HW215091   4.048   9.517   2.490 -0.2260 -0.3623 -0.4601
 1663SOL     OW15092   2.876   4.964   1.117 -0.1807 -0.1901 -0.0263
 1663SOL    HW115093   2.914   4.930   1.203  0.4392  2.0709  0.6220
 1663SOL    HW215094   2.789   5.010   1.136 -0.2579 -0.0700 -0.6738
 1664SOL     OW15095   2.152   5.502   1.287 -0.6019 -1.0463 -0.4151
 1664SOL    HW115096   2.151   5.466   1.380  1.8696  0.4826  0.2384
 1664SOL    HW215097   2.230   5.465   1.237  2.2650  3.5310  0.3927
 1665SOL     OW15098   0.301   7.092   1.660 -0.0866  0.8027  0.3336
 1665SOL    HW115099   0.350   7.139   1.734  2.3094  1.1388 -1.4271
 1665SOL    HW215100   0.262   7.160   1.598  0.5125  0.5114 -0.3706
 1666SOL     OW15101   2.225   4.387   2.333 -0.1425  0.1286 -0.7560
 1666SOL    HW115102   2.169   4.465   2.304 -0.7335 -0.2066 -0.5275
 1666SOL    HW215103   2.192   4.353   2.421 -0.2261 -0.7043 -1.1048
 1667SOL     OW15104   3.183   4.530   0.436 -0.6978 -0.0389  0.3245
 1667SOL    HW115105   3.246   4.608   0.438  0.0157 -0.6081  0.4471
 1667SOL    HW215106   3.196   4.480   0.350 -0.0459 -0.9136  0.9231
 1668SOL     OW15107   0.086   4.848   1.882 -0.5044 -0.0932 -0.5345
 1668SOL    HW115108   0.138   4.778   1.833 -0.0227 -0.0111 -0.1380
 1668SOL    HW215109   0.029   4.804   1.952  0.4678 -0.0128  0.3149
 1669SOL     OW15110   2.659   9.504   0.397 -0.2101 -0.0656 -0.3455
 1669SOL    HW115111   2.605   9.576   0.440 -1.1633 -1.0765  0.1690
 1669SOL    HW215112   2.599   9.430   0.368  0.8511 -1.0517 -0.0584
 1670SOL     OW15113   2.065   1.771   0.047 -0.6371  0.2694 -0.4755
 1670SOL    HW115114   1.994   1.811  -0.011  0.4058  1.8610 -0.6867
 1670SOL    HW215115   2.153   1.777   0.000  0.2617  1.8238  1.3675
 1671SOL     OW15116   9.472   8.965   0.592  0.4732 -1.0563  0.3381
 1671SOL    HW115117   9.461   9.060   0.562 -1.4436 -0.5444  2.5332
 1671SOL    HW215118   9.536   8.961   0.668  0.8745 -1.5832 -0.0234
 1672SOL     OW15119   2.106   2.038   0.707 -0.1332  0.4688 -0.1220
 1672SOL    HW115120   2.018   2.032   0.753 -0.0275  0.6409  0.1071
 1672SOL    HW215121   2.125   2.133   0.684  0.7195  0.6554  1.2840
 1673SOL     OW15122   9.534   6.636   1.463 -0.4632  0.7013  0.6921
 1673SOL    HW115123   9.552   6.633   1.561  1.3408 -2.9334  0.3081
 1673SOL    HW215124   9.441   6.605   1.445 -1.6213  3.5765  1.3492
 1674SOL     OW15125   9.205   0.824   2.345  0.1467 -0.0340  0.2534
 1674SOL    HW115126   9.152   0.786   2.420  1.1226  0.4200  1.1797
 1674SOL    HW215127   9.244   0.750   2.290 -1.8486 -0.3808 -0.7501
 1675SOL     OW15128   1.075   5.520   1.111  0.6459 -0.2811  0.0140
 1675SOL    HW115129   1.043   5.499   1.018  0.5405  0.1574 -0.0506
 1675SOL    HW215130   0.996   5.537   1.170  0.7560  1.2092 -0.2435
 1676SOL     OW15131   1.927   9.557   2.516 -0.0337 -0.2159  0.1267
 1676SOL    HW115132   1.906   9.560   2.614  2.6750 -1.9335  0.8343
 1676SOL    HW215133   1.976   9.640   2.490 -0.8239  0.2795  0.1980
 1677SOL     OW15134   0.522   6.398   0.946 -0.4208 -0.1686 -0.2638
 1677SOL    HW115135   0.593   6.464   0.924  0.4356 -0.9801  0.0376
 1677SOL    HW215136   0.490   6.414   1.040 -0.7147  0.2581 -0.4334
 1678SOL     OW15137   2.245   4.751   2.171  0.1726 -0.4250  0.1337
 1678SOL    HW115138   2.272   4.833   2.221  0.6579 -1.2496  1.2499
 1678SOL    HW215139   2.306   4.738   2.093  0.9567 -0.4635  0.7431
 1679SOL     OW15140   2.000   5.298   2.141 -0.2653  0.4184  0.4277
 1679SOL    HW115141   1.991   5.298   2.041  1.3963 -1.7022  0.2538
 1679SOL    HW215142   2.092   5.328   2.166 -0.6910  0.9830  1.3413
 1680SOL     OW15143   1.095   2.879   2.557 -0.6271 -0.3376 -0.1592
 1680SOL    HW115144   1.098   2.977   2.541 -1.8552 -0.5120 -1.5654
 1680SOL    HW215145   1.119   2.830   2.473  0.4145 -1.2379  0.6523
 1681SOL     OW15146   0.205   3.674   1.359  0.2489  0.1441  0.1506
 1681SOL    HW115147   0.172   3.597   1.414  0.5487 -0.5650 -0.6537
 1681SOL    HW215148   0.294   3.651   1.319 -0.8384 -0.0953 -2.1849
 1682SOL     OW15149   9.857   3.606   2.290 -0.2737  0.1713 -0.2484
 1682SOL    HW115150   9.827   3.678   2.352  0.7477 -0.6867  1.2831
 1682SOL    HW215151   9.779   3.549   2.264 -0.3473 -0.8829  2.1502
 1683SOL     OW15152   9.697   8.830   1.138 -0.6346  0.0397 -0.0158
 1683SOL    HW115153   9.744   8.895   1.197  0.1219  1.4390 -2.1196
 1683SOL    HW215154   9.763   8.780   1.082 -1.3108 -1.5629  0.5699
 1684SOL     OW15155   0.148   8.542   1.532 -0.4174  0.4917 -0.0361
 1684SOL    HW115156   0.087   8.494   1.469  0.3152 -0.2687 -0.1815
 1684SOL    HW215157   0.199   8.475   1.585  0.3814  1.1216 -0.0057
 1685SOL     OW15158   3.231   3.004   0.341 -0.1889 -0.3008 -0.5137
 1685SOL    HW115159   3.200   2.945   0.266 -1.3470  0.8901 -0.9961
 1685SOL    HW215160   3.154   3.022   0.402  0.4181 -0.1415  0.2029
 1686SOL     OW15161   0.815   2.735   2.014 -0.3404  0.1561 -0.0246
 1686SOL    HW115162   0.751   2.811   2.023  0.3461  0.8987 -1.3643
 1686SOL    HW215163   0.797   2.668   2.087 -0.2461  2.0802  1.8130
 1687SOL     OW15164   4.144   1.866   2.105 -0.4349  0.9510 -0.0038
 1687SOL    HW115165   4.130   1.782   2.053  1.5121 -0.2992  1.3897
 1687SOL    HW215166   4.225   1.914   2.071  0.0534  0.8305  0.9579
 1688SOL     OW15167   3.424   2.743   0.562 -0.0910  0.0522 -0.3516
 1688SOL    HW115168   3.397   2.718   0.469  2.3468  0.4740 -1.2007
 1688SOL    HW215169   3.519   2.717   0.577 -1.1224 -2.1560  2.8315
 1689SOL     OW15170   9.968   5.321   0.931  0.3720  0.4326  0.1227
 1689SOL    HW115171   9.872   5.343   0.950  0.1289 -1.7440  1.6723
 1689SOL    HW215172   9.976   5.281   0.840 -0.4515 -0.7895  0.5712
 1690SOL     OW15173   2.184   4.272   0.039 -0.3943 -0.1889 -0.4465
 1690SOL    HW115174   2.254   4.315   0.095  0.0655 -0.5195 -0.7667
 1690SOL    HW215175   2.095   4.280   0.085  0.1297 -1.2968  0.7894
 1691SOL     OW15176   2.502   1.548   0.687 -0.2841 -0.0510  0.0019
 1691SOL    HW115177   2.439   1.485   0.732  0.4500 -1.8970 -1.4668
 1691SOL    HW215178   2.494   1.639   0.727 -2.7946 -0.6183  0.8326
 1692SOL     OW15179   2.200   9.413   1.217 -0.1730  0.0944  0.1074
 1692SOL    HW115180   2.180   9.361   1.133  0.5186 -0.3260  0.1983
 1692SOL    HW215181   2.240   9.501   1.192 -0.5467  0.2266 -0.0252
 1693SOL     OW15182   9.746   1.707   0.335 -0.1492  0.3439 -0.6259
 1693SOL    HW115183   9.792   1.618   0.331 -1.1701 -0.1712 -1.0982
 1693SOL    HW215184   9.740   1.745   0.243 -2.0040 -0.2942 -0.7897
 1694SOL     OW15185   1.031   2.659   0.414 -0.3603 -0.2087 -0.7336
 1694SOL    HW115186   0.943   2.611   0.416 -0.1617 -0.5762 -0.6642
 1694SOL    HW215187   1.099   2.606   0.466 -0.4160  0.7034  0.2889
 1695SOL     OW15188   2.346   9.796   2.291  0.6087 -0.1625  0.0265
 1695SOL    HW115189   2.390   9.707   2.281  0.8061 -0.0381 -0.2263
 1695SOL    HW215190   2.381   9.858   2.220  1.3936  0.4854  0.9675
 1696SOL     OW15191   9.643   4.938   0.462  0.2125 -0.6114 -0.0848
 1696SOL    HW115192   9.595   5.011   0.414  1.2904 -0.4691 -0.9523
 1696SOL    HW215193   9.576   4.872   0.497 -0.6979  0.2880 -0.1074
 1697SOL     OW15194   1.949   4.697   0.308 -0.4783 -0.0602 -0.0787
 1697SOL    HW115195   1.992   4.787   0.312  0.3862 -0.5426  1.7817
 1697SOL    HW215196   2.018   4.627   0.294 -0.6857 -0.7820  2.3228
 1698SOL     OW15197   3.796   3.560   0.225 -0.3280 -0.8585 -0.5570
 1698SOL    HW115198   3.809   3.479   0.282  0.2330  0.1130  0.7277
 1698SOL    HW215199   3.752   3.632   0.279  1.0734  0.4065 -1.0640
 1699SOL     OW15200   1.660   6.261   1.142  0.2245  0.2282  0.1028
 1699SOL    HW115201   1.561   6.246   1.140  0.5061 -1.6856 -0.5243
 1699SOL    HW215202   1.702   6.196   1.206  1.2565 -0.1441 -0.9432
 1700SOL     OW15203   9.756   7.459   1.318 -0.2019  0.2819 -0.1520
 1700SOL    HW115204   9.667   7.437   1.276  0.7159 -0.1114 -1.9412
 1700SOL    HW215205   9.754   7.552   1.354 -1.5368  0.0691  0.3675
 1701SOL     OW15206   2.192   4.730   0.780 -0.4531  0.3088 -0.1053
 1701SOL    HW115207   2.140   4.733   0.865  1.4452 -0.3375  1.0928
 1701SOL    HW215208   2.181   4.639   0.738  0.7305 -0.2510  0.7948
 1702SOL     OW15209   0.308   3.361   2.198 -0.6346 -0.3217  0.2681
 1702SOL    HW115210   0.354   3.414   2.127 -0.8846 -0.9384 -0.3535
 1702SOL    HW215211   0.238   3.418   2.241 -0.0166  0.2758  0.4966
 1703SOL     OW15212   9.308   7.805   1.852 -0.2025  0.2342  0.2154
 1703SOL    HW115213   9.348   7.744   1.920  1.4250 -0.1867 -1.0985
 1703SOL    HW215214   9.374   7.876   1.828  0.1345 -0.9569 -2.6004
 1704SOL     OW15215   0.331   4.684   1.053 -0.6962  0.3382  0.1039
 1704SOL    HW115216   0.257   4.719   1.111  0.6211 -0.7761  2.5570
 1704SOL    HW215217   0.414   4.738   1.068 -0.1046 -0.5098 -0.0656
 1705SOL     OW15218   1.589   7.443   1.018  0.6361 -0.7065 -0.2707
 1705SOL    HW115219   1.577   7.354   0.974  0.1464 -0.3541 -0.8624
 1705SOL    HW215220   1.619   7.510   0.950  2.4718 -0.7413  0.4563
 1706SOL     OW15221   3.561   8.477   1.726  0.2164 -0.0367  0.1318
 1706SOL    HW115222   3.560   8.379   1.711 -2.5085 -0.3405  1.9047
 1706SOL    HW215223   3.652   8.506   1.753  0.9239 -2.1526  0.0908
 1707SOL     OW15224   7.953   8.060   1.297  0.0651  0.2964  0.4857
 1707SOL    HW115225   7.893   8.138   1.277  1.8601  1.3349 -0.9991
 1707SOL    HW215226   8.017   8.047   1.221  1.3602 -1.1345  1.7935
 1708SOL     OW15227   1.754   1.224   2.188  0.5813 -0.2733 -0.2803
 1708SOL    HW115228   1.795   1.157   2.126  0.0628 -1.2308  0.3929
 1708SOL    HW215229   1.819   1.297   2.206  1.5949 -1.2019 -0.0987
 1709SOL     OW15230   9.364   5.545   0.530 -0.3213 -0.0958 -0.3554
 1709SOL    HW115231   9.416   5.470   0.571  2.3665  1.5688 -0.6318
 1709SOL    HW215232   9.351   5.618   0.597  0.2469  0.7255 -1.1205
 1710SOL     OW15233   2.885   5.410   2.573  0.6214  0.2704  0.2169
 1710SOL    HW115234   2.819   5.383   2.503  0.4426  0.7687  0.1934
 1710SOL    HW215235   2.849   5.389   2.664  0.5779  0.2231  0.1880
 1711SOL     OW15236   2.619   4.505   0.784 -0.0050 -0.2831  0.0438
 1711SOL    HW115237   2.619   4.598   0.749  0.9802  0.0029  0.7951
 1711SOL    HW215238   2.650   4.504   0.879  0.5539 -1.4473 -0.1363
 1712SOL     OW15239   5.268   3.187   1.358  0.0328  0.0497  0.3828
 1712SOL    HW115240   5.198   3.224   1.297 -0.7568 -0.9414  0.6895
 1712SOL    HW215241   5.336   3.136   1.305 -0.7803 -1.0103  0.3639
 1713SOL     OW15242   8.902   9.986   1.961 -0.8899  0.2107  0.1586
 1713SOL    HW115243   8.833   9.982   1.889 -0.3515 -0.8209 -0.3077
 1713SOL    HW215244   8.961  10.066   1.947 -1.7929  0.9325  0.3970
 1714SOL     OW15245   4.382   3.998   2.116  0.1334  0.2183 -0.2155
 1714SOL    HW115246   4.296   3.963   2.153  0.0501  1.4358  0.7831
 1714SOL    HW215247   4.364   4.079   2.061  0.3384 -1.1937 -2.4198
 1715SOL     OW15248   9.347   6.549   0.296 -0.3230  0.3987 -0.2278
 1715SOL    HW115249   9.438   6.533   0.333  0.1327  1.5203 -0.8468
 1715SOL    HW215250   9.338   6.503   0.208 -0.4110  0.1633 -0.0969
 1716SOL     OW15251   9.386   3.243   1.134 -0.3291 -0.1757 -0.1395
 1716SOL    HW115252   9.476   3.198   1.130 -0.4744 -0.4563 -0.2903
 1716SOL    HW215253   9.395   3.333   1.177 -0.1386 -0.6116  0.7635
 1717SOL     OW15254   3.672   2.319   0.023  0.2575  0.1765  0.0249
 1717SOL    HW115255   3.711   2.353   0.109 -2.4694 -0.6701  1.6634
 1717SOL    HW215256   3.590   2.372   0.001  0.9049  0.3569 -2.0878
 1718SOL     OW15257   9.801   7.504   2.536 -0.2723 -0.0862 -0.2923
 1718SOL    HW115258   9.863   7.581   2.524 -0.7793  0.3407 -0.1692
 1718SOL    HW215259   9.759   7.508   2.626 -0.1102 -0.6466 -0.1873
 1719SOL     OW15260   0.809   7.933   1.107 -0.2745  0.2020 -0.1191
 1719SOL    HW115261   0.809   8.001   1.034  1.9889 -0.7683 -1.0794
 1719SOL    HW215262   0.814   7.841   1.067  2.1015 -0.3037  1.2714
 1720SOL     OW15263   1.688   5.040   0.271 -0.5914 -0.1556  0.3155
 1720SOL    HW115264   1.703   4.971   0.342  0.0127  0.6457  0.9898
 1720SOL    HW215265   1.765   5.104   0.271 -0.8371  0.1406 -0.7309
 1721SOL     OW15266   9.461   7.054   1.579  0.2166 -0.3007  0.7462
 1721SOL    HW115267   9.445   7.057   1.480  0.4599 -0.2793  0.7048
 1721SOL    HW215268   9.508   7.138   1.608  0.1442 -0.3069  0.8793
 1722SOL     OW15269   8.287   8.894   1.130  0.4206  0.2116 -0.7868
 1722SOL    HW115270   8.338   8.809   1.142  0.3517  0.3496  0.6215
 1722SOL    HW215271   8.291   8.947   1.215 -0.3735  1.1509 -1.3244
 1723SOL     OW15272   8.606   8.933   0.207 -0.2556 -0.7824  0.9130
 1723SOL    HW115273   8.572   8.938   0.113 -0.1845  0.2567  0.9418
 1723SOL    HW215274   8.534   8.898   0.267 -0.4433 -1.0155  0.5532
 1724SOL     OW15275   1.982   2.458   2.224 -0.6572 -0.6449  0.1063
 1724SOL    HW115276   1.936   2.547   2.228  1.7551  0.6163  1.0111
 1724SOL    HW215277   1.952   2.402   2.301  1.7919  1.4655  2.7021
 1725SOL     OW15278   1.551   0.245   2.480  0.1583 -0.5343  0.1007
 1725SOL    HW115279   1.582   0.199   2.564  1.3440 -2.0385 -1.1204
 1725SOL    HW215280   1.479   0.191   2.438 -1.0499  0.6736  0.5921
 1726SOL     OW15281   9.375   1.892   0.838  0.5912 -0.1655  0.3606
 1726SOL    HW115282   9.350   1.796   0.835 -0.5277  0.1677 -1.5018
 1726SOL    HW215283   9.304   1.945   0.885  0.2183  0.0495 -0.4443
 1727SOL     OW15284   1.758   3.223   0.750 -1.0314 -0.0899 -0.2322
 1727SOL    HW115285   1.827   3.250   0.817 -1.2820  0.9900 -0.3898
 1727SOL    HW215286   1.674   3.195   0.798 -1.6026  1.7735 -0.0935
 1728SOL     OW15287   4.321   2.863   2.089  0.4927 -0.0970 -0.5248
 1728SOL    HW115288   4.308   2.776   2.137 -1.7659  1.4165  1.7088
 1728SOL    HW215289   4.388   2.918   2.138 -1.6848  1.3777  0.9111
 1729SOL     OW15290   4.371   4.644   0.811 -0.5413 -0.4644  0.4009
 1729SOL    HW115291   4.415   4.733   0.816  0.8464 -0.8645 -2.9189
 1729SOL    HW215292   4.437   4.572   0.834 -0.8371 -0.7880  0.2544
 1730SOL     OW15293   2.349   5.846   1.162  0.6647  0.2525  0.0694
 1730SOL    HW115294   2.260   5.808   1.137  1.3839 -1.3177 -0.1703
 1730SOL    HW215295   2.350   5.945   1.144 -0.3983 -0.0467 -1.6808
 1731SOL     OW15296   9.495   0.627   0.621 -0.1014  0.3265  0.5516
 1731SOL    HW115297   9.494   0.638   0.720 -1.8451 -0.1801  0.6082
 1731SOL    HW215298   9.407   0.655   0.583 -0.3507 -1.8674 -0.5746
 1732SOL     OW15299   0.129   9.223   1.202 -0.2206 -0.5915 -0.0333
 1732SOL    HW115300   0.096   9.131   1.180 -0.7533 -0.1845 -0.9724
 1732SOL    HW215301   0.113   9.283   1.124 -1.3076  0.6810  1.1575
 1733SOL     OW15302   4.230   9.713   0.338  0.9071 -0.2649  0.8627
 1733SOL    HW115303   4.178   9.637   0.300  1.6587 -1.3836  2.0243
 1733SOL    HW215304   4.196   9.734   0.430  0.6182  0.8861  0.4944
 1734SOL     OW15305   3.617   2.302   2.180  0.1353 -0.5493  0.0252
 1734SOL    HW115306   3.666   2.327   2.096  0.2239  0.9455  0.4946
 1734SOL    HW215307   3.532   2.355   2.185 -0.4588 -1.5205  0.2873
 1735SOL     OW15308   2.203   6.961   0.839 -0.3734  0.6577 -0.7266
 1735SOL    HW115309   2.161   6.876   0.871 -0.9024  1.0970 -0.2553
 1735SOL    HW215310   2.144   7.039   0.862 -0.6048  1.0206 -2.4239
 1736SOL     OW15311   9.893   7.373   0.651 -0.0260  0.0805  0.2468
 1736SOL    HW115312   9.963   7.436   0.617  0.4892 -1.2704 -1.2649
 1736SOL    HW215313   9.865   7.311   0.577 -0.8104 -1.2017  1.5946
 1737SOL     OW15314   1.172   2.456   1.739 -0.5011 -0.3344 -0.5664
 1737SOL    HW115315   1.140   2.458   1.833  0.9082  0.1897 -0.0861
 1737SOL    HW215316   1.211   2.544   1.714  1.2685 -1.1664 -0.8661
 1738SOL     OW15317   9.942   0.242   2.237 -0.1241  0.2891  0.3152
 1738SOL    HW115318   9.877   0.197   2.299  1.0573 -0.6853  0.8818
 1738SOL    HW215319   9.984   0.320   2.283 -0.7268  0.7926  0.0214
 1739SOL     OW15320   9.849   9.115   1.555 -0.0312 -0.1704  0.0629
 1739SOL    HW115321   9.912   9.088   1.628  0.4817  0.5999 -0.0881
 1739SOL    HW215322   9.889   9.191   1.503 -1.2348  0.5541  0.1900
 1740SOL     OW15323   3.918   0.499   2.446  0.3745  0.3552 -0.3342
 1740SOL    HW115324   3.885   0.405   2.436  0.5414  0.3018 -0.3941
 1740SOL    HW215325   3.991   0.515   2.379  1.0924  0.1838  0.4044
 1741SOL     OW15326   8.940   9.110   2.570  0.0969 -0.3434  0.3901
 1741SOL    HW115327   8.902   9.077   2.484  1.3914 -1.1383  0.1115
 1741SOL    HW215328   8.866   9.138   2.631 -0.8191  0.5866 -1.1173
 1742SOL     OW15329   3.072   5.563   0.149  0.6334 -0.3596 -0.4433
 1742SOL    HW115330   3.007   5.536   0.079  0.3122 -1.2675  0.2034
 1742SOL    HW215331   3.051   5.656   0.180 -0.4010 -0.6800 -0.1767
 1743SOL     OW15332   0.533   8.459   0.853  0.1356 -0.2149 -0.3560
 1743SOL    HW115333   0.555   8.374   0.805 -1.8972 -0.7105 -0.4589
 1743SOL    HW215334   0.491   8.523   0.789 -0.8605 -0.1698  0.3348
 1744SOL     OW15335   1.299   7.985   0.756  0.2440 -0.2593 -0.4804
 1744SOL    HW115336   1.384   8.009   0.802 -1.0679  0.9478  1.3623
 1744SOL    HW215337   1.277   8.057   0.689 -0.1669  0.2516  0.2015
 1745SOL     OW15338   8.449   9.892   1.743 -0.0228 -0.0794 -0.0810
 1745SOL    HW115339   8.500   9.929   1.821 -0.3402 -0.5220  0.3374
 1745SOL    HW215340   8.508   9.890   1.663  0.2500  0.5623  0.0952
 1746SOL     OW15341   0.047   5.664   1.346 -0.1318  0.3624 -0.7580
 1746SOL    HW115342   0.140   5.671   1.309  1.0926  2.5955  2.4418
 1746SOL    HW215343  -0.012   5.731   1.301  0.4050  0.5020 -1.2588
 1747SOL     OW15344   2.469   6.473   1.182  0.3176 -0.2637  0.2926
 1747SOL    HW115345   2.412   6.442   1.105 -2.3241  1.8179  1.3537
 1747SOL    HW215346   2.505   6.564   1.162  1.1124 -0.4623  0.7922
 1748SOL     OW15347   9.438   6.599   2.471 -0.4437 -0.4799  0.1014
 1748SOL    HW115348   9.376   6.531   2.510 -0.4992 -0.4835  0.0074
 1748SOL    HW215349   9.438   6.590   2.371 -1.5205  0.5818 -0.0049
 1749SOL     OW15350   0.638   7.345   2.318  0.2517 -0.3488  0.6651
 1749SOL    HW115351   0.621   7.420   2.254 -0.3907 -0.3722  0.8012
 1749SOL    HW215352   0.580   7.357   2.399  0.0573 -1.0479  0.6348
 1750SOL     OW15353   1.716   6.863   0.434 -0.0165  1.0470 -0.2918
 1750SOL    HW115354   1.649   6.931   0.406 -0.4876  0.3472 -0.8891
 1750SOL    HW215355   1.716   6.787   0.369  0.0825  0.1912  0.6821
 1751SOL     OW15356   9.285   1.642   0.724 -0.0029 -0.0444 -0.0355
 1751SOL    HW115357   9.204   1.684   0.684  0.4472  1.6683  0.8206
 1751SOL    HW215358   9.352   1.622   0.651 -1.2071 -1.5772 -0.7574
 1752SOL     OW15359   1.761   8.488   1.336  0.0380 -0.3359 -0.3332
 1752SOL    HW115360   1.850   8.512   1.297  0.1572  0.2098  0.2545
 1752SOL    HW215361   1.693   8.557   1.310  0.5218  1.0247  1.8768
 1753SOL     OW15362   9.102   3.598   1.197  0.1536 -0.4242  0.0172
 1753SOL    HW115363   9.049   3.525   1.153 -0.3702 -0.5469  0.8468
 1753SOL    HW215364   9.104   3.678   1.137 -1.1375 -0.3548  0.0528
 1754SOL     OW15365   4.608   1.858   0.892  0.2328  0.4809 -0.1713
 1754SOL    HW115366   4.640   1.914   0.816  0.4203  0.7399  0.1013
 1754SOL    HW215367   4.560   1.777   0.856 -0.0851  0.8418 -0.5584
 1755SOL     OW15368   0.734   3.993   1.131 -0.0935 -0.3743 -0.4709
 1755SOL    HW115369   0.732   3.967   1.034  0.3969  0.8654 -0.8299
 1755SOL    HW215370   0.698   4.086   1.141  1.2336  0.0673  0.3459
 1756SOL     OW15371   2.531   3.737   2.170 -0.0680 -0.0157 -0.0425
 1756SOL    HW115372   2.525   3.653   2.117  0.2812  0.6541 -1.1592
 1756SOL    HW215373   2.446   3.751   2.221 -0.3469 -0.7353 -0.3030
 1757SOL     OW15374   1.244   0.722   1.816 -0.4881 -0.1527  0.2190
 1757SOL    HW115375   1.335   0.753   1.842 -0.7443  0.6561  0.1502
 1757SOL    HW215376   1.249   0.626   1.787  0.0866 -0.5543  1.5903
 1758SOL     OW15377   8.783   0.324   2.345 -0.3665 -0.5403 -0.9526
 1758SOL    HW115378   8.842   0.330   2.426  0.2997 -1.5293 -1.3493
 1758SOL    HW215379   8.740   0.234   2.342  0.2391 -0.8045 -2.1192
 1759SOL     OW15380   8.504   9.839   2.326 -0.4427  0.6015 -0.1364
 1759SOL    HW115381   8.526   9.741   2.329 -0.5995  0.6169  1.4994
 1759SOL    HW215382   8.485   9.865   2.231 -1.4788 -1.1899 -0.4512
 1760SOL     OW15383   0.140   3.213   1.439  0.0162  0.1980  0.1144
 1760SOL    HW115384   0.101   3.303   1.459 -1.2069 -0.4423  0.6471
 1760SOL    HW215385   0.239   3.216   1.455 -0.0117  1.4389  0.1416
 1761SOL     OW15386   0.544   3.950   1.877  0.6278 -0.2273  0.3616
 1761SOL    HW115387   0.644   3.942   1.883  0.4630 -1.9443  1.3432
 1761SOL    HW215388   0.517   3.971   1.784  1.8834 -0.3652 -0.0394
 1762SOL     OW15389   9.039   1.941   2.320 -0.1479 -0.4084  0.2897
 1762SOL    HW115390   9.099   2.016   2.348  0.1076  0.3114 -2.1054
 1762SOL    HW215391   9.066   1.857   2.369  3.8704 -0.4882 -1.8376
 1763SOL     OW15392   8.772   4.761   2.533 -0.3430 -0.4057  0.2440
 1763SOL    HW115393   8.822   4.835   2.580  2.0426 -1.4255 -0.6349
 1763SOL    HW215394   8.737   4.697   2.601  2.3730 -1.4188  0.7357
 1764SOL     OW15395   9.179   5.464   1.370 -0.1968  0.1654 -0.0508
 1764SOL    HW115396   9.162   5.544   1.312 -0.1001 -0.3324 -0.7701
 1764SOL    HW215397   9.243   5.402   1.324 -1.0962 -0.8371  0.0315
 1765SOL     OW15398   2.562   6.297   0.037 -0.2974 -0.6435 -0.5241
 1765SOL    HW115399   2.660   6.279   0.044 -0.1116  0.8050  0.8671
 1765SOL    HW215400   2.514   6.248   0.109 -0.6710 -1.7326 -1.4952
 1766SOL     OW15401   2.474   1.422   1.891  0.2915 -0.4364  0.0922
 1766SOL    HW115402   2.512   1.409   1.800  2.7422  0.4019  0.9542
 1766SOL    HW215403   2.438   1.335   1.925  1.1575 -1.1784 -0.8799
 1767SOL     OW15404   4.251   9.971   2.292  0.1354  0.1682 -0.3805
 1767SOL    HW115405   4.204   9.966   2.204  1.0487 -1.5642 -0.7840
 1767SOL    HW215406   4.288   9.881   2.316  1.6230  1.0731  0.8386
 1768SOL     OW15407   2.734   8.038   0.665 -0.1879 -0.6945  0.4184
 1768SOL    HW115408   2.728   8.021   0.567 -0.3785  0.8325  0.1482
 1768SOL    HW215409   2.642   8.039   0.704 -0.0182 -2.8747  0.9060
 1769SOL     OW15410   0.121   7.079   0.146  0.0798  0.2519  0.3446
 1769SOL    HW115411   0.046   7.040   0.093 -2.1256  0.9372  2.8479
 1769SOL    HW215412   0.093   7.166   0.185  1.5361 -0.3106  2.7724
 1770SOL     OW15413   1.161   0.996   1.836 -0.0806  0.1788  0.1054
 1770SOL    HW115414   1.128   1.061   1.768  0.0031 -0.8080 -0.9033
 1770SOL    HW215415   1.153   0.903   1.799 -0.4169 -0.4066  1.6009
 1771SOL     OW15416   1.254   8.658   0.707 -0.1311  0.1679  0.0632
 1771SOL    HW115417   1.188   8.690   0.638 -0.8927  1.2557  1.2773
 1771SOL    HW215418   1.206   8.641   0.793  0.8107 -1.2295  0.3292
 1772SOL     OW15419   3.940   1.510   1.104 -0.1587 -0.3696  0.3556
 1772SOL    HW115420   3.894   1.518   1.016  0.8912 -1.1754 -0.2804
 1772SOL    HW215421   3.882   1.549   1.176 -2.3885 -2.5565 -0.2122
 1773SOL     OW15422   0.234   8.405   1.260  0.6514 -0.2481 -0.1042
 1773SOL    HW115423   0.236   8.429   1.357 -0.2955  2.9506 -0.8142
 1773SOL    HW215424   0.328   8.406   1.224  0.7670  1.4613  0.1681
 1774SOL     OW15425   4.196   5.053   2.315 -0.4501 -0.0303  0.3727
 1774SOL    HW115426   4.176   5.039   2.218 -0.0634 -0.6559  0.3781
 1774SOL    HW215427   4.242   5.141   2.327 -2.0820  0.8545  0.2169
 1775SOL     OW15428   0.092   2.998   0.275  1.2439  0.2346  0.3044
 1775SOL    HW115429   0.055   3.090   0.274 -0.4170 -0.4024  0.6796
 1775SOL    HW215430   0.152   2.987   0.354 -0.9712  0.1156  2.0342
 1776SOL     OW15431   9.891   3.220   0.232  0.7945 -0.6404  0.6511
 1776SOL    HW115432   9.965   3.278   0.198  0.2093  0.0118  0.4920
 1776SOL    HW215433   9.809   3.233   0.175  0.5748 -1.4205  0.7754
 1777SOL     OW15434   3.331   1.281   2.517 -0.4167 -0.5268 -0.0221
 1777SOL    HW115435   3.304   1.225   2.439 -0.6998 -2.3716  1.3873
 1777SOL    HW215436   3.327   1.227   2.601  1.9062  0.8232  1.0191
 1778SOL     OW15437   3.826   2.509   1.000 -0.0186 -0.5930  0.1662
 1778SOL    HW115438   3.862   2.416   0.994 -2.1179 -1.3507 -1.4698
 1778SOL    HW215439   3.748   2.511   1.062  0.5439  0.2633  0.8561
 1779SOL     OW15440   3.079   0.110   0.904 -0.7505 -0.0452 -0.0914
 1779SOL    HW115441   3.093   0.139   0.810  0.9260 -0.2145  0.0910
 1779SOL    HW215442   3.047   0.015   0.905  3.8066 -1.7429 -0.4318
 1780SOL     OW15443   3.469   9.711   2.524  0.4047  0.0935  0.4299
 1780SOL    HW115444   3.399   9.752   2.582  0.2191 -1.5328  1.4039
 1780SOL    HW215445   3.451   9.735   2.428 -1.0247  0.3533  0.7517
 1781SOL     OW15446   1.093   8.100   2.116 -0.1048 -0.2569 -0.3187
 1781SOL    HW115447   1.040   8.064   2.193  1.7211 -0.1291  1.0349
 1781SOL    HW215448   1.095   8.032   2.042  0.0991 -1.3678  0.6871
 1782SOL     OW15449   9.254   5.769   0.637  0.6297  0.2011 -0.5116
 1782SOL    HW115450   9.239   5.863   0.669  0.8759 -0.5826  1.9448
 1782SOL    HW215451   9.197   5.753   0.556 -0.6130  1.9756 -0.0296
 1783SOL     OW15452   1.310   2.491   0.974  0.5547  0.4043 -0.1927
 1783SOL    HW115453   1.256   2.540   0.905  0.4317  0.3928 -0.1048
 1783SOL    HW215454   1.404   2.484   0.943  0.5151  0.4642 -0.3276
 1784SOL     OW15455   9.107   4.857   1.315  0.2687 -0.1656 -0.1318
 1784SOL    HW115456   9.204   4.848   1.336 -0.1621  0.7118  2.4122
 1784SOL    HW215457   9.081   4.953   1.314 -0.6388 -0.4078 -0.4747
 1785SOL     OW15458   2.258   1.573   1.598 -0.0482 -0.2147 -0.1762
 1785SOL    HW115459   2.215   1.657   1.630  0.9814 -0.0387  0.7839
 1785SOL    HW215460   2.348   1.594   1.559 -0.1851 -0.7528 -0.7970
 1786SOL     OW15461   2.441   9.397   1.382  0.4835 -0.6344  0.3735
 1786SOL    HW115462   2.422   9.398   1.283  0.1523 -0.4625  0.4342
 1786SOL    HW215463   2.415   9.309   1.420  1.3264 -0.9691  0.1762
 1787SOL     OW15464   1.120   0.073   1.392  0.0642 -0.4503 -0.1059
 1787SOL    HW115465   1.127   0.127   1.309 -2.6520  1.0276  0.5493
 1787SOL    HW215466   1.210   0.064   1.435  0.4696  4.3220  0.2341
 1788SOL     OW15467   1.406   7.249   2.050 -0.3319  0.4010  0.6027
 1788SOL    HW115468   1.381   7.258   1.954  0.5043 -1.7715  0.1606
 1788SOL    HW215469   1.340   7.190   2.097  0.1258  0.2072  1.0111
 1789SOL     OW15470   2.351   6.147   2.527 -0.1054  0.2089 -0.1453
 1789SOL    HW115471   2.439   6.184   2.498  0.1641 -0.0413  0.3625
 1789SOL    HW215472   2.329   6.181   2.618 -0.0746 -0.5256  0.1337
 1790SOL     OW15473   9.250   3.544   0.625 -0.4387 -0.5208 -0.2258
 1790SOL    HW115474   9.240   3.636   0.587 -0.5089  0.0640  1.1586
 1790SOL    HW215475   9.347   3.520   0.631 -0.3928 -0.2851 -0.0204
 1791SOL     OW15476   2.851   7.476   1.859  0.6019 -0.2803 -0.2689
 1791SOL    HW115477   2.869   7.378   1.858  1.2522 -0.1547 -0.7692
 1791SOL    HW215478   2.905   7.521   1.788  0.3090  0.4396 -0.0398
 1792SOL     OW15479   1.483   0.505   2.138  0.2317 -0.2508  0.4090
 1792SOL    HW115480   1.565   0.480   2.189  0.6641  1.1363  0.4275
 1792SOL    HW215481   1.497   0.487   2.041  1.3645  1.8789  0.1400
 1793SOL     OW15482   2.009   0.497   0.391  0.2087 -0.9512 -0.3047
 1793SOL    HW115483   2.087   0.560   0.387 -0.5770  0.1026  0.5069
 1793SOL    HW215484   1.934   0.535   0.337 -0.5850 -0.7348  0.9429
 1794SOL     OW15485   9.741   8.053   1.278 -0.4811 -0.4659 -0.6542
 1794SOL    HW115486   9.733   8.059   1.378 -0.2040 -0.8832 -0.6063
 1794SOL    HW215487   9.831   8.019   1.254 -0.0971  0.8482 -1.0929
 1795SOL     OW15488   2.474   2.772   1.772  0.5159  0.7172 -0.0311
 1795SOL    HW115489   2.509   2.865   1.773 -1.7788  1.6213 -0.1822
 1795SOL    HW215490   2.419   2.756   1.855  0.3343 -0.2701 -0.3290
 1796SOL     OW15491   2.742   9.367   0.087  0.5366 -0.0539  0.2684
 1796SOL    HW115492   2.688   9.430   0.143  0.6681  0.1976  0.1106
 1796SOL    HW215493   2.771   9.412   0.003 -0.5143 -0.7614 -0.4804
 1797SOL     OW15494   8.945   1.362   1.700  0.2558 -0.1720  0.8041
 1797SOL    HW115495   8.925   1.366   1.798  0.3833 -2.1485  0.9303
 1797SOL    HW215496   9.043   1.353   1.687  0.3813  1.5204  0.4242
 1798SOL     OW15497   3.572   2.027   2.306 -0.0513  0.3883  0.3745
 1798SOL    HW115498   3.660   2.005   2.349 -0.9349 -0.4885  1.7443
 1798SOL    HW215499   3.585   2.103   2.243  1.7588  0.0892  0.3416
 1799SOL     OW15500   3.148   9.598   0.853 -0.4814  0.3760  0.2082
 1799SOL    HW115501   3.121   9.543   0.932 -2.6358  1.1848  0.0614
 1799SOL    HW215502   3.070   9.609   0.792  1.5734 -1.7555 -2.9896
 1800SOL     OW15503   0.259   9.566   1.706 -0.3190  0.1820 -0.3578
 1800SOL    HW115504   0.236   9.565   1.609  0.0718  1.5205 -0.4744
 1800SOL    HW215505   0.306   9.651   1.728  1.4597 -0.9895  0.5679
 1801SOL     OW15506   9.567   1.067   1.214 -0.3157  0.0779  0.4491
 1801SOL    HW115507   9.551   0.971   1.190 -1.0151  0.1271  0.6833
 1801SOL    HW215508   9.657   1.076   1.256  0.3879 -0.2207 -0.9598
 1802SOL     OW15509   0.536   1.473   2.016  0.1464  0.0532  0.1203
 1802SOL    HW115510   0.502   1.482   2.109 -0.8976 -2.7949  0.0816
 1802SOL    HW215511   0.582   1.384   2.006  1.4569  0.9121 -1.7003
 1803SOL     OW15512   9.876   5.100   1.807  0.9701  0.0852  0.3707
 1803SOL    HW115513   9.833   5.178   1.852 -0.8041  0.1099 -1.2756
 1803SOL    HW215514   9.846   5.096   1.711  1.3618 -2.3632  0.3137
 1804SOL     OW15515   0.586   9.955   1.891  0.5387  0.3630 -0.2886
 1804SOL    HW115516   0.513   9.962   1.823  0.8333  0.7891 -0.5622
 1804SOL    HW215517   0.642   9.875   1.872  0.4665  0.3380 -0.3934
 1805SOL     OW15518   1.722   2.766   2.039 -0.0864  0.1537  0.4271
 1805SOL    HW115519   1.697   2.861   2.019  0.5348 -0.0592 -1.4706
 1805SOL    HW215520   1.776   2.729   1.964  0.9314 -1.2557  1.8018
 1806SOL     OW15521   3.422   2.589   0.312 -0.9171 -0.0410 -0.0134
 1806SOL    HW115522   3.500   2.598   0.250 -1.2147  2.8213 -0.0461
 1806SOL    HW215523   3.432   2.506   0.366  1.0521 -0.8346 -1.5181
 1807SOL     OW15524   8.076   8.571   0.814 -0.9761  0.0861  0.2115
 1807SOL    HW115525   8.001   8.519   0.854 -1.2098  0.5520  0.3798
 1807SOL    HW215526   8.157   8.562   0.872  0.1370 -3.2491 -1.7393
 1808SOL     OW15527   3.022   5.814   1.325  0.4128 -0.0926  0.3856
 1808SOL    HW115528   3.009   5.877   1.401 -0.5337  0.5573 -0.3060
 1808SOL    HW215529   3.059   5.727   1.359 -1.5348 -0.3958  1.8173
 1809SOL     OW15530   0.305   0.346   2.317  0.3657  0.2259 -0.5719
 1809SOL    HW115531   0.267   0.405   2.247 -0.8605  0.8284  0.5892
 1809SOL    HW215532   0.308   0.395   2.404 -1.3362 -1.6210  0.5751
 1810SOL     OW15533   1.800   5.811   2.042 -0.4331  0.1808  0.1328
 1810SOL    HW115534   1.826   5.818   2.139  0.0833 -0.1953  0.0229
 1810SOL    HW215535   1.835   5.725   2.004 -0.5323  0.3838 -0.4209
 1811SOL     OW15536   1.682   1.607   1.311 -0.0402  0.0646 -0.1234
 1811SOL    HW115537   1.750   1.575   1.377 -0.3017 -0.4753 -0.1096
 1811SOL    HW215538   1.600   1.552   1.320 -0.4202  0.6074 -0.2570
 1812SOL     OW15539   3.861   3.030   0.898 -0.1236  0.0079 -0.4367
 1812SOL    HW115540   3.852   2.931   0.884 -0.4566  0.1204 -1.0334
 1812SOL    HW215541   3.852   3.077   0.810  1.9882  0.4403 -0.4445
 1813SOL     OW15542   0.266   2.321   0.637  0.0587  0.0387 -0.3198
 1813SOL    HW115543   0.299   2.251   0.701  0.6907 -0.4102 -1.1221
 1813SOL    HW215544   0.300   2.411   0.666  1.1817 -0.2897 -0.5788
 1814SOL     OW15545   4.116   9.629   0.636 -0.0877  0.7565 -0.0643
 1814SOL    HW115546   4.069   9.704   0.683 -1.5446  0.5240 -1.1237
 1814SOL    HW215547   4.053   9.584   0.573  1.4217  0.1100 -1.1420
 1815SOL     OW15548   4.183   0.383   0.081  0.3838  0.4018 -0.3046
 1815SOL    HW115549   4.214   0.460   0.137  0.4210 -0.3191  0.6723
 1815SOL    HW215550   4.161   0.416  -0.011  4.6060  0.8455 -1.2506
 1816SOL     OW15551   2.602   2.005   1.107  0.2867  0.0547  0.1718
 1816SOL    HW115552   2.599   2.047   1.198  0.5458  0.7061 -0.1248
 1816SOL    HW215553   2.519   2.028   1.057  0.0064 -0.5480  0.3441
 1817SOL     OW15554   0.096   7.652   0.051 -0.2220 -0.8439  0.5240
 1817SOL    HW115555   0.022   7.693   0.105  0.7394 -1.3696  2.2798
 1817SOL    HW215556   0.154   7.724   0.013  0.6738 -0.5101  2.4702
 1818SOL     OW15557   1.145   3.158   2.545 -0.2092  0.0195  0.0775
 1818SOL    HW115558   1.079   3.185   2.475 -1.4168  0.2775  1.2859
 1818SOL    HW215559   1.143   3.224   2.620  0.3688 -0.7702  0.7996
 1819SOL     OW15560   2.881   3.807   0.012  0.1049 -0.0325  0.2639
 1819SOL    HW115561   2.915   3.714  -0.005  0.2872 -0.0035  0.4685
 1819SOL    HW215562   2.783   3.804   0.026  0.1057 -0.1921  0.2371
 1820SOL     OW15563   1.558   4.175   2.354 -0.0490 -0.2431  0.0930
 1820SOL    HW115564   1.490   4.228   2.303  0.4376 -1.5432 -1.9763
 1820SOL    HW215565   1.650   4.203   2.326  0.2283 -0.6114  0.6312
 1821SOL     OW15566   0.528   7.262   0.158 -0.1181 -0.3286  0.2127
 1821SOL    HW115567   0.502   7.166   0.166  0.6519 -0.4600  1.2390
 1821SOL    HW215568   0.487   7.301   0.075 -1.2044 -1.2801  0.2915
 1822SOL     OW15569   7.959   8.764   2.416  0.1773  0.0294  0.5173
 1822SOL    HW115570   7.916   8.685   2.461 -1.5725  0.3008 -0.5817
 1822SOL    HW215571   7.916   8.848   2.448 -0.1647  0.3090 -0.6259
 1823SOL     OW15572   7.583   0.569   1.554  0.0482 -0.0665  0.1271
 1823SOL    HW115573   7.592   0.631   1.476 -0.5527 -0.1389 -0.0037
 1823SOL    HW215574   7.493   0.525   1.552  0.5240 -1.0586  0.1403
 1824SOL     OW15575   8.655   9.031   0.950  0.5663 -0.6772 -0.2193
 1824SOL    HW115576   8.754   9.022   0.960  0.6936  0.8363  0.0650
 1824SOL    HW215577   8.623   8.967   0.880  1.7029 -1.3669 -0.1259
 1825SOL     OW15578   9.930   8.421   0.444 -0.5526  0.2352  0.1908
 1825SOL    HW115579   9.958   8.447   0.536  1.0782  0.3593 -0.3379
 1825SOL    HW215580   9.984   8.342   0.414 -0.3617  0.8412 -1.0634
 1826SOL     OW15581   0.072   6.980   1.549 -0.4548 -0.5676 -0.0986
 1826SOL    HW115582   0.138   6.980   1.624 -1.2817  1.2581  0.6550
 1826SOL    HW215583   0.043   6.886   1.532  0.4398 -1.1179  1.2474
 1827SOL     OW15584   1.696   3.116   2.290 -0.4451 -0.1971  0.1917
 1827SOL    HW115585   1.617   3.165   2.253  0.6805  1.5582  0.0509
 1827SOL    HW215586   1.726   3.161   2.374 -0.5210 -1.7750  1.0889
 1828SOL     OW15587   1.846   4.662   1.049  0.1620 -0.4375 -0.2589
 1828SOL    HW115588   1.846   4.596   0.974  1.6130 -1.3001  0.4661
 1828SOL    HW215589   1.833   4.754   1.013  2.8218 -0.6142 -1.8143
 1829SOL     OW15590   8.349   9.102   1.673  0.0153 -0.4695  0.3211
 1829SOL    HW115591   8.292   9.091   1.754 -1.0103 -0.6689 -0.4244
 1829SOL    HW215592   8.296   9.145   1.600  1.2984  0.9309  0.1751
 1830SOL     OW15593   2.257   7.601   1.942 -0.1856 -0.2887  0.3946
 1830SOL    HW115594   2.274   7.559   1.853  1.1630 -0.9873  0.9629
 1830SOL    HW215595   2.344   7.630   1.983 -0.9362  1.5849  0.7433
 1831SOL     OW15596   0.003   8.065   1.045  0.0753 -0.4224 -0.3087
 1831SOL    HW115597  -0.001   7.993   0.975 -0.0451 -0.7816  0.0692
 1831SOL    HW215598   0.096   8.101   1.051  0.3533 -1.2375  0.2111
 1832SOL     OW15599   8.301   8.095   1.296 -0.2589  0.4613 -0.2095
 1832SOL    HW115600   8.216   8.057   1.259 -0.4139  0.6886 -0.0886
 1832SOL    HW215601   8.349   8.145   1.224 -0.3089  0.4690 -0.2382
 1833SOL     OW15602   7.823   0.798   0.992 -0.1370  0.3086 -0.1930
 1833SOL    HW115603   7.854   0.863   1.062  1.3871 -0.4474 -0.1576
 1833SOL    HW215604   7.735   0.759   1.019  1.1590 -1.1409  2.0867
 1834SOL     OW15605   8.639   0.999   2.043  1.0312  0.4060 -0.4906
 1834SOL    HW115606   8.587   0.952   1.972  2.2182 -1.2799 -0.2753
 1834SOL    HW215607   8.577   1.059   2.094 -0.3154 -0.1381 -1.4345
 1835SOL     OW15608   9.569   0.255   1.133  0.3433  0.4967  0.5708
 1835SOL    HW115609   9.546   0.316   1.057  0.3960  0.5493  0.5970
 1835SOL    HW215610   9.629   0.183   1.099 -0.1259  0.1702  0.4328
 1836SOL     OW15611   4.634   2.897   1.999  0.5977 -0.2805 -0.2032
 1836SOL    HW115612   4.613   2.961   2.074  0.3999 -0.8038  0.1933
 1836SOL    HW215613   4.697   2.828   2.033  0.3662 -0.6225 -0.4767
 1837SOL     OW15614   8.264   8.002   1.752 -0.1964  0.1638  0.4180
 1837SOL    HW115615   8.315   7.942   1.814  1.8195  0.8905 -0.4870
 1837SOL    HW215616   8.167   7.999   1.775 -0.0546 -2.9127  0.8299
 1838SOL     OW15617   2.244   7.596   0.270  0.2110 -0.4063  0.2780
 1838SOL    HW115618   2.196   7.516   0.305  1.2963 -1.0945  0.2179
 1838SOL    HW215619   2.186   7.644   0.204  0.7354 -2.9332 -2.1097
 1839SOL     OW15620   1.999   7.815   1.680  0.1380  0.4206  0.1299
 1839SOL    HW115621   2.064   7.748   1.643 -0.8806  0.4250 -1.7445
 1839SOL    HW215622   2.008   7.819   1.779  1.8428 -0.7860  0.0436
 1840SOL     OW15623   0.262   3.912   0.936  0.2725  0.1400 -1.0416
 1840SOL    HW115624   0.352   3.907   0.981 -0.2212  0.6930  0.0402
 1840SOL    HW215625   0.262   3.853   0.855  2.1753  1.4814 -2.0554
 1841SOL     OW15626   2.210   5.818   2.149 -0.4130 -0.3359 -0.4033
 1841SOL    HW115627   2.121   5.786   2.116 -0.7018  0.6849 -0.6325
 1841SOL    HW215628   2.209   5.918   2.155  0.5231 -0.3548  0.1635
 1842SOL     OW15629   2.134   2.071   2.252  0.4777 -0.8566  0.0257
 1842SOL    HW115630   2.069   2.004   2.216 -0.8556 -0.0324  0.8647
 1842SOL    HW215631   2.133   2.068   2.352  1.2895 -0.4169  0.0449
 1843SOL     OW15632   1.454   4.399   0.971  0.0741  0.5556  0.0770
 1843SOL    HW115633   1.485   4.487   1.005  0.2940  0.2592  0.6583
 1843SOL    HW215634   1.460   4.397   0.872  0.3803  1.0774  0.0863
 1844SOL     OW15635   1.331   9.735   0.374  0.4315  0.0809  0.1740
 1844SOL    HW115636   1.273   9.660   0.341  1.0539 -0.9692  1.3916
 1844SOL    HW215637   1.293   9.769   0.461  0.8801  0.2950  0.2858
 1845SOL     OW15638   8.405   0.251   2.248 -0.4173 -0.2997  0.3046
 1845SOL    HW115639   8.345   0.199   2.309  0.3213  0.2221  1.5140
 1845SOL    HW215640   8.489   0.199   2.232  0.4609  0.6135  1.7753
 1846SOL     OW15641   3.605   4.291   1.696  0.7593 -0.5720 -0.0134
 1846SOL    HW115642   3.703   4.309   1.709  0.2071  2.3736  0.4410
 1846SOL    HW215643   3.559   4.290   1.784  0.4709 -2.7248 -0.1672
 1847SOL     OW15644   3.437   2.575   2.318 -0.5066 -0.2926  0.1697
 1847SOL    HW115645   3.398   2.513   2.250 -1.2108 -0.6213  0.8719
 1847SOL    HW215646   3.422   2.669   2.290  3.0477 -0.3618 -2.3584
 1848SOL     OW15647   1.301   4.616   1.830 -0.4090 -0.7989  0.7101
 1848SOL    HW115648   1.316   4.711   1.803 -1.3321 -1.2960 -1.6804
 1848SOL    HW215649   1.246   4.613   1.914  2.1569  0.7845  2.4976
 1849SOL     OW15650   2.582   6.215   0.661  0.2815 -0.0729 -1.0596
 1849SOL    HW115651   2.653   6.266   0.612 -1.0658  0.8847 -2.0531
 1849SOL    HW215652   2.546   6.143   0.602  0.2000 -0.3520 -0.6694
 1850SOL     OW15653   0.267   4.622   1.807  0.3799 -0.1259 -0.4113
 1850SOL    HW115654   0.302   4.591   1.896  0.0530  2.2827  0.5744
 1850SOL    HW215655   0.340   4.615   1.739  1.3026  0.1045  0.5335
 1851SOL     OW15656   8.184   8.637   2.326  0.0824 -0.5738  0.0587
 1851SOL    HW115657   8.214   8.602   2.237  0.3596 -0.1254 -0.0232
 1851SOL    HW215658   8.091   8.672   2.318  1.1587  2.2211 -0.7847
 1852SOL     OW15659   2.110   8.953   0.861 -0.0015 -0.3394  0.6685
 1852SOL    HW115660   2.168   8.872   0.859 -1.3955 -1.3271 -1.5284
 1852SOL    HW215661   2.140   9.014   0.934  3.1636 -1.2740  0.2032
 1853SOL     OW15662   0.107   7.923   2.544 -0.1551 -0.3701 -0.0522
 1853SOL    HW115663   0.018   7.926   2.497  0.0954 -0.5235 -0.5391
 1853SOL    HW215664   0.119   8.006   2.598  0.1260  0.4232 -1.3080
 1854SOL     OW15665   9.960   7.340   0.936  0.5121 -0.2001  0.6370
 1854SOL    HW115666   9.939   7.346   0.839  0.4727  2.5342  0.7681
 1854SOL    HW215667   9.881   7.370   0.990  0.7401 -1.1144  1.5071
 1855SOL     OW15668   3.358   9.745   1.080 -0.6382 -0.7460  0.0280
 1855SOL    HW115669   3.345   9.679   1.154 -1.7682 -0.6184 -0.0353
 1855SOL    HW215670   3.372   9.696   0.994  2.1069 -0.8951  0.5339
 1856SOL     OW15671   1.710   0.366   2.263  0.3554  0.5629  0.2126
 1856SOL    HW115672   1.656   0.329   2.339 -0.7383 -0.1874 -0.9133
 1856SOL    HW215673   1.805   0.375   2.292  0.4889 -2.2766  0.8277
 1857SOL     OW15674   3.551   0.184   0.384  0.0833  0.3151 -0.2542
 1857SOL    HW115675   3.473   0.248   0.379  0.9156  1.4527  0.9210
 1857SOL    HW215676   3.523   0.095   0.350 -1.0281  1.3962 -2.2553
 1858SOL     OW15677   8.929   8.178   1.554  0.1215  0.3114 -0.3917
 1858SOL    HW115678   9.007   8.170   1.616  1.8049  1.2120 -2.3366
 1858SOL    HW215679   8.875   8.258   1.579  0.5693  0.4619  0.1169
 1859SOL     OW15680   9.147   8.061   2.005 -0.4676  0.0190  0.4377
 1859SOL    HW115681   9.051   8.037   2.021 -0.5152 -0.2026 -0.1434
 1859SOL    HW215682   9.194   7.982   1.965 -0.0601  0.1458  0.6705
 1860SOL     OW15683   1.555   5.812   0.716  0.1238 -0.2905  0.7503
 1860SOL    HW115684   1.588   5.902   0.689  0.3025 -0.5353  0.1520
 1860SOL    HW215685   1.512   5.818   0.806  0.6299  0.2844  0.9595
 1861SOL     OW15686   0.013   6.262   0.518 -0.1816  0.2023  0.1548
 1861SOL    HW115687  -0.022   6.226   0.431  2.0719 -1.1639 -0.2161
 1861SOL    HW215688   0.056   6.189   0.570  1.0604  1.5884  1.1214
 1862SOL     OW15689   0.518   2.149   2.526  0.5459 -0.0618  0.3806
 1862SOL    HW115690   0.581   2.121   2.454  0.6547 -0.1267  0.5009
 1862SOL    HW215691   0.434   2.184   2.485 -0.2232 -2.0458  0.2400
 1863SOL     OW15692   3.573   9.513   1.726  0.0344 -0.3395 -0.7188
 1863SOL    HW115693   3.554   9.415   1.715 -0.0265 -0.1310 -2.6744
 1863SOL    HW215694   3.487   9.563   1.732  0.0018 -0.1453 -2.4431
 1864SOL     OW15695   8.451   7.726   0.570 -0.1831 -0.3881 -0.4616
 1864SOL    HW115696   8.504   7.642   0.554  0.3484 -0.1070 -0.2132
 1864SOL    HW215697   8.370   7.726   0.512  0.6938 -0.2915 -1.7122
 1865SOL     OW15698   4.598   4.387   0.567 -0.3587 -0.2881  0.3959
 1865SOL    HW115699   4.557   4.377   0.476  0.5805 -2.0530  0.1309
 1865SOL    HW215700   4.576   4.306   0.622  0.5117 -0.0145  1.1544
 1866SOL     OW15701   9.039   0.094   2.235  0.4898  0.3006  0.2688
 1866SOL    HW115702   9.131   0.055   2.234  0.6721  0.7143  0.8669
 1866SOL    HW215703   8.972   0.021   2.224  0.8268 -0.2122  1.5136
 1867SOL     OW15704   9.417   2.978   0.022 -0.2623  0.1909 -0.0780
 1867SOL    HW115705   9.482   2.940   0.088  1.7180 -1.3314 -2.8088
 1867SOL    HW215706   9.408   3.076   0.038 -0.7888 -0.3319  3.2182
 1868SOL     OW15707   2.538   4.812   1.099 -0.4536  0.2380  0.3644
 1868SOL    HW115708   2.579   4.776   1.183  0.2525  0.0391 -0.0593
 1868SOL    HW215709   2.540   4.912   1.101  3.5142  0.2933 -1.2678
 1869SOL     OW15710   1.901   3.818   0.668 -0.5007  0.4048  0.0036
 1869SOL    HW115711   1.835   3.877   0.620 -0.1471  0.4911 -0.3791
 1869SOL    HW215712   1.867   3.723   0.666 -0.4026  0.3779 -0.5787
 1870SOL     OW15713   0.739   2.058   0.289  0.2888  0.1558  0.6594
 1870SOL    HW115714   0.762   2.075   0.193  1.2787 -1.2860  0.6257
 1870SOL    HW215715   0.777   2.132   0.345 -0.0309  0.8467 -0.0181
 1871SOL     OW15716   0.358   1.238   0.882  0.6637  0.0429  0.0272
 1871SOL    HW115717   0.288   1.306   0.905  0.6174  0.4589 -1.3193
 1871SOL    HW215718   0.375   1.180   0.961 -1.3970 -0.2135  0.3133
 1872SOL     OW15719   4.130   0.055   0.432  0.0594  0.3226 -0.6982
 1872SOL    HW115720   4.184  -0.025   0.405 -2.0197 -1.2460 -0.2893
 1872SOL    HW215721   4.072   0.083   0.355 -1.3540 -0.3682  0.1077
 1873SOL     OW15722   9.819   6.324   0.891  0.0640 -0.1842  0.0121
 1873SOL    HW115723   9.790   6.391   0.822 -0.9352 -0.2097  0.4003
 1873SOL    HW215724   9.918   6.311   0.885  0.4990  2.3476  0.8064
 1874SOL     OW15725   2.961   1.124   2.015  0.4821 -0.1455  0.2015
 1874SOL    HW115726   2.917   1.160   1.933  0.0075  1.7776  1.2723
 1874SOL    HW215727   3.053   1.092   1.993  0.9819  1.8876 -0.7637
 1875SOL     OW15728   2.169   1.050   2.123 -0.8984  0.0674  0.2390
 1875SOL    HW115729   2.216   0.963   2.140  1.4056  1.0506 -0.8882
 1875SOL    HW215730   2.141   1.090   2.210 -2.6404 -2.1230  0.7359
 1876SOL     OW15731   0.858   3.536   2.087  0.2824 -0.2293  0.4650
 1876SOL    HW115732   0.911   3.495   2.161  1.3823  0.3965  0.0373
 1876SOL    HW215733   0.848   3.634   2.104  1.7823  0.1837 -0.9312
 1877SOL     OW15734   1.144   5.750   0.116 -0.1239  0.1644  0.3004
 1877SOL    HW115735   1.227   5.803   0.099 -0.1638  0.6267  1.4963
 1877SOL    HW215736   1.147   5.666   0.062  1.8202 -0.5150  1.3797
 1878SOL     OW15737   3.296   4.953   1.552  0.4985 -0.3462 -0.2340
 1878SOL    HW115738   3.352   4.984   1.475  1.0119 -0.7822 -0.0406
 1878SOL    HW215739   3.267   5.032   1.606  2.4515 -0.2472  0.7115
 1879SOL     OW15740   0.283   5.296   1.815  0.2016 -0.2162 -0.1793
 1879SOL    HW115741   0.230   5.255   1.889  1.8018 -0.3857  0.8998
 1879SOL    HW215742   0.231   5.370   1.773 -1.0068 -0.5893  0.6521
 1880SOL     OW15743   1.407   2.176   0.416  0.2976  0.1196  0.3139
 1880SOL    HW115744   1.481   2.183   0.350  1.2146 -0.7283  1.2216
 1880SOL    HW215745   1.320   2.195   0.371  0.8257 -1.1236 -1.2779
 1881SOL     OW15746   2.293   4.900   0.538 -0.3890  0.1263  0.1136
 1881SOL    HW115747   2.286   4.833   0.611 -1.9759 -0.3965 -0.5042
 1881SOL    HW215748   2.372   4.879   0.481 -0.7764 -1.1055  0.0241
 1882SOL     OW15749   0.557   3.788   1.501  0.5711  0.1537 -0.3938
 1882SOL    HW115750   0.646   3.749   1.477  1.6266  1.2926  1.4656
 1882SOL    HW215751   0.538   3.867   1.442  0.3846 -0.6214 -1.3738
 1883SOL     OW15752   0.842   5.730   2.196 -0.1761 -0.2863  0.9348
 1883SOL    HW115753   0.762   5.670   2.206 -2.0566  1.7274 -1.1302
 1883SOL    HW215754   0.912   5.684   2.141 -1.9769 -0.3277 -1.4178
 1884SOL     OW15755   2.413   0.355   1.210  0.2765 -0.1791 -0.1548
 1884SOL    HW115756   2.473   0.391   1.281  1.2323  1.0005 -1.5101
 1884SOL    HW215757   2.468   0.304   1.143 -0.6156 -1.3772  0.0085
 1885SOL     OW15758   9.951   6.141   0.238  0.5022  0.1308 -0.4589
 1885SOL    HW115759  10.016   6.082   0.188 -0.2544 -0.7926 -0.3715
 1885SOL    HW215760   9.860   6.130   0.199  0.0887  0.1632  0.4946
 1886SOL     OW15761   0.702   4.778   2.192 -0.1525 -0.4760 -0.7823
 1886SOL    HW115762   0.609   4.770   2.156 -0.1976  0.3889 -0.8765
 1886SOL    HW215763   0.699   4.812   2.286  0.0875  0.1026 -0.9797
 1887SOL     OW15764   1.129   9.998   0.287 -0.1045 -0.6390 -0.0026
 1887SOL    HW115765   1.100   9.941   0.365 -1.2695  0.3317  0.2973
 1887SOL    HW215766   1.227  10.017   0.294 -0.4950  0.7501  2.1135
 1888SOL     OW15767   0.712   3.110   2.184  0.5056 -0.0849 -0.2185
 1888SOL    HW115768   0.682   3.205   2.184 -1.8173 -0.7557  1.4999
 1888SOL    HW215769   0.660   3.059   2.115  0.6381 -0.4032 -0.0850
 1889SOL     OW15770   0.698   9.055   1.865  0.2012  0.2547 -0.1902
 1889SOL    HW115771   0.752   9.003   1.932 -0.3565 -1.1082 -0.7692
 1889SOL    HW215772   0.675   8.995   1.789 -1.3665  1.0864 -0.3744
 1890SOL     OW15773   2.656   8.695   2.413  0.3974 -0.0417 -0.1512
 1890SOL    HW115774   2.750   8.729   2.403  0.6642 -0.9582 -0.7930
 1890SOL    HW215775   2.624   8.659   2.326 -1.0743  1.5387 -0.3007
 1891SOL     OW15776   8.866   0.025   1.067 -0.7915  0.6141  0.4989
 1891SOL    HW115777   8.924   0.072   1.000  1.1846  0.8092  2.3233
 1891SOL    HW215778   8.772   0.024   1.033  0.4825 -1.1635 -3.2960
 1892SOL     OW15779   8.017   0.602   1.005  0.0738 -0.3738  0.1496
 1892SOL    HW115780   8.054   0.612   0.913 -0.4803 -0.7706 -0.1133
 1892SOL    HW215781   7.939   0.663   1.016  1.6124  1.4932  1.1471
 1893SOL     OW15782   1.917   2.229   0.113 -0.1609 -0.1315 -0.6704
 1893SOL    HW115783   2.013   2.236   0.140 -0.7076  2.6431  0.7707
 1893SOL    HW215784   1.883   2.137   0.133  1.3789 -0.2394  1.7209
 1894SOL     OW15785   1.497   8.191   1.001 -0.0491 -0.0589 -0.0672
 1894SOL    HW115786   1.501   8.282   0.958 -1.3157 -0.5253 -1.2064
 1894SOL    HW215787   1.540   8.195   1.091 -1.2769  2.0021  0.4530
 1895SOL     OW15788   9.536   5.760   2.186 -0.5414 -0.1078  0.0936
 1895SOL    HW115789   9.487   5.846   2.171 -0.9177 -0.0507  1.5629
 1895SOL    HW215790   9.552   5.715   2.098 -1.7877  0.6703 -0.5445
 1896SOL     OW15791   0.712   6.144   2.123 -0.0114 -0.0020 -0.1131
 1896SOL    HW115792   0.648   6.089   2.177  0.0696  0.0106 -0.0038
 1896SOL    HW215793   0.661   6.201   2.059 -0.0903 -0.2997 -0.3179
 1897SOL     OW15794   2.121   9.154   0.366 -0.1808  0.0066 -0.3386
 1897SOL    HW115795   2.092   9.180   0.273 -2.0612  0.5760  0.3980
 1897SOL    HW215796   2.059   9.085   0.402 -0.1523  0.6423  0.9473
 1898SOL     OW15797   2.085   2.632   1.349  0.1095  0.2049  0.1844
 1898SOL    HW115798   2.095   2.671   1.441  0.6672 -0.0443  0.2283
 1898SOL    HW215799   2.175   2.620   1.307 -0.2117  1.4281 -0.8649
 1899SOL     OW15800   1.003   5.088   0.706 -0.3707 -0.1445  0.5825
 1899SOL    HW115801   0.970   5.153   0.637  1.6001  1.2161  0.8734
 1899SOL    HW215802   0.973   4.996   0.683 -3.0344  0.8103  0.0263
 1900SOL     OW15803   4.208   1.135   0.421 -0.3616  0.2912  0.4846
 1900SOL    HW115804   4.250   1.141   0.512  0.1385 -0.5243  0.3154
 1900SOL    HW215805   4.189   1.227   0.387 -0.2859  0.6121  1.2911
 1901SOL     OW15806   9.463   0.087   1.322  0.2530 -0.0003  0.1748
 1901SOL    HW115807   9.464   0.155   1.249 -0.1865  1.2490  1.3035
 1901SOL    HW215808   9.491  -0.002   1.286 -0.8690  0.3871 -1.7157
 1902SOL     OW15809   0.843   8.452   1.356  0.2669 -0.0230  0.3550
 1902SOL    HW115810   0.765   8.515   1.357 -1.1645 -1.6507 -2.6112
 1902SOL    HW215811   0.928   8.504   1.361 -0.9100  2.0828 -0.8016
 1903SOL     OW15812   1.254   7.692   1.000  0.5228  0.5947 -0.3541
 1903SOL    HW115813   1.265   7.780   1.047  0.7424 -0.0028  0.7242
 1903SOL    HW215814   1.279   7.618   1.062 -2.2162 -0.3908 -0.3624
 1904SOL     OW15815   3.219   9.233   1.557  0.6086 -0.0669  0.1032
 1904SOL    HW115816   3.205   9.327   1.589  0.8400  0.0399 -0.1041
 1904SOL    HW215817   3.232   9.234   1.457 -0.5399 -0.4399 -0.0487
 1905SOL     OW15818   4.103   4.041   0.744 -0.0383 -0.1728  0.3285
 1905SOL    HW115819   4.188   4.089   0.767  0.5589 -1.3536  0.6218
 1905SOL    HW215820   4.087   3.969   0.811 -0.4565 -0.9700 -0.6244
 1906SOL     OW15821   1.095   0.518   0.500  0.2090  0.1874  0.1193
 1906SOL    HW115822   1.175   0.573   0.479 -0.9134  1.7688 -0.1437
 1906SOL    HW215823   1.095   0.435   0.444  1.1785  0.6345 -0.5441
 1907SOL     OW15824   1.313   6.234   1.949 -0.0056  0.5771 -0.3485
 1907SOL    HW115825   1.236   6.202   2.003 -1.2741  0.5253 -2.1543
 1907SOL    HW215826   1.282   6.303   1.883  1.5465  0.8174 -0.8558
 1908SOL     OW15827   2.595   1.246   0.033  0.7045  0.0200  0.5627
 1908SOL    HW115828   2.544   1.333   0.032  1.8508  0.7088  1.2517
 1908SOL    HW215829   2.619   1.223   0.127 -0.2435 -1.4430  0.4558
 1909SOL     OW15830   8.025   8.869   1.034  0.4958  0.1578 -0.5028
 1909SOL    HW115831   8.113   8.904   1.065  0.4090  1.0558 -1.2299
 1909SOL    HW215832   8.028   8.856   0.935 -0.4415  0.9723 -0.6438
 1910SOL     OW15833   9.156   3.945   0.675  0.1966 -0.1810 -0.1276
 1910SOL    HW115834   9.092   3.873   0.701 -1.2314  1.1420  0.0590
 1910SOL    HW215835   9.165   4.010   0.750  0.2477  0.7044 -0.8911
 1911SOL     OW15836   7.867   9.191   1.967 -0.7910 -0.1485 -0.4841
 1911SOL    HW115837   7.818   9.105   1.956 -0.7758  0.1753 -3.6143
 1911SOL    HW215838   7.906   9.196   2.058 -1.9336 -2.8494  0.1978
 1912SOL     OW15839   2.540   8.004   1.465 -0.0716 -0.2222  0.0374
 1912SOL    HW115840   2.497   8.078   1.517 -0.7607 -0.4984 -0.1334
 1912SOL    HW215841   2.634   8.028   1.444 -0.3717  0.7116 -0.2315
 1913SOL     OW15842   0.538   6.347   1.995  0.1370 -0.3534  0.1764
 1913SOL    HW115843   0.473   6.422   2.005  0.0093 -0.6696  1.7529
 1913SOL    HW215844   0.519   6.297   1.910 -2.0148 -0.7937  0.8991
 1914SOL     OW15845   9.729   1.085   2.441 -0.2123  0.3946  0.1956
 1914SOL    HW115846   9.671   1.055   2.517  0.1904  0.9246  0.7166
 1914SOL    HW215847   9.725   1.018   2.367  0.6782 -0.9495  1.3542
 1915SOL     OW15848   0.397   0.091   0.869  0.0557  0.2455 -0.5578
 1915SOL    HW115849   0.380   0.148   0.788 -0.9407 -0.7841 -1.0928
 1915SOL    HW215850   0.490   0.107   0.901 -0.0201  1.7612 -1.0247
 1916SOL     OW15851   1.031   3.010   1.042 -0.0595  0.2635  0.2878
 1916SOL    HW115852   0.950   3.061   1.071 -1.1962 -0.8727 -0.8617
 1916SOL    HW215853   1.065   3.047   0.956  0.7167  0.8100  0.8258
 1917SOL     OW15854   1.947   6.542   0.287 -0.4456  0.2345  0.3179
 1917SOL    HW115855   2.012   6.487   0.340  0.1004  0.9397  0.3860
 1917SOL    HW215856   1.993   6.623   0.251 -1.0969  0.3405 -0.2935
 1918SOL     OW15857   0.483   2.781   2.548  0.0512  0.1326 -0.0727
 1918SOL    HW115858   0.476   2.684   2.572 -0.0416  0.5275  1.5769
 1918SOL    HW215859   0.405   2.830   2.586  1.4990  1.2983  1.5053
 1919SOL     OW15860   9.872   5.566   0.146 -0.0663  0.3437 -0.2399
 1919SOL    HW115861   9.868   5.469   0.173  4.1951  0.3139  0.6623
 1919SOL    HW215862   9.922   5.617   0.215  0.5857  2.5828 -2.3130
 1920SOL     OW15863   4.296   3.055   1.906 -0.3343  0.0361  0.7077
 1920SOL    HW115864   4.312   2.987   1.977 -0.3497 -1.0381 -0.3051
 1920SOL    HW215865   4.211   3.033   1.858 -0.2281  0.6604  0.2356
 1921SOL     OW15866   0.116   4.828   1.180  0.4006 -0.0455  0.2677
 1921SOL    HW115867   0.041   4.769   1.150 -0.3192  0.4946  0.9762
 1921SOL    HW215868   0.131   4.816   1.278  0.6900  0.4644  0.2897
 1922SOL     OW15869   4.177   3.415   0.431 -0.4002 -0.5179 -0.2304
 1922SOL    HW115870   4.127   3.458   0.506 -0.7706  0.4929 -1.0557
 1922SOL    HW215871   4.114   3.392   0.357  0.0337 -1.1144 -0.4278
 1923SOL     OW15872   9.193   8.455   0.646  0.0282 -0.1325 -0.0736
 1923SOL    HW115873   9.117   8.472   0.708  2.5373  1.7320  2.6686
 1923SOL    HW215874   9.193   8.524   0.574 -1.1226 -0.4221 -0.3582
 1924SOL     OW15875   0.204   6.586   0.172 -0.1732  0.2592 -0.2378
 1924SOL    HW115876   0.155   6.598   0.086 -0.3519 -0.3113 -0.2190
 1924SOL    HW215877   0.185   6.494   0.208 -1.3024  1.0190  1.1590
 1925SOL     OW15878   0.609   5.837   2.080  0.2118 -0.7340  0.5450
 1925SOL    HW115879   0.580   5.907   2.015 -0.8476 -0.3251  1.4519
 1925SOL    HW215880   0.707   5.820   2.068  0.1419 -0.2875 -0.7952
 1926SOL     OW15881   1.632   1.465   0.941  0.2035  0.1887  0.1389
 1926SOL    HW115882   1.688   1.457   0.858  1.1598  0.6995  0.7225
 1926SOL    HW215883   1.667   1.539   0.998  0.2494 -0.8636  1.5317
 1927SOL     OW15884   9.768   0.545   1.418 -0.9168  0.6159 -0.1457
 1927SOL    HW115885   9.768   0.644   1.425  0.6617  0.8794 -2.9914
 1927SOL    HW215886   9.814   0.505   1.497  1.1234  2.3197 -0.4488
 1928SOL     OW15887   9.072   6.381   0.385  0.3360 -0.2591  0.4004
 1928SOL    HW115888   9.117   6.461   0.426 -0.1024 -1.0084  2.3871
 1928SOL    HW215889   9.112   6.298   0.422 -0.2888 -0.9703 -0.4960
 1929SOL     OW15890   1.333   6.808   0.293  0.3106  0.3004  0.0998
 1929SOL    HW115891   1.410   6.863   0.259  0.3520  1.1069  1.4684
 1929SOL    HW215892   1.253   6.867   0.304 -0.1478 -0.2796 -0.1103
 1930SOL     OW15893   9.672   1.718   0.796 -0.0251  0.5587  0.5341
 1930SOL    HW115894   9.771   1.724   0.784  0.1092  1.8114  2.0433
 1930SOL    HW215895   9.650   1.634   0.845  0.2822  0.2696  0.1833
 1931SOL     OW15896   9.292   2.183   2.141 -0.2920 -0.0054 -0.5217
 1931SOL    HW115897   9.245   2.237   2.071  0.0375 -0.6484 -1.2382
 1931SOL    HW215898   9.388   2.171   2.117 -0.2373 -0.4651 -0.1026
 1932SOL     OW15899   2.446   8.124   2.539  0.2690  0.1186 -0.3616
 1932SOL    HW115900   2.391   8.055   2.586 -0.0261  1.2074  0.9272
 1932SOL    HW215901   2.513   8.163   2.602  0.7172  0.7105 -1.1852
 1933SOL     OW15902   2.403   7.991   0.492  0.1579  0.3336 -0.2549
 1933SOL    HW115903   2.305   8.007   0.508  0.1184  0.3934 -0.5563
 1933SOL    HW215904   2.415   7.911   0.434  0.3415 -0.4845  0.8844
 1934SOL     OW15905   9.589   1.776   2.213  0.4518  0.2324 -0.4848
 1934SOL    HW115906   9.509   1.747   2.266  1.0077  0.2262  0.3585
 1934SOL    HW215907   9.577   1.748   2.117  0.4387 -1.7247  0.0751
 1935SOL     OW15908   1.834   3.269   2.466 -0.2698  0.1909  0.1774
 1935SOL    HW115909   1.891   3.281   2.385  0.8949  0.9670  1.1049
 1935SOL    HW215910   1.848   3.345   2.529 -0.5297 -0.8361  1.4989
 1936SOL     OW15911   2.898   4.452   0.959 -0.3404  0.7971 -0.1917
 1936SOL    HW115912   2.825   4.466   1.026 -0.6501 -3.5430  0.5400
 1936SOL    HW215913   2.962   4.528   0.962 -1.2745  1.5032  3.8177
 1937SOL     OW15914   8.121   0.944   1.535 -0.0343  0.4683 -0.5892
 1937SOL    HW115915   8.029   0.934   1.497  0.3827  0.5249 -1.6148
 1937SOL    HW215916   8.153   0.856   1.569  0.5991 -0.1224 -2.6811
 1938SOL     OW15917   9.709   5.875   0.346 -0.3200 -0.4201 -0.6607
 1938SOL    HW115918   9.796   5.825   0.350 -0.4743 -0.5803  0.7014
 1938SOL    HW215919   9.657   5.859   0.430 -0.9934  0.9234 -0.8125
 1939SOL     OW15920   1.431   3.192   2.215 -0.1544 -0.3656 -0.1120
 1939SOL    HW115921   1.429   3.119   2.283  0.1898 -0.7206 -0.4752
 1939SOL    HW215922   1.388   3.160   2.131 -2.8657  0.9095  0.7290
 1940SOL     OW15923   1.244   6.199   1.589 -0.6153 -0.0137  0.3936
 1940SOL    HW115924   1.259   6.271   1.656  1.0495  1.3931 -1.4419
 1940SOL    HW215925   1.151   6.207   1.551 -0.3189  1.4195 -0.0630
 1941SOL     OW15926   9.704   7.057   0.222 -0.5130 -0.0435 -0.5479
 1941SOL    HW115927   9.632   7.108   0.176  0.3675  2.1974  0.5087
 1941SOL    HW215928   9.757   7.006   0.154 -1.7848 -0.0681 -1.5423
 1942SOL     OW15929   0.001   6.717   1.974  0.9935  0.1088 -0.6750
 1942SOL    HW115930   0.049   6.804   1.982  2.0411 -0.2807 -2.5541
 1942SOL    HW215931   0.039   6.664   1.898  1.1409 -2.4777  1.1192
 1943SOL     OW15932   2.699   0.589   0.588 -0.0694  0.8760 -0.0558
 1943SOL    HW115933   2.707   0.496   0.624  0.5425  1.2266  0.7276
 1943SOL    HW215934   2.623   0.593   0.522  1.6095 -0.7778 -2.1364
 1944SOL     OW15935   0.101   8.185   0.381  0.6112  0.2592 -0.8393
 1944SOL    HW115936   0.039   8.125   0.330  1.1528 -1.0475  0.0065
 1944SOL    HW215937   0.195   8.164   0.355  0.8924 -0.3707  0.6323
 1945SOL     OW15938   2.548   8.238   0.409 -0.6012  0.2582  0.2498
 1945SOL    HW115939   2.481   8.164   0.410 -0.1932 -0.1311  2.3321
 1945SOL    HW215940   2.530   8.299   0.332 -3.1524 -0.0143  0.5870
 1946SOL     OW15941   0.342   9.386   0.184 -0.1190 -0.3314 -0.5328
 1946SOL    HW115942   0.326   9.363   0.280 -1.3410 -0.2263 -0.7126
 1946SOL    HW215943   0.261   9.431   0.146  0.2536 -0.6315 -1.7007
 1947SOL     OW15944   9.673   0.143   2.374 -0.0199  0.8621  0.1032
 1947SOL    HW115945   9.612   0.088   2.430  0.2339 -1.3165 -1.6909
 1947SOL    HW215946   9.620   0.201   2.313 -0.2868  0.9051  0.3748
 1948SOL     OW15947   3.319   4.907   1.843  0.0314 -0.1558  0.0194
 1948SOL    HW115948   3.405   4.945   1.876 -1.5132  1.3904  2.3619
 1948SOL    HW215949   3.315   4.916   1.743  2.6062 -0.3878 -0.1428
 1949SOL     OW15950   8.301   1.728   2.477  0.5799 -0.5575 -0.3014
 1949SOL    HW115951   8.292   1.630   2.494  1.2745 -0.6509 -0.4661
 1949SOL    HW215952   8.342   1.772   2.557  0.6663 -0.4616 -0.3993
 1950SOL     OW15953   9.144   3.882   2.141  0.1580  0.4850 -0.1512
 1950SOL    HW115954   9.051   3.881   2.178  0.1774  1.7517 -0.0249
 1950SOL    HW215955   9.162   3.972   2.100  0.4010 -0.6463 -2.5668
 1951SOL     OW15956   1.478   8.252   1.848  0.4682  0.0783 -0.1418
 1951SOL    HW115957   1.469   8.318   1.774  0.7213 -0.3745 -0.5803
 1951SOL    HW215958   1.555   8.279   1.907  0.2585  0.4446 -0.0345
 1952SOL     OW15959   3.833   0.622   0.693 -0.3043  0.1136 -0.1666
 1952SOL    HW115960   3.811   0.680   0.772 -0.5637  0.4050 -0.4499
 1952SOL    HW215961   3.815   0.672   0.609 -2.0425 -0.9145 -0.4311
 1953SOL     OW15962   0.845   4.630   1.567  0.2398 -0.1486  0.0640
 1953SOL    HW115963   0.759   4.676   1.545 -0.4100 -0.9392  0.9243
 1953SOL    HW215964   0.921   4.680   1.525 -0.7739 -0.4727 -2.2340
 1954SOL     OW15965   1.119   6.627   2.066 -0.0939  0.4986  0.2186
 1954SOL    HW115966   1.195   6.679   2.105  0.5420  0.5387 -1.0696
 1954SOL    HW215967   1.104   6.655   1.971 -0.2483 -1.1216 -0.2452
 1955SOL     OW15968   2.062   8.100   1.364  0.4933 -0.5477 -0.2291
 1955SOL    HW115969   2.082   8.197   1.369  0.7097 -0.6508  1.2507
 1955SOL    HW215970   2.134   8.053   1.313  2.5136 -0.4918  2.4913
 1956SOL     OW15971   8.455   8.197   2.431  0.4448 -0.0126  0.0415
 1956SOL    HW115972   8.470   8.147   2.516  0.7865  0.4441  0.2485
 1956SOL    HW215973   8.396   8.276   2.448  0.5195  0.0847 -0.1465
 1957SOL     OW15974   0.449   4.902   0.187 -0.1936  0.3751  0.2996
 1957SOL    HW115975   0.470   4.807   0.166 -1.6228  0.0421  0.3001
 1957SOL    HW215976   0.366   4.929   0.137  0.1478  1.5904  0.3760
 1958SOL     OW15977   9.768   6.977   2.391 -0.3633  0.0586 -0.1501
 1958SOL    HW115978   9.706   6.903   2.364 -1.0128  0.7438 -0.5605
 1958SOL    HW215979   9.770   7.046   2.319  0.8625  0.0538 -0.1199
 1959SOL     OW15980   3.583   1.220   1.916  0.1710 -0.0065 -0.2138
 1959SOL    HW115981   3.544   1.308   1.941 -0.5537 -0.3551 -0.0870
 1959SOL    HW215982   3.627   1.179   1.996 -3.2578 -1.6974  0.9209
 1960SOL     OW15983   0.877   0.282   1.344  0.1386 -0.4779 -0.1963
 1960SOL    HW115984   0.887   0.374   1.381  0.7903 -1.4098  1.9781
 1960SOL    HW215985   0.966   0.237   1.341 -0.5826 -2.0951  1.5699
 1961SOL     OW15986   3.533   4.953   0.117 -0.5829  0.2037 -0.1644
 1961SOL    HW115987   3.529   4.854   0.122  0.2557  0.2824  2.5816
 1961SOL    HW215988   3.517   4.993   0.207 -0.1365  2.5402 -1.0617
 1962SOL     OW15989   0.724   2.071   0.849 -0.1415 -0.4288 -0.2463
 1962SOL    HW115990   0.783   2.017   0.909 -0.0089  0.8143  0.7506
 1962SOL    HW215991   0.667   2.010   0.795  1.0039 -1.6105 -0.1501
 1963SOL     OW15992   2.810   2.295   0.224 -0.4194  0.2980 -0.2715
 1963SOL    HW115993   2.737   2.307   0.157  0.3813 -1.2500 -1.4633
 1963SOL    HW215994   2.772   2.253   0.307 -1.0403  0.3064 -0.5498
 1964SOL     OW15995   9.225   7.103   0.802 -0.9558  0.6418 -0.0695
 1964SOL    HW115996   9.317   7.136   0.824 -0.5418  0.1003 -0.9483
 1964SOL    HW215997   9.179   7.073   0.886 -0.0580  0.2275  0.2716
 1965SOL     OW15998   1.243   7.247   1.198 -0.3204  0.5013  0.1336
 1965SOL    HW115999   1.228   7.203   1.286  1.2558  1.0005  0.6584
 1965SOL    HW216000   1.273   7.179   1.131 -1.3774  0.1486  0.0143
 1966SOL     OW16001   2.548   8.978   2.479  0.1042 -0.1695 -0.1005
 1966SOL    HW116002   2.610   9.033   2.536 -0.1781  1.0828 -0.9650
 1966SOL    HW216003   2.564   8.881   2.495  1.8288  0.1522  0.1918
 1967SOL     OW16004   3.146   0.116   1.349 -0.1644 -0.1406 -0.1864
 1967SOL    HW116005   3.165   0.049   1.420  0.6369 -0.7853 -1.0055
 1967SOL    HW216006   3.201   0.198   1.364 -0.9503  0.2465  0.6629
 1968SOL     OW16007   0.219   8.305   1.652  0.2122  0.0190  0.3019
 1968SOL    HW116008   0.182   8.298   1.745 -3.1663  0.2479 -0.9517
 1968SOL    HW216009   0.165   8.248   1.591  1.9683  0.4246 -1.6775
 1969SOL     OW16010   9.647   2.526   0.742  0.3880 -0.0695  0.2869
 1969SOL    HW116011   9.683   2.585   0.669 -1.2063  1.7854  0.9660
 1969SOL    HW216012   9.594   2.452   0.701  1.6114 -0.5138 -0.5368
 1970SOL     OW16013   3.545   3.575   0.619  0.0032 -0.1948 -0.3433
 1970SOL    HW116014   3.470   3.620   0.570  0.0088 -0.3257 -0.4741
 1970SOL    HW216015   3.508   3.518   0.692  0.1128  1.8815  1.3761
 1971SOL     OW16016   8.070   9.716   1.078 -0.2356  0.2120  0.5158
 1971SOL    HW116017   8.001   9.646   1.060  1.4943 -0.7698 -2.6546
 1971SOL    HW216018   8.090   9.719   1.176 -2.6864 -1.4227  1.1133
 1972SOL     OW16019   4.301   4.312   0.561 -0.0987 -0.0159  0.1684
 1972SOL    HW116020   4.315   4.294   0.658 -1.3141 -0.5874  0.2452
 1972SOL    HW216021   4.342   4.400   0.536 -0.4758  0.4920  1.3534
 1973SOL     OW16022   4.894   4.111   0.923  0.4815 -0.0662 -0.0924
 1973SOL    HW116023   4.868   4.191   0.978 -0.5214 -0.6359  0.2870
 1973SOL    HW216024   4.941   4.142   0.840 -0.0782  0.9329 -0.0549
 1974SOL     OW16025   1.707   3.022   1.993  0.3179 -0.2080 -1.0534
 1974SOL    HW116026   1.755   3.084   1.930  3.3529 -0.6822  0.7252
 1974SOL    HW216027   1.679   3.073   2.074  2.2555 -0.9628  0.1254
 1975SOL     OW16028   8.238   7.485   1.550  0.2848  0.3416 -0.1790
 1975SOL    HW116029   8.252   7.584   1.542  0.3335  0.2332 -1.5380
 1975SOL    HW216030   8.226   7.446   1.459 -1.0129 -0.7237  0.4434
 1976SOL     OW16031   9.731   0.390   1.980 -0.2133 -0.5538 -0.4889
 1976SOL    HW116032   9.800   0.320   1.963 -0.0261 -0.2542 -0.9782
 1976SOL    HW216033   9.686   0.414   1.894 -0.4527 -0.2597 -0.2819
 1977SOL     OW16034   4.240   1.421   0.268  0.3863  0.1557 -0.5349
 1977SOL    HW116035   4.286   1.402   0.181  0.1497  1.3492 -0.9320
 1977SOL    HW216036   4.218   1.519   0.273 -1.5863 -0.3050 -0.0901
 1978SOL     OW16037   2.819   5.529   1.844  0.0902  0.1845  0.0584
 1978SOL    HW116038   2.790   5.438   1.876  1.2650 -0.1066  0.3375
 1978SOL    HW216039   2.795   5.598   1.912 -1.3625  0.1711 -0.4335
 1979SOL     OW16040   0.992   4.778   0.614  0.3459 -0.2066  0.0926
 1979SOL    HW116041   1.088   4.806   0.621  0.6897 -0.5544 -2.6023
 1979SOL    HW216042   0.987   4.678   0.603 -0.0630  0.1283 -3.2853
 1980SOL     OW16043   3.238   5.315   1.049  0.1073  0.1345 -0.6370
 1980SOL    HW116044   3.228   5.216   1.052  2.5479 -0.1133  1.6394
 1980SOL    HW216045   3.173   5.357   1.112 -0.0251 -0.1286 -0.5956
 1981SOL     OW16046   9.356   1.053   2.423 -0.0599 -0.5777  0.6815
 1981SOL    HW116047   9.409   1.014   2.499  0.0490 -0.7485  0.5198
 1981SOL    HW216048   9.281   0.991   2.400  1.8261 -2.1191 -1.4820
 1982SOL     OW16049   9.666   3.797   1.368  0.2335 -0.1889 -0.8788
 1982SOL    HW116050   9.669   3.897   1.362  1.3706 -0.2218 -0.8490
 1982SOL    HW216051   9.571   3.768   1.382 -0.0464  0.9093 -0.4336
 1983SOL     OW16052   2.301   5.565   0.925 -0.3798  0.1021  0.0768
 1983SOL    HW116053   2.275   5.612   0.842  0.8172  0.6778  0.0119
 1983SOL    HW216054   2.266   5.614   1.005 -0.4598  0.2423 -0.0460
 1984SOL     OW16055   2.596   7.110   2.168  0.1928  0.3958  0.0056
 1984SOL    HW116056   2.567   7.117   2.264  2.5915  1.7695  0.6704
 1984SOL    HW216057   2.593   7.200   2.125 -0.1206 -0.0838 -1.0065
 1985SOL     OW16058   4.913   4.066   0.069 -0.2419  0.0518  0.5244
 1985SOL    HW116059   4.966   4.075   0.154 -0.5171 -2.1715  0.9516
 1985SOL    HW216060   4.974   4.039  -0.005 -0.4233 -0.4210  0.5489
 1986SOL     OW16061   1.642   4.984   1.226 -0.5333  0.0616  0.0785
 1986SOL    HW116062   1.695   4.942   1.300 -0.4537 -0.6734 -0.3886
 1986SOL    HW216063   1.562   5.029   1.264 -1.3020 -1.6145  0.4755
 1987SOL     OW16064   9.905   2.181   2.545 -0.1864  0.5637  0.1215
 1987SOL    HW116065   9.977   2.181   2.614  1.4543  0.3014 -1.5612
 1987SOL    HW216066   9.817   2.161   2.590  0.3868  3.1197  2.5261
 1988SOL     OW16067   8.937   1.807   0.045  0.0213 -0.1080 -0.0190
 1988SOL    HW116068   8.864   1.814  -0.023  0.8219 -1.2507 -0.9901
 1988SOL    HW216069   8.999   1.885   0.035 -0.6754  0.5075  0.3735
 1989SOL     OW16070   0.739   1.653   1.926  0.4317 -0.4608  0.1135
 1989SOL    HW116071   0.670   1.583   1.946 -0.0556  0.2617  1.0044
 1989SOL    HW216072   0.780   1.685   2.011  0.3149  0.6631 -0.2468
 1990SOL     OW16073   0.970   6.027   2.541  0.1602  0.8623  0.6165
 1990SOL    HW116074   0.969   6.021   2.441 -0.3718  0.4774  0.6459
 1990SOL    HW216075   0.993   5.937   2.579  1.3800  1.2533  0.8140
 1991SOL     OW16076   4.093   8.447   2.543 -0.3103 -0.2457 -0.2593
 1991SOL    HW116077   4.147   8.530   2.530  0.2631 -0.2742  1.7373
 1991SOL    HW216078   4.094   8.422   2.640 -1.2949 -2.0351 -0.6936
 1992SOL     OW16079   9.424   9.234   2.053 -0.2471 -0.2319  0.0755
 1992SOL    HW116080   9.359   9.240   1.978  0.8088 -0.8727 -0.9025
 1992SOL    HW216081   9.440   9.138   2.077  1.4812 -0.1778 -0.7364
 1993SOL     OW16082   2.293   7.075   0.621 -0.4524  0.7664 -0.0113
 1993SOL    HW116083   2.381   7.117   0.645  0.2545 -0.3659 -0.6031
 1993SOL    HW216084   2.262   7.018   0.696 -0.7661  1.2868  0.2593
 1994SOL     OW16085   0.456   6.091   0.602 -0.1296 -0.3088 -0.3969
 1994SOL    HW116086   0.449   6.144   0.517  0.3141 -0.8579 -0.7803
 1994SOL    HW216087   0.552   6.080   0.626 -0.2029 -1.2838 -0.5367
 1995SOL     OW16088   8.421   0.864   0.305  0.8553 -0.5066  0.7945
 1995SOL    HW116089   8.344   0.811   0.270  1.0032 -0.5074  0.4630
 1995SOL    HW216090   8.505   0.813   0.292  1.0009 -0.1845  0.4565
 1996SOL     OW16091   0.057   5.969   0.908 -0.0623  0.3621  0.3133
 1996SOL    HW116092   0.065   5.877   0.869  1.5986  1.5959 -2.4226
 1996SOL    HW216093   0.141   5.993   0.956 -0.2480  0.6655  0.4867
 1997SOL     OW16094   0.560   0.820   1.690 -0.5513  0.7071  0.1678
 1997SOL    HW116095   0.568   0.722   1.708  0.5594  0.8218  0.3184
 1997SOL    HW216096   0.473   0.838   1.645 -0.8315 -0.3311  0.2725
 1998SOL     OW16097   0.818   5.724   1.174  0.2507 -0.1610 -0.4892
 1998SOL    HW116098   0.757   5.665   1.227  0.4059 -1.3690 -1.6283
 1998SOL    HW216099   0.780   5.738   1.083  0.7830  0.5622 -0.6061
 1999SOL     OW16100   2.317   3.771   1.107  0.1850 -0.1241 -0.1642
 1999SOL    HW116101   2.225   3.758   1.144 -0.0479 -0.8110 -0.9561
 1999SOL    HW216102   2.317   3.850   1.045  0.4239  0.6340  0.7998
 2000SOL     OW16103   3.663   5.205   2.495  0.1632  0.2364  0.1878
 2000SOL    HW116104   3.589   5.148   2.460  0.4374  1.7048 -2.9046
 2000SOL    HW216105   3.740   5.147   2.520 -0.6016 -0.9821 -0.1983
 2001SOL     OW16106   9.386   3.503   1.225  0.4807 -0.0347  0.0839
 2001SOL    HW116107   9.297   3.540   1.196  0.9245  0.3383 -0.8263
 2001SOL    HW216108   9.404   3.530   1.320  0.5363  1.6335 -0.3782
 2002SOL     OW16109   3.932   4.738   0.557 -0.6253  0.1450  0.4501
 2002SOL    HW116110   3.951   4.780   0.468  1.0246  1.9334  1.6047
 2002SOL    HW216111   4.005   4.673   0.579 -0.9344 -0.1639  0.5565
 2003SOL     OW16112   0.903   6.138   0.470 -0.4542 -0.5525  0.6014
 2003SOL    HW116113   0.902   6.131   0.371  2.4935  0.6146  0.4354
 2003SOL    HW216114   0.905   6.234   0.497 -1.6517 -0.8489  1.8026
 2004SOL     OW16115   3.971   0.606   0.095 -0.2198  0.0865  0.5539
 2004SOL    HW116116   3.955   0.570   0.003  0.5624  0.6503  0.1838
 2004SOL    HW216117   3.912   0.559   0.160 -2.0878  0.9171 -0.4935
 2005SOL     OW16118   8.895   3.698   1.379 -0.1777  0.2132  0.1532
 2005SOL    HW116119   8.951   3.698   1.462 -0.2525 -0.6313  0.2131
 2005SOL    HW216120   8.935   3.635   1.312 -1.4192 -0.9237  0.4580
 2006SOL     OW16121   8.498   8.113   1.812 -0.0660 -0.2161  0.3130
 2006SOL    HW116122   8.520   8.106   1.910  0.2350 -0.3473  0.2363
 2006SOL    HW216123   8.400   8.101   1.800  0.0478 -1.4819  0.4879
 2007SOL     OW16124   4.786   2.634   1.147 -0.0958 -0.1282  0.5841
 2007SOL    HW116125   4.802   2.535   1.151  2.2665  0.2569  0.9753
 2007SOL    HW216126   4.850   2.676   1.082 -0.9687  1.1893  0.5477
 2008SOL     OW16127   9.755   2.099   1.698 -0.3123  0.4854 -0.0566
 2008SOL    HW116128   9.804   2.123   1.615 -1.8541  0.8865 -0.8743
 2008SOL    HW216129   9.791   2.014   1.735 -0.2224 -0.1809 -1.6534
 2009SOL     OW16130   9.554   9.809   2.203 -0.2886  0.2052 -0.0888
 2009SOL    HW116131   9.486   9.787   2.273 -0.2479  1.5872  0.4018
 2009SOL    HW216132   9.642   9.770   2.229 -0.8027 -1.3203 -0.5657
 2010SOL     OW16133   1.979   2.700   1.794 -0.2840  0.5438  0.2776
 2010SOL    HW116134   1.988   2.601   1.803 -0.3155  0.3951 -1.2173
 2010SOL    HW216135   2.005   2.744   1.880 -2.8599 -0.9063  1.8674
 2011SOL     OW16136   8.995   7.501   2.081 -0.3353  0.1632  0.7837
 2011SOL    HW116137   8.954   7.424   2.030  0.0276  0.1928  0.4506
 2011SOL    HW216138   9.094   7.489   2.086 -0.2927  0.5408  0.8507
 2012SOL     OW16139   8.124   1.271   1.848  0.4316  0.4375  0.4020
 2012SOL    HW116140   8.060   1.198   1.873 -0.5237  1.0814 -0.1437
 2012SOL    HW216141   8.124   1.341   1.919  1.3043 -0.0501  0.8974
 2013SOL     OW16142   0.679   4.442   0.579 -0.2043  0.6910  0.1404
 2013SOL    HW116143   0.616   4.519   0.570 -0.6396  0.3593  0.3211
 2013SOL    HW216144   0.627   4.358   0.593  0.2695  0.3708 -0.0036
 2014SOL     OW16145   8.658   1.594   2.425 -0.4895  0.2845  0.6637
 2014SOL    HW116146   8.651   1.692   2.444 -0.8700  0.3522  0.1944
 2014SOL    HW216147   8.611   1.573   2.339 -1.0581 -0.4275  1.1341
 2015SOL     OW16148   0.285   7.308   2.030 -0.3083  0.7776 -0.5769
 2015SOL    HW116149   0.355   7.379   2.043  0.6842 -0.1855 -0.5461
 2015SOL    HW216150   0.224   7.335   1.955  1.1338  0.8730 -1.7559
 2016SOL     OW16151   1.606   3.642   0.779 -0.7413 -0.1939 -1.3830
 2016SOL    HW116152   1.574   3.561   0.829 -0.7284 -0.1080 -1.2343
 2016SOL    HW216153   1.601   3.624   0.681  0.4103 -0.8156 -1.3356
 2017SOL     OW16154   9.094   7.234   1.913 -0.4660  0.0281 -0.6433
 2017SOL    HW116155   9.013   7.236   1.855 -0.9412  0.4106  0.0189
 2017SOL    HW216156   9.144   7.149   1.899 -0.9890 -0.2117 -1.0532
 2018SOL     OW16157   1.379   7.594   0.724  0.1983  0.4594 -0.1523
 2018SOL    HW116158   1.387   7.648   0.808 -0.3272 -0.7784  0.7019
 2018SOL    HW216159   1.458   7.533   0.716 -0.1373  0.0332 -0.1807
 2019SOL     OW16160   0.735   5.874   2.568  0.0939 -0.0848  0.3237
 2019SOL    HW116161   0.787   5.863   2.653 -0.9706 -0.6761  0.9112
 2019SOL    HW216162   0.710   5.970   2.556 -0.1365 -0.0683  0.9140
 2020SOL     OW16163   4.395   4.135   1.723 -0.5207 -0.4762  0.6067
 2020SOL    HW116164   4.325   4.082   1.675 -0.9965  1.5214 -0.9636
 2020SOL    HW216165   4.363   4.154   1.816 -0.5152 -2.5520  1.0617
 2021SOL     OW16166   1.559   8.755   0.192 -1.0275 -0.1289 -0.4270
 2021SOL    HW116167   1.520   8.676   0.145  0.2318  0.2633 -2.1568
 2021SOL    HW216168   1.641   8.786   0.144  0.0413  0.5597  1.7922
 2022SOL     OW16169   9.650   5.723   1.236  0.0731 -0.1655 -0.3362
 2022SOL    HW116170   9.663   5.626   1.255  1.5755  0.1873  0.4880
 2022SOL    HW216171   9.586   5.761   1.302 -0.0576 -0.4582 -0.2935
 2023SOL     OW16172   8.666   0.085   2.355  0.4022 -0.0014  0.4760
 2023SOL    HW116173   8.643   0.047   2.444 -1.1269 -1.1105 -0.3627
 2023SOL    HW216174   8.663   0.013   2.286 -0.7842  1.2807 -0.8637
 2024SOL     OW16175   1.160   1.673   2.531 -0.3553  0.8170 -0.3751
 2024SOL    HW116176   1.072   1.628   2.545  0.8049 -1.1902  0.6923
 2024SOL    HW216177   1.187   1.721   2.614  0.3194  0.0091 -0.1112
 2025SOL     OW16178   2.506   8.992   0.268 -0.0698  0.2466  0.5763
 2025SOL    HW116179   2.586   9.024   0.219 -0.7027  2.3082  0.8666
 2025SOL    HW216180   2.450   8.935   0.208  0.8299  0.0513 -0.0788
 2026SOL     OW16181   9.954   6.920   0.619  0.0983 -0.3311 -0.0443
 2026SOL    HW116182  10.040   6.881   0.586  0.8449  1.8387 -0.7818
 2026SOL    HW216183   9.958   6.932   0.718 -0.3315 -2.4983  0.2683
 2027SOL     OW16184   1.612   7.498   1.751  0.0775 -0.4160 -0.0207
 2027SOL    HW116185   1.652   7.568   1.810 -0.0722 -1.3779  1.2456
 2027SOL    HW216186   1.686   7.448   1.704  0.1519  1.2060 -1.6857
 2028SOL     OW16187   2.134   9.264   0.996 -0.1974 -0.0757  0.3082
 2028SOL    HW116188   2.116   9.282   0.900  1.1584  1.1761  0.2831
 2028SOL    HW216189   2.220   9.214   1.006  1.0867  2.2262  1.0338
 2029SOL     OW16190   1.000   4.042   1.207 -0.0458 -0.5322  0.2197
 2029SOL    HW116191   0.909   4.023   1.171  0.5792 -0.6213 -1.3293
 2029SOL    HW216192   1.060   3.963   1.192  0.6928  0.0792 -0.1125
 2030SOL     OW16193   2.310   6.375   0.945  0.2539 -0.1100 -0.4049
 2030SOL    HW116194   2.224   6.340   0.907 -0.0040 -0.3971  0.4376
 2030SOL    HW216195   2.364   6.417   0.871 -0.6269  0.1213 -0.9345
 2031SOL     OW16196   9.933   5.295   0.119 -0.4040  0.4270  0.2291
 2031SOL    HW116197   9.845   5.299   0.071 -0.5469  0.1470  0.4608
 2031SOL    HW216198   9.926   5.228   0.193  0.0529  0.2966  0.1517
 2032SOL     OW16199   0.226   7.626   1.612  0.7805 -0.0092  0.1856
 2032SOL    HW116200   0.306   7.582   1.570  0.4299  0.6928 -1.2664
 2032SOL    HW216201   0.236   7.726   1.604 -0.8235  0.0658 -1.1422
 2033SOL     OW16202   0.528   2.657   2.243  0.1444 -0.3673  0.3840
 2033SOL    HW116203   0.476   2.572   2.237  0.3515 -0.3532 -2.1954
 2033SOL    HW216204   0.464   2.734   2.256 -0.3926 -0.5162 -1.2217
 2034SOL     OW16205   2.795   7.473   0.727 -0.3426 -0.3878 -0.3605
 2034SOL    HW116206   2.708   7.444   0.767 -1.0581  1.7349 -0.2961
 2034SOL    HW216207   2.825   7.558   0.771  1.9071 -1.2175 -0.2120
 2035SOL     OW16208   3.911   8.729   0.029  0.7887 -0.1866  0.7237
 2035SOL    HW116209   3.879   8.654   0.087  0.0035  1.1466  2.0413
 2035SOL    HW216210   3.986   8.777   0.075  0.9009  0.1960  0.1472
 2036SOL     OW16211   0.377   8.266   2.470 -0.2068 -0.4377 -0.6232
 2036SOL    HW116212   0.319   8.321   2.410 -0.4095 -0.4845 -0.4678
 2036SOL    HW216213   0.473   8.293   2.457 -0.1154 -1.3312 -1.9100
 2037SOL     OW16214   8.267   0.671   0.220  0.2990  0.2519  0.1529
 2037SOL    HW116215   8.264   0.640   0.125 -0.1503  1.3330 -0.1953
 2037SOL    HW216216   8.292   0.594   0.280  1.7946 -0.1581 -0.9644
 2038SOL     OW16217   0.829   1.607   2.309 -0.1910  0.0446  0.1924
 2038SOL    HW116218   0.816   1.692   2.257 -0.7905  0.2417  0.6518
 2038SOL    HW216219   0.835   1.628   2.407  1.1743 -0.3025  0.1941
 2039SOL     OW16220   0.148   4.586   0.140  0.0162  0.0616 -0.4968
 2039SOL    HW116221   0.127   4.489   0.124  1.2139 -0.2520 -0.2123
 2039SOL    HW216222   0.125   4.610   0.234  2.4879 -0.7225  0.3344
 2040SOL     OW16223   1.008   7.037   1.551  0.0521  0.0345 -0.2575
 2040SOL    HW116224   1.005   6.946   1.510  1.0669 -0.0738 -0.1011
 2040SOL    HW216225   1.088   7.087   1.518  0.9210 -0.0713  1.6196
 2041SOL     OW16226   2.021   5.271   0.802 -0.4152  0.3011 -0.3040
 2041SOL    HW116227   1.942   5.210   0.799  0.2715 -0.8373  2.5471
 2041SOL    HW216228   2.094   5.229   0.857  0.7741  2.8836  0.1948
 2042SOL     OW16229   1.123   0.726   2.080 -0.4455 -0.4300 -0.2005
 2042SOL    HW116230   1.118   0.824   2.095  2.0032 -0.5300  1.3803
 2042SOL    HW216231   1.146   0.708   1.984  0.3166  0.5530 -0.2061
 2043SOL     OW16232   0.095   4.390   1.713  0.2358  0.0561 -0.6575
 2043SOL    HW116233   0.164   4.460   1.731 -1.0758  0.7552  1.8746
 2043SOL    HW216234   0.140   4.304   1.690  2.0109  0.3565  1.5117
 2044SOL     OW16235   0.775   5.404   1.024  0.4354  0.0624  0.7006
 2044SOL    HW116236   0.713   5.326   1.027 -0.3139  0.6367  0.4700
 2044SOL    HW216237   0.721   5.488   1.015  1.2849  0.5080 -0.2712
 2045SOL     OW16238   7.259   9.353   0.236 -0.1745 -0.4722 -0.2802
 2045SOL    HW116239   7.318   9.399   0.170 -1.2265  0.4934 -0.5554
 2045SOL    HW216240   7.311   9.281   0.282  1.4999  0.9450  0.1293
 2046SOL     OW16241   9.511   6.485   1.738  0.4551  0.6123 -0.2456
 2046SOL    HW116242   9.438   6.486   1.806  0.3845  2.7238 -0.3190
 2046SOL    HW216243   9.591   6.438   1.775 -0.0757  0.5128  0.7727
 2047SOL     OW16244   9.268   5.788   0.186  0.4289 -0.8405  0.4547
 2047SOL    HW116245   9.285   5.694   0.217  0.6467 -0.4535  1.5252
 2047SOL    HW216246   9.347   5.845   0.209 -0.3425 -0.0652  1.1738
 2048SOL     OW16247   1.767   2.088   1.077  0.0716 -0.1887  0.0674
 2048SOL    HW116248   1.672   2.057   1.088 -0.1779  0.1092 -1.1547
 2048SOL    HW216249   1.822   2.056   1.154 -0.4312 -2.6862 -0.5582
 2049SOL     OW16250   2.358   4.010   0.341 -0.1984 -0.2357 -0.2448
 2049SOL    HW116251   2.418   4.089   0.346 -0.8807  0.1797  1.5581
 2049SOL    HW216252   2.398   3.934   0.392 -0.5383 -0.4100 -0.2359
 2050SOL     OW16253   2.011   1.443   0.547  0.2691 -0.2151  0.2976
 2050SOL    HW116254   2.034   1.508   0.620 -0.4365 -0.5498  0.8251
 2050SOL    HW216255   1.923   1.468   0.507  0.7124  0.0370 -0.5307
 2051SOL     OW16256   4.348   3.255   0.799  0.2430 -0.1352  0.1198
 2051SOL    HW116257   4.417   3.321   0.769  0.4457 -0.9859 -1.2747
 2051SOL    HW216258   4.306   3.211   0.720 -2.4848  0.9348  0.8950
 2052SOL     OW16259   4.027   2.568   0.776 -0.4252 -0.5943 -0.4314
 2052SOL    HW116260   3.949   2.541   0.834  0.9358  0.8714  2.1640
 2052SOL    HW216261   4.059   2.658   0.804  3.8275 -2.2355  0.2822
 2053SOL     OW16262   0.293   6.106   2.138 -0.2819 -0.2270  0.0260
 2053SOL    HW116263   0.323   6.190   2.092 -1.5887 -0.1216 -0.6510
 2053SOL    HW216264   0.240   6.129   2.219 -0.4635 -0.4026 -0.0428
 2054SOL     OW16265   2.560   7.422   2.568 -0.0946 -0.2492  0.1327
 2054SOL    HW116266   2.633   7.481   2.605  0.9266 -1.8113  0.6652
 2054SOL    HW216267   2.547   7.344   2.629 -0.9550 -0.9472 -0.9376
 2055SOL     OW16268   1.122   6.585   0.415 -0.0847  0.2264 -0.0058
 2055SOL    HW116269   1.079   6.624   0.334  0.2126 -1.2655 -0.9140
 2055SOL    HW216270   1.202   6.531   0.387  0.1550 -0.1103  1.2963
 2056SOL     OW16271   3.693   3.757   0.351  0.2953 -0.5123  0.2679
 2056SOL    HW116272   3.757   3.832   0.369  1.3162 -1.2439 -0.2787
 2056SOL    HW216273   3.606   3.795   0.318  0.3648  0.4975  1.1819
 2057SOL     OW16274   1.622   9.656   2.461 -0.1189  0.4080  0.0636
 2057SOL    HW116275   1.625   9.602   2.377  1.4341  0.5168  0.0248
 2057SOL    HW216276   1.660   9.603   2.536 -2.6478 -0.1378  0.9792
 2058SOL     OW16277   1.385   6.005   1.453  0.2696 -0.3614  0.3864
 2058SOL    HW116278   1.468   6.021   1.507  0.7465 -0.9900 -0.1536
 2058SOL    HW216279   1.304   6.028   1.508  0.6401 -3.1082  2.1451
 2059SOL     OW16280   1.475   6.035   1.899  0.6079 -0.0806  0.2506
 2059SOL    HW116281   1.425   5.953   1.870  1.5249 -1.2545  1.8559
 2059SOL    HW216282   1.413   6.113   1.903 -0.1201 -0.5190 -2.0587
 2060SOL     OW16283   1.975   2.815   0.525  0.4754 -0.3420 -0.3230
 2060SOL    HW116284   1.888   2.801   0.477  1.7115 -0.3282 -2.6344
 2060SOL    HW216285   1.983   2.911   0.551  1.0138  0.2633 -2.6106
 2061SOL     OW16286   3.499   9.956   0.931 -0.2234 -0.6657 -0.3740
 2061SOL    HW116287   3.429   9.982   0.864  0.2485 -0.0034 -0.6216
 2061SOL    HW216288   3.456   9.912   1.009 -0.8977 -0.4518 -0.6216
 2062SOL     OW16289   0.505   0.106   2.111 -0.0168  0.1194 -0.5356
 2062SOL    HW116290   0.537   0.046   2.037 -0.4476 -1.0825  0.2509
 2062SOL    HW216291   0.405   0.115   2.105 -0.2163 -1.0869  0.7078
 2063SOL     OW16292   8.749   1.593   1.767  0.1213  0.0257  0.1860
 2063SOL    HW116293   8.716   1.530   1.697 -1.2431 -0.2016  1.0206
 2063SOL    HW216294   8.838   1.630   1.739 -0.1613 -0.4578 -1.4068
 2064SOL     OW16295   0.705   5.941   1.762  0.1311 -0.1217 -0.5009
 2064SOL    HW116296   0.785   5.988   1.800  0.2031 -0.4107 -0.2994
 2064SOL    HW216297   0.734   5.877   1.691  0.0522 -0.0211 -0.6241
 2065SOL     OW16298   8.392   9.180   0.496  0.4202  0.3642  0.2225
 2065SOL    HW116299   8.406   9.199   0.399  0.2806  0.7418  0.2780
 2065SOL    HW216300   8.475   9.138   0.534  0.5971  0.5343  0.0219
 2066SOL     OW16301   3.613   2.559   1.204 -0.3335  0.2132 -0.0701
 2066SOL    HW116302   3.599   2.529   1.299  0.4014 -1.2690 -0.4136
 2066SOL    HW216303   3.525   2.576   1.161 -0.7653 -0.9391  0.3184
 2067SOL     OW16304   8.106   9.873   2.195  0.2390 -0.0736 -0.0668
 2067SOL    HW116305   8.080   9.841   2.103 -0.2927  3.4375 -1.1931
 2067SOL    HW216306   8.043   9.834   2.262 -0.3328 -1.4214 -1.3516
 2068SOL     OW16307   0.471   9.645   1.489 -0.1721 -0.4285 -0.1247
 2068SOL    HW116308   0.521   9.709   1.431 -0.1278  0.4051  0.8100
 2068SOL    HW216309   0.382   9.625   1.448  0.3120 -0.7455 -1.0404
 2069SOL     OW16310   0.929   1.588   1.741  0.1277 -0.3665  0.8442
 2069SOL    HW116311   0.851   1.634   1.785  0.2421  0.6274  0.0390
 2069SOL    HW216312   0.994   1.559   1.811 -1.0078 -1.3105  1.5423
 2070SOL     OW16313   1.212   5.847   0.994 -0.2414  0.1027  1.2025
 2070SOL    HW116314   1.198   5.758   1.038  1.9773 -1.0721 -0.4366
 2070SOL    HW216315   1.283   5.897   1.043 -2.4689  1.6355  3.0002
 2071SOL     OW16316   4.101   9.420   2.245  0.0227  0.0775  0.0145
 2071SOL    HW116317   4.003   9.406   2.238  0.2484 -1.4290 -0.3947
 2071SOL    HW216318   4.141   9.429   2.153  0.2241  1.0681  0.1890
 2072SOL     OW16319   9.776   0.970   0.556 -0.0949 -0.0736 -0.1116
 2072SOL    HW116320   9.756   1.068   0.558 -2.1614 -0.5075  1.7333
 2072SOL    HW216321   9.843   0.949   0.627  1.7847  0.2488 -1.7231
 2073SOL     OW16322   9.798   6.600   0.458  0.1358  0.0785 -0.1867
 2073SOL    HW116323   9.852   6.542   0.398 -0.1607  0.4837 -0.8561
 2073SOL    HW216324   9.828   6.695   0.448 -0.4908  0.2656 -0.3511
 2074SOL     OW16325   2.267   8.605   1.841 -0.4138 -0.0843  0.0224
 2074SOL    HW116326   2.263   8.596   1.941  1.0872 -0.8122  0.0336
 2074SOL    HW216327   2.262   8.702   1.816 -0.3255  0.1327  0.8241
 2075SOL     OW16328   2.836   5.037   0.591 -0.2991  0.3140 -0.4988
 2075SOL    HW116329   2.762   5.038   0.658 -0.2903 -1.1805 -0.4486
 2075SOL    HW216330   2.897   4.960   0.610 -0.1019  0.0791 -2.0220
 2076SOL     OW16331   1.048   1.480   2.227  0.7552 -0.4436 -0.0329
 2076SOL    HW116332   1.134   1.526   2.251  0.9351 -1.6571  1.7825
 2076SOL    HW216333   0.971   1.538   2.251  1.0219 -0.1443  0.1020
 2077SOL     OW16334   8.958   0.401   1.112  0.3660  0.3821  0.2772
 2077SOL    HW116335   8.865   0.378   1.087  0.7436  0.1424 -0.9218
 2077SOL    HW216336   8.973   0.380   1.209 -0.6402 -0.1095  0.3252
 2078SOL     OW16337   9.989   6.923   0.890 -0.4683 -0.0062 -0.1243
 2078SOL    HW116338  10.088   6.938   0.894 -0.4014 -0.4483 -0.0132
 2078SOL    HW216339   9.943   6.986   0.952 -0.1907 -0.3069  0.3950
 2079SOL     OW16340   8.882   0.338   1.842 -0.1895  0.3588  0.5433
 2079SOL    HW116341   8.936   0.293   1.771  0.2914  0.4487  0.8455
 2079SOL    HW216342   8.861   0.432   1.815 -1.5733 -0.1762 -0.2854
 2080SOL     OW16343   1.813   2.272   2.418 -0.1743 -0.4395 -0.0671
 2080SOL    HW116344   1.726   2.296   2.377  0.6527  1.9876 -0.4916
 2080SOL    HW216345   1.813   2.298   2.515  0.8345  1.6606 -0.6021
 2081SOL     OW16346   1.338   1.695   0.803 -0.1591  0.2727  0.3432
 2081SOL    HW116347   1.357   1.791   0.782  0.3630 -0.2855 -1.8423
 2081SOL    HW216348   1.344   1.641   0.719 -1.5246 -1.5062  1.3615
 2082SOL     OW16349   3.700   1.843   1.590  0.2675 -0.1390  0.6633
 2082SOL    HW116350   3.725   1.873   1.682  0.8815  0.7144  0.2339
 2082SOL    HW216351   3.756   1.892   1.523 -0.5639 -0.3375 -0.1892
 2083SOL     OW16352   0.249   5.495   2.427 -0.0543  0.4674  0.4850
 2083SOL    HW116353   0.159   5.538   2.423 -1.4225 -2.3819 -1.0554
 2083SOL    HW216354   0.288   5.491   2.335  0.7559 -0.1606  0.8451
 2084SOL     OW16355   9.937   7.271   1.291 -0.1670 -0.6660 -0.6255
 2084SOL    HW116356  10.025   7.308   1.319  0.1186 -2.4747  1.0358
 2084SOL    HW216357   9.865   7.338   1.309  0.8127  0.6870 -1.6696
 2085SOL     OW16358   2.304   6.102   2.266  0.4303  0.4151 -0.1420
 2085SOL    HW116359   2.390   6.078   2.222 -0.5495  0.2288 -1.9999
 2085SOL    HW216360   2.315   6.097   2.365  2.5432  0.3888 -0.3553
 2086SOL     OW16361   0.648   3.084   0.119  0.4963 -0.2639 -0.3000
 2086SOL    HW116362   0.662   3.009   0.055  1.1109 -0.9558  0.6227
 2086SOL    HW216363   0.727   3.091   0.180 -0.7979 -0.7236  1.4710
 2087SOL     OW16364   8.838   2.024   1.519 -0.0795  0.5995  0.2496
 2087SOL    HW116365   8.740   2.026   1.536 -0.5069  2.1190 -2.2019
 2087SOL    HW216366   8.855   2.021   1.421  2.3337  0.3321  0.6441
 2088SOL     OW16367   8.963   2.694   1.829 -0.0492 -0.4488  0.6875
 2088SOL    HW116368   8.877   2.645   1.818  0.3066 -1.3561  1.8428
 2088SOL    HW216369   9.034   2.648   1.776 -0.4230  0.7092 -0.8336
 2089SOL     OW16370   8.185   0.435   0.045 -0.1154  0.6939 -0.1210
 2089SOL    HW116371   8.282   0.433   0.070 -0.4195 -0.8841  1.0449
 2089SOL    HW216372   8.165   0.359  -0.017 -0.5187  1.2750 -0.7071
 2090SOL     OW16373   1.915   5.846   2.326  0.0474 -0.1374 -0.2910
 2090SOL    HW116374   1.996   5.831   2.383  0.0352 -1.7548 -0.6869
 2090SOL    HW216375   1.891   5.943   2.328  1.8412  0.3215  0.0501
 2091SOL     OW16376   1.137   7.042   1.794 -0.3477  0.1590  0.2165
 2091SOL    HW116377   1.079   7.067   1.717  2.5774  3.2952 -1.1006
 2091SOL    HW216378   1.218   6.993   1.761  0.1312  0.0704  1.4632
 2092SOL     OW16379   1.059   5.615   2.010  0.0392 -0.2920 -0.2349
 2092SOL    HW116380   1.151   5.607   2.050 -0.4805  0.4467  1.1250
 2092SOL    HW216381   1.066   5.664   1.923  0.7090  1.6136  0.8488
 2093SOL     OW16382   8.649   1.200   1.203 -0.5117  1.1254 -0.1486
 2093SOL    HW116383   8.617   1.182   1.296  0.4176 -0.2215 -0.0678
 2093SOL    HW216384   8.704   1.283   1.203 -0.1435  0.8937  0.6062
 2094SOL     OW16385   0.529   6.023   2.301 -0.3516 -0.5033 -0.1618
 2094SOL    HW116386   0.438   6.046   2.268  0.0798 -0.3145 -1.2274
 2094SOL    HW216387   0.540   5.923   2.300  0.8441 -0.3886 -3.8452
 2095SOL     OW16388   7.938   9.049   0.535 -0.1476 -0.2412 -0.0905
 2095SOL    HW116389   8.012   9.066   0.469 -0.0858 -1.5338 -0.3629
 2095SOL    HW216390   7.915   9.135   0.581  1.5166  0.1913 -0.0110
 2096SOL     OW16391   2.723   7.098   0.959 -0.2350 -0.1524  0.0086
 2096SOL    HW116392   2.645   7.049   0.919  0.2411 -1.8417  1.0946
 2096SOL    HW216393   2.688   7.170   1.020 -0.9801 -0.9914  0.6034
 2097SOL     OW16394   2.894   1.138   1.409  0.1704  0.7186 -0.4199
 2097SOL    HW116395   2.864   1.187   1.327 -1.3454  2.8152  1.3471
 2097SOL    HW216396   2.815   1.100   1.456  0.9602  0.2171  0.5315
 2098SOL     OW16397   1.219   6.334   0.282  0.0400  0.0632  0.1791
 2098SOL    HW116398   1.228   6.286   0.194  0.9208  0.2062  0.1866
 2098SOL    HW216399   1.275   6.416   0.281  0.8915 -0.4902  1.2626
 2099SOL     OW16400   3.264   3.596   2.377  0.4006  0.1791 -0.4444
 2099SOL    HW116401   3.244   3.511   2.329  0.9968  1.0675 -2.3214
 2099SOL    HW216402   3.194   3.664   2.355  1.2127  0.8971 -0.8181
 2100SOL     OW16403   8.438   8.833   0.660  0.2338  0.7242  0.4629
 2100SOL    HW116404   8.399   8.869   0.745  0.9071  0.4898  0.8699
 2100SOL    HW216405   8.536   8.851   0.659  0.4502 -0.4591  0.3372
 2101SOL     OW16406   4.783   2.330   2.082  0.2034  0.2768  0.0337
 2101SOL    HW116407   4.804   2.399   2.012  0.1159 -0.6082 -0.8594
 2101SOL    HW216408   4.803   2.239   2.047 -0.3709 -0.2168  0.9687
 2102SOL     OW16409   1.734   2.713   0.336 -0.2978  0.4838  0.7242
 2102SOL    HW116410   1.650   2.766   0.323  0.7217  1.7831 -0.9089
 2102SOL    HW216411   1.712   2.620   0.363 -2.2679  0.7707  0.1483
 2103SOL     OW16412   3.389   1.121   2.123  0.4665  0.5264  0.6031
 2103SOL    HW116413   3.488   1.117   2.136  0.3198 -0.7229  1.3981
 2103SOL    HW216414   3.342   1.095   2.207 -0.5273 -0.1815 -0.1492
 2104SOL     OW16415   2.443   1.109   2.411  0.4427 -0.4823 -0.1931
 2104SOL    HW116416   2.407   1.181   2.351 -1.6769 -0.9072  0.5369
 2104SOL    HW216417   2.486   1.151   2.491 -2.0361 -0.0214  0.9332
 2105SOL     OW16418   1.385   9.075   0.239  0.2324 -0.0678 -0.1331
 2105SOL    HW116419   1.396   9.101   0.335 -1.2725  0.6808 -0.1443
 2105SOL    HW216420   1.403   9.154   0.181  2.4727 -0.8647 -0.5592
 2106SOL     OW16421   1.578   6.763   1.606  1.1234 -0.0311 -0.4901
 2106SOL    HW116422   1.672   6.797   1.608  1.4696 -0.9976  0.0418
 2106SOL    HW216423   1.563   6.713   1.520  1.2874 -0.4018 -0.3045
 2107SOL     OW16424   0.396   0.560   1.125  0.3150 -0.0259  0.5009
 2107SOL    HW116425   0.401   0.578   1.027  0.9864 -3.0986 -0.0910
 2107SOL    HW216426   0.319   0.609   1.165 -1.3067 -0.4855 -1.9788
 2108SOL     OW16427   9.967   4.528   1.915  0.8373 -0.3246 -0.4026
 2108SOL    HW116428   9.994   4.455   1.852 -1.3564 -1.5369  0.0190
 2108SOL    HW216429   9.891   4.579   1.875 -0.7605 -1.2869  1.3499
 2109SOL     OW16430   1.256   5.770   1.351 -0.3016 -0.3105 -0.4003
 2109SOL    HW116431   1.298   5.696   1.299  0.3315 -0.6759  0.6279
 2109SOL    HW216432   1.325   5.837   1.376 -0.5510 -0.2792  0.2187
 2110SOL     OW16433   1.815   1.001   2.035 -0.1249  0.3284 -0.1925
 2110SOL    HW116434   1.901   0.969   1.994 -0.3309  0.5897 -0.8324
 2110SOL    HW216435   1.796   0.948   2.117  0.9586  0.6804  0.2862
 2111SOL     OW16436   0.987   1.125   0.499  0.2077  0.1599  0.0162
 2111SOL    HW116437   1.000   1.036   0.543  0.2650  0.1838  0.0469
 2111SOL    HW216438   0.909   1.172   0.542 -1.2827 -0.8466 -1.5370
 2112SOL     OW16439   1.442   1.708   1.075 -0.3240 -0.1157  0.5313
 2112SOL    HW116440   1.437   1.639   1.003  1.1811 -1.0147  1.2657
 2112SOL    HW216441   1.361   1.701   1.133 -0.4007 -0.9553  0.3241
 2113SOL     OW16442   0.251   0.420   0.005 -0.0778  0.7957  0.1823
 2113SOL    HW116443   0.236   0.517   0.023 -1.0594  0.6328  0.2574
 2113SOL    HW216444   0.306   0.380   0.079  0.6243  1.3609 -0.0230
 2114SOL     OW16445   8.502   8.830   1.521 -0.5208  0.0993 -0.3021
 2114SOL    HW116446   8.518   8.866   1.613  0.8122 -1.8687  0.2705
 2114SOL    HW216447   8.569   8.869   1.458  0.3928 -0.7366  0.1461
 2115SOL     OW16448   0.614   2.989   0.480 -0.0615 -0.1773  0.2417
 2115SOL    HW116449   0.621   2.934   0.563 -1.1314  0.0195  0.4737
 2115SOL    HW216450   0.563   2.939   0.410  1.4390 -0.6230 -0.5522
 2116SOL     OW16451   4.626   2.301   1.814  0.2716  0.2493  0.5489
 2116SOL    HW116452   4.684   2.383   1.809  0.4453  0.1787  1.4127
 2116SOL    HW216453   4.556   2.313   1.884  0.2228 -0.3039  0.5984
 2117SOL     OW16454   8.489   1.362   0.151  0.1778  0.2792  0.7656
 2117SOL    HW116455   8.448   1.284   0.200  0.6237 -0.6208 -0.2892
 2117SOL    HW216456   8.588   1.352   0.150  0.1392 -0.0195 -0.8496
 2118SOL     OW16457   3.156   9.771   1.361  0.1847  0.2193 -0.4085
 2118SOL    HW116458   3.241   9.723   1.341  0.2726  0.2228 -0.0481
 2118SOL    HW216459   3.092   9.758   1.285 -0.6775 -2.4807  0.7097
 2119SOL     OW16460   4.360   2.094   0.753 -0.5474 -0.0634  0.2891
 2119SOL    HW116461   4.303   2.026   0.797  2.0784 -1.1237  2.1908
 2119SOL    HW216462   4.410   2.051   0.677 -0.5925  0.3186  0.0409
 2120SOL     OW16463   3.960   4.209   2.508  0.0241 -0.7404 -0.4666
 2120SOL    HW116464   4.033   4.256   2.557 -0.6438  1.4750 -1.5311
 2120SOL    HW216465   3.905   4.157   2.574  0.1563  0.8157  0.9129
 2121SOL     OW16466   9.542   0.317   2.179  0.5404  0.1699  0.6029
 2121SOL    HW116467   9.607   0.371   2.124  0.4565  1.2847  1.5924
 2121SOL    HW216468   9.491   0.256   2.118  1.1961  0.6262 -0.4298
 2122SOL     OW16469   3.743   9.915   1.034  0.0186  0.0140  0.8003
 2122SOL    HW116470   3.653   9.905   0.992 -0.0608 -0.8136  1.1696
 2122SOL    HW216471   3.748  10.003   1.082  0.6729  1.7638 -2.3290
 2123SOL     OW16472   0.122   7.037   1.263 -0.0531  0.4350  0.3603
 2123SOL    HW116473   0.097   7.129   1.234  1.8928  0.4782 -1.3218
 2123SOL    HW216474   0.102   7.025   1.360  1.0411  3.1268  0.9452
 2124SOL     OW16475   1.433   8.882   0.671 -0.0269 -0.1855  0.4005
 2124SOL    HW116476   1.363   8.906   0.737  1.1555  0.5277  1.4224
 2124SOL    HW216477   1.413   8.792   0.632 -1.3432 -0.1037  0.8807
 2125SOL     OW16478   8.229   1.434   2.537  0.1822 -0.1165 -0.0261
 2125SOL    HW116479   8.325   1.411   2.552  0.7921  1.8676 -0.7782
 2125SOL    HW216480   8.182   1.438   2.626  0.7561 -1.2230  0.3341
 2126SOL     OW16481   9.584   3.993   0.695 -0.5472 -0.4297  0.3407
 2126SOL    HW116482   9.594   3.898   0.665  0.8303 -0.6799  1.5626
 2126SOL    HW216483   9.672   4.040   0.690 -0.8215  0.2451  1.5213
 2127SOL     OW16484   8.788   8.518   2.218  0.2423 -0.0535  0.3145
 2127SOL    HW116485   8.839   8.478   2.142  0.1798  0.0867  0.1991
 2127SOL    HW216486   8.751   8.444   2.276  0.1902 -0.1618  0.1448
 2128SOL     OW16487   1.242   9.674   1.587  0.4817  0.0725 -0.0607
 2128SOL    HW116488   1.151   9.639   1.567  0.0215  1.8260 -1.2162
 2128SOL    HW216489   1.263   9.749   1.524  2.9173 -0.6185 -0.1118
 2129SOL     OW16490   1.409   3.612   0.165  0.5390  0.1325  0.2774
 2129SOL    HW116491   1.474   3.688   0.169 -0.6067  1.1627 -0.3585
 2129SOL    HW216492   1.349   3.624   0.086 -0.7759 -0.5210  1.1523
 2130SOL     OW16493   3.605   2.927   0.979  0.2471  0.7271  0.3880
 2130SOL    HW116494   3.584   2.898   1.073 -1.0233  0.2319 -0.0394
 2130SOL    HW216495   3.673   3.000   0.982  0.4755  0.4832  1.6849
 2131SOL     OW16496   8.692   6.924   0.270 -0.0261  0.7389  0.0627
 2131SOL    HW116497   8.792   6.923   0.273 -0.0533  1.1537  2.8946
 2131SOL    HW216498   8.657   6.831   0.279  0.1043  0.5791 -1.0802
 2132SOL     OW16499   9.943   9.666   0.217  0.9692 -0.0438 -0.7379
 2132SOL    HW116500   9.914   9.696   0.126 -1.2831 -0.7885 -0.2898
 2132SOL    HW216501   9.901   9.725   0.286  0.7799 -0.9475 -0.0782
 2133SOL     OW16502   0.536   5.315   2.560  0.1711 -0.4995  0.1842
 2133SOL    HW116503   0.557   5.412   2.546  1.2711 -0.8222 -0.4970
 2133SOL    HW216504   0.485   5.303   2.645  0.9141  0.5696  0.7803
 2134SOL     OW16505   3.407   9.416   2.465  0.2785  0.2601 -0.1899
 2134SOL    HW116506   3.449   9.386   2.550  1.9971  1.0341 -0.7565
 2134SOL    HW216507   3.386   9.514   2.470  3.4952  1.0829 -1.8740
 2135SOL     OW16508   0.221   6.584   0.948 -0.1026 -0.1621 -0.4560
 2135SOL    HW116509   0.172   6.572   0.862 -0.0033 -0.1187 -0.5193
 2135SOL    HW216510   0.156   6.589   1.023 -0.1501 -0.9498 -0.4428
 2136SOL     OW16511   2.339   2.608   1.294 -0.1115  0.5456 -0.3103
 2136SOL    HW116512   2.400   2.570   1.224 -0.5239  1.3645 -1.1261
 2136SOL    HW216513   2.372   2.582   1.385  1.6741  1.2845 -0.7174
 2137SOL     OW16514   1.180   2.382   2.428 -0.1794 -0.3392  0.1089
 2137SOL    HW116515   1.254   2.315   2.429 -0.8212 -1.0552  1.6353
 2137SOL    HW216516   1.218   2.473   2.412  1.0458 -0.6920  0.8996
 2138SOL     OW16517   9.780   4.433   0.846 -0.1827  0.0279  0.1785
 2138SOL    HW116518   9.817   4.496   0.777 -0.3172  0.6414  0.6541
 2138SOL    HW216519   9.855   4.395   0.900  0.0088 -1.2712 -0.9850
 2139SOL     OW16520   0.624   8.603   1.324 -0.1046  0.3560  0.0125
 2139SOL    HW116521   0.637   8.687   1.272  2.0565  0.6898  1.0205
 2139SOL    HW216522   0.579   8.624   1.411  2.1509  0.8261  1.1224
 2140SOL     OW16523   1.712   8.432   2.143  0.1163 -0.0978 -0.2006
 2140SOL    HW116524   1.616   8.405   2.153  0.3378 -0.4260  1.2196
 2140SOL    HW216525   1.755   8.378   2.071 -0.2072 -1.5234  0.6475
 2141SOL     OW16526   8.190   8.674   1.370  0.3448  0.7707  0.4840
 2141SOL    HW116527   8.280   8.670   1.325 -1.1333 -0.1393 -2.4845
 2141SOL    HW216528   8.158   8.582   1.389 -1.0636  0.9949 -0.7595
 2142SOL     OW16529   9.410   3.773   1.407  0.1297 -0.2497  0.1889
 2142SOL    HW116530   9.333   3.836   1.397  0.2638  0.3029  2.4597
 2142SOL    HW216531   9.376   3.679   1.415 -0.2690 -0.0753  0.5211
 2143SOL     OW16532   3.188   3.945   0.052  0.3885  0.2604 -0.1017
 2143SOL    HW116533   3.135   4.005  -0.009 -0.5482 -0.1638  0.2892
 2143SOL    HW216534   3.231   4.000   0.123 -1.1448  0.3730  0.7422
 2144SOL     OW16535   2.208   4.626   0.400 -0.3068  0.1689 -0.4379
 2144SOL    HW116536   2.292   4.619   0.454  0.9756  0.3617 -2.3368
 2144SOL    HW216537   2.196   4.721   0.370 -0.8096 -0.0022 -0.7829
 2145SOL     OW16538   4.234   8.692   2.254 -0.1692 -0.0972  0.4268
 2145SOL    HW116539   4.277   8.610   2.289  0.0296 -0.1513  0.0606
 2145SOL    HW216540   4.220   8.683   2.155 -1.0611 -0.1018  0.5479
 2146SOL     OW16541   2.057   6.042   1.738  0.1949 -0.5102 -0.1732
 2146SOL    HW116542   2.118   5.967   1.765 -1.9706 -1.7648  1.3692
 2146SOL    HW216543   2.099   6.130   1.762  1.0143 -1.3898  1.6870
 2147SOL     OW16544   9.373   8.964   1.745 -0.5261  0.8373  1.1742
 2147SOL    HW116545   9.345   9.060   1.742  1.0323  1.2592 -0.6051
 2147SOL    HW216546   9.455   8.951   1.689 -1.2371 -1.7122  0.6588
 2148SOL     OW16547   2.839   6.138   1.405 -0.2751 -0.0246  0.4351
 2148SOL    HW116548   2.756   6.112   1.455  0.5517 -0.6409  1.4769
 2148SOL    HW216549   2.828   6.112   1.309 -1.5050  0.3754  0.4501
 2149SOL     OW16550   2.798   6.677   1.221 -0.6266  0.2498 -0.1011
 2149SOL    HW116551   2.775   6.733   1.300 -1.0871  0.6367 -0.5089
 2149SOL    HW216552   2.833   6.588   1.252 -2.1679 -0.1501  0.5157
 2150SOL     OW16553   2.925   8.792   1.123 -0.1988 -0.1982 -0.4260
 2150SOL    HW116554   2.999   8.833   1.176 -1.0455 -0.0058  0.6370
 2150SOL    HW216555   2.904   8.849   1.044 -0.1550  0.4967  0.0529
 2151SOL     OW16556   3.612   4.626   2.199  0.0976  0.1731  0.0444
 2151SOL    HW116557   3.532   4.641   2.257 -1.0019 -0.4013 -1.2818
 2151SOL    HW216558   3.633   4.711   2.149 -0.3006  0.0507 -0.3396
 2152SOL     OW16559   2.285   5.711   1.565  0.4651  0.2216 -0.0032
 2152SOL    HW116560   2.191   5.716   1.598  0.9000  0.4261  1.2270
 2152SOL    HW216561   2.314   5.615   1.561  0.2117  0.1606 -0.3582
 2153SOL     OW16562   0.453   6.825   2.077 -0.3625 -0.3547  0.3973
 2153SOL    HW116563   0.460   6.924   2.089 -1.2170 -0.4796  2.1099
 2153SOL    HW216564   0.529   6.780   2.124 -0.2198 -0.5216  0.0029
 2154SOL     OW16565   8.207   9.582   2.282  0.2418  0.1843  0.8321
 2154SOL    HW116566   8.265   9.656   2.249  0.7909 -0.6420 -0.1004
 2154SOL    HW216567   8.257   9.495   2.277 -1.0427 -0.5317  0.0670
 2155SOL     OW16568   0.127   7.547   0.346  0.0101 -0.0809  0.1785
 2155SOL    HW116569   0.202   7.562   0.411 -0.0250  2.1968 -0.2725
 2155SOL    HW216570   0.143   7.601   0.264 -0.9334 -1.4556 -0.9318
 2156SOL     OW16571   4.016   1.243   1.291  0.4563  0.0806 -0.0955
 2156SOL    HW116572   4.077   1.293   1.230  0.7643 -0.0690  0.0915
 2156SOL    HW216573   4.058   1.156   1.318  0.4558  0.2909  0.5839
 2157SOL     OW16574   8.838   6.502   2.172  0.2691 -0.1278  0.5927
 2157SOL    HW116575   8.825   6.592   2.131  2.6036  0.3943  0.9201
 2157SOL    HW216576   8.898   6.510   2.252  2.0173 -2.1961 -0.4476
 2158SOL     OW16577   2.549   8.345   2.102  0.0438  0.5773 -0.3714
 2158SOL    HW116578   2.540   8.314   2.008  1.6112 -0.1517 -0.3080
 2158SOL    HW216579   2.615   8.287   2.150  0.8471  2.2195  0.5703
 2159SOL     OW16580   2.465   2.855   0.595 -0.3869  0.0815 -0.3343
 2159SOL    HW116581   2.454   2.885   0.690  2.1419  1.5255 -0.4714
 2159SOL    HW216582   2.457   2.755   0.591 -0.2054 -0.0238  1.4578
 2160SOL     OW16583   4.781   2.361   1.248 -0.5626 -0.1975 -0.4006
 2160SOL    HW116584   4.811   2.329   1.338 -1.3454 -0.8374 -0.3686
 2160SOL    HW216585   4.696   2.316   1.222 -0.1158 -0.3520 -1.6656
 2161SOL     OW16586   9.540   4.193   1.615 -0.0137 -0.9778 -0.3659
 2161SOL    HW116587   9.553   4.133   1.694 -0.4644 -0.0874  0.3745
 2161SOL    HW216588   9.443   4.204   1.596  0.0373  0.3752  0.1388
 2162SOL     OW16589   8.228   8.183   1.551 -0.3693  0.4684 -0.2067
 2162SOL    HW116590   8.234   8.113   1.623 -1.1830  0.1099 -0.4809
 2162SOL    HW216591   8.282   8.153   1.473 -1.0190 -0.0467 -0.4699
 2163SOL     OW16592   0.588   4.224   1.096 -0.1826 -0.4122  0.3920
 2163SOL    HW116593   0.614   4.251   1.003 -0.6996 -1.4914 -0.0774
 2163SOL    HW216594   0.646   4.272   1.162  1.7082 -1.3415 -0.5621
 2164SOL     OW16595   9.144   1.404   2.540 -0.0241 -0.4188 -0.2256
 2164SOL    HW116596   9.238   1.434   2.525  0.8674 -3.3420 -0.8444
 2164SOL    HW216597   9.138   1.353   2.625 -1.1978  0.2799  0.1194
 2165SOL     OW16598   7.714   0.476   1.958  0.4118  0.1135 -0.0925
 2165SOL    HW116599   7.749   0.500   2.049 -0.3031 -0.3381  0.3028
 2165SOL    HW216600   7.683   0.382   1.959  1.0725 -0.1174 -1.0139
 2166SOL     OW16601   0.207   3.807   0.691 -0.2402 -0.7159 -0.5617
 2166SOL    HW116602   0.132   3.868   0.666  0.0299 -0.9625 -2.0426
 2166SOL    HW216603   0.222   3.742   0.617  1.8103 -0.2985 -0.5370
 2167SOL     OW16604   1.261   9.234   1.468  0.2865 -0.0339  0.0180
 2167SOL    HW116605   1.319   9.309   1.501  0.6517 -1.6208  3.1469
 2167SOL    HW216606   1.312   9.148   1.472 -2.1682 -1.4315  2.6135
 2168SOL     OW16607   1.316   5.134   2.349 -0.1752 -0.1703  0.0659
 2168SOL    HW116608   1.225   5.174   2.357 -0.3639 -0.5613 -0.0942
 2168SOL    HW216609   1.378   5.176   2.415 -0.0388  1.2801 -0.9560
 2169SOL     OW16610   0.135   2.786   1.164  0.5205 -0.3825 -0.1101
 2169SOL    HW116611   0.167   2.852   1.231  0.5220  0.6799 -1.1446
 2169SOL    HW216612   0.188   2.794   1.080 -0.0714 -1.0735 -0.5640
 2170SOL     OW16613   4.309   0.887   1.203  0.3523 -0.5613 -0.0232
 2170SOL    HW116614   4.343   0.828   1.130 -2.0316 -1.9860 -0.0219
 2170SOL    HW216615   4.341   0.853   1.292  0.7339 -0.6066 -0.1781
 2171SOL     OW16616   1.581   3.639   0.476  0.4334 -0.5246  0.4455
 2171SOL    HW116617   1.648   3.565   0.472  1.5756  0.4756  0.6975
 2171SOL    HW216618   1.582   3.690   0.389  1.8952  1.0968  1.3748
 2172SOL     OW16619   1.627   9.900   2.308 -0.1879  0.7978 -0.1345
 2172SOL    HW116620   1.715   9.944   2.322 -0.4900  1.3750 -0.0067
 2172SOL    HW216621   1.635   9.802   2.325  0.6182  0.7189 -0.9767
 2173SOL     OW16622   4.311   1.101   2.312 -0.6575 -0.3075  0.0628
 2173SOL    HW116623   4.226   1.111   2.260 -1.0235 -1.6520  0.3900
 2173SOL    HW216624   4.347   1.009   2.299 -0.3694 -0.4228  1.6022
 2174SOL     OW16625   2.564   0.908   1.158 -0.3264 -0.1566 -0.0886
 2174SOL    HW116626   2.662   0.888   1.163 -0.0699  1.0921 -0.1944
 2174SOL    HW216627   2.517   0.828   1.121  0.7983 -0.3352 -1.1832
 2175SOL     OW16628   1.762   1.829   2.538  0.0880 -0.0650  0.0537
 2175SOL    HW116629   1.802   1.901   2.481  0.9011 -0.3685  0.2260
 2175SOL    HW216630   1.665   1.847   2.552  0.7928  2.3535  2.1656
 2176SOL     OW16631   4.195   9.746   0.974 -0.3511 -0.1892 -0.2210
 2176SOL    HW116632   4.112   9.740   1.030  1.0974  2.5391  2.4165
 2176SOL    HW216633   4.244   9.659   0.978 -0.7955 -0.3888  1.9962
 2177SOL     OW16634   2.446   3.071   1.636  0.0635  0.3727 -0.4712
 2177SOL    HW116635   2.537   3.110   1.648 -0.4606  1.6170 -0.4586
 2177SOL    HW216636   2.377   3.137   1.667 -0.9274  0.2505 -2.3633
 2178SOL     OW16637   0.081   3.160   0.580  0.2610  0.7125  0.4802
 2178SOL    HW116638   0.056   3.229   0.648 -0.8956  1.3653 -0.5857
 2178SOL    HW216639   0.061   3.069   0.616 -1.2533  1.1062  0.6548
 2179SOL     OW16640   2.004   7.274   1.841 -0.0640 -0.0954  0.2550
 2179SOL    HW116641   2.018   7.181   1.874  0.5981 -0.0989 -0.0211
 2179SOL    HW216642   2.004   7.337   1.918 -0.1448 -0.2836  0.4092
 2180SOL     OW16643   9.132   2.244   0.237  0.1732  0.8628 -0.4526
 2180SOL    HW116644   9.103   2.203   0.323 -0.8404  0.0952 -1.1492
 2180SOL    HW216645   9.095   2.336   0.229 -0.2500  0.7030 -0.3445
 2181SOL     OW16646   9.528   7.250   0.136  0.4447  0.0691 -0.1609
 2181SOL    HW116647   9.489   7.178   0.079  0.6857 -2.0504  2.2576
 2181SOL    HW216648   9.474   7.259   0.220  0.3311  2.8595 -0.4606
 2182SOL     OW16649   4.614   4.006   0.938 -0.2467 -0.1308 -0.2863
 2182SOL    HW116650   4.563   3.968   1.015  0.1956  0.7364  0.4427
 2182SOL    HW216651   4.711   3.985   0.949 -0.1202  0.4201 -0.3554
 2183SOL     OW16652   1.050   0.745   0.224  0.2343 -0.8997  0.0866
 2183SOL    HW116653   1.011   0.766   0.135  2.0768  0.7782 -0.3709
 2183SOL    HW216654   1.100   0.658   0.219  1.7810  0.0329 -1.0029
 2184SOL     OW16655   9.778   3.411   1.263 -0.1065  0.8559  0.1592
 2184SOL    HW116656   9.873   3.432   1.243 -0.1615 -0.5933 -1.8207
 2184SOL    HW216657   9.719   3.455   1.195 -0.6681 -0.1605 -0.0220
 2185SOL     OW16658   1.012   1.635   1.485  0.2853 -0.0408 -0.0377
 2185SOL    HW116659   0.975   1.592   1.567  1.6257  0.0319  0.6340
 2185SOL    HW216660   0.986   1.584   1.404 -1.0997 -0.0854  0.4335
 2186SOL     OW16661   1.066   1.464   1.951  0.2844  0.1206  0.3096
 2186SOL    HW116662   1.005   1.388   1.929  3.3368 -2.4486  0.2584
 2186SOL    HW216663   1.067   1.479   2.050 -2.2023  1.7939  0.1104
 2187SOL     OW16664   4.271   8.619   1.330  0.0287  0.7263  0.5349
 2187SOL    HW116665   4.271   8.719   1.329  2.3837  0.7494  0.9425
 2187SOL    HW216666   4.364   8.585   1.345 -0.5187 -1.5446 -0.8886
 2188SOL     OW16667   8.715   7.989   1.505  0.3597  0.2040  0.0013
 2188SOL    HW116668   8.780   8.051   1.550 -0.1071  1.0900 -0.5330
 2188SOL    HW216669   8.765   7.912   1.466  0.7221 -0.8400  2.4379
 2189SOL     OW16670   9.499   7.939   1.176  0.3329 -0.4434 -0.6439
 2189SOL    HW116671   9.409   7.982   1.180  0.5565 -0.1213  1.2374
 2189SOL    HW216672   9.562   7.988   1.237  1.0556 -2.3711  0.1742
 2190SOL     OW16673   3.097   4.669   0.968  0.1894  0.1446 -0.2699
 2190SOL    HW116674   3.013   4.723   0.978  0.0239 -0.2009  0.2034
 2190SOL    HW216675   3.122   4.665   0.871 -0.1667  0.5069 -0.3806
 2191SOL     OW16676   0.233   6.134   1.537 -0.9256 -0.0127  0.3500
 2191SOL    HW116677   0.191   6.044   1.548  0.0923 -0.2464  2.4450
 2191SOL    HW216678   0.207   6.171   1.448 -2.5572 -1.7326  0.0613
 2192SOL     OW16679   8.882   5.479   1.689  0.3485  0.3209  0.0160
 2192SOL    HW116680   8.787   5.497   1.714  0.0962 -1.0760  0.1237
 2192SOL    HW216681   8.927   5.564   1.663 -0.4982  1.2368  1.4584
 2193SOL     OW16682   3.129   8.896   0.437 -0.0650  0.3800 -0.1100
 2193SOL    HW116683   3.214   8.845   0.428 -0.2821  0.3793 -2.4280
 2193SOL    HW216684   3.133   8.979   0.382 -1.2628  0.7863  0.3933
 2194SOL     OW16685   0.815   5.318   0.672  0.1804 -0.1314 -0.3478
 2194SOL    HW116686   0.875   5.396   0.689 -0.4265  0.4805 -0.9631
 2194SOL    HW216687   0.775   5.288   0.758  0.8403 -0.1134 -0.0297
 2195SOL     OW16688   9.884   2.539   1.478  0.1529 -0.8125  0.1687
 2195SOL    HW116689   9.982   2.546   1.458  0.3685 -0.5489  1.2610
 2195SOL    HW216690   9.831   2.578   1.404  0.8780 -1.0844 -0.4956
 2196SOL     OW16691   9.233   9.994   0.335  0.3886  0.2234  0.2249
 2196SOL    HW116692   9.151  10.038   0.299  0.5176 -0.4292 -0.8844
 2196SOL    HW216693   9.314  10.045   0.306  0.6565 -1.7761 -2.6489
 2197SOL     OW16694   8.647   1.345   1.910 -0.0859  0.2335 -0.0592
 2197SOL    HW116695   8.660   1.410   1.835 -1.5900  0.2080 -0.3479
 2197SOL    HW216696   8.550   1.324   1.921  0.3209 -1.5899  0.3541
 2198SOL     OW16697   1.213   6.186   0.054  0.0190 -0.1978  0.0427
 2198SOL    HW116698   1.292   6.148   0.007  0.0359 -0.4533  0.2822
 2198SOL    HW216699   1.131   6.133   0.030 -0.1397  0.2568 -0.4559
 2199SOL     OW16700   8.665   9.729   0.469 -0.8867 -0.5207 -0.9100
 2199SOL    HW116701   8.587   9.764   0.520 -1.0796 -2.1647 -0.0705
 2199SOL    HW216702   8.749   9.750   0.519 -0.8413  0.4813 -1.3882
 2200SOL     OW16703   1.737   8.344   0.114 -0.6972 -0.9089  0.0559
 2200SOL    HW116704   1.797   8.346   0.033 -1.7259  0.3543 -0.7050
 2200SOL    HW216705   1.759   8.421   0.174 -1.9379 -0.0709 -0.5326
 2201SOL     OW16706   2.282   0.774   2.135  0.2007  0.8687  0.3791
 2201SOL    HW116707   2.324   0.791   2.224  0.7938  2.3470 -0.1591
 2201SOL    HW216708   2.354   0.772   2.065 -0.4172  1.4137 -0.2795
 2202SOL     OW16709   2.733   9.752   0.187  0.3988 -0.0364 -0.5003
 2202SOL    HW116710   2.707   9.670   0.236 -0.6087 -2.1105 -4.3039
 2202SOL    HW216711   2.675   9.828   0.215 -1.8770 -1.7841 -0.3694
 2203SOL     OW16712   1.433   6.110   2.515 -0.2172 -0.2074  0.0839
 2203SOL    HW116713   1.485   6.195   2.524 -0.4273 -0.0299 -0.3307
 2203SOL    HW216714   1.414   6.094   2.418  0.7365 -1.2752  0.0648
 2204SOL     OW16715   1.500   4.153   0.056 -0.6897  0.0655  0.9298
 2204SOL    HW116716   1.535   4.158  -0.038  1.8360  0.4887  1.8561
 2204SOL    HW216717   1.402   4.173   0.056 -0.5729  0.8523 -1.5125
 2205SOL     OW16718   8.239   0.699   1.628 -0.1563  0.3408 -0.5755
 2205SOL    HW116719   8.173   0.625   1.614 -0.2250  0.3835 -0.4799
 2205SOL    HW216720   8.271   0.699   1.722  0.5387 -0.1349 -0.8097
 2206SOL     OW16721   3.398   5.137   2.342  0.0576 -0.0224  0.1477
 2206SOL    HW116722   3.316   5.096   2.381  0.8247  0.3993  2.2877
 2206SOL    HW216723   3.404   5.233   2.368  1.4651 -0.1664  0.4106
 2207SOL     OW16724   0.904   4.729   2.012  0.5339 -0.4970 -0.3145
 2207SOL    HW116725   0.845   4.775   2.079 -0.8788 -0.4407 -1.5767
 2207SOL    HW216726   0.912   4.785   1.930 -0.5111 -2.0635 -1.5304
 2208SOL     OW16727   2.402   0.942   0.526  0.0195 -0.1852  0.5730
 2208SOL    HW116728   2.368   1.025   0.481 -2.0463 -0.9864  0.6047
 2208SOL    HW216729   2.485   0.910   0.479 -0.2289  0.8501 -0.5971
 2209SOL     OW16730   2.747   8.534   0.367 -0.2952  0.4650 -0.1123
 2209SOL    HW116731   2.819   8.596   0.336  0.1366  0.0737  0.0759
 2209SOL    HW216732   2.767   8.506   0.462  0.2434 -0.9795 -0.6237
 2210SOL     OW16733   8.300   2.094   1.889 -0.0336  0.4325  0.0976
 2210SOL    HW116734   8.349   2.076   1.974  1.2804 -1.5173 -1.0484
 2210SOL    HW216735   8.257   2.010   1.855  0.5951  0.8675 -1.8703
 2211SOL     OW16736   0.796   6.718   0.674 -0.6597  0.5375  0.0193
 2211SOL    HW116737   0.749   6.800   0.643  0.4858  0.4551 -2.0129
 2211SOL    HW216738   0.894   6.727   0.657 -0.5027 -1.1458 -0.0602
 2212SOL     OW16739   0.786   1.257   0.657 -0.3787  0.6195 -0.1460
 2212SOL    HW116740   0.809   1.327   0.724 -0.6983  0.9830 -0.4135
 2212SOL    HW216741   0.691   1.270   0.626 -0.5987 -0.2293  0.1718
 2213SOL     OW16742   4.319   8.447   2.349  0.0446  0.7412  0.4548
 2213SOL    HW116743   4.230   8.418   2.383  0.1751  1.7067  1.6546
 2213SOL    HW216744   4.385   8.373   2.360 -0.1520  0.7011  1.4085
 2214SOL     OW16745   9.201   0.460   1.485  0.1126  0.3179  0.2970
 2214SOL    HW116746   9.212   0.529   1.556  2.2579 -0.3437  0.6478
 2214SOL    HW216747   9.243   0.493   1.400 -0.9024  0.3823 -0.1942
 2215SOL     OW16748   1.138   1.183   1.203 -0.0768  0.4969 -0.3679
 2215SOL    HW116749   1.066   1.189   1.273 -0.7409 -2.8783 -0.6595
 2215SOL    HW216750   1.217   1.134   1.241 -0.0788 -0.5458 -1.6713
 2216SOL     OW16751   3.958   3.778   1.935  0.4654 -0.0665 -0.5752
 2216SOL    HW116752   3.987   3.747   1.845 -0.0558  0.0031 -0.7672
 2216SOL    HW216753   3.894   3.855   1.926  1.5930  0.9353 -0.1029
 2217SOL     OW16754   0.649   6.950   0.606  0.4015 -0.1439  0.4382
 2217SOL    HW116755   0.656   7.050   0.601  0.4268 -0.1566  0.2174
 2217SOL    HW216756   0.553   6.924   0.611  0.2062 -0.2704 -3.1718
 2218SOL     OW16757   0.000   1.933   2.425 -0.2150  0.3063 -0.0280
 2218SOL    HW116758  -0.064   1.862   2.396  0.5749 -0.7716  0.8000
 2218SOL    HW216759  -0.047   2.021   2.430 -1.7260 -0.5441  1.0107
 2219SOL     OW16760   3.260   9.806   0.095  0.2811  0.2047 -0.7788
 2219SOL    HW116761   3.191   9.855   0.042 -0.8119 -1.3068 -0.7768
 2219SOL    HW216762   3.237   9.810   0.192  0.2186 -0.2638 -0.7739
 2220SOL     OW16763   0.344   6.227   1.764  0.0905 -0.4173 -0.1950
 2220SOL    HW116764   0.297   6.198   1.680 -0.6930 -1.8438  0.7022
 2220SOL    HW216765   0.286   6.290   1.815 -0.6726 -1.7976  0.6726
 2221SOL     OW16766   8.209   1.060   0.046 -0.4723 -0.7982  0.9577
 2221SOL    HW116767   8.126   1.024   0.005 -0.7307  0.9341 -0.0657
 2221SOL    HW216768   8.186   1.120   0.123 -0.2582  0.7846 -0.1834
 2222SOL     OW16769   8.898   7.106   1.122  0.1293 -0.1404 -0.4247
 2222SOL    HW116770   8.828   7.092   1.052 -2.3192  0.8990  1.7197
 2222SOL    HW216771   8.869   7.180   1.183  1.6581 -1.7629  2.3433
 2223SOL     OW16772   1.198   1.838   1.873  0.2228 -0.4031 -0.1924
 2223SOL    HW116773   1.153   1.833   1.783 -0.2155  2.9186 -0.2400
 2223SOL    HW216774   1.267   1.910   1.871  0.2025 -0.2995  2.1502
 2224SOL     OW16775   7.702   9.198   0.260  0.5551  0.0537 -0.1587
 2224SOL    HW116776   7.698   9.117   0.320  0.1798  0.5883  0.5457
 2224SOL    HW216777   7.648   9.272   0.301  0.7217  0.5929 -0.9114
 2225SOL     OW16778   2.685   4.750   2.122 -0.2599  0.0113 -0.3877
 2225SOL    HW116779   2.662   4.764   2.218 -0.9660  0.9542 -0.6860
 2225SOL    HW216780   2.607   4.711   2.074 -0.3812  0.8074 -0.8553
 2226SOL     OW16781   0.389   0.272   1.361 -0.4290 -0.0721 -0.2891
 2226SOL    HW116782   0.380   0.252   1.264 -0.3788  2.2967 -0.8215
 2226SOL    HW216783   0.303   0.309   1.396 -0.7026 -1.6710  0.7717
 2227SOL     OW16784   3.001   5.758   0.333 -0.7527  0.0059 -0.0726
 2227SOL    HW116785   2.980   5.661   0.349  0.1455 -0.3235 -0.8410
 2227SOL    HW216786   3.057   5.792   0.408  0.9749 -0.7412 -0.9999
 2228SOL     OW16787   3.278   0.288   2.332  0.5689 -0.3366  0.2413
 2228SOL    HW116788   3.304   0.222   2.402 -1.4947 -0.0344  1.3283
 2228SOL    HW216789   3.326   0.374   2.347 -0.9608  0.2040  2.1895
 2229SOL     OW16790   8.994   1.299   2.331  0.2107 -0.2060  0.3759
 2229SOL    HW116791   8.945   1.379   2.297  1.3598 -0.7287 -2.7200
 2229SOL    HW216792   9.048   1.323   2.412  0.3506  2.0996 -0.3836
 2230SOL     OW16793   9.670   3.200   1.707  0.0702  0.4828  0.6546
 2230SOL    HW116794   9.629   3.268   1.646  1.3500  1.4587  0.8397
 2230SOL    HW216795   9.741   3.149   1.658  0.2543  0.4279  0.9763
 2231SOL     OW16796   2.014   8.068   2.187 -0.4718 -0.6592 -0.4175
 2231SOL    HW116797   1.939   8.066   2.122  0.6680  1.4272 -1.8506
 2231SOL    HW216798   2.000   8.144   2.252  0.5433 -0.0509 -0.8978
 2232SOL     OW16799   1.900   9.235   1.158 -0.7530  0.0272  0.4516
 2232SOL    HW116800   1.818   9.214   1.105 -0.5107  1.4497 -0.4862
 2232SOL    HW216801   1.977   9.252   1.097  0.0749 -0.5404  1.3105
 2233SOL     OW16802   2.796   9.638   1.648  0.5566 -0.1506 -0.7062
 2233SOL    HW116803   2.828   9.546   1.628  0.7308  0.3122 -2.6508
 2233SOL    HW216804   2.791   9.651   1.747  0.5168 -2.2347 -0.4203
 2234SOL     OW16805   0.422   5.946   1.775 -0.2180  0.0240  0.2856
 2234SOL    HW116806   0.521   5.942   1.758 -0.2723  1.1400 -0.2921
 2234SOL    HW216807   0.398   6.036   1.811 -0.9708 -0.3891  0.8231
 2235SOL     OW16808   3.329   4.146   0.995 -0.4695  0.3651 -0.0028
 2235SOL    HW116809   3.372   4.168   0.908 -0.4676 -1.1714 -0.4026
 2235SOL    HW216810   3.230   4.158   0.989 -0.1931  3.5708  0.8151
 2236SOL     OW16811   2.654   7.745   0.343  0.2656 -0.1406  0.4058
 2236SOL    HW116812   2.575   7.730   0.402  0.7705 -0.9667  0.8868
 2236SOL    HW216813   2.684   7.840   0.350  0.0907 -0.1440  1.1874
 2237SOL     OW16814   9.398   6.379   1.949 -0.0085 -0.1886 -0.1728
 2237SOL    HW116815   9.422   6.294   1.903  0.7178  0.5673 -1.1993
 2237SOL    HW216816   9.315   6.365   2.003  0.9476 -1.9603  0.8896
 2238SOL     OW16817   8.218   0.308   1.750  0.7854 -0.1754  0.6505
 2238SOL    HW116818   8.287   0.276   1.814  1.1643  0.8676  0.7771
 2238SOL    HW216819   8.182   0.396   1.782 -1.1567 -1.0777  1.0059
 2239SOL     OW16820   7.887   0.118   0.893  0.2459 -0.7711  0.8354
 2239SOL    HW116821   7.912   0.152   0.984 -3.5695  0.3938  1.5470
 2239SOL    HW216822   7.813   0.051   0.902 -2.0477  1.3270 -1.4942
 2240SOL     OW16823   1.893   7.132   0.302  0.2355  0.3908 -0.1041
 2240SOL    HW116824   1.824   7.081   0.250  1.5257 -1.0226 -0.4724
 2240SOL    HW216825   1.879   7.230   0.287 -1.2552  0.1115 -0.7320
 2241SOL     OW16826   1.547   8.429   0.848 -0.1376  0.0604 -0.0858
 2241SOL    HW116827   1.621   8.364   0.831 -0.6639 -0.2218 -1.3789
 2241SOL    HW216828   1.493   8.440   0.764 -0.5761  1.5025  0.3769
 2242SOL     OW16829   3.357   4.119   0.175  0.4610  0.7198  0.2977
 2242SOL    HW116830   3.339   4.207   0.132  1.3019  0.8321  0.1585
 2242SOL    HW216831   3.328   4.121   0.270  0.3167  1.0871  0.2465
 2243SOL     OW16832   9.223   5.664   1.631 -0.9968  0.1087  0.3756
 2243SOL    HW116833   9.277   5.748   1.628  1.0707 -1.2118 -0.9048
 2243SOL    HW216834   9.203   5.634   1.538 -1.4825 -0.9846  0.8205
 2244SOL     OW16835   1.310   7.078   0.102  0.4703 -0.1346 -0.5782
 2244SOL    HW116836   1.409   7.067   0.107  0.4337 -0.0918  0.3055
 2244SOL    HW216837   1.272   7.084   0.194 -0.4341 -0.8322 -0.9004
 2245SOL     OW16838   0.777   9.686   2.408  0.0384  0.3135 -0.3303
 2245SOL    HW116839   0.816   9.718   2.494  0.5351 -0.0378 -0.4204
 2245SOL    HW216840   0.809   9.745   2.333  0.1302  0.2262 -0.3600
 2246SOL     OW16841   3.581   9.604   1.460 -0.3393 -0.0207 -0.6395
 2246SOL    HW116842   3.586   9.584   1.558 -1.3790 -2.4029 -1.0491
 2246SOL    HW216843   3.674   9.609   1.422  0.0037 -1.5220  0.0008
 2247SOL     OW16844   0.405   8.108   2.259 -0.2652  0.0078 -0.1637
 2247SOL    HW116845   0.398   8.010   2.279  1.4327 -0.2071 -0.6072
 2247SOL    HW216846   0.388   8.160   2.343 -1.0072 -0.6585  0.1096
 2248SOL     OW16847   1.091   9.534   0.763  0.5169  0.0536  0.7221
 2248SOL    HW116848   1.188   9.542   0.785  0.8711 -1.5621 -0.1503
 2248SOL    HW216849   1.043   9.489   0.839  0.5450  0.3722  0.9294
 2249SOL     OW16850   9.764   5.135   1.300 -0.0534  0.4357  0.5701
 2249SOL    HW116851   9.719   5.098   1.381  0.1870 -0.8957  0.1121
 2249SOL    HW216852   9.862   5.145   1.317  0.1036 -0.4621  0.2451
 2250SOL     OW16853   1.427   7.636   1.603  0.4740  0.0491 -0.0025
 2250SOL    HW116854   1.485   7.566   1.643  1.4073  1.2109  0.6950
 2250SOL    HW216855   1.331   7.620   1.629  0.4353 -1.9828 -1.3251
 2251SOL     OW16856   1.512   0.157   0.531  0.0841  0.1409  0.0237
 2251SOL    HW116857   1.441   0.225   0.549  1.1594  1.0439  0.8583
 2251SOL    HW216858   1.574   0.151   0.609  0.7379 -0.8892 -0.5604
 2252SOL     OW16859   2.903   3.920   1.453  0.6737 -0.0980 -0.0919
 2252SOL    HW116860   2.935   3.969   1.372  3.1692 -0.5434  0.5872
 2252SOL    HW216861   2.803   3.928   1.459  0.8379  3.4031 -0.9302
 2253SOL     OW16862   0.281   6.797   1.248 -0.3352  0.0645  0.5854
 2253SOL    HW116863   0.218   6.873   1.264  0.3502  0.9580 -0.8171
 2253SOL    HW216864   0.240   6.733   1.183  0.0392  0.4558 -0.0431
 2254SOL     OW16865   3.391   8.275   0.412 -0.1536  0.8326 -0.2487
 2254SOL    HW116866   3.324   8.231   0.472 -0.7510 -0.1495 -1.6092
 2254SOL    HW216867   3.353   8.282   0.320  1.4861  0.5614 -0.9609
 2255SOL     OW16868   2.047   7.466   2.043 -0.1989  0.0897 -0.2945
 2255SOL    HW116869   2.118   7.525   2.005  1.2164 -1.4036 -0.0031
 2255SOL    HW216870   2.065   7.449   2.140 -1.7852  0.9089  0.1576
 2256SOL     OW16871   8.995   0.245   2.524  0.2397  0.1115  0.3377
 2256SOL    HW116872   8.996   0.151   2.558 -0.7092  0.5149  1.5083
 2256SOL    HW216873   9.087   0.283   2.531  0.6024 -0.6847 -0.0278
 2257SOL     OW16874   4.505   4.373   1.632  0.6428 -0.2372  0.3606
 2257SOL    HW116875   4.473   4.283   1.662  0.4700 -0.3782 -0.2569
 2257SOL    HW216876   4.505   4.378   1.533 -1.4526  1.2018  0.4147
 2258SOL     OW16877   3.580   8.683   1.346 -0.1561  0.0633  0.0067
 2258SOL    HW116878   3.531   8.758   1.391 -1.2678 -0.6603  0.0342
 2258SOL    HW216879   3.564   8.687   1.248  0.0788  0.0766 -0.0299
 2259SOL     OW16880   0.047   2.515   0.809 -0.0395 -0.2529  0.1266
 2259SOL    HW116881  -0.028   2.527   0.874  0.3596  0.2828  0.4932
 2259SOL    HW216882   0.118   2.458   0.850  0.3690  0.3724  0.2890
 2260SOL     OW16883   3.593   4.192   0.013  0.6115 -0.8016 -0.0288
 2260SOL    HW116884   3.520   4.129   0.039  1.7736 -2.0366  0.3161
 2260SOL    HW216885   3.681   4.148   0.028  1.4352  0.7321 -0.2808
 2261SOL     OW16886   9.883   4.977   0.531 -0.2939  0.7022  0.0198
 2261SOL    HW116887   9.927   4.930   0.608 -0.8655 -0.4986 -0.3826
 2261SOL    HW216888   9.784   4.969   0.539 -0.3344 -1.1615 -1.8830
 2262SOL     OW16889   3.187   3.598   1.790 -0.6446  0.4974  0.0171
 2262SOL    HW116890   3.243   3.663   1.739 -0.5536  0.2559 -0.1948
 2262SOL    HW216891   3.204   3.506   1.756 -1.0846  0.4078  0.0349
 2263SOL     OW16892   3.641   4.809   0.559 -0.4659 -0.3434 -0.2975
 2263SOL    HW116893   3.732   4.771   0.545 -0.2538  0.2018 -0.4085
 2263SOL    HW216894   3.635   4.849   0.651 -0.0332  1.1574 -0.8996
 2264SOL     OW16895   2.380   8.777   0.124  0.7014  0.0168 -0.2503
 2264SOL    HW116896   2.412   8.701   0.068  0.6211  0.5434 -1.0186
 2264SOL    HW216897   2.307   8.826   0.076 -0.4240 -0.4297  0.9546
 2265SOL     OW16898   9.277   3.448   1.877 -0.3727  0.3282 -0.0914
 2265SOL    HW116899   9.297   3.364   1.828 -1.0853  0.3665 -0.4670
 2265SOL    HW216900   9.281   3.432   1.975  1.1224  0.2660 -0.1556
 2266SOL     OW16901   2.686   4.287   1.162  0.9243  0.1662 -0.4561
 2266SOL    HW116902   2.782   4.271   1.186  0.7666  0.0571  0.0987
 2266SOL    HW216903   2.628   4.220   1.207  0.2828  2.1207  1.7489
 2267SOL     OW16904   0.853   2.829   1.575 -0.0943 -0.1854 -0.2228
 2267SOL    HW116905   0.880   2.734   1.562 -1.7749 -0.7839  0.4308
 2267SOL    HW216906   0.768   2.847   1.524  0.5035  1.1162 -0.7850
 2268SOL     OW16907   7.870   8.602   1.169 -0.2584  0.2391  0.2660
 2268SOL    HW116908   7.946   8.653   1.129  2.0108 -0.5880  3.3057
 2268SOL    HW216909   7.872   8.611   1.269 -2.4341 -2.1601  0.5971
 2269SOL     OW16910   4.177   3.038   2.323  0.0193 -0.1649  0.5880
 2269SOL    HW116911   4.106   3.069   2.260  0.5138 -0.8560 -0.3346
 2269SOL    HW216912   4.264   3.031   2.274 -0.1149 -3.2162  0.6678
 2270SOL     OW16913   1.249   4.887   0.581 -0.2610  0.0860 -0.1883
 2270SOL    HW116914   1.264   4.907   0.484  0.3210 -0.5617 -0.2329
 2270SOL    HW216915   1.265   4.969   0.635 -2.4308  0.9722 -0.8134
 2271SOL     OW16916   3.439   2.261   0.797  0.2612  0.2508  0.1993
 2271SOL    HW116917   3.364   2.279   0.861  2.6164 -0.3771  3.2425
 2271SOL    HW216918   3.504   2.337   0.799  0.8558 -0.2223 -0.6923
 2272SOL     OW16919   3.753   3.956   1.901  0.9905 -0.0253  0.1813
 2272SOL    HW116920   3.677   3.948   1.965  1.4985 -1.9860  0.5828
 2272SOL    HW216921   3.719   3.959   1.808  0.3445  0.7137  0.4422
 2273SOL     OW16922   4.205   0.752   0.601  0.2634 -0.6827 -0.5498
 2273SOL    HW116923   4.183   0.673   0.543  0.2936 -0.9821 -0.1578
 2273SOL    HW216924   4.156   0.832   0.568  1.5214 -0.4744 -1.9600
 2274SOL     OW16925   0.481   1.228   1.566 -0.2978  0.0926 -0.5514
 2274SOL    HW116926   0.458   1.245   1.470 -1.3776 -1.1998 -0.5432
 2274SOL    HW216927   0.399   1.204   1.617  0.8204 -3.4473 -0.2640
 2275SOL     OW16928   1.162   7.771   0.690 -0.2537  0.9076 -0.2891
 2275SOL    HW116929   1.237   7.706   0.697 -2.4194 -1.7765 -1.2794
 2275SOL    HW216930   1.185   7.855   0.741  1.9467 -1.1874  2.2953
 2276SOL     OW16931   2.835   4.757   1.611 -0.1405 -0.0693 -0.1327
 2276SOL    HW116932   2.900   4.766   1.686 -2.2750  1.2636  1.6194
 2276SOL    HW216933   2.777   4.677   1.627  0.4831 -0.7705 -1.2635
 2277SOL     OW16934   0.331   0.858   0.978 -0.0324  0.1518  0.9145
 2277SOL    HW116935   0.427   0.881   0.995 -0.6450  2.0055  2.0472
 2277SOL    HW216936   0.278   0.870   1.062 -1.6436  1.3794 -0.2306
 2278SOL     OW16937   0.281   3.475   0.826 -0.6111 -0.0658 -0.5342
 2278SOL    HW116938   0.311   3.462   0.921 -0.4883 -0.0025 -0.5646
 2278SOL    HW216939   0.184   3.497   0.825 -0.4424  0.7119 -0.3713
 2279SOL     OW16940   3.227   8.661   1.413  0.0282  0.3454 -0.5477
 2279SOL    HW116941   3.256   8.742   1.362  0.8419  0.9314  0.7978
 2279SOL    HW216942   3.292   8.644   1.488 -0.8120 -0.8269 -0.0660
 2280SOL     OW16943   1.122   9.179   1.713  0.4147 -0.2744  0.0467
 2280SOL    HW116944   1.035   9.219   1.744  0.4748 -0.2536  0.1888
 2280SOL    HW216945   1.144   9.214   1.622  0.3246 -0.2009  0.0533
 2281SOL     OW16946   2.783   8.536   1.579  0.0214 -0.2199 -0.2268
 2281SOL    HW116947   2.873   8.579   1.578  0.7954 -1.7881 -1.9922
 2281SOL    HW216948   2.782   8.462   1.647 -0.3152  0.5600  0.6199
 2282SOL     OW16949   9.520   2.756   1.589 -0.0518 -0.1108 -0.2838
 2282SOL    HW116950   9.474   2.787   1.506 -0.9440  0.2087  0.3301
 2282SOL    HW216951   9.612   2.795   1.593 -0.5715  1.1171 -0.3405
 2283SOL     OW16952   2.862   0.378   1.192  0.3679  0.4220 -0.2187
 2283SOL    HW116953   2.811   0.449   1.240 -1.5556 -1.1540  0.1847
 2283SOL    HW216954   2.811   0.351   1.110  1.7092  0.3989 -1.0554
 2284SOL     OW16955   1.105   7.690   2.522 -0.4693  0.3478 -0.3736
 2284SOL    HW116956   1.192   7.651   2.553  0.0552  1.7599 -0.0221
 2284SOL    HW216957   1.068   7.749   2.593 -0.6063  1.4820 -1.3640
 2285SOL     OW16958   4.878   3.168   0.389 -0.1661 -0.1328  0.1211
 2285SOL    HW116959   4.924   3.097   0.336  0.1992  0.0153  0.2364
 2285SOL    HW216960   4.803   3.206   0.335 -0.0054 -0.2138 -0.1620
 2286SOL     OW16961   0.418   6.542   1.584  0.2296 -0.4201  0.4345
 2286SOL    HW116962   0.468   6.456   1.579  2.3428  0.5310  3.7109
 2286SOL    HW216963   0.446   6.601   1.508 -0.1904 -2.0214 -1.0063
 2287SOL     OW16964   1.108   8.924   1.695  0.5081 -0.3461  0.3843
 2287SOL    HW116965   1.104   9.021   1.720 -0.5773 -0.5413  1.0144
 2287SOL    HW216966   1.015   8.890   1.678  1.1354 -0.4734 -3.0798
 2288SOL     OW16967   2.267   2.561   0.928 -0.3479  0.2211 -0.1010
 2288SOL    HW116968   2.197   2.596   0.866  0.0108  1.4468  0.1788
 2288SOL    HW216969   2.291   2.467   0.901  0.1967  0.9252 -2.1627
 2289SOL     OW16970   9.300   7.593   1.662  0.2737  0.0858  0.5646
 2289SOL    HW116971   9.222   7.542   1.699  0.6338 -1.0856 -0.2699
 2289SOL    HW216972   9.325   7.667   1.726 -1.4358  0.4033  0.8833
 2290SOL     OW16973   8.749   1.465   0.084  0.2263 -0.0433 -0.2253
 2290SOL    HW116974   8.827   1.519   0.117 -1.1143  1.6798  0.1623
 2290SOL    HW216975   8.711   1.507   0.002  0.1930 -1.3380 -0.8856
 2291SOL     OW16976   9.471   8.939   2.137 -0.1249 -0.5498  0.2821
 2291SOL    HW116977   9.467   8.904   2.230 -0.9442  1.5378  1.0442
 2291SOL    HW216978   9.393   8.905   2.085 -0.9862  0.2243  1.0542
 2292SOL     OW16979   2.529   7.162   2.417 -0.2931  1.2257  0.5379
 2292SOL    HW116980   2.491   7.251   2.442  0.6569  2.2440 -1.4967
 2292SOL    HW216981   2.581   7.125   2.494 -1.7420  1.8256  1.8289
 2293SOL     OW16982   1.592   7.977   2.426 -0.2351  0.0513  0.4487
 2293SOL    HW116983   1.493   7.989   2.428 -0.2472 -0.1462  2.9532
 2293SOL    HW216984   1.633   8.049   2.371 -1.6628  0.9554  0.5417
 2294SOL     OW16985   4.367   4.726   0.329  0.4414 -0.6370 -0.5318
 2294SOL    HW116986   4.374   4.630   0.305  2.7280 -0.2072 -1.7668
 2294SOL    HW216987   4.345   4.780   0.248  0.5380  0.0262 -0.1271
 2295SOL     OW16988   4.221   9.044   0.271 -0.1414  0.4053  0.1715
 2295SOL    HW116989   4.207   9.127   0.325 -0.1792  0.7194 -0.3145
 2295SOL    HW216990   4.309   9.050   0.223 -1.0307  1.0600 -1.4369
 2296SOL     OW16991   3.814   0.673   1.324 -0.0066 -0.5683  0.0547
 2296SOL    HW116992   3.799   0.765   1.290 -1.9524 -0.0177  2.2257
 2296SOL    HW216993   3.896   0.670   1.380  0.7500 -0.4645 -1.0350
 2297SOL     OW16994   2.680   1.306   0.917 -0.5859  0.1123 -0.2973
 2297SOL    HW116995   2.721   1.396   0.908  1.1168 -0.6814 -0.7241
 2297SOL    HW216996   2.594   1.313   0.967 -0.3688  1.9270 -0.1460
 2298SOL     OW16997   1.150   3.328   0.185 -0.4904  0.0986 -0.2003
 2298SOL    HW116998   1.063   3.377   0.195 -0.3796  0.2515  0.0352
 2298SOL    HW216999   1.219   3.373   0.241  0.5794  2.0040 -2.9411
 2299SOL     OW17000   1.038   4.787   2.380 -0.6278 -0.0064 -0.2185
 2299SOL    HW117001   1.123   4.805   2.331 -1.7997 -1.6016 -2.9798
 2299SOL    HW217002   0.978   4.867   2.374 -0.5307  0.0159 -0.9106
 2300SOL     OW17003   2.104   7.971   0.494  0.3611  0.2169  0.2031
 2300SOL    HW117004   2.075   8.034   0.567  0.2879 -0.4995  0.7959
 2300SOL    HW217005   2.051   7.887   0.500  1.8822 -0.7214  0.7084
 2301SOL     OW17006   7.721   9.461   0.860  0.2248 -0.0574 -0.1715
 2301SOL    HW117007   7.755   9.522   0.931  0.2668 -0.9440  0.5823
 2301SOL    HW217008   7.651   9.508   0.807 -0.3452  0.3775  0.9379
 2302SOL     OW17009   9.145   2.471   0.885  0.7030 -1.0807  0.4832
 2302SOL    HW117010   9.161   2.380   0.921  0.0289 -1.7671 -0.9273
 2302SOL    HW217011   9.148   2.469   0.785  2.8869  0.8445  0.4578
 2303SOL     OW17012   9.109   8.960   0.566  0.3117 -0.5517  0.0726
 2303SOL    HW117013   9.113   8.964   0.666  4.4012 -0.7010 -0.0053
 2303SOL    HW217014   9.163   8.883   0.534  3.4992  2.5457 -2.4045
 2304SOL     OW17015   1.149   4.249   1.767 -0.1253 -0.1641 -0.0876
 2304SOL    HW117016   1.096   4.313   1.712  1.4964  0.6141 -0.7686
 2304SOL    HW217017   1.153   4.281   1.861 -0.1632  0.2236 -0.2169
 2305SOL     OW17018   8.085   1.342   1.453  0.2766 -0.3264  0.4887
 2305SOL    HW117019   8.148   1.272   1.421  0.0354  0.3517 -1.5158
 2305SOL    HW217020   7.992   1.318   1.426  0.0782  0.2820  0.6318
 2306SOL     OW17021   9.634   4.743   0.084 -0.1732 -0.0494  0.6577
 2306SOL    HW117022   9.547   4.792   0.084 -1.1339 -1.5909 -2.5172
 2306SOL    HW217023   9.697   4.786   0.148 -2.4532  2.5888  1.2157
 2307SOL     OW17024   1.402   2.985   0.830 -0.3674  0.3849  0.6477
 2307SOL    HW117025   1.412   2.950   0.737 -0.7510 -1.9432  1.4325
 2307SOL    HW217026   1.305   3.004   0.848 -0.6035 -1.3396  1.2868
 2308SOL     OW17027   3.655   1.121   2.183 -0.2877 -0.5632 -0.1491
 2308SOL    HW117028   3.670   1.037   2.235 -1.0379 -0.9386 -0.5318
 2308SOL    HW217029   3.663   1.200   2.244  1.4102 -0.8430  0.0222
 2309SOL     OW17030   2.625   3.948   2.019 -0.2164 -0.4445  0.3345
 2309SOL    HW117031   2.626   4.028   2.079 -2.5431 -1.0845  1.2735
 2309SOL    HW217032   2.606   3.866   2.072 -0.7341 -1.2483 -1.0473
 2310SOL     OW17033   2.827   0.140   0.072 -0.2354  0.2691  0.0246
 2310SOL    HW117034   2.732   0.162   0.097 -1.2274 -1.7929 -1.7692
 2310SOL    HW217035   2.849   0.181  -0.016  0.7733  1.2272  0.7023
 2311SOL     OW17036   4.894   3.594   0.142 -0.2257  0.7495  0.3439
 2311SOL    HW117037   4.879   3.495   0.137  0.2116  0.6566  0.8442
 2311SOL    HW217038   4.829   3.640   0.082  1.2450  0.0131 -1.8727
 2312SOL     OW17039   1.499   7.236   0.870 -0.5232 -0.2281  1.0250
 2312SOL    HW117040   1.530   7.260   0.779  2.1071 -2.0841  1.3647
 2312SOL    HW217041   1.456   7.146   0.868 -3.5887  1.1790  1.0516
 2313SOL     OW17042   8.223   8.941   1.426 -0.5757 -0.1010  0.3909
 2313SOL    HW117043   8.214   8.842   1.415  0.7836 -0.1607 -0.3424
 2313SOL    HW217044   8.310   8.961   1.471 -0.2491  0.8109 -0.6133
 2314SOL     OW17045   1.616   1.484   0.152 -0.1029 -0.0916 -0.2048
 2314SOL    HW117046   1.700   1.533   0.129  0.2894 -0.7639 -0.2218
 2314SOL    HW217047   1.576   1.445   0.068  0.2761 -0.8799 -0.0251
 2315SOL     OW17048   2.195   3.458   2.082  0.1028  0.6689 -0.0365
 2315SOL    HW117049   2.198   3.557   2.095  1.2498  0.4988  1.0938
 2315SOL    HW217050   2.193   3.438   1.984 -2.1384  1.8389 -0.2456
 2316SOL     OW17051   2.535   1.015   1.454  0.1869 -0.5200  0.4231
 2316SOL    HW117052   2.485   0.961   1.522  0.3979 -1.3037 -0.0281
 2316SOL    HW217053   2.530   0.969   1.365  0.0286  0.4229 -0.0635
 2317SOL     OW17054   1.961   6.768   2.031  0.0001  0.3147  0.2221
 2317SOL    HW117055   1.961   6.746   2.129 -2.5030 -0.9727 -0.0391
 2317SOL    HW217056   1.878   6.734   1.989  2.1869 -1.4236 -2.8925
 2318SOL     OW17057   9.273   8.751   1.602  0.1150  0.0811  0.0605
 2318SOL    HW117058   9.309   8.815   1.670  1.3426  0.1587 -0.6326
 2318SOL    HW217059   9.313   8.772   1.513 -0.0859 -1.1483 -0.3287
 2319SOL     OW17060   0.166   3.195   0.873  0.0284 -0.0687  0.3952
 2319SOL    HW117061   0.174   3.285   0.831  1.0358 -0.0098  0.6864
 2319SOL    HW217062   0.087   3.193   0.934  0.3323  0.8123  0.8275
 2320SOL     OW17063   9.562   5.136   1.118  0.0466  0.2182  0.1487
 2320SOL    HW117064   9.580   5.110   1.023 -0.6635 -0.0160  0.0748
 2320SOL    HW217065   9.647   5.134   1.170  0.3115 -0.3929 -0.3065
 2321SOL     OW17066   2.219   4.472   1.943  0.4001 -0.1124 -0.2136
 2321SOL    HW117067   2.183   4.501   1.854  1.7290  1.3349 -0.3101
 2321SOL    HW217068   2.315   4.501   1.951  0.8143 -1.7484  0.9999
 2322SOL     OW17069   1.434   8.982   1.462 -0.3493 -0.1745 -0.2322
 2322SOL    HW117070   1.399   8.916   1.396  0.0833  0.3266 -0.9616
 2322SOL    HW217071   1.522   9.017   1.431  0.3480 -0.7002  1.1229
 2323SOL     OW17072   0.811   5.804   0.728  0.4682  0.5630 -0.2258
 2323SOL    HW117073   0.756   5.782   0.808  0.5936  2.9294  0.5446
 2323SOL    HW217074   0.908   5.803   0.753  0.6806 -1.5357 -1.0675
 2324SOL     OW17075   9.852   3.693   1.537 -0.0055 -0.0082 -0.5412
 2324SOL    HW117076   9.792   3.742   1.475 -0.0236  0.2766 -0.3000
 2324SOL    HW217077   9.797   3.642   1.603  0.0109 -0.5223 -0.9235
 2325SOL     OW17078   1.829   2.367   0.949 -0.5120  0.5693  0.7558
 2325SOL    HW117079   1.906   2.422   0.980 -0.0151  0.0642  0.4313
 2325SOL    HW217080   1.824   2.282   1.002 -1.2357  0.8923  1.2113
 2326SOL     OW17081   4.238   2.226   0.248 -0.5741 -0.2269  0.3998
 2326SOL    HW117082   4.275   2.319   0.250  0.3389 -0.5604 -0.5545
 2326SOL    HW217083   4.165   2.221   0.180 -0.4277 -0.2759  0.2451
 2327SOL     OW17084   1.663   6.161   0.740 -0.2489  0.0636 -0.1505
 2327SOL    HW117085   1.696   6.098   0.670 -1.5433 -0.6893 -0.1012
 2327SOL    HW217086   1.563   6.166   0.736 -0.4977 -1.3828  2.7816
 2328SOL     OW17087   3.142   8.473   1.786  0.7717 -0.5494 -0.2703
 2328SOL    HW117088   3.132   8.501   1.882  0.0056 -1.3253 -0.1180
 2328SOL    HW217089   3.222   8.519   1.746  0.1702  0.9911  0.2801
 2329SOL     OW17090   9.870   3.139   1.305  0.1662 -0.2204  0.0806
 2329SOL    HW117091   9.961   3.148   1.344  0.8835  0.1716 -1.6549
 2329SOL    HW217092   9.829   3.230   1.296 -0.0832 -0.3305  0.0920
 2330SOL     OW17093   3.297   2.503   1.612  0.3200  0.7418 -0.2505
 2330SOL    HW117094   3.324   2.408   1.631  0.1380  0.5838 -0.7871
 2330SOL    HW217095   3.235   2.505   1.533 -0.6794  1.1790  0.5375
 2331SOL     OW17096   8.964   0.759   0.376  0.0948  0.4565  0.0162
 2331SOL    HW117097   8.966   0.760   0.276  0.2593  0.6071  0.0217
 2331SOL    HW217098   8.932   0.847   0.410 -2.2086 -0.3594  0.0436
 2332SOL     OW17099   9.830   7.691   0.208 -0.6460  0.1577  0.3539
 2332SOL    HW117100   9.834   7.722   0.303  2.2895  2.3814 -0.4335
 2332SOL    HW217101   9.819   7.591   0.206 -1.9320  0.1940  2.9780
 2333SOL     OW17102   0.328   3.447   1.131 -0.0472  0.4600  0.5129
 2333SOL    HW117103   0.378   3.510   1.191  0.9482  0.8158 -0.6865
 2333SOL    HW217104   0.337   3.354   1.167  2.5630  0.3267 -0.3761
 2334SOL     OW17105   0.527   5.151   1.468 -0.0022  0.0182  0.3091
 2334SOL    HW117106   0.436   5.145   1.426 -0.5806 -1.2813  1.6836
 2334SOL    HW217107   0.558   5.246   1.468 -1.8517  0.6546  0.8064
 2335SOL     OW17108   9.544   0.854   1.495  0.6890  0.2834 -0.1661
 2335SOL    HW117109   9.448   0.876   1.480  0.7714  0.6959 -0.1017
 2335SOL    HW217110   9.582   0.915   1.565  0.1277 -2.0688  2.2671
 2336SOL     OW17111   3.112   2.651   1.361 -0.6885 -0.8606  0.0432
 2336SOL    HW117112   3.022   2.621   1.394 -1.4172  1.7847  0.5866
 2336SOL    HW217113   3.175   2.573   1.360 -1.9504 -2.0011  3.2594
 2337SOL     OW17114   0.466   5.601   2.009  0.3181 -0.2357  0.3523
 2337SOL    HW117115   0.548   5.651   2.035  0.3821 -0.5735  0.7991
 2337SOL    HW217116   0.447   5.531   2.077  0.8039 -1.4939 -0.7962
 2338SOL     OW17117   1.767   3.055   1.050  0.4624 -0.0369 -0.5637
 2338SOL    HW117118   1.739   3.025   1.142 -0.7238 -1.0583 -1.2291
 2338SOL    HW217119   1.826   2.985   1.010 -0.1245 -0.2381 -1.0866
 2339SOL     OW17120   0.149   2.505   0.282  0.7232 -0.0834 -0.4373
 2339SOL    HW117121   0.131   2.461   0.370 -2.0663  1.9145  0.0603
 2339SOL    HW217122   0.226   2.460   0.237  1.6633 -1.6643  2.6414
 2340SOL     OW17123   0.559   0.809   0.624 -0.1471 -0.0828 -0.2877
 2340SOL    HW117124   0.485   0.745   0.603 -0.4459  0.0277  0.4200
 2340SOL    HW217125   0.523   0.902   0.627  0.0243 -0.0263  0.0309
 2341SOL     OW17126   8.628   7.433   2.031 -0.1753  0.2226  0.1803
 2341SOL    HW117127   8.540   7.427   1.985  0.4463 -2.9824 -0.7291
 2341SOL    HW217128   8.628   7.376   2.113  1.2757 -0.3886 -0.2203
 2342SOL     OW17129   9.191   0.854   1.856 -0.0153 -0.0879 -0.3967
 2342SOL    HW117130   9.198   0.781   1.925  0.0151  0.1002 -0.1991
 2342SOL    HW217131   9.255   0.927   1.880  0.3199 -0.2241 -0.8728
 2343SOL     OW17132   1.342   0.656   0.489 -0.2673  0.6268 -0.1992
 2343SOL    HW117133   1.384   0.715   0.420 -0.9659  0.6122 -0.6337
 2343SOL    HW217134   1.393   0.665   0.575  1.3714 -0.2995 -1.0458
 2344SOL     OW17135   9.089   1.173   2.115 -0.1326  0.5523 -0.0204
 2344SOL    HW117136   9.059   1.215   2.201  0.1077 -1.4897  1.1048
 2344SOL    HW217137   9.056   1.078   2.112  3.8532 -0.9177  0.0215
 2345SOL     OW17138   9.779   6.728   0.103 -0.1107 -0.5751  0.5047
 2345SOL    HW117139   9.695   6.773   0.073  0.1246 -0.5625 -0.1467
 2345SOL    HW217140   9.757   6.636   0.137 -0.2269 -1.0810 -0.9158
 2346SOL     OW17141   9.166   9.181   1.510  0.2238 -0.5300 -0.1941
 2346SOL    HW117142   9.211   9.153   1.595 -0.5363  0.1551  0.4530
 2346SOL    HW217143   9.076   9.219   1.532 -0.2001 -0.8371 -1.3616
 2347SOL     OW17144   8.886   9.801   2.457 -0.3049 -0.4058  0.1306
 2347SOL    HW117145   8.873   9.702   2.447 -1.1418 -0.3140  0.3219
 2347SOL    HW217146   8.870   9.846   2.370  0.7888 -0.5093 -0.1340
 2348SOL     OW17147   0.601   9.358   2.209 -0.2493 -0.1223 -0.6263
 2348SOL    HW117148   0.528   9.292   2.193 -0.3043 -0.3211  0.4370
 2348SOL    HW217149   0.680   9.311   2.249 -0.5298  0.5751  0.7456
 2349SOL     OW17150   2.923   4.118   1.191  0.5118 -0.0319  0.3709
 2349SOL    HW117151   2.970   4.123   1.103 -0.6147  0.8629 -0.2054
 2349SOL    HW217152   2.849   4.051   1.186  0.6249 -0.1809  0.7156
 2350SOL     OW17153   0.567   4.817   1.249  0.3861  0.1288 -0.0017
 2350SOL    HW117154   0.602   4.888   1.310  1.5052 -1.9053  1.8102
 2350SOL    HW217155   0.616   4.732   1.266 -0.9465 -1.0981 -2.1072
 2351SOL     OW17156   0.880   6.144   0.204  0.0079 -0.0577 -0.1738
 2351SOL    HW117157   0.821   6.221   0.179 -3.5871 -2.0684  1.7891
 2351SOL    HW217158   0.898   6.088   0.123 -1.0069  0.4067 -0.7212
 2352SOL     OW17159   4.506   2.291   0.937 -0.3018  0.5972 -0.3291
 2352SOL    HW117160   4.469   2.219   0.879  0.5892  0.2626 -0.4887
 2352SOL    HW217161   4.524   2.255   1.029  3.3225 -0.3224 -1.3294
 2353SOL     OW17162   0.882   6.885   0.330  0.9812  0.2939 -0.3971
 2353SOL    HW117163   0.898   6.926   0.419 -3.1752 -0.9454  1.0585
 2353SOL    HW217164   0.866   6.957   0.262  1.4954  1.1999  0.4463
 2354SOL     OW17165   9.157   7.103   1.574 -0.3262 -0.6123  0.0613
 2354SOL    HW117166   9.254   7.107   1.553 -0.4056 -0.7968 -0.3533
 2354SOL    HW217167   9.111   7.182   1.531 -0.6874 -1.6734 -1.5502
 2355SOL     OW17168   9.478   9.248   0.762  0.4235 -0.4232  0.2346
 2355SOL    HW117169   9.417   9.231   0.838  0.3420 -1.2690 -0.0191
 2355SOL    HW217170   9.520   9.338   0.772  0.4885 -0.5786  1.3207
 2356SOL     OW17171   2.471   9.530   2.201  0.5211  0.4229  0.2903
 2356SOL    HW117172   2.448   9.495   2.110 -0.3407  3.2138 -0.6152
 2356SOL    HW217173   2.425   9.475   2.271 -0.4068 -0.5282 -1.0483
 2357SOL     OW17174   9.028   7.729   0.787  0.5027  0.1048 -0.2251
 2357SOL    HW117175   9.059   7.716   0.881 -2.6939  3.1494  1.3451
 2357SOL    HW217176   9.070   7.811   0.749 -1.6986  1.4489  0.1826
 2358SOL     OW17177   1.280   4.220   1.098  0.5013  0.0489 -0.1544
 2358SOL    HW117178   1.327   4.219   1.186 -0.2513 -1.1275  0.2421
 2358SOL    HW217179   1.324   4.287   1.038  0.2399  1.7657  1.5217
 2359SOL     OW17180   9.792   6.227   2.554 -0.3207  0.0247 -0.2262
 2359SOL    HW117181   9.856   6.289   2.508  2.1928 -0.9162  1.9026
 2359SOL    HW217182   9.801   6.135   2.515 -0.7642  0.0139 -0.2991
 2360SOL     OW17183   0.799   1.895   2.534 -0.2074 -0.4199  0.2699
 2360SOL    HW117184   0.834   1.963   2.599  1.1834 -0.4674 -0.4165
 2360SOL    HW217185   0.760   1.941   2.455  1.8803 -0.4012 -0.7891
 2361SOL     OW17186   8.598   9.775   1.408 -0.2943  0.3401 -0.3695
 2361SOL    HW117187   8.633   9.694   1.360 -0.6930  0.3455 -0.6659
 2361SOL    HW217188   8.520   9.812   1.359 -1.5582 -0.4472  0.9988
 2362SOL     OW17189   1.464   6.371   0.641  0.1656  0.3799  0.4233
 2362SOL    HW117190   1.458   6.275   0.612  0.8660  0.0184  1.4260
 2362SOL    HW217191   1.376   6.400   0.677 -0.1299  0.2001 -0.1489
 2363SOL     OW17192   1.749   3.414   2.038  0.4580 -0.7401 -0.4862
 2363SOL    HW117193   1.821   3.387   2.102  0.8717 -2.7796 -1.7583
 2363SOL    HW217194   1.690   3.483   2.081  1.6740 -0.8826  1.4810
 2364SOL     OW17195   9.810   2.272   0.572  0.0245  0.2221  0.0883
 2364SOL    HW117196   9.864   2.245   0.652  0.3106  0.0820 -0.1539
 2364SOL    HW217197   9.713   2.262   0.594  0.1276 -2.5427 -0.5150
 2365SOL     OW17198   1.426   1.678   0.324  0.4313 -0.1038  0.2145
 2365SOL    HW117199   1.472   1.623   0.254 -1.4636  1.1393 -2.0552
 2365SOL    HW217200   1.485   1.754   0.350  0.6854  0.0778 -0.8703
 2366SOL     OW17201   2.797   6.516   1.595 -0.1822 -0.7943  0.0162
 2366SOL    HW117202   2.822   6.552   1.505  0.5937 -0.2000  0.4708
 2366SOL    HW217203   2.703   6.480   1.591 -0.4872  0.0720 -0.7726
 2367SOL     OW17204   8.400   1.309   2.049 -0.1451 -0.0401  0.2257
 2367SOL    HW117205   8.374   1.230   2.104  0.5490 -0.2976  0.1919
 2367SOL    HW217206   8.318   1.352   2.012 -0.4186 -2.2411 -1.8401
 2368SOL     OW17207   9.063   0.753   0.848  0.5806  0.2277  0.6791
 2368SOL    HW117208   9.049   0.846   0.883  0.6714 -0.0920  1.5742
 2368SOL    HW217209   8.986   0.727   0.790  0.0066  0.4395  1.3412
 2369SOL     OW17210   8.073   0.196   0.228  0.1265 -0.2671  0.5793
 2369SOL    HW117211   7.974   0.205   0.237 -0.0677 -0.7166 -1.0261
 2369SOL    HW217212   8.107   0.259   0.158  0.5607 -2.2255 -1.0102
 2370SOL     OW17213   0.943   5.567   0.472  0.1696 -0.1994 -0.3935
 2370SOL    HW117214   0.897   5.617   0.545 -0.5269 -1.9307  0.3867
 2370SOL    HW217215   0.876   5.544   0.400  0.5596  0.3214 -0.9237
 2371SOL     OW17216   1.271   7.990   1.063 -0.4526 -0.1608  0.0981
 2371SOL    HW117217   1.359   8.027   1.033  0.2108 -0.4464  1.6424
 2371SOL    HW217218   1.204   8.002   0.990  0.7457  0.4671 -0.9350
 2372SOL     OW17219   0.038   6.828   2.339  0.4575 -0.4316 -0.1018
 2372SOL    HW117220  -0.029   6.826   2.265  1.4426 -2.4581 -0.9750
 2372SOL    HW217221   0.130   6.835   2.300  0.9500 -0.9249  0.9573
 2373SOL     OW17222   3.849   3.514   2.025  0.1649  0.0384  0.1069
 2373SOL    HW117223   3.869   3.612   2.018 -1.4834  0.3786 -0.0732
 2373SOL    HW217224   3.871   3.469   1.939  1.7242  0.0894  0.4680
 2374SOL     OW17225   2.140   5.485   1.787  0.2854 -0.6699 -0.2194
 2374SOL    HW117226   2.163   5.446   1.698 -0.2265  1.2300 -1.2083
 2374SOL    HW217227   2.218   5.539   1.821 -0.1219 -0.0327 -0.2905
 2375SOL     OW17228   2.176   1.369   1.736 -0.0695  0.2826 -0.2832
 2375SOL    HW117229   2.218   1.449   1.694 -2.1422  1.3319 -0.4308
 2375SOL    HW217230   2.185   1.291   1.675 -0.1158  0.9844 -1.2014
 2376SOL     OW17231   9.973   6.383   1.737  0.3033  0.4126  0.3380
 2376SOL    HW117232  10.010   6.468   1.700  2.4549 -0.6908 -0.0789
 2376SOL    HW217233  10.036   6.344   1.804 -0.4688 -1.0854  0.2292
 2377SOL     OW17234   1.491   0.827   0.984  0.0793  0.4143 -0.1120
 2377SOL    HW117235   1.455   0.772   1.059  0.6885 -1.0275 -0.8595
 2377SOL    HW217236   1.416   0.873   0.937 -0.7030 -1.7147 -0.9993
 2378SOL     OW17237   9.096   8.955   0.849  0.2605  0.0552  0.3224
 2378SOL    HW117238   9.094   9.054   0.864 -3.6612  0.0935  0.1307
 2378SOL    HW217239   9.176   8.916   0.894  0.7366  3.0603  2.2079
 2379SOL     OW17240   3.160   8.884   1.268  0.0680 -0.4397  0.1564
 2379SOL    HW117241   3.212   8.947   1.211  0.2649 -1.2580 -0.5813
 2379SOL    HW217242   3.134   8.929   1.353  0.4879  0.5259 -0.2257
 2380SOL     OW17243   9.525   9.323   1.406  0.4727 -0.1889  0.9140
 2380SOL    HW117244   9.429   9.349   1.417  0.3366 -0.0337 -0.6342
 2380SOL    HW217245   9.571   9.329   1.495 -0.3256  2.1562  1.2024
 2381SOL     OW17246   0.306   9.710   0.794 -0.3942  0.2645 -0.1311
 2381SOL    HW117247   0.273   9.782   0.856  1.3645  1.2805 -0.3430
 2381SOL    HW217248   0.249   9.708   0.712 -1.0791  0.7279  0.3254
 2382SOL     OW17249   2.929   4.796   0.687 -0.1182  0.4136 -0.4523
 2382SOL    HW117250   2.895   4.780   0.779  0.0253 -0.6619 -0.5785
 2382SOL    HW217251   2.906   4.718   0.629  1.0760  0.4175 -0.9539
 2383SOL     OW17252   0.072   3.499   0.030 -0.6965 -0.6902  0.0337
 2383SOL    HW117253   0.001   3.568   0.042  0.9337  0.8594  0.8969
 2383SOL    HW217254   0.118   3.514  -0.057  1.3926  0.9691  1.3754
 2384SOL     OW17255   1.330   5.545   1.225  0.3018  0.0999 -0.5504
 2384SOL    HW117256   1.334   5.500   1.314  0.3674  0.7052 -0.2468
 2384SOL    HW217257   1.242   5.524   1.181 -0.1395  0.6012  0.0800
 2385SOL     OW17258   1.290   5.485   0.777 -0.0165  0.4350 -0.4532
 2385SOL    HW117259   1.324   5.528   0.693 -0.5094  0.9434 -0.3935
 2385SOL    HW217260   1.351   5.506   0.853 -0.0365  0.6965 -0.5084
 2386SOL     OW17261   8.981   7.790   0.329  0.6461 -0.2413  0.2394
 2386SOL    HW117262   8.920   7.762   0.404  1.1574 -0.3751  0.6035
 2386SOL    HW217263   9.076   7.781   0.358  0.8806 -1.7066 -0.9253
 2387SOL     OW17264   7.582   9.610   2.238 -0.4450 -0.1946  0.2858
 2387SOL    HW117265   7.489   9.596   2.205 -0.1748  2.1550 -1.5999
 2387SOL    HW217266   7.647   9.573   2.171  0.0186  0.6615  0.2522
 2388SOL     OW17267   9.525   8.551   0.614  0.2256 -0.0017  0.1384
 2388SOL    HW117268   9.570   8.539   0.525 -0.7630 -0.9646 -0.2408
 2388SOL    HW217269   9.495   8.463   0.649  1.2248  0.2812  1.7793
 2389SOL     OW17270   2.965   7.775   2.247 -0.3216 -0.1317  0.3561
 2389SOL    HW117271   3.009   7.741   2.163 -0.3127 -0.3471  0.4476
 2389SOL    HW217272   3.027   7.760   2.324 -0.6640 -0.6577  0.5226
 2390SOL     OW17273   1.949   6.470   2.146 -0.0177 -0.1297  1.2464
 2390SOL    HW117274   2.025   6.416   2.110 -0.8676 -1.1915  1.0092
 2390SOL    HW217275   1.893   6.502   2.069 -0.3511 -0.1639  1.4772
 2391SOL     OW17276   3.249   5.497   0.805 -0.0560  0.4652 -0.4845
 2391SOL    HW117277   3.238   5.438   0.885 -0.1345 -0.9849 -1.5517
 2391SOL    HW217278   3.331   5.553   0.817 -1.1704  1.7544  1.5136
 2392SOL     OW17279   4.829   3.854   1.154 -0.0913 -0.5397 -0.1616
 2392SOL    HW117280   4.827   3.940   1.104  0.4718 -1.3540 -1.6119
 2392SOL    HW217281   4.781   3.865   1.242 -2.7486  0.3922 -1.6653
 2393SOL     OW17282   1.855   0.681   1.796  0.0073  0.7214 -0.1817
 2393SOL    HW117283   1.784   0.614   1.776  0.4223  0.4981 -0.9117
 2393SOL    HW217284   1.834   0.727   1.883  0.0257 -0.7480  0.6120
 2394SOL     OW17285   0.513   2.430   2.008 -0.4933  0.1104 -0.0295
 2394SOL    HW117286   0.570   2.348   2.003 -0.7467  0.0068 -1.3576
 2394SOL    HW217287   0.454   2.424   2.088  1.0954  0.0591  1.1853
 2395SOL     OW17288   3.225   8.058   0.038  0.0252 -0.4379 -0.1367
 2395SOL    HW117289   3.142   8.067  -0.016  1.1632  1.6316 -1.5767
 2395SOL    HW217290   3.234   8.137   0.099  0.6289 -0.9728  0.4793
 2396SOL     OW17291   1.950   0.249   1.869  0.2125 -0.2790 -0.0326
 2396SOL    HW117292   1.964   0.150   1.871 -2.0592 -0.5831  2.1721
 2396SOL    HW217293   1.857   0.271   1.898  1.0357  2.5746  0.6367
 2397SOL     OW17294   2.579   1.036   2.055  0.2921 -0.6065 -0.0321
 2397SOL    HW117295   2.509   1.088   2.005  0.7107  0.8273  0.8447
 2397SOL    HW217296   2.620   1.094   2.125  1.2312 -1.9408  0.5466
 2398SOL     OW17297   4.213   0.569   1.877 -0.5612 -0.2992  0.3219
 2398SOL    HW117298   4.142   0.638   1.860 -0.9412 -0.8517 -0.3240
 2398SOL    HW217299   4.225   0.513   1.796  1.1611  0.2709  0.1606
 2399SOL     OW17300   4.015   0.976   0.505 -0.3029  0.1153 -0.5839
 2399SOL    HW117301   3.988   1.007   0.596  1.1835 -2.2889  0.7414
 2399SOL    HW217302   4.084   1.037   0.468  1.4442 -0.6199  1.3223
 2400SOL     OW17303   0.894   8.072   1.351  0.2432 -0.1230  0.2182
 2400SOL    HW117304   0.820   8.112   1.405  0.4818 -0.3025  0.6795
 2400SOL    HW217305   0.855   8.018   1.276 -0.1002  1.8809 -1.1174
 2401SOL     OW17306   3.804   3.473   1.615 -0.3773 -0.4307  1.0522
 2401SOL    HW117307   3.804   3.573   1.605 -0.4154 -0.6212 -1.1932
 2401SOL    HW217308   3.712   3.441   1.637 -0.7370 -0.1095  0.0373
 2402SOL     OW17309   2.864   4.233   1.953 -0.1879 -0.1943  0.0340
 2402SOL    HW117310   2.921   4.169   1.902 -0.8779 -1.6363  1.0413
 2402SOL    HW217311   2.902   4.245   2.045 -0.5808  0.1472  0.1546
 2403SOL     OW17312   2.213   2.304   0.890  0.4183  1.1676 -0.2035
 2403SOL    HW117313   2.160   2.269   0.967  2.0694 -1.6898 -0.2875
 2403SOL    HW217314   2.155   2.309   0.809  0.1440 -1.5124 -0.1970
 2404SOL     OW17315   1.272   8.234   2.285 -0.4006 -0.0212 -0.4873
 2404SOL    HW117316   1.186   8.208   2.241 -0.1015 -0.2758 -0.9307
 2404SOL    HW217317   1.295   8.168   2.356 -1.1167  0.6405  0.3613
 2405SOL     OW17318   2.728   7.640   1.543  0.2145 -0.2326  0.5148
 2405SOL    HW117319   2.744   7.545   1.571  1.1417 -0.2813 -0.1730
 2405SOL    HW217320   2.747   7.701   1.620  0.3603 -0.5511  0.7312
 2406SOL     OW17321   7.911   9.553   0.077  0.6268 -0.2824 -0.0085
 2406SOL    HW117322   7.909   9.500   0.162 -1.1621 -0.5719 -0.2016
 2406SOL    HW217323   7.844   9.627   0.082 -0.4293 -1.0989 -1.6581
 2407SOL     OW17324   4.421   2.737   1.333 -0.4235 -0.3266  0.3121
 2407SOL    HW117325   4.393   2.765   1.424  0.3115 -2.4062  1.2142
 2407SOL    HW217326   4.503   2.679   1.339 -1.0686 -1.4889 -1.5394
 2408SOL     OW17327   9.969   9.827   0.756  0.5147 -0.3208  0.3906
 2408SOL    HW117328   9.872   9.835   0.779  0.4591 -1.4545  0.5655
 2408SOL    HW217329  10.022   9.813   0.840  0.6803 -1.0480  0.1701
 2409SOL     OW17330   9.393   5.317   0.051 -0.2206 -0.0150  0.0471
 2409SOL    HW117331   9.479   5.305   0.000 -0.8557 -1.0978 -0.7935
 2409SOL    HW217332   9.398   5.401   0.105  0.6751  0.8684 -1.3876
 2410SOL     OW17333   0.731   9.295   1.027 -0.5214 -0.2334  0.4637
 2410SOL    HW117334   0.650   9.351   1.039 -0.5465 -0.1369 -0.1873
 2410SOL    HW217335   0.705   9.204   0.994 -0.5926 -1.0298  2.6120
 2411SOL     OW17336   3.128   3.252   0.019  0.2479  0.2552  0.6422
 2411SOL    HW117337   3.094   3.181   0.081 -0.2450  0.5708  0.7316
 2411SOL    HW217338   3.211   3.292   0.056  0.6980 -0.4860  0.4458
 2412SOL     OW17339   8.802   9.885   2.187 -0.0899 -0.2909 -0.4360
 2412SOL    HW117340   8.828   9.911   2.094 -0.4481  1.3669 -0.0880
 2412SOL    HW217341   8.733   9.813   2.183 -0.2985 -0.0450 -1.4517
 2413SOL     OW17342   0.357   0.924   2.378 -0.4829  0.3627  0.0836
 2413SOL    HW117343   0.354   0.975   2.292 -0.3415 -0.5949 -0.4970
 2413SOL    HW217344   0.449   0.928   2.416  0.4632 -2.3034 -1.7302
 2414SOL     OW17345   4.436   2.976   1.209  0.3899 -0.1428 -0.3570
 2414SOL    HW117346   4.360   3.001   1.150 -0.3438  0.2075  0.7243
 2414SOL    HW217347   4.424   2.881   1.240 -0.0465  0.1896  0.4910
 2415SOL     OW17348   0.728   2.102   2.339 -0.0741 -0.0473 -0.2468
 2415SOL    HW117349   0.733   2.055   2.251 -0.9016  0.3107 -0.4948
 2415SOL    HW217350   0.791   2.179   2.339  0.1118 -0.2003 -0.4337
 2416SOL     OW17351   1.254   4.171   2.218 -0.2597 -0.0739  0.5675
 2416SOL    HW117352   1.240   4.073   2.208  1.7290 -0.2708 -0.5254
 2416SOL    HW217353   1.218   4.201   2.307 -2.6110 -1.4132  0.1213
 2417SOL     OW17354   1.533   1.955   1.070  0.1603 -0.2253 -0.3107
 2417SOL    HW117355   1.495   1.863   1.063 -0.8795  0.1340  0.3678
 2417SOL    HW217356   1.490   2.014   1.001 -1.2399  0.4122  1.0747
 2418SOL     OW17357   0.952   5.947   1.078 -0.1435  0.0159  0.0603
 2418SOL    HW117358   0.927   5.854   1.105  0.1876 -0.2142 -0.4125
 2418SOL    HW217359   1.034   5.944   1.020 -1.2134  0.4574 -1.4918
 2419SOL     OW17360   0.785   6.722   1.891 -0.3156 -0.2051  0.0975
 2419SOL    HW117361   0.880   6.702   1.916 -0.0147  0.9115 -0.1271
 2419SOL    HW217362   0.755   6.806   1.938 -1.1150 -0.4166 -0.0251
 2420SOL     OW17363   1.819   5.925   0.953  0.1156  0.1108 -0.0763
 2420SOL    HW117364   1.721   5.908   0.949  0.0706  0.5448 -0.9517
 2420SOL    HW217365   1.860   5.871   1.026 -0.7340 -0.2786  0.1077
 2421SOL     OW17366   0.196   1.391   1.608  0.3730 -0.2788  0.0371
 2421SOL    HW117367   0.266   1.411   1.676  0.1325  0.8471 -0.0481
 2421SOL    HW217368   0.166   1.475   1.564 -0.6023 -0.8211 -0.3618
 2422SOL     OW17369   9.969   9.238   0.132 -0.1403  0.4383  0.3230
 2422SOL    HW117370  10.028   9.309   0.096 -0.4765  0.6836  0.2562
 2422SOL    HW217371   9.989   9.223   0.229 -0.5433  1.1036  0.5106
 2423SOL     OW17372   1.916   0.429   0.677 -0.1602 -0.3705  1.1855
 2423SOL    HW117373   1.943   0.448   0.583 -1.0809 -1.1398  0.7577
 2423SOL    HW217374   1.933   0.510   0.734 -0.8203  0.5562  0.0873
 2424SOL     OW17375   9.439   6.273   1.555 -0.3951  0.0210  0.0887
 2424SOL    HW117376   9.354   6.250   1.602 -0.1473 -0.2698  0.4014
 2424SOL    HW217377   9.485   6.348   1.604  0.0864 -0.5830  0.5826
 2425SOL     OW17378   2.979   1.383   0.647 -0.5521 -0.6233  0.5126
 2425SOL    HW117379   3.031   1.346   0.725 -1.2983 -1.8880  0.4225
 2425SOL    HW217380   2.883   1.356   0.656 -0.5726 -1.0635 -1.0392
 2426SOL     OW17381   4.999   3.635   2.286  0.7645  0.0681  0.0722
 2426SOL    HW117382   4.908   3.595   2.294  1.2555 -1.0883 -0.0176
 2426SOL    HW217383   5.037   3.614   2.196  1.4442 -0.1479  0.4055
 2427SOL     OW17384   3.899   8.228   0.459  0.1606 -0.2940 -0.1651
 2427SOL    HW117385   3.816   8.263   0.417  0.5359  1.0469  0.1918
 2427SOL    HW217386   3.876   8.157   0.526 -0.6100 -0.6626 -0.8210
 2428SOL     OW17387   4.760   3.748   0.667 -0.2318  0.2989 -0.2553
 2428SOL    HW117388   4.772   3.846   0.652  1.5109  0.0763 -0.4366
 2428SOL    HW217389   4.768   3.700   0.579  0.9301 -0.1794  0.1052
 2429SOL     OW17390   3.507   8.720   0.781 -0.3081 -0.0657 -0.5251
 2429SOL    HW117391   3.580   8.665   0.822 -0.0995 -0.9601 -2.0810
 2429SOL    HW217392   3.547   8.800   0.737 -0.3204 -0.2965 -0.9524
 2430SOL     OW17393   0.864   3.524   1.803 -0.2646 -0.1057 -0.0712
 2430SOL    HW117394   0.941   3.581   1.775  2.2946 -2.9798  0.7954
 2430SOL    HW217395   0.864   3.515   1.903 -0.7485 -1.4191 -0.1793
 2431SOL     OW17396   1.045   2.289   0.171  0.0884 -1.0246 -0.4595
 2431SOL    HW117397   0.966   2.350   0.166  0.7441  0.0086  1.2613
 2431SOL    HW217398   1.129   2.343   0.174  0.6375 -1.9532  2.0020
 2432SOL     OW17399   8.867   9.917   0.647 -0.1502 -0.2333 -0.0387
 2432SOL    HW117400   8.924   9.919   0.565  1.6696  1.2765  1.2010
 2432SOL    HW217401   8.805   9.996   0.646 -1.0144 -0.9059 -0.5394
 2433SOL     OW17402   0.044   1.873   1.638  0.0130 -0.1164  0.6088
 2433SOL    HW117403   0.105   1.951   1.644  0.0452 -0.0402 -0.6012
 2433SOL    HW217404  -0.027   1.880   1.708 -1.3813  2.2109 -0.9830
 2434SOL     OW17405   1.431   9.494   1.290 -0.4032 -0.1083 -0.3440
 2434SOL    HW117406   1.520   9.449   1.293 -0.4798 -0.2551 -0.3041
 2434SOL    HW217407   1.369   9.443   1.231  0.2975  1.3275 -2.4005
 2435SOL     OW17408   8.621   1.926   1.223 -0.5331  0.1590  0.1108
 2435SOL    HW117409   8.721   1.927   1.221 -0.5533  0.5636 -1.0703
 2435SOL    HW217410   8.590   1.912   1.317  0.6309  0.5533  0.5674
 2436SOL     OW17411   0.374   4.309   2.576 -0.0535  0.6237 -0.3287
 2436SOL    HW117412   0.375   4.268   2.485  2.2929  0.9697 -0.4914
 2436SOL    HW217413   0.428   4.252   2.639 -0.6375  1.0290  0.5481
 2437SOL     OW17414   0.166   9.020   2.429  0.0492  0.6692  0.0361
 2437SOL    HW117415   0.236   9.042   2.361  0.2162 -0.0436 -0.0272
 2437SOL    HW217416   0.076   9.021   2.386 -0.0321  2.0801  0.2287
 2438SOL     OW17417   2.501   6.640   2.010  0.2217  0.1845 -0.8438
 2438SOL    HW117418   2.552   6.575   1.954 -1.6647 -0.2509 -2.1245
 2438SOL    HW217419   2.403   6.632   1.989 -0.2593  1.8688  0.6228
 2439SOL     OW17420   0.090   0.923   1.898  0.8024  0.3481 -0.5185
 2439SOL    HW117421   0.186   0.901   1.920  0.1948 -1.6849  0.1861
 2439SOL    HW217422   0.076   0.915   1.800  1.4617  1.1288 -0.6882
 2440SOL     OW17423   0.660   3.233   0.573  0.2291 -0.1606  0.1586
 2440SOL    HW117424   0.573   3.280   0.591  0.9597  0.7420  1.4363
 2440SOL    HW217425   0.642   3.144   0.530 -1.3179 -0.0101  0.4663
 2441SOL     OW17426   1.421   9.050   1.065 -0.4615  0.5432 -0.3389
 2441SOL    HW117427   1.387   8.979   1.127 -0.1983 -1.6020 -2.6007
 2441SOL    HW217428   1.375   9.042   0.977  1.6132  1.3874 -1.5233
 2442SOL     OW17429   3.224   8.655   1.025  0.4340  0.4984  0.7842
 2442SOL    HW117430   3.177   8.743   1.017  0.2905  0.1997 -2.1954
 2442SOL    HW217431   3.168   8.593   1.079 -0.0153  1.8484  1.9085
 2443SOL     OW17432   8.464   1.285   1.622 -0.1118  0.3450 -0.3502
 2443SOL    HW117433   8.394   1.351   1.594 -0.2032 -0.2492 -1.5219
 2443SOL    HW217434   8.420   1.201   1.654  0.0420  0.2012 -0.5138
 2444SOL     OW17435   3.162   0.940   0.393 -0.1224  0.0969  0.2492
 2444SOL    HW117436   3.097   1.014   0.374  1.2418  1.2198 -0.1772
 2444SOL    HW217437   3.113   0.858   0.421 -1.7582  0.6314 -1.0307
 2445SOL     OW17438   2.032   1.709   2.232 -0.1799  0.3968 -0.1194
 2445SOL    HW117439   2.017   1.747   2.140 -0.7328  2.4663  0.8061
 2445SOL    HW217440   2.130   1.707   2.252 -0.0959  0.4843 -0.5121
 2446SOL     OW17441   2.325   0.282   0.056  0.2951  0.9224 -0.0455
 2446SOL    HW117442   2.344   0.190   0.021  1.1079  1.2331 -0.4321
 2446SOL    HW217443   2.226   0.295   0.063  0.1692  0.1015 -0.2069
 2447SOL     OW17444   0.629   0.763   2.468 -0.4342  0.5330 -0.4813
 2447SOL    HW117445   0.678   0.711   2.398  2.0769  0.2457  1.4201
 2447SOL    HW217446   0.663   0.857   2.469 -1.7410  1.0254 -0.8179
 2448SOL     OW17447   3.492   9.820   2.252  0.5268 -0.5202 -0.6727
 2448SOL    HW117448   3.586   9.851   2.260 -0.1161  0.7801  3.0263
 2448SOL    HW217449   3.439   9.886   2.198  1.2935 -0.2536 -1.1051
 2449SOL     OW17450   3.595   0.900   2.377 -0.0359 -0.5329 -0.4557
 2449SOL    HW117451   3.534   0.901   2.456  0.9065  1.5819  0.3102
 2449SOL    HW217452   3.662   0.826   2.387  1.2039  0.8060  1.6752
 2450SOL     OW17453   0.355   1.096   1.815 -0.3547  0.2265  0.3367
 2450SOL    HW117454   0.447   1.059   1.826 -0.8394 -0.9460  0.4635
 2450SOL    HW217455   0.338   1.164   1.886 -0.2382 -0.8683  1.4257
 2451SOL     OW17456   0.632   9.926   0.314 -0.2394  0.5635 -0.6495
 2451SOL    HW117457   0.634  10.000   0.381 -0.5070 -0.1968  0.2184
 2451SOL    HW217458   0.629   9.838   0.362  0.3054 -0.0183 -1.6658
 2452SOL     OW17459   4.062   0.408   0.662 -0.1543  0.2970 -0.2319
 2452SOL    HW117460   3.985   0.448   0.712  0.0537  1.2470 -0.6667
 2452SOL    HW217461   4.072   0.312   0.688 -1.7419  0.0511 -0.4726
 2453SOL     OW17462   0.506   8.964   0.004  0.6871 -0.0261  0.3579
 2453SOL    HW117463   0.472   8.884   0.054  1.3744  0.5761  1.8184
 2453SOL    HW217464   0.434   9.033  -0.001  0.4842 -0.2509  0.1542
 2454SOL     OW17465   9.254   0.251   0.501 -0.1717 -0.6828 -0.8351
 2454SOL    HW117466   9.278   0.283   0.410 -1.6765  0.2570 -0.9322
 2454SOL    HW217467   9.158   0.275   0.520  0.6943  1.0153  1.7774
 2455SOL     OW17468   1.883   6.107   2.275 -0.5291  0.5447  0.6133
 2455SOL    HW117469   1.939   6.182   2.240 -1.2202  1.0801  0.6395
 2455SOL    HW217470   1.816   6.080   2.206  1.8614 -2.2752 -0.6638
 2456SOL     OW17471   9.690   6.099   2.284 -0.1249  0.7011 -0.0102
 2456SOL    HW117472   9.654   6.090   2.377 -2.2902  2.1835 -0.6684
 2456SOL    HW217473   9.720   6.009   2.251 -0.3832 -0.0293  1.6905
 2457SOL     OW17474   2.279   1.383   0.809 -0.2911  0.0029 -0.4617
 2457SOL    HW117475   2.278   1.284   0.798  0.4704  0.1854 -2.3115
 2457SOL    HW217476   2.198   1.412   0.860 -1.0906 -1.4647 -0.8820
 2458SOL     OW17477   0.936   6.394   0.503 -0.0059 -0.0756 -0.5940
 2458SOL    HW117478   1.017   6.440   0.467  0.9006  0.9176  2.5522
 2458SOL    HW217479   0.858   6.456   0.502  0.7528  0.9419  1.8937
 2459SOL     OW17480   1.740   5.377   1.852  0.0747  0.5579  0.0933
 2459SOL    HW117481   1.683   5.376   1.770 -1.2639 -1.7589  1.0268
 2459SOL    HW217482   1.827   5.331   1.833 -0.1676  0.1648 -0.0686
 2460SOL     OW17483   3.453   2.483   2.577  0.1591  0.8619  0.7137
 2460SOL    HW117484   3.383   2.540   2.623 -1.0435 -0.8012  0.9853
 2460SOL    HW217485   3.428   2.471   2.481  1.3418  2.2135  0.2103
 2461SOL     OW17486   2.295   0.108   0.963 -0.6872 -0.0801  0.1845
 2461SOL    HW117487   2.296   0.027   0.905  0.2388  0.6167 -0.8115
 2461SOL    HW217488   2.379   0.113   1.016 -1.9705 -1.2429  2.3749
 2462SOL     OW17489   7.932   1.180   1.006 -0.8340  0.7413 -0.7449
 2462SOL    HW117490   7.881   1.211   0.926 -0.2738  2.1764 -0.5692
 2462SOL    HW217491   7.995   1.252   1.035 -0.8361  0.1434  0.8161
 2463SOL     OW17492   2.289   0.107   1.346  0.2755  0.3077  0.1909
 2463SOL    HW117493   2.197   0.106   1.385 -0.3397  0.1675 -1.2272
 2463SOL    HW217494   2.291   0.167   1.266  0.8845 -1.2934 -1.0270
 2464SOL     OW17495   4.271   9.474   0.910 -0.2684 -0.1385 -0.1893
 2464SOL    HW117496   4.229   9.465   0.820 -1.3894  0.0956  0.2908
 2464SOL    HW217497   4.222   9.417   0.976  0.5876 -0.3692  0.2588
 2465SOL     OW17498   9.794   0.598   0.576  0.5329  0.0305 -0.0079
 2465SOL    HW117499   9.736   0.618   0.497  1.6536 -0.8815 -1.0675
 2465SOL    HW217500   9.744   0.539   0.639 -0.2053  0.4076 -0.2328
 2466SOL     OW17501   4.751   4.175   1.317 -0.6564  0.5782  0.2344
 2466SOL    HW117502   4.667   4.214   1.356 -3.1443 -4.4622  0.4922
 2466SOL    HW217503   4.809   4.141   1.391 -0.8231 -0.3891 -0.0607
 2467SOL     OW17504   2.121   9.737   2.471  0.0694 -0.1023  0.0568
 2467SOL    HW117505   2.172   9.709   2.552  2.7959 -0.2103 -1.6135
 2467SOL    HW217506   2.184   9.777   2.405 -1.9741 -0.6955 -2.3290
 2468SOL     OW17507   1.320   9.339   1.089  0.4815  0.4632 -0.6101
 2468SOL    HW117508   1.223   9.334   1.110  0.4936  1.1311 -0.3948
 2468SOL    HW217509   1.359   9.247   1.089 -0.0030  0.2618 -0.0124
 2469SOL     OW17510   0.729   4.674   0.941  0.0577 -0.2093  0.1508
 2469SOL    HW117511   0.658   4.609   0.913  0.2450 -0.2819 -0.1613
 2469SOL    HW217512   0.729   4.683   1.041  0.8250 -1.5976  0.2830
 2470SOL     OW17513   2.197   0.758   0.519 -0.3370  0.2388  0.2335
 2470SOL    HW117514   2.114   0.785   0.470  1.9344  0.5655 -3.6125
 2470SOL    HW217515   2.249   0.839   0.544  0.4786 -0.1052 -0.3544
 2471SOL     OW17516   0.175   6.369   1.948  0.1417 -0.3315 -0.0185
 2471SOL    HW117517   0.146   6.418   2.031  2.1011 -2.1233  1.7978
 2471SOL    HW217518   0.140   6.275   1.952  0.4602 -0.4918 -1.1066
 2472SOL     OW17519   2.486   1.808   0.733  0.5259 -0.5261  0.0153
 2472SOL    HW117520   2.490   1.863   0.649 -0.1443 -1.5136 -0.6738
 2472SOL    HW217521   2.465   1.867   0.811  0.3662  0.2823 -0.6376
 2473SOL     OW17522   0.549   1.708   1.005  0.5463 -0.3790 -0.2685
 2473SOL    HW117523   0.500   1.726   1.090 -1.5770  0.8462 -1.7227
 2473SOL    HW217524   0.632   1.655   1.025  0.5167  0.5828  2.6506
 2474SOL     OW17525   9.484   6.859   1.763 -0.0551  0.3472 -0.2472
 2474SOL    HW117526   9.576   6.858   1.803 -1.2226  0.3001  2.5692
 2474SOL    HW217527   9.483   6.918   1.683  2.1813  1.1515  0.2733
 2475SOL     OW17528   0.995   0.087   0.062 -0.3853 -0.2552  0.1515
 2475SOL    HW117529   0.953   0.014   0.008  0.6208 -1.0760  0.4820
 2475SOL    HW217530   1.047   0.048   0.138 -0.0127  0.8119  0.4604
 2476SOL     OW17531   9.960   3.125   1.032 -0.1579 -0.3700  0.2705
 2476SOL    HW117532   9.894   3.170   0.972 -0.6820 -1.4478  0.0377
 2476SOL    HW217533   9.915   3.097   1.117  0.6450  1.4061  1.3039
 2477SOL     OW17534   9.162   4.598   0.909  0.5399 -0.4495 -0.0157
 2477SOL    HW117535   9.127   4.679   0.957  0.4127  0.1194 -1.0388
 2477SOL    HW217536   9.188   4.528   0.975 -0.8047 -0.1704  0.8380
 2478SOL     OW17537   9.607   9.149   2.410 -0.6370 -0.0135  0.1513
 2478SOL    HW117538   9.633   9.107   2.322 -3.2354 -0.7615 -0.2819
 2478SOL    HW217539   9.604   9.079   2.481 -3.1372 -0.2545 -0.1734
 2479SOL     OW17540   2.035   1.010   1.278  0.0762  0.2171  0.2334
 2479SOL    HW117541   2.014   0.985   1.183 -1.8825 -1.9366  1.1648
 2479SOL    HW217542   1.959   1.063   1.316  0.2452 -0.0933  1.0107
 2480SOL     OW17543   3.451   9.947   0.295  0.3197 -0.0778  0.6178
 2480SOL    HW117544   3.352   9.957   0.309  0.1301 -0.5309 -0.4055
 2480SOL    HW217545   3.476   9.851   0.303  0.6167 -0.0152  0.4452
 2481SOL     OW17546   0.414   5.801   0.820 -0.4748 -0.4433 -0.5091
 2481SOL    HW117547   0.393   5.899   0.826 -1.3097 -0.6606  0.3672
 2481SOL    HW217548   0.416   5.773   0.725 -1.2714  0.2233 -0.7307
 2482SOL     OW17549   0.887   1.171   1.013 -0.1202 -0.8113 -0.2693
 2482SOL    HW117550   0.912   1.249   0.956 -1.4915 -0.7252 -0.7446
 2482SOL    HW217551   0.929   1.183   1.104 -0.1671  0.3802 -0.3919
 2483SOL     OW17552   8.519   0.793   0.610  0.1959  0.2539 -0.3475
 2483SOL    HW117553   8.461   0.872   0.589  2.4684  2.0115 -0.2359
 2483SOL    HW217554   8.552   0.752   0.526  0.9149  0.8835 -0.3748
 2484SOL     OW17555   1.008   6.931   0.971 -0.1342  0.3387 -0.0757
 2484SOL    HW117556   1.045   6.945   0.879 -1.9996 -0.2809 -0.9346
 2484SOL    HW217557   0.908   6.935   0.968 -0.2320 -0.2562  1.8366
 2485SOL     OW17558   9.372   4.369   0.580  0.3651 -0.5003 -0.2076
 2485SOL    HW117559   9.369   4.269   0.571  2.3504 -0.8752  2.6102
 2485SOL    HW217560   9.288   4.400   0.625  0.9504 -1.2177  1.3967
 2486SOL     OW17561   0.997   4.071   0.264 -0.2376 -0.2078 -0.2068
 2486SOL    HW117562   1.087   4.042   0.231  0.2750 -0.9298  1.7744
 2486SOL    HW217563   1.007   4.141   0.334 -1.1779 -0.6423  0.3898
 2487SOL     OW17564   4.308   9.239   1.773 -0.1715  0.6067  0.5790
 2487SOL    HW117565   4.251   9.157   1.766  1.6734 -0.6381 -0.2915
 2487SOL    HW217566   4.293   9.296   1.693  2.6168 -1.6146 -1.6253
 2488SOL     OW17567   8.538   9.971   0.012 -0.0434 -0.1445 -0.2667
 2488SOL    HW117568   8.523   9.908  -0.065  1.4428  0.5238 -1.1209
 2488SOL    HW217569   8.594   9.926   0.081 -2.7625 -1.3382  1.2311
 2489SOL     OW17570   2.766   7.515   0.192 -0.5833  0.5375  0.2697
 2489SOL    HW117571   2.766   7.434   0.251 -0.2104  0.6255  0.3930
 2489SOL    HW217572   2.721   7.591   0.239 -1.8157  0.1237 -0.2344
 2490SOL     OW17573   0.297   7.129   0.650  0.3735  0.2397 -0.5611
 2490SOL    HW117574   0.275   7.074   0.570  2.7264 -1.4821 -0.0495
 2490SOL    HW217575   0.396   7.146   0.653  0.3226  0.2229  2.0119
 2491SOL     OW17576   0.595   4.251   0.189  0.6854  0.7231 -0.1192
 2491SOL    HW117577   0.608   4.266   0.091 -2.5873  0.5480 -0.6229
 2491SOL    HW217578   0.520   4.307   0.222  2.1339  1.2207  2.4591
 2492SOL     OW17579   2.668   5.217   0.904 -0.0354  0.2517  0.2179
 2492SOL    HW117580   2.768   5.228   0.909  0.1397 -1.2062  0.0489
 2492SOL    HW217581   2.627   5.301   0.870  1.1836  0.6863 -0.2050
 2493SOL     OW17582   2.338   8.838   1.202 -0.2120  0.5946  0.5599
 2493SOL    HW117583   2.319   8.808   1.109  1.6373  0.6122  0.1455
 2493SOL    HW217584   2.257   8.826   1.259 -0.3609 -2.6255 -0.2467
 2494SOL     OW17585   9.879   0.481   1.046 -0.5880 -0.0108 -0.4726
 2494SOL    HW117586   9.923   0.563   1.007  0.5956  0.1614  1.1722
 2494SOL    HW217587   9.948   0.409   1.058 -1.6295 -1.2802 -1.9321
 2495SOL     OW17588   4.386   1.257   2.558 -0.4117  0.0053 -0.3093
 2495SOL    HW117589   4.420   1.207   2.637 -1.3607  1.2044  0.8764
 2495SOL    HW217590   4.390   1.198   2.477  1.8847 -0.7619  0.3244
 2496SOL     OW17591   9.318   1.801   2.522  0.0158  0.1974 -0.1104
 2496SOL    HW117592   9.301   1.717   2.471  0.6736  1.4150 -2.3823
 2496SOL    HW217593   9.231   1.847   2.541 -0.5563 -1.9628  2.9591
 2497SOL     OW17594   9.698   9.581   0.011  0.1764  0.4021  0.2891
 2497SOL    HW117595   9.604   9.568  -0.022  0.5195 -0.3693 -0.4029
 2497SOL    HW217596   9.751   9.498  -0.007  1.6503  1.7141 -1.5699
 2498SOL     OW17597   9.760   0.836   0.164 -0.1517 -0.0115 -0.5427
 2498SOL    HW117598   9.824   0.870   0.233 -0.1265  0.6797 -0.9026
 2498SOL    HW217599   9.732   0.743   0.187  0.6071 -0.1340 -0.1243
 2499SOL     OW17600   9.785   9.331   2.517  0.8671 -0.5999  0.4352
 2499SOL    HW117601   9.717   9.275   2.469  0.7833 -0.7680  0.7480
 2499SOL    HW217602   9.834   9.274   2.583  0.3490 -0.1744  1.2047
 2500SOL     OW17603   3.844   0.104   0.588 -0.4590 -0.1003  0.2396
 2500SOL    HW117604   3.941   0.080   0.590 -0.7817 -1.4350  0.9648
 2500SOL    HW217605   3.830   0.185   0.532  1.2769  1.0381  1.4410
 2501SOL     OW17606   9.849   7.071   1.086  0.0862  0.0591  0.2035
 2501SOL    HW117607   9.890   7.116   1.165  1.3232  0.2961 -0.5543
 2501SOL    HW217608   9.754   7.099   1.078  0.3841  1.2581  0.7064
 2502SOL     OW17609   2.427   9.462   1.918  0.4882 -0.3322  0.0696
 2502SOL    HW117610   2.457   9.558   1.915 -0.2249  0.1491  4.4929
 2502SOL    HW217611   2.331   9.457   1.889  0.4920  0.3387 -0.0789
 2503SOL     OW17612   9.039   1.021   0.906 -0.2257 -0.2039 -0.0781
 2503SOL    HW117613   8.952   1.046   0.948 -0.4967 -2.2091  0.6180
 2503SOL    HW217614   9.036   1.041   0.808 -1.5171 -0.3633 -0.0779
 2504SOL     OW17615   7.862   0.888   1.444 -0.4421 -0.0962  0.2005
 2504SOL    HW117616   7.798   0.812   1.454 -0.5083 -0.0126  0.4100
 2504SOL    HW217617   7.862   0.919   1.349 -0.7231 -0.0897  0.2016
 2505SOL     OW17618   2.376   9.364   2.414 -0.6094 -0.2462 -0.2744
 2505SOL    HW117619   2.400   9.280   2.462 -1.5776 -1.0215 -1.1374
 2505SOL    HW217620   2.278   9.380   2.420 -0.3307  1.2497  0.5494
 2506SOL     OW17621   0.674   7.809   1.896  0.4300  0.1916  0.4267
 2506SOL    HW117622   0.654   7.881   1.963  1.2207  0.9469 -0.1305
 2506SOL    HW217623   0.670   7.720   1.941 -2.4751  0.4139  0.7088
 2507SOL     OW17624   9.236   1.982   1.497 -0.3427  0.1889 -0.4314
 2507SOL    HW117625   9.269   1.900   1.543  0.1755  0.2741 -0.6499
 2507SOL    HW217626   9.172   2.030   1.557 -0.0344  0.0486  0.0154
 2508SOL     OW17627   1.101   8.404   0.955  0.2097 -0.0941  0.5974
 2508SOL    HW117628   1.121   8.338   0.882  3.2390 -2.3774  3.3471
 2508SOL    HW217629   1.004   8.402   0.976  0.1246 -3.2550  0.1497
 2509SOL     OW17630   2.822   1.709   2.027 -0.3701  0.2117 -0.0517
 2509SOL    HW117631   2.874   1.632   1.990 -1.0382  0.3248 -1.2536
 2509SOL    HW217632   2.884   1.781   2.055  0.1642  0.0494 -0.7937
 2510SOL     OW17633   0.308   9.425   1.252  0.1668  0.2986 -0.1366
 2510SOL    HW117634   0.390   9.419   1.194 -1.4586  0.0483 -2.4935
 2510SOL    HW217635   0.251   9.343   1.238 -0.5772  0.5596  1.3149
 2511SOL     OW17636   0.692   6.621   0.023  0.1447  0.6033 -0.1427
 2511SOL    HW117637   0.754   6.549  -0.008 -2.3981 -1.7655  0.0796
 2511SOL    HW217638   0.697   6.629   0.123 -0.8808 -0.5569  0.0146
 2512SOL     OW17639   0.079   8.240   1.884 -0.0531  0.0591  0.1078
 2512SOL    HW117640   0.056   8.177   1.958 -0.5849  0.1214 -0.0050
 2512SOL    HW217641  -0.004   8.287   1.852  0.1101 -0.2277 -0.7650
 2513SOL     OW17642   3.581   8.941   0.665 -0.2590 -0.1105  0.0242
 2513SOL    HW117643   3.609   9.011   0.731 -0.1085 -0.0447 -0.1099
 2513SOL    HW217644   3.511   8.978   0.605  1.4960  0.7153 -1.5823
 2514SOL     OW17645   3.016   8.012   0.660  0.3089  0.6123  0.0650
 2514SOL    HW117646   2.918   8.020   0.673  0.2445 -2.0680  1.7377
 2514SOL    HW217647   3.053   7.944   0.723  3.2533  1.5562 -0.5264
 2515SOL     OW17648   4.045   3.579   0.617  0.4644  0.5481 -0.0722
 2515SOL    HW117649   4.063   3.497   0.671 -1.1334  0.2246 -0.0167
 2515SOL    HW217650   4.048   3.660   0.676  1.2510  0.4571  0.0179
 2516SOL     OW17651   9.259   7.860   1.335 -0.8090  0.4265  0.2792
 2516SOL    HW117652   9.164   7.851   1.362 -0.8547  1.2043  0.3682
 2516SOL    HW217653   9.268   7.933   1.267 -0.5994 -1.0133 -1.3057
 2517SOL     OW17654   0.878   2.128   0.041  0.2693  0.2855 -0.8282
 2517SOL    HW117655   0.867   2.177  -0.046  0.2980 -0.2833 -1.1546
 2517SOL    HW217656   0.942   2.178   0.100 -0.7818  1.3786 -0.6045
 2518SOL     OW17657   3.752   8.215   1.991  0.6275  0.5630  0.2688
 2518SOL    HW117658   3.699   8.300   1.999 -0.5890 -0.2133  0.4925
 2518SOL    HW217659   3.782   8.186   2.082  1.2273  0.8603  0.1695
 2519SOL     OW17660   2.137   6.515   1.801  0.4340 -0.2330  0.4909
 2519SOL    HW117661   2.041   6.490   1.784 -0.4963  0.6778  4.0235
 2519SOL    HW217662   2.194   6.433   1.792 -0.7927 -0.9882 -0.6771
 2520SOL     OW17663   3.455   0.795   0.693  0.5037  0.0723 -0.4318
 2520SOL    HW117664   3.486   0.846   0.612 -0.5573 -0.7423 -1.3736
 2520SOL    HW217665   3.380   0.844   0.736  0.0166 -0.2811 -0.8707
 2521SOL     OW17666   2.503   2.783   2.543 -0.1296  0.3971  0.3799
 2521SOL    HW117667   2.422   2.735   2.509  0.1879  1.4762 -1.9491
 2521SOL    HW217668   2.528   2.745   2.633 -1.5523 -1.8400 -0.1125
 2522SOL     OW17669   1.847   5.206   1.481 -0.4818 -0.2441 -0.7365
 2522SOL    HW117670   1.881   5.144   1.410 -2.9493 -2.1381 -0.3640
 2522SOL    HW217671   1.769   5.163   1.527 -1.6841  2.8079  0.1706
 2523SOL     OW17672   2.197   3.134   2.374  0.1401  0.7382 -0.3542
 2523SOL    HW117673   2.151   3.047   2.392 -1.7404  1.6474 -0.7013
 2523SOL    HW217674   2.248   3.162   2.456  3.1969 -2.1144 -1.1963
 2524SOL     OW17675   8.171   1.203   0.285  0.0391  0.3234  0.1617
 2524SOL    HW117676   8.109   1.125   0.282 -0.3922  0.7396 -2.0023
 2524SOL    HW217677   8.259   1.174   0.323  0.4393 -1.6102 -2.1451
 2525SOL     OW17678   3.835   4.971   0.739  0.4364 -0.0540 -0.1775
 2525SOL    HW117679   3.864   5.057   0.698 -0.8128 -0.1798 -1.3653
 2525SOL    HW217680   3.879   4.895   0.692  1.1636 -0.1017  0.5571
 2526SOL     OW17681   0.180   5.086   1.062  0.5333  0.1894 -0.4664
 2526SOL    HW117682   0.100   5.128   1.020  1.5789  0.7220 -1.9458
 2526SOL    HW217683   0.155   4.995   1.097 -0.7793  0.4725 -0.6288
 2527SOL     OW17684   8.280   9.984   2.368  0.1955 -0.0986 -0.1514
 2527SOL    HW117685   8.223   9.947   2.295  0.5881  0.6824 -0.8650
 2527SOL    HW217686   8.366   9.932   2.372 -0.2059 -0.7281  0.3643
 2528SOL     OW17687   1.345   2.222   1.733 -0.4461 -0.4510  0.1109
 2528SOL    HW117688   1.379   2.224   1.640  2.0684  0.0670  1.0142
 2528SOL    HW217689   1.292   2.305   1.751  0.9262  0.5042 -0.1846
 2529SOL     OW17690   1.706   7.083   2.199 -0.4525 -0.3029 -0.1387
 2529SOL    HW117691   1.707   7.134   2.114  0.0710 -0.2175 -0.0791
 2529SOL    HW217692   1.752   6.995   2.186  0.6983  0.2205  0.3809
 2530SOL     OW17693   0.944   2.549   1.573 -0.0055 -0.2400  0.3182
 2530SOL    HW117694   0.971   2.560   1.477 -0.0533  2.2648  0.5698
 2530SOL    HW217695   1.018   2.505   1.624  1.3244  1.3700 -0.1956
 2531SOL     OW17696   1.164   7.858   1.491  0.5329  0.5633 -0.2974
 2531SOL    HW117697   1.237   7.808   1.443  1.2660  0.4250  0.9174
 2531SOL    HW217698   1.140   7.940   1.440  2.1384  1.0510 -0.3095
 2532SOL     OW17699   2.347   6.868   1.263 -0.2488 -0.0541  0.0710
 2532SOL    HW117700   2.248   6.870   1.254 -0.1017  3.0656 -1.2405
 2532SOL    HW217701   2.373   6.895   1.356 -0.5796 -0.6293  0.3366
 2533SOL     OW17702   2.910   5.857   0.926  0.1210 -0.1502 -0.1083
 2533SOL    HW117703   2.879   5.763   0.934  0.3588 -0.0532  2.7025
 2533SOL    HW217704   2.867   5.901   0.848 -1.0623 -2.1734 -0.6181
 2534SOL     OW17705   0.351   8.051   0.310  1.2055 -0.1702  0.0215
 2534SOL    HW117706   0.329   7.962   0.349  0.4496  0.9767  2.2567
 2534SOL    HW217707   0.427   8.092   0.361  0.3472  1.2555  0.1628
 2535SOL     OW17708   0.608   1.842   0.348 -0.1359 -0.0056  0.1348
 2535SOL    HW117709   0.660   1.924   0.323 -0.8715  0.3429 -0.2670
 2535SOL    HW217710   0.670   1.775   0.389  0.4269  0.8564  0.7208
 2536SOL     OW17711   1.541   4.937   2.568 -0.3091  0.4927 -0.2591
 2536SOL    HW117712   1.478   5.013   2.554  1.4329  1.8460 -0.9004
 2536SOL    HW217713   1.578   4.941   2.661 -1.4403 -0.5265  0.2482
 2537SOL     OW17714   0.507   2.483   2.559 -0.0627  0.4348  0.2689
 2537SOL    HW117715   0.441   2.443   2.622  0.2898  0.3237  0.5679
 2537SOL    HW217716   0.564   2.411   2.520  0.7319  0.6649  0.9931
 2538SOL     OW17717   0.352   4.215   0.982  0.1386 -0.5304  0.2215
 2538SOL    HW117718   0.442   4.242   1.017  0.4058 -0.3305 -0.6002
 2538SOL    HW217719   0.333   4.121   1.008  0.8809 -0.7946 -0.1484
 2539SOL     OW17720   0.156   1.420   0.919 -0.1164  0.6756  0.2369
 2539SOL    HW117721   0.068   1.461   0.943  1.1432  3.2216  0.7580
 2539SOL    HW217722   0.218   1.492   0.885  1.2523 -1.3153 -1.6089
 2540SOL     OW17723   2.510   9.042   1.985 -0.5622 -0.4298  1.2479
 2540SOL    HW117724   2.579   8.978   1.951  0.4892  1.1128  0.4187
 2540SOL    HW217725   2.523   9.057   2.083  0.2422 -0.2065  1.1099
 2541SOL     OW17726   4.112   8.953   0.029  0.0133 -0.3167 -0.2862
 2541SOL    HW117727   4.148   8.985   0.116  1.8274  1.5581 -1.6629
 2541SOL    HW217728   4.075   9.031  -0.022  0.4350 -1.1026 -1.8275
 2542SOL     OW17729   0.330   6.951   2.573 -0.1252 -0.4833 -0.4210
 2542SOL    HW117730   0.415   6.957   2.626 -0.9330 -2.6648  1.1865
 2542SOL    HW217731   0.256   6.996   2.624 -0.5716 -1.2025 -0.4313
 2543SOL     OW17732   9.267   5.435   1.783 -0.7209  0.1145  0.2011
 2543SOL    HW117733   9.267   5.519   1.729  0.9148 -1.1607 -1.8811
 2543SOL    HW217734   9.198   5.372   1.747 -2.6971  0.9611  2.4406
 2544SOL     OW17735   1.174   4.614   2.080 -0.1955 -0.8646 -0.4353
 2544SOL    HW117736   1.235   4.593   2.156 -1.0622 -1.5924  0.0718
 2544SOL    HW217737   1.111   4.687   2.106 -2.0568 -2.7310  0.3947
 2545SOL     OW17738   2.571   0.178   0.200 -0.3421 -0.0347  0.1275
 2545SOL    HW117739   2.494   0.235   0.171  0.6378  1.3537  0.2583
 2545SOL    HW217740   2.538   0.085   0.217 -1.4265 -0.2938 -2.9607
 2546SOL     OW17741   8.182   1.505   0.501  0.5502  0.0635  0.1547
 2546SOL    HW117742   8.178   1.565   0.581  3.0412  0.6477 -0.1129
 2546SOL    HW217743   8.155   1.557   0.419  0.4888  0.1762  0.2459
 2547SOL     OW17744   2.824   7.681   1.283  0.0322  0.2369 -0.3734
 2547SOL    HW117745   2.783   7.685   1.374 -0.0767 -0.2880 -0.3948
 2547SOL    HW217746   2.877   7.597   1.274  0.9336  0.8108 -0.4258
 2548SOL     OW17747   3.350   2.635   1.112 -0.2120 -1.0990  0.8892
 2548SOL    HW117748   3.329   2.538   1.126 -0.0623 -1.2239  0.2268
 2548SOL    HW217749   3.269   2.690   1.132  0.1377 -1.2346  2.7951
 2549SOL     OW17750   9.467   4.791   1.991  0.4596  0.4451  0.0641
 2549SOL    HW117751   9.548   4.763   2.042  0.4115  2.4322  1.2786
 2549SOL    HW217752   9.494   4.850   1.915  0.3310 -0.7448 -0.9257
 2550SOL     OW17753   1.310   5.558   2.102 -0.1722 -0.9606 -0.6071
 2550SOL    HW117754   1.351   5.522   2.186 -0.7117 -0.1464  0.0098
 2550SOL    HW217755   1.360   5.640   2.074 -0.1489 -1.0895 -0.9436
 2551SOL     OW17756   8.823   8.416   1.113 -0.6486 -0.0290  0.5411
 2551SOL    HW117757   8.859   8.356   1.041  0.6009  0.8910  0.3896
 2551SOL    HW217758   8.846   8.511   1.091 -0.9947  0.3316  1.7299
 2552SOL     OW17759   3.908   2.754   0.244 -0.5550  0.2321 -0.0362
 2552SOL    HW117760   3.970   2.773   0.321 -0.8562 -0.4461  0.3805
 2552SOL    HW217761   3.909   2.831   0.181 -1.0038  1.2092  1.1200
 2553SOL     OW17762   9.296   6.292   1.329  0.0207 -0.6761 -0.4138
 2553SOL    HW117763   9.340   6.269   1.415  1.4877  0.2461 -0.8977
 2553SOL    HW217764   9.211   6.341   1.346  1.1383  0.9678  0.4990
 2554SOL     OW17765   2.651   9.818   2.419  0.1700 -0.3279  0.1717
 2554SOL    HW117766   2.589   9.752   2.460  0.7942 -1.7315 -1.1038
 2554SOL    HW217767   2.734   9.825   2.474  0.2209 -0.8275  0.1639
 2555SOL     OW17768   7.697   0.382   0.404 -0.0136 -0.0090  0.0207
 2555SOL    HW117769   7.743   0.464   0.369  1.8353 -1.0873 -0.0965
 2555SOL    HW217770   7.699   0.384   0.504 -1.1650  0.7446  0.0383
 2556SOL     OW17771   9.324   0.922   1.325 -0.1515  0.0605 -0.2871
 2556SOL    HW117772   9.368   0.965   1.246 -0.0527  1.5611  0.5713
 2556SOL    HW217773   9.225   0.936   1.319  0.0556  2.2857  1.0772
 2557SOL     OW17774   2.311   0.498   0.496 -0.2678  0.4834  0.2039
 2557SOL    HW117775   2.254   0.571   0.532 -0.0965  0.6828  0.0675
 2557SOL    HW217776   2.369   0.461   0.569 -2.3195 -1.3763  0.9448
 2558SOL     OW17777   0.808   2.278   0.459 -0.1626  0.2106  0.1863
 2558SOL    HW117778   0.783   2.267   0.555  4.0892 -0.7347  1.2949
 2558SOL    HW217779   0.800   2.375   0.434  1.2295  0.9157  2.3066
 2559SOL     OW17780   2.417   9.037   1.595  0.5502 -0.3833  0.7112
 2559SOL    HW117781   2.429   9.085   1.682  0.4378  1.0812 -0.0662
 2559SOL    HW217782   2.355   9.090   1.536  0.9240 -1.1719 -0.4036
 2560SOL     OW17783   1.594   2.469   0.417 -0.5456 -0.1167  0.0311
 2560SOL    HW117784   1.508   2.518   0.403  0.0585  0.5876 -1.2836
 2560SOL    HW217785   1.597   2.390   0.355  0.0203  0.2189 -0.3705
 2561SOL     OW17786   2.290   4.926   1.254  1.0190  0.3343  0.3780
 2561SOL    HW117787   2.355   4.850   1.258  0.1040 -0.3988  1.9437
 2561SOL    HW217788   2.296   4.970   1.164  0.9173 -2.1663 -0.9114
 2562SOL     OW17789   8.666   7.425   2.387  0.0590 -0.7363  0.1943
 2562SOL    HW117790   8.763   7.439   2.368 -0.5022  1.8043 -0.9136
 2562SOL    HW217791   8.625   7.372   2.313  0.4392 -1.2569  0.3485
 2563SOL     OW17792   0.154   3.080   2.115  0.7820  0.5448  0.6856
 2563SOL    HW117793   0.059   3.071   2.145  1.1762 -0.7895  1.5488
 2563SOL    HW217794   0.182   3.176   2.123 -0.3258  0.8559  0.9170
 2564SOL     OW17795   2.083   6.766   0.982  0.2385  0.0276  0.8458
 2564SOL    HW117796   2.092   6.675   1.021  2.9241  0.1419  0.5874
 2564SOL    HW217797   2.063   6.832   1.054 -1.1460 -0.6737  1.1122
 2565SOL     OW17798   2.814   3.105   2.069  0.1604  0.0618  0.3227
 2565SOL    HW117799   2.799   3.140   1.977 -1.2819 -0.9700  0.1389
 2565SOL    HW217800   2.801   3.178   2.135 -0.4971  0.4255 -0.2012
 2566SOL     OW17801   1.451   8.685   2.181 -0.4255  0.4814 -0.1948
 2566SOL    HW117802   1.425   8.589   2.177 -1.7509  0.8893 -2.1628
 2566SOL    HW217803   1.545   8.696   2.150 -0.2989 -0.1781 -0.0437
 2567SOL     OW17804   3.783   4.629   0.159  0.1670 -0.2039  0.0845
 2567SOL    HW117805   3.852   4.677   0.214  0.3234 -1.3366  0.8848
 2567SOL    HW217806   3.806   4.637   0.062  1.5085 -0.6904  0.3484
 2568SOL     OW17807   2.545   7.326   1.422 -0.0982 -0.3253  0.1113
 2568SOL    HW117808   2.503   7.412   1.395  1.6827  0.1039 -1.3445
 2568SOL    HW217809   2.551   7.322   1.522  0.1745  1.4014  0.1788
 2569SOL     OW17810   1.696   2.922   1.267  0.4630  0.8009  0.2384
 2569SOL    HW117811   1.751   2.926   1.350  2.6400 -1.3162 -1.0260
 2569SOL    HW217812   1.732   2.850   1.207 -2.1302  1.1090 -1.7751
 2570SOL     OW17813   9.790   0.400   0.043 -0.1645  0.3544 -0.3429
 2570SOL    HW117814   9.814   0.302   0.047  0.8829  0.6134 -0.0645
 2570SOL    HW217815   9.736   0.418  -0.039  0.3372 -0.3102 -0.8266
 2571SOL     OW17816   1.154   8.690   0.967  0.3478  0.1565 -0.2732
 2571SOL    HW117817   1.147   8.590   0.973 -1.5642  0.1434 -1.9500
 2571SOL    HW217818   1.082   8.732   1.022  0.4533  0.5786 -0.4565
 2572SOL     OW17819   1.730   4.543   0.519 -0.0282 -0.1406  0.2733
 2572SOL    HW117820   1.800   4.483   0.559  1.1627  0.4845 -0.8268
 2572SOL    HW217821   1.768   4.635   0.510 -0.3639 -0.2085 -2.0095
 2573SOL     OW17822   4.333   2.928   0.301 -0.0343 -0.4014  1.0649
 2573SOL    HW117823   4.431   2.926   0.323  0.2903 -1.7698 -0.4112
 2573SOL    HW217824   4.313   3.008   0.245  0.3407 -0.4262  0.8961
 2574SOL     OW17825   4.019   1.373   0.452  0.4906 -0.2144 -1.0969
 2574SOL    HW117826   4.090   1.396   0.385  0.1023 -0.2905 -1.5359
 2574SOL    HW217827   3.936   1.426   0.432 -0.3846 -1.9286 -2.0505
 2575SOL     OW17828   9.169   3.902   1.473  0.6319 -0.0156  0.2245
 2575SOL    HW117829   9.152   3.818   1.524 -0.1969 -0.4125 -0.7100
 2575SOL    HW217830   9.083   3.941   1.441  1.1335  0.3123 -0.7576
 2576SOL     OW17831   9.311   8.282   0.934  1.0190 -0.6476 -0.0091
 2576SOL    HW117832   9.250   8.334   0.993  2.5442  1.3384 -0.1504
 2576SOL    HW217833   9.402   8.278   0.976  1.6799 -0.6556 -1.4199
 2577SOL     OW17834   2.059   2.196   1.095  0.0551 -0.3765 -0.0458
 2577SOL    HW117835   2.021   2.115   1.141  0.5623 -0.6581 -0.1184
 2577SOL    HW217836   2.072   2.269   1.161  0.1901 -0.5685  0.1407
 2578SOL     OW17837   4.125   1.136   0.925 -0.2878 -0.0329 -0.1735
 2578SOL    HW117838   4.210   1.083   0.928 -0.7756 -0.8253 -0.3181
 2578SOL    HW217839   4.140   1.225   0.967  0.4966 -0.3421  0.2116
 2579SOL     OW17840   2.029   8.999   1.363 -0.1025  0.1665  0.1189
 2579SOL    HW117841   2.039   8.900   1.375  0.5163  0.2051 -0.0809
 2579SOL    HW217842   1.958   9.017   1.294 -2.3202 -0.0865  2.2465
 2580SOL     OW17843   4.411   0.224   0.119  0.2819 -0.6224  0.2766
 2580SOL    HW117844   4.343   0.295   0.099 -0.2259 -1.0099  0.6208
 2580SOL    HW217845   4.503   0.262   0.105 -0.0102 -0.3091 -0.8995
 2581SOL     OW17846   1.413   1.499   1.311  0.1674 -0.4740 -1.0485
 2581SOL    HW117847   1.342   1.514   1.380 -0.0288  0.3522 -1.4241
 2581SOL    HW217848   1.375   1.447   1.234  0.4000 -1.4424 -0.5246
 2582SOL     OW17849   1.058   3.673   1.693  0.4149  0.4813  0.2650
 2582SOL    HW117850   1.121   3.635   1.625  1.3650 -0.6404  1.7354
 2582SOL    HW217851   1.110   3.727   1.759 -0.3590  0.6743  0.7133
 2583SOL     OW17852   1.007   5.006   0.287 -0.1047  0.2671 -0.5956
 2583SOL    HW117853   0.994   5.102   0.261 -1.4827 -0.0492 -1.1155
 2583SOL    HW217854   0.929   4.976   0.342  0.3513 -0.5311 -0.3917
 2584SOL     OW17855   2.085   6.771   0.198 -0.0515  0.6165  0.0360
 2584SOL    HW117856   2.118   6.818   0.116 -1.2327  1.8473  0.2411
 2584SOL    HW217857   2.142   6.795   0.276  0.8660 -0.2835 -0.3553
 2585SOL     OW17858   4.003   2.656   1.373 -0.3021 -0.3401 -0.0652
 2585SOL    HW117859   3.968   2.567   1.342 -0.8144 -0.1916  0.0858
 2585SOL    HW217860   3.929   2.709   1.413  0.0604  0.0521  0.0936
 2586SOL     OW17861   3.749   1.288   1.369 -0.1267 -0.0436 -0.1386
 2586SOL    HW117862   3.848   1.300   1.378 -0.5473  2.4152  1.4843
 2586SOL    HW217863   3.703   1.325   1.450 -2.3683 -1.4817 -0.7085
 2587SOL     OW17864   8.933   5.363   0.376 -0.0413 -0.2981 -0.1451
 2587SOL    HW117865   8.986   5.407   0.303  0.5405 -1.1824 -0.2766
 2587SOL    HW217866   8.966   5.395   0.465 -0.0682  0.0243 -0.2495
 2588SOL     OW17867   8.569   7.914   0.363 -0.4069  0.2875 -0.1837
 2588SOL    HW117868   8.595   7.905   0.267 -0.7744 -0.4723 -0.2218
 2588SOL    HW217869   8.558   7.823   0.403 -1.8788  0.5765  0.1237
 2589SOL     OW17870   3.489   2.361   0.448  0.0500 -0.0210  0.1605
 2589SOL    HW117871   3.492   2.354   0.548  1.7060 -1.9066  0.0072
 2589SOL    HW217872   3.583   2.366   0.412 -0.5378  1.0634 -1.2878
 2590SOL     OW17873   3.785   2.750   0.885 -0.5872 -0.0668  0.4450
 2590SOL    HW117874   3.802   2.662   0.929  0.5735  0.6943  1.5582
 2590SOL    HW217875   3.696   2.785   0.915 -1.3907 -1.1758 -0.5688
 2591SOL     OW17876   4.222   1.288   1.861 -0.0226 -0.2592  0.3176
 2591SOL    HW117877   4.200   1.211   1.802 -0.1762  0.3160 -0.3825
 2591SOL    HW217878   4.172   1.369   1.830  0.6359  0.2806  0.6524
 2592SOL     OW17879   3.315   0.039   2.173 -0.1451 -0.5088  0.4685
 2592SOL    HW117880   3.292   0.128   2.212 -0.3463  0.3659 -1.6063
 2592SOL    HW217881   3.374   0.052   2.094  1.1087 -2.3215  1.0841
 2593SOL     OW17882   8.090   8.196   0.578  0.3503  0.3432 -0.1810
 2593SOL    HW117883   8.165   8.137   0.550 -0.1984 -0.6530  0.4437
 2593SOL    HW217884   8.074   8.265   0.507  0.8819 -0.3526 -0.9862
 2594SOL     OW17885   2.988   3.654   1.392  0.4316  0.2101 -0.5593
 2594SOL    HW117886   2.955   3.747   1.403 -0.5645 -0.2504  0.5100
 2594SOL    HW217887   2.911   3.590   1.397  1.4669 -0.9198  2.4256
 2595SOL     OW17888   2.398   8.196   1.569  0.3062 -0.2479  0.7476
 2595SOL    HW117889   2.392   8.296   1.565 -0.2046 -0.3509 -1.3643
 2595SOL    HW217890   2.306   8.157   1.570  0.5092 -0.7424  0.2473
 2596SOL     OW17891   7.606   9.629   0.186  0.5561 -0.1507  0.1370
 2596SOL    HW117892   7.664   9.666   0.259  1.6790 -0.8202 -0.3918
 2596SOL    HW217893   7.577   9.703   0.125  0.3186  0.2858  0.7799
 2597SOL     OW17894   0.412   1.897   1.655  0.1946  0.7466  0.2512
 2597SOL    HW117895   0.383   1.992   1.646 -0.1446  0.5500 -0.7816
 2597SOL    HW217896   0.384   1.862   1.744 -0.9681  1.1689  0.0584
 2598SOL     OW17897   7.698   9.968   1.076  0.1011 -0.1404  0.1517
 2598SOL    HW117898   7.689  10.064   1.102 -1.3209 -0.2887  0.2111
 2598SOL    HW217899   7.667   9.956   0.981  0.2718 -0.5472  0.1472
 2599SOL     OW17900   0.941   6.737   1.481 -0.4549  0.2559 -0.7869
 2599SOL    HW117901   0.918   6.767   1.388 -0.9628  0.6508 -0.5359
 2599SOL    HW217902   0.874   6.773   1.545 -1.2111 -1.5774 -0.5016
 2600SOL     OW17903   1.778   4.869   2.434 -0.3229  0.4286 -0.4421
 2600SOL    HW117904   1.768   4.908   2.342 -0.7341  1.3803  0.0002
 2600SOL    HW217905   1.701   4.899   2.491  0.0326 -0.0059  0.2620
 2601SOL     OW17906   3.817   8.721   2.080 -0.3089  0.2413 -0.0947
 2601SOL    HW117907   3.916   8.710   2.073 -0.2205  1.0797 -0.1785
 2601SOL    HW217908   3.790   8.714   2.176 -0.1064  0.5280 -0.0168
 2602SOL     OW17909   3.312   4.704   1.445  0.3452  0.5568 -0.1640
 2602SOL    HW117910   3.267   4.688   1.357  0.4116  1.1823 -0.3162
 2602SOL    HW217911   3.262   4.776   1.495  0.6060  0.5651  0.0840
 2603SOL     OW17912   0.569   1.465   1.655  0.2671 -0.5838  0.3387
 2603SOL    HW117913   0.522   1.511   1.730 -0.8679 -2.5113  0.8501
 2603SOL    HW217914   0.548   1.367   1.657  1.0709 -0.8441 -1.8768
 2604SOL     OW17915   9.172   8.112   0.213 -0.2596 -0.3318  0.0042
 2604SOL    HW117916   9.222   8.195   0.192 -0.5114 -0.4036 -0.9236
 2604SOL    HW217917   9.080   8.136   0.245 -0.5074 -0.2626 -0.7514
 2605SOL     OW17918   2.057   0.186   0.928  0.6579 -0.4554 -0.2338
 2605SOL    HW117919   2.148   0.148   0.942  0.5805 -0.1113  1.2605
 2605SOL    HW217920   2.064   0.273   0.880  1.0589 -0.7664 -0.7491
 2606SOL     OW17921   8.871   2.175   1.091 -0.1698  0.2912  0.5535
 2606SOL    HW117922   8.876   2.094   1.032  0.2384 -1.8412  3.4290
 2606SOL    HW217923   8.943   2.239   1.065 -0.7529 -0.0372 -2.0331
 2607SOL     OW17924   8.125   8.379   1.366  0.7077 -0.1022  0.0995
 2607SOL    HW117925   8.145   8.377   1.268 -0.8748 -0.4861 -0.2270
 2607SOL    HW217926   8.158   8.294   1.409  2.0941  0.4048  0.0484
 2608SOL     OW17927   1.716   3.974   0.526 -0.5411  0.2394 -0.4384
 2608SOL    HW117928   1.679   4.054   0.572 -0.1493  0.0712  0.1746
 2608SOL    HW217929   1.645   3.934   0.467 -1.7083 -0.6956  1.5242
 2609SOL     OW17930   9.752   0.838   1.304 -0.0163  0.1545  0.6066
 2609SOL    HW117931   9.669   0.829   1.360 -0.9895 -0.4564 -0.9166
 2609SOL    HW217932   9.792   0.928   1.318 -2.8697  1.7693 -1.2407
 2610SOL     OW17933   7.317   9.745   0.734 -0.3206 -0.4291  0.0763
 2610SOL    HW117934   7.350   9.783   0.648 -1.1948 -0.9416 -0.4959
 2610SOL    HW217935   7.228   9.784   0.756  0.5464  0.7837  1.4974
 2611SOL     OW17936   9.562   8.667   1.891  0.2957  0.2596  0.1063
 2611SOL    HW117937   9.662   8.661   1.885  0.2550 -1.4004  0.7555
 2611SOL    HW217938   9.536   8.716   1.975  0.5601 -0.3340  0.5398
 2612SOL     OW17939   2.408   2.362   0.268 -0.0177 -0.5404  0.4614
 2612SOL    HW117940   2.471   2.336   0.195  1.0348  1.0580  0.7833
 2612SOL    HW217941   2.434   2.315   0.352 -0.4557 -1.3887  0.1324
 2613SOL     OW17942   2.850   0.115   0.744  0.6257 -0.3093  0.1536
 2613SOL    HW117943   2.829   0.068   0.830  1.2956 -2.3352 -0.7481
 2613SOL    HW217944   2.908   0.194   0.763 -0.4651  0.1560  1.7035
 2614SOL     OW17945   2.383   2.873   2.055  0.3165  0.7776  0.0538
 2614SOL    HW117946   2.462   2.813   2.038 -0.4592 -0.4028  0.5197
 2614SOL    HW217947   2.415   2.964   2.080  1.5474  0.1336  0.8932
 2615SOL     OW17948   0.958   1.483   0.005 -0.2421  0.4686  0.2982
 2615SOL    HW117949   0.985   1.387  -0.002 -2.4618 -0.0330 -1.8070
 2615SOL    HW217950   0.859   1.489   0.016 -0.0682  2.5132  0.8399
 2616SOL     OW17951   1.784   4.648   1.723 -0.0359 -0.2376  0.2928
 2616SOL    HW117952   1.788   4.551   1.748 -1.2930  0.0164  1.5484
 2616SOL    HW217953   1.825   4.703   1.796 -1.3595  0.3236  0.6340
 2617SOL     OW17954   9.660   4.075   1.337 -0.6886 -0.1241 -0.0358
 2617SOL    HW117955   9.753   4.099   1.362 -1.4351 -0.2447  3.0557
 2617SOL    HW217956   9.597   4.111   1.406 -2.8510 -0.8187 -1.5978
 2618SOL     OW17957   2.337   7.315   2.264 -0.0527  0.2054  0.4848
 2618SOL    HW117958   2.391   7.393   2.234 -0.0131  0.9619  2.4494
 2618SOL    HW217959   2.395   7.234   2.270  0.3782  0.5087  0.4353
 2619SOL     OW17960   1.566   1.918   0.428  0.2774 -0.1949 -0.1893
 2619SOL    HW117961   1.520   2.003   0.455  0.3622  0.0218 -0.7081
 2619SOL    HW217962   1.623   1.885   0.503 -0.8725 -0.5685  0.5371
 2620SOL     OW17963   9.532   9.780   0.707  0.2618 -0.5103 -0.5027
 2620SOL    HW117964   9.480   9.711   0.657 -2.3955  1.2420 -0.2699
 2620SOL    HW217965   9.495   9.871   0.685  0.6176  0.4702  2.7881
 2621SOL     OW17966   1.033   9.341   0.085 -0.2980 -0.4493 -0.5639
 2621SOL    HW117967   0.935   9.322   0.090 -0.2787 -0.0252  1.5251
 2621SOL    HW217968   1.049   9.413   0.017 -1.5465  0.3232 -0.0452
 2622SOL     OW17969   0.707   2.188   1.927  0.2312 -0.4359 -0.0653
 2622SOL    HW117970   0.800   2.186   1.963  0.1713 -0.2608  0.1033
 2622SOL    HW217971   0.708   2.225   1.834  0.2929 -0.1027  0.0651
 2623SOL     OW17972   0.010   7.893   1.322 -0.0888 -0.1039  0.6069
 2623SOL    HW117973   0.090   7.952   1.331  1.4189 -2.1432  1.1074
 2623SOL    HW217974   0.031   7.818   1.259 -0.6196 -2.1489  2.7471
 2624SOL     OW17975   0.887   7.206   2.271 -0.4825 -0.5124 -0.1196
 2624SOL    HW117976   0.906   7.171   2.179 -2.6837 -1.1923 -0.3345
 2624SOL    HW217977   0.800   7.256   2.271  0.1877  0.7180  1.2935
 2625SOL     OW17978   0.480   1.918   0.072  0.1897 -0.2180  0.3085
 2625SOL    HW117979   0.459   1.950   0.165 -0.9650  0.1619 -0.0763
 2625SOL    HW217980   0.514   1.994   0.017 -0.8146 -0.0435 -0.0819
 2626SOL     OW17981   1.862   9.605   0.205  0.3732  0.3703  0.2909
 2626SOL    HW117982   1.804   9.656   0.268 -0.4031  0.4543 -0.4815
 2626SOL    HW217983   1.857   9.507   0.226 -1.0853  0.2467 -0.6082
 2627SOL     OW17984   2.633   5.005   0.755  0.2205 -0.4714 -0.1916
 2627SOL    HW117985   2.620   5.099   0.785  0.6812  0.2689 -2.2337
 2627SOL    HW217986   2.568   4.946   0.802 -2.5738  1.3940 -1.5956
 2628SOL     OW17987   1.591   4.417   0.159  0.8459 -0.2008  0.4682
 2628SOL    HW117988   1.665   4.352   0.143  0.3829 -0.7515  0.5436
 2628SOL    HW217989   1.628   4.510   0.162  1.1935 -0.2253 -1.9953
 2629SOL     OW17990   0.072   8.955   1.155 -0.1556 -0.4532  0.0755
 2629SOL    HW117991   0.136   8.905   1.213 -0.8587 -1.8771 -0.3213
 2629SOL    HW217992   0.110   8.964   1.063  0.1914  0.1856  0.2858
 2630SOL     OW17993   9.991   5.438   1.932 -0.1053  0.4311 -0.5302
 2630SOL    HW117994  10.013   5.501   2.007 -1.0099  1.7270 -1.3349
 2630SOL    HW217995  10.034   5.470   1.848  1.3039 -1.2816 -0.4958
 2631SOL     OW17996   3.146   2.893   1.465  0.5102  0.1917 -0.4321
 2631SOL    HW117997   3.141   2.795   1.448  1.7651 -0.0164  0.3005
 2631SOL    HW217998   3.236   2.927   1.439  0.7030  0.7994  0.9575
 2632SOL     OW17999   9.291   5.459   0.794  0.3720  0.4089  0.4464
 2632SOL    HW118000   9.351   5.410   0.731  0.3651  0.9765 -0.0074
 2632SOL    HW218001   9.336   5.542   0.826  0.0382  0.5685  0.5086
 2633SOL     OW18002   2.746   4.842   0.351  0.2802 -0.1592  0.5977
 2633SOL    HW118003   2.753   4.759   0.296 -1.1715  1.5165 -2.1851
 2633SOL    HW218004   2.792   4.918   0.305 -0.5842  1.1957  1.8962
 2634SOL     OW18005   2.985   2.333   2.421 -0.1225 -0.4576 -0.7031
 2634SOL    HW118006   2.918   2.259   2.426 -1.2368  0.4548 -1.5569
 2634SOL    HW218007   2.987   2.369   2.327  0.5094  0.4751 -0.3383
 2635SOL     OW18008   4.238   3.964   1.615  0.0407  0.1241  0.0022
 2635SOL    HW118009   4.270   3.870   1.610 -1.9203 -0.5461 -0.2473
 2635SOL    HW218010   4.155   3.969   1.670 -1.1968  1.3290 -1.8787
 2636SOL     OW18011   1.787   1.403   0.697  0.4971  0.0168 -0.1396
 2636SOL    HW118012   1.746   1.379   0.609 -0.7445  0.9140  0.1744
 2636SOL    HW218013   1.886   1.398   0.690  0.3775 -1.0573 -1.2571
 2637SOL     OW18014   0.840   6.198   1.069  0.3408  0.5929 -0.1104
 2637SOL    HW118015   0.763   6.195   1.005  0.1173  1.7601  0.0910
 2637SOL    HW218016   0.878   6.106   1.080 -1.2602 -0.0673  0.0707
 2638SOL     OW18017   9.902   1.881   0.525 -0.8566  0.1054 -0.0841
 2638SOL    HW118018   9.976   1.946   0.510 -0.1518 -0.9869 -1.5529
 2638SOL    HW218019   9.861   1.857   0.437  0.9267 -3.7325  0.0275
 2639SOL     OW18020   2.041   7.951   0.997  0.3212  0.1640  0.1777
 2639SOL    HW118021   2.003   8.044   1.001  1.3829  0.6238 -0.4226
 2639SOL    HW218022   2.090   7.932   1.082 -0.1783  0.0248  0.4382
 2640SOL     OW18023   2.055   3.599   1.651 -0.0196 -0.4253 -0.0191
 2640SOL    HW118024   2.051   3.697   1.670 -0.3440  0.0797 -2.5432
 2640SOL    HW218025   1.968   3.557   1.673 -0.9726  0.4604 -2.0092
 2641SOL     OW18026   3.775   0.262   2.023  0.0692 -0.1224  0.8265
 2641SOL    HW118027   3.733   0.254   2.113  0.5308  0.9189  1.1345
 2641SOL    HW218028   3.875   0.255   2.032  0.0843 -0.6735  0.3148
 2642SOL     OW18029   3.376   1.314   1.446 -0.0339 -0.0882  0.7198
 2642SOL    HW118030   3.290   1.285   1.489 -0.2326  1.0802  1.1302
 2642SOL    HW218031   3.407   1.244   1.382 -2.3490  0.3405 -0.9214
 2643SOL     OW18032   2.816   2.515   0.799  0.5445  0.4170  0.2015
 2643SOL    HW118033   2.822   2.447   0.725  1.8201 -0.8516  1.4392
 2643SOL    HW218034   2.751   2.484   0.868  0.7967  0.6530  0.5497
 2644SOL     OW18035   9.043   0.221   0.905 -0.0772 -0.4728 -0.0075
 2644SOL    HW118036   8.965   0.262   0.857  1.3066  0.0773 -1.8668
 2644SOL    HW218037   9.062   0.273   0.988  1.3925  2.5100 -2.1264
 2645SOL     OW18038   4.323   4.209   0.834 -0.7656 -0.2921  0.2150
 2645SOL    HW118039   4.324   4.283   0.901 -0.6979 -0.0732 -0.0260
 2645SOL    HW218040   4.412   4.163   0.833 -1.1824 -1.1233  1.1871
 2646SOL     OW18041   8.019   8.904   1.643  0.1552  0.3084  0.2668
 2646SOL    HW118042   8.078   8.849   1.702  0.4290  0.3075 -0.0046
 2646SOL    HW218043   8.050   8.895   1.548 -1.2843 -1.0086 -0.0983
 2647SOL     OW18044   1.855   2.930   1.498 -0.5647 -0.3345  0.9644
 2647SOL    HW118045   1.948   2.895   1.509 -0.3130 -0.6946 -1.8944
 2647SOL    HW218046   1.846   3.018   1.545  2.2783  1.3969 -1.5576
 2648SOL     OW18047   1.347   6.013   1.159 -0.2148 -0.2983 -0.0111
 2648SOL    HW118048   1.336   6.109   1.133  0.8987 -0.2241 -0.2322
 2648SOL    HW218049   1.400   6.007   1.244 -0.0051 -0.7394 -0.1734
 2649SOL     OW18050   0.086   2.492   1.202  0.4878 -0.0741 -0.7830
 2649SOL    HW118051   0.124   2.585   1.204 -0.0257  0.1681 -1.7174
 2649SOL    HW218052   0.137   2.437   1.136  0.4563 -0.3093 -0.6107
 2650SOL     OW18053   9.531   4.716   0.585  0.1446 -0.0256  0.1126
 2650SOL    HW118054   9.486   4.664   0.658  1.4799 -0.5281  0.6018
 2650SOL    HW218055   9.520   4.667   0.499  0.3782 -0.5319  0.3625
 2651SOL     OW18056   9.804   5.835   2.236  0.2173 -0.3109  0.4531
 2651SOL    HW118057   9.847   5.749   2.207  1.2917  0.2143  0.4690
 2651SOL    HW218058   9.705   5.826   2.230  0.3627 -0.9473 -1.2620
 2652SOL     OW18059   3.434   1.501   1.149 -0.3699 -0.3249 -0.1576
 2652SOL    HW118060   3.384   1.535   1.069 -2.5653 -0.9510  0.9166
 2652SOL    HW218061   3.452   1.577   1.211 -0.7729 -0.2398 -0.1394
 2653SOL     OW18062   2.762   9.163   1.619 -0.6629  0.6195  0.0006
 2653SOL    HW118063   2.681   9.135   1.567 -0.6767  1.2779 -0.3360
 2653SOL    HW218064   2.749   9.139   1.715 -1.0605  0.3007 -0.1284
 2654SOL     OW18065   3.210   5.014   2.525 -0.0480  0.0006  0.0014
 2654SOL    HW118066   3.202   4.952   2.603 -0.0780 -0.6454 -0.5092
 2654SOL    HW218067   3.119   5.048   2.500 -0.2715 -1.2457 -0.9132
 2655SOL     OW18068   2.844   3.199   1.345 -0.2002 -0.2353  0.1423
 2655SOL    HW118069   2.808   3.142   1.419  1.0834 -1.0235  0.1754
 2655SOL    HW218070   2.939   3.174   1.327  0.4125  1.9691  0.2018
 2656SOL     OW18071   4.128   2.102   2.438 -0.0213 -0.0322  0.0598
 2656SOL    HW118072   4.092   2.153   2.360  1.2586 -0.4730 -0.8291
 2656SOL    HW218073   4.099   2.146   2.523 -0.2418  1.2691 -0.6797
 2657SOL     OW18074   3.782   1.589   2.072  0.2085 -0.0338  1.0047
 2657SOL    HW118075   3.769   1.553   2.165 -0.4017 -1.3885  0.4026
 2657SOL    HW218076   3.712   1.659   2.054  0.0875 -0.0415  1.4254
 2658SOL     OW18077   3.027   0.870   1.255  0.8162  0.3452  0.5795
 2658SOL    HW118078   3.007   0.951   1.312 -1.6787  0.5093 -0.4483
 2658SOL    HW218079   3.059   0.796   1.313  1.7253  1.6116  1.7382
 2659SOL     OW18080   2.648   5.835   0.248 -0.5087 -0.1951  0.1523
 2659SOL    HW118081   2.586   5.769   0.205 -1.3163  0.0679  0.8868
 2659SOL    HW218082   2.659   5.914   0.188 -0.6341 -0.3930 -0.1298
 2660SOL     OW18083   1.440   4.113   0.550 -0.2974 -0.5781 -0.2756
 2660SOL    HW118084   1.467   4.203   0.518  0.1968 -0.7189 -0.2607
 2660SOL    HW218085   1.356   4.120   0.603 -0.4392 -0.1726 -0.5518
 2661SOL     OW18086   0.864   7.697   0.179  0.5913 -0.0390 -0.3996
 2661SOL    HW118087   0.907   7.607   0.176 -0.3422 -0.5425  0.8106
 2661SOL    HW218088   0.812   7.712   0.095  0.2327 -0.9044 -0.3384
 2662SOL     OW18089   2.452   1.673   1.076  0.3348 -0.0799 -0.0740
 2662SOL    HW118090   2.521   1.727   1.027  0.2147  0.4020  0.2851
 2662SOL    HW218091   2.437   1.712   1.166 -0.2757 -0.2962 -0.0801
 2663SOL     OW18092   1.099   4.809   1.476 -0.3650 -0.8549  0.0426
 2663SOL    HW118093   1.193   4.793   1.505  0.0848  0.9320 -0.3512
 2663SOL    HW218094   1.084   4.767   1.386  0.9407  1.2670 -1.2098
 2664SOL     OW18095   1.145   4.447   1.362 -0.6861 -0.6993  0.3276
 2664SOL    HW118096   1.209   4.459   1.439 -0.0143 -1.1401 -0.1552
 2664SOL    HW218097   1.197   4.438   1.277 -1.4838  2.0665 -0.4979
 2665SOL     OW18098   3.253   2.436   1.299  0.2834  0.4649 -0.7011
 2665SOL    HW118099   3.322   2.369   1.326 -0.2031  0.4064  0.4496
 2665SOL    HW218100   3.182   2.390   1.246 -0.1792 -0.0032  0.3020
 2666SOL     OW18101   3.423   0.869   0.413  0.1006 -0.0431 -0.2755
 2666SOL    HW118102   3.423   0.802   0.339 -0.7962 -0.7550  0.3665
 2666SOL    HW218103   3.338   0.922   0.410 -0.5800 -1.0184  1.0789
 2667SOL     OW18104   4.174   3.589   0.197  0.0745 -0.6732 -0.1577
 2667SOL    HW118105   4.259   3.538   0.191  0.6114  0.3455 -1.6831
 2667SOL    HW218106   4.193   3.687   0.186 -1.2500 -0.4082 -0.1894
 2668SOL     OW18107   1.853   4.849   1.902 -0.2993  0.6094  0.3603
 2668SOL    HW118108   1.880   4.888   1.990  0.0536  0.2419  0.4177
 2668SOL    HW218109   1.899   4.900   1.828  0.6355 -0.0638  0.4617
 2669SOL     OW18110   2.658   4.239   0.893 -0.2194 -0.4683  0.2124
 2669SOL    HW118111   2.613   4.251   0.981 -1.2261 -3.1784  0.1309
 2669SOL    HW218112   2.744   4.289   0.891  0.1209 -0.9102  2.9706
 2670SOL     OW18113   9.520   5.873   0.573 -0.4306 -0.7176 -0.6414
 2670SOL    HW118114   9.425   5.851   0.596  0.3133 -2.1280  1.2428
 2670SOL    HW218115   9.573   5.789   0.566  0.3725 -0.0371 -3.2862
 2671SOL     OW18116   9.353   0.050   2.190  0.2726  0.4994  0.2164
 2671SOL    HW118117   9.436  -0.006   2.199  1.5094  2.6518  3.1849
 2671SOL    HW218118   9.349   0.090   2.099  0.6475 -2.4116 -1.1184
 2672SOL     OW18119   0.251   8.172   1.085  0.1501 -0.0787  0.3819
 2672SOL    HW118120   0.305   8.098   1.123  0.6640  0.5299  0.8599
 2672SOL    HW218121   0.229   8.237   1.158 -0.9521 -0.1601  0.1285
 2673SOL     OW18122   5.291   3.286   1.652  0.1541 -0.0134 -0.4972
 2673SOL    HW118123   5.304   3.249   1.560  0.6524  1.0624 -0.8678
 2673SOL    HW218124   5.197   3.316   1.663  0.4871  1.3071 -1.2009
 2674SOL     OW18125   0.690   3.368   1.266 -0.3670  0.2302  0.1144
 2674SOL    HW118126   0.641   3.410   1.190 -0.8080  0.7264  0.6654
 2674SOL    HW218127   0.737   3.439   1.319 -0.4097 -0.0669  0.5532
 2675SOL     OW18128   1.065   0.352   0.022 -0.1341  0.2552 -0.0952
 2675SOL    HW118129   1.108   0.396   0.101  1.1763 -0.1294 -0.5700
 2675SOL    HW218130   1.048   0.256   0.044  0.6020  0.0477 -0.4068
 2676SOL     OW18131   9.346   7.461   0.494  0.1481  0.2148  0.1100
 2676SOL    HW118132   9.379   7.554   0.509 -0.5111  0.3409  0.7816
 2676SOL    HW218133   9.276   7.461   0.422 -0.2009  0.3134  0.4464
 2677SOL     OW18134   9.191   4.020   0.045 -0.2704  0.2590 -0.5491
 2677SOL    HW118135   9.255   4.087   0.081  0.7252 -0.1970 -1.4514
 2677SOL    HW218136   9.105   4.065   0.021 -0.8139  0.6405  1.9570
 2678SOL     OW18137   1.211   7.641   2.076  0.4113 -0.2613 -0.7259
 2678SOL    HW118138   1.302   7.681   2.065  0.5869 -0.4467  0.0311
 2678SOL    HW218139   1.218   7.558   2.131 -0.1602 -0.5097 -1.0277
 2679SOL     OW18140   0.296   4.560   2.489 -0.1884 -0.5985  0.0838
 2679SOL    HW118141   0.340   4.471   2.506  0.2201 -0.4975 -0.4157
 2679SOL    HW218142   0.241   4.586   2.568  2.3724  0.2802  1.6123
 2680SOL     OW18143   4.479   3.928   0.580  0.0836 -0.3956 -0.8249
 2680SOL    HW118144   4.382   3.917   0.558 -0.4096  1.1148  0.5037
 2680SOL    HW218145   4.505   3.863   0.652 -0.3057  0.1630 -0.1731
 2681SOL     OW18146   1.320   4.458   1.590  0.1961  0.4228  0.5948
 2681SOL    HW118147   1.368   4.541   1.560  0.6542  0.3509  1.1314
 2681SOL    HW218148   1.271   4.476   1.675  0.3791  0.1121  0.7664
 2682SOL     OW18149   9.025   9.558   2.046 -0.2681 -0.4304 -0.3551
 2682SOL    HW118150   9.048   9.654   2.033  0.3345 -0.6763 -1.1126
 2682SOL    HW218151   9.061   9.526   2.134 -1.8686  0.4617  0.6622
 2683SOL     OW18152   1.325   4.480   0.068 -0.4284  0.0170  0.4363
 2683SOL    HW118153   1.411   4.436   0.093 -0.3666  0.2998  0.7217
 2683SOL    HW218154   1.299   4.546   0.138  0.5268  1.9220 -0.9299
 2684SOL     OW18155   9.852   9.053   1.906  0.1935  0.7542 -0.2569
 2684SOL    HW118156   9.922   9.116   1.943  1.0745 -0.5161  0.2733
 2684SOL    HW218157   9.822   8.991   1.978  1.2274 -1.1303 -1.4156
 2685SOL     OW18158   9.213   1.313   1.693 -0.2713  0.4484  0.2356
 2685SOL    HW118159   9.286   1.304   1.626 -1.5889 -0.7795 -1.0919
 2685SOL    HW218160   9.223   1.244   1.764  0.0543  0.5108  0.2484
 2686SOL     OW18161   0.212   6.455   2.220 -0.2110  0.2059 -0.1105
 2686SOL    HW118162   0.241   6.545   2.251  0.6370 -0.1680  0.2212
 2686SOL    HW218163   0.166   6.407   2.294 -1.7568  0.8316 -0.6643
 2687SOL     OW18164   2.908   3.672   1.131 -0.8467  0.1942 -0.1822
 2687SOL    HW118165   2.880   3.661   1.226 -0.3677 -0.4117 -0.1109
 2687SOL    HW218166   3.007   3.660   1.123 -0.8587  0.4206 -0.7266
 2688SOL     OW18167   3.658   9.090   0.228 -0.2631 -0.0116 -0.7937
 2688SOL    HW118168   3.671   9.025   0.154 -0.8375 -0.2614 -0.6772
 2688SOL    HW218169   3.707   9.059   0.309 -0.2115 -0.0977 -0.8577
 2689SOL     OW18170   1.138   2.038   0.261 -0.0663 -0.1823  0.2726
 2689SOL    HW118171   1.079   2.114   0.234  0.8276  0.8183  1.0646
 2689SOL    HW218172   1.173   2.055   0.353  2.0656 -0.3961 -0.4883
 2690SOL     OW18173   8.721   2.203   2.510 -0.1630 -0.5980  0.2651
 2690SOL    HW118174   8.774   2.209   2.425 -0.1531 -0.6410  0.2675
 2690SOL    HW218175   8.707   2.294   2.547 -1.3470 -0.4504 -0.5105
 2691SOL     OW18176   3.482   0.103   0.051  0.1774  0.4867  0.3262
 2691SOL    HW118177   3.384   0.105   0.029  0.2705 -0.8507 -0.2750
 2691SOL    HW218178   3.494   0.070   0.145  0.0711  0.3771  0.3010
 2692SOL     OW18179   2.084   7.222   0.528  0.2715 -0.2040  0.0850
 2692SOL    HW118180   1.998   7.192   0.570  0.3870 -0.0090  0.4637
 2692SOL    HW218181   2.157   7.161   0.556  0.0330 -1.1361 -1.2646
 2693SOL     OW18182   9.102   1.333   0.518  0.2670 -0.0507  0.3909
 2693SOL    HW118183   9.195   1.314   0.551  1.0678  0.9692 -1.1628
 2693SOL    HW218184   9.045   1.364   0.594  1.4397  0.1064  1.2274
 2694SOL     OW18185   9.405   1.238   1.517 -1.3691 -0.1022 -0.6678
 2694SOL    HW118186   9.365   1.148   1.499 -0.4021 -0.5390 -0.6139
 2694SOL    HW218187   9.444   1.275   1.432  0.5382 -0.8634 -0.1255
 2695SOL     OW18188   0.081   4.249   0.537  0.1206  0.5240  0.6542
 2695SOL    HW118189   0.023   4.329   0.550 -0.7483  0.0131  0.0187
 2695SOL    HW218190   0.065   4.184   0.611  3.0515  2.2124  2.8638
 2696SOL     OW18191   3.502   0.258   1.226 -0.5710 -0.0113  0.4481
 2696SOL    HW118192   3.432   0.282   1.158  1.3154  0.6535 -1.2956
 2696SOL    HW218193   3.485   0.164   1.259 -0.2709 -1.1612 -2.5385
 2697SOL     OW18194   1.155   8.085   1.339 -0.4020  0.3800  0.2302
 2697SOL    HW118195   1.168   8.063   1.242 -1.3277 -0.1945  0.2359
 2697SOL    HW218196   1.059   8.074   1.363  0.2912 -2.4738  1.9626
 2698SOL     OW18197   0.498   0.075   1.546 -0.6303 -0.1168  0.2460
 2698SOL    HW118198   0.589   0.065   1.506 -0.2317  0.8465  0.8691
 2698SOL    HW218199   0.449   0.149   1.498  0.1865  1.6603  2.0686
 2699SOL     OW18200   2.464   4.396   0.155 -0.2967 -0.1704  0.4565
 2699SOL    HW118201   2.439   4.337   0.231 -0.2553 -0.0763  0.5429
 2699SOL    HW218202   2.562   4.416   0.159 -0.2093 -0.5214  0.1329
 2700SOL     OW18203   7.817   0.228   1.238 -0.0433 -0.2583  0.2152
 2700SOL    HW118204   7.792   0.280   1.319  2.1532  0.1703  0.6667
 2700SOL    HW218205   7.887   0.160   1.263  1.7066  0.8356 -1.5389
 2701SOL     OW18206   0.224   7.564   1.159 -0.2624 -0.2215 -0.1724
 2701SOL    HW118207   0.158   7.633   1.130  0.4692  1.1410  1.3651
 2701SOL    HW218208   0.176   7.479   1.181 -1.3877  0.4425 -0.0623
 2702SOL     OW18209   3.563   2.817   1.890 -0.1234  0.6820  0.6653
 2702SOL    HW118210   3.579   2.912   1.865  1.6103  1.1789  3.5001
 2702SOL    HW218211   3.650   2.769   1.898 -0.9695 -1.1260 -0.5593
 2703SOL     OW18212   2.904   9.257   0.740 -0.4360  0.3667  0.1830
 2703SOL    HW118213   2.924   9.204   0.822 -0.3288 -2.1937 -1.4355
 2703SOL    HW218214   2.988   9.277   0.691 -0.5291  1.6336  0.5184
 2704SOL     OW18215   9.384   3.439   2.123  0.4962  0.3578 -0.2130
 2704SOL    HW118216   9.402   3.423   2.220 -0.7075 -1.9164 -0.3379
 2704SOL    HW218217   9.465   3.415   2.069  0.4714 -0.3502  0.0581
 2705SOL     OW18218   0.500   7.690   2.269 -0.0476 -0.3440 -0.8995
 2705SOL    HW118219   0.570   7.741   2.220  0.3356  0.1212  0.1123
 2705SOL    HW218220   0.428   7.753   2.300  0.1473 -0.4897 -0.1281
 2706SOL     OW18221   3.578   0.541   1.250 -0.5810  0.4721 -0.0657
 2706SOL    HW118222   3.674   0.568   1.247 -0.3109 -0.5878 -0.9453
 2706SOL    HW218223   3.570   0.442   1.243 -1.6945  0.4739  0.9427
 2707SOL     OW18224   2.174   9.408   1.849  0.1424 -0.0375  0.0107
 2707SOL    HW118225   2.110   9.431   1.776 -0.5017  1.3943  0.9918
 2707SOL    HW218226   2.210   9.316   1.835 -1.3692 -0.4698 -1.1020
 2708SOL     OW18227   3.235   1.661   2.171  0.6433  0.4604 -0.1524
 2708SOL    HW118228   3.167   1.588   2.159  1.3492 -0.0121 -1.2804
 2708SOL    HW218229   3.327   1.621   2.171  1.0484  1.3919 -1.0597
 2709SOL     OW18230   4.437   0.553   0.454  0.1609 -0.1093 -0.4711
 2709SOL    HW118231   4.475   0.469   0.415  0.3184 -0.6878  0.9139
 2709SOL    HW218232   4.423   0.541   0.552  1.3703  1.8983 -0.0271
 2710SOL     OW18233   4.171   1.681   0.889  0.1063 -0.0655 -0.2733
 2710SOL    HW118234   4.084   1.650   0.927  0.6688  0.3277  1.3951
 2710SOL    HW218235   4.246   1.655   0.951  1.0002  1.0250 -0.8633
 2711SOL     OW18236   9.293   4.695   0.038  0.8980  0.4629  0.0298
 2711SOL    HW118237   9.317   4.764   0.106 -2.2885  1.5442  0.1474
 2711SOL    HW218238   9.241   4.738  -0.036  0.7101 -1.4400 -0.9763
 2712SOL     OW18239   9.087   2.787   1.437 -0.1744 -0.4275  0.1375
 2712SOL    HW118240   9.145   2.862   1.406 -0.6856 -0.3271 -0.5945
 2712SOL    HW218241   9.035   2.751   1.359  0.0209 -1.4962  0.4976
 2713SOL     OW18242   3.113   0.223   1.929 -0.1238 -0.0998 -0.3612
 2713SOL    HW118243   3.139   0.262   2.017 -0.2852  0.8461 -0.7238
 2713SOL    HW218244   3.078   0.130   1.942  1.1003 -0.4597  0.4151
 2714SOL     OW18245   2.043   7.203   2.436 -0.7971 -0.3672 -0.0147
 2714SOL    HW118246   2.001   7.279   2.485 -2.4923 -1.1143 -0.2739
 2714SOL    HW218247   2.096   7.148   2.501  2.0792  2.0937 -0.1706
 2715SOL     OW18248   9.150   7.484   0.293  0.4513  0.0905 -0.5113
 2715SOL    HW118249   9.088   7.418   0.250  2.4772 -1.4408 -1.1339
 2715SOL    HW218250   9.208   7.526   0.223  0.2919  1.3553  0.0995
 2716SOL     OW18251   8.764   8.720   0.456 -0.2698  0.1997 -0.1563
 2716SOL    HW118252   8.742   8.746   0.362  0.8977  0.9117 -0.2437
 2716SOL    HW218253   8.846   8.662   0.456 -0.1696  0.3382  0.4272
 2717SOL     OW18254   3.505   9.231   1.733  0.5897 -0.5395 -0.4761
 2717SOL    HW118255   3.436   9.160   1.718 -0.8420  0.9767 -1.2813
 2717SOL    HW218256   3.563   9.240   1.652  0.0552 -0.0411 -0.8082
 2718SOL     OW18257   9.792   7.732   1.422 -0.2230  0.1122 -0.0819
 2718SOL    HW118258   9.865   7.800   1.422  0.9270 -1.0764  1.4188
 2718SOL    HW218259   9.764   7.713   1.516 -0.6668 -1.3360 -0.4884
 2719SOL     OW18260   4.889   2.523   0.458 -0.3010 -0.6512 -0.0324
 2719SOL    HW118261   4.824   2.468   0.405 -0.7073  1.1954 -1.5277
 2719SOL    HW218262   4.858   2.529   0.553 -1.0042 -1.8374 -0.1816
 2720SOL     OW18263   0.652   0.845   2.161  0.0033  0.2909 -0.4448
 2720SOL    HW118264   0.573   0.876   2.215  0.3421 -0.3649  0.4357
 2720SOL    HW218265   0.657   0.745   2.163  0.0911  0.2667 -1.5976
 2721SOL     OW18266   4.237   3.902   0.148 -0.3294  0.2939  0.3997
 2721SOL    HW118267   4.291   3.931   0.069 -1.5570  0.9500 -0.2075
 2721SOL    HW218268   4.296   3.901   0.229  0.3462  2.1098 -0.0306
 2722SOL     OW18269   9.706   9.308   0.285 -0.2184  0.4879  0.6453
 2722SOL    HW118270   9.707   9.389   0.343  0.6263  1.6287 -0.9484
 2722SOL    HW218271   9.775   9.316   0.213 -1.1726 -0.9442 -0.4735
 2723SOL     OW18272   1.980   3.016   2.178  0.0178  0.0757 -0.2363
 2723SOL    HW118273   1.884   3.040   2.182 -0.3436 -1.2747 -0.4474
 2723SOL    HW218274   2.035   3.085   2.225 -1.2517 -0.2306  1.7460
 2724SOL     OW18275   9.656   7.416   0.965 -0.2736  0.1257  0.5609
 2724SOL    HW118276   9.608   7.497   1.000  1.1583  0.5187  1.6464
 2724SOL    HW218277   9.654   7.343   1.034 -0.8854 -0.4976 -0.1090
 2725SOL     OW18278   2.609   0.675   0.296  0.1649  0.3335 -0.0087
 2725SOL    HW118279   2.697   0.659   0.251  0.8966  1.1274  1.1110
 2725SOL    HW218280   2.540   0.616   0.256  0.6759  1.3850 -2.5602
 2726SOL     OW18281   3.373   2.893   0.814  0.5414  0.1579  0.3191
 2726SOL    HW118282   3.459   2.896   0.864 -0.1534 -2.2984  1.7407
 2726SOL    HW218283   3.381   2.828   0.738  0.3937  1.0528 -0.4814
 2727SOL     OW18284   9.753   9.025   0.272  0.0965  1.0226  0.4162
 2727SOL    HW118285   9.691   9.008   0.196  0.4751  2.6709 -0.2736
 2727SOL    HW218286   9.730   9.111   0.317  0.2176  0.3295  1.8352
 2728SOL     OW18287   3.786   2.833   2.209  0.4636 -0.0970 -0.0784
 2728SOL    HW118288   3.874   2.830   2.255  0.6602 -0.7504 -0.4919
 2728SOL    HW218289   3.760   2.929   2.194  1.6272  0.1033 -0.9400
 2729SOL     OW18290   2.788   9.489   2.405 -0.6252  0.1260 -0.0560
 2729SOL    HW118291   2.810   9.403   2.360  1.5775  1.2226 -1.1332
 2729SOL    HW218292   2.776   9.560   2.335  0.6381  1.3563  0.9650
 2730SOL     OW18293   8.695   8.278   2.348  0.3079  0.0275 -0.0130
 2730SOL    HW118294   8.602   8.247   2.367 -0.3761  2.6644  1.1867
 2730SOL    HW218295   8.757   8.240   2.416 -0.1084 -0.6567 -0.0093
 2731SOL     OW18296   2.846   0.850   0.205 -0.0189 -0.0153 -0.3773
 2731SOL    HW118297   2.885   0.820   0.291 -1.5723  0.3915  0.4919
 2731SOL    HW218298   2.757   0.893   0.222  0.0481  0.8457 -2.0839
 2732SOL     OW18299   0.559   2.343   1.220 -0.3653  0.3831 -0.1209
 2732SOL    HW118300   0.593   2.435   1.242 -0.5625  0.6264 -0.8281
 2732SOL    HW218301   0.479   2.323   1.277 -0.0091  0.4437  0.4041
 2733SOL     OW18302   9.810   2.809   1.582 -0.1514  0.3801 -0.1754
 2733SOL    HW118303   9.830   2.720   1.624 -2.3756 -0.7678 -1.4295
 2733SOL    HW218304   9.857   2.881   1.633  2.4971 -1.5780  0.2897
 2734SOL     OW18305   2.977   7.671   2.005  0.0417 -0.2887 -0.1717
 2734SOL    HW118306   3.027   7.714   1.930  0.9730  0.0150  0.6236
 2734SOL    HW218307   2.936   7.585   1.973  0.9106 -0.4469 -0.8725
 2735SOL     OW18308   1.002   4.665   1.255  0.2667  0.3709  0.3607
 2735SOL    HW118309   1.044   4.579   1.284 -0.5379  0.2211  1.0644
 2735SOL    HW218310   1.035   4.688   1.163 -0.4814 -1.3387 -0.3609
 2736SOL     OW18311   4.222   2.428   2.451  0.0362 -0.2118  0.3569
 2736SOL    HW118312   4.312   2.392   2.473 -0.2604 -0.4559  1.2097
 2736SOL    HW218313   4.220   2.526   2.466  0.3868 -0.0846 -0.4247
 2737SOL     OW18314   1.762   5.612   2.430  0.2126 -0.0026  0.0995
 2737SOL    HW118315   1.694   5.582   2.364 -0.1646 -0.4148  0.6710
 2737SOL    HW218316   1.811   5.692   2.394  0.5315 -0.6795 -0.9931
 2738SOL     OW18317   3.047   2.806   1.146  0.2458 -0.4667  0.1579
 2738SOL    HW118318   2.957   2.848   1.149  1.8350  3.3523 -1.9649
 2738SOL    HW218319   3.072   2.773   1.238 -1.9958  1.2867  1.4343
 2739SOL     OW18320   9.503   4.013   0.357  0.2130 -0.3646 -0.4341
 2739SOL    HW118321   9.573   3.950   0.391 -0.8742 -1.5923 -0.4394
 2739SOL    HW218322   9.448   4.046   0.433 -0.6250 -1.1426 -0.7087
 2740SOL     OW18323   3.218   4.330   0.658 -0.2618  0.0964 -0.4029
 2740SOL    HW118324   3.214   4.358   0.562 -1.2740  1.4334  0.0223
 2740SOL    HW218325   3.297   4.270   0.671 -0.2591 -0.3189 -2.1233
 2741SOL     OW18326   0.887   0.924   2.286 -0.1201 -0.0208 -0.2434
 2741SOL    HW118327   0.818   0.886   2.225  1.6194 -1.3850 -1.4071
 2741SOL    HW218328   0.956   0.972   2.231 -0.7487  2.3704  0.9895
 2742SOL     OW18329   1.780   4.916   0.997 -0.0537 -0.4582 -0.1477
 2742SOL    HW118330   1.770   4.989   0.929 -0.3616 -0.5911 -0.2422
 2742SOL    HW218331   1.713   4.928   1.070  1.4887  0.7568  1.1007
 2743SOL     OW18332   8.798   8.885   1.795 -0.0773 -0.3436  0.6742
 2743SOL    HW118333   8.700   8.870   1.788 -0.1123  0.7056 -1.3123
 2743SOL    HW218334   8.842   8.865   1.707  1.1291  1.6884  0.7744
 2744SOL     OW18335   3.384   9.135   0.164  0.4194 -0.4900 -0.4761
 2744SOL    HW118336   3.362   9.076   0.087 -1.9448 -1.9983  1.2721
 2744SOL    HW218337   3.478   9.118   0.194  0.3981 -1.9639 -1.2111
 2745SOL     OW18338   4.363   9.720   0.108 -0.2413  0.4187  0.2524
 2745SOL    HW118339   4.328   9.737   0.200 -1.0343 -1.4320  0.3070
 2745SOL    HW218340   4.382   9.807   0.063 -1.1999  1.3624  1.6460
 2746SOL     OW18341   4.760   3.339   0.125  0.2087 -0.3658 -0.6431
 2746SOL    HW118342   4.660   3.329   0.122  0.1444  0.3094 -0.8032
 2746SOL    HW218343   4.800   3.292   0.046  0.0559 -1.0120 -0.3472
 2747SOL     OW18344   0.743   1.408   1.463 -0.0619  0.5000  0.2245
 2747SOL    HW118345   0.686   1.434   1.541 -1.4396 -0.1725 -0.5421
 2747SOL    HW218346   0.736   1.309   1.448  0.4856  0.5711 -0.5218
 2748SOL     OW18347   9.781   9.266   0.861 -0.1740 -0.3245 -0.5123
 2748SOL    HW118348   9.734   9.214   0.933  0.4135 -0.8958 -0.5347
 2748SOL    HW218349   9.758   9.227   0.772 -2.6287  1.7153 -0.8412
 2749SOL     OW18350   8.555   8.980   2.030 -0.2410 -0.2660 -0.0383
 2749SOL    HW118351   8.601   9.065   2.054  0.4030 -0.3029 -1.0935
 2749SOL    HW218352   8.608   8.902   2.062 -0.3996 -0.2871  0.1739
 2750SOL     OW18353   9.001   2.305   1.627 -0.4558  0.3665  0.4558
 2750SOL    HW118354   9.097   2.310   1.654 -0.5584  2.6353  0.5019
 2750SOL    HW218355   8.978   2.211   1.603  1.3430 -0.5035  2.0088
 2751SOL     OW18356   1.876   6.424   1.739 -0.2652  0.1087 -0.6181
 2751SOL    HW118357   1.832   6.431   1.650  1.2716 -1.6765 -1.5355
 2751SOL    HW218358   1.849   6.338   1.783 -0.6779  0.7794  0.4719
 2752SOL     OW18359   3.450   9.656   0.326 -0.1921 -0.4395 -0.3389
 2752SOL    HW118360   3.428   9.620   0.235  0.3110 -1.7948  0.0564
 2752SOL    HW218361   3.547   9.642   0.344  0.0259  1.1981 -0.1848
 2753SOL     OW18362   2.650   7.283   1.179  0.1068 -0.2579 -0.6673
 2753SOL    HW118363   2.738   7.273   1.227  0.2701  1.5139 -0.5647
 2753SOL    HW218364   2.579   7.307   1.245 -0.0222  0.4133 -1.0459
 2754SOL     OW18365   0.579   8.047   2.048 -0.6120 -0.2784 -0.3708
 2754SOL    HW118366   0.547   8.094   1.965  0.9526 -1.4091 -1.6593
 2754SOL    HW218367   0.536   8.087   2.128 -0.2990  2.4917 -1.5370
 2755SOL     OW18368   1.855   3.039   0.143 -0.6909  0.5364 -0.0712
 2755SOL    HW118369   1.948   3.006   0.127 -0.7587 -0.5703  1.6588
 2755SOL    HW218370   1.858   3.132   0.180 -0.1445 -0.2541  1.9736
 2756SOL     OW18371   4.198   2.727   1.200 -0.0698 -0.2017 -0.3945
 2756SOL    HW118372   4.285   2.715   1.246 -0.3040  0.0795  0.1251
 2756SOL    HW218373   4.123   2.712   1.265 -0.4213 -1.0448 -0.9732
 2757SOL     OW18374   8.438   0.213   2.575  0.3463 -0.5545 -0.0346
 2757SOL    HW118375   8.348   0.193   2.535  0.2577  1.8504 -1.1293
 2757SOL    HW218376   8.490   0.129   2.583 -1.1646 -1.6656 -1.5200
 2758SOL     OW18377   1.938   7.447   2.515  0.1813 -0.3838 -0.6559
 2758SOL    HW118378   1.855   7.404   2.480 -0.7258 -0.0160  1.0331
 2758SOL    HW218379   1.918   7.539   2.547  0.6098 -1.2932  2.4027
 2759SOL     OW18380   8.423   8.838   0.372  0.3884 -0.0169  0.3797
 2759SOL    HW118381   8.354   8.774   0.337  1.1323 -0.2441 -0.7121
 2759SOL    HW218382   8.413   8.847   0.471 -1.0845 -0.1881  0.2600
 2760SOL     OW18383   8.939   6.182   0.256 -0.0659  0.1127  0.0947
 2760SOL    HW118384   8.985   6.262   0.294  1.0449 -0.2191 -0.5359
 2760SOL    HW218385   9.003   6.131   0.199 -1.3995 -0.0204 -1.3021
 2761SOL     OW18386   8.936   4.627   2.372 -0.5858 -0.0829  0.3570
 2761SOL    HW118387   8.864   4.664   2.430 -0.5218  0.1070  0.3163
 2761SOL    HW218388   8.897   4.596   2.286 -0.3545  1.8479 -0.4772
 2762SOL     OW18389   2.408   5.433   1.239 -0.4921 -0.4622 -0.3726
 2762SOL    HW118390   2.447   5.526   1.247  1.5664 -1.0934 -2.3160
 2762SOL    HW218391   2.411   5.388   1.328 -0.6817  1.0190  0.4056
 2763SOL     OW18392   3.510   3.305   2.296  0.3005  0.2607  0.2217
 2763SOL    HW118393   3.451   3.357   2.234  0.9360 -0.0397 -0.6420
 2763SOL    HW218394   3.454   3.239   2.346  0.0456 -0.8581 -1.4648
 2764SOL     OW18395   3.141   2.758   2.370  0.2034 -0.2217  0.0321
 2764SOL    HW118396   3.084   2.840   2.373 -1.3075 -1.3125  2.6439
 2764SOL    HW218397   3.161   2.734   2.275  0.4073  2.9545 -0.7722
 2765SOL     OW18398   1.104   2.177   0.496  0.1455  0.6231  0.0178
 2765SOL    HW118399   1.094   2.140   0.588 -1.4207  1.0692  0.0460
 2765SOL    HW218400   1.015   2.211   0.464  0.9485  1.6897 -1.1333
 2766SOL     OW18401   3.943   3.612   2.543 -0.0074  0.0556 -0.6845
 2766SOL    HW118402   3.881   3.543   2.506 -0.1213  0.4232 -1.1807
 2766SOL    HW218403   3.953   3.598   2.642 -1.3236  0.3455 -0.5064
 2767SOL     OW18404   2.722   3.794   2.334 -0.3742  0.1771  0.4202
 2767SOL    HW118405   2.708   3.743   2.420 -1.5015  0.3461  0.3471
 2767SOL    HW218406   2.652   3.767   2.268  0.6076 -0.0910 -0.5194
 2768SOL     OW18407   4.153   2.832   0.939  0.4494  0.2207 -0.1098
 2768SOL    HW118408   4.187   2.926   0.930 -0.1885  0.4241 -0.5125
 2768SOL    HW218409   4.144   2.809   1.036 -2.4293  1.7429  0.0606
 2769SOL     OW18410   9.226   7.005   1.816 -0.2783 -0.1350 -0.1441
 2769SOL    HW118411   9.194   7.038   1.727  1.2693  2.4315  0.1805
 2769SOL    HW218412   9.320   6.971   1.806  0.8568  2.5080  0.9062
 2770SOL     OW18413   2.510   7.222   0.648 -0.1872  0.3634 -0.4343
 2770SOL    HW118414   2.589   7.170   0.618 -1.0519 -1.2643  0.0607
 2770SOL    HW218415   2.538   7.287   0.719  0.8753  0.4797 -0.9589
 2771SOL     OW18416   0.493   0.408   2.035  0.0780 -0.4518 -0.2700
 2771SOL    HW118417   0.481   0.348   2.113  0.5901 -0.2375 -0.0275
 2771SOL    HW218418   0.464   0.361   1.952 -2.2094 -0.0454  0.2659
 2772SOL     OW18419   2.919   3.022   0.093 -0.5216  0.2371  0.1397
 2772SOL    HW118420   2.832   3.050   0.134 -0.7077  0.0026 -0.0934
 2772SOL    HW218421   2.943   2.930   0.124 -0.1463  0.4665  0.5324
 2773SOL     OW18422   0.290   9.568   2.090  0.1004  0.3358  0.4088
 2773SOL    HW118423   0.384   9.583   2.119 -0.6648  0.5850  2.9146
 2773SOL    HW218424   0.251   9.653   2.055  0.5311  0.4495  0.2113
 2774SOL     OW18425   0.820   3.984   1.927 -0.0163 -0.0126  0.0401
 2774SOL    HW118426   0.885   3.989   1.851 -1.1845  0.9335 -0.8885
 2774SOL    HW218427   0.790   4.075   1.953  0.1547 -0.3387  1.4752
 2775SOL     OW18428   8.230   9.777   0.256 -0.7984 -0.6423 -0.5134
 2775SOL    HW118429   8.301   9.824   0.307 -1.6578  1.2312 -0.9894
 2775SOL    HW218430   8.264   9.688   0.223  1.1580  0.0649 -0.4169
 2776SOL     OW18431   4.555   1.183   0.729  0.5456 -0.2341 -0.5372
 2776SOL    HW118432   4.561   1.090   0.692 -0.6485 -0.4758 -0.1539
 2776SOL    HW218433   4.484   1.234   0.681  1.5120  0.6252 -1.0454
 2777SOL     OW18434   1.378   3.032   2.449  0.0612  0.2251 -0.3105
 2777SOL    HW118435   1.288   3.063   2.480 -0.0909 -1.5003  1.0000
 2777SOL    HW218436   1.441   3.027   2.527  0.9035  0.0611 -0.9928
 2778SOL     OW18437   0.205   6.749   0.400 -0.0401 -0.2365  0.5886
 2778SOL    HW118438   0.180   6.676   0.463  0.1440 -0.3885  0.4879
 2778SOL    HW218439   0.225   6.710   0.310  0.5471 -0.1223  0.6670
 2779SOL     OW18440   4.152   8.796   1.069  0.1594  0.6455  0.0018
 2779SOL    HW118441   4.097   8.740   1.131 -0.9576  1.4704 -0.2494
 2779SOL    HW218442   4.123   8.781   0.975  0.9997  0.3749 -0.2262
 2780SOL     OW18443   1.503   5.786   2.065  0.0775 -0.0176 -0.1621
 2780SOL    HW118444   1.563   5.849   2.114 -1.7558  1.4402  0.2681
 2780SOL    HW218445   1.475   5.827   1.979 -1.2863 -0.1564  0.2087
 2781SOL     OW18446   2.536   6.079   1.873 -0.4614  0.4670  0.1124
 2781SOL    HW118447   2.456   6.111   1.820 -0.6538 -0.0066  0.1171
 2781SOL    HW218448   2.599   6.155   1.886 -0.8760  0.8284  0.0384
 2782SOL     OW18449   3.961   3.938   1.655 -0.4629  0.2331  0.4860
 2782SOL    HW118450   3.904   3.859   1.632  0.7414 -0.7417  0.8030
 2782SOL    HW218451   3.911   4.023   1.633 -2.2969 -0.5783  1.4055
 2783SOL     OW18452   9.941   3.287   2.458 -0.6194  0.6929  0.0571
 2783SOL    HW118453   9.949   3.292   2.358  2.5760  0.3563  0.2493
 2783SOL    HW218454   9.997   3.359   2.499  1.1612 -1.5722  1.6683
 2784SOL     OW18455   9.649   7.340   2.386  0.6369  0.1618  0.1009
 2784SOL    HW118456   9.709   7.414   2.415  1.0158 -0.1465  0.1124
 2784SOL    HW218457   9.704   7.264   2.352  0.2572 -0.2524  0.4125
 2785SOL     OW18458   3.216   1.921   2.021 -0.0666  0.1867 -0.0437
 2785SOL    HW118459   3.311   1.920   2.050 -0.1409 -0.8305  0.1895
 2785SOL    HW218460   3.169   1.841   2.058 -0.9180  0.4867 -0.4580
 2786SOL     OW18461   0.747   5.466   1.993 -0.6804 -0.2711  0.2374
 2786SOL    HW118462   0.679   5.408   1.948  0.4382 -1.2207 -0.2882
 2786SOL    HW218463   0.837   5.423   1.984 -0.2952 -0.0270  2.6071
 2787SOL     OW18464   9.721   3.867   0.399 -0.4053 -0.1361 -0.0712
 2787SOL    HW118465   9.753   3.773   0.387  0.1655  0.0667 -0.1349
 2787SOL    HW218466   9.799   3.928   0.408 -0.7526  0.5145 -1.3643
 2788SOL     OW18467   0.083   7.303   0.252 -0.1607 -0.0393 -0.0512
 2788SOL    HW118468   0.075   7.248   0.335  1.4463 -0.8133 -0.3892
 2788SOL    HW218469   0.079   7.400   0.276  0.1546 -0.2591  0.9173
 2789SOL     OW18470   0.794   4.510   1.852 -0.3083  0.3553  0.4109
 2789SOL    HW118471   0.827   4.529   1.759 -0.6989 -1.1641 -0.0532
 2789SOL    HW218472   0.841   4.570   1.916 -0.0374  1.4314 -0.7692
 2790SOL     OW18473   1.820   3.276   1.227 -0.1205 -0.0500  0.1358
 2790SOL    HW118474   1.813   3.225   1.142  1.3870 -0.4605  0.2480
 2790SOL    HW218475   1.914   3.274   1.260 -0.7460 -0.1673  1.9863
 2791SOL     OW18476   1.568   1.698   2.226  0.1115  0.5049  0.9535
 2791SOL    HW118477   1.491   1.679   2.286 -0.3094  0.2507  0.3378
 2791SOL    HW218478   1.641   1.632   2.243 -0.3608 -0.1225  0.5619
 2792SOL     OW18479   9.975   4.874   0.768  0.2658 -0.0293 -0.7087
 2792SOL    HW118480  10.061   4.825   0.779  0.2649  0.1115 -0.0427
 2792SOL    HW218481   9.912   4.848   0.841  0.3732  1.1801 -0.1639
 2793SOL     OW18482   0.985   7.287   1.038  0.2513 -0.3583 -0.0742
 2793SOL    HW118483   1.069   7.252   1.079 -0.5993  2.0933  4.0586
 2793SOL    HW218484   0.998   7.384   1.015 -0.5760 -0.6999 -2.0547
 2794SOL     OW18485   3.054   5.399   1.251  0.8684 -0.1478 -0.0502
 2794SOL    HW118486   3.078   5.329   1.318 -0.6722 -1.1991 -0.5734
 2794SOL    HW218487   2.955   5.410   1.248  1.0013  0.8725 -1.1735
 2795SOL     OW18488   2.003   9.486   2.053 -0.8499  0.1535 -0.2670
 2795SOL    HW118489   2.070   9.450   1.987  0.4983 -0.9811  1.6577
 2795SOL    HW218490   1.931   9.419   2.067 -1.1694  0.4198 -0.6286
 2796SOL     OW18491   2.575   5.470   0.871 -0.5072 -0.2566 -0.1967
 2796SOL    HW118492   2.485   5.496   0.907 -0.3822  1.3536 -0.9995
 2796SOL    HW218493   2.585   5.505   0.778  1.1396  0.0002  0.0622
 2797SOL     OW18494   1.502   4.706   2.419 -0.0713 -0.2179  0.1443
 2797SOL    HW118495   1.537   4.771   2.487  1.0201 -2.1797  1.5003
 2797SOL    HW218496   1.457   4.630   2.466 -2.3022  0.0625 -1.4605
 2798SOL     OW18497   9.871   3.681   0.109  0.2298  0.1038 -0.4052
 2798SOL    HW118498   9.809   3.665   0.186 -0.3551  0.6951 -0.7419
 2798SOL    HW218499   9.835   3.756   0.053  0.4371 -0.5890 -1.4773
 2799SOL     OW18500   2.880   3.802   2.026 -0.0225  0.3678  0.0658
 2799SOL    HW118501   2.950   3.866   1.993 -0.4066  1.3099  1.0432
 2799SOL    HW218502   2.790   3.847   2.024 -0.2898 -0.1252  0.7666
 2800SOL     OW18503   4.448   2.338   0.591  0.1756  0.4664 -0.3790
 2800SOL    HW118504   4.393   2.255   0.596 -0.6782  0.9681 -1.3883
 2800SOL    HW218505   4.472   2.367   0.684  2.0740 -1.9254 -0.0651
 2801SOL     OW18506   0.128   5.678   2.043 -0.3809  0.2839 -0.7202
 2801SOL    HW118507   0.156   5.726   2.126  1.0080  0.3525 -1.2128
 2801SOL    HW218508   0.135   5.739   1.964  0.5504 -0.4506 -1.2227
 2802SOL     OW18509   0.139   1.271   2.570  0.6094  0.4608 -0.5050
 2802SOL    HW118510   0.233   1.235   2.572  0.4142 -0.0099  0.6344
 2802SOL    HW218511   0.075   1.197   2.591  0.1389  1.2598  0.9673
 2803SOL     OW18512   9.939   4.489   0.498 -0.2532 -0.1700 -0.0292
 2803SOL    HW118513   9.891   4.492   0.410  0.9423 -0.3423 -0.7040
 2803SOL    HW218514   9.900   4.558   0.559  0.1381  1.2620 -1.3498
 2804SOL     OW18515   3.129   9.763   1.640 -0.2824  0.3963  0.7182
 2804SOL    HW118516   3.070   9.820   1.696 -1.9879 -0.9071  0.3157
 2804SOL    HW218517   3.106   9.777   1.543  0.1492 -0.0323  0.5521
 2805SOL     OW18518   0.788   7.229   1.553 -0.4962  0.0901  0.2362
 2805SOL    HW118519   0.750   7.225   1.461 -0.7464 -0.3702  0.3563
 2805SOL    HW218520   0.859   7.158   1.562  0.2012  0.7636  0.0971
 2806SOL     OW18521   9.523   3.034   1.864  0.1259 -0.2844  0.0513
 2806SOL    HW118522   9.437   3.078   1.840  1.1206  1.1808 -0.9223
 2806SOL    HW218523   9.597   3.073   1.810  1.7342 -0.0538  2.3342
 2807SOL     OW18524   7.665   0.133   1.618 -0.3113 -0.6144  0.1339
 2807SOL    HW118525   7.634   0.072   1.545  1.5879  1.4588 -2.5072
 2807SOL    HW218526   7.754   0.101   1.652 -0.6885 -0.9657  0.7934
 2808SOL     OW18527   2.393   0.501   0.243 -0.0406  0.0253  0.0909
 2808SOL    HW118528   2.357   0.419   0.197  0.5171  0.6851 -1.5466
 2808SOL    HW218529   2.348   0.512   0.331  0.2987 -2.3817  0.5946
 2809SOL     OW18530   3.381   9.559   1.292 -0.3903 -0.4393  0.0586
 2809SOL    HW118531   3.456   9.578   1.355 -1.1080  0.8997  0.5291
 2809SOL    HW218532   3.331   9.478   1.323  1.5046 -2.0090 -0.8705
 2810SOL     OW18533   9.850   8.976   1.297 -0.4637 -0.0635 -0.2177
 2810SOL    HW118534   9.932   8.964   1.241 -0.5037  0.6658 -0.4317
 2810SOL    HW218535   9.876   9.010   1.388 -0.3613 -1.6563  0.3606
 2811SOL     OW18536   2.076   6.903   1.267 -0.2168  0.6520  0.6505
 2811SOL    HW118537   1.998   6.845   1.292  1.2361 -1.2943  0.8325
 2811SOL    HW218538   2.044   6.996   1.248 -2.5485 -0.0640  0.8768
 2812SOL     OW18539   8.011   0.665   1.268 -0.5447  0.0243  0.0805
 2812SOL    HW118540   7.998   0.622   1.178  0.7379  0.9541 -0.5648
 2812SOL    HW218541   8.095   0.629   1.310 -1.3237 -0.6687  1.0796
 2813SOL     OW18542   3.491   3.952   2.038  0.8246 -0.3860 -0.5565
 2813SOL    HW118543   3.400   3.989   2.020  1.4919  0.6861 -1.8714
 2813SOL    HW218544   3.484   3.867   2.090 -0.8239  0.7824  1.1645
 2814SOL     OW18545   2.754   1.673   0.637  0.0707  0.0163  0.3750
 2814SOL    HW118546   2.673   1.619   0.660 -1.4956  1.9266 -0.4620
 2814SOL    HW218547   2.762   1.680   0.537  1.6526 -0.7096  0.4464
 2815SOL     OW18548   0.646   8.322   2.401  0.5923  0.3812  0.1350
 2815SOL    HW118549   0.721   8.344   2.464  2.4557 -2.9217 -0.7686
 2815SOL    HW218550   0.665   8.360   2.311  0.9004  0.0726  0.0675
 2816SOL     OW18551   1.677   0.966   0.033 -0.3812  0.2134 -0.3316
 2816SOL    HW118552   1.630   1.037  -0.020 -1.3004 -0.6211 -0.6589
 2816SOL    HW218553   1.621   0.883   0.034  0.5672 -0.4291  0.2519
 2817SOL     OW18554   9.720   7.195   1.493 -0.0464  0.0350 -0.3623
 2817SOL    HW118555   9.810   7.215   1.456 -0.0300  1.7098  0.5185
 2817SOL    HW218556   9.682   7.278   1.534 -0.4964 -1.5050  2.4493
 2818SOL     OW18557   4.158   0.704   0.892  0.4052 -0.1487 -0.1445
 2818SOL    HW118558   4.173   0.723   0.795 -0.4661 -0.8993 -0.4350
 2818SOL    HW218559   4.069   0.741   0.919  1.1508  1.0902  0.6612
 2819SOL     OW18560   2.485   3.946   1.730  0.3033 -0.1781  0.5031
 2819SOL    HW118561   2.388   3.970   1.734  0.3163 -0.0239 -0.0398
 2819SOL    HW218562   2.528   3.967   1.818 -0.4825 -1.7137  1.2647
 2820SOL     OW18563   8.890   2.663   2.454  0.0430  1.1058  0.2998
 2820SOL    HW118564   8.966   2.680   2.516  0.7219  1.7748 -0.6994
 2820SOL    HW218565   8.895   2.569   2.419 -0.3656  0.7187  1.2836
 2821SOL     OW18566   2.000   4.677   0.020 -0.3511  0.4106  0.6119
 2821SOL    HW118567   2.077   4.618   0.043 -0.5898 -0.1262  0.0348
 2821SOL    HW218568   1.980   4.670  -0.078 -0.7919  0.9524  0.6582
 2822SOL     OW18569   0.207   5.370   0.102  0.1243 -0.4486 -0.6304
 2822SOL    HW118570   0.110   5.380   0.124  0.4761 -0.0227  0.8267
 2822SOL    HW218571   0.226   5.412   0.014 -0.7153  0.9343 -0.1637
 2823SOL     OW18572   0.199   7.850   0.822  0.1773  0.5887  0.3019
 2823SOL    HW118573   0.272   7.916   0.804 -0.2398  0.8077 -0.5931
 2823SOL    HW218574   0.239   7.758   0.826  0.5070  0.7062 -0.1827
 2824SOL     OW18575   0.413   9.221   0.767 -0.0134  0.6642 -0.3620
 2824SOL    HW118576   0.414   9.234   0.668 -0.2683  0.9421 -0.3303
 2824SOL    HW218577   0.350   9.287   0.808 -0.2285  0.2677 -0.0530
 2825SOL     OW18578   8.897   9.012   1.041  0.3638  0.3191  0.2500
 2825SOL    HW118579   8.966   8.992   0.971  0.4355 -1.0598  0.6954
 2825SOL    HW218580   8.915   9.102   1.081  1.5172  0.2505 -0.1055
 2826SOL     OW18581   2.633   1.443   2.120  0.1663 -0.4267  0.9474
 2826SOL    HW118582   2.593   1.471   2.033  1.3571 -0.0743  0.4998
 2826SOL    HW218583   2.645   1.523   2.179  0.0471 -0.5551  1.1477
 2827SOL     OW18584   1.536   2.286   1.461 -0.0514 -0.5296  0.0748
 2827SOL    HW118585   1.545   2.200   1.411  1.2805 -0.1531 -0.3491
 2827SOL    HW218586   1.448   2.327   1.440  0.0015 -0.9583 -1.0443
 2828SOL     OW18587   0.959   0.792   2.524 -0.5327 -0.1178  0.2680
 2828SOL    HW118588   0.923   0.702   2.549 -1.9328  0.5926  0.9045
 2828SOL    HW218589   0.921   0.819   2.436  1.1159 -0.8142 -0.6686
 2829SOL     OW18590   9.336   7.578   0.095  0.1309  0.4822 -0.3435
 2829SOL    HW118591   9.350   7.677   0.096  2.0243  0.2419 -1.2123
 2829SOL    HW218592   9.382   7.539   0.015  0.4642 -1.2482  0.6840
 2830SOL     OW18593   0.050   5.202   1.478  0.2072 -0.5677 -0.0480
 2830SOL    HW118594   0.003   5.290   1.473  1.9849  0.3494 -1.3210
 2830SOL    HW218595   0.093   5.191   1.568 -0.5119 -0.3868  0.3134
 2831SOL     OW18596   1.873   9.640   0.484  0.2216 -0.0119  0.5830
 2831SOL    HW118597   1.807   9.715   0.498 -2.9111 -2.4265 -0.6649
 2831SOL    HW218598   1.896   9.600   0.573 -1.2182 -0.0985  0.9435
 2832SOL     OW18599   9.189   0.591   0.506  0.7144  0.0887 -0.0676
 2832SOL    HW118600   9.138   0.664   0.461  0.1339 -1.2559 -1.6238
 2832SOL    HW218601   9.128   0.541   0.568  0.4473 -0.6681 -0.9211
 2833SOL     OW18602   3.686   9.937   1.616  0.2019 -0.3717 -0.3758
 2833SOL    HW118603   3.731   9.919   1.528 -0.3975  2.2133 -1.2541
 2833SOL    HW218604   3.606   9.995   1.601  2.7477  4.1195  2.3175
 2834SOL     OW18605   9.782   0.641   2.396 -0.4495  0.2895 -0.4463
 2834SOL    HW118606   9.870   0.595   2.383 -0.7186  0.1648 -1.9587
 2834SOL    HW218607   9.791   0.709   2.468  1.6146  2.0196 -2.2365
 2835SOL     OW18608   2.394   5.424   0.010 -0.2316  0.1906 -0.0775
 2835SOL    HW118609   2.377   5.467   0.099  0.6587 -1.1547  0.7693
 2835SOL    HW218610   2.491   5.402   0.003 -0.3585  0.0231 -1.2634
 2836SOL     OW18611   1.859   2.715   0.084  1.1250  0.7798  0.3169
 2836SOL    HW118612   1.823   2.789   0.026  0.8512 -0.0720 -0.6079
 2836SOL    HW218613   1.809   2.714   0.171 -1.7829 -0.9703 -1.2938
 2837SOL     OW18614   1.971   3.382   2.236  0.2345 -0.2461  0.6104
 2837SOL    HW118615   1.920   3.467   2.239  0.7826  0.0829  0.7141
 2837SOL    HW218616   2.061   3.398   2.197  0.3700 -0.7615  0.6994
 2838SOL     OW18617   1.515   1.369   2.492 -0.7390 -0.5296  0.1325
 2838SOL    HW118618   1.614   1.361   2.492 -0.8237 -2.6632  3.8740
 2838SOL    HW218619   1.475   1.294   2.440 -0.4109  0.1551 -1.1129
 2839SOL     OW18620   2.787   1.195   2.205  0.2324 -0.1286 -0.4609
 2839SOL    HW118621   2.860   1.173   2.140 -1.5963 -0.7247 -2.3892
 2839SOL    HW218622   2.745   1.282   2.179 -0.8545 -0.6272 -0.3718
 2840SOL     OW18623   9.807   2.538   0.960  0.7518  0.5647 -0.8424
 2840SOL    HW118624   9.754   2.475   1.018  1.0932  0.2870 -0.8280
 2840SOL    HW218625   9.770   2.537   0.867  1.5091 -0.5820 -1.1439
 2841SOL     OW18626   3.013   7.960   0.250  0.1225 -0.5780  0.2177
 2841SOL    HW118627   3.085   7.954   0.182  1.4349  0.8638  1.4298
 2841SOL    HW218628   3.053   7.985   0.339 -1.6465 -1.5117  1.3046
 2842SOL     OW18629   1.482   9.857   1.019 -0.3859  0.2371 -0.2051
 2842SOL    HW118630   1.403   9.799   1.041  1.6711 -2.0483  1.4101
 2842SOL    HW218631   1.510   9.841   0.925 -1.1026  0.1566 -0.4090
 2843SOL     OW18632   2.858   8.486   1.019 -0.0987 -0.2899 -0.7878
 2843SOL    HW118633   2.800   8.520   0.945  0.6756 -0.4369 -1.4601
 2843SOL    HW218634   2.916   8.561   1.052 -0.9404 -0.0382  0.1543
 2844SOL     OW18635   0.979   1.226   1.406  0.2822  0.5334 -0.2906
 2844SOL    HW118636   1.038   1.267   1.476 -0.1362 -0.0381  0.4014
 2844SOL    HW218637   0.890   1.205   1.446 -0.6398  1.9955 -1.4768
 2845SOL     OW18638   0.537   9.592   2.525  0.4584  0.0903 -0.0662
 2845SOL    HW118639   0.625   9.607   2.482  0.8584  0.5869  0.8974
 2845SOL    HW218640   0.514   9.495   2.524 -0.8087  0.3567 -3.7999
 2846SOL     OW18641   4.423   0.901   0.597 -0.7052  0.5258 -0.0328
 2846SOL    HW118642   4.358   0.827   0.613 -0.2581  0.1868  0.2476
 2846SOL    HW218643   4.514   0.862   0.582  0.2111  1.1055  3.4205
 2847SOL     OW18644   9.736   3.817   2.500  0.3360 -0.3180 -0.0072
 2847SOL    HW118645   9.736   3.916   2.484  0.9327 -0.3190  0.0013
 2847SOL    HW218646   9.642   3.787   2.520  0.3369  0.4114  1.0946
 2848SOL     OW18647   9.935   0.924   0.332  0.0129  1.0489  0.3013
 2848SOL    HW118648   9.889   0.903   0.419  2.0807 -0.6058  1.0481
 2848SOL    HW218649   9.913   1.018   0.305 -1.1912  1.3845  2.2803
 2849SOL     OW18650   4.044   2.912   2.552 -0.0411  0.2527  0.5548
 2849SOL    HW118651   4.075   2.965   2.473 -0.4960  0.6633  0.6451
 2849SOL    HW218652   4.117   2.852   2.583  0.2486  0.3289  0.0212
 2850SOL     OW18653   3.001   9.295   0.173 -0.1155  0.5473  0.0314
 2850SOL    HW118654   3.052   9.361   0.118 -0.6661  0.5789 -0.4497
 2850SOL    HW218655   2.903   9.303   0.152 -0.2896  0.3163  0.7597
 2851SOL     OW18656   8.665   6.654   0.267  0.3328 -0.5239 -0.5575
 2851SOL    HW118657   8.682   6.582   0.335  1.0042  0.5341  0.4151
 2851SOL    HW218658   8.665   6.614   0.176  1.8963 -1.5698 -0.1218
 2852SOL     OW18659   1.489   0.457   1.860  0.1047  0.2666  0.7022
 2852SOL    HW118660   1.409   0.399   1.872 -0.1944  0.7733  1.1891
 2852SOL    HW218661   1.571   0.406   1.885  0.0558 -0.6512 -0.9781
 2853SOL     OW18662   3.292   4.473   1.663  0.9063 -0.6011  0.5191
 2853SOL    HW118663   3.203   4.494   1.703  0.8463  1.1752 -0.5015
 2853SOL    HW218664   3.308   4.532   1.584  2.0743 -2.3959 -0.6164
 2854SOL     OW18665   2.756   2.535   0.403  0.3523  0.6574  0.6635
 2854SOL    HW118666   2.747   2.436   0.409  1.0684  0.4964 -0.6847
 2854SOL    HW218667   2.837   2.564   0.455 -0.8034  0.7352  2.4511
 2855SOL     OW18668   1.584   9.863   1.557  0.1721 -0.4623 -0.4040
 2855SOL    HW118669   1.572   9.904   1.467  0.8295  0.3535 -0.1235
 2855SOL    HW218670   1.501   9.878   1.612 -0.5527 -1.6764 -1.1328
 2856SOL     OW18671   3.025   6.906   0.128 -0.1634  0.3184  0.1085
 2856SOL    HW118672   3.062   6.839   0.192 -0.2730 -0.5720 -0.7516
 2856SOL    HW218673   3.020   6.996   0.172  0.0728 -0.2208  1.2317
 2857SOL     OW18674   1.390   6.541   0.290  0.2162 -0.5810 -0.0914
 2857SOL    HW118675   1.359   6.632   0.264 -0.9969 -0.8625  0.3212
 2857SOL    HW218676   1.443   6.547   0.375  0.7100 -0.1782 -0.4271
 2858SOL     OW18677   7.910   8.399   0.983 -0.2500 -0.1968 -0.4801
 2858SOL    HW118678   7.881   8.468   1.049 -1.6995 -0.7383 -0.5331
 2858SOL    HW218679   7.830   8.350   0.948  0.4486  0.2530 -2.8226
 2859SOL     OW18680   0.718   5.131   1.746  0.3639 -0.0413 -0.3004
 2859SOL    HW118681   0.707   5.036   1.776  1.2699  0.2201  0.9232
 2859SOL    HW218682   0.644   5.186   1.784  1.1278  0.1613  0.9179
 2860SOL     OW18683   0.706   8.444   2.135 -0.3923  0.1367  0.4135
 2860SOL    HW118684   0.634   8.452   2.066  0.1971  2.2105  0.0058
 2860SOL    HW218685   0.789   8.408   2.092 -1.3827 -3.0399  1.0543
 2861SOL     OW18686   3.658   5.267   1.771  0.0008  0.1040  0.4711
 2861SOL    HW118687   3.668   5.333   1.697  0.0293  0.0173  0.3964
 2861SOL    HW218688   3.576   5.211   1.755  0.2706 -0.2338  0.2503
 2862SOL     OW18689   1.546   9.846   0.755 -0.2078 -0.3503 -0.4257
 2862SOL    HW118690   1.525   9.840   0.658  1.6728 -2.8106 -0.7288
 2862SOL    HW218691   1.593   9.932   0.774 -0.4591  0.0778 -1.7154
 2863SOL     OW18692   1.403   9.460   1.559 -0.2976  0.2785 -0.1660
 2863SOL    HW118693   1.412   9.462   1.459 -2.1926  1.2221 -0.3439
 2863SOL    HW218694   1.362   9.546   1.590  2.5215  1.0051  1.6884
 2864SOL     OW18695   8.943   1.606   0.226  0.1784 -0.1057  0.0960
 2864SOL    HW118696   8.970   1.686   0.172 -0.7554  1.2767  1.6434
 2864SOL    HW218697   9.017   1.539   0.224  1.0933  0.9058 -0.9967
 2865SOL     OW18698   2.559   1.708   1.665  0.3422  0.0376  0.5556
 2865SOL    HW118699   2.626   1.638   1.691  0.0181 -0.1647  0.8450
 2865SOL    HW218700   2.512   1.741   1.746 -0.2359 -0.1530  0.2976
 2866SOL     OW18701   2.729   5.318   1.979 -0.1352  0.1185  0.1754
 2866SOL    HW118702   2.705   5.361   2.066 -2.0952 -1.6395  0.5452
 2866SOL    HW218703   2.750   5.222   1.994  2.2992  0.4208 -0.9287
 2867SOL     OW18704   1.040   5.239   1.372  0.7935  0.3487 -0.1485
 2867SOL    HW118705   0.979   5.313   1.344  0.3529  0.2198  0.4667
 2867SOL    HW218706   1.101   5.215   1.296 -0.3634  0.0333 -0.9934
 2868SOL     OW18707   9.280   4.324   2.249 -1.0150  0.1345  0.1404
 2868SOL    HW118708   9.310   4.416   2.273 -1.1899  0.1699  0.2279
 2868SOL    HW218709   9.324   4.258   2.309  0.1655  0.0425 -0.8170
 2869SOL     OW18710   3.435   0.110   1.481  0.1133 -0.0717  0.4930
 2869SOL    HW118711   3.409   0.203   1.458 -1.0520 -0.5123 -0.0235
 2869SOL    HW218712   3.442   0.055   1.397 -1.1048 -0.9210  0.9342
 2870SOL     OW18713   0.566   2.654   1.847 -0.4910  0.7973  0.0767
 2870SOL    HW118714   0.654   2.685   1.882  0.2637  0.1522 -1.2325
 2870SOL    HW218715   0.535   2.574   1.898  1.4531 -1.2334 -1.8618
 2871SOL     OW18716   3.431   9.058   1.220 -0.2180 -0.2260  0.4263
 2871SOL    HW118717   3.427   8.994   1.296 -1.8404 -1.1267 -0.3771
 2871SOL    HW218718   3.518   9.048   1.172 -0.9252 -2.7260 -0.4243
 2872SOL     OW18719   0.429   5.096   1.717  0.0209 -0.3917  0.6760
 2872SOL    HW118720   0.456   5.096   1.621 -0.1171 -0.6826  0.6349
 2872SOL    HW218721   0.401   5.188   1.745 -2.1108 -0.7511 -0.1730
 2873SOL     OW18722   3.888   9.465   1.859 -0.0673  0.1923 -0.1949
 2873SOL    HW118723   3.840   9.547   1.828  1.1505  0.9576 -0.1084
 2873SOL    HW218724   3.822   9.392   1.878 -0.9735  0.2799 -2.8755
 2874SOL     OW18725   8.787   2.796   0.410 -0.3265  0.2351  0.5623
 2874SOL    HW118726   8.756   2.702   0.427 -0.0958  0.6115  3.3144
 2874SOL    HW218727   8.733   2.859   0.465  0.1252  1.6545 -0.5834
 2875SOL     OW18728   8.624   7.177   0.396  0.1158 -0.6682 -0.4404
 2875SOL    HW118729   8.698   7.242   0.380  0.1590 -0.6737 -0.2520
 2875SOL    HW218730   8.641   7.093   0.344  0.1561 -0.6047 -0.5293
 2876SOL     OW18731   0.907   3.650   2.454 -0.0845  0.5924  0.0602
 2876SOL    HW118732   0.819   3.605   2.466 -0.0822  0.5897  0.0682
 2876SOL    HW218733   0.908   3.737   2.503 -0.1693  0.7067 -0.1382
 2877SOL     OW18734   9.508   1.329   1.276 -0.1606  0.3856 -0.2767
 2877SOL    HW118735   9.418   1.344   1.236 -0.4392  1.1359  0.6324
 2877SOL    HW218736   9.546   1.243   1.241 -1.4501 -0.2015 -0.2733
 2878SOL     OW18737   4.001   3.371   0.201  0.2688 -1.0052 -0.1512
 2878SOL    HW118738   4.054   3.336   0.124  0.9591 -0.5692  0.1270
 2878SOL    HW218739   4.003   3.471   0.201  0.9341 -1.0082  0.8893
 2879SOL     OW18740   0.421   3.249   1.524  0.4980  0.2795 -0.6747
 2879SOL    HW118741   0.496   3.244   1.459  1.6815  0.0438  0.6751
 2879SOL    HW218742   0.453   3.292   1.609 -0.7160 -0.4146  0.1548
 2880SOL     OW18743   1.306   4.858   2.305 -0.1056  0.2363  0.2829
 2880SOL    HW118744   1.311   4.950   2.342  0.3411  0.5773 -0.6110
 2880SOL    HW218745   1.389   4.808   2.328 -1.1249 -0.5712  2.3680
 2881SOL     OW18746   3.731   3.835   2.265 -0.4397  0.6834  0.4450
 2881SOL    HW118747   3.699   3.924   2.232  0.9202  1.3865  0.9840
 2881SOL    HW218748   3.828   3.841   2.289 -0.1788 -1.1116 -0.0824
 2882SOL     OW18749   1.505   3.878   0.133  0.2127 -0.2064  0.7393
 2882SOL    HW118750   1.550   3.965   0.110 -0.6205  0.0643  0.1018
 2882SOL    HW218751   1.465   3.885   0.224 -0.2383  0.2406  0.5116
 2883SOL     OW18752   0.571   3.889   2.463 -0.2289  0.0231  0.1415
 2883SOL    HW118753   0.595   3.794   2.482  1.0779 -0.0699 -1.7375
 2883SOL    HW218754   0.473   3.903   2.478 -0.7764 -2.0866 -1.2446
 2884SOL     OW18755   1.499   1.816   2.576  0.4542 -0.3420 -0.4061
 2884SOL    HW118756   1.416   1.853   2.618  0.9605 -0.7744  1.0325
 2884SOL    HW218757   1.476   1.741   2.515 -0.1893 -0.6324  0.1880
 2885SOL     OW18758   0.195   9.771   0.308  0.1791 -0.0140 -0.3947
 2885SOL    HW118759   0.145   9.712   0.244  0.6600 -0.6755 -0.1662
 2885SOL    HW218760   0.183   9.867   0.281 -1.1461 -0.1695 -0.3818
 2886SOL     OW18761   2.124   5.795   0.743  0.7969 -0.7027 -0.2887
 2886SOL    HW118762   2.074   5.877   0.773  2.3413  0.2957 -0.3687
 2886SOL    HW218763   2.088   5.715   0.791 -1.8312 -0.2464 -1.4105
 2887SOL     OW18764   9.848   6.030   0.722 -0.1731 -0.0529  0.8041
 2887SOL    HW118765   9.917   6.025   0.794 -0.0185  0.2367  0.6778
 2887SOL    HW218766   9.883   6.085   0.646 -0.9114  0.9121  1.1507
 2888SOL     OW18767   1.407   6.103   2.257  0.4811 -0.2955  0.1389
 2888SOL    HW118768   1.314   6.099   2.219  0.0421  1.2294  0.9841
 2888SOL    HW218769   1.460   6.171   2.207  0.2004  1.0092  1.5769
 2889SOL     OW18770   1.269   1.912   1.490 -0.3757 -0.2867  0.0777
 2889SOL    HW118771   1.353   1.859   1.502 -0.8893 -0.7487  1.7427
 2889SOL    HW218772   1.192   1.850   1.476 -0.8184  0.0384  1.0235
 2890SOL     OW18773   0.435   2.887   1.746 -0.5620 -0.7393 -0.1401
 2890SOL    HW118774   0.501   2.952   1.708 -1.9606  0.7987 -0.0133
 2890SOL    HW218775   0.479   2.798   1.758  0.8829 -0.3169 -2.0207
 2891SOL     OW18776   4.559   8.836   0.100 -0.0240  0.5611  0.0540
 2891SOL    HW118777   4.568   8.864   0.005  1.7806 -0.8268 -0.2255
 2891SOL    HW218778   4.506   8.751   0.106  0.6560  0.1358  0.1749
 2892SOL     OW18779   1.757   9.891   0.553 -0.6391 -0.0147 -0.9183
 2892SOL    HW118780   1.803   9.980   0.553  0.9446 -0.7935 -3.0387
 2892SOL    HW218781   1.744   9.861   0.648  0.3582  1.6788 -0.2100
 2893SOL     OW18782   9.653   5.649   0.546  0.5378 -0.0691 -0.0927
 2893SOL    HW118783   9.622   5.558   0.519  0.1807 -0.7423  2.4500
 2893SOL    HW218784   9.725   5.641   0.615  1.0525  1.5769 -0.4149
 2894SOL     OW18785   9.388   8.299   0.410  0.2213 -0.0502  0.0341
 2894SOL    HW118786   9.422   8.285   0.503  0.9018  0.9858 -0.0510
 2894SOL    HW218787   9.464   8.323   0.350 -0.2245 -0.6534 -0.7778
 2895SOL     OW18788   9.700   5.438   1.272 -0.0299  0.7985 -0.1969
 2895SOL    HW118789   9.781   5.437   1.330 -0.5073  1.0743  0.4810
 2895SOL    HW218790   9.711   5.372   1.198  0.5225  0.3405  0.2923
 2896SOL     OW18791   8.703   7.532   1.273  0.0831 -0.0092 -0.3647
 2896SOL    HW118792   8.644   7.595   1.325  0.0884  0.2912 -0.7204
 2896SOL    HW218793   8.699   7.555   1.176 -1.2325 -1.6192 -0.7269
 2897SOL     OW18794   4.509   3.173   0.336 -0.0655  0.2886 -0.4481
 2897SOL    HW118795   4.429   3.198   0.282  1.2140  1.0831 -2.0039
 2897SOL    HW218796   4.539   3.253   0.390 -0.6189 -0.1603  0.5498
 2898SOL     OW18797   8.949   8.226   0.362  0.3510 -0.3797  0.1034
 2898SOL    HW118798   8.886   8.164   0.408 -0.5726  1.3509  1.2290
 2898SOL    HW218799   9.025   8.248   0.423 -0.8468  1.8807  0.8028
 2899SOL     OW18800   9.163   5.310   0.984 -0.0464  0.8116 -0.6012
 2899SOL    HW118801   9.170   5.348   0.892  0.5535 -0.1086 -0.9468
 2899SOL    HW218802   9.243   5.338   1.038  0.7362 -0.4955 -1.0658
 2900SOL     OW18803   3.867   9.607   1.369  0.0240 -0.4764  0.3253
 2900SOL    HW118804   3.935   9.569   1.431  0.6795  2.2429  1.3616
 2900SOL    HW218805   3.900   9.602   1.275  1.1801 -0.2302  0.7092
 2901SOL     OW18806   2.053   3.309   1.548 -0.0101  0.7388  0.0923
 2901SOL    HW118807   2.092   3.316   1.640 -1.3553 -0.6935  0.7966
 2901SOL    HW218808   1.957   3.281   1.555 -0.5114  1.9634 -1.7000
 2902SOL     OW18809   0.727   9.431   0.511 -0.6067 -0.3741 -0.0336
 2902SOL    HW118810   0.800   9.481   0.467 -2.9396  0.6395 -2.8982
 2902SOL    HW218811   0.737   9.436   0.610  1.6699  1.9820 -0.3641
 2903SOL     OW18812   2.206   5.622   0.241  0.4729  0.2034 -0.2140
 2903SOL    HW118813   2.211   5.626   0.340  0.2452  1.6609 -0.2495
 2903SOL    HW218814   2.124   5.572   0.213  0.4963 -0.1373  0.3270
 2904SOL     OW18815   1.223   8.581   1.290 -0.4883 -0.0327 -0.0675
 2904SOL    HW118816   1.251   8.582   1.194  0.7605  0.9876  0.2913
 2904SOL    HW218817   1.203   8.487   1.319 -1.2042 -0.3046 -1.4038
 2905SOL     OW18818   7.991   0.979   0.314  0.2335 -0.3668  0.3764
 2905SOL    HW118819   7.973   0.925   0.232  1.0277  0.0100 -0.0514
 2905SOL    HW218820   7.909   0.981   0.371  0.0592 -1.6515  0.1845
 2906SOL     OW18821   5.526   3.825   0.333 -0.5662  0.2828  0.5412
 2906SOL    HW118822   5.528   3.872   0.246  2.2861  1.3932  1.1644
 2906SOL    HW218823   5.460   3.750   0.329 -1.2037  0.9516 -2.2006
 2907SOL     OW18824   9.502   1.287   2.395 -0.4469  0.0975 -0.0377
 2907SOL    HW118825   9.587   1.290   2.448 -1.4950  1.7559  1.6214
 2907SOL    HW218826   9.454   1.202   2.413 -0.3442  0.2506  0.9946
 2908SOL     OW18827   2.100   2.893   2.446  0.0004  0.0070  0.4737
 2908SOL    HW118828   2.102   2.922   2.542 -0.8697  1.4506  0.0749
 2908SOL    HW218829   2.005   2.879   2.418  0.2357 -0.0726 -0.2822
 2909SOL     OW18830   9.437   8.081   2.554 -0.3661  0.1779 -0.0548
 2909SOL    HW118831   9.382   8.149   2.605 -0.3601 -0.6228  1.0398
 2909SOL    HW218832   9.377   8.027   2.496 -0.3992  0.9959 -0.7842
 2910SOL     OW18833   1.117   8.897   2.100 -0.0540 -0.7110  0.0984
 2910SOL    HW118834   1.018   8.894   2.117  0.2007 -2.0162  1.3437
 2910SOL    HW218835   1.137   8.974   2.038 -2.0893 -1.7494 -1.9127
 2911SOL     OW18836   9.850   4.730   1.600  0.0969 -0.5902  0.3368
 2911SOL    HW118837   9.831   4.700   1.693 -1.8064  1.0457  0.5115
 2911SOL    HW218838   9.839   4.654   1.536 -0.4595 -1.2627  1.2301
 2912SOL     OW18839   2.604   1.846   1.962  0.2743  0.0387  0.1637
 2912SOL    HW118840   2.693   1.803   1.981 -0.1233 -0.5940  0.6139
 2912SOL    HW218841   2.531   1.782   1.985 -0.2516 -0.8798 -3.7468
 2913SOL     OW18842   3.007   4.215   2.169  0.1524  0.1524 -0.2571
 2913SOL    HW118843   3.068   4.286   2.134  1.0168  0.4515  1.7967
 2913SOL    HW218844   3.061   4.134   2.193 -0.7555 -0.9903 -2.0293
 2914SOL     OW18845   1.375   9.317   2.045  0.3192 -0.0136  0.0158
 2914SOL    HW118846   1.399   9.411   2.020  1.4542 -0.0759  0.8077
 2914SOL    HW218847   1.456   9.259   2.034  0.1606 -0.5054  1.4455
 2915SOL     OW18848   1.110   9.225   0.677  0.2858  0.2272  0.0140
 2915SOL    HW118849   1.196   9.248   0.631  0.7853 -1.8319 -0.1251
 2915SOL    HW218850   1.041   9.294   0.654  0.9576  0.1096 -2.5588
 2916SOL     OW18851   1.277   3.052   2.019  0.4548  0.8700 -0.0464
 2916SOL    HW118852   1.253   3.134   1.967 -2.9185 -0.0089 -0.0554
 2916SOL    HW218853   1.285   2.975   1.956  0.4582  0.5882  0.3009
 2917SOL     OW18854   1.492   2.593   0.029 -0.2125 -0.3029  0.0482
 2917SOL    HW118855   1.578   2.562   0.069  0.2546 -0.8078 -1.2932
 2917SOL    HW218856   1.498   2.586  -0.071 -2.6685 -2.6885  0.0104
 2918SOL     OW18857   9.609   6.117   0.631 -0.2882 -0.7342  0.5489
 2918SOL    HW118858   9.698   6.109   0.676  0.7258 -0.1356 -1.2975
 2918SOL    HW218859   9.581   6.029   0.593 -0.7323 -1.0335  1.5442
 2919SOL     OW18860   8.552   1.504   2.198 -0.2204  0.9058  0.6931
 2919SOL    HW118861   8.523   1.416   2.158  1.4766 -0.0388  1.4856
 2919SOL    HW218862   8.609   1.552   2.132 -0.3940  1.0104  0.6172
 2920SOL     OW18863   1.924   2.853   0.948 -0.1017  0.2010  0.1789
 2920SOL    HW118864   2.023   2.860   0.953  0.0128 -0.3368 -1.1555
 2920SOL    HW218865   1.893   2.776   1.005  0.3083 -0.0778  0.0282
 2921SOL     OW18866   0.661   8.713   0.576  0.7685  0.0229  0.4531
 2921SOL    HW118867   0.701   8.800   0.605 -0.0092  1.0487 -1.4560
 2921SOL    HW218868   0.572   8.701   0.620  0.8139  0.2638  0.6096
 2922SOL     OW18869   3.652   8.242   0.823  0.4710  0.6052 -0.0593
 2922SOL    HW118870   3.620   8.286   0.739 -0.0580  0.6513  0.1641
 2922SOL    HW218871   3.590   8.263   0.898 -1.4417 -2.8650 -0.5645
 2923SOL     OW18872   2.096   0.231   0.341  0.2859 -0.1978  0.6076
 2923SOL    HW118873   2.075   0.324   0.371  2.2316  1.1103 -1.9780
 2923SOL    HW218874   2.029   0.202   0.272  1.0116  0.1163 -0.2215
 2924SOL     OW18875   2.082   6.108   0.550  0.2267  0.3030  0.0679
 2924SOL    HW118876   2.072   6.076   0.644 -0.0014 -1.7993 -0.6365
 2924SOL    HW218877   2.131   6.040   0.497 -1.6782  0.3898 -1.8815
 2925SOL     OW18878   2.694   1.962   0.320  0.0132 -0.0048 -0.9477
 2925SOL    HW118879   2.778   1.919   0.284 -0.1397 -0.3890 -0.8423
 2925SOL    HW218880   2.718   2.024   0.395  0.1296 -0.6222 -0.4747
 2926SOL     OW18881   3.308   8.167   0.837  0.0164  0.4395  0.0262
 2926SOL    HW118882   3.365   8.233   0.887  1.6840 -1.2043  0.3309
 2926SOL    HW218883   3.348   8.076   0.844 -2.0509 -0.5539 -0.7449
 2927SOL     OW18884   0.908   6.993   2.472  0.4031 -0.4747 -0.1449
 2927SOL    HW118885   0.935   7.080   2.430  0.2222 -0.1974  0.3071
 2927SOL    HW218886   0.862   6.936   2.405  0.1234 -0.0386 -0.3255
 2928SOL     OW18887   4.597   3.472   1.031 -0.3173  0.1351 -0.0120
 2928SOL    HW118888   4.611   3.524   1.115 -0.6050 -1.1786  0.8697
 2928SOL    HW218889   4.500   3.447   1.022 -0.2859  0.2351 -0.7189
 2929SOL     OW18890   8.854   0.385   0.771  0.3478 -0.1354 -0.2820
 2929SOL    HW118891   8.814   0.387   0.862  0.1333  0.7623 -0.3909
 2929SOL    HW218892   8.785   0.411   0.704  0.6985 -0.0915 -0.6285
 2930SOL     OW18893   2.451   6.995   0.981  0.1492  0.0285  0.1211
 2930SOL    HW118894   2.365   6.983   0.932 -0.2341  3.8062 -0.3119
 2930SOL    HW218895   2.433   7.032   1.072  1.2505 -0.3665  0.5036
 2931SOL     OW18896   2.288   9.247   2.135  0.2312 -0.5634  0.0089
 2931SOL    HW118897   2.363   9.250   2.201 -0.3051 -1.5318  0.6792
 2931SOL    HW218898   2.314   9.296   2.052  0.9403  0.6115  0.9123
 2932SOL     OW18899   1.724   8.984   2.317  0.6755  0.1521 -0.6669
 2932SOL    HW118900   1.673   8.913   2.268  1.9320 -1.7110  0.6125
 2932SOL    HW218901   1.660   9.045   2.364 -0.4607  0.4604 -2.5901
 2933SOL     OW18902   2.518   8.233   1.845 -0.1306  0.1279 -0.2021
 2933SOL    HW118903   2.478   8.204   1.758 -0.9613 -0.5052  0.3812
 2933SOL    HW218904   2.617   8.246   1.834 -0.2139 -0.0653 -1.2014
 2934SOL     OW18905   2.394   4.620   1.581 -0.1665 -0.7938  0.0965
 2934SOL    HW118906   2.435   4.535   1.612  0.2226 -0.6024  0.1114
 2934SOL    HW218907   2.351   4.606   1.492  0.0956 -0.9453 -0.0047
 2935SOL     OW18908   8.251   9.549   0.981  0.1422  0.1914  0.7844
 2935SOL    HW118909   8.238   9.465   1.034  0.8502 -1.3314 -1.3910
 2935SOL    HW218910   8.186   9.618   1.011 -0.1807 -0.9962  2.8882
 2936SOL     OW18911   2.326   5.246   0.918  0.4340  0.2815  0.9782
 2936SOL    HW118912   2.306   5.344   0.921  1.3793  0.5356 -0.4174
 2936SOL    HW218913   2.383   5.221   0.996  0.9793  1.0453  0.8368
 2937SOL     OW18914   3.946   9.839   0.729 -0.0188 -0.1171  0.0771
 2937SOL    HW118915   3.871   9.880   0.678 -0.8784 -1.1051  0.5121
 2937SOL    HW218916   3.935   9.857   0.826 -0.9965 -2.2332  0.3890
 2938SOL     OW18917   9.182   0.654   1.680  0.1199  0.6695  0.3721
 2938SOL    HW118918   9.085   0.635   1.663  0.2899 -2.5124  2.3815
 2938SOL    HW218919   9.192   0.744   1.723 -2.4229 -0.5756  3.7980
 2939SOL     OW18920   2.727   3.271   1.102  0.2960 -0.0433  0.3478
 2939SOL    HW118921   2.793   3.248   1.173 -0.4937 -1.9888  0.4874
 2939SOL    HW218922   2.649   3.318   1.142  0.0521 -0.7551  0.7252
 2940SOL     OW18923   0.268   6.230   2.548  0.4936 -0.1716 -0.3102
 2940SOL    HW118924   0.212   6.232   2.465  0.7783  1.6344 -0.4800
 2940SOL    HW218925   0.348   6.289   2.535  0.3947  0.3324  1.3470
 2941SOL     OW18926   4.327   0.491   0.706 -0.1563  0.3680 -0.0442
 2941SOL    HW118927   4.292   0.584   0.719 -1.8223 -0.3478  0.8790
 2941SOL    HW218928   4.250   0.428   0.696  0.9091 -1.1435  1.0302
 2942SOL     OW18929   2.761   7.988   0.371  0.3669 -0.1927  0.1349
 2942SOL    HW118930   2.716   8.051   0.307 -0.7857 -2.7885 -1.6706
 2942SOL    HW218931   2.858   7.984   0.350  0.2735  0.1979 -0.4024
 2943SOL     OW18932   9.053   7.521   1.779  0.0997 -0.0397 -0.3786
 2943SOL    HW118933   9.014   7.435   1.747  0.0843 -0.2652  0.2410
 2943SOL    HW218934   9.039   7.530   1.877  2.1397 -0.4007 -0.0427
 2944SOL     OW18935   1.591   9.159   1.961 -0.1570  0.3690  0.2565
 2944SOL    HW118936   1.580   9.161   1.862 -0.4244  0.2662  0.2854
 2944SOL    HW218937   1.583   9.065   1.995 -0.5040  0.4568  0.4245
 2945SOL     OW18938   0.189   6.062   0.648  0.8603 -0.4415 -0.3482
 2945SOL    HW118939   0.287   6.079   0.646  0.7099  0.4189 -0.3160
 2945SOL    HW218940   0.166   5.996   0.576  1.4167 -0.4403 -0.5332
 2946SOL     OW18941   2.645   0.973   0.007  0.5610 -0.2695  0.4986
 2946SOL    HW118942   2.738   0.937   0.008  0.7577  0.1951  3.2117
 2946SOL    HW218943   2.644   1.064  -0.033  1.2067 -0.4127  0.1554
 2947SOL     OW18944   3.505   1.547   2.173  0.0061 -0.2648 -0.0142
 2947SOL    HW118945   3.487   1.496   2.088  0.0733 -1.1131  0.4820
 2947SOL    HW218946   3.558   1.490   2.235 -0.6697  0.0967  0.8955
 2948SOL     OW18947   9.974   6.410   2.445 -0.9010 -0.0084 -0.4758
 2948SOL    HW118948  10.014   6.492   2.486  0.8094  0.1626 -2.4070
 2948SOL    HW218949   9.939   6.431   2.354 -0.4398 -1.4019 -0.9911
 2949SOL     OW18950   2.073   7.821   1.960  0.2862  0.1412  0.7233
 2949SOL    HW118951   2.128   7.738   1.951  0.1700 -0.0889  2.0633
 2949SOL    HW218952   2.120   7.886   2.019 -1.0354 -0.2043  2.1898
 2950SOL     OW18953   9.608   5.910   2.525 -0.1128 -0.1283  0.4743
 2950SOL    HW118954   9.707   5.903   2.512 -0.0596  0.6273  0.4169
 2950SOL    HW218955   9.575   5.833   2.579  0.2950 -1.1410 -0.7196
 2951SOL     OW18956   2.051   0.660   1.213  0.1402 -0.1545 -0.0904
 2951SOL    HW118957   2.106   0.743   1.198 -0.3194 -0.2245 -2.1922
 2951SOL    HW218958   2.111   0.586   1.244  1.1635 -0.0893 -1.8796
 2952SOL     OW18959   9.272   8.107   1.203  0.2489  0.2761  0.1128
 2952SOL    HW118960   9.179   8.124   1.170  0.1394  0.3188  0.4394
 2952SOL    HW218961   9.293   8.171   1.276 -0.0505 -0.7650  1.1369
 2953SOL     OW18962   2.906   0.325   2.138 -0.2018 -0.4090  0.5740
 2953SOL    HW118963   2.813   0.331   2.174 -0.6343 -1.5964 -0.3209
 2953SOL    HW218964   2.965   0.390   2.187 -1.7636  1.2652  0.3036
 2954SOL     OW18965   0.461   8.708   1.520 -0.0576 -0.1895  0.2094
 2954SOL    HW118966   0.472   8.622   1.569  0.0131  0.2644  1.0004
 2954SOL    HW218967   0.503   8.782   1.573 -1.6690  0.6138  0.3978
 2955SOL     OW18968   2.665   9.908   1.644 -0.2264  0.2087 -0.1668
 2955SOL    HW118969   2.643   9.964   1.564  0.7900  0.6536 -0.1479
 2955SOL    HW218970   2.709   9.824   1.614 -3.1159 -1.3340 -0.3010
 2956SOL     OW18971   3.236   0.992   0.766 -0.1137  0.0230  0.5071
 2956SOL    HW118972   3.172   0.960   0.697  1.4758 -1.7708 -0.1876
 2956SOL    HW218973   3.194   0.983   0.857 -1.9255  1.6813 -0.1415
 2957SOL     OW18974   8.928   9.321   1.553  0.1898 -0.0830 -0.2564
 2957SOL    HW118975   8.831   9.318   1.531 -0.1027 -0.8656  1.0872
 2957SOL    HW218976   8.939   9.352   1.648  1.2752  0.5116 -0.5738
 2958SOL     OW18977   4.585   3.442   0.422 -0.3394  0.2885  0.9159
 2958SOL    HW118978   4.673   3.477   0.454 -0.6358  0.9577  1.0054
 2958SOL    HW218979   4.511   3.482   0.476 -0.7708  0.5332  0.1581
 2959SOL     OW18980   9.562   7.180   0.702 -0.9555 -0.5992 -0.4612
 2959SOL    HW118981   9.575   7.279   0.695  4.4633 -1.2792 -2.6266
 2959SOL    HW218982   9.547   7.142   0.611 -0.2619 -2.0511  0.0148
 2960SOL     OW18983   8.293   8.460   1.725  1.0616 -0.1482  0.1468
 2960SOL    HW118984   8.289   8.545   1.672 -0.6693 -0.2800  0.0468
 2960SOL    HW218985   8.270   8.382   1.666 -0.0775 -0.3842  0.8773
 2961SOL     OW18986   9.645   9.786   0.200  0.3936 -0.4891  0.4551
 2961SOL    HW118987   9.724   9.847   0.204  1.1561 -1.5624  2.8308
 2961SOL    HW218988   9.673   9.697   0.163 -0.0034 -0.4545  0.0681
 2962SOL     OW18989   3.078   5.568   1.466 -0.1143  0.8102  0.0231
 2962SOL    HW118990   3.109   5.511   1.542 -0.2745  1.7388  0.8073
 2962SOL    HW218991   3.081   5.516   1.381 -0.7141 -0.5063  0.7917
 2963SOL     OW18992   9.708   5.376   0.963  0.5624 -0.3836  0.3182
 2963SOL    HW118993   9.670   5.455   0.913  0.0890 -0.4340  0.5882
 2963SOL    HW218994   9.681   5.292   0.917  0.7306 -0.4015  0.2540
 2964SOL     OW18995   1.617   5.086   1.597  0.5985 -0.0755  0.1898
 2964SOL    HW118996   1.615   5.023   1.675  1.2116  0.0546  0.3131
 2964SOL    HW218997   1.561   5.048   1.523  0.5930 -0.5494  0.4317
 2965SOL     OW18998   3.629   0.424   0.954  0.4218 -0.8315 -0.2068
 2965SOL    HW118999   3.706   0.409   1.016 -0.3471 -0.6133  0.8144
 2965SOL    HW219000   3.626   0.351   0.886  1.6358 -0.7426 -0.3764
 2966SOL     OW19001   3.783   3.425   0.540  0.5086 -0.1938 -0.2627
 2966SOL    HW119002   3.862   3.485   0.543  1.2137 -1.1797  1.1056
 2966SOL    HW219003   3.702   3.474   0.574  0.9475  0.1854  0.2356
 2967SOL     OW19004   2.686   8.163   0.102 -0.1854 -0.4425 -0.2116
 2967SOL    HW119005   2.652   8.247   0.145  0.8960 -1.2284  2.2299
 2967SOL    HW219006   2.780   8.177   0.071  0.1501 -0.8816  0.5992
 2968SOL     OW19007   1.921   4.526   1.474  0.2466 -0.1219 -0.3153
 2968SOL    HW119008   1.858   4.536   1.397  1.7959 -1.6813 -1.8283
 2968SOL    HW219009   1.887   4.456   1.537  0.4975 -1.0212 -1.1725
 2969SOL     OW19010   0.392   7.316   2.515 -0.6281 -0.2794 -0.1328
 2969SOL    HW119011   0.308   7.365   2.491 -0.1349 -0.1431 -1.6399
 2969SOL    HW219012   0.401   7.235   2.456 -0.2893 -0.9481  0.8176
 2970SOL     OW19013   3.730   0.619   2.078  0.7545 -0.1311  0.1443
 2970SOL    HW119014   3.822   0.643   2.107  0.1536  1.8878  0.5093
 2970SOL    HW219015   3.694   0.691   2.018 -0.9394 -0.3954  0.8005
 2971SOL     OW19016   1.322   6.260   1.052 -0.2138  0.4837  0.2786
 2971SOL    HW119017   1.368   6.332   1.103  1.1843  0.1432 -0.4798
 2971SOL    HW219018   1.224   6.278   1.050  0.0432  1.9840  0.7071
 2972SOL     OW19019   4.511   3.785   0.309  0.1246 -0.2166  0.2019
 2972SOL    HW119020   4.471   3.717   0.371  0.0419  1.2854  1.8161
 2972SOL    HW219021   4.545   3.862   0.361  0.5006  0.8693 -1.5993
 2973SOL     OW19022   1.582   1.111   2.391 -0.0095 -0.4845  0.1268
 2973SOL    HW119023   1.652   1.135   2.324 -0.2285 -0.1511  0.0139
 2973SOL    HW219024   1.519   1.045   2.350 -0.7064  0.4474 -0.3410
 2974SOL     OW19025   7.575   9.983   0.516  0.0425  0.6171  0.5650
 2974SOL    HW119026   7.616  10.072   0.496  2.0094  0.1161  2.2245
 2974SOL    HW219027   7.613   9.914   0.454 -0.5953  0.7124  0.0653
 2975SOL     OW19028   1.053   1.221   0.762 -0.1267  0.2958 -0.2909
 2975SOL    HW119029   0.982   1.167   0.717  1.1440 -2.3621  0.8181
 2975SOL    HW219030   1.139   1.171   0.760  0.7359  1.6251  2.1308
 2976SOL     OW19031   8.805   7.124   0.081 -0.3599 -0.9798  0.2143
 2976SOL    HW119032   8.742   7.068   0.134 -1.0998 -0.6530 -0.2973
 2976SOL    HW219033   8.775   7.126  -0.015  1.3627 -2.1505 -0.3648
 2977SOL     OW19034   1.700   6.078   2.056 -0.3629  0.5849  0.5846
 2977SOL    HW119035   1.609   6.077   2.015 -0.4492  1.8697  0.7301
 2977SOL    HW219036   1.742   5.987   2.047 -1.0814  0.3815 -0.7359
 2978SOL     OW19037   9.720   8.768   0.390 -0.0770  0.0526 -0.3132
 2978SOL    HW119038   9.734   8.858   0.350 -1.0949 -0.1271 -1.0896
 2978SOL    HW219039   9.654   8.717   0.335  1.5661 -1.7079 -0.7160
 2979SOL     OW19040   2.378   0.172   0.588  0.2733 -0.2505  0.2086
 2979SOL    HW119041   2.300   0.133   0.538 -1.3269 -1.8474  3.7342
 2979SOL    HW219042   2.345   0.248   0.645  1.8212  0.7511 -0.2109
 2980SOL     OW19043   8.911   0.418   0.176 -0.4648 -0.3895  0.3102
 2980SOL    HW119044   8.930   0.377   0.087 -1.5005  0.0613 -0.1236
 2980SOL    HW219045   8.913   0.518   0.167 -0.1901 -0.3429  0.8798
 2981SOL     OW19046   2.338   5.161   0.673  0.2071 -0.4292 -0.2559
 2981SOL    HW119047   2.335   5.062   0.677 -0.8895 -0.3738  1.1835
 2981SOL    HW219048   2.346   5.198   0.766 -0.4985  0.8311 -0.6696
 2982SOL     OW19049   1.320   4.042   1.859 -0.1624 -0.2892 -0.2052
 2982SOL    HW119050   1.380   4.093   1.921  1.0495  0.3510 -1.8348
 2982SOL    HW219051   1.254   4.105   1.817  0.8764 -0.1504 -1.6877
 2983SOL     OW19052   3.344   3.827   1.744  0.0851  0.1154  0.4458
 2983SOL    HW119053   3.340   3.821   1.645  0.0778 -0.1424  0.4621
 2983SOL    HW219054   3.331   3.922   1.772  0.5195  0.2532  0.1781
 2984SOL     OW19055   2.388   9.163   0.034  0.4831  0.0376 -0.0766
 2984SOL    HW119056   2.291   9.140   0.043  0.4232  0.4968  0.4328
 2984SOL    HW219057   2.431   9.097  -0.028 -0.0064 -0.5732  0.2161
 2985SOL     OW19058   2.861   0.120   1.294  0.5516  0.8431  0.5886
 2985SOL    HW119059   2.959   0.098   1.294  0.8268  2.0137  0.1206
 2985SOL    HW219060   2.849   0.216   1.268 -0.7873  0.3874 -0.5357
 2986SOL     OW19061   3.923   2.692   2.408  0.6576 -0.2483  0.7261
 2986SOL    HW119062   3.949   2.756   2.480 -1.9368  3.5795 -1.5967
 2986SOL    HW219063   3.830   2.659   2.424 -0.0197  0.7842 -0.8930
 2987SOL     OW19064   2.372   7.596   1.184 -0.0542 -0.2073 -0.0051
 2987SOL    HW119065   2.444   7.628   1.123 -1.1978  2.1858 -0.1828
 2987SOL    HW219066   2.404   7.601   1.279  0.8635 -1.5501 -0.2361
 2988SOL     OW19067   0.944   7.434   0.180  0.5041  0.2568 -0.0602
 2988SOL    HW119068   1.029   7.390   0.210 -0.2292 -1.3244 -0.2460
 2988SOL    HW219069   0.940   7.432   0.080 -0.0522 -0.2561 -0.0277
 2989SOL     OW19070   2.979   2.485   2.189  0.1295 -0.0127 -0.0422
 2989SOL    HW119071   3.049   2.548   2.154 -0.1790 -0.1357 -0.8917
 2989SOL    HW219072   2.889   2.529   2.184 -0.1426 -0.6715 -1.0353
 2990SOL     OW19073   9.827   0.871   0.857 -0.1108 -0.0617 -0.0708
 2990SOL    HW119074   9.750   0.809   0.869  1.0136 -1.9634 -2.2059
 2990SOL    HW219075   9.800   0.964   0.882 -3.5842 -0.3960 -2.2613
 2991SOL     OW19076   2.550   6.795   0.486  0.1037 -0.3693 -0.1430
 2991SOL    HW119077   2.502   6.762   0.567  0.9470 -0.3766  0.3616
 2991SOL    HW219078   2.529   6.735   0.408  0.3896 -1.1848  0.4005
 2992SOL     OW19079   9.760   4.025   1.055  0.2220  0.0786 -0.4860
 2992SOL    HW119080   9.701   4.040   1.135  1.3230  2.8496 -0.1419
 2992SOL    HW219081   9.845   3.983   1.083 -1.2643 -3.3865 -0.9050
 2993SOL     OW19082   0.580   9.548   1.760 -0.3771  0.2750  0.4414
 2993SOL    HW119083   0.547   9.584   1.672 -0.0830  0.3159  0.3477
 2993SOL    HW219084   0.505   9.500   1.806 -0.8638  1.2614  0.6979
 2994SOL     OW19085   1.083   2.087   0.758  0.5557 -0.6875  0.1143
 2994SOL    HW119086   1.045   2.136   0.836 -1.5656  1.2466 -2.0593
 2994SOL    HW219087   1.042   1.996   0.753 -1.3236  0.1463 -0.2320
 2995SOL     OW19088   3.071   4.348   1.196  0.2719 -0.1307 -0.2293
 2995SOL    HW119089   3.052   4.255   1.228  1.5307 -0.5202 -0.5785
 2995SOL    HW219090   3.046   4.356   1.100  0.2190 -0.1203 -0.2149
 2996SOL     OW19091   0.342   9.189   2.560 -0.2500  0.2686  0.5770
 2996SOL    HW119092   0.350   9.262   2.627 -0.3401  0.3934  0.4527
 2996SOL    HW219093   0.247   9.157   2.556 -0.0429 -0.4282  1.2280
 2997SOL     OW19094   0.731   7.826   2.204 -0.0677  0.5952  0.1180
 2997SOL    HW119095   0.781   7.904   2.242 -0.3137  0.2255  1.2313
 2997SOL    HW219096   0.788   7.780   2.136 -0.1102  2.0345 -0.9211
 2998SOL     OW19097   9.749   1.404   1.872  0.1299 -0.1066 -0.5043
 2998SOL    HW119098   9.715   1.463   1.946 -0.3592 -0.9877 -0.0025
 2998SOL    HW219099   9.705   1.314   1.880 -0.7601  0.1321 -2.5336
 2999SOL     OW19100   9.915   6.187   1.488 -0.1540  0.1565 -0.6212
 2999SOL    HW119101  10.013   6.174   1.472 -0.1366  0.4322 -0.7482
 2999SOL    HW219102   9.902   6.254   1.561 -0.2453 -0.1957 -0.3189
 3000SOL     OW19103   1.325   2.344   0.142  0.1073 -0.0775  0.6592
 3000SOL    HW119104   1.323   2.439   0.111  0.1078 -0.0381  0.7803
 3000SOL    HW219105   1.420   2.314   0.151  0.1076 -0.0589  0.7162
 3001SOL     OW19106   0.395   1.617   1.512  0.0264 -0.0705 -0.5078
 3001SOL    HW119107   0.427   1.709   1.535  1.5003 -0.7527  0.2289
 3001SOL    HW219108   0.458   1.550   1.550  1.1096 -1.3157 -4.2432
 3002SOL     OW19109   1.628   0.123   0.789  0.0163  0.4171  0.2500
 3002SOL    HW119110   1.681   0.131   0.873 -0.5241 -0.4474  0.6715
 3002SOL    HW219111   1.531   0.132   0.808 -0.1413 -0.2094 -0.2143
 3003SOL     OW19112   2.076   2.478   1.103 -0.1387  0.1087  0.8099
 3003SOL    HW119113   2.059   2.563   1.154  1.1425  0.8783 -0.0068
 3003SOL    HW219114   2.173   2.474   1.076 -0.6229 -0.6369 -0.8958
 3004SOL     OW19115   3.821   4.020   1.330  0.2950  0.1282  0.0448
 3004SOL    HW119116   3.785   4.036   1.238  0.6234  2.8397  0.3418
 3004SOL    HW219117   3.920   4.015   1.327  0.5119  3.2336  0.6034
 3005SOL     OW19118   1.037   9.644   2.151 -0.4961 -0.2673 -0.3768
 3005SOL    HW119119   0.964   9.710   2.169 -1.2634 -1.2292  0.0850
 3005SOL    HW219120   1.077   9.662   2.061 -0.9151  0.6229 -0.3911
 3006SOL     OW19121   3.976   2.355   1.302  0.4342 -0.1819 -0.5911
 3006SOL    HW119122   4.050   2.376   1.366 -0.3987  1.9978 -0.2908
 3006SOL    HW219123   4.014   2.320   1.216  1.6790 -1.0987  0.3309
 3007SOL     OW19124   3.543   3.181   0.756  0.4865 -0.3363 -0.2043
 3007SOL    HW119125   3.498   3.113   0.697  2.2840 -2.4262  0.7586
 3007SOL    HW219126   3.640   3.186   0.732  0.7345  0.5846  0.9678
 3008SOL     OW19127   1.586   4.857   1.894 -0.2772  0.1374  0.4262
 3008SOL    HW119128   1.684   4.849   1.880 -0.2838 -0.5374  0.7261
 3008SOL    HW219129   1.563   4.828   1.987 -0.4550  2.7837  1.2479
 3009SOL     OW19130   2.321   9.924   0.745 -0.4212  0.0989  0.6230
 3009SOL    HW119131   2.239   9.931   0.688  0.6085  0.8787 -0.8069
 3009SOL    HW219132   2.394   9.979   0.704  0.9360 -0.9240  1.6411
 3010SOL     OW19133   0.293   7.998   1.843 -0.1586  0.4333 -0.1127
 3010SOL    HW119134   0.237   8.005   1.925 -0.7606  1.7446 -0.6080
 3010SOL    HW219135   0.377   8.051   1.856 -0.1926  0.5308 -0.2868
 3011SOL     OW19136   3.465   3.750   0.883  0.0541  0.0880 -0.2057
 3011SOL    HW119137   3.427   3.781   0.970  2.7616  2.1212  0.3285
 3011SOL    HW219138   3.446   3.652   0.871  1.4334 -0.7389  3.6684
 3012SOL     OW19139   9.976   7.187   1.690 -0.0878 -0.3426  0.7007
 3012SOL    HW119140  10.066   7.224   1.714 -0.5201 -0.3852  2.4638
 3012SOL    HW219141   9.987   7.111   1.626  1.1876 -0.7614  1.3885
 3013SOL     OW19142   9.319   8.394   1.588 -0.6281  0.1363 -0.5104
 3013SOL    HW119143   9.279   8.471   1.539  2.6753  1.9981 -0.3928
 3013SOL    HW219144   9.340   8.421   1.682  2.4661 -0.1950 -1.0587
 3014SOL     OW19145   2.538   4.078   1.242  0.4384 -0.1505 -0.1805
 3014SOL    HW119146   2.452   4.084   1.193  0.4131 -0.1658 -0.1371
 3014SOL    HW219147   2.579   3.987   1.226 -0.2401 -0.6627  0.9470
 3015SOL     OW19148   9.299   7.647   0.837 -0.0081  0.2227  0.3589
 3015SOL    HW119149   9.242   7.566   0.849  1.5292 -1.0728 -0.9674
 3015SOL    HW219150   9.365   7.654   0.912 -0.3603  0.4418  0.6515
 3016SOL     OW19151   1.775   3.984   1.298  0.5933 -0.2481  0.0635
 3016SOL    HW119152   1.771   3.888   1.324 -2.6994  0.5383  2.7771
 3016SOL    HW219153   1.760   3.993   1.199 -0.1220 -2.3981 -0.0429
 3017SOL     OW19154   2.820   3.662   1.815  0.6748  0.0700 -0.3895
 3017SOL    HW119155   2.866   3.721   1.882 -1.0446  0.0925  0.8126
 3017SOL    HW219156   2.727   3.644   1.846  0.1599 -0.6944 -2.3400
 3018SOL     OW19157   8.680   8.769   2.156  0.5935  0.0725 -0.4069
 3018SOL    HW119158   8.665   8.816   2.243 -0.1845 -0.9827  0.0479
 3018SOL    HW219159   8.742   8.692   2.170  2.7732  1.5994 -1.3688
 3019SOL     OW19160   9.914   3.721   1.175 -0.3388 -0.1257 -0.2142
 3019SOL    HW119161   9.960   3.694   1.259  0.3058  1.7869  0.0804
 3019SOL    HW219162   9.827   3.766   1.196  0.2846  1.2511 -0.4885
 3020SOL     OW19163   0.997   5.411   2.191 -0.0498  0.2501  0.6409
 3020SOL    HW119164   1.054   5.483   2.151 -0.5342 -0.3188 -1.1205
 3020SOL    HW219165   1.017   5.324   2.145 -1.9862 -0.0395  0.3304
 3021SOL     OW19166   2.987   8.731   2.430 -0.1609 -0.5116  0.3023
 3021SOL    HW119167   2.992   8.678   2.515  0.0772  1.3771  1.5046
 3021SOL    HW219168   3.027   8.822   2.445  0.6333 -0.4416 -2.0772
 3022SOL     OW19169   9.285   6.365   2.471 -0.4185  0.4066 -0.3269
 3022SOL    HW119170   9.303   6.342   2.567  0.7351  0.0465 -0.6194
 3022SOL    HW219171   9.298   6.284   2.414 -0.9022  0.6678 -0.8156
 3023SOL     OW19172   1.001   9.571   1.493  0.9787  0.4450  0.5871
 3023SOL    HW119173   0.921   9.523   1.529  1.0091  1.2119  1.7086
 3023SOL    HW219174   0.987   9.590   1.395 -0.2731  0.6919  0.7971
 3024SOL     OW19175   3.105   7.740   2.491  0.2872  0.1162 -0.3231
 3024SOL    HW119176   3.186   7.706   2.540  0.3365 -0.5238 -0.8404
 3024SOL    HW219177   3.023   7.721   2.545  0.6118  2.3343  1.0339
 3025SOL     OW19178   2.256   7.969   1.211  0.1832 -0.1493  0.1857
 3025SOL    HW119179   2.322   7.899   1.240  0.8194 -0.2809 -1.5177
 3025SOL    HW219180   2.304   8.041   1.161 -1.0460 -0.5382 -1.5833
 3026SOL     OW19181   2.703   3.176   1.637  0.2250 -0.1132  0.5661
 3026SOL    HW119182   2.789   3.135   1.668  0.5509  0.4413  0.3953
 3026SOL    HW219183   2.687   3.261   1.686  0.2358  0.2522 -0.0497
 3027SOL     OW19184   3.846   2.233   0.907 -0.5316  0.0150 -0.1250
 3027SOL    HW119185   3.944   2.217   0.905 -0.5203  0.1521 -0.5938
 3027SOL    HW219186   3.816   2.273   0.820 -1.1886 -1.0990 -0.4183
 3028SOL     OW19187   8.568   7.222   2.238 -0.0364  0.1520 -0.4244
 3028SOL    HW119188   8.497   7.155   2.257 -0.7682  0.7185 -1.0985
 3028SOL    HW219189   8.654   7.193   2.278  0.3090 -2.5151 -2.9433
 3029SOL     OW19190   1.711   8.718   2.128 -0.6141 -0.3047  0.5809
 3029SOL    HW119191   1.742   8.745   2.036 -1.3500 -0.8749  0.1531
 3029SOL    HW219192   1.723   8.619   2.139 -1.3283 -0.3724  0.7735
 3030SOL     OW19193   9.365   5.532   0.262  0.0166 -0.0318 -0.0113
 3030SOL    HW119194   9.447   5.582   0.233 -1.4201  1.1860 -2.1059
 3030SOL    HW219195   9.360   5.532   0.362  3.2091 -1.2289  0.1855
 3031SOL     OW19196   1.767   8.879   0.039  0.4990  0.5324  0.0636
 3031SOL    HW119197   1.682   8.920   0.008 -0.2686 -0.6648  0.5126
 3031SOL    HW219198   1.802   8.818  -0.032  0.6336  0.5318  0.1324
 3032SOL     OW19199   2.794   1.529   2.523 -0.0155  0.3166  0.0735
 3032SOL    HW119200   2.860   1.525   2.598 -0.4691  0.2581  0.4703
 3032SOL    HW219201   2.798   1.619   2.480 -0.0064  0.4676  0.3934
 3033SOL     OW19202   9.459   5.153   1.833  0.1801 -0.1975  0.0023
 3033SOL    HW119203   9.377   5.108   1.866  0.8923  0.1547  2.3008
 3033SOL    HW219204   9.537   5.090   1.839  0.7893  0.6636  1.3678
 3034SOL     OW19205   4.138   0.143   0.700 -0.3704 -0.3688 -0.1086
 3034SOL    HW119206   4.109   0.123   0.607  0.4580 -0.3707 -0.3693
 3034SOL    HW219207   4.194   0.068   0.735 -0.0001 -0.0103  0.0898
 3035SOL     OW19208   0.283   0.722   2.559  0.7646  0.7294  0.4473
 3035SOL    HW119209   0.318   0.776   2.483  1.3469 -0.4294 -0.1206
 3035SOL    HW219210   0.336   0.742   2.641  0.8709  1.1394  0.2816
 3036SOL     OW19211   0.693   9.481   0.780  0.1975  0.2496  0.7245
 3036SOL    HW119212   0.640   9.561   0.809 -0.1679  0.4246 -0.4038
 3036SOL    HW219213   0.729   9.434   0.861 -1.2551  0.4209  1.5010
 3037SOL     OW19214   4.067   1.622   2.006  0.3238 -0.1815 -0.5655
 3037SOL    HW119215   4.101   1.574   2.087  0.6009  0.7217 -0.1421
 3037SOL    HW219216   3.967   1.627   2.010  0.2046 -1.7172 -1.1798
 3038SOL     OW19217   1.046   1.216   0.029  0.0443  0.6570  0.2269
 3038SOL    HW119218   1.091   1.259   0.108 -0.3432  0.1982  0.7058
 3038SOL    HW219219   1.045   1.117   0.042 -0.5373  0.6196 -0.0809
 3039SOL     OW19220   9.921   4.549   2.436  0.3079  0.7256  0.1651
 3039SOL    HW119221   9.925   4.484   2.360  2.7776 -0.3846  1.1819
 3039SOL    HW219222   9.958   4.637   2.406  1.0339  0.3677  0.0021
 3040SOL     OW19223   8.522   0.022   1.994 -0.1920  0.4181  0.5618
 3040SOL    HW119224   8.590   0.093   1.974 -0.4549  0.7736  0.9043
 3040SOL    HW219225   8.430   0.062   1.988 -0.5196 -0.6978 -2.4953
 3041SOL     OW19226   8.744   2.847   1.490 -0.5711 -0.2866  1.0883
 3041SOL    HW119227   8.790   2.765   1.456 -0.5127 -1.1386  3.1247
 3041SOL    HW219228   8.773   2.864   1.584 -2.7777  0.4279  1.6671
 3042SOL     OW19229   9.395   2.413   1.188 -0.5224  0.8172  0.0776
 3042SOL    HW119230   9.332   2.380   1.118 -0.8527  0.0982  0.7127
 3042SOL    HW219231   9.394   2.351   1.266  0.1720  1.3808  0.5403
 3043SOL     OW19232   1.860   9.430   1.380  0.3413  0.4231 -0.1707
 3043SOL    HW119233   1.941   9.487   1.399  0.8582  0.5288 -2.4793
 3043SOL    HW219234   1.885   9.359   1.314 -1.4629  0.5293 -0.9898
 3044SOL     OW19235   2.871   5.651   1.602 -0.0507  0.2753 -0.2961
 3044SOL    HW119236   2.948   5.607   1.555 -0.2134 -0.7800  0.3989
 3044SOL    HW219237   2.855   5.605   1.690 -1.9871 -0.0218 -0.7831
 3045SOL     OW19238   4.138   2.240   0.913 -0.1417 -0.0691  0.4752
 3045SOL    HW119239   4.212   2.215   0.850 -1.4362 -1.0970 -0.6736
 3045SOL    HW219240   4.168   2.315   0.971  1.0536  0.9784 -1.4421
 3046SOL     OW19241   0.328   4.165   2.323 -0.3136 -0.3136 -0.7810
 3046SOL    HW119242   0.377   4.135   2.241  0.6217 -1.0189  0.0232
 3046SOL    HW219243   0.229   4.154   2.308 -0.2281  0.8749 -2.3145
 3047SOL     OW19244   8.552   7.707   1.377 -0.1346  0.0206 -0.1530
 3047SOL    HW119245   8.465   7.714   1.427 -0.3694  0.2591 -0.5957
 3047SOL    HW219246   8.569   7.792   1.328  0.1666 -0.1643 -0.3692
 3048SOL     OW19247   2.496   8.557   2.572  0.4624 -0.1938  0.0411
 3048SOL    HW119248   2.562   8.605   2.513  1.0312 -1.3245 -0.2478
 3048SOL    HW219249   2.434   8.503   2.515 -0.7585  0.8916  0.3071
 3049SOL     OW19250   9.615   0.197   0.403 -0.3484  0.3611  0.7422
 3049SOL    HW119251   9.601   0.296   0.404  2.6427  0.8411  1.0247
 3049SOL    HW219252   9.635   0.166   0.496 -0.5493 -0.3743  0.5364
 3050SOL     OW19253   0.717   2.302   0.712 -0.2195 -0.3242 -0.2373
 3050SOL    HW119254   0.741   2.209   0.739 -0.0088 -0.4238 -0.7624
 3050SOL    HW219255   0.638   2.333   0.764 -1.1821 -1.3214 -1.1035
 3051SOL     OW19256   9.143   8.610   0.912 -0.0791  0.3920  0.2452
 3051SOL    HW119257   9.231   8.640   0.876  0.2882 -1.7687 -0.7287
 3051SOL    HW219258   9.156   8.538   0.980 -1.0974 -0.5494 -0.5212
 3052SOL     OW19259   8.302   8.433   2.480 -0.0851  0.4339 -0.6787
 3052SOL    HW119260   8.244   8.415   2.560  2.7758 -1.4596  1.0592
 3052SOL    HW219261   8.259   8.503   2.423 -2.0829  2.0812  2.6783
 3053SOL     OW19262   8.164   0.780   0.470  0.3678 -0.2221 -0.1998
 3053SOL    HW119263   8.105   0.849   0.427 -0.0520 -0.8616 -0.6612
 3053SOL    HW219264   8.203   0.721   0.399 -1.1763 -1.9521  0.3663
 3054SOL     OW19265   9.243   8.525   2.102 -0.0794 -0.0651  0.0733
 3054SOL    HW119266   9.286   8.526   2.012  1.5050  0.2114  0.8209
 3054SOL    HW219267   9.144   8.510   2.092  0.3499 -1.9504 -1.5968
 3055SOL     OW19268   1.256   5.187   1.161  0.3502 -0.4161  0.2684
 3055SOL    HW119269   1.339   5.240   1.143  1.0135 -1.3849  0.4037
 3055SOL    HW219270   1.206   5.172   1.076 -0.2570  1.1011  0.3557
 3056SOL     OW19271   9.582   5.654   0.177  0.1988  0.4128 -0.3367
 3056SOL    HW119272   9.658   5.600   0.139 -0.0519  0.7627 -1.3339
 3056SOL    HW219273   9.616   5.711   0.251  0.4348 -1.2643  0.8863
 3057SOL     OW19274   1.440   8.898   2.007  0.2826 -0.5374 -0.1619
 3057SOL    HW119275   1.382   8.979   1.994 -0.4815 -1.2159 -0.9915
 3057SOL    HW219276   1.393   8.832   2.065  1.0696 -0.2392  0.8432
 3058SOL     OW19277   2.220   1.451   2.418 -0.6102 -0.0579 -0.1305
 3058SOL    HW119278   2.261   1.534   2.380 -0.3590  0.0298  0.3182
 3058SOL    HW219279   2.221   1.457   2.518 -2.7765  0.4551 -0.1156
 3059SOL     OW19280   2.583   6.356   1.561  0.1419 -0.0219 -0.0355
 3059SOL    HW119281   2.611   6.261   1.548 -0.7677 -0.4872  1.3409
 3059SOL    HW219282   2.495   6.372   1.516  0.4701  0.2678 -0.5783
 3060SOL     OW19283   7.933   9.847   2.448 -0.3635 -0.2818 -0.3908
 3060SOL    HW119284   7.972   9.873   2.536 -1.6293  0.7276 -0.1025
 3060SOL    HW219285   7.895   9.755   2.454  0.6254 -0.6812 -0.2393
 3061SOL     OW19286   3.736   3.225   1.502  0.4668  0.1031 -0.2755
 3061SOL    HW119287   3.805   3.295   1.516 -0.1408  1.2896 -2.8391
 3061SOL    HW219288   3.653   3.267   1.464 -0.7436 -1.6506  0.3672
 3062SOL     OW19289   4.203   3.479   1.848 -0.1571  0.0154 -0.0324
 3062SOL    HW119290   4.233   3.555   1.906 -0.7142  0.4538 -0.3139
 3062SOL    HW219291   4.200   3.395   1.902  1.2900  0.0234  0.0732
 3063SOL     OW19292   7.631   9.937   1.431 -0.3901 -0.2974 -0.6767
 3063SOL    HW119293   7.714   9.885   1.452  0.4815  0.8652 -1.2445
 3063SOL    HW219294   7.586   9.897   1.351 -0.4398 -0.9710 -0.3249
 3064SOL     OW19295   2.435   9.725   1.901 -0.0575  0.0213 -0.0487
 3064SOL    HW119296   2.427   9.823   1.924 -0.4659  0.7520 -3.1180
 3064SOL    HW219297   2.530   9.704   1.877  0.0617 -0.3872  0.7664
 3065SOL     OW19298   2.197   3.036   1.886  0.0601 -0.3051  0.2853
 3065SOL    HW119299   2.118   3.018   1.944 -0.4450 -1.4097 -0.7320
 3065SOL    HW219300   2.275   2.984   1.918  0.7327  1.7241  2.0331
 3066SOL     OW19301   0.802   6.438   2.144 -0.0334  0.6596 -0.6436
 3066SOL    HW119302   0.797   6.343   2.112 -0.7725  0.2947  0.5370
 3066SOL    HW219303   0.879   6.484   2.099  0.2416 -0.4503 -1.3325
 3067SOL     OW19304   4.398   0.731   0.992 -0.1615  0.3530  0.1681
 3067SOL    HW119305   4.304   0.706   0.967 -0.8749  0.2899  2.7348
 3067SOL    HW219306   4.456   0.650   0.988 -1.4106 -0.8056  3.6925
 3068SOL     OW19307   7.678   9.191   2.569 -0.3935  0.4796  0.5657
 3068SOL    HW119308   7.678   9.274   2.513  2.0859 -0.0023 -0.2265
 3068SOL    HW219309   7.674   9.216   2.666 -1.3620  1.4491  0.2812
 3069SOL     OW19310   4.834   3.628   0.419 -0.5143 -0.0287  0.2483
 3069SOL    HW119311   4.929   3.624   0.449 -0.4361 -0.1145 -0.0109
 3069SOL    HW219312   4.829   3.604   0.322 -0.6715  1.0496 -0.0111
 3070SOL     OW19313   1.534   9.605   0.559 -0.2829 -0.7231 -0.6082
 3070SOL    HW119314   1.564   9.597   0.463  1.0074  2.8853 -0.5864
 3070SOL    HW219315   1.604   9.565   0.618  0.7777  0.5694 -0.9776
 3071SOL     OW19316   3.753   1.524   2.353 -0.2179 -0.5047 -0.5480
 3071SOL    HW119317   3.719   1.430   2.357 -0.3119 -0.4169  2.4243
 3071SOL    HW219318   3.832   1.532   2.414  0.8852  0.9388 -2.1424
 3072SOL     OW19319   8.571   9.265   1.723  0.5663 -0.0428 -0.7757
 3072SOL    HW119320   8.509   9.198   1.684 -2.5463  0.6887  2.5799
 3072SOL    HW219321   8.530   9.356   1.717  0.2505  0.1822  3.3937
 3073SOL     OW19322   3.937   0.324   1.650  0.3492  0.4627  0.2559
 3073SOL    HW119323   3.907   0.391   1.718 -0.5825 -0.5114  0.8269
 3073SOL    HW219324   3.864   0.309   1.583 -0.0799 -1.1307  1.0415
 3074SOL     OW19325   2.583   5.804   1.797 -0.6517 -0.3194 -0.7739
 3074SOL    HW119326   2.604   5.795   1.699  1.8089 -0.3188 -0.2731
 3074SOL    HW219327   2.572   5.901   1.819  2.0449 -0.0843 -0.4187
 3075SOL     OW19328   8.702   9.199   2.106 -0.1812  0.4156  0.3724
 3075SOL    HW119329   8.654   9.283   2.131  2.1511  1.9122 -0.0067
 3075SOL    HW219330   8.725   9.201   2.008 -0.8991 -1.0896  0.1567
 3076SOL     OW19331   2.123   7.473   2.313 -0.2969  0.0664  0.6953
 3076SOL    HW119332   2.065   7.454   2.391 -0.4330 -0.1892  0.5328
 3076SOL    HW219333   2.189   7.398   2.301 -0.9113 -0.3607 -0.0164
 3077SOL     OW19334   9.881   7.959   2.391 -0.1273 -1.2334  0.1004
 3077SOL    HW119335   9.857   7.880   2.333  0.5070 -0.4024 -1.3153
 3077SOL    HW219336   9.799   8.013   2.408 -0.1255 -0.8904 -0.9371
 3078SOL     OW19337   8.383   0.716   2.514  0.1814  0.3561  0.3386
 3078SOL    HW119338   8.418   0.809   2.509 -0.3983  0.6228  1.0274
 3078SOL    HW219339   8.459   0.651   2.512  0.4449  0.6491 -3.7768
 3079SOL     OW19340   4.797   3.331   2.421 -0.1441  0.2567  0.4341
 3079SOL    HW119341   4.863   3.307   2.350  0.2760  1.1432  0.5271
 3079SOL    HW219342   4.747   3.413   2.394 -0.7543 -0.0297  0.6683
 3080SOL     OW19343   0.362   8.773   0.968 -0.0975 -0.4884 -0.2530
 3080SOL    HW119344   0.319   8.704   1.026  1.4181 -1.9295 -0.8078
 3080SOL    HW219345   0.301   8.852   0.960 -0.9149 -0.8474  2.1385
 3081SOL     OW19346   1.349   3.780   0.696  0.3021 -0.4401 -0.7391
 3081SOL    HW119347   1.408   3.724   0.754  0.5225 -0.5250 -1.0472
 3081SOL    HW219348   1.383   3.779   0.602  0.3312  0.2366 -0.7406
 3082SOL     OW19349   2.737   4.658   0.125 -0.6594 -0.8931 -0.1380
 3082SOL    HW119350   2.739   4.636   0.028  0.0358 -0.4592 -0.2271
 3082SOL    HW219351   2.717   4.576   0.178 -0.9244 -1.1515 -0.6381
 3083SOL     OW19352   0.615   8.682   2.549  0.0771 -0.2180  0.5405
 3083SOL    HW119353   0.547   8.711   2.481  0.5301  1.4138  0.7555
 3083SOL    HW219354   0.702   8.664   2.504  0.2795  0.5095  0.6395
 3084SOL     OW19355   3.523   4.653   1.835  0.0504  0.4640 -0.5666
 3084SOL    HW119356   3.481   4.574   1.880  0.6716  0.7394  0.5109
 3084SOL    HW219357   3.465   4.733   1.847  0.3993  0.6205  0.0581
 3085SOL     OW19358   2.029   8.450   1.837  0.1932  0.4636 -0.5458
 3085SOL    HW119359   2.114   8.495   1.808  0.5623 -0.0977 -0.3322
 3085SOL    HW219360   1.951   8.507   1.810  0.7321  2.3247  1.6151
 3086SOL     OW19361   9.548   2.827   0.618 -0.4173  0.3343  0.0296
 3086SOL    HW119362   9.620   2.763   0.591  1.5983  2.5079  0.0695
 3086SOL    HW219363   9.554   2.910   0.563 -2.9600  0.5415  0.0012
 3087SOL     OW19364   0.034   2.256   2.294  0.1803  0.1517 -0.2681
 3087SOL    HW119365   0.014   2.328   2.227  0.5727  0.9295  0.4343
 3087SOL    HW219366  -0.006   2.281   2.382  1.6517  0.2714  0.3806
 3088SOL     OW19367   0.715   4.802   2.483  0.3728  0.4395 -0.1834
 3088SOL    HW119368   0.747   4.748   2.561 -2.0273 -1.5106 -0.5133
 3088SOL    HW219369   0.672   4.886   2.516 -1.7696 -0.9666  0.7256
 3089SOL     OW19370   9.364   4.103   0.581  0.3036  0.2195  0.1533
 3089SOL    HW119371   9.435   4.067   0.642  1.0660  0.5880 -0.5089
 3089SOL    HW219372   9.274   4.077   0.616  0.8005 -1.4152  0.2416
 3090SOL     OW19373   1.184   9.553   2.361 -0.2842 -0.2480 -0.6452
 3090SOL    HW119374   1.128   9.569   2.280 -1.2984  0.8920  0.2546
 3090SOL    HW219375   1.278   9.531   2.334 -1.1495 -2.1888 -2.1727
 3091SOL     OW19376   9.359   6.140   2.275 -0.7469  0.2801  0.2952
 3091SOL    HW119377   9.288   6.200   2.237 -1.2062 -0.2131  0.3644
 3091SOL    HW219378   9.419   6.110   2.201  0.9096  2.6784  0.6012
 3092SOL     OW19379   1.709   2.435   1.804 -0.2833 -0.4325 -0.5437
 3092SOL    HW119380   1.672   2.444   1.896 -1.2060 -0.5045 -0.9067
 3092SOL    HW219381   1.684   2.516   1.750  0.9097 -0.0268 -0.5068
 3093SOL     OW19382   8.088   7.862   1.438 -0.5305  0.0969  0.2793
 3093SOL    HW119383   8.019   7.817   1.495 -1.3932 -0.7043 -1.3524
 3093SOL    HW219384   8.045   7.937   1.387 -0.4152 -0.9085 -1.3412
 3094SOL     OW19385   1.419   0.637   0.799 -0.4269  0.3728 -0.3202
 3094SOL    HW119386   1.428   0.719   0.855 -0.6089  0.5736 -0.5805
 3094SOL    HW219387   1.508   0.611   0.762 -0.2535  0.0596  0.3110
 3095SOL     OW19388   7.315   9.930   2.338  0.9618  0.0297  0.1007
 3095SOL    HW119389   7.387   9.988   2.377  0.3536 -0.3691  1.8513
 3095SOL    HW219390   7.244   9.915   2.406 -0.0002 -0.9094 -1.0957
 3096SOL     OW19391   1.577   1.820   1.826  0.5304 -0.2467 -0.5055
 3096SOL    HW119392   1.518   1.746   1.794 -1.1597  0.8617 -0.0165
 3096SOL    HW219393   1.554   1.905   1.779  1.7006  0.2327 -0.2518
 3097SOL     OW19394   4.476   3.083   2.187 -0.4787 -0.2122 -0.1753
 3097SOL    HW119395   4.510   3.095   2.281 -0.0950 -1.7535 -0.0859
 3097SOL    HW219396   4.514   3.154   2.128  0.8674 -0.3754  0.4613
 3098SOL     OW19397   2.271   4.614   1.320 -0.1784  0.0452  0.2216
 3098SOL    HW119398   2.218   4.550   1.266 -0.6420 -0.8289  1.6879
 3098SOL    HW219399   2.216   4.695   1.340  0.1744  0.6180 -1.0342
 3099SOL     OW19400   1.134   4.509   0.794  0.4369 -0.4981 -0.0501
 3099SOL    HW119401   1.213   4.455   0.767  2.2071  1.7543  0.4488
 3099SOL    HW219402   1.076   4.526   0.715 -0.2395 -3.1827 -0.1895
 3100SOL     OW19403   3.274   8.497   0.776 -0.3908 -0.0100  0.6387
 3100SOL    HW119404   3.259   8.526   0.871 -1.7902 -2.4916  1.2129
 3100SOL    HW219405   3.193   8.521   0.722  0.0459  0.6034  0.2471
 3101SOL     OW19406   2.689   0.316   0.626  0.7288 -0.6159  0.1474
 3101SOL    HW119407   2.743   0.246   0.672 -1.2532 -1.8426  0.6757
 3101SOL    HW219408   2.594   0.312   0.658  0.6057  2.4470  0.3261
 3102SOL     OW19409   3.006   8.663   1.631  0.1602 -0.3687 -0.1734
 3102SOL    HW119410   3.050   8.633   1.716  0.2838 -0.0443 -0.1218
 3102SOL    HW219411   3.075   8.702   1.570 -0.3958  2.3787  0.8843
 3103SOL     OW19412   9.780   2.387   0.284 -0.3916  0.1246 -0.2073
 3103SOL    HW119413   9.771   2.356   0.379  0.9108 -0.6965 -0.3481
 3103SOL    HW219414   9.771   2.309   0.223 -3.3420  0.9401 -0.8975
 3104SOL     OW19415   3.612   0.349   1.567 -0.0604 -0.5540 -0.2286
 3104SOL    HW119416   3.580   0.443   1.578  2.2530  0.2309  0.2105
 3104SOL    HW219417   3.593   0.318   1.474 -0.1414  0.6373 -0.6223
 3105SOL     OW19418   3.360   3.480   0.313 -0.3794 -0.5144 -0.2313
 3105SOL    HW119419   3.408   3.408   0.363  2.0242  1.5612  0.5448
 3105SOL    HW219420   3.361   3.458   0.215  0.7751 -1.3095 -0.0577
 3106SOL     OW19421   1.969   9.935   0.902 -0.0197 -0.0530 -0.3111
 3106SOL    HW119422   2.006   9.902   0.815  0.3697 -0.6838  0.0938
 3106SOL    HW219423   1.997  10.030   0.915 -0.6334  0.2523 -1.1900
 3107SOL     OW19424   2.481   6.467   2.422  0.1848 -0.4615 -0.3341
 3107SOL    HW119425   2.489   6.415   2.507 -1.6109 -2.4109 -1.2863
 3107SOL    HW219426   2.558   6.447   2.362  1.1178  0.4176  0.5699
 3108SOL     OW19427   1.392   9.369   2.325  0.3005 -0.4113  0.4447
 3108SOL    HW119428   1.312   9.323   2.363  0.6673 -1.6534 -0.2653
 3108SOL    HW219429   1.394   9.356   2.226  0.2528  1.4012  0.1776
 3109SOL     OW19430   8.507   1.200   0.815  0.6483 -0.2971 -0.2950
 3109SOL    HW119431   8.521   1.101   0.827  1.5507 -0.1897 -0.4086
 3109SOL    HW219432   8.596   1.245   0.805  0.2107  0.4578 -0.8218
 3110SOL     OW19433   1.513   0.904   1.606  0.8839 -0.0131 -0.4978
 3110SOL    HW119434   1.525   0.815   1.650  1.3056  1.4088  2.3621
 3110SOL    HW219435   1.557   0.975   1.661 -0.2564  2.0973 -2.2312
 3111SOL     OW19436   9.956   9.694   1.778  0.0649 -0.1905 -0.0821
 3111SOL    HW119437   9.920   9.786   1.763  1.1670  0.1901 -0.4185
 3111SOL    HW219438  10.046   9.700   1.819 -0.3654 -1.1508  1.0166
 3112SOL     OW19439   8.865   1.394   1.073 -0.2548  0.0882 -0.3862
 3112SOL    HW119440   8.823   1.484   1.082 -0.3915  0.0573 -0.6959
 3112SOL    HW219441   8.914   1.371   1.158  2.5353  1.8325 -1.4545
 3113SOL     OW19442   2.133   8.385   0.234 -0.3692 -0.0103  0.2480
 3113SOL    HW119443   2.099   8.383   0.140 -1.7204 -0.0998  0.7195
 3113SOL    HW219444   2.184   8.301   0.253  1.2260  0.6942 -0.8687
 3114SOL     OW19445   0.166   2.102   0.895 -0.7023 -0.5621 -0.1751
 3114SOL    HW119446   0.200   2.079   0.804  0.7836 -0.7122  0.4050
 3114SOL    HW219447   0.202   2.036   0.962 -1.6939 -0.3917  0.5405
 3115SOL     OW19448   1.692   8.098   0.244 -0.2482 -0.2324 -0.1754
 3115SOL    HW119449   1.734   8.022   0.195  0.2483 -0.3515  0.4249
 3115SOL    HW219450   1.696   8.181   0.188  0.3186 -0.3647 -0.3281
 3116SOL     OW19451   1.679   9.844   0.067  0.0973 -0.1256  0.8889
 3116SOL    HW119452   1.626   9.770   0.024 -1.7329  2.2574 -1.1188
 3116SOL    HW219453   1.771   9.845   0.028 -0.7680  0.4164 -1.2121
 3117SOL     OW19454   1.264   6.996   1.018  0.5113  0.1025  0.1200
 3117SOL    HW119455   1.168   6.968   1.022 -0.0186  1.6474 -1.0805
 3117SOL    HW219456   1.317   6.944   1.085 -0.9414 -1.5964 -0.0270
 3118SOL     OW19457   4.148   1.955   0.826  0.1493 -0.0134  0.0705
 3118SOL    HW119458   4.090   1.989   0.900  0.6371  0.7061  0.1284
 3118SOL    HW219459   4.164   1.857   0.839  1.1920  0.3319  1.5900
 3119SOL     OW19460   9.960   5.516   0.578  0.0199  0.4198  0.2796
 3119SOL    HW119461  10.042   5.486   0.626 -1.2830 -1.1179  1.5723
 3119SOL    HW219462   9.885   5.526   0.643 -1.1519  0.6493 -1.0864
 3120SOL     OW19463   4.067   2.260   1.878 -0.0767  0.2711 -0.1409
 3120SOL    HW119464   4.082   2.164   1.901  3.1402  1.4826  3.1212
 3120SOL    HW219465   3.988   2.295   1.929  0.8238  0.2407  1.2870
 3121SOL     OW19466   8.694   9.752   1.066  0.1583 -0.0338  0.5101
 3121SOL    HW119467   8.603   9.757   1.024  0.3557  0.3356  0.1285
 3121SOL    HW219468   8.739   9.841   1.058  0.7320 -0.3417  0.2902
 3122SOL     OW19469   3.384   9.713   0.767 -0.2799 -0.7929 -0.7648
 3122SOL    HW119470   3.300   9.681   0.811  0.2845  0.8034  1.5686
 3122SOL    HW219471   3.367   9.800   0.721  0.0685 -0.5653 -0.4578
 3123SOL     OW19472   3.467   0.034   1.942  0.1459  0.3232 -0.0326
 3123SOL    HW119473   3.414  -0.024   1.879 -0.8998  1.1544  0.0627
 3123SOL    HW219474   3.514   0.105   1.890  0.5665  0.0414 -0.0383
 3124SOL     OW19475   9.767   7.753   2.212 -0.4650  0.0442 -0.2726
 3124SOL    HW119476   9.782   7.708   2.124 -0.6177  0.7617 -0.6644
 3124SOL    HW219477   9.668   7.758   2.229 -0.6082  3.1697 -1.7611
 3125SOL     OW19478   9.523   6.810   0.042 -0.0007  0.0149 -0.0560
 3125SOL    HW119479   9.445   6.837   0.100 -1.1335 -3.2753  0.0306
 3125SOL    HW219480   9.497   6.732  -0.015  2.6263  0.1839 -1.5706
 3126SOL     OW19481   9.616   9.951   1.549  0.6907 -0.2209 -0.1119
 3126SOL    HW119482   9.593  10.012   1.473  0.9273 -0.2118 -0.1767
 3126SOL    HW219483   9.603   9.856   1.520  1.1113 -0.2283 -0.2754
 3127SOL     OW19484   9.118   6.103   0.511  0.2431 -0.1071  0.0885
 3127SOL    HW119485   9.136   6.082   0.607  2.5111 -0.8000 -0.4366
 3127SOL    HW219486   9.046   6.044   0.476  0.5969 -1.0511  0.9347
 3128SOL     OW19487   2.581   7.204   0.141  0.1030  0.0355  0.0589
 3128SOL    HW119488   2.520   7.173   0.213 -0.0912 -0.0425 -0.1396
 3128SOL    HW219489   2.676   7.188   0.168 -0.0070 -1.0964 -0.2157
 3129SOL     OW19490   2.169   0.619   0.803  0.3933  0.1782  0.6144
 3129SOL    HW119491   2.215   0.699   0.765  1.2028 -0.4873  0.1733
 3129SOL    HW219492   2.078   0.645   0.835  0.7311  1.3184  0.6775
 3130SOL     OW19493   9.426   9.568   1.283 -0.2743 -0.1433  0.2921
 3130SOL    HW119494   9.436   9.500   1.210  0.3720 -1.0128  1.1844
 3130SOL    HW219495   9.367   9.531   1.355 -1.2452  0.8682  0.0417
 3131SOL     OW19496   3.938   3.359   1.818  0.2678 -0.1552  0.3209
 3131SOL    HW119497   4.028   3.398   1.837 -0.1670  0.7676  0.5420
 3131SOL    HW219498   3.902   3.399   1.734 -0.9481  1.3105  1.4940
 3132SOL     OW19499   4.033   9.737   1.690 -0.0895  0.1695  0.3686
 3132SOL    HW119500   3.937   9.724   1.716 -0.1791  2.6409  1.4453
 3132SOL    HW219501   4.037   9.771   1.596 -0.2131 -0.9239 -0.0333
 3133SOL     OW19502   9.402   7.987   1.533 -0.2899 -0.1886  0.1654
 3133SOL    HW119503   9.382   8.080   1.501 -0.5799 -0.6787 -1.0651
 3133SOL    HW219504   9.357   7.920   1.475  0.5708 -1.1451  0.5720
 3134SOL     OW19505   3.097   3.938   1.952  0.0262 -0.2947  0.3066
 3134SOL    HW119506   3.077   3.901   1.861 -1.0467 -2.3745  1.3786
 3134SOL    HW219507   3.151   4.022   1.941  1.2339 -1.3165 -2.2064
 3135SOL     OW19508   0.179   8.911   0.353  0.2672  0.3775  0.3699
 3135SOL    HW119509   0.117   8.859   0.411 -0.1669  0.1326 -0.3151
 3135SOL    HW219510   0.171   9.009   0.374 -0.0265  0.3072  0.5852
 3136SOL     OW19511   0.500   6.466   1.220 -0.5648  0.5811  0.2986
 3136SOL    HW119512   0.590   6.428   1.240  0.5820  1.5357 -2.6997
 3136SOL    HW219513   0.494   6.559   1.256 -0.5214  0.3537  0.8955
 3137SOL     OW19514   2.048   9.993   1.458 -0.1748 -0.2287  0.2400
 3137SOL    HW119515   1.997   9.937   1.393  2.0599 -0.0144 -1.8023
 3137SOL    HW219516   2.091   9.934   1.526 -1.7567 -0.5469  0.9711
 3138SOL     OW19517   4.215   9.134   0.779 -0.0983 -0.5350  0.5840
 3138SOL    HW119518   4.220   9.059   0.713  0.9614  1.0142 -1.1645
 3138SOL    HW219519   4.262   9.107   0.864  0.1036 -1.9067  0.0589
 3139SOL     OW19520   3.261   8.921   0.770 -0.1698 -0.6626 -0.2663
 3139SOL    HW119521   3.289   8.951   0.678 -0.1816  2.8380  0.7895
 3139SOL    HW219522   3.331   8.861   0.808  1.4628  0.5384 -1.2954
 3140SOL     OW19523   7.732   0.339   1.470 -0.4855 -0.1769  0.3782
 3140SOL    HW119524   7.715   0.262   1.532 -0.5059  0.7909  1.5964
 3140SOL    HW219525   7.681   0.419   1.502 -1.9289 -0.1296 -1.9070
 3141SOL     OW19526   1.015   2.563   1.328  0.2839 -0.0962  0.0419
 3141SOL    HW119527   1.080   2.611   1.268  1.2480 -1.4920 -0.0645
 3141SOL    HW219528   1.035   2.465   1.327 -0.6917 -0.3285  1.4329
 3142SOL     OW19529   2.680   8.549   0.817  0.0370 -0.1954 -0.3951
 3142SOL    HW119530   2.604   8.511   0.765  0.0641 -1.6253  0.5811
 3142SOL    HW219531   2.661   8.645   0.838 -2.3078 -0.9556  1.2547
 3143SOL     OW19532   8.368   8.077   0.438  0.4928  0.6156  0.6078
 3143SOL    HW119533   8.443   8.016   0.413  0.5885  0.2407  1.7923
 3143SOL    HW219534   8.366   8.155   0.374  0.5878 -0.4180 -0.6891
 3144SOL     OW19535   7.911   9.483   1.058  0.3732  0.0249  0.5234
 3144SOL    HW119536   7.935   9.402   1.004 -0.7264 -0.1038  0.2187
 3144SOL    HW219537   7.912   9.459   1.155  1.5406  0.0444  0.5254
 3145SOL     OW19538   0.177   4.694   0.801  0.0744  0.7437 -0.6347
 3145SOL    HW119539   0.223   4.667   0.886 -1.7475 -0.1835  0.0896
 3145SOL    HW219540   0.169   4.615   0.741 -0.9477  0.7750 -0.5590
 3146SOL     OW19541   4.124   5.089   0.520  0.5126  0.4031 -0.1676
 3146SOL    HW119542   4.207   5.034   0.515  0.0273 -0.3663  0.1909
 3146SOL    HW219543   4.072   5.080   0.435  0.2311 -0.0286  0.0442
 3147SOL     OW19544   2.907   5.781   0.061  0.3417  0.8026 -0.0050
 3147SOL    HW119545   2.818   5.740   0.043  0.9312 -0.4340 -0.1604
 3147SOL    HW219546   2.907   5.822   0.152  0.6704 -2.1637  1.3765
 3148SOL     OW19547   2.528   7.716   2.453  0.7900  0.0213 -0.4454
 3148SOL    HW119548   2.509   7.661   2.533  1.8433 -0.1146 -0.2872
 3148SOL    HW219549   2.570   7.803   2.481  1.9236 -0.3700 -0.8896
 3149SOL     OW19550   2.543   8.969   0.677 -0.1084  0.1603  0.3419
 3149SOL    HW119551   2.623   9.017   0.641  1.2206 -0.6493  2.1521
 3149SOL    HW219552   2.461   9.002   0.630  1.0549  2.3803 -0.2063
 3150SOL     OW19553   9.246   0.085   1.541 -0.0974  0.6880  0.3071
 3150SOL    HW119554   9.228  -0.006   1.579  0.7921  0.1321 -0.5913
 3150SOL    HW219555   9.295   0.076   1.454  0.3584  2.0408  0.4155
 3151SOL     OW19556   8.640   0.041   0.930  0.4066  0.1393  0.2308
 3151SOL    HW119557   8.548   0.024   0.967  1.1287 -1.9004  1.1618
 3151SOL    HW219558   8.641   0.021   0.832 -0.0621 -0.1112  0.2774
 3152SOL     OW19559   3.247   1.661   0.651  0.0938  0.6850  0.5483
 3152SOL    HW119560   3.260   1.730   0.580  0.1121 -0.0741 -0.1948
 3152SOL    HW219561   3.152   1.664   0.683  0.4172  1.9075  1.4317
 3153SOL     OW19562   3.545   9.267   1.384  0.0398  0.3046 -0.4992
 3153SOL    HW119563   3.565   9.331   1.309  1.5359 -0.5748 -0.8776
 3153SOL    HW219564   3.487   9.193   1.349 -0.6695  0.7889 -0.3612
 3154SOL     OW19565   8.238   9.288   1.134 -0.0973 -0.3063  0.1817
 3154SOL    HW119566   8.171   9.282   1.060 -1.9315  2.0150  1.5719
 3154SOL    HW219567   8.190   9.292   1.222  2.0092 -1.7995  1.4327
 3155SOL     OW19568   3.352   3.121   2.446 -0.1826  0.5303 -0.1591
 3155SOL    HW119569   3.284   3.126   2.519 -0.5154 -2.1262 -0.2357
 3155SOL    HW219570   3.419   3.050   2.467  0.1295  0.2286 -2.0844
 3156SOL     OW19571   4.279   9.914   0.761 -0.2644 -0.4956  0.0196
 3156SOL    HW119572   4.240   9.841   0.818  1.3995 -2.3029 -1.0870
 3156SOL    HW219573   4.350   9.876   0.702  2.3296  2.4494  1.0664
 3157SOL     OW19574   0.882   3.319   0.263 -0.2332  0.0102  0.4466
 3157SOL    HW119575   0.882   3.362   0.353 -0.5098  0.3291  0.2919
 3157SOL    HW219576   0.846   3.226   0.271 -3.8268  1.2939  0.0632
 3158SOL     OW19577   0.279   3.174   1.192  0.3169 -0.3340  0.4731
 3158SOL    HW119578   0.225   3.170   1.108  0.7380 -2.8411  0.2755
 3158SOL    HW219579   0.218   3.179   1.270 -0.1172 -0.0092  0.1206
 3159SOL     OW19580   8.334   7.764   1.610 -0.1343  0.3825 -0.8586
 3159SOL    HW119581   8.287   7.829   1.551  0.2635  0.4686 -1.0784
 3159SOL    HW219582   8.329   7.797   1.705  1.5011  1.5908 -1.1721
 3160SOL     OW19583   3.549   7.919   0.430 -0.2608  0.2633  0.5065
 3160SOL    HW119584   3.477   7.870   0.480 -0.1202  0.9097  1.3524
 3160SOL    HW219585   3.600   7.978   0.493  1.3612 -0.5861  0.0047
 3161SOL     OW19586   0.034   8.542   2.061 -0.5391 -0.0167  0.7539
 3161SOL    HW119587   0.074   8.512   2.148 -0.5223 -3.2788 -0.3031
 3161SOL    HW219588   0.097   8.606   2.016  0.2588  0.3312  2.3489
 3162SOL     OW19589   8.424   9.548   0.268  0.4516  0.0331  0.2358
 3162SOL    HW119590   8.510   9.566   0.222  0.5537 -1.2729 -0.1133
 3162SOL    HW219591   8.439   9.547   0.367  0.8155 -0.0738  0.1806
 3163SOL     OW19592   1.233   3.922   2.493 -0.4602  0.1313 -0.5770
 3163SOL    HW119593   1.280   4.008   2.514 -1.1723  0.4312 -0.1978
 3163SOL    HW219594   1.136   3.939   2.480 -0.8296 -0.8199  0.8384
 3164SOL     OW19595   8.924   7.353   0.150  0.3028  0.2380 -0.1031
 3164SOL    HW119596   8.923   7.423   0.079 -0.8407  1.6615  1.2638
 3164SOL    HW219597   8.885   7.268   0.115 -0.8548  1.1293 -0.9819
 3165SOL     OW19598   2.142   6.302   0.190  0.2434 -0.4340 -0.4477
 3165SOL    HW119599   2.107   6.209   0.196 -1.5146  0.2503 -0.0097
 3165SOL    HW219600   2.104   6.347   0.109 -0.7708  0.6642  0.6177
 3166SOL     OW19601   0.705   3.373   0.080  0.4453 -0.4620 -0.1738
 3166SOL    HW119602   0.788   3.361   0.135 -1.3167  0.0336  2.6761
 3166SOL    HW219603   0.659   3.284   0.070  1.4647 -0.8036 -2.0594
 3167SOL     OW19604   8.734   6.818   1.581 -0.1832  0.5800  0.3350
 3167SOL    HW119605   8.776   6.757   1.514 -2.6865 -2.0023  1.0062
 3167SOL    HW219606   8.791   6.821   1.664  2.1774  2.6574 -1.3026
 3168SOL     OW19607   5.106   3.900   1.011  0.1449  0.0051 -0.4489
 3168SOL    HW119608   5.140   3.944   1.094 -1.9738 -0.5353  0.7482
 3168SOL    HW219609   5.050   3.965   0.959 -1.0318 -0.5331  0.1162
 3169SOL     OW19610   1.657   3.374   1.458  0.5754  0.1319 -0.3831
 3169SOL    HW119611   1.715   3.369   1.377  0.8671 -0.3962 -0.1411
 3169SOL    HW219612   1.620   3.467   1.466  0.1662  0.0681 -1.3800
 3170SOL     OW19613   1.508   7.152   1.643 -0.4837 -0.8195  0.3902
 3170SOL    HW119614   1.577   7.164   1.714 -0.9168 -2.3819  1.0917
 3170SOL    HW219615   1.535   7.203   1.561  1.5714 -1.5409  0.6032
 3171SOL     OW19616   3.367   5.353   0.518  0.1028  0.2306 -0.1622
 3171SOL    HW119617   3.466   5.347   0.532  0.0846 -2.2511 -0.8451
 3171SOL    HW219618   3.347   5.368   0.421 -0.1792  1.6503  0.1069
 3172SOL     OW19619   2.365   0.687   0.050  0.0210 -0.0292 -0.4608
 3172SOL    HW119620   2.398   0.648  -0.036 -0.1430 -0.8057 -0.1789
 3172SOL    HW219621   2.375   0.619   0.123 -0.0758  0.5371  0.0851
 3173SOL     OW19622   9.899   4.642   1.143 -0.2667 -0.2296  0.0217
 3173SOL    HW119623   9.885   4.645   1.242  0.9073 -0.3515  0.1976
 3173SOL    HW219624   9.929   4.550   1.117 -1.1617 -0.3699 -0.5306
 3174SOL     OW19625   3.261   2.818   0.049 -0.3510 -0.1472 -0.1923
 3174SOL    HW119626   3.237   2.816  -0.048 -0.8168  2.7360 -0.1777
 3174SOL    HW219627   3.182   2.793   0.104 -0.9392  1.0916 -0.4606
 3175SOL     OW19628   2.398   5.624   1.865 -0.3151  0.2106 -0.6432
 3175SOL    HW119629   2.383   5.621   1.964 -0.4781 -0.6946 -0.6903
 3175SOL    HW219630   2.479   5.680   1.845  0.7609 -1.0284  0.1308
 3176SOL     OW19631   0.273   8.816   1.338 -0.6035  0.6913 -0.2554
 3176SOL    HW119632   0.271   8.910   1.372  0.8995  0.5684  0.2173
 3176SOL    HW219633   0.333   8.761   1.397 -0.3911 -0.2342 -1.3270
 3177SOL     OW19634   2.374   2.332   2.059  0.1419 -0.3568  0.1140
 3177SOL    HW119635   2.409   2.244   2.028  0.9011 -0.1867  0.4889
 3177SOL    HW219636   2.278   2.341   2.031 -0.7474 -2.4110  2.3118
 3178SOL     OW19637   0.338   4.964   1.942  0.0269  0.0480 -0.3795
 3178SOL    HW119638   0.243   4.938   1.928  0.7410 -2.1841 -1.2657
 3178SOL    HW219639   0.379   4.988   1.854  0.3453  0.8137 -0.0270
 3179SOL     OW19640   4.474   2.155   2.368  0.4926  0.5867 -0.1320
 3179SOL    HW119641   4.469   2.227   2.299 -2.2060  0.7233  0.1818
 3179SOL    HW219642   4.382   2.124   2.391  1.4387 -0.5248  2.2819
 3180SOL     OW19643   3.603   2.965   2.422 -0.0839 -0.3020 -0.5992
 3180SOL    HW119644   3.648   2.995   2.338 -1.6850 -0.1716 -1.4327
 3180SOL    HW219645   3.638   3.019   2.499 -0.8906  1.7857 -1.6586
 3181SOL     OW19646   1.929   8.965   0.421 -0.1719  0.0183  0.1812
 3181SOL    HW119647   1.845   8.951   0.473 -1.0167  1.3576 -0.8144
 3181SOL    HW219648   1.992   8.888   0.438 -3.0219 -2.9241 -1.9796
 3182SOL     OW19649   1.749   1.901   2.086 -0.6035  0.5077  0.5653
 3182SOL    HW119650   1.740   1.878   1.989  0.6416 -0.4310  0.6740
 3182SOL    HW219651   1.725   1.821   2.142  1.0172  0.3122  0.9881
 3183SOL     OW19652   1.810   5.637   0.681 -0.0748  0.5927  0.2253
 3183SOL    HW119653   1.779   5.552   0.638 -0.2928  0.8874 -0.1973
 3183SOL    HW219654   1.738   5.706   0.674  0.3683  1.0241 -0.0409
 3184SOL     OW19655   9.904   5.709   1.648  0.2238  0.3380 -0.2506
 3184SOL    HW119656   9.813   5.674   1.626  0.3526 -0.4169  0.4128
 3184SOL    HW219657   9.959   5.713   1.564  0.5865 -2.1535 -0.1648
 3185SOL     OW19658   5.071   3.579   0.567 -0.3489 -0.0676 -0.2017
 3185SOL    HW119659   5.011   3.562   0.645 -0.1903 -2.6665 -0.6035
 3185SOL    HW219660   5.166   3.568   0.595 -0.1362  1.8595 -0.0970
 3186SOL     OW19661   3.234   8.604   2.385 -0.2723 -0.5916 -0.3398
 3186SOL    HW119662   3.325   8.640   2.365 -0.3454 -0.0964  0.2149
 3186SOL    HW219663   3.175   8.677   2.418 -0.8465 -0.9322 -0.5961
 3187SOL     OW19664   2.726   3.268   0.564 -0.0123  0.5235  0.2986
 3187SOL    HW119665   2.695   3.199   0.499  0.2575  2.1789 -1.6569
 3187SOL    HW219666   2.723   3.231   0.657  0.0785 -2.0625 -0.6966
 3188SOL     OW19667   2.490   3.466   0.481 -0.2791 -0.0840 -0.1102
 3188SOL    HW119668   2.581   3.435   0.509 -0.7451 -0.0560  1.5223
 3188SOL    HW219669   2.454   3.405   0.411 -0.4534 -2.2604  1.7868
 3189SOL     OW19670   9.987   0.717   0.728  0.0765 -0.3219 -0.3592
 3189SOL    HW119671   9.918   0.671   0.672 -0.7284  1.3738 -0.7754
 3189SOL    HW219672   9.946   0.793   0.777  1.9071  1.5707 -1.6657
 3190SOL     OW19673   3.749   0.149   1.210  0.5194 -0.1859 -0.4902
 3190SOL    HW119674   3.665   0.203   1.217  0.2195 -0.7677  0.4989
 3190SOL    HW219675   3.828   0.210   1.206  0.3201  0.3307  2.5233
 3191SOL     OW19676   1.579   9.190   2.423 -0.2828  0.2178  0.4772
 3191SOL    HW119677   1.524   9.126   2.477 -0.1457  1.1349  1.7143
 3191SOL    HW219678   1.518   9.255   2.377 -0.3699 -0.2648 -0.0981
 3192SOL     OW19679   0.372   5.277   0.832  0.7834 -0.0805 -0.3985
 3192SOL    HW119680   0.342   5.199   0.887 -0.4248  0.1355 -0.7471
 3192SOL    HW219681   0.370   5.252   0.735  0.7437  0.2692 -0.4888
 3193SOL     OW19682   2.334   7.868   1.579 -0.0486 -0.3759  0.6195
 3193SOL    HW119683   2.353   7.877   1.677 -3.6403 -0.2964  1.3897
 3193SOL    HW219684   2.402   7.918   1.527  0.1231  2.2299  3.2205
 3194SOL     OW19685   0.936   8.297   1.572  0.1865 -0.1653  0.6762
 3194SOL    HW119686   0.870   8.227   1.599 -0.4989  0.2950  0.1880
 3194SOL    HW219687   0.891   8.368   1.518  0.8084  0.8498  1.4722
 3195SOL     OW19688   4.342   0.245   2.246 -0.2762  0.5569  0.3638
 3195SOL    HW119689   4.385   0.251   2.156 -0.6545 -0.1906  0.1367
 3195SOL    HW219690   4.320   0.150   2.267 -1.8378  0.9270  0.4691
 3196SOL     OW19691   2.390   2.014   0.913 -0.0839 -0.4845 -0.0943
 3196SOL    HW119692   2.335   1.978   0.988 -1.2374  2.3477  0.4909
 3196SOL    HW219693   2.338   2.084   0.864  2.9442  2.2857  0.4468
 3197SOL     OW19694   8.921   7.462   2.346  0.3555 -0.5770  0.4354
 3197SOL    HW119695   8.946   7.497   2.255  1.3952 -0.9020  0.5857
 3197SOL    HW219696   9.001   7.422   2.389 -0.0698 -0.1615  1.6339
 3198SOL     OW19697   8.763   6.796   2.204  0.0577 -0.4838 -0.1473
 3198SOL    HW119698   8.844   6.809   2.261 -0.6403  2.0850  0.2990
 3198SOL    HW219699   8.704   6.726   2.244  0.4777 -0.0355  1.2743
 3199SOL     OW19700   1.317   1.329   0.170 -0.6750  0.2649 -0.0470
 3199SOL    HW119701   1.339   1.255   0.233 -2.4140  1.1027  1.5603
 3199SOL    HW219702   1.399   1.353   0.117 -0.1365 -2.9244 -0.7604
 3200SOL     OW19703   2.998   2.792   0.190 -0.0138  0.0360 -0.3767
 3200SOL    HW119704   2.972   2.708   0.142  1.5295 -1.4268  1.2899
 3200SOL    HW219705   3.052   2.769   0.271  1.6974  2.7119 -0.7116
 3201SOL     OW19706   3.306   8.430   2.171  0.0811  0.5668 -0.4023
 3201SOL    HW119707   3.275   8.476   2.255  0.7927  0.1727  0.0820
 3201SOL    HW219708   3.359   8.349   2.196  0.9369  0.8708 -1.2318
 3202SOL     OW19709   4.491   1.440   1.940  0.9498 -0.0872 -0.2579
 3202SOL    HW119710   4.458   1.351   1.970  1.9880 -0.2503  0.4207
 3202SOL    HW219711   4.545   1.429   1.857 -0.3909  0.1385 -1.1776
 3203SOL     OW19712   0.766   0.503   0.985 -0.2707  0.0403 -0.4859
 3203SOL    HW119713   0.693   0.484   1.051 -0.2891 -1.0982 -0.8233
 3203SOL    HW219714   0.726   0.513   0.893  0.0892 -1.5728 -0.8325
 3204SOL     OW19715   2.441   3.776   0.471  0.6248  0.4280 -0.0106
 3204SOL    HW119716   2.410   3.694   0.519  0.4829 -1.2786 -2.8457
 3204SOL    HW219717   2.524   3.755   0.419  0.0947  1.7949 -1.4764
 3205SOL     OW19718   3.090   1.380   2.142  0.3635  0.2183 -0.3310
 3205SOL    HW119719   3.128   1.290   2.161 -0.6644 -0.3519 -0.9424
 3205SOL    HW219720   3.068   1.426   2.228 -0.1582 -0.5631 -0.0472
 3206SOL     OW19721   8.272   7.726   1.264 -0.5319  0.6907 -0.1264
 3206SOL    HW119722   8.212   7.776   1.327 -0.6451 -1.3183  1.4075
 3206SOL    HW219723   8.347   7.785   1.236 -1.0021  1.9266  1.1586
 3207SOL     OW19724   0.090   5.182   1.970 -0.1309 -0.6991  0.2045
 3207SOL    HW119725   0.026   5.139   1.906  0.2833 -0.0138 -0.6853
 3207SOL    HW219726   0.072   5.280   1.975  0.4378 -0.6021  0.4344
 3208SOL     OW19727   1.819   8.613   0.562 -0.0815 -0.2412 -0.0657
 3208SOL    HW119728   1.830   8.633   0.659 -1.4828 -0.1067  0.0749
 3208SOL    HW219729   1.759   8.681   0.520  1.6429  0.5405 -1.3408
 3209SOL     OW19730   2.027   8.649   2.520 -0.0517  0.4892 -0.1858
 3209SOL    HW119731   2.056   8.654   2.425  1.4452  1.7460  0.3236
 3209SOL    HW219732   2.067   8.724   2.572 -0.6851 -0.2922  1.4875
 3210SOL     OW19733   8.615   2.209   1.188 -0.2320 -0.3745 -0.3380
 3210SOL    HW119734   8.591   2.112   1.179 -2.4263  0.2858 -1.8247
 3210SOL    HW219735   8.698   2.227   1.136 -0.9987 -1.0310 -1.8166
 3211SOL     OW19736   2.703   9.670   2.216  0.4816 -0.2749 -0.3272
 3211SOL    HW119737   2.679   9.736   2.287  1.1645 -1.6514  1.2230
 3211SOL    HW219738   2.629   9.602   2.208  0.9647 -0.8339 -0.0508
 3212SOL     OW19739   4.170   2.474   1.516  0.5615 -0.1098 -0.5343
 3212SOL    HW119740   4.222   2.415   1.455  2.4628  1.4912 -0.4883
 3212SOL    HW219741   4.137   2.553   1.465 -1.1714 -0.6960 -0.3670
 3213SOL     OW19742   8.063   8.448   0.427 -0.0863  0.5999 -0.7471
 3213SOL    HW119743   8.112   8.509   0.489  0.0939  1.8753 -2.0916
 3213SOL    HW219744   7.967   8.478   0.420 -0.6111 -0.7619  0.4587
 3214SOL     OW19745   1.577   5.090   2.239  0.6604 -0.1773 -0.8128
 3214SOL    HW119746   1.613   5.176   2.205  0.6915 -0.3553 -1.2396
 3214SOL    HW219747   1.478   5.096   2.248  0.9375  0.9390  2.1645
 3215SOL     OW19748   1.101   9.245   1.254  0.3608 -0.2422 -0.3664
 3215SOL    HW119749   1.152   9.258   1.339 -0.0310  1.5311 -0.3715
 3215SOL    HW219750   1.003   9.256   1.272  0.3303  0.9772 -1.1752
 3216SOL     OW19751   1.096   4.508   2.354 -0.0238  0.1119  0.1477
 3216SOL    HW119752   1.059   4.601   2.359 -3.4253 -1.1361 -0.5518
 3216SOL    HW219753   1.064   4.456   2.433 -0.0815 -1.1256 -0.6897
 3217SOL     OW19754   8.026   9.796   1.920 -0.1028  0.1835  0.2458
 3217SOL    HW119755   8.118   9.777   1.885  0.3523  0.3158  1.3472
 3217SOL    HW219756   7.960   9.736   1.875  0.1152  1.9401 -2.5411
 3218SOL     OW19757   8.838   8.138   2.107  0.0168  0.2370  0.3148
 3218SOL    HW119758   8.739   8.150   2.114 -0.2103 -2.0821  1.5745
 3218SOL    HW219759   8.858   8.067   2.040  0.8687  1.1446 -0.4013
 3219SOL     OW19760   9.240   3.145   0.432  0.1859 -0.1007 -1.0083
 3219SOL    HW119761   9.316   3.080   0.424  1.1687  0.8483  0.3519
 3219SOL    HW219762   9.162   3.100   0.476  0.8593 -0.3868 -0.0840
 3220SOL     OW19763   0.900   8.594   0.765  0.6375  0.2187 -0.5934
 3220SOL    HW119764   0.906   8.588   0.865  0.0008 -0.7475 -0.6078
 3220SOL    HW219765   0.808   8.623   0.740  0.5010 -0.5010 -0.9326
 3221SOL     OW19766   1.727   4.163   0.232  0.6507 -0.2703 -0.1178
 3221SOL    HW119767   1.650   4.131   0.176  2.3027 -0.0918 -2.5652
 3221SOL    HW219768   1.771   4.084   0.276 -0.2929 -0.4720  0.4862
 3222SOL     OW19769   0.403   1.008   0.741  0.5783  0.8193 -0.0661
 3222SOL    HW119770   0.386   1.101   0.773  0.3984  0.6277  0.3962
 3222SOL    HW219771   0.348   0.943   0.794  1.2721  0.3792  0.1262
 3223SOL     OW19772   4.139   3.882   2.165  0.6412 -0.2464 -0.2658
 3223SOL    HW119773   4.098   3.830   2.090  2.4102 -1.0386 -0.7219
 3223SOL    HW219774   4.097   3.856   2.251  0.5432 -1.4085 -0.6631
 3224SOL     OW19775   0.376   0.419   0.296 -0.3404  0.2665  0.1793
 3224SOL    HW119776   0.443   0.489   0.271  0.2542 -0.1161  0.6915
 3224SOL    HW219777   0.285   0.462   0.303  0.1178  1.1229  1.0923
 3225SOL     OW19778   4.190   4.580   2.518  0.6464  0.3312  0.5417
 3225SOL    HW119779   4.148   4.665   2.484  1.0652 -0.4641 -2.0561
 3225SOL    HW219780   4.287   4.580   2.496  1.2666  0.4557  3.1594
 3226SOL     OW19781   3.347   5.206   0.055 -0.2151 -0.0829  0.1309
 3226SOL    HW119782   3.426   5.151   0.083  1.1599  0.4443 -2.5587
 3226SOL    HW219783   3.275   5.146   0.023  0.0652 -0.4465  0.1782
 3227SOL     OW19784   0.525   8.934   1.138 -0.3486 -0.2561 -0.0822
 3227SOL    HW119785   0.467   8.862   1.099  0.0842 -0.3211 -0.6074
 3227SOL    HW219786   0.530   9.011   1.074  0.4936 -0.4287 -0.2228
 3228SOL     OW19787   0.780   6.340   1.565 -0.3421  0.1364  0.4036
 3228SOL    HW119788   0.698   6.282   1.563 -1.2646  1.4237  0.7153
 3228SOL    HW219789   0.780   6.395   1.648  0.4250  0.7403  0.0030
 3229SOL     OW19790   0.776   2.636   2.292 -0.1450  0.1049 -0.4271
 3229SOL    HW119791   0.687   2.658   2.252 -0.3534 -1.7090 -1.0113
 3229SOL    HW219792   0.781   2.674   2.385 -0.3369  2.8388 -1.4665
 3230SOL     OW19793   0.991   9.428   1.016 -0.7184  0.3771  0.4339
 3230SOL    HW119794   0.979   9.490   1.093  0.0007  0.3125  0.5935
 3230SOL    HW219795   0.920   9.357   1.019 -1.8330  1.4382 -0.0051
 3231SOL     OW19796   2.881   5.098   0.292 -0.6916  0.0235 -0.0174
 3231SOL    HW119797   2.871   5.192   0.259 -1.1524 -0.0950 -0.2304
 3231SOL    HW219798   2.836   5.089   0.381 -0.6424  0.0061  0.0057
 3232SOL     OW19799   1.884   1.747   0.414 -0.3720 -0.5390  0.6946
 3232SOL    HW119800   1.806   1.773   0.471 -1.1333  0.6752 -0.8632
 3232SOL    HW219801   1.921   1.828   0.369  1.0005 -1.2993  0.4334
 3233SOL     OW19802   1.067   6.342   1.040 -0.0096  0.0301  0.0558
 3233SOL    HW119803   1.030   6.423   0.993 -0.2982 -0.1259  0.0104
 3233SOL    HW219804   0.994   6.276   1.054  0.2846 -0.3375 -0.1454
 3234SOL     OW19805   8.903   3.289   0.570  0.1686 -0.3493  0.7799
 3234SOL    HW119806   8.975   3.344   0.528  1.7990 -3.4817 -0.7100
 3234SOL    HW219807   8.923   3.277   0.667 -0.0226  1.3603  1.0424
 3235SOL     OW19808   0.650   5.276   0.467  0.0044 -0.1461  1.0851
 3235SOL    HW119809   0.597   5.191   0.461  0.3709 -0.2784 -0.7164
 3235SOL    HW219810   0.707   5.274   0.549  1.2343 -2.4118  0.2591
 3236SOL     OW19811   2.356   6.398   1.418  0.4845  0.9826  0.4549
 3236SOL    HW119812   2.260   6.391   1.391  0.4662  0.8823  0.5462
 3236SOL    HW219813   2.412   6.417   1.337  0.4417  0.5690  0.3272
 3237SOL     OW19814   8.941   4.177   2.433 -0.8308  0.5532  0.0873
 3237SOL    HW119815   8.978   4.266   2.459  1.8955  0.1500 -2.1400
 3237SOL    HW219816   8.948   4.166   2.334 -3.0520 -1.3162  0.1038
 3238SOL     OW19817   1.450   9.983   0.327 -0.0399 -0.0776 -0.0005
 3238SOL    HW119818   1.481  10.039   0.404  1.8950 -0.3802 -0.5260
 3238SOL    HW219819   1.426   9.892   0.360 -0.7484  0.2696  0.4667
 3239SOL     OW19820   2.685   7.040   0.578  0.4484  0.1805  0.1196
 3239SOL    HW119821   2.635   6.960   0.545 -0.9931  1.1169 -0.0371
 3239SOL    HW219822   2.738   7.015   0.659  1.3332 -1.3231 -0.8951
 3240SOL     OW19823   2.138   4.538   1.707  0.1559  0.1426 -0.1697
 3240SOL    HW119824   2.195   4.608   1.664  0.7867 -0.8492 -0.9927
 3240SOL    HW219825   2.049   4.535   1.661 -0.8616  2.2091  1.6116
 3241SOL     OW19826   2.475   6.482   1.760  0.3368 -0.6749  0.3778
 3241SOL    HW119827   2.465   6.568   1.710 -0.2452 -0.4305  0.8943
 3241SOL    HW219828   2.516   6.413   1.701  1.0260  0.0289  0.0381
 3242SOL     OW19829   2.342   3.344   2.263 -0.4580 -0.8353  0.5966
 3242SOL    HW119830   2.289   3.377   2.184 -0.8360  1.2974  1.7027
 3242SOL    HW219831   2.283   3.288   2.321 -0.6948 -0.8617  0.3343
 3243SOL     OW19832   0.947   8.618   0.239  0.4205  0.1399 -0.2844
 3243SOL    HW119833   0.959   8.700   0.184 -0.1839 -0.4364 -1.3059
 3243SOL    HW219834   1.036   8.584   0.270  0.5085  2.7576  2.5528
 3244SOL     OW19835   9.251   3.796   0.468 -0.2286 -0.0349  0.1195
 3244SOL    HW119836   9.241   3.828   0.374 -1.5172  1.2009  0.6741
 3244SOL    HW219837   9.208   3.860   0.531 -0.3351 -1.3929  1.4771
 3245SOL     OW19838   8.219   1.441   1.650  0.1813  0.8058 -0.9997
 3245SOL    HW119839   8.170   1.408   1.569 -1.6611 -0.1185  0.4497
 3245SOL    HW219840   8.193   1.386   1.729 -0.0066  3.2836  0.7271
 3246SOL     OW19841   3.229   2.144   1.196  0.6066 -0.0198 -0.3583
 3246SOL    HW119842   3.314   2.192   1.220  1.0924 -0.0865 -1.8411
 3246SOL    HW219843   3.251   2.062   1.143 -0.3606 -0.3882 -0.2025
 3247SOL     OW19844   9.436   7.657   2.039 -0.1941  0.3987  0.0678
 3247SOL    HW119845   9.401   7.695   2.126  1.9632 -0.2405  1.2448
 3247SOL    HW219846   9.389   7.572   2.019  0.8833 -0.6453  1.8287
 3248SOL     OW19847   2.345   9.074   0.498  0.3034 -0.0390  0.2291
 3248SOL    HW119848   2.400   9.023   0.432  1.5093 -1.1153  2.0266
 3248SOL    HW219849   2.267   9.115   0.451  1.7777  0.2366 -2.0798
 3249SOL     OW19850   0.025   1.223   0.321 -0.0273 -0.1304 -0.6196
 3249SOL    HW119851   0.119   1.217   0.289 -0.0389 -1.2726 -0.4488
 3249SOL    HW219852   0.021   1.285   0.400 -0.1476  3.4487 -3.3129
 3250SOL     OW19853   4.090   3.365   0.801  0.6872  0.0679  0.3222
 3250SOL    HW119854   4.186   3.341   0.818  0.7553  1.8083  2.6432
 3250SOL    HW219855   4.038   3.355   0.886 -1.3865 -1.6068 -1.0936
 3251SOL     OW19856   3.160   2.642   0.339 -0.5714 -0.4226 -0.0344
 3251SOL    HW119857   3.134   2.549   0.314 -0.1774 -0.9003  1.2979
 3251SOL    HW219858   3.257   2.656   0.320 -0.5331 -0.4173  0.1679
 3252SOL     OW19859   0.846   9.805   0.092  0.2765 -0.3327 -0.2567
 3252SOL    HW119860   0.809   9.770   0.179 -1.4037 -1.4760 -1.4012
 3252SOL    HW219861   0.936   9.765   0.076 -0.0265 -1.2509  0.2714
 3253SOL     OW19862   4.560   3.163   2.445  0.1511 -0.2989  0.5551
 3253SOL    HW119863   4.567   3.099   2.521  1.6970 -1.5992 -0.6459
 3253SOL    HW219864   4.635   3.228   2.449 -1.0800  1.1038  1.4338
 3254SOL     OW19865   9.311   5.942   1.707  0.7618  0.5365 -0.0068
 3254SOL    HW119866   9.243   5.914   1.775  0.4385 -1.0246 -0.9724
 3254SOL    HW219867   9.399   5.957   1.753  0.4620 -0.1578  0.8127
 3255SOL     OW19868   9.554   1.012   0.054 -0.0316  0.6667 -0.7786
 3255SOL    HW119869   9.512   1.075   0.119  0.7511  1.8910 -1.4501
 3255SOL    HW219870   9.625   0.958   0.101 -1.6961 -0.7882  0.1426
 3256SOL     OW19871   4.115   1.699   0.040  0.7079 -0.0994  0.3151
 3256SOL    HW119872   4.092   1.750  -0.043  1.7248  0.8033  0.5771
 3256SOL    HW219873   4.193   1.639   0.021 -0.2094 -1.2604  0.1274
 3257SOL     OW19874   1.372   7.571   2.372  0.1869  0.5958 -0.1358
 3257SOL    HW119875   1.434   7.542   2.299  2.2869  2.1613  0.9931
 3257SOL    HW219876   1.278   7.571   2.337  1.0760  0.7171 -2.6385
 3258SOL     OW19877   4.163   5.059   1.609  0.1487 -0.0446 -0.9652
 3258SOL    HW119878   4.118   5.070   1.520 -0.1576  2.3326 -0.5476
 3258SOL    HW219879   4.261   5.047   1.596  0.1865  0.9203 -1.6030
 3259SOL     OW19880   9.851   2.657   2.531 -0.6527 -0.0931 -0.8776
 3259SOL    HW119881   9.870   2.639   2.627 -1.7666 -2.0206 -0.9917
 3259SOL    HW219882   9.920   2.718   2.494  0.5936 -0.4796  0.7754
 3260SOL     OW19883   8.881   8.663   0.934  0.1421 -0.1361  0.0438
 3260SOL    HW119884   8.980   8.652   0.929  0.1808 -0.5380  1.6192
 3260SOL    HW219885   8.855   8.694   1.025 -1.1305  0.5793 -0.5543
 3261SOL     OW19886   2.194   4.400   1.182  0.0014 -0.2434  0.2096
 3261SOL    HW119887   2.122   4.370   1.119 -0.1457  0.9623 -0.2026
 3261SOL    HW219888   2.276   4.345   1.167 -0.6341 -1.2338  0.2794
 3262SOL     OW19889   1.509   8.553   2.556 -0.0444 -0.3088 -0.7371
 3262SOL    HW119890   1.490   8.471   2.610  0.0006 -0.1347 -0.4525
 3262SOL    HW219891   1.596   8.542   2.508  1.7335  0.9434  2.0497
 3263SOL     OW19892   9.444   0.328   1.520  0.1482 -0.1726 -0.1800
 3263SOL    HW119893   9.378   0.387   1.472  0.3754  0.9434  0.8415
 3263SOL    HW219894   9.479   0.259   1.457  0.6950  1.4595 -1.7189
 3264SOL     OW19895   1.147   5.345   0.477  0.6208 -0.4312 -0.4369
 3264SOL    HW119896   1.087   5.421   0.504  1.6508  0.5441 -0.8403
 3264SOL    HW219897   1.132   5.324   0.380  0.1108 -0.9473 -0.2436
 3265SOL     OW19898   7.918   9.029   0.183 -0.6313  0.4406  0.2582
 3265SOL    HW119899   7.837   8.973   0.202  0.5930 -1.0118  1.3222
 3265SOL    HW219900   7.894   9.126   0.188 -2.3448  0.0350  0.3131
 3266SOL     OW19901   7.530   9.431   1.937 -0.7323 -0.4071  0.4093
 3266SOL    HW119902   7.502   9.505   1.875 -1.7593  1.4863  3.0725
 3266SOL    HW219903   7.624   9.445   1.966 -0.5195 -0.8462 -0.0569
 3267SOL     OW19904   9.006   7.833   1.458  0.1209 -0.0698 -0.3274
 3267SOL    HW119905   8.938   7.761   1.475 -1.8158  1.5926 -0.7781
 3267SOL    HW219906   9.045   7.864   1.545 -1.1111  0.2663  0.1214
 3268SOL     OW19907   2.919   0.265   2.432  0.1984  0.0158 -0.0533
 3268SOL    HW119908   2.976   0.348   2.431 -0.8095  0.7509 -2.8782
 3268SOL    HW219909   2.973   0.188   2.397  0.1223  0.2362 -0.6632
 3269SOL     OW19910   8.765   3.948   1.283 -0.0413 -0.2554  0.0238
 3269SOL    HW119911   8.801   3.860   1.314 -0.8141 -0.4070  0.5184
 3269SOL    HW219912   8.755   3.947   1.184 -0.1467 -0.7654  0.0368
 3270SOL     OW19913   9.235   9.481   1.869  0.1166  0.6281  0.2393
 3270SOL    HW119914   9.311   9.478   1.934 -0.4978 -0.8834  0.9121
 3270SOL    HW219915   9.156   9.524   1.912 -0.0438  0.3410  0.2351
 3271SOL     OW19916   4.379   9.240   2.067 -0.3479  0.3664  0.2909
 3271SOL    HW119917   4.426   9.328   2.076 -0.8768  0.6322  0.4616
 3271SOL    HW219918   4.380   9.212   1.971  0.6173  0.1145  0.3711
 3272SOL     OW19919   4.296   4.399   1.049 -0.9450  0.1212  0.3678
 3272SOL    HW119920   4.355   4.469   1.089 -1.6272  0.4678  0.7654
 3272SOL    HW219921   4.219   4.442   1.002 -0.3415 -0.2904 -1.0520
 3273SOL     OW19922   9.134   9.292   0.027  0.4065 -0.0244 -0.3964
 3273SOL    HW119923   9.065   9.222   0.007  0.4816 -0.4178  0.6727
 3273SOL    HW219924   9.088   9.376   0.054  0.3221  0.1871 -1.2036
 3274SOL     OW19925   8.723   6.488   0.037  0.6075  0.0453  0.1555
 3274SOL    HW119926   8.709   6.405   0.090  0.3924  0.3625  0.5971
 3274SOL    HW219927   8.812   6.529   0.060  1.2376 -0.6859 -0.9145
 3275SOL     OW19928   8.576   2.298   1.710 -0.6442 -0.0767  0.5846
 3275SOL    HW119929   8.503   2.355   1.671  1.1325  2.1392  0.3998
 3275SOL    HW219930   8.597   2.223   1.647 -0.7581  0.9707 -0.7118
 3276SOL     OW19931   0.602   0.108   0.511  0.3514 -0.1038 -0.0028
 3276SOL    HW119932   0.656   0.189   0.535  0.7110  0.1797 -1.7186
 3276SOL    HW219933   0.511   0.137   0.482  0.4347 -0.3248 -0.4813
 3277SOL     OW19934   1.333   8.199   0.555 -0.0878 -0.3429 -0.4282
 3277SOL    HW119935   1.393   8.137   0.506  0.8644  1.1894 -1.2604
 3277SOL    HW219936   1.378   8.288   0.566 -0.4935 -0.4730  2.7764
 3278SOL     OW19937   9.586   8.585   0.255 -0.2644 -0.5060 -0.4314
 3278SOL    HW119938   9.612   8.490   0.275 -0.6835 -0.6953 -0.7634
 3278SOL    HW219939   9.569   8.595   0.157  0.0374 -0.0217 -0.4336
 3279SOL     OW19940   3.156   2.686   2.071  0.0419  0.0116 -0.0108
 3279SOL    HW119941   3.197   2.660   1.984 -1.2910 -0.1535 -0.5971
 3279SOL    HW219942   3.118   2.778   2.064  1.3595  0.6556  0.9058
 3280SOL     OW19943   3.006   3.864   1.699  0.0689 -0.1109  0.6327
 3280SOL    HW119944   3.027   3.768   1.717 -0.9694 -0.6009 -0.7546
 3280SOL    HW219945   2.944   3.872   1.621  2.4726  1.8462 -1.1656
 3281SOL     OW19946   0.296   3.859   2.484 -0.4278  0.6388 -0.3693
 3281SOL    HW119947   0.218   3.914   2.514 -0.8591  0.3719 -0.9933
 3281SOL    HW219948   0.304   3.866   2.385  0.7703  1.2322 -0.2350
 3282SOL     OW19949   4.121   9.480   0.200  0.6607  0.1894  0.0928
 3282SOL    HW119950   4.184   9.405   0.222  0.2545 -0.0101  0.5891
 3282SOL    HW219951   4.086   9.468   0.107  0.9298 -0.0022  0.0151
 3283SOL     OW19952   3.241   5.096   0.545  0.6070  0.4182 -0.2970
 3283SOL    HW119953   3.221   5.061   0.453 -2.1640  0.9051  0.0726
 3283SOL    HW219954   3.267   5.193   0.538 -0.4322  0.6907 -0.5162
 3284SOL     OW19955   0.533   9.452   1.052 -0.0427 -0.2349 -0.7507
 3284SOL    HW119956   0.554   9.549   1.042 -1.5052  0.3130  1.1846
 3284SOL    HW219957   0.462   9.427   0.987 -0.6718  0.3452 -0.2955
 3285SOL     OW19958   1.152   7.871   0.237  0.2153  0.6613  0.0174
 3285SOL    HW119959   1.134   7.909   0.327 -2.1806 -0.7956  0.1995
 3285SOL    HW219960   1.137   7.942   0.167  2.4892  1.9038  0.7528
 3286SOL     OW19961   8.254   0.477   2.292 -0.5979 -0.0824  0.3680
 3286SOL    HW119962   8.308   0.394   2.279  1.5883  1.5385 -1.4481
 3286SOL    HW219963   8.237   0.491   2.390  0.9091 -1.5038  0.8501
 3287SOL     OW19964   2.032   5.003   2.508 -0.3206  0.2496 -0.2165
 3287SOL    HW119965   1.964   4.930   2.510  0.8277 -0.9158 -1.8139
 3287SOL    HW219966   1.993   5.084   2.464 -1.0978  0.0521  0.0969
 3288SOL     OW19967   1.496   4.767   0.277  0.1933 -0.3441 -0.0923
 3288SOL    HW119968   1.522   4.701   0.206 -3.4918 -0.6565 -1.2372
 3288SOL    HW219969   1.446   4.842   0.235  1.3741  1.5048  1.7002
 3289SOL     OW19970   1.241   2.665   2.388  0.2262  0.0661 -0.0914
 3289SOL    HW119971   1.333   2.697   2.365 -0.3379  1.0735 -1.0415
 3289SOL    HW219972   1.182   2.673   2.307 -0.4133 -1.6306  0.1959
 3290SOL     OW19973   2.809   8.196   2.164  0.1030  0.2524  0.1660
 3290SOL    HW119974   2.774   8.120   2.218 -1.5825  1.0081  0.1669
 3290SOL    HW219975   2.894   8.229   2.205  0.2871 -0.9274  0.7754
 3291SOL     OW19976   2.818   6.907   1.876  0.3746 -0.1836 -0.2923
 3291SOL    HW119977   2.731   6.868   1.904 -0.5798  1.3996 -1.0251
 3291SOL    HW219978   2.884   6.898   1.951 -0.2267 -1.9191  0.0391
 3292SOL     OW19979   3.972   8.469   0.569 -0.1350  0.0491 -0.2168
 3292SOL    HW119980   3.956   8.392   0.508 -1.0951  0.2840 -0.2614
 3292SOL    HW219981   3.886   8.499   0.609  0.5034 -0.2850  1.4701
 3293SOL     OW19982   2.377   4.974   2.313 -0.1534  0.1258  0.3954
 3293SOL    HW119983   2.374   5.074   2.313 -0.9601  0.1047  0.9510
 3293SOL    HW219984   2.360   4.941   2.406  0.6395 -0.5124  0.3147
 3294SOL     OW19985   1.470   0.875   2.300  0.0654 -0.6809 -0.2371
 3294SOL    HW119986   1.410   0.820   2.358  0.5017 -0.2093  0.6687
 3294SOL    HW219987   1.428   0.886   2.210 -1.8573  0.8201  0.8064
 3295SOL     OW19988   9.618   0.603   1.157  0.5511  0.2355 -0.0661
 3295SOL    HW119989   9.644   0.594   1.253  0.6489 -1.1970 -0.2162
 3295SOL    HW219990   9.686   0.557   1.100 -0.2855 -0.2023 -0.7158
 3296SOL     OW19991   0.850   5.287   0.251 -0.1382  0.3692  0.0501
 3296SOL    HW119992   0.828   5.375   0.208 -0.8849  0.1106 -0.0952
 3296SOL    HW219993   0.807   5.283   0.341  0.1914  0.2935  0.2060
 3297SOL     OW19994   2.591   2.298   0.048  0.8180 -0.4749  0.1849
 3297SOL    HW119995   2.609   2.365  -0.024 -1.4986  0.2369  0.2347
 3297SOL    HW219996   2.567   2.210   0.007 -3.0517  0.5982 -0.0192
 3298SOL     OW19997   3.436   4.653   0.467 -0.3419  0.6255  0.1216
 3298SOL    HW119998   3.463   4.557   0.464 -0.7278  0.4629  1.5195
 3298SOL    HW219999   3.508   4.706   0.512 -0.8521  0.7239  0.8326
 3299SOL     OW20000   0.168   5.296   0.374 -0.0093 -0.4348  0.5985
 3299SOL    HW120001   0.194   5.275   0.280 -2.8425  1.1787 -0.6202
 3299SOL    HW220002   0.191   5.392   0.393 -0.2915 -0.4933  1.2288
 3300SOL     OW20003   2.239   4.541   0.134  0.1296  0.1779  0.1277
 3300SOL    HW120004   2.328   4.509   0.104  0.8017 -0.3598  2.5920
 3300SOL    HW220005   2.244   4.572   0.229 -2.2269  0.4870  0.1955
 3301SOL     OW20006   2.022   0.737   2.085 -0.2699  0.0926 -0.0359
 3301SOL    HW120007   2.117   0.756   2.109  0.0207 -2.4752  0.9260
 3301SOL    HW220008   1.962   0.773   2.157  0.0062  0.9990 -0.2506
 3302SOL     OW20009   3.211   1.082   1.919  0.6851  0.2608 -0.1738
 3302SOL    HW120010   3.288   1.112   1.975  0.8013  0.3046 -0.3566
 3302SOL    HW220011   3.233   1.096   1.822  1.3616 -1.8196 -0.3556
 3303SOL     OW20012   4.710   1.936   1.203 -0.3663 -0.3950  0.1046
 3303SOL    HW120013   4.777   1.870   1.234  0.2824  0.8694  1.4494
 3303SOL    HW220014   4.698   1.928   1.104  1.6180 -0.7803 -0.1251
 3304SOL     OW20015   4.321   1.284   0.633 -0.2292 -0.7102  0.3083
 3304SOL    HW120016   4.305   1.369   0.583 -1.0429 -1.8705 -1.4855
 3304SOL    HW220017   4.264   1.281   0.715  1.0811  1.2096  1.3089
 3305SOL     OW20018   1.148   0.220   1.176  0.2396 -0.0449  0.3587
 3305SOL    HW120019   1.061   0.211   1.127 -1.8483  0.5899  3.8387
 3305SOL    HW220020   1.210   0.278   1.122 -1.7131  0.0840 -1.8384
 3306SOL     OW20021   0.191   9.816   1.915  0.1236 -0.5732 -0.4641
 3306SOL    HW120022   0.161   9.855   2.002 -0.5465 -1.8775 -0.0921
 3306SOL    HW220023   0.247   9.882   1.866 -1.1099  0.8897  0.0706
 3307SOL     OW20024   2.727   9.078   0.077  0.6543  0.1368 -0.0258
 3307SOL    HW120025   2.823   9.049   0.072  0.4939 -0.2870 -0.7015
 3307SOL    HW220026   2.722   9.178   0.076  1.0641  0.1567 -0.6159
 3308SOL     OW20027   2.366   8.371   2.402 -0.1293  0.5102  0.5558
 3308SOL    HW120028   2.383   8.387   2.305 -0.6265  0.1156  0.3995
 3308SOL    HW220029   2.397   8.279   2.426  0.6837  0.8802  0.9438
 3309SOL     OW20030   9.277   0.443   0.275 -0.1249 -0.1790 -0.3638
 3309SOL    HW120031   9.228   0.505   0.336 -0.7973 -1.3484  0.2819
 3309SOL    HW220032   9.226   0.434   0.189  0.9348  1.6393 -1.2045
 3310SOL     OW20033   2.715   0.320   1.835  0.7387 -0.4094 -1.0081
 3310SOL    HW120034   2.752   0.412   1.845  0.5710 -0.7183  3.1834
 3310SOL    HW220035   2.615   0.323   1.841  0.8134 -1.0093  0.8757
 3311SOL     OW20036   2.857   3.379   1.930 -0.0874  0.5556  0.2530
 3311SOL    HW120037   2.870   3.398   2.027 -4.3677  0.9199  0.8477
 3311SOL    HW220038   2.851   3.465   1.880  0.6837  0.3894 -0.1286
 3312SOL     OW20039   0.698   6.593   0.890  0.6983 -0.1601  0.0138
 3312SOL    HW120040   0.775   6.582   0.952  2.0148  0.1711 -1.5139
 3312SOL    HW220041   0.730   6.635   0.805 -0.9962 -0.8887 -1.0123
 3313SOL     OW20042   8.759   7.106   2.396  0.1192  0.3323  0.1808
 3313SOL    HW120043   8.720   7.023   2.356  1.7501 -0.2272 -0.3279
 3313SOL    HW220044   8.856   7.112   2.370  0.2616  1.8835  1.0312
 3314SOL     OW20045   2.583   5.491   0.614 -0.5717  0.0300 -0.3502
 3314SOL    HW120046   2.555   5.422   0.548 -1.5468  0.4538 -0.3854
 3314SOL    HW220047   2.619   5.571   0.565  0.1764 -0.2827 -0.3198
 3315SOL     OW20048   2.360   8.548   2.112  0.5021 -0.3701  0.7327
 3315SOL    HW120049   2.266   8.521   2.134  0.1436  0.7310  0.5388
 3315SOL    HW220050   2.413   8.466   2.089 -0.7668 -0.8713 -0.5153
 3316SOL     OW20051   3.528   5.042   0.408 -0.0505 -0.3582 -0.4246
 3316SOL    HW120052   3.446   5.089   0.440 -1.1658 -0.5835 -2.7947
 3316SOL    HW220053   3.537   4.954   0.454 -0.1407  0.4539  1.1529
 3317SOL     OW20054   9.606   8.035   0.430 -0.3031  0.0330 -0.1048
 3317SOL    HW120055   9.521   8.002   0.471 -1.2026 -0.0663 -1.9911
 3317SOL    HW220056   9.667   7.958   0.411 -0.4110 -0.0426 -0.1395
 3318SOL     OW20057   9.663   7.010   2.028 -0.0282  0.1778 -0.0176
 3318SOL    HW120058   9.690   6.928   1.978  0.5736  0.4855 -0.1900
 3318SOL    HW220059   9.579   6.991   2.080  1.3365 -1.2331  1.7522
 3319SOL     OW20060   9.235   2.850   2.472 -0.3050 -0.7235 -0.6273
 3319SOL    HW120061   9.194   2.772   2.521 -0.7653  0.0699  0.2608
 3319SOL    HW220062   9.306   2.890   2.529 -0.1359 -0.4254 -1.0489
 3320SOL     OW20063   2.236   1.988   1.495  0.2303  0.4099  0.3170
 3320SOL    HW120064   2.270   1.941   1.413  0.1998 -1.2400  1.2294
 3320SOL    HW220065   2.152   2.038   1.472  1.1762  1.3774 -1.0549
 3321SOL     OW20066   2.087   0.273   1.504 -0.2340  0.0820  0.4058
 3321SOL    HW120067   2.079   0.173   1.510 -2.6269  0.1169 -1.6704
 3321SOL    HW220068   2.124   0.308   1.591  2.8798 -2.7766  0.3798
 3322SOL     OW20069   3.977   0.722   2.185  0.0742 -0.0133  0.1861
 3322SOL    HW120070   4.023   0.741   2.098 -0.2876 -1.8085 -0.4234
 3322SOL    HW220071   4.011   0.783   2.255  2.9236 -0.8618 -0.4107
 3323SOL     OW20072   1.584   6.003   1.646 -0.0292  1.0701  0.0444
 3323SOL    HW120073   1.631   5.917   1.664  0.0020  1.0516 -0.1283
 3323SOL    HW220074   1.545   6.038   1.731 -0.1838  0.8025  0.0837
 3324SOL     OW20075   9.441   8.731   1.113 -0.3943 -0.1466 -0.3266
 3324SOL    HW120076   9.526   8.781   1.132 -0.5765  0.3972 -0.8950
 3324SOL    HW220077   9.460   8.653   1.054  0.1543 -1.7795  1.9452
 3325SOL     OW20078   8.003   0.748   0.156  0.2018  0.6547 -0.1858
 3325SOL    HW120079   7.970   0.712   0.069  1.6155 -1.5786  0.1437
 3325SOL    HW220080   8.103   0.741   0.159  0.1880  0.9565  1.4862
 3326SOL     OW20081   2.580   8.260   0.834 -0.0671 -0.0183 -0.2959
 3326SOL    HW120082   2.539   8.173   0.805 -0.0997 -1.0612  2.6593
 3326SOL    HW220083   2.678   8.246   0.852  0.1358  0.8015 -0.7726
 3327SOL     OW20084   4.046   5.129   1.378  0.5463  0.4853  0.2493
 3327SOL    HW120085   4.056   5.084   1.290  0.5426  1.3226 -0.1839
 3327SOL    HW220086   3.966   5.189   1.376  0.3460  0.2470  0.9335
 3328SOL     OW20087   0.733   3.959   0.314  0.0257  0.2537 -0.1836
 3328SOL    HW120088   0.761   3.919   0.401 -0.8411  0.2296  0.0869
 3328SOL    HW220089   0.806   4.017   0.279  0.6163 -0.2151  0.2593
 3329SOL     OW20090   3.652   8.306   0.390  0.3361 -0.1434 -0.2155
 3329SOL    HW120091   3.562   8.286   0.428 -0.4298  2.9786 -0.3089
 3329SOL    HW220092   3.654   8.279   0.293 -1.1006  1.4549 -0.6931
 3330SOL     OW20093   2.154   0.368   1.750  0.0331 -0.4304 -0.7101
 3330SOL    HW120094   2.166   0.453   1.802 -0.8181 -0.3929 -0.5718
 3330SOL    HW220095   2.072   0.321   1.782 -0.6271 -0.2925 -2.1890
 3331SOL     OW20096   0.686   1.358   2.368  0.0804  0.3962 -0.2572
 3331SOL    HW120097   0.781   1.372   2.341 -0.6360  1.1605 -2.4044
 3331SOL    HW220098   0.626   1.416   2.314 -1.7322 -0.9704  0.2317
 3332SOL     OW20099   9.248   3.767   0.972 -0.0215 -0.0024  0.3134
 3332SOL    HW120100   9.241   3.866   0.987  0.4295  0.3297 -1.4423
 3332SOL    HW220101   9.168   3.735   0.922 -0.7107 -0.7451  1.8844
 3333SOL     OW20102   2.137   9.770   0.340 -0.0695 -0.0818 -0.0165
 3333SOL    HW120103   2.169   9.688   0.386  1.6259  1.2792  1.2868
 3333SOL    HW220104   2.048   9.752   0.297  0.2285 -2.5306  0.3531
 3334SOL     OW20105   8.545   2.020   0.019  0.5969 -0.3554 -0.1174
 3334SOL    HW120106   8.486   2.000  -0.060  0.8890 -1.1369 -0.1400
 3334SOL    HW220107   8.618   2.081  -0.009 -0.9285  1.6560  0.1983
 3335SOL     OW20108   9.773   2.455   2.344 -0.1131 -0.1467 -0.1123
 3335SOL    HW120109   9.756   2.527   2.276  1.4899 -0.6676 -1.0853
 3335SOL    HW220110   9.806   2.497   2.429  2.8337  0.2009 -1.3437
 3336SOL     OW20111   1.313   1.562   0.564 -0.1757  0.1495  0.1425
 3336SOL    HW120112   1.225   1.518   0.548  0.4333 -0.9957 -0.1766
 3336SOL    HW220113   1.343   1.608   0.480 -0.6543  0.8991  0.3754
 3337SOL     OW20114   2.953   1.118   0.869  0.3839  0.2545 -0.3321
 3337SOL    HW120115   3.032   1.179   0.874 -0.2478  1.1543 -1.1203
 3337SOL    HW220116   2.872   1.165   0.904 -0.3347  0.2650 -1.9785
 3338SOL     OW20117   9.160   4.174   0.846 -0.2712 -0.1664  0.1770
 3338SOL    HW120118   9.188   4.179   0.941  0.5168  0.8912 -0.1036
 3338SOL    HW220119   9.147   4.266   0.810  2.4400 -0.4176 -1.6103
 3339SOL     OW20120   4.046   8.920   0.456 -0.2799  0.6446  0.4313
 3339SOL    HW120121   4.076   8.974   0.376 -1.5324  0.5759 -0.1081
 3339SOL    HW220122   4.122   8.909   0.519  0.6104  1.1216 -0.5303
 3340SOL     OW20123   1.439   6.718   1.059 -0.5657  0.1986 -0.0061
 3340SOL    HW120124   1.525   6.709   1.109 -1.3581  0.6627  1.4752
 3340SOL    HW220125   1.448   6.789   0.989  0.3623  0.0073 -0.0832
 3341SOL     OW20126   8.692   2.495   2.571 -0.0057 -0.1715 -0.2927
 3341SOL    HW120127   8.780   2.541   2.581 -0.1910 -0.0351  0.7614
 3341SOL    HW220128   8.620   2.551   2.611 -0.5158 -0.4822 -0.7653
 3342SOL     OW20129   2.049   9.757   1.087  0.1852  0.3072 -0.0938
 3342SOL    HW120130   2.015   9.840   1.044 -0.6267  0.1043  0.1441
 3342SOL    HW220131   1.983   9.725   1.155  0.8144 -0.1443  0.3141
 3343SOL     OW20132   3.271   0.362   1.483 -1.3509 -0.2502 -0.0136
 3343SOL    HW120133   3.277   0.443   1.425  2.3955 -0.7743 -0.4555
 3343SOL    HW220134   3.268   0.391   1.579  1.0686  0.4350 -0.1132
 3344SOL     OW20135   1.374   5.479   2.413 -0.2601 -0.1328  0.4565
 3344SOL    HW120136   1.423   5.409   2.466 -0.0826  0.6344  1.3213
 3344SOL    HW220137   1.295   5.511   2.466 -0.3668  0.2788  0.0449
 3345SOL     OW20138   8.216   0.497   1.364 -0.5232  0.2309  0.5466
 3345SOL    HW120139   8.310   0.476   1.394  0.1136 -1.3575 -2.4262
 3345SOL    HW220140   8.151   0.459   1.430  0.8902 -0.3701  1.6126
 3346SOL     OW20141   0.844   9.859   2.180  0.5927 -0.4248  0.3897
 3346SOL    HW120142   0.874   9.953   2.191  0.2133 -0.3985  1.2659
 3346SOL    HW220143   0.813   9.844   2.086 -1.3579  0.9219  0.7879
 3347SOL     OW20144   9.960   0.830   2.135 -0.2448 -0.0562 -0.0170
 3347SOL    HW120145  10.056   0.815   2.159 -0.3941 -0.3796  0.3894
 3347SOL    HW220146   9.952   0.856   2.039  0.1388 -1.1379 -0.3364
 3348SOL     OW20147   9.171   8.205   1.720  0.1219  0.1724  0.2519
 3348SOL    HW120148   9.222   8.164   1.796 -0.2413  0.4082  0.6202
 3348SOL    HW220149   9.211   8.293   1.696 -0.0079  0.2772  0.4261
 3349SOL     OW20150   8.491   0.828   1.467 -0.3739  0.0753  0.5442
 3349SOL    HW120151   8.566   0.766   1.446  0.1821  0.6636  0.7701
 3349SOL    HW220152   8.425   0.782   1.526 -0.4316 -0.5981 -0.0385
 3350SOL     OW20153   8.617   1.104   1.479 -0.1045  0.0740 -0.1535
 3350SOL    HW120154   8.586   1.009   1.475 -0.5799  0.2483 -0.8575
 3350SOL    HW220155   8.559   1.155   1.542 -1.2553  0.3916 -1.4420
 3351SOL     OW20156   3.728   2.414   0.318 -0.8049 -0.1533  0.0061
 3351SOL    HW120157   3.713   2.497   0.265  0.3295  0.5946  0.8207
 3351SOL    HW220158   3.821   2.414   0.355 -1.5365 -0.6590  1.9425
 3352SOL     OW20159   9.189   9.743   0.722  0.1071  0.2463 -0.0466
 3352SOL    HW120160   9.168   9.757   0.819 -0.8731  0.8123 -0.3462
 3352SOL    HW220161   9.286   9.718   0.713  0.4769  1.2470  0.9864
 3353SOL     OW20162   9.073   7.037   0.109 -0.0222  0.1751 -0.4632
 3353SOL    HW120163   9.042   6.986   0.189  1.2573  2.1834  1.3522
 3353SOL    HW220164   9.006   7.107   0.086 -0.4595 -0.4949 -1.2770
 3354SOL     OW20165   9.362   1.338   0.590  0.0951 -0.4267  0.0883
 3354SOL    HW120166   9.388   1.365   0.683 -1.2160  2.5875 -0.3647
 3354SOL    HW220167   9.433   1.369   0.526  0.0938 -0.8324 -0.1081
 3355SOL     OW20168   1.422   4.360   2.093  0.1766  0.2803  0.1766
 3355SOL    HW120169   1.409   4.349   2.192 -0.3208 -0.9189 -0.0128
 3355SOL    HW220170   1.333   4.357   2.047  0.5415 -1.1698 -0.4819
 3356SOL     OW20171   3.622   3.068   1.741  0.2711  0.4841 -0.2321
 3356SOL    HW120172   3.642   3.109   1.652 -0.0538  2.1984  0.4470
 3356SOL    HW220173   3.614   3.141   1.809  1.6110 -0.8702  1.4156
 3357SOL     OW20174   9.426   9.589   0.950  0.1537 -0.0679 -0.2517
 3357SOL    HW120175   9.342   9.559   0.905  0.6836 -1.1378 -0.5437
 3357SOL    HW220176   9.416   9.684   0.979 -1.1624 -0.1926 -0.2641
 3358SOL     OW20177   0.583   9.619   2.145 -0.2839 -0.1291 -0.1998
 3358SOL    HW120178   0.658   9.651   2.088  0.8247 -0.3588  1.1049
 3358SOL    HW220179   0.594   9.522   2.163 -1.0605 -0.2280 -0.2367
 3359SOL     OW20180   9.522   9.839   1.254 -0.4098 -0.2521 -0.5838
 3359SOL    HW120181   9.496   9.742   1.258  0.7549 -0.5449  0.3318
 3359SOL    HW220182   9.621   9.846   1.252 -0.4922  0.9296 -0.5292
 3360SOL     OW20183   1.182   7.665   1.769  0.3229 -0.1676 -0.1578
 3360SOL    HW120184   1.206   7.761   1.756 -0.0271  0.0409  0.7560
 3360SOL    HW220185   1.143   7.652   1.860  2.3156 -1.5375  0.5477
 3361SOL     OW20186   9.333   0.502   1.247 -0.2531 -0.2169  0.3633
 3361SOL    HW120187   9.427   0.514   1.215 -0.7976  1.3233 -0.7467
 3361SOL    HW220188   9.270   0.535   1.176 -1.6435 -1.7085  0.8793
 3362SOL     OW20189   2.998   8.313   0.166 -0.3167 -0.4165  0.0816
 3362SOL    HW120190   2.955   8.317   0.256  1.8152 -0.2768  1.1315
 3362SOL    HW220191   2.928   8.299   0.096 -1.9531 -1.0356  1.7990
 3363SOL     OW20192   1.146   4.112   0.708 -0.2616 -0.2646 -1.1201
 3363SOL    HW120193   1.209   4.063   0.769  1.4165  1.3551 -1.5105
 3363SOL    HW220194   1.052   4.101   0.741  0.1892 -2.7589 -0.5531
 3364SOL     OW20195   1.747   8.236   0.752  0.8000  0.0088  0.1886
 3364SOL    HW120196   1.781   8.229   0.658 -0.8128 -0.4878 -0.3720
 3364SOL    HW220197   1.695   8.153   0.775 -2.7590  2.0743 -0.0918
 3365SOL     OW20198   9.794   4.796   0.933 -0.0000  0.3174 -0.2333
 3365SOL    HW120199   9.834   4.752   1.013  0.3687  2.6304  0.8734
 3365SOL    HW220200   9.702   4.758   0.917  0.6772 -1.5083  0.1172
 3366SOL     OW20201   0.658   2.588   1.592 -0.2212 -0.0885 -0.2308
 3366SOL    HW120202   0.619   2.623   1.677 -0.2647  0.0072 -0.2901
 3366SOL    HW220203   0.754   2.567   1.605  0.2195  1.5916 -0.6479
 3367SOL     OW20204   3.461   8.580   1.988 -0.1136  0.2698  0.1017
 3367SOL    HW120205   3.489   8.552   1.897 -0.9345  2.1647 -0.7489
 3367SOL    HW220206   3.435   8.499   2.041  0.1644 -0.8224 -1.4096
 3368SOL     OW20207   8.624   7.587   1.022 -0.0525  0.4597  0.4063
 3368SOL    HW120208   8.530   7.606   1.050 -1.0352 -0.3138 -2.2699
 3368SOL    HW220209   8.668   7.671   0.992 -0.5618  0.4990 -0.2470
 3369SOL     OW20210   2.694   5.437   1.523  0.2729 -0.0824 -0.5279
 3369SOL    HW120211   2.622   5.436   1.593 -1.2192  0.9746 -1.9968
 3369SOL    HW220212   2.765   5.503   1.549  0.1155 -0.2465  0.3462
 3370SOL     OW20213   3.633   4.357   2.169 -0.8239 -0.0258 -0.3716
 3370SOL    HW120214   3.631   4.456   2.182 -2.0372  0.0213 -0.7944
 3370SOL    HW220215   3.721   4.321   2.198 -1.2222  0.8741  2.0541
 3371SOL     OW20216   0.657   4.707   0.312 -0.2101  0.3862 -0.1098
 3371SOL    HW120217   0.608   4.668   0.389 -0.2304 -0.4704 -0.5449
 3371SOL    HW220218   0.611   4.681   0.227 -0.2799  1.4491 -0.4032
 3372SOL     OW20219   4.206   3.862   0.539  0.3316  0.1104 -0.1988
 3372SOL    HW120220   4.143   3.916   0.595  0.7338 -0.1633  0.5311
 3372SOL    HW220221   4.165   3.846   0.449 -0.4241  0.3661  0.0937
 3373SOL     OW20222   0.040   4.171   1.171  0.1217  1.0816  0.9858
 3373SOL    HW120223  -0.026   4.161   1.245 -0.9180 -0.1986 -0.0894
 3373SOL    HW220224   0.046   4.085   1.121 -0.1551  2.3277 -1.2318
 3374SOL     OW20225   0.381   3.321   0.350 -0.0547 -0.2515  0.0037
 3374SOL    HW120226   0.385   3.262   0.270 -0.6974  0.4353 -0.5441
 3374SOL    HW220227   0.437   3.403   0.335 -0.9112  0.3257 -0.1351
 3375SOL     OW20228   9.789   7.185   2.213 -0.1703 -0.2282  0.4077
 3375SOL    HW120229   9.738   7.155   2.132 -0.5110  0.7088  0.2646
 3375SOL    HW220230   9.887   7.187   2.193 -0.2061 -0.5751  0.2078
 3376SOL     OW20231   7.724   9.933   0.163  0.6305 -0.0943 -0.5144
 3376SOL    HW120232   7.682   9.876   0.093  1.1368 -0.7140 -0.3257
 3376SOL    HW220233   7.737   9.879   0.246 -1.2459  1.0230  0.5262
 3377SOL     OW20234   1.491   1.197   2.072  0.0968 -0.1070 -0.1571
 3377SOL    HW120235   1.461   1.291   2.060  0.0334 -0.0201  0.6960
 3377SOL    HW220236   1.580   1.195   2.118 -0.3459 -0.4926  0.6898
 3378SOL     OW20237   1.480   6.847   0.587 -0.1129  0.2060 -0.0155
 3378SOL    HW120238   1.496   6.754   0.554 -0.9950  0.5431 -1.4291
 3378SOL    HW220239   1.536   6.911   0.535 -1.5911  0.7499 -0.9797
 3379SOL     OW20240   9.835   8.898   2.370 -0.0277  0.6589 -0.0916
 3379SOL    HW120241   9.819   8.800   2.360  0.1507  0.7424 -1.2894
 3379SOL    HW220242   9.854   8.919   2.466 -0.1044 -0.4679  0.1791
 3380SOL     OW20243   8.905   1.146   1.475 -0.3536  0.5051  0.5390
 3380SOL    HW120244   8.930   1.134   1.571 -2.1724  1.2554  1.1232
 3380SOL    HW220245   8.808   1.127   1.463  0.0294 -0.3813 -1.3138
 3381SOL     OW20246   3.163   7.818   1.664 -0.1092  0.2880 -0.0943
 3381SOL    HW120247   3.090   7.879   1.635 -0.6385 -0.4674 -0.3699
 3381SOL    HW220248   3.234   7.870   1.712 -0.3786  1.1628 -0.6448
 3382SOL     OW20249   3.526   1.985   0.901 -0.4104  0.1942 -0.1451
 3382SOL    HW120250   3.452   1.963   0.965 -0.7604 -1.3359 -1.0351
 3382SOL    HW220251   3.503   2.070   0.853 -1.9680 -0.6432 -0.9343
 3383SOL     OW20252   0.174   3.922   0.314 -0.1578  0.1125 -1.2208
 3383SOL    HW120253   0.267   3.959   0.303  0.4102 -0.1445  2.2832
 3383SOL    HW220254   0.178   3.822   0.316 -0.7175  0.0516 -2.4309
 3384SOL     OW20255   9.858   4.139   2.093 -0.0580  0.2862  0.0222
 3384SOL    HW120256   9.908   4.071   2.040  1.4564  1.0513  0.4651
 3384SOL    HW220257   9.797   4.190   2.032 -0.5465 -0.8444 -0.4630
 3385SOL     OW20258   2.931   2.617   1.687  0.6220  0.6215  0.5024
 3385SOL    HW120259   2.920   2.598   1.590  1.9907  3.4308 -0.2764
 3385SOL    HW220260   2.902   2.711   1.706 -0.4928 -0.1904  2.9931
 3386SOL     OW20261   0.066   0.843   2.478 -0.1872 -0.0095 -0.2045
 3386SOL    HW120262   0.134   0.783   2.520 -1.8565 -0.0835  2.5392
 3386SOL    HW220263  -0.009   0.788   2.442 -0.5758  0.2898  0.1479
 3387SOL     OW20264   2.603   3.728   0.030  0.4231 -0.4778 -0.5155
 3387SOL    HW120265   2.577   3.637   0.062 -1.0103 -0.2130 -0.9049
 3387SOL    HW220266   2.521   3.780   0.007  1.2496  0.8309 -0.5335
 3388SOL     OW20267   0.146   1.985   0.413 -0.3833  0.3238 -0.1933
 3388SOL    HW120268   0.240   2.003   0.383 -0.8665  2.4400 -0.5199
 3388SOL    HW220269   0.099   1.931   0.343  0.3745 -0.1195 -0.3679
 3389SOL     OW20270   3.234   4.767   0.120  0.2596  0.1030 -0.4041
 3389SOL    HW120271   3.155   4.725   0.075 -0.0289  0.0768  0.1317
 3389SOL    HW220272   3.318   4.722   0.088 -0.1722 -2.4223  1.8286
 3390SOL     OW20273   2.970   4.314   0.240 -0.0532  0.1867 -0.1958
 3390SOL    HW120274   2.941   4.242   0.178 -0.1898 -0.2837  0.4149
 3390SOL    HW220275   3.005   4.274   0.324 -2.7728  0.8892  1.3239
 3391SOL     OW20276   3.812   8.534   0.202  0.1346 -0.0857 -0.0816
 3391SOL    HW120277   3.882   8.472   0.238 -1.3455 -2.5177 -1.2397
 3391SOL    HW220278   3.763   8.576   0.278  0.3655 -1.2842  0.7607
 3392SOL     OW20279   9.292   0.395   1.823  0.3777  0.6650  0.6310
 3392SOL    HW120280   9.383   0.366   1.854  0.2077  0.6535  1.1213
 3392SOL    HW220281   9.301   0.456   1.744  0.7852  0.1517  0.2713
 3393SOL     OW20282   9.171   1.405   0.274  0.9766 -0.7456 -0.2285
 3393SOL    HW120283   9.148   1.391   0.370  0.6564 -0.5456 -0.2760
 3393SOL    HW220284   9.242   1.340   0.247  1.5038 -0.3952  0.3038
 3394SOL     OW20285   3.447   3.021   0.137 -0.2153 -0.3959  0.2871
 3394SOL    HW120286   3.409   3.058   0.222 -1.2808 -1.7699  0.4233
 3394SOL    HW220287   3.417   2.927   0.125  3.0124 -1.4773  0.2773
 3395SOL     OW20288   3.799   0.263   2.386  0.0384 -0.7248 -0.3989
 3395SOL    HW120289   3.720   0.228   2.436 -0.3355  1.5734  0.6473
 3395SOL    HW220290   3.868   0.191   2.378 -1.0848 -1.9656  0.9242
 3396SOL     OW20291   9.542   9.037   0.102 -0.2497 -0.3140 -0.1442
 3396SOL    HW120292   9.513   9.132   0.116 -0.8120 -0.3271 -1.1826
 3396SOL    HW220293   9.463   8.977   0.107 -0.1455 -0.5460 -1.1268
 3397SOL     OW20294   8.721   0.030   1.738  0.1188 -0.1802  0.0243
 3397SOL    HW120295   8.749  -0.003   1.648  0.9876  0.8139 -0.0776
 3397SOL    HW220296   8.650   0.100   1.727  0.1427 -0.1418  0.1120
 3398SOL     OW20297   0.833   7.263   0.767 -0.0333  0.2487 -0.3165
 3398SOL    HW120298   0.859   7.263   0.864  2.3218 -0.0163 -0.9087
 3398SOL    HW220299   0.831   7.357   0.732  1.5771  0.1785 -0.6186
 3399SOL     OW20300   0.197   8.469   2.327 -0.0605 -0.4759  0.1002
 3399SOL    HW120301   0.165   8.550   2.376  1.0495  0.9152 -1.4165
 3399SOL    HW220302   0.128   8.397   2.333 -1.2297  0.7035  1.1531
 3400SOL     OW20303   3.111   8.474   1.236  0.2272  0.4968 -0.4842
 3400SOL    HW120304   3.150   8.542   1.299  0.7508 -0.4680  0.2568
 3400SOL    HW220305   3.025   8.439   1.274 -0.9227  1.9985 -1.7038
 3401SOL     OW20306   9.156   7.096   0.526  0.0572 -0.0177  0.4180
 3401SOL    HW120307   9.183   7.102   0.622 -0.1154 -0.5923  0.5014
 3401SOL    HW220308   9.224   7.145   0.470  1.1777 -1.2694  0.6525
 3402SOL     OW20309   0.530   7.100   2.138 -0.0538 -0.0080 -0.0963
 3402SOL    HW120310   0.475   7.124   2.217  1.2926 -0.3024  0.9535
 3402SOL    HW220311   0.565   7.184   2.095  1.8050  0.0995  1.5197
 3403SOL     OW20312   4.223   3.277   2.002  0.1224 -0.1030  0.6061
 3403SOL    HW120313   4.264   3.191   1.973  1.5702  0.8407 -0.2392
 3403SOL    HW220314   4.234   3.288   2.100 -0.4851 -1.1074  0.7819
 3404SOL     OW20315   9.984   6.735   1.524  0.2403 -0.3194 -0.0659
 3404SOL    HW120316   9.943   6.652   1.486  0.2195 -0.2256 -0.2479
 3404SOL    HW220317  10.046   6.710   1.599  0.0576 -0.4808  0.0318
 3405SOL     OW20318   2.083   7.199   0.904 -1.0073 -0.1049 -0.7757
 3405SOL    HW120319   2.052   7.192   0.809  1.8631  1.3688 -1.8737
 3405SOL    HW220320   2.121   7.290   0.920  2.4729 -1.7121  0.5385
 3406SOL     OW20321   4.001   3.075   1.132  0.2996  0.5892 -0.4036
 3406SOL    HW120322   3.934   3.069   1.206  0.0944 -0.5304 -0.6763
 3406SOL    HW220323   3.955   3.068   1.044  1.0185 -3.1443 -0.5687
 3407SOL     OW20324   3.430   3.250   0.981  0.1322  0.2709 -0.8676
 3407SOL    HW120325   3.359   3.183   1.002  0.7384 -0.0244  0.3009
 3407SOL    HW220326   3.480   3.222   0.900  0.4356 -0.7522 -0.3343
 3408SOL     OW20327   2.410   0.960   0.867 -0.5116 -0.2789 -0.2249
 3408SOL    HW120328   2.354   0.954   0.950 -0.2060  0.6643  0.0656
 3408SOL    HW220329   2.410   0.872   0.820 -0.0437 -1.0570  1.1961
 3409SOL     OW20330   2.181   1.078   2.444  0.4357  0.1406 -0.7008
 3409SOL    HW120331   2.191   1.001   2.508  1.0550  0.8108  0.0177
 3409SOL    HW220332   2.262   1.136   2.449 -0.3027  1.1843 -0.7942
 3410SOL     OW20333   1.628   9.270   0.413  0.0844 -0.0510  0.2024
 3410SOL    HW120334   1.687   9.302   0.487  0.0166 -2.1848  1.2375
 3410SOL    HW220335   1.658   9.309   0.326  2.0705  0.0860  0.9294
 3411SOL     OW20336   0.409   4.410   0.273  0.1092  0.1136  0.1036
 3411SOL    HW120337   0.441   4.489   0.220  0.9336  0.5811  1.2796
 3411SOL    HW220338   0.318   4.429   0.310 -0.8354 -0.5374 -1.8005
 3412SOL     OW20339   8.983   6.829   1.714  0.1817 -0.7936 -0.1737
 3412SOL    HW120340   9.074   6.798   1.743  0.4686  0.4065  0.2264
 3412SOL    HW220341   8.992   6.887   1.633 -0.3607 -1.8062 -0.9621
 3413SOL     OW20342   0.119   3.372   0.421 -0.3094 -0.3591  0.1438
 3413SOL    HW120343   0.075   3.295   0.468 -0.5540 -1.2419 -1.4987
 3413SOL    HW220344   0.215   3.351   0.405  0.6467  1.3298  3.1993
 3414SOL     OW20345   0.958   1.872   1.676 -0.0429  0.0689 -0.0886
 3414SOL    HW120346   0.862   1.886   1.651  0.0949  0.6296 -0.3124
 3414SOL    HW220347   0.968   1.783   1.721 -0.5231 -0.3727 -0.8325
 3415SOL     OW20348   2.666   4.899   1.821 -0.0328 -0.4524  0.2267
 3415SOL    HW120349   2.679   4.981   1.876 -0.2013 -0.0136 -0.3763
 3415SOL    HW220350   2.730   4.828   1.850  0.3773  0.0239  0.4945
 3416SOL     OW20351   1.452   0.770   0.064  0.7432  0.4967 -0.1174
 3416SOL    HW120352   1.401   0.803  -0.016  0.0537 -0.4906 -0.0930
 3416SOL    HW220353   1.437   0.672   0.075  1.3164  0.5144  0.8768
 3417SOL     OW20354   9.458   3.794   1.746  0.1814  0.0776  0.1097
 3417SOL    HW120355   9.371   3.765   1.786 -0.3466  0.4920 -0.7237
 3417SOL    HW220356   9.451   3.794   1.646  1.3564 -0.5575  0.0085
 3418SOL     OW20357   4.091   0.878   2.372  0.1415 -0.2843 -0.2055
 3418SOL    HW120358   4.058   0.949   2.436  1.3369 -1.0723  1.3070
 3418SOL    HW220359   4.190   0.870   2.380  0.1200 -1.4296 -1.1084
 3419SOL     OW20360   3.774   0.366   0.511 -0.5261  0.1848  0.0152
 3419SOL    HW120361   3.804   0.442   0.568 -0.9700  0.5176 -0.1958
 3419SOL    HW220362   3.685   0.334   0.541 -0.3285 -0.2761  0.1223
 3420SOL     OW20363   2.136   4.908   0.326 -0.7871 -0.2327  0.3050
 3420SOL    HW120364   2.163   4.969   0.252 -2.1763  0.7056  0.5492
 3420SOL    HW220365   2.199   4.919   0.403 -2.4898  2.8174  1.3273
 3421SOL     OW20366   0.322   9.377   1.910  0.0473 -0.6074  0.0641
 3421SOL    HW120367   0.331   9.454   1.974  0.9901 -1.2193  0.6686
 3421SOL    HW220368   0.271   9.408   1.829  0.5512  0.6984  0.2315
 3422SOL     OW20369   7.525   0.044   2.449 -0.1613  0.2805 -0.4440
 3422SOL    HW120370   7.543   0.138   2.422 -1.8629  0.4207 -1.1278
 3422SOL    HW220371   7.591   0.016   2.519  0.7736  1.7428 -0.7248
 3423SOL     OW20372   9.507   4.931   2.352 -0.1753 -0.4402 -0.0186
 3423SOL    HW120373   9.457   4.916   2.437  1.7419 -0.9309  1.0573
 3423SOL    HW220374   9.467   5.008   2.303 -0.9112  0.2658  1.6520
 3424SOL     OW20375   2.253   5.413   2.332 -0.1130 -0.3491 -0.9439
 3424SOL    HW120376   2.306   5.418   2.417 -1.3976 -0.0180 -0.1548
 3424SOL    HW220377   2.156   5.423   2.352 -0.3068  1.4576 -2.6343
 3425SOL     OW20378   0.057   1.155   1.660  0.3629 -0.1615 -0.2619
 3425SOL    HW120379   0.125   1.227   1.647  0.0624  0.0733 -0.5307
 3425SOL    HW220380  -0.021   1.191   1.711  0.5387 -0.4917  0.2463
 3426SOL     OW20381   8.977   0.338   0.524  0.0026  0.1423  0.3308
 3426SOL    HW120382   8.922   0.406   0.476 -1.0190 -1.2635 -0.5214
 3426SOL    HW220383   8.927   0.306   0.605  0.5284  0.4690  0.7922
 3427SOL     OW20384   0.560   5.272   2.294  0.7156 -0.3375  0.1762
 3427SOL    HW120385   0.551   5.273   2.394  0.2475 -1.0653  0.1502
 3427SOL    HW220386   0.484   5.219   2.255  0.6567  0.3033 -0.5937
 3428SOL     OW20387   9.284   0.567   2.269 -0.7440  0.1492 -0.2554
 3428SOL    HW120388   9.232   0.482   2.261 -1.0738  0.3842 -0.6240
 3428SOL    HW220389   9.358   0.555   2.336 -0.9413 -0.3490 -0.1259
 3429SOL     OW20390   9.952   8.011   0.246  0.0877  0.1176  0.1115
 3429SOL    HW120391   9.902   7.931   0.280  1.7060 -0.6757  0.7037
 3429SOL    HW220392   9.903   8.052   0.170 -1.3651 -0.7446  0.5699
 3430SOL     OW20393   9.171   6.751   0.001 -0.1628  0.8092  0.6048
 3430SOL    HW120394   9.086   6.803  -0.006 -0.8684 -0.2851  0.9529
 3430SOL    HW220395   9.230   6.792   0.070 -0.3046  1.7118  0.1956
 3431SOL     OW20396   4.234   4.903   0.164 -0.0978  0.1929 -0.0127
 3431SOL    HW120397   4.215   4.868   0.072  0.1976  0.0055 -0.0021
 3431SOL    HW220398   4.189   4.992   0.175 -2.2071 -0.9018  0.5320
 3432SOL     OW20399   0.292   9.441   0.890 -0.3794 -0.0553  0.4042
 3432SOL    HW120400   0.204   9.396   0.906 -0.5969  0.1996 -0.0245
 3432SOL    HW220401   0.275   9.532   0.850  0.0303  0.6263  1.7569
 3433SOL     OW20402   4.341   4.484   1.816  0.7174 -0.6159 -0.2091
 3433SOL    HW120403   4.409   4.483   1.742  1.4367 -1.2303  0.4430
 3433SOL    HW220404   4.249   4.479   1.778  0.9702  1.5774 -1.1741
 3434SOL     OW20405   9.046   4.702   1.537 -0.1355 -0.3182  0.7731
 3434SOL    HW120406   9.041   4.617   1.484  1.0468  0.1151 -0.0466
 3434SOL    HW220407   9.053   4.779   1.474  0.6717  0.2504  1.5592
 3435SOL     OW20408   0.452   4.753   2.071  0.6291 -0.5184  0.4476
 3435SOL    HW120409   0.431   4.836   2.020 -1.7260 -0.6869  1.0972
 3435SOL    HW220410   0.469   4.678   2.007 -0.7442 -0.3548 -0.1305
 3436SOL     OW20411   1.978   5.435   2.418 -0.0195 -0.5771  0.4417
 3436SOL    HW120412   1.925   5.370   2.364  0.0684  0.2683 -0.6843
 3436SOL    HW220413   1.918   5.507   2.453 -0.1202 -1.2502  1.6988
 3437SOL     OW20414   1.676   6.671   1.193 -0.1954  0.1800  0.3590
 3437SOL    HW120415   1.748   6.691   1.260 -0.6439  1.1237  0.5739
 3437SOL    HW220416   1.710   6.606   1.126  1.3368  1.6313 -0.3164
 3438SOL     OW20417   9.015   8.076   2.291 -0.0958 -0.0817  0.0728
 3438SOL    HW120418   8.936   8.117   2.246 -0.4515  0.1616  0.9121
 3438SOL    HW220419   9.054   8.005   2.232  0.1115  0.9865 -1.0918
 3439SOL     OW20420   0.686   1.869   1.664  1.0044 -0.5743 -0.1710
 3439SOL    HW120421   0.589   1.887   1.649  1.0574  1.0689  1.2853
 3439SOL    HW220422   0.698   1.818   1.750  1.4905  0.0818  0.1575
 3440SOL     OW20423   9.338   9.232   1.754  0.2626 -0.1455 -0.1350
 3440SOL    HW120424   9.297   9.324   1.749  0.4470 -0.0941 -0.7896
 3440SOL    HW220425   9.435   9.238   1.731  0.3736 -0.4392  0.2610
 3441SOL     OW20426   9.964   3.302   2.168 -0.2974 -0.4537 -0.5226
 3441SOL    HW120427   9.887   3.365   2.175 -0.6285 -0.5408 -2.9156
 3441SOL    HW220428   9.931   3.211   2.144  0.3785 -1.0354  0.6925
 3442SOL     OW20429   0.696   5.157   0.877  0.6738  0.4998 -0.7606
 3442SOL    HW120430   0.756   5.131   0.952 -0.5870  1.3216  0.5655
 3442SOL    HW220431   0.625   5.087   0.865 -0.2476  1.2655  0.0808
 3443SOL     OW20432   3.236   1.061   2.344 -0.1474  0.4097  0.1104
 3443SOL    HW120433   3.268   0.968   2.326 -2.7865 -0.4699 -0.2771
 3443SOL    HW220434   3.170   1.059   2.419  0.1164  2.0398  0.3909
 3444SOL     OW20435   8.879   7.929   1.925 -0.0873 -0.4009 -0.1291
 3444SOL    HW120436   8.801   7.871   1.902  0.4220 -0.9031 -0.5973
 3444SOL    HW220437   8.954   7.911   1.862  0.2355  0.4449  0.0039
 3445SOL     OW20438   8.253   8.723   1.751 -0.3406 -0.4415 -0.3003
 3445SOL    HW120439   8.350   8.739   1.770 -0.4051 -0.0675 -0.2768
 3445SOL    HW220440   8.212   8.672   1.827  0.2283 -2.0906 -1.0962
 3446SOL     OW20441   3.200   8.197   1.518  0.1264  0.2675 -0.2522
 3446SOL    HW120442   3.232   8.130   1.452  1.1015  0.8222 -0.3626
 3446SOL    HW220443   3.233   8.288   1.492 -0.3022  0.6351  0.4549
 3447SOL     OW20444   1.722   7.838   1.007  0.1169  0.0702 -0.2748
 3447SOL    HW120445   1.671   7.819   1.091  0.7721 -0.0425  0.1068
 3447SOL    HW220446   1.816   7.862   1.030  0.5196 -0.7645 -1.0235
 3448SOL     OW20447   1.974   2.125   1.826  0.6423 -1.0582  1.0320
 3448SOL    HW120448   1.876   2.110   1.840  0.7643 -1.1011  1.8522
 3448SOL    HW220449   2.012   2.174   1.904  1.0642 -0.0946  0.2265
 3449SOL     OW20450   9.979   7.930   0.652 -0.2287 -0.3908 -0.0992
 3449SOL    HW120451  10.034   8.013   0.648  2.1981 -2.0050 -1.2480
 3449SOL    HW220452  10.028   7.860   0.703 -1.7155 -1.5312 -0.1935
 3450SOL     OW20453   0.793   4.308   0.873  0.4175  0.2118  0.4035
 3450SOL    HW120454   0.724   4.378   0.857 -0.3346 -0.4710  0.5939
 3450SOL    HW220455   0.860   4.340   0.940  0.2224  0.8348  0.2960
 3451SOL     OW20456   9.153   6.089   0.114  0.5493  0.2844 -0.4060
 3451SOL    HW120457   9.206   6.038   0.046  1.6067  1.1189 -0.2225
 3451SOL    HW220458   9.215   6.142   0.171 -0.5035  1.3523 -0.2421
 3452SOL     OW20459   1.396   5.096   1.392  0.7421  0.6885  0.6165
 3452SOL    HW120460   1.345   5.140   1.467 -0.6333  0.3415 -0.1086
 3452SOL    HW220461   1.341   5.096   1.309  1.6618 -0.3052 -0.0123
 3453SOL     OW20462   2.047   9.859   0.647  0.0810  0.4857  0.6696
 3453SOL    HW120463   2.059   9.760   0.651 -2.0517  0.1546 -0.1883
 3453SOL    HW220464   2.020   9.885   0.554  2.3325  2.1032  0.4248
 3454SOL     OW20465   1.802   6.358   0.805 -0.0355  0.2719  0.6467
 3454SOL    HW120466   1.751   6.273   0.814 -0.2849  0.3175 -0.3369
 3454SOL    HW220467   1.760   6.415   0.734  0.3474  1.0570  1.0411
 3455SOL     OW20468   4.193   8.699   2.565  0.0139 -0.7797 -0.1948
 3455SOL    HW120469   4.148   8.788   2.558 -0.5195 -1.2290 -2.9436
 3455SOL    HW220470   4.292   8.713   2.570 -0.0197 -0.0437 -1.2953
 3456SOL     OW20471   2.836   2.886   1.725 -0.2055 -0.0634 -0.1547
 3456SOL    HW120472   2.890   2.964   1.754 -1.1290  0.3114  0.6011
 3456SOL    HW220473   2.776   2.857   1.800  0.2195 -1.5785 -0.3765
 3457SOL     OW20474   9.896   5.835   1.162 -0.4777 -0.0657 -0.2287
 3457SOL    HW120475   9.802   5.811   1.185 -0.7768  0.8341 -0.4905
 3457SOL    HW220476   9.897   5.892   1.080  0.2809  0.1207 -0.0966
 3458SOL     OW20477   8.901   1.547   2.250 -0.3563  0.1203 -0.1969
 3458SOL    HW120478   8.820   1.555   2.308  0.4082 -0.5349  0.9890
 3458SOL    HW220479   8.874   1.554   2.154 -1.8264 -0.1974  0.1765
 3459SOL     OW20480   3.791   2.711   1.940 -0.2710 -0.6140 -0.1316
 3459SOL    HW120481   3.872   2.719   1.882 -0.4474  0.7752 -0.2062
 3459SOL    HW220482   3.812   2.746   2.031 -0.5245 -1.1055  0.1148
 3460SOL     OW20483   1.401   6.135   0.827 -0.4361  0.3583  0.0539
 3460SOL    HW120484   1.378   6.194   0.904 -0.3032  0.4731  0.0068
 3460SOL    HW220485   1.320   6.120   0.770 -0.6432 -0.1133  0.4765
 3461SOL     OW20486   3.253   2.345   0.958 -0.3082 -0.2961 -0.3452
 3461SOL    HW120487   3.183   2.414   0.938  0.3660  1.1712  2.1860
 3461SOL    HW220488   3.223   2.289   1.035  0.6513 -0.6175 -0.1988
 3462SOL     OW20489   0.499   8.202   1.803 -0.1014 -0.3538  0.0878
 3462SOL    HW120490   0.545   8.287   1.827  0.0459 -0.6077  0.7319
 3462SOL    HW220491   0.426   8.220   1.737  1.1125  0.0117 -1.1792
 3463SOL     OW20492   4.430   4.558   1.231 -0.0929  0.5754  0.4430
 3463SOL    HW120493   4.505   4.623   1.220  0.2829  0.0731 -0.0229
 3463SOL    HW220494   4.343   4.602   1.208  0.3338  0.4579 -1.5009
 3464SOL     OW20495   3.583   4.052   1.106 -0.1871  0.0069 -0.6633
 3464SOL    HW120496   3.593   4.019   1.012  0.9268  1.9093 -1.2469
 3464SOL    HW220497   3.498   4.105   1.114 -0.6571 -0.7788 -0.3958
 3465SOL     OW20498   0.117   5.923   0.435 -0.6197  0.6865 -0.4281
 3465SOL    HW120499   0.126   6.000   0.371  0.0971 -0.0255 -1.1976
 3465SOL    HW220500   0.187   5.854   0.414 -0.7313  0.2010  0.7854
 3466SOL     OW20501   0.713   0.660   1.349  0.1105 -0.5794  0.1226
 3466SOL    HW120502   0.790   0.682   1.408 -2.0622 -0.1426  2.8943
 3466SOL    HW220503   0.740   0.671   1.253  2.4870  2.9786  1.1088
 3467SOL     OW20504   9.196   2.434   0.617 -0.1683 -0.3398 -0.2812
 3467SOL    HW120505   9.247   2.350   0.596 -2.0504 -1.7555  0.5961
 3467SOL    HW220506   9.150   2.467   0.535 -1.6228 -1.7509 -0.0815
 3468SOL     OW20507   0.487   6.704   0.974 -0.1981 -0.4822 -0.0787
 3468SOL    HW120508   0.415   6.684   0.908  0.4145  1.1819 -1.2842
 3468SOL    HW220509   0.566   6.646   0.954 -1.0289 -2.0240  0.9994
 3469SOL     OW20510   4.546   3.607   1.650  0.2291  0.4182 -0.1535
 3469SOL    HW120511   4.618   3.632   1.715 -0.9801 -0.6241  1.6157
 3469SOL    HW220512   4.512   3.516   1.672 -0.1393 -0.0059 -2.3380
 3470SOL     OW20513   3.480   1.103   1.696  0.1992 -0.2993  0.0212
 3470SOL    HW120514   3.517   1.127   1.785 -0.9420  1.1282  0.1102
 3470SOL    HW220515   3.556   1.083   1.633  1.0153 -0.7005  1.1138
 3471SOL     OW20516   2.775   1.593   1.359 -0.2900 -0.3039  0.4956
 3471SOL    HW120517   2.791   1.634   1.449  0.2871 -1.3380  0.8772
 3471SOL    HW220518   2.677   1.589   1.341 -0.4112 -0.2142  1.1324
 3472SOL     OW20519   0.000   0.019   0.381 -0.1976 -0.0902  0.4288
 3472SOL    HW120520  -0.007   0.071   0.466 -0.8559 -1.3206  1.1412
 3472SOL    HW220521   0.087   0.040   0.336 -0.3906  1.5106  0.7584
 3473SOL     OW20522   0.173   7.271   1.087  0.0237  0.0235  0.0885
 3473SOL    HW120523   0.099   7.314   1.036  0.7645  0.5303 -0.5721
 3473SOL    HW220524   0.198   7.185   1.043 -0.6304 -0.4865  0.7062
 3474SOL     OW20525   8.282   8.224   2.101  0.2046 -0.1195  0.2146
 3474SOL    HW120526   8.264   8.125   2.100 -0.4892  0.0092  0.2268
 3474SOL    HW220527   8.266   8.259   2.193  1.0906 -0.1132  0.3711
 3475SOL     OW20528   3.780   2.407   1.968 -0.1779 -0.2273  0.2275
 3475SOL    HW120529   3.741   2.327   1.922 -1.2142  0.4613 -0.1020
 3475SOL    HW220530   3.777   2.486   1.906  0.2363  0.2322  0.7845
 3476SOL     OW20531   4.727   4.256   1.725  0.2193 -0.2760  0.1838
 3476SOL    HW120532   4.648   4.316   1.714 -0.0256 -0.5060  0.6523
 3476SOL    HW220533   4.706   4.166   1.685  0.0329 -0.5117  0.7984
 3477SOL     OW20534   8.805   7.291   1.327 -0.3966  0.0148  0.4075
 3477SOL    HW120535   8.762   7.377   1.298  0.1921  0.6539  1.3993
 3477SOL    HW220536   8.739   7.237   1.379 -0.8487 -0.2581 -0.4337
 3478SOL     OW20537   0.595   7.850   1.268  0.4818  0.2400 -0.4675
 3478SOL    HW120538   0.584   7.947   1.247  2.0104  0.7761  1.0829
 3478SOL    HW220539   0.689   7.821   1.248  0.3787 -0.6071  0.2202
 3479SOL     OW20540   9.540   8.062   1.741  0.1538  0.0528  0.5945
 3479SOL    HW120541   9.481   8.041   1.663 -0.0518  1.0016  0.4879
 3479SOL    HW220542   9.559   8.160   1.743  0.5073 -0.0283  1.4984
 3480SOL     OW20543   0.324   3.875   2.211  0.7142  0.2262  0.0614
 3480SOL    HW120544   0.253   3.871   2.141  1.6532 -0.1400 -0.8718
 3480SOL    HW220545   0.392   3.944   2.186 -0.3821  2.1135  1.9934
 3481SOL     OW20546   0.187   1.068   0.554 -0.2179  0.0563  0.0405
 3481SOL    HW120547   0.169   0.995   0.489 -1.1661  1.9095 -1.8214
 3481SOL    HW220548   0.267   1.044   0.610  0.4351 -1.6879 -1.5974
 3482SOL     OW20549   7.676   8.991   2.220  0.8178 -0.2255  0.5516
 3482SOL    HW120550   7.717   8.994   2.311  2.0448  3.9583 -0.0040
 3482SOL    HW220551   7.746   8.964   2.153  0.6254 -0.7429  0.5658
 3483SOL     OW20552   9.300   0.131   2.426  0.0528 -0.3972 -0.0546
 3483SOL    HW120553   9.230   0.073   2.470  1.2536 -1.1479  0.9288
 3483SOL    HW220554   9.338   0.083   2.347 -1.2692  0.4553 -1.2266
 3484SOL     OW20555   2.061   4.377   0.388  0.2846  0.0127 -0.4001
 3484SOL    HW120556   1.997   4.363   0.312 -0.6619 -0.0996  0.4016
 3484SOL    HW220557   2.074   4.475   0.403  0.2187  0.0377 -0.5045
 3485SOL     OW20558   1.091   1.026   2.148 -0.2262  0.2411 -0.0807
 3485SOL    HW120559   1.152   1.023   2.069 -0.1926  0.5511 -0.0648
 3485SOL    HW220560   1.101   1.114   2.195  0.2403 -0.1991  0.6501
 3486SOL     OW20561   2.713   9.225   1.141  0.5894  0.2013 -0.1110
 3486SOL    HW120562   2.658   9.294   1.093  1.0593  0.4757 -0.2542
 3486SOL    HW220563   2.653   9.150   1.170  0.4465 -0.3897 -1.8946
 3487SOL     OW20564   8.538   0.248   1.681 -0.3129  0.0740 -0.6855
 3487SOL    HW120565   8.476   0.264   1.604 -0.6606 -0.1538 -0.4546
 3487SOL    HW220566   8.488   0.259   1.767 -0.2494 -0.9396 -0.5064
 3488SOL     OW20567   8.905   0.628   1.914  0.4259  0.2828 -0.4938
 3488SOL    HW120568   8.998   0.634   1.951  1.4502  0.1127 -2.9034
 3488SOL    HW220569   8.847   0.575   1.976  1.0919  3.0103  2.5802
 3489SOL     OW20570   2.557   9.001   1.216 -0.0684  0.3611 -0.0484
 3489SOL    HW120571   2.621   8.943   1.265  0.3222  0.5707 -0.3118
 3489SOL    HW220572   2.466   8.959   1.218  0.2008 -0.2325 -0.1997
 3490SOL     OW20573   1.481   1.506   1.940  0.4368  0.3812 -0.1350
 3490SOL    HW120574   1.409   1.553   1.992  0.8027  1.2930 -0.4491
 3490SOL    HW220575   1.570   1.530   1.978  0.5289 -1.8646  1.1680
 3491SOL     OW20576   1.929   4.266   0.137  0.1685  0.2072 -0.5261
 3491SOL    HW120577   1.850   4.213   0.169  1.3448 -0.5817  1.1003
 3491SOL    HW220578   1.909   4.302   0.045 -1.6175 -0.9671 -0.6313
 3492SOL     OW20579   4.025   2.277   2.248 -0.0266  0.1943  0.1281
 3492SOL    HW120580   4.082   2.358   2.233  0.4750 -0.1935 -0.1030
 3492SOL    HW220581   3.942   2.302   2.296  0.0870  0.8613 -0.0271
 3493SOL     OW20582   4.174   3.962   1.060 -0.2450 -0.3817  0.5544
 3493SOL    HW120583   4.074   3.968   1.055 -0.2875 -0.6876  1.0456
 3493SOL    HW220584   4.212   4.055   1.064 -0.3810 -0.1809 -1.8076
 3494SOL     OW20585   4.482   3.747   0.791 -0.5947 -0.2075 -0.2070
 3494SOL    HW120586   4.571   3.707   0.769 -0.4986 -1.1004  1.7159
 3494SOL    HW220587   4.475   3.761   0.890 -2.0525  1.1781 -0.4795
 3495SOL     OW20588   3.529   5.558   2.087 -1.2307  0.2492 -0.4204
 3495SOL    HW120589   3.476   5.613   2.023 -0.9703  2.3641  1.1405
 3495SOL    HW220590   3.588   5.496   2.037 -1.3705  1.5449 -2.2154
 3496SOL     OW20591   3.675   8.993   1.075 -0.0166 -0.1800  0.1219
 3496SOL    HW120592   3.684   9.066   1.009 -0.5989  0.9709  1.2981
 3496SOL    HW220593   3.660   8.906   1.028  1.1037  0.3828 -1.2880
 3497SOL     OW20594   2.600   0.628   1.448  0.2076 -0.3770  0.0971
 3497SOL    HW120595   2.605   0.528   1.448  0.4854 -0.3626  0.9018
 3497SOL    HW220596   2.664   0.665   1.515 -0.3863  0.3219  0.2873
 3498SOL     OW20597   0.694   5.063   2.051  0.0181  0.5566  0.0563
 3498SOL    HW120598   0.672   4.989   1.988  1.1347  1.3745 -1.3113
 3498SOL    HW220599   0.715   5.025   2.141  0.8653 -0.8041 -0.7118
 3499SOL     OW20600   2.008   1.168   0.575  0.4971  0.1974 -0.2643
 3499SOL    HW120601   2.004   1.267   0.562 -1.2564  0.4571  1.9149
 3499SOL    HW220602   2.088   1.146   0.632  0.1441  0.5218  0.3703
 3500SOL     OW20603   1.512   2.734   0.959 -0.1305 -0.3772  0.0006
 3500SOL    HW120604   1.539   2.671   0.887 -0.5674 -1.7140  0.9872
 3500SOL    HW220605   1.539   2.827   0.934  2.8069 -1.2821 -0.3244
 3501SOL     OW20606   4.179   3.778   0.857 -0.3658 -0.4102 -0.0658
 3501SOL    HW120607   4.190   3.831   0.942  0.1483 -2.5039  1.1960
 3501SOL    HW220608   4.268   3.766   0.814 -0.7086  1.1940 -1.2641
 3502SOL     OW20609   9.674   4.487   2.204 -0.0698  0.1789 -0.6277
 3502SOL    HW120610   9.670   4.580   2.168  2.0540  0.0052 -1.3321
 3502SOL    HW220611   9.760   4.444   2.179 -0.5757 -1.6321  0.5896
 3503SOL     OW20612   1.419   3.895   0.390  0.5406 -0.3971  0.2860
 3503SOL    HW120613   1.430   3.963   0.463  0.4478  0.4316 -0.4610
 3503SOL    HW220614   1.323   3.873   0.379  0.1749  1.8956 -1.7149
 3504SOL     OW20615   9.969   4.798   2.308 -0.1486  0.0013 -0.5686
 3504SOL    HW120616   9.997   4.866   2.376 -1.2790  0.2715 -0.3609
 3504SOL    HW220617  10.050   4.752   2.271  0.5148  0.2331  0.5632
 3505SOL     OW20618   3.537   2.550   1.466 -0.0273  0.0055  0.4811
 3505SOL    HW120619   3.458   2.502   1.503 -0.9020  1.7386  0.8699
 3505SOL    HW220620   3.536   2.645   1.495  0.1936  1.0056 -2.5711
 3506SOL     OW20621   2.114   5.674   1.080  0.3386 -0.4485 -0.1421
 3506SOL    HW120622   2.056   5.642   1.005 -0.8674 -0.0897  0.6281
 3506SOL    HW220623   2.109   5.609   1.156  2.0699 -1.1506 -0.6007
 3507SOL     OW20624   9.225   9.450   0.813  0.2506  0.2244  0.3926
 3507SOL    HW120625   9.181   9.361   0.821  0.4516  0.2005  1.2839
 3507SOL    HW220626   9.212   9.486   0.721 -0.2396 -0.5107  0.1750
 3508SOL     OW20627   9.367   9.833   1.855 -0.6379 -0.3654  0.4416
 3508SOL    HW120628   9.437   9.894   1.819 -1.2496  1.5226  2.3513
 3508SOL    HW220629   9.409   9.748   1.887  0.4011 -0.3743 -0.8972
 3509SOL     OW20630   2.292   9.667   1.184 -0.6924 -0.2156 -0.3533
 3509SOL    HW120631   2.217   9.725   1.152 -1.1027 -0.2552  0.5231
 3509SOL    HW220632   2.337   9.711   1.262 -0.2498 -0.5172 -0.4399
 3510SOL     OW20633   3.352   0.836   2.217 -0.1091 -0.1579 -0.4033
 3510SOL    HW120634   3.451   0.829   2.214 -0.0403  0.8582 -1.0070
 3510SOL    HW220635   3.311   0.745   2.223  0.9044 -0.4967  1.7257
 3511SOL     OW20636   3.842   1.768   0.834 -0.3074  0.5688 -0.0013
 3511SOL    HW120637   3.910   1.807   0.897  2.3310 -0.6535 -2.0092
 3511SOL    HW220638   3.825   1.673   0.859  2.3608 -0.5843 -2.3256
 3512SOL     OW20639   1.266   0.927   0.895  0.0539  0.7255 -0.2333
 3512SOL    HW120640   1.171   0.926   0.927 -0.5813 -0.2423 -2.0389
 3512SOL    HW220641   1.275   0.995   0.821  0.7826  0.8421 -0.0386
 3513SOL     OW20642   9.490   5.050   0.768  0.1168 -0.0031  0.5621
 3513SOL    HW120643   9.420   4.984   0.796 -0.8917  0.7303 -0.2019
 3513SOL    HW220644   9.578   5.004   0.764 -0.4552 -1.1475  0.6909
 3514SOL     OW20645   2.903   4.587   0.518  0.3836 -0.4312 -0.1406
 3514SOL    HW120646   2.859   4.497   0.509  1.8297 -1.1581 -0.0755
 3514SOL    HW220647   3.001   4.578   0.501  1.0815  0.5628  3.0791
 3515SOL     OW20648   3.802   4.608   1.807 -0.5057  0.0957 -0.4783
 3515SOL    HW120649   3.850   4.535   1.758 -2.6256 -1.1453 -0.7622
 3515SOL    HW220650   3.704   4.602   1.789 -1.2613  0.1513  3.1801
 3516SOL     OW20651   9.711   8.809   0.676  0.4743  0.0907  0.7314
 3516SOL    HW120652   9.674   8.810   0.583  2.7418 -1.0728 -0.2126
 3516SOL    HW220653   9.678   8.727   0.723  1.2362 -0.5612  0.1409
 3517SOL     OW20654   3.478   8.884   1.906 -0.4594  0.7475 -0.3500
 3517SOL    HW120655   3.558   8.910   1.851  1.0520 -0.3746  1.2703
 3517SOL    HW220656   3.497   8.799   1.954 -2.3622  0.8836  0.6763
 3518SOL     OW20657   1.145   4.349   2.011  0.7789  0.1136 -0.5390
 3518SOL    HW120658   1.118   4.441   2.039  0.1906 -0.3038  0.2747
 3518SOL    HW220659   1.175   4.296   2.091 -0.3804 -0.9021 -0.7606
 3519SOL     OW20660   0.066   3.913   2.091 -0.0439 -0.8137  0.5941
 3519SOL    HW120661   0.047   3.975   2.167 -0.2629 -0.4876  0.2804
 3519SOL    HW220662   0.055   3.819   2.121  1.2098 -0.7349  1.3229
 3520SOL     OW20663   2.162   6.858   2.294 -0.0085  0.4772  0.3581
 3520SOL    HW120664   2.152   6.946   2.247  0.9027  0.0149 -0.7348
 3520SOL    HW220665   2.257   6.827   2.287 -0.7186 -1.4945 -0.9500
 3521SOL     OW20666   7.644   0.674   0.783  0.5087 -0.0760  0.1945
 3521SOL    HW120667   7.650   0.771   0.757  1.3828 -0.2663 -0.3264
 3521SOL    HW220668   7.730   0.647   0.827  0.2189 -0.5905  0.4419
 3522SOL     OW20669   8.381   0.088   0.630 -0.6385 -0.0377  0.7896
 3522SOL    HW120670   8.328   0.115   0.550  0.3138 -0.2176  0.0849
 3522SOL    HW220671   8.321   0.084   0.710 -1.7244 -0.4743 -0.0336
 3523SOL     OW20672   4.155   1.522   2.276  0.3985 -0.1416  0.0059
 3523SOL    HW120673   4.191   1.608   2.313 -2.4475  0.6192  1.1598
 3523SOL    HW220674   4.140   1.457   2.350  0.1480 -0.7309 -0.5514
 3524SOL     OW20675   0.727   4.600   1.282  0.2280 -0.3488  0.5644
 3524SOL    HW120676   0.729   4.501   1.274  0.8733 -0.2513 -0.5545
 3524SOL    HW220677   0.818   4.638   1.267  0.0313  0.4002  1.1922
 3525SOL     OW20678   3.882   3.725   0.905  0.0556  0.2493  0.1537
 3525SOL    HW120679   3.845   3.717   0.812 -1.1778  0.9738  0.5879
 3525SOL    HW220680   3.979   3.748   0.899  0.9819 -3.5132 -1.0119
 3526SOL     OW20681   3.502   8.408   0.653 -0.0939 -0.4466  0.1754
 3526SOL    HW120682   3.487   8.381   0.558  0.9388 -1.0440  0.1737
 3526SOL    HW220683   3.415   8.436   0.694 -0.5337 -0.1266 -0.9587
 3527SOL     OW20684   1.376   7.351   1.795 -0.2551  0.0727  0.0018
 3527SOL    HW120685   1.363   7.267   1.743 -1.5617  0.1179  0.2354
 3527SOL    HW220686   1.466   7.390   1.774  0.3562 -1.3703 -0.1075
 3528SOL     OW20687   8.900   8.541   1.375  0.0254  0.4587 -0.0769
 3528SOL    HW120688   8.870   8.514   1.467  2.2886 -1.3492  0.1739
 3528SOL    HW220689   8.823   8.536   1.312 -0.8998 -1.1948  1.1411
 3529SOL     OW20690   1.343   0.055   1.563 -1.0160 -0.0691  0.0369
 3529SOL    HW120691   1.385   0.030   1.650 -0.0272 -0.2181 -0.4739
 3529SOL    HW220692   1.350   0.153   1.550  0.2855 -0.2473 -0.6172
 3530SOL     OW20693   1.237   8.316   0.182  0.3467  0.0435 -0.3322
 3530SOL    HW120694   1.210   8.381   0.111  1.0197  1.7941  0.9905
 3530SOL    HW220695   1.333   8.289   0.168  0.1925 -0.3637 -0.6330
 3531SOL     OW20696   1.136   2.589   0.786 -0.6989 -0.3189  0.0007
 3531SOL    HW120697   1.039   2.564   0.790 -1.0337  0.3232 -2.8767
 3531SOL    HW220698   1.145   2.679   0.744  1.1923 -0.7157 -0.4936
 3532SOL     OW20699   4.656   2.380   0.381 -0.2324 -0.4413  0.2993
 3532SOL    HW120700   4.608   2.349   0.463 -0.9698  1.6321  0.6680
 3532SOL    HW220701   4.607   2.349   0.300 -0.1370 -1.4897  0.6245
 3533SOL     OW20702   1.844   3.687   0.162  0.0275  0.0252  0.5398
 3533SOL    HW120703   1.860   3.767   0.219 -0.7535 -0.0914  0.9289
 3533SOL    HW220704   1.800   3.714   0.077 -1.3275 -0.1243  1.1827
 3534SOL     OW20705   7.791   0.615   1.738  0.0883  0.1123 -0.2162
 3534SOL    HW120706   7.748   0.571   1.817  0.8586 -1.3421 -0.5946
 3534SOL    HW220707   7.739   0.593   1.655  0.5909 -0.2480 -0.4358
 3535SOL     OW20708   9.541   1.691   0.544  0.1532 -0.0974 -0.0964
 3535SOL    HW120709   9.579   1.703   0.636 -0.2320 -1.6731  0.2864
 3535SOL    HW220710   9.614   1.701   0.477  1.1632 -2.4006  0.5963
 3536SOL     OW20711   2.710   5.719   2.025  0.3938 -0.9167 -0.3016
 3536SOL    HW120712   2.758   5.803   2.048 -1.5787  0.0309  0.4713
 3536SOL    HW220713   2.645   5.736   1.951 -0.4293 -1.6198  0.2452
 3537SOL     OW20714   4.413   1.086   1.573 -0.0208  0.5814  0.2929
 3537SOL    HW120715   4.420   1.178   1.535 -1.4604  0.3292 -0.6747
 3537SOL    HW220716   4.324   1.075   1.617  0.3743 -0.1579  0.9136
 3538SOL     OW20717   3.973   9.671   2.439 -0.5640  0.4291  0.4121
 3538SOL    HW120718   3.972   9.754   2.494  1.5429 -0.0491  1.2465
 3538SOL    HW220719   3.979   9.694   2.342 -0.8478  1.2514  0.5918
 3539SOL     OW20720   0.784   6.354   2.454 -0.5943 -0.1731  0.0248
 3539SOL    HW120721   0.870   6.351   2.504 -0.2621 -1.0032 -0.5687
 3539SOL    HW220722   0.803   6.377   2.358 -1.0021 -0.5502 -0.1487
 3540SOL     OW20723   2.731   9.139   0.593  0.5652 -0.5302  0.1428
 3540SOL    HW120724   2.809   9.181   0.640  1.2984 -1.5165 -0.1700
 3540SOL    HW220725   2.698   9.200   0.522 -0.3822  0.8586  1.7440
 3541SOL     OW20726   1.559   4.628   1.086 -0.3841 -0.2147 -0.2015
 3541SOL    HW120727   1.514   4.710   1.051  1.5530  0.3912 -1.3956
 3541SOL    HW220728   1.658   4.642   1.086 -0.1438 -1.6549  1.9505
 3542SOL     OW20729   8.731   9.181   0.149  0.0121  0.0210 -0.6531
 3542SOL    HW120730   8.694   9.094   0.180  0.6355 -0.0377 -0.0701
 3542SOL    HW220731   8.668   9.222   0.083 -0.3831 -0.7688 -0.7739
 3543SOL     OW20732   9.948   5.717   0.365  0.5834  0.0690 -0.2827
 3543SOL    HW120733   9.978   5.646   0.429  1.5172  0.6646 -0.0486
 3543SOL    HW220734  10.007   5.797   0.374 -0.7451  1.0590 -0.2180
 3544SOL     OW20735   0.596   6.619   2.216  0.0642 -0.3636  0.3995
 3544SOL    HW120736   0.505   6.592   2.248 -0.7198 -0.0529 -1.5167
 3544SOL    HW220737   0.650   6.537   2.195 -0.1381 -0.5214  0.4924
 3545SOL     OW20738   2.998   0.933   1.698  0.0730 -0.1971 -0.0612
 3545SOL    HW120739   3.017   0.877   1.778  0.6502  1.5136  1.0089
 3545SOL    HW220740   3.021   0.881   1.615  0.8956 -1.4294  0.9273
 3546SOL     OW20741   9.107   5.302   1.600  0.3969  0.0464 -0.2147
 3546SOL    HW120742   9.097   5.362   1.520 -0.0844 -0.6261 -0.6594
 3546SOL    HW220743   9.024   5.306   1.655  0.5760  0.1999  0.0467
 3547SOL     OW20744   2.071   0.655   0.125 -0.1191 -0.7179  0.3915
 3547SOL    HW120745   2.065   0.719   0.201 -1.5563 -0.3802  0.0049
 3547SOL    HW220746   2.161   0.662   0.082 -1.0115  2.6839 -1.0688
 3548SOL     OW20747   2.014   1.347   1.948 -0.3479  0.3525  0.0006
 3548SOL    HW120748   2.069   1.367   1.868  0.5459 -0.5891  0.3685
 3548SOL    HW220749   2.074   1.321   2.024 -1.2822 -0.4229  0.4821
 3549SOL     OW20750   3.853   0.486   1.836  0.3841 -0.3423  0.6891
 3549SOL    HW120751   3.829   0.421   1.909 -0.1679  0.5651  1.3191
 3549SOL    HW220752   3.800   0.570   1.848 -0.6326 -0.6451 -1.4688
 3550SOL     OW20753   0.797   4.390   0.338 -0.3029 -0.3874  0.3221
 3550SOL    HW120754   0.727   4.346   0.282  0.7851 -1.8964  0.1032
 3550SOL    HW220755   0.762   4.405   0.430 -1.4374  0.3207 -0.2067
 3551SOL     OW20756   0.573   9.068   0.913 -0.0156 -0.2162 -0.4159
 3551SOL    HW120757   0.635   9.046   0.837 -0.5402 -1.9667 -0.3534
 3551SOL    HW220758   0.501   9.129   0.881  0.5061  0.0973 -1.0059
 3552SOL     OW20759   0.781   5.079   2.320  0.1039 -0.0251  0.1714
 3552SOL    HW120760   0.744   5.163   2.281 -2.6950 -1.9805 -1.5049
 3552SOL    HW220761   0.744   5.066   2.412 -2.2060 -1.1589 -0.8928
 3553SOL     OW20762   0.774   8.183   0.977 -0.1743  0.3931  0.1970
 3553SOL    HW120763   0.730   8.188   0.887 -0.4293  0.0499  0.2980
 3553SOL    HW220764   0.776   8.273   1.018  0.2022  0.6037 -0.2764
 3554SOL     OW20765   9.547   6.847   1.279 -0.4033 -0.2205 -0.1760
 3554SOL    HW120766   9.514   6.931   1.321 -0.4518 -0.2169 -0.2200
 3554SOL    HW220767   9.548   6.773   1.346 -0.5176 -0.2244 -0.1794
 3555SOL     OW20768   8.268   1.772   1.009  0.1771 -0.1596 -0.0129
 3555SOL    HW120769   8.356   1.807   0.975  0.1273  0.3254  0.3500
 3555SOL    HW220770   8.226   1.714   0.939  0.3941  0.2790 -0.5132
 3556SOL     OW20771   3.489   3.649   1.874 -0.1649  0.1596  0.7104
 3556SOL    HW120772   3.450   3.727   1.826 -1.6683 -0.3477  1.0995
 3556SOL    HW220773   3.482   3.663   1.973 -0.8483 -0.6721  0.7815
 3557SOL     OW20774   1.802   3.506   1.718  0.0220  0.2344 -0.4353
 3557SOL    HW120775   1.771   3.461   1.802  0.8820 -0.9665 -0.7508
 3557SOL    HW220776   1.733   3.572   1.688  0.5488  2.0916  2.2641
 3558SOL     OW20777   8.741   9.861   0.173  0.0095 -0.1847 -0.1286
 3558SOL    HW120778   8.840   9.866   0.163 -0.1021 -0.5199 -1.5797
 3558SOL    HW220779   8.711   9.767   0.159 -0.5500 -0.0197 -0.0429
 3559SOL     OW20780   0.736   6.373   1.234 -0.1421 -0.2243  0.2645
 3559SOL    HW120781   0.779   6.310   1.170  1.1128  0.1099  0.7637
 3559SOL    HW220782   0.804   6.406   1.299 -1.0588  0.6747  0.7821
 3560SOL     OW20783   8.801   8.759   0.172 -0.2852 -0.3420 -0.2763
 3560SOL    HW120784   8.850   8.784   0.089  0.0281 -0.2297 -0.0606
 3560SOL    HW220785   8.739   8.834   0.198  0.4570  0.1089  0.2210
 3561SOL     OW20786   0.446   7.826   0.528 -0.0735  0.2201  0.1286
 3561SOL    HW120787   0.366   7.769   0.547  0.1049 -0.1396 -0.1980
 3561SOL    HW220788   0.515   7.772   0.480  0.0204  0.7551 -0.3511
 3562SOL     OW20789   2.222   9.006   1.988 -0.2082  0.1461  0.5134
 3562SOL    HW120790   2.322   9.009   1.996  0.0427 -0.2681 -1.9534
 3562SOL    HW220791   2.183   9.093   2.020  1.1397  1.2207 -0.6833
 3563SOL     OW20792   0.742   8.121   1.672  0.1797 -0.6373 -0.2077
 3563SOL    HW120793   0.659   8.160   1.713  0.9297  0.9903 -0.1968
 3563SOL    HW220794   0.733   8.022   1.667 -1.7961 -0.4726 -0.2694
 3564SOL     OW20795   9.976   8.564   0.203  0.3647 -0.2801  1.0533
 3564SOL    HW120796   9.926   8.526   0.280  2.1332 -3.5986  0.6390
 3564SOL    HW220797  10.054   8.616   0.236 -0.4860  0.7069  1.5427
 3565SOL     OW20798   3.847   9.027   2.073  0.2110  0.3734 -0.6615
 3565SOL    HW120799   3.932   9.076   2.093  0.0568  0.0254  0.8772
 3565SOL    HW220800   3.836   8.952   2.138 -2.6304  2.0532  0.8737
 3566SOL     OW20801   3.905   3.985   1.046  0.8037 -0.5801 -0.1583
 3566SOL    HW120802   3.843   4.056   1.012 -0.1703 -0.1010  2.5320
 3566SOL    HW220803   3.856   3.898   1.051  1.2850 -0.9132 -1.0588
 3567SOL     OW20804   3.247   4.168   1.920 -0.3590 -0.1224  0.1023
 3567SOL    HW120805   3.327   4.212   1.961  0.7648 -2.5205  0.5619
 3567SOL    HW220806   3.242   4.191   1.823 -0.0126  1.3192  0.4254
 3568SOL     OW20807   2.836   8.063   1.919 -0.2312  0.4782 -0.3997
 3568SOL    HW120808   2.816   8.082   2.015 -1.6971 -0.7188 -0.4349
 3568SOL    HW220809   2.865   8.146   1.873  0.3990  1.0746  1.0650
 3569SOL     OW20810   9.253   2.994   1.317  0.1156 -0.1205 -0.1723
 3569SOL    HW120811   9.333   2.941   1.291  0.7377  0.8656 -0.2855
 3569SOL    HW220812   9.248   3.077   1.262 -0.9027 -0.1011 -0.0660
 3570SOL     OW20813   0.167   0.131   2.514  0.2318 -0.3529  0.0507
 3570SOL    HW120814   0.206   0.211   2.467  1.2137  0.8305  2.8109
 3570SOL    HW220815   0.074   0.152   2.543  0.4184 -0.2893  0.5989
 3571SOL     OW20816   9.475   3.912   1.133  0.0930 -0.1267 -0.3835
 3571SOL    HW120817   9.518   3.869   1.212 -0.2627  0.8563  0.3642
 3571SOL    HW220818   9.423   3.844   1.081  0.4693 -0.8072  0.1402
 3572SOL     OW20819   0.523   6.079   0.185 -0.0771 -0.1890 -0.1603
 3572SOL    HW120820   0.474   6.166   0.191 -1.2318 -0.7961 -0.6367
 3572SOL    HW220821   0.576   6.076   0.100  0.9679  0.5612  0.4636
 3573SOL     OW20822   3.607   1.803   2.138  0.2902 -0.0092 -0.8706
 3573SOL    HW120823   3.550   1.722   2.126  0.1039  0.1112 -0.8183
 3573SOL    HW220824   3.587   1.845   2.227  2.4320 -1.5023  0.3630
 3574SOL     OW20825   4.822   2.906   0.246 -0.3314  0.0044 -0.0619
 3574SOL    HW120826   4.784   2.892   0.337 -2.0875  0.0923 -0.7566
 3574SOL    HW220827   4.893   2.838   0.228  0.6013  0.5113  1.6679
 3575SOL     OW20828   8.392   7.752   2.168  0.0552  0.4429 -0.1599
 3575SOL    HW120829   8.416   7.671   2.221  2.9234 -0.4896 -2.7219
 3575SOL    HW220830   8.458   7.825   2.188 -0.8060  1.1786  0.0049
 3576SOL     OW20831   1.596   0.106   0.139 -0.5204 -0.0822 -0.5920
 3576SOL    HW120832   1.637   0.023   0.100 -1.4902 -1.1148  0.5330
 3576SOL    HW220833   1.533   0.080   0.212 -0.4970  1.6910  0.0678
 3577SOL     OW20834   2.844   2.814   0.753  0.0991  0.5785 -0.0448
 3577SOL    HW120835   2.936   2.849   0.770  0.4765 -0.3673 -0.1211
 3577SOL    HW220836   2.846   2.715   0.750 -1.2439  0.4686  1.8625
 3578SOL     OW20837   3.807   5.000   0.087 -0.1943 -0.0417 -0.3302
 3578SOL    HW120838   3.710   4.994   0.110 -0.7483  1.1695 -2.3072
 3578SOL    HW220839   3.826   4.946   0.006  1.0404 -1.2405  0.7302
 3579SOL     OW20840   9.172   0.617   2.005 -0.0271  0.0650  0.0682
 3579SOL    HW120841   9.188   0.551   1.932  0.0105 -2.3832  2.2011
 3579SOL    HW220842   9.236   0.600   2.080 -2.1393  0.3583  2.0255
 3580SOL     OW20843   1.116   5.519   2.539  0.4048  0.3916 -0.1905
 3580SOL    HW120844   1.034   5.506   2.484 -0.5125 -0.0110  1.2362
 3580SOL    HW220845   1.131   5.438   2.596  2.1059  0.2432 -0.8438
 3581SOL     OW20846   2.672   5.800   1.509  0.1766  0.2127  0.1166
 3581SOL    HW120847   2.602   5.745   1.463  0.0584  0.6350 -0.2210
 3581SOL    HW220848   2.751   5.743   1.529  0.2280  0.0159 -0.6122
 3582SOL     OW20849   1.343   2.160   2.361 -0.3039 -0.2427  0.3863
 3582SOL    HW120850   1.312   2.202   2.275  0.1021 -1.9227 -0.6086
 3582SOL    HW220851   1.299   2.071   2.371  0.0675 -0.2828  1.6740
 3583SOL     OW20852   3.734   9.236   1.932 -0.1231 -0.1286  0.0811
 3583SOL    HW120853   3.638   9.242   1.904 -0.0383 -0.1301 -0.2100
 3583SOL    HW220854   3.742   9.176   2.012 -0.4808  0.5740  0.6505
 3584SOL     OW20855   0.877   0.181   2.225 -0.1762 -0.2094 -0.1905
 3584SOL    HW120856   0.972   0.213   2.233 -0.1442 -0.4077  0.2377
 3584SOL    HW220857   0.860   0.151   2.131 -0.5287  2.1170 -0.9084
 3585SOL     OW20858   0.716   0.586   0.708 -0.2337  0.4231 -0.9692
 3585SOL    HW120859   0.653   0.662   0.690  0.4114  0.9350 -1.0800
 3585SOL    HW220860   0.810   0.620   0.710 -0.0246 -0.1704  0.1377
 3586SOL     OW20861   2.459   8.023   0.760 -0.1602 -0.5302 -0.0389
 3586SOL    HW120862   2.380   8.075   0.793  1.4365  1.9254 -0.0165
 3586SOL    HW220863   2.447   8.004   0.662 -0.4369  0.4454 -0.1971
 3587SOL     OW20864   9.722   0.577   0.269  0.8008  0.3884  0.1999
 3587SOL    HW120865   9.754   0.507   0.205  1.3415  0.5396  0.3112
 3587SOL    HW220866   9.641   0.543   0.317 -0.1422  0.5874 -1.1754
 3588SOL     OW20867   7.682   9.415   2.423 -0.1915 -0.5767 -0.0170
 3588SOL    HW120868   7.624   9.450   2.350  1.3068  0.2707 -0.8229
 3588SOL    HW220869   7.757   9.478   2.439 -0.0692 -1.1322  1.7467
 3589SOL     OW20870   9.857   9.449   2.269 -0.0442 -0.5112 -0.1737
 3589SOL    HW120871   9.846   9.404   2.358 -1.2622  1.4774  0.7188
 3589SOL    HW220872   9.944   9.421   2.229 -0.3481 -2.9302  0.7457
 3590SOL     OW20873   8.271   0.647   1.928  0.0232  0.4442 -0.2001
 3590SOL    HW120874   8.191   0.592   1.903 -1.3218  2.7798 -1.1837
 3590SOL    HW220875   8.255   0.692   2.015  0.5065  0.5251 -0.1490
 3591SOL     OW20876   0.801   3.135   1.095  0.3215 -0.0949  0.2590
 3591SOL    HW120877   0.772   3.051   1.140 -0.7047  0.6308  0.9511
 3591SOL    HW220878   0.813   3.207   1.162 -0.4879  0.7920 -0.5286
 3592SOL     OW20879   1.809   2.350   1.478 -0.6902  0.2209  0.7647
 3592SOL    HW120880   1.714   2.345   1.507 -1.1909 -0.5508 -0.9699
 3592SOL    HW220881   1.818   2.415   1.403  0.1557  0.3261  0.9487
 3593SOL     OW20882   1.186   7.180   2.474 -0.5387 -0.0051 -0.1802
 3593SOL    HW120883   1.094   7.202   2.506 -0.4390 -2.4720  1.9895
 3593SOL    HW220884   1.240   7.144   2.550  1.6043 -0.4857 -1.8754
 3594SOL     OW20885   3.437   4.077   0.756 -0.3603  0.1213 -0.0113
 3594SOL    HW120886   3.518   4.036   0.798  0.2446  0.1762 -1.1025
 3594SOL    HW220887   3.372   4.005   0.732 -1.0357  0.1559  1.6908
 3595SOL     OW20888   0.028   1.471   0.134 -0.1298 -0.5566  0.1445
 3595SOL    HW120889  -0.067   1.447   0.113 -0.0806  0.3128 -1.1610
 3595SOL    HW220890   0.087   1.392   0.115 -0.4221 -0.6289 -0.5000
 3596SOL     OW20891   9.094   7.419   0.830 -1.2273 -0.5144  0.4529
 3596SOL    HW120892   9.038   7.337   0.838 -0.3298 -1.1234  0.5429
 3596SOL    HW220893   9.054   7.481   0.763 -2.0417 -0.9116  0.5684
 3597SOL     OW20894   2.501   5.428   1.726  0.0180  0.1796  0.5302
 3597SOL    HW120895   2.465   5.509   1.773 -0.7736 -0.3833  0.9041
 3597SOL    HW220896   2.518   5.356   1.793 -3.6920 -1.5967 -0.2842
 3598SOL     OW20897   1.181   7.037   0.358  0.2055 -0.1062  0.0408
 3598SOL    HW120898   1.081   7.030   0.365  0.2617  0.6156  2.0339
 3598SOL    HW220899   1.212   7.115   0.413  2.0130 -1.3070  0.7441
 3599SOL     OW20900   0.197   3.974   1.798 -0.3758 -0.2963 -0.4042
 3599SOL    HW120901   0.244   3.900   1.749  0.1676 -1.2289  1.4977
 3599SOL    HW220902   0.163   3.941   1.886  2.4122  2.4119  1.8223
 3600SOL     OW20903   9.231   4.134   2.025 -0.4180  0.4614 -0.3011
 3600SOL    HW120904   9.216   4.217   2.080 -0.8668 -0.1818  0.5656
 3600SOL    HW220905   9.325   4.103   2.038 -0.4819  0.3892  0.0064
 3601SOL     OW20906   2.328   1.202   1.956  0.0514 -0.2227 -0.2362
 3601SOL    HW120907   2.277   1.177   1.874 -0.8086 -0.8245  0.4677
 3601SOL    HW220908   2.275   1.176   2.037  0.3409  1.4515  0.5169
 3602SOL     OW20909   9.796   6.502   1.113 -0.1321  0.0093 -0.2782
 3602SOL    HW120910   9.808   6.600   1.095  1.5609  0.1722  1.6004
 3602SOL    HW220911   9.823   6.450   1.032  0.6460  1.0048 -0.6691
 3603SOL     OW20912   3.352   2.404   2.126  0.1533 -0.2655 -0.3462
 3603SOL    HW120913   3.325   2.310   2.110 -0.4167  0.1176 -1.6866
 3603SOL    HW220914   3.330   2.460   2.046 -1.9623  1.5349  1.4370
 3604SOL     OW20915   9.990   0.580   0.016 -0.3260 -0.9572 -0.4996
 3604SOL    HW120916  10.064   0.575   0.083 -0.0975  2.7006 -0.4066
 3604SOL    HW220917   9.917   0.517   0.044  0.3009 -0.4592  2.4880
 3605SOL     OW20918   3.624   3.794   2.540 -0.1897 -0.5636 -0.3569
 3605SOL    HW120919   3.558   3.735   2.586 -1.6333  1.4366  0.2043
 3605SOL    HW220920   3.624   3.774   2.442 -2.3057  0.0159 -0.4926
 3606SOL     OW20921   8.740   3.531   1.189 -0.6163  0.5059 -0.4776
 3606SOL    HW120922   8.677   3.453   1.185 -1.6314  1.1876  1.3712
 3606SOL    HW220923   8.754   3.558   1.285  2.8011  0.1519 -0.8003
 3607SOL     OW20924   2.340   6.430   0.334 -0.3788 -0.1266  0.1652
 3607SOL    HW120925   2.300   6.439   0.425 -0.2341  1.2893  0.1033
 3607SOL    HW220926   2.266   6.419   0.267 -0.6838  2.2468  0.0792
 3608SOL     OW20927   8.439   1.144   0.326  0.4674 -0.2237  0.1660
 3608SOL    HW120928   8.526   1.169   0.368  1.1219  1.4839 -2.1011
 3608SOL    HW220929   8.445   1.051   0.289  1.4386  0.0190 -0.2931
 3609SOL     OW20930   1.072   1.936   2.101  0.2319  0.3900 -0.8418
 3609SOL    HW120931   1.112   1.914   2.012  0.7133 -3.1715  0.1714
 3609SOL    HW220932   1.137   1.914   2.173 -1.8231 -1.1554  0.6050
 3610SOL     OW20933   8.902   6.778   2.448  0.7672 -0.2396  0.6500
 3610SOL    HW120934   8.949   6.862   2.420  1.6186 -0.9216  0.0201
 3610SOL    HW220935   8.814   6.802   2.490  1.5371  1.0286  1.5912
 3611SOL     OW20936   1.909   9.049   0.170 -0.1221  0.1526  0.5268
 3611SOL    HW120937   1.923   9.029   0.267 -0.5679  0.7736  0.7248
 3611SOL    HW220938   1.855   8.976   0.128  2.4646 -1.5630  0.0699
 3612SOL     OW20939   1.217   8.472   2.531  0.3513 -0.1982 -0.4537
 3612SOL    HW120940   1.275   8.412   2.475 -0.3629 -0.3911 -0.9894
 3612SOL    HW220941   1.179   8.544   2.474  0.1036 -0.0422 -0.0899
 3613SOL     OW20942   9.342   7.626   1.401 -0.3998 -0.0685  0.0539
 3613SOL    HW120943   9.320   7.603   1.496 -1.5152 -0.5108 -0.3066
 3613SOL    HW220944   9.323   7.722   1.384  1.7503  0.5296  0.8310
 3614SOL     OW20945   0.728   1.274   1.997  0.8535 -0.6580  0.3454
 3614SOL    HW120946   0.801   1.265   1.929 -0.4061 -1.4294 -0.9215
 3614SOL    HW220947   0.673   1.191   1.998 -1.0677  0.5653  0.0387
 3615SOL     OW20948   9.054   2.936   0.460  0.4106 -0.4296 -0.0006
 3615SOL    HW120949   8.956   2.925   0.445  0.7870 -3.8974 -0.2634
 3615SOL    HW220950   9.104   2.887   0.389  2.3843  1.5511 -0.0375
 3616SOL     OW20951   1.748   2.685   1.123 -0.3411  0.1623  0.0332
 3616SOL    HW120952   1.756   2.642   1.213 -1.6333  1.6508  0.8940
 3616SOL    HW220953   1.668   2.649   1.075  0.5556 -0.8974 -0.6829
 3617SOL     OW20954   9.811   4.857   0.260 -0.8580 -0.5205  0.3360
 3617SOL    HW120955   9.883   4.800   0.299 -1.2617 -1.9197 -0.9208
 3617SOL    HW220956   9.752   4.891   0.334  0.4914 -0.1734  1.2707
 3618SOL     OW20957   0.683   4.142   1.692  0.1689 -0.1482  0.4898
 3618SOL    HW120958   0.675   4.207   1.767  0.3434  0.9241 -0.4045
 3618SOL    HW220959   0.615   4.164   1.621 -0.9606 -2.0227  0.9691
 3619SOL     OW20960   0.057   6.659   1.166 -0.1012  0.4487  0.6695
 3619SOL    HW120961  -0.019   6.718   1.140  0.3314  0.3982 -0.7351
 3619SOL    HW220962   0.041   6.622   1.258 -1.8003  0.3820  0.3505
 3620SOL     OW20963   1.444   3.324   0.014  0.5321 -0.5505 -0.0159
 3620SOL    HW120964   1.498   3.359  -0.062 -0.3814  3.2009  0.9559
 3620SOL    HW220965   1.348   3.316  -0.013  0.1159  1.2851  0.8398
 3621SOL     OW20966   1.765   4.519   1.258  0.1265 -0.3856 -0.2685
 3621SOL    HW120967   1.807   4.566   1.180  0.3130  0.7061  0.4899
 3621SOL    HW220968   1.743   4.425   1.231  0.4655 -0.1160 -1.5485
 3622SOL     OW20969   2.493   2.575   0.617  0.2437 -0.0651  0.4957
 3622SOL    HW120970   2.581   2.567   0.570  0.6454 -0.6361  1.3469
 3622SOL    HW220971   2.487   2.505   0.688 -1.6884 -1.2796 -0.8179
 3623SOL     OW20972   2.986   9.728   0.624  0.4465 -0.2211  0.7030
 3623SOL    HW120973   2.922   9.804   0.616  1.8319  1.0078  0.9481
 3623SOL    HW220974   3.056   9.735   0.553  2.4044  0.5429  2.6430
 3624SOL     OW20975   1.404   0.412   0.566 -0.3239 -0.0617  0.3030
 3624SOL    HW120976   1.350   0.461   0.497 -0.7219  1.2783  1.5383
 3624SOL    HW220977   1.486   0.466   0.588  0.9122 -1.4941 -0.6603
 3625SOL     OW20978   2.077   7.751   0.095  0.1820 -0.4684  0.3808
 3625SOL    HW120979   2.082   7.795   0.005  2.4978  0.7432  1.0631
 3625SOL    HW220980   2.018   7.804   0.156 -0.1705 -0.4606  0.0349
 3626SOL     OW20981   0.747   6.930   2.072 -0.7802 -0.0130  0.3390
 3626SOL    HW120982   0.714   6.857   2.133 -1.2158  0.3048  0.4861
 3626SOL    HW220983   0.683   7.006   2.074 -0.3716  0.3379  0.1085
 3627SOL     OW20984   1.885   1.577   1.509  0.2444 -0.1906 -0.3189
 3627SOL    HW120985   1.930   1.488   1.503 -1.5252 -1.3527  2.4571
 3627SOL    HW220986   1.912   1.623   1.594 -1.8013  0.1934  0.1636
 3628SOL     OW20987   0.081   1.611   1.511 -0.0213 -0.0198  0.1481
 3628SOL    HW120988   0.112   1.643   1.421 -2.8156 -1.0122 -1.2033
 3628SOL    HW220989   0.091   1.686   1.577  0.6211  1.2134 -1.2970
 3629SOL     OW20990   0.122   4.640   2.119  0.4262 -0.1480 -0.4039
 3629SOL    HW120991   0.171   4.567   2.166 -1.9483 -1.4093  0.1770
 3629SOL    HW220992   0.092   4.608   2.029 -1.9792 -0.4600  0.4800
 3630SOL     OW20993   2.102   2.155   0.372 -0.5887 -0.6254 -0.0243
 3630SOL    HW120994   2.189   2.204   0.376 -1.8254  1.8176 -1.9134
 3630SOL    HW220995   2.054   2.167   0.459  0.1788 -0.5287  0.3955
 3631SOL     OW20996   9.911   7.259   2.510 -0.1868  0.0268  0.2785
 3631SOL    HW120997   9.885   7.174   2.555  0.3929  0.1780  0.9178
 3631SOL    HW220998   9.850   7.333   2.540  0.5982  0.2609  1.3272
 3632SOL     OW20999   3.542   4.739   1.202 -0.0310 -0.3758 -0.3529
 3632SOL    HW121000   3.506   4.721   1.294 -0.0186 -1.5258 -0.5574
 3632SOL    HW221001   3.496   4.819   1.163  0.2538  0.3697  0.8061
 3633SOL     OW21002   0.424   7.708   0.100  0.5704  0.0462 -0.7085
 3633SOL    HW121003   0.368   7.629   0.125 -0.3458 -0.4180 -4.0051
 3633SOL    HW221004   0.441   7.763   0.182 -0.5823 -2.3931  1.2634
 3634SOL     OW21005   9.872   4.326   1.562  0.5585  0.4670  0.5040
 3634SOL    HW121006   9.794   4.366   1.610  0.0083 -0.8324  0.6972
 3634SOL    HW221007   9.953   4.332   1.620  0.1427 -0.0780  1.1440
 3635SOL     OW21008   9.154   6.792   1.267 -0.3053 -0.1971  0.0963
 3635SOL    HW121009   9.156   6.786   1.167 -1.2800 -0.6165  0.0972
 3635SOL    HW221010   9.085   6.859   1.295 -0.8449 -0.9084  0.5076
 3636SOL     OW21011   0.532   4.625   0.084  0.1181 -0.0146 -0.0259
 3636SOL    HW121012   0.585   4.549   0.046 -1.0742 -0.9875  0.2268
 3636SOL    HW221013   0.497   4.682   0.009  0.9273  0.2209 -0.2231
 3637SOL     OW21014   0.532   8.106   1.465 -0.0337  0.5243 -0.3819
 3637SOL    HW121015   0.542   8.122   1.367  0.7780 -0.6878 -0.5040
 3637SOL    HW221016   0.596   8.035   1.494  0.8732  1.9946  1.3342
 3638SOL     OW21017   1.299   3.524   1.227  0.0528  0.1666 -0.1810
 3638SOL    HW121018   1.342   3.443   1.266 -0.3920  0.4503  0.9178
 3638SOL    HW221019   1.337   3.542   1.137  1.1269 -0.4837  0.1350
 3639SOL     OW21020   3.941   3.376   2.220 -0.4425 -0.7745  0.1480
 3639SOL    HW121021   3.916   3.408   2.311  1.3542 -2.0682  1.1387
 3639SOL    HW221022   3.898   3.434   2.151 -1.6228  0.3812  1.8096
 3640SOL     OW21023   3.531   3.970   1.412 -0.2848  0.2419 -0.4095
 3640SOL    HW121024   3.618   3.984   1.364  0.2134  1.2810  0.7692
 3640SOL    HW221025   3.502   3.875   1.400  0.6767  0.0541 -1.3629
 3641SOL     OW21026   8.167   8.924   0.122 -0.0796  0.1928  0.1455
 3641SOL    HW121027   8.171   8.835   0.166 -0.5976 -0.4999 -1.1816
 3641SOL    HW221028   8.077   8.966   0.140  0.2564  0.5786  0.9834
 3642SOL     OW21029   2.139   2.991   0.132 -0.1139  0.3264 -0.0420
 3642SOL    HW121030   2.218   3.051   0.117  0.9940 -0.9387  0.6236
 3642SOL    HW221031   2.159   2.927   0.206 -1.5723 -0.3815 -0.2314
 3643SOL     OW21032   8.541   9.766   2.076 -0.4201 -0.1573 -0.4250
 3643SOL    HW121033   8.558   9.696   2.006 -2.1546  0.1752 -1.2102
 3643SOL    HW221034   8.543   9.856   2.034 -2.4870 -0.0167 -0.2507
 3644SOL     OW21035   1.151   2.904   1.256  0.4107  0.0402  0.0653
 3644SOL    HW121036   1.251   2.906   1.257  0.4137 -0.6573  1.5530
 3644SOL    HW221037   1.119   2.939   1.168  1.9502  0.5581 -0.3183
 3645SOL     OW21038   9.430   0.314   0.707  0.1269  0.0128 -0.0208
 3645SOL    HW121039   9.479   0.228   0.703  2.5022  1.3880 -1.6874
 3645SOL    HW221040   9.362   0.318   0.634  0.3932 -0.2149 -0.2809
 3646SOL     OW21041   2.364   7.165   0.341  0.3429  0.0439  0.4403
 3646SOL    HW121042   2.274   7.205   0.325 -0.3325 -1.5631  0.0728
 3646SOL    HW221043   2.374   7.144   0.439  0.2992  0.2011  0.4779
 3647SOL     OW21044   1.959   1.324   1.521 -0.6418 -0.0856  0.1324
 3647SOL    HW121045   1.916   1.263   1.454 -0.6578  1.5002 -1.3292
 3647SOL    HW221046   1.962   1.278   1.611 -2.5301 -1.4161 -0.4577
 3648SOL     OW21047   1.047   9.118   1.016 -0.4144  0.2497  0.2068
 3648SOL    HW121048   1.085   9.172   0.941 -0.5214  2.4000  1.6758
 3648SOL    HW221049   1.065   9.163   1.103 -1.9808 -1.2310  1.3452
 3649SOL     OW21050   1.987   4.149   1.278  0.0286 -0.2132 -0.2853
 3649SOL    HW121051   2.015   4.214   1.349 -0.6643  0.3778 -0.5449
 3649SOL    HW221052   1.921   4.084   1.316  0.4063 -0.5019 -0.1309
 3650SOL     OW21053   3.482   5.396   1.119 -0.0853 -0.7334 -0.4710
 3650SOL    HW121054   3.468   5.495   1.124  0.3598 -0.7506  1.3811
 3650SOL    HW221055   3.403   5.353   1.077 -1.1364  0.2049  0.5285
 3651SOL     OW21056   9.853   1.444   0.949  0.0591  0.4660  0.8510
 3651SOL    HW121057   9.786   1.400   0.889 -0.5267  0.5991  1.3977
 3651SOL    HW221058   9.826   1.431   1.044 -0.1312  2.0122  1.0158
 3652SOL     OW21059   1.321   1.683   2.091  0.2649 -0.0537 -0.6340
 3652SOL    HW121060   1.288   1.759   2.036  0.2725  1.1977  1.0406
 3652SOL    HW221061   1.417   1.699   2.115  0.0587 -0.2003  0.3334
 3653SOL     OW21062   3.775   8.972   0.461  0.1669  0.6789  0.3390
 3653SOL    HW121063   3.720   8.982   0.543 -0.1035  2.0068 -0.0055
 3653SOL    HW221064   3.869   8.949   0.487 -0.0334  0.5951  0.9937
 3654SOL     OW21065   4.407   3.432   0.182 -0.0634 -0.3715 -0.6326
 3654SOL    HW121066   4.432   3.482   0.099  0.6925 -0.2750 -0.3479
 3654SOL    HW221067   4.473   3.452   0.254 -0.6988 -0.4827 -0.0142
 3655SOL     OW21068   3.058   8.240   1.738 -0.0685  0.1252  0.7814
 3655SOL    HW121069   3.106   8.222   1.652  0.0248  0.3965  0.7760
 3655SOL    HW221070   3.087   8.329   1.774  1.0004 -0.6296  1.8430
 3656SOL     OW21071   1.691   9.059   1.393  0.3243  0.6969 -0.4222
 3656SOL    HW121072   1.736   9.036   1.479  1.1488  2.6857 -0.2962
 3656SOL    HW221073   1.721   8.996   1.322 -1.6186 -1.9993  1.0937
 3657SOL     OW21074   2.856   4.105   0.084  0.5320  0.1153 -0.3663
 3657SOL    HW121075   2.807   4.083  -0.000  0.6035  0.1167 -0.4079
 3657SOL    HW221076   2.886   4.021   0.129  1.7351  0.1655 -1.0687
 3658SOL     OW21077   2.124   8.752   2.016  0.0290 -0.5810  0.5761
 3658SOL    HW121078   2.152   8.848   2.015  1.7323 -1.0625 -0.0825
 3658SOL    HW221079   2.024   8.746   2.017 -0.1067  1.1945 -0.6797
 3659SOL     OW21080   3.503   8.713   1.081  0.6136 -0.2232 -0.1530
 3659SOL    HW121081   3.560   8.684   1.003  0.7916  0.5912 -0.3279
 3659SOL    HW221082   3.415   8.666   1.077 -0.3680  1.7087 -2.2941
 3660SOL     OW21083   4.104   4.093   1.413  0.1394 -0.7437 -0.4162
 3660SOL    HW121084   4.025   4.146   1.444 -0.7131 -1.4063 -1.4578
 3660SOL    HW221085   4.142   4.042   1.491  0.6740  0.9696  0.4955
 3661SOL     OW21086   0.624   5.922   1.375 -0.4335 -0.0203 -0.4388
 3661SOL    HW121087   0.598   6.011   1.412  3.4371  1.9613 -2.2847
 3661SOL    HW221088   0.693   5.880   1.434 -0.1826 -0.5249 -1.0886
 3662SOL     OW21089   0.442   1.427   0.657  0.9341 -0.3954  0.3706
 3662SOL    HW121090   0.431   1.373   0.740  1.6398 -0.8754  0.1561
 3662SOL    HW221091   0.457   1.523   0.681 -1.3582 -0.1012  0.7239
 3663SOL     OW21092   0.005   9.317   1.440  0.0014  0.5136  0.7027
 3663SOL    HW121093  -0.041   9.405   1.456  2.2703  1.5670  1.7421
 3663SOL    HW221094   0.052   9.320   1.352 -0.7809 -0.0477  0.2660
 3664SOL     OW21095   4.133   8.846   1.999  0.0733 -0.0331 -0.4293
 3664SOL    HW121096   4.154   8.864   1.903  0.7089 -1.1724 -0.5041
 3664SOL    HW221097   4.115   8.933   2.046  1.8249  0.7138 -1.0950
 3665SOL     OW21098   0.632   8.222   0.740  0.1371 -0.7656 -0.1579
 3665SOL    HW121099   0.553   8.161   0.743 -0.9496  0.3882 -3.1969
 3665SOL    HW221100   0.693   8.194   0.667  0.1265  1.1636 -0.9318
 3666SOL     OW21101   0.971   9.572   0.471 -0.5383  0.1605  0.2075
 3666SOL    HW121102   0.972   9.666   0.437 -0.4589  0.2292  0.4028
 3666SOL    HW221103   1.018   9.567   0.559 -1.7439  0.1961  0.8665
 3667SOL     OW21104   2.846   2.586   1.435 -0.2082 -0.6417 -0.0122
 3667SOL    HW121105   2.797   2.508   1.396 -1.6388 -0.6515  1.6791
 3667SOL    HW221106   2.804   2.671   1.403  0.1420 -0.6137 -0.3866
 3668SOL     OW21107   0.048   3.423   1.107 -0.1401 -0.0385  0.3987
 3668SOL    HW121108   0.021   3.495   1.042 -1.0167  0.7491  1.6116
 3668SOL    HW221109   0.143   3.438   1.135  0.4125 -0.6968 -1.1126
 3669SOL     OW21110   0.431   8.724   0.720 -0.0883  0.4048  0.3971
 3669SOL    HW121111   0.402   8.801   0.663  1.4016 -0.0975 -1.0951
 3669SOL    HW221112   0.410   8.743   0.816 -1.4725  1.8259 -0.1676
 3670SOL     OW21113   1.814   0.808   1.392  0.1756 -0.0062 -0.0856
 3670SOL    HW121114   1.806   0.750   1.473 -1.5813 -1.9232 -1.5671
 3670SOL    HW221115   1.881   0.769   1.329  1.6585  1.5655  0.4869
 3671SOL     OW21116   0.632   3.649   0.568  0.5129 -0.2125 -0.3764
 3671SOL    HW121117   0.654   3.577   0.502 -0.5930 -1.1972  0.3022
 3671SOL    HW221118   0.716   3.691   0.601  1.1399 -0.6891 -1.3467
 3672SOL     OW21119   2.133   8.341   2.067 -0.2675  0.3729 -0.1432
 3672SOL    HW121120   2.156   8.245   2.048  0.7013  0.4052  0.8312
 3672SOL    HW221121   2.095   8.382   1.984 -0.5664 -0.8163 -0.6144
 3673SOL     OW21122   2.225   9.185   1.412 -0.3055 -0.5052  0.7906
 3673SOL    HW121123   2.159   9.112   1.395  1.2007 -1.4738 -1.1686
 3673SOL    HW221124   2.199   9.267   1.361  0.1818 -1.0113 -0.2916
 3674SOL     OW21125   9.709   0.421   0.786 -0.5147 -0.3045  0.2621
 3674SOL    HW121126   9.618   0.387   0.810  0.0558 -1.1471  1.2605
 3674SOL    HW221127   9.764   0.429   0.869  0.5705 -0.5286 -0.4330
 3675SOL     OW21128   2.697   3.561   0.787  0.3903  0.3453  0.1172
 3675SOL    HW121129   2.779   3.517   0.824  0.0677  0.0096  0.4404
 3675SOL    HW221130   2.709   3.577   0.689  0.9143  0.4677  0.1987
 3676SOL     OW21131   3.168   1.432   1.727  0.7938 -0.1118 -0.3748
 3676SOL    HW121132   3.194   1.500   1.659  2.3607  0.1175  0.4503
 3676SOL    HW221133   3.150   1.345   1.681  1.0505  0.2488 -1.1665
 3677SOL     OW21134   9.098   1.588   1.993  0.1043 -0.1840  0.1371
 3677SOL    HW121135   9.040   1.662   2.026 -0.6239 -1.2407  1.2790
 3677SOL    HW221136   9.041   1.510   1.967  0.8991 -0.5560 -0.5159
 3678SOL     OW21137   4.507   2.390   2.182  0.0075 -0.1244  0.6567
 3678SOL    HW121138   4.583   2.372   2.120  0.2461 -3.0392  1.7501
 3678SOL    HW221139   4.543   2.431   2.266  0.2199 -0.4506  0.7244
 3679SOL     OW21140   0.973   9.656   1.210 -0.1099 -0.0308  0.9873
 3679SOL    HW121141   0.891   9.681   1.158  0.2797 -1.5273 -0.3691
 3679SOL    HW221142   1.045   9.723   1.192 -0.1362 -0.2639 -0.0442
 3680SOL     OW21143   2.673   9.735   0.933  0.2978  0.7546  0.0051
 3680SOL    HW121144   2.697   9.671   0.860 -1.1918  2.8307 -2.3984
 3680SOL    HW221145   2.640   9.684   1.013  0.0041 -1.5052 -1.5138
 3681SOL     OW21146   1.810   8.234   0.475 -0.4608 -0.2003  0.1622
 3681SOL    HW121147   1.770   8.176   0.405  0.7365 -2.0550  0.9800
 3681SOL    HW221148   1.818   8.328   0.441 -0.1677 -1.0110 -2.0332
 3682SOL     OW21149   0.549   5.510   1.555  0.0981 -0.3780 -0.1788
 3682SOL    HW121150   0.640   5.488   1.592 -0.6701 -0.3858  1.7856
 3682SOL    HW221151   0.485   5.520   1.631 -1.6079 -0.6593 -1.5687
 3683SOL     OW21152   9.048   7.813   1.745  0.1115  0.1707  0.7749
 3683SOL    HW121153   9.025   7.718   1.725  0.2019  0.3061  0.0113
 3683SOL    HW221154   9.139   7.817   1.786  0.0010 -0.0965  1.0451
 3684SOL     OW21155   1.669   8.839   0.481 -0.3490 -0.2099  0.0738
 3684SOL    HW121156   1.607   8.884   0.546 -0.5244 -0.0455 -0.2063
 3684SOL    HW221157   1.652   8.875   0.389  0.5298  0.2202  0.0777
 3685SOL     OW21158   0.403   2.221   1.423 -0.0952 -0.2013 -0.5040
 3685SOL    HW121159   0.396   2.124   1.401 -0.7516 -0.3448  0.3583
 3685SOL    HW221160   0.442   2.232   1.514 -0.3610  0.3350 -0.4530
 3686SOL     OW21161   2.059   4.273   1.878 -0.6994 -0.1636  0.0468
 3686SOL    HW121162   2.116   4.335   1.933 -2.4150  0.7095  0.8891
 3686SOL    HW221163   2.055   4.305   1.784 -1.1783  0.7483  0.3707
 3687SOL     OW21164   3.798   8.418   2.500 -0.2654 -0.4164 -0.2307
 3687SOL    HW121165   3.892   8.451   2.506 -0.2992 -0.1957 -0.9094
 3687SOL    HW221166   3.736   8.483   2.544 -0.0379 -0.8680  0.7900
 3688SOL     OW21167   9.104   3.427   0.427 -0.0233  0.2210 -0.5231
 3688SOL    HW121168   9.160   3.470   0.498  0.1036 -2.1543  0.8645
 3688SOL    HW221169   9.156   3.352   0.386 -0.5975  0.7507 -2.2293
 3689SOL     OW21170   9.478   8.571   0.897 -0.4874 -0.3559  0.2571
 3689SOL    HW121171   9.476   8.581   0.798  1.6600  0.6543  0.2852
 3689SOL    HW221172   9.510   8.480   0.922  2.8683  0.7022 -0.0044
 3690SOL     OW21173   4.616   3.093   0.680 -0.1628  0.6016 -0.0258
 3690SOL    HW121174   4.544   3.036   0.720 -1.5096  2.2985  0.0323
 3690SOL    HW221175   4.599   3.189   0.704  0.7765  1.2919 -2.0281
 3691SOL     OW21176   2.270   1.924   1.142 -0.4009  0.4970 -0.2186
 3691SOL    HW121177   2.328   1.906   1.221  1.3239  1.7131 -1.1633
 3691SOL    HW221178   2.209   1.846   1.126  0.4426 -0.4794  1.2470
 3692SOL     OW21179   0.389   1.022   2.119 -0.2897 -0.2837 -0.8503
 3692SOL    HW121180   0.391   0.963   2.039  0.1737 -0.2856 -0.8346
 3692SOL    HW221181   0.341   1.107   2.097 -0.4589 -0.4258 -1.0311
 3693SOL     OW21182   2.007   3.079   0.634  0.2499  0.8053 -0.0836
 3693SOL    HW121183   1.927   3.122   0.677 -0.5056 -2.1879  1.6677
 3693SOL    HW221184   2.079   3.068   0.703  0.7942  0.1623 -0.7529
 3694SOL     OW21185   1.063   3.001   1.512  0.0271 -0.1242 -0.3019
 3694SOL    HW121186   1.089   2.970   1.420  0.2101 -0.0282 -0.2831
 3694SOL    HW221187   0.977   2.958   1.538 -0.1168 -0.0105 -0.5917
 3695SOL     OW21188   2.107   5.370   1.537  0.4045  0.1635 -0.0776
 3695SOL    HW121189   2.013   5.359   1.571  0.3407 -0.0901 -0.3333
 3695SOL    HW221190   2.143   5.281   1.509  0.3355  0.4192 -0.9938
 3696SOL     OW21191   0.790   4.536   2.301  0.4756 -0.0264  0.0335
 3696SOL    HW121192   0.723   4.590   2.250  1.9149  1.6874 -0.0844
 3696SOL    HW221193   0.876   4.533   2.250  1.5196  0.5795  1.7306
 3697SOL     OW21194   0.519   6.943   1.109 -0.0951 -0.3121 -0.1194
 3697SOL    HW121195   0.460   6.960   1.188  0.6714  0.1652  0.3626
 3697SOL    HW221196   0.499   6.853   1.072  0.1942 -0.9457  1.2219
 3698SOL     OW21197   1.138   0.004   1.802 -0.0288 -0.5930 -0.7065
 3698SOL    HW121198   1.118   0.085   1.747 -0.5704 -0.2164  0.0315
 3698SOL    HW221199   1.060  -0.016   1.861  0.9959 -0.2685  0.7983
 3699SOL     OW21200   4.961   3.285   2.169 -0.0909  0.1926  0.0294
 3699SOL    HW121201   5.055   3.263   2.142  1.3217  1.6843  3.4459
 3699SOL    HW221202   4.939   3.379   2.141  0.1510  0.5264  0.9370
 3700SOL     OW21203   9.890   2.789   1.019 -0.0050 -0.5293 -0.2977
 3700SOL    HW121204   9.960   2.771   1.088  0.5677  0.2661 -0.6787
 3700SOL    HW221205   9.848   2.702   0.991  1.3463 -1.0795 -0.6369
 3701SOL     OW21206   8.946   8.217   1.277 -0.1689  0.2054 -0.0837
 3701SOL    HW121207   8.959   8.174   1.366  0.6078  2.1488  0.7807
 3701SOL    HW221208   8.906   8.307   1.289  2.3249  1.5674 -1.4552
 3702SOL     OW21209   2.737   7.976   2.288 -0.2774  0.3105  0.3054
 3702SOL    HW121210   2.746   7.891   2.237 -0.3568  0.7405 -0.4290
 3702SOL    HW221211   2.719   7.955   2.384 -2.7674 -0.5075 -0.2984
 3703SOL     OW21212   9.751   1.707   1.510  0.2622  0.3503 -0.4500
 3703SOL    HW121213   9.684   1.721   1.584  0.0478 -0.6243 -0.4538
 3703SOL    HW221214   9.843   1.702   1.549  0.2735  1.1143 -0.3823
 3704SOL     OW21215   2.185   3.314   1.841 -0.6820  0.1004  0.0319
 3704SOL    HW121216   2.195   3.216   1.858 -1.9036 -0.0441 -0.0439
 3704SOL    HW221217   2.269   3.350   1.801  0.3899 -0.5681  1.6400
 3705SOL     OW21218   1.229   9.720   1.961  0.4580  0.3034 -0.2310
 3705SOL    HW121219   1.322   9.701   1.993  1.1318  0.9320 -1.7580
 3705SOL    HW221220   1.212   9.671   1.875 -0.6468  0.1249  0.0855
 3706SOL     OW21221   9.578   9.954   0.018 -0.3167 -0.3823  0.2332
 3706SOL    HW121222   9.632   9.889   0.071  2.0526  1.2633 -0.0836
 3706SOL    HW221223   9.534  10.019   0.080  1.0834  0.5003  0.3496
 3707SOL     OW21224   0.585   8.491   1.622 -0.5493  0.4956 -0.5209
 3707SOL    HW121225   0.555   8.482   1.717  0.5338  2.0327 -0.0029
 3707SOL    HW221226   0.635   8.409   1.595  0.2006  0.5445  0.6529
 3708SOL     OW21227   1.072   5.838   1.532  0.2199 -0.2745 -0.0320
 3708SOL    HW121228   1.136   5.820   1.458  2.2325 -0.7995  1.7629
 3708SOL    HW221229   1.028   5.927   1.519  0.8808 -0.1765 -1.5887
 3709SOL     OW21230   8.483   8.894   1.780  0.3290 -0.2941 -0.3623
 3709SOL    HW121231   8.492   8.937   1.870  1.1961 -2.7895  0.7785
 3709SOL    HW221232   8.414   8.943   1.726 -1.0696  0.5102  2.0947
 3710SOL     OW21233   1.411   8.661   1.476  0.5933 -0.7976  0.7753
 3710SOL    HW121234   1.330   8.634   1.424  1.3157  1.4053 -1.6708
 3710SOL    HW221235   1.383   8.692   1.567 -1.4591  0.5868 -0.2567
 3711SOL     OW21236   2.568   5.232   0.509 -0.0933  0.1825  0.1745
 3711SOL    HW121237   2.644   5.194   0.562 -0.0506 -0.6764 -0.4992
 3711SOL    HW221238   2.482   5.194   0.543 -0.2466  1.2908  1.0557
 3712SOL     OW21239   1.382   9.492   0.746 -0.0994 -0.7769 -0.0578
 3712SOL    HW121240   1.442   9.455   0.817 -1.1859  1.3394  2.0465
 3712SOL    HW221241   1.436   9.546   0.681  0.5534 -0.5337  0.6765
 3713SOL     OW21242   4.663   2.187   1.553 -0.4974  0.2643 -0.3613
 3713SOL    HW121243   4.568   2.208   1.530 -1.0143 -0.7001  0.8607
 3713SOL    HW221244   4.680   2.206   1.649 -0.0236 -1.5147 -0.0718
 3714SOL     OW21245   3.762   9.205   1.544  0.0816 -0.3702  0.2388
 3714SOL    HW121246   3.775   9.135   1.474 -4.0639 -2.3519  1.3336
 3714SOL    HW221247   3.686   9.265   1.518  0.6134  0.8964  1.5292
 3715SOL     OW21248   2.090   2.796   1.554  0.5994  0.0111  0.4832
 3715SOL    HW121249   2.030   2.742   1.613  1.4239 -3.6782 -1.8549
 3715SOL    HW221250   2.175   2.816   1.603  0.5746 -1.4755  1.1702
 3716SOL     OW21251   9.450   2.017   0.619  0.5148  0.3758 -0.0883
 3716SOL    HW121252   9.532   1.969   0.588  0.2231 -0.3493  0.2314
 3716SOL    HW221253   9.414   1.972   0.702  1.5436  2.5522  1.5784
 3717SOL     OW21254   1.029   6.677   0.185 -0.0648 -0.1793  0.1904
 3717SOL    HW121255   1.065   6.715   0.100  0.9910 -2.2916 -0.3304
 3717SOL    HW221256   0.952   6.733   0.216 -1.6657 -0.4331 -3.1290
 3718SOL     OW21257   3.126   8.573   2.038 -0.2396  0.0092  0.1259
 3718SOL    HW121258   3.203   8.523   2.079 -0.8690 -0.5230  0.6803
 3718SOL    HW221259   3.057   8.590   2.108 -0.2646  1.2189 -0.1796
 3719SOL     OW21260   1.707   8.036   1.923 -0.2794 -0.1969 -1.0074
 3719SOL    HW121261   1.766   8.051   1.843  0.4193 -1.0240 -0.6594
 3719SOL    HW221262   1.627   7.983   1.896  0.6047 -1.6166 -0.9272
 3720SOL     OW21263   0.218   9.092   1.435 -0.3638 -0.2685  0.3648
 3720SOL    HW121264   0.166   9.140   1.364  3.1351  2.5837 -0.4572
 3720SOL    HW221265   0.190   9.125   1.525 -2.1962 -1.1395  0.1235
 3721SOL     OW21266   1.725   5.813   1.738 -0.2218  0.7352 -0.2414
 3721SOL    HW121267   1.710   5.799   1.836  0.3221 -0.7039 -0.3572
 3721SOL    HW221268   1.821   5.797   1.717 -0.3618  0.9332 -1.0335
 3722SOL     OW21269   3.227   4.337   0.075  0.0935 -0.3629 -0.3437
 3722SOL    HW121270   3.150   4.361   0.134  0.4932  0.4771 -0.1688
 3722SOL    HW221271   3.193   4.303  -0.012 -0.4825 -0.5052 -0.0628
 3723SOL     OW21272   2.407   7.378   1.041 -0.3922 -0.2432 -0.6143
 3723SOL    HW121273   2.400   7.461   1.095  0.2378  0.2959 -1.3496
 3723SOL    HW221274   2.373   7.300   1.094  1.8904 -0.0352  1.2514
 3724SOL     OW21275   2.829   8.407   0.649 -0.0773 -0.3669  0.0168
 3724SOL    HW121276   2.888   8.335   0.686 -0.6775 -0.3280  1.0675
 3724SOL    HW221277   2.781   8.452   0.724 -1.8423 -0.7479 -0.8576
 3725SOL     OW21278   1.879   1.718   1.766  0.1851  0.2434 -0.0284
 3725SOL    HW121279   1.846   1.657   1.838 -0.0865  0.9701  0.4687
 3725SOL    HW221280   1.805   1.779   1.738 -0.2087 -1.1171 -2.0913
 3726SOL     OW21281   3.749   0.915   1.215 -0.3727 -0.1541 -0.0243
 3726SOL    HW121282   3.657   0.918   1.177  0.1141 -0.2424 -1.2631
 3726SOL    HW221283   3.804   0.987   1.173  0.7626 -1.5972 -1.0952
 3727SOL     OW21284   2.985   1.165   0.263 -0.3263 -0.1406 -0.3962
 3727SOL    HW121285   2.976   1.249   0.316  0.8854  0.6520 -1.4391
 3727SOL    HW221286   2.894   1.137   0.230 -0.6375  1.2274 -0.7529
 3728SOL     OW21287   9.773   9.700   2.338 -0.7609 -0.0870 -0.0774
 3728SOL    HW121288   9.821   9.630   2.284  0.7121  1.9433 -1.4774
 3728SOL    HW221289   9.737   9.658   2.421  0.8676 -2.3283 -0.4343
 3729SOL     OW21290   0.191   8.761   1.943 -0.1698  0.2250  0.1294
 3729SOL    HW121291   0.183   8.794   1.849 -1.0217  1.2591  0.5585
 3729SOL    HW221292   0.283   8.778   1.978 -0.2337  0.9926 -0.0848
 3730SOL     OW21293   3.879   4.602   0.853 -0.2099 -0.0357 -0.4230
 3730SOL    HW121294   3.814   4.567   0.920  1.0596 -2.0153 -0.1957
 3730SOL    HW221295   3.829   4.641   0.775 -1.6673  0.9429  0.9781
 3731SOL     OW21296   2.623   2.944   2.359 -0.2434 -0.1522 -0.1598
 3731SOL    HW121297   2.717   2.920   2.336 -0.4597 -0.2138 -1.0081
 3731SOL    HW221298   2.582   2.872   2.415  1.4286  1.6272  3.4910
 3732SOL     OW21299   4.472   9.437   1.283 -0.4355 -0.2736 -0.3751
 3732SOL    HW121300   4.545   9.493   1.322 -0.9932  0.4125 -0.3120
 3732SOL    HW221301   4.383   9.477   1.305 -0.8947 -1.8636  0.7408
 3733SOL     OW21302   3.227   9.202   0.791 -0.2794 -0.8039 -0.2219
 3733SOL    HW121303   3.192   9.226   0.700  0.7053  0.6379 -0.2425
 3733SOL    HW221304   3.260   9.108   0.790 -0.8640 -1.0093 -1.1772
 3734SOL     OW21305   3.116   3.606   2.042  0.0125  1.0092  0.0191
 3734SOL    HW121306   3.073   3.690   2.073 -0.7452  1.0682 -1.1692
 3734SOL    HW221307   3.138   3.613   1.944  1.5487  0.4942  0.3065
 3735SOL     OW21308   3.185   9.665   0.418  0.4513  0.3255  0.4536
 3735SOL    HW121309   3.116   9.613   0.367  0.3497  0.4767  0.4372
 3735SOL    HW221310   3.275   9.621   0.406  0.0464 -0.9652  2.0259
 3736SOL     OW21311   9.014   7.044   2.324 -0.1330 -0.1964 -0.3103
 3736SOL    HW121312   9.056   7.015   2.239 -1.0098  1.3328 -1.2955
 3736SOL    HW221313   9.084   7.078   2.387  0.2895  0.7206 -1.2725
 3737SOL     OW21314   7.762   0.383   0.712  0.8196  0.3996  0.3272
 3737SOL    HW121315   7.735   0.480   0.714 -0.9176 -0.0664  0.2617
 3737SOL    HW221316   7.850   0.374   0.666  0.2251  1.7869 -1.1470
 3738SOL     OW21317   9.274   5.024   1.996  0.0148 -0.0650  0.1003
 3738SOL    HW121318   9.191   5.031   1.940 -0.5695 -2.3030  0.6288
 3738SOL    HW221319   9.315   4.934   1.982  2.0896  0.8492  0.2399
 3739SOL     OW21320   1.099   2.931   0.378 -0.0070  0.4489  0.0103
 3739SOL    HW121321   1.159   2.962   0.304 -0.5567  1.3191 -0.0753
 3739SOL    HW221322   1.087   2.832   0.372 -1.9399  0.8026 -2.4847
 3740SOL     OW21323   8.702   1.426   1.569 -0.1317  0.1629  0.1887
 3740SOL    HW121324   8.776   1.360   1.579  0.0495  0.2538 -0.5543
 3740SOL    HW221325   8.616   1.384   1.597 -0.1283 -0.6231 -0.9554
 3741SOL     OW21326   1.627   2.646   0.650  0.4978 -0.6176  0.2726
 3741SOL    HW121327   1.624   2.593   0.565  0.4495 -0.2313  0.0324
 3741SOL    HW221328   1.579   2.597   0.722 -1.4190  0.0795 -0.4921
 3742SOL     OW21329   8.279   2.351   0.791  0.4528 -0.2041 -0.2229
 3742SOL    HW121330   8.252   2.435   0.839  1.3577  0.2156 -0.4411
 3742SOL    HW221331   8.250   2.356   0.696  0.6074 -0.0921 -0.2637
 3743SOL     OW21332   0.347   7.625   0.915  0.5243  0.3203  0.0761
 3743SOL    HW121333   0.352   7.542   0.858 -4.2519 -0.4312  0.5544
 3743SOL    HW221334   0.328   7.599   1.009 -1.6939  1.9630  0.1011
 3744SOL     OW21335   1.379   0.249   0.824 -0.0207  0.5674 -0.3047
 3744SOL    HW121336   1.361   0.263   0.921  0.4729 -1.2218  0.0692
 3744SOL    HW221337   1.360   0.333   0.774  1.2045  1.9770  1.5374
 3745SOL     OW21338   4.597   3.384   0.727 -0.1698  0.6581 -0.3354
 3745SOL    HW121339   4.682   3.396   0.676  0.5419  0.5470  0.8245
 3745SOL    HW221340   4.606   3.425   0.818 -0.9721 -0.3164  0.1920
 3746SOL     OW21341   9.198   6.587   0.517 -0.3346  0.0301 -0.1358
 3746SOL    HW121342   9.266   6.595   0.444  0.2489  1.0565  0.5193
 3746SOL    HW221343   9.242   6.556   0.601 -0.6643  0.6744  0.2822
 3747SOL     OW21344   2.491   9.939   0.333  0.2747  0.6606  0.2124
 3747SOL    HW121345   2.406   9.986   0.355  0.2823  0.7180  0.1167
 3747SOL    HW221346   2.515   9.878   0.408 -1.0366 -1.0431 -0.7112
 3748SOL     OW21347   1.768   2.467   0.080  0.3025 -0.0626  0.0041
 3748SOL    HW121348   1.828   2.395   0.116  0.9838  0.8484  0.6821
 3748SOL    HW221349   1.819   2.552   0.070 -0.4241  0.2636 -1.0989
 3749SOL     OW21350   8.445   0.421   0.160  0.0258 -0.2454 -0.3054
 3749SOL    HW121351   8.435   0.325   0.136  0.8848  0.0346 -1.9159
 3749SOL    HW221352   8.509   0.431   0.236  0.4135 -0.9139 -0.5420
 3750SOL     OW21353   3.151   0.242   0.659  1.0123  0.5109 -0.4752
 3750SOL    HW121354   3.236   0.294   0.664  1.4029  0.0001 -1.5750
 3750SOL    HW221355   3.105   0.263   0.572  1.3944 -1.3019 -1.1250
 3751SOL     OW21356   1.261   2.600   1.217  0.2216 -0.0773  0.2819
 3751SOL    HW121357   1.267   2.558   1.126  1.5040 -2.2035  1.2915
 3751SOL    HW221358   1.323   2.678   1.222  0.7898 -0.4736 -0.4189
 3752SOL     OW21359   0.848   2.733   2.537  0.4003 -0.5763  0.6186
 3752SOL    HW121360   0.940   2.767   2.557  0.3168  0.6888 -1.1035
 3752SOL    HW221361   0.786   2.810   2.524 -0.2324 -1.3761 -1.2472
 3753SOL     OW21362   0.991   7.048   2.051  0.1670 -0.3301  0.2422
 3753SOL    HW121363   0.904   7.006   2.025 -0.9322  3.2302 -2.2022
 3753SOL    HW221364   1.050   7.055   1.971  1.1872  0.7998  1.0706
 3754SOL     OW21365   3.963   1.081   2.543 -0.2417  0.0192 -0.0021
 3754SOL    HW121366   3.953   0.999   2.598 -0.5482 -0.8576 -1.3262
 3754SOL    HW221367   3.878   1.134   2.546 -0.9665 -1.0260 -1.1630
 3755SOL     OW21368   0.007   7.744   1.073  0.2202  0.0404 -0.1425
 3755SOL    HW121369   0.031   7.747   0.976  0.1601  0.2441 -0.1507
 3755SOL    HW221370  -0.092   7.752   1.083  0.3704  1.8678  0.0251
 3756SOL     OW21371   9.178   7.400   2.407  0.2268 -0.1154  0.2060
 3756SOL    HW121372   9.261   7.455   2.391  0.6504 -0.8779 -0.2279
 3756SOL    HW221373   9.203   7.311   2.443 -0.4549 -0.0868  0.7599
 3757SOL     OW21374   1.377   8.752   2.425  0.2105 -0.0135  0.7176
 3757SOL    HW121375   1.396   8.729   2.330 -1.2781  1.4880  0.0229
 3757SOL    HW221376   1.403   8.676   2.484  0.4051 -1.2716 -0.9687
 3758SOL     OW21377   1.069   3.677   0.655 -0.1938 -0.5873 -0.3412
 3758SOL    HW121378   1.083   3.649   0.560 -0.1909  0.2484 -0.5856
 3758SOL    HW221379   1.157   3.698   0.698 -0.3372  0.6049 -0.6343
 3759SOL     OW21380   0.280   9.620   2.496 -0.0859  0.0374 -0.4033
 3759SOL    HW121381   0.255   9.713   2.469  1.9818  1.1102  1.2537
 3759SOL    HW221382   0.379   9.613   2.507 -0.2783 -2.1381  0.3153
 3760SOL     OW21383   2.708   3.667   1.462  0.3625 -0.3609  0.2805
 3760SOL    HW121384   2.667   3.577   1.475 -2.5179  0.8998  0.1035
 3760SOL    HW221385   2.716   3.713   1.551  1.1719 -0.4869  0.2793
 3761SOL     OW21386   0.082   9.192   0.385 -0.3192 -0.3722  0.2487
 3761SOL    HW121387   0.029   9.142   0.453 -0.4150 -1.4924 -0.6342
 3761SOL    HW221388   0.124   9.272   0.428  1.5343 -2.3135  2.1831
 3762SOL     OW21389   0.307   0.666   0.547  0.3180 -0.1280  0.0178
 3762SOL    HW121390   0.244   0.592   0.572 -1.6501  0.6927 -2.2850
 3762SOL    HW221391   0.265   0.722   0.476  3.4515  0.8010 -1.1752
 3763SOL     OW21392   2.840   8.920   0.906  0.1277  0.0779  0.0181
 3763SOL    HW121393   2.888   8.888   0.825  1.2170  2.9448 -0.5327
 3763SOL    HW221394   2.855   9.018   0.917 -3.0306  0.4643  1.6170
 3764SOL     OW21395   1.163   9.220   2.441 -0.1897  0.4793  0.5030
 3764SOL    HW121396   1.177   9.126   2.409  2.2713  0.1288  2.4590
 3764SOL    HW221397   1.095   9.220   2.515 -0.8235  0.3651 -0.0766
 3765SOL     OW21398   0.148   8.651   1.159  0.0118  0.1265 -0.0219
 3765SOL    HW121399   0.187   8.705   1.233 -0.2743  0.0704  0.1727
 3765SOL    HW221400   0.142   8.555   1.187 -0.0135  0.0902 -0.1499
 3766SOL     OW21401   3.620   4.271   0.683 -0.0910 -0.5061 -1.0461
 3766SOL    HW121402   3.554   4.204   0.717 -0.1998  0.1688  0.0780
 3766SOL    HW221403   3.709   4.227   0.670 -0.2284 -0.9232 -0.5736
 3767SOL     OW21404   2.167   1.467   1.303 -0.0199 -0.2233  0.0568
 3767SOL    HW121405   2.118   1.381   1.293 -0.9435  0.1622  1.2634
 3767SOL    HW221406   2.185   1.485   1.399 -0.7965  1.4576 -0.0871
 3768SOL     OW21407   3.070   9.007   1.470 -0.1557 -0.1399 -0.2810
 3768SOL    HW121408   3.107   9.085   1.521  1.0075 -1.0424  0.2901
 3768SOL    HW221409   2.981   8.981   1.509  1.1457 -1.4092  1.9553
 3769SOL     OW21410   0.034   1.156   1.205 -0.3273 -0.7334 -0.5607
 3769SOL    HW121411   0.096   1.078   1.199  1.3432  0.6523 -1.8504
 3769SOL    HW221412   0.084   1.236   1.238 -2.1042 -0.2903  1.1197
 3770SOL     OW21413   8.091   1.053   0.767  0.0755  0.0780 -0.4135
 3770SOL    HW121414   8.171   1.083   0.714 -0.7128  0.1362 -1.5947
 3770SOL    HW221415   8.091   1.098   0.856  0.8369  0.8466 -0.7937
 3771SOL     OW21416   1.618   5.364   0.874 -0.1465  0.6195 -0.0928
 3771SOL    HW121417   1.557   5.432   0.914 -0.3007  1.8121 -2.2986
 3771SOL    HW221418   1.703   5.408   0.844  0.6032 -0.5258  0.2868
 3772SOL     OW21419   1.182   7.951   1.761  0.1212 -0.4567  0.2870
 3772SOL    HW121420   1.087   7.955   1.792 -0.0192 -0.5447 -0.1293
 3772SOL    HW221421   1.184   7.939   1.661  0.5715 -0.0098  0.2440
 3773SOL     OW21422   9.964   5.978   2.567 -0.2674  0.0735 -0.0669
 3773SOL    HW121423   9.983   5.941   2.476 -0.0807 -1.3412  0.5213
 3773SOL    HW221424  10.045   5.967   2.624 -0.5332  0.5316  0.3976
 3774SOL     OW21425   9.105   8.524   1.743  0.2301  0.0803  0.0157
 3774SOL    HW121426   9.181   8.490   1.797  0.7401  1.3510  0.1264
 3774SOL    HW221427   9.134   8.604   1.691 -1.0655  0.6799  0.1791
 3775SOL     OW21428   3.777   0.454   0.268  0.4136 -1.2783  0.6926
 3775SOL    HW121429   3.704   0.415   0.212  1.5773 -2.2829 -0.1590
 3775SOL    HW221430   3.769   0.420   0.361  0.4832 -2.3162  0.3258
 3776SOL     OW21431   9.566   7.039   0.464  0.3464 -0.1175 -0.4082
 3776SOL    HW121432   9.580   6.960   0.524 -0.4267  0.1434  0.1310
 3776SOL    HW221433   9.618   7.027   0.380 -0.2074 -1.4674 -0.5767
 3777SOL     OW21434   4.009   2.697   1.772  0.7214  0.0338 -0.1728
 3777SOL    HW121435   4.097   2.671   1.812  0.2890  0.8103  1.3140
 3777SOL    HW221436   3.963   2.615   1.736  1.3200 -0.6147  0.5185
 3778SOL     OW21437   0.750   0.035   1.415  0.0686 -0.1634  0.2937
 3778SOL    HW121438   0.792   0.115   1.372  0.6116 -1.0545 -0.8632
 3778SOL    HW221439   0.816  -0.007   1.477  0.6028 -1.0496 -0.8555
 3779SOL     OW21440   2.619   0.115   1.449  0.1401 -0.0638  0.2487
 3779SOL    HW121441   2.552   0.160   1.389  0.6097 -0.1453 -0.3437
 3779SOL    HW221442   2.711   0.131   1.413  0.4411  0.0730  1.0802
 3780SOL     OW21443   1.991   2.158   1.535 -0.0434 -0.0324 -0.2043
 3780SOL    HW121444   1.915   2.220   1.516 -0.6070 -0.4789  0.5370
 3780SOL    HW221445   2.015   2.163   1.632  2.5936  2.0045 -0.9192
 3781SOL     OW21446   3.371   0.717   0.179  0.1151 -0.6848 -0.1494
 3781SOL    HW121447   3.415   0.757   0.099  0.4496 -0.9279 -0.0857
 3781SOL    HW221448   3.280   0.758   0.190 -0.2292 -1.1637 -1.0747
 3782SOL     OW21449   0.918   6.873   1.240  0.2524 -0.2889 -0.3493
 3782SOL    HW121450   0.981   6.872   1.162  1.4136  1.2490  0.5562
 3782SOL    HW221451   0.899   6.967   1.266  1.5905 -0.7795  2.6088
 3783SOL     OW21452   0.181   1.586   0.350  0.3222  0.7155  0.2294
 3783SOL    HW121453   0.153   1.544   0.437  1.7167  1.0628  0.8690
 3783SOL    HW221454   0.119   1.558   0.278 -0.5485 -0.0154  1.2428
 3784SOL     OW21455   0.229   7.890   1.616  0.0587 -0.1461  0.5072
 3784SOL    HW121456   0.266   7.932   1.533  4.2238 -0.0762  2.2550
 3784SOL    HW221457   0.249   7.949   1.694 -1.1413 -1.6072  1.9438
 3785SOL     OW21458   0.234   1.255   2.028  0.3709 -0.2124  0.1183
 3785SOL    HW121459   0.219   1.280   2.123  1.5378  1.3619 -0.0941
 3785SOL    HW221460   0.171   1.308   1.970  0.9950  0.2753 -0.1229
 3786SOL     OW21461   0.397   5.676   1.752 -0.5545  0.1136  0.4910
 3786SOL    HW121462   0.413   5.644   1.845 -0.2694 -0.1097  0.3631
 3786SOL    HW221463   0.393   5.776   1.751 -2.0870  0.0715  0.9930
 3787SOL     OW21464   0.176   0.795   0.364  0.2719  0.1524  0.2550
 3787SOL    HW121465   0.085   0.833   0.349  0.0359  0.2743  1.8925
 3787SOL    HW221466   0.243   0.846   0.309 -0.7629 -0.5639 -1.6903
 3788SOL     OW21467   8.605   7.872   1.733  0.1109  0.3810  0.2005
 3788SOL    HW121468   8.635   7.906   1.644 -1.0865 -0.2838 -0.4673
 3788SOL    HW221469   8.562   7.946   1.785 -0.4218  0.4412 -0.3273
 3789SOL     OW21470   3.914   2.519   0.530  0.0661  0.0059 -0.5155
 3789SOL    HW121471   3.976   2.539   0.607  0.3346 -0.7438 -0.5370
 3789SOL    HW221472   3.962   2.538   0.444 -0.8945  2.7957 -0.4895
 3790SOL     OW21473   0.125   7.405   2.485 -0.1334  0.8016  0.0505
 3790SOL    HW121474   0.109   7.498   2.517 -1.0961  1.1794 -1.4782
 3790SOL    HW221475   0.049   7.346   2.514  0.2337  0.5845  0.5929
 3791SOL     OW21476   2.845   1.322   1.207 -0.5366  0.0313  0.0433
 3791SOL    HW121477   2.937   1.346   1.175 -0.7164  1.7932  0.7568
 3791SOL    HW221478   2.777   1.377   1.157 -1.0279  0.4848  1.1892
 3792SOL     OW21479   0.032   3.931   1.047 -0.0333  0.0170 -0.2358
 3792SOL    HW121480   0.117   3.923   0.996 -0.2125 -1.6223 -0.2958
 3792SOL    HW221481  -0.006   3.840   1.064 -0.6845  0.6080  1.6084
 3793SOL     OW21482   9.611   5.924   1.561 -0.0898  0.1141 -0.0746
 3793SOL    HW121483   9.590   5.995   1.494 -1.3898 -0.4427 -0.2679
 3793SOL    HW221484   9.699   5.882   1.538 -0.4023  0.1041 -1.2783
 3794SOL     OW21485   2.764   0.321   0.352  0.4482 -0.4537 -0.2581
 3794SOL    HW121486   2.713   0.261   0.291 -0.0073 -0.2543 -0.0705
 3794SOL    HW221487   2.733   0.308   0.446 -0.3103  0.7504 -0.3280
 3795SOL     OW21488   2.556   6.901   1.994  0.0975 -0.4846  0.4534
 3795SOL    HW121489   2.562   6.956   2.077 -1.2833 -1.2724  1.0949
 3795SOL    HW221490   2.569   6.805   2.017 -0.0322 -0.6861 -0.2870
 3796SOL     OW21491   3.708   0.914   0.190  0.7201 -0.6717  0.6340
 3796SOL    HW121492   3.705   0.819   0.159  2.9278 -0.0690 -1.6023
 3796SOL    HW221493   3.803   0.942   0.202  0.2600  2.0574 -1.4432
 3797SOL     OW21494   9.758   3.289   0.913 -0.0777  0.2751 -0.4608
 3797SOL    HW121495   9.726   3.367   0.967  3.1066  1.2286  0.1496
 3797SOL    HW221496   9.686   3.219   0.909 -1.0887  0.9959  3.4148
 3798SOL     OW21497   1.279   6.826   2.196 -0.3975 -0.3690 -0.2086
 3798SOL    HW121498   1.291   6.843   2.294  1.5625 -1.3728 -0.2454
 3798SOL    HW221499   1.269   6.913   2.148 -0.6935  0.1616  0.7960
 3799SOL     OW21500   9.140   4.786   2.420 -0.0212 -0.2606  0.0267
 3799SOL    HW121501   9.183   4.785   2.330 -0.1748 -1.5592 -0.0405
 3799SOL    HW221502   9.059   4.727   2.419  0.3103 -0.7519  1.1616
 3800SOL     OW21503   9.084   5.505   0.587 -0.1942 -0.1216  0.3193
 3800SOL    HW121504   9.099   5.522   0.685 -1.4599  0.3610  0.4373
 3800SOL    HW221505   9.172   5.501   0.540  0.4698 -1.2971  1.6351
 3801SOL     OW21506   2.178   7.641   1.549 -0.4520  0.5669  0.1337
 3801SOL    HW121507   2.239   7.721   1.557  0.5789 -0.0969 -0.8735
 3801SOL    HW221508   2.103   7.663   1.486 -0.9290  1.1979  0.9209
 3802SOL     OW21509   3.409   4.351   1.175 -0.1846 -0.5460  0.0928
 3802SOL    HW121510   3.327   4.314   1.131  1.3921 -1.9892 -1.7466
 3802SOL    HW221511   3.407   4.451   1.169 -0.1681 -0.6751 -3.1062
 3803SOL     OW21512   1.566   2.120   2.085 -0.0171  0.0390 -0.3707
 3803SOL    HW121513   1.613   2.037   2.115  0.8080  0.2963 -0.9358
 3803SOL    HW221514   1.616   2.161   2.009  1.4944  2.9197  2.0578
 3804SOL     OW21515   0.285   9.936   1.260  0.3656  0.0401 -0.6221
 3804SOL    HW121516   0.228   9.924   1.341  0.1931  0.2294 -0.7182
 3804SOL    HW221517   0.292  10.033   1.237  0.9503  0.0449 -0.4464
 3805SOL     OW21518   3.687   9.867   2.014  0.2870  0.2453  0.3163
 3805SOL    HW121519   3.765   9.909   1.968  0.1861 -0.1169 -0.1829
 3805SOL    HW221520   3.602   9.900   1.974  0.1860  0.3613  0.6196
 3806SOL     OW21521   1.720   1.380   0.433  0.2317  0.4367 -0.2768
 3806SOL    HW121522   1.656   1.456   0.425 -1.1055 -0.7157 -0.6687
 3806SOL    HW221523   1.737   1.341   0.343 -1.3425 -1.5416  0.2553
 3807SOL     OW21524   1.280   3.902   1.434 -0.5172  0.6131 -0.4351
 3807SOL    HW121525   1.374   3.901   1.466 -0.6784  2.5502  0.1318
 3807SOL    HW221526   1.224   3.956   1.497 -2.5111 -2.5214  0.5913
 3808SOL     OW21527   9.751   4.646   1.852  0.0811  0.4563  0.3916
 3808SOL    HW121528   9.716   4.673   1.942 -0.2627  1.0244  0.0903
 3808SOL    HW221529   9.698   4.570   1.817  0.6134 -0.1756  0.9432
 3809SOL     OW21530   9.994   9.281   1.900  0.2265 -0.0693  0.1969
 3809SOL    HW121531   9.920   9.341   1.870 -0.6247 -0.0952  2.1787
 3809SOL    HW221532  10.040   9.321   1.979  1.2879 -0.8251 -0.0241
 3810SOL     OW21533   8.930   6.260   2.067 -0.3312  0.1002 -0.2926
 3810SOL    HW121534   8.862   6.328   2.095 -0.0804  0.0973  0.3328
 3810SOL    HW221535   8.937   6.189   2.137 -1.3794 -1.1615 -1.4601
 3811SOL     OW21536   3.997   2.515   0.270  0.6060  0.1388 -0.2292
 3811SOL    HW121537   3.955   2.598   0.232  0.4766  0.1132 -0.1441
 3811SOL    HW221538   4.095   2.516   0.251  0.3759 -0.3791 -1.4762
 3812SOL     OW21539   1.892   7.075   0.696  0.1990 -0.3170 -0.2572
 3812SOL    HW121540   1.836   7.036   0.769 -2.4170 -0.4036 -2.2285
 3812SOL    HW221541   1.920   7.002   0.634  0.0329  0.1351 -0.8630
 3813SOL     OW21542   8.650   6.826   2.558  0.6331  0.4509 -0.5609
 3813SOL    HW121543   8.609   6.750   2.509 -0.9665  1.4177 -0.7622
 3813SOL    HW221544   8.586   6.859   2.628  0.5360  2.7726 -1.6912
 3814SOL     OW21545   2.808   6.426   1.321  0.1119 -0.2251  0.4040
 3814SOL    HW121546   2.829   6.335   1.359 -1.1071  0.1183  1.9243
 3814SOL    HW221547   2.739   6.417   1.249  1.7730 -0.7685 -1.1704
 3815SOL     OW21548   9.928   4.384   2.176 -0.8173 -0.1499 -0.4497
 3815SOL    HW121549   9.966   4.467   2.135 -0.9660  0.0863 -0.1100
 3815SOL    HW221550   9.909   4.318   2.104 -0.8055  0.1547 -0.7365
 3816SOL     OW21551   0.454   4.094   2.093  0.2876 -0.6140 -0.2556
 3816SOL    HW121552   0.482   4.054   2.005  0.4758  0.7133 -0.8124
 3816SOL    HW221553   0.536   4.120   2.145  0.1593  0.9709 -0.8090
 3817SOL     OW21554   2.563   2.683   0.263 -0.2153  1.4783 -0.4884
 3817SOL    HW121555   2.478   2.651   0.303 -0.0274  2.1471  0.4965
 3817SOL    HW221556   2.639   2.626   0.296 -0.0727  1.9653  0.0379
 3818SOL     OW21557   0.955   3.214   2.360  0.2163 -0.5578 -0.6902
 3818SOL    HW121558   0.984   3.309   2.347 -1.3432 -0.0370 -0.4530
 3818SOL    HW221559   0.859   3.204   2.334 -0.9830 -1.0357  3.4635
 3819SOL     OW21560   4.022   9.395   1.531 -0.0940  0.5910  0.0503
 3819SOL    HW121561   3.955   9.389   1.605  0.1444 -1.3696  0.1129
 3819SOL    HW221562   4.068   9.307   1.519  0.0562  0.9363 -2.2674
 3820SOL     OW21563   0.025   8.262   2.346  0.3076 -0.5088 -0.3267
 3820SOL    HW121564  -0.054   8.253   2.408  0.3125 -0.8162 -0.3634
 3820SOL    HW221565   0.002   8.222   2.258  0.2620  0.0344 -0.5637
 3821SOL     OW21566   0.220   5.748   1.142  0.3135  0.4202 -0.1833
 3821SOL    HW121567   0.290   5.745   1.071 -0.3337  0.1479 -0.8175
 3821SOL    HW221568   0.221   5.837   1.187  0.2403  0.8473 -1.0251
 3822SOL     OW21569   2.411   3.211   0.740 -0.0209  0.5696 -0.1163
 3822SOL    HW121570   2.392   3.307   0.764  2.0390  1.5411 -2.1569
 3822SOL    HW221571   2.507   3.191   0.757 -0.2206 -0.8641 -0.6237
 3823SOL     OW21572   8.723   1.626   2.030  0.3730 -0.0705 -0.2431
 3823SOL    HW121573   8.709   1.631   1.931  0.9603  0.2666 -0.3118
 3823SOL    HW221574   8.747   1.717   2.065  0.3712 -0.2297  0.1751
 3824SOL     OW21575   2.827   1.215   2.463 -0.2928  0.0792 -0.2672
 3824SOL    HW121576   2.820   1.207   2.363 -1.0881  0.0747 -0.2201
 3824SOL    HW221577   2.744   1.258   2.498  0.4419  1.0329  0.2965
 3825SOL     OW21578   3.375   7.996   1.717  0.4558  0.3625  0.4494
 3825SOL    HW121579   3.407   8.030   1.806 -1.2231  0.7160  0.9562
 3825SOL    HW221580   3.333   8.072   1.666 -0.9082 -0.3633  0.4604
 3826SOL     OW21581   1.582   3.956   0.825 -0.2837 -0.7076  0.0196
 3826SOL    HW121582   1.487   3.979   0.848 -0.9758 -0.5215 -2.8401
 3826SOL    HW221583   1.588   3.860   0.800 -0.0519 -0.3703 -1.2957
 3827SOL     OW21584   1.692   4.169   1.505 -0.1082 -0.4511 -0.2862
 3827SOL    HW121585   1.717   4.092   1.446 -2.0149 -1.1218 -0.2492
 3827SOL    HW221586   1.599   4.198   1.484  0.2004  1.1409  0.4735
 3828SOL     OW21587   2.605   5.091   1.157 -0.7907  0.0191  0.3139
 3828SOL    HW121588   2.621   5.126   1.249  1.3158 -0.3854  0.1166
 3828SOL    HW221589   2.649   5.150   1.090  1.1785 -1.9015 -0.1433
 3829SOL     OW21590   9.536   2.323   2.338  0.0633 -0.4930  0.4773
 3829SOL    HW121591   9.630   2.355   2.348 -0.2500  0.0464  1.8394
 3829SOL    HW221592   9.527   2.271   2.253  1.2259  0.7388 -0.4202
 3830SOL     OW21593   3.997   5.033   1.099 -0.2065  0.3066  0.3840
 3830SOL    HW121594   3.941   5.108   1.062  1.0626  1.1587  0.1783
 3830SOL    HW221595   4.088   5.036   1.059  0.9428  0.7446  2.9787
 3831SOL     OW21596   0.048   1.073   2.264 -0.1496  0.2029  0.2703
 3831SOL    HW121597   0.010   0.987   2.297 -1.1912  0.6817  0.3312
 3831SOL    HW221598   0.148   1.071   2.273 -0.2359 -0.6552  1.0696
 3832SOL     OW21599   3.506   0.603   1.591 -0.4624 -0.4150  0.4434
 3832SOL    HW121600   3.430   0.656   1.629  0.0931  0.2159  0.7088
 3832SOL    HW221601   3.521   0.629   1.496  0.6559  0.9127  0.9509
 3833SOL     OW21602   3.531   8.662   2.356  0.2893 -0.1202  0.5439
 3833SOL    HW121603   3.528   8.593   2.428  0.7523  1.1184  1.7760
 3833SOL    HW221604   3.626   8.681   2.332  0.1486 -0.2614 -0.1338
 3834SOL     OW21605   9.496   5.018   1.365  0.3409  0.3472 -0.1632
 3834SOL    HW121606   9.501   5.076   1.284 -2.9312  0.4853 -0.3232
 3834SOL    HW221607   9.476   5.073   1.446 -1.7589 -0.4040 -0.1504
 3835SOL     OW21608   3.278   4.678   1.995  0.0663 -0.2102  0.1126
 3835SOL    HW121609   3.242   4.679   2.088  1.6119 -0.5749  0.7315
 3835SOL    HW221610   3.294   4.772   1.965  1.3685 -0.1520  0.9468
 3836SOL     OW21611   0.469   4.621   1.586 -0.0674  0.5512  0.6019
 3836SOL    HW121612   0.506   4.695   1.529 -0.9337 -0.8473 -1.8399
 3836SOL    HW221613   0.531   4.543   1.582  0.0849  0.5867  1.9767
 3837SOL     OW21614   0.840   0.054   1.950 -0.4178 -0.1652  0.2540
 3837SOL    HW121615   0.748   0.016   1.944 -0.4770 -0.2048  1.3024
 3837SOL    HW221616   0.850   0.128   1.884 -0.8459 -0.8871 -0.6302
 3838SOL     OW21617   9.327   2.769   0.774  0.2104 -0.2171 -0.4787
 3838SOL    HW121618   9.353   2.727   0.861  0.4988  1.4532  0.2750
 3838SOL    HW221619   9.407   2.773   0.714  0.8309  1.5410  0.4245
 3839SOL     OW21620   0.225   9.911   0.944  0.3204  0.0142 -0.3582
 3839SOL    HW121621   0.293   9.979   0.915  0.6157 -0.5059 -0.8992
 3839SOL    HW221622   0.254   9.870   1.030 -0.1074  0.9226  0.2287
 3840SOL     OW21623   3.215   2.180   2.016  0.0118  0.3818  0.1299
 3840SOL    HW121624   3.213   2.080   2.012  0.9369  0.3699 -0.3321
 3840SOL    HW221625   3.123   2.215   2.032 -0.1385 -0.5891  1.4915
 3841SOL     OW21626   2.617   2.355   2.370 -0.1160  0.0479  0.4575
 3841SOL    HW121627   2.632   2.256   2.362  0.5366  0.1172  0.7668
 3841SOL    HW221628   2.524   2.377   2.340  0.0102 -0.5516 -0.4038
 3842SOL     OW21629   3.546   2.827   1.577  0.0642  0.1402  0.4336
 3842SOL    HW121630   3.541   2.834   1.677  1.8043 -0.3751  0.5745
 3842SOL    HW221631   3.499   2.905   1.536  2.5148  2.3773  1.7221
 3843SOL     OW21632   1.882   4.343   2.471  0.0243  0.5482 -0.3767
 3843SOL    HW121633   1.876   4.280   2.394  0.2909 -0.5592  0.4995
 3843SOL    HW221634   1.848   4.433   2.443 -1.1759 -0.1989 -1.4053
 3844SOL     OW21635   3.313   4.124   1.378  0.3109  0.2041 -0.8102
 3844SOL    HW121636   3.398   4.071   1.383 -0.1220 -0.4394 -0.3141
 3844SOL    HW221637   3.323   4.196   1.309  1.6296  0.7793 -0.0510
 3845SOL     OW21638   1.632   8.289   1.490 -0.1307  0.1948  0.2231
 3845SOL    HW121639   1.564   8.224   1.456  0.4618  0.2580 -1.1007
 3845SOL    HW221640   1.650   8.359   1.421  0.4160  0.8561  1.0191
 3846SOL     OW21641   0.546   6.192   1.503  0.2538 -0.1539  0.1828
 3846SOL    HW121642   0.523   6.231   1.414  0.5135 -0.4179  0.0020
 3846SOL    HW221643   0.462   6.184   1.557  0.0397 -0.3354 -0.1708
 3847SOL     OW21644   3.379   7.555   0.500 -0.1532  0.0532 -0.0669
 3847SOL    HW121645   3.332   7.544   0.413 -1.5360  2.5779  0.2873
 3847SOL    HW221646   3.477   7.571   0.484 -0.6311  1.9382 -1.2702
 3848SOL     OW21647   9.414   3.087   2.114  0.4759 -0.6194 -0.1782
 3848SOL    HW121648   9.327   3.131   2.090  0.9290  0.4251  0.0589
 3848SOL    HW221649   9.465   3.066   2.030 -0.2383 -1.7321 -0.3415
 3849SOL     OW21650   9.272   7.860   0.150 -0.3519  0.5273  0.3021
 3849SOL    HW121651   9.228   7.950   0.157 -0.4942  0.6599 -1.9190
 3849SOL    HW221652   9.314   7.837   0.237  1.2997  3.6064  0.3798
 3850SOL     OW21653   2.462   6.454   0.716 -0.1254  0.0568 -0.1358
 3850SOL    HW121654   2.516   6.527   0.757 -1.2196  0.2699  0.9507
 3850SOL    HW221655   2.518   6.371   0.708  0.6188  0.5334  0.1552
 3851SOL     OW21656   2.966   7.993   1.646  0.3048  0.3207  0.1818
 3851SOL    HW121657   2.890   7.948   1.693 -0.0521  1.0836  0.3466
 3851SOL    HW221658   2.996   8.072   1.700 -1.4877  2.4749 -1.8169
 3852SOL     OW21659   0.414   8.055   0.728  0.2843  0.3316  0.9099
 3852SOL    HW121660   0.323   8.095   0.721 -0.0862 -0.4080  1.3644
 3852SOL    HW221661   0.423   7.981   0.662  0.5597  0.4131  0.8568
 3853SOL     OW21662   2.660   6.220   1.132 -0.6954 -0.5327 -0.3743
 3853SOL    HW121663   2.711   6.140   1.102  1.8128  0.2596  1.6308
 3853SOL    HW221664   2.686   6.299   1.077  0.0660 -0.1962  0.4491
 3854SOL     OW21665   3.374   4.570   2.419 -0.0752 -0.5576 -0.0596
 3854SOL    HW121666   3.394   4.601   2.511  2.5187 -0.9815 -0.4414
 3854SOL    HW221667   3.389   4.471   2.413 -1.4237 -0.7305 -0.6195
 3855SOL     OW21668   0.498   3.849   0.700  0.0783 -0.0553  0.1433
 3855SOL    HW121669   0.548   3.781   0.646  1.5514 -0.2165  1.6493
 3855SOL    HW221670   0.400   3.834   0.689  0.2733  1.1621 -3.9892
 3856SOL     OW21671   1.173   0.501   0.772  0.3918 -0.0577  0.3241
 3856SOL    HW121672   1.248   0.565   0.788  0.3891 -0.0170  0.1713
 3856SOL    HW221673   1.148   0.503   0.676  0.4400 -0.3400  0.3049
 3857SOL     OW21674   2.627   2.033   1.738 -0.3639  0.2930 -0.3624
 3857SOL    HW121675   2.664   2.119   1.772  0.2290  0.2095 -0.7906
 3857SOL    HW221676   2.619   1.968   1.813  0.6536  0.2079 -0.3216
 3858SOL     OW21677   3.295   5.023   1.229 -0.0174 -0.8171 -0.3856
 3858SOL    HW121678   3.394   5.029   1.215 -0.0770  1.5747  0.1058
 3858SOL    HW221679   3.247   5.042   1.143 -0.0892  0.1876 -0.1274
 3859SOL     OW21680   2.485   5.610   0.244  0.0543  0.5164  0.2839
 3859SOL    HW121681   2.387   5.628   0.239 -0.1801 -0.6723  0.6081
 3859SOL    HW221682   2.503   5.513   0.229  1.2548  0.8516 -0.5909
 3860SOL     OW21683   2.621   5.493   2.152  0.4627  0.4385  0.0804
 3860SOL    HW121684   2.527   5.519   2.130  0.0589 -1.1740 -0.1889
 3860SOL    HW221685   2.685   5.547   2.097 -0.3569  0.6416 -0.6776
 3861SOL     OW21686   4.419   0.291   0.401 -0.0987  0.2451  0.0931
 3861SOL    HW121687   4.403   0.234   0.321  2.6610 -0.8494  0.2518
 3861SOL    HW221688   4.355   0.266   0.473 -0.4580 -1.0343 -0.6465
 3862SOL     OW21689   0.559   9.326   1.451  0.1799 -0.2397  0.7287
 3862SOL    HW121690   0.469   9.283   1.453 -0.6383  1.4115  0.7785
 3862SOL    HW221691   0.549   9.423   1.473  1.7182  0.3613 -1.0914
 3863SOL     OW21692   0.278   2.139   2.339  0.0288 -0.0399 -0.5507
 3863SOL    HW121693   0.266   2.041   2.351  1.0708 -0.0565  0.4357
 3863SOL    HW221694   0.191   2.180   2.312 -0.5194 -1.1699 -0.5261
 3864SOL     OW21695   9.123   9.475   1.099  0.1572  0.1354 -0.0471
 3864SOL    HW121696   9.191   9.407   1.071 -0.8596 -0.8524 -0.1511
 3864SOL    HW221697   9.144   9.563   1.055  1.2074 -0.2292 -0.2838
 3865SOL     OW21698   4.380   4.968   0.477 -0.3592  0.2135 -0.3651
 3865SOL    HW121699   4.455   4.964   0.543 -1.5127 -0.5760  0.9148
 3865SOL    HW221700   4.383   4.887   0.418  0.9446  1.1407 -1.6283
 3866SOL     OW21701   4.105   1.318   2.477  0.6116  0.3723 -0.2221
 3866SOL    HW121702   4.195   1.301   2.517  0.5314  0.0173 -0.1924
 3866SOL    HW221703   4.046   1.238   2.491 -0.3310  1.3304  1.4670
 3867SOL     OW21704   2.426   7.694   0.473 -0.1176  0.1316  0.3983
 3867SOL    HW121705   2.394   7.674   0.566  0.2253 -0.7208  0.3340
 3867SOL    HW221706   2.358   7.661   0.407 -0.5991  1.1867  0.3533
 3868SOL     OW21707   1.109   1.628   0.946 -0.0565  0.2022 -0.5224
 3868SOL    HW121708   1.195   1.646   0.898  0.8232 -0.6324  0.7302
 3868SOL    HW221709   1.121   1.643   1.044 -0.9719 -1.2179 -0.1717
 3869SOL     OW21710   2.340   3.139   0.029  0.0289 -0.5028 -0.7530
 3869SOL    HW121711   2.330   3.193   0.113  0.7613 -1.4266 -0.0728
 3869SOL    HW221712   2.436   3.121   0.013 -0.1640 -0.9184 -1.4337
 3870SOL     OW21713   0.617   6.118   0.928 -0.2366 -0.0686 -0.2612
 3870SOL    HW121714   0.557   6.197   0.941  0.8473  0.9116 -1.1266
 3870SOL    HW221715   0.635   6.106   0.830 -0.8730 -1.7609 -0.1909
 3871SOL     OW21716   1.269   3.488   2.369 -0.4805  0.5126 -0.2725
 3871SOL    HW121717   1.364   3.490   2.339 -0.4472 -0.7954 -0.2639
 3871SOL    HW221718   1.263   3.528   2.461 -0.1407  1.7708 -0.7908
 3872SOL     OW21719   8.965   8.790   1.567 -0.3396  0.3802 -0.1296
 3872SOL    HW121720   8.914   8.740   1.497 -0.2953  0.3956 -0.1723
 3872SOL    HW221721   9.059   8.756   1.571 -0.0446  1.0893 -0.8011
 3873SOL     OW21722   3.370   5.673   0.466  0.7740 -0.4044  0.1133
 3873SOL    HW121723   3.311   5.592   0.469 -0.4627  0.4624 -0.6647
 3873SOL    HW221724   3.414   5.684   0.555 -0.6415 -0.7729  0.8817
 3874SOL     OW21725   1.706   9.512   0.742 -0.4161  0.5637 -0.1933
 3874SOL    HW121726   1.707   9.518   0.842 -1.0589  0.7121 -0.1934
 3874SOL    HW221727   1.740   9.422   0.714 -1.1754  0.1369  0.2048
 3875SOL     OW21728   0.513   5.034   0.430  0.1590 -0.2470 -0.0128
 3875SOL    HW121729   0.599   4.992   0.459  0.1338  0.3816  0.9893
 3875SOL    HW221730   0.468   4.975   0.364 -0.1235 -2.0677  1.7507
 3876SOL     OW21731   7.737   0.663   1.338  0.1988 -0.1151  0.5053
 3876SOL    HW121732   7.681   0.659   1.255  1.0750  0.2316 -0.1094
 3876SOL    HW221733   7.834   0.656   1.314  0.6190  2.3589  1.2549
 3877SOL     OW21734   1.530   3.474   1.019 -0.6314 -0.5316 -0.0052
 3877SOL    HW121735   1.450   3.522   0.985 -1.3741 -2.1555 -0.5880
 3877SOL    HW221736   1.512   3.376   1.022  1.2398 -0.8993  0.1004
 3878SOL     OW21737   3.187   4.131   0.427  0.3204  0.2323  0.1796
 3878SOL    HW121738   3.170   4.127   0.525 -0.7156  0.6789  0.0300
 3878SOL    HW221739   3.126   4.067   0.380  1.6491 -0.8744 -0.0863
 3879SOL     OW21740   1.849   6.860   1.600 -0.4200 -0.0656 -0.1313
 3879SOL    HW121741   1.945   6.835   1.611  0.0580  0.7655 -2.2732
 3879SOL    HW221742   1.830   6.945   1.648  0.0059 -0.0157 -0.0536
 3880SOL     OW21743   1.387   5.881   0.071 -0.2890  0.0979 -0.1342
 3880SOL    HW121744   1.391   5.980   0.059  0.0899  0.0560 -0.3480
 3880SOL    HW221745   1.476   5.841   0.050 -0.4750 -0.3003 -0.1718
 3881SOL     OW21746   0.344   1.506   1.811 -0.1949 -0.4614 -0.6873
 3881SOL    HW121747   0.276   1.572   1.842  1.1401  0.9550 -0.6949
 3881SOL    HW221748   0.372   1.449   1.888  2.0152  2.0617  0.4634
 3882SOL     OW21749   8.830   1.630   1.408  0.4970 -0.0938 -0.4719
 3882SOL    HW121750   8.853   1.695   1.479  1.1541 -0.1429 -0.6419
 3882SOL    HW221751   8.769   1.560   1.445 -0.4581  0.7821 -0.3651
 3883SOL     OW21752   1.155   2.837   0.651 -0.0306  0.0659 -0.4312
 3883SOL    HW121753   1.116   2.839   0.560  2.2558 -0.3127 -1.4557
 3883SOL    HW221754   1.255   2.831   0.645  0.1965  0.5957  2.0863
 3884SOL     OW21755   9.469   0.298   2.574 -0.2353  0.0614  0.7248
 3884SOL    HW121756   9.457   0.395   2.554  0.4525  0.5553  2.6474
 3884SOL    HW221757   9.419   0.243   2.506 -1.0184  1.7474 -0.0772
 3885SOL     OW21758   8.500   0.618   2.084 -0.1770 -0.1837  0.0032
 3885SOL    HW121759   8.437   0.640   2.009  1.5719 -3.4989 -2.5312
 3885SOL    HW221760   8.447   0.591   2.165 -2.0628  2.3991 -0.2831
 3886SOL     OW21761   0.220   4.408   2.259  0.5624 -0.3543 -0.1163
 3886SOL    HW121762   0.231   4.463   2.342 -0.7074  0.6059 -0.5691
 3886SOL    HW221763   0.228   4.311   2.282  0.9918 -0.0655  0.9943
 3887SOL     OW21764   1.139   3.163   0.545 -0.0521  0.2042  0.2198
 3887SOL    HW121765   1.053   3.214   0.539 -0.9511 -1.2689  0.2104
 3887SOL    HW221766   1.133   3.081   0.488  0.9711 -0.4614  1.0469
 3888SOL     OW21767   1.199   3.657   2.571  0.2138  0.4695 -0.1103
 3888SOL    HW121768   1.102   3.667   2.592  0.8418  1.7576  2.4582
 3888SOL    HW221769   1.228   3.732   2.512 -0.3094  0.1787 -0.7441
 3889SOL     OW21770   3.034   6.177   2.453  0.1692  0.3196  0.4533
 3889SOL    HW121771   2.973   6.103   2.425 -0.5355  1.3816 -0.8869
 3889SOL    HW221772   3.108   6.140   2.509 -0.7369 -1.2390  0.6560
 3890SOL     OW21773   1.211   7.128   2.205  0.0548 -0.3281  0.0252
 3890SOL    HW121774   1.118   7.138   2.168  0.3124  0.6950 -0.3664
 3890SOL    HW221775   1.205   7.099   2.301 -0.6420 -1.5500 -0.3748
 3891SOL     OW21776   0.261   1.976   0.673  0.2174  0.1420  0.3920
 3891SOL    HW121777   0.356   1.946   0.658 -0.0026  0.0489 -0.8523
 3891SOL    HW221778   0.206   1.953   0.593 -1.1065 -0.7812  1.5449
 3892SOL     OW21779   3.674   2.037   0.477 -0.0569 -0.2064 -0.0294
 3892SOL    HW121780   3.726   2.116   0.509  1.2689 -1.1510  0.1959
 3892SOL    HW221781   3.675   1.965   0.548 -0.4563 -0.7817 -0.6014
 3893SOL     OW21782   8.899   6.656   1.398  0.3984 -0.4999 -0.1317
 3893SOL    HW121783   8.835   6.675   1.323  0.4270 -2.1768 -0.6038
 3893SOL    HW221784   8.989   6.694   1.375 -0.1018  0.7462 -0.0404
 3894SOL     OW21785   2.480   3.088   2.178  0.5316  0.2022 -0.2179
 3894SOL    HW121786   2.428   3.155   2.231 -2.0523 -1.0797 -1.0607
 3894SOL    HW221787   2.551   3.047   2.236 -1.1426  0.0443  1.7820
 3895SOL     OW21788   3.716   1.779   0.092  0.6391  0.2240  0.0772
 3895SOL    HW121789   3.792   1.770   0.156  1.8659  2.0834 -1.0837
 3895SOL    HW221790   3.648   1.842   0.130 -0.0283 -0.9232  0.8179
 3896SOL     OW21791   2.544   4.869   1.560 -0.0811 -0.1965  0.1661
 3896SOL    HW121792   2.608   4.902   1.630 -1.5150  1.7715  0.6131
 3896SOL    HW221793   2.489   4.795   1.597  0.0852 -0.0665  0.6746
 3897SOL     OW21794   4.479   9.333   1.018 -0.2757 -0.2835 -0.2110
 3897SOL    HW121795   4.408   9.383   0.967  1.9926  2.2621 -1.0041
 3897SOL    HW221796   4.496   9.379   1.105  0.2245 -0.9924  0.0664
 3898SOL     OW21797   9.335   2.700   1.777 -0.0499 -0.1858  0.1919
 3898SOL    HW121798   9.400   2.713   1.703  1.9471 -3.8003  1.1658
 3898SOL    HW221799   9.253   2.656   1.742  1.1596 -2.5021  0.1482
 3899SOL     OW21800   0.596   7.676   0.356 -0.4543 -0.4230  0.2108
 3899SOL    HW121801   0.609   7.588   0.310 -1.8090 -0.8308  0.5896
 3899SOL    HW221802   0.684   7.708   0.393  0.6892 -0.0600 -2.6745
 3900SOL     OW21803   2.036   1.270   2.309 -0.0788 -0.0256 -0.5113
 3900SOL    HW121804   2.085   1.348   2.347 -0.2759 -0.3248  0.3929
 3900SOL    HW221805   2.060   1.188   2.361 -0.9302 -0.3127 -0.5518
 3901SOL     OW21806   2.092   7.756   0.815  0.2807  0.0208  0.2634
 3901SOL    HW121807   2.036   7.761   0.732  1.1994  1.7053 -0.2934
 3901SOL    HW221808   2.059   7.823   0.881 -0.0965 -0.9327  1.0533
 3902SOL     OW21809   3.760   9.899   1.346 -0.3423  0.4305 -0.5050
 3902SOL    HW121810   3.760   9.981   1.289 -0.8792  1.0447  0.3619
 3902SOL    HW221811   3.829   9.835   1.313 -0.6248  0.7920 -1.8128
 3903SOL     OW21812   8.542   0.560   1.030  0.3305 -1.2144  0.2362
 3903SOL    HW121813   8.527   0.637   1.092  0.8800 -2.3118  1.7694
 3903SOL    HW221814   8.494   0.577   0.944 -1.0956 -0.0024  1.2271
 3904SOL     OW21815   3.853   2.262   0.597 -0.0674 -0.3445  0.9000
 3904SOL    HW121816   3.906   2.338   0.559 -0.4799 -0.1047  0.7997
 3904SOL    HW221817   3.913   2.184   0.614  0.7330  0.6854  2.9284
 3905SOL     OW21818   2.876   0.924   0.654 -0.3225 -0.0423  0.8333
 3905SOL    HW121819   2.786   0.889   0.682 -1.1995  2.4110  1.1562
 3905SOL    HW221820   2.901   1.002   0.711  2.3781 -1.1214  1.2274
 3906SOL     OW21821   3.800   3.142   0.632  0.4594 -0.0559 -0.1625
 3906SOL    HW121822   3.876   3.106   0.577  2.4494  1.2695  1.6178
 3906SOL    HW221823   3.799   3.241   0.626  0.1861  0.0530  1.5266
 3907SOL     OW21824   1.421   6.433   2.422  0.4457  0.1535  0.3988
 3907SOL    HW121825   1.324   6.410   2.415  0.2815  1.2013 -0.9552
 3907SOL    HW221826   1.466   6.413   2.335  1.3922 -0.0912  0.9446
 3908SOL     OW21827   1.890   1.157   1.755  0.3581  0.2005 -0.6359
 3908SOL    HW121828   1.792   1.144   1.741  0.0030  1.6384  0.3546
 3908SOL    HW221829   1.905   1.216   1.835  2.0414 -0.3660 -0.5105
 3909SOL     OW21830   2.408   5.303   1.498 -0.0727  0.0549 -0.0250
 3909SOL    HW121831   2.498   5.263   1.479 -1.3984 -2.5067 -1.1810
 3909SOL    HW221832   2.405   5.337   1.592  2.3743  0.9841 -0.2542
 3910SOL     OW21833   9.675   6.837   0.603 -0.3491  0.4353  0.1964
 3910SOL    HW121834   9.771   6.863   0.604  0.0024 -0.7592 -0.6642
 3910SOL    HW221835   9.647   6.812   0.695  0.4584 -0.1845  0.2862
 3911SOL     OW21836   1.486   2.701   2.215 -0.0149  0.0435 -0.1060
 3911SOL    HW121837   1.544   2.782   2.223  1.1005 -0.9380  2.0929
 3911SOL    HW221838   1.512   2.650   2.133  1.1048  0.5045 -0.0464
 3912SOL     OW21839   2.173   0.658   1.552 -0.2820 -0.6742 -0.3431
 3912SOL    HW121840   2.197   0.595   1.478 -0.5834 -0.7140 -0.4111
 3912SOL    HW221841   2.238   0.733   1.556  0.8881 -1.7149  0.6205
 3913SOL     OW21842   0.410   2.160   1.702 -0.1273  0.0186 -0.1823
 3913SOL    HW121843   0.486   2.222   1.720 -1.5247  1.5021  0.7035
 3913SOL    HW221844   0.341   2.171   1.773 -0.5994 -2.2460 -0.2552
 3914SOL     OW21845   0.243   2.667   0.488  0.1138  0.5271  0.2298
 3914SOL    HW121846   0.224   2.646   0.392 -2.3384  0.5553  0.7010
 3914SOL    HW221847   0.158   2.689   0.535  1.0062 -1.5992  2.9335
 3915SOL     OW21848   3.825   1.532   0.399  0.2502 -0.3000 -0.4016
 3915SOL    HW121849   3.750   1.539   0.464 -0.5458 -0.2355 -1.3128
 3915SOL    HW221850   3.790   1.498   0.311  1.6712 -2.4663 -0.1667
 3916SOL     OW21851   2.782   1.564   1.072 -0.5081  0.3346 -0.4374
 3916SOL    HW121852   2.787   1.602   1.165  0.7338  1.5238 -0.9804
 3916SOL    HW221853   2.745   1.634   1.010 -0.7710 -0.2583 -0.9464
 3917SOL     OW21854   9.734   0.688   2.042 -0.3361 -0.6529  0.2549
 3917SOL    HW121855   9.741   0.589   2.035 -0.2190 -0.7392  1.5055
 3917SOL    HW221856   9.819   0.726   2.078  0.3460  0.1156 -2.0258
 3918SOL     OW21857   8.122   0.750   0.733  0.4662 -0.4667  0.1120
 3918SOL    HW121858   8.094   0.834   0.780  0.2539 -1.2095  1.3444
 3918SOL    HW221859   8.154   0.772   0.641  0.9226  1.0313  0.6135
 3919SOL     OW21860   9.361   4.958   0.414  0.3103 -0.2014  0.0754
 3919SOL    HW121861   9.361   4.938   0.512 -0.5722  0.4376  0.2102
 3919SOL    HW221862   9.281   5.014   0.391  1.6462  1.4478 -0.6455
 3920SOL     OW21863   0.186   1.359   1.332 -0.9168  0.1386 -0.3027
 3920SOL    HW121864   0.182   1.457   1.312 -2.4397  0.1575  0.0584
 3920SOL    HW221865   0.138   1.340   1.417  0.1348 -0.8107  0.0818
 3921SOL     OW21866   2.238   0.024   0.378  0.0544  0.4146  0.9106
 3921SOL    HW121867   2.168   0.091   0.352 -0.4757 -0.9669 -1.3740
 3921SOL    HW221868   2.199  -0.068   0.374  1.8957 -0.3562 -0.0419
 3922SOL     OW21869   8.900   0.671   1.639 -0.4488 -0.1681  0.0263
 3922SOL    HW121870   8.926   0.766   1.619 -1.9786  0.0751 -0.9185
 3922SOL    HW221871   8.901   0.657   1.738 -0.0135  0.7732  0.1627
 3923SOL     OW21872   3.386   2.996   1.411 -0.0857 -0.2722 -0.3365
 3923SOL    HW121873   3.396   3.095   1.403  2.3991 -0.3611  1.3001
 3923SOL    HW221874   3.443   2.951   1.342  0.2097 -0.5701  0.0963
 3924SOL     OW21875   1.303   3.126   1.566 -0.1653  0.0823  0.5725
 3924SOL    HW121876   1.221   3.071   1.553  1.2993 -2.1459  0.5366
 3924SOL    HW221877   1.352   3.093   1.647  1.4970  0.3747 -0.3036
 3925SOL     OW21878   3.460   8.336   0.984 -0.1621 -0.2693  0.5271
 3925SOL    HW121879   3.468   8.435   0.972 -0.2114 -0.3219  0.0381
 3925SOL    HW221880   3.398   8.316   1.059 -0.5522  0.0640  0.2940
 3926SOL     OW21881   1.164   1.223   1.613 -0.2649  0.3432 -0.7245
 3926SOL    HW121882   1.226   1.150   1.587 -1.5700 -1.1605  0.2649
 3926SOL    HW221883   1.216   1.305   1.636  1.3352 -0.8340 -0.0850
 3927SOL     OW21884   3.211   5.370   2.195  0.2573 -0.0337  0.2741
 3927SOL    HW121885   3.161   5.456   2.200 -1.1281 -0.7083 -1.4133
 3927SOL    HW221886   3.300   5.381   2.239  0.6888  2.6913 -1.1430
 3928SOL     OW21887   7.785   1.189   2.396 -0.2492 -0.0071 -0.4151
 3928SOL    HW121888   7.715   1.171   2.465 -1.0999  0.6994 -1.0775
 3928SOL    HW221889   7.827   1.102   2.367 -0.6094 -0.4003  0.2368
 3929SOL     OW21890   0.989   0.333   1.957 -0.2923 -0.6814  0.1174
 3929SOL    HW121891   0.953   0.370   1.871 -1.7921 -2.5491 -0.1113
 3929SOL    HW221892   0.984   0.403   2.028 -0.1706  0.5074 -1.0197
 3930SOL     OW21893   0.248   8.031   1.357 -0.3651  0.4075 -0.3613
 3930SOL    HW121894   0.326   8.078   1.399 -0.0292 -0.5090  0.0439
 3930SOL    HW221895   0.276   7.940   1.327 -1.5580 -0.3677  0.8020
 3931SOL     OW21896   8.425   8.679   1.274  0.1513 -0.4495 -0.1327
 3931SOL    HW121897   8.477   8.597   1.251  1.0790  0.8389 -2.8629
 3931SOL    HW221898   8.452   8.711   1.365  3.5906 -0.2936 -1.1220
 3932SOL     OW21899   9.482   3.343   0.394  0.0675  0.0134  0.6265
 3932SOL    HW121900   9.458   3.246   0.385 -1.7561  0.1095  3.5682
 3932SOL    HW221901   9.442   3.394   0.319 -0.3486 -1.3112 -0.0717
 3933SOL     OW21902   0.035   2.436   2.067  0.0803 -0.0751 -0.4813
 3933SOL    HW121903  -0.062   2.421   2.048  0.1541 -0.7093 -0.3754
 3933SOL    HW221904   0.050   2.531   2.094 -0.3515  0.2836 -1.4883
 3934SOL     OW21905   8.947   6.952   1.337  0.1306  0.1538  0.3966
 3934SOL    HW121906   8.908   6.991   1.420 -0.3689  0.1150  0.1799
 3934SOL    HW221907   8.909   6.997   1.256  0.0302 -0.3359  0.1646
 3935SOL     OW21908   8.363   2.090   0.819 -0.1262  0.0607  0.5509
 3935SOL    HW121909   8.357   2.186   0.845  0.9636  0.2283  0.2141
 3935SOL    HW221910   8.366   2.033   0.901  0.1829  0.3720  0.7554
 3936SOL     OW21911   1.585   5.554   0.205 -0.3423 -0.5232 -0.2981
 3936SOL    HW121912   1.610   5.567   0.301 -0.1852 -0.4838 -0.3438
 3936SOL    HW221913   1.562   5.643   0.165 -0.2649 -0.5204 -0.3361
 3937SOL     OW21914   9.295   8.835   1.323  0.0007  0.5659 -0.1989
 3937SOL    HW121915   9.304   8.931   1.298 -0.3150  0.0204 -2.5136
 3937SOL    HW221916   9.327   8.777   1.247  0.2059 -1.1505  1.1629
 3938SOL     OW21917   8.906   2.381   2.380  0.2565  0.0095 -0.4147
 3938SOL    HW121918   8.998   2.420   2.371  0.2711 -0.0937 -0.7194
 3938SOL    HW221919   8.867   2.365   2.290  0.9106 -2.2570 -0.3293
 3939SOL     OW21920   8.130   9.140   0.352  0.3427  0.4327 -0.3705
 3939SOL    HW121921   8.220   9.135   0.395  0.4457  0.3050 -0.6000
 3939SOL    HW221922   8.137   9.105   0.258  0.0238  0.2859 -0.3386
 3940SOL     OW21923   1.562   6.993   0.066 -0.3947  0.6147 -0.3671
 3940SOL    HW121924   1.635   6.926   0.083  0.3037  1.6849  0.9951
 3940SOL    HW221925   1.591   7.056  -0.006 -0.3947  0.4217 -0.5363
 3941SOL     OW21926   4.103   4.860   1.814  0.2899  1.0551  0.0149
 3941SOL    HW121927   4.124   4.918   1.736 -0.1572  0.5248 -0.5012
 3941SOL    HW221928   4.163   4.780   1.813 -0.7755  0.2578 -0.6634
 3942SOL     OW21929   2.112   9.272   0.727 -0.1086 -0.2086 -0.4981
 3942SOL    HW121930   2.175   9.324   0.669  0.9376 -0.9591 -0.0451
 3942SOL    HW221931   2.124   9.174   0.711 -1.3480 -0.3528 -0.5977
 3943SOL     OW21932   8.384   1.808   1.955  0.1148  0.5002  0.0510
 3943SOL    HW121933   8.369   1.756   1.871  1.1994  1.7000 -0.8954
 3943SOL    HW221934   8.338   1.761   2.031 -0.3845 -0.9053 -1.0846
 3944SOL     OW21935   3.294   0.387   1.764  0.4323 -0.1748  0.8488
 3944SOL    HW121936   3.221   0.330   1.803  0.2434  0.2976  1.1856
 3944SOL    HW221937   3.377   0.332   1.753 -0.8442 -1.5458 -2.4092
 3945SOL     OW21938   2.437   0.440   2.401 -0.2825  0.3343 -0.1360
 3945SOL    HW121939   2.381   0.453   2.319 -0.4961 -0.6767 -0.1581
 3945SOL    HW221940   2.389   0.381   2.466 -0.2553  1.3932  0.8635
 3946SOL     OW21941   9.085   9.651   1.567  0.4870  0.1986  0.2821
 3946SOL    HW121942   9.010   9.612   1.621  0.4606 -1.0617 -0.6348
 3946SOL    HW221943   9.123   9.730   1.615 -2.3010  1.6894  0.1666
 3947SOL     OW21944   3.630   1.839   0.660  0.3367  0.3056 -0.0480
 3947SOL    HW121945   3.701   1.789   0.709 -3.2805 -3.2810  1.8788
 3947SOL    HW221946   3.592   1.910   0.720  2.0419  2.0895 -1.0093
 3948SOL     OW21947   4.055   4.259   0.431  0.2120 -0.0560  0.1482
 3948SOL    HW121948   4.152   4.275   0.452  0.5505 -0.4936 -1.0854
 3948SOL    HW221949   4.008   4.347   0.424  0.5603  0.1641  0.5342
 3949SOL     OW21950   9.088   2.654   0.061 -0.5729  0.1073 -0.0857
 3949SOL    HW121951   9.146   2.693   0.133  1.3178 -0.6689 -1.1260
 3949SOL    HW221952   9.013   2.603   0.102  0.4891 -0.3351  1.3620
 3950SOL     OW21953   9.225   9.711   2.264  0.9208 -0.3392 -0.1060
 3950SOL    HW121954   9.191   9.772   2.192  0.3984 -0.3538  0.1263
 3950SOL    HW221955   9.291   9.760   2.321 -0.7250  0.5270  1.0885
 3951SOL     OW21956   3.871   4.310   2.268 -0.2058 -0.0053 -0.1048
 3951SOL    HW121957   3.912   4.265   2.347 -0.8423 -1.0620 -0.3631
 3951SOL    HW221958   3.943   4.347   2.210  0.2370  1.5178  1.3862
 3952SOL     OW21959   2.356   3.458   1.625 -0.2595  0.4688  0.6468
 3952SOL    HW121960   2.293   3.496   1.557 -0.0725 -0.6867 -0.1788
 3952SOL    HW221961   2.433   3.415   1.579  1.1468  1.8407  1.6483
 3953SOL     OW21962   1.761   8.537   2.420  0.1875  0.2061  0.4236
 3953SOL    HW121963   1.846   8.589   2.409 -0.0156  0.0575 -2.2830
 3953SOL    HW221964   1.737   8.494   2.332 -0.3579 -3.3884  2.2430
 3954SOL     OW21965   0.600   7.783   0.827 -0.1048 -0.3024  0.5426
 3954SOL    HW121966   0.506   7.763   0.855  0.2941 -0.3879  1.8731
 3954SOL    HW221967   0.663   7.746   0.895  0.8528  0.5539  0.1267
 3955SOL     OW21968   8.173   0.167   1.265 -0.1205 -0.2265 -0.3619
 3955SOL    HW121969   8.159   0.266   1.272  0.7055 -0.0347 -1.2863
 3955SOL    HW221970   8.094   0.124   1.222  0.4703  0.3423 -2.0590
 3956SOL     OW21971   0.941   4.505   0.576 -0.3092 -1.1620 -0.0552
 3956SOL    HW121972   0.843   4.486   0.587 -0.2175 -1.4216  0.3046
 3956SOL    HW221973   0.977   4.448   0.501 -0.9635  0.7284 -1.8636
 3957SOL     OW21974   4.050   2.266   0.066 -0.5307 -0.3404  0.0996
 3957SOL    HW121975   3.983   2.321   0.117  0.0365  0.8385 -0.3937
 3957SOL    HW221976   4.104   2.327   0.008  0.4572 -1.3837 -0.0730
 3958SOL     OW21977   2.403   8.474   1.639 -0.3071 -0.1698  0.4143
 3958SOL    HW121978   2.499   8.493   1.657 -0.0028  0.4323 -1.7231
 3958SOL    HW221979   2.347   8.511   1.714  0.8034  3.1012 -0.2808
 3959SOL     OW21980   3.693   0.637   2.360  0.7651  0.4778 -0.3514
 3959SOL    HW121981   3.692   0.639   2.260  1.5370  0.2514 -0.3628
 3959SOL    HW221982   3.779   0.598   2.392 -0.1920 -1.0540  0.3893
 3960SOL     OW21983   7.923   0.110   2.373 -0.3099  0.6070 -0.3051
 3960SOL    HW121984   7.957   0.110   2.279  0.7327  0.9760  0.0703
 3960SOL    HW221985   7.917   0.016   2.406  0.0470  0.5268 -0.4739
 3961SOL     OW21986   0.172   5.456   0.742  0.1481  0.0840 -0.0827
 3961SOL    HW121987   0.115   5.504   0.808 -1.1017 -0.9381 -0.3921
 3961SOL    HW221988   0.225   5.385   0.788  0.8037  0.7092  0.1297
 3962SOL     OW21989   0.889   5.802   0.197 -0.0344  0.0085 -0.1118
 3962SOL    HW121990   0.874   5.814   0.295  0.1543 -1.4792  0.1137
 3962SOL    HW221991   0.985   5.783   0.180  0.1540  1.4656 -0.7205
 3963SOL     OW21992   2.615   3.417   1.451  0.8509 -0.0809 -0.0317
 3963SOL    HW121993   2.559   3.401   1.370 -0.8409  0.6092  0.9740
 3963SOL    HW221994   2.665   3.333   1.474 -0.6470 -1.0437 -0.2792
 3964SOL     OW21995   9.774   2.446   1.720 -0.1008 -0.3459 -0.5521
 3964SOL    HW121996   9.702   2.376   1.724 -0.2163 -0.2852 -1.4676
 3964SOL    HW221997   9.808   2.453   1.627  0.0688  0.6668 -0.4184
 3965SOL     OW21998   2.009   6.032   0.800 -0.6089 -0.3937  0.1035
 3965SOL    HW121999   1.943   5.996   0.867 -0.0845  0.3964  1.0560
 3965SOL    HW222000   2.004   6.132   0.800  0.5893 -0.3329  0.1849
 3966SOL     OW22001   1.517   2.896   0.296 -0.1619  0.5719 -0.2056
 3966SOL    HW122002   1.533   2.962   0.223 -1.0238  0.8453 -0.1430
 3966SOL    HW222003   1.439   2.838   0.273  0.1729  0.0130  0.0501
 3967SOL     OW22004   1.157   4.921   2.061 -0.1863  0.0438  0.4092
 3967SOL    HW122005   1.207   4.945   1.978  0.9883  1.0183  1.3929
 3967SOL    HW222006   1.220   4.882   2.128 -0.8940  0.4558  1.3234
 3968SOL     OW22007   1.643   2.511   2.074 -0.3486  0.1339 -0.2537
 3968SOL    HW122008   1.652   2.446   2.150 -1.8975  0.2158  0.0197
 3968SOL    HW222009   1.689   2.596   2.097  2.1048 -1.0148 -0.8029
 3969SOL     OW22010   7.726   9.782   0.391  0.1010 -0.3345 -0.1796
 3969SOL    HW122011   7.825   9.789   0.402  0.0875 -0.4533  0.0153
 3969SOL    HW222012   7.686   9.742   0.473  0.1046 -2.1671 -1.0451
 3970SOL     OW22013   2.569   1.827   0.098 -0.0420  0.0727  0.2132
 3970SOL    HW122014   2.572   1.883   0.181 -3.3215  1.1921 -0.3817
 3970SOL    HW222015   2.528   1.738   0.120  0.3289 -0.1422  0.0450
 3971SOL     OW22016   2.551   1.471   2.430 -0.7519 -0.1077 -0.0647
 3971SOL    HW122017   2.543   1.401   2.359 -0.7329 -0.0512 -0.1226
 3971SOL    HW222018   2.647   1.492   2.446 -0.7891  0.5682 -0.6981
 3972SOL     OW22019   2.129   7.912   2.459  0.9013 -0.3256 -0.5129
 3972SOL    HW122020   2.188   7.842   2.419 -0.5417 -0.8105 -1.8562
 3972SOL    HW222021   2.092   7.969   2.386 -1.8128 -1.2311  0.0961
 3973SOL     OW22022   9.517   7.075   2.485 -0.4838 -0.1592  0.2504
 3973SOL    HW122023   9.560   6.989   2.512  0.2635 -0.3627 -1.5416
 3973SOL    HW222024   9.586   7.147   2.482 -0.6095 -0.0836 -0.8267
 3974SOL     OW22025   2.342   3.795   2.341 -0.0224 -0.1683 -0.0171
 3974SOL    HW122026   2.293   3.779   2.427  1.3909 -0.3133  0.7727
 3974SOL    HW222027   2.349   3.893   2.324 -2.8660 -0.1719 -1.4785
 3975SOL     OW22028   2.232   5.868   1.845 -0.3194 -0.8013 -0.4132
 3975SOL    HW122029   2.259   5.782   1.801  2.5589  0.6898 -1.7007
 3975SOL    HW222030   2.291   5.883   1.925 -1.7728 -0.7015  0.6532
 3976SOL     OW22031   2.833   6.692   0.450  0.6838  0.2557 -0.3359
 3976SOL    HW122032   2.733   6.695   0.448  0.6812  0.5372  0.0941
 3976SOL    HW222033   2.867   6.754   0.521  1.2319  1.3573 -1.5300
 3977SOL     OW22034   2.605   6.078   1.558  0.4399 -0.2889  0.0900
 3977SOL    HW122035   2.507   6.089   1.573  0.5295 -0.3213  0.7196
 3977SOL    HW222036   2.625   5.984   1.531  0.3720 -0.4563  0.6125
 3978SOL     OW22037   3.302   0.295   1.025  0.2405 -0.0862 -0.3953
 3978SOL    HW122038   3.233   0.223   1.026  1.0517 -0.8799  0.6618
 3978SOL    HW222039   3.329   0.315   0.931 -1.0106 -0.1594 -0.7757
 3979SOL     OW22040   4.557   3.839   2.309 -0.0932  0.4564  0.0402
 3979SOL    HW122041   4.653   3.868   2.308 -0.2353  0.9128 -0.0854
 3979SOL    HW222042   4.512   3.869   2.225  0.0437 -1.0532 -0.5832
 3980SOL     OW22043   2.808   6.211   2.140  0.0619  0.5043  0.0797
 3980SOL    HW122044   2.892   6.217   2.086  1.0796 -1.3741  1.4132
 3980SOL    HW222045   2.771   6.303   2.153  1.6456  1.3141 -0.9248
 3981SOL     OW22046   9.795   8.601   2.245 -0.8248  0.2530 -0.0185
 3981SOL    HW122047   9.864   8.626   2.177  0.6494 -1.2308  0.8736
 3981SOL    HW222048   9.753   8.514   2.219 -1.9898  0.8810 -0.2702
 3982SOL     OW22049   2.167   8.892   0.027 -0.4072 -0.3381 -0.1444
 3982SOL    HW122050   2.188   8.959  -0.044 -0.4055 -1.2831 -1.0582
 3982SOL    HW222051   2.095   8.927   0.086  0.5855  1.0518  0.2612
 3983SOL     OW22052   8.527   9.192   1.132 -0.5947  0.3020 -0.5987
 3983SOL    HW122053   8.431   9.187   1.161 -0.0746 -0.6324  1.0390
 3983SOL    HW222054   8.546   9.120   1.066 -0.5643 -0.7355  0.5184
 3984SOL     OW22055   0.890   6.095   1.906 -0.1105  0.0869 -0.0792
 3984SOL    HW122056   0.915   6.181   1.861 -0.8104  0.7454  0.7625
 3984SOL    HW222057   0.837   6.115   1.988  0.4562 -1.1329  0.5944
 3985SOL     OW22058   8.817   1.707   0.887  0.1541 -0.0351 -0.0594
 3985SOL    HW122059   8.848   1.656   0.807 -0.5446 -1.6562  0.6907
 3985SOL    HW222060   8.805   1.645   0.965  2.1304  1.7330  1.7089
 3986SOL     OW22061   1.328   5.407   1.824 -0.1793 -0.3885 -0.0450
 3986SOL    HW122062   1.358   5.432   1.916  0.2392 -1.0188 -0.0111
 3986SOL    HW222063   1.270   5.480   1.788  0.4074  0.2940  0.3545
 3987SOL     OW22064   0.302   2.032   2.057 -0.4277  0.0403 -0.0096
 3987SOL    HW122065   0.352   2.078   2.131 -2.2678 -0.1875  1.4298
 3987SOL    HW222066   0.224   2.089   2.029  0.1825  0.0636 -1.7097
 3988SOL     OW22067   3.518   4.399   0.455  0.6515  0.2217 -0.2182
 3988SOL    HW122068   3.567   4.379   0.369  0.4761  1.1519 -0.5424
 3988SOL    HW222069   3.553   4.340   0.527 -0.8100 -2.2403 -1.4480
 3989SOL     OW22070   0.425   3.758   0.174 -0.2400 -0.2103 -0.2945
 3989SOL    HW122071   0.367   3.768   0.094 -0.5411  0.1549 -0.0299
 3989SOL    HW222072   0.435   3.846   0.220  0.9801 -0.1435 -0.6502
 3990SOL     OW22073   7.774   9.515   2.080  0.1607  0.0789  0.1279
 3990SOL    HW122074   7.817   9.454   2.147 -0.8724 -1.2650 -0.4136
 3990SOL    HW222075   7.832   9.522   1.999 -0.2017 -1.0324 -0.2383
 3991SOL     OW22076   0.338   4.374   1.978 -0.4327  0.3899  0.6572
 3991SOL    HW122077   0.299   4.404   2.065  1.9976  2.2016  1.1844
 3991SOL    HW222078   0.386   4.287   1.991 -1.4111 -0.1454  0.7473
 3992SOL     OW22079   9.519   0.907   0.592 -0.5192  0.9847 -0.5893
 3992SOL    HW122080   9.611   0.948   0.588  0.3356 -0.9003 -0.5446
 3992SOL    HW222081   9.526   0.811   0.619 -2.4256  0.5062 -1.7245
 3993SOL     OW22082   9.639   5.831   0.969  0.4680 -0.0608 -0.7129
 3993SOL    HW122083   9.635   5.774   1.051 -0.3808 -1.4421 -1.7001
 3993SOL    HW222084   9.658   5.926   0.996 -1.0264 -0.2644  1.1855
 3994SOL     OW22085   9.757   5.059   0.846  0.0407  0.0570  0.0805
 3994SOL    HW122086   9.797   4.982   0.895  1.1210  0.3014 -0.4039
 3994SOL    HW222087   9.829   5.108   0.796 -0.8972  0.3544 -1.0040
 3995SOL     OW22088   3.037   2.660   0.571  0.6395  0.5630 -0.3015
 3995SOL    HW122089   3.093   2.651   0.488  1.0939 -0.6364  0.1136
 3995SOL    HW222090   3.097   2.659   0.651  0.1356  0.7855  0.0783
 3996SOL     OW22091   3.441   0.505   2.102  0.2850  0.5581  0.1640
 3996SOL    HW122092   3.396   0.470   2.021 -2.2153  1.2739  1.1998
 3996SOL    HW222093   3.531   0.541   2.077 -0.9651  1.9765 -2.5419
 3997SOL     OW22094   4.520   9.486   0.121 -0.3924 -0.4431  0.0035
 3997SOL    HW122095   4.460   9.564   0.105 -0.2558 -0.2911  0.2351
 3997SOL    HW222096   4.466   9.410   0.157 -0.8794 -1.1243 -2.1181
 3998SOL     OW22097   9.247   6.005   0.785 -0.4315 -0.3110  0.6994
 3998SOL    HW122098   9.317   6.074   0.802  0.1240 -0.5636 -0.4979
 3998SOL    HW222099   9.218   5.965   0.871  0.1891  0.4974  1.2880
 3999SOL     OW22100   9.491   9.371   1.097  0.1395  0.2444  0.4533
 3999SOL    HW122101   9.439   9.301   1.049  2.4905 -0.8197 -0.6045
 3999SOL    HW222102   9.495   9.454   1.041  2.2459 -0.7452 -0.9097
 4000SOL     OW22103   0.997   9.857   0.508  0.2054  0.2350 -0.1891
 4000SOL    HW122104   1.069   9.858   0.577  0.0079  0.0604  0.0214
 4000SOL    HW222105   0.908   9.869   0.552 -0.2675 -3.3438  0.0173
 4001SOL     OW22106   0.954   1.838   0.778  0.3795  0.0719  0.0934
 4001SOL    HW122107   0.993   1.763   0.831  2.3865 -0.2766 -1.8060
 4001SOL    HW222108   0.881   1.802   0.719  1.2211 -0.3849 -0.6886
 4002SOL     OW22109   0.289   6.749   2.284 -0.3549 -0.2593  0.3296
 4002SOL    HW122110   0.346   6.769   2.364 -0.4168 -1.9918  0.8357
 4002SOL    HW222111   0.339   6.771   2.200 -0.1683  1.2643  0.8421
 4003SOL     OW22112   9.594   3.354   1.938  0.3276 -0.1186 -0.2341
 4003SOL    HW122113   9.526   3.422   1.911  0.8211  0.3715 -0.2471
 4003SOL    HW222114   9.608   3.289   1.864  1.9579  1.4445 -1.3284
 4004SOL     OW22115   0.456   7.534   2.039  0.2567  0.2999  0.2752
 4004SOL    HW122116   0.479   7.575   2.128  0.9402  0.4599  0.0246
 4004SOL    HW222117   0.405   7.601   1.985  1.9584  1.0720 -0.3946
 4005SOL     OW22118   9.710   1.317   1.593 -0.1013 -0.2289 -0.1966
 4005SOL    HW122119   9.710   1.384   1.666 -0.3046  0.3602 -0.7362
 4005SOL    HW222120   9.615   1.296   1.568 -0.0421 -0.8053  0.0464
 4006SOL     OW22121   3.069   4.147   0.927 -0.2065  0.2887 -0.5955
 4006SOL    HW122122   3.035   4.053   0.920 -0.0403  0.0429  1.6687
 4006SOL    HW222123   3.039   4.199   0.846 -0.6628 -1.5739 -1.6556
 4007SOL     OW22124   0.640   7.325   1.980  0.7062  0.3892  0.1764
 4007SOL    HW122125   0.575   7.401   1.985  0.6545  0.3480  0.1225
 4007SOL    HW222126   0.733   7.361   1.991  0.5997  0.3143  1.4666
 4008SOL     OW22127   8.569   2.967   0.448 -0.0699  0.1679 -0.4440
 4008SOL    HW122128   8.594   3.051   0.496  1.1237  0.4680 -1.5613
 4008SOL    HW222129   8.504   2.915   0.504 -0.3670  1.5392  0.5170
 4009SOL     OW22130   0.465   0.602   1.401  0.5096  0.5185  0.3861
 4009SOL    HW122131   0.426   0.591   1.310  1.2689 -0.9403  0.2256
 4009SOL    HW222132   0.563   0.622   1.393  0.0568  3.0374  0.8173
 4010SOL     OW22133   0.536   7.413   0.903  0.1730 -0.0634 -0.4650
 4010SOL    HW122134   0.568   7.507   0.918  1.0818 -0.6877  1.7395
 4010SOL    HW222135   0.533   7.365   0.991 -0.1489 -2.1344 -1.5907
 4011SOL     OW22136   1.941   0.874   2.544  0.5165 -0.2269 -0.2266
 4011SOL    HW122137   1.880   0.939   2.590  0.5294  0.1515 -0.7370
 4011SOL    HW222138   1.921   0.781   2.575 -0.3014 -0.1022 -0.3768
 4012SOL     OW22139   1.009   8.072   0.709  0.2867  0.6905  0.2711
 4012SOL    HW122140   0.910   8.058   0.712  0.4229 -0.6918 -1.1981
 4012SOL    HW222141   1.028   8.170   0.707 -1.1702  0.9773 -1.6395
 4013SOL     OW22142   3.440   1.516   0.308  0.3434  0.4321  0.1900
 4013SOL    HW122143   3.463   1.419   0.300 -0.9837  0.1043  0.2303
 4013SOL    HW222144   3.496   1.557   0.380  0.2849 -0.5064  0.7857
 4014SOL     OW22145   3.104   2.823   0.882  0.1699  0.6399 -0.0652
 4014SOL    HW122146   3.092   2.826   0.982 -2.1420  3.2219 -0.3661
 4014SOL    HW222147   3.196   2.855   0.859 -0.3189  2.9342  1.0866
 4015SOL     OW22148   9.907   5.921   1.427  0.6718 -0.2177 -0.3086
 4015SOL    HW122149   9.894   6.012   1.466  0.1292 -0.9250  1.1860
 4015SOL    HW222150   9.898   5.926   1.328  2.1811  1.6305 -0.3878
 4016SOL     OW22151   9.372   9.738   0.295  0.3102 -0.3937 -0.3273
 4016SOL    HW122152   9.466   9.765   0.273  0.3745  0.1868  0.6529
 4016SOL    HW222153   9.315   9.820   0.304 -0.0918 -0.7032 -0.0222
 4017SOL     OW22154   9.701   9.483   0.505  0.7553 -0.3666  0.2752
 4017SOL    HW122155   9.676   9.490   0.602  0.3215  0.5396  0.1043
 4017SOL    HW222156   9.745   9.567   0.476  0.2343 -0.3528 -0.4994
 4018SOL     OW22157   3.554   8.206   1.665  0.6108 -0.0044 -0.3382
 4018SOL    HW122158   3.548   8.126   1.726 -0.3623  0.1254 -0.2472
 4018SOL    HW222159   3.606   8.182   1.583 -0.1237 -0.9044 -0.5554
 4019SOL     OW22160   4.336   2.008   1.990  0.1246 -0.0307 -0.0926
 4019SOL    HW122161   4.317   2.106   1.997 -0.1282 -0.2011  1.6713
 4019SOL    HW222162   4.428   1.989   2.025 -0.3139 -0.5984  0.7500
 4020SOL     OW22163   3.146   8.523   0.323 -0.2013  0.1093 -0.1221
 4020SOL    HW122164   3.086   8.523   0.403  1.6169  0.1891  1.2712
 4020SOL    HW222165   3.157   8.430   0.289 -0.8475  0.0553 -0.1901
 4021SOL     OW22166   1.125   6.535   1.550  0.0899 -0.3327 -0.2190
 4021SOL    HW122167   1.155   6.489   1.466 -1.3869 -1.4584 -0.1567
 4021SOL    HW222168   1.048   6.595   1.530  0.5199  0.3309  0.1163
 4022SOL     OW22169   9.359   5.333   1.186 -0.0547 -0.1394 -0.4465
 4022SOL    HW122170   9.415   5.412   1.163 -0.8122  0.4613 -0.2316
 4022SOL    HW222171   9.415   5.250   1.180  0.8549  0.4476 -0.2352
 4023SOL     OW22172   2.940   7.188   0.754 -0.3198 -0.4116  0.3451
 4023SOL    HW122173   2.876   7.155   0.824 -0.2979 -1.4559 -0.1192
 4023SOL    HW222174   2.922   7.285   0.735 -1.4804 -0.5873  0.5346
 4024SOL     OW22175   7.591   0.602   1.116 -0.6051 -0.4893  0.1923
 4024SOL    HW122176   7.514   0.630   1.059 -1.0261 -0.3624  0.8190
 4024SOL    HW222177   7.635   0.521   1.076  1.3638  1.7197 -2.2987
 4025SOL     OW22178   2.178   4.467   0.694 -0.7898  0.5031  0.2053
 4025SOL    HW122179   2.245   4.393   0.686  0.2525  1.4745 -0.1202
 4025SOL    HW222180   2.087   4.432   0.670 -0.3803 -0.7751  0.4602
 4026SOL     OW22181   0.053   2.308   0.456 -0.1054  0.7198 -0.0306
 4026SOL    HW122182  -0.041   2.299   0.488  0.2598 -0.4210  0.7725
 4026SOL    HW222183   0.116   2.276   0.528  0.8002 -0.6291 -1.3833
 4027SOL     OW22184   1.063   6.712   0.649 -0.4068 -0.2084  0.6682
 4027SOL    HW122185   1.111   6.799   0.649  1.2285 -1.0882  1.1280
 4027SOL    HW222186   1.076   6.666   0.561 -2.4716  0.6336 -0.1110
 4028SOL     OW22187   2.480   7.594   1.441 -0.4658  0.3895  0.6023
 4028SOL    HW122188   2.399   7.584   1.500 -0.1762 -0.1065  0.9163
 4028SOL    HW222189   2.553   7.639   1.493 -0.5617  0.9137  0.2931
 4029SOL     OW22190   8.490   9.830   0.654 -0.6779  0.1880 -0.6292
 4029SOL    HW122191   8.460   9.925   0.650 -1.5907 -0.0056  1.2602
 4029SOL    HW222192   8.484   9.797   0.748  2.3380 -0.8684 -0.7432
 4030SOL     OW22193   7.832   0.704   0.374  0.4920 -0.7578  0.4451
 4030SOL    HW122194   7.900   0.697   0.301 -0.5233 -1.0434 -0.4915
 4030SOL    HW222195   7.812   0.800   0.391 -0.8391 -0.7390 -1.1507
 4031SOL     OW22196   8.152   1.435   2.060 -0.2200  0.2244 -0.2642
 4031SOL    HW122197   8.200   1.522   2.076  1.5323 -1.0034  1.4158
 4031SOL    HW222198   8.090   1.417   2.136  0.6846 -0.7876  0.2580
 4032SOL     OW22199   0.781   9.065   0.380  0.0107 -0.0364  0.3979
 4032SOL    HW122200   0.802   9.134   0.311  1.8939  0.6871  1.6687
 4032SOL    HW222201   0.859   9.053   0.441 -1.1193 -1.6577  1.5892
 4033SOL     OW22202   9.090   5.021   1.784 -0.1560 -0.4800 -0.0697
 4033SOL    HW122203   9.026   4.945   1.792 -0.5257  0.0000  1.6232
 4033SOL    HW222204   9.171   4.991   1.733 -0.5578 -1.8261  0.0650
 4034SOL     OW22205   9.237   0.030   0.852 -0.2556  0.2438 -0.3994
 4034SOL    HW122206   9.175  -0.023   0.795 -0.0606  0.1991 -0.5678
 4034SOL    HW222207   9.198   0.121   0.867 -0.1950  0.3370 -0.8005
 4035SOL     OW22208   2.226   0.946   1.066 -0.1130 -0.4705 -0.0292
 4035SOL    HW122209   2.128   0.961   1.056  0.5357  2.8209 -2.1766
 4035SOL    HW222210   2.263   1.009   1.134  0.5751 -1.3769  0.4446
 4036SOL     OW22211   2.154   4.304   1.475  0.0639 -0.4389 -0.3224
 4036SOL    HW122212   2.102   4.331   1.557  0.1136  1.3386 -0.8608
 4036SOL    HW222213   2.155   4.379   1.410  1.7729 -1.1235 -1.1057
 4037SOL     OW22214   0.621   5.554   1.283  0.0532 -0.2842  0.6259
 4037SOL    HW122215   0.553   5.578   1.214  0.7422 -0.0665  0.0170
 4037SOL    HW222216   0.578   5.554   1.374 -1.0035 -1.2163  0.1328
 4038SOL     OW22217   0.706   4.444   2.553  0.3321  0.6010  0.1053
 4038SOL    HW122218   0.782   4.429   2.616  0.4959 -0.0830 -0.2506
 4038SOL    HW222219   0.741   4.475   2.464  0.0821  1.8443  0.4316
 4039SOL     OW22220   1.647   9.431   0.176  0.0505 -0.5043  0.1902
 4039SOL    HW122221   1.635   9.518   0.225  0.8476 -0.7626  0.8659
 4039SOL    HW222222   1.558   9.387   0.164 -0.4773  0.8143 -0.9338
 4040SOL     OW22223   9.691   4.502   0.031 -0.0617  0.1570 -0.0160
 4040SOL    HW122224   9.773   4.520  -0.024 -0.7977 -1.7688 -1.8187
 4040SOL    HW222225   9.648   4.588   0.056  1.8219  1.1586 -0.1260
 4041SOL     OW22226   3.056   1.990   0.901 -0.5325  0.1331  0.1066
 4041SOL    HW122227   3.097   2.030   0.819  0.2396  0.6895  0.7461
 4041SOL    HW222228   3.100   1.903   0.921  1.1002  1.2007  1.3630
 4042SOL     OW22229   1.416   8.440   0.587 -0.5622 -0.9671 -0.4304
 4042SOL    HW122230   1.470   8.474   0.510 -2.2169 -2.2508 -2.2062
 4042SOL    HW222231   1.350   8.510   0.615 -3.8755 -2.4663 -3.9940
 4043SOL     OW22232   0.915   7.605   2.346 -0.8657  0.7540  0.3556
 4043SOL    HW122233   0.972   7.651   2.413 -1.1899 -0.2243  1.3125
 4043SOL    HW222234   0.825   7.585   2.386 -0.6973 -0.7875 -0.0027
 4044SOL     OW22235   3.062   6.523   2.077 -0.4263 -0.0244  0.1720
 4044SOL    HW122236   3.083   6.445   2.016 -0.7929  0.2445 -0.2974
 4044SOL    HW222237   3.064   6.492   2.172  0.5036 -0.3735  0.0491
 4045SOL     OW22238   2.156   2.317   1.360  0.1300  0.3686 -0.7608
 4045SOL    HW122239   2.123   2.412   1.366 -0.7040  0.0255  0.2773
 4045SOL    HW222240   2.106   2.261   1.426 -0.1208 -1.0041 -2.0988
 4046SOL     OW22241   1.088   5.282   0.120 -0.1097 -0.2646 -0.0952
 4046SOL    HW122242   1.081   5.218   0.044 -0.4339 -0.5864  0.2058
 4046SOL    HW222243   1.006   5.275   0.177  0.4053 -0.4660  0.6230
 4047SOL     OW22244   8.565   7.625   0.292  0.0099  0.4263  0.0160
 4047SOL    HW122245   8.561   7.552   0.360 -0.7749  0.1049 -0.3661
 4047SOL    HW222246   8.647   7.613   0.236 -0.0239 -0.0627  0.0668
 4048SOL     OW22247   9.679   3.418   2.565  0.0726 -0.3575  0.3905
 4048SOL    HW122248   9.765   3.383   2.527  0.3763  0.3319  0.4383
 4048SOL    HW222249   9.696   3.506   2.609 -1.0162  0.6906 -1.2344
 4049SOL     OW22250   0.112   4.883   0.120 -0.1639  0.4038 -0.6997
 4049SOL    HW122251   0.128   4.784   0.117  1.2234  0.5754  0.6507
 4049SOL    HW222252   0.031   4.902   0.175  0.4802  0.1053  0.3666
 4050SOL     OW22253   3.444   4.916   2.194 -0.0108  0.1978 -0.2090
 4050SOL    HW122254   3.367   4.858   2.220 -0.2101  0.7881  0.5425
 4050SOL    HW222255   3.424   5.011   2.218  0.3947  0.5496 -1.2578
 4051SOL     OW22256   2.835   6.797   0.988  0.1448  0.2843  0.1876
 4051SOL    HW122257   2.821   6.753   1.077 -0.0697  0.2775  0.1508
 4051SOL    HW222258   2.794   6.888   0.989  2.5257  1.3907  1.0047
 4052SOL     OW22259   4.574   4.143   0.704 -0.1271 -0.1810  0.7499
 4052SOL    HW122260   4.604   4.099   0.789 -0.0827  0.1062  0.8833
 4052SOL    HW222261   4.560   4.073   0.634 -2.1834 -0.6535  1.5877
 4053SOL     OW22262   4.175   2.477   1.803  0.3162  0.4345 -0.3720
 4053SOL    HW122263   4.136   2.390   1.833 -0.3060  0.7346 -0.3043
 4053SOL    HW222264   4.172   2.481   1.703  0.3913  0.3518 -0.3773
 4054SOL     OW22265   1.478   8.031   0.402  0.1611  0.5234 -0.0264
 4054SOL    HW122266   1.471   7.936   0.372  1.0313  0.3240  0.3747
 4054SOL    HW222267   1.554   8.075   0.356 -0.5122  1.1584 -0.5370
 4055SOL     OW22268   2.688   1.215   0.298 -0.2262  0.6984  0.0849
 4055SOL    HW122269   2.700   1.278   0.375  0.5818  0.4817  0.1349
 4055SOL    HW222270   2.687   1.121   0.332  1.3646  0.5277 -0.2971
 4056SOL     OW22271   8.624   2.596   0.860 -0.3910 -0.3074  0.3061
 4056SOL    HW122272   8.564   2.533   0.909 -2.0876  0.8331 -0.2596
 4056SOL    HW222273   8.629   2.682   0.910 -0.3286  0.0858 -0.3696
 4057SOL     OW22274   3.420   9.975   1.242 -0.4817 -0.5398  0.6828
 4057SOL    HW122275   3.488   9.903   1.236 -0.4806 -0.3215 -2.4481
 4057SOL    HW222276   3.329   9.938   1.222 -0.7527 -0.0350  0.9528
 4058SOL     OW22277   2.841   5.130   2.340 -0.3262 -0.0912  0.0883
 4058SOL    HW122278   2.914   5.146   2.274  0.4751  1.6802  1.3505
 4058SOL    HW222279   2.880   5.100   2.427 -1.2941 -1.5080  0.0442
 4059SOL     OW22280   9.599   2.787   2.451  0.0380 -0.4116 -0.0932
 4059SOL    HW122281   9.639   2.713   2.506  1.7616  0.6501  0.1147
 4059SOL    HW222282   9.632   2.875   2.485 -1.8873  0.4569 -0.4377
 4060SOL     OW22283   3.284   5.382   0.281 -0.0552 -0.2637 -0.2259
 4060SOL    HW122284   3.297   5.322   0.202  0.2619 -1.6248  0.8517
 4060SOL    HW222285   3.200   5.436   0.268  0.3244 -0.0261 -1.7658
 4061SOL     OW22286   2.140   8.791   0.430 -0.5107 -0.2391  0.3286
 4061SOL    HW122287   2.154   8.823   0.524  0.7409  0.4973 -0.0986
 4061SOL    HW222288   2.148   8.691   0.428  1.5856 -0.1040  0.6707
 4062SOL     OW22289   0.495   2.206   0.967 -0.2816 -0.7056  0.5055
 4062SOL    HW122290   0.518   2.253   1.052 -0.7791  0.9758 -0.2800
 4062SOL    HW222291   0.576   2.161   0.931  0.7618  1.4671  0.0765
 4063SOL     OW22292   1.343   4.159   1.578  0.2394 -0.0300  0.3529
 4063SOL    HW122293   1.274   4.199   1.638  0.6359 -0.3752  1.0524
 4063SOL    HW222294   1.402   4.099   1.632  0.1220 -0.9472 -0.5423
 4064SOL     OW22295   2.150   2.633   0.045  0.2462 -0.0518  0.3897
 4064SOL    HW122296   2.072   2.693   0.066  0.6301  0.7820 -0.5088
 4064SOL    HW222297   2.182   2.652  -0.048  0.5605 -1.4629  0.2010
 4065SOL     OW22298   8.375   9.256   0.244 -0.0113  0.2867  0.3303
 4065SOL    HW122299   8.432   9.231   0.166  0.1070 -1.0901  0.8564
 4065SOL    HW222300   8.404   9.346   0.279  0.9500  0.2024 -0.2299
 4066SOL     OW22301   8.775   1.340   0.733 -0.3937 -0.1283  0.1182
 4066SOL    HW122302   8.823   1.416   0.691 -1.1923 -0.1713 -0.8786
 4066SOL    HW222303   8.786   1.344   0.832  0.6245  0.5577 -0.0241
 4067SOL     OW22304   8.384   9.993   0.996  0.6155  0.1978 -0.2471
 4067SOL    HW122305   8.305  10.034   0.950  1.2484  0.7298 -0.8770
 4067SOL    HW222306   8.373  10.001   1.095  0.7039  1.8511 -0.3606
 4068SOL     OW22307   8.600   8.442   1.254  1.2317 -0.2389 -0.4262
 4068SOL    HW122308   8.598   8.355   1.304  1.6466  0.6371  1.1722
 4068SOL    HW222309   8.675   8.441   1.188  0.9396 -1.2736 -0.7458
 4069SOL     OW22310   1.514   6.427   2.167  0.1178 -0.5964  0.2881
 4069SOL    HW122311   1.586   6.495   2.150 -0.6822  0.5231  1.3289
 4069SOL    HW222312   1.438   6.443   2.104 -0.2850 -0.2057  0.8702
 4070SOL     OW22313   2.556   4.109   0.609 -0.1991 -0.3089  0.0475
 4070SOL    HW122314   2.519   4.023   0.645 -2.2855  1.4926  2.4114
 4070SOL    HW222315   2.481   4.175   0.596  1.6038  1.8568  0.2813
 4071SOL     OW22316   0.671   3.384   2.223 -0.5258 -0.1635 -0.2881
 4071SOL    HW122317   0.618   3.429   2.294  0.1198 -0.4129  0.3610
 4071SOL    HW222318   0.733   3.450   2.180  0.6453 -0.4914  0.8775
 4072SOL     OW22319   9.007   7.952   1.104 -0.5957 -0.2720  0.4159
 4072SOL    HW122320   9.003   7.852   1.102 -0.5407 -0.3411  2.9165
 4072SOL    HW222321   8.921   7.988   1.140 -0.5482  0.5875 -0.3184
 4073SOL     OW22322   2.836   0.685   1.584 -0.6241 -0.4644 -0.0290
 4073SOL    HW122323   2.932   0.681   1.557 -0.3036 -1.1979  1.1411
 4073SOL    HW222324   2.826   0.644   1.675 -2.2762 -1.7481 -0.7679
 4074SOL     OW22325   3.805   4.817   1.092 -0.4852 -0.0107  0.2175
 4074SOL    HW122326   3.874   4.877   1.133 -0.3712 -0.4849  0.7222
 4074SOL    HW222327   3.721   4.821   1.145 -0.5204 -0.2056  0.1759
 4075SOL     OW22328   0.025   4.726   0.393 -0.7835 -0.0345  0.2309
 4075SOL    HW122329   0.049   4.644   0.443 -2.1420 -0.3192  0.4442
 4075SOL    HW222330   0.077   4.804   0.428  0.8556 -0.8792 -0.2901
 4076SOL     OW22331   3.488   8.146   2.248 -0.4668  0.6504 -0.1109
 4076SOL    HW122332   3.480   8.087   2.328 -1.4455  1.4548  0.3954
 4076SOL    HW222333   3.574   8.198   2.253  1.5890 -2.4756 -1.7715
 4077SOL     OW22334   0.145   5.529   1.738  0.0177 -0.0075 -0.0417
 4077SOL    HW122335   0.214   5.602   1.729  1.1187 -1.1389 -1.0717
 4077SOL    HW222336   0.063   5.555   1.686 -0.1328  1.1115  0.7399
 4078SOL     OW22337   1.228   4.462   0.472 -0.2319 -0.3470  0.0510
 4078SOL    HW122338   1.207   4.526   0.398 -0.1262 -1.0228 -0.5683
 4078SOL    HW222339   1.324   4.472   0.499 -0.5453  0.6354  0.8227
 4079SOL     OW22340   9.265   6.606   1.455 -0.1476 -0.2820  0.1991
 4079SOL    HW122341   9.224   6.661   1.383  0.1294  0.9643  0.9804
 4079SOL    HW222342   9.230   6.513   1.450  1.1945 -0.6704 -2.6381
 4080SOL     OW22343   1.181   1.711   1.206  0.0584 -0.1273 -0.3256
 4080SOL    HW122344   1.204   1.717   1.304 -0.4559  0.2039 -0.2280
 4080SOL    HW222345   1.160   1.802   1.171  0.6805 -0.1805 -0.8562
 4081SOL     OW22346   4.034   0.789   1.815  0.2152  0.5202 -0.4902
 4081SOL    HW122347   4.077   0.843   1.887 -1.4270 -1.6395  2.2277
 4081SOL    HW222348   3.936   0.810   1.811 -0.0580 -0.7499 -0.7646
 4082SOL     OW22349   0.069   7.213   2.269 -0.1313  0.3140  0.6412
 4082SOL    HW122350   0.009   7.226   2.348 -1.6035  1.1616 -0.6120
 4082SOL    HW222351   0.119   7.298   2.251 -0.5209  0.4151  0.0515
 4083SOL     OW22352   2.313   9.788   0.088  0.0403  0.0907  0.3005
 4083SOL    HW122353   2.293   9.766   0.184  0.1571 -1.6991 -0.0649
 4083SOL    HW222354   2.356   9.878   0.083 -1.8576  1.1268  1.7259
 4084SOL     OW22355   1.354   6.941   1.666 -0.2071  0.3811 -0.9999
 4084SOL    HW122356   1.398   7.030   1.671 -0.2688  0.3833 -0.4313
 4084SOL    HW222357   1.421   6.871   1.641  0.0868  0.4086 -0.2981
 4085SOL     OW22358   4.212   0.397   1.671 -0.2501 -0.7696 -0.2416
 4085SOL    HW122359   4.276   0.363   1.602 -0.7776 -2.1940 -0.0550
 4085SOL    HW222360   4.124   0.350   1.661 -0.8760  0.2637  0.2998
 4086SOL     OW22361   3.706   9.205   0.879  0.0624  0.1508  0.0543
 4086SOL    HW122362   3.645   9.279   0.849  1.0324  1.3052  0.8660
 4086SOL    HW222363   3.801   9.234   0.866  0.4570 -0.6166  1.2048
 4087SOL     OW22364   2.354   2.428   2.321  0.0557  0.0631  0.2837
 4087SOL    HW122365   2.283   2.497   2.310  1.2085  1.3516  0.6764
 4087SOL    HW222366   2.382   2.393   2.231 -0.3195  0.3366  0.0615
 4088SOL     OW22367   1.145   6.821   2.552  0.1773  0.1780 -0.2772
 4088SOL    HW122368   1.217   6.884   2.579 -0.4827  1.0072 -0.4318
 4088SOL    HW222369   1.061   6.872   2.534  0.2413 -0.4974 -2.6261
 4089SOL     OW22370   1.939   0.912   1.054 -0.1178  0.1753 -0.1535
 4089SOL    HW122371   1.864   0.946   0.997  0.5965  2.2091  0.0813
 4089SOL    HW222372   1.924   0.816   1.075 -2.0715  0.2622 -1.0646
 4090SOL     OW22373   2.669   4.774   1.340  0.6573  0.1898 -0.5986
 4090SOL    HW122374   2.614   4.782   1.422  2.2475 -0.6136  0.5833
 4090SOL    HW222375   2.760   4.813   1.356  0.9353  0.1613 -2.0067
 4091SOL     OW22376   2.175   0.631   1.855 -0.5444  0.4511  0.3673
 4091SOL    HW122377   2.189   0.677   1.767  0.3566  1.0137  0.7972
 4091SOL    HW222378   2.098   0.672   1.903 -1.2715 -0.0989 -0.3141
 4092SOL     OW22379   3.871   4.306   1.734 -0.3099  0.1011  0.2259
 4092SOL    HW122380   3.899   4.259   1.651  0.5793 -0.5379  0.8729
 4092SOL    HW222381   3.948   4.362   1.768 -0.2270 -0.6572  1.3147
 4093SOL     OW22382   2.743   3.896   1.153 -0.3777 -0.1878 -0.3442
 4093SOL    HW122383   2.733   3.800   1.180 -0.0449 -0.5124 -1.3542
 4093SOL    HW222384   2.695   3.911   1.067 -1.7894  0.9373  0.6178
 4094SOL     OW22385   1.280   1.428   1.772 -0.3049  0.2030 -0.4402
 4094SOL    HW122386   1.200   1.437   1.832  0.4648 -2.6213  1.0869
 4094SOL    HW222387   1.361   1.462   1.819 -0.2633  1.3533 -1.3030
 4095SOL     OW22388   0.419   1.098   1.110  0.0167 -0.1954  0.9831
 4095SOL    HW122389   0.508   1.084   1.066 -0.4206  1.8944 -0.7079
 4095SOL    HW222390   0.428   1.167   1.182  0.0459 -1.0679  1.8204
 4096SOL     OW22391   8.362   7.782   1.902  0.1892  0.0952 -0.2189
 4096SOL    HW122392   8.379   7.742   1.992  1.6041  0.8247 -0.1447
 4096SOL    HW222393   8.356   7.709   1.833  1.9190 -0.3088  0.0412
 4097SOL     OW22394   2.093   3.472   1.068 -0.2113  0.4210 -0.2174
 4097SOL    HW122395   2.164   3.488   1.137 -0.8133  1.0155  0.2725
 4097SOL    HW222396   2.023   3.544   1.075 -0.9598 -0.2665 -0.5742
 4098SOL     OW22397   1.578   4.391   1.724 -0.0869  1.0863 -0.4704
 4098SOL    HW122398   1.540   4.371   1.814  0.4464 -1.3434 -0.7536
 4098SOL    HW222399   1.506   4.423   1.663 -0.5633  2.1168  0.6125
 4099SOL     OW22400   2.119   8.387   1.078  0.2509 -0.1884 -0.4989
 4099SOL    HW122401   2.074   8.300   1.059  0.0029 -0.1652 -0.0359
 4099SOL    HW222402   2.215   8.383   1.050  0.4631 -0.8963  0.3201
 4100SOL     OW22403   2.603   2.936   0.372 -0.5043  0.3187 -0.8317
 4100SOL    HW122404   2.548   2.921   0.453 -1.1893  0.4999 -1.2579
 4100SOL    HW222405   2.592   2.859   0.309  0.7849 -0.2860 -0.3354
 4101SOL     OW22406   8.454   0.967   2.506 -0.2289 -0.1857 -0.6894
 4101SOL    HW122407   8.524   0.982   2.576  0.2039  2.2537 -1.5698
 4101SOL    HW222408   8.367   1.005   2.537 -0.4097 -0.4658 -0.8517
 4102SOL     OW22409   2.479   4.856   0.331  0.5563 -0.4742 -0.1024
 4102SOL    HW122410   2.441   4.923   0.267 -1.6504  0.1869  1.8272
 4102SOL    HW222411   2.579   4.854   0.322  0.4203  0.8833 -2.2809
 4103SOL     OW22412   0.245   2.906   0.066 -0.7647  0.1492  0.0762
 4103SOL    HW122413   0.279   3.000   0.059  0.1760 -0.0967  1.1377
 4103SOL    HW222414   0.165   2.905   0.126  0.8685 -0.0935  2.3383
 4104SOL     OW22415   9.069   3.135   1.559  0.5572  0.3444 -0.2119
 4104SOL    HW122416   9.157   3.133   1.607  0.4447  1.6217  0.0668
 4104SOL    HW222417   9.010   3.063   1.594  1.7289 -0.9622 -0.8731
 4105SOL     OW22418   2.582   3.455   2.378 -0.5099  0.4084 -0.2517
 4105SOL    HW122419   2.586   3.555   2.379 -0.1473  0.3950 -0.1585
 4105SOL    HW222420   2.492   3.426   2.347  0.0203  0.7750 -2.2099
 4106SOL     OW22421   2.262   3.973   0.943  0.2921 -0.0117 -0.2146
 4106SOL    HW122422   2.293   4.039   0.874 -0.2384  1.0173  0.5246
 4106SOL    HW222423   2.171   3.939   0.918 -0.7283  1.7744  0.9169
 4107SOL     OW22424   7.946   0.207   2.097  0.6703  0.3429  0.1451
 4107SOL    HW122425   7.983   0.296   2.126  0.4693  0.4092  0.1999
 4107SOL    HW222426   7.852   0.219   2.067 -0.2038 -0.2847  2.5667
 4108SOL     OW22427   0.954   4.388   1.617 -0.4563  0.4544  0.0398
 4108SOL    HW122428   0.920   4.467   1.566 -0.3723  1.0271  0.8472
 4108SOL    HW222429   0.973   4.313   1.554 -2.9885  0.1940 -0.4597
 4109SOL     OW22430   0.272   9.878   2.395  0.2220 -0.6410 -0.0578
 4109SOL    HW122431   0.369   9.892   2.378  0.3327  0.1544  1.1734
 4109SOL    HW222432   0.240   9.944   2.463 -1.2873 -0.5861 -0.7889
 4110SOL     OW22433   4.808   3.441   1.862  0.1235  0.0587  0.2619
 4110SOL    HW122434   4.847   3.358   1.902  1.8395  0.5696 -0.3131
 4110SOL    HW222435   4.819   3.439   1.763  1.3698  1.5601  0.3530
 4111SOL     OW22436   4.091   3.206   0.000  0.3317 -0.3002  0.0420
 4111SOL    HW122437   4.015   3.142   0.014 -0.1749  0.1031 -0.8373
 4111SOL    HW222438   4.145   3.177  -0.078 -0.0957  0.5241 -0.5686
 4112SOL     OW22439   4.141   0.313   1.242  0.0537 -0.0156  0.2024
 4112SOL    HW122440   4.082   0.289   1.164  0.4852  0.2518 -0.2048
 4112SOL    HW222441   4.097   0.385   1.296 -1.4918 -2.0310  1.7216
 4113SOL     OW22442   0.390   1.710   1.232 -0.1599 -0.1862  0.1192
 4113SOL    HW122443   0.303   1.737   1.191 -0.6890 -1.8481  0.0857
 4113SOL    HW222444   0.374   1.673   1.323  0.3682 -1.4162 -0.2631
 4114SOL     OW22445   9.649   4.438   1.675 -0.8682 -0.0228  0.1338
 4114SOL    HW122446   9.611   4.517   1.628  0.4587 -1.5055 -3.6807
 4114SOL    HW222447   9.593   4.357   1.655  0.7407 -1.0248 -0.4926
 4115SOL     OW22448   3.474   1.761   1.265 -0.8070 -0.1933 -0.5338
 4115SOL    HW122449   3.466   1.776   1.363 -2.5799 -2.2747 -0.3387
 4115SOL    HW222450   3.565   1.792   1.234 -0.8484  2.0341  1.4181
 4116SOL     OW22451   1.493   9.569   1.970 -0.1577  0.2451  0.7687
 4116SOL    HW122452   1.552   9.568   1.888  0.1279 -1.0350  0.9802
 4116SOL    HW222453   1.550   9.573   2.052 -0.3456 -1.0328  0.9760
 4117SOL     OW22454   1.349   4.403   2.356 -0.0239 -0.0174  0.3658
 4117SOL    HW122455   1.351   4.371   2.451  1.9076 -1.2926 -0.0698
 4117SOL    HW222456   1.263   4.451   2.339 -0.3119  0.4015  2.8028
 4118SOL     OW22457   2.637   5.611   2.539  0.0567  0.5951  0.6812
 4118SOL    HW122458   2.648   5.526   2.488  0.1914 -0.0110  1.7142
 4118SOL    HW222459   2.541   5.624   2.563 -0.2330  1.5892 -0.9221
 4119SOL     OW22460   0.078   4.089   0.767  0.2563 -0.6859 -0.0249
 4119SOL    HW122461   0.125   4.038   0.839  0.6525 -2.1846 -1.3184
 4119SOL    HW222462  -0.019   4.096   0.790  0.8674  1.3608  2.0460
 4120SOL     OW22463   3.099   2.542   0.876 -0.4920  0.6434 -0.1755
 4120SOL    HW122464   3.137   2.633   0.860 -2.1370  1.2618 -0.7629
 4120SOL    HW222465   2.999   2.546   0.866 -0.7444 -0.8617  1.4891
 4121SOL     OW22466   7.897   0.661   2.464  0.3783  0.7774  0.0909
 4121SOL    HW122467   7.996   0.673   2.454  0.3909 -0.2198 -1.0500
 4121SOL    HW222468   7.879   0.573   2.508  0.0062  0.9190  0.2156
 4122SOL     OW22469   1.572   4.152   2.009  0.0868 -0.0295 -0.7357
 4122SOL    HW122470   1.517   4.228   2.043  0.1285 -1.1838  2.0420
 4122SOL    HW222471   1.669   4.176   2.015  0.0561  0.2022 -1.1436
 4123SOL     OW22472   0.552   7.226   1.713 -0.5060 -0.3643 -0.1266
 4123SOL    HW122473   0.635   7.220   1.657 -0.0941  1.5248  0.2549
 4123SOL    HW222474   0.578   7.230   1.810 -0.9940  0.8069 -0.0333
 4124SOL     OW22475   1.958   5.045   1.302  0.5128 -0.1720 -0.2092
 4124SOL    HW122476   2.053   5.071   1.321 -0.2292  1.5691  1.2763
 4124SOL    HW222477   1.952   5.005   1.211  2.4633  0.8840 -0.8321
 4125SOL     OW22478   0.639   2.309   1.662  0.0382  0.3669 -0.1372
 4125SOL    HW122479   0.624   2.394   1.611 -0.9441 -0.1407 -0.7169
 4125SOL    HW222480   0.710   2.255   1.617  1.2436  1.2528  0.6989
 4126SOL     OW22481   4.349   2.658   0.830 -0.3176 -0.6148  0.1610
 4126SOL    HW122482   4.355   2.596   0.908  0.5254 -0.4345  0.2388
 4126SOL    HW222483   4.282   2.730   0.850 -0.6342 -0.9835  0.4292
 4127SOL     OW22484   9.803   6.460   0.207 -0.0739 -0.2012 -0.5276
 4127SOL    HW122485   9.760   6.404   0.277  1.0731 -0.9950 -0.4590
 4127SOL    HW222486   9.827   6.403   0.128  0.8408  0.2468 -0.5743
 4128SOL     OW22487   8.424   0.466   0.638 -0.0204  0.1404 -0.1626
 4128SOL    HW122488   8.405   0.525   0.717 -0.9640 -0.1117 -0.1880
 4128SOL    HW222489   8.355   0.482   0.568  1.0758  0.6853 -1.1307
 4129SOL     OW22490   1.087   6.592   2.394  0.1613 -0.1527 -0.4284
 4129SOL    HW122491   1.061   6.620   2.302 -2.1747  0.8336  0.4779
 4129SOL    HW222492   1.146   6.662   2.435  0.0473  0.0814 -0.6675
 4130SOL     OW22493   9.774   6.273   2.068 -0.7084  0.1813 -0.1241
 4130SOL    HW122494   9.710   6.217   2.121  0.5151  1.5341  2.9123
 4130SOL    HW222495   9.863   6.229   2.067 -0.2648  1.0412  0.5378
 4131SOL     OW22496   4.493   3.780   1.946 -0.0394 -0.0588  0.3479
 4131SOL    HW122497   4.456   3.694   1.981 -0.8573  0.9548  2.0544
 4131SOL    HW222498   4.454   3.856   1.998  1.2045  1.2953 -0.6731
 4132SOL     OW22499   2.437   4.750   1.947 -0.0963  0.4076  0.0431
 4132SOL    HW122500   2.455   4.652   1.941 -2.9346 -0.1587  0.0608
 4132SOL    HW222501   2.476   4.796   1.868 -2.0910 -1.2968 -2.0003
 4133SOL     OW22502   2.718   6.829   1.429 -0.1076  0.3648  0.0063
 4133SOL    HW122503   2.790   6.858   1.492  0.3613  0.2845 -0.4922
 4133SOL    HW222504   2.635   6.881   1.449  0.2527  0.8792  0.2012
 4134SOL     OW22505   0.214   2.370   0.989 -0.7515  0.3313  0.0546
 4134SOL    HW122506   0.314   2.370   0.998 -0.8747  0.3295  1.5813
 4134SOL    HW222507   0.183   2.278   0.966 -0.3880  0.3681 -0.5920
 4135SOL     OW22508   3.600   1.284   2.400  0.7548 -0.2678  0.1714
 4135SOL    HW122509   3.627   1.217   2.469  1.0690  0.6457  0.9584
 4135SOL    HW222510   3.505   1.310   2.414  1.0152  0.4267  0.7045
 4136SOL     OW22511   3.511   8.944   1.440  1.0511 -0.6265 -0.0409
 4136SOL    HW122512   3.463   8.988   1.516 -0.4682  0.3972 -1.5687
 4136SOL    HW222513   3.608   8.970   1.441  1.0310 -0.5828  1.5031
 4137SOL     OW22514   9.421   5.696   0.865  0.2479 -0.2153 -0.4045
 4137SOL    HW122515   9.339   5.752   0.867 -0.1870 -0.8515 -0.0987
 4137SOL    HW222516   9.501   5.750   0.892  0.0550  0.6144 -1.4945
 4138SOL     OW22517   9.334   8.845   2.342  0.6849  0.3100  0.7251
 4138SOL    HW122518   9.331   8.866   2.440 -1.7814 -2.8892  1.4357
 4138SOL    HW222519   9.272   8.907   2.294 -0.6348 -0.2111  1.6920
 4139SOL     OW22520   0.743   1.208   0.251 -0.3077 -0.0775  0.5125
 4139SOL    HW122521   0.814   1.240   0.315  1.3832  0.5942 -1.6150
 4139SOL    HW222522   0.746   1.265   0.168 -0.6195 -2.5878 -1.2746
 4140SOL     OW22523   3.872   0.401   1.080  0.1542 -0.2064  0.4774
 4140SOL    HW122524   3.915   0.350   1.005  1.0806  0.0634  0.8134
 4140SOL    HW222525   3.874   0.499   1.059 -2.5753 -0.3622 -0.6522
 4141SOL     OW22526   2.600   8.409   0.195 -0.5060 -0.0571 -0.5795
 4141SOL    HW122527   2.661   8.464   0.251 -1.5269 -0.1799  0.6787
 4141SOL    HW222528   2.550   8.469   0.132  1.0486  0.0161 -1.7813
 4142SOL     OW22529   1.075   1.446   0.511  0.3183 -0.3319 -0.1201
 4142SOL    HW122530   1.046   1.463   0.416 -2.0521 -1.3502  0.3669
 4142SOL    HW222531   1.065   1.348   0.531  0.4820 -0.0689  1.2715
 4143SOL     OW22532   4.212   9.705   1.899 -0.3267  0.4593  0.1266
 4143SOL    HW122533   4.146   9.712   1.824  1.2655 -0.7805 -1.4409
 4143SOL    HW222534   4.204   9.616   1.943 -0.3264  0.6618  0.5398
 4144SOL     OW22535   8.201   9.847   1.307  0.3455 -0.3640  0.6163
 4144SOL    HW122536   8.258   9.926   1.330 -0.6220  0.1212  1.3903
 4144SOL    HW222537   8.241   9.765   1.347  1.5897 -0.3367 -0.5594
 4145SOL     OW22538   4.588   2.828   0.768 -0.5057  0.5092  0.1694
 4145SOL    HW122539   4.669   2.770   0.778  0.4626  1.4698 -1.7611
 4145SOL    HW222540   4.506   2.772   0.781  0.4160 -1.1929 -0.9693
 4146SOL     OW22541   0.958   9.698   1.795 -0.0473  0.4075  0.7286
 4146SOL    HW122542   0.939   9.623   1.732 -1.8149 -0.3681  2.1438
 4146SOL    HW222543   1.012   9.768   1.748 -0.1510 -0.7811 -1.2225
 4147SOL     OW22544   8.906   7.985   0.128  0.1582 -0.3608  0.2062
 4147SOL    HW122545   8.922   8.069   0.078  0.5164 -0.6354 -0.1410
 4147SOL    HW222546   8.988   7.960   0.180  1.6322 -2.8122 -3.1137
 4148SOL     OW22547   9.116   5.462   0.206 -0.2039 -0.1321  0.0797
 4148SOL    HW122548   9.206   5.506   0.215  0.3287 -1.1356 -0.2159
 4148SOL    HW222549   9.084   5.474   0.112  0.1919 -0.8423 -0.1475
 4149SOL     OW22550   0.042   8.155   1.505 -0.3269  0.3513  0.6607
 4149SOL    HW122551   0.114   8.109   1.452 -0.8048  0.9226 -0.5205
 4149SOL    HW222552  -0.041   8.101   1.503 -0.7211  0.9800 -0.2548
 4150SOL     OW22553   0.533   3.199   0.831  0.2454 -0.4369  0.0105
 4150SOL    HW122554   0.487   3.214   0.743 -3.3400 -0.9714  1.7309
 4150SOL    HW222555   0.576   3.285   0.860 -4.2562  1.7207  0.8345
 4151SOL     OW22556   2.943   5.246   0.902 -0.0487 -0.4270  0.0367
 4151SOL    HW122557   2.979   5.205   0.818  0.8690 -0.6022  0.5102
 4151SOL    HW222558   3.013   5.306   0.942 -1.2033  1.2329 -0.3937
 4152SOL     OW22559   3.129   7.353   0.176  0.6408  0.0742 -0.9510
 4152SOL    HW122560   3.143   7.309   0.265  0.4033  0.5449 -0.6784
 4152SOL    HW222561   3.046   7.317   0.133  0.3003  0.4536 -0.6080
 4153SOL     OW22562   0.391   8.805   0.204 -0.1060 -0.6932  0.1394
 4153SOL    HW122563   0.358   8.719   0.166 -0.9226 -1.4315  2.4122
 4153SOL    HW222564   0.323   8.841   0.269  1.1189  0.6264  0.7269
 4154SOL     OW22565   4.475   9.088   0.929  0.3215 -0.3708  0.4315
 4154SOL    HW122566   4.484   9.181   0.967  0.9598 -0.8742  1.5579
 4154SOL    HW222567   4.490   9.091   0.830 -2.1439  1.0865  0.0750
 4155SOL     OW22568   1.554   5.855   1.008  0.1083  0.0233 -0.4920
 4155SOL    HW122569   1.557   5.826   1.103  0.8411 -1.7487 -1.0315
 4155SOL    HW222570   1.509   5.944   1.001  1.5071  0.9202  1.6731
 4156SOL     OW22571   4.713   4.052   0.353  0.1205  0.0564  0.5070
 4156SOL    HW122572   4.712   4.010   0.263 -1.2421  0.2431  0.4326
 4156SOL    HW222573   4.767   3.996   0.416 -0.3650 -0.9655  0.0151
 4157SOL     OW22574   3.518   3.703   2.154  0.1139  0.3546  0.1950
 4157SOL    HW122575   3.608   3.728   2.189 -0.1238 -0.7375  1.6437
 4157SOL    HW222576   3.470   3.649   2.223 -0.8421 -0.8435 -1.3970
 4158SOL     OW22577   3.196   3.098   0.990 -0.6550 -0.2086 -0.1505
 4158SOL    HW122578   3.141   3.168   0.945  0.4455  0.2745 -0.7592
 4158SOL    HW222579   3.253   3.051   0.923  0.7499  0.2836  0.6591
 4159SOL     OW22580   8.220   8.656   0.578 -0.3249 -0.3650 -0.8869
 4159SOL    HW122581   8.188   8.610   0.661 -0.7012  0.6566 -0.4562
 4159SOL    HW222582   8.289   8.724   0.602 -1.2091  0.6771 -1.2832
 4160SOL     OW22583   2.791   5.370   0.250 -0.2555  0.8053 -0.1960
 4160SOL    HW122584   2.692   5.364   0.263 -0.3707  0.3426 -1.2464
 4160SOL    HW222585   2.831   5.422   0.325 -0.9306 -1.5436  1.8384
 4161SOL     OW22586   0.361   7.867   2.408 -0.4413  0.4022  0.1252
 4161SOL    HW122587   0.280   7.911   2.446 -1.0477 -0.9388  0.4168
 4161SOL    HW222588   0.425   7.845   2.482  1.5732  4.1094 -0.3719
 4162SOL     OW22589   4.565   3.218   1.972 -0.1237  0.5144  0.0322
 4162SOL    HW122590   4.651   3.230   1.922  0.1294 -0.4772  0.2350
 4162SOL    HW222591   4.508   3.151   1.925 -0.4186  0.5080  0.3941
 4163SOL     OW22592   4.480   8.888   0.407 -0.6260 -0.1976 -0.0080
 4163SOL    HW122593   4.486   8.969   0.349  2.9476 -1.8588 -2.0997
 4163SOL    HW222594   4.439   8.813   0.355  2.3153 -1.6078 -0.3420
 4164SOL     OW22595   8.877   9.442   1.828 -0.4653  0.3545  0.0791
 4164SOL    HW122596   8.878   9.342   1.836  1.3898  0.3017 -0.5501
 4164SOL    HW222597   8.912   9.483   1.912  1.4014  0.3605 -0.6626
 4165SOL     OW22598   9.284   8.830   2.003  0.1616  0.0378  0.0473
 4165SOL    HW122599   9.190   8.795   1.999 -0.1379  0.9636 -1.3496
 4165SOL    HW222600   9.313   8.857   1.911  1.0135  1.8168  0.8283
 4166SOL     OW22601   2.992   8.978   0.119  0.0208  0.1158 -0.0875
 4166SOL    HW122602   3.091   8.976   0.108 -0.1191  0.1786 -1.4337
 4166SOL    HW222603   2.965   8.911   0.188  0.9951  0.0758  0.2587
 4167SOL     OW22604   0.266   2.326   1.893 -0.7021  0.3386 -1.0499
 4167SOL    HW122605   0.358   2.352   1.924 -0.8504 -0.9726  0.6113
 4167SOL    HW222606   0.199   2.353   1.962 -1.2938 -0.7116 -1.2012
 4168SOL     OW22607   1.436   7.993   1.852  0.1210 -0.1899 -0.6381
 4168SOL    HW122608   1.338   7.974   1.852  0.3383 -1.6625  2.2754
 4168SOL    HW222609   1.452   8.087   1.882 -0.4009  0.0434 -1.0905
 4169SOL     OW22610   9.934   5.203   0.689  0.3082 -0.1162 -0.0665
 4169SOL    HW122611   9.983   5.275   0.639 -0.0845 -0.3134 -0.7547
 4169SOL    HW222612   9.934   5.119   0.634  1.3170 -0.8405  1.0039
 4170SOL     OW22613   9.542   1.553   2.035 -0.1652  0.1762 -0.5071
 4170SOL    HW122614   9.451   1.553   1.995 -0.9268  0.2249  1.2132
 4170SOL    HW222615   9.559   1.465   2.079  0.1639  0.6062  0.2185
 4171SOL     OW22616   2.238   5.952   0.406 -0.4698 -0.6757 -0.3323
 4171SOL    HW122617   2.185   5.883   0.357 -1.0036 -0.4543 -0.0748
 4171SOL    HW222618   2.241   6.036   0.353  1.3609 -1.3280 -1.2881
 4172SOL     OW22619   0.667   7.705   2.506 -0.1009 -0.0313 -0.1536
 4172SOL    HW122620   0.596   7.689   2.575 -1.0001  2.4884 -0.4656
 4172SOL    HW222621   0.625   7.721   2.417  1.0029 -1.5444 -0.9745
 4173SOL     OW22622   9.228   3.152   1.858 -0.2207  0.0766  0.3813
 4173SOL    HW122623   9.175   3.216   1.914 -1.8075 -0.5669 -0.3501
 4173SOL    HW222624   9.226   3.062   1.900 -1.2368 -0.3566 -0.5631
 4174SOL     OW22625   2.461   6.938   1.528 -0.4194  0.2285  0.2098
 4174SOL    HW122626   2.442   7.019   1.584 -0.8394  0.0864  0.2707
 4174SOL    HW222627   2.439   6.855   1.580  0.6016  0.0566  0.3739
 4175SOL     OW22628   9.188   6.652   2.041  0.2816  0.7336  0.0621
 4175SOL    HW122629   9.090   6.647   2.019  0.1816 -1.7983  0.8825
 4175SOL    HW222630   9.240   6.654   1.956 -0.4132 -0.4136 -0.4075
 4176SOL     OW22631   3.553   0.783   1.919 -0.0887  0.6567 -0.7751
 4176SOL    HW122632   3.487   0.721   1.875  0.4340 -0.8015  0.4566
 4176SOL    HW222633   3.508   0.870   1.941 -1.4281 -0.0970 -0.5019
 4177SOL     OW22634   1.417   9.102   0.494  0.0373 -0.5437  0.2266
 4177SOL    HW122635   1.497   9.157   0.471  0.5646 -1.8811 -1.1978
 4177SOL    HW222636   1.442   9.033   0.562  0.2777 -1.4098 -0.7300
 4178SOL     OW22637   9.444   4.133   2.410  0.8597  0.6327 -0.0275
 4178SOL    HW122638   9.506   4.191   2.463  2.0371 -0.1325 -0.5455
 4178SOL    HW222639   9.421   4.051   2.462 -1.3867  1.8518  1.0024
 4179SOL     OW22640   1.016   3.464   2.286  0.2109  0.0886 -0.7314
 4179SOL    HW122641   1.116   3.466   2.292  0.1324  0.2745  0.6514
 4179SOL    HW222642   0.978   3.532   2.348 -0.7911 -0.2244 -0.9962
 4180SOL     OW22643   8.184   1.129   1.310 -0.1892 -0.7511  0.3253
 4180SOL    HW122644   8.188   1.056   1.378 -0.7771 -1.0239  0.0672
 4180SOL    HW222645   8.252   1.112   1.238 -1.7003 -2.1245 -0.8085
 4181SOL     OW22646   2.636   3.978   1.500 -0.2688 -0.0671 -0.0745
 4181SOL    HW122647   2.586   3.947   1.581  0.3907  0.7260  0.6429
 4181SOL    HW222648   2.571   4.007   1.430 -0.8306 -0.0561  0.4457
 4182SOL     OW22649   3.797   2.373   2.364 -0.3035  0.1080  0.0241
 4182SOL    HW122650   3.743   2.351   2.283  1.7293 -1.2044 -1.0241
 4182SOL    HW222651   3.752   2.336   2.445 -1.9456  0.7341 -0.5681
 4183SOL     OW22652   2.934   4.636   2.238  0.4896 -0.4511  0.4734
 4183SOL    HW122653   2.845   4.668   2.206  0.2956 -0.7754  0.6863
 4183SOL    HW222654   2.961   4.555   2.185  2.1401  1.5197 -1.8084
 4184SOL     OW22655   1.606   2.287   0.219 -0.0136 -0.2192  0.3566
 4184SOL    HW122656   1.679   2.330   0.166 -0.2788  0.3845  0.4761
 4184SOL    HW222657   1.604   2.189   0.199  0.0622 -0.0444 -0.5516
 4185SOL     OW22658   8.681   8.766   0.799  0.2279  0.0638  0.3496
 4185SOL    HW122659   8.714   8.779   0.705  1.1022 -0.6412  0.5450
 4185SOL    HW222660   8.752   8.721   0.853 -0.0921  0.9046  1.4853
 4186SOL     OW22661   9.693   3.736   0.963 -0.3097 -0.2439 -0.0249
 4186SOL    HW122662   9.693   3.832   0.992 -2.0297 -0.6412  1.3133
 4186SOL    HW222663   9.665   3.730   0.867  1.4644  0.7173 -0.6282
 4187SOL     OW22664   2.708   0.495   2.507  0.2953  0.5062  0.5846
 4187SOL    HW122665   2.619   0.511   2.466 -0.0237 -0.5105  0.8864
 4187SOL    HW222666   2.759   0.429   2.452  0.2578 -0.0936  1.2741
 4188SOL     OW22667   0.959   0.507   1.492 -0.1711 -0.1743 -0.2269
 4188SOL    HW122668   1.047   0.469   1.520  0.1918  1.4491  0.8918
 4188SOL    HW222669   0.964   0.607   1.495 -1.9915 -0.0732 -0.3662
 4189SOL     OW22670   8.195   8.609   2.030  0.1902  0.2702 -0.5292
 4189SOL    HW122671   8.159   8.521   2.000 -0.8070  0.4688  0.0286
 4189SOL    HW222672   8.294   8.610   2.021  0.2246 -0.9751 -0.3738
 4190SOL     OW22673   3.148   1.210   1.558 -0.0318  0.2416  0.6052
 4190SOL    HW122674   3.195   1.125   1.584  1.1978  0.7985  0.2395
 4190SOL    HW222675   3.070   1.188   1.500  1.2771 -0.5437 -0.8960
 4191SOL     OW22676   3.647   4.011   1.668 -0.9051 -0.3530  0.1808
 4191SOL    HW122677   3.628   4.109   1.673 -0.2960 -0.1821 -0.6866
 4191SOL    HW222678   3.590   3.970   1.597 -2.1408 -0.8838  1.4557
 4192SOL     OW22679   3.146   4.608   1.239 -0.4054  0.1356 -0.2896
 4192SOL    HW122680   3.141   4.633   1.142  2.4007  0.9677 -0.2658
 4192SOL    HW222681   3.115   4.513   1.250  1.5522 -0.8059 -2.3854
 4193SOL     OW22682   0.514   2.568   0.313 -0.4029 -0.0424  0.1635
 4193SOL    HW122683   0.484   2.540   0.222  0.3094 -0.3809  0.0338
 4193SOL    HW222684   0.456   2.644   0.345 -0.8144 -0.0892 -0.4582
 4194SOL     OW22685   9.608   2.787   1.962 -0.6735 -0.1552  0.5319
 4194SOL    HW122686   9.528   2.729   1.950  0.9046 -2.5668  1.3512
 4194SOL    HW222687   9.583   2.883   1.945 -3.0812 -1.1587 -1.8268
 4195SOL     OW22688   2.478   5.082   0.138 -0.1346 -0.3408 -0.0909
 4195SOL    HW122689   2.558   5.025   0.118  0.5983  0.9580 -0.9479
 4195SOL    HW222690   2.412   5.074   0.064 -0.4822 -0.8416  0.2676
 4196SOL     OW22691   2.112   9.554   1.432 -0.4627  0.7950  0.3415
 4196SOL    HW122692   2.173   9.624   1.469 -1.6054  2.2848 -0.5741
 4196SOL    HW222693   2.154   9.513   1.350  1.1276 -1.0624  2.0282
 4197SOL     OW22694   3.167   3.991   2.233  0.5852 -0.3196  0.7706
 4197SOL    HW122695   3.168   3.963   2.136 -0.0846 -1.5555  1.1091
 4197SOL    HW222696   3.137   3.914   2.289  1.7128  0.1640  2.0490
 4198SOL     OW22697   9.042   8.477   2.538  0.1717 -0.1059  0.1235
 4198SOL    HW122698   8.958   8.514   2.577  0.5281  0.7087  0.1289
 4198SOL    HW222699   9.085   8.546   2.479 -0.1269 -1.1667 -1.3594
 4199SOL     OW22700   9.204   2.206   1.335  0.0333  0.4370 -0.6947
 4199SOL    HW122701   9.224   2.193   1.238 -2.2241  0.6420 -1.2272
 4199SOL    HW222702   9.207   2.117   1.382 -0.0960  0.1614 -1.2037
 4200SOL     OW22703   3.652   9.916   2.544 -1.0093 -0.7343  0.1760
 4200SOL    HW122704   3.594   9.995   2.565 -0.2605 -0.5468  1.6530
 4200SOL    HW222705   3.594   9.837   2.521 -1.7700  0.1154 -0.8505
 4201SOL     OW22706   1.216   3.621   1.462 -0.1648 -0.0357  0.4924
 4201SOL    HW122707   1.208   3.718   1.440 -1.8282 -0.3507 -0.3705
 4201SOL    HW222708   1.244   3.570   1.380  1.0665 -0.2516  1.0324
 4202SOL     OW22709   9.714   4.063   2.313  0.4482 -0.0421 -0.2696
 4202SOL    HW122710   9.716   4.149   2.364  1.7016 -1.1808  1.6805
 4202SOL    HW222711   9.759   4.076   2.224  2.0811  0.9307  0.6634
 4203SOL     OW22712   2.641   0.457   2.150 -0.2318 -0.2055  0.3008
 4203SOL    HW122713   2.577   0.417   2.216  0.3679 -1.2493  0.2525
 4203SOL    HW222714   2.601   0.451   2.058 -0.4614 -0.0287  0.3888
 4204SOL     OW22715   3.369   3.501   0.857  0.2834 -0.3951  0.3145
 4204SOL    HW122716   3.372   3.413   0.905  0.9071 -0.7965 -0.4475
 4204SOL    HW222717   3.283   3.547   0.877 -0.0389 -1.1719  0.7275
 4205SOL     OW22718   9.488   5.964   0.200  0.5258  0.1000  0.2299
 4205SOL    HW122719   9.504   5.984   0.103  0.0538 -0.0114  0.1253
 4205SOL    HW222720   9.575   5.959   0.248  0.7600  0.2217 -0.1781
 4206SOL     OW22721   9.268   6.863   0.461 -0.2023 -0.6062  0.0080
 4206SOL    HW122722   9.230   6.950   0.495  1.2649 -0.0879  0.3751
 4206SOL    HW222723   9.210   6.788   0.492 -1.6298  0.2538 -0.5123
 4207SOL     OW22724   1.718   4.642   0.132  0.4655  0.3970 -0.1512
 4207SOL    HW122725   1.791   4.681   0.189  0.8636  3.4849 -2.6395
 4207SOL    HW222726   1.757   4.614   0.045 -0.6815 -1.4806 -0.0755
 4208SOL     OW22727   7.778   0.502   2.224  0.2251 -0.0604 -0.1438
 4208SOL    HW122728   7.778   0.574   2.293 -0.0318 -0.2226  0.0269
 4208SOL    HW222729   7.717   0.428   2.253 -0.1104  0.0045 -0.6847
 4209SOL     OW22730   9.581   4.022   1.871  0.0316 -0.2294  0.2521
 4209SOL    HW122731   9.546   4.011   1.964 -0.4891  0.0280  0.0886
 4209SOL    HW222732   9.575   3.935   1.823 -1.6670  0.1296 -0.2108
 4210SOL     OW22733   8.311   9.065   2.112 -0.2706 -0.5939 -0.0945
 4210SOL    HW122734   8.406   9.040   2.095  0.0442 -0.1715  0.9695
 4210SOL    HW222735   8.268   8.997   2.172 -0.4556 -0.4641 -0.0775
 4211SOL     OW22736   9.734   9.037   2.147  0.5468 -0.2208 -0.2400
 4211SOL    HW122737   9.641   9.001   2.140  1.1661 -1.6298 -1.2617
 4211SOL    HW222738   9.782   8.992   2.222  0.3119  0.7358  0.4938
 4212SOL     OW22739   0.476   4.653   0.515 -0.2351  0.8268  0.3536
 4212SOL    HW122740   0.396   4.593   0.517  0.4762 -0.1258  1.3625
 4212SOL    HW222741   0.468   4.722   0.587 -0.5320  1.2412 -0.0776
 4213SOL     OW22742   8.785   0.531   2.147 -0.1563  0.7701  0.0338
 4213SOL    HW122743   8.693   0.556   2.116  0.6239  1.9650 -1.3415
 4213SOL    HW222744   8.779   0.448   2.203 -2.2963  1.8373  1.4712
 4214SOL     OW22745   2.005   7.194   1.198 -0.0839 -0.6223  0.5300
 4214SOL    HW122746   1.910   7.206   1.224  0.2860  0.6010  1.3541
 4214SOL    HW222747   2.013   7.194   1.098 -0.8039  0.3960  0.4707
 4215SOL     OW22748   9.257   1.960   1.810  0.0836  0.1428 -0.2599
 4215SOL    HW122749   9.223   2.052   1.795  0.9074  1.0224  2.8440
 4215SOL    HW222750   9.344   1.964   1.859 -0.6919 -2.2755  1.4508
 4216SOL     OW22751   0.144   1.437   0.585 -0.0494 -0.1731 -0.1533
 4216SOL    HW122752   0.091   1.384   0.650  0.7187 -1.8285 -0.8404
 4216SOL    HW222753   0.238   1.448   0.618 -0.4961  1.7633  0.5242
 4217SOL     OW22754   9.272   2.416   1.501  0.2552  0.3044 -0.6635
 4217SOL    HW122755   9.371   2.420   1.484  0.3385 -0.7778 -0.4850
 4217SOL    HW222756   9.235   2.333   1.460 -0.2336 -0.3347  1.0332
 4218SOL     OW22757   2.680   3.174   0.254 -0.0242 -0.0820  0.2925
 4218SOL    HW122758   2.653   3.082   0.284  0.6955 -0.7131 -0.9305
 4218SOL    HW222759   2.636   3.194   0.167  0.4666  0.4065  0.1579
 4219SOL     OW22760   9.847   2.870   0.204 -0.1250  0.3024  0.6083
 4219SOL    HW122761   9.873   2.774   0.207  1.3102  0.6673  0.2719
 4219SOL    HW222762   9.917   2.925   0.250 -0.8690  1.1951  0.6804
 4220SOL     OW22763   0.593   8.133   1.206  0.0046  0.1576 -0.3393
 4220SOL    HW122764   0.556   8.222   1.179 -0.4195  0.0080 -0.2592
 4220SOL    HW222765   0.674   8.113   1.151  1.2364  1.4509  0.9747
 4221SOL     OW22766   9.154   8.454   1.140  0.3199  0.0911 -0.1378
 4221SOL    HW122767   9.086   8.393   1.181  0.4339  0.3767  0.4807
 4221SOL    HW222768   9.197   8.509   1.211  2.2631 -1.1369 -0.3358
 4222SOL     OW22769   8.992   8.379   2.034 -0.7362  0.4404 -0.3135
 4222SOL    HW122770   9.020   8.365   1.939  1.5161  1.7514  0.1436
 4222SOL    HW222771   8.960   8.292   2.072 -0.2122 -0.4168 -1.7854
 4223SOL     OW22772   3.679   1.420   0.088 -0.1480  0.2760 -0.3842
 4223SOL    HW122773   3.773   1.438   0.060  0.8003  0.8460  3.0051
 4223SOL    HW222774   3.621   1.499   0.067  0.1477  0.0425 -2.1824
 4224SOL     OW22775   2.385   0.020   2.512 -0.2028  0.0145  0.0977
 4224SOL    HW122776   2.329   0.011   2.430 -0.6444 -0.7017  0.4744
 4224SOL    HW222777   2.479  -0.007   2.491  0.3425  2.5005 -0.8836
 4225SOL     OW22778   3.319   7.734   0.100  0.5618 -0.5457  0.3472
 4225SOL    HW122779   3.261   7.684   0.164 -2.5695  3.7548  1.0893
 4225SOL    HW222780   3.407   7.754   0.143  0.2978 -1.8527  1.5091
 4226SOL     OW22781   4.262   1.569   0.648 -0.3753  0.0491  0.1640
 4226SOL    HW122782   4.205   1.586   0.568 -0.9516 -0.9426  0.3592
 4226SOL    HW222783   4.215   1.601   0.730 -0.9116 -1.2714  0.3888
 4227SOL     OW22784   9.130   9.018   2.240  0.2012 -0.2088 -0.4444
 4227SOL    HW122785   9.080   8.978   2.163 -1.9917  0.5356  0.5554
 4227SOL    HW222786   9.071   9.080   2.290  1.5051 -0.8498  1.9998
 4228SOL     OW22787   0.939   7.981   1.855 -0.1459 -0.2623 -0.2395
 4228SOL    HW122788   0.882   8.047   1.806 -1.9743 -0.6149  1.3710
 4228SOL    HW222789   0.885   7.901   1.879  1.1377 -0.8103  0.9319
 4229SOL     OW22790   0.832   8.533   0.475 -0.9648  0.3962 -0.1050
 4229SOL    HW122791   0.849   8.553   0.379  0.5500  2.1160  0.4956
 4229SOL    HW222792   0.750   8.582   0.506 -2.0073 -0.9028 -0.7233
 4230SOL     OW22793   1.905   4.068   1.655 -0.1753  0.3400  0.1827
 4230SOL    HW122794   1.906   3.987   1.712 -0.5530  0.8871  0.9708
 4230SOL    HW222795   1.812   4.087   1.625  0.0659 -0.1295 -0.8849
 4231SOL     OW22796   2.510   9.610   2.550 -0.4668  0.8037  0.1197
 4231SOL    HW122797   2.499   9.511   2.552 -0.0715  0.7657  0.6774
 4231SOL    HW222798   2.425   9.654   2.581 -0.9189  0.6623 -0.9263
 4232SOL     OW22799   7.924   9.535   1.827 -0.0028  0.1330 -0.4349
 4232SOL    HW122800   8.015   9.494   1.825  0.2178  0.5967  0.0327
 4232SOL    HW222801   7.857   9.469   1.794  0.3515 -0.6177  0.3219
 4233SOL     OW22802   3.435   1.774   1.572  0.4580 -0.1998  0.1971
 4233SOL    HW122803   3.533   1.791   1.579  0.4677  0.0653 -0.6335
 4233SOL    HW222804   3.385   1.843   1.624  0.6192  0.7994 -0.9760
 4234SOL     OW22805   8.136   8.946   2.287  0.0114 -0.1329 -0.1481
 4234SOL    HW122806   8.127   8.890   2.369 -4.7702 -1.3623 -1.3530
 4234SOL    HW222807   8.125   9.043   2.311 -1.1159 -0.4665  0.7494
 4235SOL     OW22808   2.974   4.767   1.865  0.2273  0.3794 -0.0953
 4235SOL    HW122809   3.007   4.686   1.913  2.0002  0.9047 -0.3816
 4235SOL    HW222810   2.963   4.842   1.930  1.8669  0.8635 -0.3524
 4236SOL     OW22811   5.250   3.116   1.926  0.3615  0.0650  0.2485
 4236SOL    HW122812   5.213   3.184   1.863 -1.3339 -0.8776  0.2064
 4236SOL    HW222813   5.334   3.151   1.967  0.7329  1.2562 -1.4759
 4237SOL     OW22814   1.300   8.875   1.233 -0.0864  0.5738  0.1430
 4237SOL    HW122815   1.219   8.934   1.237 -0.1239  0.5780 -0.7346
 4237SOL    HW222816   1.275   8.783   1.265 -0.2105  0.8237  0.7731
 4238SOL     OW22817   8.445   8.246   1.104 -0.2337  0.2170 -0.1667
 4238SOL    HW122818   8.413   8.225   1.011 -1.4749 -1.1708  0.5504
 4238SOL    HW222819   8.468   8.343   1.110 -1.7751  0.6842 -1.4603
 4239SOL     OW22820   3.180   3.414   1.295  0.8974  0.2546 -0.0952
 4239SOL    HW122821   3.113   3.474   1.339  0.7782  0.2234 -0.2340
 4239SOL    HW222822   3.136   3.327   1.272  0.9271  0.3186 -0.3934
 4240SOL     OW22823   2.058   4.546   2.162  0.2041 -0.2975  0.0282
 4240SOL    HW122824   2.104   4.632   2.185 -0.6290 -0.3743  2.1051
 4240SOL    HW222825   2.098   4.509   2.078  1.9973  1.0557  0.2357
 4241SOL     OW22826   0.393   1.650   0.202  0.3474 -0.2944  0.2202
 4241SOL    HW122827   0.315   1.631   0.262  1.3639 -0.4766  1.5007
 4241SOL    HW222828   0.383   1.742   0.164 -0.2907 -0.1552  0.6976
 4242SOL     OW22829   0.042   0.184   1.373  0.0352 -0.2383 -0.1308
 4242SOL    HW122830  -0.055   0.207   1.369  0.0415  0.2718  2.0682
 4242SOL    HW222831   0.096   0.267   1.359  0.1782 -0.4870 -1.1399
 4243SOL     OW22832   1.460   4.752   0.756  0.2854  0.0155  0.3644
 4243SOL    HW122833   1.516   4.820   0.803  0.6319  1.1091 -1.5969
 4243SOL    HW222834   1.389   4.797   0.703  0.3158 -1.1752 -0.7125
 4244SOL     OW22835   1.296   3.974   0.869  0.4485  0.4103 -0.2497
 4244SOL    HW122836   1.291   3.885   0.823  0.8059  0.6873 -0.8314
 4244SOL    HW222837   1.284   3.962   0.967 -0.4074 -0.1791 -0.4301
 4245SOL     OW22838   2.039   1.563   0.789  0.0269 -0.1161 -0.0884
 4245SOL    HW122839   2.109   1.621   0.749  0.5124 -1.0895 -0.6609
 4245SOL    HW222840   1.961   1.619   0.817 -0.6588  0.5259 -3.1109
 4246SOL     OW22841   3.071   9.894   2.479 -0.0750 -0.2978 -0.1414
 4246SOL    HW122842   3.004   9.831   2.518 -0.6329  0.0641 -0.4939
 4246SOL    HW222843   3.085   9.871   2.382  0.6974 -0.6922  0.0644
 4247SOL     OW22844   1.138   1.964   1.125  0.8437  0.3650  0.2925
 4247SOL    HW122845   1.124   2.018   1.208 -1.6677 -0.8897  0.7181
 4247SOL    HW222846   1.157   2.026   1.049 -0.7856  1.8046  1.0109
 4248SOL     OW22847   2.235   7.459   1.726  0.7508 -0.0422 -1.3224
 4248SOL    HW122848   2.208   7.523   1.654 -0.8807  0.3630 -0.3716
 4248SOL    HW222849   2.155   7.404   1.753  1.7847 -1.4634 -1.1017
 4249SOL     OW22850   9.238   4.429   1.370  0.1942  0.3960 -0.2840
 4249SOL    HW122851   9.249   4.353   1.434  0.8404 -0.2923 -1.2024
 4249SOL    HW222852   9.141   4.440   1.348  0.1787 -0.7980 -0.8880
 4250SOL     OW22853   8.280   1.074   1.688 -0.0086  0.1803 -0.5310
 4250SOL    HW122854   8.216   1.024   1.629  0.5842 -1.2200 -0.0159
 4250SOL    HW222855   8.229   1.138   1.745 -1.3090 -2.7277  1.6860
 4251SOL     OW22856   1.027   3.272   1.783  0.2164  0.2060 -0.2416
 4251SOL    HW122857   0.986   3.361   1.801 -0.1476  0.3136 -1.4919
 4251SOL    HW222858   0.969   3.200   1.821 -0.6011  0.4117 -1.0655
 4252SOL     OW22859   2.968   4.293   0.720  0.5006 -0.6548  0.3975
 4252SOL    HW122860   3.064   4.316   0.706  0.5243 -1.2430 -0.4619
 4252SOL    HW222861   2.927   4.356   0.787  1.9260 -1.4637  2.0685
 4253SOL     OW22862   9.420   2.564   1.995 -0.5032  0.4630 -0.2953
 4253SOL    HW122863   9.402   2.629   1.922  1.2549  1.0933 -0.1914
 4253SOL    HW222864   9.348   2.571   2.065 -0.9148  1.5171 -0.8156
 4254SOL     OW22865   3.936   9.699   1.098  0.4723  0.4948  0.2325
 4254SOL    HW122866   3.912   9.630   1.030  1.3227  0.6572 -0.2428
 4254SOL    HW222867   3.875   9.778   1.089 -0.2324 -0.0188  0.5014
 4255SOL     OW22868   1.840   6.521   0.584  0.5203 -0.2065 -0.0815
 4255SOL    HW122869   1.906   6.467   0.532  1.0756  0.1274  0.2710
 4255SOL    HW222870   1.888   6.586   0.643 -0.1025 -0.3743  0.6367
 4256SOL     OW22871   9.586   0.670   1.714 -0.1802  0.5542  0.6016
 4256SOL    HW122872   9.580   0.746   1.778  0.0614  1.3343 -0.2876
 4256SOL    HW222873   9.593   0.706   1.621 -0.0069 -0.5603  0.1811
 4257SOL     OW22874   9.025   2.826   2.053  0.4673 -0.4425  0.2838
 4257SOL    HW122875   8.983   2.789   1.970  0.5748 -0.3463  0.1865
 4257SOL    HW222876   8.953   2.842   2.122  0.1138  1.2307 -0.4558
 4258SOL     OW22877   3.868   4.822   2.446 -0.3181  0.5898  0.3589
 4258SOL    HW122878   3.876   4.723   2.435  0.3592  0.7342 -0.4963
 4258SOL    HW222879   3.779   4.853   2.415 -0.2698  0.3395 -0.0289
 4259SOL     OW22880   2.187   8.126   0.276 -0.2657  0.3004  0.2219
 4259SOL    HW122881   2.142   8.082   0.353 -1.2688 -0.0230 -0.5366
 4259SOL    HW222882   2.243   8.059   0.227  0.2968  0.4824  0.6110
 4260SOL     OW22883   1.205   1.875   2.344 -0.0941 -0.0126  0.2418
 4260SOL    HW122884   1.285   1.836   2.298 -0.9191  0.2201 -1.4064
 4260SOL    HW222885   1.168   1.807   2.409  1.4316 -0.1065  1.0333
 4261SOL     OW22886   0.072   3.645   2.164  0.4603  0.1103  0.7672
 4261SOL    HW122887   0.080   3.600   2.074  0.7398  0.5651  0.5646
 4261SOL    HW222888  -0.017   3.623   2.204 -0.8069  2.1294 -0.8433
 4262SOL     OW22889   2.520   6.740   1.141  0.6241 -0.0892 -0.2979
 4262SOL    HW122890   2.448   6.778   1.199  1.0526  0.8027 -0.3412
 4262SOL    HW222891   2.609   6.753   1.186  0.9017  0.1081 -0.9065
 4263SOL     OW22892   3.899   4.477   0.391 -0.2479 -0.3213  0.3075
 4263SOL    HW122893   3.857   4.536   0.459  0.1294  2.7656 -2.0384
 4263SOL    HW222894   3.830   4.450   0.323  0.3331  0.1950 -0.4881
 4264SOL     OW22895   2.803   9.937   0.551 -0.1272  0.2468  0.8905
 4264SOL    HW122896   2.845   9.978   0.470 -0.9708  0.1628  0.4047
 4264SOL    HW222897   2.821   9.994   0.631  0.4060  0.5175  0.5747
 4265SOL     OW22898   2.429   0.832   2.337  0.0070 -0.2787  0.3206
 4265SOL    HW122899   2.424   0.907   2.403  0.3187 -0.7391  0.8683
 4265SOL    HW222900   2.524   0.815   2.313 -0.1214  0.0527 -0.4480
 4266SOL     OW22901   3.329   8.717   0.465 -0.0375 -1.0107 -0.5770
 4266SOL    HW122902   3.305   8.640   0.406  2.8179 -0.6129 -2.3581
 4266SOL    HW222903   3.393   8.687   0.535 -0.1000 -0.5551 -0.3211
 4267SOL     OW22904   2.648   2.685   1.219 -0.0293  0.4546  0.2595
 4267SOL    HW122905   2.696   2.753   1.163 -0.7095  0.7920  0.0786
 4267SOL    HW222906   2.598   2.731   1.292 -1.1591  0.2136 -0.3595
 4268SOL     OW22907   0.709   6.081   0.669  0.6114 -0.6579 -0.0086
 4268SOL    HW122908   0.780   6.123   0.612  0.8191  0.1616  0.8398
 4268SOL    HW222909   0.741   5.992   0.701  0.3352 -1.3090 -1.4858
 4269SOL     OW22910   8.782   2.493   1.759  0.0286  0.3028  0.1328
 4269SOL    HW122911   8.835   2.475   1.676 -0.7379  1.2088 -0.5687
 4269SOL    HW222912   8.696   2.442   1.756  0.1258  0.1123  0.5083
 4270SOL     OW22913   2.009   0.281   2.331  0.4357 -0.1998  0.3066
 4270SOL    HW122914   2.027   0.329   2.417 -2.3276 -0.0055  0.8078
 4270SOL    HW222915   2.025   0.343   2.254 -0.2315  0.6348  0.8317
 4271SOL     OW22916   0.814   2.124   1.540  0.1068  0.3079  0.0231
 4271SOL    HW122917   0.762   2.039   1.545  0.4069 -0.1258 -3.0192
 4271SOL    HW222918   0.912   2.103   1.547  0.2053  0.3205 -1.1599
 4272SOL     OW22919   8.751   8.493   0.124 -0.0477  0.0872  0.1092
 4272SOL    HW122920   8.692   8.522   0.049  0.3127 -1.9371 -1.0061
 4272SOL    HW222921   8.778   8.572   0.179 -2.4513  1.2455 -0.3411
 4273SOL     OW22922   8.104   1.345   1.125 -0.2389  0.5489 -0.2011
 4273SOL    HW122923   8.117   1.275   1.196 -0.7229  0.2639 -0.3882
 4273SOL    HW222924   8.093   1.434   1.168  0.1961  0.4850  0.0495
 4274SOL     OW22925   1.112   6.159   0.730  0.4094  0.1721 -0.5550
 4274SOL    HW122926   1.093   6.063   0.707  0.4128  0.5208 -2.0756
 4274SOL    HW222927   1.031   6.201   0.770  0.5662 -0.6007  0.5949
 4275SOL     OW22928   3.124   1.894   2.330  0.1639  0.3261  0.0512
 4275SOL    HW122929   3.149   1.803   2.298 -0.2174  0.1849  0.1594
 4275SOL    HW222930   3.205   1.939   2.368  0.8941  0.9621 -2.1840
 4276SOL     OW22931   0.480   5.559   0.970  0.2571 -0.1099 -0.3130
 4276SOL    HW122932   0.447   5.474   0.929 -0.1548 -0.8521  1.4932
 4276SOL    HW222933   0.444   5.637   0.919 -2.5212 -0.9574  0.2752
 4277SOL     OW22934   0.843   8.140   0.044 -0.0454  0.0669 -0.3426
 4277SOL    HW122935   0.835   8.239   0.057  1.1811 -0.1018  1.9980
 4277SOL    HW222936   0.825   8.093   0.131 -1.8267 -1.8728 -1.6787
 4278SOL     OW22937   8.181   7.943   2.108 -0.4003  0.1418  0.6884
 4278SOL    HW122938   8.117   7.941   2.031 -2.0236  0.4347  1.9987
 4278SOL    HW222939   8.230   7.856   2.113  1.4379  0.9612 -2.0603
 4279SOL     OW22940   9.527   0.466   0.401 -0.1861 -0.1580  0.1583
 4279SOL    HW122941   9.438   0.462   0.355 -0.2074 -0.2451  0.2090
 4279SOL    HW222942   9.518   0.521   0.484 -0.3777 -0.8025  0.5708
 4280SOL     OW22943   2.426   6.151   0.243 -0.1921  0.5622  0.1989
 4280SOL    HW122944   2.444   6.093   0.322 -2.2551  0.4190  0.5993
 4280SOL    HW222945   2.385   6.237   0.273 -0.2361  0.8455 -0.6522
 4281SOL     OW22946   3.444   9.276   0.437 -0.0317  0.0587 -0.1887
 4281SOL    HW122947   3.537   9.306   0.412  0.0140  0.7763  0.7931
 4281SOL    HW222948   3.377   9.335   0.392  0.0169  0.3740  0.1521
 4282SOL     OW22949   1.870   3.215   1.862 -0.4288 -0.2734 -0.4288
 4282SOL    HW122950   1.968   3.233   1.869 -0.3663 -0.7921  0.0011
 4282SOL    HW222951   1.820   3.281   1.919 -0.2618 -0.7679  0.2883
 4283SOL     OW22952   8.673   2.733   1.109  0.3313  0.2990 -0.0694
 4283SOL    HW122953   8.736   2.785   1.052 -0.5273  0.2076 -1.1111
 4283SOL    HW222954   8.719   2.706   1.193  0.6228  3.2615  0.7799
 4284SOL     OW22955   0.107   9.475   0.089 -0.0837  0.5180 -0.3748
 4284SOL    HW122956   0.052   9.539   0.144 -0.5497  0.1651 -0.4254
 4284SOL    HW222957   0.167   9.527   0.028 -0.9359  0.9039 -0.8906
 4285SOL     OW22958   2.359   0.714   1.062 -0.2339 -0.0949  0.3397
 4285SOL    HW122959   2.314   0.638   1.015 -0.5794  1.3337 -1.6968
 4285SOL    HW222960   2.296   0.792   1.068  1.0755  1.0302 -0.2053
 4286SOL     OW22961   2.688   1.766   0.929 -0.8078 -0.0202  0.5312
 4286SOL    HW122962   2.708   1.858   0.962 -1.6973  0.1703  0.5657
 4286SOL    HW222963   2.651   1.772   0.836 -0.4801 -0.3749  0.3770
 4287SOL     OW22964   1.312   7.667   1.349 -0.3219 -0.0189  0.2000
 4287SOL    HW122965   1.360   7.640   1.265  0.2537 -1.6237  1.0226
 4287SOL    HW222966   1.374   7.657   1.427 -1.5498 -0.7328  1.1000
 4288SOL     OW22967   9.435   3.380   2.404 -0.4098  0.9910  0.3336
 4288SOL    HW122968   9.488   3.299   2.379  0.1644  2.3092 -3.0277
 4288SOL    HW222969   9.486   3.435   2.469  0.3055 -0.0562  0.6677
 4289SOL     OW22970   0.708   7.428   0.313  0.0855 -0.4165  0.3266
 4289SOL    HW122971   0.789   7.436   0.255 -1.3674  1.9006 -1.4445
 4289SOL    HW222972   0.644   7.362   0.273 -0.9855  1.2978 -0.8277
 4290SOL     OW22973   2.503   0.484   0.966 -0.1326  0.2237 -0.3018
 4290SOL    HW122974   2.577   0.538   1.007  0.8821 -1.3937  0.0657
 4290SOL    HW222975   2.437   0.459   1.037 -0.9332  1.4851 -0.5892
 4291SOL     OW22976   2.047   3.808   1.372 -0.6675  0.3180 -0.2587
 4291SOL    HW122977   2.074   3.718   1.407  0.6235  0.9939  0.5265
 4291SOL    HW222978   2.117   3.876   1.397 -2.2985  1.8029  0.3549
 4292SOL     OW22979   1.444   8.392   2.131  0.4460 -0.1672  0.3901
 4292SOL    HW122980   1.395   8.412   2.046 -1.9715 -0.0618  1.7622
 4292SOL    HW222981   1.391   8.326   2.185  1.3290  0.6905  2.3495
 4293SOL     OW22982   0.656   5.519   2.254  0.8664  0.6801  0.5806
 4293SOL    HW122983   0.723   5.504   2.181 -2.1036 -0.0357 -2.0878
 4293SOL    HW222984   0.599   5.437   2.264  0.0679  1.4469  2.4918
 4294SOL     OW22985   1.563   5.697   1.238  0.0918  0.0958  0.3037
 4294SOL    HW122986   1.507   5.617   1.260 -0.8081  0.3823 -0.8881
 4294SOL    HW222987   1.658   5.679   1.264 -0.1604 -1.2158  0.3667
 4295SOL     OW22988   0.112   9.888   2.168 -0.2563 -0.0930  0.2882
 4295SOL    HW122989   0.014   9.898   2.184 -0.2803  0.6708 -0.3278
 4295SOL    HW222990   0.159   9.869   2.254 -1.1816 -2.3890  0.3253
 4296SOL     OW22991   1.275   1.575   1.547  0.2915 -0.3562 -0.3627
 4296SOL    HW122992   1.283   1.527   1.634  0.1844  0.7966  0.3030
 4296SOL    HW222993   1.187   1.624   1.544  0.5608  0.1041 -0.8467
 4297SOL     OW22994   8.904   1.356   1.993  0.1089 -0.2687 -0.0907
 4297SOL    HW122995   8.934   1.262   2.006 -1.5710 -0.9077 -0.6754
 4297SOL    HW222996   8.804   1.359   1.986  0.0398  1.7333  1.3458
 4298SOL     OW22997   2.629   5.889   2.353 -0.0532 -0.1334  0.4079
 4298SOL    HW122998   2.638   5.794   2.322 -1.8463 -0.4627  0.8336
 4298SOL    HW222999   2.600   5.946   2.276  1.8812  0.2546 -0.0655
 4299SOL     OW23000   0.259   2.751   1.594  0.0514  0.1214  0.2539
 4299SOL    HW123001   0.242   2.666   1.643 -0.4105 -0.6373 -1.1918
 4299SOL    HW223002   0.312   2.813   1.652 -1.6284 -0.2084  2.2208
 4300SOL     OW23003   0.827   7.079   0.146  0.2200 -0.0342  0.2530
 4300SOL    HW123004   0.868   7.065   0.056  0.1360 -0.2561  0.2506
 4300SOL    HW223005   0.779   7.167   0.147 -2.3968 -1.3778 -0.9113
 4301SOL     OW23006   1.736   7.312   2.367  0.0631 -0.2940  0.0281
 4301SOL    HW123007   1.767   7.261   2.287 -0.9572  1.0779 -1.2794
 4301SOL    HW223008   1.646   7.279   2.395 -0.8809  1.1421 -1.2047
 4302SOL     OW23009   0.259   5.755   2.265 -0.9447 -0.6465  0.0426
 4302SOL    HW123010   0.339   5.767   2.207 -1.2210 -1.6357 -0.5571
 4302SOL    HW223011   0.283   5.697   2.343 -0.3011  1.5315  1.5006
 4303SOL     OW23012   2.325   2.129   2.518  0.6917 -0.3719  0.6818
 4303SOL    HW123013   2.252   2.195   2.507  0.3369 -0.9787 -0.6884
 4303SOL    HW223014   2.371   2.114   2.431  0.1099 -2.6634  0.7244
 4304SOL     OW23015   0.211   4.365   0.825  0.6124 -0.5796 -1.1417
 4304SOL    HW123016   0.162   4.290   0.781 -0.8610 -0.7991  0.8555
 4304SOL    HW223017   0.269   4.329   0.898 -0.6086  0.2767  0.2690
 4305SOL     OW23018   2.128   7.432   0.745 -0.0160 -0.2049 -0.0103
 4305SOL    HW123019   2.197   7.503   0.757 -0.4739  0.4309 -1.0305
 4305SOL    HW223020   2.151   7.375   0.667 -0.3010 -0.3989  0.0440
 4306SOL     OW23021   7.840   8.881   1.232 -0.0442  0.2639 -0.4548
 4306SOL    HW123022   7.920   8.862   1.174 -0.2266 -1.2783 -0.2083
 4306SOL    HW223023   7.793   8.796   1.254  0.2877  0.7604  2.3525
 4307SOL     OW23024   8.556   0.944   0.858  0.1069 -0.4972 -0.2268
 4307SOL    HW123025   8.549   0.889   0.941 -2.5802 -0.0988 -0.1362
 4307SOL    HW223026   8.586   0.885   0.782  0.9772 -1.2252  0.6731
 4308SOL     OW23027   2.294   1.178   0.430 -0.0225  0.2328  0.3946
 4308SOL    HW123028   2.358   1.255   0.432 -0.6246  0.7844 -1.2700
 4308SOL    HW223029   2.252   1.171   0.340 -1.5043 -0.8031  1.1397
 4309SOL     OW23030   3.538   1.221   1.195  0.4082  0.4824  0.0889
 4309SOL    HW123031   3.624   1.224   1.246  0.3384  0.0735  0.2297
 4309SOL    HW223032   3.505   1.314   1.181 -0.3483  0.5280  2.0913
 4310SOL     OW23033   4.376   2.290   1.953 -0.0551 -0.7665  0.0519
 4310SOL    HW123034   4.320   2.355   1.902 -0.2265 -0.7020  0.3190
 4310SOL    HW223035   4.404   2.332   2.040  0.5274 -0.7453 -0.1495
 4311SOL     OW23036   2.845   8.306   2.513 -0.3892  0.3484 -0.0692
 4311SOL    HW123037   2.787   8.387   2.513 -3.5143 -1.8041 -2.2221
 4311SOL    HW223038   2.893   8.300   2.425 -0.5448 -0.3971 -0.1015
 4312SOL     OW23039   8.854   2.642   1.305 -0.4738  0.2229 -0.1066
 4312SOL    HW123040   8.862   2.562   1.364 -2.2013  0.6093  0.6744
 4312SOL    HW223041   8.915   2.632   1.227  2.7436  0.2147  2.2988
 4313SOL     OW23042   8.582   1.878   1.743  0.3297  0.4360  0.6157
 4313SOL    HW123043   8.523   1.873   1.823  2.1141  0.7022  1.9900
 4313SOL    HW223044   8.623   1.788   1.727 -0.0659  0.3714 -0.0213
 4314SOL     OW23045   8.855   2.284   0.365 -0.1004 -0.3157  0.1496
 4314SOL    HW123046   8.895   2.201   0.404  0.2347 -0.7217 -1.0266
 4314SOL    HW223047   8.756   2.272   0.355 -0.1952 -0.1874  0.9168
 4315SOL     OW23048   3.274   5.523   2.547  0.1429 -0.0048  0.3809
 4315SOL    HW123049   3.364   5.480   2.554 -0.0570 -0.8927 -1.9581
 4315SOL    HW223050   3.219   5.498   2.627  1.7835  0.1362  1.5715
 4316SOL     OW23051   2.437   1.605   0.056  0.7074 -0.0358  0.1141
 4316SOL    HW123052   2.478   1.556  -0.021 -1.1950 -0.4440 -0.6629
 4316SOL    HW223053   2.358   1.554   0.090  0.6335  0.8928  1.3650
 4317SOL     OW23054   9.383   1.216   0.239 -0.0918 -0.1299 -0.0037
 4317SOL    HW123055   9.447   1.286   0.272  0.8799  0.0330 -2.1542
 4317SOL    HW223056   9.335   1.176   0.317  2.9917 -0.6052  1.7385
 4318SOL     OW23057   9.156   4.996   2.572  0.7685  0.1377 -0.6871
 4318SOL    HW123058   9.147   5.084   2.524 -1.7817  0.4994  0.3604
 4318SOL    HW223059   9.124   4.922   2.512 -0.6554  0.3825 -0.2640
 4319SOL     OW23060   1.434   8.694   1.023  0.3658 -0.0490 -0.0714
 4319SOL    HW123061   1.358   8.731   0.968  0.4394 -1.2987 -1.0210
 4319SOL    HW223062   1.452   8.600   0.996  0.5381 -0.6148  1.9755
 4320SOL     OW23063   3.001   8.324   2.291  0.1530  0.2268  0.1818
 4320SOL    HW123064   3.012   8.422   2.277  2.8854  0.1456  1.4505
 4320SOL    HW223065   3.091   8.279   2.286 -1.2782 -2.5330 -2.6221
 4321SOL     OW23066   2.004   0.449   2.109 -0.4158  0.1367 -0.5295
 4321SOL    HW123067   2.008   0.549   2.098  0.1088  0.1566 -0.1417
 4321SOL    HW223068   1.980   0.407   2.021 -1.4375  0.6557 -0.5111
 4322SOL     OW23069   9.398   4.167   1.043 -0.7333 -0.2394 -0.0217
 4322SOL    HW123070   9.493   4.196   1.034 -0.6602 -0.6230 -0.5044
 4322SOL    HW223071   9.394   4.072   1.073 -0.9552 -0.4970 -0.8457
 4323SOL     OW23072   1.795   7.923   0.056  0.0995  0.6336 -0.0151
 4323SOL    HW123073   1.727   7.940  -0.015 -0.8357  0.6345  0.8738
 4323SOL    HW223074   1.862   7.997   0.057 -0.6466  1.3144 -0.0083
 4324SOL     OW23075   3.394   1.214   0.813 -0.2309  0.3122  0.0899
 4324SOL    HW123076   3.483   1.168   0.810 -0.0558  0.6063  0.6754
 4324SOL    HW223077   3.327   1.161   0.761  0.5551  0.6633 -1.2835
 4325SOL     OW23078   0.429   8.749   2.283 -0.1560 -0.6572 -0.2113
 4325SOL    HW123079   0.424   8.733   2.185  0.4037  0.9029 -0.5013
 4325SOL    HW223080   0.446   8.846   2.301  1.6716 -1.2364  1.3845
 4326SOL     OW23081   1.557   3.073   0.082 -0.6961  0.0296  0.9141
 4326SOL    HW123082   1.537   3.164   0.045  0.9074 -0.7539 -2.0581
 4326SOL    HW223083   1.652   3.070   0.112 -0.7224 -0.7176  0.9180
 4327SOL     OW23084   2.533   2.382   1.211  0.1931  0.2000  0.1657
 4327SOL    HW123085   2.585   2.374   1.296 -0.1166  1.3141  0.4656
 4327SOL    HW223086   2.452   2.324   1.216  0.1210  0.3466  0.6673
 4328SOL     OW23087   8.405   9.490   0.580 -0.3380  0.1060 -0.1493
 4328SOL    HW123088   8.403   9.393   0.554 -0.1967  0.1797 -0.4448
 4328SOL    HW223089   8.494   9.510   0.623 -0.4897  0.0336  0.1991
 4329SOL     OW23090   3.131   0.452   1.219  0.6132 -0.1013  0.0345
 4329SOL    HW123091   3.038   0.417   1.219 -0.3797  2.3554 -2.7360
 4329SOL    HW223092   3.187   0.400   1.154  0.5844 -0.1425  0.0433
 4330SOL     OW23093   3.925   5.221   0.657 -0.0850 -0.5412 -0.3558
 4330SOL    HW123094   3.938   5.309   0.703 -0.8154 -0.1765 -0.8377
 4330SOL    HW223095   4.012   5.191   0.618 -0.0113  0.3832 -0.9195
 4331SOL     OW23096   3.441   0.512   2.392  0.2796  0.0833  0.1384
 4331SOL    HW123097   3.430   0.499   2.293  1.7840 -0.0842 -0.0247
 4331SOL    HW223098   3.529   0.556   2.410 -0.7653  1.7824  1.3029
 4332SOL     OW23099   3.603   2.862   1.232  0.1800 -0.5801 -0.7289
 4332SOL    HW123100   3.629   2.768   1.210  1.3557 -0.5690  0.5547
 4332SOL    HW223101   3.682   2.910   1.271 -1.4027 -0.1772  2.1340
 4333SOL     OW23102   8.999   3.262   0.846  0.0960  0.2734 -0.0385
 4333SOL    HW123103   9.066   3.215   0.903 -0.0154  0.0188 -0.1211
 4333SOL    HW223104   9.026   3.358   0.836  0.8812 -0.0171 -0.7358
 4334SOL     OW23105   0.795   4.901   0.465  0.1376  0.5839  0.2138
 4334SOL    HW123106   0.744   4.829   0.418  0.2392 -0.0625  1.0749
 4334SOL    HW223107   0.829   4.866   0.552  0.8859  1.4339  0.2690
 4335SOL     OW23108   2.277   2.596   0.281  0.4117  0.1896 -0.6955
 4335SOL    HW123109   2.338   2.517   0.274  0.7413  0.5324 -1.8962
 4335SOL    HW223110   2.231   2.610   0.193 -0.1674  0.9087 -0.2809
 4336SOL     OW23111   8.457   9.746   0.915 -0.7280 -0.8030 -1.2636
 4336SOL    HW123112   8.388   9.681   0.950 -1.8265 -0.5705 -2.9339
 4336SOL    HW223113   8.433   9.838   0.945  0.2133 -0.9940  0.1599
 4337SOL     OW23114   0.742   0.171   0.182  0.2394 -0.2308 -0.6052
 4337SOL    HW123115   0.829   0.153   0.136  1.8553 -0.1670  2.2826
 4337SOL    HW223116   0.705   0.086   0.219 -0.5777 -0.1449 -1.2116
 4338SOL     OW23117   9.503   0.509   2.399  0.4665  0.5618  0.1670
 4338SOL    HW123118   9.502   0.449   2.319  2.6287  2.0097 -0.9987
 4338SOL    HW223119   9.589   0.560   2.401 -0.2770  1.7853  2.5082
 4339SOL     OW23120   8.520   7.921   1.238 -0.2169 -0.8454 -0.1185
 4339SOL    HW123121   8.463   7.975   1.300  1.3882  0.2605  0.4331
 4339SOL    HW223122   8.568   7.982   1.175  1.2172 -1.6765  0.1619
 4340SOL     OW23123   1.943   6.669   2.365  0.2061  0.3033  0.0414
 4340SOL    HW123124   2.014   6.736   2.342 -0.1776  1.0860  1.0924
 4340SOL    HW223125   1.956   6.587   2.309  1.2402  0.8850 -0.6059
 4341SOL     OW23126   3.877   4.547   2.467  0.4091  0.2428  0.0140
 4341SOL    HW123127   3.810   4.497   2.412 -0.0887  1.0235 -0.1013
 4341SOL    HW223128   3.950   4.485   2.495  0.9604 -0.0637 -1.9779
 4342SOL     OW23129   1.023   9.376   2.048 -0.5216 -0.0407  0.0378
 4342SOL    HW123130   1.030   9.455   2.108 -1.2388 -0.3278  0.5045
 4342SOL    HW223131   1.114   9.353   2.013 -0.2822  0.8846  0.0237
 4343SOL     OW23132   0.495   3.865   1.043 -0.8484 -0.5825  0.1807
 4343SOL    HW123133   0.518   3.769   1.057 -0.6528 -0.6958 -0.9175
 4343SOL    HW223134   0.564   3.907   0.984 -0.2207  0.5497  1.6780
 4344SOL     OW23135   9.739   7.777   1.144  0.1012 -0.1818 -0.0759
 4344SOL    HW123136   9.747   7.746   1.238  0.3511  0.1941  0.0240
 4344SOL    HW223137   9.695   7.866   1.141  0.8149  0.1668 -0.2611
 4345SOL     OW23138   1.239   8.946   0.857 -0.5078 -0.1996 -0.0937
 4345SOL    HW123139   1.169   9.012   0.884 -0.2902 -0.1403  0.3228
 4345SOL    HW223140   1.198   8.855   0.849 -0.9880  0.1167 -1.4627
 4346SOL     OW23141   4.039   3.049   0.523  0.1169 -0.0428 -0.3812
 4346SOL    HW123142   4.125   3.081   0.562 -0.7513  2.7974 -0.6985
 4346SOL    HW223143   4.049   2.954   0.495  2.1673 -0.7204  2.4547
 4347SOL     OW23144   8.178   0.162   0.465  0.3068 -0.0034 -0.0297
 4347SOL    HW123145   8.157   0.173   0.368  1.1478 -1.1988 -0.3619
 4347SOL    HW223146   8.094   0.142   0.515 -0.1879  1.0090 -0.4425
 4348SOL     OW23147   2.907   5.926   2.147  0.4485  0.0427  0.3100
 4348SOL    HW123148   2.958   6.010   2.129 -0.1089  1.0236  3.1202
 4348SOL    HW223149   2.934   5.887   2.235 -1.2196 -1.2581  0.2949
 4349SOL     OW23150   3.302   1.143   0.160 -0.3521 -0.0253  0.2289
 4349SOL    HW123151   3.357   1.156   0.242  0.3722  1.8905 -0.5271
 4349SOL    HW223152   3.205   1.152   0.182 -0.1515  0.6278  0.8402
 4350SOL     OW23153   9.200   2.152   0.536  0.6159  0.1852  0.1000
 4350SOL    HW123154   9.284   2.097   0.543  0.2303 -0.3886  0.2564
 4350SOL    HW223155   9.125   2.103   0.580  0.3886  1.0926  0.7218
 4351SOL     OW23156   1.134   6.167   2.170  0.0180 -0.0528  0.5500
 4351SOL    HW123157   1.080   6.088   2.199  1.3848 -0.0588  3.1684
 4351SOL    HW223158   1.114   6.245   2.228  2.2227  0.1469  1.1048
 4352SOL     OW23159   3.869   9.060   1.764  0.2404 -0.9622  0.2373
 4352SOL    HW123160   3.840   9.103   1.850 -0.5579 -0.5626 -0.2261
 4352SOL    HW223161   3.848   9.121   1.688 -1.0713 -2.2442 -0.4571
 4353SOL     OW23162   9.871   0.547   1.675 -0.0980  0.0694  0.0655
 4353SOL    HW123163   9.942   0.540   1.745 -0.3414  1.6978  0.4898
 4353SOL    HW223164   9.787   0.504   1.708  0.7025 -2.0113 -0.5038
 4354SOL     OW23165   7.685   1.194   0.160  0.2655 -0.3731 -0.8128
 4354SOL    HW123166   7.729   1.281   0.182 -1.0125  0.5757 -1.9921
 4354SOL    HW223167   7.699   1.130   0.236 -0.3451  1.4437  0.8469
 4355SOL     OW23168   3.085   2.397   0.224  0.1864 -0.0042  0.3435
 4355SOL    HW123169   3.008   2.334   0.231  1.0466 -1.1869 -0.6246
 4355SOL    HW223170   3.102   2.418   0.128 -0.0366  1.6521  0.6592
 4356SOL     OW23171   8.694   0.643   1.436  0.2885  0.6085 -0.0162
 4356SOL    HW123172   8.762   0.668   1.505  0.1532  0.9791 -0.0120
 4356SOL    HW223173   8.728   0.663   1.345  0.3051  0.5070 -0.0319
 4357SOL     OW23174   9.853   4.104   0.036 -0.2740  0.0978 -0.2014
 4357SOL    HW123175   9.822   4.172  -0.030  1.5695  2.1929  1.0295
 4357SOL    HW223176   9.823   4.131   0.128  2.6787  0.6524  0.6255
 4358SOL     OW23177   0.301   7.042   0.923 -0.4822  0.3008 -0.2201
 4358SOL    HW123178   0.305   7.067   0.827 -0.3531  1.9876  0.2160
 4358SOL    HW223179   0.394   7.035   0.959 -0.5477  0.6512  0.0220
 4359SOL     OW23180   3.060   9.594   2.237  0.3787  0.5495  0.3308
 4359SOL    HW123181   3.062   9.693   2.229 -0.7397  0.6777  1.3880
 4359SOL    HW223182   2.992   9.556   2.175 -1.1267  0.6912  1.8589
 4360SOL     OW23183   1.685   2.163   1.804  0.2710  0.2828 -0.0179
 4360SOL    HW123184   1.688   2.262   1.788  0.6769  0.2869  0.0764
 4360SOL    HW223185   1.636   2.119   1.729 -0.0241  0.5683  0.0051
 4361SOL     OW23186   9.743   3.055   2.520  0.0503 -0.3526 -0.4014
 4361SOL    HW123187   9.719   3.067   2.616  0.6259  0.6983 -0.3890
 4361SOL    HW223188   9.832   3.095   2.502 -0.8888  1.1955 -1.7830
 4362SOL     OW23189   1.699   4.192   0.697 -0.5253  0.1895 -0.0072
 4362SOL    HW123190   1.676   4.105   0.742 -0.3935  0.2733  0.2225
 4362SOL    HW223191   1.637   4.263   0.729 -0.0354  0.3860  0.5114
 4363SOL     OW23192   9.551   4.673   1.584  0.6759  0.2871  0.0847
 4363SOL    HW123193   9.464   4.709   1.617 -0.0414 -0.6252 -0.8078
 4363SOL    HW223194   9.544   4.650   1.487  2.7050  2.7533 -0.7290
 4364SOL     OW23195   8.695   9.581   0.249  0.7723 -0.1149  0.2121
 4364SOL    HW123196   8.683   9.635   0.333 -1.2567  0.7937 -0.6372
 4364SOL    HW223197   8.758   9.506   0.267  0.0731 -0.1676  2.6662
 4365SOL     OW23198   9.617   0.414   1.735 -0.0465 -0.2461 -0.1316
 4365SOL    HW123199   9.581   0.361   1.657 -1.5278 -0.0655  0.4104
 4365SOL    HW223200   9.601   0.511   1.718  0.9326 -0.1065 -0.2514
 4366SOL     OW23201   3.805   4.024   0.044  0.5264  0.3885  0.0596
 4366SOL    HW123202   3.745   3.949   0.017  0.0619  0.2615  1.3745
 4366SOL    HW223203   3.856   3.998   0.126  1.6167  0.8824 -0.4564
 4367SOL     OW23204   2.989   8.283   0.839 -0.3900  0.2795 -0.0937
 4367SOL    HW123205   3.083   8.258   0.814 -0.6142 -0.9839  0.3032
 4367SOL    HW223206   2.991   8.353   0.910  0.2562 -0.2078  0.3762
 4368SOL     OW23207   1.025   6.446   1.887  0.5929  0.4608  0.0880
 4368SOL    HW123208   1.102   6.439   1.824  0.8291 -0.6380  0.4780
 4368SOL    HW223209   1.053   6.498   1.968  1.6339 -1.8268  1.2409
 4369SOL     OW23210   9.399   1.562   0.195 -0.2918  0.2348  0.1418
 4369SOL    HW123211   9.317   1.571   0.252  0.3524  0.8157  0.9815
 4369SOL    HW223212   9.432   1.652   0.170  0.1849  0.0040 -0.0629
 4370SOL     OW23213   0.997   8.828   0.052  0.6319  0.3582  0.2590
 4370SOL    HW123214   0.930   8.900   0.067  0.3968 -0.1517  1.7565
 4370SOL    HW223215   1.065   8.859  -0.013  1.0293  2.2750  1.5340
 4371SOL     OW23216   8.398   1.071   2.235  0.2440 -0.0570 -0.5885
 4371SOL    HW123217   8.442   1.037   2.318  0.7052  1.5104 -0.1593
 4371SOL    HW223218   8.312   1.115   2.259  0.1101 -0.0970 -1.0016
 4372SOL     OW23219   0.643   8.906   1.637 -0.3195  0.1702 -0.7946
 4372SOL    HW123220   0.592   8.938   1.556 -0.4606  0.0857 -0.7403
 4372SOL    HW223221   0.734   8.877   1.609 -0.5230 -0.2881 -0.9991
 4373SOL     OW23222   9.833   5.645   0.793 -0.2576 -0.1029 -0.5864
 4373SOL    HW123223   9.911   5.638   0.855 -0.5503  1.1818 -0.0598
 4373SOL    HW223224   9.777   5.724   0.818 -1.3327 -0.5911 -1.4113
 4374SOL     OW23225   2.796   2.928   1.156  0.1592  0.5341 -0.0733
 4374SOL    HW123226   2.758   2.932   1.063 -0.1377 -0.9927 -0.0360
 4374SOL    HW223227   2.756   3.001   1.211  1.5990  2.5477 -1.5745
 4375SOL     OW23228   5.101   3.550   2.031 -0.6235 -0.5881  0.7498
 4375SOL    HW123229   5.057   3.612   1.966 -0.3165 -0.0494  1.0516
 4375SOL    HW223230   5.164   3.490   1.982 -1.0058 -0.7351  0.4385
 4376SOL     OW23231   3.674   4.508   1.046  0.0689  0.0197 -0.2436
 4376SOL    HW123232   3.643   4.575   1.113 -1.2796 -0.9894  0.1831
 4376SOL    HW223233   3.611   4.506   0.969 -1.2483 -2.3606  0.8271
 4377SOL     OW23234   8.977   7.634   0.062 -0.4882 -0.0115 -0.1274
 4377SOL    HW123235   8.982   7.724   0.108 -0.5234 -1.1877  2.2673
 4377SOL    HW223236   9.066   7.589   0.070 -1.2423 -1.3142  1.0739
 4378SOL     OW23237   4.363   4.368   2.229  0.1254  0.6095  0.1334
 4378SOL    HW123238   4.267   4.387   2.206 -0.3042 -0.5899  0.8681
 4378SOL    HW223239   4.375   4.375   2.328  0.7076  0.3769  0.0805
 4379SOL     OW23240   9.866   0.140   0.010  0.3108  0.7875 -0.1233
 4379SOL    HW123241   9.833   0.087   0.088  0.6403  0.0746 -0.4600
 4379SOL    HW223242   9.808   0.122  -0.069 -0.2996  1.8643  0.0701
 4380SOL     OW23243   2.325   6.129   1.576  0.3170 -0.4460 -0.6634
 4380SOL    HW123244   2.329   6.189   1.496  1.2738  1.3969  0.7206
 4380SOL    HW223245   2.321   6.034   1.546  0.6613  0.2098 -2.8960
 4381SOL     OW23246   0.037   0.257   1.067 -0.0639  0.0848 -0.2263
 4381SOL    HW123247  -0.015   0.210   1.138 -0.0971  1.8169  0.9302
 4381SOL    HW223248   0.135   0.240   1.081 -0.0324  0.8610  0.5908
 4382SOL     OW23249   7.813   0.220   0.208 -0.1301  0.0357 -0.4203
 4382SOL    HW123250   7.759   0.277   0.270 -0.4281  0.6099 -1.2078
 4382SOL    HW223251   7.760   0.138   0.184 -0.2514  0.1111 -0.4052
 4383SOL     OW23252   9.430   2.552   2.454  0.1835  0.5440  0.1234
 4383SOL    HW123253   9.462   2.470   2.406  2.4421  1.5359 -0.0833
 4383SOL    HW223254   9.448   2.633   2.398 -0.2499  1.3810  1.1859
 4384SOL     OW23255   2.685   4.884   2.569 -0.1304  0.6667 -0.8362
 4384SOL    HW123256   2.700   4.806   2.629  3.1357  1.4146 -0.5960
 4384SOL    HW223257   2.639   4.853   2.486 -1.6263 -0.9519  0.5479
 4385SOL     OW23258   8.735   0.072   0.400  0.1250  0.1326  0.1581
 4385SOL    HW123259   8.697  -0.012   0.361 -0.4033  0.1042  0.7264
 4385SOL    HW223260   8.704   0.081   0.494  0.8802  0.5304  0.3684
 4386SOL     OW23261   1.241   7.184   1.488 -0.1992 -0.4889 -0.0930
 4386SOL    HW123262   1.330   7.139   1.498 -0.8081 -1.1853  2.6017
 4386SOL    HW223263   1.253   7.283   1.493  0.2944 -0.6218  1.5390
 4387SOL     OW23264   2.091   8.728   1.371  0.0681  0.4912 -0.2913
 4387SOL    HW123265   2.171   8.680   1.407 -0.4253  0.1276  0.3294
 4387SOL    HW223266   2.054   8.676   1.293  0.5354  0.7528 -0.6922
 4388SOL     OW23267   8.785   2.053   1.930  0.1453 -0.0400  0.2946
 4388SOL    HW123268   8.709   2.030   1.869 -0.0694  0.5907  0.3206
 4388SOL    HW223269   8.805   2.151   1.923  0.7831 -0.1551  0.4861
 4389SOL     OW23270   2.842   4.075   0.596  0.1229  0.4898 -0.4986
 4389SOL    HW123271   2.747   4.065   0.626  0.5266 -0.1041  0.5819
 4389SOL    HW223272   2.879   4.160   0.632  0.3033  0.2538 -0.1308
 4390SOL     OW23273   2.344   9.738   1.627 -0.2077  0.0662  0.0784
 4390SOL    HW123274   2.413   9.693   1.570 -0.1069 -0.8879  0.9285
 4390SOL    HW223275   2.378   9.747   1.720 -2.6736 -4.1168  1.5331
 4391SOL     OW23276   9.628   3.803   2.159  0.0683  0.1418  0.0646
 4391SOL    HW123277   9.672   3.862   2.226 -2.2441  0.4301  1.4131
 4391SOL    HW223278   9.697   3.759   2.102  1.9326  2.3701  0.5223
 4392SOL     OW23279   1.034   7.538   0.902 -0.6517 -0.0963  0.3710
 4392SOL    HW123280   1.112   7.596   0.925 -0.1483 -0.6439  0.0698
 4392SOL    HW223281   1.022   7.536   0.803 -1.8295  0.9882  0.4890
 4393SOL     OW23282   4.461   9.064   0.211 -0.1713 -0.1751 -0.4029
 4393SOL    HW123283   4.525   9.140   0.202 -2.6905  1.7842 -2.8263
 4393SOL    HW223284   4.500   8.983   0.168  2.2505 -0.1326  1.5772
 4394SOL     OW23285   0.774   3.178   1.425 -0.2771 -0.2539  0.2522
 4394SOL    HW123286   0.717   3.244   1.376 -0.5899  1.3102  2.6764
 4394SOL    HW223287   0.860   3.222   1.453 -0.3613 -0.9561  1.6303
 4395SOL     OW23288   9.183   2.622   2.125  0.1222  0.2945 -0.1964
 4395SOL    HW123289   9.135   2.688   2.068  0.5543  0.9504  0.1871
 4395SOL    HW223290   9.237   2.671   2.194  0.0591 -0.4742  0.4019
 4396SOL     OW23291   8.207   8.711   0.297  0.7250  0.1934  1.0098
 4396SOL    HW123292   8.204   8.633   0.235  1.2364  0.3564  0.7815
 4396SOL    HW223293   8.188   8.681   0.390  0.2648 -0.0996  0.8238
 4397SOL     OW23294   0.929   1.460   1.232 -0.7165  0.6187 -0.3017
 4397SOL    HW123295   1.021   1.422   1.221 -0.6246  0.7459  0.0315
 4397SOL    HW223296   0.883   1.414   1.309 -0.6845  1.0359 -0.0348
 4398SOL     OW23297   3.985   1.983   1.045  0.4741  0.3175  0.3747
 4398SOL    HW123298   3.901   2.023   1.008 -1.1697 -1.9891  1.4645
 4398SOL    HW223299   3.979   1.979   1.145  1.2042 -1.2439  0.3743
 4399SOL     OW23300   3.436   9.176   2.326 -0.1072 -0.1422 -0.4566
 4399SOL    HW123301   3.461   9.183   2.229  1.0788 -0.4015 -0.1872
 4399SOL    HW223302   3.438   9.267   2.368  1.1578 -0.2364 -0.2743
 4400SOL     OW23303   9.834   3.066   2.145  0.5134 -0.5859 -0.6665
 4400SOL    HW123304   9.847   2.993   2.078  0.5617 -1.2556  0.0752
 4400SOL    HW223305   9.741   3.063   2.181  1.1891 -1.7343  1.0604
 4401SOL     OW23306   1.445   0.167   1.982 -0.2929  0.2369 -0.0357
 4401SOL    HW123307   1.432   0.109   1.902 -2.8154  0.7428 -0.0525
 4401SOL    HW223308   1.426   0.115   2.065  1.0864  0.0567  0.1824
 4402SOL     OW23309   1.440   3.235   0.527 -0.2607 -0.1255  0.1067
 4402SOL    HW123310   1.351   3.193   0.547 -0.9008  0.1574 -1.9906
 4402SOL    HW223311   1.447   3.251   0.428  2.0974 -0.0795  0.2641
 4403SOL     OW23312   3.977   5.275   1.695 -0.0410  0.2411 -1.2953
 4403SOL    HW123313   3.951   5.262   1.790  1.7616  2.2637 -0.5088
 4403SOL    HW223314   4.033   5.198   1.665 -1.3962 -0.8692 -1.0409
 4404SOL     OW23315   1.831   0.597   1.071  0.5693 -0.8756  0.3389
 4404SOL    HW123316   1.919   0.588   1.118  1.0070 -3.3635 -0.8884
 4404SOL    HW223317   1.763   0.540   1.117 -0.5028  1.1601  1.3823
 4405SOL     OW23318   9.632   9.477   0.767  0.7131  0.2684 -0.3946
 4405SOL    HW123319   9.716   9.451   0.815  1.2625  0.8731 -1.0244
 4405SOL    HW223320   9.574   9.530   0.829  0.4244 -0.8334  0.2956
 4406SOL     OW23321   2.512   1.588   1.409  0.1476 -0.0054  0.3462
 4406SOL    HW123322   2.537   1.608   1.504  1.9252 -0.1371 -0.0883
 4406SOL    HW223323   2.487   1.492   1.400  1.7953 -0.4403  0.3143
 4407SOL     OW23324   0.037   0.542   2.328  0.1225 -0.3209 -0.0940
 4407SOL    HW123325   0.056   0.525   2.425  0.3710 -1.6748 -0.3723
 4407SOL    HW223326   0.115   0.589   2.286 -0.0952  0.5089  0.4148
 4408SOL     OW23327   3.039   1.625   1.280 -0.2218 -0.0362 -0.0229
 4408SOL    HW123328   3.097   1.646   1.359  0.9219  0.8218 -1.0891
 4408SOL    HW223329   2.944   1.618   1.311  0.0660  1.3469  1.2688
 4409SOL     OW23330   8.522   1.439   0.491  0.3009 -0.2316  0.6053
 4409SOL    HW123331   8.599   1.497   0.465  0.4318 -0.4672  0.4565
 4409SOL    HW223332   8.479   1.475   0.573  1.0483 -0.5258  1.1373
 4410SOL     OW23333   2.247   1.109   1.457  0.1569 -0.0498 -0.0072
 4410SOL    HW123334   2.333   1.097   1.408  0.0285 -0.5764 -0.1124
 4410SOL    HW223335   2.172   1.116   1.392  0.1013  0.2378  0.0887
 4411SOL     OW23336   2.295   3.972   1.424  0.4249  0.0239  0.0659
 4411SOL    HW123337   2.310   4.049   1.362  1.5046  0.7435  1.1985
 4411SOL    HW223338   2.355   3.896   1.398 -1.0093 -0.6422 -1.3682
 4412SOL     OW23339   0.813   8.427   0.061 -1.0024  0.1232 -0.4077
 4412SOL    HW123340   0.722   8.451   0.094 -1.3638 -0.1168 -1.2176
 4412SOL    HW223341   0.882   8.476   0.115 -1.6579  1.5454 -0.8193
 4413SOL     OW23342   8.976   4.104   1.352  0.1767  0.4161 -0.0959
 4413SOL    HW123343   8.949   4.190   1.395  0.2890  2.0124 -3.1010
 4413SOL    HW223344   8.895   4.050   1.331  0.0315  0.3663  0.5586
 4414SOL     OW23345   4.074   4.149   2.092  0.7386 -0.0454 -0.5559
 4414SOL    HW123346   4.108   4.057   2.109  0.4732 -0.2510 -1.1220
 4414SOL    HW223347   3.974   4.148   2.090  0.7100  0.4381  0.4529
 4415SOL     OW23348   8.940   6.062   2.242  0.6821 -0.1369  0.4893
 4415SOL    HW123349   8.950   6.069   2.341  0.1393 -0.8232  0.6018
 4415SOL    HW223350   8.954   5.967   2.214 -1.6793 -0.4629  0.2321
 4416SOL     OW23351   8.856   9.383   0.307  0.8460 -0.0975 -0.1388
 4416SOL    HW123352   8.817   9.311   0.249 -0.1758 -0.3028  0.7770
 4416SOL    HW223353   8.913   9.342   0.378  0.5147  0.0070  0.1935
 4417SOL     OW23354   0.267   5.527   0.460 -0.2903 -0.1950  0.3213
 4417SOL    HW123355   0.298   5.622   0.464 -2.2168  0.4297  0.8710
 4417SOL    HW223356   0.280   5.483   0.549 -0.3452 -0.1307  0.3609
 4418SOL     OW23357   1.260   6.175   0.501 -0.4853 -0.2260  0.0677
 4418SOL    HW123358   1.243   6.235   0.424  1.0328  0.6831  0.4190
 4418SOL    HW223359   1.188   6.187   0.570 -0.2774  1.0778  0.0631
 4419SOL     OW23360   0.243   4.475   0.567 -0.2823  0.4720 -0.0518
 4419SOL    HW123361   0.197   4.403   0.514 -0.5827  1.0248 -0.5406
 4419SOL    HW223362   0.241   4.450   0.664 -0.1088 -0.3320 -0.2451
 4420SOL     OW23363   4.306   2.501   0.294 -0.1419 -0.0122 -0.0713
 4420SOL    HW123364   4.382   2.558   0.262 -0.7413  0.8250 -0.0064
 4420SOL    HW223365   4.278   2.531   0.385  1.2876 -2.1273  1.1078
 4421SOL     OW23366   1.635   1.990   1.582 -0.3114  0.2300 -0.2370
 4421SOL    HW123367   1.596   1.898   1.586 -1.7663  0.8786  1.1801
 4421SOL    HW223368   1.600   2.038   1.502  0.6813 -0.5342 -1.1428
 4422SOL     OW23369   0.746   9.727   1.939 -0.1462 -0.7147 -0.6446
 4422SOL    HW123370   0.840   9.713   1.908 -0.1625 -0.5553 -0.7681
 4422SOL    HW223371   0.686   9.662   1.893 -0.1528 -0.5565 -0.8601
 4423SOL     OW23372   1.309   9.382   0.494  0.2006  0.3659 -0.2915
 4423SOL    HW123373   1.324   9.435   0.578  1.5534 -1.5347  0.7103
 4423SOL    HW223374   1.390   9.326   0.475 -0.1986  0.5520 -2.7290
 4424SOL     OW23375   0.853   1.886   1.097  0.3757 -0.1310 -0.1519
 4424SOL    HW123376   0.944   1.924   1.083 -0.1249  1.3166  0.4847
 4424SOL    HW223377   0.812   1.926   1.179 -0.0561 -2.2431  0.6884
 4425SOL     OW23378   8.912   0.938   2.023 -0.4234  0.0041 -0.0835
 4425SOL    HW123379   8.919   0.842   1.995  0.0920 -0.1671  0.6573
 4425SOL    HW223380   8.815   0.962   2.031 -0.6170  0.1659 -2.4031
 4426SOL     OW23381   2.295   4.880   2.576  0.1332  0.1272 -0.3550
 4426SOL    HW123382   2.272   4.800   2.631  0.5764  1.4834  1.8667
 4426SOL    HW223383   2.214   4.937   2.564  0.3344  0.4892  0.0009
 4427SOL     OW23384   8.790   6.499   0.472  0.7594 -0.0457 -0.3156
 4427SOL    HW123385   8.853   6.436   0.428 -0.0381 -1.7460  0.9139
 4427SOL    HW223386   8.838   6.549   0.544  0.7458 -1.3166  0.5976
 4428SOL     OW23387   0.401   2.023   0.322  0.3485  0.2091  0.5797
 4428SOL    HW123388   0.439   2.112   0.346  1.9252 -0.1493 -0.5859
 4428SOL    HW223389   0.467   1.951   0.344  0.6418 -0.3650 -2.0245
 4429SOL     OW23390   9.524   2.241   0.930  0.0690 -0.1439 -0.3656
 4429SOL    HW123391   9.598   2.303   0.957  0.1315 -0.4881  0.2747
 4429SOL    HW223392   9.553   2.147   0.947 -0.1525 -0.3326 -1.0257
 4430SOL     OW23393   2.513   0.783   1.973 -0.6288  0.3863 -0.1814
 4430SOL    HW123394   2.511   0.858   2.040  0.9359  0.5332 -0.2686
 4430SOL    HW223395   2.585   0.801   1.906  0.2592 -1.5553  0.2347
 4431SOL     OW23396   4.373   3.613   0.496  0.1156  0.6019 -0.3852
 4431SOL    HW123397   4.324   3.670   0.562  1.8765 -0.0294  1.5414
 4431SOL    HW223398   4.309   3.551   0.450 -0.7009 -1.6187  3.5052
 4432SOL     OW23399   0.463   2.869   0.281 -0.3691 -0.6403 -0.2889
 4432SOL    HW123400   0.443   2.864   0.183 -1.4995 -0.3146 -0.0803
 4432SOL    HW223401   0.394   2.925   0.326  0.7488  0.0871  0.5356
 4433SOL     OW23402   0.393   1.470   2.574 -0.3784 -0.2950 -0.3861
 4433SOL    HW123403   0.383   1.521   2.660 -2.1711 -0.4866 -0.4545
 4433SOL    HW223404   0.380   1.373   2.591 -2.0250 -0.2146 -1.0493
 4434SOL     OW23405   0.616   0.210   0.972  0.6221 -0.1215  0.0553
 4434SOL    HW123406   0.700   0.210   0.919  0.3188 -1.6436 -0.4551
 4434SOL    HW223407   0.631   0.256   1.059  1.9548 -0.3138 -0.0701
 4435SOL     OW23408   9.768   0.081   0.970 -0.0602  0.0340  0.0154
 4435SOL    HW123409   9.739  -0.001   0.921  2.0938  0.1466 -1.5491
 4435SOL    HW223410   9.838   0.128   0.917 -1.0591  2.7520  1.0332
 4436SOL     OW23411   1.794   9.259   0.641 -0.5463  0.2483 -0.2236
 4436SOL    HW123412   1.890   9.255   0.612 -0.5177  0.8692 -0.2205
 4436SOL    HW223413   1.774   9.181   0.700  0.0065  0.2118 -0.0814
 4437SOL     OW23414   8.003   8.916   0.751  0.1520 -0.4650 -0.3314
 4437SOL    HW123415   8.043   8.828   0.725  0.8846 -1.0744  2.6153
 4437SOL    HW223416   7.980   8.968   0.669 -1.6239 -3.9802 -2.1999
 4438SOL     OW23417   8.294   1.684   1.720  0.4682 -0.1001  0.1001
 4438SOL    HW123418   8.275   1.733   1.635  0.5767 -2.6339 -1.4449
 4438SOL    HW223419   8.269   1.588   1.709  2.5255 -0.9209  2.2304
 4439SOL     OW23420  10.000   4.376   1.022 -0.5108  0.3967 -0.4649
 4439SOL    HW123421  10.092   4.390   0.987 -0.0903  0.4567  0.6336
 4439SOL    HW223422   9.996   4.291   1.074 -0.6538  1.1827  0.8510
 4440SOL     OW23423   0.998   2.835   1.821  0.0503 -0.1182  0.2364
 4440SOL    HW123424   0.944   2.840   1.738 -0.7298  3.0681  0.8578
 4440SOL    HW223425   0.944   2.793   1.894 -0.0756 -0.7859 -0.2354
 4441SOL     OW23426   4.038   0.257   0.931  0.2116 -0.1788 -0.5834
 4441SOL    HW123427   4.122   0.304   0.958 -0.0508  0.1612 -0.3535
 4441SOL    HW223428   4.056   0.200   0.850  0.7386 -0.3688 -0.3328
 4442SOL     OW23429   3.475   9.411   0.861  0.2053 -0.1810 -0.4364
 4442SOL    HW123430   3.512   9.479   0.798  1.1963 -0.6952 -0.4222
 4442SOL    HW223431   3.386   9.381   0.829  1.1283 -1.1646 -2.1473
 4443SOL     OW23432   3.733   3.493   2.372 -0.6179  0.0999 -0.2930
 4443SOL    HW123433   3.685   3.455   2.293 -2.0680  2.2273 -0.4615
 4443SOL    HW223434   3.689   3.460   2.456 -0.5264 -0.2889 -0.3938
 4444SOL     OW23435   8.558   8.532   0.508  0.5106 -0.6267  0.1638
 4444SOL    HW123436   8.635   8.590   0.484 -0.0084  0.4201  0.9810
 4444SOL    HW223437   8.477   8.589   0.524 -0.5525 -1.7443 -1.1349
 4445SOL     OW23438   4.250   0.592   0.255 -0.5066 -0.6069  0.5999
 4445SOL    HW123439   4.158   0.578   0.291 -0.7751  0.2755  0.2803
 4445SOL    HW223440   4.316   0.590   0.330 -0.8800 -0.3958  0.9379
 4446SOL     OW23441   1.495   7.323   0.486 -0.2027  0.3066  0.3298
 4446SOL    HW123442   1.568   7.320   0.554 -0.2674 -1.0682  0.3556
 4446SOL    HW223443   1.502   7.407   0.433  2.1053 -0.3425 -0.4491
 4447SOL     OW23444   2.842   2.930   1.471  0.5968  0.0574 -0.3195
 4447SOL    HW123445   2.935   2.898   1.456  0.2182 -0.7908 -0.9224
 4447SOL    HW223446   2.818   2.916   1.567  1.2382  0.6839 -0.0668
 4448SOL     OW23447   3.860   3.951   0.453  0.0884 -0.0428 -0.0081
 4448SOL    HW123448   3.901   3.965   0.363 -0.2780 -1.1952 -0.3570
 4448SOL    HW223449   3.871   4.034   0.508  2.4942 -0.1761 -0.2515
 4449SOL     OW23450   0.059   9.120   0.674 -0.1548 -0.1856  0.2983
 4449SOL    HW123451   0.039   9.046   0.738  0.3213  1.0954  1.9749
 4449SOL    HW223452  -0.020   9.181   0.669 -0.1185 -0.1779 -0.1773
 4450SOL     OW23453   4.300   3.342   1.176  0.2020  0.1194 -0.3286
 4450SOL    HW123454   4.238   3.357   1.254  2.3733 -0.0895  1.4842
 4450SOL    HW223455   4.332   3.248   1.177  2.3203  0.8246  0.0851
 4451SOL     OW23456   9.157   5.091   0.286  0.2965  0.3185 -0.0368
 4451SOL    HW123457   9.167   5.181   0.244  1.4751 -0.2554 -1.0290
 4451SOL    HW223458   9.060   5.070   0.298 -0.1133  0.2083 -3.1631
 4452SOL     OW23459   9.311   8.335   0.042 -0.2829 -0.4763 -0.2069
 4452SOL    HW123460   9.235   8.384  -0.001  0.0238 -0.1385 -0.3759
 4452SOL    HW223461   9.396   8.383   0.021 -0.0540 -0.7091  0.1929
 4453SOL     OW23462   1.305   5.139   0.682 -0.0153 -0.1080 -0.0030
 4453SOL    HW123463   1.210   5.113   0.699 -0.0312  0.1696  0.3472
 4453SOL    HW223464   1.309   5.235   0.656  0.3197  0.3212  1.5546
 4454SOL     OW23465   1.613   4.669   2.173 -0.1150 -0.2649 -0.3730
 4454SOL    HW123466   1.578   4.680   2.266  0.3877  0.6108 -0.2837
 4454SOL    HW223467   1.570   4.590   2.130  0.2086 -1.1388  0.8786
 4455SOL     OW23468   9.324   1.073   0.515  0.4481  0.2922  0.1332
 4455SOL    HW123469   9.358   1.160   0.551  0.8325  0.6323 -1.0257
 4455SOL    HW223470   9.387   0.999   0.541  0.4638  0.4579  0.5675
 4456SOL     OW23471   0.601   6.422   0.302  0.1367  0.0531 -0.9905
 4456SOL    HW123472   0.620   6.437   0.399 -2.3371 -3.9447  0.2023
 4456SOL    HW223473   0.648   6.493   0.248 -0.6675  4.0382  3.2005
 4457SOL     OW23474   1.087   2.124   1.593 -0.2113 -0.3810  0.5653
 4457SOL    HW123475   1.154   2.055   1.565 -0.1084  0.2699 -0.8370
 4457SOL    HW223476   1.037   2.092   1.673  0.2600 -1.8127  0.2904
 4458SOL     OW23477   1.649   4.280   1.121  0.0433 -0.4556 -0.0692
 4458SOL    HW123478   1.575   4.324   1.070  1.3095  1.0973 -0.6020
 4458SOL    HW223479   1.611   4.231   1.199 -1.4453  1.3773  0.4008
 4459SOL     OW23480   3.345   3.703   0.472 -0.6032 -0.2235 -0.4111
 4459SOL    HW123481   3.380   3.781   0.422  0.2886 -0.5118 -0.2496
 4459SOL    HW223482   3.360   3.619   0.419 -0.7211 -0.3884 -0.1855
 4460SOL     OW23483   9.686   8.145   2.445 -0.2499  0.5159 -0.3425
 4460SOL    HW123484   9.595   8.130   2.483  0.5403 -1.8168  0.6959
 4460SOL    HW223485   9.701   8.243   2.433 -2.5748  0.9723  0.2240
 4461SOL     OW23486   8.882   1.976   0.920  0.2019 -0.1573 -0.4240
 4461SOL    HW123487   8.844   2.034   0.848  0.4363  0.0740 -0.3624
 4461SOL    HW223488   8.848   1.882   0.910 -1.4025  0.3213  0.3972
 4462SOL     OW23489   2.015   9.559   0.707 -0.2491  0.2649  0.1186
 4462SOL    HW123490   1.987   9.465   0.726  1.3262  0.0520  1.5008
 4462SOL    HW223491   2.097   9.581   0.760  0.4303  1.8494 -1.5266
 4463SOL     OW23492   0.199   9.603   1.439 -0.5863  0.1324  0.1362
 4463SOL    HW123493   0.218   9.532   1.372 -1.7320  1.2265 -1.3545
 4463SOL    HW223494   0.108   9.641   1.424 -0.4961  1.0384  1.7179
 4464SOL     OW23495   4.819   3.392   1.557  0.1147 -0.5605  0.1842
 4464SOL    HW123496   4.760   3.314   1.533  0.1686 -0.4794 -0.2039
 4464SOL    HW223497   4.804   3.466   1.492  0.5070 -0.4696  0.1995
 4465SOL     OW23498   3.185   8.822   1.925 -0.3166  0.0343 -0.5131
 4465SOL    HW123499   3.124   8.762   1.976  0.0830  0.0854  0.0357
 4465SOL    HW223500   3.280   8.791   1.938 -0.0684  1.0320  0.1428
 4466SOL     OW23501   2.944   3.133   1.777  0.1989  0.1106 -0.5609
 4466SOL    HW123502   3.039   3.104   1.764  0.3749  0.5675 -0.3007
 4466SOL    HW223503   2.942   3.232   1.794 -0.1502 -0.2476  1.4863
 4467SOL     OW23504   0.427   8.905   1.895  0.2721 -1.0674 -0.2112
 4467SOL    HW123505   0.453   8.999   1.918 -0.0030 -0.9638 -0.3257
 4467SOL    HW223506   0.428   8.893   1.796  1.0921 -1.4111 -0.1692
 4468SOL     OW23507   0.667   6.118   2.528  0.1049 -0.3488 -0.4296
 4468SOL    HW123508   0.608   6.103   2.448 -0.7848  1.5861 -0.1671
 4468SOL    HW223509   0.737   6.185   2.505 -0.0608  0.1018  0.3535
 4469SOL     OW23510   9.074   6.406   1.468 -0.1958  0.3069  0.2994
 4469SOL    HW123511   9.086   6.359   1.555 -0.1472 -1.2459 -0.5227
 4469SOL    HW223512   8.978   6.432   1.457 -1.1375 -3.3856 -1.0557
 4470SOL     OW23513   1.372   2.107   0.852 -0.0843 -0.1745 -0.3189
 4470SOL    HW123514   1.402   2.173   0.783 -0.9333  0.1724 -0.3606
 4470SOL    HW223515   1.273   2.099   0.850  0.0244 -1.6167 -0.4554
 4471SOL     OW23516   9.813   6.764   1.111 -0.2261 -0.0459 -0.0821
 4471SOL    HW123517   9.847   6.840   1.055 -0.4632 -1.7552 -2.5824
 4471SOL    HW223518   9.737   6.797   1.169 -2.6087  0.9142 -3.5884
 4472SOL     OW23519   2.901   0.055   2.086  0.3982  0.7558  0.7515
 4472SOL    HW123520   2.905   0.152   2.109  2.1090  0.9147 -0.0821
 4472SOL    HW223521   2.828   0.040   2.019  1.3663  1.8250 -0.5917
 4473SOL     OW23522   2.945   5.026   0.010  0.5340 -0.3837 -0.2603
 4473SOL    HW123523   2.873   4.965  -0.024  1.7671 -1.9612 -0.1256
 4473SOL    HW223524   2.922   5.055   0.103 -1.7726  2.1985 -1.5809
 4474SOL     OW23525   9.071   7.683   1.067 -0.4984 -0.5116 -0.5226
 4474SOL    HW123526   9.032   7.596   1.038 -0.6264 -0.4422 -0.5613
 4474SOL    HW223527   9.168   7.671   1.088 -0.9766 -1.1018  1.4162
 4475SOL     OW23528   8.632   8.824   2.417 -0.2617  0.2978  0.7315
 4475SOL    HW123529   8.679   8.857   2.499  0.2759 -1.4485  1.1483
 4475SOL    HW223530   8.590   8.735   2.436 -1.8270  0.7882 -0.3138
 4476SOL     OW23531   3.341   0.011   0.708 -0.4824  0.0971  0.2053
 4476SOL    HW123532   3.393  -0.015   0.626 -0.8538 -1.2429  0.3848
 4476SOL    HW223533   3.327   0.110   0.708  0.4546  0.2423 -0.8007
 4477SOL     OW23534   3.143   2.511   2.540 -0.4061 -0.3326  0.2923
 4477SOL    HW123535   3.191   2.586   2.495  0.1661  0.6707  2.4671
 4477SOL    HW223536   3.124   2.438   2.474  0.3585  1.0817 -1.5219
 4478SOL     OW23537   3.277   3.725   1.472 -0.1263  0.5349 -0.1300
 4478SOL    HW123538   3.187   3.698   1.438  0.1821 -0.8127  0.0747
 4478SOL    HW223539   3.343   3.720   1.398  0.4054 -1.7045  0.4470
 4479SOL     OW23540   9.738   1.431   1.184  0.4396 -0.1224 -0.0411
 4479SOL    HW123541   9.656   1.383   1.215  0.0719  0.9281  0.6190
 4479SOL    HW223542   9.804   1.437   1.259  0.1766  1.0666  0.1006
 4480SOL     OW23543   0.290   0.776   1.543 -0.1313  0.3310  0.4756
 4480SOL    HW123544   0.195   0.747   1.530 -0.5279  0.4171  2.8918
 4480SOL    HW223545   0.350   0.724   1.481 -1.9189  1.6038 -2.4233
 4481SOL     OW23546   2.382   0.946   0.081  0.3959  0.0043 -0.1958
 4481SOL    HW123547   2.362   0.848   0.082  0.6913 -0.0483  1.1754
 4481SOL    HW223548   2.468   0.962   0.032  0.5381 -0.4565 -0.0960
 4482SOL     OW23549   2.762   2.285   1.894  0.2480  0.2424 -0.5707
 4482SOL    HW123550   2.704   2.358   1.930  0.4088 -0.2596  0.7012
 4482SOL    HW223551   2.810   2.318   1.812  0.0071  1.4193 -0.2442
 4483SOL     OW23552   4.364   9.987   0.021 -0.0372 -0.6803 -0.0052
 4483SOL    HW123553   4.333  10.001  -0.073  0.8475 -0.4999 -0.2774
 4483SOL    HW223554   4.386  10.076   0.062  0.7696 -0.8605 -0.0461
 4484SOL     OW23555   8.820   4.484   0.774  0.3246 -0.5138  0.2330
 4484SOL    HW123556   8.839   4.569   0.823 -0.6030 -0.9621  1.3921
 4484SOL    HW223557   8.722   4.475   0.760  0.5983 -0.2778 -1.9534
 4485SOL     OW23558   1.818   3.296   0.251 -0.1727  0.2167 -0.0187
 4485SOL    HW123559   1.736   3.305   0.309  0.3399 -2.3249  1.1777
 4485SOL    HW223560   1.896   3.269   0.308  1.0383  0.6182 -1.4558
 4486SOL     OW23561   2.112   7.111   0.122  0.0883 -0.7437  0.4252
 4486SOL    HW123562   2.143   7.018   0.103  0.6795 -0.5430  0.3961
 4486SOL    HW223563   2.031   7.109   0.181 -0.0286 -1.2809  0.2419
 4487SOL     OW23564   0.396   1.828   1.911  0.3086  0.7113  0.0483
 4487SOL    HW123565   0.375   1.736   1.944 -2.5730  1.3747  0.1918
 4487SOL    HW223566   0.351   1.896   1.970 -0.3473  2.0893 -2.0018
 4488SOL     OW23567   4.070   4.535   1.757  0.5682 -0.6256  0.2366
 4488SOL    HW123568   4.031   4.594   1.828 -3.0090 -2.3204 -0.2277
 4488SOL    HW223569   4.046   4.570   1.667  0.2581 -1.6017 -0.0663
 4489SOL     OW23570   0.950   7.666   2.094 -0.0016 -0.2668  0.0661
 4489SOL    HW123571   0.921   7.639   2.186 -0.2533  0.2980  0.1567
 4489SOL    HW223572   1.049   7.653   2.085  0.0825  0.0261  0.5467
 4490SOL     OW23573   9.347   7.721   0.354 -0.2963  0.1070 -0.1200
 4490SOL    HW123574   9.352   7.657   0.277  1.2321 -1.1524  1.0054
 4490SOL    HW223575   9.425   7.707   0.415 -0.6172  2.1989  0.8169
 4491SOL     OW23576   1.826   7.779   2.076  0.3159 -0.1401 -0.5553
 4491SOL    HW123577   1.912   7.802   2.029  0.2818 -0.6836 -0.8850
 4491SOL    HW223578   1.767   7.860   2.078  0.4236 -0.0356 -1.2268
 4492SOL     OW23579   3.806   1.518   0.881 -0.1995  0.1468  0.3605
 4492SOL    HW123580   3.719   1.470   0.884  0.2206 -0.6174  0.4946
 4492SOL    HW223581   3.871   1.466   0.825  0.4364  0.2545  0.9928
 4493SOL     OW23582   1.193   4.878   0.939  0.2952 -0.2353  0.1358
 4493SOL    HW123583   1.127   4.803   0.928  0.1825  0.2632 -2.9512
 4493SOL    HW223584   1.286   4.841   0.933  0.2448 -0.2632 -0.5253
 4494SOL     OW23585   9.370   9.602   0.555  0.0818 -0.0696  0.7603
 4494SOL    HW123586   9.376   9.657   0.471  0.9413  0.8392  1.3979
 4494SOL    HW223587   9.379   9.505   0.532  2.1408  0.2732 -0.0331
 4495SOL     OW23588   2.198   1.793   0.645  0.4434  0.1023 -0.1901
 4495SOL    HW123589   2.296   1.794   0.666  0.2830 -0.4641  0.6376
 4495SOL    HW223590   2.156   1.875   0.684  0.7230  0.7464 -1.2411
 4496SOL     OW23591   0.974   8.348   2.025 -0.0872  0.1770  0.2375
 4496SOL    HW123592   0.991   8.391   2.114 -0.9034  0.1504  0.4142
 4496SOL    HW223593   1.024   8.262   2.019 -0.4328 -0.0745  0.8775
 4497SOL     OW23594   8.825   7.766   0.550 -0.5606  0.2574  0.0363
 4497SOL    HW123595   8.733   7.742   0.579  0.3102 -1.9302  1.0936
 4497SOL    HW223596   8.885   7.772   0.630  0.2960  1.3779 -0.6724
 4498SOL     OW23597   8.507   0.924   1.815  0.1589  0.3200 -0.2230
 4498SOL    HW123598   8.433   0.963   1.761  0.0618  0.3703 -0.0547
 4498SOL    HW223599   8.503   0.824   1.812 -0.6935  0.3165  0.8376
 4499SOL     OW23600   3.490   1.487   1.620  0.1803  0.1438  0.2972
 4499SOL    HW123601   3.443   1.427   1.555  1.6605  0.2163 -0.8759
 4499SOL    HW223602   3.480   1.582   1.591 -0.9485  0.3707  1.3682
 4500SOL     OW23603   9.872   1.103   1.877  0.3995 -0.3972 -0.4051
 4500SOL    HW123604   9.947   1.038   1.884 -0.7933 -1.6821  0.8627
 4500SOL    HW223605   9.870   1.161   1.958  0.7282  0.4203 -0.9762
 4501SOL     OW23606   2.358   5.594   2.138 -0.2592  0.0820 -0.3984
 4501SOL    HW123607   2.323   5.524   2.199 -0.0006 -0.4094 -0.8114
 4501SOL    HW223608   2.300   5.676   2.144 -1.2257 -0.5678 -0.7455
 4502SOL     OW23609   9.755   2.677   0.534 -0.3794  0.2744 -0.0803
 4502SOL    HW123610   9.755   2.619   0.452 -0.2582 -0.5973  0.5305
 4502SOL    HW223611   9.849   2.699   0.559 -0.3159 -1.0743  0.9401
 4503SOL     OW23612   0.168   0.588   1.921  0.3552  0.2503  0.7342
 4503SOL    HW123613   0.157   0.498   1.878 -0.0278  0.4512  0.4071
 4503SOL    HW223614   0.106   0.595   2.000 -1.1645  1.0105 -0.5099
 4504SOL     OW23615   9.171   0.344   2.321 -0.4475 -0.1072  0.2347
 4504SOL    HW123616   9.226   0.273   2.364 -0.3219  0.5071  1.1126
 4504SOL    HW223617   9.080   0.309   2.301  0.0092 -0.8884 -0.5030
 4505SOL     OW23618   9.954   2.159   1.520  0.1092  0.5012 -0.1208
 4505SOL    HW123619  10.016   2.231   1.550 -1.1983  1.2697  0.7958
 4505SOL    HW223620   9.942   2.164   1.421 -1.2778  2.6104  0.1374
 4506SOL     OW23621   4.609   3.480   2.066  0.2064 -0.1042 -0.2743
 4506SOL    HW123622   4.586   3.384   2.046  0.1033 -0.2781  0.6605
 4506SOL    HW223623   4.657   3.520   1.987  0.0181 -0.8453 -0.7710
 4507SOL     OW23624   1.839   8.470   0.335 -0.2007  0.0120  0.2151
 4507SOL    HW123625   1.847   8.524   0.420 -2.8758 -0.3952  0.7720
 4507SOL    HW223626   1.931   8.452   0.299  0.8927  2.3480  1.6482
 4508SOL     OW23627   0.145   1.630   2.502  0.0460 -0.0437 -0.4823
 4508SOL    HW123628   0.066   1.620   2.563  0.6976  0.4319  0.4564
 4508SOL    HW223629   0.222   1.575   2.537  0.5711  0.5987 -0.6190
 4509SOL     OW23630   1.884   3.664   2.331  0.6252 -0.3179 -0.7105
 4509SOL    HW123631   1.957   3.645   2.398  1.5334  3.4192 -0.5332
 4509SOL    HW223632   1.806   3.705   2.378  1.1833  2.1298 -1.8723
 4510SOL     OW23633   8.779   2.027   2.225 -0.1081 -0.8074 -0.1136
 4510SOL    HW123634   8.869   2.018   2.269 -0.1046 -0.7057 -0.0992
 4510SOL    HW223635   8.791   2.070   2.136 -0.1226 -0.9418 -0.1792
 4511SOL     OW23636   3.323   9.659   1.823  0.7182  0.2904  0.1637
 4511SOL    HW123637   3.302   9.691   1.916  0.2930 -3.2377  1.3667
 4511SOL    HW223638   3.262   9.704   1.758 -0.6410  0.9881  1.8741
 4512SOL     OW23639   2.973   9.475   1.045 -0.6845 -0.2150 -0.4094
 4512SOL    HW123640   2.887   9.482   0.994 -0.7082 -0.1982 -0.3674
 4512SOL    HW223641   2.953   9.469   1.143 -0.7367 -2.5549 -0.5512
 4513SOL     OW23642   3.595   5.053   1.135 -0.2133 -0.0358 -0.3574
 4513SOL    HW123643   3.548   5.105   1.063  1.6729  0.4990 -1.2365
 4513SOL    HW223644   3.677   5.011   1.097  1.8493  1.8088  1.9256
 4514SOL     OW23645   7.548   9.409   0.363 -0.2456  0.2331  0.2856
 4514SOL    HW123646   7.486   9.446   0.433 -0.0004 -0.1156  0.6838
 4514SOL    HW223647   7.580   9.484   0.306 -0.0058  0.6017  0.8962
 4515SOL     OW23648   8.213   0.080   2.037  0.1244 -0.4387  0.2052
 4515SOL    HW123649   8.196   0.003   2.098 -0.3605 -0.7933 -0.3767
 4515SOL    HW223650   8.134   0.140   2.037  0.4436 -0.0128  0.5443
 4516SOL     OW23651   0.327   2.801   0.950  0.3912  0.2652 -0.4954
 4516SOL    HW123652   0.332   2.813   0.851 -1.0300 -0.5419 -0.6894
 4516SOL    HW223653   0.372   2.878   0.995  0.3314  1.0663 -1.7547
 4517SOL     OW23654   0.851   0.386   0.298  0.2781  0.0282 -0.4736
 4517SOL    HW123655   0.814   0.302   0.259 -0.3289 -0.1088  0.3967
 4517SOL    HW223656   0.857   0.456   0.226 -0.5021 -0.3365 -0.8974
 4518SOL     OW23657   7.908   0.414   0.036  0.3056 -0.1538 -0.4924
 4518SOL    HW123658   7.871   0.341   0.094 -0.0473 -0.3585 -0.9705
 4518SOL    HW223659   8.007   0.419   0.048 -0.1091  1.7690  2.3706
 4519SOL     OW23660   0.144   9.949   1.516 -0.1400  0.5686  0.3531
 4519SOL    HW123661   0.151  10.049   1.519 -0.6031  0.5885  0.7754
 4519SOL    HW223662   0.048   9.922   1.524 -0.0008  0.0808  0.3869
 4520SOL     OW23663   9.682   5.284   0.484 -0.2289 -0.4963 -0.3688
 4520SOL    HW123664   9.768   5.237   0.505 -0.3393 -0.4055  0.2952
 4520SOL    HW223665   9.644   5.247   0.399 -0.4214 -1.7763  0.2563
 4521SOL     OW23666   0.888   3.102   1.970  0.7962  0.2878 -0.4056
 4521SOL    HW123667   0.853   3.117   2.062 -1.1257 -1.4665 -0.7950
 4521SOL    HW223668   0.947   3.021   1.969  1.2885  0.6470 -0.6037
 4522SOL     OW23669   2.552   8.567   1.229 -0.0477  0.0167 -0.0662
 4522SOL    HW123670   2.608   8.485   1.224 -0.0506  0.1457 -2.7395
 4522SOL    HW223671   2.611   8.647   1.245  0.4705  0.0539 -2.0691
 4523SOL     OW23672   1.684   3.357   0.512 -0.5577  0.2192  0.5611
 4523SOL    HW123673   1.604   3.300   0.527 -0.5148  0.4499  1.6717
 4523SOL    HW223674   1.754   3.336   0.581  0.0848  0.4789  0.0009
 4524SOL     OW23675   9.176   2.440   2.366  0.4414  0.1607  0.0891
 4524SOL    HW123676   9.240   2.454   2.441  2.0671  0.0186 -1.2456
 4524SOL    HW223677   9.219   2.464   2.280 -1.6541  1.0368 -0.7584
 4525SOL     OW23678   7.946   0.955   2.439  0.6240  0.1074  0.1324
 4525SOL    HW123679   8.025   0.903   2.407  0.6611  0.4117 -0.2727
 4525SOL    HW223680   7.885   0.894   2.489  0.2621 -0.5167 -1.0456
 4526SOL     OW23681   8.298   8.933   0.871  0.3907 -0.3088  0.2036
 4526SOL    HW123682   8.258   9.008   0.818  1.8702  0.5548  0.2953
 4526SOL    HW223683   8.285   8.950   0.968  0.6847 -0.1933  0.2230
 4527SOL     OW23684   2.167   3.068   0.848 -0.1063  0.3354 -0.1409
 4527SOL    HW123685   2.251   3.104   0.809  0.3398 -0.0123  0.4743
 4527SOL    HW223686   2.188   3.022   0.935 -1.1538  1.6682  0.8377
 4528SOL     OW23687   1.962   8.126   0.079 -0.2697  0.1446  0.0299
 4528SOL    HW123688   2.022   8.114   0.159 -1.0602  0.9523  0.7561
 4528SOL    HW223689   1.962   8.222   0.051  0.2934 -0.1984 -1.1863
 4529SOL     OW23690   1.548   9.171   1.682  0.1306 -0.6491 -0.0401
 4529SOL    HW123691   1.637   9.142   1.644  0.4364 -0.1777  0.3113
 4529SOL    HW223692   1.484   9.094   1.678  1.2642 -1.7365  1.8885
 4530SOL     OW23693   3.625   0.192   0.763 -0.1566  0.0913 -0.0524
 4530SOL    HW123694   3.591   0.118   0.821 -1.6176  0.4265 -0.4720
 4530SOL    HW223695   3.689   0.154   0.695  2.0364 -0.2197  2.1033
 4531SOL     OW23696   0.214   3.358   1.746 -0.1837  0.2382  0.1102
 4531SOL    HW123697   0.223   3.259   1.758 -0.3362 -0.0218 -1.8012
 4531SOL    HW223698   0.304   3.400   1.738 -0.1560  0.0093 -0.8517
 4532SOL     OW23699   4.887   3.967   0.546  0.0270  0.3933 -0.6757
 4532SOL    HW123700   4.965   3.905   0.536 -0.3356 -0.1132 -0.3757
 4532SOL    HW223701   4.920   4.061   0.557  0.6267  0.0383  0.6069
 4533SOL     OW23702   8.982   0.995   0.086 -0.6823  0.0965 -0.2858
 4533SOL    HW123703   8.944   1.020  -0.003 -0.3726  1.5614 -0.0120
 4533SOL    HW223704   8.960   1.066   0.153  0.6726 -0.0960  0.3778
 4534SOL     OW23705   4.166   1.044   1.718  0.0279  0.0392 -0.3875
 4534SOL    HW123706   4.074   1.080   1.700 -0.2319 -0.3531  0.1459
 4534SOL    HW223707   4.165   0.944   1.711  0.1887 -0.0370  0.6211
 4535SOL     OW23708   0.201   2.640   2.322 -0.4244 -0.2446 -0.2753
 4535SOL    HW123709   0.104   2.650   2.302 -1.1056  0.4623  3.0344
 4535SOL    HW223710   0.248   2.727   2.309  0.1462 -0.9864 -3.5209
 4536SOL     OW23711   2.205   4.022   1.698 -0.4229  0.3681  0.6194
 4536SOL    HW123712   2.227   3.996   1.604 -1.6026 -0.9386  0.6786
 4536SOL    HW223713   2.123   4.079   1.699  0.3419  1.4756  0.7572
 4537SOL     OW23714   0.373   7.125   1.313 -0.0871  0.1369  0.3300
 4537SOL    HW123715   0.288   7.090   1.272 -0.2335 -1.4413  1.8858
 4537SOL    HW223716   0.420   7.050   1.359  0.4217  1.7050  2.4345
 4538SOL     OW23717   2.023   3.157   0.378  0.3026  0.2421  0.2130
 4538SOL    HW123718   2.032   3.115   0.468  1.7218  0.5926  0.2443
 4538SOL    HW223719   2.062   3.097   0.308  1.1248  0.9073  0.0943
 4539SOL     OW23720   1.551   7.029   1.247  0.3984  0.2421 -0.3010
 4539SOL    HW123721   1.606   7.110   1.225  1.3987 -0.1968  0.5645
 4539SOL    HW223722   1.590   6.949   1.203  0.3691 -0.0437  0.1877
 4540SOL     OW23723   2.722   0.324   0.959  0.6327 -0.0339  0.1301
 4540SOL    HW123724   2.807   0.324   0.906  1.1440 -0.8045  0.9375
 4540SOL    HW223725   2.653   0.379   0.911  2.0112  1.7519  0.1399
 4541SOL     OW23726   9.312   1.538   1.844  0.6120  0.2994 -0.3630
 4541SOL    HW123727   9.243   1.567   1.910 -0.2596  0.0112 -1.1311
 4541SOL    HW223728   9.280   1.456   1.796 -0.0709  2.0851 -3.1398
 4542SOL     OW23729   8.353   1.585   0.284  0.6364 -0.1074  0.5762
 4542SOL    HW123730   8.378   1.563   0.379  1.9048 -0.5553  0.1544
 4542SOL    HW223731   8.393   1.517   0.223 -1.1934 -0.5118 -0.1965
 4543SOL     OW23732   8.789   2.157   0.757  0.4665  0.4488 -0.3580
 4543SOL    HW123733   8.823   2.231   0.815 -0.7986  0.8002 -0.0437
 4543SOL    HW223734   8.702   2.185   0.715 -0.8050 -1.4196  0.9651
 4544SOL     OW23735   0.368   0.780   1.948 -0.7232 -0.1040  0.4061
 4544SOL    HW123736   0.293   0.722   1.917  0.3800 -1.1282 -0.4070
 4544SOL    HW223737   0.455   0.740   1.919  0.0655  1.9899 -0.1958
 4545SOL     OW23738   3.188   9.382   2.315 -0.4614 -0.0463  1.2930
 4545SOL    HW123739   3.179   9.472   2.272 -1.8735 -0.2573  1.1363
 4545SOL    HW223740   3.272   9.380   2.370 -0.2648  1.2640  1.0549
 4546SOL     OW23741   3.167   4.966   0.305 -0.0667  0.1248  0.3990
 4546SOL    HW123742   3.182   4.907   0.225  1.5251 -0.5733  1.1997
 4546SOL    HW223743   3.072   4.998   0.304 -0.3497 -0.6687 -1.2388
 4547SOL     OW23744   8.191   0.120   0.826  0.0719 -0.3812  0.5672
 4547SOL    HW123745   8.170   0.216   0.806 -1.3605 -0.8881 -0.4548
 4547SOL    HW223746   8.105   0.070   0.842  0.7087 -1.8335 -0.4795
 4548SOL     OW23747   0.957   8.736   1.362 -0.2706 -0.0023 -0.2917
 4548SOL    HW123748   1.014   8.697   1.290  1.3935  2.1513 -0.1917
 4548SOL    HW223749   0.987   8.829   1.382 -2.4579  0.4133  1.2985
 4549SOL     OW23750   8.964   3.362   1.178 -0.5335 -0.0629 -0.5293
 4549SOL    HW123751   8.960   3.262   1.178  0.3509 -0.0996 -0.5681
 4549SOL    HW223752   8.873   3.399   1.162 -1.3975 -0.8430  2.3385
 4550SOL     OW23753   0.514   1.792   2.303  0.1200  0.0201  0.0337
 4550SOL    HW123754   0.556   1.865   2.248 -0.4507 -0.8285 -1.5539
 4550SOL    HW223755   0.420   1.818   2.325  0.0819 -0.0078 -0.0957
 4551SOL     OW23756   4.824   3.367   0.577 -0.2467  0.0681  0.0391
 4551SOL    HW123757   4.874   3.451   0.553  2.1899 -0.9598  1.3782
 4551SOL    HW223758   4.847   3.295   0.511 -0.2652 -0.2934  0.4240
 4552SOL     OW23759   3.005   6.294   1.912  0.1817  0.4544 -0.3620
 4552SOL    HW123760   2.997   6.287   1.813 -2.1182 -0.7789 -0.1376
 4552SOL    HW223761   3.049   6.212   1.948 -1.4309 -0.3582 -0.1669
 4553SOL     OW23762   2.037   6.038   0.124 -0.4849 -1.1851  0.6337
 4553SOL    HW123763   2.055   5.947   0.089 -1.2808 -1.4270  0.8323
 4553SOL    HW223764   1.986   6.091   0.056  0.2964 -0.7591  0.3698
 4554SOL     OW23765   9.170   1.999   0.952 -0.0061  0.0140  0.4414
 4554SOL    HW123766   9.193   1.960   1.042 -1.1449  0.0576  0.7568
 4554SOL    HW223767   9.072   1.991   0.937  0.3766 -1.4619 -1.5003
 4555SOL     OW23768   1.990   8.381   2.572 -0.5413  0.1615 -0.0166
 4555SOL    HW123769   1.993   8.479   2.555  1.5597  0.2463  0.6542
 4555SOL    HW223770   2.039   8.333   2.498  0.5378 -0.1877  0.9162
 4556SOL     OW23771   7.347   9.398   2.156  0.0182 -0.1111  0.3561
 4556SOL    HW123772   7.384   9.376   2.066 -1.9845 -1.2646 -0.2234
 4556SOL    HW223773   7.384   9.335   2.224  2.2608  1.3536  0.5342
 4557SOL     OW23774   1.697   6.770   2.314  0.0771  0.8459 -0.0455
 4557SOL    HW123775   1.629   6.767   2.386  0.0505  1.2919 -0.0480
 4557SOL    HW223776   1.777   6.715   2.340 -1.1791 -1.4942 -0.9823
 4558SOL     OW23777   8.825   8.911   0.627  0.4190 -0.9790  0.0315
 4558SOL    HW123778   8.807   8.879   0.534  0.9085 -1.4673  0.1004
 4558SOL    HW223779   8.923   8.929   0.638  0.0573  1.4202 -0.2715
 4559SOL     OW23780   9.209   5.975   1.413 -0.6023  0.0526 -0.5567
 4559SOL    HW123781   9.224   6.043   1.485 -1.4918  1.6478 -1.8413
 4559SOL    HW223782   9.150   6.014   1.342  0.9761 -1.1739 -2.5927
 4560SOL     OW23783   2.668   8.024   1.013 -1.1484  0.1649  0.3878
 4560SOL    HW123784   2.627   7.988   1.097 -2.2936  0.0152 -0.2365
 4560SOL    HW223785   2.601   8.023   0.939  0.0871 -0.4574 -0.7503
 4561SOL     OW23786   4.600   3.016   0.113 -0.4975 -0.0242 -0.0861
 4561SOL    HW123787   4.559   3.084   0.174  1.0991 -0.3816  1.4028
 4561SOL    HW223788   4.678   2.973   0.158 -0.5876 -1.8075 -1.5802
 4562SOL     OW23789   9.996   0.434   0.411 -0.3361 -0.9804  0.7501
 4562SOL    HW123790   9.904   0.473   0.422 -0.7184 -1.4926 -0.4691
 4562SOL    HW223791  10.046   0.441   0.497 -1.3066 -0.1452  1.2623
 4563SOL     OW23792   4.992   3.672   1.234  0.2437  0.1108 -0.8561
 4563SOL    HW123793   4.942   3.746   1.190 -0.4558  0.3161  0.2615
 4563SOL    HW223794   5.006   3.694   1.331  0.3653 -1.0435 -0.6022
 4564SOL     OW23795   1.798   1.526   1.996 -0.1219 -0.1196 -0.3404
 4564SOL    HW123796   1.800   1.571   2.086  0.7828 -0.5510 -0.1347
 4564SOL    HW223797   1.874   1.462   1.990  0.2882  0.4762 -1.7135
 4565SOL     OW23798   2.220   9.687   0.826 -0.1618 -1.4339  0.3687
 4565SOL    HW123799   2.256   9.771   0.785  1.5344 -2.3846 -0.1667
 4565SOL    HW223800   2.178   9.709   0.914  1.4799 -0.1850  0.8911
 4566SOL     OW23801   8.402   1.157   1.120  0.3040  0.1728 -0.1836
 4566SOL    HW123802   8.488   1.169   1.168  0.8881  2.6918 -1.7475
 4566SOL    HW223803   8.420   1.133   1.024 -0.6837  0.7877 -0.5431
 4567SOL     OW23804   8.808   7.380   0.404 -0.4920 -0.4264 -0.5018
 4567SOL    HW123805   8.853   7.367   0.315  0.0291  0.3735 -0.3652
 4567SOL    HW223806   8.871   7.425   0.467 -0.3703 -2.2828  0.7373
 4568SOL     OW23807   8.656   7.884   0.024 -0.3304  0.0946 -0.1119
 4568SOL    HW123808   8.739   7.922   0.066 -1.0091 -0.1589  1.5327
 4568SOL    HW223809   8.660   7.784   0.027 -0.6341  0.0814 -0.1292
 4569SOL     OW23810   9.868   3.349   0.684 -0.1500  0.2125 -0.3600
 4569SOL    HW123811   9.834   3.338   0.777  0.0470  2.0739 -0.0371
 4569SOL    HW223812   9.792   3.369   0.622 -0.0861  0.6251 -0.3048
 4570SOL     OW23813   9.549   8.573   1.606 -0.6752 -0.0544  0.0528
 4570SOL    HW123814   9.554   8.620   1.518 -0.9600 -0.3539 -0.1308
 4570SOL    HW223815   9.534   8.639   1.679 -1.1609  0.1333 -0.2126
 4571SOL     OW23816   3.323   0.972   1.532  0.2602 -0.1839  0.4016
 4571SOL    HW123817   3.378   1.020   1.600  0.9303  0.2681 -0.4580
 4571SOL    HW223818   3.371   0.970   1.445 -1.5512  1.1827 -0.6727
 4572SOL     OW23819   1.257   9.846   0.611  0.3991 -0.1517 -0.9285
 4572SOL    HW123820   1.252   9.944   0.631  0.0865 -0.8422  2.8632
 4572SOL    HW223821   1.267   9.795   0.697 -2.9473 -3.7060 -2.5015
 4573SOL     OW23822   1.197   0.497   0.212 -0.6089  0.3909 -0.0046
 4573SOL    HW123823   1.241   0.469   0.298  1.3103 -1.2330 -1.4715
 4573SOL    HW223824   1.268   0.524   0.146 -1.9527 -0.2272 -1.7251
 4574SOL     OW23825   0.909   7.742   1.532  0.0233  0.7638  0.3538
 4574SOL    HW123826   0.909   7.648   1.568 -0.6193 -0.0305 -1.6235
 4574SOL    HW223827   1.003   7.772   1.518  0.2180 -0.1608 -0.4082
 4575SOL     OW23828   3.877   9.742   2.185  0.0205 -0.3312 -0.1673
 4575SOL    HW123829   3.788   9.765   2.146 -0.3694 -1.0930  0.2466
 4575SOL    HW223830   3.944   9.813   2.162 -0.4500 -0.2595 -1.3248
 4576SOL     OW23831   4.249   2.705   2.557 -0.2382 -0.4922  0.6334
 4576SOL    HW123832   4.345   2.719   2.583 -0.3266  1.5578 -0.0082
 4576SOL    HW223833   4.240   2.714   2.458 -1.0532 -0.9357  0.6648
 4577SOL     OW23834   0.491   5.976   1.131 -0.4915 -0.0534  0.1695
 4577SOL    HW123835   0.546   5.963   1.213 -0.5342 -1.1027  0.0381
 4577SOL    HW223836   0.540   6.035   1.067  1.2354 -2.2396 -0.6205
 4578SOL     OW23837   1.899   0.594   1.556  0.0289 -1.0252 -0.4159
 4578SOL    HW123838   1.885   0.607   1.654 -1.7107 -2.3798 -0.4520
 4578SOL    HW223839   1.997   0.599   1.535  0.5512 -2.2289  1.6133
 4579SOL     OW23840   9.042   0.242   1.653 -0.1208 -0.7867  0.1313
 4579SOL    HW123841   9.111   0.179   1.617  2.5352  1.5734  0.9061
 4579SOL    HW223842   9.076   0.336   1.647 -1.6421  0.1180  4.0405
 4580SOL     OW23843   0.506   1.078   0.271  0.4547  0.8741 -0.1529
 4580SOL    HW123844   0.454   1.162   0.289 -1.5044 -0.3428 -0.0504
 4580SOL    HW223845   0.604   1.099   0.273 -0.0192  3.3419 -1.0745
 4581SOL     OW23846   9.591   3.179   2.302 -0.0347 -0.1174  0.3690
 4581SOL    HW123847   9.526   3.132   2.243 -0.1704  0.0317  0.3978
 4581SOL    HW223848   9.624   3.116   2.372  1.5411 -0.8317 -0.9851
 4582SOL     OW23849   0.882   5.389   2.420 -0.2166  0.1204  0.1488
 4582SOL    HW123850   0.923   5.381   2.329 -1.2117  1.0330 -0.3983
 4582SOL    HW223851   0.817   5.465   2.421  0.2145  0.4872  1.8021
 4583SOL     OW23852   1.150   2.458   0.544 -0.1392 -0.5869 -0.4868
 4583SOL    HW123853   1.124   2.361   0.550  0.3749 -0.7132 -0.2896
 4583SOL    HW223854   1.131   2.502   0.632  1.3500 -0.9405  0.0266
 4584SOL     OW23855   0.927   3.553   1.052 -0.5744  0.1090  0.1545
 4584SOL    HW123856   0.952   3.483   0.985 -0.1772  0.0367  0.3768
 4584SOL    HW223857   0.979   3.539   1.136 -0.9819  0.2702  0.4395
 4585SOL     OW23858   1.310   0.432   1.058 -0.2325 -0.3212 -0.4346
 4585SOL    HW123859   1.228   0.481   1.027  0.6311 -0.4743 -3.1594
 4585SOL    HW223860   1.381   0.499   1.082 -0.5659 -0.2040  0.2281
 4586SOL     OW23861   4.051   9.335   0.650 -0.3883 -0.4001  0.0917
 4586SOL    HW123862   4.107   9.260   0.686 -0.1479 -0.3566 -0.1953
 4586SOL    HW223863   3.975   9.353   0.713 -1.3267 -1.8957 -0.5908
 4587SOL     OW23864   8.841   0.642   2.390 -0.1091 -0.2954 -0.0567
 4587SOL    HW123865   8.803   0.726   2.350 -0.0436 -0.3689 -0.2757
 4587SOL    HW223866   8.867   0.579   2.316  2.0564  0.4506  0.0373
 4588SOL     OW23867   8.766   1.106   0.976  0.7658  0.1757 -0.6556
 4588SOL    HW123868   8.688   1.073   0.923  0.7520 -0.8928  0.0225
 4588SOL    HW223869   8.734   1.144   1.063  0.8500  1.2861 -1.1042
 4589SOL     OW23870   0.961   9.916   1.564 -0.0892  0.4651 -0.2908
 4589SOL    HW123871   1.026   9.989   1.542  1.6629 -1.0035 -0.0872
 4589SOL    HW223872   0.998   9.828   1.535 -2.3776 -0.3254 -0.9370
 4590SOL     OW23873   1.591   7.988   0.849 -0.0652 -0.1856 -0.0679
 4590SOL    HW123874   1.550   8.053   0.912  1.8014  1.8753 -0.9011
 4590SOL    HW223875   1.641   7.919   0.900 -2.8609 -1.6056  0.8655
 4591SOL     OW23876   8.425   1.994   2.377 -0.1638 -0.8771  0.2354
 4591SOL    HW123877   8.362   1.920   2.356 -0.3286 -0.9715  1.0392
 4591SOL    HW223878   8.478   2.018   2.295 -0.3566 -1.6391 -0.1142
 4592SOL     OW23879   3.957   1.347   0.715  0.3910 -0.1701 -0.7997
 4592SOL    HW123880   3.995   1.361   0.624 -0.3035  0.8868 -0.9327
 4592SOL    HW223881   3.934   1.251   0.727  1.3390 -0.4785 -1.4026
 4593SOL     OW23882   2.087   4.755   1.533 -0.0213 -0.2115  0.2680
 4593SOL    HW123883   2.066   4.663   1.502  0.4993  0.0195 -0.8109
 4593SOL    HW223884   2.014   4.818   1.504  0.4011 -0.0176 -0.3917
 4594SOL     OW23885   1.728   7.625   0.126 -0.6462  0.3388  0.5927
 4594SOL    HW123886   1.776   7.694   0.071  2.3544 -1.1283  1.3018
 4594SOL    HW223887   1.677   7.564   0.065 -1.8781  2.0739 -0.1559
 4595SOL     OW23888   8.650   1.205   0.493 -0.7363 -0.0522 -0.3085
 4595SOL    HW123889   8.595   1.284   0.466  1.0542  1.2409 -0.2682
 4595SOL    HW223890   8.696   1.224   0.579 -0.0317 -1.0089 -0.4639
 4596SOL     OW23891   2.732   8.778   1.316  0.4063  0.4020 -0.1309
 4596SOL    HW123892   2.792   8.750   1.391  0.0510 -1.0165 -0.3536
 4596SOL    HW223893   2.781   8.770   1.230  0.3292  0.5642 -0.1893
 4597SOL     OW23894   9.507   7.788   2.314  0.3228  0.2833 -0.6866
 4597SOL    HW123895   9.425   7.841   2.338 -0.2230 -0.2860 -1.2952
 4597SOL    HW223896   9.564   7.778   2.396 -0.9639 -0.6469  0.1193
 4598SOL     OW23897   0.366   9.143   2.244  0.1190  0.2907  0.5933
 4598SOL    HW123898   0.453   9.120   2.286 -0.1843  1.2836  1.7873
 4598SOL    HW223899   0.373   9.132   2.144  1.2612 -0.6912  0.7772
 4599SOL     OW23900   2.465   1.380   1.039 -0.1395  0.3903  0.3519
 4599SOL    HW123901   2.395   1.398   0.970 -2.4073 -0.3311  2.3919
 4599SOL    HW223902   2.462   1.452   1.109  0.6688 -0.0432  0.8369
 4600SOL     OW23903   0.239   3.108   1.806 -0.1265  0.3519 -0.3060
 4600SOL    HW123904   0.215   3.055   1.888 -1.8241  1.3974 -0.0958
 4600SOL    HW223905   0.304   3.056   1.751 -0.8905 -1.4790  0.4539
 4601SOL     OW23906   3.431   1.450   1.931 -0.2029  0.0902  0.3983
 4601SOL    HW123907   3.333   1.450   1.916 -0.2739 -0.1868  0.8425
 4601SOL    HW223908   3.479   1.440   1.844 -0.6247 -3.3075  0.4889
 4602SOL     OW23909   0.763   1.665   0.647 -0.3005 -0.0060 -0.2650
 4602SOL    HW123910   0.800   1.584   0.692 -1.3508  0.5766  1.6695
 4602SOL    HW223911   0.735   1.641   0.554 -4.1335 -2.8513  1.4997
 4603SOL     OW23912   3.244   3.392   2.171 -0.0709 -0.7083 -0.1677
 4603SOL    HW123913   3.234   3.307   2.119 -0.4979 -0.0186 -1.2374
 4603SOL    HW223914   3.187   3.463   2.130 -0.6943 -0.2324  1.4770
 4604SOL     OW23915   1.750   1.732   1.087 -0.0058 -0.2708 -0.5490
 4604SOL    HW123916   1.681   1.805   1.086  1.1817  0.9299  1.6233
 4604SOL    HW223917   1.739   1.677   1.169  1.0347 -0.6728 -0.6758
 4605SOL     OW23918   0.902   9.448   2.433  0.0318  0.0051  0.1840
 4605SOL    HW123919   0.848   9.531   2.417 -1.5999 -1.1066 -0.1741
 4605SOL    HW223920   0.988   9.454   2.383 -0.4109  1.1406 -0.4614
 4606SOL     OW23921   2.928   1.950   2.125  0.3362  0.0378  0.2168
 4606SOL    HW123922   2.934   2.046   2.096 -2.5602  0.4853  0.8954
 4606SOL    HW223923   2.990   1.935   2.202 -1.2625  2.1862  2.0065
 4607SOL     OW23924   8.198   0.472   0.448  0.5573  0.2003  0.2708
 4607SOL    HW123925   8.107   0.498   0.480  0.2602  0.2326 -0.5882
 4607SOL    HW223926   8.201   0.373   0.434  0.2860  0.3399 -0.8298
 4608SOL     OW23927   2.820   0.519   0.169 -0.7828  0.1931 -0.1273
 4608SOL    HW123928   2.808   0.437   0.225 -0.1959 -1.3949 -2.2498
 4608SOL    HW223929   2.774   0.505   0.081 -0.9505  2.2808 -0.3797
 4609SOL     OW23930   0.564   5.531   0.394 -0.5067 -0.4846 -0.3373
 4609SOL    HW123931   0.589   5.440   0.427  0.5957 -0.7540 -1.8804
 4609SOL    HW223932   0.477   5.526   0.346 -0.8957 -0.5579  0.3767
 4610SOL     OW23933   8.793   9.364   0.639 -0.2061 -0.2562 -0.7668
 4610SOL    HW123934   8.845   9.306   0.577 -0.3812  0.0823 -1.2277
 4610SOL    HW223935   8.855   9.414   0.699  0.0038  0.1581 -1.3254
 4611SOL     OW23936   8.016   1.291   0.602 -0.3864 -0.0127  0.2183
 4611SOL    HW123937   8.080   1.343   0.546 -0.0039 -0.1719  0.4992
 4611SOL    HW223938   8.067   1.223   0.656 -0.4518  1.6642  2.4696
 4612SOL     OW23939   1.960   9.122   2.292 -0.0222  0.7797 -0.4373
 4612SOL    HW123940   1.938   9.215   2.323 -0.3044  0.5401  0.0826
 4612SOL    HW223941   1.875   9.070   2.283  0.1606  0.4909 -0.4805
 4613SOL     OW23942   2.895   3.479   0.953 -0.5874  0.3772 -0.2537
 4613SOL    HW123943   2.854   3.402   1.002 -1.8371  1.1335 -0.1072
 4613SOL    HW223944   2.899   3.559   1.013  1.4197  0.2345 -0.1524
 4614SOL     OW23945   2.714   9.606   1.178  0.4822 -0.3481 -0.0818
 4614SOL    HW123946   2.767   9.537   1.226  0.9427  0.4090  0.5122
 4614SOL    HW223947   2.730   9.695   1.220 -1.1670 -0.0935  0.0223
 4615SOL     OW23948   1.539   5.093   0.804  0.2900  0.0361  0.5274
 4615SOL    HW123949   1.458   5.087   0.746  0.8181 -3.4342  0.0309
 4615SOL    HW223950   1.549   5.186   0.838 -1.0214  1.7504 -3.4921
 4616SOL     OW23951   1.003   8.493   1.794  0.4517  0.0478  0.5837
 4616SOL    HW123952   0.976   8.461   1.885 -1.3309  0.1941  0.1164
 4616SOL    HW223953   0.995   8.418   1.728  1.1904  0.0989  0.4261
 4617SOL     OW23954   8.553   2.263   0.669  0.3906 -0.2610 -0.2418
 4617SOL    HW123955   8.475   2.224   0.718  0.3348 -1.0698 -0.9492
 4617SOL    HW223956   8.548   2.362   0.670 -0.1222 -0.2921  0.5556
 4618SOL     OW23957   9.573   8.891   1.558  0.2957 -0.2014 -0.1133
 4618SOL    HW123958   9.603   8.929   1.470  0.9431 -1.5199 -0.4758
 4618SOL    HW223959   9.650   8.889   1.621  0.4778 -1.6525 -0.3659
 4619SOL     OW23960   3.998   3.860   2.407 -0.3473  0.1119  0.0724
 4619SOL    HW123961   3.990   3.943   2.462 -0.1064 -0.6184  1.2162
 4619SOL    HW223962   3.987   3.779   2.465  2.4344 -0.7262 -0.4922
 4620SOL     OW23963   7.695   0.367   1.001 -0.4294 -0.5070  0.1084
 4620SOL    HW123964   7.762   0.349   0.929  0.7818  0.6965  0.9072
 4620SOL    HW223965   7.729   0.331   1.088  0.5844  2.6807  1.1028
 4621SOL     OW23966   4.553   2.503   1.542  0.2776 -0.4377  0.2609
 4621SOL    HW123967   4.603   2.575   1.494 -1.4593  0.5779 -0.0538
 4621SOL    HW223968   4.608   2.470   1.620  2.0646 -0.4100 -0.9623
 4622SOL     OW23969   2.997   2.980   2.397 -0.8631 -0.0103  0.3584
 4622SOL    HW123970   2.990   3.014   2.491 -0.6383 -0.2502  0.4608
 4622SOL    HW223971   2.969   3.053   2.333  1.0522  0.8703  0.5104
 4623SOL     OW23972   9.480   5.303   0.657  0.2565  0.3473 -0.0594
 4623SOL    HW123973   9.550   5.292   0.587 -0.8246  0.0146 -1.1136
 4623SOL    HW223974   9.460   5.215   0.700  1.9579  0.7981  1.7150
 4624SOL     OW23975   8.185   9.404   1.878 -0.1124 -0.2990  0.4712
 4624SOL    HW123976   8.146   9.318   1.843 -0.2287 -0.2821  0.5599
 4624SOL    HW223977   8.230   9.387   1.966  2.8895 -0.9901 -1.1279
 4625SOL     OW23978   1.408   9.949   1.796  0.0355 -0.4624 -0.2305
 4625SOL    HW123979   1.309   9.939   1.805 -0.0259  0.1184 -0.2522
 4625SOL    HW223980   1.454   9.882   1.854 -0.3627  0.3229  0.9976
 4626SOL     OW23981   2.363   5.911   1.430 -0.8280 -0.1650 -0.0672
 4626SOL    HW123982   2.339   5.835   1.491 -3.0902 -0.4614 -1.2730
 4626SOL    HW223983   2.354   5.882   1.335  0.6628  0.9154 -0.5617
 4627SOL     OW23984   9.604   3.496   1.059 -0.3727 -0.2896  0.6590
 4627SOL    HW123985   9.626   3.584   1.017 -1.0086 -1.0217 -1.2646
 4627SOL    HW223986   9.519   3.505   1.112 -0.3742  0.2767  0.5666
 4628SOL     OW23987   2.919   0.044   0.317 -0.0167 -0.7547 -0.3542
 4628SOL    HW123988   2.882  -0.006   0.239  0.7945 -0.6474 -0.8180
 4628SOL    HW223989   2.907   0.142   0.302 -0.5540 -0.7672  0.0100
 4629SOL     OW23990   0.831   0.915   1.684 -0.2603  0.0934  0.1600
 4629SOL    HW123991   0.842   0.973   1.764  0.6358 -1.2392  1.0123
 4629SOL    HW223992   0.744   0.866   1.690  0.2349 -0.7157  0.7847
 4630SOL     OW23993   3.028   8.589   0.697  0.1157  0.4584  0.2858
 4630SOL    HW123994   3.009   8.686   0.682 -0.9910  0.5143  1.8928
 4630SOL    HW223995   2.950   8.535   0.667 -0.5408  0.3070  2.2082
 4631SOL     OW23996   0.186   9.428   0.500 -0.1728  0.2278 -0.5606
 4631SOL    HW123997   0.281   9.397   0.506 -0.3787 -0.5671 -1.3618
 4631SOL    HW223998   0.183   9.527   0.512  1.0429  0.6053 -3.0229
 4632SOL     OW23999   8.724   1.604   0.435 -0.2666  0.7696  0.7879
 4632SOL    HW124000   8.786   1.590   0.358 -1.3149  1.5502 -0.2260
 4632SOL    HW224001   8.658   1.676   0.412 -1.6853 -0.1904  1.7419
 4633SOL     OW24002   4.383   8.937   1.165  0.3852  0.0576 -0.0339
 4633SOL    HW124003   4.322   8.868   1.125 -1.7351  1.2719  1.0061
 4633SOL    HW224004   4.435   8.980   1.092  0.3602 -1.3339 -0.9078
 4634SOL     OW24005   8.680   0.423   0.566 -0.1483  0.8654  0.0865
 4634SOL    HW124006   8.676   0.399   0.469  0.4116 -2.2362  0.8029
 4634SOL    HW224007   8.587   0.433   0.601 -0.4491 -1.6476  0.0718
 4635SOL     OW24008   8.077   7.994   1.072  0.4656  0.2004 -0.1341
 4635SOL    HW124009   8.052   7.898   1.056  0.3183  0.3073 -0.5272
 4635SOL    HW224010   8.087   8.041   0.985  0.9719  0.4353  0.0486
 4636SOL     OW24011   2.062   8.195   0.638  0.2586 -0.0221 -0.1213
 4636SOL    HW124012   1.983   8.239   0.595  0.6165 -0.5302 -1.3273
 4636SOL    HW224013   2.133   8.264   0.654 -0.4090  0.4312  0.9433
 4637SOL     OW24014   1.754   9.885   1.081 -0.1021  0.4097 -0.0081
 4637SOL    HW124015   1.824   9.888   1.010  1.3791  0.1675  1.4040
 4637SOL    HW224016   1.667   9.856   1.041  0.7604  0.0261 -1.6601
 4638SOL     OW24017   3.939   1.479   0.011  0.6294 -0.0672  0.0503
 4638SOL    HW124018   4.001   1.415  -0.034 -0.6734 -0.7828 -0.7238
 4638SOL    HW224019   3.984   1.568   0.018  1.5668 -0.4441 -0.9286
 4639SOL     OW24020   8.774   1.085   1.770 -0.2099 -0.0746 -0.0165
 4639SOL    HW124021   8.756   1.165   1.827  1.0016 -0.4375  0.9106
 4639SOL    HW224022   8.688   1.039   1.748 -0.5909 -0.9745  3.0827
 4640SOL     OW24023   9.059   9.888   1.682  0.3185  0.2522 -0.2572
 4640SOL    HW124024   9.023   9.910   1.772  1.1415 -2.5165  0.7919
 4640SOL    HW224025   8.985   9.888   1.615 -1.0636 -1.8143  1.2114
 4641SOL     OW24026   2.922   8.760   0.300 -0.6270 -0.3507  0.1120
 4641SOL    HW124027   2.844   8.810   0.338  0.6268 -0.1728  2.5146
 4641SOL    HW224028   2.999   8.764   0.364  0.7224 -2.1943 -1.3458
 4642SOL     OW24029   3.625   3.378   0.035 -0.5527 -0.0359  0.0394
 4642SOL    HW124030   3.686   3.416   0.104 -1.7857  0.5823  0.8085
 4642SOL    HW224031   3.637   3.279   0.031  1.1297  0.1708 -0.4564
 4643SOL     OW24032   2.822   2.143   0.978  0.5496 -0.2848 -0.3070
 4643SOL    HW124033   2.765   2.082   1.033  1.2699 -1.2085 -0.5894
 4643SOL    HW224034   2.916   2.111   0.978  1.0259  1.0448 -0.1399
 4644SOL     OW24035   3.806   2.502   1.631 -0.6937  0.0393  0.2233
 4644SOL    HW124036   3.735   2.521   1.562 -0.4966  0.7182  0.2060
 4644SOL    HW224037   3.850   2.415   1.609 -2.4981 -1.1157  1.0511
 4645SOL     OW24038   0.347   4.123   0.526 -0.3491  0.2370  0.0897
 4645SOL    HW124039   0.255   4.158   0.509  0.2217  1.7558  0.0911
 4645SOL    HW224040   0.341   4.036   0.575 -1.7528  1.2515  1.7805
 4646SOL     OW24041   0.450   6.678   2.510  0.1489  0.2290  0.0470
 4646SOL    HW124042   0.392   6.735   2.568  0.1315  0.4161 -0.1572
 4646SOL    HW224043   0.541   6.672   2.550  0.2897  0.7931 -0.1827
 4647SOL     OW24044   2.622   7.141   1.847  0.6212 -0.0498  0.2128
 4647SOL    HW124045   2.718   7.147   1.821  0.7084  0.1759  0.5885
 4647SOL    HW224046   2.609   7.065   1.910  0.5924  0.0611  0.3411
 4648SOL     OW24047   9.393   3.857   2.541  0.4450 -0.0971 -0.5861
 4648SOL    HW124048   9.381   3.823   2.448 -0.0127  0.4243 -0.7153
 4648SOL    HW224049   9.309   3.900   2.572 -0.2693 -2.5008  0.9979
 4649SOL     OW24050   9.192   6.199   1.639  0.0996 -0.3559 -0.2264
 4649SOL    HW124051   9.129   6.224   1.713  1.3932  0.2775  0.6841
 4649SOL    HW224052   9.234   6.110   1.661  2.2878  0.9318  1.0360
 4650SOL     OW24053   9.268   2.116   2.418  0.2110  0.2469  0.0237
 4650SOL    HW124054   9.358   2.078   2.438 -0.0703 -0.6340 -0.3374
 4650SOL    HW224055   9.265   2.144   2.322 -0.4375 -1.3047 -0.4255
 4651SOL     OW24056   1.117   8.254   0.417  0.0881 -0.0879 -0.0599
 4651SOL    HW124057   1.146   8.287   0.327 -0.2863 -2.1463 -0.9765
 4651SOL    HW224058   1.198   8.229   0.470  0.2629 -0.3594 -0.4437
 4652SOL     OW24059   2.161   3.911   0.628  0.0722 -0.6489  0.2510
 4652SOL    HW124060   2.070   3.873   0.646  0.1388 -1.2394 -0.6579
 4652SOL    HW224061   2.210   3.852   0.565 -0.3513  1.6400 -2.3298
 4653SOL     OW24062   0.699   4.274   1.945  0.0104  0.1799  0.3663
 4653SOL    HW124063   0.711   4.288   2.043 -0.2464  2.3749  0.1087
 4653SOL    HW224064   0.738   4.351   1.896  0.8062 -1.2530 -1.3181
 4654SOL     OW24065   0.479   1.316   1.273  0.0995  0.1051 -0.2461
 4654SOL    HW124066   0.385   1.331   1.302  0.2088  0.8153 -0.2467
 4654SOL    HW224067   0.523   1.404   1.254  0.9407 -0.1844  0.3235
 4655SOL     OW24068   3.698   3.099   2.207 -0.3642 -0.4830  0.1004
 4655SOL    HW124069   3.629   3.172   2.207 -0.6228 -0.7232  0.6906
 4655SOL    HW224070   3.781   3.131   2.161 -0.1279  0.5290  1.2066
 4656SOL     OW24071   0.302   0.241   1.096 -0.2159  0.7071  0.4236
 4656SOL    HW124072   0.306   0.171   1.024 -0.9472  0.1918  0.8764
 4656SOL    HW224073   0.329   0.329   1.058  0.5804  0.2094 -0.1929
 4657SOL     OW24074   1.074   8.978   1.425 -0.9389 -0.6288 -0.0989
 4657SOL    HW124075   1.113   8.955   1.514  0.5636  0.3063 -0.4809
 4657SOL    HW224076   1.083   9.077   1.409 -4.9187 -0.1153  0.4328
 4658SOL     OW24077   2.889   8.602   2.216 -0.0659  0.0951  0.0230
 4658SOL    HW124078   2.918   8.666   2.287 -1.1270  1.2129 -0.5390
 4658SOL    HW224079   2.789   8.592   2.219  0.0529 -1.2243 -0.1612
 4659SOL     OW24080   9.745   2.915   1.309  0.4164  0.1104  0.6820
 4659SOL    HW124081   9.770   2.852   1.382  1.3664 -0.3853 -0.0541
 4659SOL    HW224082   9.803   2.996   1.313  1.0662 -0.3120 -0.0478
 4660SOL     OW24083   8.714   7.613   0.048  0.2816  0.4795 -0.7847
 4660SOL    HW124084   8.811   7.617   0.075  0.8134  0.3536 -2.6090
 4660SOL    HW224085   8.705   7.553  -0.032 -1.1463  1.4466 -1.3461
 4661SOL     OW24086   9.034   9.216   0.857  0.2997 -0.1019 -0.0959
 4661SOL    HW124087   8.988   9.253   0.938  0.8122 -3.0353  1.6150
 4661SOL    HW224088   8.976   9.228   0.777 -1.9040 -0.6194  1.3919
 4662SOL     OW24089   1.920   7.770   0.572 -0.2768  0.2829 -0.2701
 4662SOL    HW124090   1.924   7.727   0.483  1.0765 -1.7395  0.7228
 4662SOL    HW224091   1.825   7.792   0.595 -1.0054 -2.1029 -0.8456
 4663SOL     OW24092   1.538   7.084   0.355 -0.2331  0.1122 -0.4565
 4663SOL    HW124093   1.572   7.102   0.262  0.0793  0.1834 -0.3314
 4663SOL    HW224094   1.523   7.171   0.402  1.3095  0.0580  0.1609
 4664SOL     OW24095   0.403   0.307   1.801  0.5244  0.0546  0.0354
 4664SOL    HW124096   0.453   0.224   1.775  0.9941 -0.3022  1.9991
 4664SOL    HW224097   0.432   0.383   1.743  1.4679 -0.7365 -0.5478
 4665SOL     OW24098   0.219   8.178   0.089 -0.0921 -0.4455 -0.4041
 4665SOL    HW124099   0.291   8.218   0.033  0.0101 -0.2342 -0.1228
 4665SOL    HW224100   0.256   8.151   0.178 -0.0141 -1.7482 -0.8123
 4666SOL     OW24101   0.530   3.521   0.255 -0.1609  0.7063  0.3318
 4666SOL    HW124102   0.481   3.605   0.234  1.4223  2.1116  2.1852
 4666SOL    HW224103   0.599   3.504   0.185 -0.9665  0.5378 -0.4341
 4667SOL     OW24104   0.127   9.699   0.581 -0.5431 -0.1806  0.2151
 4667SOL    HW124105   0.165   9.746   0.502  1.4335  1.7681  2.2165
 4667SOL    HW224106   0.037   9.738   0.602 -0.3754  0.4022 -0.1286
 4668SOL     OW24107   7.755   9.352   1.779  0.0271  0.1456 -0.1733
 4668SOL    HW124108   7.789   9.274   1.831  1.4200  0.1471 -1.0639
 4668SOL    HW224109   7.663   9.377   1.812  0.0600 -1.1142  0.8969
 4669SOL     OW24110   9.013   9.794   0.209  0.0474 -0.5952  0.2494
 4669SOL    HW124111   9.024   9.767   0.305  2.9891 -0.0633  0.0920
 4669SOL    HW224112   9.012   9.712   0.151  0.2799 -0.8137  0.5514
 4670SOL     OW24113   3.345   8.871   2.206 -0.4453 -0.3778 -0.3578
 4670SOL    HW124114   3.318   8.891   2.112 -0.1143 -1.0596 -0.6077
 4670SOL    HW224115   3.410   8.794   2.206 -1.2042 -1.0366  0.5036
 4671SOL     OW24116   1.032   4.358   1.001 -0.4335 -0.3515  0.0857
 4671SOL    HW124117   1.070   4.409   0.924 -1.4653 -1.5742 -1.2479
 4671SOL    HW224118   1.106   4.324   1.059  0.4084 -0.9172 -1.3124
 4672SOL     OW24119   1.842   4.459   0.877 -0.2486 -0.3194 -0.4265
 4672SOL    HW124120   1.865   4.437   0.782  1.7223 -0.8493  0.1430
 4672SOL    HW224121   1.903   4.409   0.938 -0.3843  1.3300  1.0863
 4673SOL     OW24122   3.376   9.951   1.681 -0.6128 -0.2455  0.4212
 4673SOL    HW124123   3.398  10.015   1.607  0.1113 -0.8057  0.1521
 4673SOL    HW224124   3.333   9.869   1.643 -0.4454 -0.4377  0.6458
 4674SOL     OW24125   3.560   4.953   1.970  0.4785  0.2957 -0.2660
 4674SOL    HW124126   3.520   4.933   2.060  1.4774 -0.0261  0.1121
 4674SOL    HW224127   3.656   4.925   1.969  1.1419  2.4450 -0.6536
 4675SOL     OW24128   3.734   8.652   0.907  0.3184 -0.1448 -0.6992
 4675SOL    HW124129   3.787   8.713   0.849  1.3131  0.2374  0.5968
 4675SOL    HW224130   3.785   8.632   0.990 -0.7048 -1.4198 -0.3617
 4676SOL     OW24131   1.660   5.842   0.014 -0.2448  0.1573 -0.0468
 4676SOL    HW124132   1.719   5.771  -0.023 -0.6886 -1.6000  2.4620
 4676SOL    HW224133   1.688   5.931  -0.021  0.7647 -1.1373 -2.7105
 4677SOL     OW24134   4.348   1.176   1.217 -1.0484 -0.0943  1.0265
 4677SOL    HW124135   4.313   1.227   1.139  0.3308  0.0860  0.5099
 4677SOL    HW224136   4.346   1.078   1.197 -0.2776 -0.0220  0.5818
 4678SOL     OW24137   1.595   1.116   0.586 -0.6588  0.2264  0.0573
 4678SOL    HW124138   1.654   1.112   0.506 -1.9344  0.7509 -0.9299
 4678SOL    HW224139   1.650   1.128   0.668  0.7750 -1.8501 -0.5659
 4679SOL     OW24140   8.924   1.232   0.246  0.1246  0.1119 -0.3001
 4679SOL    HW124141   8.877   1.272   0.167 -2.2703  0.9020  1.4623
 4679SOL    HW224142   8.965   1.306   0.300 -0.1159 -0.2312  0.3511
 4680SOL     OW24143   4.111   4.984   2.050 -0.4279 -0.7553  0.8314
 4680SOL    HW124144   4.065   5.067   2.020 -0.3870 -0.2503  2.1498
 4680SOL    HW224145   4.101   4.913   1.980  1.0995  0.9084 -1.1094
 4681SOL     OW24146   9.260   4.695   2.144 -0.9133  0.1876 -0.1786
 4681SOL    HW124147   9.328   4.649   2.201 -1.2738  0.9967  0.9121
 4681SOL    HW224148   9.305   4.752   2.076 -0.4950  2.3617  1.8750
 4682SOL     OW24149   3.336   8.957   1.660 -0.3777  0.0511  0.0225
 4682SOL    HW124150   3.266   9.027   1.645  0.5875  1.2466  0.9740
 4682SOL    HW224151   3.354   8.949   1.758  0.2567 -0.7944 -0.1609
 4683SOL     OW24152   0.171   6.309   0.223  0.7353 -0.6586  0.2223
 4683SOL    HW124153   0.089   6.252   0.226  0.5487 -0.4189 -0.3243
 4683SOL    HW224154   0.215   6.299   0.133  0.2192  0.7498 -0.1850
 4684SOL     OW24155   8.037   9.923   0.122  0.6321 -0.6293 -0.5313
 4684SOL    HW124156   8.101   9.871   0.179 -0.0561 -0.0818  0.7647
 4684SOL    HW224157   8.033  10.018   0.155 -1.7188 -0.9292  0.1500
 4685SOL     OW24158   9.930   8.664   2.526  0.4253  0.5276  0.4420
 4685SOL    HW124159   9.921   8.634   2.621  2.2725 -2.0208 -0.1268
 4685SOL    HW224160  10.016   8.712   2.514  0.6304  0.0336 -0.1178
 4686SOL     OW24161   9.739   0.181   0.662 -0.2785  0.5183  0.2826
 4686SOL    HW124162   9.729   0.272   0.703  1.7017  1.6928 -1.7773
 4686SOL    HW224163   9.834   0.165   0.639 -0.9460 -1.2260 -1.3952
 4687SOL     OW24164   3.535   1.448   0.813  0.0330  0.2084  0.4382
 4687SOL    HW124165   3.474   1.521   0.843 -0.7908 -0.9762  1.7236
 4687SOL    HW224166   3.483   1.363   0.807  1.3970 -0.6593  0.8037
 4688SOL     OW24167   1.577   6.558   0.492  0.4242 -0.0549 -0.0829
 4688SOL    HW124168   1.676   6.543   0.500  0.4133  0.7721  1.9254
 4688SOL    HW224169   1.529   6.498   0.555 -0.0898  2.4971  2.0197
 4689SOL     OW24170   1.242   6.977   0.653 -0.2754 -0.3131  0.1236
 4689SOL    HW124171   1.266   7.069   0.622  0.5189 -0.9141 -1.0729
 4689SOL    HW224172   1.313   6.912   0.625 -0.9688 -1.3417  0.7046
 4690SOL     OW24173   9.011   4.337   1.765 -0.5473  0.1970  0.5421
 4690SOL    HW124174   8.984   4.375   1.853  0.5474  0.4424  0.7808
 4690SOL    HW224175   9.069   4.256   1.780 -1.3756 -0.5009  0.0405
 4691SOL     OW24176   8.851   2.396   0.917 -0.7603  0.6131 -0.2585
 4691SOL    HW124177   8.937   2.443   0.897 -0.7704  1.3513  1.3272
 4691SOL    HW224178   8.776   2.462   0.920 -1.3013  0.0467 -1.0869
 4692SOL     OW24179   9.583   5.176   0.252 -0.3188 -0.4893 -0.4026
 4692SOL    HW124180   9.496   5.198   0.207  0.0300  1.1066 -0.3283
 4692SOL    HW224181   9.641   5.124   0.190 -1.6952 -2.4042 -0.1288
  10.00000  10.00000   2.57859
