chitosan Film  in water:acetic acid 2%
10700
    1CHTO  H203    1   4.135   6.240   0.343 -0.1902  0.0442  0.2688
    1CHTO   O82    2   4.133   6.269   0.432 -0.5113  0.1793  0.2217
    1CHTO  C123    3   4.245   6.218   0.508  1.2866 -0.0416 -0.1661
    1CHTO  H227    4   4.235   6.249   0.613  0.5765  0.7630 -0.4710
    1CHTO   O77    5   4.256   6.074   0.496 -0.0705 -0.0801  0.2141
    1CHTO  C118    6   4.352   6.030   0.591  1.0789  0.1216  0.6840
    1CHTO  H222    7   4.344   6.074   0.691  0.0500 -1.4432  1.3117
    1CHTO  C125    8   4.329   5.872   0.596 -0.6482  0.1071  0.3707
    1CHTO   O84    9   4.200   5.844   0.650  0.2047  0.1519 -0.9185
    1CHTO  H205   10   4.207   5.756   0.682 -0.5940 -0.0984 -1.4221
    1CHTO  C114   11   4.493   6.063   0.539  0.5523 -0.0753 -0.5232
    1CHTO  H218   12   4.508   6.010   0.445 -0.1152 -0.4095 -0.4463
    1CHTO  C116   13   4.503   6.218   0.511  0.2362 -0.6165  0.3007
    1CHTO  H220   14   4.534   6.271   0.603  0.5852 -0.5603  0.1534
    1CHTO   O79   15   4.612   6.249   0.420  0.9348  0.1704 -0.1162
    1CHTO  H201   16   4.685   6.271   0.475 -0.0880 -0.1805  1.3968
    1CHTO  C120   17   4.376   6.280   0.444  0.3757 -0.2865 -0.3087
    1CHTO  H224   18   4.379   6.255   0.336 -0.4527  1.0679 -0.6590
    1CHTO   N21   19   4.375   6.434   0.463 -0.0963  0.7716  0.1061
    1CHTO  H211   20   4.318   6.488   0.389 -0.7695  0.0186  0.0603
    1CHTO  H212   21   4.463   6.479   0.505 -0.6639  0.9890  1.0822
    1CHTO   O75   22   4.579   6.026   0.645 -0.0702  0.2032  0.4001
    1CHTO  C112   23   4.720   5.998   0.592 -0.3999 -0.8831 -0.0567
    1CHTO  H216   24   4.742   6.051   0.498  4.0615 -0.5362  1.0421
    1CHTO   O73   25   4.735   5.857   0.577  0.2450  0.5432 -0.3131
    1CHTO  C113   26   4.858   5.806   0.522 -0.1924  0.3931  0.1468
    1CHTO  H217   27   4.881   5.846   0.421 -0.6155 -0.3546 -0.2502
    1CHTO  C124   28   4.838   5.654   0.500 -0.2266 -0.0071 -0.2698
    1CHTO   O83   29   4.958   5.608   0.444 -0.1389  0.2284 -0.2034
    1CHTO  H204   30   4.971   5.517   0.464  0.8756 -0.1083 -2.2552
    1CHTO  C109   31   4.973   5.852   0.617 -0.4945 -0.0966 -0.3693
    1CHTO  H213   32   4.973   5.785   0.704  0.3043 -0.6138 -0.7604
    1CHTO  C110   33   4.968   6.000   0.656  0.6365 -0.8266 -0.2094
    1CHTO  H214   34   4.996   6.056   0.566 -0.3902  0.0384 -0.0024
    1CHTO   O78   35   5.065   6.024   0.755 -0.0529 -0.0410  0.5123
    1CHTO  H200   36   5.046   6.099   0.809  0.7218  1.0632 -0.7294
    1CHTO  C111   37   4.826   6.043   0.696 -0.2951 -0.0276  0.2164
    1CHTO  H215   38   4.804   5.987   0.788 -1.7499 -0.6879 -0.5182
    1CHTO   N19   39   4.814   6.188   0.728 -0.5574  0.3712 -0.4610
    1CHTO  H207   40   4.708   6.212   0.730 -0.7890 -0.3691 -2.7576
    1CHTO  H208   41   4.867   6.205   0.820 -2.5505 -1.4850  1.0940
    1CHTO   O74   42   5.112   5.825   0.555  0.4702  0.5032 -0.5198
    1CHTO  C115   43   5.223   5.778   0.661  0.3080 -0.0477  0.7566
    1CHTO  H219   44   5.194   5.800   0.763 -1.1054 -1.6374  0.7095
    1CHTO   O76   45   5.240   5.619   0.653 -0.5454  0.3989 -0.0966
    1CHTO  C122   46   5.291   5.568   0.528  0.0311  0.6704 -0.0625
    1CHTO  H226   47   5.213   5.573   0.452 -0.7202 -0.5460  0.6179
    1CHTO  C126   48   5.317   5.413   0.547 -0.4599 -0.2647 -0.0597
    1CHTO   O85   49   5.367   5.355   0.427 -0.2593 -0.2440 -0.4158
    1CHTO  H206   50   5.434   5.406   0.387 -0.9505 -0.4735 -1.8961
    1CHTO  C121   51   5.413   5.650   0.477 -0.6433 -0.2727 -0.1235
    1CHTO  H225   52   5.495   5.578   0.456  1.5265  1.3153  2.5353
    1CHTO   O81   53   5.387   5.725   0.359 -0.5462 -0.1745 -0.0382
    1CHTO  H202   54   5.369   5.671   0.285  1.9382  1.4061 -1.8833
    1CHTO  C119   55   5.472   5.750   0.583 -0.1316  1.3414 -0.0148
    1CHTO  H223   56   5.489   5.685   0.669 -2.6293 -1.4295 -1.5575
    1CHTO  C117   57   5.363   5.853   0.626  0.0506 -0.2478 -0.0879
    1CHTO  H221   58   5.346   5.934   0.555 -0.9753 -0.0634  0.3538
    1CHTO   N20   59   5.407   5.934   0.751  0.2244 -0.0502 -0.1822
    1CHTO  H209   60   5.493   5.994   0.726  0.1663  0.1288  0.0437
    1CHTO  H210   61   5.439   5.873   0.835  0.4826  1.6222  0.9659
    1CHTO   O80   62   5.605   5.792   0.559  0.3867  0.6445 -0.3445
    1CHTO  C103   63   5.721   5.721   0.610 -0.2174 -0.3014 -0.6447
    1CHTO  H190   64   5.738   5.732   0.717 -1.9447 -2.6117 -0.0806
    1CHTO  C101   65   5.724   5.568   0.582 -0.8249 -0.1048 -0.0276
    1CHTO  H188   66   5.699   5.534   0.482 -0.4672  1.9832 -0.8495
    1CHTO   O68   67   5.636   5.493   0.671 -0.4505  0.3437  0.1656
    1CHTO  H168   68   5.645   5.515   0.762 -2.1429 -1.7794  0.9104
    1CHTO   C99   69   5.879   5.517   0.618  0.5692 -0.3197  1.1211
    1CHTO  H186   70   5.895   5.549   0.723 -1.0871 -0.7777  1.5190
    1CHTO   N17   71   5.893   5.372   0.585 -0.4019  0.4246  0.4739
    1CHTO  H174   72   5.853   5.346   0.489  2.2366  2.6057 -1.2798
    1CHTO  H175   73   5.993   5.332   0.603 -1.3765 -2.4274 -0.1201
    1CHTO   C97   74   5.986   5.604   0.537 -0.0477 -0.5840  0.3944
    1CHTO  H184   75   5.963   5.584   0.431 -1.5800  1.5558  0.2968
    1CHTO   O64   76   5.967   5.748   0.569 -0.1666 -0.1243  0.6353
    1CHTO  C104   77   5.838   5.798   0.537  0.0065  0.3053  0.0036
    1CHTO  H191   78   5.816   5.802   0.430 -4.1495  0.6885  0.8094
    1CHTO  C108   79   5.851   5.948   0.576 -0.2823  0.1292 -0.5978
    1CHTO   O71   80   5.769   6.046   0.508  0.7096 -0.3204 -0.4485
    1CHTO  H171   81   5.680   6.048   0.540  0.6000 -0.6453 -0.7319
    1CHTO   O62   82   6.117   5.570   0.571 -0.0037 -0.3888 -0.5147
    1CHTO   C91   83   6.219   5.607   0.477  0.3240  0.6760 -0.3688
    1CHTO  H178   84   6.176   5.686   0.415  1.6605  0.0813 -2.1002
    1CHTO   C92   85   6.250   5.491   0.378  0.2641 -0.8470  0.2562
    1CHTO  H179   86   6.268   5.404   0.443 -1.3579 -0.4224  1.2838
    1CHTO   O66   87   6.134   5.467   0.297 -0.2960  0.1456 -0.0066
    1CHTO  H166   88   6.064   5.446   0.355 -0.5053 -0.2256 -0.3906
    1CHTO   C93   89   6.373   5.521   0.282 -0.4607 -0.5681 -0.1967
    1CHTO  H180   90   6.332   5.595   0.211 -2.5567  0.1244  1.6808
    1CHTO   N16   91   6.415   5.410   0.191  0.4090  0.4461 -0.3248
    1CHTO  H172   92   6.466   5.427   0.097 -0.5077  0.6851 -0.7782
    1CHTO  H173   93   6.475   5.344   0.253  1.2113 -2.0903 -3.6378
    1CHTO   C94   94   6.489   5.581   0.362  0.3798  0.2143  0.5215
    1CHTO  H181   95   6.526   5.511   0.437  1.5974 -0.5392 -0.7480
    1CHTO   O61   96   6.456   5.700   0.435  0.5831 -0.4992  0.3579
    1CHTO   C95   97   6.354   5.668   0.539  0.1753  0.2034 -0.1151
    1CHTO  H182   98   6.401   5.611   0.619 -1.0780 -0.2182  0.3403
    1CHTO  C106   99   6.319   5.801   0.606  0.0309  0.1869  0.7043
    1CHTO   O69  100   6.425   5.849   0.693  0.8654 -0.6372  0.0002
    1CHTO  H169  101   6.491   5.883   0.636 -0.7965 -0.3327 -1.8220
    1CHTO   O63  102   6.603   5.616   0.255 -0.9620  0.3647  0.3958
    1CHTO   C96  103   6.731   5.669   0.305 -0.2229 -0.1317 -0.5015
    1CHTO  H183  104   6.733   5.778   0.296 -0.9499  0.2362  2.9267
    1CHTO   C98  105   6.851   5.622   0.204 -0.2095  0.3965  0.4266
    1CHTO  H185  106   6.831   5.642   0.097  0.5366  0.7693  0.3580
    1CHTO   O67  107   6.962   5.706   0.236  0.1769 -0.1887  0.4103
    1CHTO  H167  108   7.006   5.725   0.155 -0.2208 -0.6018  0.0957
    1CHTO  C102  109   6.884   5.469   0.208 -0.8452  0.1566 -0.6706
    1CHTO  H189  110   6.990   5.463   0.178 -0.8350  3.0552 -1.3626
    1CHTO   N18  111   6.814   5.381   0.117  0.1027  0.0993 -0.0821
    1CHTO  H176  112   6.854   5.382   0.016  0.1082 -0.3070 -0.0827
    1CHTO  H177  113   6.817   5.278   0.148  2.9605 -0.4698 -2.0050
    1CHTO  C105  114   6.871   5.425   0.354  0.3044  0.1636  0.1203
    1CHTO  H192  115   6.769   5.392   0.372  0.9621 -0.8027  2.2592
    1CHTO   O65  116   6.886   5.521   0.457  0.2905 -0.2239 -0.4220
    1CHTO  C100  117   6.784   5.622   0.458  0.1876 -0.4167  0.3616
    1CHTO  H187  118   6.699   5.589   0.520  0.4298  0.9849  1.4523
    1CHTO  C107  119   6.825   5.753   0.532  0.4273  0.5662  0.0641
    1CHTO   O70  120   6.874   5.728   0.664  0.5461  0.7271  0.2992
    1CHTO  H170  121   6.957   5.684   0.669  0.2938 -0.2729 -3.1125
    1CHTO   O57  122   6.986   5.311   0.382 -0.0948 -0.5118  0.0739
    1CHTO   C85  123   6.954   5.187   0.437 -0.3770 -0.3719  0.2077
    1CHTO  H157  124   6.868   5.152   0.376 -0.0525 -2.3826  0.8576
    1CHTO   C83  125   6.906   5.202   0.578  0.7305  0.5542 -0.5189
    1CHTO  H155  126   6.816   5.264   0.576  0.9004  0.9124  1.8133
    1CHTO   O56  127   6.995   5.284   0.652 -0.8981 -0.5691  0.4162
    1CHTO  H135  128   6.953   5.322   0.727 -2.2826 -0.9500 -0.1523
    1CHTO   C81  129   6.874   5.059   0.644  0.0541 -0.2933  0.4284
    1CHTO  H153  130   6.804   5.009   0.578 -0.0723 -1.3230  1.3297
    1CHTO   N14  131   6.798   5.086   0.770 -0.2220  0.0851 -0.4885
    1CHTO  H141  132   6.778   4.996   0.823 -1.7848  1.0428  0.6124
    1CHTO  H142  133   6.841   5.158   0.838  3.7443 -0.9464 -1.7977
    1CHTO   C79  134   7.012   4.980   0.642 -0.1190  0.2336  0.0304
    1CHTO  H151  135   6.994   4.876   0.671  0.5530  0.6560  1.9737
    1CHTO   O52  136   7.063   4.962   0.508 -0.2378  0.4563  0.1418
    1CHTO   C86  137   7.075   5.084   0.435  0.4569 -0.7779 -0.5073
    1CHTO  H158  138   7.169   5.127   0.475  0.3287 -0.7195 -0.2708
    1CHTO   C90  139   7.107   5.051   0.287 -0.7749  0.3933 -0.1087
    1CHTO   O60  140   7.235   4.992   0.273  0.1562 -0.0891  0.6430
    1CHTO  H138  141   7.234   4.956   0.186 -2.5475 -0.7360  0.9033
    1CHTO   O50  142   7.109   5.030   0.735 -0.2550 -0.1980 -0.4064
    1CHTO   C73  143   7.184   4.938   0.811 -0.3479 -0.4737 -0.0593
    1CHTO  H145  144   7.210   4.844   0.760 -0.9401 -1.9136  2.1736
    1CHTO   C74  145   7.107   4.895   0.936 -0.6595  0.2687  0.2337
    1CHTO  H146  146   7.019   4.843   0.895  0.2884 -0.0666 -1.4291
    1CHTO   O54  147   7.194   4.789   1.001  0.8603  0.4138  0.2338
    1CHTO  H133  148   7.271   4.822   1.045  0.8856  2.1219 -1.0305
    1CHTO   C75  149   7.062   5.021   1.023  0.4505 -0.0651 -0.0861
    1CHTO  H147  150   6.996   5.084   0.962  1.5106  0.3526 -0.8248
    1CHTO   N13  151   6.973   4.978   1.135  0.0354 -0.1758  0.3662
    1CHTO  H139  152   6.962   5.045   1.219  0.7171  1.0702 -0.5200
    1CHTO  H140  153   6.873   4.972   1.095  0.6972 -1.1622 -1.1747
    1CHTO   C76  154   7.193   5.102   1.067 -0.1041  0.2774  0.0431
    1CHTO  H148  155   7.243   5.036   1.138  1.3215  0.8765 -0.3851
    1CHTO   O49  156   7.286   5.125   0.947  0.1014 -0.1223  0.1408
    1CHTO   C77  157   7.319   5.007   0.859  0.0728 -0.0818 -0.1605
    1CHTO  H149  158   7.381   4.932   0.908 -0.5621  0.2630  1.2115
    1CHTO   C88  159   7.402   5.052   0.736 -0.4117  0.2191 -0.0638
    1CHTO   O58  160   7.328   5.195   0.668 -0.2588  0.0699 -0.3785
    1CHTO  H136  161   7.383   5.269   0.684  0.9024 -0.9410  0.3989
    1CHTO   O51  162   7.160   5.255   1.117  0.3845 -0.0447 -0.6492
    1CHTO   C78  163   7.100   5.364   1.013  0.5472  0.0893  0.1744
    1CHTO  H150  164   7.086   5.321   0.912 -0.5769  1.8898 -0.4645
    1CHTO   C80  165   7.208   5.473   1.009  0.1276  0.1508  0.4815
    1CHTO  H152  166   7.244   5.487   1.113  0.5100 -0.3435  0.4209
    1CHTO   O55  167   7.333   5.422   0.951  0.6208 -0.4787 -0.8273
    1CHTO  H134  168   7.366   5.490   0.895  2.0329 -0.1812  0.3495
    1CHTO   C84  169   7.154   5.601   0.939  1.1817 -0.3914 -0.5048
    1CHTO  H156  170   7.133   5.581   0.834 -2.8076 -1.7588  0.4635
    1CHTO   N15  171   7.247   5.715   0.946  0.0810  0.6711 -0.1833
    1CHTO  H143  172   7.289   5.744   0.852  0.6815 -0.4380 -0.2712
    1CHTO  H144  173   7.215   5.801   1.001 -1.0671  0.1659 -0.0457
    1CHTO   C87  174   7.022   5.648   1.011  0.3896 -0.1622 -0.3441
    1CHTO  H159  175   7.052   5.671   1.114  1.5825 -2.9414 -0.0100
    1CHTO   O53  176   6.925   5.539   1.012 -0.5321 -0.6278  0.7556
    1CHTO   C82  177   6.969   5.421   1.077  0.0793  0.4862 -0.0131
    1CHTO  H154  178   6.980   5.436   1.184  0.3300 -1.2432  0.2274
    1CHTO   C89  179   6.854   5.317   1.058 -0.6966 -0.4508  0.1673
    1CHTO   O59  180   6.729   5.341   1.120 -0.3673 -0.1054  0.2949
    1CHTO  H137  181   6.753   5.360   1.208  0.9518 -1.5111  0.2607
    1CHTO   O45  182   6.953   5.770   0.931 -0.1967 -0.4722  0.1949
    1CHTO   C67  183   6.867   5.860   1.004 -0.1638  0.3428  0.6991
    1CHTO  H124  184   6.865   5.950   0.943  1.7145  1.3324  2.0430
    1CHTO   C65  185   6.724   5.798   1.008  0.9820 -0.5959  0.5213
    1CHTO  H122  186   6.746   5.693   1.024  1.8003 -0.4436  0.4018
    1CHTO   O44  187   6.674   5.814   0.874 -0.2804 -0.0412 -0.4723
    1CHTO  H102  188   6.607   5.879   0.877 -0.2079  0.0225 -0.2306
    1CHTO   C63  189   6.640   5.849   1.137  0.8341 -0.1049  0.4099
    1CHTO  H120  190   6.678   5.785   1.217  2.7688  0.4289 -0.0611
    1CHTO   N11  191   6.495   5.813   1.138 -0.4309 -0.4166 -0.5802
    1CHTO  H108  192   6.494   5.714   1.179 -0.0885 -0.0739  0.2671
    1CHTO  H109  193   6.442   5.888   1.192  1.0424  0.3741 -0.2010
    1CHTO   C61  194   6.686   5.999   1.167 -0.0495 -0.5102  0.5344
    1CHTO  H118  195   6.627   6.033   1.254  0.8543  2.6680 -0.0257
    1CHTO   O40  196   6.824   5.999   1.215  0.0693 -0.2549 -0.3632
    1CHTO   C68  197   6.919   5.911   1.151  0.5380 -0.2703 -0.3678
    1CHTO  H125  198   6.928   5.822   1.217 -0.9791 -0.3086 -0.1801
    1CHTO   C72  199   7.053   5.988   1.157 -0.2372 -0.1296  0.6851
    1CHTO   O48  200   7.125   5.998   1.282  0.0442 -0.0369  0.3512
    1CHTO  H105  201   7.207   6.042   1.270  0.8400 -1.6310 -0.2427
    1CHTO   O38  202   6.673   6.082   1.055 -0.3192 -0.3505  0.8269
    1CHTO   C55  203   6.618   6.207   1.065 -0.0680 -0.5179  0.4623
    1CHTO  H112  204   6.604   6.234   1.171  0.9513  0.9831  0.2263
    1CHTO   C56  205   6.485   6.227   0.971  0.6487  0.1532 -0.7537
    1CHTO  H113  206   6.518   6.196   0.871  0.0672 -2.7308 -0.1293
    1CHTO   O42  207   6.380   6.132   1.011 -0.3619  0.2651  0.1234
    1CHTO  H100  208   6.347   6.143   1.098 -0.2210 -0.6571  0.3009
    1CHTO   C57  209   6.429   6.374   0.969  0.5502 -0.7794  0.3829
    1CHTO  H114  210   6.364   6.383   1.057 -1.1050 -1.1648 -0.7766
    1CHTO   N10  211   6.330   6.402   0.863 -0.1039 -0.3244  0.3090
    1CHTO  H106  212   6.378   6.437   0.773 -0.4103 -0.4257  0.1061
    1CHTO  H107  213   6.279   6.310   0.840  1.1120 -0.9556  0.1142
    1CHTO   C58  214   6.541   6.478   0.969  0.3902 -0.1775 -0.4556
    1CHTO  H115  215   6.581   6.489   0.867  0.6807  2.3765 -0.1052
    1CHTO   O37  216   6.656   6.445   1.050 -0.2686 -0.0930 -0.2026
    1CHTO   C59  217   6.717   6.319   1.025 -0.8948 -0.1324  0.3159
    1CHTO  H116  218   6.753   6.313   0.922 -0.3669  1.1451  0.4166
    1CHTO   C70  219   6.839   6.319   1.122 -0.4055  0.2916  0.3193
    1CHTO   O46  220   6.815   6.321   1.262 -0.1487 -0.0810  0.1013
    1CHTO  H103  221   6.881   6.365   1.313 -1.4040  0.6412  1.1439
    1CHTO   O39  222   6.488   6.619   1.008  0.0201 -0.1631 -0.4603
    1CHTO   C60  223   6.581   6.728   0.984  0.5522 -0.3490 -0.1659
    1CHTO  H117  224   6.681   6.687   0.998  0.3984 -1.3627 -1.9424
    1CHTO   C62  225   6.585   6.778   0.830 -0.4153  0.6092 -0.6573
    1CHTO  H119  226   6.620   6.692   0.770  0.5184  0.5006  0.0270
    1CHTO   O43  227   6.456   6.820   0.799 -0.0841 -0.8015 -0.2376
    1CHTO  H101  228   6.390   6.765   0.836  0.6335 -2.1181 -0.8998
    1CHTO   C66  229   6.701   6.894   0.838  0.1105  0.6915  0.0152
    1CHTO  H123  230   6.793   6.851   0.879  1.9504  2.8002 -1.7889
    1CHTO   N12  231   6.739   6.954   0.705  0.3062 -0.1731 -0.1057
    1CHTO  H110  232   6.820   7.022   0.725  1.0792 -1.8741  2.8342
    1CHTO  H111  233   6.654   7.004   0.662  1.6225 -0.3479 -3.0801
    1CHTO   C69  234   6.666   7.002   0.941 -0.2946 -0.4584  0.6459
    1CHTO  H126  235   6.569   7.038   0.900  0.5251 -0.1558 -1.0959
    1CHTO   O41  236   6.663   6.963   1.057  0.2379 -0.1668  0.8646
    1CHTO   C64  237   6.561   6.851   1.087 -0.2232  0.2837 -0.8356
    1CHTO  H121  238   6.457   6.889   1.084 -1.0658 -1.9135 -0.9673
    1CHTO   C71  239   6.596   6.787   1.221 -0.0966 -0.0460  0.2411
    1CHTO   O47  240   6.571   6.872   1.328  0.1461 -0.1171  0.1338
    1CHTO  H104  241   6.558   6.823   1.408 -1.1373  1.0355  0.6440
    1CHTO   O34  242   6.776   7.136   0.925  0.7379  0.0185  0.5779
    1CHTO   C49  243   6.908   7.219   0.974 -0.2119  0.5746 -0.3099
    1CHTO   H91  244   6.912   7.301   0.903  2.9241 -0.7832 -1.7921
    1CHTO   C47  245   7.029   7.123   0.938  0.5842  0.1869  0.1828
    1CHTO   H89  246   7.037   7.117   0.827  0.4630  0.2578  0.1702
    1CHTO   O33  247   7.002   6.992   0.987 -0.0915 -0.2050 -0.0834
    1CHTO   H70  248   7.073   6.935   0.966 -0.4377  0.2616 -2.6786
    1CHTO   C45  249   7.166   7.167   1.007  0.1625  0.2391 -0.3762
    1CHTO   H87  250   7.176   7.101   1.095 -0.5236 -1.4964 -1.5828
    1CHTO    N8  251   7.281   7.148   0.921 -0.6242  0.4299  0.4560
    1CHTO   H75  252   7.365   7.205   0.959 -0.6278  1.2905 -0.8098
    1CHTO   H76  253   7.310   7.048   0.892 -2.7231  0.0557 -0.4118
    1CHTO   C43  254   7.147   7.308   1.081  0.3977 -0.1028 -0.2251
    1CHTO   H85  255   7.242   7.317   1.134  0.1225  0.3088  0.1940
    1CHTO   O29  256   7.028   7.315   1.167 -1.0489 -0.5945  0.7257
    1CHTO   C50  257   6.910   7.256   1.118  0.2315 -0.3325 -0.4861
    1CHTO   H92  258   6.897   7.157   1.164  1.0596 -0.1733  0.0953
    1CHTO   C54  259   6.775   7.339   1.161  0.1384  0.7256 -0.2397
    1CHTO   O36  260   6.757   7.341   1.301 -0.2658  0.5081  0.0317
    1CHTO   H72  261   6.753   7.255   1.337 -1.1377  0.2704 -0.6307
    1CHTO   O27  262   7.139   7.410   0.986 -0.2137  0.0110  0.3021
    1CHTO   C37  263   7.166   7.545   0.941 -0.3368  0.0741 -0.6752
    1CHTO   H79  264   7.152   7.615   1.025  0.8405 -0.2524 -0.1985
    1CHTO   C38  265   7.318   7.544   0.886  0.0659  0.0721  0.3274
    1CHTO   H80  266   7.331   7.465   0.811  1.7747  2.3178 -1.8185
    1CHTO   O31  267   7.397   7.527   1.002  0.5457 -0.4188 -0.3100
    1CHTO   H68  268   7.407   7.611   1.042 -0.5579 -0.6995  0.5886
    1CHTO   C39  269   7.343   7.675   0.801 -0.3167 -0.5522 -0.4079
    1CHTO   H81  270   7.326   7.766   0.859  3.5862  0.0302 -0.0716
    1CHTO    N7  271   7.481   7.676   0.743  0.1915 -0.1979 -0.2070
    1CHTO   H73  272   7.486   7.745   0.661 -0.3661  0.6556  0.4620
    1CHTO   H74  273   7.560   7.708   0.809  0.4992  0.5334 -0.9257
    1CHTO   C40  274   7.235   7.687   0.693 -0.0168 -0.1143  0.3021
    1CHTO   H82  275   7.241   7.598   0.630 -2.5357 -2.4976  3.3032
    1CHTO   O26  276   7.106   7.696   0.761 -0.2997 -0.0126  0.2324
    1CHTO   C41  277   7.067   7.569   0.823 -0.1256 -0.5903  0.6145
    1CHTO   H83  278   7.069   7.490   0.747 -0.2336 -0.8233  0.8569
    1CHTO   C52  279   6.921   7.593   0.867 -0.1811  0.0412 -0.0205
    1CHTO   O35  280   6.838   7.620   0.761 -0.1317 -1.1621  0.5001
    1CHTO   H71  281   6.753   7.649   0.787 -0.1076  0.0447 -0.7056
    1CHTO   O28  282   7.234   7.811   0.631 -0.5346 -0.0310 -0.4242
    1CHTO   C42  283   7.173   7.831   0.504  0.1427  0.2703 -0.3982
    1CHTO   H84  284   7.104   7.746   0.499  0.2755 -0.0834  2.7922
    1CHTO   C44  285   7.274   7.826   0.383 -0.1497 -0.0994 -0.1718
    1CHTO   H86  286   7.328   7.920   0.382 -1.3258  0.5885 -0.7829
    1CHTO   O32  287   7.357   7.710   0.393 -0.3067 -0.2903  0.7621
    1CHTO   H69  288   7.424   7.713   0.328 -1.6999 -3.3073 -0.9269
    1CHTO   C48  289   7.193   7.823   0.242 -0.0778  0.7551  0.1032
    1CHTO   H90  290   7.156   7.721   0.231 -1.5490  1.1980  0.8084
    1CHTO    N9  291   7.281   7.854   0.124 -0.3056 -0.7231  0.0374
    1CHTO   H77  292   7.266   7.958   0.097 -1.5072 -0.2471  2.3637
    1CHTO   H78  293   7.240   7.790   0.047 -3.6480 -0.5512  1.5948
    1CHTO   C51  294   7.069   7.920   0.247 -0.7537  0.0456  0.0253
    1CHTO   H93  295   7.100   8.021   0.221  0.3248 -0.1366  0.5964
    1CHTO   O30  296   6.993   7.915   0.371  0.8715  0.4146  0.1662
    1CHTO   C46  297   7.087   7.955   0.480  0.8288  0.5444 -0.3965
    1CHTO   H88  298   7.146   8.043   0.453 -1.4275  1.1058 -3.9089
    1CHTO   C53  299   7.002   7.981   0.608  0.5176  0.2083  0.6865
    1CHTO   O72  300   6.890   7.892   0.621  0.4323 -0.4164  0.2475
    1CHTO  H199  301   6.817   7.945   0.599  0.8235  0.0126 -0.0287
    1CHTO   O22  302   6.970   7.876   0.153 -0.4171 -0.5884 -0.6380
    1CHTO   C31  303   6.893   7.938   0.052 -0.6039 -0.4382  0.5138
    1CHTO   H59  304   6.857   8.036   0.088 -0.7901 -0.0352 -0.7618
    1CHTO   C29  305   6.972   7.969  -0.074  0.2711  0.0245  0.1581
    1CHTO   H57  306   7.029   7.884  -0.114  0.9174  0.9092 -0.8127
    1CHTO   O21  307   7.081   8.062  -0.047  0.6932  0.4824  0.2418
    1CHTO   H37  308   7.137   8.068  -0.122  1.6993  1.0298  1.0174
    1CHTO   C27  309   6.883   8.035  -0.192 -0.3979  0.3431 -0.6198
    1CHTO   H55  310   6.833   8.127  -0.157 -2.5728 -1.2246  0.4367
    1CHTO    N5  311   6.956   8.067  -0.322  0.4596 -0.2211 -0.4745
    1CHTO   H43  312   6.942   8.170  -0.353  1.5466  0.5591  1.4802
    1CHTO   H44  313   7.062   8.055  -0.305  0.6282 -1.4704 -2.2489
    1CHTO   C25  314   6.769   7.930  -0.209  0.0024  0.2362  0.3299
    1CHTO   H53  315   6.813   7.834  -0.237 -0.9343 -0.4298  1.1221
    1CHTO   O17  316   6.696   7.916  -0.083  0.0315  0.0962 -0.3095
    1CHTO   C32  317   6.773   7.852   0.019  0.5227  0.4148  0.2755
    1CHTO   H60  318   6.810   7.761  -0.027  0.4073  0.8168 -0.6258
    1CHTO   C36  319   6.681   7.815   0.142  0.5561  0.0437  0.0689
    1CHTO   O25  320   6.572   7.728   0.102 -0.7052 -0.8208  0.0211
    1CHTO   H40  321   6.611   7.644   0.083  2.4850  0.2691  1.3265
    1CHTO   O15  322   6.668   7.986  -0.318 -0.3107 -0.3174  0.1110
    1CHTO   C19  323   6.573   7.904  -0.388  0.1640  0.6074 -0.5312
    1CHTO   H47  324   6.530   7.969  -0.466  1.3097 -1.2928 -2.8100
    1CHTO   C20  325   6.639   7.781  -0.459  0.0983  0.1063  0.1733
    1CHTO   H48  326   6.695   7.721  -0.385 -0.5083  0.2938  0.7841
    1CHTO   O19  327   6.730   7.818  -0.563  0.2595 -0.0108  0.0296
    1CHTO   H35  328   6.803   7.857  -0.519 -0.4308  1.5129 -0.1452
    1CHTO   C21  329   6.528   7.687  -0.522 -0.3845 -0.4813  0.7409
    1CHTO   H49  330   6.491   7.737  -0.611 -2.3196  0.4885  2.0659
    1CHTO    N4  331   6.584   7.562  -0.589  0.1144  0.8094  0.0672
    1CHTO   H41  332   6.670   7.596  -0.646 -1.2200 -0.0371 -2.5200
    1CHTO   H42  333   6.514   7.526  -0.662 -0.0872  0.0013  0.6450
    1CHTO   C22  334   6.418   7.657  -0.418 -0.0277  0.0010 -0.0562
    1CHTO   H50  335   6.454   7.603  -0.330 -1.0301 -0.1413  0.2648
    1CHTO   O14  336   6.362   7.783  -0.382 -0.0064 -0.2290 -0.2099
    1CHTO   C23  337   6.450   7.857  -0.299  0.0930  0.2139  0.5267
    1CHTO   H51  338   6.481   7.793  -0.214  0.3987 -0.4838 -0.1055
    1CHTO   C34  339   6.370   7.973  -0.243  0.3363 -0.2424 -0.6616
    1CHTO   O23  340   6.272   7.918  -0.153 -0.0182 -0.0727  0.8634
    1CHTO   H38  341   6.321   7.880  -0.082  1.9219 -0.2577 -0.5239
    1CHTO   O16  342   6.303   7.589  -0.466 -0.4375  0.2394 -0.1020
    1CHTO   C24  343   6.303   7.426  -0.447  0.1252 -0.0270  0.4220
    1CHTO   H52  344   6.402   7.382  -0.429 -1.7233 -3.9735  1.4517
    1CHTO   C26  345   6.257   7.364  -0.578 -0.2255 -0.3235  0.2901
    1CHTO   H54  346   6.159   7.410  -0.602 -0.9758 -1.5513  0.9395
    1CHTO   O20  347   6.334   7.393  -0.698  0.1190  0.7811 -0.0015
    1CHTO   H36  348   6.329   7.482  -0.725 -0.0929  0.7710 -0.0009
    1CHTO   C30  349   6.227   7.208  -0.571 -1.0594 -0.0564  0.1754
    1CHTO   H58  350   6.322   7.153  -0.578 -0.2032  1.4531 -0.3926
    1CHTO    N6  351   6.143   7.157  -0.678 -0.4707  0.3013 -0.0104
    1CHTO   H45  352   6.133   7.050  -0.667  0.5597  0.1427 -0.5580
    1CHTO   H46  353   6.048   7.208  -0.672 -0.3994  0.2478  2.0155
    1CHTO   C33  354   6.178   7.167  -0.432  0.2191 -0.0249 -0.3207
    1CHTO   H61  355   6.070   7.184  -0.421  0.1690 -0.7217  0.2969
    1CHTO   O18  356   6.244   7.243  -0.324  0.1618  0.0682  1.0555
    1CHTO   C28  357   6.220   7.382  -0.329 -0.3697 -0.0251  0.0888
    1CHTO   H56  358   6.118   7.412  -0.356  0.7283  0.0913 -4.2556
    1CHTO   C35  359   6.262   7.446  -0.191  0.2017 -0.5014  0.3689
    1CHTO   O24  360   6.218   7.578  -0.188 -0.4441 -0.0309 -0.4666
    1CHTO   H39  361   6.292   7.635  -0.187 -0.3321 -0.1753  0.6921
    1CHTO    O9  362   6.195   7.028  -0.403  0.1276  0.2241  0.8847
    1CHTO   C13  363   6.182   6.990  -0.246  0.6931  0.2617  0.2591
    1CHTO   H26  364   6.117   7.067  -0.198 -0.7566 -0.1478 -1.0185
    1CHTO   C11  365   6.332   6.976  -0.184 -0.1462 -0.6910 -0.9524
    1CHTO   H24  366   6.372   7.078  -0.185 -1.7978  0.0124  0.8517
    1CHTO    O8  367   6.424   6.895  -0.259  0.5028 -0.3244 -0.3271
    1CHTO    H3  368   6.384   6.869  -0.340  1.7363  0.5805 -1.2545
    1CHTO    C9  369   6.314   6.934  -0.039  0.2476  0.5283  0.4548
    1CHTO   H22  370   6.245   7.007   0.006 -0.3884 -0.7255  1.5182
    1CHTO    N2  371   6.440   6.947   0.043  0.8332  0.3803  0.4947
    1CHTO   H10  372   6.481   7.047   0.047  0.2937  0.5773  1.1002
    1CHTO   H11  373   6.513   6.872   0.014 -0.5589 -2.0292  2.9242
    1CHTO    C7  374   6.238   6.792  -0.033  0.0883  0.7292 -0.5659
    1CHTO   H20  375   6.213   6.776   0.074  0.5942 -0.7976 -0.6746
    1CHTO    O4  376   6.118   6.793  -0.099  0.1277 -0.2909  0.1395
    1CHTO   C14  377   6.104   6.847  -0.229  0.0350 -0.0142 -0.6370
    1CHTO   H27  378   5.993   6.855  -0.223 -0.0735 -1.5589 -0.3900
    1CHTO   C18  379   6.133   6.736  -0.341 -0.2939 -0.0906 -0.4138
    1CHTO   O13  380   6.025   6.634  -0.333  0.0308  0.6871 -0.2097
    1CHTO    H7  381   6.053   6.570  -0.270  0.7974  1.1015 -0.1184
    1CHTO    O2  382   6.333   6.665  -0.096 -0.4501  0.5875 -0.3009
    1CHTO    C1  383   6.377   6.557  -0.019 -0.0052  0.4317  0.1617
    1CHTO   H14  384   6.316   6.549   0.074 -1.7186  0.2070 -0.9593
    1CHTO    C2  385   6.534   6.565   0.023 -0.0984  0.1410  0.5078
    1CHTO   H15  386   6.592   6.592  -0.067  1.1098 -0.8476  0.9774
    1CHTO    O6  387   6.551   6.669   0.122  0.3793 -0.0141  0.4074
    1CHTO    H1  388   6.518   6.748   0.084 -0.5865 -0.2880  0.6615
    1CHTO    C3  389   6.585   6.422   0.080  0.3422 -0.0648  0.4397
    1CHTO   H16  390   6.537   6.416   0.179  2.4370 -2.1908  1.4008
    1CHTO    N1  391   6.735   6.420   0.099 -0.6650  0.6337 -0.8696
    1CHTO    H8  392   6.787   6.347   0.039 -2.5154 -0.3463 -1.3082
    1CHTO    H9  393   6.796   6.509   0.090  1.5187 -0.5782  1.2826
    1CHTO    C4  394   6.530   6.298  -0.011  0.0162 -0.6127  0.0398
    1CHTO   H17  395   6.584   6.305  -0.106  1.1656 -3.0280  0.4577
    1CHTO    O1  396   6.390   6.301  -0.029  0.2255 -0.0739  0.8497
    1CHTO    C5  397   6.353   6.423  -0.095 -0.2148 -0.1227  0.4247
    1CHTO   H18  398   6.413   6.425  -0.187  0.5246 -3.6381  0.7538
    1CHTO   C16  399   6.204   6.399  -0.132  0.3997 -0.0404  0.1485
    1CHTO   O11  400   6.123   6.377  -0.018  0.3781  0.4316 -0.3494
    1CHTO    H5  401   6.127   6.461   0.025 -1.0572  0.2029  0.2355
    1CHTO    O3  402   6.559   6.174   0.051  0.1480 -0.4242 -0.4236
    1CHTO    C6  403   6.538   6.043  -0.022 -0.0904  0.3422  0.1534
    1CHTO   H19  404   6.475   6.048  -0.110 -0.4988  0.7211  0.4681
    1CHTO    C8  405   6.676   5.985  -0.068 -0.4064  0.1201 -0.1520
    1CHTO   H21  406   6.740   5.977   0.019 -2.0958 -0.9018  1.0236
    1CHTO    O7  407   6.736   6.085  -0.156  0.7508 -0.4054 -1.0985
    1CHTO    H2  408   6.684   6.144  -0.207  1.3613  0.1820 -1.0497
    1CHTO   C12  409   6.652   5.850  -0.139 -0.5603  0.1887  0.0659
    1CHTO   H25  410   6.590   5.872  -0.229 -3.0415 -0.5662  1.5453
    1CHTO    N3  411   6.786   5.795  -0.187 -0.1935 -0.2761 -0.0195
    1CHTO   H12  412   6.818   5.864  -0.264 -0.2734  0.0764  0.2607
    1CHTO   H13  413   6.785   5.697  -0.231 -3.5984 -2.0008  3.6137
    1CHTO   C15  414   6.572   5.757  -0.040  0.0378 -0.4357  0.3826
    1CHTO   H28  415   6.626   5.730   0.050  3.0316 -2.0661 -1.8146
    1CHTO   O10  416   6.523   5.626  -0.111 -0.4439  0.1500 -0.6499
    1CHTO    H4  417   6.555   5.616  -0.198 -0.3513  2.7438 -0.9668
    1CHTO    O5  418   6.453   5.821   0.015 -0.6885 -0.3493  0.3237
    1CHTO   C10  419   6.472   5.943   0.078  0.0728 -0.0135 -0.2947
    1CHTO   H23  420   6.540   5.936   0.162 -1.2593 -0.8453  0.7364
    1CHTO   C17  421   6.332   5.986   0.128 -0.6059 -0.1078 -0.3214
    1CHTO   O12  422   6.243   5.999   0.019 -0.1804 -0.5176  0.1910
    1CHTO    H6  423   6.284   6.033  -0.058 -0.0720 -4.2044 -1.5213
    2CHTO  H203  424   3.549   4.115   1.205 -0.7540 -2.6727  0.6851
    2CHTO   O82  425   3.635   4.111   1.167 -0.9437 -0.4645  0.0039
    2CHTO  C123  426   3.690   4.239   1.196  0.8238  0.4944 -0.9457
    2CHTO  H227  427   3.743   4.232   1.292  1.8289  1.6489 -1.3936
    2CHTO   O77  428   3.793   4.275   1.101  0.2067  0.0593  0.1624
    2CHTO  C118  429   3.860   4.406   1.116  0.1955  0.3365  0.0082
    2CHTO  H222  430   3.916   4.405   1.211  0.3090 -2.7326 -0.0334
    2CHTO  C125  431   3.958   4.424   0.994 -0.6175 -0.0063  0.0050
    2CHTO   O84  432   4.083   4.364   1.026 -0.0053  0.4996 -0.2091
    2CHTO  H205  433   4.138   4.354   0.950  0.8270  0.1339  0.4314
    2CHTO  C114  434   3.759   4.520   1.122  0.1630 -0.2114  0.1337
    2CHTO  H218  435   3.713   4.527   1.023  1.3825 -2.5912 -0.6359
    2CHTO  C116  436   3.656   4.497   1.228 -0.8244 -0.2891  0.7228
    2CHTO  H220  437   3.704   4.497   1.328 -0.0152  2.4170  0.3972
    2CHTO   O79  438   3.571   4.606   1.224  0.8914 -0.1005 -0.5347
    2CHTO  H201  439   3.617   4.686   1.209 -0.1500  0.3190 -1.6304
    2CHTO  C120  440   3.583   4.358   1.195 -0.1807 -0.8517 -0.4587
    2CHTO  H224  441   3.537   4.367   1.095 -2.0267  0.9722  0.5022
    2CHTO   N21  442   3.471   4.330   1.289 -0.2703  0.2230 -0.3474
    2CHTO  H211  443   3.420   4.421   1.318 -1.1783  0.2236 -1.8302
    2CHTO  H212  444   3.520   4.288   1.375  1.3510  1.4113 -0.6821
    2CHTO   O75  445   3.840   4.640   1.140  0.0270 -0.5329 -0.0437
    2CHTO  C112  446   3.801   4.784   1.098 -0.1173  0.7743 -0.2733
    2CHTO  H216  447   3.814   4.854   1.183  2.0918 -1.1584  1.0340
    2CHTO   O73  448   3.666   4.784   1.044 -0.2016  0.2088  0.1702
    2CHTO  C113  449   3.617   4.904   0.982  0.1905  0.8768  0.0168
    2CHTO  H217  450   3.615   4.978   1.064  0.2015  0.0954  0.7345
    2CHTO  C124  451   3.475   4.866   0.940  0.4005  0.0244  0.5256
    2CHTO   O83  452   3.392   4.970   0.882  0.0250 -0.0235  0.0308
    2CHTO  H204  453   3.331   4.929   0.823 -0.1293 -0.8294  0.7364
    2CHTO  C109  454   3.706   4.952   0.867  0.3565 -0.2631  0.4006
    2CHTO  H213  455   3.691   4.882   0.783  2.6987 -0.6137  0.2427
    2CHTO  C110  456   3.858   4.947   0.900  0.2351 -0.2373 -0.4327
    2CHTO  H214  457   3.880   5.039   0.954  1.3766  0.0846 -1.4130
    2CHTO   O78  458   3.930   4.951   0.779 -0.4619 -0.0792 -0.2174
    2CHTO  H200  459   4.021   4.957   0.800 -0.4408 -0.1873 -0.2780
    2CHTO  C111  460   3.899   4.831   0.985 -0.2615 -0.3037  0.2568
    2CHTO  H215  461   3.903   4.740   0.923  1.0699 -0.4995  0.6057
    2CHTO   N19  462   4.035   4.849   1.043  0.0270 -0.3396 -0.6669
    2CHTO  H207  463   4.037   4.938   1.103 -1.8219 -0.5465 -0.2767
    2CHTO  H208  464   4.105   4.858   0.961 -0.3448  0.8796 -0.8544
    2CHTO   O74  465   3.677   5.085   0.816  0.5397 -0.0156 -0.3286
    2CHTO  C115  466   3.709   5.123   0.655  1.2155 -0.0791 -0.0994
    2CHTO  H219  467   3.815   5.120   0.632  1.1897 -0.9938 -0.1333
    2CHTO   O76  468   3.646   5.014   0.549 -0.4269  0.6395 -0.5314
    2CHTO  C122  469   3.498   5.000   0.555 -0.1596  0.3301  0.3232
    2CHTO  H226  470   3.475   4.927   0.632  0.9671  0.7529  1.0873
    2CHTO  C126  471   3.440   4.939   0.424 -0.1543  0.5474 -0.3405
    2CHTO   O85  472   3.443   4.798   0.441  0.1561  0.0045 -0.1826
    2CHTO  H206  473   3.432   4.749   0.361  1.7347  1.5902 -1.4226
    2CHTO  C121  474   3.428   5.142   0.580  0.4867 -0.1674  0.8403
    2CHTO  H225  475   3.333   5.153   0.524 -0.3689  0.6220  2.3997
    2CHTO   O81  476   3.366   5.157   0.710 -0.0191  0.0713 -0.4201
    2CHTO  H202  477   3.322   5.080   0.740  1.7553 -0.4355  0.9891
    2CHTO  C119  478   3.517   5.263   0.546 -0.1992 -0.3347  0.1921
    2CHTO  H223  479   3.556   5.243   0.446 -0.6104 -2.6490  0.4571
    2CHTO  C117  480   3.636   5.267   0.642 -0.4537  0.5384 -0.8775
    2CHTO  H221  481   3.604   5.292   0.743 -1.2032 -0.2457 -0.9156
    2CHTO   N20  482   3.740   5.372   0.604 -0.1439  0.2928 -0.3634
    2CHTO  H209  483   3.704   5.473   0.600  1.5828  0.8863 -1.6405
    2CHTO  H210  484   3.839   5.352   0.644 -0.2450 -0.5848 -0.5440
    2CHTO   O80  485   3.446   5.387   0.525  0.4739 -0.3140  0.1053
    2CHTO  C103  486   3.345   5.400   0.401  0.3639 -0.0742  0.1744
    2CHTO  H190  487   3.345   5.310   0.340 -1.4757 -0.9119  1.3650
    2CHTO  C101  488   3.204   5.435   0.434  0.6434 -0.5808 -0.5272
    2CHTO  H188  489   3.200   5.526   0.493 -0.9964 -0.0030 -1.5084
    2CHTO   O68  490   3.138   5.319   0.524 -0.5424  0.1060  0.9498
    2CHTO  H168  491   3.200   5.289   0.587  1.3373 -1.4205 -1.5492
    2CHTO   C99  492   3.109   5.456   0.307 -0.3616  0.0928 -0.3138
    2CHTO  H186  493   3.111   5.363   0.245 -0.7062 -1.2471  1.6462
    2CHTO   N17  494   2.962   5.473   0.339 -0.2296 -0.5636  0.2197
    2CHTO  H174  495   2.920   5.514   0.248  0.1593  0.3757  0.4502
    2CHTO  H175  496   2.924   5.377   0.368 -0.8088 -0.6172 -0.6936
    2CHTO   C97  497   3.174   5.569   0.219  0.5379 -0.9208  0.4636
    2CHTO  H184  498   3.150   5.669   0.257 -2.0652 -0.7680 -1.4451
    2CHTO   O64  499   3.317   5.547   0.197  0.0353 -0.3934  0.1550
    2CHTO  C104  500   3.397   5.525   0.309 -0.1614  0.3592 -0.3096
    2CHTO  H191  501   3.400   5.614   0.372  1.7486  0.6977 -0.8358
    2CHTO  C108  502   3.543   5.496   0.272  0.7288 -0.5701  0.0808
    2CHTO   O71  503   3.598   5.580   0.170  0.2618 -0.3769  0.2096
    2CHTO  H171  504   3.687   5.602   0.191  0.4884 -0.3428 -0.7776
    2CHTO   O62  505   3.121   5.567   0.087 -0.2882  0.5143 -0.5692
    2CHTO   C91  506   3.088   5.688   0.015 -0.0747  0.3742 -0.0288
    2CHTO  H178  507   3.028   5.748   0.084  0.4809  1.5798 -0.5795
    2CHTO   C92  508   2.995   5.647  -0.100  0.0544  0.2401 -0.0099
    2CHTO  H179  509   3.034   5.556  -0.148 -0.1860  1.5652 -2.8675
    2CHTO   O66  510   2.869   5.614  -0.041 -0.0840  0.1779 -0.1874
    2CHTO  H166  511   2.839   5.666   0.031 -0.9037  0.3957 -0.6812
    2CHTO   C93  512   2.968   5.766  -0.213 -0.2936  0.7531  0.4216
    2CHTO  H180  513   2.898   5.841  -0.173 -0.0528  0.6942  0.9697
    2CHTO   N16  514   2.891   5.723  -0.334 -0.4297 -0.4605  0.2227
    2CHTO  H172  515   2.856   5.621  -0.321  0.3802 -0.8038 -0.2195
    2CHTO  H173  516   2.963   5.724  -0.415  0.3693  1.3953  0.9269
    2CHTO   C94  517   3.105   5.839  -0.246  0.0210 -0.5049  0.7941
    2CHTO  H181  518   3.178   5.772  -0.292 -1.6499 -0.7950 -1.4730
    2CHTO   O61  519   3.167   5.886  -0.125  0.2875  0.3289  0.3544
    2CHTO   C95  520   3.208   5.782  -0.044  0.1140  0.2918 -0.7152
    2CHTO  H182  521   3.266   5.709  -0.102  0.6744 -0.0386  0.2480
    2CHTO  C106  522   3.304   5.844   0.066  0.2839  0.3214 -0.1434
    2CHTO   O69  523   3.435   5.859   0.018 -0.2392  0.0041  0.5980
    2CHTO  H169  524   3.428   5.920  -0.053  0.0984 -0.8929 -0.2161
    2CHTO   O63  525   3.085   5.959  -0.356 -0.2442 -0.5599  0.1063
    2CHTO   C96  526   3.056   6.092  -0.297 -0.2067 -0.1044 -0.5423
    2CHTO  H183  527   3.078   6.087  -0.191 -0.6240 -1.0099 -0.4912
    2CHTO   C98  528   2.914   6.155  -0.313 -0.4040 -0.1105 -0.3698
    2CHTO  H185  529   2.898   6.170  -0.421 -1.4682 -0.3371 -0.2528
    2CHTO   O67  530   2.817   6.059  -0.267  0.0310  0.2459 -0.5859
    2CHTO  H167  531   2.834   6.046  -0.176  1.5539 -0.1245 -0.9166
    2CHTO  C102  532   2.901   6.297  -0.228  0.4231 -0.1413 -0.3567
    2CHTO  H189  533   2.901   6.269  -0.121 -0.8765 -2.4660 -0.9285
    2CHTO   N18  534   2.763   6.351  -0.255  0.1286 -0.1600 -0.4011
    2CHTO  H176  535   2.736   6.413  -0.171  1.8071  1.2037 -0.8579
    2CHTO  H177  536   2.691   6.272  -0.272 -0.5636  0.2692  0.4286
    2CHTO  C105  537   3.013   6.384  -0.274 -0.2541 -0.6408  0.5990
    2CHTO  H192  538   2.993   6.433  -0.370  0.6207  1.4322  1.4501
    2CHTO   O65  539   3.146   6.331  -0.282  0.1225  0.4805 -0.1360
    2CHTO  C100  540   3.157   6.201  -0.352 -0.2736 -0.0104  0.2834
    2CHTO  H187  541   3.139   6.220  -0.459  0.9929 -0.8242 -0.0915
    2CHTO  C107  542   3.302   6.163  -0.329  0.3833  0.8429  0.0323
    2CHTO   O70  543   3.375   6.232  -0.424 -0.2034  0.4181  0.1632
    2CHTO  H170  544   3.469   6.229  -0.423 -0.1912  0.6665  0.0042
    2CHTO   O57  545   3.018   6.491  -0.174 -0.0326 -0.1002  0.4149
    2CHTO   C85  546   3.085   6.619  -0.193 -0.9069 -0.0811  0.1813
    2CHTO  H157  547   3.071   6.648  -0.300  0.3328 -1.9338 -0.5181
    2CHTO   C83  548   3.242   6.589  -0.171 -0.0742  0.6710 -0.1752
    2CHTO  H155  549   3.280   6.520  -0.247  1.4798  0.6001  0.6544
    2CHTO   O56  550   3.266   6.534  -0.045 -0.1773 -0.0708 -0.8358
    2CHTO  H135  551   3.353   6.498  -0.054 -1.8253 -4.0360 -2.0950
    2CHTO   C81  552   3.327   6.719  -0.182 -0.0984 -0.7644  0.5350
    2CHTO  H153  553   3.319   6.758  -0.284  2.9778 -3.1433 -0.7306
    2CHTO   N14  554   3.476   6.690  -0.185 -0.2623 -0.0222 -0.3008
    2CHTO  H141  555   3.518   6.680  -0.087 -0.4055  2.5279  0.0350
    2CHTO  H142  556   3.501   6.603  -0.242  0.3264  0.0176 -0.1162
    2CHTO   C79  557   3.267   6.827  -0.078 -0.4950  0.9237  0.5540
    2CHTO  H151  558   3.323   6.918  -0.097  0.6517 -0.1938 -1.5808
    2CHTO   O52  559   3.128   6.851  -0.106 -0.0714 -0.3831 -0.1672
    2CHTO   C86  560   3.040   6.740  -0.089 -0.1510 -0.1391  0.0019
    2CHTO  H158  561   3.053   6.706   0.016 -0.5956 -1.8085 -0.4626
    2CHTO   C90  562   2.892   6.775  -0.110  0.5602 -0.5146  0.6044
    2CHTO   O60  563   2.851   6.810  -0.240 -0.3229 -0.7288  0.0472
    2CHTO  H138  564   2.816   6.729  -0.273  0.5425 -1.2215  0.3250
    2CHTO   O50  565   3.284   6.798   0.061 -0.8539  0.0925 -0.5257
    2CHTO   C73  566   3.305   6.811   0.202  0.6177 -0.2042 -0.2176
    2CHTO  H145  567   3.231   6.879   0.247 -1.5004 -2.0157 -0.8710
    2CHTO   C74  568   3.449   6.862   0.226  0.5498 -0.0248 -0.0968
    2CHTO  H146  569   3.454   6.966   0.190 -1.9860  0.1499  0.0144
    2CHTO   O54  570   3.484   6.885   0.371  0.3051 -0.1039  0.8297
    2CHTO  H133  571   3.472   6.802   0.413 -2.6639 -0.5303 -0.7017
    2CHTO   C75  572   3.556   6.768   0.162 -0.0791 -0.2250  0.6528
    2CHTO  H147  573   3.529   6.756   0.056 -2.1969  0.3764  1.0946
    2CHTO   N13  574   3.698   6.819   0.162  0.3915 -0.4166  0.0221
    2CHTO  H139  575   3.765   6.748   0.116  1.4039 -0.0003  0.8274
    2CHTO  H140  576   3.713   6.916   0.119  0.4112 -0.6260 -0.4427
    2CHTO   C76  577   3.528   6.625   0.236 -1.3637 -0.5347 -0.3938
    2CHTO  H148  578   3.559   6.647   0.338  1.0656  3.2365 -1.8226
    2CHTO   O49  579   3.387   6.580   0.227  0.4463  0.0162 -0.2119
    2CHTO   C77  580   3.286   6.670   0.268  0.0966 -0.5278 -0.4707
    2CHTO  H149  581   3.291   6.687   0.376  2.4372  0.1683 -0.6763
    2CHTO   C88  582   3.145   6.606   0.243  0.1941 -0.4276 -0.0512
    2CHTO   O58  583   3.041   6.687   0.311 -0.3664  0.0707 -0.6168
    2CHTO  H136  584   2.955   6.668   0.278  0.4257 -2.1752 -1.4877
    2CHTO   O51  585   3.608   6.498   0.172 -0.4342 -0.3095  0.7037
    2CHTO   C78  586   3.590   6.375   0.244 -0.0781  1.4454 -0.1156
    2CHTO  H150  587   3.497   6.375   0.305  1.5959 -0.7188  2.5509
    2CHTO   C80  588   3.707   6.338   0.337 -0.7146 -0.0878 -0.1170
    2CHTO  H152  589   3.798   6.322   0.277  1.3561  1.4795  2.4678
    2CHTO   O55  590   3.726   6.450   0.434  0.1082  0.9945 -0.4508
    2CHTO  H134  591   3.759   6.526   0.391 -1.7563  0.8119 -2.2852
    2CHTO   C84  592   3.677   6.206   0.415  0.0902 -0.1599  0.6318
    2CHTO  H156  593   3.588   6.232   0.473 -1.5534 -1.9036 -1.0184
    2CHTO   N15  594   3.798   6.163   0.500  0.9284  0.4465  0.0266
    2CHTO  H143  595   3.873   6.239   0.494  1.3412  0.0728  0.5085
    2CHTO  H144  596   3.836   6.068   0.472 -0.8314 -0.1830 -0.2750
    2CHTO   C87  597   3.640   6.095   0.312  0.5471 -0.0631  0.0021
    2CHTO  H159  598   3.729   6.073   0.252 -0.6960 -2.2493 -1.1034
    2CHTO   O53  599   3.533   6.143   0.218 -0.1498 -0.0421 -0.0543
    2CHTO   C82  600   3.577   6.257   0.143 -0.3000 -0.3005 -0.0378
    2CHTO  H154  601   3.670   6.229   0.092 -0.2185  1.2258 -0.7354
    2CHTO   C89  602   3.484   6.300   0.031  0.3948  0.1732 -0.5276
    2CHTO   O59  603   3.479   6.194  -0.062 -0.4381 -0.6062 -0.1753
    2CHTO  H137  604   3.441   6.221  -0.143  1.6158  0.2389 -0.8853
    2CHTO   O45  605   3.586   5.956   0.378  0.5287 -0.2404 -0.5256
    2CHTO   C67  606   3.475   5.975   0.469  0.4434  0.3713  0.4369
    2CHTO  H124  607   3.492   6.064   0.529 -0.0054  1.5626 -1.1568
    2CHTO   C65  608   3.333   5.984   0.405 -0.6733  0.2348  0.1814
    2CHTO  H122  609   3.341   5.937   0.307 -1.1202  1.0728 -0.2730
    2CHTO   O44  610   3.315   6.122   0.375 -0.1302  0.4978  0.1254
    2CHTO  H102  611   3.238   6.153   0.418 -0.6384  1.1288 -1.2051
    2CHTO   C63  612   3.220   5.903   0.471 -0.4832  0.4181  0.5772
    2CHTO  H120  613   3.228   5.797   0.448 -3.1902 -0.3076  2.6115
    2CHTO   N11  614   3.077   5.921   0.414 -0.5272 -0.3829  0.3070
    2CHTO  H108  615   3.032   6.003   0.466 -0.0863 -0.1717  0.3591
    2CHTO  H109  616   3.018   5.833   0.422  1.5527 -1.8112  0.2274
    2CHTO   C61  617   3.240   5.920   0.628 -0.2592  0.3487  0.0556
    2CHTO  H118  618   3.166   5.852   0.674  0.2568 -0.4463 -0.2710
    2CHTO   O40  619   3.371   5.887   0.676  0.0425 -0.1365  0.2005
    2CHTO   C68  620   3.478   5.861   0.582 -0.4346  0.1864 -0.2364
    2CHTO  H125  621   3.451   5.760   0.545 -0.0641  0.0381 -0.1115
    2CHTO   C72  622   3.618   5.846   0.652  0.2654  0.1757  0.5487
    2CHTO   O48  623   3.622   5.753   0.761 -0.3999  0.7467  0.4722
    2CHTO  H105  624   3.712   5.739   0.781  0.3419  2.4072 -1.5609
    2CHTO   O38  625   3.223   6.060   0.670 -0.0265 -0.6216  0.6791
    2CHTO   C55  626   3.197   6.081   0.807 -0.0772 -0.0883  0.0800
    2CHTO  H112  627   3.232   5.994   0.864 -2.8561 -1.6639 -0.5020
    2CHTO   C56  628   3.040   6.102   0.827 -0.1563 -0.0771 -0.2055
    2CHTO  H113  629   3.017   6.167   0.742  1.5811  0.4742 -0.2696
    2CHTO   O42  630   2.967   5.974   0.819 -0.0249  0.0609  0.3891
    2CHTO  H100  631   3.019   5.912   0.772  0.6968 -0.6390  2.0600
    2CHTO   C57  632   2.999   6.174   0.962 -0.0279 -0.1730  0.2034
    2CHTO  H114  633   3.006   6.115   1.052 -1.9261  1.9688  1.8204
    2CHTO   N10  634   2.860   6.220   0.958  0.5216 -0.1087  0.1443
    2CHTO  H106  635   2.854   6.327   0.940 -0.7915 -0.5935 -2.6985
    2CHTO  H107  636   2.809   6.191   1.048  0.3923  2.2813  0.8784
    2CHTO   C58  637   3.094   6.292   0.981 -0.4737 -0.2610  0.1573
    2CHTO  H115  638   3.083   6.358   0.892  2.0982  0.7714  0.5610
    2CHTO   O37  639   3.231   6.241   0.981  0.6247  0.3341 -0.0367
    2CHTO   C59  640   3.280   6.202   0.851 -0.5454  0.1371  0.2673
    2CHTO  H116  641   3.266   6.283   0.780  0.6612  0.6705  0.6225
    2CHTO   C70  642   3.432   6.173   0.864 -0.0120 -0.0758  0.4400
    2CHTO   O46  643   3.494   6.205   0.741 -0.2719 -0.3778 -0.8251
    2CHTO  H103  644   3.568   6.150   0.729  0.5415  0.4825  0.1587
    2CHTO   O39  645   3.079   6.370   1.108  0.3691  0.5636 -0.1926
    2CHTO   C60  646   3.027   6.505   1.094 -0.4953  0.0404  1.1836
    2CHTO  H117  647   3.011   6.520   0.987  0.8010 -2.4764  0.5905
    2CHTO   C62  648   2.895   6.513   1.163  0.4156 -0.8119  0.4155
    2CHTO  H119  649   2.838   6.430   1.116 -1.1856 -0.3987  1.5728
    2CHTO   O43  650   2.927   6.482   1.303 -0.3256  1.3509  0.3735
    2CHTO  H101  651   2.937   6.555   1.361  0.8155  2.0718 -0.7300
    2CHTO   C66  652   2.826   6.655   1.137 -0.0175 -0.1682  0.7224
    2CHTO  H123  653   2.797   6.664   1.033 -0.1187 -1.4868  0.6311
    2CHTO   N12  654   2.698   6.659   1.207 -0.0990  0.2027  0.0844
    2CHTO  H110  655   2.614   6.655   1.138  0.1735 -1.8805 -0.1565
    2CHTO  H111  656   2.702   6.740   1.278  1.3063  0.3141 -0.1177
    2CHTO   C69  657   2.923   6.775   1.169  0.6763  0.4442  0.5065
    2CHTO  H126  658   2.938   6.771   1.279 -2.7232  0.3278  1.0163
    2CHTO   O41  659   3.057   6.760   1.108  0.3916 -0.1136 -0.2554
    2CHTO   C64  660   3.125   6.617   1.154  0.1030  0.2623  0.0697
    2CHTO  H121  661   3.134   6.612   1.264 -3.0105 -0.2696  0.3429
    2CHTO   C71  662   3.265   6.595   1.087 -0.7554 -0.2496 -0.1295
    2CHTO   O47  663   3.332   6.482   1.136  0.1073 -0.4575 -0.4349
    2CHTO  H104  664   3.310   6.456   1.224  0.6743 -2.0286 -0.7329
    2CHTO   O34  665   2.885   6.893   1.136  0.2000 -0.5376  0.3401
    2CHTO   C49  666   2.853   7.049   1.149 -0.7396  1.0347  0.0583
    2CHTO   H91  667   2.826   7.079   1.250  1.8530 -1.5948  1.6064
    2CHTO   C47  668   2.744   7.069   1.038  0.4869  0.1264 -0.0147
    2CHTO   H89  669   2.712   7.175   1.046  1.3275  0.3358  0.6809
    2CHTO   O33  670   2.638   6.980   1.064  0.2405 -0.3691  0.4774
    2CHTO   H70  671   2.610   6.984   1.154  1.3796  3.7574  0.7637
    2CHTO   C45  672   2.805   7.055   0.890  0.2295  0.4032  0.5945
    2CHTO   H87  673   2.852   6.955   0.883 -1.2423 -0.2208 -0.6742
    2CHTO    N8  674   2.702   7.058   0.783  0.0669 -0.5748 -0.6549
    2CHTO   H75  675   2.606   7.091   0.821 -0.1310 -2.3132  0.4515
    2CHTO   H76  676   2.692   6.964   0.731  2.6958 -1.7468  0.8313
    2CHTO   C43  677   2.926   7.159   0.871 -0.3805  0.7218 -0.4048
    2CHTO   H85  678   2.976   7.146   0.775 -1.0772 -0.7412 -0.5817
    2CHTO   O29  679   3.013   7.127   0.977  0.5192 -0.1542 -0.2478
    2CHTO   C50  680   2.978   7.133   1.116  0.2913 -0.3061  0.0693
    2CHTO   H92  681   3.052   7.093   1.187  0.8587 -2.0375 -1.4722
    2CHTO   C54  682   2.947   7.282   1.162 -0.1794  0.2169 -0.6173
    2CHTO   O36  683   3.055   7.379   1.151  0.5448 -0.6879  0.5512
    2CHTO   H72  684   3.015   7.461   1.172  0.2731 -0.5821 -0.3573
    2CHTO   O27  685   2.878   7.292   0.864  0.4380  0.0933 -0.1152
    2CHTO   C37  686   2.820   7.394   0.779 -0.4394 -0.1750 -0.8315
    2CHTO   H79  687   2.779   7.341   0.692 -1.0732 -0.4399 -0.3733
    2CHTO   C38  688   2.705   7.465   0.860  0.3991 -0.1374 -0.0069
    2CHTO   H80  689   2.744   7.496   0.958  2.4031  1.0348 -1.1453
    2CHTO   O31  690   2.598   7.372   0.873 -0.0606  0.6368  0.1388
    2CHTO   H68  691   2.628   7.317   0.943  0.1915  1.2717  0.5441
    2CHTO   C39  692   2.654   7.597   0.783  0.4931  0.0126  0.6377
    2CHTO   H81  693   2.611   7.566   0.687 -0.8106 -0.6729  1.4228
    2CHTO    N7  694   2.545   7.674   0.860  0.4707  0.5154  0.6249
    2CHTO   H73  695   2.569   7.665   0.965  2.7640  2.2215  0.2737
    2CHTO   H74  696   2.446   7.635   0.841  0.6106 -0.0591  1.0845
    2CHTO   C40  697   2.777   7.693   0.760  0.0033 -0.0152  0.1146
    2CHTO   H82  698   2.826   7.719   0.854  1.2410  0.6152 -0.6939
    2CHTO   O26  699   2.862   7.615   0.675  0.2210  0.7290 -0.0833
    2CHTO   C41  700   2.931   7.497   0.728  0.3496  0.3145 -0.5278
    2CHTO   H83  701   3.003   7.531   0.804 -0.2073  1.9950 -0.7393
    2CHTO   C52  702   3.016   7.446   0.614  0.4799 -0.0937 -0.1716
    2CHTO   O35  703   2.945   7.353   0.509  0.0113  0.2945  0.6246
    2CHTO   H71  704   3.003   7.331   0.438  1.3459 -0.2803  1.8822
    2CHTO   O28  705   2.751   7.816   0.691 -0.5391  0.0494 -0.1423
    2CHTO   C42  706   2.843   7.928   0.707 -0.6821 -0.3079  0.7152
    2CHTO   H84  707   2.813   7.983   0.618 -1.7345  0.3101  1.4472
    2CHTO   C44  708   2.991   7.897   0.680  0.2809 -0.0500  0.3144
    2CHTO   H86  709   3.016   7.815   0.748 -0.4783 -1.0081 -0.5400
    2CHTO   O32  710   2.997   7.837   0.549  0.5955  0.1911  0.1424
    2CHTO   H69  711   3.033   7.751   0.561  1.4197  0.3607 -0.9560
    2CHTO   C48  712   3.091   8.019   0.702  0.1993 -0.2173  0.3731
    2CHTO   H90  713   3.081   8.095   0.625  0.2960 -0.8751 -0.2936
    2CHTO    N9  714   3.235   7.972   0.693  0.0019 -0.0321  0.4257
    2CHTO   H77  715   3.291   8.016   0.774 -0.3134  1.1322  0.0106
    2CHTO   H78  716   3.291   7.987   0.602 -0.3452  1.2130  0.4216
    2CHTO   C51  717   3.052   8.091   0.843 -0.4151  0.6671  0.6053
    2CHTO   H93  718   3.062   8.008   0.913  1.7235 -0.8135 -1.3663
    2CHTO   O30  719   2.912   8.135   0.831 -0.0012 -0.7670  0.4018
    2CHTO   C46  720   2.820   8.024   0.836  0.0890  0.3126  0.0384
    2CHTO   H88  721   2.839   7.967   0.927  0.4328  0.2259 -0.0886
    2CHTO   C53  722   2.677   8.092   0.839 -0.4295  0.1948  0.0407
    2CHTO   O72  723   2.623   8.125   0.710  0.5664 -0.3282  0.0624
    2CHTO  H199  724   2.593   8.049   0.665 -4.1755  1.2386  0.3332
    2CHTO   O22  725   3.118   8.209   0.871  0.2238  0.7354  0.5906
    2CHTO   C31  726   3.119   8.258   1.014 -0.4264  0.8042  0.1093
    2CHTO   H59  727   3.168   8.358   1.013 -1.0639  1.1419  1.3222
    2CHTO   C29  728   2.982   8.277   1.080  0.9473  0.1541 -0.1533
    2CHTO   H57  729   2.931   8.180   1.076  0.6345  0.2958  0.3569
    2CHTO   O21  730   2.910   8.375   0.995 -0.2974 -0.4662 -0.0999
    2CHTO   H37  731   2.901   8.349   0.906 -2.5493 -0.4023  0.0698
    2CHTO   C27  732   2.974   8.325   1.230 -0.0515  0.3075  0.2264
    2CHTO   H55  733   3.006   8.431   1.233 -0.7564  0.5165  0.2486
    2CHTO    N5  734   2.835   8.315   1.289  0.1511 -0.1637 -0.2177
    2CHTO   H43  735   2.819   8.369   1.381 -0.3467  0.7934 -0.8504
    2CHTO   H44  736   2.764   8.336   1.211 -0.8010 -0.7747  0.4757
    2CHTO   C25  737   3.085   8.249   1.310  0.4427 -0.3120  0.1477
    2CHTO   H53  738   3.059   8.144   1.329  0.0593 -0.3317 -0.4649
    2CHTO   O17  739   3.217   8.244   1.241  0.6531 -0.9629 -0.4108
    2CHTO   C32  740   3.207   8.172   1.113 -0.2980  0.4099  0.0926
    2CHTO   H60  741   3.159   8.074   1.124  0.8375 -0.1849 -0.2039
    2CHTO   C36  742   3.341   8.160   1.055 -0.0329  0.9723 -0.0379
    2CHTO   O25  743   3.411   8.067   1.144  0.0156 -0.0416 -0.3226
    2CHTO   H40  744   3.504   8.057   1.132 -0.0342  0.1877 -0.9440
    2CHTO   O15  745   3.109   8.309   1.460  0.6101  0.1805  0.0576
    2CHTO   C19  746   3.126   8.224   1.576  0.2611  0.1639  0.4725
    2CHTO   H47  747   3.047   8.149   1.563  1.1152 -0.9859  1.8864
    2CHTO   C20  748   3.273   8.157   1.584  0.1950 -0.4670 -0.1089
    2CHTO   H48  749   3.351   8.234   1.578  1.3005 -1.5194  0.3869
    2CHTO   O19  750   3.283   8.067   1.471  0.4115  0.1273 -0.0375
    2CHTO   H35  751   3.293   7.979   1.500 -0.7441  0.1741  0.5297
    2CHTO   C21  752   3.295   8.074   1.719 -0.4755 -0.1672  0.3222
    2CHTO   H49  753   3.238   7.982   1.709  0.6115 -0.7930 -0.2674
    2CHTO    N4  754   3.435   8.036   1.737 -0.1406  0.3868 -0.8932
    2CHTO   H41  755   3.450   8.009   1.840 -0.4620 -1.6748 -1.3613
    2CHTO   H42  756   3.495   8.124   1.717  2.0686 -1.0976 -1.0309
    2CHTO   C22  757   3.239   8.150   1.839 -0.7346 -0.4686 -0.2460
    2CHTO   H50  758   3.305   8.230   1.870 -1.6215 -0.8127  2.7118
    2CHTO   O14  759   3.112   8.201   1.810 -0.7803  1.1010  0.3936
    2CHTO   C23  760   3.095   8.294   1.706 -0.1926 -0.0574 -0.4446
    2CHTO   H51  761   3.165   8.378   1.721 -2.2329  1.6296 -0.1051
    2CHTO   C34  762   2.948   8.343   1.709 -0.1602  0.5056  0.7000
    2CHTO   O23  763   2.923   8.398   1.842 -0.0857 -0.0529 -0.0515
    2CHTO   H38  764   2.934   8.324   1.899 -1.3718 -0.3280 -0.1483
    2CHTO   O16  765   3.227   8.062   1.948  0.0879  0.3603  0.4361
    2CHTO   C24  766   3.230   8.131   2.095 -0.5934 -0.2262 -0.1835
    2CHTO   H52  767   3.239   8.239   2.090 -1.4712 -0.0828  1.0049
    2CHTO   C26  768   3.342   8.068   2.173 -0.7300  0.4534 -0.7408
    2CHTO   H54  769   3.345   7.958   2.156  0.0422  0.5310 -1.1131
    2CHTO   O20  770   3.464   8.123   2.118 -0.0937  0.4941 -0.3173
    2CHTO   H36  771   3.540   8.083   2.156  1.0722  1.8668 -1.1844
    2CHTO   C30  772   3.333   8.105   2.320 -0.5968 -0.0363 -0.0530
    2CHTO   H58  773   3.347   8.213   2.335 -1.4218 -0.3286  3.2991
    2CHTO    N6  774   3.440   8.034   2.394 -0.2682 -0.3370 -0.1453
    2CHTO   H45  775   3.421   7.928   2.396  1.1047 -0.6662 -2.4258
    2CHTO   H46  776   3.541   8.049   2.359  0.5653  0.5795  2.5142
    2CHTO   C33  777   3.193   8.068   2.377  0.4361  0.5059 -0.3664
    2CHTO   H61  778   3.183   7.959   2.383  0.8523  0.5681  2.1130
    2CHTO   O18  779   3.092   8.125   2.300 -0.8679 -0.4034 -0.0160
    2CHTO   C28  780   3.091   8.106   2.159  0.3262  0.4276 -0.5403
    2CHTO   H56  781   3.058   8.004   2.141 -1.1803  0.6022  1.0431
    2CHTO   C35  782   2.972   8.188   2.105  0.3789 -0.2859 -0.3223
    2CHTO   O24  783   2.970   8.324   2.146 -0.3131 -0.4377  0.6933
    2CHTO   H39  784   3.043   8.374   2.115  0.1606 -1.2773  0.4225
    2CHTO    O9  785   3.185   8.109   2.521 -0.3920 -0.0121  0.1110
    2CHTO   C13  786   3.027   8.087   2.595  0.3207 -0.6773 -0.0183
    2CHTO   H26  787   2.978   7.999   2.549 -0.4966  0.9400 -2.3514
    2CHTO   C11  788   2.937   8.221   2.582  0.4341  0.2486 -0.0669
    2CHTO   H24  789   2.911   8.231   2.475  0.7781  0.0895 -0.1674
    2CHTO    O8  790   3.027   8.331   2.612  0.0148  0.3343 -0.1563
    2CHTO    H3  791   3.088   8.346   2.542 -0.1554  0.2096 -0.3332
    2CHTO    C9  792   2.812   8.230   2.672 -0.2472 -0.3346  0.3361
    2CHTO   H22  793   2.745   8.153   2.631 -0.6556  0.6247 -0.8261
    2CHTO    N2  794   2.732   8.353   2.668 -0.1007 -0.8414  0.0549
    2CHTO   H10  795   2.718   8.401   2.763 -0.6116  0.6151 -0.7429
    2CHTO   H11  796   2.770   8.425   2.596  0.3349 -0.8703  0.2512
    2CHTO    C7  797   2.864   8.203   2.816 -0.0453 -0.1621  0.2913
    2CHTO   H20  798   2.766   8.192   2.866  0.2253 -2.1234  0.4188
    2CHTO    O4  799   2.930   8.080   2.841  0.3882  0.1119 -0.0113
    2CHTO   C14  800   3.042   8.059   2.758  0.7166  0.4293 -0.1458
    2CHTO   H27  801   3.052   7.948   2.763 -1.0003  0.1736 -1.9115
    2CHTO   C18  802   3.173   8.125   2.813  0.2250  0.0649 -0.8379
    2CHTO   O13  803   3.230   8.046   2.926  0.1744  0.6651 -0.3131
    2CHTO    H7  804   3.319   8.074   2.929  0.9097 -1.3277 -2.4276
    2CHTO    O2  805   2.940   8.337   2.882 -0.4629 -0.0188 -0.3274
    2CHTO    C1  806   2.953   8.343   3.028  0.4608  0.5173 -0.0189
    2CHTO   H14  807   3.013   8.265   3.079 -1.0700 -0.4516  0.3512
    2CHTO    C2  808   2.817   8.349   3.100 -0.3405  0.1506 -0.0087
    2CHTO   H15  809   2.747   8.413   3.043 -1.5621 -1.9139 -0.8681
    2CHTO    O6  810   2.760   8.215   3.105  0.1320 -0.2644 -0.3226
    2CHTO    H1  811   2.692   8.214   3.170 -2.8902  1.1461 -3.2793
    2CHTO    C3  812   2.835   8.396   3.256  0.0169  0.2677  1.5334
    2CHTO   H16  813   2.880   8.307   3.301  0.9788 -0.4925 -0.8325
    2CHTO    N1  814   2.710   8.428   3.330 -0.3358  0.8114 -0.4488
    2CHTO    H8  815   2.677   8.526   3.299 -0.0369  0.7099 -1.1009
    2CHTO    H9  816   2.722   8.432   3.437  2.2558  1.3973 -0.7363
    2CHTO    C4  817   2.941   8.518   3.273  0.1535  0.1101  1.0498
    2CHTO   H17  818   2.892   8.609   3.238 -2.3327 -2.1959 -1.7079
    2CHTO    O1  819   3.055   8.489   3.198  0.3007 -0.2759 -0.1763
    2CHTO    C5  820   3.022   8.477   3.056 -0.3567  0.1922  0.4839
    2CHTO   H18  821   2.956   8.556   3.021 -1.7030  0.2530  2.9742
    2CHTO   C16  822   3.156   8.480   2.978  0.0815  0.6230  0.4348
    2CHTO   O11  823   3.218   8.605   2.969  0.3062  0.4231  0.1726
    2CHTO    H5  824   3.275   8.595   2.895 -0.4723  0.3982 -0.4337
    2CHTO    O3  825   2.989   8.533   3.406 -0.1272 -0.2468 -0.0392
    2CHTO    C6  826   3.028   8.666   3.448  0.2645 -0.2873 -0.9505
    2CHTO   H19  827   3.051   8.736   3.368 -0.7647 -0.1629 -1.1340
    2CHTO    C8  828   2.917   8.726   3.538 -0.1708  0.4286 -0.3260
    2CHTO   H21  829   2.885   8.654   3.613  0.7748 -0.6349 -0.9256
    2CHTO    O7  830   2.810   8.763   3.449 -0.8700  0.6204  0.7108
    2CHTO    H2  831   2.786   8.696   3.388 -0.6853  1.8214 -0.7340
    2CHTO   C12  832   2.969   8.850   3.614  0.0566 -0.0700 -1.0303
    2CHTO   H25  833   2.991   8.927   3.538 -0.4911  2.6891  1.4929
    2CHTO    N3  834   2.865   8.905   3.709  0.1584 -0.0596 -0.1208
    2CHTO   H12  835   2.904   8.914   3.809  0.6110  2.3938 -0.4727
    2CHTO   H13  836   2.828   9.003   3.682  1.5524  0.5786  0.2331
    2CHTO   C15  837   3.108   8.815   3.682 -0.0725  0.3225 -0.6364
    2CHTO   H28  838   3.099   8.747   3.767  0.7875  0.2422 -0.6050
    2CHTO   O10  839   3.181   8.961   3.743 -0.1961 -0.1311  0.3800
    2CHTO    H4  840   3.205   9.015   3.670  0.6487 -0.4447  0.4224
    2CHTO    O5  841   3.206   8.770   3.584 -0.2389 -0.0188  0.2032
    2CHTO   C10  842   3.159   8.643   3.530 -0.1021  0.1010 -0.0672
    2CHTO   H23  843   3.143   8.573   3.612  1.2778  0.3891  0.4701
    2CHTO   C17  844   3.274   8.591   3.436 -0.3547  0.0287 -0.1294
    2CHTO   O12  845   3.373   8.515   3.507 -0.1658  0.5226 -0.3427
    2CHTO    H6  846   3.457   8.549   3.485  0.3150 -0.2214  0.2946
    3CHTO  H203  847   7.572   2.762   2.210 -1.0112  0.2437 -1.1968
    3CHTO   O82  848   7.500   2.708   2.182 -1.0729 -0.0983 -0.3922
    3CHTO  C123  849   7.533   2.567   2.151 -0.0422 -0.4830  0.2583
    3CHTO  H227  850   7.642   2.562   2.137 -0.0817 -0.7821  0.0527
    3CHTO   O77  851   7.504   2.496   2.266  0.0144  0.4682  0.0592
    3CHTO  C118  852   7.521   2.354   2.253 -0.5584  0.1775  0.1732
    3CHTO  H222  853   7.627   2.328   2.239 -0.5458  2.2413 -4.4144
    3CHTO  C125  854   7.462   2.297   2.384 -0.7309  0.1601  0.0852
    3CHTO   O84  855   7.520   2.170   2.416 -0.1431 -0.1888  0.1240
    3CHTO  H205  856   7.481   2.119   2.484 -0.8834  0.0733 -0.0942
    3CHTO  C114  857   7.440   2.290   2.136  0.2493  0.5130  0.9303
    3CHTO  H218  858   7.335   2.301   2.164 -0.1158  2.2788 -1.0183
    3CHTO  C116  859   7.471   2.355   2.002  0.4596 -0.4842 -0.6725
    3CHTO  H220  860   7.575   2.328   1.972  0.2774 -1.1496 -0.7142
    3CHTO   O79  861   7.381   2.299   1.900  0.1767 -0.1460  0.3804
    3CHTO  H201  862   7.293   2.327   1.916 -0.0806 -0.8492  0.1952
    3CHTO  C120  863   7.451   2.514   2.020 -0.5941  0.0853  0.2703
    3CHTO  H224  864   7.344   2.538   2.036 -0.6722 -0.8062  1.1296
    3CHTO   N21  865   7.491   2.588   1.897  0.1191 -0.0569 -0.0635
    3CHTO  H211  866   7.433   2.679   1.898 -0.4967 -0.4466 -0.0857
    3CHTO  H212  867   7.599   2.588   1.896  0.1189  0.4910 -0.4689
    3CHTO   O75  868   7.476   2.150   2.149  0.4657  0.3137 -0.1332
    3CHTO  C112  869   7.374   2.020   2.073  0.2039  0.0937  0.6599
    3CHTO  H216  870   7.372   2.024   1.963  1.5862  0.1291  0.6215
    3CHTO   O73  871   7.242   2.024   2.129 -0.3910  0.0423 -0.4331
    3CHTO  C113  872   7.149   1.938   2.054  0.3664 -0.0935  0.6188
    3CHTO  H217  873   7.142   1.962   1.946 -2.6698 -1.3152  0.4990
    3CHTO  C124  874   7.015   1.965   2.121  1.0847  0.2015 -0.4278
    3CHTO   O83  875   6.902   1.939   2.034 -0.0061 -0.0635 -0.4206
    3CHTO  H204  876   6.827   1.940   2.090  1.1389  0.0773  1.1232
    3CHTO  C109  877   7.196   1.788   2.073  0.4144 -1.0449 -0.3207
    3CHTO  H213  878   7.185   1.765   2.180 -1.1393  0.4186 -0.1429
    3CHTO  C110  879   7.341   1.772   2.038 -0.9009  0.1321  0.2087
    3CHTO  H214  880   7.348   1.766   1.930  1.3759 -0.9946  0.4000
    3CHTO   O78  881   7.378   1.651   2.103 -0.2416 -0.0589  0.1397
    3CHTO  H200  882   7.363   1.645   2.195  2.9171 -1.8068  0.6038
    3CHTO  C111  883   7.440   1.880   2.096 -0.7344  0.0961 -0.0706
    3CHTO  H215  884   7.451   1.874   2.205  0.4511  1.0605 -0.1292
    3CHTO   N19  885   7.576   1.874   2.036 -0.1844 -0.5075 -0.4103
    3CHTO  H207  886   7.659   1.906   2.099 -1.7133  2.8715 -0.0002
    3CHTO  H208  887   7.574   1.924   1.940 -3.5803 -0.7578 -0.4992
    3CHTO   O74  888   7.104   1.700   1.998 -0.0712  0.0577 -0.3504
    3CHTO  C115  889   7.089   1.563   2.071 -0.0730 -0.8395  0.1307
    3CHTO  H219  890   7.180   1.504   2.065 -0.3153 -1.2381  0.4044
    3CHTO   O76  891   7.060   1.588   2.229 -0.1093  0.1900 -0.2611
    3CHTO  C122  892   7.046   1.463   2.305  0.3917  0.1264  0.7166
    3CHTO  H226  893   7.015   1.473   2.409 -0.1427 -0.3609  0.6086
    3CHTO  C126  894   7.184   1.397   2.316  0.4440 -0.0864 -0.2830
    3CHTO   O85  895   7.278   1.464   2.405  0.4550  0.0369 -0.2207
    3CHTO  H206  896   7.248   1.443   2.491 -2.9187  0.0375 -1.3570
    3CHTO  C121  897   6.928   1.372   2.236  0.7476  0.5954  0.0122
    3CHTO  H225  898   6.921   1.275   2.290  0.4540  0.5994 -0.0141
    3CHTO   O81  899   6.803   1.439   2.253  0.2350  0.7543 -0.7572
    3CHTO  H202  900   6.727   1.395   2.219 -1.0385  2.5197 -0.2842
    3CHTO  C119  901   6.951   1.348   2.077 -0.9724  0.6194  0.3646
    3CHTO  H223  902   7.042   1.288   2.068 -1.8865 -0.5631 -1.2181
    3CHTO  C117  903   6.981   1.482   1.994  0.1207 -0.5917  1.1458
    3CHTO  H221  904   6.898   1.551   1.979 -0.5630 -1.5418  0.4675
    3CHTO   N20  905   7.031   1.449   1.859 -1.0579 -0.3342  0.5236
    3CHTO  H209  906   6.994   1.528   1.796 -0.9916 -1.5241 -1.0304
    3CHTO  H210  907   7.139   1.442   1.858 -1.1103 -0.8841 -1.5200
    3CHTO   O80  908   6.846   1.248   2.007  0.8120  0.1576  0.5017
    3CHTO  C103  909   6.735   1.191   2.077  0.0446  0.2344 -0.0186
    3CHTO  H190  910   6.749   1.203   2.185  0.2448 -0.1046 -0.0065
    3CHTO  C101  911   6.599   1.241   2.032  1.1952 -0.4746 -0.8450
    3CHTO  H188  912   6.609   1.241   1.923  1.7028  3.4554 -0.8470
    3CHTO   O68  913   6.572   1.394   2.065 -0.1236 -0.0185 -0.0712
    3CHTO  H168  914   6.624   1.441   2.003  1.1659 -1.2240  0.0764
    3CHTO   C99  915   6.483   1.144   2.075 -0.4814 -0.2944 -0.4030
    3CHTO  H186  916   6.471   1.150   2.185 -0.0396 -2.8647 -0.1762
    3CHTO   N17  917   6.349   1.179   2.009  0.1193 -0.2578  0.8336
    3CHTO  H174  918   6.324   1.126   1.918 -0.6420  1.2006  0.1829
    3CHTO  H175  919   6.264   1.203   2.071  0.9700  2.1047  1.1320
    3CHTO   C97  920   6.516   0.994   2.044  0.1373 -0.5455  0.0347
    3CHTO  H184  921   6.498   0.972   1.938  0.6327 -1.4748  0.1265
    3CHTO   O64  922   6.641   0.951   2.089 -0.0705  0.2107 -0.0508
    3CHTO  C104  923   6.748   1.035   2.043 -0.6330  0.4113  0.1494
    3CHTO  H191  924   6.752   1.026   1.935  0.8519  0.2930  0.2008
    3CHTO  C108  925   6.884   0.977   2.092  0.3856  0.2325 -0.0364
    3CHTO   O71  926   6.882   0.955   2.237 -0.1020  0.4854  0.4001
    3CHTO  H171  927   6.937   1.018   2.278 -0.1477  0.3387  0.6849
    3CHTO   O62  928   6.426   0.908   2.117  0.0157 -0.0414  0.1277
    3CHTO   C91  929   6.400   0.773   2.075  0.7280  0.3850 -0.5324
    3CHTO  H178  930   6.423   0.755   1.970 -1.1223  0.0160 -0.8815
    3CHTO   C92  931   6.251   0.737   2.106  0.1718 -0.1519  0.5693
    3CHTO  H179  932   6.224   0.746   2.212 -0.1555 -0.8037  0.5472
    3CHTO   O66  933   6.176   0.845   2.040 -0.1787  0.7405  0.2670
    3CHTO  H166  934   6.083   0.828   2.035 -0.4297  1.7655  1.1655
    3CHTO   C93  935   6.220   0.594   2.056  0.0847 -0.0506 -0.4235
    3CHTO  H180  936   6.253   0.584   1.951 -0.9761  1.7767 -0.9469
    3CHTO   N16  937   6.075   0.554   2.044 -0.4719 -0.1835 -0.4102
    3CHTO  H172  938   6.072   0.470   1.976 -1.1562  0.1971 -0.8408
    3CHTO  H173  939   6.033   0.637   1.990  0.5183 -0.0494 -0.9982
    3CHTO   C94  940   6.304   0.500   2.149  0.5187 -0.4857 -0.3275
    3CHTO  H181  941   6.248   0.475   2.239  0.0023  1.3834 -0.1091
    3CHTO   O61  942   6.416   0.558   2.208 -0.2966 -0.2269 -0.5852
    3CHTO   C95  943   6.489   0.665   2.146 -0.2503  0.0904 -0.2442
    3CHTO  H182  944   6.547   0.713   2.225  0.2726  2.3910 -1.9608
    3CHTO  C106  945   6.596   0.598   2.054  0.1247 -0.5438 -0.5981
    3CHTO   O69  946   6.701   0.688   2.012  0.2503 -0.3714 -0.1713
    3CHTO  H169  947   6.718   0.750   2.081  4.2507 -1.9585  0.4446
    3CHTO   O63  948   6.342   0.361   2.078  0.4818 -0.3877 -0.3713
    3CHTO   C96  949   6.283   0.228   2.107  0.3358 -0.2782 -0.1512
    3CHTO  H183  950   6.334   0.155   2.044 -0.0310 -0.2811 -0.4426
    3CHTO   C98  951   6.138   0.219   2.053  0.0755  0.0641 -0.5139
    3CHTO  H185  952   6.076   0.299   2.096  0.2215 -0.5661  0.9073
    3CHTO   O67  953   6.126   0.231   1.909  0.0550  0.3196  0.3426
    3CHTO  H167  954   6.039   0.220   1.876  0.5517  0.2646 -0.9938
    3CHTO  C102  955   6.066   0.076   2.097 -0.0522  0.8100 -0.5847
    3CHTO  H189  956   6.114  -0.002   2.036 -0.0983  0.6475 -0.4128
    3CHTO   N18  957   5.923   0.069   2.061 -0.4275  0.1098  0.3254
    3CHTO  H176  958   5.859   0.144   2.105 -0.3508  0.5962 -0.3883
    3CHTO  H177  959   5.877  -0.028   2.072  0.6045 -0.2740  1.4266
    3CHTO  C105  960   6.094   0.042   2.247  0.3832  0.0970  0.0209
    3CHTO  H192  961   6.018   0.088   2.310 -1.2342  1.6226 -2.9061
    3CHTO   O65  962   6.231   0.072   2.291  0.3190  0.3465 -0.9328
    3CHTO  C100  963   6.292   0.190   2.258 -0.0544 -0.2243  0.4644
    3CHTO  H187  964   6.254   0.270   2.323 -1.3742 -0.7864  0.4105
    3CHTO  C107  965   6.440   0.174   2.284 -0.0364 -0.3677 -0.5653
    3CHTO   O70  966   6.497   0.304   2.294 -0.0197 -0.2233 -0.2902
    3CHTO  H170  967   6.591   0.304   2.298 -0.0769 -2.0158  1.7104
    3CHTO   O57  968   6.079  -0.122   2.243  0.6357  0.1595  0.1918
    3CHTO   C85  969   6.025  -0.202   2.349 -0.4292  0.3516 -0.2969
    3CHTO  H157  970   6.064  -0.303   2.327  2.2780  1.3614 -0.3577
    3CHTO   C83  971   5.874  -0.218   2.356  0.9527  0.3828  0.0103
    3CHTO  H155  972   5.838  -0.266   2.265 -2.0281  1.8941  0.3143
    3CHTO   O56  973   5.814  -0.088   2.345 -0.1093  0.2129 -0.2301
    3CHTO  H135  974   5.728  -0.087   2.381  1.5267  0.2818  3.9905
    3CHTO   C81  975   5.829  -0.305   2.478  0.6725  0.2641  0.3077
    3CHTO  H153  976   5.889  -0.395   2.471  1.4297  0.9750 -3.4481
    3CHTO   N14  977   5.690  -0.353   2.467  0.3269 -0.6313  0.2511
    3CHTO  H141  978   5.647  -0.378   2.561  2.3873  1.1753  1.7283
    3CHTO  H142  979   5.627  -0.287   2.411  1.5408  0.8665  0.6149
    3CHTO   C79  980   5.861  -0.233   2.610 -0.8292  0.2286  0.2544
    3CHTO  H151  981   5.842  -0.301   2.693 -1.9624 -0.8922 -0.9096
    3CHTO   O52  982   6.008  -0.212   2.609  0.4269  0.2652  0.2070
    3CHTO   C86  983   6.077  -0.147   2.491  0.1185  0.2956  0.7989
    3CHTO  H158  984   6.046  -0.041   2.498 -3.3009 -0.7387  2.1255
    3CHTO   C90  985   6.234  -0.161   2.520 -0.1898 -0.3157 -0.5471
    3CHTO   O60  986   6.267  -0.301   2.541 -0.1015 -0.3165  0.2490
    3CHTO  H138  987   6.273  -0.336   2.455 -3.5176  0.6437 -0.4639
    3CHTO   O50  988   5.798  -0.105   2.632  0.1813 -0.4284 -0.4276
    3CHTO   C73  989   5.705  -0.058   2.732 -0.7517 -0.0414 -0.4889
    3CHTO  H145  990   5.716  -0.115   2.826 -1.0028 -0.3677 -0.6562
    3CHTO   C74  991   5.560  -0.081   2.685  0.0330  0.0160  0.1483
    3CHTO  H146  992   5.553  -0.190   2.669  0.2726  0.5699 -4.3426
    3CHTO   O54  993   5.467  -0.044   2.795  0.9819 -0.8343 -0.2758
    3CHTO  H133  994   5.488  -0.097   2.869 -2.7761 -3.0143 -0.6688
    3CHTO   C75  995   5.533  -0.005   2.554 -0.5770  0.4167 -0.7396
    3CHTO  H147  996   5.608  -0.041   2.483  1.8574  1.5560  1.1794
    3CHTO   N13  997   5.410  -0.046   2.491 -0.0716 -0.2699  0.4263
    3CHTO  H139  998   5.375  -0.146   2.511 -1.1658  0.2646  1.2428
    3CHTO  H140  999   5.415  -0.039   2.383 -2.7057 -0.3239  0.2675
    3CHTO   C76 1000   5.548   0.157   2.588 -0.5556  0.1045  0.4877
    3CHTO  H148 1001   5.472   0.176   2.664  1.0110  1.9763  1.6136
    3CHTO   O49 1002   5.680   0.176   2.645 -0.3602 -0.1268 -0.2373
    3CHTO   C77 1003   5.731   0.089   2.752  0.6687 -0.2582  0.2050
    3CHTO  H149 1004   5.664   0.121   2.832  0.0903 -0.4837 -0.1925
    3CHTO   C88 1005   5.877   0.132   2.774 -0.1776 -0.1712 -0.7790
    3CHTO   O58 1006   5.957   0.052   2.867 -0.2180 -0.5102 -0.3418
    3CHTO  H136 1007   5.967   0.106   2.942 -1.7707  1.8156 -1.7446
    3CHTO   O51 1008   5.552   0.240   2.447  0.8570 -0.5041  0.6347
    3CHTO   C78 1009   5.566   0.393   2.470 -0.1218 -0.6304  0.3893
    3CHTO  H150 1010   5.616   0.427   2.563 -1.4822  0.7140  0.6592
    3CHTO   C80 1011   5.421   0.446   2.461 -0.4146 -0.1199 -0.8153
    3CHTO  H152 1012   5.363   0.405   2.376 -1.6540 -2.3268  1.0349
    3CHTO   O55 1013   5.339   0.389   2.563 -0.0141  0.3592 -0.6879
    3CHTO  H134 1014   5.248   0.411   2.558 -0.8351 -2.9481 -1.3824
    3CHTO   C84 1015   5.419   0.602   2.465  0.7582 -0.4193  0.5737
    3CHTO  H156 1016   5.471   0.629   2.557 -1.9249 -0.0574  2.0385
    3CHTO   N15 1017   5.289   0.670   2.468  0.0301 -0.2085  0.4830
    3CHTO  H143 1018   5.229   0.629   2.389  1.6491  0.2290 -0.9892
    3CHTO  H144 1019   5.310   0.771   2.443  0.2468 -0.4056 -0.1243
    3CHTO   C87 1020   5.506   0.660   2.345  0.4398  0.1278  0.1752
    3CHTO  H159 1021   5.444   0.665   2.256 -0.7933 -2.3339  0.8579
    3CHTO   O53 1022   5.639   0.583   2.319  0.4528  0.3758  0.1521
    3CHTO   C82 1023   5.644   0.444   2.341 -0.9270 -0.1441  0.5948
    3CHTO  H154 1024   5.599   0.402   2.250  0.4356  0.6258 -0.4485
    3CHTO   C89 1025   5.798   0.407   2.334  0.4491 -0.6730  0.5732
    3CHTO   O59 1026   5.830   0.274   2.374  0.7991  0.6196 -0.1166
    3CHTO  H137 1027   5.840   0.216   2.300 -0.5734  1.6174 -1.0926
    3CHTO   O45 1028   5.526   0.815   2.366 -0.1549  0.1252 -0.1551
    3CHTO   C67 1029   5.660   0.867   2.380  0.0786 -0.3289 -0.5381
    3CHTO  H124 1030   5.724   0.787   2.417  1.0363  0.3210 -0.7682
    3CHTO   C65 1031   5.722   0.914   2.244 -0.7542  0.5730 -0.9656
    3CHTO  H122 1032   5.633   0.950   2.193 -2.1911 -0.6137  0.6451
    3CHTO   O44 1033   5.782   0.801   2.180  0.2626  0.3736 -0.0392
    3CHTO  H102 1034   5.785   0.810   2.087 -3.6756 -1.9433 -0.4983
    3CHTO   C63 1035   5.799   1.056   2.254 -0.7724  0.6412  1.1076
    3CHTO  H120 1036   5.726   1.137   2.258  0.8076  2.1925 -0.2429
    3CHTO   N11 1037   5.870   1.102   2.124  0.2561 -0.2426 -0.2125
    3CHTO  H108 1038   5.949   1.037   2.090  0.1664 -0.2182 -0.4668
    3CHTO  H109 1039   5.809   1.136   2.044  1.8562 -0.4691 -1.5633
    3CHTO   C61 1040   5.890   1.042   2.376  0.3708  0.3479  1.2607
    3CHTO  H118 1041   5.946   1.136   2.386  0.5297  0.5158 -0.9720
    3CHTO   O40 1042   5.818   1.017   2.501 -0.5433 -0.0300 -0.4004
    3CHTO   C68 1043   5.678   0.979   2.488  0.2182 -0.2461 -0.0791
    3CHTO  H125 1044   5.609   1.054   2.443  0.9254  0.1659 -0.4922
    3CHTO   C72 1045   5.614   0.943   2.624 -0.7073 -0.0296 -0.2452
    3CHTO   O48 1046   5.592   1.056   2.708 -0.6792 -0.3930 -0.1720
    3CHTO  H105 1047   5.536   1.124   2.677  0.2571  0.0075 -1.0020
    3CHTO   O38 1048   5.999   0.945   2.357 -0.2678  0.9315  0.3755
    3CHTO   C55 1049   6.099   0.917   2.457 -0.7012 -0.9487 -0.8790
    3CHTO  H112 1050   6.060   0.967   2.547  0.5422 -0.3386 -0.6797
    3CHTO   C56 1051   6.245   0.976   2.418 -0.3829 -0.0709 -0.0347
    3CHTO  H113 1052   6.267   0.938   2.317  3.8042  1.4795  0.2255
    3CHTO   O42 1053   6.256   1.118   2.403  0.1438  0.3765 -0.1925
    3CHTO  H100 1054   6.215   1.176   2.464 -0.9656 -0.5148 -0.0632
    3CHTO   C57 1055   6.356   0.916   2.522  0.1694 -0.0378  0.0574
    3CHTO  H114 1056   6.328   0.962   2.617  0.6743  2.7736 -1.1137
    3CHTO   N10 1057   6.495   0.947   2.477 -0.2936 -0.0667 -0.6177
    3CHTO  H106 1058   6.531   1.041   2.516 -4.3189  1.7277 -0.9823
    3CHTO  H107 1059   6.571   0.871   2.486  0.2717  0.3887 -1.4901
    3CHTO   C58 1060   6.338   0.768   2.544 -0.2275 -0.2006  0.0603
    3CHTO  H115 1061   6.357   0.713   2.449  1.9134  0.2885  0.1886
    3CHTO   O37 1062   6.209   0.730   2.582 -0.6672 -0.4049 -0.7364
    3CHTO   C59 1063   6.104   0.765   2.488 -0.6613  0.0714 -0.5565
    3CHTO  H116 1064   6.112   0.708   2.395 -0.7116  0.1509 -0.6098
    3CHTO   C70 1065   5.975   0.725   2.560 -0.4251  0.8551  0.0664
    3CHTO   O46 1066   5.959   0.580   2.586 -0.1092 -0.4795 -0.1067
    3CHTO  H103 1067   5.960   0.533   2.506  0.4312 -2.6353  1.1411
    3CHTO   O39 1068   6.448   0.708   2.680 -0.2199 -0.1859  0.2334
    3CHTO   C60 1069   6.474   0.567   2.690 -0.4908 -0.1757 -0.4354
    3CHTO  H117 1070   6.536   0.553   2.779 -0.5872  1.7862 -0.0239
    3CHTO   C62 1071   6.356   0.479   2.724  0.3635  0.5963 -0.1582
    3CHTO  H119 1072   6.316   0.534   2.812 -2.6937  1.5743 -2.0727
    3CHTO   O43 1073   6.248   0.476   2.628  0.2902 -0.0487 -0.1690
    3CHTO  H101 1074   6.221   0.564   2.612 -0.8583 -0.8220 -2.9411
    3CHTO   C66 1075   6.404   0.330   2.772 -0.6976 -0.0671 -0.3379
    3CHTO  H123 1076   6.467   0.346   2.860 -1.1678 -0.3852  0.0564
    3CHTO   N12 1077   6.297   0.240   2.831  0.4989 -0.6518  0.1666
    3CHTO  H110 1078   6.227   0.232   2.749 -1.4044  1.3601  1.5650
    3CHTO  H111 1079   6.341   0.146   2.861 -1.2819 -2.3628 -2.3082
    3CHTO   C69 1080   6.488   0.260   2.666 -0.0696  0.1063 -0.0982
    3CHTO  H126 1081   6.414   0.211   2.600 -0.1611  0.0242  0.0665
    3CHTO   O41 1082   6.593   0.355   2.582 -0.1045 -0.4476  0.5487
    3CHTO   C64 1083   6.551   0.511   2.566  0.7908 -0.1704 -0.3261
    3CHTO  H121 1084   6.490   0.519   2.474  2.7593  0.5001 -1.6205
    3CHTO   C71 1085   6.688   0.582   2.536 -0.4249 -0.5117  0.5398
    3CHTO   O47 1086   6.712   0.559   2.397 -0.3711 -0.2452 -0.2139
    3CHTO  H104 1087   6.798   0.524   2.389 -1.0999 -2.9043  2.6005
    3CHTO   O34 1088   6.570   0.147   2.749 -0.5101 -0.3083  0.3655
    3CHTO   C49 1089   6.634   0.027   2.717 -0.1320  0.1127 -0.1270
    3CHTO   H91 1090   6.634   0.037   2.609  0.2606  0.5093 -0.0905
    3CHTO   C47 1091   6.537  -0.086   2.752  0.1536 -0.1027 -0.0660
    3CHTO   H89 1092   6.474  -0.084   2.661 -0.4220  4.6843  0.2981
    3CHTO   O33 1093   6.456  -0.073   2.873  0.0317  0.2924  0.3050
    3CHTO   H70 1094   6.404   0.005   2.877  0.6054  1.1843 -5.3480
    3CHTO   C45 1095   6.613  -0.226   2.766  0.4942  0.1414  0.3333
    3CHTO   H87 1096   6.644  -0.233   2.872  1.6715  0.6272  0.0242
    3CHTO    N8 1097   6.521  -0.343   2.744  1.2086 -0.5403  0.5910
    3CHTO   H75 1098   6.428  -0.319   2.794 -0.2288 -0.5210 -1.9939
    3CHTO   H76 1099   6.566  -0.424   2.800  2.8299  0.5175  0.8361
    3CHTO   C43 1100   6.737  -0.231   2.677 -0.2922  0.5506  0.2260
    3CHTO   H85 1101   6.776  -0.332   2.682 -0.0756  0.6472  0.4438
    3CHTO   O29 1102   6.832  -0.142   2.723 -0.1026 -0.3771  0.0995
    3CHTO   C50 1103   6.781  -0.012   2.772 -0.0535 -0.1703 -0.0668
    3CHTO   H92 1104   6.788  -0.010   2.882  0.3553 -0.5235 -0.0837
    3CHTO   C54 1105   6.885   0.089   2.707  0.3615  0.8908 -1.1608
    3CHTO   O36 1106   6.998   0.092   2.786 -0.5786 -0.1425 -0.2093
    3CHTO   H72 1107   7.040   0.008   2.782  0.5862  0.4550 -0.8228
    3CHTO   O27 1108   6.699  -0.208   2.533  0.1745 -0.1389 -0.0633
    3CHTO   C37 1109   6.736  -0.242   2.395 -0.3893  0.2792 -0.5538
    3CHTO   H79 1110   6.792  -0.337   2.385  1.6767  1.4202 -0.1860
    3CHTO   C38 1111   6.608  -0.240   2.317  0.9583  0.1527  0.5686
    3CHTO   H80 1112   6.542  -0.162   2.357  0.1392 -0.5446  0.6037
    3CHTO   O31 1113   6.539  -0.361   2.364 -0.2633  0.2359 -0.3843
    3CHTO   H68 1114   6.587  -0.441   2.348  0.5382 -0.5473  4.8335
    3CHTO   C39 1115   6.626  -0.228   2.164  0.2587  0.1215  0.6231
    3CHTO   H81 1116   6.677  -0.309   2.112  0.9067  0.5665  0.5638
    3CHTO    N7 1117   6.499  -0.210   2.083  0.5561 -0.2099  0.4687
    3CHTO   H73 1118   6.419  -0.187   2.152 -0.3440 -0.7254 -0.3989
    3CHTO   H74 1119   6.488  -0.297   2.020 -0.0066 -1.7626  2.6500
    3CHTO   C40 1120   6.722  -0.108   2.131  0.0568 -0.3306 -0.4927
    3CHTO   H82 1121   6.672  -0.019   2.170 -1.0451 -0.9837 -0.4181
    3CHTO   O26 1122   6.846  -0.138   2.203  0.2456 -0.3124  0.5080
    3CHTO   C41 1123   6.826  -0.125   2.348 -1.0496  0.0892  0.1357
    3CHTO   H83 1124   6.781  -0.028   2.372  2.2552  1.9294 -0.7378
    3CHTO   C52 1125   6.966  -0.142   2.417 -0.2460 -0.0297  0.1805
    3CHTO   O35 1126   7.069  -0.052   2.359 -0.4388 -0.1834 -0.0180
    3CHTO   H71 1127   7.110  -0.007   2.430 -0.4475  0.3684 -0.3669
    3CHTO   O28 1128   6.767  -0.103   1.995  0.2378  0.2878 -0.1697
    3CHTO   C42 1129   6.845  -0.007   1.912 -0.2548 -0.2632  0.1698
    3CHTO   H84 1130   6.838  -0.057   1.815 -1.5866 -0.6979  0.4891
    3CHTO   C44 1131   6.994   0.007   1.944 -0.1262  0.6594  0.3979
    3CHTO   H86 1132   7.003   0.033   2.050 -1.8541 -1.8568  1.2178
    3CHTO   O32 1133   7.051  -0.124   1.942  0.4387  0.3457  0.0490
    3CHTO   H69 1134   6.994  -0.195   1.919  0.4499 -0.0144  1.1129
    3CHTO   C48 1135   7.058   0.110   1.850  0.1768  0.1013  0.5752
    3CHTO   H90 1136   7.037   0.061   1.755 -0.1554 -0.2335  0.8211
    3CHTO    N9 1137   7.210   0.131   1.863 -0.2680 -0.1328 -0.6489
    3CHTO   H77 1138   7.231   0.159   1.966 -0.2922  0.6848 -0.8660
    3CHTO   H78 1139   7.262   0.046   1.822 -0.1827  0.7472 -2.4231
    3CHTO   C51 1140   6.973   0.237   1.847 -0.1992 -1.1931 -0.9488
    3CHTO   H93 1141   6.980   0.285   1.944  1.0100  1.1343 -2.1583
    3CHTO   O30 1142   6.838   0.214   1.807 -0.1887  0.1810 -0.4248
    3CHTO   C46 1143   6.777   0.129   1.899  0.9076  0.6895 -0.2728
    3CHTO   H88 1144   6.786   0.176   1.996 -0.9942  2.3268 -0.8558
    3CHTO   C53 1145   6.622   0.119   1.867  0.3081 -0.1816 -0.4373
    3CHTO   O72 1146   6.566   0.250   1.842  0.6812 -0.0699 -0.1203
    3CHTO  H199 1147   6.560   0.292   1.926 -2.8905  0.4047 -0.5463
    3CHTO   O22 1148   7.017   0.333   1.745  0.1757 -0.1598  0.7161
    3CHTO   C31 1149   6.970   0.471   1.769  0.1946  0.6555 -0.9299
    3CHTO   H59 1150   6.896   0.470   1.853 -0.7276  1.8120 -1.7275
    3CHTO   C29 1151   7.080   0.560   1.821 -0.2561  0.0312  0.4150
    3CHTO   H57 1152   7.159   0.556   1.744 -0.3495 -0.2055  0.3308
    3CHTO   O21 1153   7.135   0.507   1.951 -0.2301  0.5720 -0.2247
    3CHTO   H37 1154   7.223   0.475   1.947 -1.5402 -3.1547 -1.9253
    3CHTO   C27 1155   7.029   0.707   1.832 -0.8511  0.1098  0.0997
    3CHTO   H55 1156   6.960   0.717   1.918 -0.2837  1.0296  0.4542
    3CHTO    N5 1157   7.138   0.805   1.854 -0.2493  0.2856 -0.0258
    3CHTO   H43 1158   7.214   0.744   1.900 -0.9636 -0.4770  0.1503
    3CHTO   H44 1159   7.169   0.854   1.762  1.1612 -0.2500  0.1625
    3CHTO   C25 1160   6.943   0.758   1.713 -0.8345  0.1207 -0.5444
    3CHTO   H53 1161   7.005   0.781   1.625 -2.6765  0.1455 -1.8446
    3CHTO   O17 1162   6.842   0.659   1.669  0.1227 -0.7281 -0.7016
    3CHTO   C32 1163   6.890   0.527   1.649  0.4767 -0.3324 -0.2942
    3CHTO   H60 1164   6.952   0.517   1.560 -0.7837  0.8654 -1.3298
    3CHTO   C36 1165   6.768   0.442   1.611 -0.1230  0.4651 -0.2475
    3CHTO   O25 1166   6.705   0.495   1.497  0.4145 -0.6517 -0.0756
    3CHTO   H40 1167   6.705   0.589   1.491 -0.6939 -0.6423 -0.1239
    3CHTO   O15 1168   6.871   0.892   1.748 -0.2423 -0.1080 -0.1380
    3CHTO   C19 1169   6.795   0.960   1.644 -0.3399  0.4486 -1.0349
    3CHTO   H47 1170   6.818   0.894   1.559  0.1437 -0.3755 -0.2676
    3CHTO   C20 1171   6.647   0.958   1.676  0.3043  0.5803  0.3657
    3CHTO   H48 1172   6.624   1.023   1.761  1.6772 -0.0483  1.2378
    3CHTO   O19 1173   6.602   0.825   1.718 -0.1672 -0.5017  0.0529
    3CHTO   H35 1174   6.514   0.829   1.750 -0.0868 -0.3246  0.2501
    3CHTO   C21 1175   6.567   1.003   1.545 -0.0436  0.4162 -0.0688
    3CHTO   H49 1176   6.573   0.928   1.465 -2.2629  0.6207 -0.4499
    3CHTO    N4 1177   6.421   1.022   1.573  0.1674 -0.1628  0.3422
    3CHTO   H41 1178   6.375   0.938   1.622 -0.3034 -0.2785 -0.2923
    3CHTO   H42 1179   6.403   1.113   1.628  0.6970 -1.4194  2.6947
    3CHTO   C22 1180   6.625   1.136   1.486 -0.6161  0.2757 -0.2652
    3CHTO   H50 1181   6.593   1.222   1.545  1.1290  0.1803  0.8385
    3CHTO   O14 1182   6.765   1.130   1.477  0.0878  0.5593  0.0494
    3CHTO   C23 1183   6.833   1.098   1.603 -0.3475  0.3835  0.0347
    3CHTO   H51 1184   6.809   1.172   1.681  0.0071 -0.1943  0.6947
    3CHTO   C34 1185   6.983   1.113   1.574 -0.2954 -0.2120  0.7254
    3CHTO   O23 1186   7.032   1.247   1.567  0.1978  0.1550 -0.3062
    3CHTO   H38 1187   7.113   1.246   1.521 -1.0935  1.5760 -2.6924
    3CHTO   O16 1188   6.572   1.155   1.354  0.0640 -0.5856 -0.2483
    3CHTO   C24 1189   6.561   1.319   1.322  0.0852  0.1324 -0.6091
    3CHTO   H52 1190   6.612   1.379   1.398 -0.7392  0.9292 -0.6717
    3CHTO   C26 1191   6.407   1.351   1.329  0.4754 -0.0048  0.0924
    3CHTO   H54 1192   6.356   1.286   1.256  0.6618 -1.3860  1.1807
    3CHTO   O20 1193   6.350   1.328   1.463 -0.2420 -0.2186  0.1952
    3CHTO   H36 1194   6.269   1.374   1.473 -1.4747 -1.3375 -3.8535
    3CHTO   C30 1195   6.365   1.496   1.282  0.2581  0.0899  0.7532
    3CHTO   H58 1196   6.384   1.570   1.362  2.5841 -0.2442  0.5528
    3CHTO    N6 1197   6.219   1.511   1.254 -0.6089 -0.3076  0.3553
    3CHTO   H45 1198   6.158   1.425   1.277 -0.3659 -0.8146 -0.8672
    3CHTO   H46 1199   6.211   1.534   1.149 -0.8370 -2.7329 -0.1896
    3CHTO   C33 1200   6.458   1.539   1.160 -0.3439  0.2969 -0.3246
    3CHTO   H61 1201   6.421   1.483   1.073  1.6871  0.4381 -1.3059
    3CHTO   O18 1202   6.601   1.508   1.173 -0.1514  0.3262 -0.0520
    3CHTO   C28 1203   6.618   1.366   1.184 -0.5361  0.0479  0.1216
    3CHTO   H56 1204   6.562   1.320   1.102  2.4529 -1.3775 -1.2073
    3CHTO   C35 1205   6.769   1.320   1.174  0.2328  0.1535 -0.3458
    3CHTO   O24 1206   6.824   1.321   1.045  0.1415  0.0063 -0.4256
    3CHTO   H39 1207   6.903   1.270   1.046 -0.8171 -1.5361 -1.1517
    3CHTO    O9 1208   6.437   1.675   1.123 -0.3561  0.4874  0.0452
    3CHTO   C13 1209   6.511   1.780   1.211 -0.2762 -0.3226 -0.0743
    3CHTO   H26 1210   6.537   1.731   1.307  0.5232  1.3161  0.5505
    3CHTO   C11 1211   6.415   1.908   1.230  0.3736 -0.5006  0.2304
    3CHTO   H24 1212   6.333   1.879   1.298 -0.4271  0.0362 -0.5001
    3CHTO    O8 1213   6.370   1.949   1.103  0.4938  0.3140  0.0469
    3CHTO    H3 1214   6.278   1.965   1.110  0.3585  1.1718 -3.0439
    3CHTO    C9 1215   6.496   2.019   1.294  0.3386 -0.7109  0.3450
    3CHTO   H22 1216   6.528   1.976   1.390  1.0226 -3.0069 -0.8888
    3CHTO    N2 1217   6.410   2.137   1.331 -0.5480  0.7115 -0.6305
    3CHTO   H10 1218   6.346   2.158   1.247 -2.0473 -2.8918 -0.4724
    3CHTO   H11 1219   6.472   2.223   1.350  0.5568 -0.3371  0.6887
    3CHTO    C7 1220   6.621   2.062   1.212 -0.1929  0.1159 -0.2674
    3CHTO   H20 1221   6.669   2.141   1.273 -1.2965 -0.5002  1.4549
    3CHTO    O4 1222   6.708   1.949   1.196  0.2771  0.0672 -0.1262
    3CHTO   C14 1223   6.655   1.823   1.149  0.3392  0.5692 -0.1375
    3CHTO   H27 1224   6.724   1.744   1.185 -0.3836  0.2947  0.6457
    3CHTO   C18 1225   6.659   1.816   0.994 -0.1896 -0.6369  0.8558
    3CHTO   O13 1226   6.800   1.790   0.974  0.1394 -0.2627  0.1421
    3CHTO    H7 1227   6.838   1.876   0.971 -0.1587 -0.1446 -0.2252
    3CHTO    O2 1228   6.575   2.115   1.052 -0.2179  0.2447  0.4568
    3CHTO    C1 1229   6.655   2.220   0.989  0.0742 -0.6546 -0.0296
    3CHTO   H14 1230   6.623   2.224   0.883 -1.1530  0.9141  0.3889
    3CHTO    C2 1231   6.808   2.199   0.996 -0.0268  0.2329 -0.3988
    3CHTO   H15 1232   6.819   2.178   1.104 -1.7192  3.2320  0.4205
    3CHTO    O6 1233   6.846   2.085   0.921  0.1770 -0.8578  0.1812
    3CHTO    H1 1234   6.932   2.057   0.945 -0.4278 -0.4375  3.0790
    3CHTO    C3 1235   6.880   2.332   0.962  0.0365  0.2086  0.2861
    3CHTO   H16 1236   6.857   2.349   0.856  2.2836  2.4760  0.1123
    3CHTO    N1 1237   7.034   2.325   0.969 -0.1697 -1.1959  0.7950
    3CHTO    H8 1238   7.078   2.423   0.955 -1.6490 -0.4766  1.0908
    3CHTO    H9 1239   7.081   2.260   0.897 -0.0134 -0.3344  0.1091
    3CHTO    C4 1240   6.823   2.455   1.031  0.0710 -0.0517  0.1797
    3CHTO   H17 1241   6.852   2.457   1.136  0.2048  1.9815  0.1190
    3CHTO    O1 1242   6.679   2.460   1.021 -0.0230 -0.3779  0.4080
    3CHTO    C5 1243   6.610   2.347   1.067  0.1793 -0.0671  0.8984
    3CHTO   H18 1244   6.623   2.327   1.173  2.3041  0.2575  0.7123
    3CHTO   C16 1245   6.460   2.375   1.044 -1.0479  0.3732  0.0533
    3CHTO   O11 1246   6.407   2.482   1.124 -0.3805  0.3192  0.5688
    3CHTO    H5 1247   6.438   2.561   1.085 -1.5169  0.2882 -0.4345
    3CHTO    O3 1248   6.869   2.577   0.973  0.3228 -0.5195 -1.1071
    3CHTO    C6 1249   6.885   2.698   1.058  0.2269 -0.0237  0.0149
    3CHTO   H19 1250   6.799   2.717   1.121  0.2110 -2.1781  0.6787
    3CHTO    C8 1251   7.019   2.690   1.145  0.5777 -0.0760 -0.0632
    3CHTO   H21 1252   7.101   2.662   1.079  1.8914  1.5972  0.7950
    3CHTO    O7 1253   7.002   2.594   1.253 -0.0194  0.2427 -0.3269
    3CHTO    H2 1254   6.982   2.509   1.218  1.3376  0.4320 -1.6689
    3CHTO   C12 1255   7.056   2.835   1.203  0.9242  0.0340 -0.8366
    3CHTO   H25 1256   6.985   2.855   1.286  0.8987  0.9384 -1.0699
    3CHTO    N3 1257   7.195   2.836   1.262  0.1604 -0.3099  0.0429
    3CHTO   H12 1258   7.260   2.802   1.183  0.8449 -0.4022  0.6332
    3CHTO   H13 1259   7.207   2.779   1.353 -1.2845  0.6431  0.8460
    3CHTO   C15 1260   7.037   2.948   1.096 -0.1734  0.3042 -1.1769
    3CHTO   H28 1261   7.109   2.940   1.015  0.7111 -1.1068 -0.2797
    3CHTO   O10 1262   7.035   3.088   1.152 -0.2444  0.0558 -0.1615
    3CHTO    H4 1263   7.125   3.105   1.171 -0.6991 -0.2352  2.4430
    3CHTO    O5 1264   6.906   2.944   1.034 -0.1469 -0.1802 -0.1103
    3CHTO   C10 1265   6.890   2.821   0.955  0.3126  0.4419  0.1664
    3CHTO   H23 1266   6.970   2.818   0.881 -1.1307 -2.0613 -1.3896
    3CHTO   C17 1267   6.772   2.830   0.867 -0.0978 -0.1394 -0.1726
    3CHTO   O12 1268   6.778   2.938   0.774  0.1454  0.4421 -0.1610
    3CHTO    H6 1269   6.867   2.936   0.746  0.3341 -3.9155  0.4057
    4CHTO  H203 1270   5.491   7.216   0.089 -1.1320 -2.0289  0.7864
    4CHTO   O82 1271   5.461   7.240   0.174 -0.4893  0.3095  0.3930
    4CHTO  C123 1272   5.490   7.380   0.199  0.8783  0.6183 -0.6453
    4CHTO  H227 1273   5.435   7.419   0.286  0.6541 -1.2158  0.0476
    4CHTO   O77 1274   5.633   7.386   0.234 -0.6783  0.1050  0.4692
    4CHTO  C118 1275   5.671   7.523   0.271 -0.0971  0.4726  0.4307
    4CHTO  H222 1276   5.610   7.549   0.359 -1.8591 -0.1584 -0.5651
    4CHTO  C125 1277   5.827   7.518   0.314  0.4264  0.2316 -0.4831
    4CHTO   O84 1278   5.832   7.466   0.441  0.0028  1.0762  0.6813
    4CHTO  H205 1279   5.909   7.412   0.436 -0.8053 -0.2119  1.7616
    4CHTO  C114 1280   5.646   7.621   0.158  1.1997 -0.3806  0.4778
    4CHTO  H218 1281   5.705   7.595   0.070  1.2373  1.1571  0.0224
    4CHTO  C116 1282   5.504   7.623   0.109  0.0303 -1.1503 -0.0631
    4CHTO  H220 1283   5.445   7.666   0.192  0.4340  0.1645 -0.4521
    4CHTO   O79 1284   5.488   7.710  -0.002  0.2676  0.0651  0.0047
    4CHTO  H201 1285   5.410   7.698  -0.052  0.2894 -0.3940  0.0790
    4CHTO  C120 1286   5.462   7.472   0.074 -0.1598 -0.4279  0.2064
    4CHTO  H224 1287   5.534   7.454  -0.008 -1.1839  0.1836 -0.8498
    4CHTO   N21 1288   5.319   7.467   0.026 -0.3187  0.9566 -0.2853
    4CHTO  H211 1289   5.244   7.465   0.103  0.0135 -0.5144  0.0078
    4CHTO  H212 1290   5.290   7.543  -0.045  0.7433  0.8179 -0.8891
    4CHTO   O75 1291   5.683   7.758   0.203 -0.0965 -0.3032  0.2246
    4CHTO  C112 1292   5.793   7.845   0.113  0.1095 -0.5646 -0.0276
    4CHTO  H216 1293   5.793   7.803   0.011 -0.2039 -1.1471  0.2094
    4CHTO   O73 1294   5.918   7.840   0.181 -0.3045 -0.4458  0.5499
    4CHTO  C113 1295   6.023   7.915   0.115  0.0457  0.1109 -0.9080
    4CHTO  H217 1296   6.021   7.878   0.011 -3.6434 -3.7081  0.3378
    4CHTO  C124 1297   6.156   7.880   0.188 -0.4353 -0.4887  0.1194
    4CHTO   O83 1298   6.233   7.771   0.144 -0.0990 -0.0574  0.0668
    4CHTO  H204 1299   6.278   7.784   0.063 -2.1647  1.6015 -0.8994
    4CHTO  C109 1300   5.988   8.068   0.116 -0.1190 -0.0840 -0.0666
    4CHTO  H213 1301   5.977   8.093   0.222 -0.6665  0.8291 -0.3370
    4CHTO  C110 1302   5.852   8.094   0.050  0.0520 -0.0203  0.1358
    4CHTO  H214 1303   5.868   8.087  -0.057 -3.4012 -0.6449 -0.3989
    4CHTO   O78 1304   5.811   8.232   0.089 -0.0329  0.4471  0.4585
    4CHTO  H200 1305   5.718   8.232   0.077  0.0185  0.6563  0.0660
    4CHTO  C111 1306   5.746   7.994   0.105  0.4022 -0.1384 -0.0236
    4CHTO  H215 1307   5.724   8.016   0.210 -0.3944 -1.9557  0.2134
    4CHTO   N19 1308   5.618   8.008   0.028 -0.2996  0.6641 -0.2819
    4CHTO  H207 1309   5.579   8.109   0.035 -1.5778  0.0455  1.7275
    4CHTO  H208 1310   5.647   7.984  -0.073 -1.3672  0.3806 -0.5207
    4CHTO   O74 1311   6.090   8.151   0.051 -0.5450 -0.1092 -0.0380
    4CHTO  C115 1312   6.134   8.280   0.140  0.3418 -0.5689 -0.0598
    4CHTO  H219 1313   6.080   8.283   0.234 -3.5938 -1.4273 -2.1738
    4CHTO   O76 1314   6.271   8.282   0.170 -0.4267 -0.2123 -0.8773
    4CHTO  C122 1315   6.353   8.267   0.051 -0.4853  0.2289  0.8665
    4CHTO  H226 1316   6.343   8.163   0.018  0.7152  1.7317 -4.5303
    4CHTO  C126 1317   6.501   8.291   0.082 -0.2270 -0.2453 -0.9671
    4CHTO   O85 1318   6.591   8.250  -0.018 -0.2455 -0.3842 -0.2350
    4CHTO  H206 1319   6.668   8.203   0.009 -0.7556 -0.8882  0.3612
    4CHTO  C121 1320   6.314   8.351  -0.073  0.0668  0.4095 -0.1757
    4CHTO  H225 1321   6.401   8.401  -0.121  0.3924  1.4588  1.4647
    4CHTO   O81 1322   6.251   8.265  -0.166  0.2881 -0.4790  0.1885
    4CHTO  H202 1323   6.247   8.300  -0.253  1.5382 -1.6864 -0.3811
    4CHTO  C119 1324   6.213   8.463  -0.020 -0.0239  0.1616 -0.0555
    4CHTO  H223 1325   6.279   8.510   0.053  1.0427 -1.7214  0.2355
    4CHTO  C117 1326   6.089   8.405   0.051 -0.1263 -0.0393  0.7591
    4CHTO  H221 1327   6.011   8.365  -0.014 -1.6059 -0.8214  2.9757
    4CHTO   N20 1328   6.019   8.508   0.143  0.5943 -0.2160  0.2137
    4CHTO  H209 1329   5.957   8.573   0.083 -1.4898 -1.8021  0.5877
    4CHTO  H210 1330   5.963   8.452   0.217 -0.7948  0.6433 -0.1731
    4CHTO   O80 1331   6.190   8.568  -0.125 -0.7074  0.4385 -0.0678
    4CHTO  C103 1332   6.280   8.709  -0.120 -0.2157  0.2963 -0.4996
    4CHTO  H190 1333   6.233   8.769  -0.042 -0.2552 -0.2279 -0.1177
    4CHTO  C101 1334   6.441   8.705  -0.106  0.2418 -0.3749 -0.0693
    4CHTO  H188 1335   6.478   8.622  -0.166  1.5502  1.0360 -1.2297
    4CHTO   O68 1336   6.483   8.671   0.048 -0.1690  0.0704 -0.1558
    4CHTO  H168 1337   6.576   8.654   0.049 -0.5114 -1.8681  0.2180
    4CHTO   C99 1338   6.511   8.846  -0.150 -0.5780 -0.2327 -0.2128
    4CHTO  H186 1339   6.480   8.929  -0.084  2.5486  1.2172 -0.4564
    4CHTO   N17 1340   6.663   8.842  -0.148  0.2248 -0.5150  0.5534
    4CHTO  H174 1341   6.704   8.924  -0.207 -0.3381 -0.2697  0.5030
    4CHTO  H175 1342   6.702   8.749  -0.187 -0.0410  0.0777 -1.1873
    4CHTO   C97 1343   6.452   8.874  -0.294  0.4016  0.1180 -0.4512
    4CHTO  H184 1344   6.473   8.788  -0.359  2.0686  1.0315 -1.1456
    4CHTO   O64 1345   6.313   8.897  -0.274 -0.0302  0.5489 -0.1176
    4CHTO  C104 1346   6.240   8.771  -0.249  0.4996 -0.1707 -0.7649
    4CHTO  H191 1347   6.265   8.698  -0.326  2.8470 -1.7578  1.4336
    4CHTO  C108 1348   6.092   8.804  -0.272 -0.0788 -0.1434  0.1867
    4CHTO   O71 1349   6.062   8.912  -0.188  0.2200  0.1139  0.2540
    4CHTO  H171 1350   5.985   8.897  -0.136 -0.6331 -0.4781 -1.1557
    4CHTO   O62 1351   6.508   8.997  -0.351  0.6150 -0.6979 -0.1628
    4CHTO   C91 1352   6.543   8.995  -0.491  0.6213 -0.5244  0.1546
    4CHTO  H178 1353   6.557   8.891  -0.520  0.0582  0.6015 -4.4646
    4CHTO   C92 1354   6.686   9.053  -0.522  0.7761  0.2089  0.2109
    4CHTO  H179 1355   6.686   9.156  -0.484  0.3530  0.3046 -0.0449
    4CHTO   O66 1356   6.793   8.994  -0.448 -0.5920  0.0227  0.5584
    4CHTO  H166 1357   6.775   8.902  -0.446  1.4141 -0.4054  0.4927
    4CHTO   C93 1358   6.715   9.050  -0.674  0.4523  0.6821  0.2088
    4CHTO  H180 1359   6.754   8.950  -0.697  1.6298  1.1280  0.2266
    4CHTO   N16 1360   6.824   9.136  -0.714  0.3161  0.0864  0.1030
    4CHTO  H172 1361   6.904   9.118  -0.643  0.1135  1.1306  0.6097
    4CHTO  H173 1362   6.849   9.095  -0.811  2.2824  1.6538 -0.0763
    4CHTO   C94 1363   6.583   9.066  -0.767 -0.3832 -0.1049 -0.3603
    4CHTO  H181 1364   6.596   9.133  -0.852 -0.0178  0.3098  0.0187
    4CHTO   O61 1365   6.477   9.129  -0.696  0.2126 -1.0363  0.0214
    4CHTO   C95 1366   6.426   9.071  -0.577 -0.1950  0.9030  0.4499
    4CHTO  H182 1367   6.393   9.149  -0.509 -0.2776  1.9042 -0.7253
    4CHTO  C106 1368   6.296   8.975  -0.591 -0.8778  0.3413  1.0299
    4CHTO   O69 1369   6.178   9.055  -0.565  0.0573 -0.3254 -0.0231
    4CHTO  H169 1370   6.095   9.019  -0.589 -0.5607  2.7823 -2.9970
    4CHTO   O63 1371   6.522   8.925  -0.813 -0.3436  0.1515 -0.5781
    4CHTO   C96 1372   6.599   8.869  -0.945  0.2285  0.1447  0.2482
    4CHTO  H183 1373   6.701   8.908  -0.940 -0.4136  1.6168  2.5097
    4CHTO   C98 1374   6.538   8.911  -1.075 -0.1371  0.4255 -0.0520
    4CHTO  H185 1375   6.431   8.885  -1.076  0.5883 -2.9483  1.4240
    4CHTO   O67 1376   6.549   9.055  -1.080  0.8688 -0.4621 -0.3722
    4CHTO  H167 1377   6.477   9.105  -1.045  3.0995  1.0829  2.1686
    4CHTO  C102 1378   6.615   8.850  -1.199 -0.5878 -0.3216 -0.3810
    4CHTO  H189 1379   6.717   8.890  -1.190  0.5477 -3.3099  0.7251
    4CHTO   N18 1380   6.565   8.888  -1.333  0.3633 -0.2952  0.2190
    4CHTO  H176 1381   6.461   8.917  -1.335  0.1023 -1.0434  2.1029
    4CHTO  H177 1382   6.621   8.971  -1.374  1.7003 -1.3654 -0.1905
    4CHTO  C105 1383   6.622   8.698  -1.174  0.7164  0.9522 -0.5464
    4CHTO  H192 1384   6.522   8.655  -1.182  1.7104 -1.3896 -0.8373
    4CHTO   O65 1385   6.679   8.659  -1.045  0.3771 -0.1339  0.0067
    4CHTO  C100 1386   6.614   8.710  -0.933 -0.0148 -0.3194  0.2949
    4CHTO  H187 1387   6.510   8.677  -0.921 -0.0267  0.0772  1.4228
    4CHTO  C107 1388   6.696   8.675  -0.807  0.1301  0.1115 -0.0957
    4CHTO   O70 1389   6.618   8.696  -0.686  0.0345  0.3000 -0.3635
    4CHTO  H170 1390   6.551   8.632  -0.675  0.3210  0.0050 -0.3339
    4CHTO   O57 1391   6.722   8.652  -1.280  0.0069  0.0415  0.2197
    4CHTO   C85 1392   6.706   8.513  -1.331 -0.2418  0.5282 -1.4153
    4CHTO  H157 1393   6.599   8.498  -1.356 -0.6573 -0.5414  0.8950
    4CHTO   C83 1394   6.736   8.416  -1.215  0.1013 -0.2037 -0.5249
    4CHTO  H155 1395   6.655   8.435  -1.145  1.7307 -2.3064  2.0531
    4CHTO   O56 1396   6.867   8.461  -1.160  0.3298  0.1378  0.6241
    4CHTO  H135 1397   6.890   8.439  -1.071  0.1726 -0.1367  0.6011
    4CHTO   C81 1398   6.733   8.264  -1.257 -0.0423 -1.1335  0.1487
    4CHTO  H153 1399   6.630   8.246  -1.287  0.2212 -1.8043 -0.3392
    4CHTO   N14 1400   6.757   8.176  -1.139  0.0209 -0.6512  0.5558
    4CHTO  H141 1401   6.848   8.202  -1.090  0.9278  1.2568 -2.0327
    4CHTO  H142 1402   6.755   8.070  -1.156 -0.1644 -0.9066  2.0921
    4CHTO   C79 1403   6.819   8.237  -1.384  0.6521  0.0511  0.3378
    4CHTO  H151 1404   6.786   8.142  -1.428  0.3121 -0.2633  1.2607
    4CHTO   O52 1405   6.798   8.335  -1.489 -0.2850 -0.9498 -0.0794
    4CHTO   C86 1406   6.802   8.478  -1.448 -0.2451  0.5127 -0.3535
    4CHTO  H158 1407   6.910   8.498  -1.429  0.4803 -1.7918 -1.7945
    4CHTO   C90 1408   6.765   8.570  -1.571 -0.1603  0.0516  0.4764
    4CHTO   O60 1409   6.623   8.564  -1.598 -0.0478 -0.3228  0.4426
    4CHTO  H138 1410   6.574   8.532  -1.525  0.4909  1.4850  1.6306
    4CHTO   O50 1411   6.960   8.240  -1.351  0.2065  0.2752  0.7660
    4CHTO   C73 1412   7.098   8.245  -1.379 -0.2371 -0.2982  0.1307
    4CHTO  H145 1413   7.143   8.343  -1.358  2.0670 -1.5059  0.9319
    4CHTO   C74 1414   7.127   8.194  -1.528 -0.1281  0.9338 -0.4822
    4CHTO  H146 1415   7.062   8.250  -1.597  0.7089  0.9270 -1.2892
    4CHTO   O54 1416   7.265   8.232  -1.553  0.3586  0.3453  0.0294
    4CHTO  H133 1417   7.288   8.321  -1.573 -1.1808  0.5597 -0.8501
    4CHTO   C75 1418   7.104   8.037  -1.545 -0.0143  0.1166  0.3281
    4CHTO  H147 1419   6.997   8.015  -1.553  0.3314 -0.8771 -1.6704
    4CHTO   N13 1420   7.162   7.977  -1.670  0.4728 -0.2457  0.4444
    4CHTO  H139 1421   7.268   7.961  -1.661  0.4578 -0.3608  0.4225
    4CHTO  H140 1422   7.121   7.881  -1.699 -0.4075 -0.4514  2.3171
    4CHTO   C76 1423   7.153   7.956  -1.415 -0.3931 -0.7638  0.7028
    4CHTO  H148 1424   7.262   7.956  -1.411 -0.4038  0.8968  1.2296
    4CHTO   O49 1425   7.113   8.019  -1.291 -0.3735  0.5520  0.6210
    4CHTO   C77 1426   7.160   8.149  -1.281  0.0019 -0.8492  0.0901
    4CHTO  H149 1427   7.268   8.156  -1.297  0.2684  1.6503  2.5404
    4CHTO   C88 1428   7.148   8.189  -1.134 -0.8924  0.0767  0.4842
    4CHTO   O58 1429   7.212   8.076  -1.052 -0.3526 -0.7110 -0.6766
    4CHTO  H136 1430   7.152   8.004  -1.048 -0.7163 -0.3382  3.5501
    4CHTO   O51 1431   7.088   7.792  -1.419  0.4883 -0.1613  0.4012
    4CHTO   C78 1432   7.140   7.705  -1.302 -0.1685 -0.1205  0.1363
    4CHTO  H150 1433   7.168   7.774  -1.220 -0.4241  1.9447 -1.4580
    4CHTO   C80 1434   7.261   7.625  -1.349 -0.7037 -0.3108  0.7520
    4CHTO  H152 1435   7.233   7.574  -1.443 -1.0384  0.4663  0.4359
    4CHTO   O55 1436   7.373   7.712  -1.362  0.3703 -0.2338 -0.5076
    4CHTO  H134 1437   7.423   7.689  -1.438  0.1075  0.5297 -0.9185
    4CHTO   C84 1438   7.304   7.510  -1.253  0.4220  0.4797 -0.0203
    4CHTO  H156 1439   7.341   7.546  -1.156 -0.9501  2.6243 -0.2609
    4CHTO   N15 1440   7.418   7.427  -1.311 -0.0661 -0.4511 -0.2999
    4CHTO  H143 1441   7.390   7.325  -1.328 -1.2649 -0.0453 -0.8462
    4CHTO  H144 1442   7.463   7.471  -1.397  0.0966 -1.0550 -0.5255
    4CHTO   C87 1443   7.178   7.422  -1.233  0.2575 -0.8243  0.3969
    4CHTO  H159 1444   7.139   7.384  -1.327 -0.0143 -0.7418  0.4779
    4CHTO   O53 1445   7.072   7.516  -1.161  0.6691  0.1576 -0.0884
    4CHTO   C82 1446   7.021   7.614  -1.252  0.8229 -0.0292 -0.0845
    4CHTO  H154 1447   6.975   7.567  -1.339  1.0844 -0.6112  0.0861
    4CHTO   C89 1448   6.917   7.701  -1.189 -0.3056  0.0610 -0.1784
    4CHTO   O59 1449   6.828   7.609  -1.123  0.0130  0.1359 -0.0083
    4CHTO  H137 1450   6.793   7.655  -1.048  0.8967  1.8338 -0.6030
    4CHTO   O45 1451   7.212   7.297  -1.125  0.1297 -0.4961  0.1734
    4CHTO   C67 1452   7.169   7.169  -1.180  0.1561 -0.0182  0.4543
    4CHTO  H124 1453   7.167   7.175  -1.289  0.0264 -0.3154  0.4397
    4CHTO   C65 1454   7.267   7.040  -1.138  0.7412 -0.3944  0.4894
    4CHTO  H122 1455   7.367   7.081  -1.151  1.3680 -1.6845  1.1341
    4CHTO   O44 1456   7.243   6.929  -1.219 -0.4327  0.0484  0.1975
    4CHTO  H102 1457   7.225   6.956  -1.307 -3.9216  0.0057  0.8233
    4CHTO   C63 1458   7.249   7.019  -0.983  0.6854 -0.5419 -0.3157
    4CHTO  H120 1459   7.274   7.112  -0.933  2.2179 -0.1149 -1.8350
    4CHTO   N11 1460   7.356   6.929  -0.925  0.2951  0.2048 -0.2976
    4CHTO  H108 1461   7.365   6.911  -0.820  0.1509 -0.7571 -0.4512
    4CHTO  H109 1462   7.451   6.961  -0.963  0.5647 -1.4405 -1.0345
    4CHTO   C61 1463   7.095   6.990  -0.939  0.4461  0.1509 -0.1170
    4CHTO  H118 1464   7.093   7.011  -0.832  1.4222  1.8439 -0.4098
    4CHTO   O40 1465   6.998   7.085  -1.002  0.1538 -0.1653  0.7592
    4CHTO   C68 1466   7.022   7.135  -1.143 -0.2760 -0.3747  0.2241
    4CHTO  H125 1467   6.971   7.233  -1.151 -1.0837 -0.8649 -0.6287
    4CHTO   C72 1468   6.953   7.032  -1.244  0.2482 -0.5637 -0.0298
    4CHTO   O48 1469   6.811   7.013  -1.237 -0.0635  0.3747 -0.5005
    4CHTO  H105 1470   6.789   6.937  -1.288  3.1416  0.2979 -1.9018
    4CHTO   O38 1471   7.054   6.852  -0.964  0.0708  0.5926  0.1518
    4CHTO   C55 1472   6.979   6.789  -0.856 -0.1254  0.0795 -0.5937
    4CHTO  H112 1473   6.963   6.859  -0.773 -0.6558 -0.9388  0.1718
    4CHTO   C56 1474   7.055   6.660  -0.811 -0.1919 -0.5269 -0.8097
    4CHTO  H113 1475   7.055   6.592  -0.898 -0.5965 -1.4370 -0.1183
    4CHTO   O42 1476   7.193   6.679  -0.777  0.1714  0.4210 -0.4647
    4CHTO  H100 1477   7.221   6.594  -0.750 -0.2181 -0.3297 -2.2955
    4CHTO   C57 1478   6.983   6.591  -0.691 -1.0001  0.0489 -0.3302
    4CHTO  H114 1479   6.993   6.643  -0.596  0.2011 -0.6041 -0.0832
    4CHTO   N10 1480   7.031   6.454  -0.659 -0.3119 -0.4819 -0.2294
    4CHTO  H106 1481   7.012   6.428  -0.556 -0.8447  1.3285  0.1408
    4CHTO  H107 1482   6.967   6.389  -0.717 -1.3782 -2.0082  2.5473
    4CHTO   C58 1483   6.832   6.571  -0.718  0.0420 -1.0072 -0.4945
    4CHTO  H115 1484   6.815   6.491  -0.793 -3.4898 -0.3580 -0.4334
    4CHTO   O37 1485   6.776   6.695  -0.767 -0.3151 -0.1634 -0.5518
    4CHTO   C59 1486   6.834   6.733  -0.887  0.4561 -0.3575  0.3037
    4CHTO  H116 1487   6.841   6.652  -0.961  0.2919  0.8466 -1.0576
    4CHTO   C70 1488   6.741   6.843  -0.948 -0.3751  0.4258  0.3608
    4CHTO   O46 1489   6.630   6.775  -1.002  0.4481  0.7793 -0.5938
    4CHTO  H103 1490   6.616   6.783  -1.094  0.9871 -0.6316 -0.8238
    4CHTO   O39 1491   6.748   6.528  -0.583  0.1212  0.2916  0.2680
    4CHTO   C60 1492   6.626   6.464  -0.615 -0.7711 -0.4486 -0.1554
    4CHTO  H117 1493   6.589   6.503  -0.710  2.7838  1.6522 -0.7697
    4CHTO   C62 1494   6.645   6.305  -0.622 -0.6553 -0.3008  0.3470
    4CHTO  H119 1495   6.726   6.284  -0.696 -0.6478  2.3027 -0.4404
    4CHTO   O43 1496   6.697   6.257  -0.495  0.3153 -0.1089 -0.2962
    4CHTO  H101 1497   6.702   6.164  -0.494  1.9662 -0.0384  0.3237
    4CHTO   C66 1498   6.506   6.238  -0.675 -0.1833  0.3905 -0.0933
    4CHTO  H123 1499   6.483   6.279  -0.774  2.3521  1.0870 -0.4129
    4CHTO   N12 1500   6.502   6.091  -0.698 -0.8091  0.2837 -0.1921
    4CHTO  H110 1501   6.564   6.064  -0.782 -0.2410  0.3708  0.1885
    4CHTO  H111 1502   6.539   6.040  -0.610  1.6052  0.1696 -1.2446
    4CHTO   C69 1503   6.394   6.277  -0.580  0.2040  0.7235  0.0813
    4CHTO  H126 1504   6.423   6.227  -0.485  0.1804  0.9756  0.2213
    4CHTO   O41 1505   6.388   6.427  -0.554 -0.1976 -0.4134  0.0742
    4CHTO   C64 1506   6.522   6.495  -0.508  0.3214 -0.0181  0.5632
    4CHTO  H121 1507   6.553   6.451  -0.411  1.1704  0.3257  0.4514
    4CHTO   C71 1508   6.495   6.645  -0.487  0.1491  0.2818 -0.7263
    4CHTO   O47 1509   6.611   6.718  -0.450 -0.9228 -0.0238 -0.2485
    4CHTO  H104 1510   6.611   6.797  -0.500 -2.2377  0.5903  0.7115
    4CHTO   O34 1511   6.262   6.229  -0.635  0.5308 -0.1584 -0.5294
    4CHTO   C49 1512   6.130   6.264  -0.662  0.1880 -0.3364 -0.5074
    4CHTO   H91 1513   6.086   6.289  -0.566 -0.2807 -2.0046 -0.2757
    4CHTO   C47 1514   6.055   6.144  -0.729  0.2544  0.7851  0.2945
    4CHTO   H89 1515   5.952   6.183  -0.729 -0.0889  0.0398 -3.1071
    4CHTO   O33 1516   6.066   6.025  -0.650  0.4133 -0.6272 -0.0787
    4CHTO   H70 1517   5.977   5.995  -0.645  0.6710 -1.3203  0.4041
    4CHTO   C45 1518   6.112   6.120  -0.882  0.2500  0.0829  0.4457
    4CHTO   H87 1519   6.182   6.035  -0.884  0.7032  0.4649  0.1094
    4CHTO    N8 1520   5.992   6.084  -0.960  0.1175  0.2637  0.1285
    4CHTO   H75 1521   6.025   6.062  -1.060 -1.0527 -0.1606 -0.1811
    4CHTO   H76 1522   5.944   5.997  -0.918  3.0804 -1.4042  0.1342
    4CHTO   C43 1523   6.198   6.243  -0.929 -0.3042  0.2475 -0.4208
    4CHTO   H85 1524   6.297   6.243  -0.884  0.1547  3.6876 -1.3367
    4CHTO   O29 1525   6.130   6.367  -0.895 -0.5288 -0.0235  0.2298
    4CHTO   C50 1526   6.124   6.389  -0.751 -0.3677 -1.3712  0.0435
    4CHTO   H92 1527   6.204   6.458  -0.717  0.7833 -3.0753  0.8442
    4CHTO   C54 1528   5.998   6.470  -0.729 -0.2347 -0.1760  0.3686
    4CHTO   O36 1529   6.005   6.599  -0.784  0.1615  0.4318  0.5885
    4CHTO   H72 1530   5.943   6.652  -0.738  0.2499  0.2615  0.9043
    4CHTO   O27 1531   6.238   6.235  -1.073  0.3121 -0.0228 -0.0697
    4CHTO   C37 1532   6.367   6.218  -1.130 -0.0596 -0.4595  0.1577
    4CHTO   H79 1533   6.361   6.230  -1.239  1.0480 -1.3939 -0.0121
    4CHTO   C38 1534   6.478   6.318  -1.078  0.3055  0.0902  0.4629
    4CHTO   H80 1535   6.479   6.313  -0.968 -0.8102 -2.2576  0.3811
    4CHTO   O31 1536   6.437   6.446  -1.127  0.5993  0.3763 -0.2127
    4CHTO   H68 1537   6.384   6.498  -1.071 -1.3595 -0.2569 -1.4217
    4CHTO   C39 1538   6.622   6.276  -1.128  0.7603  0.4297  0.7767
    4CHTO   H81 1539   6.630   6.285  -1.236 -3.0888 -0.3970  0.3467
    4CHTO    N7 1540   6.723   6.371  -1.077  0.6302 -0.8131  0.0362
    4CHTO   H73 1541   6.707   6.408  -0.976  0.5217  2.0240 -0.9633
    4CHTO   H74 1542   6.826   6.343  -1.094  1.8470  2.9532  0.5561
    4CHTO   C40 1543   6.642   6.127  -1.078  0.1234 -0.1495 -0.3422
    4CHTO   H82 1544   6.647   6.126  -0.969 -1.3091 -1.3626 -0.2801
    4CHTO   O26 1545   6.537   6.038  -1.129  0.4096  0.4275 -0.2828
    4CHTO   C41 1546   6.398   6.068  -1.099  0.3365 -0.4518 -0.6356
    4CHTO   H83 1547   6.380   6.040  -0.995 -1.5100  0.4241 -0.7054
    4CHTO   C52 1548   6.315   5.982  -1.190 -0.1865 -0.0084 -0.7155
    4CHTO   O35 1549   6.346   5.847  -1.167 -0.0656  0.4558 -0.3039
    4CHTO   H71 1550   6.277   5.819  -1.110  1.7034 -1.5078  0.9208
    4CHTO   O28 1551   6.759   6.067  -1.128  0.0883 -0.4219  0.1813
    4CHTO   C42 1552   6.859   6.008  -1.038  0.2590 -0.0063  1.2457
    4CHTO   H84 1553   6.899   5.929  -1.101 -1.5130  1.2480 -1.5713
    4CHTO   C44 1554   6.802   5.933  -0.901  0.3474  0.2528  0.7282
    4CHTO   H86 1555   6.741   6.005  -0.847  1.7298  2.0603 -0.0736
    4CHTO   O32 1556   6.731   5.823  -0.951  0.4816  0.5560  0.4719
    4CHTO   H69 1557   6.652   5.806  -0.903 -0.1103  0.9943 -0.3289
    4CHTO   C48 1558   6.906   5.889  -0.793  0.2341  0.7631 -0.5573
    4CHTO   H90 1559   6.969   5.815  -0.841 -0.0706  1.7958 -2.6000
    4CHTO    N9 1560   6.859   5.822  -0.666 -0.7156 -0.5127 -1.0325
    4CHTO   H77 1561   6.753   5.806  -0.668 -0.9215  0.6733 -0.1705
    4CHTO   H78 1562   6.895   5.885  -0.586 -2.6904 -0.3334 -0.2730
    4CHTO   C51 1563   7.000   6.012  -0.770  0.1033 -0.5013 -0.6872
    4CHTO   H93 1564   6.949   6.101  -0.732 -0.4199 -1.1179  0.0610
    4CHTO   O30 1565   7.066   6.037  -0.893 -0.9855  0.0199 -0.5117
    4CHTO   C46 1566   6.978   6.097  -0.993  0.4357  0.7247 -0.3212
    4CHTO   H88 1567   6.945   6.195  -0.959 -0.5601 -0.1018  1.1557
    4CHTO   C53 1568   7.073   6.119  -1.108 -0.0845 -0.7344  0.0663
    4CHTO   O72 1569   7.010   6.175  -1.219  0.1914 -0.2329  0.1336
    4CHTO  H199 1570   7.074   6.214  -1.276 -0.0366 -2.6109 -1.8596
    4CHTO   O22 1571   7.113   5.983  -0.681 -0.4446 -0.5546  0.2813
    4CHTO   C31 1572   7.170   6.074  -0.584  0.6473 -0.3892  0.5112
    4CHTO   H59 1573   7.165   6.176  -0.628  1.3818 -1.7096 -2.7806
    4CHTO   C29 1574   7.093   6.085  -0.449  0.1536  0.2636  0.0774
    4CHTO   H57 1575   7.076   5.984  -0.411  1.1076  0.2761  0.5713
    4CHTO   O21 1576   6.953   6.118  -0.474  0.4293 -0.0808 -0.1999
    4CHTO   H37 1577   6.917   6.097  -0.557  0.2403 -1.5147  0.2313
    4CHTO   C27 1578   7.167   6.172  -0.343  0.4331 -0.0317  0.4138
    4CHTO   H55 1579   7.155   6.277  -0.374 -2.1450 -0.1786  0.8366
    4CHTO    N5 1580   7.111   6.151  -0.202  0.4410 -0.0864  0.0254
    4CHTO   H43 1581   7.005   6.133  -0.209  0.5774 -1.8675  1.9266
    4CHTO   H44 1582   7.149   6.058  -0.162  1.1036 -0.9417 -2.5348
    4CHTO   C25 1583   7.326   6.147  -0.340  0.2926  0.4047  0.2878
    4CHTO   H53 1584   7.364   6.050  -0.303  4.5752  0.9705 -2.2903
    4CHTO   O17 1585   7.385   6.149  -0.475  0.4281  0.1253  0.1625
    4CHTO   C32 1586   7.328   6.047  -0.556  0.3639  0.0434 -0.3791
    4CHTO   H60 1587   7.339   5.951  -0.505 -1.6791 -0.8837 -1.6308
    4CHTO   C36 1588   7.403   6.041  -0.691  0.1138 -0.6884  0.4892
    4CHTO   O25 1589   7.524   5.982  -0.670 -0.0009  0.1185 -0.0059
    4CHTO   H40 1590   7.592   6.041  -0.641 -0.6777  1.8880 -1.8332
    4CHTO   O15 1591   7.411   6.262  -0.243  0.0536  0.4320 -0.3732
    4CHTO   C19 1592   7.400   6.400  -0.224  0.2283  0.6346  0.5491
    4CHTO   H47 1593   7.501   6.436  -0.200  0.3052  1.2945 -0.7108
    4CHTO   C20 1594   7.350   6.475  -0.357 -0.1462  0.0810 -0.4831
    4CHTO   H48 1595   7.245   6.453  -0.381 -1.5389  2.8176  2.7730
    4CHTO   O19 1596   7.445   6.431  -0.461  0.1194  0.4559  0.4824
    4CHTO   H35 1597   7.416   6.462  -0.545  0.1099 -1.2849 -0.1770
    4CHTO   C21 1598   7.350   6.625  -0.334  0.3234  0.0305 -0.2857
    4CHTO   H49 1599   7.450   6.654  -0.303  0.7014  1.6018 -2.8652
    4CHTO    N4 1600   7.316   6.704  -0.459  0.1969 -0.4803  0.2751
    4CHTO   H41 1601   7.319   6.809  -0.434 -3.0748  0.0846 -1.4139
    4CHTO   H42 1602   7.217   6.678  -0.494  0.4713 -0.3123 -0.6511
    4CHTO   C22 1603   7.255   6.662  -0.209 -0.4641  1.1237 -0.7431
    4CHTO   H50 1604   7.159   6.618  -0.235 -0.3199  0.5846 -0.3639
    4CHTO   O14 1605   7.305   6.585  -0.097  0.6542 -0.5219 -0.0997
    4CHTO   C23 1606   7.306   6.442  -0.112 -0.3791  0.3161 -0.2491
    4CHTO   H51 1607   7.202   6.416  -0.134 -1.2842  2.7909  0.9979
    4CHTO   C34 1608   7.357   6.387   0.027 -0.0419  0.4280  0.3633
    4CHTO   O23 1609   7.324   6.247   0.036  0.3564 -0.1128  0.0120
    4CHTO   H38 1610   7.367   6.202   0.106 -0.8101  1.4768  1.7995
    4CHTO   O16 1611   7.249   6.803  -0.181  0.9009  0.4664  0.2543
    4CHTO   C24 1612   7.099   6.866  -0.176 -0.7139 -0.2271 -0.0421
    4CHTO   H52 1613   7.053   6.863  -0.275  0.9552 -0.8090 -0.8043
    4CHTO   C26 1614   7.102   7.026  -0.147 -0.7723  0.3990 -0.0890
    4CHTO   H54 1615   7.161   7.079  -0.224 -2.6574 -0.3015 -2.0948
    4CHTO   O20 1616   6.976   7.078  -0.182  0.3649 -0.1168 -0.4592
    4CHTO   H36 1617   6.978   7.169  -0.159  1.4056 -0.5329  1.1802
    4CHTO   C30 1618   7.137   7.042   0.002  0.4069  0.1219 -0.0468
    4CHTO   H58 1619   7.081   7.127   0.043  1.3872  1.0297 -0.5548
    4CHTO    N6 1620   7.282   7.078   0.008 -0.0883 -0.7180  0.5864
    4CHTO   H45 1621   7.293   7.181   0.039 -0.4846 -0.9178  1.3998
    4CHTO   H46 1622   7.325   7.012   0.082 -2.1232 -1.3880  1.2129
    4CHTO   C33 1623   7.099   6.921   0.091 -0.4029 -0.0121 -0.5810
    4CHTO   H61 1624   7.180   6.846   0.086  0.9173  1.3751 -0.3468
    4CHTO   O18 1625   6.976   6.866   0.033  0.0634 -0.4013 -0.6607
    4CHTO   C28 1626   7.003   6.792  -0.083 -0.5898 -0.3158 -0.2981
    4CHTO   H56 1627   7.054   6.705  -0.041 -1.2350 -0.1186  0.9275
    4CHTO   C35 1628   6.868   6.762  -0.159 -0.0289  0.2715  0.5012
    4CHTO   O24 1629   6.774   6.877  -0.158  0.4796 -0.0293 -0.3830
    4CHTO   H39 1630   6.786   6.935  -0.231 -0.3491  0.0118 -0.4884
    4CHTO    O9 1631   7.082   6.957   0.231 -0.1473 -0.4221  0.0503
    4CHTO   C13 1632   7.176   6.886   0.315  0.0302  1.0470  0.2888
    4CHTO   H26 1633   7.278   6.886   0.272  0.5176  0.9541  1.4299
    4CHTO   C11 1634   7.117   6.738   0.333  0.2672 -0.4343 -0.2125
    4CHTO   H24 1635   7.116   6.685   0.237  2.2108  1.8958 -1.5662
    4CHTO    O8 1636   6.982   6.754   0.373  0.1081  0.4349  0.8230
    4CHTO    H3 1637   6.970   6.813   0.445 -0.0832 -1.4916  2.4203
    4CHTO    C9 1638   7.206   6.668   0.435  0.0665  0.2550 -0.1200
    4CHTO   H22 1639   7.306   6.671   0.389  1.1033 -0.6656  2.0300
    4CHTO    N2 1640   7.175   6.523   0.455 -0.1576  0.0438  0.3746
    4CHTO   H10 1641   7.126   6.516   0.551 -0.7106  1.1133  0.1727
    4CHTO   H11 1642   7.103   6.488   0.383 -1.6516  2.0901  0.8291
    4CHTO    C7 1643   7.225   6.753   0.571 -0.0143  0.6689  1.0591
    4CHTO   H20 1644   7.335   6.770   0.573  0.3316 -0.8038 -1.7062
    4CHTO    O4 1645   7.149   6.872   0.570  0.1735  0.9998 -0.4000
    4CHTO   C14 1646   7.190   6.953   0.460  0.0094 -0.1790  0.1081
    4CHTO   H27 1647   7.298   6.969   0.481 -0.4985  0.3771  2.4309
    4CHTO   C18 1648   7.123   7.092   0.483 -0.6436  0.0052  0.7739
    4CHTO   O13 1649   7.174   7.171   0.375 -0.4463 -1.2234  0.6116
    4CHTO    H7 1650   7.119   7.156   0.301  0.1200 -0.2781 -0.0097
    4CHTO    O2 1651   7.187   6.658   0.719 -0.1933  0.1093  0.1639
    4CHTO    C1 1652   7.200   6.721   0.842  0.3926  0.0215 -0.3813
    4CHTO   H14 1653   7.158   6.824   0.831  0.8586  0.2171 -0.3150
    4CHTO    C2 1654   7.354   6.740   0.881  0.0273 -0.2002 -0.9180
    4CHTO   H15 1655   7.378   6.633   0.871  1.7513  0.2810 -2.2094
    4CHTO    O6 1656   7.427   6.826   0.793 -0.7589 -0.0871 -0.4174
    4CHTO    H1 1657   7.399   6.915   0.805 -1.7461 -0.3472 -0.7155
    4CHTO    C3 1658   7.363   6.782   1.030  0.6126  0.2746  0.0785
    4CHTO   H16 1659   7.321   6.883   1.043 -0.2093 -0.1922  1.1235
    4CHTO    N1 1660   7.505   6.783   1.082  0.2488 -0.4289  0.0398
    4CHTO    H8 1661   7.489   6.822   1.182 -1.9831 -1.6348  0.2020
    4CHTO    H9 1662   7.559   6.857   1.026  0.5711 -1.0612 -0.4773
    4CHTO    C4 1663   7.272   6.678   1.111 -0.0332 -0.3400  0.1763
    4CHTO   H17 1664   7.303   6.577   1.084 -2.9742 -0.6228 -2.3227
    4CHTO    O1 1665   7.134   6.694   1.065  0.1248  0.1539 -0.8883
    4CHTO    C5 1666   7.112   6.640   0.939 -0.5820 -0.7745  0.4435
    4CHTO   H18 1667   7.137   6.534   0.933 -1.3368 -1.1189  3.1045
    4CHTO   C16 1668   6.962   6.649   0.894  0.1057 -0.0808  0.5030
    4CHTO   O11 1669   6.926   6.577   0.771 -0.0041  0.6190 -0.2111
    4CHTO    H5 1670   6.858   6.514   0.786  2.5884 -2.1055  0.5346
    4CHTO    O3 1671   7.285   6.691   1.254 -0.0862 -0.0960 -0.0388
    4CHTO    C6 1672   7.279   6.576   1.344  0.0354  0.3731 -0.4674
    4CHTO   H19 1673   7.257   6.487   1.285  0.3075  0.2131 -0.3232
    4CHTO    C8 1674   7.401   6.566   1.427 -0.4189  0.1098  0.0169
    4CHTO   H21 1675   7.412   6.657   1.486 -0.3089 -0.9824  1.7108
    4CHTO    O7 1676   7.511   6.554   1.332  0.4878  0.1626 -0.6135
    4CHTO    H2 1677   7.496   6.477   1.281 -1.3448  0.1311 -0.0427
    4CHTO   C12 1678   7.389   6.453   1.539  0.0496 -0.1279  0.7680
    4CHTO   H25 1679   7.364   6.358   1.487  0.8155 -0.2785  0.6793
    4CHTO    N3 1680   7.518   6.434   1.613  0.3052  0.5535  0.4107
    4CHTO   H12 1681   7.581   6.354   1.579 -1.3027 -1.1651  1.3850
    4CHTO   H13 1682   7.507   6.432   1.721 -3.6757 -0.6577  0.0690
    4CHTO   C15 1683   7.272   6.483   1.626  0.2503  0.7230 -0.4586
    4CHTO   H28 1684   7.288   6.572   1.687 -0.1099 -0.1597  0.9551
    4CHTO   O10 1685   7.244   6.367   1.740 -1.0000  0.2955  0.3279
    4CHTO    H4 1686   7.282   6.382   1.824 -0.3923  0.1799  0.0786
    4CHTO    O5 1687   7.153   6.488   1.543 -0.5592 -0.4296  0.0855
    4CHTO   C10 1688   7.153   6.589   1.434  0.2157 -0.1649 -0.3318
    4CHTO   H23 1689   7.162   6.686   1.482  1.6368  1.7724 -4.3124
    4CHTO   C17 1690   7.017   6.588   1.364  0.1753  0.2765  0.1390
    4CHTO   O12 1691   6.906   6.656   1.428  0.2039 -0.0345 -0.9430
    4CHTO    H6 1692   6.863   6.604   1.494 -0.3213  0.5781 -0.7899
    5CHTO  H203 1693   7.464   3.605   2.115 -0.9793 -0.7484  1.0780
    5CHTO   O82 1694   7.483   3.653   2.194 -0.1534 -0.4413  0.6973
    5CHTO  C123 1695   7.400   3.612   2.311 -0.4354  0.7824 -0.3368
    5CHTO  H227 1696   7.462   3.627   2.401  2.0989  1.6967 -2.1661
    5CHTO   O77 1697   7.302   3.718   2.301  0.6421  0.2706 -0.1361
    5CHTO  C118 1698   7.218   3.725   2.415 -0.0776 -0.5402  0.7555
    5CHTO  H222 1699   7.273   3.741   2.509  1.7428 -0.4605 -0.3027
    5CHTO  C125 1700   7.132   3.846   2.397  0.5759 -1.2309 -0.1848
    5CHTO   O84 1701   7.205   3.964   2.408 -0.3355 -0.8103  0.0086
    5CHTO  H205 1702   7.240   3.960   2.496  1.9371  1.5411 -0.7403
    5CHTO  C114 1703   7.145   3.593   2.433  0.0511  1.3781 -0.5621
    5CHTO  H218 1704   7.077   3.576   2.350  1.4034 -0.3394 -1.3695
    5CHTO  C116 1705   7.236   3.460   2.431  0.2022  0.2849  0.7587
    5CHTO  H220 1706   7.275   3.441   2.533 -0.4547  1.9056  1.3148
    5CHTO   O79 1707   7.167   3.331   2.419 -0.7600 -0.4239 -0.2030
    5CHTO  H201 1708   7.121   3.289   2.489  0.1405 -1.3535 -0.1437
    5CHTO  C120 1709   7.335   3.474   2.305  0.1821  0.4430  0.4602
    5CHTO  H224 1710   7.267   3.453   2.219 -2.6997  0.2420  2.7158
    5CHTO   N21 1711   7.436   3.365   2.299  0.4770  0.2353 -0.7217
    5CHTO  H211 1712   7.399   3.285   2.237 -1.5943  0.8038 -0.2716
    5CHTO  H212 1713   7.463   3.337   2.400  0.8079  0.9602 -0.6023
    5CHTO   O75 1714   7.072   3.603   2.552 -0.4512 -0.9859 -0.2196
    5CHTO  C112 1715   6.908   3.582   2.530 -0.3512  0.1913 -0.2227
    5CHTO  H216 1716   6.893   3.519   2.442  0.8253  0.6516 -0.7653
    5CHTO   O73 1717   6.851   3.713   2.510 -0.5208 -0.3283 -0.5022
    5CHTO  C113 1718   6.705   3.712   2.487 -0.5867 -0.1609  0.1045
    5CHTO  H217 1719   6.680   3.638   2.408  0.5970 -1.8026  1.2369
    5CHTO  C124 1720   6.666   3.849   2.438 -0.1550  0.3041  0.0891
    5CHTO   O83 1721   6.535   3.855   2.382  0.1092 -0.3704  0.1100
    5CHTO  H204 1722   6.469   3.841   2.447 -0.3006  2.2236  0.3131
    5CHTO  C109 1723   6.642   3.679   2.623  0.4849  0.1040  0.1460
    5CHTO  H213 1724   6.660   3.760   2.695  0.6866  0.4409 -0.2820
    5CHTO  C110 1725   6.693   3.539   2.671  0.4219 -1.0614  0.6520
    5CHTO  H214 1726   6.639   3.460   2.620 -0.4431  0.2596 -0.4799
    5CHTO   O78 1727   6.652   3.542   2.815  0.4107  0.6969  0.5733
    5CHTO  H200 1728   6.707   3.604   2.859  0.6438  0.2237  0.9546
    5CHTO  C111 1729   6.851   3.522   2.658 -0.0176  0.2500  0.3278
    5CHTO  H215 1730   6.897   3.569   2.746 -2.3380 -0.6337  2.0680
    5CHTO   N19 1731   6.881   3.374   2.667  0.2546 -0.0473 -0.5782
    5CHTO  H207 1732   6.935   3.336   2.581  0.7094 -0.0786 -0.2776
    5CHTO  H208 1733   6.960   3.367   2.740  1.4935 -0.3601 -1.9166
    5CHTO   O74 1734   6.496   3.661   2.611 -0.1111 -0.0616  0.1175
    5CHTO  C115 1735   6.385   3.764   2.672 -0.4969 -0.0409 -0.0945
    5CHTO  H219 1736   6.431   3.849   2.724  1.8085 -0.8061 -0.8374
    5CHTO   O76 1737   6.304   3.828   2.566 -0.2119  0.4048 -0.4316
    5CHTO  C122 1738   6.245   3.731   2.473  0.2487  0.1310  0.1420
    5CHTO  H226 1739   6.330   3.711   2.407 -0.8857  1.5608 -1.8025
    5CHTO  C126 1740   6.132   3.789   2.380 -0.0961  0.0556 -0.4995
    5CHTO   O85 1741   6.039   3.875   2.446 -0.0370 -0.4423 -0.0250
    5CHTO  H206 1742   6.012   3.936   2.380  1.2568  1.0443  0.7917
    5CHTO  C121 1743   6.191   3.602   2.546  0.7641 -0.4032  0.7459
    5CHTO  H225 1744   6.092   3.583   2.499  0.9790 -0.4357  0.3062
    5CHTO   O81 1745   6.280   3.490   2.522 -0.2785  0.7776 -0.0086
    5CHTO  H202 1746   6.239   3.415   2.482 -0.3861  0.4480  0.7184
    5CHTO  C119 1747   6.171   3.627   2.698 -0.0288  0.6585 -1.3562
    5CHTO  H223 1748   6.093   3.703   2.692  1.7013  2.6907  0.9929
    5CHTO  C117 1749   6.297   3.679   2.771  0.2598 -0.1312 -0.4637
    5CHTO  H221 1750   6.373   3.611   2.810  0.0692  0.2446  0.5930
    5CHTO   N20 1751   6.270   3.756   2.893  0.8707  0.6792  0.0549
    5CHTO  H209 1752   6.201   3.837   2.875  0.6076  0.6961  1.1391
    5CHTO  H210 1753   6.367   3.790   2.927  1.0313 -1.0677  1.4049
    5CHTO   O80 1754   6.098   3.504   2.790 -0.4605 -0.3796 -0.6140
    5CHTO  C103 1755   5.984   3.428   2.728 -0.5194  0.1973 -0.3117
    5CHTO  H190 1756   5.966   3.467   2.628  0.0433 -0.4403 -0.6665
    5CHTO  C101 1757   6.006   3.270   2.724  0.7824 -0.8971 -0.8078
    5CHTO  H188 1758   6.032   3.230   2.821  0.7759  0.0765 -0.3972
    5CHTO   O68 1759   6.118   3.235   2.621  0.5139  0.0876 -0.1586
    5CHTO  H168 1760   6.128   3.299   2.553  0.6718 -0.3477 -0.5466
    5CHTO   C99 1761   5.871   3.194   2.680 -0.3392 -0.0072 -0.6100
    5CHTO  H186 1762   5.853   3.218   2.573 -1.1006  0.3920 -0.3960
    5CHTO   N17 1763   5.877   3.043   2.700 -0.3947  0.0427 -0.1980
    5CHTO  H174 1764   5.976   3.002   2.712 -0.7686 -0.5456  0.9852
    5CHTO  H175 1765   5.829   2.988   2.620 -0.6629 -0.7209  0.4757
    5CHTO   C97 1766   5.747   3.255   2.757 -0.0297 -0.0757 -0.6601
    5CHTO  H184 1767   5.750   3.216   2.859 -0.1674  0.2723 -0.5228
    5CHTO   O64 1768   5.741   3.398   2.760 -0.3646  0.0006 -0.2532
    5CHTO  C104 1769   5.856   3.464   2.810 -0.6822 -0.0109 -0.0777
    5CHTO  H191 1770   5.870   3.434   2.914  0.7828  2.1266  0.3904
    5CHTO  C108 1771   5.831   3.615   2.819 -0.8128  1.3425  0.5443
    5CHTO   O71 1772   5.842   3.685   2.695  0.1949 -0.2666 -0.2062
    5CHTO  H171 1773   5.934   3.696   2.681 -0.2351  1.9220 -1.5643
    5CHTO   O62 1774   5.627   3.217   2.684  0.3031 -0.4312  0.1808
    5CHTO   C91 1775   5.500   3.247   2.753 -0.3370 -0.0458  0.1986
    5CHTO  H178 1776   5.519   3.331   2.821  0.1630  2.2851 -2.6942
    5CHTO   C92 1777   5.461   3.122   2.831 -0.0516  0.4503 -0.5285
    5CHTO  H179 1778   5.546   3.092   2.894  0.1044  1.3413 -0.3079
    5CHTO   O66 1779   5.363   3.171   2.923  0.3237  0.5203  0.6771
    5CHTO  H166 1780   5.326   3.096   2.967  1.4611 -0.8609 -0.6357
    5CHTO   C93 1781   5.398   3.006   2.740  0.1409 -0.1562  1.0398
    5CHTO  H180 1782   5.341   2.937   2.805 -1.9314 -1.0480 -1.6527
    5CHTO   N16 1783   5.506   2.917   2.682  0.5499 -0.5456  0.0218
    5CHTO  H172 1784   5.609   2.922   2.717  0.6909 -1.0636 -0.3114
    5CHTO  H173 1785   5.478   2.813   2.692  2.0597 -0.8418  1.6361
    5CHTO   C94 1786   5.301   3.057   2.630 -0.4668  0.1130  0.6185
    5CHTO  H181 1787   5.344   3.056   2.529  0.6601 -0.0284  1.0964
    5CHTO   O61 1788   5.271   3.199   2.648  0.2414 -0.3358 -0.5625
    5CHTO   C95 1789   5.387   3.284   2.649  0.2036  0.1672  0.8656
    5CHTO  H182 1790   5.435   3.280   2.552  1.3791  0.7943  1.4209
    5CHTO  C106 1791   5.340   3.436   2.662 -0.7825 -0.2627 -0.2342
    5CHTO   O69 1792   5.232   3.439   2.756 -0.6730 -0.0038  0.4786
    5CHTO  H169 1793   5.246   3.492   2.832  0.3825 -2.2340  1.9012
    5CHTO   O63 1794   5.179   2.960   2.617 -0.1443  0.9019  0.0146
    5CHTO   C96 1795   5.143   2.942   2.470  0.4296  0.5292 -0.0462
    5CHTO  H183 1796   5.228   2.958   2.404  0.9976 -2.4825 -0.1073
    5CHTO   C98 1797   5.020   3.029   2.415  0.3255 -0.3274  0.3902
    5CHTO  H185 1798   4.938   3.038   2.488  0.4699 -0.8627  0.6226
    5CHTO   O67 1799   5.078   3.158   2.403 -0.1210 -0.3139  0.4010
    5CHTO  H167 1800   5.092   3.165   2.311 -2.0790  1.8098  0.2233
    5CHTO  C102 1801   4.986   2.979   2.266  0.2375 -0.4385 -0.5093
    5CHTO  H189 1802   5.072   3.009   2.204 -1.3973 -0.5113 -2.8561
    5CHTO   N18 1803   4.870   3.047   2.207 -0.0086 -0.2758 -0.6072
    5CHTO  H176 1804   4.806   3.115   2.260  0.5904 -0.7843  0.7910
    5CHTO  H177 1805   4.865   3.054   2.099  1.5031 -0.1295 -0.6905
    5CHTO  C105 1806   4.981   2.824   2.254  0.2378 -0.7178 -0.3231
    5CHTO  H192 1807   4.888   2.789   2.300  0.7901 -1.2657  0.3859
    5CHTO   O65 1808   5.084   2.751   2.319  0.6762 -0.3358 -0.8492
    5CHTO  C100 1809   5.102   2.789   2.456  0.3246  1.2233  0.3434
    5CHTO  H187 1810   5.004   2.787   2.505  0.2480  1.6826  0.2157
    5CHTO  C107 1811   5.198   2.697   2.534  0.1248  0.2253  0.4408
    5CHTO   O70 1812   5.336   2.699   2.495  0.6971 -0.1833 -0.8371
    5CHTO  H170 1813   5.370   2.614   2.513  3.4304  0.9438 -0.3086
    5CHTO   O57 1814   4.972   2.782   2.093 -0.2088  0.1391  0.7319
    5CHTO   C85 1815   4.930   2.646   2.053  0.1741  0.0757 -0.5739
    5CHTO  H157 1816   4.833   2.624   2.103  0.0625 -0.2015 -0.9179
    5CHTO   C83 1817   5.012   2.534   2.107 -0.0603  0.7946 -0.2413
    5CHTO  H155 1818   4.995   2.536   2.215  1.1123 -1.0830 -0.0002
    5CHTO   O56 1819   5.151   2.576   2.093 -0.1364 -0.5575 -0.0260
    5CHTO  H135 1820   5.177   2.627   2.167  1.9169 -0.4898 -0.7584
    5CHTO   C81 1821   4.977   2.394   2.054 -0.3066 -0.5539 -0.9357
    5CHTO  H153 1822   4.873   2.371   2.075  0.4738 -2.6847  0.7135
    5CHTO   N14 1823   5.042   2.290   2.131  0.5041 -0.2682 -0.0121
    5CHTO  H141 1824   5.010   2.197   2.088 -0.5255 -0.3289  0.8442
    5CHTO  H142 1825   5.148   2.296   2.138  0.3825  1.7333  0.6945
    5CHTO   C79 1826   5.005   2.395   1.903  0.0279  0.2002 -0.6081
    5CHTO  H151 1827   4.973   2.299   1.862 -1.3086  0.4987 -0.3088
    5CHTO   O52 1828   4.926   2.503   1.844 -0.0253  0.2664 -0.2117
    5CHTO   C86 1829   4.919   2.635   1.902  0.3857 -0.5228  0.2671
    5CHTO  H158 1830   5.004   2.691   1.857  2.7303 -2.8710  1.6367
    5CHTO   C90 1831   4.789   2.700   1.852 -1.1553 -0.6062 -0.2804
    5CHTO   O60 1832   4.679   2.607   1.877  0.2977 -0.1172  0.1394
    5CHTO  H138 1833   4.688   2.540   1.942 -1.3109 -0.8488 -0.3812
    5CHTO   O50 1834   5.145   2.419   1.862  0.8235  0.0449  0.1016
    5CHTO   C73 1835   5.224   2.402   1.741  0.0116  0.5401 -0.2661
    5CHTO  H145 1836   5.170   2.399   1.646  0.6577 -0.1237 -0.6185
    5CHTO   C74 1837   5.295   2.261   1.753  0.5175  0.3943  0.6545
    5CHTO  H146 1838   5.220   2.181   1.761 -0.7727  1.4310 -0.7164
    5CHTO   O54 1839   5.361   2.245   1.627 -0.0490  0.2336  0.7372
    5CHTO  H133 1840   5.407   2.164   1.634 -0.1175  0.2640  1.5650
    5CHTO   C75 1841   5.392   2.261   1.878 -0.4736 -0.4367 -0.3511
    5CHTO  H147 1842   5.336   2.282   1.970 -1.3371 -1.8307 -0.5590
    5CHTO   N13 1843   5.466   2.131   1.901 -0.5967 -0.0967  0.5419
    5CHTO  H139 1844   5.470   2.062   1.818 -1.3392  0.0140  0.4122
    5CHTO  H140 1845   5.572   2.146   1.916 -0.5490 -2.2311  2.6466
    5CHTO   C76 1846   5.500   2.381   1.855 -0.6453  0.3261  0.0763
    5CHTO  H148 1847   5.560   2.375   1.764 -0.7250  0.9040 -0.0103
    5CHTO   O49 1848   5.424   2.504   1.865 -0.0638  0.0478 -0.6670
    5CHTO   C77 1849   5.336   2.514   1.747  0.1527  1.0803  0.0386
    5CHTO  H149 1850   5.395   2.503   1.655 -0.6678 -2.8526 -0.1042
    5CHTO   C88 1851   5.282   2.658   1.734  0.1192 -0.7754 -0.4617
    5CHTO   O58 1852   5.396   2.750   1.690 -1.1516  0.1993  0.7536
    5CHTO  H136 1853   5.457   2.769   1.759  0.5341  0.9601 -0.9221
    5CHTO   O51 1854   5.595   2.394   1.983  0.0225  0.6283 -0.1202
    5CHTO   C78 1855   5.690   2.524   2.005 -0.4519 -1.1494 -0.1147
    5CHTO  H150 1856   5.649   2.612   1.952  1.6809 -0.4651 -0.6911
    5CHTO   C80 1857   5.831   2.487   1.947  0.4770 -0.6328 -0.9269
    5CHTO  H152 1858   5.871   2.399   2.002  2.2066 -0.6326 -2.1580
    5CHTO   O55 1859   5.816   2.444   1.810 -0.6744 -0.5040 -0.2893
    5CHTO  H134 1860   5.766   2.365   1.798 -2.7099  0.3012  2.2677
    5CHTO   C84 1861   5.931   2.610   1.969 -0.5378  0.2782  0.3512
    5CHTO  H156 1862   5.897   2.699   1.915 -0.6340 -0.1958 -0.3706
    5CHTO   N15 1863   6.069   2.572   1.917  0.1056 -0.0413 -0.1872
    5CHTO  H143 1864   6.058   2.533   1.818  3.2376 -1.2435 -0.1415
    5CHTO  H144 1865   6.143   2.649   1.917  2.5866 -2.3432 -0.9428
    5CHTO   C87 1866   5.935   2.658   2.112 -0.3491 -0.0090 -0.0694
    5CHTO  H159 1867   6.006   2.597   2.168 -1.2705  0.3010  1.4721
    5CHTO   O53 1868   5.783   2.669   2.174 -0.3672 -0.0372 -0.5370
    5CHTO   C82 1869   5.690   2.561   2.151  0.7601 -0.7984 -0.6455
    5CHTO  H154 1870   5.708   2.468   2.203 -1.0853  0.3158  2.1166
    5CHTO   C89 1871   5.547   2.607   2.199  0.2919 -0.0829  0.1354
    5CHTO   O59 1872   5.461   2.492   2.222 -0.2710 -0.3545  0.2913
    5CHTO  H137 1873   5.437   2.440   2.147  0.6426  0.4918 -0.5984
    5CHTO   O45 1874   5.998   2.813   2.117 -0.1227  0.1468 -0.0311
    5CHTO   C67 1875   6.093   2.838   2.222 -0.2886  0.5632 -0.6698
    5CHTO  H124 1876   6.058   2.788   2.312  2.2167  2.2987  1.3582
    5CHTO   C65 1877   6.239   2.788   2.193  0.2057 -0.3990  0.4923
    5CHTO  H122 1878   6.243   2.741   2.094 -1.3985  0.9133 -0.2029
    5CHTO   O44 1879   6.261   2.677   2.283  0.0499 -0.5201 -0.5071
    5CHTO  H102 1880   6.345   2.637   2.272  1.3009  1.6420  0.7629
    5CHTO   C63 1881   6.336   2.904   2.188 -0.5295 -0.5061  0.3158
    5CHTO  H120 1882   6.299   2.977   2.116 -2.1372  0.1534  1.7654
    5CHTO   N11 1883   6.476   2.861   2.140  0.8127  0.1421 -0.3328
    5CHTO  H108 1884   6.525   2.801   2.213  0.8224  1.8773  1.1227
    5CHTO  H109 1885   6.469   2.804   2.050 -1.6579 -1.0836  0.5716
    5CHTO   C61 1886   6.331   2.973   2.322 -0.3498 -1.1417  0.1722
    5CHTO  H118 1887   6.402   3.057   2.317 -2.1165  0.4469  1.1776
    5CHTO   O40 1888   6.194   3.030   2.345  0.5034 -0.0005 -0.2295
    5CHTO   C68 1889   6.082   2.995   2.260  0.3213 -0.0291 -0.0030
    5CHTO  H125 1890   6.096   3.054   2.167  2.3002 -1.1938 -0.4984
    5CHTO   C72 1891   5.945   3.034   2.323 -0.5427 -0.2944  0.5424
    5CHTO   O48 1892   5.935   3.179   2.296  0.2618 -0.2078 -0.2020
    5CHTO  H105 1893   5.994   3.227   2.350 -2.2610  4.6343 -1.4272
    5CHTO   O38 1894   6.372   2.889   2.433 -1.1501  0.3390 -0.7618
    5CHTO   C55 1895   6.360   2.932   2.567  0.2405 -0.0677  0.4820
    5CHTO  H112 1896   6.259   2.975   2.575 -0.5299 -1.8872  0.7220
    5CHTO   C56 1897   6.475   3.030   2.610  0.2355  0.0797 -0.5946
    5CHTO  H113 1898   6.575   2.989   2.591  0.3883  0.1257  0.0910
    5CHTO   O42 1899   6.460   3.150   2.531  0.8250  0.2481  0.3570
    5CHTO  H100 1900   6.530   3.209   2.550  2.2887 -1.2919 -0.1293
    5CHTO   C57 1901   6.465   3.079   2.762 -0.3672 -0.1053 -0.7702
    5CHTO  H114 1902   6.377   3.144   2.759  1.0986  1.9902  0.2381
    5CHTO   N10 1903   6.590   3.152   2.795  0.3256  0.3327 -0.3803
    5CHTO  H106 1904   6.572   3.258   2.783  0.0376  0.1085 -2.1460
    5CHTO  H107 1905   6.603   3.132   2.900 -0.7395  1.0603 -0.0978
    5CHTO   C58 1906   6.438   2.953   2.861 -0.6968  0.7935  0.6649
    5CHTO  H115 1907   6.533   2.897   2.871 -0.3743  1.3187  0.5900
    5CHTO   O37 1908   6.336   2.868   2.808  0.0220  1.1593  0.3813
    5CHTO   C59 1909   6.359   2.817   2.677 -0.6692  0.3039  0.5221
    5CHTO  H116 1910   6.454   2.764   2.670 -0.2643  1.0705  0.2485
    5CHTO   C70 1911   6.250   2.713   2.643 -0.4529  0.0572  0.6347
    5CHTO   O46 1912   6.125   2.771   2.596  0.2792 -0.3388  0.4244
    5CHTO  H103 1913   6.127   2.864   2.583  2.4317 -0.4094  0.1903
    5CHTO   O39 1914   6.396   3.006   2.996  0.4003  0.2853 -0.0635
    5CHTO   C60 1915   6.265   3.062   3.002  0.8533 -0.6841 -0.1638
    5CHTO  H117 1916   6.226   3.082   2.903 -3.2326 -2.2887  1.0108
    5CHTO   C62 1917   6.173   2.954   3.070 -0.5824 -0.0807  0.0691
    5CHTO  H119 1918   6.195   2.858   3.018  1.7654  0.6889 -0.4105
    5CHTO   O43 1919   6.218   2.932   3.202  0.1422  0.6936 -0.9137
    5CHTO  H101 1920   6.190   2.846   3.227 -1.6453  1.5163  0.0150
    5CHTO   C66 1921   6.021   2.996   3.059  0.9289  0.3055  0.1808
    5CHTO  H123 1922   6.001   3.026   2.956  0.2909 -2.6406 -0.5955
    5CHTO   N12 1923   5.924   2.888   3.100  0.0255 -0.0222 -0.3802
    5CHTO  H110 1924   5.961   2.793   3.064 -0.9786 -0.9487  0.9486
    5CHTO  H111 1925   5.832   2.911   3.049 -1.5212 -0.6413  2.0527
    5CHTO   C69 1926   5.994   3.128   3.140 -0.0401  0.5344  0.0942
    5CHTO  H126 1927   6.014   3.099   3.245 -0.3694 -1.3346 -0.3476
    5CHTO   O41 1928   6.107   3.245   3.088 -0.3042 -0.5893  0.0628
    5CHTO   C64 1929   6.254   3.196   3.087  0.6145  0.3430 -0.3168
    5CHTO  H121 1930   6.285   3.165   3.189 -2.5072 -1.8554  0.0274
    5CHTO   C71 1931   6.349   3.300   3.031 -0.0686  0.6367  0.3036
    5CHTO   O47 1932   6.320   3.334   2.895 -0.0477 -0.0882  0.2744
    5CHTO  H104 1933   6.398   3.315   2.846 -0.9413 -1.5607 -0.6150
    5CHTO   O34 1934   5.835   3.189   3.123 -0.3170  0.4341 -0.0713
    5CHTO   C49 1935   5.796   3.321   3.187  0.5988 -0.1264  0.0266
    5CHTO   H91 1936   5.872   3.399   3.180 -1.4819  1.7233 -2.8670
    5CHTO   C47 1937   5.751   3.295   3.333 -0.1799 -0.5276 -0.6059
    5CHTO   H89 1938   5.733   3.394   3.381 -2.6506 -0.1903 -2.1363
    5CHTO   O33 1939   5.861   3.226   3.393  0.4687 -0.1765  0.0642
    5CHTO   H70 1940   5.922   3.281   3.439 -0.8808  0.1743  1.5025
    5CHTO   C45 1941   5.613   3.208   3.343 -0.6195  0.1664 -0.6608
    5CHTO   H87 1942   5.620   3.120   3.277  1.8384 -0.4778  0.3529
    5CHTO    N8 1943   5.586   3.153   3.477  0.1628 -0.1798 -0.1907
    5CHTO   H75 1944   5.609   3.231   3.548  0.1600 -0.1532 -0.2187
    5CHTO   H76 1945   5.643   3.067   3.510  1.3202  1.1152  1.2918
    5CHTO   C43 1946   5.493   3.294   3.281  0.5153 -0.3070  0.0786
    5CHTO   H85 1947   5.409   3.225   3.282 -0.1744  0.4873 -1.5018
    5CHTO   O29 1948   5.536   3.330   3.146  0.1652 -0.3732  0.5899
    5CHTO   C50 1949   5.671   3.380   3.117 -0.2825 -0.2842  0.2363
    5CHTO   H92 1950   5.702   3.388   3.011 -0.6206  0.8314  0.2182
    5CHTO   C54 1951   5.653   3.529   3.159 -0.5207  0.0952  0.2135
    5CHTO   O36 1952   5.560   3.596   3.069  0.2831  0.2107 -0.2994
    5CHTO   H72 1953   5.473   3.561   3.071  0.5936 -0.5737 -0.1706
    5CHTO   O27 1954   5.459   3.408   3.363 -0.6258  0.6440  0.7212
    5CHTO   C37 1955   5.321   3.427   3.410  0.9051  0.1150 -0.8244
    5CHTO   H79 1956   5.263   3.335   3.390  3.5047 -1.5292 -0.9630
    5CHTO   C38 1957   5.323   3.437   3.562 -0.6469 -0.5335  0.1253
    5CHTO   H80 1958   5.415   3.494   3.581 -0.0917 -0.4392 -2.7117
    5CHTO   O31 1959   5.350   3.311   3.614 -0.3111 -0.1217 -0.6337
    5CHTO   H68 1960   5.316   3.285   3.698  0.8380  2.2113  0.6138
    5CHTO   C39 1961   5.188   3.494   3.620  0.4428  0.3425 -0.0014
    5CHTO   H81 1962   5.121   3.408   3.623 -1.3770  1.7585  0.5652
    5CHTO    N7 1963   5.209   3.539   3.765 -0.6551  0.8673 -0.1842
    5CHTO   H73 1964   5.117   3.572   3.810 -1.5935 -1.3092 -0.4411
    5CHTO   H74 1965   5.281   3.618   3.778 -0.3237  0.5021  0.2357
    5CHTO   C40 1966   5.121   3.619   3.539 -0.4389  0.3066 -0.7223
    5CHTO   H82 1967   5.158   3.719   3.563  0.7098 -0.2530 -0.1207
    5CHTO   O26 1968   5.126   3.592   3.400 -0.4995  0.0227 -0.2294
    5CHTO   C41 1969   5.257   3.547   3.342 -0.6100 -0.4317 -0.2412
    5CHTO   H83 1970   5.326   3.632   3.346 -1.7212  0.4242  1.0728
    5CHTO   C52 1971   5.230   3.508   3.195  0.1586 -0.4627 -0.0062
    5CHTO   O35 1972   5.109   3.412   3.177  0.2178  0.1442 -0.1462
    5CHTO   H71 1973   5.044   3.439   3.240  1.9021  0.8012  1.3441
    5CHTO   O28 1974   4.985   3.649   3.563  0.4437  0.0043 -0.0693
    5CHTO   C42 1975   4.877   3.549   3.584 -0.8545  0.3336  0.2036
    5CHTO   H84 1976   4.790   3.615   3.589  0.6573  2.2963  1.4120
    5CHTO   C44 1977   4.861   3.461   3.716 -0.0859  0.1093 -0.1847
    5CHTO   H86 1978   4.957   3.416   3.740 -0.2129 -0.5801 -0.9201
    5CHTO   O32 1979   4.832   3.541   3.826 -0.0566  0.5090 -0.0730
    5CHTO   H69 1980   4.896   3.610   3.826  1.3483 -0.7720 -1.4858
    5CHTO   C48 1981   4.761   3.342   3.710 -0.1095 -0.6335 -0.1992
    5CHTO   H90 1982   4.659   3.377   3.692  0.7081  1.6432 -0.5720
    5CHTO    N9 1983   4.766   3.251   3.834 -0.4445 -0.1022 -0.1889
    5CHTO   H77 1984   4.667   3.222   3.864 -2.1642  3.8931 -1.6905
    5CHTO   H78 1985   4.816   3.295   3.919  1.9746 -1.2611 -0.9565
    5CHTO   C51 1986   4.806   3.263   3.582 -0.1483 -0.1404 -0.5852
    5CHTO   H93 1987   4.914   3.249   3.583 -0.1412 -0.1072 -0.7510
    5CHTO   O30 1988   4.759   3.342   3.470  0.0456  0.4996 -0.5253
    5CHTO   C46 1989   4.860   3.455   3.458  0.3188  0.2355  0.3856
    5CHTO   H88 1990   4.958   3.411   3.440  0.4870  0.8022 -0.0891
    5CHTO   C53 1991   4.822   3.535   3.335 -0.4959  0.1349  0.3712
    5CHTO   O72 1992   4.822   3.444   3.218  0.3861  0.4273 -0.1808
    5CHTO  H199 1993   4.899   3.391   3.227 -0.3830 -0.9377 -1.4220
    5CHTO   O22 1994   4.750   3.140   3.547  0.3518  0.0170  0.2519
    5CHTO   C31 1995   4.836   3.029   3.498  0.0934  0.6298  0.1721
    5CHTO   H59 1996   4.767   2.945   3.477 -1.0014  1.8143 -1.1062
    5CHTO   C29 1997   4.901   3.066   3.360 -0.8011 -0.1440  0.5538
    5CHTO   H57 1998   4.944   3.167   3.373  0.8245 -0.9662  1.6335
    5CHTO   O21 1999   4.804   3.083   3.263 -0.0179 -0.1848  0.0769
    5CHTO   H37 2000   4.799   3.002   3.216 -1.1525 -1.7962  2.8370
    5CHTO   C27 2001   5.027   2.971   3.318  0.1328 -0.2127 -0.2236
    5CHTO   H55 2002   4.988   2.873   3.284  2.5478 -1.4563  0.4771
    5CHTO    N5 2003   5.113   3.028   3.206  0.4103 -0.7136  0.3182
    5CHTO   H43 2004   5.206   3.066   3.245 -1.3606  1.0278  3.0066
    5CHTO   H44 2005   5.107   2.972   3.114  0.5084 -0.3646  0.0993
    5CHTO   C25 2006   5.118   2.932   3.442  0.1488  0.5636  0.1002
    5CHTO   H53 2007   5.165   3.027   3.473 -0.7868  0.8058  0.8001
    5CHTO   O17 2008   5.031   2.878   3.540  0.2274  0.1461  0.4222
    5CHTO   C32 2009   4.942   2.978   3.600  0.1189 -0.0641 -0.1497
    5CHTO   H60 2010   4.998   3.064   3.637  1.8804 -1.0841 -0.4279
    5CHTO   C36 2011   4.880   2.897   3.716  0.3580 -0.1784  0.0389
    5CHTO   O25 2012   4.978   2.840   3.801 -0.0269  0.0229  0.1348
    5CHTO   H40 2013   4.935   2.769   3.845 -1.0243  1.0938  0.9278
    5CHTO   O15 2014   5.242   2.820   3.408  1.2294 -0.6467 -0.0083
    5CHTO   C19 2015   5.365   2.768   3.453 -0.1021 -0.6373 -0.1936
    5CHTO   H47 2016   5.397   2.856   3.511  1.4919 -0.3944 -1.4127
    5CHTO   C20 2017   5.351   2.649   3.550  0.0663  0.0180 -0.4812
    5CHTO   H48 2018   5.295   2.567   3.502  2.2859 -1.7593 -0.1679
    5CHTO   O19 2019   5.275   2.697   3.666  0.2356 -0.2998  0.3319
    5CHTO   H35 2020   5.218   2.637   3.710 -0.0558  0.3072  0.7850
    5CHTO   C21 2021   5.493   2.595   3.601  0.5293  0.2775 -0.3759
    5CHTO   H49 2022   5.518   2.660   3.685  0.6702  0.2743 -0.4146
    5CHTO    N4 2023   5.483   2.457   3.661  0.4649  0.7620 -0.1927
    5CHTO   H41 2024   5.579   2.416   3.687 -1.0291 -1.5485  1.8843
    5CHTO   H42 2025   5.433   2.381   3.602 -0.3332  0.7738  0.4702
    5CHTO   C22 2026   5.604   2.611   3.494  0.3046  0.1374  0.1682
    5CHTO   H50 2027   5.614   2.520   3.435  1.6232 -0.9047  1.9629
    5CHTO   O14 2028   5.598   2.721   3.405 -0.2148 -0.2306  0.1835
    5CHTO   C23 2029   5.471   2.737   3.346  0.4822  0.2902  0.4491
    5CHTO   H51 2030   5.446   2.646   3.288 -0.0237 -0.2788  1.5424
    5CHTO   C34 2031   5.475   2.850   3.237  0.1974 -0.3405  0.2448
    5CHTO   O23 2032   5.553   2.823   3.121  0.0602 -0.1976 -0.1814
    5CHTO   H38 2033   5.512   2.868   3.049  0.9690  0.8862 -0.0319
    5CHTO   O16 2034   5.732   2.615   3.564 -0.2654 -0.9009 -0.3971
    5CHTO   C24 2035   5.863   2.566   3.493 -0.0672 -0.1958  0.0371
    5CHTO   H52 2036   5.849   2.565   3.385  1.1903  0.4211 -0.1387
    5CHTO   C26 2037   5.899   2.426   3.540  0.0102  0.1290  0.4466
    5CHTO   H54 2038   5.906   2.422   3.650 -1.6625  0.9808  0.6065
    5CHTO   O20 2039   5.788   2.343   3.503  0.5435  0.5067  0.5462
    5CHTO   H36 2040   5.757   2.292   3.575  0.0270 -1.1484 -0.8195
    5CHTO   C30 2041   6.029   2.369   3.472  0.0804  0.1833  0.0656
    5CHTO   H58 2042   6.016   2.364   3.363 -1.4566  1.2266  0.1919
    5CHTO    N6 2043   6.063   2.234   3.529  0.7392  0.0788 -0.1738
    5CHTO   H45 2044   6.009   2.171   3.459 -0.6768  0.6069  0.4270
    5CHTO   H46 2045   6.021   2.225   3.628 -1.4765 -1.3352 -1.1872
    5CHTO   C33 2046   6.145   2.469   3.478  0.6597 -0.0099  0.5673
    5CHTO   H61 2047   6.179   2.471   3.582  0.9724  2.8848  0.4373
    5CHTO   O18 2048   6.096   2.604   3.445 -0.0252  0.2819 -0.1407
    5CHTO   C28 2049   5.984   2.655   3.524  0.2114  0.3276  0.0642
    5CHTO   H56 2050   6.009   2.645   3.630 -2.4329 -0.4601  0.6485
    5CHTO   C35 2051   5.962   2.807   3.497 -0.2296  0.3348  0.0709
    5CHTO   O24 2052   6.081   2.879   3.534 -0.4469 -0.6044  0.4579
    5CHTO   H39 2053   6.109   2.948   3.477  0.2676  0.6241  2.2596
    5CHTO    O9 2054   6.268   2.436   3.402  0.0611 -0.5401 -0.0215
    5CHTO   C13 2055   6.263   2.422   3.240 -0.8300  0.2889 -0.0163
    5CHTO   H26 2056   6.162   2.388   3.207 -0.7425  0.5212 -0.5277
    5CHTO   C11 2057   6.378   2.324   3.194  0.6856  0.1781 -0.2826
    5CHTO   H24 2058   6.358   2.227   3.243  0.8807 -0.0210 -0.5936
    5CHTO    O8 2059   6.511   2.360   3.242  0.3642  0.8098 -0.0522
    5CHTO    H3 2060   6.586   2.331   3.194  0.0448  1.7185 -1.1251
    5CHTO    C9 2061   6.370   2.320   3.041 -0.2901  0.1135 -0.0822
    5CHTO   H22 2062   6.263   2.304   3.023 -0.2247 -4.0837  2.6232
    5CHTO    N2 2063   6.430   2.203   2.981 -0.2616 -0.0257  0.0156
    5CHTO   H10 2064   6.505   2.237   2.911 -0.4078 -0.4779 -0.3628
    5CHTO   H11 2065   6.450   2.129   3.057 -2.2932 -0.6329 -0.0186
    5CHTO    C7 2066   6.411   2.464   2.984  0.5388 -0.3309  0.2559
    5CHTO   H20 2067   6.388   2.456   2.876 -0.5757  0.3078  0.4370
    5CHTO    O4 2068   6.330   2.571   3.039  0.0348  0.5062  0.0504
    5CHTO   C14 2069   6.297   2.568   3.180 -0.5268 -0.2253 -0.7696
    5CHTO   H27 2070   6.202   2.625   3.171 -1.2978 -1.4628 -0.5419
    5CHTO   C18 2071   6.394   2.656   3.268  0.6492 -0.2586 -0.1389
    5CHTO   O13 2072   6.329   2.736   3.373  0.5597 -0.7394  0.0697
    5CHTO    H7 2073   6.383   2.726   3.450 -0.8453 -0.3612  1.1249
    5CHTO    O2 2074   6.583   2.496   3.000 -0.1140 -0.1719  0.1888
    5CHTO    C1 2075   6.641   2.587   2.909  0.2207  0.3483 -0.3159
    5CHTO   H14 2076   6.567   2.668   2.893 -0.4188 -0.6992 -2.8923
    5CHTO    C2 2077   6.679   2.526   2.767 -0.1748  0.1948 -0.0961
    5CHTO   H15 2078   6.747   2.441   2.786 -1.8034 -0.6754  2.0383
    5CHTO    O6 2079   6.558   2.472   2.703  0.6360  0.1987  0.3133
    5CHTO    H1 2080   6.508   2.429   2.770  0.5078 -0.0709  0.0465
    5CHTO    C3 2081   6.744   2.635   2.672 -0.0010 -0.3004  0.0949
    5CHTO   H16 2082   6.677   2.721   2.657  2.6452  1.7585 -0.3395
    5CHTO    N1 2083   6.785   2.591   2.532  0.2780  0.2274 -0.4799
    5CHTO    H8 2084   6.720   2.628   2.455  1.0317  2.3416 -0.1265
    5CHTO    H9 2085   6.888   2.614   2.510 -0.2546  2.1422 -1.0392
    5CHTO    C4 2086   6.857   2.705   2.745 -0.1900  0.0359 -0.5192
    5CHTO   H17 2087   6.938   2.633   2.758  0.2956  0.7173  0.2501
    5CHTO    O1 2088   6.823   2.755   2.875  0.2209  0.4102 -0.4307
    5CHTO    C5 2089   6.765   2.663   2.968  0.3606  0.4172 -0.1815
    5CHTO   H18 2090   6.831   2.582   3.002  0.4902  0.6535  0.1261
    5CHTO   C16 2091   6.719   2.756   3.087  0.1669 -0.0785 -0.3465
    5CHTO   O11 2092   6.824   2.833   3.135 -0.0059 -0.7686 -0.0067
    5CHTO    H5 2093   6.792   2.892   3.201 -2.0301 -1.3637 -0.4104
    5CHTO    O3 2094   6.910   2.823   2.681  0.6478 -0.3841  0.7618
    5CHTO    C6 2095   7.052   2.863   2.718  0.0404  0.2034  0.3209
    5CHTO   H19 2096   7.091   2.796   2.795  1.0588  0.1114 -0.2633
    5CHTO    C8 2097   7.132   2.849   2.581  0.7306 -0.5473  0.3962
    5CHTO   H21 2098   7.075   2.902   2.504  0.4710  0.8061  1.5114
    5CHTO    O7 2099   7.144   2.707   2.549  0.4671  0.2549 -0.1728
    5CHTO    H2 2100   7.110   2.708   2.462  0.2188  1.7731 -0.0607
    5CHTO   C12 2101   7.266   2.927   2.576 -0.8833  0.2234  0.3691
    5CHTO   H25 2102   7.347   2.873   2.629 -1.0717  0.1660  0.5977
    5CHTO    N3 2103   7.319   2.933   2.433 -0.2246 -0.3009  0.8608
    5CHTO   H12 2104   7.288   3.025   2.385 -0.2190 -0.3128  0.8348
    5CHTO   H13 2105   7.427   2.932   2.434 -0.2022  1.6890  2.2262
    5CHTO   C15 2106   7.248   3.062   2.636 -0.3038  0.5491  0.3734
    5CHTO   H28 2107   7.173   3.112   2.575  0.1462  0.8949  0.1068
    5CHTO   O10 2108   7.376   3.135   2.649 -0.4958 -0.3054 -0.2978
    5CHTO    H4 2109   7.362   3.225   2.674  1.1011  0.1080 -0.8527
    5CHTO    O5 2110   7.196   3.048   2.773 -0.4970 -0.2360 -0.0580
    5CHTO   C10 2111   7.056   3.011   2.773 -0.6744 -0.3696 -0.3126
    5CHTO   H23 2112   7.001   3.081   2.710  1.7000  1.3132 -0.5936
    5CHTO   C17 2113   7.015   3.020   2.921 -0.5235  0.0657 -0.1849
    5CHTO   O12 2114   6.873   3.013   2.920  0.0640  0.5118  0.4840
    5CHTO    H6 2115   6.838   3.067   2.853  1.4407 -0.6654 -1.2383
    6CHTO  H203 2116   3.933   4.678   0.697  0.1833  0.2199  0.4480
    6CHTO   O82 2117   4.010   4.626   0.711  0.0751 -0.0823 -0.0707
    6CHTO  C123 2118   4.137   4.673   0.664  0.0710 -0.4575 -0.1608
    6CHTO  H227 2119   4.136   4.684   0.554  0.5682  0.1921 -0.1030
    6CHTO   O77 2120   4.146   4.806   0.730  0.2217 -0.0686  0.5500
    6CHTO  C118 2121   4.272   4.878   0.706 -0.2191  0.0283  0.8226
    6CHTO  H222 2122   4.282   4.887   0.596 -0.6243  0.8204  0.8491
    6CHTO  C125 2123   4.266   5.020   0.766  0.1257 -0.7937  0.2794
    6CHTO   O84 2124   4.246   5.029   0.910 -0.6120 -0.1459 -0.6570
    6CHTO  H205 2125   4.244   5.119   0.939 -2.1550 -0.0105 -1.1213
    6CHTO  C114 2126   4.394   4.794   0.767  0.3680  0.2342  0.6615
    6CHTO  H218 2127   4.379   4.792   0.875 -1.1975  0.6421  0.4728
    6CHTO  C116 2128   4.397   4.657   0.705 -0.3261  0.1428  0.5256
    6CHTO  H220 2129   4.427   4.666   0.598 -0.4213  0.3641  0.5178
    6CHTO   O79 2130   4.500   4.588   0.769 -0.1384 -0.9369 -0.0237
    6CHTO  H201 2131   4.473   4.567   0.857 -2.2020 -1.0635 -0.6681
    6CHTO  C120 2132   4.254   4.580   0.710  0.4972 -0.1236 -0.0561
    6CHTO  H224 2133   4.243   4.563   0.819  0.9584  0.0503  0.0213
    6CHTO   N21 2134   4.261   4.451   0.640 -0.3613 -0.8656  0.0223
    6CHTO  H211 2135   4.163   4.427   0.604 -1.4533  2.9312  0.2160
    6CHTO  H212 2136   4.299   4.378   0.710 -0.9561  0.6437  1.9492
    6CHTO   O75 2137   4.508   4.876   0.738 -0.2557  0.4700  0.4366
    6CHTO  C112 2138   4.608   4.878   0.858 -0.3494  0.7279  0.3835
    6CHTO  H216 2139   4.639   4.774   0.878  0.6080  1.0901  0.8450
    6CHTO   O73 2140   4.549   4.942   0.973 -0.1652  0.3324 -0.9912
    6CHTO  C113 2141   4.638   4.912   1.087 -0.0462 -0.9958 -0.3250
    6CHTO  H217 2142   4.658   4.803   1.089 -3.9871 -1.8470 -2.5813
    6CHTO  C124 2143   4.550   4.959   1.211  0.3652  1.0591  0.4575
    6CHTO   O83 2144   4.416   4.910   1.214 -0.1192 -0.4634  0.0204
    6CHTO  H204 2145   4.364   4.956   1.150  0.1718 -0.3963 -0.1680
    6CHTO  C109 2146   4.770   4.989   1.075  0.0997 -0.1825 -0.0362
    6CHTO  H213 2147   4.741   5.095   1.082 -0.6620 -0.5256  2.6421
    6CHTO  C110 2148   4.837   4.950   0.941 -0.9448 -0.0225 -1.5364
    6CHTO  H214 2149   4.884   4.852   0.945 -0.8970  0.0272 -0.7394
    6CHTO   O78 2150   4.953   5.032   0.922 -0.0500 -0.1541  0.4436
    6CHTO  H200 2151   4.985   5.063   1.004 -0.0588 -1.5538  0.9859
    6CHTO  C111 2152   4.737   4.963   0.828 -0.1483  0.3386  0.6442
    6CHTO  H215 2153   4.715   5.069   0.809 -0.4845  0.1375 -0.1298
    6CHTO   N19 2154   4.799   4.915   0.703  0.5163  0.2386 -0.7748
    6CHTO  H207 2155   4.829   4.812   0.714 -1.2815 -0.3784 -1.4621
    6CHTO  H208 2156   4.875   4.985   0.670  0.1092  0.7097 -0.7076
    6CHTO   O74 2157   4.858   4.946   1.189  0.3498  0.0032 -0.1184
    6CHTO  C115 2158   4.973   5.055   1.252  0.1640 -0.4221 -0.7159
    6CHTO  H219 2159   5.019   5.116   1.174 -0.6327  1.6561  0.4111
    6CHTO   O76 2160   4.920   5.151   1.354 -1.0728  0.1278 -0.1242
    6CHTO  C122 2161   4.834   5.081   1.449  0.6744  0.6844 -0.4653
    6CHTO  H226 2162   4.741   5.067   1.395  0.4721  0.2668 -0.0199
    6CHTO  C126 2163   4.790   5.182   1.554  0.1959 -0.8298  0.2360
    6CHTO   O85 2164   4.674   5.145   1.626 -0.0254 -0.6609  0.0062
    6CHTO  H206 2165   4.601   5.203   1.614  0.5005  0.0199  0.0459
    6CHTO  C121 2166   4.902   4.957   1.520  0.6609 -0.2045  0.3654
    6CHTO  H225 2167   4.895   4.983   1.628 -4.3109  0.6430 -0.0241
    6CHTO   O81 2168   4.815   4.845   1.502 -0.2317  0.1536  0.1498
    6CHTO  H202 2169   4.840   4.810   1.418  0.2877 -1.5545  0.9930
    6CHTO  C119 2170   5.053   4.945   1.469 -0.1683 -0.4468 -0.0460
    6CHTO  H223 2171   5.103   5.022   1.529  1.7028 -1.2193 -0.5856
    6CHTO  C117 2172   5.086   4.963   1.320 -0.3515 -0.4745 -0.3924
    6CHTO  H221 2173   5.073   4.873   1.260 -0.5718 -0.1252 -0.8715
    6CHTO   N20 2174   5.223   5.014   1.287 -0.0814 -0.2798 -0.5430
    6CHTO  H209 2175   5.228   5.113   1.330  0.6404 -0.5015 -0.1015
    6CHTO  H210 2176   5.240   5.030   1.181  2.3717 -0.0082 -0.1488
    6CHTO   O80 2177   5.149   4.800   1.537  0.8441  0.6264 -0.1144
    6CHTO  C103 2178   5.157   4.785   1.704 -0.3990  0.0488  0.3990
    6CHTO  H190 2179   5.234   4.711   1.725  1.4210  2.0078  0.8372
    6CHTO  C101 2180   5.198   4.924   1.779  0.1975  0.4787 -0.2633
    6CHTO  H188 2181   5.128   5.004   1.755  0.1499  0.7020  0.6035
    6CHTO   O68 2182   5.340   4.978   1.733  0.1884  0.2814 -0.4468
    6CHTO  H168 2183   5.331   5.071   1.728 -1.2349  0.2648  1.1940
    6CHTO   C99 2184   5.184   4.905   1.935 -0.7846 -0.0550 -0.1806
    6CHTO  H186 2185   5.259   4.826   1.957  0.2933  0.5449 -1.5623
    6CHTO   N17 2186   5.216   5.029   2.018  0.6066  0.6749 -0.0736
    6CHTO  H174 2187   5.266   5.104   1.958  4.3596 -0.7586  1.0961
    6CHTO  H175 2188   5.262   5.001   2.112  1.0926  0.3230 -0.4184
    6CHTO   C97 2189   5.040   4.845   1.957 -0.1076 -0.0629  0.1819
    6CHTO  H184 2190   4.972   4.924   1.922 -0.3732  0.4585  1.8187
    6CHTO   O64 2191   5.018   4.719   1.900 -0.7535 -0.1505 -0.2713
    6CHTO  C104 2192   5.021   4.729   1.759 -0.0192  0.1713 -0.1312
    6CHTO  H191 2193   4.942   4.801   1.735 -1.2757 -1.4709 -0.9912
    6CHTO  C108 2194   4.976   4.602   1.696 -0.2069  0.0261  0.4881
    6CHTO   O71 2195   4.833   4.580   1.724  0.0027 -0.0757  0.6239
    6CHTO  H171 2196   4.834   4.541   1.809  1.1360 -2.8511 -0.5862
    6CHTO   O62 2197   5.022   4.823   2.103  0.1071  0.7259 -0.3337
    6CHTO   C91 2198   4.912   4.898   2.165  0.4536 -0.8884  0.4439
    6CHTO  H178 2199   4.940   5.003   2.170 -2.5666 -0.0323  0.2363
    6CHTO   C92 2200   4.900   4.851   2.316 -0.3394  0.4284  0.4976
    6CHTO  H179 2201   5.002   4.845   2.359 -1.2965 -1.8910  2.6372
    6CHTO   O66 2202   4.835   4.948   2.395 -0.0220  0.4306  0.3615
    6CHTO  H166 2203   4.884   5.027   2.383  1.1555 -0.3149  0.1864
    6CHTO   C93 2204   4.820   4.713   2.344 -0.9154 -0.5759  0.8799
    6CHTO  H180 2205   4.771   4.728   2.441  3.5691  3.4466  2.7617
    6CHTO   N16 2206   4.906   4.593   2.368 -0.5225 -0.4784 -0.1398
    6CHTO  H172 2207   4.921   4.547   2.272 -0.3079  0.2612 -0.4673
    6CHTO  H173 2208   4.885   4.534   2.456  3.4804  0.0719  1.3005
    6CHTO   C94 2209   4.707   4.692   2.228 -0.7982  0.5784  0.3111
    6CHTO  H181 2210   4.743   4.626   2.148 -3.6819 -0.7785  0.0463
    6CHTO   O61 2211   4.670   4.819   2.173  0.2881 -0.0217  0.7307
    6CHTO   C95 2212   4.773   4.881   2.089  0.6306 -0.0314 -0.6157
    6CHTO  H182 2213   4.781   4.820   1.999 -0.2848 -0.3117 -0.5127
    6CHTO  C106 2214   4.721   5.023   2.039  0.2401 -0.6579 -0.3501
    6CHTO   O69 2215   4.611   5.004   1.942 -0.7963  0.6258 -0.0086
    6CHTO  H169 2216   4.646   4.974   1.860  0.1309 -0.4455  0.7638
    6CHTO   O63 2217   4.579   4.608   2.302 -0.5111  0.2783 -0.0205
    6CHTO   C96 2218   4.450   4.616   2.194 -0.0795  0.8732  0.4445
    6CHTO  H183 2219   4.490   4.662   2.104  1.8591 -1.5836  0.0056
    6CHTO   C98 2220   4.325   4.695   2.233 -0.8653  0.1145  0.3428
    6CHTO  H185 2221   4.278   4.654   2.324 -0.3536  1.4367  1.2103
    6CHTO   O67 2222   4.373   4.829   2.267  0.5244 -0.2442 -0.8368
    6CHTO  H167 2223   4.359   4.849   2.357 -1.4084  1.2934 -1.4334
    6CHTO  C102 2224   4.227   4.701   2.112 -0.0761 -0.7816 -0.2484
    6CHTO  H189 2225   4.276   4.772   2.044 -0.0812 -1.5086 -1.0175
    6CHTO   N18 2226   4.089   4.758   2.138 -1.1139  0.4492  0.2196
    6CHTO  H176 2227   4.110   4.852   2.188 -1.0546 -0.5580  2.1278
    6CHTO  H177 2228   4.036   4.691   2.204  0.9525  1.2118  2.7392
    6CHTO  C105 2229   4.220   4.563   2.030  0.0610 -0.2372 -0.1946
    6CHTO  H192 2230   4.115   4.534   2.017 -0.3122  0.4945  1.0569
    6CHTO   O65 2231   4.280   4.451   2.103 -0.4966 -0.0348  0.0722
    6CHTO  C100 2232   4.414   4.470   2.147  0.3229  0.2798 -0.2600
    6CHTO  H187 2233   4.433   4.408   2.236 -0.8018 -1.9808 -1.5540
    6CHTO  C107 2234   4.511   4.410   2.046 -0.4161 -0.8369  0.3591
    6CHTO   O70 2235   4.640   4.357   2.087  0.2025  0.1688  0.0517
    6CHTO  H170 2236   4.698   4.429   2.098  1.3251 -0.5826 -0.8066
    6CHTO   O57 2237   4.295   4.600   1.878 -0.1151 -0.0742  0.0281
    6CHTO   C85 2238   4.214   4.626   1.759  0.0534  0.1031  0.6685
    6CHTO  H157 2239   4.148   4.705   1.800 -0.4474 -1.2417  2.5254
    6CHTO   C83 2240   4.130   4.500   1.718  0.3939 -0.4283  0.2649
    6CHTO  H155 2241   4.057   4.489   1.798 -1.0860  3.1416 -0.4881
    6CHTO   O56 2242   4.229   4.393   1.721 -0.2399  0.2077  0.2470
    6CHTO  H135 2243   4.275   4.383   1.802  1.7906  1.9026 -0.6216
    6CHTO   C81 2244   4.046   4.517   1.587  0.2118  0.2504 -0.4403
    6CHTO  H153 2245   3.976   4.599   1.605 -1.2730 -2.0242  5.3600
    6CHTO   N14 2246   3.961   4.401   1.541 -0.2075  0.2754  0.6446
    6CHTO  H141 2247   4.025   4.318   1.521  0.7413  1.2617 -0.4527
    6CHTO  H142 2248   3.904   4.373   1.627 -0.5312  0.9814  0.6629
    6CHTO   C79 2249   4.150   4.557   1.478 -0.2181 -0.7045 -0.1465
    6CHTO  H151 2250   4.088   4.590   1.395  0.6325  0.4627 -0.3242
    6CHTO   O52 2251   4.223   4.680   1.513  0.7937 -0.3048  0.5890
    6CHTO   C86 2252   4.302   4.675   1.635 -0.3101 -0.3966 -0.1803
    6CHTO  H158 2253   4.383   4.603   1.612 -1.8463 -2.1690 -0.1618
    6CHTO   C90 2254   4.368   4.808   1.661  0.6364  0.2174 -0.1077
    6CHTO   O60 2255   4.414   4.875   1.542  0.0356 -0.3514 -0.2500
    6CHTO  H138 2256   4.377   4.960   1.529 -0.4998 -0.5810 -0.2219
    6CHTO   O50 2257   4.244   4.459   1.435  0.6118  0.2932  0.9993
    6CHTO   C73 2258   4.282   4.344   1.356  0.7204  0.0319  0.0666
    6CHTO  H145 2259   4.195   4.303   1.303 -0.1659  2.0215 -0.0747
    6CHTO   C74 2260   4.345   4.226   1.445  0.3083 -0.2253  0.0921
    6CHTO  H146 2261   4.267   4.191   1.514  0.3083 -2.5567 -1.0609
    6CHTO   O54 2262   4.383   4.117   1.356 -0.6452 -0.4775  0.1539
    6CHTO  H133 2263   4.334   4.040   1.377 -0.9843 -1.8680 -5.1480
    6CHTO   C75 2264   4.462   4.293   1.522 -0.2202  0.4508  0.4160
    6CHTO  H147 2265   4.427   4.387   1.566  0.4822  1.4299 -1.0941
    6CHTO   N13 2266   4.518   4.207   1.627  0.5022  0.0287 -0.3764
    6CHTO  H139 2267   4.533   4.106   1.592  0.0484  0.1881 -1.0277
    6CHTO  H140 2268   4.457   4.207   1.716  0.3340  0.2357 -0.4916
    6CHTO   C76 2269   4.573   4.333   1.412 -0.7740  0.4118  0.2695
    6CHTO  H148 2270   4.597   4.241   1.360  0.5965  1.6425 -1.3385
    6CHTO   O49 2271   4.511   4.430   1.313  0.0432  0.2631 -0.1356
    6CHTO   C77 2272   4.387   4.386   1.254  0.2323 -0.6019  0.1774
    6CHTO  H149 2273   4.417   4.297   1.198  0.3444 -1.0567  0.9584
    6CHTO   C88 2274   4.355   4.500   1.160  0.6098 -0.0276 -0.0845
    6CHTO   O58 2275   4.482   4.549   1.064  0.1371  0.3453 -0.3749
    6CHTO  H136 2276   4.514   4.474   1.018 -0.7547  0.2157 -0.7931
    6CHTO   O51 2277   4.704   4.395   1.494 -0.6696  0.1373 -0.0903
    6CHTO   C78 2278   4.849   4.405   1.411  0.4655 -0.0423 -0.4526
    6CHTO  H150 2279   4.926   4.454   1.475  0.3363 -1.9902  1.2635
    6CHTO   C80 2280   4.836   4.484   1.282  0.1577 -0.0413  0.1506
    6CHTO  H152 2281   4.774   4.419   1.217  0.9429 -0.8856  0.2257
    6CHTO   O55 2282   4.757   4.603   1.302 -0.1611  0.1893  0.2114
    6CHTO  H134 2283   4.704   4.615   1.226  2.1753  1.2052 -1.3463
    6CHTO   C84 2284   4.974   4.502   1.210  0.4295  0.3792  0.1576
    6CHTO  H156 2285   5.032   4.573   1.270 -1.4395  3.1211 -1.1446
    6CHTO   N15 2286   4.959   4.566   1.070  0.6353 -0.0223 -0.7153
    6CHTO  H143 2287   4.875   4.526   1.017 -0.0455 -1.0408  1.0734
    6CHTO  H144 2288   5.053   4.547   1.022  1.7483  3.5769 -0.1266
    6CHTO   C87 2289   5.040   4.363   1.195 -0.1806 -0.0656 -0.1918
    6CHTO  H159 2290   4.981   4.309   1.121  0.9429 -0.5668 -0.7352
    6CHTO   O53 2291   5.046   4.277   1.329 -1.2188  0.7043  0.0216
    6CHTO   C82 2292   4.913   4.269   1.385  0.2956 -0.2333 -0.4190
    6CHTO  H154 2293   4.845   4.219   1.317 -1.7147  2.1425 -0.2270
    6CHTO   C89 2294   4.919   4.184   1.512  0.2260 -0.1680  0.0932
    6CHTO   O59 2295   5.001   4.253   1.606  0.0164 -0.2257  0.2430
    6CHTO  H137 2296   4.988   4.346   1.605  2.0254  0.0846 -1.4011
    6CHTO   O45 2297   5.185   4.392   1.143  0.4922 -0.4099  0.4380
    6CHTO   C67 2298   5.302   4.372   1.225  1.0731 -0.5938 -0.0109
    6CHTO  H124 2299   5.328   4.268   1.247  1.7958 -0.7813 -1.6861
    6CHTO   C65 2300   5.415   4.430   1.138 -0.7028 -0.0582 -0.2710
    6CHTO  H122 2301   5.400   4.379   1.042  1.9135 -0.8782 -0.2905
    6CHTO   O44 2302   5.544   4.388   1.191 -0.3276 -0.2744 -0.0100
    6CHTO  H102 2303   5.547   4.318   1.254  2.5216 -0.5762 -0.4000
    6CHTO   C63 2304   5.399   4.590   1.120 -1.0032  0.5895 -0.0330
    6CHTO  H120 2305   5.300   4.615   1.083 -1.8871  0.9904  2.5179
    6CHTO   N11 2306   5.481   4.652   1.016  0.1489  0.1935 -0.1546
    6CHTO  H108 2307   5.447   4.751   0.993 -1.8337 -0.8977 -2.1219
    6CHTO  H109 2308   5.473   4.605   0.921  0.1446  1.9972 -1.0745
    6CHTO   C61 2309   5.410   4.661   1.267 -1.0559  0.0347 -0.2974
    6CHTO  H118 2310   5.377   4.764   1.251 -1.2322  0.1989  1.0491
    6CHTO   O40 2311   5.320   4.599   1.367 -0.8001 -0.2851 -0.1688
    6CHTO   C68 2312   5.304   4.446   1.364 -0.0278  0.1546 -0.4452
    6CHTO  H125 2313   5.206   4.437   1.414 -0.0042  0.5551 -0.3229
    6CHTO   C72 2314   5.405   4.384   1.464  0.4333  0.6604 -0.2793
    6CHTO   O48 2315   5.366   4.410   1.597  0.1368  0.4182  0.2257
    6CHTO  H105 2316   5.399   4.495   1.618 -2.0771  1.0949  1.1413
    6CHTO   O38 2317   5.548   4.666   1.317 -0.1732  0.3022 -0.0292
    6CHTO   C55 2318   5.565   4.781   1.401 -0.3057 -0.1873 -0.0122
    6CHTO  H112 2319   5.470   4.808   1.451 -0.8671 -1.3519 -0.4089
    6CHTO   C56 2320   5.629   4.907   1.317  0.3008 -0.3870  0.4245
    6CHTO  H113 2321   5.726   4.883   1.273 -0.7855  0.4026 -2.4953
    6CHTO   O42 2322   5.538   4.948   1.205  0.3368  0.2955 -0.0998
    6CHTO  H100 2323   5.507   4.874   1.155 -0.1526  0.3101  0.1913
    6CHTO   C57 2324   5.667   5.032   1.410  0.3782 -0.7514 -0.2499
    6CHTO  H114 2325   5.583   5.095   1.439 -0.7117 -2.4877  0.4082
    6CHTO   N10 2326   5.761   5.122   1.342 -0.2430 -0.1371 -0.1042
    6CHTO  H106 2327   5.729   5.147   1.242 -0.1870  1.1884  0.1962
    6CHTO  H107 2328   5.858   5.075   1.342 -1.5154 -2.8959  0.8533
    6CHTO   C58 2329   5.738   4.986   1.536  0.7095  0.1926 -0.4659
    6CHTO  H115 2330   5.841   4.951   1.518  0.4786 -2.0106  2.1823
    6CHTO   O37 2331   5.660   4.881   1.597  0.4743 -0.3145 -0.2643
    6CHTO   C59 2332   5.661   4.758   1.525  0.6353  0.4510 -0.2384
    6CHTO  H116 2333   5.763   4.750   1.488  0.7646  0.9726 -0.0035
    6CHTO   C70 2334   5.615   4.638   1.608 -0.1790 -0.0692  0.0759
    6CHTO   O46 2335   5.674   4.627   1.737 -0.0438 -0.1902  0.2941
    6CHTO  H103 2336   5.759   4.586   1.737 -0.9821 -2.2078  0.2791
    6CHTO   O39 2337   5.738   5.095   1.657 -0.1825  0.4521  0.1145
    6CHTO   C60 2338   5.866   5.145   1.700 -0.0432 -0.1427 -0.2230
    6CHTO  H117 2339   5.940   5.133   1.620  1.7638 -0.6121  1.4843
    6CHTO   C62 2340   5.854   5.294   1.723  0.9138 -0.5269 -0.3370
    6CHTO  H119 2341   5.812   5.320   1.624 -2.6836 -1.2529  0.9391
    6CHTO   O43 2342   5.754   5.324   1.828 -0.0734  0.7723 -0.4341
    6CHTO  H101 2343   5.726   5.411   1.846 -2.7262  0.1282 -1.2114
    6CHTO   C66 2344   5.994   5.356   1.741 -0.3694 -0.0364  0.1573
    6CHTO  H123 2345   6.064   5.320   1.666 -0.2930  3.9267 -1.8308
    6CHTO   N12 2346   5.996   5.505   1.711 -0.2583 -0.0247 -0.0800
    6CHTO  H110 2347   5.986   5.522   1.604 -1.3371  0.7778  0.1373
    6CHTO  H111 2348   6.086   5.547   1.751  0.0997 -2.6149  1.9728
    6CHTO   C69 2349   6.051   5.311   1.874  0.1581 -0.8313  0.1398
    6CHTO  H126 2350   5.978   5.344   1.952 -1.1168 -1.1972 -0.8822
    6CHTO   O41 2351   6.060   5.139   1.877  0.0877  0.9436  0.0845
    6CHTO   C64 2352   5.928   5.077   1.824  0.2660 -0.0813 -0.1056
    6CHTO  H121 2353   5.857   5.092   1.908  0.1995  1.2480 -0.3785
    6CHTO   C71 2354   5.944   4.928   1.798  0.2567 -0.2327 -0.0506
    6CHTO   O47 2355   5.973   4.834   1.903 -0.2021  0.7377  0.2547
    6CHTO  H104 2356   5.902   4.828   1.964  0.6727  0.8584  1.3079
    6CHTO   O34 2357   6.184   5.368   1.910  0.4451  0.0223  0.0816
    6CHTO   C49 2358   6.283   5.374   2.032  0.1849  0.1640  0.1682
    6CHTO   H91 2359   6.227   5.364   2.125 -1.9329  3.6716 -0.6087
    6CHTO   C47 2360   6.344   5.515   2.046 -0.1606  1.2817  0.4675
    6CHTO   H89 2361   6.386   5.517   2.149 -2.0194 -0.1801  1.2812
    6CHTO   O33 2362   6.232   5.609   2.038  0.7392 -0.0822 -0.2955
    6CHTO   H70 2363   6.266   5.695   2.021 -0.4258  0.8749  1.9547
    6CHTO   C45 2364   6.465   5.539   1.941  0.0883  0.2977 -0.2787
    6CHTO   H87 2365   6.411   5.516   1.847 -0.9740  1.8143 -0.0560
    6CHTO    N8 2366   6.507   5.676   1.943 -0.1329 -0.4740 -0.3129
    6CHTO   H75 2367   6.614   5.687   1.953 -0.3939  1.2352  0.7573
    6CHTO   H76 2368   6.458   5.724   1.860 -1.2548 -3.5822 -1.5118
    6CHTO   C43 2369   6.577   5.428   1.946 -0.3602  0.2589 -0.4615
    6CHTO   H85 2370   6.638   5.442   1.856  0.2379 -1.5279 -0.3685
    6CHTO   O29 2371   6.517   5.295   1.947  0.7198  0.6774 -0.2479
    6CHTO   C50 2372   6.394   5.272   2.028  0.5800  0.9297  0.2960
    6CHTO   H92 2373   6.345   5.182   1.988  0.1198  1.7013 -0.8863
    6CHTO   C54 2374   6.431   5.223   2.173 -0.2872  0.0322 -0.5768
    6CHTO   O36 2375   6.507   5.103   2.171 -0.2239 -0.5263 -0.5106
    6CHTO   H72 2376   6.448   5.031   2.164 -0.1277 -0.5378 -1.2317
    6CHTO   O27 2377   6.668   5.439   2.058 -0.5180 -0.7432 -0.2110
    6CHTO   C37 2378   6.804   5.392   2.075 -0.3564  0.5184 -0.4549
    6CHTO   H79 2379   6.817   5.284   2.059  1.0900  0.6498 -0.2063
    6CHTO   C38 2380   6.901   5.447   1.966  0.1172 -0.3428  0.0531
    6CHTO   H80 2381   6.870   5.551   1.949 -1.3165 -0.4960  1.5627
    6CHTO   O31 2382   6.877   5.369   1.844 -0.1403 -0.3515  0.0665
    6CHTO   H68 2383   6.937   5.298   1.837  0.1811 -0.0699 -0.0297
    6CHTO   C39 2384   7.048   5.442   2.004  0.3993 -0.1764 -1.0362
    6CHTO   H81 2385   7.089   5.342   1.985  1.4388 -0.0529  0.4826
    6CHTO    N7 2386   7.132   5.523   1.911  0.6718  0.0273 -0.1988
    6CHTO   H73 2387   7.113   5.629   1.921 -0.8989 -0.3308  0.7286
    6CHTO   H74 2388   7.105   5.501   1.809 -2.0695 -0.5906  0.6375
    6CHTO   C40 2389   7.069   5.479   2.158 -0.2053  0.3883  0.2954
    6CHTO   H82 2390   7.048   5.582   2.190  0.9080  1.2043 -1.5286
    6CHTO   O26 2391   6.989   5.386   2.228 -0.3846 -0.0401  0.3629
    6CHTO   C41 2392   6.849   5.424   2.218  0.3812  0.1764 -0.0660
    6CHTO   H83 2393   6.844   5.533   2.233  2.6585  0.3881 -0.6727
    6CHTO   C52 2394   6.761   5.347   2.323 -0.4022 -0.1371 -0.7298
    6CHTO   O35 2395   6.783   5.372   2.464  0.4445  0.8927  0.5246
    6CHTO   H71 2396   6.751   5.308   2.525  0.0294 -0.4136 -1.0265
    6CHTO   O28 2397   7.194   5.440   2.210 -0.1484  0.2351 -0.1962
    6CHTO   C42 2398   7.254   5.475   2.340  0.4673  0.8727 -0.1090
    6CHTO   H84 2399   7.360   5.478   2.316  0.2814 -0.0257 -1.0765
    6CHTO   C44 2400   7.237   5.368   2.446  0.6697 -0.0587 -0.3871
    6CHTO   H86 2401   7.137   5.362   2.488  0.9313 -0.4109  0.1976
    6CHTO   O32 2402   7.250   5.238   2.390 -0.0604 -0.2044  0.3451
    6CHTO   H69 2403   7.338   5.212   2.370 -0.4873 -1.0638 -0.5336
    6CHTO   C48 2404   7.326   5.399   2.579 -0.0822 -0.2767  0.8021
    6CHTO   H90 2405   7.428   5.405   2.543 -1.2855  1.6722 -2.5292
    6CHTO    N9 2406   7.322   5.290   2.683  0.2074  0.2916 -0.5877
    6CHTO   H77 2407   7.423   5.255   2.697  0.0632  0.8065  1.9649
    6CHTO   H78 2408   7.296   5.331   2.780  1.8790  1.7506 -0.7188
    6CHTO   C51 2409   7.287   5.540   2.635 -0.7317  0.5132  0.0167
    6CHTO   H93 2410   7.180   5.544   2.655 -0.3303  1.6761  2.0530
    6CHTO   O30 2411   7.320   5.636   2.534  0.1489 -0.2808 -0.0254
    6CHTO   C46 2412   7.228   5.609   2.400 -0.0880  0.3436 -0.1484
    6CHTO   H88 2413   7.122   5.607   2.423  0.3755  1.2612  2.2567
    6CHTO   C53 2414   7.257   5.726   2.306 -0.2033  1.4121 -0.6823
    6CHTO   O72 2415   7.223   5.851   2.367  0.2347  0.0067 -0.5046
    6CHTO  H199 2416   7.302   5.881   2.407  2.6602 -4.2975 -1.7481
    6CHTO   O22 2417   7.379   5.584   2.738 -0.6232  0.2849 -0.3846
    6CHTO   C31 2418   7.341   5.693   2.831  0.0816 -0.2668 -0.3595
    6CHTO   H59 2419   7.247   5.737   2.791  0.0633 -0.0238 -0.0489
    6CHTO   C29 2420   7.311   5.632   2.971  0.0782 -0.0579 -0.6779
    6CHTO   H57 2421   7.400   5.585   3.017 -0.1632 -0.3489 -0.5120
    6CHTO   O21 2422   7.213   5.528   2.955  0.0991 -0.1732 -0.4343
    6CHTO   H37 2423   7.225   5.477   2.877 -0.5865 -1.3039  0.1729
    6CHTO   C27 2424   7.262   5.748   3.067  0.0694 -0.2149 -0.6252
    6CHTO   H55 2425   7.164   5.786   3.034 -0.3242 -2.5165 -2.2136
    6CHTO    N5 2426   7.246   5.700   3.205  0.3499  0.1712 -0.5622
    6CHTO   H43 2427   7.175   5.618   3.209 -0.2685  0.7095 -0.4137
    6CHTO   H44 2428   7.216   5.792   3.253 -0.8497 -0.8701  0.7488
    6CHTO   C25 2429   7.360   5.873   3.067  0.9022  0.1218  0.7811
    6CHTO   H53 2430   7.445   5.855   3.135  0.6236 -0.5998  0.9489
    6CHTO   O17 2431   7.394   5.913   2.932 -0.9054 -0.6063  0.8512
    6CHTO   C32 2432   7.437   5.807   2.843  0.5040  0.1577  0.3016
    6CHTO   H60 2433   7.534   5.771   2.875  1.4511  0.3234 -2.2746
    6CHTO   C36 2434   7.459   5.877   2.708  0.7078  0.1532 -0.0256
    6CHTO   O25 2435   7.571   5.970   2.713 -0.5424  0.7234 -0.2674
    6CHTO   H40 2436   7.546   6.034   2.649 -0.1192  0.1959 -0.9697
    6CHTO   O15 2437   7.274   5.999   3.132 -0.0281  0.4353  0.2623
    6CHTO   C19 2438   7.136   6.047   3.179 -0.6960  0.2171 -0.4065
    6CHTO   H47 2439   7.084   5.951   3.194 -3.1246  1.5052 -0.2706
    6CHTO   C20 2440   7.155   6.123   3.314 -0.1269 -0.4319 -0.4110
    6CHTO   H48 2441   7.222   6.210   3.303 -0.7433 -0.0476 -1.1735
    6CHTO   O19 2442   7.220   6.033   3.398  0.1775 -0.3733  0.2783
    6CHTO   H35 2443   7.264   6.064   3.475  1.7888 -1.0241 -0.3726
    6CHTO   C21 2444   7.022   6.176   3.371  0.2029  0.2782 -0.9354
    6CHTO   H49 2445   6.957   6.090   3.390  2.7027 -1.5522 -0.4669
    6CHTO    N4 2446   7.042   6.257   3.496  0.3600 -0.4533 -0.3951
    6CHTO   H41 2447   7.098   6.348   3.480  1.8613 -1.4165 -0.6770
    6CHTO   H42 2448   6.955   6.271   3.559  0.1575 -0.5655 -0.6453
    6CHTO   C22 2449   6.939   6.243   3.263  0.6331  0.1229 -0.6904
    6CHTO   H50 2450   6.978   6.339   3.231  0.8394  0.5801  0.9135
    6CHTO   O14 2451   6.928   6.161   3.145 -0.5957 -0.2726 -0.0851
    6CHTO   C23 2452   7.054   6.128   3.082 -0.0128 -0.7908 -0.4463
    6CHTO   H51 2453   7.101   6.223   3.051 -0.5900 -0.6868 -1.0148
    6CHTO   C34 2454   7.007   6.035   2.959 -0.1317  0.0013 -0.7212
    6CHTO   O23 2455   7.106   5.981   2.873  0.5329 -0.1095  0.7971
    6CHTO   H38 2456   7.192   5.976   2.908  0.6698 -0.1779  0.4564
    6CHTO   O16 2457   6.802   6.261   3.307 -0.3048  0.3591  0.2010
    6CHTO   C24 2458   6.693   6.331   3.204 -0.7477  0.3595  0.0003
    6CHTO   H52 2459   6.724   6.320   3.100  0.5662 -1.0112  0.5097
    6CHTO   C26 2460   6.685   6.480   3.227  0.3361 -0.1882 -0.3520
    6CHTO   H54 2461   6.665   6.495   3.335 -0.1899  0.0369 -0.4825
    6CHTO   O20 2462   6.808   6.545   3.199  0.7817 -0.7433  0.1030
    6CHTO   H36 2463   6.806   6.635   3.228 -0.8265 -0.7283 -0.0279
    6CHTO   C30 2464   6.563   6.541   3.149 -0.0383 -0.3061  0.1668
    6CHTO   H58 2465   6.577   6.533   3.041 -0.9905 -0.2770  0.0320
    6CHTO    N6 2466   6.551   6.690   3.194  0.1023 -0.0902 -0.1336
    6CHTO   H45 2467   6.469   6.720   3.132  1.6446  1.2402 -1.5871
    6CHTO   H46 2468   6.638   6.742   3.157  0.3465 -1.1100 -1.0416
    6CHTO   C33 2469   6.435   6.461   3.174 -0.0685  0.4972  0.0671
    6CHTO   H61 2470   6.398   6.463   3.277  0.4661  0.5880  0.2618
    6CHTO   O18 2471   6.466   6.325   3.141 -0.0523  0.0099  0.9086
    6CHTO   C28 2472   6.560   6.257   3.222 -0.2165  0.4952  0.0525
    6CHTO   H56 2473   6.533   6.268   3.327  0.9270  0.8408  0.3160
    6CHTO   C35 2474   6.574   6.120   3.164  0.3473  0.0725 -0.0661
    6CHTO   O24 2475   6.642   6.039   3.261 -0.2442  0.0441  0.5272
    6CHTO   H39 2476   6.603   5.954   3.268 -1.6432  0.5197 -1.0458
    6CHTO    O9 2477   6.317   6.508   3.091  0.2643 -0.4071 -0.6811
    6CHTO   C13 2478   6.174   6.442   3.121  0.0527  0.2663 -0.2714
    6CHTO   H26 2479   6.190   6.358   3.192 -0.1871 -0.1804 -0.7420
    6CHTO   C11 2480   6.101   6.397   2.985  0.8606 -0.3245 -0.0022
    6CHTO   H24 2481   6.173   6.337   2.928 -0.2995  0.0649 -1.9057
    6CHTO    O8 2482   6.061   6.515   2.902  0.3749  0.1254 -0.2831
    6CHTO    H3 2483   5.979   6.554   2.925 -0.5217 -1.1652 -1.2683
    6CHTO    C9 2484   5.986   6.298   3.020  0.1732 -0.1849 -0.2831
    6CHTO   H22 2485   6.039   6.222   3.079  2.3506  0.8351 -0.8782
    6CHTO    N2 2486   5.936   6.219   2.906  0.0383 -0.1120 -0.3420
    6CHTO   H10 2487   5.996   6.224   2.817  3.0010  0.3251  1.6084
    6CHTO   H11 2488   5.835   6.247   2.880  0.1632  0.1952 -0.5000
    6CHTO    C7 2489   5.894   6.375   3.124  0.0613  0.0244 -0.3613
    6CHTO   H20 2490   5.906   6.313   3.215 -0.3637 -0.7129 -0.8006
    6CHTO    O4 2491   5.935   6.519   3.161 -0.1011  0.4852 -0.2044
    6CHTO   C14 2492   6.076   6.530   3.206 -0.0758  0.4083 -0.5424
    6CHTO   H27 2493   6.097   6.506   3.312 -1.1209  0.0095 -0.4287
    6CHTO   C18 2494   6.116   6.683   3.187  0.3563 -0.2714 -0.3946
    6CHTO   O13 2495   6.154   6.726   3.058 -0.7888 -0.2388 -0.1651
    6CHTO    H7 2496   6.248   6.716   3.058 -0.8359 -1.1540  3.1715
    6CHTO    O2 2497   5.739   6.363   3.083  0.7246 -0.5536 -0.6230
    6CHTO    C1 2498   5.642   6.422   3.171  0.0224 -0.2266  0.0847
    6CHTO   H14 2499   5.693   6.480   3.251 -1.0814  1.5441 -0.4708
    6CHTO    C2 2500   5.539   6.326   3.243 -0.0825 -0.1988 -0.0441
    6CHTO   H15 2501   5.513   6.250   3.168 -1.2420 -2.0901  2.1941
    6CHTO    O6 2502   5.595   6.263   3.358 -0.0579 -1.0633 -0.0248
    6CHTO    H1 2503   5.532   6.210   3.404  0.7332 -0.9765  1.1812
    6CHTO    C3 2504   5.405   6.410   3.288 -0.2993  0.1532  0.0426
    6CHTO   H16 2505   5.419   6.469   3.379 -2.6370 -0.5590  0.8862
    6CHTO    N1 2506   5.292   6.309   3.314 -0.1094  0.3353 -1.2830
    6CHTO    H8 2507   5.200   6.321   3.258 -0.7158 -3.2997 -1.1730
    6CHTO    H9 2508   5.266   6.314   3.419  0.3821  1.0923 -1.1958
    6CHTO    C4 2509   5.358   6.510   3.176  0.4319  0.9389 -0.3533
    6CHTO   H17 2510   5.328   6.454   3.088 -3.2458  1.7536  0.3145
    6CHTO    O1 2511   5.467   6.595   3.134 -0.4012  0.7238  0.0769
    6CHTO    C5 2512   5.572   6.515   3.076  0.3403 -0.0993  0.1881
    6CHTO   H18 2513   5.533   6.453   2.996 -0.4058  0.3415  0.2030
    6CHTO   C16 2514   5.665   6.616   3.011 -0.3694 -0.0804  0.3758
    6CHTO   O11 2515   5.632   6.656   2.880 -0.0941 -0.3760 -0.2836
    6CHTO    H5 2516   5.646   6.591   2.815  1.2656  1.4099 -1.8503
    6CHTO    O3 2517   5.260   6.604   3.220 -0.7057 -0.4806  0.3589
    6CHTO    C6 2518   5.172   6.667   3.117  0.3727  0.2841  0.4875
    6CHTO   H19 2519   5.115   6.748   3.164  0.9660  1.0212 -0.0347
    6CHTO    C8 2520   5.250   6.728   3.004 -0.0615  0.1105  0.0936
    6CHTO   H21 2521   5.330   6.663   2.968 -0.6739 -0.6027  0.0182
    6CHTO    O7 2522   5.327   6.833   3.061 -0.0592  0.6898  0.3012
    6CHTO    H2 2523   5.386   6.856   2.991 -1.4327  0.4631 -0.9645
    6CHTO   C12 2524   5.157   6.788   2.885  0.5442 -0.0701 -0.4304
    6CHTO   H25 2525   5.102   6.878   2.918 -0.5288  0.2216 -2.9394
    6CHTO    N3 2526   5.239   6.836   2.767  0.4624  0.6994  0.2186
    6CHTO   H12 2527   5.209   6.778   2.681  0.5661  0.5067  0.3126
    6CHTO   H13 2528   5.244   6.943   2.755  0.8574  0.5212 -1.3613
    6CHTO   C15 2529   5.052   6.678   2.854 -0.4170 -0.6903  0.1909
    6CHTO   H28 2530   5.106   6.598   2.803  1.7899  1.1408 -0.3905
    6CHTO   O10 2531   4.948   6.728   2.768 -0.2911  0.5057 -0.6704
    6CHTO    H4 2532   4.977   6.792   2.707 -0.9875  1.9886  0.5192
    6CHTO    O5 2533   4.981   6.618   2.966 -0.3150 -0.0809 -0.0225
    6CHTO   C10 2534   5.068   6.565   3.062  0.1034  0.7723  0.2707
    6CHTO   H23 2535   5.115   6.482   3.007 -2.7622  0.2570 -1.5173
    6CHTO   C17 2536   4.989   6.500   3.173  0.8600 -0.2537  0.9207
    6CHTO   O12 2537   4.930   6.381   3.116 -0.3035  0.3869 -0.0366
    6CHTO    H6 2538   4.902   6.326   3.187 -1.7934  0.8896 -0.2103
    7CHTO  H203 2539   4.852   2.043   0.754 -1.1609 -1.4653 -0.9568
    7CHTO   O82 2540   4.854   2.085   0.670  0.6642  0.2232 -0.0898
    7CHTO  C123 2541   4.899   2.008   0.559 -0.0915 -0.4172 -0.7540
    7CHTO  H227 2542   4.832   1.921   0.553 -1.0415  0.1961  0.5804
    7CHTO   O77 2543   4.868   2.097   0.450 -0.6718  0.6388 -0.1510
    7CHTO  C118 2544   4.903   2.042   0.322 -0.2800  0.5072  0.0088
    7CHTO  H222 2545   4.861   1.941   0.316 -1.0424  0.7456  1.1047
    7CHTO  C125 2546   4.838   2.133   0.210 -0.0681 -0.0506  0.5243
    7CHTO   O84 2547   4.827   2.062   0.084  0.4487 -0.2900  0.3527
    7CHTO  H205 2548   4.764   1.993   0.092  0.0365  0.3574  3.2910
    7CHTO  C114 2549   5.059   2.040   0.310  0.8611 -0.1221 -0.0429
    7CHTO  H218 2550   5.093   2.143   0.319  0.3662  0.0113  0.2707
    7CHTO  C116 2551   5.120   1.954   0.428  0.2275 -0.3922  0.2698
    7CHTO  H220 2552   5.109   1.846   0.407  0.7560 -0.6962  1.5005
    7CHTO   O79 2553   5.263   1.962   0.442  0.1559 -0.7502  0.4980
    7CHTO  H201 2554   5.304   1.879   0.451  0.6624 -0.3975  1.5903
    7CHTO  C120 2555   5.053   1.984   0.564  0.1586  0.4717  0.0586
    7CHTO  H224 2556   5.105   2.072   0.609 -0.8335  1.0285  0.1429
    7CHTO   N21 2557   5.076   1.868   0.654 -0.2901  0.0495  0.1836
    7CHTO  H211 2558   5.171   1.894   0.698 -0.0862 -1.5317  0.6886
    7CHTO  H212 2559   5.002   1.865   0.732 -0.9729  1.2657 -0.4081
    7CHTO   O75 2560   5.096   1.996   0.177  0.0962 -0.0240 -0.4076
    7CHTO  C112 2561   5.260   2.058   0.116  0.3037 -0.4103  0.1346
    7CHTO  H216 2562   5.315   1.966   0.091 -2.0768 -2.8665  3.4934
    7CHTO   O73 2563   5.322   2.130   0.225  0.1535  0.2692 -0.3506
    7CHTO  C113 2564   5.460   2.159   0.204  0.2145 -1.0416  0.1507
    7CHTO  H217 2565   5.508   2.059   0.210  1.3884 -0.3955  2.2467
    7CHTO  C124 2566   5.515   2.226   0.329 -0.1615  0.4596  0.4149
    7CHTO   O83 2567   5.506   2.157   0.453  0.3533 -0.1093  0.2227
    7CHTO  H204 2568   5.449   2.083   0.447 -0.2286  0.2967  0.6356
    7CHTO  C109 2569   5.475   2.251   0.078 -0.5093 -0.5481  0.2104
    7CHTO  H213 2570   5.446   2.353   0.107  2.3076  0.0041  1.2472
    7CHTO  C110 2571   5.392   2.205  -0.045  0.1206  0.0658 -0.2605
    7CHTO  H214 2572   5.448   2.118  -0.078  0.9064  0.1964  0.7048
    7CHTO   O78 2573   5.397   2.309  -0.145 -0.8226 -0.0660 -0.3973
    7CHTO  H200 2574   5.465   2.288  -0.207 -0.1109  1.7023 -0.2505
    7CHTO  C111 2575   5.247   2.161  -0.000  0.1589  0.6897  0.6637
    7CHTO  H215 2576   5.186   2.251   0.013 -1.0839  0.0590 -0.6737
    7CHTO   N19 2577   5.188   2.088  -0.115  0.1624  0.1504 -0.2061
    7CHTO  H207 2578   5.203   2.134  -0.212  1.0956 -0.2845 -0.2739
    7CHTO  H208 2579   5.203   1.981  -0.114 -0.5469  0.0552  0.5383
    7CHTO   O74 2580   5.620   2.250   0.041  0.0575 -0.4462  0.9684
    7CHTO  C115 2581   5.677   2.405   0.006 -0.0434 -0.0019 -0.4778
    7CHTO  H219 2582   5.603   2.465  -0.049 -0.2536 -1.0957 -1.4095
    7CHTO   O76 2583   5.706   2.496   0.148  0.0384  1.1239  0.1568
    7CHTO  C122 2584   5.815   2.433   0.225 -0.4302 -0.4790  0.0987
    7CHTO  H226 2585   5.784   2.330   0.241 -1.1125 -0.2292  0.4084
    7CHTO  C126 2586   5.843   2.492   0.364  0.1213 -0.0054 -0.8526
    7CHTO   O85 2587   5.725   2.482   0.443  0.2714  0.6553 -0.5149
    7CHTO  H206 2588   5.760   2.475   0.530  0.5900 -0.5277 -0.7325
    7CHTO  C121 2589   5.947   2.431   0.142 -0.2479  0.5354 -0.4984
    7CHTO  H225 2590   5.968   2.534   0.109 -1.0396  1.8619  2.9637
    7CHTO   O81 2591   6.067   2.388   0.213  0.2196  0.0919 -0.0064
    7CHTO  H202 2592   6.071   2.417   0.302  1.3647  1.0704 -0.3742
    7CHTO  C119 2593   5.915   2.331   0.021 -0.1829 -0.5548 -0.4328
    7CHTO  H223 2594   6.009   2.323  -0.033 -0.1137  0.4796 -0.4752
    7CHTO  C117 2595   5.804   2.384  -0.082  0.2690  0.3399 -0.2263
    7CHTO  H221 2596   5.768   2.321  -0.163 -0.2529 -0.3195  0.5052
    7CHTO   N20 2597   5.846   2.518  -0.141  0.0050 -0.2642 -0.2399
    7CHTO  H209 2598   5.808   2.603  -0.087 -3.8342 -1.3290 -1.1150
    7CHTO  H210 2599   5.787   2.511  -0.231  0.3538 -0.0595 -0.4853
    7CHTO   O80 2600   5.900   2.180   0.078 -0.4897 -0.5525 -0.4197
    7CHTO  C103 2601   5.945   2.065   0.005  0.8801 -1.0670 -0.0376
    7CHTO  H190 2602   5.934   2.077  -0.103  0.0393  1.1943  0.2680
    7CHTO  C101 2603   6.096   2.033   0.044  0.1693  0.1372 -0.2648
    7CHTO  H188 2604   6.101   2.027   0.152 -0.0887  0.5862 -0.2289
    7CHTO   O68 2605   6.173   2.158  -0.002 -0.6764  0.1945 -0.0513
    7CHTO  H168 2606   6.177   2.162  -0.096 -2.3278 -1.2700 -0.2265
    7CHTO   C99 2607   6.150   1.894  -0.019  0.4065  0.2200 -0.0838
    7CHTO  H186 2608   6.149   1.892  -0.130  1.9411  1.6282 -0.1309
    7CHTO   N17 2609   6.296   1.866   0.021 -0.0108 -0.5436  0.3639
    7CHTO  H174 2610   6.355   1.937  -0.034  0.4588 -0.5753  0.8218
    7CHTO  H175 2611   6.321   1.765  -0.007 -0.5689 -0.8784  1.0576
    7CHTO   C97 2612   6.060   1.782   0.031 -0.7725  0.8781 -0.4257
    7CHTO  H184 2613   6.077   1.772   0.139  2.2640  0.4768 -0.8974
    7CHTO   O64 2614   5.928   1.819  -0.001  0.2860  0.0458  0.1272
    7CHTO  C104 2615   5.869   1.937   0.052  0.6456 -0.6726 -0.4347
    7CHTO  H191 2616   5.870   1.933   0.161  1.8845 -0.2343 -0.4277
    7CHTO  C108 2617   5.727   1.947   0.005  1.7856  0.3703 -0.1059
    7CHTO   O71 2618   5.645   1.847   0.063 -0.5065 -0.4252 -0.0447
    7CHTO  H171 2619   5.661   1.763   0.024  2.4301 -0.5494  1.3466
    7CHTO   O62 2620   6.074   1.661  -0.042  0.0346  0.3120 -0.3431
    7CHTO   C91 2621   6.132   1.549   0.024 -0.1960 -0.4096 -0.2061
    7CHTO  H178 2622   6.240   1.561   0.017 -0.1357 -0.9093 -0.1564
    7CHTO   C92 2623   6.090   1.419  -0.062  0.0748  0.1948  0.3149
    7CHTO  H179 2624   6.098   1.433  -0.171 -3.1247 -1.8864 -0.2462
    7CHTO   O66 2625   6.181   1.313  -0.030  0.7292  0.1604  0.2256
    7CHTO  H166 2626   6.270   1.341  -0.023 -0.1469  2.8254  1.4699
    7CHTO   C93 2627   5.942   1.367  -0.029 -0.1089  0.3862 -0.1324
    7CHTO  H180 2628   5.929   1.265  -0.069 -1.9898 -1.2541  4.2809
    7CHTO   N16 2629   5.836   1.442  -0.101 -0.2394  0.0020 -0.0330
    7CHTO  H172 2630   5.851   1.548  -0.087  2.7125 -0.4892  0.8745
    7CHTO  H173 2631   5.735   1.412  -0.080 -0.4881 -0.5600 -1.9654
    7CHTO   C94 2632   5.917   1.363   0.127 -0.1174 -0.2701 -0.7151
    7CHTO  H181 2633   5.844   1.436   0.161 -1.2216 -1.1615 -1.1198
    7CHTO   O61 2634   6.043   1.392   0.191 -0.2722 -0.0801  0.5167
    7CHTO   C95 2635   6.100   1.522   0.173  0.7748  0.1951  0.0438
    7CHTO  H182 2636   6.025   1.595   0.206  0.5955  0.7421 -1.5411
    7CHTO  C106 2637   6.219   1.530   0.272  0.1100  0.6445  0.1324
    7CHTO   O69 2638   6.173   1.518   0.405 -0.6543 -0.1087  0.3356
    7CHTO  H169 2639   6.217   1.445   0.444 -1.0407 -0.3468  0.3202
    7CHTO   O63 2640   5.869   1.225   0.166  0.1348  0.1771 -0.1887
    7CHTO   C96 2641   5.855   1.192   0.312 -0.1462 -0.3576 -0.0919
    7CHTO  H183 2642   5.847   1.283   0.371  1.2840  0.2651 -0.8301
    7CHTO   C98 2643   5.981   1.115   0.369 -0.0129  0.4927  0.5933
    7CHTO  H185 2644   6.077   1.167   0.351 -0.9918  2.0318 -0.3140
    7CHTO   O67 2645   5.976   1.103   0.509 -0.5691 -0.3394  0.1124
    7CHTO  H167 2646   6.042   1.046   0.543 -1.7927 -1.1105  1.2671
    7CHTO  C102 2647   5.982   0.966   0.296 -0.1147 -0.1091  0.7513
    7CHTO  H189 2648   6.030   0.899   0.369  1.4683  0.6685  0.4427
    7CHTO   N18 2649   6.062   0.955   0.173 -0.3626 -0.4442 -0.2658
    7CHTO  H176 2650   6.012   1.011   0.096 -3.1607 -1.8862  0.4598
    7CHTO  H177 2651   6.063   0.851   0.143  0.9945 -0.3816 -0.4772
    7CHTO  C105 2652   5.835   0.915   0.274  0.3916 -0.4378 -0.3865
    7CHTO  H192 2653   5.807   0.936   0.171  0.5638  1.3978 -0.0770
    7CHTO   O65 2654   5.737   0.973   0.359  0.4801  0.4604 -0.2216
    7CHTO  C100 2655   5.722   1.112   0.335 -0.1088 -0.7862 -0.3589
    7CHTO  H187 2656   5.659   1.120   0.245  0.6639  0.3508 -0.8166
    7CHTO  C107 2657   5.644   1.182   0.448 -0.2477 -0.4062 -0.5882
    7CHTO   O70 2658   5.699   1.170   0.578  0.6676  0.0789  0.2538
    7CHTO  H170 2659   5.762   1.233   0.609  0.0975 -0.7935  3.3619
    7CHTO   O57 2660   5.844   0.756   0.292 -0.2655  0.0708  0.0285
    7CHTO   C85 2661   5.778   0.656   0.216 -0.2029 -0.1475 -0.0045
    7CHTO  H157 2662   5.799   0.674   0.108 -2.1510 -0.7953 -0.5172
    7CHTO   C83 2663   5.626   0.677   0.224 -0.2860 -0.3530 -0.1095
    7CHTO  H155 2664   5.606   0.771   0.174 -0.6697  0.3033  1.2599
    7CHTO   O56 2665   5.597   0.690   0.363 -0.3221  0.2755  0.3117
    7CHTO  H135 2666   5.507   0.670   0.379 -0.1671  1.0328  2.2562
    7CHTO   C81 2667   5.541   0.561   0.163 -0.6642 -0.3205 -0.5365
    7CHTO  H153 2668   5.552   0.557   0.055  1.4374  0.1261 -0.3657
    7CHTO   N14 2669   5.394   0.584   0.181 -0.0525  0.1731  0.1901
    7CHTO  H141 2670   5.349   0.626   0.093  0.8814  2.5513  0.8155
    7CHTO  H142 2671   5.338   0.501   0.220  1.0912 -0.2840  0.8798
    7CHTO   C79 2672   5.596   0.428   0.225 -0.3372 -0.3907  0.0651
    7CHTO  H151 2673   5.539   0.348   0.178 -0.3201  1.6467 -3.6300
    7CHTO   O52 2674   5.736   0.406   0.193 -0.3763  0.1802  0.4315
    7CHTO   C86 2675   5.824   0.503   0.258  0.0910  0.1397  0.2524
    7CHTO  H158 2676   5.818   0.494   0.369  0.3526  1.4911  0.3887
    7CHTO   C90 2677   5.970   0.468   0.227 -0.0292  0.4675 -0.2462
    7CHTO   O60 2678   6.056   0.550   0.301 -0.0955  0.5748 -0.0463
    7CHTO  H138 2679   6.140   0.539   0.261 -0.5933  0.2438 -1.0021
    7CHTO   O50 2680   5.576   0.402   0.365 -0.3895 -0.2147 -0.3822
    7CHTO   C73 2681   5.565   0.280   0.434  0.2498 -0.0068 -0.9876
    7CHTO  H145 2682   5.638   0.202   0.407  1.0040  0.0523  0.8779
    7CHTO   C74 2683   5.423   0.212   0.406  0.1413  0.1390  0.7424
    7CHTO  H146 2684   5.410   0.194   0.298  2.2934  1.1771  0.2682
    7CHTO   O54 2685   5.435   0.081   0.454 -0.3351  0.0297 -0.5738
    7CHTO  H133 2686   5.469   0.084   0.541  1.4914  1.2981 -1.2993
    7CHTO   C75 2687   5.315   0.299   0.463  0.4962 -0.3517 -0.7386
    7CHTO  H147 2688   5.319   0.396   0.413 -0.8707  0.1318  0.0590
    7CHTO   N13 2689   5.188   0.246   0.431  0.2860  0.4192  0.1053
    7CHTO  H139 2690   5.185   0.222   0.325  0.2879  1.6095 -0.1710
    7CHTO  H140 2691   5.098   0.307   0.430  0.2813  0.4214 -1.2924
    7CHTO   C76 2692   5.339   0.316   0.616 -0.8637  0.4780 -0.8811
    7CHTO  H148 2693   5.327   0.217   0.659  1.2716  0.4674 -0.2549
    7CHTO   O49 2694   5.473   0.372   0.650  0.0858 -0.5474 -0.6434
    7CHTO   C77 2695   5.585   0.304   0.593  0.0407  0.0119  0.5259
    7CHTO  H149 2696   5.604   0.205   0.636  0.8212 -1.4511 -2.9525
    7CHTO   C88 2697   5.707   0.396   0.627  0.1539  0.1680  0.2631
    7CHTO   O58 2698   5.813   0.360   0.563 -0.0408 -0.6611  0.2209
    7CHTO  H136 2699   5.798   0.377   0.472 -0.3010 -1.4939  0.1049
    7CHTO   O51 2700   5.226   0.425   0.675 -0.1367  0.1774 -0.2382
    7CHTO   C78 2701   5.195   0.404   0.828 -0.2379  0.3070 -0.1287
    7CHTO  H150 2702   5.246   0.325   0.888 -0.7865  1.8244  2.4384
    7CHTO   C80 2703   5.047   0.380   0.837  0.4136  1.0194 -0.3588
    7CHTO  H152 2704   4.990   0.463   0.790 -1.4976  0.9892  1.8411
    7CHTO   O55 2705   5.027   0.258   0.766 -0.4323  0.2076 -0.1218
    7CHTO  H134 2706   4.940   0.223   0.773 -0.1867 -0.3472  0.1901
    7CHTO   C84 2707   4.993   0.375   0.984  0.0586  1.2932  0.4311
    7CHTO  H156 2708   5.032   0.283   1.028 -0.3500  0.8672 -0.0982
    7CHTO   N15 2709   4.845   0.377   0.994  0.3051  0.0540  0.4451
    7CHTO  H143 2710   4.810   0.359   1.094  1.0942 -1.3706  0.4824
    7CHTO  H144 2711   4.799   0.308   0.926  1.5316  1.2798 -1.6915
    7CHTO   C87 2712   5.055   0.481   1.072  0.2683 -0.1388 -0.2479
    7CHTO  H159 2713   5.032   0.584   1.043  1.3305  0.6300  1.5587
    7CHTO   O53 2714   5.225   0.490   1.045 -0.0985  0.3217 -0.4628
    7CHTO   C82 2715   5.245   0.531   0.909  0.3994  0.3241 -0.7797
    7CHTO  H154 2716   5.182   0.617   0.888 -0.6468  0.7126  3.5298
    7CHTO   C89 2717   5.391   0.567   0.884 -0.3451 -0.4194 -0.0975
    7CHTO   O59 2718   5.407   0.704   0.908 -0.3137 -0.3078 -0.0531
    7CHTO  H137 2719   5.498   0.726   0.903 -0.4708  0.4164  0.1712
    7CHTO   O45 2720   5.034   0.443   1.229  0.2909  0.9766 -0.0241
    7CHTO   C67 2721   5.089   0.542   1.318 -0.4662 -0.4139 -0.2447
    7CHTO  H124 2722   5.171   0.597   1.272  0.2952 -1.6350 -0.3615
    7CHTO   C65 2723   4.984   0.643   1.372  0.3774 -0.1523 -0.2096
    7CHTO  H122 2724   4.890   0.591   1.390 -1.6451  2.2631 -3.2919
    7CHTO   O44 2725   4.943   0.729   1.260 -0.2810  0.2311  0.2598
    7CHTO  H102 2726   4.895   0.680   1.197  2.4211 -1.8382 -0.3104
    7CHTO   C63 2727   5.028   0.713   1.510 -0.6715  0.0715  0.0999
    7CHTO  H120 2728   4.993   0.649   1.591  1.9014 -0.4509  0.8256
    7CHTO   N11 2729   4.956   0.846   1.545 -0.8076  0.9435  0.3341
    7CHTO  H108 2730   4.969   0.862   1.650 -0.9448  0.6786  0.3910
    7CHTO  H109 2731   4.853   0.842   1.518 -0.5793  0.0679 -0.4358
    7CHTO   C61 2732   5.187   0.714   1.523 -0.1815  0.0175 -0.3711
    7CHTO  H118 2733   5.205   0.750   1.626  0.2395 -2.1816  0.3672
    7CHTO   O40 2734   5.241   0.586   1.515  0.2074  0.4030 -0.0371
    7CHTO   C68 2735   5.165   0.483   1.446 -0.1692 -0.3052 -0.7141
    7CHTO  H125 2736   5.103   0.434   1.524 -1.9813 -0.6082 -2.3304
    7CHTO   C72 2737   5.272   0.383   1.403  0.1409 -0.2741 -0.0498
    7CHTO   O48 2738   5.308   0.288   1.504  0.2565  0.0363  0.0306
    7CHTO  H105 2739   5.251   0.214   1.506 -1.0465  1.0234 -0.3016
    7CHTO   O38 2740   5.255   0.789   1.419  0.3005 -0.0074 -0.1937
    7CHTO   C55 2741   5.385   0.838   1.456 -0.2039 -0.6311  0.5132
    7CHTO  H112 2742   5.430   0.778   1.537  2.0823  0.4838  0.1246
    7CHTO   C56 2743   5.367   0.992   1.495  0.4693 -1.4263  0.6090
    7CHTO  H113 2744   5.321   1.043   1.409 -0.9878  0.1276  2.2626
    7CHTO   O42 2745   5.275   1.009   1.603 -0.1002 -0.0240 -0.1837
    7CHTO  H100 2746   5.313   1.055   1.675  1.7586 -3.5168  1.1696
    7CHTO   C57 2747   5.509   1.062   1.515 -0.4842 -0.3449 -0.1251
    7CHTO  H114 2748   5.554   1.026   1.608 -0.0842  0.7840  0.1262
    7CHTO   N10 2749   5.498   1.212   1.532  0.2578  0.1147 -0.3856
    7CHTO  H106 2750   5.397   1.243   1.552  0.1588 -0.0931 -0.5606
    7CHTO  H107 2751   5.566   1.252   1.606 -1.0252 -0.0332  0.8979
    7CHTO   C58 2752   5.607   1.026   1.398  0.5016  0.3153 -0.5483
    7CHTO  H115 2753   5.576   1.079   1.306 -0.1779 -1.0831 -1.1333
    7CHTO   O37 2754   5.606   0.882   1.377  0.2421  0.2178  0.1808
    7CHTO   C59 2755   5.483   0.822   1.332 -0.2786 -0.2398  0.2001
    7CHTO  H116 2756   5.448   0.876   1.244 -0.5409 -0.3830  0.2171
    7CHTO   C70 2757   5.501   0.675   1.299  0.4424  0.0276 -0.0872
    7CHTO   O46 2758   5.571   0.656   1.179  0.3505 -0.6266  0.6475
    7CHTO  H103 2759   5.523   0.641   1.100  0.5446  0.8179  0.2466
    7CHTO   O39 2760   5.764   1.071   1.433  0.2303 -0.1247 -0.4221
    7CHTO   C60 2761   5.850   1.065   1.320  0.0742  0.3855  0.1348
    7CHTO  H117 2762   5.862   0.964   1.282  1.8806 -0.2823  2.3819
    7CHTO   C62 2763   5.800   1.147   1.192  0.9805 -0.1548 -0.1981
    7CHTO  H119 2764   5.718   1.086   1.149  0.1631  0.1275  0.9414
    7CHTO   O43 2765   5.744   1.275   1.241  0.6351 -0.2861 -0.1427
    7CHTO  H101 2766   5.819   1.321   1.275  0.5822 -0.3302  0.0352
    7CHTO   C66 2767   5.927   1.156   1.083 -0.4172  0.4702  0.0423
    7CHTO  H123 2768   5.943   1.058   1.036 -0.1345 -0.5287  2.1545
    7CHTO   N12 2769   5.897   1.247   0.969  0.3061 -0.3390 -0.0706
    7CHTO  H110 2770   5.799   1.226   0.930 -0.4459  3.0471 -0.0767
    7CHTO  H111 2771   5.910   1.348   1.003 -0.5089  0.4145 -1.9623
    7CHTO   C69 2772   6.062   1.196   1.146  0.0393  0.1259 -0.0149
    7CHTO  H126 2773   6.064   1.302   1.180  0.0849 -0.0746  0.6159
    7CHTO   O41 2774   6.089   1.107   1.265  0.8578  0.7456  0.3890
    7CHTO   C64 2775   5.988   1.108   1.365 -0.0012 -0.9520  0.2412
    7CHTO  H121 2776   5.983   1.209   1.412  2.0304 -1.1080  0.8494
    7CHTO   C71 2777   6.038   1.021   1.477  0.5345  0.5969 -0.2746
    7CHTO   O47 2778   6.059   0.888   1.436  0.0032  0.0638  0.8740
    7CHTO  H104 2779   6.122   0.842   1.487  2.2105  0.1127 -1.6872
    7CHTO   O34 2780   6.170   1.156   1.050 -0.2736  0.2985  0.0623
    7CHTO   C49 2781   6.277   1.033   1.000 -0.3231  0.0337  0.5654
    7CHTO   H91 2782   6.338   1.069   0.917 -0.0314  0.0894  0.7992
    7CHTO   C47 2783   6.192   0.913   0.952  0.3183  0.1094  0.0918
    7CHTO   H89 2784   6.259   0.842   0.899  2.0712 -0.2539  2.7359
    7CHTO   O33 2785   6.104   0.967   0.849  0.0946  0.6179 -0.2612
    7CHTO   H70 2786   6.099   0.909   0.775 -1.3922  0.4554 -0.0352
    7CHTO   C45 2787   6.115   0.847   1.078 -0.6847  0.1485  0.4897
    7CHTO   H87 2788   6.072   0.932   1.133  0.6746  1.5713 -0.5683
    7CHTO    N8 2789   6.009   0.746   1.042  0.1803 -0.1638 -1.1194
    7CHTO   H75 2790   5.924   0.746   1.108  1.7979  0.8483  0.9916
    7CHTO   H76 2791   5.974   0.769   0.942  0.0676  0.2283 -0.9889
    7CHTO   C43 2792   6.230   0.794   1.170  0.3588  0.8571  0.5939
    7CHTO   H85 2793   6.186   0.744   1.257 -0.7189 -0.6502 -0.7905
    7CHTO   O29 2794   6.317   0.906   1.210 -0.7647 -1.0009  0.2742
    7CHTO   C50 2795   6.371   1.000   1.120  0.0243 -0.0325 -0.5728
    7CHTO   H92 2796   6.392   1.102   1.155 -3.4104  0.5237  0.0041
    7CHTO   C54 2797   6.510   0.955   1.074 -0.1693 -0.8311  0.6894
    7CHTO   O36 2798   6.577   1.064   1.007 -0.2377 -0.2315 -0.1712
    7CHTO   H72 2799   6.667   1.071   1.030  0.1977 -1.5352 -1.4070
    7CHTO   O27 2800   6.316   0.698   1.103  0.0726  0.2817  0.3705
    7CHTO   C37 2801   6.376   0.577   1.150 -0.4987  0.2186  0.3083
    7CHTO   H79 2802   6.339   0.541   1.247 -2.4115  0.9090 -0.1626
    7CHTO   C38 2803   6.341   0.463   1.053  0.3264 -0.1050 -0.0530
    7CHTO   H80 2804   6.355   0.504   0.951 -0.0266 -1.4884 -0.6637
    7CHTO   O31 2805   6.200   0.434   1.073 -0.0857  0.7716 -0.0931
    7CHTO   H68 2806   6.169   0.377   1.005  0.9643  1.3653 -1.0926
    7CHTO   C39 2807   6.437   0.341   1.067 -0.4843 -0.0559 -0.2934
    7CHTO   H81 2808   6.412   0.294   1.162 -2.0458  1.3634  0.0209
    7CHTO    N7 2809   6.416   0.236   0.955 -0.3910  0.2768  0.3894
    7CHTO   H73 2810   6.349   0.152   0.974  0.5887 -0.6496 -0.2199
    7CHTO   H74 2811   6.511   0.186   0.942 -0.0017  0.9579  0.6161
    7CHTO   C40 2812   6.582   0.392   1.070 -0.4851  0.0338  0.2969
    7CHTO   H82 2813   6.599   0.450   0.979 -2.0057 -0.6769 -0.4710
    7CHTO   O26 2814   6.602   0.468   1.188  0.6332 -0.1091  0.7939
    7CHTO   C41 2815   6.532   0.598   1.169  0.1133 -0.0571 -0.4027
    7CHTO   H83 2816   6.574   0.660   1.088  2.3162 -0.5840  0.3068
    7CHTO   C52 2817   6.541   0.680   1.305  0.6785 -0.3452  0.2983
    7CHTO   O35 2818   6.662   0.752   1.333  0.2679 -0.7610  0.1507
    7CHTO   H71 2819   6.726   0.692   1.365 -0.4731 -1.7368 -0.1681
    7CHTO   O28 2820   6.678   0.287   1.107  0.4629  0.3062  0.0206
    7CHTO   C42 2821   6.822   0.305   1.079  0.3435 -0.6781 -0.1916
    7CHTO   H84 2822   6.875   0.239   1.148  1.1675  1.2051  1.0103
    7CHTO   C44 2823   6.878   0.452   1.100 -0.1553 -1.2036  0.0396
    7CHTO   H86 2824   6.806   0.528   1.071  1.2703 -0.2075 -0.9085
    7CHTO   O32 2825   6.889   0.471   1.247 -0.1049 -0.8386  0.1477
    7CHTO   H69 2826   6.810   0.514   1.274  0.8606  1.7029 -0.9046
    7CHTO   C48 2827   7.021   0.477   1.029  0.5224 -0.3369  0.1100
    7CHTO   H90 2828   7.101   0.426   1.083  1.9799  0.7109 -1.0451
    7CHTO    N9 2829   7.052   0.624   1.039  0.2363 -0.0311  0.0914
    7CHTO   H77 2830   7.159   0.634   1.033  0.2529  0.0559  0.5157
    7CHTO   H78 2831   6.993   0.694   0.982  1.9658  1.4885  0.1188
    7CHTO   C51 2832   7.009   0.424   0.880 -0.1488  0.0630  0.1922
    7CHTO   H93 2833   6.923   0.478   0.840  0.1670  1.0860  0.8696
    7CHTO   O30 2834   6.986   0.282   0.896 -0.2549 -0.3013  0.3694
    7CHTO   C46 2835   6.854   0.254   0.937  0.3525  0.1590 -0.1158
    7CHTO   H88 2836   6.796   0.295   0.855  2.2703 -1.5766 -2.4292
    7CHTO   C53 2837   6.841   0.098   0.932 -0.0743 -0.2211 -0.0836
    7CHTO   O72 2838   6.890   0.029   0.812 -0.1116  0.1121  0.6950
    7CHTO  H199 2839   6.879  -0.063   0.822  1.0527  0.1959  3.5503
    7CHTO   O22 2840   7.128   0.429   0.799  0.2357  0.1761 -0.3148
    7CHTO   C31 2841   7.119   0.466   0.652 -0.0694  0.4087 -0.3163
    7CHTO   H59 2842   7.222   0.455   0.612 -0.0483 -0.2159 -0.0991
    7CHTO   C29 2843   7.031   0.374   0.570  0.2044 -0.3873  1.0292
    7CHTO   H57 2844   6.935   0.367   0.623 -0.0140 -1.4320  0.5049
    7CHTO   O21 2845   7.071   0.237   0.579  0.2777 -0.2719  0.3539
    7CHTO   H37 2846   7.017   0.184   0.523  0.6764 -0.9314  0.5876
    7CHTO   C27 2847   7.006   0.426   0.421 -0.4236 -0.6530  0.3841
    7CHTO   H55 2848   7.100   0.423   0.364 -1.3740  0.1731 -1.2720
    7CHTO    N5 2849   6.905   0.347   0.344  0.1615 -0.1250  0.1232
    7CHTO   H43 2850   6.879   0.398   0.252  0.0733 -0.6880 -0.1636
    7CHTO   H44 2851   6.945   0.248   0.334  1.8745  0.6102 -0.5002
    7CHTO   C25 2852   6.965   0.580   0.427  0.6499  0.0182 -0.2391
    7CHTO   H53 2853   6.867   0.594   0.475  1.8156  2.2426  1.6208
    7CHTO   O17 2854   7.068   0.655   0.509  0.4962  0.6577  0.3458
    7CHTO   C32 2855   7.083   0.616   0.644  0.2974  0.2902 -0.6375
    7CHTO   H60 2856   6.987   0.637   0.691  0.0794 -0.2139 -0.8471
    7CHTO   C36 2857   7.189   0.709   0.710 -0.0428 -0.3645  0.5733
    7CHTO   O25 2858   7.127   0.839   0.724  0.3428 -0.2729  0.3856
    7CHTO   H40 2859   7.176   0.891   0.784 -1.2297 -1.0541  2.4155
    7CHTO   O15 2860   6.960   0.640   0.295  0.0693 -0.8150  0.8245
    7CHTO   C19 2861   6.902   0.734   0.211  0.4077  0.3322 -0.0735
    7CHTO   H47 2862   6.875   0.678   0.120  2.0076  0.2202 -0.4900
    7CHTO   C20 2863   6.772   0.799   0.271  0.5604 -0.8575 -0.1501
    7CHTO   H48 2864   6.789   0.847   0.369 -0.1924  3.3971 -1.9869
    7CHTO   O19 2865   6.686   0.686   0.290 -0.0505 -0.1712  0.1706
    7CHTO   H35 2866   6.600   0.721   0.306  1.1337  1.9835  2.0185
    7CHTO   C21 2867   6.709   0.898   0.165  0.9379 -0.6099 -0.2149
    7CHTO   H49 2868   6.687   0.840   0.075 -1.1679 -2.3198  1.3596
    7CHTO    N4 2869   6.588   0.970   0.211  0.5262  0.4434  0.0741
    7CHTO   H41 2870   6.603   1.005   0.312  0.7507  0.7372 -0.0632
    7CHTO   H42 2871   6.506   0.899   0.204  0.1594  0.9180 -0.4900
    7CHTO   C22 2872   6.813   0.994   0.111 -0.7085  0.1157 -1.1734
    7CHTO   H50 2873   6.834   1.068   0.188 -2.5129 -0.1837 -0.3777
    7CHTO   O14 2874   6.929   0.925   0.066  0.2168  0.5021  0.0178
    7CHTO   C23 2875   6.994   0.851   0.170 -0.7941 -1.0675 -0.1902
    7CHTO   H51 2876   7.021   0.916   0.255  0.2861 -1.8050  0.0431
    7CHTO   C34 2877   7.125   0.793   0.118 -0.3990  0.1588  0.6802
    7CHTO   O23 2878   7.229   0.765   0.216 -0.2795  0.1213  0.3951
    7CHTO   H38 2879   7.308   0.811   0.197  1.2851 -0.5794  4.7333
    7CHTO   O16 2880   6.766   1.065  -0.001 -0.8055  0.1075  0.4885
    7CHTO   C24 2881   6.734   1.223   0.027  0.2313 -0.0847  0.3908
    7CHTO   H52 2882   6.722   1.245   0.133 -1.7686 -0.7651  0.3318
    7CHTO   C26 2883   6.603   1.269  -0.041 -0.2163 -0.0585  0.5449
    7CHTO   H54 2884   6.601   1.236  -0.147  1.1973 -2.8716  1.3618
    7CHTO   O20 2885   6.491   1.200   0.019  0.2267 -0.1066  0.0639
    7CHTO   H36 2886   6.414   1.231  -0.024  0.7449 -3.7080 -3.7271
    7CHTO   C30 2887   6.574   1.420  -0.041 -0.9843 -0.1244 -0.0423
    7CHTO   H58 2888   6.529   1.448   0.056 -2.9088  2.2523 -1.5700
    7CHTO    N6 2889   6.470   1.453  -0.143 -0.0754  0.0375  0.2815
    7CHTO   H45 2890   6.411   1.535  -0.105  0.4972  1.4601 -1.8384
    7CHTO   H46 2891   6.522   1.480  -0.234  1.3363 -3.1283  0.0682
    7CHTO   C33 2892   6.703   1.507  -0.071 -0.0533 -0.2545  0.4404
    7CHTO   H61 2893   6.733   1.495  -0.176 -0.0628 -1.6787  0.5996
    7CHTO   O18 2894   6.807   1.453   0.011 -0.5097  0.1538 -0.1873
    7CHTO   C28 2895   6.846   1.310  -0.023  0.5421 -0.1027 -0.0795
    7CHTO   H56 2896   6.864   1.295  -0.130  2.2739 -0.8826  0.3048
    7CHTO   C35 2897   6.982   1.289   0.042  0.1243 -0.0138 -0.7853
    7CHTO   O24 2898   7.065   1.180  -0.007  0.0672  0.0954  0.5700
    7CHTO   H39 2899   7.143   1.158   0.040  0.2122 -1.5461 -0.3959
    7CHTO    O9 2900   6.684   1.646  -0.043 -0.0830 -0.2505 -0.1357
    7CHTO   C13 2901   6.766   1.750  -0.147  0.1756  0.4528 -0.2438
    7CHTO   H26 2902   6.744   1.712  -0.250  0.0067  1.2156 -0.4902
    7CHTO   C11 2903   6.919   1.736  -0.107 -0.0350 -0.5419  0.1169
    7CHTO   H24 2904   6.957   1.640  -0.144 -1.4311 -1.0440 -0.0725
    7CHTO    O8 2905   6.936   1.746   0.036 -0.6636  0.3736 -0.3401
    7CHTO    H3 2906   6.904   1.667   0.076  0.7191  1.0801  2.2814
    7CHTO    C9 2907   6.988   1.855  -0.177 -0.0938 -0.1258  0.0858
    7CHTO   H22 2908   6.975   1.831  -0.283  1.8881  2.7729 -0.8698
    7CHTO    N2 2909   7.137   1.847  -0.172 -0.3728  0.0904 -0.0887
    7CHTO   H10 2910   7.175   1.891  -0.081  4.0540 -1.1042 -1.2164
    7CHTO   H11 2911   7.165   1.743  -0.172  1.5621  0.5967  0.7475
    7CHTO    C7 2912   6.940   1.999  -0.139  0.4868 -0.0968  0.6162
    7CHTO   H20 2913   6.988   2.070  -0.209 -0.8877  0.0281 -0.2272
    7CHTO    O4 2914   6.799   2.005  -0.165 -0.5805 -0.4196 -0.3164
    7CHTO   C14 2915   6.711   1.896  -0.127  0.0715  0.1125  0.4292
    7CHTO   H27 2916   6.627   1.915  -0.197  1.1275 -0.2628 -0.9695
    7CHTO   C18 2917   6.657   1.920   0.014  0.0254  0.0376 -0.0183
    7CHTO   O13 2918   6.600   2.052   0.021  0.6053  0.0405 -0.3093
    7CHTO    H7 2919   6.585   2.069   0.112 -1.4435 -3.2504  0.0661
    7CHTO    O2 2920   6.962   2.025   0.032 -0.0299 -0.2244  0.4738
    7CHTO    C1 2921   6.973   2.163   0.065  0.0551  1.0941  0.5352
    7CHTO   H14 2922   6.880   2.210   0.028  0.4413  0.5517 -1.1514
    7CHTO    C2 2923   7.109   2.248   0.014  0.3068  0.1242 -0.1627
    7CHTO   H15 2924   7.196   2.191   0.050  1.7645  2.3886 -0.0213
    7CHTO    O6 2925   7.120   2.255  -0.137  0.4210  0.3757  0.5894
    7CHTO    H1 2926   7.192   2.311  -0.159  1.6476 -1.7318 -0.9561
    7CHTO    C3 2927   7.115   2.388   0.085  0.5940  0.3488  1.0852
    7CHTO   H16 2928   7.026   2.443   0.051 -0.3845 -2.0906 -0.4888
    7CHTO    N1 2929   7.244   2.457   0.051 -0.3214 -0.0257 -0.2102
    7CHTO    H8 2930   7.312   2.383   0.012 -0.9405 -0.6898 -0.0445
    7CHTO    H9 2931   7.285   2.507   0.137 -2.8719 -0.4653  1.3348
    7CHTO    C4 2932   7.103   2.375   0.243 -0.1617 -0.6093 -0.6816
    7CHTO   H17 2933   7.188   2.318   0.280  2.0837  2.9428 -0.1636
    7CHTO    O1 2934   6.984   2.305   0.275 -0.7129  0.1948 -0.2569
    7CHTO    C5 2935   6.959   2.176   0.219  0.0238  0.8170  0.1967
    7CHTO   H18 2936   7.032   2.104   0.256  0.6312  1.4555  0.2585
    7CHTO   C16 2937   6.818   2.151   0.291  0.1905 -0.1385  0.1194
    7CHTO   O11 2938   6.823   2.119   0.428  0.3659 -0.2588 -0.6740
    7CHTO    H5 2939   6.734   2.099   0.449  0.0363  0.6525 -1.1846
    7CHTO    O3 2940   7.081   2.499   0.311 -0.2623  0.1834 -0.4033
    7CHTO    C6 2941   7.149   2.512   0.443  0.1792 -0.2070 -0.8465
    7CHTO   H19 2942   7.216   2.434   0.479 -1.2389 -0.4707  1.2606
    7CHTO    C8 2943   7.237   2.638   0.440  0.1804  0.1868  0.3033
    7CHTO   H21 2944   7.175   2.717   0.397 -0.3775 -0.4755 -0.1204
    7CHTO    O7 2945   7.342   2.595   0.354  0.2594 -0.1516 -0.4648
    7CHTO    H2 2946   7.358   2.659   0.287  0.9853 -1.5308 -1.6201
    7CHTO   C12 2947   7.285   2.681   0.580 -0.0075  0.0149 -0.0755
    7CHTO   H25 2948   7.353   2.601   0.618 -0.6985 -0.2577  0.5904
    7CHTO    N3 2949   7.354   2.807   0.553 -0.0835  0.6585 -0.1100
    7CHTO   H12 2950   7.427   2.803   0.473 -1.5735  0.7719 -1.5098
    7CHTO   H13 2951   7.411   2.837   0.640  0.3850 -1.5386  0.3598
    7CHTO   C15 2952   7.163   2.691   0.679  0.0865 -0.4560  0.2811
    7CHTO   H28 2953   7.103   2.781   0.672 -0.8003 -1.1550 -1.1566
    7CHTO   O10 2954   7.219   2.656   0.828  0.1706 -0.1377  0.1634
    7CHTO    H4 2955   7.238   2.734   0.876  1.6132  0.4565 -1.3213
    7CHTO    O5 2956   7.092   2.568   0.676 -0.2471  0.1571 -0.1148
    7CHTO   C10 2957   7.036   2.527   0.550 -0.2284 -0.2951  0.5681
    7CHTO   H23 2958   6.976   2.604   0.501 -1.4657 -1.8968 -0.4549
    7CHTO   C17 2959   6.946   2.405   0.570  0.4063 -0.0818 -0.0177
    7CHTO   O12 2960   6.829   2.451   0.636 -0.1213 -0.9912  0.1955
    7CHTO    H6 2961   6.756   2.417   0.588  1.4483 -1.8744 -1.6037
    8CHTO  H203 2962   6.950   8.534   2.340 -1.3243  0.6263 -0.9653
    8CHTO   O82 2963   6.967   8.471   2.273  0.2114  0.0170 -0.0292
    8CHTO  C123 2964   6.845   8.434   2.203 -0.9107 -0.6236  0.2617
    8CHTO  H227 2965   6.800   8.520   2.152  0.1928  0.2856  0.7883
    8CHTO   O77 2966   6.868   8.325   2.112 -0.0983  0.3509 -0.0185
    8CHTO  C118 2967   6.762   8.293   2.020 -0.2344 -0.4335 -0.0795
    8CHTO  H222 2968   6.742   8.380   1.956 -0.9648 -1.1904 -0.8987
    8CHTO  C125 2969   6.800   8.180   1.926  0.3207  0.6061  0.4022
    8CHTO   O84 2970   6.924   8.194   1.859 -0.5092  0.2305 -0.3269
    8CHTO  H205 2971   6.943   8.103   1.843 -0.7745  0.0859  0.1612
    8CHTO  C114 2972   6.637   8.253   2.099 -0.0968  0.1429 -0.6917
    8CHTO  H218 2973   6.656   8.155   2.144  2.7318  0.7306 -0.4998
    8CHTO  C116 2974   6.608   8.344   2.219 -0.7052  0.1506  0.2298
    8CHTO  H220 2975   6.564   8.441   2.187  2.7986  2.2394  1.4625
    8CHTO   O79 2976   6.500   8.293   2.299 -0.0414 -0.2349 -0.1945
    8CHTO  H201 2977   6.424   8.305   2.244 -0.1177 -0.6555 -0.1753
    8CHTO  C120 2978   6.732   8.382   2.301 -0.0153 -0.2359 -0.2933
    8CHTO  H224 2979   6.769   8.292   2.354 -2.6924 -1.5929 -0.5988
    8CHTO   N21 2980   6.694   8.482   2.402 -0.1958 -0.2922 -0.0938
    8CHTO  H211 2981   6.699   8.582   2.362 -0.6722  0.1827  1.0140
    8CHTO  H212 2982   6.760   8.488   2.487  0.0912  2.4003 -0.4571
    8CHTO   O75 2983   6.532   8.234   2.001 -0.0308 -0.4427 -0.5266
    8CHTO  C112 2984   6.420   8.361   1.991 -0.0745  0.1037 -0.6811
    8CHTO  H216 2985   6.473   8.458   1.993 -0.0178  0.0604 -0.1747
    8CHTO   O73 2986   6.330   8.346   2.097 -0.2396  0.2481 -0.3221
    8CHTO  C113 2987   6.237   8.453   2.101  0.1219 -0.0719  1.6173
    8CHTO  H217 2988   6.290   8.550   2.105  1.5207 -0.6454 -1.5077
    8CHTO  C124 2989   6.152   8.449   2.227 -0.7953 -0.1041  0.3859
    8CHTO   O83 2990   6.052   8.346   2.220 -0.1148  0.6575  0.0592
    8CHTO  H204 2991   6.016   8.322   2.303 -2.3130 -1.2760 -1.3812
    8CHTO  C109 2992   6.153   8.456   1.974 -0.0693  0.2856  0.2850
    8CHTO  H213 2993   6.096   8.362   1.970 -0.7934  0.8077 -3.5263
    8CHTO  C110 2994   6.245   8.457   1.852 -0.6376 -0.1235 -0.7358
    8CHTO  H214 2995   6.305   8.548   1.852 -0.0934 -0.4285  2.2343
    8CHTO   O78 2996   6.163   8.451   1.737  0.0920  0.0561  0.3011
    8CHTO  H200 2997   6.111   8.528   1.728 -0.6944 -0.4340  0.6177
    8CHTO  C111 2998   6.346   8.344   1.853  0.5026  0.2846 -0.0471
    8CHTO  H215 2999   6.293   8.248   1.847 -2.1740  1.8182 -1.9325
    8CHTO   N19 3000   6.441   8.348   1.738  0.5981  0.5830 -0.4382
    8CHTO  H207 3001   6.400   8.306   1.647 -0.3822 -1.8010  1.0451
    8CHTO  H208 3002   6.535   8.301   1.763  0.5949  1.2674  0.8962
    8CHTO   O74 3003   6.068   8.576   1.966 -0.4077  0.4455 -0.2183
    8CHTO  C115 3004   5.911   8.529   1.956 -0.4395  0.6912  0.0672
    8CHTO  H219 3005   5.903   8.424   1.984 -1.7880  1.2974  2.0429
    8CHTO   O76 3006   5.822   8.610   2.051 -0.7072 -0.2867  0.2164
    8CHTO  C122 3007   5.804   8.744   2.018  0.2701  0.5619 -0.1820
    8CHTO  H226 3008   5.899   8.797   2.024  1.8044 -2.2063  0.5336
    8CHTO  C126 3009   5.710   8.816   2.123 -0.1685 -0.2100 -0.0525
    8CHTO   O85 3010   5.741   8.961   2.117 -0.1965  1.2839 -0.3494
    8CHTO  H206 3011   5.729   8.989   2.028  0.5849 -3.3171 -2.0536
    8CHTO  C121 3012   5.745   8.760   1.867  0.9792 -0.0723 -0.3155
    8CHTO  H225 3013   5.651   8.702   1.860  1.8260 -1.3655 -1.0557
    8CHTO   O81 3014   5.709   8.893   1.825  0.7122 -0.1879 -0.2835
    8CHTO  H202 3015   5.780   8.939   1.783  1.2157  1.0125  1.8101
    8CHTO  C119 3016   5.849   8.692   1.777 -0.4980  0.3275 -0.0034
    8CHTO  H223 3017   5.814   8.709   1.675 -0.1109 -0.7076 -0.3178
    8CHTO  C117 3018   5.862   8.537   1.811  0.6867  0.9290 -0.5435
    8CHTO  H221 3019   5.940   8.483   1.758 -0.0271 -1.0872  0.4213
    8CHTO   N20 3020   5.734   8.446   1.786  0.9391  0.6666 -0.0874
    8CHTO  H209 3021   5.731   8.381   1.699  1.1303  1.6591 -0.8378
    8CHTO  H210 3022   5.696   8.400   1.876  2.0460 -1.0077 -0.4387
    8CHTO   O80 3023   5.989   8.777   1.784  0.0573  0.0707 -0.0530
    8CHTO  C103 3024   6.013   8.902   1.704 -0.3466  0.2169  0.3418
    8CHTO  H190 3025   5.927   8.910   1.637  1.4504  1.8990 -1.8394
    8CHTO  C101 3026   6.049   9.035   1.774  0.0981 -0.0769 -0.6792
    8CHTO  H188 3027   6.133   9.021   1.841 -2.1339  0.6541  2.3953
    8CHTO   O68 3028   5.914   9.077   1.865 -0.6393 -0.3904 -0.0709
    8CHTO  H168 3029   5.869   9.145   1.817 -0.8994 -0.2446  0.3701
    8CHTO   C99 3030   6.076   9.150   1.669 -0.1788 -0.2525 -0.4729
    8CHTO  H186 3031   5.987   9.174   1.607 -1.4453 -2.5026  0.4028
    8CHTO   N17 3032   6.121   9.275   1.730  0.2347 -0.5029  0.0396
    8CHTO  H174 3033   6.132   9.339   1.644 -1.3673  0.2178  0.3471
    8CHTO  H175 3034   6.045   9.323   1.790  0.2368 -0.5860  0.1080
    8CHTO   C97 3035   6.183   9.103   1.566 -0.2429 -0.0450  0.4507
    8CHTO  H184 3036   6.284   9.114   1.608  0.0136  1.0982 -0.4360
    8CHTO   O64 3037   6.156   8.973   1.513  0.0751 -0.3541  0.3803
    8CHTO  C104 3038   6.135   8.866   1.614  0.2935  0.4132  0.3864
    8CHTO  H191 3039   6.218   8.860   1.685 -0.2672  0.4367  1.0549
    8CHTO  C108 3040   6.131   8.723   1.553  0.0528  0.3787 -0.0453
    8CHTO   O71 3041   6.262   8.676   1.509  0.1181 -0.1965  0.4600
    8CHTO  H171 3042   6.274   8.689   1.417 -0.0316 -2.5310  0.1007
    8CHTO   O62 3043   6.173   9.197   1.451  0.2243  0.3679  0.3874
    8CHTO   C91 3044   6.296   9.205   1.374  0.4335 -0.3732  0.1187
    8CHTO  H178 3045   6.360   9.117   1.387 -1.5308 -1.8704 -0.0133
    8CHTO   C92 3046   6.384   9.321   1.419 -0.0639  0.0769  0.2378
    8CHTO  H179 3047   6.405   9.306   1.526  1.0891  1.4768  0.2183
    8CHTO   O66 3048   6.519   9.295   1.372  0.8473  0.1725  0.7086
    8CHTO  H166 3049   6.558   9.229   1.427  0.7244 -0.1300  0.4324
    8CHTO   C93 3050   6.343   9.469   1.371  0.1379  0.1660 -0.4400
    8CHTO  H180 3051   6.428   9.536   1.393 -1.7225  2.4089  0.1069
    8CHTO   N16 3052   6.243   9.527   1.464 -0.3593 -0.1844  0.2793
    8CHTO  H172 3053   6.175   9.600   1.422 -1.3981  0.0725  2.3328
    8CHTO  H173 3054   6.184   9.449   1.511 -0.8695 -1.0441 -1.7432
    8CHTO   C94 3055   6.303   9.461   1.218 -0.1951 -0.1236 -0.0343
    8CHTO  H181 3056   6.197   9.478   1.200 -1.0455 -2.5003  2.4581
    8CHTO   O61 3057   6.339   9.339   1.159  0.1827  0.5279 -0.2536
    8CHTO   C95 3058   6.269   9.225   1.218 -0.7980 -0.1748 -0.1128
    8CHTO  H182 3059   6.163   9.228   1.194 -1.4464  1.7778  2.7224
    8CHTO  C106 3060   6.321   9.097   1.149 -0.2261 -0.0810  1.2370
    8CHTO   O69 3061   6.299   9.085   1.010  0.1180  0.1585  0.5359
    8CHTO  H169 3062   6.375   9.100   0.957 -2.0345  3.2165 -1.8052
    8CHTO   O63 3063   6.403   9.564   1.144  0.4072  0.0543  0.5893
    8CHTO   C96 3064   6.354   9.632   1.021 -0.2322  0.0943 -0.6727
    8CHTO  H183 3065   6.251   9.600   1.004  0.5700 -2.9387 -0.1267
    8CHTO   C98 3066   6.434   9.586   0.894 -0.5049 -0.2737 -0.4565
    8CHTO  H185 3067   6.544   9.598   0.896 -0.3894 -0.9705 -1.9027
    8CHTO   O67 3068   6.405   9.438   0.883 -0.3387  0.0185  1.1846
    8CHTO  H167 3069   6.475   9.390   0.842  0.8927  2.0799  0.7609
    8CHTO  C102 3070   6.376   9.655   0.763  0.2291  1.0170  0.2792
    8CHTO  H189 3071   6.290   9.593   0.736  2.1836 -2.8258  2.4741
    8CHTO   N18 3072   6.461   9.649   0.639  0.3223 -0.1067 -0.4887
    8CHTO  H176 3073   6.415   9.594   0.559 -1.4326 -0.0850  0.4745
    8CHTO  H177 3074   6.565   9.625   0.657  0.8031  1.5126 -1.0514
    8CHTO  C105 3075   6.317   9.793   0.795 -0.1272  0.2131  0.0695
    8CHTO  H192 3076   6.336   9.860   0.711  1.2290 -2.0482 -1.4862
    8CHTO   O65 3077   6.369   9.857   0.916  0.2644  0.7693  0.0570
    8CHTO  C100 3078   6.370   9.790   1.042 -0.2811  0.7802 -0.0946
    8CHTO  H187 3079   6.467   9.803   1.092  0.2619 -2.0868 -0.2835
    8CHTO  C107 3080   6.269   9.844   1.140 -0.8130  0.9354  0.2992
    8CHTO   O70 3081   6.271   9.987   1.150  0.4843 -0.2573 -0.6205
    8CHTO  H170 3082   6.352  10.027   1.175  0.5980  0.3675 -1.9796
    8CHTO   O57 3083   6.153   9.754   0.797  0.0837  0.4091  0.0849
    8CHTO   C85 3084   6.063   9.858   0.757  0.5048  0.3471 -0.4686
    8CHTO  H157 3085   6.121   9.922   0.687  0.6380 -1.7025 -2.2731
    8CHTO   C83 3086   6.034   9.958   0.875 -0.1243 -0.2212 -0.2483
    8CHTO  H155 3087   6.129  10.004   0.900  0.2211 -0.1298 -1.6689
    8CHTO   O56 3088   5.989   9.888   0.997  0.1287  0.2972 -0.2994
    8CHTO  H135 3089   6.060   9.831   1.021  1.0646  1.8529  0.8296
    8CHTO   C81 3090   5.946  10.068   0.823  0.9134 -0.3742  0.3197
    8CHTO  H153 3091   5.999  10.116   0.741  0.6591 -1.5439 -0.5373
    8CHTO   N14 3092   5.925  10.179   0.922  0.3358 -0.6201  0.3518
    8CHTO  H141 3093   5.996  10.167   1.002  1.2968 -0.0034 -0.4036
    8CHTO  H142 3094   5.826  10.182   0.962 -0.1255 -2.5503 -0.5682
    8CHTO   C79 3095   5.813  10.006   0.769  0.4461 -1.0462  0.1968
    8CHTO  H151 3096   5.758  10.093   0.734  2.2103 -0.2929 -0.7738
    8CHTO   O52 3097   5.834   9.910   0.656 -0.1392  0.4318 -0.0576
    8CHTO   C86 3098   5.927   9.806   0.691  0.3991  0.0100 -0.0279
    8CHTO  H158 3099   5.863   9.739   0.752 -0.8134 -0.9122 -2.2522
    8CHTO   C90 3100   5.957   9.732   0.561 -0.2583  0.0806 -0.3139
    8CHTO   O60 3101   5.999   9.821   0.457 -0.8847  0.1361 -0.6634
    8CHTO  H138 3102   6.059   9.777   0.399  0.0087  0.7881 -0.2492
    8CHTO   O50 3103   5.720   9.952   0.865  0.4803 -0.3997 -0.1548
    8CHTO   C73 3104   5.578   9.937   0.888 -0.5149  0.1143  0.4827
    8CHTO  H145 3105   5.527   9.923   0.791 -0.0164 -2.0125  0.5105
    8CHTO   C74 3106   5.519  10.064   0.955 -0.5078 -0.0868  0.3039
    8CHTO  H146 3107   5.532  10.150   0.888  0.5887  0.7825  1.6111
    8CHTO   O54 3108   5.375  10.065   0.966  0.5071 -0.5642 -0.8831
    8CHTO  H133 3109   5.338   9.997   0.912  2.2056 -0.6343 -1.9920
    8CHTO   C75 3110   5.586  10.087   1.090 -0.1115  0.1919 -0.8153
    8CHTO  H147 3111   5.692  10.106   1.068  0.3086 -0.7544  0.3393
    8CHTO   N13 3112   5.531  10.204   1.163  0.1359  0.2157 -0.3616
    8CHTO  H139 3113   5.510  10.292   1.104 -2.6952 -0.6474 -0.7200
    8CHTO  H140 3114   5.439  10.169   1.208  1.5868 -3.1708  0.1522
    8CHTO   C76 3115   5.593   9.956   1.177 -0.3889  0.3001  0.2624
    8CHTO  H148 3116   5.499   9.944   1.230 -1.8255  0.3487 -2.1726
    8CHTO   O49 3117   5.625   9.830   1.104 -0.2653 -0.0889 -0.5543
    8CHTO   C77 3118   5.558   9.809   0.982 -0.3113 -0.0890  0.2445
    8CHTO  H149 3119   5.451   9.788   0.987 -0.1144 -1.2869 -0.5219
    8CHTO   C88 3120   5.620   9.682   0.925  0.3446  0.0619  0.1823
    8CHTO   O58 3121   5.571   9.655   0.801  0.0129 -0.4988  0.1630
    8CHTO  H136 3122   5.626   9.584   0.772 -1.2368 -2.6725  2.8878
    8CHTO   O51 3123   5.721   9.967   1.268  0.0887 -1.0062  0.3012
    8CHTO   C78 3124   5.701   9.909   1.396 -1.1247  0.1793  0.3789
    8CHTO  H150 3125   5.650   9.811   1.386  0.1175 -0.7579  3.0011
    8CHTO   C80 3126   5.616  10.003   1.496  0.3694 -0.3532 -0.1117
    8CHTO  H152 3127   5.664  10.103   1.495  0.6148 -0.4570  0.6284
    8CHTO   O55 3128   5.484  10.015   1.448  0.1381  0.2973 -0.4353
    8CHTO  H134 3129   5.415   9.994   1.507  1.7804  0.1983  1.4982
    8CHTO   C84 3130   5.614   9.950   1.649 -0.0940 -0.0011 -0.4126
    8CHTO  H156 3131   5.567   9.852   1.662 -1.0390  0.4009 -0.7332
    8CHTO   N15 3132   5.548  10.046   1.742  0.2048  0.7021  0.2103
    8CHTO  H143 3133   5.614  10.086   1.817  1.1091  2.3370 -1.3971
    8CHTO  H144 3134   5.524  10.129   1.679 -0.1257  0.3376 -0.1475
    8CHTO   C87 3135   5.762   9.926   1.686  0.1178 -0.0142 -0.2464
    8CHTO  H159 3136   5.796  10.029   1.673 -1.7482  0.5305 -1.0308
    8CHTO   O53 3137   5.819   9.830   1.592  0.1033  0.0817  0.0704
    8CHTO   C82 3138   5.837   9.878   1.460 -0.1580  0.0100  0.2987
    8CHTO  H154 3139   5.902   9.966   1.460 -1.7595  1.3015 -4.3250
    8CHTO   C89 3140   5.911   9.761   1.387 -0.0766  0.4415  0.4230
    8CHTO   O59 3141   5.959   9.816   1.260 -0.6638  0.5051  0.2397
    8CHTO  H137 3142   6.025   9.879   1.280 -0.5946  0.2861  0.7156
    8CHTO   O45 3143   5.777   9.879   1.826 -0.1437  0.2896 -0.4126
    8CHTO   C67 3144   5.759   9.742   1.859 -0.3131  0.5587 -0.4256
    8CHTO  H124 3145   5.686   9.696   1.793  0.2889 -2.0005  0.6310
    8CHTO   C65 3146   5.894   9.667   1.833  0.2446  0.1215  0.8465
    8CHTO  H122 3147   5.956   9.742   1.784 -1.2055 -0.1471 -1.5029
    8CHTO   O44 3148   5.873   9.554   1.745  0.1320 -0.1352  0.2973
    8CHTO  H102 3149   5.817   9.488   1.782 -0.2967 -1.1073 -2.0213
    8CHTO   C63 3150   5.973   9.642   1.960  0.2963  0.1518  0.1577
    8CHTO  H120 3151   5.982   9.735   2.018 -2.7980  1.0728 -0.7616
    8CHTO   N11 3152   6.118   9.590   1.958  0.6341 -0.2976 -0.3660
    8CHTO  H108 3153   6.128   9.536   1.866 -0.1219 -1.4244  0.2128
    8CHTO  H109 3154   6.187   9.673   1.956 -2.3984  2.3237 -0.1061
    8CHTO   C61 3155   5.881   9.544   2.048 -0.3950  0.4916  0.5670
    8CHTO  H118 3156   5.925   9.542   2.149 -0.2774 -2.8395  0.5147
    8CHTO   O40 3157   5.744   9.593   2.061 -0.3302  0.3182  0.1253
    8CHTO   C68 3158   5.711   9.725   2.008 -0.2962 -0.2157  0.1023
    8CHTO  H125 3159   5.756   9.796   2.080  0.8500  1.1156 -1.8766
    8CHTO   C72 3160   5.560   9.733   2.031  0.4157 -0.4179  0.0158
    8CHTO   O48 3161   5.532   9.739   2.167  0.1336  0.4267  0.7346
    8CHTO  H105 3162   5.464   9.798   2.196  0.0336 -1.2829  4.2174
    8CHTO   O38 3163   5.879   9.404   1.998 -0.2883  0.5221 -0.1169
    8CHTO   C55 3164   5.797   9.295   2.046 -0.4231 -0.4173  0.4798
    8CHTO  H112 3165   5.853   9.201   2.041 -3.5678 -2.3985  1.1545
    8CHTO   C56 3166   5.685   9.298   1.932  0.4505  0.2774 -0.4883
    8CHTO  H113 3167   5.634   9.396   1.934 -1.1083 -0.5310  0.1284
    8CHTO   O42 3168   5.740   9.268   1.801 -0.2836  0.0439  0.2006
    8CHTO  H100 3169   5.674   9.270   1.735  0.5447 -3.1607 -0.8107
    8CHTO   C57 3170   5.570   9.196   1.969 -0.5816 -0.2701  0.3814
    8CHTO  H114 3171   5.609   9.094   1.961  0.8941  0.3685 -0.9475
    8CHTO   N10 3172   5.457   9.193   1.880 -0.2165  0.3200  0.6457
    8CHTO  H106 3173   5.395   9.107   1.900  1.4657 -1.5513 -1.8203
    8CHTO  H107 3174   5.389   9.277   1.880 -2.0803 -1.1448 -1.1895
    8CHTO   C58 3175   5.520   9.224   2.115 -0.0548 -0.3545 -0.0867
    8CHTO  H115 3176   5.479   9.328   2.118 -0.4134 -0.2501 -4.8781
    8CHTO   O37 3177   5.628   9.217   2.202 -0.2035  0.3171  0.0694
    8CHTO   C59 3178   5.740   9.305   2.189 -0.1986 -0.5421  0.7419
    8CHTO  H116 3179   5.718   9.407   2.221  2.8600 -0.2232  1.9290
    8CHTO   C70 3180   5.839   9.252   2.292 -0.4061  0.2734  0.2958
    8CHTO   O46 3181   5.768   9.229   2.418 -0.3710 -0.0057  0.0511
    8CHTO  H103 3182   5.796   9.150   2.460 -1.9310  0.5253  2.2388
    8CHTO   O39 3183   5.409   9.115   2.181  0.3506  0.3649  0.2006
    8CHTO   C60 3184   5.280   9.173   2.187  0.1889 -0.2447 -0.3512
    8CHTO  H117 3185   5.271   9.275   2.151  0.1759  0.3008  1.1500
    8CHTO   C62 3186   5.182   9.082   2.105  0.4008 -0.4826  0.4494
    8CHTO  H119 3187   5.213   9.087   1.999 -0.0349 -0.2254  0.3291
    8CHTO   O43 3188   5.187   8.949   2.151  0.4190  0.2817 -0.0581
    8CHTO  H101 3189   5.272   8.911   2.152 -1.1448 -3.3540  1.1619
    8CHTO   C66 3190   5.042   9.156   2.119  0.3516 -0.4129  0.3974
    8CHTO  H123 3191   5.057   9.262   2.101 -1.2044 -1.0876 -5.7717
    8CHTO   N12 3192   4.949   9.106   2.022  0.0532 -0.2958 -0.9645
    8CHTO  H110 3193   4.968   9.000   2.005 -2.5846 -1.0311  0.4215
    8CHTO  H111 3194   4.927   9.165   1.934 -0.6903 -0.8902 -1.1893
    8CHTO   C69 3195   4.993   9.151   2.263 -0.0270  0.1840  0.9023
    8CHTO  H126 3196   4.971   9.047   2.293  0.8381  0.2581  1.8385
    8CHTO   O41 3197   5.109   9.203   2.356  0.1319  0.9370  0.5337
    8CHTO   C64 3198   5.231   9.173   2.335  0.3816 -0.3175  0.0946
    8CHTO  H121 3199   5.242   9.069   2.373 -0.4698  0.6607  3.1829
    8CHTO   C71 3200   5.315   9.267   2.422  0.3088  0.3861 -0.1784
    8CHTO   O47 3201   5.453   9.230   2.444 -0.3488  0.2888  0.0914
    8CHTO  H104 3202   5.466   9.149   2.489 -0.2768  0.0607 -0.3391
    8CHTO   O34 3203   4.857   9.248   2.287 -0.7702  0.1043  0.2090
    8CHTO   C49 3204   4.800   9.380   2.308  0.4611 -0.5749 -0.3540
    8CHTO   H91 3205   4.754   9.400   2.405 -0.2803  0.2970 -0.8708
    8CHTO   C47 3206   4.683   9.415   2.211 -0.5586 -0.2005  0.0175
    8CHTO   H89 3207   4.645   9.514   2.243 -0.1927 -0.4697  1.2979
    8CHTO   O33 3208   4.586   9.307   2.229 -0.7339  0.3772  0.4766
    8CHTO   H70 3209   4.519   9.318   2.164 -0.3897 -3.1271 -0.5690
    8CHTO   C45 3210   4.732   9.417   2.058 -0.6790  0.6489  0.0021
    8CHTO   H87 3211   4.770   9.316   2.038 -0.0862  0.7864  0.4366
    8CHTO    N8 3212   4.615   9.444   1.968 -0.5978 -0.1729 -0.0880
    8CHTO   H75 3213   4.641   9.538   1.920  0.9464  0.6001  2.1678
    8CHTO   H76 3214   4.610   9.360   1.901 -0.9775  0.3365 -0.7035
    8CHTO   C43 3215   4.859   9.523   2.054 -0.3742  0.2896  0.3479
    8CHTO   H85 3216   4.903   9.514   1.954  0.7387 -0.5478  0.9058
    8CHTO   O29 3217   4.956   9.502   2.155 -0.7473 -0.0691 -0.1668
    8CHTO   C50 3218   4.911   9.485   2.294 -0.2171  0.8626 -0.2489
    8CHTO   H92 3219   4.997   9.448   2.352  0.0345 -0.2596 -1.3161
    8CHTO   C54 3220   4.882   9.616   2.378 -0.5366 -0.0168  0.4717
    8CHTO   O36 3221   4.774   9.702   2.340 -1.0512  0.8601 -0.1633
    8CHTO   H72 3222   4.770   9.782   2.390 -1.3721  0.4552  0.4524
    8CHTO   O27 3223   4.809   9.659   2.072 -0.6005 -0.8057  0.1061
    8CHTO   C37 3224   4.810   9.777   1.999  0.8571  0.7240 -0.4943
    8CHTO   H79 3225   4.825   9.760   1.891  0.3530  0.9430 -0.6037
    8CHTO   C38 3226   4.671   9.849   2.016  0.1055  0.1426  0.1131
    8CHTO   H80 3227   4.648   9.845   2.124  0.4762 -0.6485  0.1691
    8CHTO   O31 3228   4.558   9.782   1.951  0.1270 -0.1733  0.2710
    8CHTO   H68 3229   4.579   9.745   1.867  0.7316  0.7943 -0.0058
    8CHTO   C39 3230   4.678   9.998   1.958 -0.4528 -0.6804 -0.1104
    8CHTO   H81 3231   4.673   9.991   1.849 -3.1523  0.8706 -0.1265
    8CHTO    N7 3232   4.562  10.087   1.993  0.0386 -0.0350 -0.4065
    8CHTO   H73 3233   4.540  10.083   2.099 -0.8747 -0.6771 -0.6166
    8CHTO   H74 3234   4.466  10.069   1.946 -0.6724  1.5465  0.3928
    8CHTO   C40 3235   4.814  10.073   1.998  0.7627  0.0474  0.0447
    8CHTO   H82 3236   4.816  10.117   2.098  0.0012  3.1326 -1.2583
    8CHTO   O26 3237   4.923   9.989   1.970  0.3596 -0.2369  0.0613
    8CHTO   C41 3238   4.921   9.869   2.048  0.5705 -0.5329  0.1796
    8CHTO   H83 3239   4.904   9.900   2.153 -1.3360  2.0670 -0.8528
    8CHTO   C52 3240   5.063   9.804   2.025  0.2192 -0.1297 -0.4940
    8CHTO   O35 3241   5.156   9.877   2.113  0.0091  0.0512  0.0490
    8CHTO   H71 3242   5.232   9.822   2.122  1.0759  1.4615 -0.0970
    8CHTO   O28 3243   4.835  10.186   1.912  0.1821 -0.6701 -0.3298
    8CHTO   C42 3244   4.857  10.219   1.772  0.5026  0.0513 -0.1243
    8CHTO   H84 3245   4.897  10.320   1.779  2.4848 -0.7723  0.8009
    8CHTO   C44 3246   4.723  10.243   1.694 -0.7788  0.6274 -0.3415
    8CHTO   H86 3247   4.666  10.150   1.688 -0.1202  0.2486 -0.7939
    8CHTO   O32 3248   4.632  10.333   1.762 -0.3886 -0.8000 -0.5045
    8CHTO   H69 3249   4.687  10.405   1.786 -2.5685  1.0724 -1.0046
    8CHTO   C48 3250   4.751  10.284   1.549  0.4430 -0.0208  0.6596
    8CHTO   H90 3251   4.804  10.378   1.537  0.9729 -0.2840  0.9036
    8CHTO    N9 3252   4.626  10.316   1.464  0.0654 -0.3900 -0.9962
    8CHTO   H77 3253   4.604  10.418   1.492  2.1136 -0.2012  0.0797
    8CHTO   H78 3254   4.548  10.247   1.491  1.6818 -1.0312  2.3182
    8CHTO   C51 3255   4.836  10.175   1.484  0.5964 -0.4054  0.2817
    8CHTO   H93 3256   4.784  10.081   1.502 -1.0494  0.5871  0.7931
    8CHTO   O30 3257   4.958  10.177   1.553 -0.2022  0.3073 -0.0062
    8CHTO   C46 3258   4.954  10.133   1.684 -0.4337  0.3448  0.2151
    8CHTO   H88 3259   4.930  10.028   1.700  0.1351  0.2572  0.5378
    8CHTO   C53 3260   5.095  10.150   1.729 -0.2113 -0.4630 -0.3204
    8CHTO   O72 3261   5.177  10.060   1.643 -0.1074  0.2415 -0.2820
    8CHTO  H199 3262   5.182  10.075   1.551 -1.8584  1.2149 -0.2405
    8CHTO   O22 3263   4.885  10.195   1.352 -0.1799  0.1931 -0.1448
    8CHTO   C31 3264   4.912  10.085   1.258  0.0880 -0.7021  0.1320
    8CHTO   H59 3265   4.932  10.132   1.159  1.0701  4.0336  2.4065
    8CHTO   C29 3266   5.033  10.008   1.301  0.5039  0.1145 -0.0077
    8CHTO   H57 3267   5.023   9.983   1.407 -2.5362 -0.7629 -0.4412
    8CHTO   O21 3268   5.139  10.105   1.287 -0.2423  0.4803  0.1420
    8CHTO   H37 3269   5.127  10.167   1.217  2.0446  4.1105  2.8115
    8CHTO   C27 3270   5.054   9.883   1.207  0.0026 -0.6764 -0.3885
    8CHTO   H55 3271   5.093   9.926   1.114  0.2999 -0.0047  0.0360
    8CHTO    N5 3272   5.164   9.805   1.268  0.2068  0.1697 -0.3233
    8CHTO   H43 3273   5.249   9.871   1.281  0.9151 -0.8147  0.1864
    8CHTO   H44 3274   5.179   9.718   1.207  0.8561  0.4260 -0.5375
    8CHTO   C25 3275   4.924   9.797   1.186  0.4458  0.1259  0.3860
    8CHTO   H53 3276   4.907   9.742   1.280 -0.7286 -1.9942 -1.0234
    8CHTO   O17 3277   4.821   9.887   1.148  0.3036 -0.0996 -0.5944
    8CHTO   C32 3278   4.791   9.988   1.243 -1.2692  0.0695  0.4573
    8CHTO   H60 3279   4.771   9.947   1.342  1.3887  3.0304  2.3432
    8CHTO   C36 3280   4.672  10.062   1.182  0.2876  0.3122 -1.2353
    8CHTO   O25 3281   4.547  10.017   1.233 -0.3852 -0.2987 -0.2717
    8CHTO   H40 3282   4.481  10.049   1.175  1.6110 -0.1572 -2.5507
    8CHTO   O15 3283   4.932   9.697   1.088  0.1026 -0.4460  0.4054
    8CHTO   C19 3284   4.965   9.701   0.944 -0.5270  0.0462  0.3097
    8CHTO   H47 3285   4.870   9.680   0.893  0.0468 -2.4385  0.2046
    8CHTO   C20 3286   5.031   9.831   0.887  0.8436  0.0172  0.2923
    8CHTO   H48 3287   5.130   9.849   0.931  2.4397 -1.6241 -2.4572
    8CHTO   O19 3288   4.944   9.947   0.918  0.1839 -1.1137 -0.0141
    8CHTO   H35 3289   4.859   9.920   0.949  0.5849 -0.5260  1.6050
    8CHTO   C21 3290   5.057   9.814   0.731 -0.5474 -0.1828 -0.1221
    8CHTO   H49 3291   4.960   9.794   0.685  0.6302  0.1751 -2.8743
    8CHTO    N4 3292   5.123   9.928   0.661  0.1850 -0.1595 -0.6587
    8CHTO   H41 3293   5.120   9.903   0.556  1.3930 -0.8068 -0.5454
    8CHTO   H42 3294   5.065  10.018   0.677 -1.1813 -1.3104  0.9589
    8CHTO   C22 3295   5.145   9.690   0.704 -0.4994  0.4449 -0.5803
    8CHTO   H50 3296   5.238   9.710   0.757  0.1431  1.6354 -2.1022
    8CHTO   O14 3297   5.076   9.579   0.764  0.3062 -0.8713 -0.2710
    8CHTO   C23 3298   5.057   9.578   0.908 -1.2228  0.8419  0.7450
    8CHTO   H51 3299   5.153   9.581   0.962 -1.9407  0.1244  2.0776
    8CHTO   C34 3300   5.001   9.438   0.927  0.7703  0.2475  0.1725
    8CHTO   O23 3301   4.960   9.414   1.057  0.1005 -0.0509  0.2483
    8CHTO   H38 3302   4.992   9.330   1.085 -0.7004 -0.6964 -0.7110
    8CHTO   O16 3303   5.165   9.652   0.562  0.1486 -0.1760  0.0151
    8CHTO   C24 3304   5.329   9.603   0.528 -0.1038 -0.5882  0.3779
    8CHTO   H52 3305   5.374   9.555   0.615  1.0450  2.1037  1.3613
    8CHTO   C26 3306   5.414   9.725   0.494  0.5735  0.3057  0.7605
    8CHTO   H54 3307   5.370   9.780   0.407  0.3247 -1.5092 -0.2835
    8CHTO   O20 3308   5.419   9.807   0.613  0.1111 -0.0774  0.2994
    8CHTO   H36 3309   5.500   9.804   0.661  1.8670 -1.0178 -2.6249
    8CHTO   C30 3310   5.554   9.680   0.451  0.2356  0.2013 -0.3771
    8CHTO   H58 3311   5.604   9.640   0.541 -0.9654 -0.3758  0.0516
    8CHTO    N6 3312   5.641   9.795   0.399  0.2760 -0.1042 -0.6168
    8CHTO   H45 3313   5.612   9.884   0.453 -2.2195 -1.4781  0.4036
    8CHTO   H46 3314   5.748   9.783   0.407  0.6062  2.8015 -0.3348
    8CHTO   C33 3315   5.543   9.556   0.351  0.0925 -0.2164 -0.0980
    8CHTO   H61 3316   5.518   9.585   0.248  0.1325 -3.3893 -1.0585
    8CHTO   O18 3317   5.454   9.455   0.391 -0.2719  0.0286  0.9951
    8CHTO   C28 3318   5.321   9.503   0.416 -0.1907 -0.2004 -0.2686
    8CHTO   H56 3319   5.296   9.553   0.323 -1.1699  1.1867  0.7136
    8CHTO   C35 3320   5.214   9.390   0.442 -0.1997  0.1585 -0.0726
    8CHTO   O24 3321   5.245   9.314   0.554  0.6322 -0.0866  0.6037
    8CHTO   H39 3322   5.227   9.358   0.635 -0.3500 -0.4624  0.5917
    8CHTO    O9 3323   5.680   9.505   0.349 -0.4660 -0.1831  0.4208
    8CHTO   C13 3324   5.725   9.412   0.221 -0.3029  0.5934 -0.2046
    8CHTO   H26 3325   5.666   9.419   0.128 -1.5263 -1.0393  0.4284
    8CHTO   C11 3326   5.736   9.259   0.272  0.5347  0.3447  0.1762
    8CHTO   H24 3327   5.633   9.224   0.284  0.1191  1.2088 -0.7829
    8CHTO    O8 3328   5.814   9.246   0.387  0.0972 -0.1640 -0.7064
    8CHTO    H3 3329   5.833   9.154   0.388 -0.2724 -0.2524 -1.3073
    8CHTO    C9 3330   5.782   9.178   0.152  0.1443  0.1681  0.3066
    8CHTO   H22 3331   5.698   9.187   0.081 -0.9675  0.3038  1.6335
    8CHTO    N2 3332   5.781   9.031   0.167 -0.3957 -0.6397 -0.6614
    8CHTO   H10 3333   5.720   8.997   0.249  2.2121 -1.3456  1.0281
    8CHTO   H11 3334   5.881   8.990   0.163 -0.0988  0.1614 -1.8127
    8CHTO    C7 3335   5.908   9.243   0.077 -0.0959 -0.7882 -0.0461
    8CHTO   H20 3336   5.872   9.280  -0.021 -0.0880  0.5726  0.4484
    8CHTO    O4 3337   5.962   9.351   0.149  0.8002 -0.4515  0.2545
    8CHTO   C14 3338   5.871   9.460   0.162  0.0231  0.8189  0.0461
    8CHTO   H27 3339   5.850   9.513   0.066 -0.7013  1.6607  0.6599
    8CHTO   C18 3340   5.938   9.563   0.255 -0.2398 -0.4811  0.0990
    8CHTO   O13 3341   6.049   9.630   0.204 -0.3008  0.4608  0.2030
    8CHTO    H7 3342   6.123   9.576   0.222 -0.3142  0.4165  0.1274
    8CHTO    O2 3343   6.029   9.131   0.047  0.6463  0.2509 -0.4852
    8CHTO    C1 3344   6.162   9.181   0.023 -0.4819  0.4023 -0.5386
    8CHTO   H14 3345   6.196   9.261   0.093 -0.4964  0.6937 -0.8641
    8CHTO    C2 3346   6.172   9.237  -0.127  0.0102  0.4950  0.5518
    8CHTO   H15 3347   6.154   9.155  -0.198  1.4188  0.8271 -0.1801
    8CHTO    O6 3348   6.072   9.342  -0.145 -0.0004  0.5083 -0.1337
    8CHTO    H1 3349   6.074   9.404  -0.075  1.2519 -0.2910  0.5531
    8CHTO    C3 3350   6.312   9.307  -0.152  0.5600  0.1297 -0.1654
    8CHTO   H16 3351   6.307   9.398  -0.091 -1.4486  0.5272 -0.9055
    8CHTO    N1 3352   6.339   9.350  -0.293 -0.4534  0.5089  0.8092
    8CHTO    H8 3353   6.266   9.422  -0.326  0.4608  1.0596 -0.0330
    8CHTO    H9 3354   6.330   9.268  -0.362 -1.8235  2.4367 -1.3907
    8CHTO    C4 3355   6.426   9.214  -0.093 -0.7121  0.0686  0.5855
    8CHTO   H17 3356   6.462   9.154  -0.176 -1.1791  1.7869 -0.8964
    8CHTO    O1 3357   6.400   9.129   0.018 -0.4848  0.0749 -0.2109
    8CHTO    C5 3358   6.267   9.071   0.035  0.1838  0.2714  0.0016
    8CHTO   H18 3359   6.250   8.985  -0.030 -0.3895  0.0432  0.4511
    8CHTO   C16 3360   6.268   9.028   0.183  0.3502  0.2583  0.3389
    8CHTO   O11 3361   6.347   8.913   0.197  0.0582 -0.2704 -0.1300
    8CHTO    H5 3362   6.433   8.932   0.164 -0.7655  3.6413 -0.1799
    8CHTO    O3 3363   6.525   9.299  -0.035  0.3406  0.1353  0.2250
    8CHTO    C6 3364   6.661   9.256  -0.042  0.6517 -0.3587 -0.2643
    8CHTO   H19 3365   6.672   9.148  -0.053  0.6549 -0.1205 -2.9520
    8CHTO    C8 3366   6.735   9.324  -0.167  0.6669 -0.7297  0.2796
    8CHTO   H21 3367   6.728   9.431  -0.152 -0.4004 -0.7082 -0.3130
    8CHTO    O7 3368   6.677   9.287  -0.291  0.5018 -0.4030 -0.1383
    8CHTO    H2 3369   6.616   9.216  -0.293 -1.0600  0.8215  2.0692
    8CHTO   C12 3370   6.884   9.292  -0.163  0.4740 -0.7152 -0.2966
    8CHTO   H25 3371   6.896   9.181  -0.162  0.1433 -0.7457  1.3315
    8CHTO    N3 3372   6.958   9.356  -0.272 -0.1243 -0.6081 -0.1186
    8CHTO   H12 3373   6.973   9.460  -0.250  1.7276 -0.7448 -0.6661
    8CHTO   H13 3374   7.055   9.309  -0.277 -0.0298 -0.3501 -0.7722
    8CHTO   C15 3375   6.938   9.332  -0.021 -0.9047 -0.0237 -1.4442
    8CHTO   H28 3376   6.919   9.439  -0.006 -1.2345 -0.0603 -1.5933
    8CHTO   O10 3377   7.077   9.287   0.004  0.0158 -0.0191 -0.4925
    8CHTO    H4 3378   7.117   9.352   0.058  0.2033 -1.4970  1.1695
    8CHTO    O5 3379   6.869   9.255   0.079 -0.1410  0.4057 -0.0705
    8CHTO   C10 3380   6.731   9.291   0.092  0.3941 -0.4349  0.5642
    8CHTO   H23 3381   6.732   9.399   0.108 -0.7760 -0.6537  2.2278
    8CHTO   C17 3382   6.662   9.207   0.201  0.0195  0.3418  0.2661
    8CHTO   O12 3383   6.711   9.225   0.333 -0.3746  0.1577 -0.1763
    8CHTO    H6 3384   6.707   9.318   0.339  3.1730  0.2961  1.9212
    9CHTO  H203 3385   6.856   3.306   0.891 -2.1098  0.3436 -1.8338
    9CHTO   O82 3386   6.869   3.217   0.863 -0.8816  0.0451 -0.3381
    9CHTO  C123 3387   6.928   3.227   0.737  0.7085  0.5051  0.0936
    9CHTO  H227 3388   6.926   3.126   0.692  1.2156  0.6044 -0.1561
    9CHTO   O77 3389   6.848   3.317   0.658  1.2010  0.4486  0.8761
    9CHTO  C118 3390   6.887   3.330   0.521  0.2904 -0.5560  0.1400
    9CHTO  H222 3391   6.901   3.230   0.477 -0.4644 -1.1546  1.2447
    9CHTO  C125 3392   6.785   3.412   0.434 -0.0369  0.1992 -0.5299
    9CHTO   O84 3393   6.671   3.327   0.411 -0.0758 -0.2493  0.1145
    9CHTO  H205 3394   6.590   3.368   0.433 -0.3895 -2.1128  2.6540
    9CHTO  C114 3395   7.026   3.396   0.520 -0.1923 -0.1452  0.6004
    9CHTO  H218 3396   7.020   3.498   0.560  0.4206 -0.2125  0.8759
    9CHTO  C116 3397   7.125   3.323   0.605 -0.2958 -0.4946 -0.0715
    9CHTO  H220 3398   7.146   3.228   0.551  2.5647 -0.4241  0.7893
    9CHTO   O79 3399   7.245   3.402   0.610 -0.3109 -0.0042 -0.2454
    9CHTO  H201 3400   7.328   3.360   0.623  1.7770  2.4819 -4.3264
    9CHTO  C120 3401   7.071   3.289   0.750  0.6730 -0.4486  0.4346
    9CHTO  H224 3402   7.075   3.386   0.802 -0.2048 -0.3035  0.2413
    9CHTO   N21 3403   7.163   3.201   0.823  0.0752  0.1458 -0.1310
    9CHTO  H211 3404   7.250   3.262   0.842  0.8902 -0.8313 -0.6553
    9CHTO  H212 3405   7.114   3.185   0.918  3.8355  0.2394  1.8969
    9CHTO   O75 3406   7.067   3.395   0.385  0.2452  0.5150  0.1117
    9CHTO  C112 3407   7.144   3.552   0.338 -1.2015  0.6159 -0.6957
    9CHTO  H216 3408   7.211   3.587   0.417 -1.4511  0.3055 -0.3413
    9CHTO   O73 3409   7.038   3.645   0.312 -0.1428 -0.1580  0.5254
    9CHTO  C113 3410   7.076   3.776   0.281  0.2852  0.4543  0.3001
    9CHTO  H217 3411   7.114   3.811   0.379  0.5995  2.5008 -0.5238
    9CHTO  C124 3412   6.946   3.854   0.253  0.2193  0.6577 -0.1258
    9CHTO   O83 3413   6.835   3.836   0.351 -0.2548 -0.0892  0.0913
    9CHTO  H204 3414   6.850   3.877   0.434 -2.4277 -0.1006  0.5207
    9CHTO  C109 3415   7.168   3.784   0.159  0.0018  0.8487 -0.2464
    9CHTO  H213 3416   7.103   3.759   0.074 -0.6853 -0.3328  0.6173
    9CHTO  C110 3417   7.283   3.679   0.167 -0.6425 -0.2844 -0.5873
    9CHTO  H214 3418   7.348   3.713   0.248  0.5687  0.5172 -1.8785
    9CHTO   O78 3419   7.361   3.688   0.046  0.1940 -0.0122 -0.6127
    9CHTO  H200 3420   7.450   3.679   0.073 -0.3980  0.3333  1.5275
    9CHTO  C111 3421   7.231   3.541   0.203  0.2828  0.2706 -0.3589
    9CHTO  H215 3422   7.169   3.501   0.122 -0.4795 -1.0729  0.8690
    9CHTO   N19 3423   7.335   3.441   0.228 -0.1478  0.4302  0.5078
    9CHTO  H207 3424   7.418   3.485   0.281  0.2335  1.0804 -0.5920
    9CHTO  H208 3425   7.304   3.351   0.278 -2.1641  1.7690  1.7048
    9CHTO   O74 3426   7.219   3.922   0.148 -0.1311 -0.0402  0.0939
    9CHTO  C115 3427   7.375   3.972   0.198 -0.4400  0.7161  0.4824
    9CHTO  H219 3428   7.411   3.906   0.277 -0.9340 -2.1655 -1.6103
    9CHTO   O76 3429   7.482   3.951   0.081  0.4808 -0.0389 -0.1441
    9CHTO  C122 3430   7.449   4.028  -0.033  0.3657  0.0577 -0.3305
    9CHTO  H226 3431   7.353   4.003  -0.078 -0.5879 -0.9254  2.1628
    9CHTO  C126 3432   7.550   3.999  -0.143  0.0130  0.3132  0.7148
    9CHTO   O85 3433   7.528   3.865  -0.202  0.2554  0.1081  0.1495
    9CHTO  H206 3434   7.507   3.806  -0.132 -1.2706  0.9094  0.3943
    9CHTO  C121 3435   7.441   4.184   0.000  0.2943 -0.9230  0.2296
    9CHTO  H225 3436   7.544   4.218   0.023  1.8113 -2.0407 -4.5264
    9CHTO   O81 3437   7.397   4.255  -0.116 -0.2541  0.2626 -0.0854
    9CHTO  H202 3438   7.307   4.235  -0.132 -0.3051  0.3902  0.0392
    9CHTO  C119 3439   7.346   4.209   0.126  0.2717  0.0585 -0.9574
    9CHTO  H223 3440   7.359   4.310   0.166  0.2615  0.2077 -1.3280
    9CHTO  C117 3441   7.364   4.122   0.250 -0.3894  0.1076 -0.1785
    9CHTO  H221 3442   7.279   4.132   0.317  0.4613  2.7674  0.5935
    9CHTO   N20 3443   7.485   4.161   0.331 -0.0992  0.8781  0.0838
    9CHTO  H209 3444   7.520   4.087   0.402 -0.8605  0.1299 -0.3060
    9CHTO  H210 3445   7.476   4.256   0.381 -2.3768  0.9903 -0.4715
    9CHTO   O80 3446   7.189   4.214   0.077  0.3461 -0.0785  0.4181
    9CHTO  C103 3447   7.076   4.286   0.166  0.0722 -0.3188  0.2773
    9CHTO  H190 3448   7.026   4.211   0.227  1.5235 -2.4577 -1.0921
    9CHTO  C101 3449   7.112   4.412   0.259  0.6487  0.2735 -0.0523
    9CHTO  H188 3450   7.167   4.482   0.197  1.8455 -0.7669 -0.1954
    9CHTO   O68 3451   7.199   4.365   0.379  0.1877  0.2138 -0.0474
    9CHTO  H168 3452   7.269   4.427   0.382 -0.5524  0.9642  1.7696
    9CHTO   C99 3453   6.977   4.487   0.306 -0.4696  0.1981  0.2483
    9CHTO  H186 3454   6.915   4.424   0.374 -0.0648  0.6361  1.0359
    9CHTO   N17 3455   7.012   4.618   0.373  0.5003  0.2900  0.2103
    9CHTO  H174 3456   7.075   4.674   0.305 -1.5387 -1.2091 -3.0235
    9CHTO  H175 3457   7.055   4.593   0.469  0.1386 -1.8771 -0.1738
    9CHTO   C97 3458   6.892   4.517   0.184  0.0191  0.4964 -0.1964
    9CHTO  H184 3459   6.950   4.588   0.123  3.3634  0.0541  2.3515
    9CHTO   O64 3460   6.859   4.389   0.119  0.0744 -0.5419 -0.7924
    9CHTO  C104 3461   6.974   4.330   0.055  0.3385 -0.1302  0.2404
    9CHTO  H191 3462   7.020   4.406  -0.008 -1.2909 -0.1745 -1.0447
    9CHTO  C108 3463   6.923   4.216  -0.038  0.4988 -0.5451 -0.5137
    9CHTO   O71 3464   6.851   4.265  -0.151 -0.0333 -0.3874 -0.6287
    9CHTO  H171 3465   6.764   4.270  -0.116  0.5741  0.5554  0.7791
    9CHTO   O62 3466   6.762   4.571   0.222  0.3357 -0.1293  0.4071
    9CHTO   C91 3467   6.694   4.657   0.131 -0.9321 -0.6844  0.7370
    9CHTO  H178 3468   6.742   4.651   0.033 -2.1764 -0.4825  0.1101
    9CHTO   C92 3469   6.723   4.795   0.176 -0.4225  0.0248 -0.0567
    9CHTO  H179 3470   6.830   4.819   0.188 -0.7403  1.1669  0.5852
    9CHTO   O66 3471   6.698   4.877   0.063  0.0726 -0.3692 -0.0159
    9CHTO  H166 3472   6.746   4.957   0.065  0.7006 -0.7507  2.5007
    9CHTO   C93 3473   6.637   4.853   0.298  0.3679  0.5705 -0.3647
    9CHTO  H180 3474   6.640   4.963   0.293  2.0010  0.5273 -0.8339
    9CHTO   N16 3475   6.694   4.813   0.430 -0.3428 -0.2306 -0.2728
    9CHTO  H172 3476   6.796   4.845   0.444 -0.4408  0.2690 -0.6933
    9CHTO  H173 3477   6.687   4.710   0.464  0.2649 -0.3754 -0.5814
    9CHTO   C94 3478   6.484   4.813   0.279 -0.5093  0.1971  0.1330
    9CHTO  H181 3479   6.452   4.738   0.351  0.5957 -0.5137 -0.1089
    9CHTO   O61 3480   6.474   4.755   0.148  0.0969  0.9730 -0.0090
    9CHTO   C95 3481   6.540   4.635   0.126  1.0154 -0.6194 -0.7363
    9CHTO  H182 3482   6.523   4.567   0.209  0.8027  1.0515  0.5986
    9CHTO  C106 3483   6.490   4.568  -0.007  0.2065  0.7066 -1.4456
    9CHTO   O69 3484   6.353   4.526  -0.008  0.7538 -0.2397  0.2346
    9CHTO  H169 3485   6.322   4.467   0.058 -1.4325 -1.2833 -1.6905
    9CHTO   O63 3486   6.394   4.940   0.284 -0.0168 -0.5390 -0.4001
    9CHTO   C96 3487   6.333   4.974   0.420  0.0386  0.0659  0.2839
    9CHTO  H183 3488   6.379   4.904   0.490 -0.7273 -0.7401  0.0018
    9CHTO   C98 3489   6.180   4.950   0.416  0.1621 -0.4747  0.0162
    9CHTO  H185 3490   6.138   5.011   0.334 -0.7717 -0.6929  0.3267
    9CHTO   O67 3491   6.168   4.812   0.375 -0.0286  0.2377  0.3461
    9CHTO  H167 3492   6.204   4.756   0.441 -0.2966 -0.1708  0.1482
    9CHTO  C102 3493   6.117   4.984   0.550  0.0230  0.0293 -0.1469
    9CHTO  H189 3494   6.156   4.908   0.619 -0.0785 -0.1929 -0.3348
    9CHTO   N18 3495   5.967   4.969   0.544 -0.5126 -0.4245 -0.3493
    9CHTO  H176 3496   5.912   5.055   0.509  0.6005 -0.1610 -1.5012
    9CHTO  H177 3497   5.939   4.949   0.646 -0.2411 -0.7175 -0.3324
    9CHTO  C105 3498   6.153   5.120   0.600  0.0118 -0.0902  0.2383
    9CHTO  H192 3499   6.114   5.196   0.532 -0.7925  0.2246  1.0413
    9CHTO   O65 3500   6.292   5.137   0.600  0.5523 -0.6767  0.4258
    9CHTO  C100 3501   6.357   5.123   0.473  0.6917 -0.3033  0.7543
    9CHTO  H187 3502   6.313   5.196   0.404 -0.3700 -1.4313  0.2046
    9CHTO  C107 3503   6.504   5.149   0.492 -0.5453  0.2940  0.1429
    9CHTO   O70 3504   6.545   5.287   0.535  0.1969 -0.3295  0.3222
    9CHTO  H170 3505   6.511   5.349   0.474  0.9637 -1.0889 -0.8850
    9CHTO   O57 3506   6.110   5.137   0.755 -0.5131  0.1673  0.4884
    9CHTO   C85 3507   6.138   5.259   0.828  0.2836 -0.0465  0.9125
    9CHTO  H157 3508   6.102   5.342   0.763 -1.3061 -2.3059 -1.1441
    9CHTO   C83 3509   6.290   5.299   0.832  0.3139 -0.0261  0.7977
    9CHTO  H155 3510   6.323   5.332   0.734 -1.4657  2.1622  0.9007
    9CHTO   O56 3511   6.365   5.181   0.878  0.3276 -0.2347  0.5192
    9CHTO  H135 3512   6.330   5.138   0.953  0.4417  0.0403  0.7303
    9CHTO   C81 3513   6.308   5.418   0.932 -1.1559  0.2747  0.3904
    9CHTO  H153 3514   6.246   5.500   0.895 -0.3306  1.5301  1.7647
    9CHTO   N14 3515   6.450   5.473   0.925  0.0041  0.0204 -0.0890
    9CHTO  H141 3516   6.453   5.545   0.846 -2.1036 -0.1398 -0.3386
    9CHTO  H142 3517   6.507   5.385   0.903  0.0340 -0.6166  2.3849
    9CHTO   C79 3518   6.259   5.384   1.082 -0.0737 -0.5216  0.3347
    9CHTO  H151 3519   6.265   5.475   1.141 -0.1090 -0.1976 -0.1592
    9CHTO   O52 3520   6.112   5.350   1.073 -0.2780  0.4800 -0.4929
    9CHTO   C86 3521   6.068   5.255   0.972  0.3505  0.2942 -0.0254
    9CHTO  H158 3522   6.077   5.150   1.008  0.6563 -0.1126 -1.2818
    9CHTO   C90 3523   5.910   5.269   0.956  0.6168  0.3526  0.1837
    9CHTO   O60 3524   5.843   5.160   0.889 -0.5948  0.0252 -0.9927
    9CHTO  H138 3525   5.856   5.165   0.796  1.3515  2.1451 -0.6532
    9CHTO   O50 3526   6.338   5.283   1.140  0.2503  0.1774  0.0821
    9CHTO   C73 3527   6.319   5.211   1.271 -0.1706  0.1507  1.1329
    9CHTO  H145 3528   6.232   5.145   1.263 -0.1209  0.2944 -0.9343
    9CHTO   C74 3529   6.293   5.310   1.386 -0.0255 -0.7489  0.6866
    9CHTO  H146 3530   6.204   5.368   1.355 -0.2984 -0.9450  1.0967
    9CHTO   O54 3531   6.244   5.237   1.500 -0.2068 -0.1196  0.1935
    9CHTO  H133 3532   6.150   5.230   1.492 -0.1870  1.0026 -1.2071
    9CHTO   C75 3533   6.417   5.404   1.409 -0.6566  0.4098  0.4931
    9CHTO  H147 3534   6.426   5.456   1.313  2.4509  0.5136  0.7972
    9CHTO   N13 3535   6.405   5.502   1.524  0.1057  0.4943 -0.2984
    9CHTO  H139 3536   6.499   5.513   1.576 -0.0808  0.2309  0.1029
    9CHTO  H140 3537   6.380   5.599   1.484 -2.3090  0.3147  0.7092
    9CHTO   C76 3538   6.549   5.320   1.413 -0.0547 -0.4112 -0.0309
    9CHTO  H148 3539   6.563   5.266   1.507 -2.3928 -2.3309 -0.7430
    9CHTO   O49 3540   6.557   5.219   1.307  0.0109  0.4422  0.0346
    9CHTO   C77 3541   6.448   5.127   1.305 -0.3453  0.0907  0.0184
    9CHTO  H149 3542   6.436   5.077   1.401 -0.0744 -0.5807 -0.2953
    9CHTO   C88 3543   6.480   5.032   1.196 -0.2287 -0.4139 -0.4431
    9CHTO   O58 3544   6.599   4.938   1.239  0.0226  1.3014 -0.3362
    9CHTO  H136 3545   6.571   4.873   1.301  0.5969  1.7761  0.4269
    9CHTO   O51 3546   6.656   5.399   1.380  0.7128 -0.2725  0.1662
    9CHTO   C78 3547   6.783   5.399   1.496  0.1669  0.0474 -0.3572
    9CHTO  H150 3548   6.743   5.395   1.599 -0.3598 -1.9593 -0.6154
    9CHTO   C80 3549   6.870   5.522   1.471 -0.1337 -0.3480 -0.7856
    9CHTO  H152 3550   6.899   5.533   1.364  3.0635 -0.3907  0.0412
    9CHTO   O55 3551   6.791   5.632   1.503  0.3719  0.4253  0.5301
    9CHTO  H134 3552   6.835   5.711   1.476  0.4812  0.5421  1.0577
    9CHTO   C84 3553   7.010   5.527   1.550  0.2613  0.1190  0.0320
    9CHTO  H156 3554   6.981   5.554   1.651 -1.9394 -0.6457 -0.3558
    9CHTO   N15 3555   7.098   5.646   1.510 -0.4615 -0.8386 -0.0419
    9CHTO  H143 3556   7.174   5.627   1.437 -1.9684 -1.0094 -1.6134
    9CHTO  H144 3557   7.050   5.739   1.489 -2.5555 -2.0007 -0.4802
    9CHTO   C87 3558   7.082   5.391   1.534 -0.4141 -0.4861 -0.7779
    9CHTO  H159 3559   7.125   5.386   1.434  1.0437  3.4984 -0.4573
    9CHTO   O53 3560   6.974   5.277   1.571 -0.4394 -0.0924 -0.4972
    9CHTO   C82 3561   6.871   5.277   1.473 -0.4209  0.1532  0.0459
    9CHTO  H154 3562   6.914   5.273   1.373 -0.5933  1.1246 -0.0712
    9CHTO   C89 3563   6.804   5.136   1.501  0.5975 -0.2740  0.4121
    9CHTO   O59 3564   6.892   5.030   1.466 -0.5745 -0.3942  0.0788
    9CHTO  H137 3565   6.931   4.977   1.532 -0.1270  0.2186  0.3130
    9CHTO   O45 3566   7.209   5.369   1.622  0.1562  0.0928  0.2467
    9CHTO   C67 3567   7.293   5.263   1.574  0.2779 -0.0657 -0.8667
    9CHTO  H124 3568   7.233   5.196   1.512 -1.0603  0.8018 -0.5374
    9CHTO   C65 3569   7.413   5.308   1.488 -0.2500  0.4490 -0.4310
    9CHTO  H122 3570   7.443   5.409   1.516 -0.4049  0.1913  0.6794
    9CHTO   O44 3571   7.362   5.316   1.355  0.5027  0.0274 -0.5749
    9CHTO  H102 3572   7.403   5.248   1.304  1.6961 -0.2401  0.7203
    9CHTO   C63 3573   7.540   5.222   1.518  0.5172  0.7616  0.5944
    9CHTO  H120 3574   7.579   5.242   1.618 -0.5246 -2.5885  1.7466
    9CHTO   N11 3575   7.658   5.248   1.431 -0.0102  0.1169  0.5671
    9CHTO  H108 3576   7.732   5.174   1.455  1.6845  1.2827 -0.9272
    9CHTO  H109 3577   7.703   5.335   1.474  1.8456 -1.2627  1.5058
    9CHTO   C61 3578   7.502   5.072   1.531  0.7327 -0.4440  0.4968
    9CHTO  H118 3579   7.593   5.014   1.553  1.0209 -0.1230  0.1478
    9CHTO   O40 3580   7.411   5.055   1.643  0.6994 -0.3115 -0.2787
    9CHTO   C68 3581   7.354   5.175   1.693  0.4048  0.5658 -0.5275
    9CHTO  H125 3582   7.436   5.228   1.746 -0.4310  1.2082  0.1375
    9CHTO   C72 3583   7.260   5.129   1.798  0.1836  0.4164 -0.3735
    9CHTO   O48 3584   7.128   5.104   1.741  0.1254 -0.1795 -0.1640
    9CHTO  H105 3585   7.089   5.187   1.720 -3.0221 -1.6284 -0.2675
    9CHTO   O38 3586   7.440   5.016   1.411 -0.6326  0.2871  0.3074
    9CHTO   C55 3587   7.461   4.874   1.390 -0.5180 -0.2121  0.3470
    9CHTO  H112 3588   7.490   4.820   1.481 -0.3469 -1.9679 -0.7219
    9CHTO   C56 3589   7.569   4.861   1.275  0.3384 -1.0678  0.6586
    9CHTO  H113 3590   7.538   4.929   1.194 -1.9578 -1.5823  1.0720
    9CHTO   O42 3591   7.696   4.903   1.320  0.1986 -0.4094 -0.5443
    9CHTO  H100 3592   7.751   4.836   1.356  2.1925  2.2486  1.6530
    9CHTO   C57 3593   7.574   4.712   1.213 -0.1865  0.1995  0.1209
    9CHTO  H114 3594   7.636   4.662   1.287 -0.3222  1.2851  0.9756
    9CHTO   N10 3595   7.652   4.696   1.089  0.2092 -0.4240  0.6715
    9CHTO  H106 3596   7.648   4.772   1.012 -0.0316 -0.2029  0.9012
    9CHTO  H107 3597   7.758   4.679   1.102  0.6734 -0.4244 -2.5842
    9CHTO   C58 3598   7.437   4.649   1.198  0.1263 -0.0833 -0.3778
    9CHTO  H115 3599   7.389   4.693   1.108  0.7224  0.0168 -0.6485
    9CHTO   O37 3600   7.359   4.664   1.319  0.2607 -0.3485  0.1040
    9CHTO   C59 3601   7.329   4.809   1.345 -0.2839  0.3297 -0.8419
    9CHTO  H116 3602   7.290   4.857   1.255  0.0424  0.2092 -1.0492
    9CHTO   C70 3603   7.222   4.830   1.456 -0.3472  0.1084  0.0525
    9CHTO   O46 3604   7.177   4.964   1.473  0.0789 -0.5945  0.0120
    9CHTO  H103 3605   7.140   4.982   1.557  0.7200 -0.4755  0.2713
    9CHTO   O39 3606   7.450   4.497   1.183  0.3398  0.2208 -0.0559
    9CHTO   C60 3607   7.352   4.429   1.109 -0.3917  0.2112 -0.8114
    9CHTO  H117 3608   7.257   4.469   1.144 -0.7032 -0.5348 -0.7904
    9CHTO   C62 3609   7.383   4.444   0.961  0.6283  0.9808  0.6897
    9CHTO  H119 3610   7.341   4.545   0.940 -2.6802 -0.9064 -2.2674
    9CHTO   O43 3611   7.524   4.421   0.937  0.1241 -0.6996 -0.2139
    9CHTO  H101 3612   7.554   4.510   0.941 -2.3856  0.1692  0.3268
    9CHTO   C66 3613   7.302   4.352   0.864 -0.1797  0.7553 -0.1922
    9CHTO  H123 3614   7.196   4.375   0.878 -0.3264  0.3292 -0.5987
    9CHTO   N12 3615   7.316   4.395   0.722 -0.1341 -0.3318  0.4549
    9CHTO  H110 3616   7.411   4.375   0.676  0.5812 -0.1100  1.8185
    9CHTO  H111 3617   7.228   4.369   0.664 -1.0340  3.0878  0.1587
    9CHTO   C69 3618   7.324   4.201   0.889  0.5538 -0.0619  0.6733
    9CHTO  H126 3619   7.429   4.169   0.875  0.8026  0.7157  0.7775
    9CHTO   O41 3620   7.287   4.174   1.038  0.0747 -0.5636  0.0085
    9CHTO   C64 3621   7.357   4.278   1.154  0.5555 -0.1784 -0.3404
    9CHTO  H121 3622   7.460   4.245   1.177 -0.2778 -2.6778 -0.0984
    9CHTO   C71 3623   7.290   4.250   1.292  0.9260  0.7631  0.1881
    9CHTO   O47 3624   7.276   4.112   1.324 -0.1074  0.5942 -0.0764
    9CHTO  H104 3625   7.206   4.108   1.386  1.2440  0.7210  1.4806
    9CHTO   O34 3626   7.239   4.120   0.798 -0.6278  0.1249  0.1728
    9CHTO   C49 3627   7.294   3.990   0.749 -0.2787  0.5746 -0.4321
    9CHTO   H91 3628   7.388   4.006   0.698 -0.3902  0.9004 -0.5374
    9CHTO   C47 3629   7.195   3.927   0.644  0.1234  0.3233 -0.1238
    9CHTO   H89 3630   7.245   3.833   0.613 -0.5501  0.5831 -2.0627
    9CHTO   O33 3631   7.191   4.010   0.532 -0.1499 -1.0994  0.0370
    9CHTO   H70 3632   7.110   4.027   0.488  1.7528  2.6540 -2.2796
    9CHTO   C45 3633   7.048   3.900   0.713  0.1395  0.2869  0.4901
    9CHTO   H87 3634   6.989   3.989   0.684  0.3676  0.7382  1.3891
    9CHTO    N8 3635   6.981   3.779   0.651  0.0340 -0.4964 -0.3217
    9CHTO   H75 3636   6.947   3.783   0.548  1.8851 -0.9007 -0.9728
    9CHTO   H76 3637   6.898   3.750   0.714 -0.1820  1.7224  0.4262
    9CHTO   C43 3638   7.057   3.898   0.872  0.1213 -0.7372 -0.1311
    9CHTO   H85 3639   7.045   4.001   0.906 -0.8722 -1.5419  2.0911
    9CHTO   O29 3640   7.178   3.842   0.925  0.4091  0.2834  0.1324
    9CHTO   C50 3641   7.299   3.888   0.872 -0.9760  1.0951 -0.4303
    9CHTO   H92 3642   7.351   3.942   0.953  0.5267 -3.7270  2.0207
    9CHTO   C54 3643   7.392   3.771   0.840 -0.2010 -0.6489 -0.8613
    9CHTO   O36 3644   7.322   3.658   0.793  0.3090 -0.4510  0.3085
    9CHTO   H72 3645   7.374   3.616   0.727 -1.0701  1.0057 -1.7722
    9CHTO   O27 3646   6.944   3.842   0.931 -0.2559 -0.0784  0.3477
    9CHTO   C37 3647   6.880   3.842   1.062 -0.2391 -0.1751  1.7342
    9CHTO   H79 3648   6.793   3.776   1.054 -0.5351  0.1507  2.2812
    9CHTO   C38 3649   6.976   3.776   1.167 -0.4659  0.4524  0.3916
    9CHTO   H80 3650   7.068   3.835   1.174  1.2653 -2.2718  1.7667
    9CHTO   O31 3651   7.003   3.644   1.118 -0.5030 -0.4855 -0.6731
    9CHTO   H68 3652   7.038   3.651   1.032  1.8515 -3.1728  0.0146
    9CHTO   C39 3653   6.907   3.769   1.310  0.2259 -0.1852 -0.4736
    9CHTO   H81 3654   6.821   3.702   1.303 -3.0124  3.1442  3.9041
    9CHTO    N7 3655   6.995   3.730   1.424  0.5339 -0.4814  0.4763
    9CHTO   H73 3656   6.947   3.666   1.495  0.1910 -0.6048  0.1362
    9CHTO   H74 3657   7.087   3.688   1.385  0.0935 -2.4307  1.5274
    9CHTO   C40 3658   6.840   3.910   1.349  0.1203 -0.1461 -0.6233
    9CHTO   H82 3659   6.921   3.978   1.377 -0.2504 -0.6714  1.8427
    9CHTO   O26 3660   6.764   3.959   1.234  0.3210 -0.4668 -0.4526
    9CHTO   C41 3661   6.840   3.984   1.118  0.4815  0.0094 -0.2333
    9CHTO   H83 3662   6.925   4.039   1.163 -1.6743  1.3008  2.4179
    9CHTO   C52 3663   6.758   4.078   1.026  0.6322  0.3455 -0.4133
    9CHTO   O35 3664   6.658   4.020   0.952 -0.0608 -0.2761 -0.5769
    9CHTO   H71 3665   6.601   3.963   0.999  1.1371 -0.2341  0.9695
    9CHTO   O28 3666   6.760   3.908   1.471  0.2940 -0.2210 -0.2702
    9CHTO   C42 3667   6.674   4.018   1.516 -0.1200 -0.2944 -0.3154
    9CHTO   H84 3668   6.663   3.999   1.623  0.3543 -2.0398 -0.5669
    9CHTO   C44 3669   6.527   4.019   1.453 -0.1997 -0.4476  0.4577
    9CHTO   H86 3670   6.536   4.006   1.346 -1.7539  1.8266  0.0303
    9CHTO   O32 3671   6.466   3.906   1.503 -0.3118  0.1498 -0.2882
    9CHTO   H69 3672   6.419   3.857   1.438 -2.0892 -0.8746  1.7148
    9CHTO   C48 3673   6.441   4.152   1.486 -0.3391 -0.9193 -0.1892
    9CHTO   H90 3674   6.424   4.158   1.594  0.3511 -0.1530 -0.1179
    9CHTO    N9 3675   6.305   4.139   1.426  0.9384  0.1056  0.8650
    9CHTO   H77 3676   6.247   4.228   1.446  2.2190  0.4348  3.2676
    9CHTO   H78 3677   6.306   4.109   1.322 -0.2259  1.5609  0.4218
    9CHTO   C51 3678   6.536   4.272   1.448  0.1100 -0.2784  0.0790
    9CHTO   H93 3679   6.560   4.251   1.344 -2.1041 -0.8757 -0.3324
    9CHTO   O30 3680   6.650   4.269   1.533 -0.0669 -0.1427  0.1504
    9CHTO   C46 3681   6.746   4.164   1.504 -0.3335  0.6967  0.2364
    9CHTO   H88 3682   6.794   4.167   1.406  2.3362  1.6031  1.5242
    9CHTO   C53 3683   6.872   4.177   1.602 -0.5295  0.6740 -0.3224
    9CHTO   O72 3684   6.922   4.313   1.597 -0.2583 -0.0573 -0.1983
    9CHTO  H199 3685   6.963   4.331   1.679 -2.0717 -1.9208  1.1829
    9CHTO   O22 3686   6.474   4.399   1.463 -0.0825 -0.0389 -0.1575
    9CHTO   C31 3687   6.532   4.514   1.380  0.3152 -0.1347 -0.0318
    9CHTO   H59 3688   6.486   4.607   1.418  0.6588  0.6921 -1.6002
    9CHTO   C29 3689   6.681   4.538   1.404 -0.2481 -0.1191  0.7259
    9CHTO   H57 3690   6.728   4.439   1.387  0.9646  0.7408 -1.0382
    9CHTO   O21 3691   6.704   4.591   1.540 -0.3874 -0.2042 -0.0282
    9CHTO   H37 3692   6.740   4.521   1.591  1.7076 -0.6757 -2.0635
    9CHTO   C27 3693   6.747   4.642   1.299 -0.2135  0.4630 -0.2263
    9CHTO   H55 3694   6.716   4.746   1.318  0.3587  0.8818 -1.5086
    9CHTO    N5 3695   6.894   4.640   1.309  0.3583  0.1831 -0.0312
    9CHTO   H43 3696   6.948   4.663   1.218  0.2999 -0.7749 -0.3178
    9CHTO   H44 3697   6.925   4.692   1.398  0.3892 -1.1056  0.7300
    9CHTO   C25 3698   6.701   4.611   1.148  0.3586 -0.1174  0.0368
    9CHTO   H53 3699   6.735   4.508   1.128 -0.0892 -0.2324 -0.1174
    9CHTO   O17 3700   6.556   4.619   1.157 -0.2553 -0.3154  0.0979
    9CHTO   C32 3701   6.500   4.510   1.230 -0.2549 -0.2946  0.7240
    9CHTO   H60 3702   6.527   4.410   1.197 -0.2458 -0.4691  1.2503
    9CHTO   C36 3703   6.355   4.518   1.209 -0.4739 -0.3657  0.0883
    9CHTO   O25 3704   6.315   4.513   1.071  0.0531  0.0903  0.1958
    9CHTO   H40 3705   6.351   4.447   1.014 -0.3037  1.1891 -1.3249
    9CHTO   O15 3706   6.745   4.717   1.040 -0.1676 -0.0540  0.5321
    9CHTO   C19 3707   6.755   4.679   0.904 -0.2613  0.0428  1.1282
    9CHTO   H47 3708   6.807   4.764   0.858 -0.4009  0.5832  1.9651
    9CHTO   C20 3709   6.835   4.557   0.873 -0.3815 -0.7591 -0.2793
    9CHTO   H48 3710   6.802   4.473   0.937  0.5977 -1.9581 -1.3194
    9CHTO   O19 3711   6.970   4.596   0.911  0.2962  0.0100 -0.2213
    9CHTO   H35 3712   7.009   4.643   0.841  0.5328  1.4927  0.8683
    9CHTO   C21 3713   6.822   4.497   0.729  1.1330 -0.2028 -0.8609
    9CHTO   H49 3714   6.867   4.563   0.654  1.5821 -2.1766 -2.3847
    9CHTO    N4 3715   6.874   4.357   0.723  0.2741 -0.1733 -0.2210
    9CHTO   H41 3716   6.862   4.307   0.628 -2.2716 -0.4479  0.2199
    9CHTO   H42 3717   6.969   4.336   0.770  0.8034  2.0233 -0.2561
    9CHTO   C22 3718   6.671   4.504   0.684  0.3020 -0.6080  0.3373
    9CHTO   H50 3719   6.617   4.436   0.750 -0.8936 -0.2661 -0.2836
    9CHTO   O14 3720   6.621   4.632   0.698 -0.1345 -0.6459 -0.9328
    9CHTO   C23 3721   6.613   4.675   0.835  0.8922  0.1816 -0.3977
    9CHTO   H51 3722   6.540   4.613   0.889 -1.1327  0.4861 -2.7072
    9CHTO   C34 3723   6.553   4.814   0.827  0.8449  0.4830  0.3435
    9CHTO   O23 3724   6.414   4.832   0.788 -0.0210 -0.5058  0.8452
    9CHTO   H38 3725   6.412   4.911   0.737 -0.3337 -0.2366  1.2643
    9CHTO   O16 3726   6.663   4.479   0.542  0.3292 -0.1414 -0.2137
    9CHTO   C24 3727   6.535   4.368   0.510 -0.1453 -0.2116  0.8023
    9CHTO   H52 3728   6.502   4.317   0.600  1.3473 -0.1835  1.3811
    9CHTO   C26 3729   6.579   4.266   0.402 -1.0096 -0.1800 -0.6651
    9CHTO   H54 3730   6.622   4.323   0.317  0.0951  1.6538  1.0960
    9CHTO   O20 3731   6.680   4.194   0.472  0.6571  0.0805  0.1439
    9CHTO   H36 3732   6.701   4.114   0.427 -0.8774  0.6272 -1.6288
    9CHTO   C30 3733   6.462   4.183   0.347 -0.4861 -0.3956  0.4968
    9CHTO   H58 3734   6.428   4.115   0.427  1.6328 -1.0857  0.8650
    9CHTO    N6 3735   6.502   4.094   0.233 -0.2078 -0.7298  0.2261
    9CHTO   H45 3736   6.528   4.152   0.145  0.3955  0.9987  1.5298
    9CHTO   H46 3737   6.594   4.045   0.262 -0.4727 -0.2702  1.8715
    9CHTO   C33 3738   6.343   4.273   0.302 -0.7015 -0.1190  0.4675
    9CHTO   H61 3739   6.384   4.336   0.221  1.2024 -1.2239  0.5489
    9CHTO   O18 3740   6.310   4.354   0.416  0.2374  0.3970 -0.0280
    9CHTO   C28 3741   6.414   4.451   0.452  0.6385  0.2943  0.2952
    9CHTO   H56 3742   6.449   4.508   0.366  1.4216 -1.8231 -0.8141
    9CHTO   C35 3743   6.355   4.549   0.553  0.9517 -0.2480 -0.1165
    9CHTO   O24 3744   6.283   4.490   0.668 -0.1071  0.7062  0.0473
    9CHTO   H39 3745   6.205   4.451   0.632 -0.3962 -0.4892  1.9324
    9CHTO    O9 3746   6.230   4.203   0.245  0.3757  0.2189 -0.2963
    9CHTO   C13 3747   6.150   4.291   0.142  0.7029  0.6372  0.1928
    9CHTO   H26 3748   6.224   4.320   0.065  0.5146  1.9058  0.4863
    9CHTO   C11 3749   6.078   4.426   0.212 -0.5410  0.0825 -0.1270
    9CHTO   H24 3750   6.150   4.507   0.233  1.1738 -1.8032  1.4787
    9CHTO    O8 3751   6.020   4.387   0.340 -0.1793 -0.5087 -0.0657
    9CHTO    H3 3752   6.085   4.360   0.402 -0.3444  2.9741  1.7877
    9CHTO    C9 3753   5.976   4.482   0.115  0.0956  0.2614  0.3543
    9CHTO   H22 3754   6.039   4.506   0.028  2.3359 -0.2617  1.7864
    9CHTO    N2 3755   5.930   4.617   0.156 -0.5074  0.6604 -0.3822
    9CHTO   H10 3756   6.015   4.678   0.185 -0.5592  0.1755  0.8337
    9CHTO   H11 3757   5.859   4.606   0.237 -1.0073  0.5719 -0.8337
    9CHTO    C7 3758   5.858   4.381   0.094 -0.7560 -0.2942  0.4451
    9CHTO   H20 3759   5.821   4.397  -0.010  3.2750 -1.5278 -1.2583
    9CHTO    O4 3760   5.901   4.243   0.110 -0.1156 -0.8640 -0.0632
    9CHTO   C14 3761   6.036   4.204   0.074 -0.4075 -1.0224  0.3873
    9CHTO   H27 3762   6.037   4.229  -0.034  0.1645 -2.3409  0.0866
    9CHTO   C18 3763   6.051   4.050   0.089  0.6176  0.0020 -0.4291
    9CHTO   O13 3764   6.012   3.999   0.217  0.3285 -0.4655 -0.0645
    9CHTO    H7 3765   6.026   3.907   0.226  0.6621 -0.4067 -0.0076
    9CHTO    O2 3766   5.739   4.398   0.204 -0.3861  0.3886  0.0678
    9CHTO    C1 3767   5.606   4.362   0.172 -0.3835 -0.6734  0.7517
    9CHTO   H14 3768   5.601   4.313   0.072 -0.8193  2.3244 -0.7469
    9CHTO    C2 3769   5.508   4.484   0.161  0.3329  0.4147 -0.4848
    9CHTO   H15 3770   5.521   4.539   0.255 -0.2506  1.2143 -0.8626
    9CHTO    O6 3771   5.558   4.570   0.057 -0.0169 -0.0129  0.1621
    9CHTO    H1 3772   5.516   4.553  -0.025  0.7937  0.1021 -0.2823
    9CHTO    C3 3773   5.355   4.442   0.141  0.1139  0.3811 -0.2625
    9CHTO   H16 3774   5.336   4.413   0.036 -1.2703 -1.1842  0.3895
    9CHTO    N1 3775   5.265   4.557   0.166  0.0340  0.1817  0.5296
    9CHTO    H8 3776   5.209   4.585   0.078 -0.0247  0.4490  0.6524
    9CHTO    H9 3777   5.186   4.529   0.234 -2.5473  1.0588 -2.0111
    9CHTO    C4 3778   5.316   4.314   0.228 -0.2148 -1.1250  0.1605
    9CHTO   H17 3779   5.292   4.347   0.329  1.1070  0.0318  0.1065
    9CHTO    O1 3780   5.425   4.220   0.231 -0.5442 -1.0158  0.3832
    9CHTO    C5 3781   5.548   4.267   0.278  0.0992 -0.5586 -0.1345
    9CHTO   H18 3782   5.531   4.317   0.373  0.3231 -1.1484  0.2214
    9CHTO   C16 3783   5.644   4.143   0.298  0.2251 -0.2972  0.1628
    9CHTO   O11 3784   5.683   4.079   0.179  0.2893  0.2375 -0.0354
    9CHTO    H5 3785   5.617   4.021   0.147  1.7105 -2.6860  2.0514
    9CHTO    O3 3786   5.226   4.225   0.175  0.4544 -0.5900  0.7673
    9CHTO    C6 3787   5.101   4.203   0.246 -0.4444 -0.1540 -0.0223
    9CHTO   H19 3788   5.085   4.273   0.328 -1.6285  0.4881 -0.7893
    9CHTO    C8 3789   4.984   4.213   0.143 -0.0095 -0.8088 -0.3010
    9CHTO   H21 3790   5.006   4.150   0.057 -0.4920 -0.7693 -0.4548
    9CHTO    O7 3791   4.990   4.352   0.110 -0.4962 -0.3286 -0.1463
    9CHTO    H2 3792   4.974   4.354   0.018  0.7829  0.2824 -0.3722
    9CHTO   C12 3793   4.849   4.156   0.198 -0.2340  0.6606  1.0242
    9CHTO   H25 3794   4.819   4.227   0.278 -0.0844  1.0129  0.7670
    9CHTO    N3 3795   4.743   4.149   0.090  0.4331 -0.0082  0.4833
    9CHTO   H12 3796   4.751   4.232   0.021 -1.9724 -0.5865 -0.5651
    9CHTO   H13 3797   4.749   4.055   0.038 -0.1460  0.2338 -0.0326
    9CHTO   C15 3798   4.875   4.018   0.269  0.0678  0.7021  0.0477
    9CHTO   H28 3799   4.893   3.930   0.208  1.0035  1.0170 -0.1234
    9CHTO   O10 3800   4.762   3.980   0.355  0.4849 -0.1151  0.3997
    9CHTO    H4 3801   4.685   4.023   0.324  1.1555  0.1994 -0.8574
    9CHTO    O5 3802   4.977   4.027   0.368 -0.8557 -0.1654  0.0584
    9CHTO   C10 3803   5.107   4.056   0.310 -0.1830 -0.4951 -0.0339
    9CHTO   H23 3804   5.110   3.970   0.242 -0.8150 -1.0513  0.6263
    9CHTO   C17 3805   5.211   4.040   0.425  0.1503  0.4044  0.7322
    9CHTO   O12 3806   5.230   3.903   0.462  0.2214  0.2386  0.3291
    9CHTO    H6 3807   5.164   3.874   0.523 -0.0763 -1.5600 -0.8215
   10CHTO  H203 3808   3.491   6.997   2.183 -1.9561  0.6314 -1.2487
   10CHTO   O82 3809   3.441   7.006   2.261  0.3274 -0.1314  0.3576
   10CHTO  C123 3810   3.496   7.106   2.342  0.2470  0.2252 -0.4429
   10CHTO  H227 3811   3.539   7.186   2.280  4.3914 -2.5925 -1.3899
   10CHTO   O77 3812   3.385   7.144   2.427  0.1183 -0.5222 -0.6752
   10CHTO  C118 3813   3.411   7.249   2.523  0.1401  0.8540 -0.0635
   10CHTO  H222 3814   3.442   7.334   2.459 -1.2843 -0.5300 -2.6994
   10CHTO  C125 3815   3.275   7.285   2.604  0.4767 -0.3734  0.0974
   10CHTO   O84 3816   3.232   7.176   2.681 -0.2609  0.2468 -0.1751
   10CHTO  H205 3817   3.214   7.100   2.629 -0.6082 -0.5718  1.1263
   10CHTO  C114 3818   3.522   7.206   2.618 -0.6066  0.7021  0.2220
   10CHTO  H218 3819   3.485   7.119   2.672  0.2309 -0.4775 -1.0430
   10CHTO  C116 3820   3.650   7.169   2.534  0.0690  0.0225  0.4731
   10CHTO  H220 3821   3.686   7.262   2.484 -0.1132 -1.1778 -2.0132
   10CHTO   O79 3822   3.753   7.135   2.621 -0.0636 -0.3270 -0.0930
   10CHTO  H201 3823   3.813   7.071   2.588  1.3120  0.5994  0.5481
   10CHTO  C120 3824   3.614   7.056   2.428 -0.4275 -0.2518 -0.3812
   10CHTO  H224 3825   3.576   6.973   2.490 -0.6791  1.0157  1.2062
   10CHTO   N21 3826   3.725   7.005   2.346 -0.4843  0.6200 -0.2252
   10CHTO  H211 3827   3.825   7.021   2.383 -0.5409  0.1509  0.1295
   10CHTO  H212 3828   3.725   7.050   2.247 -0.0962  0.8851 -0.1026
   10CHTO   O75 3829   3.537   7.317   2.708 -0.1560  0.1160  0.1160
   10CHTO  C112 3830   3.573   7.276   2.870 -0.6215 -0.0165  0.1836
   10CHTO  H216 3831   3.616   7.176   2.877 -0.6062 -0.0333 -0.1250
   10CHTO   O73 3832   3.453   7.290   2.952 -0.5627  0.1421  0.1397
   10CHTO  C113 3833   3.472   7.241   3.085 -0.3275 -0.0015  0.0137
   10CHTO  H217 3834   3.523   7.143   3.080 -0.6021 -0.0466 -2.5903
   10CHTO  C124 3835   3.337   7.226   3.152 -0.0335  0.6472  0.1942
   10CHTO   O83 3836   3.277   7.105   3.105 -0.1703 -0.3155 -0.8605
   10CHTO  H204 3837   3.279   7.047   3.179  1.9496  0.3721 -0.3585
   10CHTO  C109 3838   3.562   7.339   3.158  0.1937 -0.5686 -0.0442
   10CHTO  H213 3839   3.502   7.431   3.170 -1.2357 -1.2451 -1.7960
   10CHTO  C110 3840   3.692   7.355   3.079 -0.5351  0.0731  0.4315
   10CHTO  H214 3841   3.757   7.269   3.096  0.7162  0.7478 -0.8250
   10CHTO   O78 3842   3.771   7.456   3.143  0.3705  0.2573 -0.0913
   10CHTO  H200 3843   3.721   7.535   3.155  0.1605  0.1071  0.0336
   10CHTO  C111 3844   3.672   7.381   2.926  0.7541  0.5023 -0.6315
   10CHTO  H215 3845   3.640   7.486   2.918  0.2989  0.3965 -0.1940
   10CHTO   N19 3846   3.801   7.367   2.850  0.4801 -0.1186 -0.9045
   10CHTO  H207 3847   3.866   7.452   2.867  0.6642 -0.5739  0.7212
   10CHTO  H208 3848   3.843   7.270   2.873 -0.2115 -0.3709 -0.6869
   10CHTO   O74 3849   3.588   7.284   3.293  0.4715  0.7507  0.9706
   10CHTO  C115 3850   3.626   7.372   3.415  0.1701  0.6373 -0.5309
   10CHTO  H219 3851   3.720   7.427   3.400 -0.9493  2.7150 -0.0969
   10CHTO   O76 3852   3.517   7.481   3.446 -0.1419 -0.1166  0.2369
   10CHTO  C122 3853   3.402   7.441   3.520  0.1430  1.1079 -0.1002
   10CHTO  H226 3854   3.337   7.372   3.465 -0.8562  1.5147  0.5541
   10CHTO  C126 3855   3.307   7.562   3.556  0.0340  1.0174 -0.2749
   10CHTO   O85 3856   3.264   7.639   3.453 -0.2965  0.4199  0.2668
   10CHTO  H206 3857   3.198   7.701   3.477 -0.5068  0.0172  0.7496
   10CHTO  C121 3858   3.448   7.391   3.666 -0.2511 -0.1270  0.1085
   10CHTO  H225 3859   3.431   7.481   3.728 -0.3570  0.0268 -0.1417
   10CHTO   O81 3860   3.362   7.283   3.702  0.7164 -0.4177  0.0559
   10CHTO  H202 3861   3.396   7.206   3.660  0.6671 -0.4237  0.0270
   10CHTO  C119 3862   3.598   7.345   3.676  0.2364  0.4371  0.4038
   10CHTO  H223 3863   3.653   7.439   3.677  1.4508 -0.2647  1.0414
   10CHTO  C117 3864   3.645   7.273   3.539  0.4565 -0.6569 -0.0461
   10CHTO  H221 3865   3.588   7.183   3.515  1.0651 -0.8476 -0.8052
   10CHTO   N20 3866   3.790   7.237   3.540  0.0364 -0.5806 -0.8548
   10CHTO  H209 3867   3.810   7.141   3.495  0.9672 -0.3957 -0.8523
   10CHTO  H210 3868   3.843   7.234   3.635 -0.4094 -1.9196 -0.6448
   10CHTO   O80 3869   3.637   7.282   3.812 -0.0944  0.8129  0.5754
   10CHTO  C103 3870   3.580   7.343   3.969 -0.4856 -0.0849  0.0836
   10CHTO  H190 3871   3.635   7.300   4.052  1.0531  1.8278  0.0822
   10CHTO  C101 3872   3.604   7.495   3.974 -0.7578 -0.2816  0.0006
   10CHTO  H188 3873   3.556   7.543   3.888  0.9576 -1.9284 -1.9104
   10CHTO   O68 3874   3.755   7.521   3.964  0.2134 -0.8271 -0.0623
   10CHTO  H168 3875   3.774   7.612   3.970  2.4893 -1.1848 -1.5673
   10CHTO   C99 3876   3.530   7.560   4.105  0.2291  0.3719  0.2277
   10CHTO  H186 3877   3.583   7.520   4.194  0.1121 -1.4821 -0.5071
   10CHTO   N17 3878   3.530   7.711   4.106  0.0793 -0.0401 -0.2963
   10CHTO  H174 3879   3.582   7.751   4.020  2.4587 -0.0486  1.0932
   10CHTO  H175 3880   3.456   7.766   4.161 -0.2800 -1.6495  0.8789
   10CHTO   C97 3881   3.382   7.507   4.111  0.1123  0.1601  0.4412
   10CHTO  H184 3882   3.326   7.554   4.029 -0.6083 -3.8563 -1.4369
   10CHTO   O64 3883   3.371   7.362   4.106  0.0164 -0.3793  0.0570
   10CHTO  C104 3884   3.430   7.304   3.989  0.4706  0.4859 -0.4728
   10CHTO  H191 3885   3.368   7.350   3.912  1.4902  1.2148 -0.8770
   10CHTO  C108 3886   3.400   7.149   3.986  0.0989 -0.1232 -0.1381
   10CHTO   O71 3887   3.405   7.077   4.114 -0.5448  0.2093 -0.2971
   10CHTO  H171 3888   3.338   7.096   4.177  0.6283  0.7232  0.8020
   10CHTO   O62 3889   3.323   7.539   4.240  0.0477  0.0793 -0.5884
   10CHTO   C91 3890   3.183   7.531   4.266 -0.2155  0.3101  0.4501
   10CHTO  H178 3891   3.144   7.504   4.168  0.1871 -0.1615  0.4163
   10CHTO   C92 3892   3.126   7.675   4.281  0.2439 -0.3490  0.4934
   10CHTO  H179 3893   3.184   7.736   4.352  1.3939 -0.0576 -0.6908
   10CHTO   O66 3894   3.154   7.736   4.152  0.5582 -0.2247  0.3367
   10CHTO  H166 3895   3.136   7.828   4.155 -4.6680 -1.0007 -1.4023
   10CHTO   C93 3896   2.974   7.697   4.326 -0.5189  0.0588  1.0241
   10CHTO  H180 3897   2.912   7.684   4.236  0.0695  1.1130  0.4516
   10CHTO   N16 3898   2.942   7.832   4.366  0.1612 -0.4119  0.0944
   10CHTO  H172 3899   2.983   7.900   4.293  0.6205 -2.2667 -1.4121
   10CHTO  H173 3900   2.835   7.834   4.374  0.1789  0.6553  0.1632
   10CHTO   C94 3901   2.938   7.582   4.426 -0.0722  0.4041 -0.2521
   10CHTO  H181 3902   2.990   7.592   4.522 -0.3906  0.0799 -0.0432
   10CHTO   O61 3903   2.982   7.456   4.384  0.0234  0.1550  0.4837
   10CHTO   C95 3904   3.129   7.446   4.381  0.5270  0.2514 -0.3974
   10CHTO  H182 3905   3.168   7.479   4.478 -1.4915 -1.0432  0.9101
   10CHTO  C106 3906   3.186   7.297   4.356  0.4378 -0.7671 -0.0018
   10CHTO   O69 3907   3.143   7.238   4.230  0.1063  0.1496 -0.6036
   10CHTO  H169 3908   3.089   7.163   4.243  1.2933 -1.2072 -3.1282
   10CHTO   O63 3909   2.788   7.572   4.437  0.0248 -0.2853 -0.4829
   10CHTO   C96 3910   2.734   7.486   4.545 -0.1305 -0.6048 -0.0444
   10CHTO  H183 3911   2.823   7.438   4.584  1.2224 -0.2217 -2.6010
   10CHTO   C98 3912   2.623   7.380   4.514  0.1675  0.2205 -0.4018
   10CHTO  H185 3913   2.551   7.424   4.444 -0.9413 -0.9208  0.0042
   10CHTO   O67 3914   2.697   7.279   4.441 -0.1986  0.7504 -0.0538
   10CHTO  H167 3915   2.763   7.246   4.499 -0.7417  1.5915  1.0757
   10CHTO  C102 3916   2.552   7.305   4.636 -0.3038 -0.4335 -0.3495
   10CHTO  H189 3917   2.624   7.232   4.674  0.7439  1.2371  0.9547
   10CHTO   N18 3918   2.427   7.229   4.596 -0.1308  0.1687 -0.0742
   10CHTO  H176 3919   2.455   7.137   4.546  2.4141  0.5922  0.5120
   10CHTO  H177 3920   2.353   7.222   4.674  0.5426 -1.0415  0.4706
   10CHTO  C105 3921   2.525   7.406   4.749 -0.3060  0.3959 -0.2071
   10CHTO  H192 3922   2.428   7.453   4.734 -1.2774 -1.3358  0.4827
   10CHTO   O65 3923   2.620   7.509   4.760  0.1323  0.0984 -0.2457
   10CHTO  C100 3924   2.669   7.589   4.650 -0.4813  0.2015 -0.8754
   10CHTO  H187 3925   2.583   7.639   4.603 -1.5457 -0.4366  0.3809
   10CHTO  C107 3926   2.774   7.697   4.699 -0.2750 -0.0570 -0.3046
   10CHTO   O70 3927   2.702   7.780   4.796 -0.1173 -0.0850  0.6048
   10CHTO  H170 3928   2.641   7.841   4.761  0.8970  1.0194  0.7338
   10CHTO   O57 3929   2.521   7.318   4.892  0.4639 -0.0325 -0.2067
   10CHTO   C85 3930   2.454   7.376   5.006 -0.4306 -0.2788 -0.4161
   10CHTO  H157 3931   2.348   7.399   4.982 -0.4195 -1.8135 -2.1343
   10CHTO   C83 3932   2.523   7.517   5.054  0.5705 -0.1105  0.0607
   10CHTO  H155 3933   2.498   7.594   4.981  1.4165  0.9162  0.8439
   10CHTO   O56 3934   2.666   7.505   5.030 -0.5665  0.4969  0.3317
   10CHTO  H135 3935   2.710   7.583   5.001 -0.0065  0.2195  0.4393
   10CHTO   C81 3936   2.489   7.576   5.186  0.0872  0.4099 -0.1339
   10CHTO  H153 3937   2.384   7.603   5.186 -0.3586 -1.2705  0.7604
   10CHTO   N14 3938   2.552   7.705   5.211 -0.2436  0.4573  0.0564
   10CHTO  H141 3939   2.524   7.774   5.134 -0.0680  2.5375  1.8129
   10CHTO  H142 3940   2.659   7.697   5.217 -0.1870  1.2097  0.1812
   10CHTO   C79 3941   2.501   7.468   5.294 -0.7707  0.0903 -0.6752
   10CHTO  H151 3942   2.465   7.511   5.387  0.4210  2.8740 -1.4512
   10CHTO   O52 3943   2.425   7.345   5.258 -0.7734  0.2587  0.0145
   10CHTO   C86 3944   2.465   7.282   5.131 -0.2953 -0.8977 -0.2438
   10CHTO  H158 3945   2.567   7.243   5.154 -0.9995 -1.7693  1.4896
   10CHTO   C90 3946   2.378   7.158   5.120  1.0592  0.3159  0.1088
   10CHTO   O60 3947   2.352   7.101   4.987 -0.6462  0.1266 -0.3002
   10CHTO  H138 3948   2.266   7.086   4.953 -1.1428 -1.0839  1.4320
   10CHTO   O50 3949   2.642   7.440   5.321 -0.0234  0.1484 -0.6248
   10CHTO   C73 3950   2.703   7.355   5.416 -0.4022  0.1216  0.3591
   10CHTO  H145 3951   2.647   7.260   5.423 -0.9799  0.2252 -2.5057
   10CHTO   C74 3952   2.709   7.433   5.558  0.1006 -0.4582  0.4411
   10CHTO  H146 3953   2.606   7.460   5.586  0.7725  2.6226  0.1811
   10CHTO   O54 3954   2.762   7.343   5.657 -0.2470  0.0695 -0.1836
   10CHTO  H133 3955   2.738   7.362   5.746 -1.6256 -1.9412 -0.0880
   10CHTO   C75 3956   2.791   7.563   5.536 -0.3427 -0.8722 -0.1091
   10CHTO  H147 3957   2.737   7.632   5.469  0.8882 -0.6689 -0.9120
   10CHTO   N13 3958   2.799   7.653   5.660 -0.3132  0.2925  0.4888
   10CHTO  H139 3959   2.700   7.693   5.675 -0.2758  0.2337  0.9036
   10CHTO  H140 3960   2.833   7.604   5.750 -0.2857  1.4824  1.1397
   10CHTO   C76 3961   2.940   7.536   5.471  0.3446  0.0768 -0.5756
   10CHTO  H148 3962   2.996   7.474   5.541  1.1690  1.7666  0.3000
   10CHTO   O49 3963   2.928   7.451   5.344  0.2745  0.0450 -0.1963
   10CHTO   C77 3964   2.852   7.328   5.370 -0.4356  0.2747  0.3579
   10CHTO  H149 3965   2.909   7.279   5.448  1.7670  1.5291 -0.3948
   10CHTO   C88 3966   2.863   7.234   5.244 -0.2189  0.2063 -0.0533
   10CHTO   O58 3967   2.803   7.112   5.260  0.0211  0.4544  0.5831
   10CHTO  H136 3968   2.857   7.061   5.317 -0.5329 -2.2281 -1.1921
   10CHTO   O51 3969   3.016   7.670   5.426 -0.2150 -0.1217  0.8059
   10CHTO   C78 3970   3.174   7.655   5.447  0.0900  0.1458 -0.1830
   10CHTO  H150 3971   3.202   7.548   5.433  1.1870  0.6120 -1.6534
   10CHTO   C80 3972   3.219   7.703   5.590  0.1209 -0.3880 -0.0828
   10CHTO  H152 3973   3.198   7.811   5.606  0.1589 -0.1779 -1.4252
   10CHTO   O55 3974   3.151   7.620   5.693  0.0107 -0.4812  0.0064
   10CHTO  H134 3975   3.175   7.641   5.781 -0.8489  0.8989 -0.0886
   10CHTO   C84 3976   3.376   7.686   5.605 -0.0346 -0.2500  0.4752
   10CHTO  H156 3977   3.400   7.581   5.593 -1.3691 -0.8203  2.5793
   10CHTO   N15 3978   3.424   7.750   5.733  0.2235  0.4210  0.2193
   10CHTO  H143 3979   3.338   7.748   5.797 -0.3635  0.5930 -0.5668
   10CHTO  H144 3980   3.458   7.850   5.716  1.1063 -0.0828 -1.0252
   10CHTO   C87 3981   3.440   7.756   5.478 -0.0669  0.1739  0.3437
   10CHTO  H159 3982   3.422   7.864   5.478  0.1365  0.2082 -1.2350
   10CHTO   O53 3983   3.386   7.699   5.350 -0.7240 -0.7347 -0.4191
   10CHTO   C82 3984   3.246   7.729   5.330 -0.8907 -0.0774 -0.3064
   10CHTO  H154 3985   3.236   7.837   5.333 -1.5666 -0.1710  2.0341
   10CHTO   C89 3986   3.210   7.678   5.190 -0.2495 -0.7128  0.2595
   10CHTO   O59 3987   3.086   7.738   5.161 -0.6191 -0.1419 -0.5601
   10CHTO  H137 3988   3.085   7.745   5.068  0.6898 -0.4450 -0.6090
   10CHTO   O45 3989   3.599   7.738   5.464  0.2482 -0.5887  0.1215
   10CHTO   C67 3990   3.680   7.849   5.510  0.1143  0.4672 -0.1793
   10CHTO  H124 3991   3.621   7.913   5.576  0.9525 -0.0636  1.0947
   10CHTO   C65 3992   3.810   7.812   5.586  0.1159 -0.3173 -0.1974
   10CHTO  H122 3993   3.781   7.733   5.656  0.3943 -0.5821 -0.3761
   10CHTO   O44 3994   3.856   7.920   5.658  0.1852  0.3875  0.1201
   10CHTO  H102 3995   3.889   7.890   5.741 -0.2479 -2.6502 -0.7710
   10CHTO   C63 3996   3.916   7.751   5.491  0.0381  0.0168  0.6883
   10CHTO  H120 3997   3.867   7.674   5.432  0.0443  0.4728  0.0871
   10CHTO   N11 3998   4.025   7.682   5.556  0.3998 -0.1023 -0.0492
   10CHTO  H108 3999   4.111   7.650   5.502 -0.6770 -0.2771 -1.6831
   10CHTO  H109 4000   4.000   7.619   5.639 -1.2693 -0.5047 -0.8367
   10CHTO   C61 4001   3.956   7.866   5.387  0.4358 -0.1024 -0.5227
   10CHTO  H118 4002   4.023   7.818   5.315  0.6422 -0.0720 -0.3519
   10CHTO   O40 4003   3.846   7.916   5.313  0.1604  0.0610 -0.0079
   10CHTO   C68 4004   3.721   7.941   5.383 -0.4208 -0.1966 -0.4577
   10CHTO  H125 4005   3.637   7.923   5.314  1.2257 -1.1945 -2.2550
   10CHTO   C72 4006   3.719   8.089   5.422  0.0860 -0.0683 -0.0771
   10CHTO   O48 4007   3.591   8.132   5.469  0.3117  0.1088 -0.3021
   10CHTO  H105 4008   3.526   8.107   5.406 -0.9799 -1.7423  1.6541
   10CHTO   O38 4009   4.025   7.973   5.453  0.2539 -0.6766  0.6163
   10CHTO   C55 4010   4.152   8.023   5.423 -0.1471  0.5957 -0.5447
   10CHTO  H112 4011   4.185   7.964   5.336  1.2869 -0.3566  0.6379
   10CHTO   C56 4012   4.256   8.015   5.543 -0.5200  0.4517  0.6679
   10CHTO  H113 4013   4.193   8.058   5.622 -0.5853 -1.0167  1.4312
   10CHTO   O42 4014   4.300   7.882   5.568  0.6190  0.4117 -0.0798
   10CHTO  H100 4015   4.245   7.835   5.628 -0.4078  0.5233 -0.9310
   10CHTO   C57 4016   4.384   8.101   5.525  0.7691 -0.1212 -0.3729
   10CHTO  H114 4017   4.440   8.059   5.442 -1.8133 -1.5292 -1.4523
   10CHTO   N10 4018   4.464   8.107   5.649 -0.3633 -1.0544  0.2467
   10CHTO  H106 4019   4.531   8.023   5.659  2.2108  0.9891  0.5981
   10CHTO  H107 4020   4.519   8.200   5.659 -2.5133  0.0455  2.5406
   10CHTO   C58 4021   4.346   8.245   5.481  1.4605  0.3939  0.2119
   10CHTO  H115 4022   4.292   8.292   5.566  1.6143  0.7188  0.1316
   10CHTO   O37 4023   4.269   8.234   5.361 -0.4617 -0.6606 -0.6878
   10CHTO   C59 4024   4.140   8.174   5.381  0.1492 -0.4843  0.7743
   10CHTO  H116 4025   4.091   8.235   5.457  1.4188  0.7797  0.6048
   10CHTO   C70 4026   4.061   8.179   5.244 -0.1266 -0.3090 -0.2947
   10CHTO   O46 4027   4.032   8.316   5.207  0.3823  0.5452 -0.2476
   10CHTO  H103 4028   4.054   8.333   5.118 -1.2103  0.6760 -0.6196
   10CHTO   O39 4029   4.473   8.334   5.453  0.3851 -0.3813 -0.5358
   10CHTO   C60 4030   4.453   8.479   5.443 -0.5999  0.7179 -0.1138
   10CHTO  H117 4031   4.353   8.515   5.469 -1.7268 -2.0276 -0.5638
   10CHTO   C62 4032   4.538   8.559   5.537 -0.2466  0.0944  0.2831
   10CHTO  H119 4033   4.506   8.529   5.639 -1.5440 -2.5467 -0.8730
   10CHTO   O43 4034   4.675   8.513   5.524 -0.4035 -0.0021 -0.6533
   10CHTO  H101 4035   4.682   8.429   5.566  0.3027  0.2168 -0.3388
   10CHTO   C66 4036   4.515   8.713   5.513  0.0518 -0.2827 -0.4004
   10CHTO  H123 4037   4.408   8.732   5.517  0.0271 -0.1020 -1.7898
   10CHTO   N12 4038   4.578   8.795   5.620  0.2723  0.2326 -0.0840
   10CHTO  H110 4039   4.649   8.742   5.680  1.1429 -0.7545 -1.9406
   10CHTO  H111 4040   4.499   8.835   5.682  0.4516  1.0205 -0.3473
   10CHTO   C69 4041   4.549   8.753   5.367  0.3971 -0.4992  1.4432
   10CHTO  H126 4042   4.655   8.727   5.348 -0.1077 -1.0677 -0.7730
   10CHTO   O41 4043   4.469   8.687   5.286  0.5806  0.0398  0.1464
   10CHTO   C64 4044   4.481   8.531   5.296 -0.6479  0.0566 -0.5791
   10CHTO  H121 4045   4.580   8.490   5.269  0.1302  1.2471  0.4058
   10CHTO   C71 4046   4.391   8.463   5.191  0.0325 -0.3411 -0.1591
   10CHTO   O47 4047   4.256   8.494   5.223 -0.2156 -0.0896  0.0909
   10CHTO  H104 4048   4.188   8.448   5.178  0.7993 -0.6438 -0.9075
   10CHTO   O34 4049   4.533   8.912   5.344  0.3005 -0.0833  0.0368
   10CHTO   C49 4050   4.416   9.020   5.274  0.0399  0.5935  0.4399
   10CHTO   H91 4051   4.459   9.120   5.272  0.0411  0.5988  0.7247
   10CHTO   C47 4052   4.285   9.023   5.362 -0.0632  0.5431 -0.1054
   10CHTO   H89 4053   4.312   9.082   5.452 -1.0031  2.9380 -1.3397
   10CHTO   O33 4054   4.255   8.885   5.401  0.0151 -0.4076  0.1159
   10CHTO   H70 4055   4.321   8.828   5.367 -0.5515 -0.4121 -1.0028
   10CHTO   C45 4056   4.153   9.073   5.289  0.6254  0.0567  0.5919
   10CHTO   H87 4057   4.097   8.994   5.237  1.0703 -0.1338  0.3916
   10CHTO    N8 4058   4.059   9.137   5.380 -0.0701 -0.0040 -0.2905
   10CHTO   H75 4059   4.109   9.177   5.467 -1.5002 -0.8304  0.9254
   10CHTO   H76 4060   3.998   9.214   5.336  0.7116  1.3964  1.0364
   10CHTO   C43 4061   4.199   9.157   5.164  0.2093  0.0717 -0.2522
   10CHTO   H85 4062   4.106   9.195   5.123 -1.0753 -1.1829  1.4324
   10CHTO   O29 4063   4.276   9.079   5.072  0.6736 -0.0366 -0.0103
   10CHTO   C50 4064   4.378   8.992   5.125 -0.3650  0.0030  0.1781
   10CHTO   H92 4065   4.332   8.893   5.120 -0.3969 -0.0411  1.2142
   10CHTO   C54 4066   4.501   9.006   5.035  0.4253 -0.0474  0.2587
   10CHTO   O36 4067   4.469   8.956   4.904  0.2792  0.4558  0.1184
   10CHTO   H72 4068   4.467   9.032   4.849  0.9196  0.4192  0.0389
   10CHTO   O27 4069   4.276   9.266   5.199  0.1768 -0.0540  0.6766
   10CHTO   C37 4070   4.342   9.389   5.143 -0.2392 -0.5895  0.1615
   10CHTO   H79 4071   4.439   9.359   5.102 -0.5495 -0.0967 -0.9320
   10CHTO   C38 4072   4.261   9.438   5.023 -0.0063  0.7336 -0.7186
   10CHTO   H80 4073   4.157   9.446   5.057  1.3505  1.2474  3.6212
   10CHTO   O31 4074   4.255   9.337   4.925 -0.0514 -0.0490 -0.2371
   10CHTO   H68 4075   4.341   9.317   4.892  0.0157  1.8781 -1.3165
   10CHTO   C39 4076   4.322   9.572   4.970  0.0167 -0.1862  0.7252
   10CHTO   H81 4077   4.414   9.544   4.919 -0.8673 -0.9935 -0.4583
   10CHTO    N7 4078   4.235   9.634   4.861 -0.0302  0.8385  0.7131
   10CHTO   H73 4079   4.198   9.560   4.791 -0.0396  1.6131 -0.1134
   10CHTO   H74 4080   4.156   9.688   4.910 -1.0509  1.0202 -1.1070
   10CHTO   C40 4081   4.351   9.678   5.086 -0.2032  0.6040 -0.7311
   10CHTO   H82 4082   4.256   9.718   5.119  0.5768  1.6391  0.2896
   10CHTO   O26 4083   4.422   9.605   5.197  0.1819 -0.1062  0.0490
   10CHTO   C41 4084   4.356   9.492   5.250 -0.5875  0.1526 -0.3936
   10CHTO   H83 4085   4.253   9.514   5.283 -0.0167 -1.1892  2.4288
   10CHTO   C52 4086   4.435   9.459   5.381  0.0006 -0.5878 -0.0716
   10CHTO   O35 4087   4.396   9.344   5.467  0.2452  0.1708  0.8879
   10CHTO   H71 4088   4.423   9.264   5.426 -1.1027  0.1562  0.0014
   10CHTO   O28 4089   4.444   9.775   5.044 -0.3546 -0.3687 -0.1111
   10CHTO   C42 4090   4.433   9.915   5.098  0.5459  0.7197  0.5770
   10CHTO   H84 4091   4.370   9.907   5.187  0.3299  1.2140  0.4721
   10CHTO   C44 4092   4.368  10.014   5.000 -0.1285  0.5104 -0.0613
   10CHTO   H86 4093   4.416   9.999   4.903  2.4810  1.2490  1.0654
   10CHTO   O32 4094   4.229   9.977   4.984  0.1229 -0.1442  0.6934
   10CHTO   H69 4095   4.212   9.922   4.910 -0.9350  2.3033 -0.9343
   10CHTO   C48 4096   4.391  10.163   5.048  0.2470  0.5411  0.2757
   10CHTO   H90 4097   4.331  10.180   5.138  1.3082 -0.1392  1.1273
   10CHTO    N9 4098   4.330  10.257   4.951 -0.0789 -0.7342  0.9807
   10CHTO   H77 4099   4.339  10.358   4.989  2.3713 -1.7045  3.1642
   10CHTO   H78 4100   4.382  10.247   4.856  0.7696 -0.8816  1.4581
   10CHTO   C51 4101   4.542  10.183   5.055 -0.6307  0.4682 -0.2678
   10CHTO   H93 4102   4.586  10.145   4.963 -2.4225 -2.4403  0.0256
   10CHTO   O30 4103   4.572  10.099   5.169 -0.0283 -0.3357  0.1858
   10CHTO   C46 4104   4.570   9.968   5.134  0.0451  0.2045  0.1820
   10CHTO   H88 4105   4.641   9.952   5.053 -0.3036 -0.9465  0.1064
   10CHTO   C53 4106   4.642   9.890   5.250  0.2872  0.5553  0.1301
   10CHTO   O72 4107   4.771   9.948   5.288 -0.4972 -0.2904 -0.5609
   10CHTO  H199 4108   4.788   9.958   5.380 -3.5700 -0.1975  0.0369
   10CHTO   O22 4109   4.584  10.313   5.098 -0.1014 -0.5337  0.2924
   10CHTO   C31 4110   4.719  10.359   5.066  1.0333 -0.1336  0.0695
   10CHTO   H59 4111   4.735  10.449   5.129  0.3882 -0.1985  0.3324
   10CHTO   C29 4112   4.830  10.257   5.098 -0.0214  0.1033 -0.6787
   10CHTO   H57 4113   4.817  10.158   5.053  1.6671 -0.9216  0.9849
   10CHTO   O21 4114   4.828  10.245   5.242 -0.1289 -0.0382  0.3354
   10CHTO   H37 4115   4.784  10.167   5.270  1.1922  0.4883  4.1139
   10CHTO   C27 4116   4.975  10.309   5.050 -0.3034  0.3702  0.2509
   10CHTO   H55 4117   5.004  10.401   5.102  1.4091 -0.8072  1.4452
   10CHTO    N5 4118   5.078  10.207   5.076  0.8396 -0.6045  0.2292
   10CHTO   H43 4119   5.088  10.200   5.183  1.2106  1.4935  0.3616
   10CHTO   H44 4120   5.033  10.111   5.058 -3.3170  1.3270 -0.3044
   10CHTO   C25 4121   4.965  10.355   4.902 -0.1020 -0.5318 -0.0301
   10CHTO   H53 4122   4.927  10.278   4.833 -0.7622  0.5233 -0.8638
   10CHTO   O17 4123   4.856  10.454   4.886  0.1917 -0.5191  0.7396
   10CHTO   C32 4124   4.724  10.410   4.921 -0.1805 -0.1672  0.9138
   10CHTO   H60 4125   4.704  10.323   4.859  1.0991  1.0339 -1.2928
   10CHTO   C36 4126   4.626  10.519   4.897  0.3264  0.3203  0.4656
   10CHTO   O25 4127   4.585  10.510   4.764  0.1749 -0.0784  0.3390
   10CHTO   H40 4128   4.552  10.427   4.733 -0.8267 -0.1146  1.4398
   10CHTO   O15 4129   5.084  10.419   4.848 -0.3581  0.3378  0.3383
   10CHTO   C19 4130   5.165  10.497   4.753  0.1355 -0.4837 -0.6129
   10CHTO   H47 4131   5.126  10.470   4.654  1.1441  2.3335 -1.8247
   10CHTO   C20 4132   5.153  10.648   4.762 -0.0322 -0.7508  0.1523
   10CHTO   H48 4133   5.202  10.686   4.853  1.5762 -0.7416 -0.6999
   10CHTO   O19 4134   5.012  10.684   4.773  0.4184 -0.0344  0.2932
   10CHTO   H35 4135   5.000  10.748   4.840  2.6893 -1.8255  2.5388
   10CHTO   C21 4136   5.229  10.708   4.637  0.5001 -0.1820  0.2359
   10CHTO   H49 4137   5.185  10.665   4.547 -0.6477  0.1306  0.6368
   10CHTO    N4 4138   5.209  10.857   4.624  0.1865 -0.5011 -0.8189
   10CHTO   H41 4139   5.211  10.909   4.529  1.3713  0.4219 -0.2905
   10CHTO   H42 4140   5.274  10.912   4.690 -1.4895  1.1383 -0.5016
   10CHTO   C22 4141   5.382  10.659   4.630 -0.3699  0.3087  0.4615
   10CHTO   H50 4142   5.441  10.703   4.711 -0.8889 -1.6811  1.9490
   10CHTO   O14 4143   5.385  10.516   4.642 -0.3845 -0.1825  0.3709
   10CHTO   C23 4144   5.320  10.450   4.748  0.2746 -0.5822  0.0598
   10CHTO   H51 4145   5.370  10.474   4.842 -3.1109  4.0818  0.8790
   10CHTO   C34 4146   5.348  10.300   4.710 -0.2896 -0.1636  0.0658
   10CHTO   O23 4147   5.288  10.211   4.804  0.7401 -0.0754 -0.9315
   10CHTO   H38 4148   5.247  10.146   4.751 -0.9224  0.6153 -0.5415
   10CHTO   O16 4149   5.432  10.694   4.499  0.3995 -0.0356 -0.2725
   10CHTO   C24 4150   5.602  10.666   4.489 -0.2512 -0.3988  0.2792
   10CHTO   H52 4151   5.639  10.614   4.578  1.6601  1.4355  0.6038
   10CHTO   C26 4152   5.672  10.804   4.482 -0.0918 -0.6434 -0.4125
   10CHTO   H54 4153   5.639  10.853   4.388 -3.7040  0.2794  1.2408
   10CHTO   O20 4154   5.628  10.871   4.598  0.4554 -0.4938  0.1875
   10CHTO   H36 4155   5.664  10.839   4.679  0.9556 -0.2784  0.0517
   10CHTO   C30 4156   5.825  10.781   4.473 -0.2695  0.2864 -0.9330
   10CHTO   H58 4157   5.857  10.729   4.565  0.6705  3.0259  0.3257
   10CHTO    N6 4158   5.898  10.910   4.475 -0.3232  0.0836  0.4758
   10CHTO   H45 4159   5.821  10.985   4.467 -1.4356 -1.0040  0.9379
   10CHTO   H46 4160   5.938  10.909   4.576  1.4903 -0.5544 -0.2265
   10CHTO   C33 4161   5.867  10.689   4.354 -0.7372  0.7172  0.6452
   10CHTO   H61 4162   5.855  10.742   4.258  0.9591  1.0639  0.5942
   10CHTO   O18 4163   5.788  10.565   4.355  0.2376 -0.0354 -0.5174
   10CHTO   C28 4164   5.649  10.582   4.363  0.2467  0.9033 -0.3035
   10CHTO   H56 4165   5.614  10.636   4.275 -0.1505  3.4856  1.3769
   10CHTO   C35 4166   5.571  10.447   4.373  0.2304 -0.0805  0.7476
   10CHTO   O24 4167   5.631  10.343   4.292 -0.2860 -0.2363 -0.0367
   10CHTO   H39 4168   5.717  10.331   4.327 -0.6033  1.1440  1.2678
   10CHTO    O9 4169   6.009  10.656   4.359 -0.1377 -0.0530  0.3705
   10CHTO   C13 4170   6.073  10.561   4.228 -0.4429  0.5995 -0.4987
   10CHTO   H26 4171   6.076  10.622   4.135 -0.4965 -0.8554 -1.4544
   10CHTO   C11 4172   5.998  10.418   4.201  0.7458 -0.2582  0.0230
   10CHTO   H24 4173   5.905  10.456   4.156  1.7524  1.4966 -0.6422
   10CHTO    O8 4174   5.971  10.336   4.311  0.1633  0.0379 -0.1495
   10CHTO    H3 4175   5.911  10.266   4.291 -0.1875  0.3011 -0.0252
   10CHTO    C9 4176   6.077  10.342   4.090  0.2986 -1.0913 -0.3828
   10CHTO   H22 4177   6.088  10.416   4.009  0.3285 -0.3528  0.2907
   10CHTO    N2 4178   5.998  10.234   4.024  0.1074  0.3293  0.1909
   10CHTO   H10 4179   5.957  10.268   3.930  4.7223  1.0880 -1.6846
   10CHTO   H11 4180   5.948  10.154   4.076  0.6715  0.1481  0.4570
   10CHTO    C7 4181   6.222  10.304   4.132  0.4176 -0.3374  0.2272
   10CHTO   H20 4182   6.288  10.344   4.052  1.0417 -0.2447  0.7845
   10CHTO    O4 4183   6.255  10.381   4.250 -0.2011  0.1566  0.1037
   10CHTO   C14 4184   6.231  10.522   4.249  0.3197  0.2356 -0.5868
   10CHTO   H27 4185   6.279  10.561   4.156  2.8749  1.9410  1.3806
   10CHTO   C18 4186   6.300  10.595   4.366  0.3203 -0.6231  0.0515
   10CHTO   O13 4187   6.446  10.575   4.369  0.7133  0.4715 -0.2669
   10CHTO    H7 4188   6.461  10.502   4.425 -2.4478  0.7692  1.0817
   10CHTO    O2 4189   6.253  10.130   4.159 -0.9249 -0.8887  0.1301
   10CHTO    C1 4190   6.389  10.099   4.208  0.0646 -0.5907 -0.4503
   10CHTO   H14 4191   6.394  10.158   4.302 -1.0028 -1.1230 -0.0409
   10CHTO    C2 4192   6.516  10.130   4.118 -0.4460 -0.0733 -0.0140
   10CHTO   H15 4193   6.493  10.089   4.018 -1.2566  2.5170 -0.9171
   10CHTO    O6 4194   6.521  10.272   4.110 -0.4250 -0.5077  0.3155
   10CHTO    H1 4195   6.598  10.300   4.157 -1.3216 -0.8797  2.0723
   10CHTO    C3 4196   6.655  10.068   4.171 -0.8620  0.1261  0.1739
   10CHTO   H16 4197   6.681  10.115   4.268  0.4461 -0.0802 -0.0689
   10CHTO    N1 4198   6.770  10.102   4.081  0.0829  0.5078 -0.0738
   10CHTO    H8 4199   6.840  10.167   4.130  2.0915 -1.7063  0.1007
   10CHTO    H9 4200   6.820  10.014   4.042 -1.5008 -1.2267  1.6962
   10CHTO    C4 4201   6.631   9.920   4.206 -0.3198  0.7777  0.3328
   10CHTO   H17 4202   6.602   9.862   4.118 -0.7562  1.1535  0.2265
   10CHTO    O1 4203   6.523   9.909   4.298  0.9547  0.1791  0.1606
   10CHTO    C5 4204   6.391   9.948   4.250  0.0496 -0.1003  0.0388
   10CHTO   H18 4205   6.382   9.891   4.157 -0.2597  2.3553 -1.4750
   10CHTO   C16 4206   6.287   9.892   4.354 -0.0290  0.3954  0.1528
   10CHTO   O11 4207   6.152   9.914   4.315  0.5764  0.1928  0.0559
   10CHTO    H5 4208   6.136   9.854   4.245  4.1043  1.4861 -2.0158
   10CHTO    O3 4209   6.741   9.857   4.277  0.5359 -0.3231  0.3215
   10CHTO    C6 4210   6.784   9.721   4.228  0.6786  0.0965 -0.1125
   10CHTO   H19 4211   6.713   9.668   4.163 -0.9518  1.7540  0.2660
   10CHTO    C8 4212   6.917   9.723   4.148 -0.0316  0.2890 -0.6476
   10CHTO   H21 4213   6.995   9.766   4.211  0.9984 -2.1837 -0.1996
   10CHTO    O7 4214   6.903   9.800   4.025  0.4377  0.0362 -0.3085
   10CHTO    H2 4215   6.984   9.793   3.979 -0.1565 -1.0611 -1.2117
   10CHTO   C12 4216   6.968   9.575   4.116  0.1458  0.7138  0.6050
   10CHTO   H25 4217   6.893   9.539   4.042  2.2217 -1.5976 -0.4567
   10CHTO    N3 4218   7.098   9.577   4.044  0.1320  0.1833 -0.8484
   10CHTO   H12 4219   7.149   9.669   4.068  2.6865 -1.1675 -0.8713
   10CHTO   H13 4220   7.086   9.557   3.939 -1.0174  0.4509 -0.7690
   10CHTO   C15 4221   6.970   9.490   4.241  0.5770  0.6342 -0.6742
   10CHTO   H28 4222   7.049   9.516   4.311 -1.7720  1.7536  1.5996
   10CHTO   O10 4223   6.985   9.331   4.208  0.6315  0.0556 -0.1092
   10CHTO    H4 4224   6.931   9.302   4.137 -1.1814  1.0945  0.8192
   10CHTO    O5 4225   6.843   9.495   4.304  0.5071  0.0885 -0.2171
   10CHTO   C10 4226   6.805   9.624   4.348  0.0201  0.7885 -0.8597
   10CHTO   H23 4227   6.886   9.661   4.411  1.5109 -1.3728 -1.4906
   10CHTO   C17 4228   6.689   9.609   4.445 -0.1143 -0.0841 -0.6330
   10CHTO   O12 4229   6.567   9.569   4.382 -0.0153  0.1140 -0.2137
   10CHTO    H6 4230   6.581   9.480   4.357 -0.7116 -0.3960  1.1926
   11CHTO  H203 4231   4.894   5.235   1.895 -0.5705  1.5086 -0.5169
   11CHTO   O82 4232   4.956   5.225   1.826  0.6936  0.5033  0.7415
   11CHTO  C123 4233   5.033   5.347   1.795  0.0358  0.6055  0.1823
   11CHTO  H227 4234   5.050   5.399   1.891 -0.5335  0.5267  0.3310
   11CHTO   O77 4235   5.160   5.300   1.740  0.0550  0.0038 -0.1033
   11CHTO  C118 4236   5.252   5.412   1.716  0.2431 -0.4826  0.1139
   11CHTO  H222 4237   5.272   5.473   1.805 -0.2685 -1.6966  1.0876
   11CHTO  C125 4238   5.393   5.351   1.668  0.2180  0.2637 -0.5098
   11CHTO   O84 4239   5.467   5.277   1.767 -0.5321 -0.2338 -0.5171
   11CHTO  H205 4240   5.554   5.251   1.746 -0.0808  0.3326  0.6017
   11CHTO  C114 4241   5.187   5.511   1.618  1.4592  0.2171  0.9682
   11CHTO  H218 4242   5.170   5.465   1.520  0.1135  1.4240  0.6122
   11CHTO  C116 4243   5.050   5.571   1.663 -0.5663  0.3414 -0.1219
   11CHTO  H220 4244   5.062   5.635   1.753  0.1844 -0.0583  0.0683
   11CHTO   O79 4245   5.010   5.650   1.550  0.4745  0.0323  0.2312
   11CHTO  H201 4246   4.932   5.697   1.573  1.3656  2.3918 -1.3324
   11CHTO  C120 4247   4.959   5.446   1.697 -0.0733 -0.1644  0.3046
   11CHTO  H224 4248   4.950   5.406   1.593  0.0162  0.2196  0.1476
   11CHTO   N21 4249   4.825   5.491   1.746  0.1545 -0.1385  0.0736
   11CHTO  H211 4250   4.786   5.403   1.794  0.4850  0.3367  1.2325
   11CHTO  H212 4251   4.748   5.531   1.682 -0.9885 -2.0241  0.2373
   11CHTO   O75 4252   5.292   5.610   1.586  0.4230  0.2319  0.9141
   11CHTO  C112 4253   5.316   5.738   1.701 -0.1326 -0.0015  0.0947
   11CHTO  H216 4254   5.323   5.696   1.802  0.2858  0.6589  0.3349
   11CHTO   O73 4255   5.207   5.825   1.685  0.2701  0.4357 -0.5196
   11CHTO  C113 4256   5.199   5.919   1.796  0.0975  0.2395  0.0160
   11CHTO  H217 4257   5.185   5.864   1.891 -1.3977 -0.1244 -0.4140
   11CHTO  C124 4258   5.077   6.011   1.779 -0.5722  0.5592  0.1139
   11CHTO   O83 4259   5.065   6.066   1.651  0.2999 -0.3540  0.4760
   11CHTO  H204 4260   5.135   6.126   1.634 -0.6977 -0.1045 -3.3072
   11CHTO  C109 4261   5.326   6.004   1.795 -0.3698 -0.2046  0.0607
   11CHTO  H213 4262   5.316   6.076   1.712  0.1882 -1.1180 -0.8161
   11CHTO  C110 4263   5.459   5.921   1.788 -0.2333 -0.0550 -1.1891
   11CHTO  H214 4264   5.481   5.874   1.884  1.7445  1.6239 -0.7917
   11CHTO   O78 4265   5.570   6.016   1.794 -0.1687  0.4774 -0.2553
   11CHTO  H200 4266   5.592   6.049   1.709  0.9953 -0.1182 -0.1873
   11CHTO  C111 4267   5.446   5.822   1.673 -0.6279  0.1016 -0.2448
   11CHTO  H215 4268   5.442   5.877   1.578 -0.9561  0.1578 -0.1990
   11CHTO   N19 4269   5.563   5.728   1.663  0.5593  0.4739  0.0102
   11CHTO  H207 4270   5.562   5.680   1.567  3.6226  0.9470 -0.3249
   11CHTO  H208 4271   5.555   5.664   1.750 -1.3214  1.4468  0.5987
   11CHTO   O74 4272   5.326   6.082   1.929  0.2025  0.0384 -0.0237
   11CHTO  C115 4273   5.319   6.231   1.925 -0.8082 -0.3374  0.2539
   11CHTO  H219 4274   5.353   6.270   1.829  0.3350 -0.4813  0.5907
   11CHTO   O76 4275   5.146   6.295   1.942 -0.1141  0.4659 -0.0628
   11CHTO  C122 4276   5.106   6.282   2.082  0.0484 -0.6449  0.4733
   11CHTO  H226 4277   5.119   6.175   2.102 -0.3257 -0.8821 -0.4832
   11CHTO  C126 4278   4.948   6.318   2.103  0.6719  0.2345  0.3314
   11CHTO   O85 4279   4.920   6.362   2.239 -0.3883 -0.2380  0.0217
   11CHTO  H206 4280   4.830   6.381   2.254 -0.1051  1.2240 -0.0047
   11CHTO  C121 4281   5.209   6.367   2.172 -0.5409 -0.0026 -0.3015
   11CHTO  H225 4282   5.157   6.460   2.201 -0.6350  0.1051 -0.8222
   11CHTO   O81 4283   5.229   6.284   2.291  1.0861 -0.4082 -0.2180
   11CHTO  H202 4284   5.259   6.336   2.363  0.3492  1.3108 -1.0996
   11CHTO  C119 4285   5.343   6.408   2.101  0.6494 -0.2189 -0.6512
   11CHTO  H223 4286   5.320   6.467   2.012  1.7307  2.4654  0.7610
   11CHTO  C117 4287   5.410   6.276   2.043  0.6207  0.1076  0.0502
   11CHTO  H221 4288   5.418   6.189   2.109  1.0636  0.5454  0.5878
   11CHTO   N20 4289   5.559   6.305   2.001 -0.2298 -0.3877 -0.3111
   11CHTO  H209 4290   5.554   6.404   1.960  2.5301 -0.4701 -0.9068
   11CHTO  H210 4291   5.625   6.298   2.086 -1.1185  1.0318  0.5209
   11CHTO   O80 4292   5.439   6.519   2.179  0.3121 -0.4578  0.3134
   11CHTO  C103 4293   5.461   6.663   2.119 -0.5034  0.0340 -0.7065
   11CHTO  H190 4294   5.560   6.666   2.074 -0.5170  1.2153 -0.6751
   11CHTO  C101 4295   5.348   6.732   2.030 -0.3528  0.6432  0.1033
   11CHTO  H188 4296   5.247   6.710   2.065 -0.0191  1.1687  1.4195
   11CHTO   O68 4297   5.353   6.663   1.874 -0.6180 -0.3065  0.2034
   11CHTO  H168 4298   5.286   6.598   1.867  0.2230 -1.1079 -0.6359
   11CHTO   C99 4299   5.385   6.886   2.018 -0.5550 -0.1700  0.0378
   11CHTO  H186 4300   5.489   6.905   1.987  1.2285 -1.5779  4.7038
   11CHTO   N17 4301   5.295   6.952   1.925  0.2494  0.1379 -0.1102
   11CHTO  H174 4302   5.322   7.056   1.921  1.3952 -0.0507  1.8094
   11CHTO  H175 4303   5.303   6.904   1.829 -0.0670 -2.2837  1.0122
   11CHTO   C97 4304   5.385   6.956   2.160  0.2712  0.3773 -0.0164
   11CHTO  H184 4305   5.286   6.956   2.207  0.5237 -0.0081  0.5296
   11CHTO   O64 4306   5.482   6.888   2.240 -0.2425 -0.0485  0.0546
   11CHTO  C104 4307   5.461   6.748   2.258  0.3318 -0.7820 -0.1009
   11CHTO  H191 4308   5.366   6.727   2.307 -0.3828  1.9792 -0.2597
   11CHTO  C108 4309   5.569   6.705   2.359 -0.3136 -0.1500  1.0823
   11CHTO   O71 4310   5.516   6.746   2.487 -0.1993  0.0546  0.3748
   11CHTO  H171 4311   5.429   6.712   2.497 -0.7987  2.4166  3.8771
   11CHTO   O62 4312   5.437   7.091   2.154  0.1860 -0.0327  1.1835
   11CHTO   C91 4313   5.387   7.191   2.243  0.1314  0.7893  0.6038
   11CHTO  H178 4314   5.304   7.237   2.190  0.9713  1.6592  0.0103
   11CHTO   C92 4315   5.492   7.309   2.255 -0.2176 -0.1792 -0.0738
   11CHTO  H179 4316   5.519   7.344   2.154  1.6607  1.3903  0.9432
   11CHTO   O66 4317   5.417   7.421   2.315 -0.7560  0.1133  0.2186
   11CHTO  H166 4318   5.471   7.495   2.300 -1.1012 -0.0388 -1.8414
   11CHTO   C93 4319   5.618   7.275   2.337  0.5876 -0.2680 -0.0500
   11CHTO  H180 4320   5.662   7.371   2.367 -1.2761  0.5286  0.1439
   11CHTO   N16 4321   5.725   7.206   2.262 -0.0704 -0.2400  0.0683
   11CHTO  H172 4322   5.765   7.265   2.181 -0.9375  0.0087 -0.1833
   11CHTO  H173 4323   5.718   7.101   2.235  0.9724 -0.1837 -0.4762
   11CHTO   C94 4324   5.586   7.184   2.460 -0.4612 -0.0906  0.1112
   11CHTO  H181 4325   5.613   7.081   2.441 -1.9699 -0.2952 -1.0195
   11CHTO   O61 4326   5.446   7.194   2.488 -0.5566 -0.8332 -0.6367
   11CHTO   C95 4327   5.355   7.137   2.389 -0.4259  0.4366 -0.1950
   11CHTO  H182 4328   5.366   7.028   2.388 -0.2765  0.4326  1.1218
   11CHTO  C106 4329   5.207   7.172   2.421 -0.3136 -0.1071  0.0430
   11CHTO   O69 4330   5.177   7.095   2.538 -0.4052  0.2542  0.3198
   11CHTO  H169 4331   5.219   7.130   2.614 -1.2624  3.2866 -0.5552
   11CHTO   O63 4332   5.664   7.236   2.576 -0.1926 -0.5329 -0.7646
   11CHTO   C96 4333   5.807   7.168   2.615  0.2237  0.3880  0.1218
   11CHTO  H183 4334   5.853   7.126   2.525  0.1277  2.7117 -1.0605
   11CHTO   C98 4335   5.785   7.055   2.722 -0.3275  0.3902  0.1881
   11CHTO  H185 4336   5.721   7.098   2.801  0.8579  2.7266 -0.0839
   11CHTO   O67 4337   5.710   6.955   2.658 -0.1230  0.1946  0.5536
   11CHTO  H167 4338   5.685   6.893   2.723 -0.4134  0.5033  0.7326
   11CHTO  C102 4339   5.929   7.008   2.785  0.3303 -0.0342  0.4127
   11CHTO  H189 4340   5.983   6.971   2.697  0.2952  0.2002  0.2925
   11CHTO   N18 4341   5.917   6.898   2.881 -0.1607  0.4886 -0.3638
   11CHTO  H176 4342   5.838   6.827   2.859  0.3155  0.0530 -0.6872
   11CHTO  H177 4343   6.010   6.865   2.925 -0.5752  0.4515  0.5043
   11CHTO  C105 4344   5.996   7.132   2.838 -0.6679 -0.1570  0.7063
   11CHTO  H192 4345   5.934   7.171   2.919 -0.2954 -1.2989  1.5615
   11CHTO   O65 4346   6.009   7.232   2.733  0.3043 -0.6288  0.7698
   11CHTO  C100 4347   5.889   7.279   2.677  0.3422 -0.6369  0.0637
   11CHTO  H187 4348   5.822   7.311   2.758 -1.3388  0.8496 -1.8536
   11CHTO  C107 4349   5.911   7.404   2.580 -0.4590 -0.2438  0.5086
   11CHTO   O70 4350   5.973   7.510   2.648  0.3550  0.1805  0.4172
   11CHTO  H170 4351   6.061   7.486   2.668  0.6564  1.7808  1.0965
   11CHTO   O57 4352   6.151   7.101   2.897  0.2690  0.2965 -0.2899
   11CHTO   C85 4353   6.205   7.194   2.988 -0.3789  0.2304 -0.0354
   11CHTO  H157 4354   6.118   7.232   3.045  1.0423  2.5823  0.6303
   11CHTO   C83 4355   6.269   7.322   2.917  0.1209 -0.4136 -0.3082
   11CHTO  H155 4356   6.181   7.368   2.873 -0.1541  0.0244  0.6723
   11CHTO   O56 4357   6.361   7.288   2.809 -0.4987  0.3168  0.0679
   11CHTO  H135 4358   6.451   7.297   2.835 -0.5131  0.7626 -0.0388
   11CHTO   C81 4359   6.326   7.417   3.024  0.2127 -0.1777 -1.0205
   11CHTO  H153 4360   6.243   7.435   3.093  0.7183  1.0717 -0.7261
   11CHTO   N14 4361   6.366   7.548   2.966  0.6303 -0.1481 -0.2933
   11CHTO  H141 4362   6.448   7.542   2.897  1.4738 -2.9006  0.8428
   11CHTO  H142 4363   6.281   7.602   2.931 -0.0177  0.5185  2.2439
   11CHTO   C79 4364   6.441   7.345   3.111  0.1607 -0.1742 -0.0303
   11CHTO  H151 4365   6.466   7.408   3.196  1.9069 -1.4827  0.4442
   11CHTO   O52 4366   6.376   7.230   3.174 -0.0538  0.2899  0.3949
   11CHTO   C86 4367   6.319   7.132   3.079  0.2504 -0.6658 -0.1110
   11CHTO  H158 4368   6.403   7.093   3.019 -1.0799 -0.3657 -2.2038
   11CHTO   C90 4369   6.257   7.011   3.157 -1.0901  0.0423 -0.3500
   11CHTO   O60 4370   6.364   6.962   3.240  0.0651 -0.3045 -0.2973
   11CHTO  H138 4371   6.440   6.936   3.192 -0.5207 -1.8559 -0.4155
   11CHTO   O50 4372   6.559   7.303   3.040 -0.2099  0.6597 -0.1529
   11CHTO   C73 4373   6.666   7.243   3.111  0.5463 -0.0217  0.1611
   11CHTO  H145 4374   6.628   7.180   3.193  1.0466  1.3933  1.5071
   11CHTO   C74 4375   6.756   7.351   3.177  0.2324 -0.5194 -0.0702
   11CHTO  H146 4376   6.694   7.410   3.247 -2.3134 -0.8798 -1.9271
   11CHTO   O54 4377   6.855   7.287   3.254 -0.0729  0.6314 -0.0853
   11CHTO  H133 4378   6.911   7.223   3.214 -1.6181 -1.6210  1.2063
   11CHTO   C75 4379   6.817   7.440   3.068 -0.1120  0.2287 -0.1480
   11CHTO  H147 4380   6.735   7.493   3.017  1.0290  1.1663 -1.0627
   11CHTO   N13 4381   6.914   7.545   3.117  0.5451  0.0778 -0.1426
   11CHTO  H139 4382   6.990   7.481   3.161 -1.3813 -0.9474  1.8409
   11CHTO  H140 4383   6.947   7.605   3.034 -0.2275 -0.3539 -0.7735
   11CHTO   C76 4384   6.881   7.353   2.948 -0.0609  0.3837 -0.4057
   11CHTO  H148 4385   6.982   7.317   2.965  0.0256  0.8261  0.0114
   11CHTO   O49 4386   6.799   7.239   2.900 -0.1668  0.0927 -0.1677
   11CHTO   C77 4387   6.758   7.158   3.011  0.2700  0.5386  0.0245
   11CHTO  H149 4388   6.835   7.107   3.068  0.3869  0.5104 -0.1623
   11CHTO   C88 4389   6.680   7.055   2.944  0.3048  0.1442 -0.1260
   11CHTO   O58 4390   6.757   6.943   2.892 -0.3523  0.2807 -0.1161
   11CHTO  H136 4391   6.769   6.877   2.958  3.0463  1.4340  0.5304
   11CHTO   O51 4392   6.871   7.451   2.829 -0.4138  0.3591  0.2740
   11CHTO   C78 4393   6.950   7.402   2.699  0.2341 -0.1204  0.1149
   11CHTO  H150 4394   6.960   7.292   2.685  1.0134 -0.3386  2.2294
   11CHTO   C80 4395   7.088   7.471   2.694 -0.3755  0.2032  0.7433
   11CHTO  H152 4396   7.070   7.580   2.687 -1.1185  0.0219 -0.2367
   11CHTO   O55 4397   7.161   7.444   2.812 -0.1239 -0.1403 -0.0492
   11CHTO  H134 4398   7.105   7.439   2.887  0.7659 -0.4765  0.5924
   11CHTO   C84 4399   7.164   7.430   2.561 -0.1489 -0.1935 -0.0023
   11CHTO  H156 4400   7.171   7.321   2.559 -2.3360 -0.3567 -4.0152
   11CHTO   N15 4401   7.306   7.476   2.547  0.0811  0.1074 -0.0548
   11CHTO  H143 4402   7.318   7.548   2.468 -1.2310 -0.7421 -1.0368
   11CHTO  H144 4403   7.350   7.513   2.637  1.9332  0.2312 -0.9636
   11CHTO   C87 4404   7.075   7.467   2.436 -0.6280  0.3015 -0.6111
   11CHTO  H159 4405   7.076   7.575   2.416  3.8729  0.5305  0.3528
   11CHTO   O53 4406   6.911   7.399   2.454 -0.5069 -0.7868 -0.1471
   11CHTO   C82 4407   6.854   7.442   2.579  0.4731  0.2729  0.5318
   11CHTO  H154 4408   6.846   7.550   2.578  1.2361  0.3377  0.9246
   11CHTO   C89 4409   6.715   7.385   2.581 -0.0557 -0.5428  0.7277
   11CHTO   O59 4410   6.613   7.436   2.662  0.4123  0.2250  0.0781
   11CHTO  H137 4411   6.633   7.511   2.714 -1.0450  0.1151  0.8333
   11CHTO   O45 4412   7.148   7.390   2.292 -0.6078 -0.3686 -0.0167
   11CHTO   C67 4413   7.066   7.353   2.183 -0.9499  0.0792 -0.3161
   11CHTO  H124 4414   6.977   7.305   2.224  0.0690 -2.0183 -0.4988
   11CHTO   C65 4415   7.032   7.485   2.105  0.4430 -0.3484 -0.2315
   11CHTO  H122 4416   7.112   7.557   2.123 -0.1956 -0.0473  1.5954
   11CHTO   O44 4417   6.908   7.519   2.170  0.1737  0.1339 -0.2387
   11CHTO  H102 4418   6.846   7.449   2.165  1.3412 -0.9922  1.0002
   11CHTO   C63 4419   7.045   7.470   1.951  1.0494 -0.2815 -0.1926
   11CHTO  H120 4420   7.147   7.447   1.918  0.0531 -1.9517 -2.2857
   11CHTO   N11 4421   7.016   7.594   1.875 -0.5018 -0.4236 -0.1309
   11CHTO  H108 4422   6.969   7.673   1.930  3.3732  2.7350 -1.0405
   11CHTO  H109 4423   7.097   7.640   1.822 -0.1310 -0.5986  0.2807
   11CHTO   C61 4424   6.972   7.346   1.907 -0.4020 -0.1651  0.3030
   11CHTO  H118 4425   6.992   7.342   1.799  0.4089 -1.7478  0.4890
   11CHTO   O40 4426   7.039   7.227   1.967  0.1171 -0.4451  0.2155
   11CHTO   C68 4427   7.129   7.250   2.077 -0.3776 -0.0365  0.1181
   11CHTO  H125 4428   7.222   7.303   2.049 -1.1316  3.0208  3.0925
   11CHTO   C72 4429   7.170   7.112   2.130  0.0158 -0.0850  0.1899
   11CHTO   O48 4430   7.061   7.024   2.148  0.0966 -0.2462 -0.4389
   11CHTO  H105 4431   7.040   6.972   2.073  2.8682 -0.8882 -0.7993
   11CHTO   O38 4432   6.829   7.347   1.928 -0.3176  0.0438  0.2021
   11CHTO   C55 4433   6.751   7.239   1.863 -0.7006 -0.5417 -0.2978
   11CHTO  H112 4434   6.819   7.156   1.839  0.4757  0.2534  0.2709
   11CHTO   C56 4435   6.691   7.301   1.734 -0.2469 -0.2947 -0.1743
   11CHTO  H113 4436   6.623   7.385   1.756 -4.2745 -3.3981 -0.1235
   11CHTO   O42 4437   6.794   7.348   1.644 -0.1146 -0.3561  0.2016
   11CHTO  H100 4438   6.780   7.440   1.643  0.6499 -0.2270 -1.5563
   11CHTO   C57 4439   6.599   7.191   1.671  0.6664 -0.1713  0.2053
   11CHTO  H114 4440   6.658   7.115   1.621  1.7839  2.4410 -2.5786
   11CHTO   N10 4441   6.527   7.240   1.552 -0.0182  0.5988 -0.0511
   11CHTO  H106 4442   6.498   7.344   1.554  0.7509  0.8108  0.2790
   11CHTO  H107 4443   6.443   7.175   1.533 -0.8243  1.6606 -0.1984
   11CHTO   C58 4444   6.502   7.124   1.779 -0.3404  0.0292  0.7004
   11CHTO  H115 4445   6.411   7.186   1.795 -0.0155  0.8164 -0.4548
   11CHTO   O37 4446   6.562   7.078   1.898  0.1339  0.3368  0.2032
   11CHTO   C59 4447   6.640   7.180   1.964 -0.0066  0.0135 -0.5739
   11CHTO  H116 4448   6.567   7.252   1.999 -0.4827 -1.0053  0.5488
   11CHTO   C70 4449   6.697   7.121   2.093  0.1793 -1.2943 -0.0768
   11CHTO   O46 4450   6.786   7.020   2.066  0.2809 -0.2127  0.1517
   11CHTO  H103 4451   6.875   7.041   2.088  0.3397 -1.9105  1.6131
   11CHTO   O39 4452   6.447   6.986   1.708 -0.5148 -0.2013 -0.0206
   11CHTO   C60 4453   6.303   6.958   1.697 -0.6474 -0.4317 -0.0340
   11CHTO  H117 4454   6.247   7.002   1.780  0.8919 -1.4484  1.5813
   11CHTO   C62 4455   6.248   6.997   1.555 -0.7087  0.9656 -0.2711
   11CHTO  H119 4456   6.245   7.108   1.554  1.4313  1.0462 -0.4450
   11CHTO   O43 4457   6.337   6.959   1.441  0.0437  0.0882 -0.0556
   11CHTO  H101 4458   6.312   6.953   1.351  0.1120  1.3600 -0.1751
   11CHTO   C66 4459   6.103   6.944   1.546  0.0357 -0.4337  0.3909
   11CHTO  H123 4460   6.042   6.972   1.632  0.2787 -1.2411  0.8337
   11CHTO   N12 4461   6.025   6.999   1.429  0.2425 -0.3437  0.3956
   11CHTO  H110 4462   5.943   7.060   1.463 -0.4675  1.0454 -3.5461
   11CHTO  H111 4463   5.989   6.913   1.374 -0.4369 -0.0780  0.4270
   11CHTO   C69 4464   6.102   6.790   1.557  0.6312  0.4739  0.3402
   11CHTO  H126 4465   6.156   6.744   1.472  1.0257  1.5140  0.0245
   11CHTO   O41 4466   6.161   6.758   1.694 -0.0799  0.2976 -0.4149
   11CHTO   C64 4467   6.288   6.803   1.713  0.1588  0.6987  0.3065
   11CHTO  H121 4468   6.349   6.755   1.633  1.4708  1.6397  0.7265
   11CHTO   C71 4469   6.339   6.755   1.853 -0.3052 -0.9326  0.7864
   11CHTO   O47 4470   6.242   6.791   1.948  0.3214 -0.6216 -0.1005
   11CHTO  H104 4471   6.274   6.822   2.031  0.6304 -0.6967 -0.1920
   11CHTO   O34 4472   5.965   6.735   1.552  0.6085 -0.5108 -0.0396
   11CHTO   C49 4473   5.827   6.690   1.615  0.9297  0.3067 -0.5352
   11CHTO   H91 4474   5.855   6.648   1.711  1.6815 -2.0602 -1.7612
   11CHTO   C47 4475   5.773   6.574   1.522  0.4494  0.1855 -0.0531
   11CHTO   H89 4476   5.694   6.530   1.586  0.1248  0.0496 -0.5404
   11CHTO   O33 4477   5.874   6.476   1.511 -0.2309  0.1201 -0.0078
   11CHTO   H70 4478   5.904   6.433   1.589  2.9901 -2.0521 -2.3061
   11CHTO   C45 4479   5.728   6.640   1.384  0.4698  0.0469 -0.3103
   11CHTO   H87 4480   5.818   6.696   1.354  0.4692  0.7095  0.8799
   11CHTO    N8 4481   5.682   6.542   1.277  0.4994  0.6622 -0.0483
   11CHTO   H75 4482   5.764   6.513   1.212 -0.7023 -3.3905  0.1061
   11CHTO   H76 4483   5.637   6.455   1.321 -2.3374  2.5031  0.8057
   11CHTO   C43 4484   5.615   6.744   1.412  0.0671 -0.0477 -0.1909
   11CHTO   H85 4485   5.586   6.782   1.314 -1.2633 -1.1605 -0.2393
   11CHTO   O29 4486   5.668   6.846   1.497  0.6406 -0.0589 -0.1440
   11CHTO   C50 4487   5.728   6.813   1.623  0.4797  0.1022  0.5369
   11CHTO   H92 4488   5.788   6.897   1.662 -0.3690  0.2010  1.6421
   11CHTO   C54 4489   5.615   6.805   1.734 -0.3789 -0.3097  0.1752
   11CHTO   O36 4490   5.676   6.785   1.864  0.2600  0.0096  0.0522
   11CHTO   H72 4491   5.701   6.695   1.877  0.7192  0.2389  0.7619
   11CHTO   O27 4492   5.497   6.675   1.470 -0.3929  0.3357 -0.3843
   11CHTO   C37 4493   5.362   6.711   1.518 -0.2441 -1.2183  0.4021
   11CHTO   H79 4494   5.357   6.762   1.616  1.2925 -0.5992  0.1673
   11CHTO   C38 4495   5.301   6.814   1.411  0.2171  1.3009  0.3191
   11CHTO   H80 4496   5.300   6.762   1.314 -0.2410  2.8742 -0.5374
   11CHTO   O31 4497   5.381   6.939   1.405  0.0316  0.2390 -0.6147
   11CHTO   H68 4498   5.399   6.964   1.493 -3.0716  0.7842 -0.0802
   11CHTO   C39 4499   5.156   6.855   1.451  0.1827 -0.3921  0.0294
   11CHTO   H81 4500   5.158   6.919   1.539 -0.4112 -1.4015  0.7786
   11CHTO    N7 4501   5.092   6.936   1.346  0.5533  0.7708 -0.5346
   11CHTO   H73 4502   5.115   6.894   1.249 -0.9986 -3.1035  0.7040
   11CHTO   H74 4503   4.986   6.917   1.349  0.9759 -1.5072  1.0343
   11CHTO   C40 4504   5.067   6.721   1.478  0.2063  0.3315  0.5954
   11CHTO   H82 4505   5.050   6.667   1.384  0.3757 -1.9430  1.8271
   11CHTO   O26 4506   5.136   6.642   1.572 -0.1851  0.4081 -0.5355
   11CHTO   C41 4507   5.269   6.599   1.522  0.7392 -0.2563 -0.1716
   11CHTO   H83 4508   5.252   6.559   1.421 -0.9879  0.7301 -0.2988
   11CHTO   C52 4509   5.324   6.486   1.614 -0.3887  0.1808  0.1073
   11CHTO   O35 4510   5.253   6.385   1.607  0.4840 -0.3816 -0.0093
   11CHTO   H71 4511   5.284   6.318   1.549  0.3182  0.1580 -0.7192
   11CHTO   O28 4512   4.940   6.739   1.545  0.2301  0.7069  0.0953
   11CHTO   C42 4513   4.839   6.634   1.541 -0.6172 -0.4551  0.7552
   11CHTO   H84 4514   4.888   6.552   1.488  1.1926 -1.1237  3.3625
   11CHTO   C44 4515   4.712   6.664   1.453 -0.9097  0.5964  0.2167
   11CHTO   H86 4516   4.650   6.737   1.506 -0.4794  1.4133 -0.3952
   11CHTO   O32 4517   4.747   6.713   1.326  0.1120  0.2724 -0.5114
   11CHTO   H69 4518   4.666   6.754   1.304 -0.2624  0.4673  1.1252
   11CHTO   C48 4519   4.621   6.537   1.440  0.1611 -0.2613 -0.1166
   11CHTO   H90 4520   4.653   6.459   1.371 -3.2473 -1.7750 -0.0809
   11CHTO    N9 4521   4.489   6.574   1.370 -0.1225 -0.1060 -0.2073
   11CHTO   H77 4522   4.450   6.664   1.415  3.3042  1.2369  0.2403
   11CHTO   H78 4523   4.527   6.597   1.272  0.8410  1.6089  0.5433
   11CHTO   C51 4524   4.601   6.456   1.570 -0.4319 -0.5880  0.6760
   11CHTO   H93 4525   4.527   6.509   1.628 -2.5882 -1.1712 -1.4544
   11CHTO   O30 4526   4.728   6.442   1.636 -0.6478  0.0492  0.0924
   11CHTO   C46 4527   4.787   6.578   1.678 -0.3070  0.0008 -0.6027
   11CHTO   H88 4528   4.710   6.645   1.715 -0.6940 -0.0760 -1.2546
   11CHTO   C53 4529   4.884   6.546   1.791  0.4182 -0.2905 -0.3142
   11CHTO   O72 4530   4.967   6.448   1.742  0.2286  0.3382 -0.5771
   11CHTO  H199 4531   5.025   6.413   1.807 -0.7024 -1.3786 -0.6255
   11CHTO   O22 4532   4.567   6.317   1.549  0.2611 -0.2035 -0.1828
   11CHTO   C31 4533   4.523   6.238   1.665  0.2605  0.1718  0.9179
   11CHTO   H59 4534   4.561   6.289   1.757 -0.3799  1.4251  0.4891
   11CHTO   C29 4535   4.368   6.249   1.672  0.2452  0.7953  0.0862
   11CHTO   H57 4536   4.309   6.223   1.583 -2.0007  0.6672  1.5681
   11CHTO   O21 4537   4.334   6.386   1.695 -0.0835 -0.3525 -0.3456
   11CHTO   H37 4538   4.341   6.402   1.788 -2.2717  1.5632 -0.4618
   11CHTO   C27 4539   4.315   6.151   1.783  0.3015  0.1464 -0.0729
   11CHTO   H55 4540   4.359   6.185   1.878  0.0252  1.7009 -0.4896
   11CHTO    N5 4541   4.171   6.152   1.799 -0.0356  0.7794  0.6794
   11CHTO   H43 4542   4.121   6.242   1.833 -1.3456  0.2185  0.3065
   11CHTO   H44 4543   4.116   6.125   1.709 -1.6589 -0.2455  1.9446
   11CHTO   C25 4544   4.369   6.008   1.769  0.4858  0.4849 -0.1528
   11CHTO   H53 4545   4.340   5.970   1.670  2.6252  0.6898 -0.8802
   11CHTO   O17 4546   4.514   6.021   1.781 -0.3408  0.4008  0.9092
   11CHTO   C32 4547   4.574   6.094   1.670  0.3682  0.3702 -0.3124
   11CHTO   H60 4548   4.546   6.045   1.577  1.0041  1.9379 -1.3338
   11CHTO   C36 4549   4.727   6.081   1.677  0.6598  0.1037  0.0709
   11CHTO   O25 4550   4.793   6.149   1.570 -0.1142 -0.7121  0.1558
   11CHTO   H40 4551   4.846   6.221   1.598  0.4220 -0.6521 -0.9803
   11CHTO   O15 4552   4.308   5.914   1.889  0.2491  0.2778  0.2154
   11CHTO   C19 4553   4.288   5.772   1.910  0.0808 -0.2853  0.6986
   11CHTO   H47 4554   4.258   5.731   1.812  0.3256 -2.0937  1.3572
   11CHTO   C20 4555   4.425   5.699   1.949 -0.0295  0.2247 -0.5472
   11CHTO   H48 4556   4.464   5.741   2.043  1.6407 -2.4104 -0.0034
   11CHTO   O19 4557   4.515   5.726   1.842 -0.3287 -0.5667 -0.0246
   11CHTO   H35 4558   4.507   5.809   1.798 -2.0172 -0.1666  1.0101
   11CHTO   C21 4559   4.409   5.540   1.963 -0.9138  0.5082  0.1791
   11CHTO   H49 4560   4.379   5.498   1.867 -3.5039 -0.7656  1.4739
   11CHTO    N4 4561   4.527   5.469   2.008 -0.1084 -0.0165  0.0249
   11CHTO   H41 4562   4.589   5.455   1.921 -2.7925  1.5441 -2.2277
   11CHTO   H42 4563   4.487   5.372   2.034  0.7554 -0.3968 -0.0683
   11CHTO   C22 4564   4.280   5.505   2.052 -0.3170  0.6461  0.4922
   11CHTO   H50 4565   4.315   5.536   2.150 -0.1674  0.0583  0.6267
   11CHTO   O14 4566   4.168   5.585   2.002  0.4375  0.0378 -0.0967
   11CHTO   C23 4567   4.175   5.730   2.006 -0.2438 -0.1021  0.1647
   11CHTO   H51 4568   4.197   5.766   2.108  0.8881 -2.4137  0.7569
   11CHTO   C34 4569   4.042   5.787   1.958 -0.2376 -0.1470 -0.1535
   11CHTO   O23 4570   3.985   5.745   1.834 -0.2696  0.0430  0.3104
   11CHTO   H38 4571   3.969   5.820   1.780 -1.2423  1.1456  2.1162
   11CHTO   O16 4572   4.247   5.359   2.064 -0.2596  0.0808 -0.2783
   11CHTO   C24 4573   4.143   5.280   1.956  0.5452 -0.0754 -0.2040
   11CHTO   H52 4574   4.118   5.338   1.867 -0.6764 -1.0298 -0.5101
   11CHTO   C26 4575   4.017   5.238   2.036  0.2580 -0.0724  0.5502
   11CHTO   H54 4576   4.038   5.179   2.128 -2.1900  1.1273  1.9184
   11CHTO   O20 4577   3.933   5.351   2.075 -0.6024 -0.2507  0.0089
   11CHTO   H36 4578   3.958   5.388   2.158  0.1007  1.0406 -0.7653
   11CHTO   C30 4579   3.936   5.135   1.947 -1.0488  0.4176  0.2660
   11CHTO   H58 4580   3.877   5.186   1.869 -1.6208  0.4424  0.7113
   11CHTO    N6 4581   3.828   5.074   2.030  0.1913 -1.1842 -0.3276
   11CHTO   H45 4582   3.875   5.018   2.110  0.4136 -1.1578 -0.4381
   11CHTO   H46 4583   3.754   5.017   1.976  1.0885 -3.9639  1.2672
   11CHTO   C33 4584   4.025   5.027   1.885 -0.8491  0.4282 -0.3605
   11CHTO   H61 4585   4.078   4.969   1.962  3.2112  2.4785 -1.4461
   11CHTO   O18 4586   4.131   5.090   1.814  0.0120 -0.2375 -0.2051
   11CHTO   C28 4587   4.222   5.158   1.906  0.2805  0.2068 -0.7759
   11CHTO   H56 4588   4.256   5.099   1.992 -0.3186  0.1847 -0.5523
   11CHTO   C35 4589   4.348   5.188   1.815  0.3077 -0.0227  0.3811
   11CHTO   O24 4590   4.332   5.244   1.685 -0.2264  0.0180  0.3707
   11CHTO   H39 4591   4.416   5.270   1.654  0.8440 -0.2633  2.9020
   11CHTO    O9 4592   3.960   4.930   1.801 -0.1009 -0.6234 -0.3649
   11CHTO   C13 4593   3.837   5.003   1.674 -0.2359 -0.2734 -0.2945
   11CHTO   H26 4594   3.803   5.104   1.706  0.4763  0.5541 -2.0849
   11CHTO   C11 4595   3.715   4.906   1.653 -0.7082  0.0295  0.2460
   11CHTO   H24 4596   3.674   4.886   1.753 -1.7726  0.4975 -0.0921
   11CHTO    O8 4597   3.759   4.783   1.614  0.1946  0.0251 -0.1720
   11CHTO    H3 4598   3.807   4.739   1.682  0.1114 -0.9081 -0.7123
   11CHTO    C9 4599   3.617   4.976   1.542  0.5823 -0.1787 -0.5636
   11CHTO   H22 4600   3.556   5.050   1.595  3.5082  2.9353 -1.3168
   11CHTO    N2 4601   3.529   4.881   1.472  0.1955 -0.1653  0.0560
   11CHTO   H10 4602   3.478   4.820   1.545 -0.4998  1.3004  0.8032
   11CHTO   H11 4603   3.590   4.812   1.415  1.0903  1.6885 -1.3108
   11CHTO    C7 4604   3.703   5.066   1.449  0.0262 -0.7045  0.3403
   11CHTO   H20 4605   3.719   5.159   1.507 -0.0737 -0.2424 -0.3699
   11CHTO    O4 4606   3.830   5.006   1.422 -0.1561  0.4960  0.1187
   11CHTO   C14 4607   3.912   5.018   1.538  0.0210 -0.0357 -0.4543
   11CHTO   H27 4608   3.956   5.120   1.546  1.2439 -0.5513 -0.5006
   11CHTO   C18 4609   4.034   4.919   1.525  0.2326 -0.3538 -0.4487
   11CHTO   O13 4610   4.102   4.935   1.398  0.1922  0.0151  0.7044
   11CHTO    H7 4611   4.071   4.872   1.336  2.2247  0.3685 -0.7271
   11CHTO    O2 4612   3.638   5.113   1.309 -0.6384 -0.0578 -0.6688
   11CHTO    C1 4613   3.566   5.239   1.306  0.3245  0.2042  0.0180
   11CHTO   H14 4614   3.636   5.323   1.324  0.0372  0.0820  1.7223
   11CHTO    C2 4615   3.434   5.256   1.402  0.5818 -0.3880 -0.4703
   11CHTO   H15 4616   3.381   5.161   1.384 -0.3514  0.3706 -1.8546
   11CHTO    O6 4617   3.477   5.269   1.537 -0.1299  0.6537 -0.0183
   11CHTO    H1 4618   3.503   5.357   1.555 -1.6114  0.8973  1.0785
   11CHTO    C3 4619   3.340   5.386   1.361 -0.4561  0.4449  0.4254
   11CHTO   H16 4620   3.390   5.482   1.380  1.3391  0.1978 -2.7804
   11CHTO    N1 4621   3.207   5.391   1.439 -0.1364 -0.4177  0.2257
   11CHTO    H8 4622   3.125   5.389   1.369 -0.0761 -1.7979  0.1870
   11CHTO    H9 4623   3.210   5.479   1.501 -2.0592 -0.7862  0.9027
   11CHTO    C4 4624   3.319   5.378   1.208  1.0039  0.2682  0.3347
   11CHTO   H17 4625   3.255   5.296   1.177  1.1372  0.6175 -0.9263
   11CHTO    O1 4626   3.440   5.375   1.136  0.7480  0.0531 -0.1830
   11CHTO    C5 4627   3.537   5.271   1.158 -0.7143  0.2600 -0.2403
   11CHTO   H18 4628   3.497   5.182   1.109  0.6315 -1.7161  2.1306
   11CHTO   C16 4629   3.654   5.310   1.078 -0.4507 -0.6757  0.2079
   11CHTO   O11 4630   3.718   5.426   1.128  0.0774  0.2269 -0.3023
   11CHTO    H5 4631   3.764   5.475   1.062 -1.2823  0.6308 -0.9689
   11CHTO    O3 4632   3.251   5.502   1.161 -0.5133 -0.2321  0.3488
   11CHTO    C6 4633   3.170   5.487   1.040  0.2154  0.2103 -0.4043
   11CHTO   H19 4634   3.161   5.386   1.001 -5.1357 -0.0430  0.9990
   11CHTO    C8 4635   3.020   5.532   1.064  0.7554 -0.3826  0.4917
   11CHTO   H21 4636   3.012   5.637   1.092  0.8670  0.4504 -2.4144
   11CHTO    O7 4637   2.976   5.451   1.167 -0.5182 -0.3104 -0.1322
   11CHTO    H2 4638   2.883   5.461   1.176 -0.6718 -0.9293 -0.9257
   11CHTO   C12 4639   2.939   5.525   0.931 -0.1108  0.0320  0.5958
   11CHTO   H25 4640   2.948   5.421   0.893 -0.9411 -0.4418  1.6732
   11CHTO    N3 4641   2.800   5.563   0.966 -0.1604 -0.0198 -0.5821
   11CHTO   H12 4642   2.763   5.494   1.041 -1.8197  3.1775  1.6510
   11CHTO   H13 4643   2.735   5.571   0.881 -0.8727  0.0546 -0.0317
   11CHTO   C15 4644   3.012   5.622   0.837  0.0551 -0.4937  0.3609
   11CHTO   H28 4645   3.019   5.721   0.884 -0.0870 -0.3769  0.1370
   11CHTO   O10 4646   2.950   5.633   0.700 -0.0199 -0.1582 -0.3988
   11CHTO    H4 4647   2.907   5.717   0.699 -0.2030 -0.2460  0.0087
   11CHTO    O5 4648   3.139   5.563   0.812 -1.0301 -0.1846 -0.6763
   11CHTO   C10 4649   3.228   5.574   0.921 -0.1357 -0.0202 -0.5602
   11CHTO   H23 4650   3.237   5.674   0.962 -1.6462 -0.6505  1.4049
   11CHTO   C17 4651   3.362   5.548   0.862  0.3306 -0.0649  0.3007
   11CHTO   O12 4652   3.361   5.429   0.790  0.1159  0.4799  0.3395
   11CHTO    H6 4653   3.282   5.419   0.740 -1.1096  2.3219  1.8392
   12CHTO  H203 4654   5.327   1.759   0.044 -1.1958  0.0895 -2.3681
   12CHTO   O82 4655   5.242   1.749   0.083 -0.0924 -0.5228 -0.0256
   12CHTO  C123 4656   5.254   1.674   0.198  0.1127  0.5150 -0.4089
   12CHTO  H227 4657   5.296   1.735   0.280 -0.0477  0.8070 -0.5417
   12CHTO   O77 4658   5.118   1.646   0.232 -0.2111 -0.0092 -0.4184
   12CHTO  C118 4659   5.101   1.565   0.347 -0.5605 -0.5766  0.0878
   12CHTO  H222 4660   5.150   1.612   0.433 -1.8921 -1.2149  1.2028
   12CHTO  C125 4661   4.949   1.544   0.369  0.3808 -0.5365 -0.2833
   12CHTO   O84 4662   4.879   1.666   0.394  0.1818  0.1542  0.0736
   12CHTO  H205 4663   4.787   1.655   0.381  0.2507 -0.7503  0.3339
   12CHTO  C114 4664   5.162   1.425   0.321 -0.3760 -0.3011 -0.0221
   12CHTO  H218 4665   5.105   1.377   0.241  1.3011  0.0149 -1.4525
   12CHTO  C116 4666   5.313   1.434   0.283 -0.1532 -0.7851  0.2211
   12CHTO  H220 4667   5.378   1.458   0.370  0.2593 -1.1879  0.0244
   12CHTO   O79 4668   5.352   1.301   0.246  0.9086  0.0893 -0.1648
   12CHTO  H201 4669   5.339   1.244   0.319 -1.0587  1.3701  0.5196
   12CHTO  C120 4670   5.341   1.545   0.170 -0.0477  0.3974 -0.5740
   12CHTO  H224 4671   5.317   1.494   0.075  0.8929 -1.7332  0.3029
   12CHTO   N21 4672   5.483   1.582   0.164  0.0093  0.0988 -0.1406
   12CHTO  H211 4673   5.532   1.511   0.099  0.3591 -1.0014  1.2819
   12CHTO  H212 4674   5.524   1.588   0.264 -0.8352 -0.1749  0.2235
   12CHTO   O75 4675   5.135   1.350   0.440  0.1827 -0.2295  0.1059
   12CHTO  C112 4676   5.107   1.188   0.432 -0.1861 -0.1926 -0.6518
   12CHTO  H216 4677   5.170   1.128   0.500 -1.9039 -0.7677  0.4748
   12CHTO   O73 4678   5.114   1.143   0.298 -0.5821 -0.1025  0.7921
   12CHTO  C113 4679   5.115   1.002   0.289 -0.8851  0.4568  0.5279
   12CHTO  H217 4680   5.200   0.966   0.351 -0.0795  1.6307  0.1163
   12CHTO  C124 4681   5.143   0.958   0.146  0.2834  0.3389  0.1793
   12CHTO   O83 4682   5.288   0.949   0.115 -0.0146  0.2551  0.3560
   12CHTO  H204 4683   5.322   0.866   0.144 -0.2724 -0.8792 -2.3930
   12CHTO  C109 4684   4.986   0.939   0.345 -0.6169  0.0075  0.1115
   12CHTO  H213 4685   4.909   0.957   0.269  0.3157  0.9086 -0.6326
   12CHTO  C110 4686   4.943   0.993   0.492 -0.8715  0.0749 -0.2454
   12CHTO  H214 4687   5.005   0.946   0.569  1.6641  1.6060 -1.2832
   12CHTO   O78 4688   4.812   0.950   0.525 -0.3726 -0.4965 -0.0262
   12CHTO  H200 4689   4.814   0.857   0.536  1.4101 -0.4388  0.1981
   12CHTO  C111 4690   4.963   1.151   0.493  0.2569 -0.1753 -0.2363
   12CHTO  H215 4691   4.883   1.197   0.433  1.1392  0.9189 -0.5960
   12CHTO   N19 4692   4.944   1.203   0.635 -0.4449 -0.0845 -0.1082
   12CHTO  H207 4693   4.845   1.172   0.665 -0.8405  2.2136  1.0761
   12CHTO  H208 4694   4.953   1.310   0.634 -0.6017 -0.0747 -0.8903
   12CHTO   O74 4695   5.011   0.795   0.350 -0.1051  0.2063  0.1096
   12CHTO  C115 4696   4.897   0.708   0.300  0.3296 -0.6684 -0.2917
   12CHTO  H219 4697   4.807   0.723   0.361 -0.5169  0.8564 -1.8796
   12CHTO   O76 4698   4.854   0.739   0.142 -0.2782 -0.3397 -0.2041
   12CHTO  C122 4699   4.765   0.644   0.076  0.1128  0.5490 -0.1197
   12CHTO  H226 4700   4.768   0.656  -0.032  0.4828  0.9480 -0.0663
   12CHTO  C126 4701   4.617   0.683   0.113 -0.3779  0.1376  0.3980
   12CHTO   O85 4702   4.572   0.811   0.059 -0.2525 -0.1760 -0.4617
   12CHTO  H206 4703   4.625   0.873   0.105 -1.1155  0.2183  0.0167
   12CHTO  C121 4704   4.796   0.491   0.099  0.3076  0.3301  0.0970
   12CHTO  H225 4705   4.722   0.426   0.048 -0.8259  0.5252  1.4568
   12CHTO   O81 4706   4.923   0.461   0.048  0.0401  0.2773 -0.6835
   12CHTO  H202 4707   4.925   0.436  -0.043  0.5225  0.8282 -0.8272
   12CHTO  C119 4708   4.805   0.470   0.256  0.0050  0.6093  1.1071
   12CHTO  H223 4709   4.719   0.511   0.308 -1.9799  0.5537 -1.9954
   12CHTO  C117 4710   4.924   0.555   0.316  0.2346 -0.5599 -0.0952
   12CHTO  H221 4711   5.024   0.548   0.274  0.2356 -1.1039 -0.0102
   12CHTO   N20 4712   4.942   0.528   0.464 -0.3812 -0.3808  0.3366
   12CHTO  H209 4713   4.939   0.616   0.527  1.5701  0.4511 -0.6819
   12CHTO  H210 4714   4.883   0.447   0.505  0.5701 -1.0222  0.4561
   12CHTO   O80 4715   4.804   0.304   0.300 -0.1549  0.4116 -0.3100
   12CHTO  C103 4716   4.670   0.237   0.347  0.3458  0.0774 -0.3583
   12CHTO  H190 4717   4.599   0.310   0.385 -0.1477 -1.0362  0.9004
   12CHTO  C101 4718   4.595   0.161   0.233  0.0521  0.2434  0.2184
   12CHTO  H188 4719   4.669   0.090   0.198 -0.6712 -1.1552  1.4564
   12CHTO   O68 4720   4.557   0.258   0.135 -0.3152 -0.6161 -0.2793
   12CHTO  H168 4721   4.628   0.312   0.106  0.0832 -0.9949 -0.0095
   12CHTO   C99 4722   4.466   0.085   0.290 -0.0916 -0.3055 -0.5381
   12CHTO  H186 4723   4.390   0.143   0.346  1.6556  1.2527  0.2652
   12CHTO   N17 4724   4.387   0.004   0.185 -0.4141  0.1730  0.4999
   12CHTO  H174 4725   4.343   0.067   0.109 -1.5840 -0.7418  0.4217
   12CHTO  H175 4726   4.312  -0.059   0.230 -0.1881  0.3449  1.1218
   12CHTO   C97 4727   4.524  -0.012   0.401 -0.3500  0.0128  0.3900
   12CHTO  H184 4728   4.596  -0.079   0.353  0.1026  0.7043  0.0884
   12CHTO   O64 4729   4.592   0.070   0.500 -0.0350 -0.0108  0.4667
   12CHTO  C104 4730   4.707   0.141   0.463 -0.0795 -0.8170  0.2565
   12CHTO  H191 4731   4.789   0.075   0.435  0.3468  0.3177 -1.2567
   12CHTO  C108 4732   4.757   0.217   0.589 -0.3260  0.7360 -0.3577
   12CHTO   O71 4733   4.822   0.121   0.682 -0.6700 -0.0156 -0.5385
   12CHTO  H171 4734   4.755   0.094   0.742 -1.3364  3.0930  0.2046
   12CHTO   O62 4735   4.432  -0.081   0.485  0.5294 -0.3750  0.1623
   12CHTO   C91 4736   4.454  -0.222   0.499 -0.5123 -0.4095  0.9535
   12CHTO  H178 4737   4.506  -0.260   0.411 -1.9262 -0.9785  0.3495
   12CHTO   C92 4738   4.314  -0.300   0.507  0.3780  0.5846 -0.1413
   12CHTO  H179 4739   4.246  -0.276   0.424 -0.9552  1.2953  1.1273
   12CHTO   O66 4740   4.340  -0.435   0.484  0.1735 -0.4526 -0.0592
   12CHTO  H166 4741   4.406  -0.464   0.545  0.6592  0.6657 -0.0495
   12CHTO   C93 4742   4.251  -0.281   0.652  0.3468 -0.0803  0.4158
   12CHTO  H180 4743   4.179  -0.362   0.674  1.7086 -0.9948  1.6456
   12CHTO   N16 4744   4.169  -0.162   0.669  0.0606 -0.0899  0.1321
   12CHTO  H172 4745   4.227  -0.071   0.679  1.0435 -0.6917 -0.0401
   12CHTO  H173 4746   4.110  -0.175   0.759  0.9527 -1.9249  0.4752
   12CHTO   C94 4747   4.359  -0.291   0.765  0.1430  0.2833 -0.1195
   12CHTO  H181 4748   4.363  -0.198   0.822  0.3814  0.9081 -1.1413
   12CHTO   O61 4749   4.490  -0.334   0.719  0.0388  0.6287  0.2124
   12CHTO   C95 4750   4.555  -0.254   0.617 -0.0976  0.2292  0.8293
   12CHTO  H182 4751   4.578  -0.155   0.659  3.2473 -0.3223  0.4131
   12CHTO  C106 4752   4.691  -0.310   0.562 -0.7000  0.0517 -0.1969
   12CHTO   O69 4753   4.672  -0.454   0.536 -0.2340 -0.6245 -0.6905
   12CHTO  H169 4754   4.758  -0.491   0.532  1.5177  2.8430  2.1019
   12CHTO   O63 4755   4.316  -0.394   0.877  0.5307 -0.0424 -0.1524
   12CHTO   C96 4756   4.369  -0.335   1.016  0.2997  0.4482 -0.5618
   12CHTO  H183 4757   4.339  -0.230   1.021 -3.4716 -0.6037  0.8658
   12CHTO   C98 4758   4.528  -0.344   1.042  0.3268 -0.5418  0.0354
   12CHTO  H185 4759   4.584  -0.295   0.961  1.4294 -2.0499 -0.1225
   12CHTO   O67 4760   4.564  -0.271   1.158 -0.4492 -0.4134 -0.3425
   12CHTO  H167 4761   4.525  -0.186   1.153  2.8489  1.0835 -1.4748
   12CHTO  C102 4762   4.574  -0.493   1.060 -0.4704  0.5244 -0.4502
   12CHTO  H189 4763   4.671  -0.492   1.113 -0.7629  1.4842  0.0661
   12CHTO   N18 4764   4.593  -0.566   0.936  0.1215  0.1259 -0.2684
   12CHTO  H176 4765   4.498  -0.560   0.885 -0.3052  1.4713  0.6693
   12CHTO  H177 4766   4.626  -0.667   0.958  1.2952 -0.2359 -3.4277
   12CHTO  C105 4767   4.471  -0.570   1.155 -0.8994 -0.0574 -0.2303
   12CHTO  H192 4768   4.423  -0.653   1.103  2.0495 -2.9763  1.5211
   12CHTO   O65 4769   4.378  -0.491   1.228 -0.4209 -0.2187  0.1123
   12CHTO  C100 4770   4.293  -0.418   1.136  0.1034  0.2870  0.0576
   12CHTO  H187 4771   4.221  -0.486   1.089 -0.4468  0.4010  0.7366
   12CHTO  C107 4772   4.204  -0.331   1.229 -0.3535  0.1039 -0.1921
   12CHTO   O70 4773   4.097  -0.268   1.160  0.4823 -0.5253  0.6833
   12CHTO  H170 4774   4.070  -0.311   1.080  1.0702 -0.1147  0.2596
   12CHTO   O57 4775   4.571  -0.637   1.269 -0.6354 -0.0812 -0.0506
   12CHTO   C85 4776   4.608  -0.586   1.403  0.7720  0.7764  0.5605
   12CHTO  H157 4777   4.522  -0.537   1.454 -0.7449  0.7975 -1.9269
   12CHTO   C83 4778   4.709  -0.474   1.396 -0.4382 -0.0972 -0.4413
   12CHTO  H155 4779   4.665  -0.394   1.336  1.6619  0.6915 -0.9859
   12CHTO   O56 4780   4.828  -0.521   1.329 -0.4190 -0.7120 -0.3563
   12CHTO  H135 4781   4.825  -0.527   1.236  0.1418 -0.2232 -0.4039
   12CHTO   C81 4782   4.730  -0.416   1.541 -0.5050  0.1492 -0.7277
   12CHTO  H153 4783   4.631  -0.398   1.583  0.2101  2.1376  0.1706
   12CHTO   N14 4784   4.808  -0.289   1.555  0.3032  0.0764  0.5935
   12CHTO  H141 4785   4.756  -0.214   1.499 -0.4119 -1.3290 -0.6412
   12CHTO  H142 4786   4.813  -0.254   1.656 -0.7830  1.3206  0.2409
   12CHTO   C79 4787   4.800  -0.525   1.628  0.2110  0.0500 -0.0608
   12CHTO  H151 4788   4.793  -0.497   1.733 -1.0566  1.0628 -0.4137
   12CHTO   O52 4789   4.729  -0.651   1.622  0.5180 -0.2388  0.2089
   12CHTO   C86 4790   4.674  -0.695   1.493 -0.1660 -0.3637 -0.1631
   12CHTO  H158 4791   4.765  -0.737   1.445 -0.5995 -2.8008  1.0491
   12CHTO   C90 4792   4.585  -0.816   1.513  0.1196  0.2789 -0.0569
   12CHTO   O60 4793   4.476  -0.780   1.593  0.7618  0.0784 -0.3649
   12CHTO  H138 4794   4.419  -0.855   1.601  1.3056 -0.0395  3.3095
   12CHTO   O50 4795   4.939  -0.562   1.610 -0.3351  0.1024 -0.0208
   12CHTO   C73 4796   5.043  -0.599   1.705 -0.2272 -0.2413 -0.1976
   12CHTO  H145 4797   5.005  -0.661   1.787 -0.9545  1.0361  0.4586
   12CHTO   C74 4798   5.125  -0.482   1.759  0.2281 -0.7392 -0.0871
   12CHTO  H146 4799   5.055  -0.414   1.809  1.9616  0.7098  0.4067
   12CHTO   O54 4800   5.211  -0.526   1.861 -0.3083  0.2068  0.3822
   12CHTO  H133 4801   5.277  -0.588   1.838  1.1620  0.9097  2.5873
   12CHTO   C75 4802   5.201  -0.410   1.640 -0.7482 -0.0670  0.1555
   12CHTO  H147 4803   5.130  -0.371   1.566  1.1011  0.5316 -1.3396
   12CHTO   N13 4804   5.273  -0.286   1.683  0.1388 -0.7419 -0.4430
   12CHTO  H139 4805   5.341  -0.296   1.766 -0.1943  1.2351  0.0765
   12CHTO  H140 4806   5.202  -0.206   1.693  0.4071 -0.6708  0.9072
   12CHTO   C76 4807   5.302  -0.516   1.575 -0.2287 -0.3311  0.0994
   12CHTO  H148 4808   5.381  -0.556   1.638  0.5398  0.2754 -0.4674
   12CHTO   O49 4809   5.220  -0.632   1.533  0.3355  0.1100 -0.0743
   12CHTO   C77 4810   5.138  -0.695   1.629 -0.4215 -0.6017  0.3876
   12CHTO  H149 4811   5.209  -0.735   1.701  0.0804 -0.0369  0.2026
   12CHTO   C88 4812   5.066  -0.824   1.580 -0.0645  0.2663  0.5549
   12CHTO   O58 4813   5.011  -0.909   1.705 -0.1572 -0.5543  0.1327
   12CHTO  H136 4814   5.087  -0.937   1.752  0.5098  0.3175 -0.3862
   12CHTO   O51 4815   5.367  -0.450   1.439 -0.0188  0.3651 -0.1690
   12CHTO   C78 4816   5.456  -0.559   1.363  0.4907  0.1213  0.7427
   12CHTO  H150 4817   5.408  -0.659   1.371  1.2298 -0.2842  0.1969
   12CHTO   C80 4818   5.598  -0.559   1.425  0.4981  0.2064 -0.4378
   12CHTO  H152 4819   5.633  -0.454   1.415  1.2159 -0.0146 -0.2774
   12CHTO   O55 4820   5.595  -0.588   1.566 -0.3315  0.6650 -0.2962
   12CHTO  H134 4821   5.535  -0.657   1.588  1.4142  0.0202  2.6737
   12CHTO   C84 4822   5.695  -0.661   1.347 -0.3268 -0.1083 -0.1183
   12CHTO  H156 4823   5.665  -0.764   1.369  0.0438 -0.4608 -1.2284
   12CHTO   N15 4824   5.837  -0.656   1.392  0.2927 -0.2755  0.9774
   12CHTO  H143 4825   5.908  -0.722   1.346  0.0159  0.3570 -0.3841
   12CHTO  H144 4826   5.857  -0.652   1.497  0.9569  0.7232  0.8199
   12CHTO   C87 4827   5.686  -0.640   1.187 -0.1174 -0.2458 -0.7637
   12CHTO  H159 4828   5.736  -0.546   1.165  0.2479  0.1382  1.5921
   12CHTO   O53 4829   5.558  -0.640   1.156 -0.2021  0.4631  0.0281
   12CHTO   C82 4830   5.468  -0.537   1.210 -0.2275  0.2072 -0.2612
   12CHTO  H154 4831   5.514  -0.443   1.182 -1.0121  0.6125 -0.2087
   12CHTO   C89 4832   5.334  -0.545   1.135 -0.6757  0.2389 -0.3987
   12CHTO   O59 4833   5.364  -0.546   0.992  0.3734 -0.0295  0.3342
   12CHTO  H137 4834   5.377  -0.461   0.954 -1.6591  0.5391  0.8927
   12CHTO   O45 4835   5.757  -0.782   1.105  0.4280  0.1469 -0.5610
   12CHTO   C67 4836   5.782  -0.764   0.966  0.3594  0.4660  0.1879
   12CHTO  H124 4837   5.860  -0.838   0.950 -1.5263 -1.5878  0.1370
   12CHTO   C65 4838   5.663  -0.800   0.871  0.3684  0.7881  0.0511
   12CHTO  H122 4839   5.569  -0.764   0.914  0.0415  1.2765 -1.0629
   12CHTO   O44 4840   5.663  -0.944   0.869  0.0650 -0.6914  0.2206
   12CHTO  H102 4841   5.585  -0.979   0.831 -0.9231  2.1287 -0.4695
   12CHTO   C63 4842   5.674  -0.724   0.733 -0.1378  0.3364 -0.4727
   12CHTO  H120 4843   5.640  -0.621   0.748 -1.5880  0.1686 -2.4080
   12CHTO   N11 4844   5.570  -0.765   0.635  0.3251 -0.3479 -0.0879
   12CHTO  H108 4845   5.595  -0.862   0.598  0.4188 -1.4291  2.6791
   12CHTO  H109 4846   5.474  -0.790   0.675  0.0208 -1.7933 -1.6854
   12CHTO   C61 4847   5.824  -0.696   0.692  0.0876 -0.8777 -1.0501
   12CHTO  H118 4848   5.826  -0.634   0.601 -0.7628  2.4983  1.1347
   12CHTO   O40 4849   5.899  -0.624   0.797  0.0306  0.6762  0.3273
   12CHTO   C68 4850   5.850  -0.629   0.936  0.1917 -0.0709 -0.2933
   12CHTO  H125 4851   5.773  -0.552   0.957 -1.9421 -1.7356 -1.8126
   12CHTO   C72 4852   5.963  -0.604   1.031 -0.6819  0.3534 -0.3657
   12CHTO   O48 4853   6.002  -0.468   1.038 -0.0837  0.3633  0.4802
   12CHTO  H105 4854   6.095  -0.460   1.049  0.0836 -1.8062  0.8932
   12CHTO   O38 4855   5.889  -0.812   0.657 -0.3754  0.0533  0.2439
   12CHTO   C55 4856   6.031  -0.832   0.674 -0.1572  0.6058  0.5710
   12CHTO  H112 4857   6.061  -0.804   0.776 -1.8617  0.7905  1.0447
   12CHTO   C56 4858   6.117  -0.758   0.568 -0.7609 -0.5013  0.2261
   12CHTO  H113 4859   6.077  -0.792   0.471  1.6391  2.4646 -1.8950
   12CHTO   O42 4860   6.075  -0.618   0.568  0.2820 -0.0280 -0.1175
   12CHTO  H100 4861   6.002  -0.598   0.512  0.5223  0.7918 -0.1550
   12CHTO   C57 4862   6.277  -0.782   0.585  0.4045 -0.1602  0.2636
   12CHTO  H114 4863   6.307  -0.746   0.683 -1.2910 -0.5097  0.9137
   12CHTO   N10 4864   6.360  -0.707   0.488 -0.2684 -0.3770  0.6590
   12CHTO  H106 4865   6.357  -0.745   0.387  1.8064 -0.2371  0.5308
   12CHTO  H107 4866   6.342  -0.601   0.483  0.0528 -0.3863 -1.0208
   12CHTO   C58 4867   6.299  -0.939   0.579 -0.3910 -0.4458  0.0388
   12CHTO  H115 4868   6.288  -0.969   0.473 -1.5810 -1.0733  0.3286
   12CHTO   O37 4869   6.210  -1.007   0.677 -0.5452 -0.0775 -0.4721
   12CHTO   C59 4870   6.069  -0.986   0.662  0.0170  0.4864  0.1480
   12CHTO  H116 4871   6.043  -1.030   0.566  2.2520 -0.5260 -0.0424
   12CHTO   C70 4872   5.991  -1.075   0.759  0.4955 -0.2759  0.3148
   12CHTO   O46 4873   5.952  -1.209   0.727 -0.3482 -0.4789 -0.1194
   12CHTO  H103 4874   5.909  -1.247   0.801 -0.7481  2.1233  1.0170
   12CHTO   O39 4875   6.451  -0.964   0.633 -0.3140  0.4083 -0.3310
   12CHTO   C60 4876   6.489  -1.095   0.608  0.3683 -0.1531 -0.0503
   12CHTO  H117 4877   6.399  -1.151   0.581  0.6854 -0.7057  0.0232
   12CHTO   C62 4878   6.600  -1.095   0.500 -0.9021 -0.3365 -0.2108
   12CHTO  H119 4879   6.559  -1.058   0.404 -2.2868  0.8272  0.7913
   12CHTO   O43 4880   6.701  -1.004   0.533 -0.3741 -0.3775  0.0120
   12CHTO  H101 4881   6.701  -0.927   0.481 -0.2195  0.9624  1.9346
   12CHTO   C66 4882   6.650  -1.247   0.470  0.0641 -0.1057 -0.2278
   12CHTO  H123 4883   6.564  -1.306   0.438 -1.1284  2.1197 -1.1624
   12CHTO   N12 4884   6.745  -1.248   0.358 -0.2548 -0.0346 -0.4661
   12CHTO  H110 4885   6.708  -1.318   0.285  0.4802 -0.1780 -0.7085
   12CHTO  H111 4886   6.741  -1.152   0.310  1.4721  0.4763  0.3567
   12CHTO   C69 4887   6.711  -1.311   0.597 -0.8157 -0.3230  0.1915
   12CHTO  H126 4888   6.806  -1.264   0.633  2.3959 -4.8054 -1.9805
   12CHTO   O41 4889   6.605  -1.298   0.698  0.4813  0.2473 -0.8652
   12CHTO   C64 4890   6.543  -1.159   0.733  1.2585 -0.1736 -0.0359
   12CHTO  H121 4891   6.621  -1.086   0.766  0.9970  0.9212 -1.7477
   12CHTO   C71 4892   6.431  -1.172   0.840  0.0712 -0.3371  0.5995
   12CHTO   O47 4893   6.493  -1.202   0.964 -0.0789 -0.1678  0.4205
   12CHTO  H104 4894   6.532  -1.288   0.960  0.2226 -0.0261  0.3064
   12CHTO   O34 4895   6.733  -1.466   0.577 -0.6797 -0.0481 -0.0510
   12CHTO   C49 4896   6.790  -1.592   0.604 -0.7732  0.0126  0.2301
   12CHTO   H91 4897   6.897  -1.578   0.594 -0.9667  0.9937 -0.6029
   12CHTO   C47 4898   6.731  -1.697   0.507  0.2602 -0.6707  0.4893
   12CHTO   H89 4899   6.793  -1.787   0.523 -1.1749 -1.7024  0.3536
   12CHTO   O33 4900   6.750  -1.663   0.364  0.1038  0.3099  0.1077
   12CHTO   H70 4901   6.737  -1.573   0.343 -1.2991  0.0863 -0.0157
   12CHTO   C45 4902   6.576  -1.713   0.526 -0.5553  0.0924  0.3775
   12CHTO   H87 4903   6.522  -1.649   0.454  1.1528  0.1959 -0.8664
   12CHTO    N8 4904   6.533  -1.851   0.507 -0.0286 -0.7520  0.6124
   12CHTO   H75 4905   6.432  -1.852   0.547 -0.7636  0.7250 -1.1467
   12CHTO   H76 4906   6.539  -1.869   0.400  1.1468 -0.6201  0.6547
   12CHTO   C43 4907   6.527  -1.658   0.663 -0.0079 -0.3217  0.2182
   12CHTO   H85 4908   6.515  -1.551   0.646 -0.5685 -0.3477  0.4380
   12CHTO   O29 4909   6.620  -1.685   0.768 -0.2299 -0.0290  0.0264
   12CHTO   C50 4910   6.754  -1.639   0.753 -0.1377  0.5471  0.4846
   12CHTO   H92 4911   6.771  -1.551   0.817  2.6880  0.5703 -0.2472
   12CHTO   C54 4912   6.851  -1.748   0.803  0.2014 -0.0863 -0.0316
   12CHTO   O36 4913   6.830  -1.788   0.935 -0.0149 -0.7108 -0.1590
   12CHTO   H72 4914   6.851  -1.878   0.948  2.1737 -0.0595  1.2439
   12CHTO   O27 4915   6.399  -1.697   0.714 -0.3143 -0.0065  0.5640
   12CHTO   C37 4916   6.278  -1.680   0.796 -0.2244  0.0654 -0.4835
   12CHTO   H79 4917   6.213  -1.767   0.780  1.5420 -1.1527 -1.2016
   12CHTO   C38 4918   6.323  -1.678   0.945  0.6469  0.0361 -0.8757
   12CHTO   H80 4919   6.402  -1.602   0.951 -0.8957  1.5801  0.4900
   12CHTO   O31 4920   6.373  -1.811   0.967  0.8865 -0.0441 -0.7374
   12CHTO   H68 4921   6.297  -1.859   0.994  1.5144  0.3305  1.8682
   12CHTO   C39 4922   6.208  -1.635   1.049 -0.0278  0.7399 -0.4251
   12CHTO   H81 4923   6.138  -1.718   1.055 -0.3245  0.9404 -1.0115
   12CHTO    N7 4924   6.259  -1.603   1.189 -0.2110  0.1930 -0.2128
   12CHTO   H73 4925   6.303  -1.690   1.236 -2.1014  0.4116  2.0508
   12CHTO   H74 4926   6.173  -1.578   1.248 -1.0598  0.7999 -1.6851
   12CHTO   C40 4927   6.119  -1.515   0.996 -0.0695 -0.0353 -1.0281
   12CHTO   H82 4928   6.170  -1.420   1.011 -1.0147  0.4669 -0.9667
   12CHTO   O26 4929   6.081  -1.536   0.858 -0.4338  0.1344  0.3591
   12CHTO   C41 4930   6.202  -1.547   0.766 -0.0899 -0.1430  0.3188
   12CHTO   H83 4931   6.271  -1.467   0.795  1.8317 -1.5496 -0.2924
   12CHTO   C52 4932   6.161  -1.538   0.612  0.3492 -0.0426 -0.3848
   12CHTO   O35 4933   6.091  -1.412   0.583 -0.0453  0.2374  0.1316
   12CHTO   H71 4934   6.014  -1.432   0.533  1.2799 -0.8514 -1.5402
   12CHTO   O28 4935   5.984  -1.511   1.040  0.5445  0.8449 -0.0373
   12CHTO   C42 4936   5.915  -1.379   1.040 -0.2233 -0.7028  0.5665
   12CHTO   H84 4937   5.957  -1.328   0.953 -0.3613  0.8587  1.3983
   12CHTO   C44 4938   5.931  -1.285   1.155  0.2836  0.9793 -0.2917
   12CHTO   H86 4939   5.910  -1.339   1.247  2.2623  1.5182  0.4822
   12CHTO   O32 4940   6.072  -1.250   1.171  0.3386 -0.1819 -0.2982
   12CHTO   H69 4941   6.131  -1.321   1.185  1.3980  0.7564  0.1031
   12CHTO   C48 4942   5.831  -1.162   1.137  0.6583  0.1688 -0.2630
   12CHTO   H90 4943   5.878  -1.095   1.065 -0.1445  2.2032  1.0530
   12CHTO    N9 4944   5.836  -1.078   1.260 -0.3562 -0.0730  0.2807
   12CHTO   H77 4945   5.755  -1.007   1.257  0.3878  0.7141 -2.5038
   12CHTO   H78 4946   5.813  -1.135   1.348  2.1798 -2.6568 -0.6388
   12CHTO   C51 4947   5.682  -1.205   1.096 -0.3090  0.1077 -0.3363
   12CHTO   H93 4948   5.651  -1.260   1.185  2.4887 -0.8993  0.0757
   12CHTO   O30 4949   5.702  -1.293   0.984  0.0771  0.1405 -0.2956
   12CHTO   C46 4950   5.764  -1.400   1.010  0.3403  0.0910  0.0593
   12CHTO   H88 4951   5.721  -1.456   1.093 -2.2786  0.4944 -1.0020
   12CHTO   C53 4952   5.742  -1.486   0.884 -0.0455 -0.0475  0.1489
   12CHTO   O72 4953   5.779  -1.438   0.754 -0.1043 -0.2095  0.1503
   12CHTO  H199 4954   5.709  -1.469   0.700 -0.3240 -1.4960  1.1724
   12CHTO   O22 4955   5.587  -1.099   1.064 -0.3071  0.3294 -0.0862
   12CHTO   C31 4956   5.437  -1.099   1.065 -0.0382  0.1612  0.0659
   12CHTO   H59 4957   5.403  -1.198   1.102  0.5566 -0.2865 -0.5788
   12CHTO   C29 4958   5.375  -0.992   1.154  0.3459 -0.8619 -0.1895
   12CHTO   H57 4959   5.399  -0.891   1.120 -1.7853  0.9359  3.2724
   12CHTO   O21 4960   5.437  -1.013   1.285  0.3951 -0.0417  0.4112
   12CHTO   H37 4961   5.465  -0.926   1.305  0.9789  0.4241 -2.1862
   12CHTO   C27 4962   5.218  -0.993   1.160  0.2571 -0.6775  0.4563
   12CHTO   H55 4963   5.190  -1.085   1.213 -0.5213 -0.0514  1.1370
   12CHTO    N5 4964   5.157  -0.874   1.230 -0.1556 -0.3625 -0.4347
   12CHTO   H43 4965   5.162  -0.893   1.336  0.5309 -0.1951 -0.4395
   12CHTO   H44 4966   5.220  -0.788   1.212 -0.4660 -0.1055 -0.3239
   12CHTO   C25 4967   5.168  -0.999   1.013  0.1120  0.5680  0.3217
   12CHTO   H53 4968   5.192  -0.905   0.961 -2.4518  0.4090 -1.2236
   12CHTO   O17 4969   5.229  -1.096   0.923 -0.3002 -0.5489  0.0347
   12CHTO   C32 4970   5.371  -1.083   0.920 -0.3736  0.2266  0.3049
   12CHTO   H60 4971   5.390  -0.982   0.885 -1.4033  0.0140 -0.9275
   12CHTO   C36 4972   5.430  -1.188   0.819  0.0118 -0.2683 -0.0987
   12CHTO   O25 4973   5.404  -1.154   0.683  0.0853 -0.0154  0.4564
   12CHTO   H40 4974   5.416  -1.232   0.632 -1.6985 -1.8108  2.7038
   12CHTO   O15 4975   4.994  -1.031   1.017 -0.6796  0.3615  0.2422
   12CHTO   C19 4976   4.917  -0.950   0.938  0.3652  0.0345  0.2092
   12CHTO   H47 4977   4.950  -0.847   0.957 -1.8583  1.1965 -1.9339
   12CHTO   C20 4978   4.928  -0.965   0.784  0.5872  1.2150  0.1200
   12CHTO   H48 4979   4.902  -1.067   0.751  0.7701  0.4933  2.1682
   12CHTO   O19 4980   5.063  -0.938   0.753 -0.1020  0.3715 -0.0160
   12CHTO   H35 4981   5.080  -0.980   0.670  0.3743  0.9670 -0.2244
   12CHTO   C21 4982   4.838  -0.865   0.705  0.1920 -0.0689 -0.1641
   12CHTO   H49 4983   4.875  -0.763   0.718  0.3196 -0.1909  0.4284
   12CHTO    N4 4984   4.851  -0.883   0.561 -0.4978 -0.4364 -0.1496
   12CHTO   H41 4985   4.933  -0.947   0.534 -0.0720 -0.1372  0.4388
   12CHTO   H42 4986   4.842  -0.799   0.492 -3.1570 -1.6716 -1.3754
   12CHTO   C22 4987   4.690  -0.878   0.758  0.3240  0.1342  0.5278
   12CHTO   H50 4988   4.665  -0.983   0.741 -1.7294  0.7135 -0.1918
   12CHTO   O14 4989   4.684  -0.867   0.902  0.4701  0.1882  0.4539
   12CHTO   C23 4990   4.763  -0.956   0.984  0.1903 -0.1758  0.0923
   12CHTO   H51 4991   4.719  -1.054   0.962 -0.7818  0.9843 -3.4178
   12CHTO   C34 4992   4.740  -0.909   1.131  0.9869  0.1127  0.0098
   12CHTO   O23 4993   4.612  -0.952   1.181 -0.3117 -0.5865  0.1355
   12CHTO   H38 4994   4.626  -0.983   1.269  1.2920  0.4408  0.2621
   12CHTO   O16 4995   4.595  -0.778   0.702 -0.1870 -0.1317  0.0168
   12CHTO   C24 4996   4.441  -0.825   0.656 -0.1268 -0.1967 -0.5913
   12CHTO   H52 4997   4.374  -0.739   0.650  0.4317  0.4998  2.2599
   12CHTO   C26 4998   4.378  -0.919   0.760  0.3308 -0.2310  0.1681
   12CHTO   H54 4999   4.451  -0.994   0.796  0.2473 -0.3207  0.1478
   12CHTO   O20 5000   4.355  -0.851   0.882  0.4569 -0.1633 -0.1583
   12CHTO   H36 5001   4.330  -0.913   0.948  1.3628  0.5556  0.8921
   12CHTO   C30 5002   4.249  -0.991   0.697 -0.2593  0.3425  0.0457
   12CHTO   H58 5003   4.164  -0.922   0.685  0.0852  0.2726 -3.1989
   12CHTO    N6 5004   4.191  -1.089   0.796 -0.2209 -0.7595 -0.4501
   12CHTO   H45 5005   4.110  -1.144   0.750  2.2973 -4.3965 -0.7343
   12CHTO   H46 5006   4.267  -1.154   0.834 -0.1520 -0.5593 -0.2497
   12CHTO   C33 5007   4.282  -1.048   0.552  0.7033 -0.1988 -0.0259
   12CHTO   H61 5008   4.356  -1.129   0.561  1.7007  0.8423  1.1888
   12CHTO   O18 5009   4.335  -0.951   0.466 -0.4062  0.3273 -0.3171
   12CHTO   C28 5010   4.458  -0.892   0.516  0.5047 -0.2816 -0.3365
   12CHTO   H56 5011   4.529  -0.975   0.524 -0.1812 -0.8354  0.0408
   12CHTO   C35 5012   4.513  -0.790   0.414 -0.8033  0.6371 -0.2991
   12CHTO   O24 5013   4.554  -0.861   0.299 -0.1041  0.4222  0.6090
   12CHTO   H39 5014   4.639  -0.901   0.305 -0.6282 -0.9074 -0.4766
   12CHTO    O9 5015   4.161  -1.103   0.493 -0.4682  0.3837  0.5024
   12CHTO   C13 5016   4.183  -1.217   0.374 -0.0401 -0.0302  0.9104
   12CHTO   H26 5017   4.257  -1.172   0.304 -1.4544 -0.9364 -1.2157
   12CHTO   C11 5018   4.040  -1.247   0.304  0.4541 -0.2371 -0.2412
   12CHTO   H24 5019   4.018  -1.162   0.238  2.2044 -1.2147 -2.1525
   12CHTO    O8 5020   3.936  -1.256   0.405 -0.0444  0.0996 -0.0031
   12CHTO    H3 5021   3.970  -1.305   0.477  1.2049  0.5218 -0.3022
   12CHTO    C9 5022   4.054  -1.369   0.209  0.5316  0.6266 -0.4176
   12CHTO   H22 5023   4.139  -1.342   0.145 -0.3258  0.5539 -1.6141
   12CHTO    N2 5024   3.938  -1.382   0.119 -0.0475 -0.1543 -0.4309
   12CHTO   H10 5025   3.912  -1.286   0.079 -2.3891 -0.4358  0.3324
   12CHTO   H11 5026   3.952  -1.459   0.044  3.0306 -0.3409  0.2474
   12CHTO    C7 5027   4.101  -1.497   0.291  1.0233 -0.3947  0.0751
   12CHTO   H20 5028   4.117  -1.578   0.217  0.2931 -0.4281 -0.0513
   12CHTO    O4 5029   4.225  -1.471   0.350 -0.4999  0.7910  0.3074
   12CHTO   C14 5030   4.247  -1.351   0.430 -0.4001  0.4010  0.2209
   12CHTO   H27 5031   4.358  -1.340   0.437 -0.3885 -0.0788  0.8771
   12CHTO   C18 5032   4.201  -1.377   0.577 -0.3484 -0.2175  0.3648
   12CHTO   O13 5033   4.302  -1.411   0.677 -0.1597 -0.2925  0.3080
   12CHTO    H7 5034   4.363  -1.476   0.648  0.8124  0.9831 -0.6080
   12CHTO    O2 5035   3.982  -1.540   0.410 -0.2403  0.4810  0.3792
   12CHTO    C1 5036   3.934  -1.677   0.406 -1.0208 -0.2778  0.0344
   12CHTO   H14 5037   3.965  -1.718   0.307  1.0524 -0.4257  0.7233
   12CHTO    C2 5038   3.782  -1.677   0.417  0.0528  0.2591 -0.0847
   12CHTO   H15 5039   3.751  -1.604   0.493  2.7686  0.5861  0.7471
   12CHTO    O6 5040   3.726  -1.622   0.293  0.5227 -0.0703 -0.5009
   12CHTO    H1 5041   3.761  -1.535   0.296  0.6550 -0.1234 -0.4907
   12CHTO    C3 5042   3.726  -1.826   0.449 -0.6310 -0.4080  0.0731
   12CHTO   H16 5043   3.740  -1.892   0.362  0.5385  1.8984 -1.5827
   12CHTO    N1 5044   3.579  -1.827   0.483  0.1212  0.4720  0.4144
   12CHTO    H8 5045   3.516  -1.800   0.400 -0.1251 -1.4747 -0.0583
   12CHTO    H9 5046   3.562  -1.766   0.570 -1.8860 -0.4592  0.7008
   12CHTO    C4 5047   3.814  -1.889   0.560 -0.1808  0.5419 -0.6511
   12CHTO   H17 5048   3.795  -1.829   0.649 -1.9461  0.8059 -1.1974
   12CHTO    O1 5049   3.956  -1.885   0.525  0.2274  0.2640  0.6574
   12CHTO    C5 5050   4.004  -1.751   0.519  0.5719 -0.0847  0.5662
   12CHTO   H18 5051   3.967  -1.708   0.612 -1.5236  0.7015 -0.6026
   12CHTO   C16 5052   4.156  -1.749   0.520 -0.9421  0.3114 -0.0815
   12CHTO   O11 5053   4.210  -1.807   0.643  0.2984 -0.6703  0.1027
   12CHTO    H5 5054   4.188  -1.898   0.649  0.5278 -0.6833  0.7132
   12CHTO    O3 5055   3.778  -2.029   0.583 -0.0713 -0.0903  0.2057
   12CHTO    C6 5056   3.814  -2.079   0.715 -0.3060  0.1986  0.6351
   12CHTO   H19 5057   3.879  -2.014   0.773  1.8437 -1.0233 -0.3579
   12CHTO    C8 5058   3.681  -2.105   0.799  0.0819  0.0085 -0.2043
   12CHTO   H21 5059   3.611  -2.164   0.740  0.8291 -1.2207  0.1067
   12CHTO    O7 5060   3.618  -1.974   0.824  0.3931  0.1030 -0.3166
   12CHTO    H2 5061   3.530  -1.994   0.848  0.7207 -2.2240 -0.8790
   12CHTO   C12 5062   3.710  -2.185   0.936 -0.6806  0.2915 -0.7198
   12CHTO   H25 5063   3.759  -2.110   1.002  2.2604 -1.4894 -0.8255
   12CHTO    N3 5064   3.577  -2.219   1.001  0.1521 -0.5417  0.3184
   12CHTO   H12 5065   3.599  -2.291   1.079  1.4791  1.2066  1.6019
   12CHTO   H13 5066   3.509  -2.263   0.931 -1.4462  0.6336  1.0984
   12CHTO   C15 5067   3.801  -2.308   0.916 -0.4397  0.4315 -0.1719
   12CHTO   H28 5068   3.740  -2.396   0.896 -0.0752  0.0229  0.4912
   12CHTO   O10 5069   3.876  -2.332   1.055  0.0838 -0.4627  0.5465
   12CHTO    H4 5070   3.968  -2.349   1.046 -0.3639 -5.0708  3.0962
   12CHTO    O5 5071   3.905  -2.281   0.820 -0.2821  0.1167 -0.0362
   12CHTO   C10 5072   3.891  -2.218   0.696 -0.1392  0.9690 -0.1949
   12CHTO   H23 5073   3.831  -2.284   0.633  1.7054  0.1104 -1.0963
   12CHTO   C17 5074   4.032  -2.210   0.637  0.5431  0.6330 -0.2804
   12CHTO   O12 5075   4.032  -2.162   0.507  0.8707 -0.8064 -0.1037
   12CHTO    H6 5076   3.970  -2.213   0.459  1.3915 -1.1956 -0.3709
   13CHTO  H203 5077   7.201   4.204   2.327  0.3533  0.0937  0.3038
   13CHTO   O82 5078   7.121   4.240   2.360 -0.0181  0.0643 -0.5438
   13CHTO  C123 5079   7.083   4.363   2.293  0.1393 -0.2750 -0.0493
   13CHTO  H227 5080   7.107   4.353   2.187 -1.3661  1.0299 -0.5299
   13CHTO   O77 5081   6.941   4.356   2.294 -0.2302  0.3471 -0.2152
   13CHTO  C118 5082   6.882   4.456   2.218  0.2596 -0.4228  0.4037
   13CHTO  H222 5083   6.936   4.460   2.122 -0.6764 -3.5540 -0.3047
   13CHTO  C125 5084   6.736   4.415   2.182  0.5802 -0.4082 -0.1512
   13CHTO   O84 5085   6.740   4.317   2.073 -0.2721 -0.0819  0.0177
   13CHTO  H205 5086   6.657   4.299   2.033 -0.4882 -0.1696  0.4945
   13CHTO  C114 5087   6.902   4.582   2.302 -0.8907 -0.1355  0.3025
   13CHTO  H218 5088   6.866   4.561   2.403 -0.4740 -0.3884  0.4021
   13CHTO  C116 5089   7.049   4.619   2.315  0.6889  0.1580 -1.0357
   13CHTO  H220 5090   7.073   4.644   2.210 -0.9783 -0.0575 -1.4849
   13CHTO   O79 5091   7.057   4.737   2.403  0.0327 -0.4494 -0.1680
   13CHTO  H201 5092   7.069   4.815   2.351 -1.2918 -0.0408  0.1283
   13CHTO  C120 5093   7.133   4.499   2.363  0.1295  0.6523  0.0185
   13CHTO  H224 5094   7.119   4.493   2.473 -1.4247 -0.6171 -0.2297
   13CHTO   N21 5095   7.278   4.520   2.324  0.1532  0.6436 -0.4900
   13CHTO  H211 5096   7.342   4.454   2.380  0.6792  0.0511 -1.7492
   13CHTO  H212 5097   7.308   4.621   2.346 -0.6284  0.2828  2.3772
   13CHTO   O75 5098   6.811   4.680   2.246 -0.4484 -0.0726  0.6536
   13CHTO  C112 5099   6.673   4.730   2.338  0.4871 -0.7172 -0.8581
   13CHTO  H216 5100   6.670   4.684   2.439 -4.1909 -0.5141 -0.8030
   13CHTO   O73 5101   6.558   4.690   2.261  0.4113  0.0926  0.2561
   13CHTO  C113 5102   6.426   4.716   2.324  0.1917 -0.2122 -0.1741
   13CHTO  H217 5103   6.433   4.669   2.424 -0.3537  0.8869  0.3917
   13CHTO  C124 5104   6.308   4.652   2.267  0.1376  0.1485  0.1048
   13CHTO   O83 5105   6.260   4.692   2.135 -0.1114 -0.2557  0.3782
   13CHTO  H204 5106   6.186   4.638   2.113 -1.7609  1.4269  1.6840
   13CHTO  C109 5107   6.406   4.865   2.367  0.1941  0.5680  0.0447
   13CHTO  H213 5108   6.397   4.923   2.274 -1.4200  1.7170  0.8894
   13CHTO  C110 5109   6.531   4.912   2.444 -0.0791  0.2577  0.4707
   13CHTO  H214 5110   6.540   4.862   2.541  0.7068 -6.3104 -2.7409
   13CHTO   O78 5111   6.514   5.056   2.449 -0.7053 -0.2852  0.3533
   13CHTO  H200 5112   6.520   5.087   2.361  3.2484 -0.1988  0.5287
   13CHTO  C111 5113   6.664   4.884   2.368 -0.6658  0.3408  0.2825
   13CHTO  H215 5114   6.654   4.929   2.268 -1.2443 -0.9056 -0.2179
   13CHTO   N19 5115   6.791   4.935   2.426  0.6917  0.0617  0.0384
   13CHTO  H207 5116   6.858   4.966   2.347 -0.3306  1.2622 -0.3739
   13CHTO  H208 5117   6.762   5.019   2.488 -1.7120 -0.0781 -0.8698
   13CHTO   O74 5118   6.286   4.878   2.446  0.4548 -0.2409 -0.2714
   13CHTO  C115 5119   6.222   5.027   2.475 -0.5664 -0.1221  0.1631
   13CHTO  H219 5120   6.294   5.108   2.463  0.7108 -0.9971  1.6488
   13CHTO   O76 5121   6.104   5.059   2.375 -0.1064  0.5623 -0.5401
   13CHTO  C122 5122   6.004   4.958   2.358 -0.3353 -0.0790 -0.9526
   13CHTO  H226 5123   6.037   4.877   2.292 -0.5777 -1.6423  0.7819
   13CHTO  C126 5124   5.873   5.019   2.282  0.3987  0.5646  0.7215
   13CHTO   O85 5125   5.922   5.084   2.163  0.0064  0.8054 -0.4747
   13CHTO  H206 5126   5.990   5.144   2.186 -0.6305  1.4504 -0.2487
   13CHTO  C121 5127   5.968   4.890   2.503 -1.0235 -0.6730  0.5007
   13CHTO  H225 5128   5.858   4.881   2.502 -1.0290 -0.6072 -1.1462
   13CHTO   O81 5129   6.020   4.753   2.514  0.0528 -0.1737 -0.1637
   13CHTO  H202 5130   5.965   4.689   2.473 -1.5512  0.3934  1.0487
   13CHTO  C119 5131   6.010   4.986   2.625  0.0259 -0.0961 -0.2784
   13CHTO  H223 5132   5.964   5.081   2.599 -0.2420 -0.6202 -1.7532
   13CHTO  C117 5133   6.166   5.019   2.622  0.4185  0.7502 -0.3865
   13CHTO  H221 5134   6.228   4.946   2.673  0.3391  0.3911 -0.8015
   13CHTO   N20 5135   6.197   5.153   2.685 -0.3461 -0.6231  0.0284
   13CHTO  H209 5136   6.139   5.234   2.644  1.4149  1.1438  0.9248
   13CHTO  H210 5137   6.171   5.144   2.790  3.5229  1.2526  1.2437
   13CHTO   O80 5138   5.955   4.955   2.759 -0.4189  0.5767  0.4313
   13CHTO  C103 5139   5.836   5.056   2.823 -0.7234 -0.4739  0.2353
   13CHTO  H190 5140   5.813   5.013   2.921  1.1987 -0.3692  0.7555
   13CHTO  C101 5141   5.863   5.210   2.852 -0.0797  0.5864 -0.4601
   13CHTO  H188 5142   5.897   5.257   2.760  2.1570 -1.0400 -0.5046
   13CHTO   O68 5143   5.980   5.224   2.944  0.3901 -0.1208 -0.0499
   13CHTO  H168 5144   5.994   5.315   2.961  0.4311 -0.3858  1.3267
   13CHTO   C99 5145   5.730   5.282   2.887  0.3541  0.5399 -0.2699
   13CHTO  H186 5146   5.700   5.252   2.989 -0.6024 -0.7744 -0.9126
   13CHTO   N17 5147   5.736   5.428   2.909  0.4144 -0.3762 -0.3778
   13CHTO  H174 5148   5.824   5.472   2.953 -0.1508 -0.4008  0.8091
   13CHTO  H175 5149   5.652   5.468   2.964 -1.1346 -2.3375 -1.2296
   13CHTO   C97 5150   5.612   5.247   2.795 -0.6976  0.1470  0.0442
   13CHTO  H184 5151   5.643   5.291   2.699 -1.1277  1.1173  0.3355
   13CHTO   O64 5152   5.590   5.103   2.788 -0.5486  0.0781 -0.1967
   13CHTO  C104 5153   5.709   5.033   2.733  0.0707 -0.2481 -0.8090
   13CHTO  H191 5154   5.734   5.054   2.629 -1.8530 -0.6977 -1.3799
   13CHTO  C108 5155   5.670   4.886   2.732 -0.1306 -0.6780 -0.4951
   13CHTO   O71 5156   5.626   4.845   2.865  0.6332  0.6746  0.4244
   13CHTO  H171 5157   5.559   4.900   2.902  0.3806 -0.5666  1.8486
   13CHTO   O62 5158   5.480   5.286   2.838  0.1535 -0.2888 -0.4242
   13CHTO   C91 5159   5.388   5.334   2.734  0.3178  0.1397  0.4408
   13CHTO  H178 5160   5.420   5.285   2.642  0.5607  1.5730 -0.2567
   13CHTO   C92 5161   5.385   5.490   2.727  0.1505  0.1899  0.6080
   13CHTO  H179 5162   5.358   5.535   2.823 -1.1812  0.7434 -0.0217
   13CHTO   O66 5163   5.521   5.534   2.695 -0.0497  0.1950 -0.1053
   13CHTO  H166 5164   5.553   5.495   2.617  0.2600  0.6611 -0.2154
   13CHTO   C93 5165   5.287   5.543   2.623  1.0493 -0.1584 -0.6477
   13CHTO  H180 5166   5.331   5.523   2.524  0.9098  0.7847 -0.9063
   13CHTO   N16 5167   5.259   5.688   2.632 -0.4135  0.5475  0.7709
   13CHTO  H172 5168   5.192   5.738   2.563 -2.5043 -3.0954  0.0712
   13CHTO  H173 5169   5.352   5.742   2.642 -0.5852  0.8161  0.9595
   13CHTO   C94 5170   5.152   5.467   2.630 -0.5501 -0.4449  0.9777
   13CHTO  H181 5171   5.093   5.492   2.718 -3.1159 -0.5005 -0.6850
   13CHTO   O61 5172   5.174   5.325   2.632  0.0106 -0.1846 -0.9300
   13CHTO   C95 5173   5.240   5.280   2.742 -0.0967 -0.1428 -0.5899
   13CHTO  H182 5174   5.187   5.316   2.831 -1.1980  2.8240 -2.3858
   13CHTO  C106 5175   5.242   5.120   2.750  0.2230  0.1393  0.0804
   13CHTO   O69 5176   5.107   5.074   2.759  0.2733 -0.0088  0.3200
   13CHTO  H169 5177   5.116   4.981   2.750 -0.1350  0.0971 -1.3575
   13CHTO   O63 5178   5.062   5.497   2.495  0.5942  0.3613  0.2097
   13CHTO   C96 5179   4.898   5.452   2.528 -0.3476  0.3697  0.0887
   13CHTO  H183 5180   4.826   5.508   2.469 -0.0595 -0.6282 -1.2226
   13CHTO   C98 5181   4.840   5.473   2.676 -0.0002 -0.2692  0.1293
   13CHTO  H185 5182   4.912   5.428   2.746 -1.2629 -1.9741  0.3887
   13CHTO   O67 5183   4.842   5.609   2.706  0.5185 -0.1176 -0.0343
   13CHTO  H167 5184   4.772   5.650   2.752 -0.4384 -1.0822 -0.6203
   13CHTO  C102 5185   4.684   5.411   2.694 -0.7436  0.5753 -0.1267
   13CHTO  H189 5186   4.617   5.484   2.647  0.5595  0.6677 -1.8813
   13CHTO   N18 5187   4.640   5.398   2.835  0.7269  0.0581 -0.1754
   13CHTO  H176 5188   4.606   5.296   2.846 -0.2366  0.4530  0.6311
   13CHTO  H177 5189   4.715   5.425   2.908 -0.9554  0.0842  1.5827
   13CHTO  C105 5190   4.675   5.273   2.619 -0.2437 -0.2710 -0.0206
   13CHTO  H192 5191   4.725   5.198   2.680  0.0529  1.2653  1.6603
   13CHTO   O65 5192   4.737   5.275   2.493 -0.5672  0.1843 -0.7039
   13CHTO  C100 5193   4.881   5.301   2.484  0.5254 -0.3143  0.3191
   13CHTO  H187 5194   4.929   5.245   2.566 -2.0031 -2.5871  0.3249
   13CHTO  C107 5195   4.944   5.267   2.339 -0.4924  0.4851 -0.3907
   13CHTO   O70 5196   4.889   5.353   2.232  0.1291 -0.4166 -0.2484
   13CHTO  H170 5197   4.797   5.343   2.216 -0.4881  1.6659  1.6798
   13CHTO   O57 5198   4.515   5.241   2.611  0.4981  0.2908  0.3419
   13CHTO   C85 5199   4.414   5.302   2.529  0.4777  0.0023  0.3415
   13CHTO  H157 5200   4.468   5.387   2.482  0.1790  0.4851  0.8630
   13CHTO   C83 5201   4.316   5.367   2.619  0.7872  0.1170  0.1827
   13CHTO  H155 5202   4.363   5.437   2.689  0.9425 -0.6446  0.8511
   13CHTO   O56 5203   4.261   5.275   2.715  0.3411  0.6556  0.0836
   13CHTO  H135 5204   4.180   5.234   2.694  1.4955 -0.8283 -1.6525
   13CHTO   C81 5205   4.208   5.430   2.533 -0.3124 -0.9921 -0.1287
   13CHTO  H153 5206   4.249   5.505   2.466 -1.4451 -0.6381 -0.4443
   13CHTO   N14 5207   4.123   5.523   2.605  0.0981 -0.4930 -0.7773
   13CHTO  H141 5208   4.158   5.624   2.613  0.5190 -0.6303 -0.8580
   13CHTO  H142 5209   4.094   5.486   2.700  1.4128 -1.2130 -0.6449
   13CHTO   C79 5210   4.128   5.321   2.452  0.1741  0.3517  0.4275
   13CHTO  H151 5211   4.047   5.373   2.403  0.9599  1.6271  0.4513
   13CHTO   O52 5212   4.225   5.264   2.363  0.1449 -0.2563  0.2724
   13CHTO   C86 5213   4.347   5.206   2.425 -0.1225  0.3798 -0.0182
   13CHTO  H158 5214   4.312   5.113   2.474 -0.2224  1.1501  1.4034
   13CHTO   C90 5215   4.448   5.156   2.310  0.8805 -0.2965 -0.0617
   13CHTO   O60 5216   4.549   5.068   2.368  0.5564 -0.2852 -0.3595
   13CHTO  H138 5217   4.558   4.992   2.314  1.8473 -0.7703  0.5003
   13CHTO   O50 5218   4.058   5.223   2.522 -0.4726 -0.4386  0.2193
   13CHTO   C73 5219   3.956   5.147   2.457 -0.1236  0.0114 -0.1427
   13CHTO  H145 5220   3.984   5.128   2.352  0.2524  0.8678 -0.2057
   13CHTO   C74 5221   3.818   5.220   2.462 -0.0874  0.0397  0.0753
   13CHTO  H146 5222   3.825   5.313   2.405 -0.7559  0.7025  1.0575
   13CHTO   O54 5223   3.724   5.149   2.386  0.2457 -0.2826 -0.2286
   13CHTO  H133 5224   3.747   5.152   2.295 -1.6766 -2.0749 -0.8381
   13CHTO   C75 5225   3.778   5.250   2.610 -0.1707  0.0013  0.5990
   13CHTO  H147 5226   3.847   5.323   2.655 -0.9896 -0.7087  3.1063
   13CHTO   N13 5227   3.649   5.318   2.620  0.3421  0.2845 -0.1468
   13CHTO  H139 5228   3.641   5.394   2.544 -1.9603  1.7968  1.5768
   13CHTO  H140 5229   3.560   5.258   2.605  0.1956  0.5875 -0.4838
   13CHTO   C76 5230   3.793   5.114   2.692  0.0698  0.2094 -0.0821
   13CHTO  H148 5231   3.706   5.056   2.661  1.6728 -2.3571  0.0404
   13CHTO   O49 5232   3.912   5.036   2.661  0.1646 -0.0507  0.1541
   13CHTO   C77 5233   3.941   5.017   2.524  0.2420 -0.2202 -0.0966
   13CHTO  H149 5234   3.866   4.962   2.468  0.3752  2.2864 -2.8705
   13CHTO   C88 5235   4.063   4.924   2.523 -0.1049  0.2815  0.5532
   13CHTO   O58 5236   4.172   4.984   2.600  0.4978 -0.6279  0.3261
   13CHTO  H136 5237   4.206   5.066   2.569  0.8724  0.3475  3.1838
   13CHTO   O51 5238   3.788   5.139   2.860  0.0842  0.2793 -0.1627
   13CHTO   C78 5239   3.904   5.198   2.964 -0.0462 -0.2348 -0.3844
   13CHTO  H150 5240   3.864   5.223   3.065  2.1187 -2.0094  0.9365
   13CHTO   C80 5241   3.977   5.322   2.913 -0.2575 -0.6778 -0.6843
   13CHTO  H152 5242   4.030   5.297   2.819 -0.1274  1.1898 -1.1366
   13CHTO   O55 5243   3.874   5.417   2.884  0.1045 -0.1691  0.0855
   13CHTO  H134 5244   3.919   5.490   2.847 -1.2361 -0.4370 -2.1122
   13CHTO   C84 5245   4.079   5.378   3.022  0.7299 -0.1875 -0.3715
   13CHTO  H156 5246   4.015   5.412   3.103 -2.3027  0.6755 -2.9872
   13CHTO   N15 5247   4.152   5.496   2.978  0.8064 -0.8043 -0.5748
   13CHTO  H143 5248   4.122   5.577   3.040  2.6493  1.0338 -1.9868
   13CHTO  H144 5249   4.125   5.526   2.878 -1.5372 -1.5697 -0.2014
   13CHTO   C87 5250   4.183   5.264   3.057 -0.2888 -0.6756 -0.3393
   13CHTO  H159 5251   4.251   5.254   2.974  0.5175  1.4862  0.0337
   13CHTO   O53 5252   4.095   5.133   3.087  0.5683  0.0827 -0.0305
   13CHTO   C82 5253   4.003   5.088   2.985  0.1529 -1.0348  0.4609
   13CHTO  H154 5254   4.056   5.060   2.893 -0.1786  0.9911 -0.3776
   13CHTO   C89 5255   3.930   4.966   3.044 -0.3481 -0.0413 -0.5885
   13CHTO   O59 5256   3.890   4.883   2.934  0.2312 -0.3872 -0.3640
   13CHTO  H137 5257   3.797   4.869   2.941 -0.4467  2.8675 -1.9198
   13CHTO   O45 5258   4.259   5.305   3.191  0.4439  0.6227  0.3623
   13CHTO   C67 5259   4.401   5.327   3.170  0.3664 -0.5924 -0.1400
   13CHTO  H124 5260   4.421   5.356   3.067  0.3948 -0.0590  0.0127
   13CHTO   C65 5261   4.450   5.446   3.262  0.1488  0.7783  0.0096
   13CHTO  H122 5262   4.362   5.511   3.259 -1.5244 -1.4056  0.2895
   13CHTO   O44 5263   4.560   5.511   3.201 -0.4856 -0.5833 -0.1477
   13CHTO  H102 5264   4.581   5.599   3.224 -1.0227 -0.6895  0.7514
   13CHTO   C63 5265   4.467   5.385   3.399 -0.1065 -0.0134  0.6962
   13CHTO  H120 5266   4.382   5.318   3.413  1.4766 -2.1191  0.3817
   13CHTO   N11 5267   4.455   5.487   3.517 -0.5063 -0.1167  0.6578
   13CHTO  H108 5268   4.535   5.558   3.526 -0.1977 -0.1244 -1.7807
   13CHTO  H109 5269   4.475   5.426   3.602  2.7202 -0.1363 -0.0401
   13CHTO   C61 5270   4.599   5.308   3.395 -0.1940  0.7732 -0.0822
   13CHTO  H118 5271   4.591   5.234   3.476 -1.5397  0.3337 -0.5981
   13CHTO   O40 5272   4.613   5.233   3.269  0.0600  0.6888  0.0806
   13CHTO   C68 5273   4.491   5.196   3.202 -0.0571  0.3795  0.1217
   13CHTO  H125 5274   4.440   5.127   3.272  2.3755 -2.6530 -0.9832
   13CHTO   C72 5275   4.529   5.109   3.084 -0.3174 -0.7549  0.0972
   13CHTO   O48 5276   4.422   5.063   3.003  0.1300  0.1435  0.2016
   13CHTO  H105 5277   4.436   4.973   2.980 -1.6340 -1.0053  3.3151
   13CHTO   O38 5278   4.717   5.383   3.392 -0.0083 -0.3089 -0.1542
   13CHTO   C55 5279   4.829   5.340   3.470  0.1136  0.0119 -0.0042
   13CHTO  H112 5280   4.823   5.231   3.489 -0.0871  0.0649  0.2278
   13CHTO   C56 5281   4.832   5.423   3.614 -0.7841 -0.5917  0.3644
   13CHTO  H113 5282   4.835   5.528   3.582 -0.4026 -0.6878  0.0859
   13CHTO   O42 5283   4.704   5.392   3.674  0.1205  0.5965  0.3647
   13CHTO  H100 5284   4.659   5.474   3.680 -2.2171 -0.6163  0.0651
   13CHTO   C57 5285   4.957   5.372   3.694  0.7234  0.2942  0.4439
   13CHTO  H114 5286   4.944   5.267   3.719 -1.1809  0.1265 -1.1053
   13CHTO   N10 5287   4.970   5.436   3.826 -0.5738  0.4171 -0.1725
   13CHTO  H106 5288   4.868   5.462   3.852 -0.7844  0.1088 -0.6662
   13CHTO  H107 5289   5.028   5.527   3.829  0.2852  0.0064 -2.7877
   13CHTO   C58 5290   5.085   5.392   3.608 -0.0284  0.0769  0.0076
   13CHTO  H115 5291   5.100   5.499   3.583  4.4693 -0.3521  0.4699
   13CHTO   O37 5292   5.067   5.314   3.491 -0.2896  0.3471  0.1483
   13CHTO   C59 5293   4.965   5.362   3.401 -0.2268  0.0922 -0.0148
   13CHTO  H116 5294   4.987   5.461   3.360 -1.7016 -0.1615 -1.4938
   13CHTO   C70 5295   4.972   5.275   3.278  0.2742 -0.3254  0.5312
   13CHTO   O46 5296   4.881   5.307   3.170 -0.3696 -0.1286  0.6472
   13CHTO  H103 5297   4.858   5.241   3.108 -0.5346  0.3303  0.2086
   13CHTO   O39 5298   5.229   5.329   3.685  0.4211 -0.0034  0.8248
   13CHTO   C60 5299   5.346   5.412   3.655  0.5744  0.3065 -0.9154
   13CHTO  H117 5300   5.350   5.455   3.555  1.6704 -0.0748 -1.0418
   13CHTO   C62 5301   5.354   5.537   3.749  0.1789 -0.1287  0.0463
   13CHTO  H119 5302   5.267   5.599   3.718  0.4369 -0.4404 -1.3450
   13CHTO   O43 5303   5.326   5.493   3.882  0.5572 -0.1662 -0.0114
   13CHTO  H101 5304   5.393   5.436   3.916 -1.4825 -2.2965  0.6163
   13CHTO   C66 5305   5.493   5.621   3.729  0.4216 -0.0324  0.6628
   13CHTO  H123 5306   5.507   5.644   3.623 -2.7544  0.2625  0.2676
   13CHTO   N12 5307   5.489   5.753   3.804 -0.1441 -0.0367 -0.2651
   13CHTO  H110 5308   5.411   5.822   3.773 -1.8308 -2.0393 -0.5685
   13CHTO  H111 5309   5.587   5.796   3.819  0.2137 -0.7281 -0.6430
   13CHTO   C69 5310   5.617   5.534   3.760 -0.6787  0.1721  0.8080
   13CHTO  H126 5311   5.615   5.491   3.862 -1.6353 -0.9912  0.3148
   13CHTO   O41 5312   5.610   5.415   3.658 -0.6051  0.1538  0.3669
   13CHTO   C64 5313   5.474   5.328   3.668  0.4096  0.6605 -0.0522
   13CHTO  H121 5314   5.463   5.278   3.766  2.3059  0.1730 -0.0569
   13CHTO   C71 5315   5.495   5.219   3.561  0.0993 -0.8694 -0.0150
   13CHTO   O47 5316   5.511   5.273   3.430 -0.2254 -0.0178 -0.4070
   13CHTO  H104 5317   5.582   5.335   3.429  0.9366 -1.3206 -0.9429
   13CHTO   O34 5318   5.756   5.620   3.745  0.5290 -0.1739 -0.3408
   13CHTO   C49 5319   5.896   5.664   3.741 -0.2349  0.4607 -0.2841
   13CHTO   H91 5320   5.954   5.579   3.705 -0.9773 -0.0738 -0.2449
   13CHTO   C47 5321   5.942   5.703   3.885 -0.4049 -0.2143  0.2484
   13CHTO   H89 5322   6.052   5.710   3.870 -0.0468 -1.9074  1.7489
   13CHTO   O33 5323   5.918   5.599   3.978 -0.1801  0.0045 -0.0453
   13CHTO   H70 5324   5.994   5.543   3.987  1.8398  2.5969 -0.3003
   13CHTO   C45 5325   5.858   5.832   3.928  0.3698  1.0420  0.3806
   13CHTO   H87 5326   5.755   5.792   3.932  1.7260 -2.5575  1.6520
   13CHTO    N8 5327   5.892   5.877   4.065 -0.0342 -0.5356 -0.0913
   13CHTO   H75 5328   5.993   5.913   4.069 -1.3335  3.4410 -0.8347
   13CHTO   H76 5329   5.821   5.945   4.109  2.7518  0.9592  2.3004
   13CHTO   C43 5330   5.851   5.957   3.811  0.7501  0.6372 -0.4207
   13CHTO   H85 5331   5.775   6.028   3.842 -2.9312 -2.8124 -1.2343
   13CHTO   O29 5332   5.827   5.907   3.682  0.3274  0.2234  0.0815
   13CHTO   C50 5333   5.903   5.783   3.645  0.4143 -0.4553  0.0601
   13CHTO   H92 5334   5.862   5.743   3.551  0.3376 -1.3305  0.4592
   13CHTO   C54 5335   6.056   5.813   3.603  0.1911 -0.3494 -0.5454
   13CHTO   O36 5336   6.124   5.713   3.524  0.3620 -0.1894  0.6692
   13CHTO   H72 5337   6.190   5.677   3.580  0.6639  1.1209  1.1818
   13CHTO   O27 5338   5.971   6.042   3.818 -0.4016 -0.2860  0.4241
   13CHTO   C37 5339   5.959   6.189   3.817  0.6459 -0.4711 -0.3600
   13CHTO   H79 5340   5.853   6.217   3.823 -0.1185 -3.1731 -0.4396
   13CHTO   C38 5341   6.049   6.252   3.931 -0.2647  0.5036 -0.4493
   13CHTO   H80 5342   6.151   6.212   3.933 -0.2425  0.4746 -1.7765
   13CHTO   O31 5343   5.979   6.213   4.051 -0.8338 -0.1385  0.2531
   13CHTO   H68 5344   6.021   6.133   4.078  1.2472  0.4997 -0.9578
   13CHTO   C39 5345   6.044   6.409   3.917 -0.1961  0.2734  0.2946
   13CHTO   H81 5346   5.949   6.450   3.951  0.9697  1.7128  1.8675
   13CHTO    N7 5347   6.150   6.478   4.006  0.0459  0.2641  0.6008
   13CHTO   H73 5348   6.101   6.524   4.091 -0.1814  0.8828  0.1357
   13CHTO   H74 5349   6.219   6.547   3.958  0.8622  0.3098  1.8178
   13CHTO   C40 5350   6.058   6.460   3.766 -0.4967  0.1994  0.6597
   13CHTO   H82 5351   6.166   6.463   3.748 -0.8728 -0.8548 -1.9336
   13CHTO   O26 5352   5.985   6.379   3.672  0.0827 -0.1944 -0.0703
   13CHTO   C41 5353   6.009   6.237   3.677 -0.7252 -0.1517 -0.0359
   13CHTO   H83 5354   6.116   6.211   3.663 -0.9358  0.2808 -2.5787
   13CHTO   C52 5355   5.922   6.178   3.562 -0.2669  0.5605  0.1370
   13CHTO   O35 5356   5.984   6.205   3.427  0.1986 -0.4596 -0.1846
   13CHTO   H71 5357   5.934   6.170   3.356  0.5421  1.1660 -1.2701
   13CHTO   O28 5358   5.989   6.589   3.752 -0.3570 -0.0653 -0.8390
   13CHTO   C42 5359   6.019   6.701   3.657  0.1421  0.2548 -0.6118
   13CHTO   H84 5360   6.076   6.648   3.581 -0.8022 -0.9596 -0.4739
   13CHTO   C44 5361   6.107   6.816   3.720  0.0042 -1.1473 -0.4584
   13CHTO   H86 5362   6.054   6.849   3.809  0.0544  1.4132 -1.3129
   13CHTO   O32 5363   6.239   6.763   3.762 -0.0693  0.6346 -0.1277
   13CHTO   H69 5364   6.246   6.758   3.856 -1.1915 -0.9947 -0.1039
   13CHTO   C48 5365   6.125   6.938   3.618 -0.3964  0.6840  0.5359
   13CHTO   H90 5366   6.193   6.919   3.535 -0.3101  1.4365  0.4375
   13CHTO    N9 5367   6.186   7.061   3.683  0.0580  0.5905 -0.0723
   13CHTO   H77 5368   6.122   7.099   3.761  0.5426  2.1559 -0.4171
   13CHTO   H78 5369   6.223   7.139   3.618  1.9987  0.6825  1.1142
   13CHTO   C51 5370   5.982   6.978   3.566  0.5709 -1.0617 -0.0715
   13CHTO   H93 5371   5.922   7.013   3.650  0.3020 -0.6159 -0.4480
   13CHTO   O30 5372   5.923   6.865   3.503  0.5103 -0.2271  0.4518
   13CHTO   C46 5373   5.890   6.763   3.595 -0.3143 -0.4505  0.4369
   13CHTO   H88 5374   5.832   6.808   3.676  1.4261 -0.2800  1.6108
   13CHTO   C53 5375   5.804   6.646   3.537  0.4959 -0.0901 -0.0055
   13CHTO   O72 5376   5.866   6.575   3.425  0.1336 -0.4112  0.4355
   13CHTO  H199 5377   5.889   6.635   3.358 -0.1269 -1.0713 -0.2541
   13CHTO   O22 5378   5.985   7.068   3.453 -0.1120 -0.5242  0.0099
   13CHTO   C31 5379   5.874   7.147   3.386 -0.4263  0.1793  0.6419
   13CHTO   H59 5380   5.917   7.239   3.342 -0.4296 -0.6676 -1.1583
   13CHTO   C29 5381   5.812   7.065   3.272 -0.2538 -0.3466 -1.0176
   13CHTO   H57 5382   5.772   6.978   3.326 -0.7800 -0.6993 -1.9757
   13CHTO   O21 5383   5.916   7.030   3.186  0.5075  0.3577 -0.2829
   13CHTO   H37 5384   5.891   6.950   3.145  0.5476  0.4314 -0.4525
   13CHTO   C27 5385   5.698   7.146   3.199 -0.0275 -0.9280 -0.0724
   13CHTO   H55 5386   5.741   7.236   3.155 -1.0462 -0.1589  0.4713
   13CHTO    N5 5387   5.622   7.071   3.099  0.1046  0.3503  0.0065
   13CHTO   H43 5388   5.536   7.129   3.068  2.0399  2.5434 -1.4422
   13CHTO   H44 5389   5.680   7.048   3.010  3.5772 -0.8400  2.4626
   13CHTO   C25 5390   5.591   7.190   3.306 -0.2206 -0.1767  0.1651
   13CHTO   H53 5391   5.548   7.097   3.345  1.6745 -1.4771 -0.7258
   13CHTO   O17 5392   5.657   7.266   3.417  0.6231  0.7975  0.1357
   13CHTO   C32 5393   5.763   7.195   3.487 -0.2891  0.4573  0.0930
   13CHTO   H60 5394   5.726   7.106   3.538  2.0835 -0.5470  0.0778
   13CHTO   C36 5395   5.810   7.296   3.591 -0.2591 -0.1318 -0.2390
   13CHTO   O25 5396   5.704   7.321   3.681 -0.3046 -0.0986  0.2172
   13CHTO   H40 5397   5.726   7.289   3.766  1.6257 -1.6455 -0.8206
   13CHTO   O15 5398   5.482   7.298   3.236  0.3164  0.1475 -0.1188
   13CHTO   C19 5399   5.344   7.345   3.274 -0.6729 -0.4199 -0.2159
   13CHTO   H47 5400   5.329   7.322   3.381 -1.5312  0.2686 -0.1836
   13CHTO   C20 5401   5.320   7.497   3.246 -0.4766 -0.8809  0.7082
   13CHTO   H48 5402   5.336   7.523   3.140  0.0951 -0.1562  0.9609
   13CHTO   O19 5403   5.429   7.573   3.311  0.2012  0.0135  0.1456
   13CHTO   H35 5404   5.397   7.615   3.388 -2.5836  0.1035 -1.0093
   13CHTO   C21 5405   5.186   7.548   3.306  0.2871  0.0222 -0.1180
   13CHTO   H49 5406   5.196   7.539   3.414 -1.4465  0.9586  0.1193
   13CHTO    N4 5407   5.173   7.694   3.278 -0.5222  0.6968  0.2992
   13CHTO   H41 5408   5.203   7.710   3.176  1.0938 -0.2327  0.5896
   13CHTO   H42 5409   5.074   7.730   3.297 -0.8469 -0.5538  1.0883
   13CHTO   C22 5410   5.075   7.455   3.254 -0.6816  0.7321  0.7312
   13CHTO   H50 5411   5.043   7.497   3.159  2.1098  0.3852 -0.4109
   13CHTO   O14 5412   5.110   7.316   3.254 -0.2838 -0.0807 -0.4842
   13CHTO   C23 5413   5.232   7.271   3.194  1.3831 -0.3309  0.0100
   13CHTO   H51 5414   5.226   7.304   3.089 -1.1989 -0.4159  0.0847
   13CHTO   C34 5415   5.220   7.119   3.228  0.1615  0.4265 -0.2098
   13CHTO   O23 5416   5.151   7.052   3.126  0.0174 -0.3179 -0.0213
   13CHTO   H38 5417   5.159   6.960   3.143  0.2423 -0.4056 -0.5826
   13CHTO   O16 5418   4.962   7.459   3.337  0.0554  0.7596 -0.2964
   13CHTO   C24 5419   4.811   7.411   3.256  0.0049 -0.3340 -0.1786
   13CHTO   H52 5420   4.830   7.375   3.155 -0.4843 -0.5224 -0.2060
   13CHTO   C26 5421   4.714   7.535   3.257  0.3130  0.2760  0.4276
   13CHTO   H54 5422   4.702   7.568   3.362 -1.4479 -3.5275  1.4814
   13CHTO   O20 5423   4.776   7.642   3.182  0.7609  0.4329  0.4672
   13CHTO   H36 5424   4.750   7.726   3.213 -1.6039  0.6829 -2.0440
   13CHTO   C30 5425   4.569   7.501   3.206 -0.1596 -0.7072 -0.5513
   13CHTO   H58 5426   4.578   7.477   3.099 -1.0171 -1.6044 -0.4301
   13CHTO    N6 5427   4.473   7.615   3.220 -0.5440  0.4988  0.5179
   13CHTO   H45 5428   4.380   7.595   3.270 -0.9788  1.0728 -0.0560
   13CHTO   H46 5429   4.522   7.702   3.262  1.3947 -0.1215 -0.3928
   13CHTO   C33 5430   4.518   7.370   3.266  0.2695 -0.3561 -0.8580
   13CHTO   H61 5431   4.502   7.388   3.373 -1.6522 -1.1382 -1.0013
   13CHTO   O18 5432   4.620   7.274   3.252  0.5393  0.4125  0.0321
   13CHTO   C28 5433   4.741   7.294   3.329  0.0895  0.2514 -0.0834
   13CHTO   H56 5434   4.704   7.329   3.426  2.1417  0.5966  0.5832
   13CHTO   C35 5435   4.823   7.159   3.345 -0.0555  0.2919 -0.6014
   13CHTO   O24 5436   4.759   7.053   3.408  0.2202 -0.0520 -0.5671
   13CHTO   H39 5437   4.816   6.979   3.418  0.2916  0.3308  2.1546
   13CHTO    O9 5438   4.393   7.329   3.214  0.1060 -0.5801  0.2904
   13CHTO   C13 5439   4.346   7.179   3.281 -0.2222  0.5825 -0.2248
   13CHTO   H26 5440   4.396   7.162   3.379 -0.7167  0.1797 -0.0437
   13CHTO   C11 5441   4.369   7.061   3.175  0.3765 -0.1477  0.7702
   13CHTO   H24 5442   4.478   7.052   3.160  0.2272 -1.4742  0.4647
   13CHTO    O8 5443   4.312   7.105   3.043  0.5330  0.4942  0.1397
   13CHTO    H3 5444   4.219   7.104   3.047  0.4626 -2.2468 -0.8347
   13CHTO    C9 5445   4.308   6.925   3.226 -0.3315 -0.3741 -0.2003
   13CHTO   H22 5446   4.369   6.904   3.315 -0.3067  1.1129  0.1360
   13CHTO    N2 5447   4.337   6.810   3.141  0.0435  0.1090 -0.0876
   13CHTO   H10 5448   4.289   6.828   3.046 -0.8571 -2.4459 -0.1555
   13CHTO   H11 5449   4.443   6.797   3.126 -0.0647 -0.2380 -0.5431
   13CHTO    C7 5450   4.154   6.942   3.262  0.8080 -0.0246 -0.7000
   13CHTO   H20 5451   4.153   6.927   3.372  1.5019 -0.0600 -0.6987
   13CHTO    O4 5452   4.108   7.077   3.234 -0.4410  0.0151 -0.1540
   13CHTO   C14 5453   4.187   7.180   3.300  0.2344  0.5806 -1.0106
   13CHTO   H27 5454   4.162   7.169   3.408  0.9146  0.4207 -0.8669
   13CHTO   C18 5455   4.126   7.320   3.253 -0.2752  0.6519 -0.2643
   13CHTO   O13 5456   3.984   7.314   3.264  0.4855 -0.3029  0.1290
   13CHTO    H7 5457   3.953   7.396   3.297  0.2006 -0.6776  0.8301
   13CHTO    O2 5458   4.039   6.826   3.191  0.3187  0.4079  0.4811
   13CHTO    C1 5459   3.920   6.800   3.278 -0.2872 -0.0809  0.4878
   13CHTO   H14 5460   3.924   6.862   3.370 -1.1079 -1.8391  1.7307
   13CHTO    C2 5461   3.903   6.649   3.317 -1.0186 -0.5485 -0.3490
   13CHTO   H15 5462   3.891   6.592   3.224  3.3525 -1.1514 -0.6372
   13CHTO    O6 5463   4.024   6.606   3.388  0.1031  0.5617  0.2713
   13CHTO    H1 5464   4.057   6.678   3.439  0.2343  1.6568 -1.3420
   13CHTO    C3 5465   3.776   6.629   3.406 -0.1592 -0.2073 -0.3885
   13CHTO   H16 5466   3.793   6.684   3.500  2.3593 -0.5653 -0.5783
   13CHTO    N1 5467   3.757   6.484   3.436 -0.0030 -0.1107 -0.4116
   13CHTO    H8 5468   3.797   6.477   3.536 -1.0530 -2.4202 -0.1184
   13CHTO    H9 5469   3.801   6.420   3.361  1.5149 -1.2814  1.4743
   13CHTO    C4 5470   3.648   6.690   3.335  1.2486  0.1085  0.7459
   13CHTO   H17 5471   3.624   6.625   3.251 -0.5904  1.6253  0.0701
   13CHTO    O1 5472   3.678   6.827   3.298 -0.9022  0.3538  0.0287
   13CHTO    C5 5473   3.788   6.845   3.204 -0.1088 -0.0748  0.4943
   13CHTO   H18 5474   3.767   6.778   3.120 -0.2235 -1.8941  1.9423
   13CHTO   C16 5475   3.780   6.994   3.166 -0.0473 -0.1821 -0.6326
   13CHTO   O11 5476   3.874   7.021   3.058  0.0175 -1.1214  0.2854
   13CHTO    H5 5477   3.842   6.996   2.973  0.1593  0.3352 -0.2133
   13CHTO    O3 5478   3.537   6.701   3.422 -0.6266  0.4994 -0.8312
   13CHTO    C6 5479   3.406   6.716   3.359  0.0143  0.4957 -0.4383
   13CHTO   H19 5480   3.405   6.750   3.255 -2.1769 -1.0197 -0.9675
   13CHTO    C8 5481   3.321   6.577   3.356 -0.6077  0.4782 -0.0314
   13CHTO   H21 5482   3.336   6.526   3.451 -0.3801  1.2630  0.3551
   13CHTO    O7 5483   3.374   6.489   3.251  0.3009 -0.1853  0.0188
   13CHTO    H2 5484   3.455   6.528   3.222  0.8957 -1.3946  0.0260
   13CHTO   C12 5485   3.167   6.616   3.324  0.1696 -0.3307  0.0786
   13CHTO   H25 5486   3.160   6.639   3.215 -0.6380  1.9241  0.5954
   13CHTO    N3 5487   3.082   6.496   3.335 -0.2008  0.1294 -0.0366
   13CHTO   H12 5488   3.147   6.415   3.364 -0.2731  0.9813  2.6312
   13CHTO   H13 5489   2.998   6.505   3.402  0.4525 -1.5970  1.0603
   13CHTO   C15 5490   3.116   6.744   3.402 -0.9664 -0.2373 -0.0571
   13CHTO   H28 5491   3.092   6.710   3.503 -1.3833  0.3604  0.0458
   13CHTO   O10 5492   2.996   6.805   3.338 -0.1866  0.3355  0.2668
   13CHTO    H4 5493   2.961   6.875   3.389  0.4399 -0.7357  2.2166
   13CHTO    O5 5494   3.203   6.849   3.390  0.0439  0.3828  0.8957
   13CHTO   C10 5495   3.336   6.827   3.441  0.2573 -0.9109 -0.3551
   13CHTO   H23 5496   3.317   6.798   3.544  0.2852 -0.3151 -0.1809
   13CHTO   C17 5497   3.404   6.965   3.446 -0.8896  0.8896 -0.6331
   13CHTO   O12 5498   3.360   7.058   3.544 -0.0496 -0.6870  0.2255
   13CHTO    H6 5499   3.383   7.146   3.521 -2.1250 -0.1496  0.0599
   14CHTO  H203 5500   5.646   4.676   0.465 -0.9614 -0.6807  0.4331
   14CHTO   O82 5501   5.640   4.730   0.541  0.0526 -0.1960  0.1724
   14CHTO  C123 5502   5.515   4.696   0.604 -0.3921 -0.2570 -0.2617
   14CHTO  H227 5503   5.532   4.696   0.713  1.0848 -1.9182 -0.4734
   14CHTO   O77 5504   5.415   4.799   0.567 -0.0549 -0.0283 -0.2168
   14CHTO  C118 5505   5.287   4.782   0.631  0.5130  0.3308  0.1506
   14CHTO  H222 5506   5.284   4.762   0.739 -0.2123 -2.1641 -0.2988
   14CHTO  C125 5507   5.202   4.922   0.609  0.5027 -0.4116  0.1805
   14CHTO   O84 5508   5.267   5.037   0.673  0.1929 -0.2272  0.1392
   14CHTO  H205 5509   5.231   5.038   0.760  0.2837  0.8765  0.1655
   14CHTO  C114 5510   5.221   4.652   0.572 -0.6121 -0.1802  0.7020
   14CHTO  H218 5511   5.221   4.658   0.463  1.6717  1.7090  0.7577
   14CHTO  C116 5512   5.314   4.533   0.608 -0.1537  0.4809 -0.0546
   14CHTO  H220 5513   5.318   4.520   0.718  1.5427  1.1799 -0.0212
   14CHTO   O79 5514   5.253   4.410   0.566  0.2600 -0.4635 -0.4702
   14CHTO  H201 5515   5.306   4.333   0.571  0.5918 -0.2291 -0.3671
   14CHTO  C120 5516   5.459   4.553   0.560 -0.2705  0.1635  0.2436
   14CHTO  H224 5517   5.457   4.544   0.450  0.4560 -0.1532  0.2520
   14CHTO   N21 5518   5.549   4.446   0.606 -0.0228 -0.2280 -0.3701
   14CHTO  H211 5519   5.559   4.360   0.543  3.2506  0.3225 -0.7157
   14CHTO  H212 5520   5.541   4.425   0.712 -4.1056 -1.8673 -0.9146
   14CHTO   O75 5521   5.090   4.642   0.630 -0.1089 -0.4919 -0.3172
   14CHTO  C112 5522   4.990   4.568   0.525 -0.4469 -0.2646  0.1225
   14CHTO  H216 5523   5.031   4.476   0.480 -3.3685 -1.4562 -0.2640
   14CHTO   O73 5524   4.948   4.666   0.423 -0.1986  0.5162  0.7662
   14CHTO  C113 5525   4.865   4.606   0.317 -0.0439 -0.7699 -0.1843
   14CHTO  H217 5526   4.915   4.516   0.275  0.9427 -0.3986  0.1771
   14CHTO  C124 5527   4.832   4.711   0.207 -0.9782 -0.0677 -0.5919
   14CHTO   O83 5528   4.792   4.832   0.267  0.6379  0.1347 -0.1310
   14CHTO  H204 5529   4.698   4.836   0.272  0.4917  0.0878 -2.2946
   14CHTO  C109 5530   4.724   4.564   0.375 -0.7887 -0.6275 -0.3451
   14CHTO  H213 5531   4.676   4.660   0.404 -1.8854 -0.7180 -1.8076
   14CHTO  C110 5532   4.759   4.467   0.495 -0.1050  0.1767 -0.2781
   14CHTO  H214 5533   4.806   4.379   0.451  0.8792  0.3209  0.4720
   14CHTO   O78 5534   4.629   4.425   0.540  0.1899  0.1814  0.3843
   14CHTO  H200 5535   4.625   4.391   0.628 -0.7908 -0.0864  0.2370
   14CHTO  C111 5536   4.855   4.535   0.597 -0.1129 -0.3515 -0.0040
   14CHTO  H215 5537   4.804   4.620   0.644  0.4363 -0.4028  0.6873
   14CHTO   N19 5538   4.884   4.438   0.713  0.1099  0.0688  0.1208
   14CHTO  H207 5539   4.790   4.411   0.759 -0.3654 -0.3622 -1.0776
   14CHTO  H208 5540   4.933   4.492   0.792  1.1950  1.4182 -1.4412
   14CHTO   O74 5541   4.646   4.497   0.272  0.3144 -0.3912  0.1314
   14CHTO  C115 5542   4.493   4.565   0.249  0.1055 -0.1482  0.0549
   14CHTO  H219 5543   4.446   4.583   0.346  1.0648 -1.8813  0.8652
   14CHTO   O76 5544   4.499   4.714   0.171 -0.7943  0.1416 -0.4088
   14CHTO  C122 5545   4.512   4.692   0.027 -0.3185  0.5182 -0.0739
   14CHTO  H226 5546   4.614   4.658   0.009 -0.6636 -0.4811 -0.1945
   14CHTO  C126 5547   4.501   4.833  -0.039 -0.0468 -0.0684 -0.5368
   14CHTO   O85 5548   4.592   4.935  -0.001 -0.0871 -0.8281  0.7764
   14CHTO  H206 5549   4.557   5.020  -0.022 -0.5604 -1.3879 -0.7124
   14CHTO  C121 5550   4.405   4.594  -0.034  0.0936  0.0053  0.1906
   14CHTO  H225 5551   4.342   4.657  -0.100 -1.5778  0.3297  2.0393
   14CHTO   O81 5552   4.474   4.491  -0.112  0.1561  0.3615 -0.5297
   14CHTO  H202 5553   4.419   4.417  -0.123  1.3856 -0.4350 -1.5170
   14CHTO  C119 5554   4.312   4.523   0.067  0.2470  0.1281  0.1639
   14CHTO  H223 5555   4.250   4.602   0.111 -0.1040 -0.3686  0.5710
   14CHTO  C117 5556   4.406   4.458   0.170 -0.1297  0.1745  0.4568
   14CHTO  H221 5557   4.477   4.391   0.122  1.4839  1.6184  0.8186
   14CHTO   N20 5558   4.338   4.369   0.271  0.0709 -0.2817 -0.0672
   14CHTO  H209 5559   4.253   4.424   0.308  0.8186  0.1399  1.0547
   14CHTO  H210 5560   4.404   4.330   0.347 -1.7897 -1.9525  0.7489
   14CHTO   O80 5561   4.191   4.431  -0.003 -0.3465 -0.6718 -0.1187
   14CHTO  C103 5562   4.086   4.500  -0.097  0.2110  0.2107 -0.2048
   14CHTO  H190 5563   4.125   4.594  -0.136 -0.6082  0.0522 -1.4335
   14CHTO  C101 5564   4.052   4.399  -0.215  0.2820 -0.2430  0.3175
   14CHTO  H188 5565   4.010   4.308  -0.174 -1.2421  0.8932  1.3486
   14CHTO   O68 5566   4.172   4.378  -0.304  0.0975 -0.4390  0.3350
   14CHTO  H168 5567   4.169   4.295  -0.348 -0.1550 -1.0748  1.5175
   14CHTO   C99 5568   3.933   4.460  -0.316  0.7686  0.4604  0.2197
   14CHTO  H186 5569   3.972   4.548  -0.370  0.8870 -0.4285 -1.1568
   14CHTO   N17 5570   3.880   4.360  -0.420  0.2373 -0.1043  0.1923
   14CHTO  H174 5571   3.941   4.276  -0.452 -0.8656 -0.0734 -2.0961
   14CHTO  H175 5572   3.830   4.413  -0.500 -0.2292 -0.0075  0.5507
   14CHTO   C97 5573   3.817   4.509  -0.236  0.6788 -0.3860  0.1160
   14CHTO  H184 5574   3.751   4.428  -0.203 -0.5049 -0.2216 -1.7984
   14CHTO   O64 5575   3.860   4.591  -0.126 -0.3730 -0.2838  0.3589
   14CHTO  C104 5576   3.942   4.520  -0.032  0.3168 -0.4221 -0.5009
   14CHTO  H191 5577   3.918   4.423   0.013  2.1020 -0.4574  0.3965
   14CHTO  C108 5578   3.956   4.607   0.093  0.1207 -0.0479  0.0925
   14CHTO   O71 5579   4.029   4.542   0.198 -0.5337  0.0583 -0.0742
   14CHTO  H171 5580   4.039   4.588   0.279  1.6511 -1.8641  0.8095
   14CHTO   O62 5581   3.744   4.601  -0.319 -0.0208  0.4664  0.4705
   14CHTO   C91 5582   3.612   4.625  -0.286  0.0530 -0.1359 -0.5062
   14CHTO  H178 5583   3.575   4.549  -0.216  0.8205  0.7004  0.8185
   14CHTO   C92 5584   3.518   4.612  -0.413  0.6329  0.4634  0.7903
   14CHTO  H179 5585   3.545   4.526  -0.476  2.1906  1.7215 -0.3386
   14CHTO   O66 5586   3.378   4.585  -0.374  0.1578  0.4031  0.0034
   14CHTO  H166 5587   3.325   4.571  -0.450  2.4639  1.6156 -1.8945
   14CHTO   C93 5588   3.516   4.746  -0.505 -0.2781 -0.1723  0.4514
   14CHTO  H180 5589   3.431   4.744  -0.574 -1.1017 -1.0487  1.4626
   14CHTO   N16 5590   3.634   4.750  -0.593  0.4622  0.3052 -0.0851
   14CHTO  H172 5591   3.627   4.692  -0.684 -1.2167 -0.4688  0.5193
   14CHTO  H173 5592   3.726   4.726  -0.542  0.1461 -0.0646  0.3107
   14CHTO   C94 5593   3.503   4.875  -0.417 -0.2590 -0.6313 -0.1474
   14CHTO  H181 5594   3.591   4.938  -0.427  0.3748 -1.6647 -1.1297
   14CHTO   O61 5595   3.484   4.851  -0.273 -0.1066  0.3438  0.5619
   14CHTO   C95 5596   3.591   4.767  -0.213  0.1753 -0.3558  0.4015
   14CHTO  H182 5597   3.682   4.826  -0.222  1.3611 -1.8265  2.6164
   14CHTO  C106 5598   3.538   4.766  -0.065  0.3601 -0.4546 -0.4285
   14CHTO   O69 5599   3.414   4.695  -0.063  0.1358 -0.2855 -1.0679
   14CHTO  H169 5600   3.418   4.615  -0.014 -0.0637 -0.1700 -0.8636
   14CHTO   O63 5601   3.380   4.954  -0.481  0.2071  0.1939 -0.7610
   14CHTO   C96 5602   3.398   5.106  -0.455 -0.5260  0.9443  0.6933
   14CHTO  H183 5603   3.504   5.130  -0.447 -0.0288 -0.5984 -0.9986
   14CHTO   C98 5604   3.338   5.167  -0.330 -0.1609 -0.3464 -0.3741
   14CHTO  H185 5605   3.235   5.131  -0.314 -0.3752  0.1996 -0.5442
   14CHTO   O67 5606   3.415   5.123  -0.215  0.2701 -0.1762  0.4246
   14CHTO  H167 5607   3.376   5.160  -0.139 -1.4865 -2.1012  0.5000
   14CHTO  C102 5608   3.339   5.327  -0.319  0.2834  0.3298 -0.2463
   14CHTO  H189 5609   3.447   5.347  -0.315  0.4614 -0.8531  1.3925
   14CHTO   N18 5610   3.276   5.404  -0.210  0.2127  0.4018 -0.2259
   14CHTO  H176 5611   3.273   5.337  -0.125 -3.8099 -2.8550 -2.7173
   14CHTO  H177 5612   3.174   5.427  -0.238 -0.0955 -0.4639  0.1739
   14CHTO  C105 5613   3.308   5.394  -0.461  0.3399  0.1469  0.0885
   14CHTO  H192 5614   3.200   5.399  -0.476  0.4682 -1.1654 -1.3786
   14CHTO   O65 5615   3.370   5.320  -0.570 -0.7243  0.5291  0.0376
   14CHTO  C100 5616   3.345   5.184  -0.578 -0.6709 -0.1642 -0.0859
   14CHTO  H187 5617   3.235   5.177  -0.583 -0.6725  0.3039 -0.7329
   14CHTO  C107 5618   3.402   5.144  -0.715 -0.2361  0.3997 -0.1212
   14CHTO   O70 5619   3.360   5.015  -0.762  0.2862 -0.2783  0.4697
   14CHTO  H170 5620   3.270   5.014  -0.790  0.7326 -1.4629 -0.9511
   14CHTO   O57 5621   3.353   5.573  -0.454 -0.1382  0.1846 -0.0092
   14CHTO   C85 5622   3.477   5.617  -0.511  0.2608 -0.1745 -0.1294
   14CHTO  H157 5623   3.497   5.555  -0.601  0.3845  0.1278 -0.3106
   14CHTO   C83 5624   3.596   5.580  -0.420  0.0421 -0.2575 -0.4527
   14CHTO  H155 5625   3.606   5.471  -0.430  1.4277  0.0361 -2.6787
   14CHTO   O56 5626   3.560   5.621  -0.287 -0.1217  0.1518  0.1153
   14CHTO  H135 5627   3.533   5.556  -0.225 -2.0809 -0.2516 -1.1061
   14CHTO   C81 5628   3.726   5.642  -0.479 -0.0939  0.6821 -0.3711
   14CHTO  H153 5629   3.747   5.592  -0.574  1.3720  1.2901 -0.3917
   14CHTO   N14 5630   3.844   5.605  -0.398  0.6555 -0.3798  0.3089
   14CHTO  H141 5631   3.840   5.505  -0.360  0.5555 -0.2687  0.5847
   14CHTO  H142 5632   3.929   5.609  -0.463  0.1032  0.1959 -0.3958
   14CHTO   C79 5633   3.723   5.799  -0.512  0.4866  0.8297  0.2196
   14CHTO  H151 5634   3.812   5.823  -0.571  0.7326 -0.4553  0.0495
   14CHTO   O52 5635   3.611   5.809  -0.606  0.1771 -0.4375 -0.3112
   14CHTO   C86 5636   3.479   5.773  -0.543  0.2326  0.0966  0.7925
   14CHTO  H158 5637   3.463   5.828  -0.447 -0.5376 -1.8255  1.7921
   14CHTO   C90 5638   3.364   5.816  -0.634  0.2568 -0.5516  0.2108
   14CHTO   O60 5639   3.343   5.955  -0.664  0.1807  0.1150 -0.5739
   14CHTO  H138 5640   3.403   5.987  -0.728  0.2362  0.9585 -0.1060
   14CHTO   O50 5641   3.705   5.877  -0.398  0.5554  0.8547 -0.1252
   14CHTO   C73 5642   3.717   6.002  -0.322 -0.5544 -0.0909 -0.1897
   14CHTO  H145 5643   3.625   6.018  -0.264  0.7174 -0.7315  2.0642
   14CHTO   C74 5644   3.739   6.122  -0.423 -0.4388 -0.0238  0.0088
   14CHTO  H146 5645   3.657   6.107  -0.495  0.4385  0.2452 -1.0665
   14CHTO   O54 5646   3.714   6.246  -0.352 -0.1771  0.6552  0.6960
   14CHTO  H133 5647   3.784   6.267  -0.293  0.4408 -0.7392  0.5114
   14CHTO   C75 5648   3.875   6.111  -0.494 -0.4245 -0.1363 -0.6178
   14CHTO  H147 5649   3.871   6.028  -0.566 -0.2401 -0.7125  0.0291
   14CHTO   N13 5650   3.916   6.223  -0.582  0.3813  0.1390 -0.2862
   14CHTO  H139 5651   3.912   6.322  -0.539 -1.9789 -0.1489  0.2422
   14CHTO  H140 5652   4.018   6.208  -0.613  0.0161  1.4929 -2.2362
   14CHTO   C76 5653   3.985   6.080  -0.383 -0.0034  0.9864  0.4808
   14CHTO  H148 5654   4.011   6.170  -0.328 -0.2108  0.9703  0.6021
   14CHTO   O49 5655   3.957   5.973  -0.294 -0.6924  0.5472 -0.3615
   14CHTO   C77 5656   3.833   5.989  -0.230  0.2716 -0.8812 -0.2736
   14CHTO  H149 5657   3.837   6.082  -0.174 -0.7487 -0.8442 -0.2437
   14CHTO   C88 5658   3.804   5.881  -0.137  0.6874 -0.5617 -0.3816
   14CHTO   O58 5659   3.722   5.937  -0.024  0.0481  0.4406 -0.2220
   14CHTO  H136 5660   3.782   5.988   0.028  1.8524 -2.1401  0.3006
   14CHTO   O51 5661   4.122   6.015  -0.468 -0.6351  0.0658  0.5054
   14CHTO   C78 5662   4.259   6.052  -0.398  0.1388  0.0430  0.7253
   14CHTO  H150 5663   4.237   6.114  -0.309 -1.0768 -0.2080  0.6004
   14CHTO   C80 5664   4.333   6.136  -0.502 -0.0546 -0.7256  0.1050
   14CHTO  H152 5665   4.335   6.078  -0.597 -0.0865 -1.1899  0.3904
   14CHTO   O55 5666   4.261   6.257  -0.524  0.5265  0.1608 -0.1508
   14CHTO  H134 5667   4.252   6.313  -0.449  2.7338  1.0044 -0.4749
   14CHTO   C84 5668   4.481   6.172  -0.459 -0.0695 -1.0596 -0.1969
   14CHTO  H156 5669   4.480   6.248  -0.381 -0.3978 -0.8287 -0.4237
   14CHTO   N15 5670   4.552   6.243  -0.565  0.3226  0.5032  0.6358
   14CHTO  H143 5671   4.640   6.293  -0.532  0.5110  0.4081  0.2748
   14CHTO  H144 5672   4.573   6.183  -0.651 -2.8401  0.4151 -0.1652
   14CHTO   C87 5673   4.546   6.036  -0.423 -0.5639  0.4368 -0.2537
   14CHTO  H159 5674   4.562   5.977  -0.514  1.8575  1.1968 -0.3592
   14CHTO   O53 5675   4.456   5.957  -0.311 -0.3593 -0.1431 -0.5260
   14CHTO   C82 5676   4.331   5.920  -0.370  0.3298  0.0984  0.2312
   14CHTO  H154 5677   4.354   5.873  -0.466  1.6788  2.8471 -0.8619
   14CHTO   C89 5678   4.257   5.819  -0.272  0.0888 -0.2940  0.1479
   14CHTO   O59 5679   4.332   5.702  -0.292 -0.8130 -0.4827  0.2875
   14CHTO  H137 5680   4.295   5.638  -0.349  1.7999 -1.7542  0.0009
   14CHTO   O45 5681   4.685   6.065  -0.362 -0.4790 -0.4382  0.3619
   14CHTO   C67 5682   4.763   5.945  -0.335 -0.1563 -0.0992  0.9479
   14CHTO  H124 5683   4.724   5.911  -0.239  1.0339  1.5697  2.0727
   14CHTO   C65 5684   4.775   5.829  -0.442  0.1254  0.6768 -0.5497
   14CHTO  H122 5685   4.671   5.812  -0.470  0.1733 -1.5142  0.4581
   14CHTO   O44 5686   4.822   5.712  -0.380 -0.0321  0.0981  0.6219
   14CHTO  H102 5687   4.830   5.632  -0.428  0.0297  0.9469 -0.8163
   14CHTO   C63 5688   4.862   5.877  -0.562 -0.6465 -0.2417 -0.9110
   14CHTO  H120 5689   4.819   5.966  -0.609  1.0702 -0.2776 -2.6042
   14CHTO   N11 5690   4.872   5.787  -0.679 -0.3652 -0.0532  0.0675
   14CHTO  H108 5691   4.772   5.753  -0.696 -1.7388  3.6633  0.3837
   14CHTO  H109 5692   4.932   5.702  -0.653  1.5805  1.3630  0.3577
   14CHTO   C61 5693   5.002   5.917  -0.512 -0.7258  0.9354 -0.2063
   14CHTO  H118 5694   5.061   5.958  -0.595  0.1225 -0.7220 -0.4447
   14CHTO   O40 5695   4.990   6.021  -0.416 -0.1722  0.1447 -0.2870
   14CHTO   C68 5696   4.906   6.000  -0.294  0.4836  0.6179 -0.1134
   14CHTO  H125 5697   4.884   6.102  -0.257 -2.0960  0.2226 -0.4821
   14CHTO   C72 5698   4.964   5.917  -0.179  0.0500 -0.5246 -0.5268
   14CHTO   O48 5699   5.091   5.969  -0.141 -0.1021  0.2093 -0.5816
   14CHTO  H105 5700   5.130   5.918  -0.072  0.4349  1.0894 -0.2221
   14CHTO   O38 5701   5.087   5.818  -0.444 -0.1415 -0.2408 -0.7224
   14CHTO   C55 5702   5.204   5.762  -0.499 -0.0088 -0.2268 -0.3454
   14CHTO  H112 5703   5.215   5.810  -0.598 -0.4798  0.9963  0.1885
   14CHTO   C56 5704   5.199   5.608  -0.508  0.2454 -0.2600  0.4573
   14CHTO  H113 5705   5.180   5.573  -0.406 -0.3182 -0.8817  0.1388
   14CHTO   O42 5706   5.085   5.562  -0.580  0.0882 -0.6256  0.5179
   14CHTO  H100 5707   5.091   5.591  -0.669 -0.9595  1.0445  0.9823
   14CHTO   C57 5708   5.334   5.550  -0.570  0.0100 -0.1813 -0.3709
   14CHTO  H114 5709   5.323   5.599  -0.666  0.4793 -0.0870 -0.3772
   14CHTO   N10 5710   5.330   5.404  -0.565  0.6342  0.0829 -0.4123
   14CHTO  H106 5711   5.273   5.372  -0.650  1.9072 -2.2331 -0.4302
   14CHTO  H107 5712   5.430   5.363  -0.572  0.5711 -0.1735  0.1454
   14CHTO   C58 5713   5.457   5.609  -0.496 -0.3444  0.2217  0.4354
   14CHTO  H115 5714   5.458   5.575  -0.390  1.0924 -1.6054 -0.1228
   14CHTO   O37 5715   5.452   5.753  -0.493 -0.5941  0.1661  0.5755
   14CHTO   C59 5716   5.339   5.806  -0.420  0.2458  0.4380 -0.5477
   14CHTO  H116 5717   5.341   5.770  -0.317  0.3147 -0.7884 -0.9779
   14CHTO   C70 5718   5.342   5.958  -0.409 -0.8047  0.7088  0.5400
   14CHTO   O46 5719   5.468   6.002  -0.358  0.3581  0.2555  0.4312
   14CHTO  H103 5720   5.536   6.032  -0.416 -0.3887  2.8018  0.8119
   14CHTO   O39 5721   5.578   5.562  -0.561 -0.0533 -0.4066 -0.5050
   14CHTO   C60 5722   5.704   5.566  -0.491  0.3524  0.0828  0.1765
   14CHTO  H117 5723   5.698   5.647  -0.418 -0.9450 -1.0700  1.3951
   14CHTO   C62 5724   5.731   5.436  -0.417 -0.3711  0.3328  0.1781
   14CHTO  H119 5725   5.643   5.408  -0.356 -1.2562 -1.0812 -1.7355
   14CHTO   O43 5726   5.746   5.325  -0.507  0.2652  0.0838 -0.1351
   14CHTO  H101 5727   5.831   5.322  -0.548 -0.9688 -2.0355 -2.6635
   14CHTO   C66 5728   5.862   5.473  -0.324  0.0659  0.0753 -0.3453
   14CHTO  H123 5729   5.834   5.561  -0.266 -0.5899 -0.9004  0.8172
   14CHTO   N12 5730   5.890   5.365  -0.227  0.6255 -0.7368  0.3863
   14CHTO  H110 5731   5.957   5.288  -0.263  1.0206  0.5375 -1.7084
   14CHTO  H111 5732   5.794   5.324  -0.202 -0.1661  0.3595 -0.7794
   14CHTO   C69 5733   5.987   5.500  -0.412  0.3915  0.1962 -0.1990
   14CHTO  H126 5734   6.028   5.420  -0.477  0.1894 -0.9590  1.0706
   14CHTO   O41 5735   5.946   5.622  -0.500 -0.3747  0.5257 -0.0538
   14CHTO   C64 5736   5.823   5.595  -0.583  0.1424  0.0099  0.0583
   14CHTO  H121 5737   5.846   5.510  -0.651  0.0403 -0.1307  0.2007
   14CHTO   C71 5738   5.782   5.716  -0.661 -0.2118 -0.0439 -0.2512
   14CHTO   O47 5739   5.754   5.825  -0.577 -0.0564 -0.2378  0.3657
   14CHTO  H104 5740   5.688   5.881  -0.614  0.3975 -0.6166 -1.0351
   14CHTO   O34 5741   6.095   5.557  -0.340 -0.2452  0.3199  0.2191
   14CHTO   C49 5742   6.183   5.655  -0.276 -0.4664  0.3504  0.7420
   14CHTO   H91 5743   6.285   5.630  -0.306  0.2033  2.0774  1.4844
   14CHTO   C47 5744   6.168   5.643  -0.124 -0.2965  0.7486  0.1637
   14CHTO   H89 5745   6.255   5.701  -0.086 -0.6358  0.5126  1.3284
   14CHTO   O33 5746   6.191   5.506  -0.084  0.2441 -0.1648  0.4223
   14CHTO   H70 5747   6.261   5.506  -0.021 -0.1260  2.5536  0.9111
   14CHTO   C45 5748   6.028   5.697  -0.069 -0.1662 -0.4861 -0.0156
   14CHTO   H87 5749   5.950   5.620  -0.082 -1.7762  0.8718  1.3665
   14CHTO    N8 5750   6.035   5.725   0.074  0.4277 -0.2279  0.1098
   14CHTO   H75 5751   5.991   5.822   0.093  0.2451 -0.1339 -0.7779
   14CHTO   H76 5752   6.001   5.648   0.141 -2.9575  2.2181  1.3554
   14CHTO   C43 5753   5.974   5.816  -0.167  0.5347  0.1149 -0.1871
   14CHTO   H85 5754   5.918   5.763  -0.245 -0.0399 -0.2121  0.4405
   14CHTO   O29 5755   6.083   5.887  -0.222  0.3063 -0.7084  0.5332
   14CHTO   C50 5756   6.162   5.804  -0.314  0.0651 -0.2959 -0.3273
   14CHTO   H92 5757   6.109   5.804  -0.410  1.2799 -0.7876 -1.0086
   14CHTO   C54 5758   6.294   5.876  -0.345 -0.4398 -0.2495 -0.4545
   14CHTO   O36 5759   6.288   6.012  -0.389  0.7085  0.4761 -0.0601
   14CHTO   H72 5760   6.221   6.026  -0.453 -0.3620 -0.8296  0.7598
   14CHTO   O27 5761   5.873   5.901  -0.114 -0.0975 -0.7945  0.1478
   14CHTO   C37 5762   5.820   6.029  -0.071  0.6004  0.5267 -0.2267
   14CHTO   H79 5763   5.896   6.063   0.001  1.9058 -1.4229 -0.6280
   14CHTO   C38 5764   5.806   6.116  -0.202  0.3016  0.1009 -0.3697
   14CHTO   H80 5765   5.765   6.054  -0.283  0.5238  0.3437 -0.6706
   14CHTO   O31 5766   5.939   6.157  -0.248  0.1187 -0.7921 -0.5122
   14CHTO   H68 5767   5.929   6.198  -0.331  2.7880 -1.1327 -1.0681
   14CHTO   C39 5768   5.714   6.240  -0.166  0.5113  0.1983 -0.5309
   14CHTO   H81 5769   5.782   6.308  -0.114  0.1977 -1.2199  1.8306
   14CHTO    N7 5770   5.658   6.313  -0.286  0.0465  0.6383  0.5598
   14CHTO   H73 5771   5.552   6.337  -0.288 -0.4437 -1.4803 -2.3650
   14CHTO   H74 5772   5.686   6.269  -0.381 -2.4590 -0.7230  0.3948
   14CHTO   C40 5773   5.597   6.217  -0.063 -0.1735 -0.2975 -0.3880
   14CHTO   H82 5774   5.507   6.175  -0.108 -0.4623 -1.5820  1.3424
   14CHTO   O26 5775   5.652   6.140   0.040  0.9674 -0.2950 -0.6286
   14CHTO   C41 5776   5.688   6.007  -0.001  0.5268  0.0508 -0.0245
   14CHTO   H83 5777   5.619   5.966  -0.076 -0.9545  0.7055  0.9723
   14CHTO   C52 5778   5.695   5.910   0.119 -0.0047 -0.5963  0.2604
   14CHTO   O35 5779   5.772   5.947   0.220  0.1106  0.1049 -0.2318
   14CHTO   H71 5780   5.742   6.023   0.266 -0.8658  2.4357 -4.3983
   14CHTO   O28 5781   5.538   6.336   0.004 -0.2345  0.5136 -0.8084
   14CHTO   C42 5782   5.406   6.326   0.070  0.4903  0.0240  0.4072
   14CHTO   H84 5783   5.389   6.415   0.130 -0.3565 -0.2340  0.5667
   14CHTO   C44 5784   5.382   6.199   0.161  0.1312  0.0460 -0.8283
   14CHTO   H86 5785   5.377   6.109   0.101 -2.1431 -1.9294  2.1811
   14CHTO   O32 5786   5.491   6.179   0.254 -0.5524  1.0352  0.3921
   14CHTO   H69 5787   5.560   6.130   0.212  0.0107  0.1984  2.2169
   14CHTO   C48 5788   5.243   6.199   0.234  0.4056  1.0926  0.0475
   14CHTO   H90 5789   5.220   6.287   0.294 -2.9980  0.1248  0.2660
   14CHTO    N9 5790   5.221   6.082   0.331 -0.5216 -0.1507 -0.0362
   14CHTO   H77 5791   5.117   6.086   0.359 -1.0185 -3.0566 -1.2726
   14CHTO   H78 5792   5.238   5.990   0.277  1.1809 -1.9938  3.4686
   14CHTO   C51 5793   5.130   6.206   0.120 -0.0762  0.2272 -0.7637
   14CHTO   H93 5794   5.136   6.114   0.062 -0.7569 -0.1234 -0.2749
   14CHTO   O30 5795   5.165   6.322   0.044  0.3316  0.0965 -0.8133
   14CHTO   C46 5796   5.287   6.326  -0.036  0.0709  0.3782 -0.0896
   14CHTO   H88 5797   5.290   6.234  -0.094  1.5386  0.6740 -0.5189
   14CHTO   C53 5798   5.285   6.467  -0.121  0.3266 -0.3874 -0.1090
   14CHTO   O72 5799   5.159   6.496  -0.186 -0.4026  0.7189  0.0221
   14CHTO  H199 5800   5.146   6.425  -0.247  2.1234  0.3308 -0.1325
   14CHTO   O22 5801   4.993   6.225   0.173  0.0947 -0.3026 -0.2899
   14CHTO   C31 5802   4.880   6.170   0.092  0.1596 -0.1864  0.0188
   14CHTO   H59 5803   4.923   6.148  -0.008 -0.0847  0.4694 -0.2324
   14CHTO   C29 5804   4.835   6.033   0.160  0.0206  0.0993  0.3565
   14CHTO   H57 5805   4.827   6.054   0.268 -1.2810  0.9934  0.0908
   14CHTO   O21 5806   4.941   5.938   0.162 -0.5718  0.3591 -0.3851
   14CHTO   H37 5807   4.944   5.898   0.077 -0.0649  0.8924 -0.6252
   14CHTO   C27 5808   4.701   5.967   0.101  0.1761 -0.8278 -0.3954
   14CHTO   H55 5809   4.720   5.929  -0.001 -2.1776 -1.3235 -0.6913
   14CHTO    N5 5810   4.649   5.853   0.187 -0.0900 -0.1377  0.9671
   14CHTO   H43 5811   4.607   5.775   0.126  1.8268 -1.1859  0.9138
   14CHTO   H44 5812   4.720   5.816   0.260  2.5629  1.3001 -0.8053
   14CHTO   C25 5813   4.594   6.083   0.083  0.5050  0.0224  0.6353
   14CHTO   H53 5814   4.558   6.118   0.180  1.0810 -3.5925  2.2118
   14CHTO   O17 5815   4.649   6.195   0.006 -0.0321  0.1700  0.7735
   14CHTO   C32 5816   4.758   6.272   0.069 -0.1270  0.0240  0.0721
   14CHTO   H60 5817   4.728   6.314   0.165 -0.9824 -2.5215  0.9619
   14CHTO   C36 5818   4.802   6.374  -0.032 -0.1548  0.7944  0.1722
   14CHTO   O25 5819   4.703   6.473  -0.047 -0.0484 -0.5371 -0.3477
   14CHTO   H40 5820   4.727   6.559  -0.018 -1.0750 -0.2398 -0.3601
   14CHTO   O15 5821   4.470   6.039   0.001 -0.1745 -0.1264 -0.7215
   14CHTO   C19 5822   4.333   6.077   0.008 -0.3051  0.1547  0.0769
   14CHTO   H47 5823   4.298   6.035  -0.088 -1.2079 -0.1508  0.5336
   14CHTO   C20 5824   4.239   6.018   0.121  0.0445  0.0669 -0.5937
   14CHTO   H48 5825   4.277   6.044   0.221  2.0924  0.4702 -1.4465
   14CHTO   O19 5826   4.263   5.878   0.117  0.1655 -0.2269  0.3165
   14CHTO   H35 5827   4.355   5.864   0.104  0.1428 -0.8575  0.7745
   14CHTO   C21 5828   4.090   6.068   0.107  0.5379 -0.1344  0.2396
   14CHTO   H49 5829   4.049   6.022   0.017 -0.6854  0.1687  0.6291
   14CHTO    N4 5830   4.001   6.019   0.214  0.4991 -0.5948 -0.3054
   14CHTO   H41 5831   4.006   5.913   0.196 -1.7844 -0.8451  0.4322
   14CHTO   H42 5832   3.899   6.055   0.210  0.8642  0.5660  0.6191
   14CHTO   C22 5833   4.094   6.223   0.092 -0.6606 -0.7546  0.3991
   14CHTO   H50 5834   4.132   6.269   0.183  0.7773 -0.2157 -0.4331
   14CHTO   O14 5835   4.173   6.252  -0.020 -0.0178 -0.2612 -0.1718
   14CHTO   C23 5836   4.317   6.230  -0.003 -0.2530 -0.0129 -0.2752
   14CHTO   H51 5837   4.352   6.284   0.086 -0.3819  1.6350 -1.2155
   14CHTO   C34 5838   4.386   6.291  -0.123  0.3617  0.2876 -0.6727
   14CHTO   O23 5839   4.373   6.434  -0.113  0.3813 -0.4518  0.8575
   14CHTO   H38 5840   4.449   6.479  -0.145  0.0593 -0.6158 -0.1533
   14CHTO   O16 5841   3.964   6.278   0.061  0.2433  0.2224  0.1925
   14CHTO   C24 5842   3.948   6.437   0.042 -0.6877 -0.3731 -0.1574
   14CHTO   H52 5843   3.861   6.469   0.098 -0.8008 -1.9148  0.5787
   14CHTO   C26 5844   3.923   6.451  -0.112  0.0884 -0.4509 -0.2199
   14CHTO   H54 5845   3.993   6.383  -0.166 -0.9207  0.1178 -2.2884
   14CHTO   O20 5846   3.790   6.401  -0.128 -0.3556  0.0218 -0.0403
   14CHTO   H36 5847   3.785   6.308  -0.134 -2.5061  0.0527  0.8251
   14CHTO   C30 5848   3.936   6.593  -0.165  0.6162  0.6309 -0.0277
   14CHTO   H58 5849   3.850   6.650  -0.126 -0.2066 -0.6402  0.0419
   14CHTO    N6 5850   3.937   6.614  -0.316 -0.7077 -0.4374 -0.2620
   14CHTO   H45 5851   4.012   6.555  -0.365 -0.6079  1.2588 -2.2221
   14CHTO   H46 5852   3.962   6.718  -0.332 -1.7353 -0.4113 -1.7818
   14CHTO   C33 5853   4.064   6.665  -0.104  0.3955 -0.0566  0.1645
   14CHTO   H61 5854   4.151   6.607  -0.137  0.0987 -1.0101  1.0257
   14CHTO   O18 5855   4.053   6.654   0.036  0.5516 -0.4550 -0.1368
   14CHTO   C28 5856   4.072   6.524   0.089 -1.0333  0.8997 -0.3550
   14CHTO   H56 5857   4.161   6.485   0.040  0.2642 -0.3332  2.8003
   14CHTO   C35 5858   4.076   6.532   0.248 -0.4161 -0.2082 -0.0412
   14CHTO   O24 5859   3.947   6.583   0.299 -0.1655  0.1280  0.1212
   14CHTO   H39 5860   3.933   6.669   0.265  0.2008 -0.2573 -1.0615
   14CHTO    O9 5861   4.092   6.800  -0.137  1.0367  0.1231 -0.0496
   14CHTO   C13 5862   4.230   6.854  -0.144 -0.1143 -0.0235  0.8434
   14CHTO   H26 5863   4.274   6.795  -0.227  0.5879  1.2820  0.2790
   14CHTO   C11 5864   4.310   6.833  -0.014 -0.3236  0.5175 -0.2246
   14CHTO   H24 5865   4.307   6.725   0.008 -1.0103  0.9841  2.1067
   14CHTO    O8 5866   4.246   6.900   0.096 -0.3961 -0.2930  0.3467
   14CHTO    H3 5867   4.275   6.861   0.176  0.7621  0.3181  0.2335
   14CHTO    C9 5868   4.453   6.876  -0.055  0.3276 -0.2960  0.0304
   14CHTO   H22 5869   4.475   6.827  -0.151  1.6957 -0.1961  0.2895
   14CHTO    N2 5870   4.559   6.823   0.032 -0.4706 -0.1639 -0.1091
   14CHTO   H10 5871   4.525   6.732   0.080 -1.4599  0.5007  0.4765
   14CHTO   H11 5872   4.587   6.902   0.100 -1.0831 -0.1389  0.1194
   14CHTO    C7 5873   4.459   7.034  -0.068  0.5699  0.3587  1.0554
   14CHTO   H20 5874   4.537   7.046  -0.146 -0.9916 -2.5716 -1.0564
   14CHTO    O4 5875   4.331   7.095  -0.113  0.6588  0.1471  0.2837
   14CHTO   C14 5876   4.227   7.012  -0.178  0.6119 -0.3237  0.7903
   14CHTO   H27 5877   4.248   7.031  -0.285 -3.6032 -0.4501 -0.1533
   14CHTO   C18 5878   4.087   7.078  -0.152  0.0736  0.3049 -0.1999
   14CHTO   O13 5879   4.044   7.077  -0.014  0.5952 -0.0202 -0.0342
   14CHTO    H7 5880   4.000   6.996  -0.003  1.1285 -0.2996  0.0590
   14CHTO    O2 5881   4.505   7.109   0.085  0.8211  1.0079 -0.1491
   14CHTO    C1 5882   4.587   7.221   0.071  0.5220 -0.2273 -0.8722
   14CHTO   H14 5883   4.579   7.256  -0.034 -1.5289 -3.0203 -1.6932
   14CHTO    C2 5884   4.745   7.193   0.089  0.3352  0.4187  0.3513
   14CHTO   H15 5885   4.755   7.149   0.190  0.2584  1.5847  0.8698
   14CHTO    O6 5886   4.785   7.093  -0.006  0.3602  0.1516  0.0799
   14CHTO    H1 5887   4.735   7.014   0.004 -1.9686  1.7022  1.3390
   14CHTO    C3 5888   4.837   7.323   0.077 -0.2244 -0.3419 -0.0465
   14CHTO   H16 5889   4.850   7.350  -0.029  0.1119  0.0121  0.0818
   14CHTO    N1 5890   4.977   7.304   0.128 -0.3367 -0.8108  0.2477
   14CHTO    H8 5891   5.007   7.206   0.162  0.8387 -0.6612 -0.3173
   14CHTO    H9 5892   5.049   7.372   0.084  0.4928 -1.2549  0.9026
   14CHTO    C4 5893   4.772   7.451   0.139  0.5580 -0.5768  0.5717
   14CHTO   H17 5894   4.791   7.448   0.247  2.3260 -0.6307  0.2727
   14CHTO    O1 5895   4.628   7.460   0.113 -0.0811  0.6820 -0.8820
   14CHTO    C5 5896   4.555   7.348   0.155  0.2747 -0.2099  0.1155
   14CHTO   H18 5897   4.580   7.319   0.257  0.6605 -2.0958 -0.4806
   14CHTO   C16 5898   4.402   7.390   0.148  0.4422 -0.2109 -0.4713
   14CHTO   O11 5899   4.363   7.494   0.236 -0.2558  0.1558  0.0265
   14CHTO    H5 5900   4.360   7.456   0.322  0.0836 -0.5945 -0.2920
   14CHTO    O3 5901   4.822   7.574   0.082 -0.1234  0.3193  0.4864
   14CHTO    C6 5902   4.810   7.700   0.161 -1.3992 -0.3688  0.5774
   14CHTO   H19 5903   4.747   7.689   0.249 -0.4881 -1.5814  1.0750
   14CHTO    C8 5904   4.956   7.751   0.200  0.0331 -0.3733  0.4425
   14CHTO   H21 5905   5.010   7.759   0.105  2.3063 -3.3255  1.4098
   14CHTO    O7 5906   5.023   7.654   0.282 -0.4103  0.5097 -0.5170
   14CHTO    H2 5907   4.987   7.654   0.369  2.1962  1.0637  0.5917
   14CHTO   C12 5908   4.951   7.892   0.275  0.4841  0.7418 -0.5856
   14CHTO   H25 5909   4.920   7.871   0.380 -0.6289  2.6303 -0.5185
   14CHTO    N3 5910   5.085   7.951   0.306 -0.4821 -0.1417 -0.0256
   14CHTO   H12 5911   5.073   8.044   0.361  1.0694 -0.1867  0.4078
   14CHTO   H13 5912   5.145   7.972   0.218  0.8831  0.6375  1.0705
   14CHTO   C15 5913   4.850   7.986   0.206 -0.3047 -0.4796 -0.0626
   14CHTO   H28 5914   4.888   8.028   0.112  0.2885  0.1091  0.4374
   14CHTO   O10 5915   4.791   8.102   0.300  0.2397 -0.1398 -0.1673
   14CHTO    H4 5916   4.829   8.118   0.384 -0.5185 -0.8612  0.3122
   14CHTO    O5 5917   4.722   7.932   0.166  0.0152 -0.6767 -0.4080
   14CHTO   C10 5918   4.745   7.819   0.084 -0.2070  0.3156 -0.6640
   14CHTO   H23 5919   4.804   7.865   0.005  0.4666  1.3640  0.4337
   14CHTO   C17 5920   4.615   7.775   0.023  0.5146 -0.1750 -0.3819
   14CHTO   O12 5921   4.513   7.742   0.118  0.4863 -0.7061 -0.3354
   14CHTO    H6 5922   4.436   7.728   0.066  1.1131 -3.3109 -0.6092
   15CHTO  H203 5923   5.439   5.080   2.435 -2.4873 -0.6282 -0.7732
   15CHTO   O82 5924   5.456   4.988   2.444 -0.3917 -0.1181  0.6790
   15CHTO  C123 5925   5.407   4.886   2.348 -0.2166  0.2679  0.0358
   15CHTO  H227 5926   5.333   4.937   2.285 -2.6509 -3.0244  0.1232
   15CHTO   O77 5927   5.522   4.864   2.264 -0.4167  0.1667 -0.1833
   15CHTO  C118 5928   5.509   4.818   2.131  0.2729 -0.0564 -0.2132
   15CHTO  H222 5929   5.446   4.888   2.075 -0.2078  0.2542  0.7091
   15CHTO  C125 5930   5.650   4.804   2.063 -0.5508 -0.0913 -0.4170
   15CHTO   O84 5931   5.704   4.931   2.015 -0.2477  0.2737 -0.2926
   15CHTO  H205 5932   5.784   4.918   1.968 -0.1880  0.2172 -0.1773
   15CHTO  C114 5933   5.457   4.671   2.151 -0.0205  1.0696 -0.2246
   15CHTO  H218 5934   5.541   4.610   2.184  1.3512  2.0742 -1.7719
   15CHTO  C116 5935   5.344   4.649   2.259 -0.7454  0.0449 -0.8508
   15CHTO  H220 5936   5.246   4.681   2.219 -1.1871 -0.8971 -0.5364
   15CHTO   O79 5937   5.336   4.512   2.305  0.8965  0.5474 -0.8648
   15CHTO  H201 5938   5.258   4.476   2.266 -0.4552  0.2251  1.9888
   15CHTO  C120 5939   5.367   4.738   2.391  0.8229 -0.4920  0.3972
   15CHTO  H224 5940   5.438   4.685   2.459 -0.3553 -0.6163  1.5569
   15CHTO   N21 5941   5.250   4.732   2.483 -0.5062  0.5002 -0.3084
   15CHTO  H211 5942   5.280   4.741   2.586  5.2081  1.7269 -1.9142
   15CHTO  H212 5943   5.197   4.640   2.462  1.5802 -0.7138 -0.3381
   15CHTO   O75 5944   5.419   4.619   2.021  0.1241 -0.2656  0.6520
   15CHTO  C112 5945   5.427   4.450   2.018 -0.4138  0.8686  0.1914
   15CHTO  H216 5946   5.421   4.404   2.118 -0.8959  0.3491 -0.0727
   15CHTO   O73 5947   5.548   4.419   1.957  0.8378  0.6647  0.1874
   15CHTO  C113 5948   5.580   4.280   1.953  0.4413  0.0097  0.6122
   15CHTO  H217 5949   5.568   4.220   2.046 -2.5643 -0.2811  0.1047
   15CHTO  C124 5950   5.720   4.260   1.890  0.6684  0.8466 -0.2672
   15CHTO   O83 5951   5.800   4.377   1.915 -0.1640 -0.2165  0.2233
   15CHTO  H204 5952   5.890   4.353   1.913  0.4791  2.1541 -0.2014
   15CHTO  C109 5953   5.473   4.207   1.872 -1.1367  0.1409  0.1730
   15CHTO  H213 5954   5.480   4.232   1.765 -0.5042 -1.4894 -0.1881
   15CHTO  C110 5955   5.330   4.234   1.921 -0.3405  0.4325 -0.7130
   15CHTO  H214 5956   5.311   4.182   2.015  0.3504 -1.0221 -1.3691
   15CHTO   O78 5957   5.243   4.166   1.824 -0.1771 -0.0254  0.2430
   15CHTO  H200 5958   5.159   4.147   1.861  1.3843 -1.3956  3.2227
   15CHTO  C111 5959   5.305   4.385   1.934 -0.1917  0.2376  0.3345
   15CHTO  H215 5960   5.309   4.436   1.837 -0.4599 -1.7572 -0.7468
   15CHTO   N19 5961   5.175   4.420   1.993 -0.1924  0.5700  0.3332
   15CHTO  H207 5962   5.167   4.382   2.094 -1.4917 -0.0550  0.0050
   15CHTO  H208 5963   5.155   4.527   1.992  0.6731  0.7443  0.9985
   15CHTO   O74 5964   5.493   4.057   1.883 -0.2904  0.8025 -0.7747
   15CHTO  C115 5965   5.561   3.985   1.761 -0.3376 -0.2681  0.6795
   15CHTO  H219 5966   5.618   4.054   1.700  0.5786 -0.9861  0.7084
   15CHTO   O76 5967   5.684   3.890   1.808  0.0084  0.9824  0.0309
   15CHTO  C122 5968   5.642   3.761   1.853  0.6437  0.2011  0.0427
   15CHTO  H226 5969   5.592   3.771   1.950  0.1564  1.1738 -0.3038
   15CHTO  C126 5970   5.768   3.684   1.891 -0.1599  0.4496 -0.5958
   15CHTO   O85 5971   5.873   3.682   1.794  0.1124  0.3547 -0.1333
   15CHTO  H206 5972   5.945   3.641   1.839 -0.5241  1.9719  2.4740
   15CHTO  C121 5973   5.561   3.682   1.748 -0.0933  0.1145 -0.2121
   15CHTO  H225 5974   5.608   3.590   1.708 -0.5639 -0.5755  0.8043
   15CHTO   O81 5975   5.448   3.621   1.811 -0.5182 -0.3665 -0.4295
   15CHTO  H202 5976   5.472   3.550   1.867 -0.4724  0.2786  0.3957
   15CHTO  C119 5977   5.518   3.772   1.629  0.2072 -0.5469  0.4820
   15CHTO  H223 5978   5.612   3.804   1.584  0.8152  0.3399  2.3213
   15CHTO  C117 5979   5.451   3.903   1.678 -0.4695  0.1423 -0.4712
   15CHTO  H221 5980   5.363   3.891   1.742  0.6546 -0.9271  0.8845
   15CHTO   N20 5981   5.396   3.982   1.570 -0.7149 -0.2557 -0.2500
   15CHTO  H209 5982   5.475   4.009   1.501 -0.7694 -1.4632 -0.8081
   15CHTO  H210 5983   5.331   3.934   1.498 -0.4214 -1.2051  0.1093
   15CHTO   O80 5984   5.430   3.697   1.502 -0.2274  0.1723 -0.5802
   15CHTO  C103 5985   5.434   3.526   1.491  0.0257 -0.4343  0.1134
   15CHTO  H190 5986   5.478   3.482   1.580 -0.0931  2.0098  1.4161
   15CHTO  C101 5987   5.295   3.471   1.470 -0.1589  0.4411  0.2665
   15CHTO  H188 5988   5.239   3.530   1.398 -0.2863 -0.2331 -0.1968
   15CHTO   O68 5989   5.231   3.489   1.602 -0.2998  0.1517  0.8175
   15CHTO  H168 5990   5.148   3.445   1.611 -0.8297  1.4911  2.8206
   15CHTO   C99 5991   5.299   3.315   1.437  0.1749 -1.4723 -0.1698
   15CHTO  H186 5992   5.337   3.267   1.530 -0.4621 -0.0522  0.8605
   15CHTO   N17 5993   5.159   3.250   1.413 -0.0976 -0.7157  0.1979
   15CHTO  H174 5994   5.158   3.182   1.328  0.4357 -1.1392  0.5254
   15CHTO  H175 5995   5.082   3.325   1.409 -1.1296 -1.7647 -0.2680
   15CHTO   C97 5996   5.404   3.291   1.324 -0.0353 -0.2865 -0.1855
   15CHTO  H184 5997   5.361   3.326   1.229  0.4938 -0.0472 -0.3374
   15CHTO   O64 5998   5.530   3.351   1.351 -0.0832 -0.2280  0.6187
   15CHTO  C104 5999   5.533   3.495   1.366 -0.1829  0.1509  0.4061
   15CHTO  H191 6000   5.503   3.544   1.273  1.9769  0.9702  0.1265
   15CHTO  C108 6001   5.678   3.532   1.383  0.0099 -0.7941  0.1497
   15CHTO   O71 6002   5.683   3.673   1.357 -0.2332 -0.1437 -0.6735
   15CHTO  H171 6003   5.624   3.725   1.408  0.6763  1.0455 -0.8077
   15CHTO   O62 6004   5.437   3.152   1.323  0.0092 -0.1422 -0.0024
   15CHTO   C91 6005   5.537   3.106   1.231 -0.3478 -0.1827  0.7198
   15CHTO  H178 6006   5.541   3.176   1.148  3.5329 -0.5005  0.5714
   15CHTO   C92 6007   5.476   2.979   1.165  0.2033 -0.2601  0.3977
   15CHTO  H179 6008   5.373   2.996   1.132  0.4140  2.2417  0.9400
   15CHTO   O66 6009   5.552   2.962   1.040 -0.4722 -0.4367 -0.0076
   15CHTO  H166 6010   5.547   3.044   0.995  0.7752  0.3385  1.2137
   15CHTO   C93 6011   5.481   2.845   1.252  0.0354  0.6779  0.3239
   15CHTO  H180 6012   5.459   2.761   1.184  2.7361 -2.0006  2.5865
   15CHTO   N16 6013   5.372   2.841   1.347  0.4109 -0.1364  0.7218
   15CHTO  H172 6014   5.404   2.761   1.412 -0.1261 -0.5045  0.5390
   15CHTO  H173 6015   5.367   2.929   1.409  1.3316 -0.8029  1.7690
   15CHTO   C94 6016   5.623   2.825   1.302  0.1605 -0.2439  0.7327
   15CHTO  H181 6017   5.626   2.799   1.408 -1.2811  1.0439  1.1026
   15CHTO   O61 6018   5.713   2.934   1.281 -0.5699 -0.5904  0.0973
   15CHTO   C95 6019   5.677   3.071   1.299  0.4352 -0.2272 -0.2408
   15CHTO  H182 6020   5.678   3.095   1.405  1.8996  0.3616 -0.3784
   15CHTO  C106 6021   5.790   3.156   1.233  0.2915  0.5842 -0.2927
   15CHTO   O69 6022   5.802   3.149   1.089 -0.2238 -0.1905 -0.3473
   15CHTO  H169 6023   5.887   3.115   1.066  1.0334  1.7001  1.3935
   15CHTO   O63 6024   5.676   2.696   1.229  0.5385 -0.1034 -0.2025
   15CHTO   C96 6025   5.764   2.607   1.319  0.0416 -0.0379  0.4119
   15CHTO  H183 6026   5.749   2.636   1.423 -1.2901 -0.0212  0.2227
   15CHTO   C98 6027   5.916   2.628   1.290 -0.1524 -0.0393 -0.0915
   15CHTO  H185 6028   5.936   2.597   1.186 -0.1173 -2.3600  0.5698
   15CHTO   O67 6029   5.955   2.768   1.309  0.7039 -0.1042  0.4507
   15CHTO  H167 6030   5.966   2.782   1.401 -0.2696  0.7269  0.4498
   15CHTO  C102 6031   5.997   2.528   1.387 -0.2335 -0.2827 -0.0583
   15CHTO  H189 6032   5.974   2.557   1.490  1.3086  2.2488 -0.3836
   15CHTO   N18 6033   6.144   2.543   1.377  0.3377  0.0254  0.1472
   15CHTO  H176 6034   6.174   2.616   1.303 -1.2066  2.4290  1.7719
   15CHTO  H177 6035   6.174   2.563   1.479 -0.1279 -0.1277  0.3169
   15CHTO  C105 6036   5.946   2.385   1.352 -0.8105  0.0590 -0.2063
   15CHTO  H192 6037   5.950   2.361   1.246 -0.3983 -0.5219 -0.0592
   15CHTO   O65 6038   5.811   2.371   1.381 -0.6222 -0.0966 -0.1756
   15CHTO  C100 6039   5.722   2.462   1.305 -0.4247 -0.9335  0.3803
   15CHTO  H187 6040   5.724   2.426   1.201 -2.8146  1.4064 -0.5192
   15CHTO  C107 6041   5.586   2.445   1.376 -0.0375 -0.7322 -0.0484
   15CHTO   O70 6042   5.587   2.461   1.520 -0.0672  0.8401 -0.4299
   15CHTO  H170 6043   5.649   2.405   1.560 -1.3684  0.0190  0.4636
   15CHTO   O57 6044   6.022   2.263   1.450 -0.2374 -0.5921 -0.7608
   15CHTO   C85 6045   5.990   2.235   1.591 -0.6295 -0.2215  0.5225
   15CHTO  H157 6046   5.945   2.327   1.632 -0.3225  0.2964 -0.2850
   15CHTO   C83 6047   6.119   2.216   1.673  0.2232 -0.3778  0.1042
   15CHTO  H155 6048   6.173   2.310   1.683  0.3223 -0.3428 -0.7059
   15CHTO   O56 6049   6.211   2.145   1.593  0.2347 -0.7254  0.4713
   15CHTO  H135 6050   6.286   2.120   1.644  0.2549 -0.5315  0.5349
   15CHTO   C81 6051   6.095   2.159   1.814  0.7465  0.1285 -0.2905
   15CHTO  H153 6052   6.028   2.231   1.863  1.8539  1.0426 -0.1008
   15CHTO   N14 6053   6.215   2.154   1.903 -0.2469 -0.3531  0.3062
   15CHTO  H141 6054   6.216   2.060   1.954 -0.0001 -0.9055 -0.7047
   15CHTO  H142 6055   6.307   2.172   1.851 -1.1491 -0.1808 -1.2583
   15CHTO   C79 6056   6.021   2.026   1.813 -0.7108  0.0045 -0.8121
   15CHTO  H151 6057   6.024   1.985   1.914  2.3066 -0.0321 -0.8434
   15CHTO   O52 6058   5.885   2.051   1.763 -0.1060 -0.1645  0.5926
   15CHTO   C86 6059   5.897   2.102   1.618  0.1902  0.1385 -0.2174
   15CHTO  H158 6060   5.917   2.016   1.550 -0.0153 -0.7378  0.8240
   15CHTO   C90 6061   5.750   2.147   1.593 -0.3169  0.1977 -0.8931
   15CHTO   O60 6062   5.645   2.053   1.608  0.2187 -0.5974 -0.3351
   15CHTO  H138 6063   5.648   1.996   1.534  1.9829 -0.8309 -0.0914
   15CHTO   O50 6064   6.086   1.934   1.734  0.2152 -0.2544 -0.1411
   15CHTO   C73 6065   6.075   1.789   1.722  0.0608 -1.3768 -0.0528
   15CHTO  H145 6066   5.969   1.760   1.713 -0.3808  0.1772  0.0748
   15CHTO   C74 6067   6.122   1.711   1.851 -0.2374 -0.6847  0.1579
   15CHTO  H146 6068   6.057   1.730   1.938 -1.6801  0.5579 -1.1635
   15CHTO   O54 6069   6.092   1.574   1.819  0.2806 -0.0372 -0.3248
   15CHTO  H133 6070   6.136   1.509   1.870  1.2692  0.7653 -0.1454
   15CHTO   C75 6071   6.276   1.733   1.880  0.1401  0.0116 -0.9127
   15CHTO  H147 6072   6.290   1.841   1.895  0.6489 -0.2025  0.2086
   15CHTO   N13 6073   6.322   1.661   1.996 -0.0639 -0.3938  0.6480
   15CHTO  H139 6074   6.362   1.564   1.969 -0.8960 -0.2985 -0.9550
   15CHTO  H140 6075   6.393   1.721   2.052 -0.4995  0.2859  0.4784
   15CHTO   C76 6076   6.354   1.691   1.742 -0.7585  0.0815 -0.4249
   15CHTO  H148 6077   6.335   1.588   1.713 -2.4199  0.7019 -1.5792
   15CHTO   O49 6078   6.294   1.767   1.619 -0.3666  0.4823  0.2107
   15CHTO   C77 6079   6.155   1.743   1.603  0.0523  0.3101  0.2821
   15CHTO  H149 6080   6.130   1.640   1.576 -0.3488  0.9795 -1.9656
   15CHTO   C88 6081   6.098   1.812   1.478  0.0202 -0.0688  0.2478
   15CHTO   O58 6082   5.980   1.766   1.432 -0.0540 -0.4740 -0.0101
   15CHTO  H136 6083   5.938   1.833   1.381 -0.0446 -1.2181 -0.9956
   15CHTO   O51 6084   6.506   1.740   1.764 -0.7465 -0.1608 -0.3927
   15CHTO   C78 6085   6.606   1.764   1.638  0.2587 -0.3987  0.2842
   15CHTO  H150 6086   6.552   1.788   1.544 -1.2116 -1.3104  0.8771
   15CHTO   C80 6087   6.695   1.636   1.608  0.2912 -0.1359 -1.1404
   15CHTO  H152 6088   6.753   1.616   1.700  1.1958  2.9632 -0.9773
   15CHTO   O55 6089   6.604   1.524   1.597  1.1528 -0.6016 -0.0127
   15CHTO  H134 6090   6.553   1.527   1.519 -0.8430 -1.8304  1.2041
   15CHTO   C84 6091   6.791   1.662   1.495 -0.2584  0.0578  0.2440
   15CHTO  H156 6092   6.730   1.692   1.410 -1.6666  0.0417  1.2433
   15CHTO   N15 6093   6.874   1.543   1.462 -0.3794 -0.1350  0.2161
   15CHTO  H143 6094   6.933   1.558   1.374  0.1267  0.8911  0.7196
   15CHTO  H144 6095   6.800   1.468   1.446  0.1754 -0.6012 -0.2009
   15CHTO   C87 6096   6.875   1.788   1.537 -0.1393 -0.3507  0.2738
   15CHTO  H159 6097   6.929   1.769   1.630  0.9254  0.0200 -0.2724
   15CHTO   O53 6098   6.782   1.909   1.551  0.0839  0.7571  0.4421
   15CHTO   C82 6099   6.690   1.890   1.660 -0.2167 -0.0837 -0.4753
   15CHTO  H154 6100   6.748   1.881   1.752 -0.4570  3.0285  0.0550
   15CHTO   C89 6101   6.596   2.014   1.675 -0.1156 -0.3559  0.0083
   15CHTO   O59 6102   6.655   2.136   1.639 -0.3357 -0.6406 -0.5731
   15CHTO  H137 6103   6.626   2.155   1.552 -3.8425 -0.0993  0.6303
   15CHTO   O45 6104   6.992   1.842   1.437 -0.2295  0.8105 -0.5738
   15CHTO   C67 6105   7.071   1.949   1.482  0.6308  0.2453  0.4017
   15CHTO  H124 6106   7.012   2.024   1.534  0.7097 -2.0029  3.8784
   15CHTO   C65 6107   7.184   1.905   1.585 -0.2481 -0.4848  0.7685
   15CHTO  H122 6108   7.196   1.797   1.569  1.2997 -0.0865 -0.8720
   15CHTO   O44 6109   7.137   1.917   1.724  0.0001  0.1411 -0.0995
   15CHTO  H102 6110   7.208   1.905   1.784  0.8340  1.8954 -0.6935
   15CHTO   C63 6111   7.321   1.965   1.543  0.5577  0.1434 -0.1780
   15CHTO  H120 6112   7.349   1.923   1.446 -1.8194  1.1233 -1.3417
   15CHTO   N11 6113   7.439   1.936   1.634  0.2306 -0.0465 -0.7532
   15CHTO  H108 6114   7.528   1.989   1.606  0.8378 -1.1445 -0.9371
   15CHTO  H109 6115   7.413   1.979   1.729  1.6896 -0.8386  0.0335
   15CHTO   C61 6116   7.303   2.113   1.508 -0.1091  0.3517  0.4854
   15CHTO  H118 6117   7.401   2.160   1.487  0.1309  0.0370  0.9029
   15CHTO   O40 6118   7.226   2.136   1.391  0.0678 -0.2770 -0.7303
   15CHTO   C68 6119   7.123   2.030   1.356  0.2061 -0.1017  0.1683
   15CHTO  H125 6120   7.175   1.963   1.285  1.3092 -0.7926  1.5886
   15CHTO   C72 6121   7.010   2.098   1.282 -0.2138 -0.9771  0.1990
   15CHTO   O48 6122   6.940   2.188   1.368  0.5968  0.8677 -0.5357
   15CHTO  H105 6123   6.973   2.275   1.357 -0.1548  1.2985  0.5802
   15CHTO   O38 6124   7.258   2.191   1.622 -0.0063 -0.0304  0.1463
   15CHTO   C55 6125   7.178   2.309   1.613  0.3168 -0.3314  0.8992
   15CHTO  H112 6126   7.100   2.294   1.537  1.9739 -2.0586 -0.5268
   15CHTO   C56 6127   7.269   2.437   1.577 -0.3248 -0.4604  0.1182
   15CHTO  H113 6128   7.355   2.435   1.646 -0.3473 -1.6321  0.1330
   15CHTO   O42 6129   7.309   2.418   1.443  0.1738  0.0549  0.2356
   15CHTO  H100 6130   7.239   2.459   1.395 -1.2655 -1.9085  0.6283
   15CHTO   C57 6131   7.182   2.571   1.599  0.0992  0.1209 -0.3510
   15CHTO  H114 6132   7.119   2.593   1.512  0.5898  1.2572 -0.4273
   15CHTO   N10 6133   7.266   2.698   1.604  0.4479  0.2488 -0.8644
   15CHTO  H106 6134   7.280   2.742   1.506 -1.8199  0.3280 -1.1784
   15CHTO  H107 6135   7.217   2.773   1.665 -2.0070  0.1390 -2.6195
   15CHTO   C58 6136   7.099   2.564   1.729  0.1391  0.4037  0.0219
   15CHTO  H115 6137   7.170   2.570   1.814  1.0175 -1.5686 -0.5339
   15CHTO   O37 6138   7.028   2.442   1.749  0.0783  0.3286  0.4760
   15CHTO   C59 6139   7.098   2.323   1.746 -0.1146 -0.5213 -0.3122
   15CHTO  H116 6140   7.165   2.326   1.831 -0.5835 -1.0849  0.0822
   15CHTO   C70 6141   7.000   2.207   1.770 -0.0679 -0.3154 -0.5116
   15CHTO   O46 6142   6.976   2.197   1.910  0.1005  0.0236 -0.0173
   15CHTO  H103 6143   6.936   2.114   1.930 -1.9635  0.3629 -2.4710
   15CHTO   O39 6144   6.985   2.681   1.733  0.0885 -0.7642 -0.3218
   15CHTO   C60 6145   6.903   2.699   1.618 -0.5281  0.7686  0.2513
   15CHTO  H117 6146   6.954   2.715   1.523 -1.4361  1.8064 -0.0749
   15CHTO   C62 6147   6.801   2.585   1.597 -0.0583  0.2118 -0.2622
   15CHTO  H119 6148   6.861   2.493   1.579 -0.3753 -0.6889  2.9335
   15CHTO   O43 6149   6.730   2.565   1.719 -0.1531  0.4430 -0.3299
   15CHTO  H101 6150   6.665   2.632   1.732 -1.5083 -1.1348  1.2953
   15CHTO   C66 6151   6.714   2.623   1.469 -0.0919 -0.3415  0.1074
   15CHTO  H123 6152   6.777   2.650   1.385  1.1041  0.9535  1.3992
   15CHTO   N12 6153   6.634   2.516   1.414 -0.1437  0.4275 -0.2480
   15CHTO  H110 6154   6.548   2.496   1.477 -1.5465  1.3617 -1.8213
   15CHTO  H111 6155   6.701   2.432   1.409  1.2180  1.4730  0.2539
   15CHTO   C69 6156   6.620   2.746   1.512 -0.1419 -0.5538  0.0094
   15CHTO  H126 6157   6.563   2.710   1.600  0.5755 -1.7846 -0.0168
   15CHTO   O41 6158   6.718   2.865   1.544 -0.4123  0.1701  0.2991
   15CHTO   C64 6159   6.831   2.834   1.651 -0.5886  0.5214  0.7513
   15CHTO  H121 6160   6.780   2.821   1.749 -3.0049  1.6195 -0.2982
   15CHTO   C71 6161   6.921   2.950   1.670  0.3853  1.0524 -0.0017
   15CHTO   O47 6162   6.845   3.057   1.727 -0.0418 -0.2177 -1.0209
   15CHTO  H104 6163   6.873   3.141   1.698 -1.6565  1.9147  3.1318
   15CHTO   O34 6164   6.522   2.793   1.393  0.0080 -0.1573  0.1932
   15CHTO   C49 6165   6.545   2.812   1.242 -0.1972 -0.2116 -0.0639
   15CHTO   H91 6166   6.605   2.732   1.199 -0.1534 -0.6643  0.8108
   15CHTO   C47 6167   6.609   2.947   1.215 -0.2972 -0.3014 -0.3476
   15CHTO   H89 6168   6.632   2.946   1.106  0.1420 -0.4401 -0.2546
   15CHTO   O33 6169   6.736   2.951   1.284 -0.6178  0.3811  0.4547
   15CHTO   H70 6170   6.774   3.036   1.289 -0.6857  0.6224 -2.3450
   15CHTO   C45 6171   6.510   3.059   1.257  0.2220  0.5720  0.4012
   15CHTO   H87 6172   6.481   3.051   1.363 -0.9206  1.4675  0.1660
   15CHTO    N8 6173   6.574   3.192   1.245 -0.0655 -0.0494 -0.3147
   15CHTO   H75 6174   6.625   3.239   1.328 -3.6922  2.2006  0.7567
   15CHTO   H76 6175   6.637   3.200   1.158  1.3085 -1.9892  0.4581
   15CHTO   C43 6176   6.370   3.050   1.169  0.0009 -0.1706 -0.3162
   15CHTO   H85 6177   6.305   3.131   1.201  0.1418 -0.7052  1.3894
   15CHTO   O29 6178   6.309   2.919   1.182  0.3301  0.6148  1.1690
   15CHTO   C50 6179   6.407   2.814   1.170  0.3046 -0.2037 -0.0623
   15CHTO   H92 6180   6.365   2.717   1.199  0.0360  0.0374  0.3615
   15CHTO   C54 6181   6.432   2.782   1.020 -0.4331 -0.2939 -0.4284
   15CHTO   O36 6182   6.310   2.737   0.956 -0.3465 -0.2160 -0.3152
   15CHTO   H72 6183   6.280   2.673   1.018  2.6927  0.4459  1.9804
   15CHTO   O27 6184   6.392   3.078   1.029  0.1895  0.5512  0.5999
   15CHTO   C37 6185   6.323   3.142   0.916  0.3276 -0.5387 -0.2884
   15CHTO   H79 6186   6.286   3.066   0.846 -1.1938  0.0786 -0.1684
   15CHTO   C38 6187   6.196   3.231   0.972 -0.1606  0.2731 -0.8279
   15CHTO   H80 6188   6.234   3.294   1.054  2.3182 -0.4667 -1.3617
   15CHTO   O31 6189   6.105   3.128   1.029 -0.2879 -0.4054  0.7172
   15CHTO   H68 6190   6.036   3.165   1.080 -1.3990 -4.4464  2.4138
   15CHTO   C39 6191   6.132   3.320   0.859  0.0482 -0.1482 -0.1290
   15CHTO   H81 6192   6.091   3.254   0.784  0.8023  0.0471 -0.7203
   15CHTO    N7 6193   6.031   3.415   0.917  0.0996 -0.3182 -0.4329
   15CHTO   H73 6194   5.932   3.383   0.889 -0.3277  0.0785  0.5688
   15CHTO   H74 6195   6.045   3.513   0.874 -0.1340 -0.1096 -0.0354
   15CHTO   C40 6196   6.246   3.400   0.784  0.2849  0.5430 -0.6916
   15CHTO   H82 6197   6.290   3.487   0.833 -1.9112  1.2649  0.0456
   15CHTO   O26 6198   6.345   3.309   0.741  0.0391  0.3643 -0.9126
   15CHTO   C41 6199   6.419   3.238   0.847  0.2457  0.2547 -0.9533
   15CHTO   H83 6200   6.455   3.313   0.919 -0.2534  0.2164 -0.6605
   15CHTO   C52 6201   6.544   3.165   0.789  0.7116 -0.4478  0.2642
   15CHTO   O35 6202   6.502   3.083   0.684  0.4825  0.5130 -0.2089
   15CHTO   H71 6203   6.559   3.009   0.685  1.6238  1.3920  0.9858
   15CHTO   O28 6204   6.189   3.451   0.667 -0.7823 -0.3310 -0.2816
   15CHTO   C42 6205   6.228   3.576   0.611  0.1486  0.5393 -0.7757
   15CHTO   H84 6206   6.219   3.562   0.503  0.2155  0.3784 -0.7605
   15CHTO   C44 6207   6.375   3.622   0.630 -0.1410 -0.5204 -0.0767
   15CHTO   H86 6208   6.404   3.612   0.735  1.0972  1.2400 -0.2208
   15CHTO   O32 6209   6.461   3.524   0.554  0.2313  0.3852 -0.2264
   15CHTO   H69 6210   6.551   3.537   0.576  0.1810 -1.3454  1.0742
   15CHTO   C48 6211   6.412   3.771   0.597  0.3823  0.6269 -1.3739
   15CHTO   H90 6212   6.416   3.786   0.490  0.4806  0.5982 -1.3745
   15CHTO    N9 6213   6.544   3.812   0.644  0.0080 -0.4378  0.0822
   15CHTO   H77 6214   6.573   3.910   0.611 -1.4225  0.5120  1.5244
   15CHTO   H78 6215   6.563   3.802   0.750  0.6067  4.1286  0.5013
   15CHTO   C51 6216   6.301   3.869   0.647  0.3504  0.7521 -0.0584
   15CHTO   H93 6217   6.294   3.867   0.756 -0.5652 -1.6649 -0.1367
   15CHTO   O30 6218   6.181   3.825   0.585 -0.2384  0.0707 -0.0730
   15CHTO   C46 6219   6.131   3.692   0.650 -0.4285 -0.5978 -0.2475
   15CHTO   H88 6220   6.130   3.689   0.759  1.5342 -0.3343 -0.2124
   15CHTO   C53 6221   5.991   3.658   0.590  0.7193  0.4310 -0.0173
   15CHTO   O72 6222   5.888   3.748   0.639  0.0018 -0.6101 -0.3001
   15CHTO  H199 6223   5.807   3.701   0.648 -0.7350  0.0993 -2.8959
   15CHTO   O22 6224   6.316   3.997   0.592  0.0959  0.1695 -0.2441
   15CHTO   C31 6225   6.226   4.112   0.638 -0.0654  0.1681  0.4801
   15CHTO   H59 6226   6.253   4.201   0.578  1.4037 -0.6179 -0.0535
   15CHTO   C29 6227   6.076   4.089   0.611 -0.1952 -0.3852 -0.4316
   15CHTO   H57 6228   6.046   4.014   0.685  0.9537 -2.9641 -2.4932
   15CHTO   O21 6229   6.063   4.024   0.481  0.4935 -0.1003  0.8025
   15CHTO   H37 6230   6.005   3.950   0.487  2.4532 -1.6242  1.4946
   15CHTO   C27 6231   5.997   4.223   0.631  0.4262  1.2652 -0.1343
   15CHTO   H55 6232   6.035   4.305   0.569 -2.2290  1.3136 -1.7281
   15CHTO    N5 6233   5.852   4.204   0.613  0.5035  0.4475  0.2784
   15CHTO   H43 6234   5.805   4.295   0.649 -1.1832 -0.3020  0.0221
   15CHTO   H44 6235   5.815   4.120   0.669  1.0910 -0.6327 -0.9504
   15CHTO   C25 6236   6.018   4.268   0.780  0.6341 -0.1272 -0.1643
   15CHTO   H53 6237   5.987   4.185   0.845 -0.6702 -0.2710 -0.9468
   15CHTO   O17 6238   6.164   4.275   0.813 -0.1690 -0.4792 -0.1487
   15CHTO   C32 6239   6.237   4.154   0.783  0.4019  1.0344  0.1686
   15CHTO   H60 6240   6.198   4.076   0.848 -1.0862  1.4705 -0.1890
   15CHTO   C36 6241   6.383   4.173   0.827  0.1035 -0.4991  0.1237
   15CHTO   O25 6242   6.389   4.171   0.969 -0.4544  0.8647 -0.2884
   15CHTO   H40 6243   6.366   4.254   1.005  1.7612  1.0592  0.7242
   15CHTO   O15 6244   5.955   4.410   0.809  0.0457 -0.0669 -0.6602
   15CHTO   C19 6245   5.959   4.486   0.927 -0.1952 -0.5368  0.1189
   15CHTO   H47 6246   6.059   4.463   0.966 -0.1324  1.0567  0.9259
   15CHTO   C20 6247   5.948   4.636   0.900 -0.8760  0.5370 -0.0092
   15CHTO   H48 6248   5.854   4.664   0.852 -0.3099 -0.2651 -1.6371
   15CHTO   O19 6249   6.063   4.677   0.814  0.1830  0.4462 -0.2036
   15CHTO   H35 6250   6.056   4.643   0.727  0.4616 -1.2823  0.4461
   15CHTO   C21 6251   5.956   4.710   1.039  0.5090 -0.2698 -0.5010
   15CHTO   H49 6252   6.056   4.696   1.081  0.2086  0.5753  0.5339
   15CHTO    N4 6253   5.945   4.857   1.037 -0.2669 -0.4719 -0.1486
   15CHTO   H41 6254   6.041   4.888   0.998 -1.2043  1.8004 -0.7455
   15CHTO   H42 6255   5.939   4.900   1.136 -1.6875  0.5764 -0.6782
   15CHTO   C22 6256   5.854   4.654   1.146  0.0419  0.1208 -0.6380
   15CHTO   H50 6257   5.752   4.677   1.116 -0.6607 -1.6801  0.2864
   15CHTO   O14 6258   5.864   4.512   1.160 -0.6881 -0.0358 -0.1722
   15CHTO   C23 6259   5.854   4.439   1.037 -0.0093 -0.0185 -0.0272
   15CHTO   H51 6260   5.750   4.463   1.009 -0.3588 -0.0308  1.2121
   15CHTO   C34 6261   5.858   4.287   1.073 -0.0595 -0.1203 -0.2804
   15CHTO   O23 6262   5.997   4.257   1.118 -0.5059 -0.1512  0.5418
   15CHTO   H38 6263   5.999   4.178   1.167 -2.5035 -0.7205 -0.2485
   15CHTO   O16 6264   5.872   4.690   1.289 -0.1340  0.3037  0.2143
   15CHTO   C24 6265   6.000   4.623   1.376 -0.6264 -0.4218  0.6336
   15CHTO   H52 6266   6.075   4.582   1.308 -0.1850 -1.0056  1.4618
   15CHTO   C26 6267   5.959   4.504   1.465  0.7025 -0.4848 -0.3098
   15CHTO   H54 6268   5.893   4.545   1.543 -0.2476 -0.0315 -1.3296
   15CHTO   O20 6269   5.907   4.396   1.386 -0.0028 -0.1510 -0.9471
   15CHTO   H36 6270   5.953   4.405   1.305 -1.9554 -0.5218 -2.1335
   15CHTO   C30 6271   6.082   4.455   1.546  0.5407 -0.4961  0.6615
   15CHTO   H58 6272   6.163   4.422   1.479 -0.3838  0.0902 -0.7794
   15CHTO    N6 6273   6.042   4.340   1.634  0.0484 -0.2156 -0.0047
   15CHTO   H45 6274   6.068   4.249   1.581  1.7324 -0.0899  0.5960
   15CHTO   H46 6275   5.938   4.335   1.663 -0.8419  3.4242 -2.2489
   15CHTO   C33 6276   6.152   4.569   1.630 -0.2363 -0.3235  0.3194
   15CHTO   H61 6277   6.094   4.616   1.710 -0.0328  0.2632  0.1224
   15CHTO   O18 6278   6.181   4.672   1.535  0.3469 -0.4111  0.1291
   15CHTO   C28 6279   6.071   4.729   1.465 -0.0083  0.3563 -0.6334
   15CHTO   H56 6280   5.997   4.771   1.534 -1.2338 -1.6159 -0.7053
   15CHTO   C35 6281   6.124   4.848   1.380  0.6713 -0.4993  0.5523
   15CHTO   O24 6282   6.230   4.822   1.299 -0.4189 -0.2491 -0.1003
   15CHTO   H39 6283   6.207   4.795   1.212  1.4533  2.2029 -1.3998
   15CHTO    O9 6284   6.274   4.514   1.687 -0.3823  0.5479  0.3780
   15CHTO   C13 6285   6.348   4.612   1.811 -0.9384 -0.8511  0.3822
   15CHTO   H26 6286   6.260   4.623   1.878 -0.9677  0.2901  0.1773
   15CHTO   C11 6287   6.397   4.753   1.754  0.4628 -0.3863  0.1973
   15CHTO   H24 6288   6.312   4.814   1.721 -0.2698 -1.5121 -0.0278
   15CHTO    O8 6289   6.503   4.738   1.649  0.1209  0.6778 -0.7628
   15CHTO    H3 6290   6.542   4.653   1.661 -2.3400 -0.5684 -1.2515
   15CHTO    C9 6291   6.457   4.844   1.866  0.3889 -0.1718  0.4919
   15CHTO   H22 6292   6.375   4.862   1.936 -0.4720  3.3501 -1.2975
   15CHTO    N2 6293   6.497   4.984   1.826  0.0365  0.0882  0.0535
   15CHTO   H10 6294   6.533   5.045   1.907 -1.7955  0.0819  0.8907
   15CHTO   H11 6295   6.582   4.977   1.759  1.1545  0.6437  1.3932
   15CHTO    C7 6296   6.581   4.763   1.938 -0.2527  0.0947  0.3547
   15CHTO   H20 6297   6.587   4.810   2.038 -0.5370  1.3412 -0.2010
   15CHTO    O4 6298   6.569   4.617   1.948  0.1836 -0.4953 -0.3022
   15CHTO   C14 6299   6.460   4.534   1.892 -0.4777 -0.7256 -1.2252
   15CHTO   H27 6300   6.425   4.494   1.989  1.3548  0.7191  0.0788
   15CHTO   C18 6301   6.527   4.432   1.808 -0.7199  0.9828 -0.3251
   15CHTO   O13 6302   6.458   4.316   1.811  0.4698 -0.1094 -0.5798
   15CHTO    H7 6303   6.477   4.289   1.899  1.7762  2.1680 -0.1225
   15CHTO    O2 6304   6.710   4.798   1.859 -0.5631 -0.0261  0.5476
   15CHTO    C1 6305   6.830   4.791   1.934  0.5362 -0.5399 -0.3560
   15CHTO   H14 6306   6.817   4.717   2.016 -0.0595 -1.6949 -1.4619
   15CHTO    C2 6307   6.885   4.933   1.982  0.0227  0.2575  0.0871
   15CHTO   H15 6308   6.912   4.988   1.890  1.4758 -0.1950  0.2289
   15CHTO    O6 6309   6.781   5.003   2.055  0.3210  0.3721  0.0389
   15CHTO    H1 6310   6.735   4.941   2.108 -0.3881  1.1638  0.3563
   15CHTO    C3 6311   7.018   4.916   2.064  0.5335  0.4264  0.2529
   15CHTO   H16 6312   7.006   4.862   2.159  0.9539  1.6250  0.9949
   15CHTO    N1 6313   7.066   5.050   2.103  0.1660  0.6339  0.1507
   15CHTO    H8 6314   6.993   5.094   2.169 -2.5076 -1.4439 -1.3315
   15CHTO    H9 6315   7.164   5.067   2.146  0.9353  0.4957 -1.4790
   15CHTO    C4 6316   7.123   4.831   1.973 -0.0109  0.8884  0.5050
   15CHTO   H17 6317   7.153   4.891   1.888  0.2279 -1.6185 -1.2411
   15CHTO    O1 6318   7.061   4.706   1.929  0.0926 -0.0967  0.4600
   15CHTO    C5 6319   6.945   4.733   1.849  0.7977  0.0078  0.2514
   15CHTO   H18 6320   6.971   4.799   1.767 -1.1530  0.4211 -0.0557
   15CHTO   C16 6321   6.918   4.595   1.781  0.5355 -0.3604 -0.4742
   15CHTO   O11 6322   6.867   4.510   1.885 -0.2863  0.1119 -0.2516
   15CHTO    H5 6323   6.844   4.431   1.840  0.8635 -0.1575 -0.3763
   15CHTO    O3 6324   7.236   4.786   2.049  0.1051  0.8854  0.0787
   15CHTO    C6 6325   7.364   4.743   1.991 -0.3376  0.6732 -0.8084
   15CHTO   H19 6326   7.407   4.665   2.054 -0.7337  0.7485 -0.4440
   15CHTO    C8 6327   7.348   4.659   1.855  0.2818 -0.0192  0.6394
   15CHTO   H21 6328   7.276   4.713   1.793 -0.5344 -2.3020 -0.4839
   15CHTO    O7 6329   7.292   4.536   1.893 -0.4208 -0.3279  0.0639
   15CHTO    H2 6330   7.252   4.485   1.825 -0.2954 -0.4796  0.1022
   15CHTO   C12 6331   7.489   4.621   1.791 -0.1975  0.3011 -0.5750
   15CHTO   H25 6332   7.543   4.547   1.853  4.9117  3.6568 -0.7521
   15CHTO    N3 6333   7.475   4.544   1.655  0.4024 -0.4644  0.0243
   15CHTO   H12 6334   7.392   4.596   1.609  0.0776  0.2762  1.4026
   15CHTO   H13 6335   7.441   4.443   1.669 -1.2876  0.0373 -0.2719
   15CHTO   C15 6336   7.579   4.755   1.789 -0.0307 -0.1050  0.7029
   15CHTO   H28 6337   7.538   4.831   1.722  1.5066 -0.2547 -0.4433
   15CHTO   O10 6338   7.730   4.718   1.745 -1.1621 -0.2025  0.3345
   15CHTO    H4 6339   7.742   4.672   1.664  1.7811  2.2927 -0.7777
   15CHTO    O5 6340   7.594   4.802   1.922  0.3914 -0.6221 -0.0997
   15CHTO   C10 6341   7.472   4.854   1.975  0.0860  0.0568 -0.0917
   15CHTO   H23 6342   7.440   4.930   1.902 -0.2347  1.3376  1.3605
   15CHTO   C17 6343   7.498   4.921   2.102  0.6032  0.3034 -0.2582
   15CHTO   O12 6344   7.402   5.022   2.127  0.2266 -0.5079  0.3626
   15CHTO    H6 6345   7.432   5.061   2.207  1.4905 -0.4911 -0.0971
   16CHTO  H203 6346   4.537   4.187   0.583 -0.5718  0.3753  0.3886
   16CHTO   O82 6347   4.482   4.126   0.627  0.1777 -0.3115  0.3850
   16CHTO  C123 6348   4.539   4.060   0.733 -0.0135  0.0010 -0.2835
   16CHTO  H227 6349   4.480   3.969   0.749 -0.3272  0.4040  0.9044
   16CHTO   O77 6350   4.671   4.025   0.689 -0.3017  0.1896 -0.1070
   16CHTO  C118 6351   4.760   3.951   0.778  1.0269  0.5798  0.4741
   16CHTO  H222 6352   4.702   3.863   0.811  0.4061  1.1641  0.9476
   16CHTO  C125 6353   4.883   3.903   0.693 -0.0890 -1.2079 -0.1720
   16CHTO   O84 6354   4.961   4.017   0.656  0.0101  0.5958 -0.2233
   16CHTO  H205 6355   4.940   4.051   0.571 -0.3240  0.8257 -0.0460
   16CHTO  C114 6356   4.785   4.029   0.907 -0.1282 -0.0161  0.2873
   16CHTO  H218 6357   4.848   4.114   0.882 -0.5238  0.4341  0.8289
   16CHTO  C116 6358   4.652   4.074   0.967  1.1572  0.3163 -0.2143
   16CHTO  H220 6359   4.601   3.983   1.005 -0.1327 -0.7211 -4.1126
   16CHTO   O79 6360   4.685   4.150   1.083 -0.0247  0.4605  0.5499
   16CHTO  H201 6361   4.619   4.130   1.146 -0.5611 -0.4959 -0.3015
   16CHTO  C120 6362   4.559   4.154   0.866 -0.4254 -0.0839  0.5440
   16CHTO  H224 6363   4.628   4.234   0.832  0.5717 -0.0565  2.5780
   16CHTO   N21 6364   4.430   4.206   0.913 -0.0314 -0.6817  0.0363
   16CHTO  H211 6365   4.385   4.139   0.985 -0.4829 -1.5764 -1.0708
   16CHTO  H212 6366   4.366   4.235   0.831  0.5266 -1.2435 -0.6025
   16CHTO   O75 6367   4.860   3.940   0.986 -0.2072 -0.1226 -0.3935
   16CHTO  C112 6368   5.001   4.002   1.063 -0.7554 -0.1966 -0.1236
   16CHTO  H216 6369   4.983   4.096   1.117 -0.3857  0.5279 -1.2377
   16CHTO   O73 6370   5.095   4.019   0.953  0.6377  0.4922 -0.6511
   16CHTO  C113 6371   5.226   4.071   0.988 -0.0212  0.0059  0.0102
   16CHTO  H217 6372   5.197   4.166   1.037  1.8778  0.6718 -0.1095
   16CHTO  C124 6373   5.302   4.119   0.865  0.1573  0.0516 -0.3041
   16CHTO   O83 6374   5.212   4.216   0.800 -0.6862  0.0631 -0.1086
   16CHTO  H204 6375   5.224   4.220   0.707  1.8201  0.8358  0.2141
   16CHTO  C109 6376   5.303   3.969   1.079 -0.1683  0.2813 -0.2406
   16CHTO  H213 6377   5.336   3.885   1.016  2.5763  0.2182  1.1928
   16CHTO  C110 6378   5.201   3.931   1.200  0.2495 -0.6835  0.3519
   16CHTO  H214 6379   5.196   4.021   1.261  1.5572 -0.6127  0.3802
   16CHTO   O78 6380   5.266   3.824   1.274  0.3895  0.9923  0.3709
   16CHTO  H200 6381   5.236   3.823   1.363  1.4574 -2.2546  0.7561
   16CHTO  C111 6382   5.056   3.891   1.158 -0.1686  0.1217  0.4888
   16CHTO  H215 6383   5.067   3.801   1.095  0.7020  0.4757  0.1133
   16CHTO   N19 6384   4.963   3.856   1.264 -0.3749  0.5144 -0.8840
   16CHTO  H207 6385   4.873   3.800   1.243  0.7120 -1.6592  0.0778
   16CHTO  H208 6386   5.009   3.787   1.334  0.2352  1.6221 -0.1734
   16CHTO   O74 6387   5.427   4.025   1.134 -0.1452 -0.5321 -0.1049
   16CHTO  C115 6388   5.547   3.900   1.165 -0.3256  0.5884  0.1712
   16CHTO  H219 6389   5.521   3.839   1.251  1.4357  1.8145  1.6010
   16CHTO   O76 6390   5.553   3.787   1.047 -0.4180 -0.7013  0.0636
   16CHTO  C122 6391   5.637   3.828   0.934  0.3132 -0.3079 -1.1537
   16CHTO  H226 6392   5.599   3.916   0.881 -2.4585 -0.2028  0.8480
   16CHTO  C126 6393   5.631   3.712   0.829 -0.0494  0.2315  0.2914
   16CHTO   O85 6394   5.649   3.581   0.884 -0.3959 -0.0736 -0.9779
   16CHTO  H206 6395   5.739   3.556   0.895 -0.1437  0.1769 -2.3839
   16CHTO  C121 6396   5.785   3.854   0.983 -0.1472  0.4897  0.6254
   16CHTO  H225 6397   5.853   3.771   0.952 -0.1458  0.7031  0.0470
   16CHTO   O81 6398   5.837   3.966   0.913 -0.5555  0.2015  0.3455
   16CHTO  H202 6399   5.917   3.996   0.951 -0.9828 -0.4380  1.7521
   16CHTO  C119 6400   5.802   3.878   1.138  0.7082  1.0467  0.3465
   16CHTO  H223 6401   5.776   3.789   1.195 -1.6130  0.8950 -0.8846
   16CHTO  C117 6402   5.685   3.973   1.186 -0.6724  0.4768  0.4856
   16CHTO  H221 6403   5.674   4.066   1.129 -1.4991 -0.7961 -1.4648
   16CHTO   N20 6404   5.699   4.013   1.332  0.2455  0.0258  0.1769
   16CHTO  H209 6405   5.794   4.063   1.347 -0.4187  1.4906 -0.5281
   16CHTO  H210 6406   5.702   3.932   1.404  1.4146 -1.7075 -1.7398
   16CHTO   O80 6407   5.954   3.912   1.195 -0.0443  0.2211  0.9853
   16CHTO  C103 6408   6.057   3.806   1.187  0.5881 -0.0424 -0.0707
   16CHTO  H190 6409   6.021   3.709   1.152 -0.3389  0.0785  0.5206
   16CHTO  C101 6410   6.180   3.825   1.101 -0.1056 -0.0500  0.2380
   16CHTO  H188 6411   6.224   3.914   1.147  1.1414  0.9536 -2.7576
   16CHTO   O68 6412   6.121   3.858   0.949 -0.4445  0.0359  0.2043
   16CHTO  H168 6413   6.192   3.889   0.895 -1.2614 -1.3945 -1.7088
   16CHTO   C99 6414   6.281   3.698   1.123 -0.1700  0.0289  0.2313
   16CHTO  H186 6415   6.225   3.608   1.090 -0.2769  0.8420 -1.8502
   16CHTO   N17 6416   6.411   3.707   1.054 -1.0248 -0.4442  0.3073
   16CHTO  H174 6417   6.442   3.607   1.030 -0.6032 -0.4606  0.8862
   16CHTO  H175 6418   6.410   3.762   0.961 -0.9750  1.9780  1.6940
   16CHTO   C97 6419   6.307   3.676   1.277 -0.2353  0.5219 -0.3136
   16CHTO  H184 6420   6.378   3.753   1.312  0.9106 -1.4894  1.9902
   16CHTO   O64 6421   6.184   3.680   1.355 -0.4200  0.2080 -0.4517
   16CHTO  C104 6422   6.099   3.791   1.338  0.4674  0.2691 -0.4348
   16CHTO  H191 6423   6.141   3.886   1.371 -0.8260  1.1173 -1.1570
   16CHTO  C108 6424   5.991   3.760   1.440 -0.3778  0.5155  0.0916
   16CHTO   O71 6425   6.045   3.731   1.568  0.4302  0.1665 -0.5498
   16CHTO  H171 6426   5.988   3.674   1.615 -0.5937  0.1525 -1.7765
   16CHTO   O62 6427   6.358   3.542   1.298  0.7068 -0.5612  0.0307
   16CHTO   C91 6428   6.382   3.503   1.432 -0.2501  0.2368 -0.0070
   16CHTO  H178 6429   6.339   3.580   1.496 -1.4604 -0.3981 -0.0469
   16CHTO   C92 6430   6.540   3.502   1.467  0.5456 -0.2920 -0.0096
   16CHTO  H179 6431   6.602   3.443   1.397 -0.4111  0.4157 -1.4762
   16CHTO   O66 6432   6.597   3.635   1.450  0.1818  0.0095 -0.3276
   16CHTO  H166 6433   6.546   3.686   1.390  0.5198 -0.3113 -0.8977
   16CHTO   C93 6434   6.564   3.456   1.608  0.6138  0.5123 -0.2354
   16CHTO  H180 6435   6.531   3.533   1.679 -0.5570 -0.9089  0.7728
   16CHTO   N16 6436   6.708   3.434   1.645  0.7678 -0.7165  0.2392
   16CHTO  H172 6437   6.749   3.393   1.554 -1.9879 -0.8119 -1.0121
   16CHTO  H173 6438   6.746   3.535   1.654  1.8327 -1.1976  1.3142
   16CHTO   C94 6439   6.477   3.323   1.642  0.1226 -0.5389  0.9202
   16CHTO  H181 6440   6.514   3.240   1.582  2.7590  1.7329 -0.7214
   16CHTO   O61 6441   6.336   3.334   1.602  0.0536  0.8433 -0.2253
   16CHTO   C95 6442   6.325   3.360   1.464 -0.3218 -0.1852  0.0579
   16CHTO  H182 6443   6.379   3.287   1.404  0.8784  0.8318 -0.1161
   16CHTO  C106 6444   6.172   3.345   1.429  0.4504 -0.0810 -0.6033
   16CHTO   O69 6445   6.136   3.321   1.291 -0.2398  0.8026  0.0698
   16CHTO  H169 6446   6.133   3.404   1.249 -1.6600  0.3026 -0.8404
   16CHTO   O63 6447   6.488   3.287   1.784 -0.1007 -0.1967 -0.3365
   16CHTO   C96 6448   6.403   3.172   1.842  0.4453  0.3384  0.3208
   16CHTO  H183 6449   6.457   3.144   1.932  0.8073  1.0593  0.3318
   16CHTO   C98 6450   6.392   3.043   1.753  0.1384  0.5678 -0.3606
   16CHTO  H185 6451   6.383   3.077   1.648 -1.1431  1.5393  0.0543
   16CHTO   O67 6452   6.511   2.966   1.765  0.2094 -0.0085  0.4903
   16CHTO  H167 6453   6.574   3.014   1.815 -1.2387  3.0830 -0.5502
   16CHTO  C102 6454   6.270   2.946   1.782 -0.0352 -0.2038  0.2445
   16CHTO  H189 6455   6.289   2.903   1.881  3.7564  0.3213 -0.1977
   16CHTO   N18 6456   6.255   2.829   1.689 -0.1866 -0.1987  0.0184
   16CHTO  H176 6457   6.290   2.733   1.725  0.3255 -1.6143 -3.9797
   16CHTO  H177 6458   6.313   2.868   1.606  2.2694 -1.3680  1.1420
   16CHTO  C105 6459   6.148   3.043   1.789 -0.3479  0.5307  0.8692
   16CHTO  H192 6460   6.139   3.097   1.695 -0.8474 -2.5659 -0.9422
   16CHTO   O65 6461   6.158   3.138   1.899 -0.8875  0.2492 -0.6043
   16CHTO  C100 6462   6.263   3.236   1.884  0.3954 -0.2822 -0.2621
   16CHTO  H187 6463   6.236   3.301   1.799  0.6263 -0.2106 -0.2815
   16CHTO  C107 6464   6.259   3.325   2.011 -0.3095 -0.4612  0.2607
   16CHTO   O70 6465   6.278   3.246   2.128  0.1313  0.3957  0.2076
   16CHTO  H170 6466   6.366   3.247   2.160  0.0204  0.3405  0.5159
   16CHTO   O57 6467   6.025   2.975   1.809 -0.1185  0.1315 -0.0462
   16CHTO   C85 6468   5.903   3.020   1.743 -0.3792 -0.0614  0.3560
   16CHTO  H157 6469   5.939   3.036   1.639  0.3011  1.3544  0.8027
   16CHTO   C83 6470   5.861   3.162   1.789 -0.0468  0.2110 -0.3304
   16CHTO  H155 6471   5.943   3.228   1.762 -1.2642  2.1244  0.5310
   16CHTO   O56 6472   5.858   3.171   1.931 -0.1022  0.2071 -0.0893
   16CHTO  H135 6473   5.777   3.140   1.966 -0.1877 -0.3785 -0.8188
   16CHTO   C81 6474   5.735   3.205   1.714  0.5736  0.3397  0.1585
   16CHTO  H153 6475   5.755   3.204   1.607 -0.8506 -0.1086 -0.1152
   16CHTO   N14 6476   5.695   3.344   1.745 -0.3277  0.7468  0.0970
   16CHTO  H141 6477   5.774   3.416   1.752  2.1144 -1.9286  0.9180
   16CHTO  H142 6478   5.619   3.361   1.818 -0.5601 -2.3717  0.6567
   16CHTO   C79 6479   5.615   3.109   1.747  0.1756 -0.2903 -0.2554
   16CHTO  H151 6480   5.529   3.136   1.685 -0.4303 -1.6742 -0.0410
   16CHTO   O52 6481   5.651   2.968   1.715  0.3593 -0.1084 -0.4071
   16CHTO   C86 6482   5.783   2.918   1.756  0.3605 -0.6843  0.1316
   16CHTO  H158 6483   5.760   2.892   1.861  1.0409  0.1852  0.4989
   16CHTO   C90 6484   5.807   2.786   1.685 -0.0973 -0.0316 -0.1703
   16CHTO   O60 6485   5.696   2.695   1.707 -0.9473  0.3762 -0.4034
   16CHTO  H138 6486   5.710   2.627   1.643 -1.6625  1.3938 -1.6661
   16CHTO   O50 6487   5.561   3.116   1.884 -0.0333 -0.2897  0.2635
   16CHTO   C73 6488   5.471   3.038   1.967  1.0213  0.4616  0.0785
   16CHTO  H145 6489   5.501   2.933   1.959 -0.9417 -0.0149 -1.0505
   16CHTO   C74 6490   5.326   3.045   1.903  0.1797 -0.6248 -0.3413
   16CHTO  H146 6491   5.332   3.006   1.800 -0.6179 -0.1338 -0.5768
   16CHTO   O54 6492   5.248   2.942   1.969  0.4599 -0.8416 -0.3288
   16CHTO  H133 6493   5.164   2.945   1.926 -0.0420  0.0056  0.6589
   16CHTO   C75 6494   5.265   3.194   1.908 -0.3743 -0.4556 -0.1100
   16CHTO  H147 6495   5.325   3.263   1.847 -1.5540  0.9191  0.2326
   16CHTO   N13 6496   5.123   3.209   1.865 -0.4641  0.1733 -0.1144
   16CHTO  H139 6497   5.102   3.292   1.799 -2.9388 -0.3564 -0.0141
   16CHTO  H140 6498   5.059   3.197   1.951 -0.0693  2.1923  0.5011
   16CHTO   C76 6499   5.284   3.246   2.061  0.3711  0.3239  0.0841
   16CHTO  H148 6500   5.207   3.206   2.127 -1.8036  1.8737 -1.4633
   16CHTO   O49 6501   5.415   3.220   2.124  0.6833  0.2734 -0.3777
   16CHTO   C77 6502   5.469   3.086   2.109 -0.5068  0.6389 -0.0812
   16CHTO  H149 6503   5.404   3.022   2.169 -0.4713  0.9665  0.3088
   16CHTO   C88 6504   5.611   3.080   2.168 -0.2831 -0.8790  0.2438
   16CHTO   O58 6505   5.630   3.114   2.283 -0.1213 -0.5485  0.0366
   16CHTO  H136 6506   5.608   3.204   2.293 -0.8035 -0.3021 -3.2651
   16CHTO   O51 6507   5.272   3.420   2.063  0.3762 -0.3708  0.5317
   16CHTO   C78 6508   5.261   3.466   2.197 -0.3736 -0.8664 -0.1207
   16CHTO  H150 6509   5.276   3.392   2.278  0.6011  0.6421  1.1075
   16CHTO   C80 6510   5.120   3.533   2.218 -0.2263  0.0797 -1.1184
   16CHTO  H152 6511   5.100   3.593   2.128 -2.2817 -1.4300 -1.7213
   16CHTO   O55 6512   5.021   3.425   2.230  0.0981 -0.2592  0.4519
   16CHTO  H134 6513   5.020   3.370   2.154 -1.0910  2.7356 -1.7905
   16CHTO   C84 6514   5.117   3.622   2.352  0.0750 -0.3671 -0.2530
   16CHTO  H156 6515   5.122   3.557   2.439 -2.2475  1.0479  0.9790
   16CHTO   N15 6516   4.996   3.711   2.361 -0.2108 -0.1281 -0.0118
   16CHTO  H143 6517   4.909   3.649   2.362  0.6643 -1.3765  0.1641
   16CHTO  H144 6518   4.994   3.761   2.455 -1.9376 -1.1826  0.5198
   16CHTO   C87 6519   5.247   3.711   2.366 -0.1136  0.7334 -0.5707
   16CHTO  H159 6520   5.245   3.796   2.297 -1.0901  0.4895 -0.8470
   16CHTO   O53 6521   5.362   3.631   2.352  0.3291  0.3146  0.0443
   16CHTO   C82 6522   5.378   3.569   2.220  0.7525 -0.2004 -0.4545
   16CHTO  H154 6523   5.385   3.645   2.142  0.9085 -0.6603 -0.8883
   16CHTO   C89 6524   5.508   3.490   2.225 -0.4855 -0.4278  0.6771
   16CHTO   O59 6525   5.618   3.570   2.266 -0.0392 -0.2240  0.2539
   16CHTO  H137 6526   5.702   3.529   2.273 -0.0646 -0.2804  0.2339
   16CHTO   O45 6527   5.254   3.771   2.503  0.6204 -0.2747  0.1004
   16CHTO   C67 6528   5.336   3.891   2.509 -0.4204 -0.0708 -0.2933
   16CHTO  H124 6529   5.427   3.872   2.452 -1.0463 -1.3480 -0.8915
   16CHTO   C65 6530   5.266   4.022   2.457  0.3750 -0.0183  0.5220
   16CHTO  H122 6531   5.160   4.000   2.460  0.4104 -0.3401 -0.4442
   16CHTO   O44 6532   5.296   4.029   2.315  0.2443 -0.1025  0.1759
   16CHTO  H102 6533   5.271   4.111   2.276  0.2429  1.1746  2.7883
   16CHTO   C63 6534   5.290   4.154   2.539 -0.4179  0.2408  0.6787
   16CHTO  H120 6535   5.239   4.143   2.635 -1.7159  0.4088  0.0290
   16CHTO   N11 6536   5.215   4.274   2.494  0.5077  0.3851  0.1995
   16CHTO  H108 6537   5.148   4.246   2.416  1.6915 -1.0915 -0.3272
   16CHTO  H109 6538   5.279   4.351   2.459  0.2200 -0.3626 -2.0872
   16CHTO   C61 6539   5.439   4.159   2.567 -0.7178 -0.2122  1.3077
   16CHTO  H118 6540   5.462   4.253   2.620 -0.0071  1.0265 -1.1207
   16CHTO   O40 6541   5.477   4.048   2.650 -0.3089 -0.2182 -0.4962
   16CHTO   C68 6542   5.389   3.931   2.659 -1.1799  0.0155 -0.2054
   16CHTO  H125 6543   5.300   3.946   2.723 -0.5337  1.4421  0.3643
   16CHTO   C72 6544   5.457   3.811   2.716  0.0550  0.6442  0.5416
   16CHTO   O48 6545   5.461   3.821   2.857 -0.7174 -0.0150  0.0210
   16CHTO  H105 6546   5.492   3.743   2.898  2.3832  0.5200 -1.1573
   16CHTO   O38 6547   5.507   4.157   2.439  0.0474  0.2748 -0.3536
   16CHTO   C55 6548   5.647   4.185   2.441 -0.1471  0.2426  0.4179
   16CHTO  H112 6549   5.688   4.172   2.543  2.0907  3.6728  0.0145
   16CHTO   C56 6550   5.670   4.333   2.386  0.2401 -0.2120 -0.5168
   16CHTO  H113 6551   5.627   4.335   2.285 -1.3774 -0.1487  0.1454
   16CHTO   O42 6552   5.604   4.434   2.461  0.0687 -0.6225 -0.0895
   16CHTO  H100 6553   5.629   4.521   2.436 -0.8847 -0.5396 -0.8216
   16CHTO   C57 6554   5.832   4.369   2.375  0.2046  0.1146  0.4329
   16CHTO  H114 6555   5.872   4.370   2.476  3.6124 -0.3140 -0.8445
   16CHTO   N10 6556   5.851   4.503   2.304  0.0720  0.4931 -0.5972
   16CHTO  H106 6557   5.764   4.525   2.245 -0.5800  0.4751  0.3457
   16CHTO  H107 6558   5.857   4.573   2.386  0.6364  0.4188 -0.5748
   16CHTO   C58 6559   5.901   4.257   2.299 -0.3124  0.1809  0.5475
   16CHTO  H115 6560   5.867   4.259   2.194 -1.0165 -0.0176  0.7695
   16CHTO   O37 6561   5.868   4.129   2.350 -0.8650 -0.1254 -0.3856
   16CHTO   C59 6562   5.732   4.098   2.345  0.4619 -0.1553 -0.2635
   16CHTO  H116 6563   5.698   4.124   2.245 -3.4021  0.7839  1.2065
   16CHTO   C70 6564   5.720   3.944   2.371  0.1293  0.0321  0.0210
   16CHTO   O46 6565   5.789   3.866   2.274 -0.7766  0.3863  0.1414
   16CHTO  H103 6566   5.822   3.791   2.321 -2.3081 -0.0366  0.5727
   16CHTO   O39 6567   6.073   4.279   2.323 -0.4917  0.6550 -0.0175
   16CHTO   C60 6568   6.153   4.183   2.252 -0.9709  0.8150 -0.1145
   16CHTO  H117 6569   6.143   4.085   2.298  1.8711  0.8677  0.6960
   16CHTO   C62 6570   6.121   4.172   2.100  0.1546 -0.4374  0.0576
   16CHTO  H119 6571   6.023   4.136   2.063  0.8811  0.7939 -3.2168
   16CHTO   O43 6572   6.128   4.307   2.044  1.3279 -0.3786  0.3708
   16CHTO  H101 6573   6.143   4.289   1.953  1.5919 -1.4195  0.6105
   16CHTO   C66 6574   6.236   4.088   2.023  1.0731  0.2290 -0.1694
   16CHTO  H123 6575   6.224   3.986   2.060 -0.7262  0.8731  1.0968
   16CHTO   N12 6576   6.230   4.076   1.871 -0.6873  0.1729 -0.5708
   16CHTO  H110 6577   6.250   4.168   1.818 -2.0946  1.4714  1.1425
   16CHTO  H111 6578   6.135   4.034   1.842 -1.0887  1.9875 -2.0197
   16CHTO   C69 6579   6.372   4.129   2.075 -0.0914  0.3761 -0.1596
   16CHTO  H126 6580   6.419   4.217   2.027 -0.4135 -0.1005 -1.3803
   16CHTO   O41 6581   6.379   4.138   2.224  0.4409 -0.5157  0.3118
   16CHTO   C64 6582   6.303   4.223   2.277  0.0579 -0.5717 -0.5309
   16CHTO  H121 6583   6.323   4.321   2.230  0.8409 -0.7648 -0.5983
   16CHTO   C71 6584   6.324   4.236   2.438  0.0878  0.3098  0.2601
   16CHTO   O47 6585   6.451   4.284   2.469 -0.3075  0.2811  0.5254
   16CHTO  H104 6586   6.438   4.362   2.520 -2.1078  0.1439  0.3241
   16CHTO   O34 6587   6.465   4.000   2.043  0.4144  0.6672  0.3438
   16CHTO   C49 6588   6.568   3.919   2.007 -0.6726 -0.4074  0.8171
   16CHTO   H91 6589   6.607   3.876   2.099  4.9856 -0.1041 -1.2314
   16CHTO   C47 6590   6.674   4.007   1.936 -0.0819  1.0978 -0.1726
   16CHTO   H89 6591   6.714   4.074   2.015  0.0708  1.0974 -0.2492
   16CHTO   O33 6592   6.623   4.087   1.833 -0.4550  0.1452 -0.6956
   16CHTO   H70 6593   6.684   4.151   1.802  1.4705 -0.0767  2.3759
   16CHTO   C45 6594   6.795   3.913   1.870  0.3731  0.3415  0.7742
   16CHTO   H87 6595   6.791   3.922   1.760 -1.4373  1.4397  0.9151
   16CHTO    N8 6596   6.925   3.959   1.920 -1.0582  0.1111 -0.2423
   16CHTO   H75 6597   6.931   3.985   2.024 -1.7492 -2.1254  0.3800
   16CHTO   H76 6598   6.959   4.041   1.858  2.3555  1.0591  2.7535
   16CHTO   C43 6599   6.766   3.754   1.894 -0.7555 -0.0441  0.3788
   16CHTO   H85 6600   6.844   3.690   1.852 -2.2677 -0.2770 -2.1536
   16CHTO   O29 6601   6.635   3.722   1.850  0.4896 -0.7307  0.0846
   16CHTO   C50 6602   6.524   3.801   1.911  0.0742 -0.2017 -1.0415
   16CHTO   H92 6603   6.477   3.850   1.824  0.9707 -1.0576 -2.0397
   16CHTO   C54 6604   6.419   3.687   1.954  1.0325 -0.1713  0.0427
   16CHTO   O36 6605   6.304   3.759   1.989  0.3489  0.2295 -0.0180
   16CHTO   H72 6606   6.236   3.696   2.006 -1.2414  2.3340  1.6595
   16CHTO   O27 6607   6.769   3.724   2.037 -0.3619  0.5430 -0.0109
   16CHTO   C37 6608   6.809   3.618   2.122 -0.0821  0.1675 -0.2559
   16CHTO   H79 6609   6.826   3.658   2.223  2.1834  0.4044 -0.6986
   16CHTO   C38 6610   6.691   3.513   2.140 -0.2701 -1.0176  1.4890
   16CHTO   H80 6611   6.651   3.494   2.040 -1.7057  0.5353  1.7540
   16CHTO   O31 6612   6.588   3.578   2.204  0.6114  0.0853 -0.1306
   16CHTO   H68 6613   6.513   3.523   2.211 -0.8428  2.0881  0.7429
   16CHTO   C39 6614   6.740   3.380   2.212  0.4135  0.2801  0.1686
   16CHTO   H81 6615   6.763   3.408   2.314 -0.6299  0.0445  0.4750
   16CHTO    N7 6616   6.634   3.272   2.208 -0.0761  1.0634  0.0236
   16CHTO   H73 6617   6.615   3.254   2.103  0.5687 -0.7121  0.1877
   16CHTO   H74 6618   6.539   3.312   2.241 -0.8947  0.5587 -1.6378
   16CHTO   C40 6619   6.875   3.325   2.167 -0.5806  0.7270  0.0377
   16CHTO   H82 6620   6.871   3.274   2.071 -0.4965  1.3748 -0.3174
   16CHTO   O26 6621   6.972   3.434   2.171  0.0062 -0.2200  0.5715
   16CHTO   C41 6622   6.929   3.533   2.071 -0.1934  0.0159 -0.6218
   16CHTO   H83 6623   6.903   3.476   1.981  1.5152 -1.3803 -0.2558
   16CHTO   C52 6624   7.053   3.622   2.040  0.8508  0.9547 -0.4990
   16CHTO   O35 6625   7.162   3.537   2.001  0.0719 -0.1618 -0.0350
   16CHTO   H71 6626   7.219   3.508   2.070  2.2162  1.8205 -0.9146
   16CHTO   O28 6627   6.934   3.234   2.268  0.5451 -0.2583 -0.3991
   16CHTO   C42 6628   6.977   3.094   2.239  0.3638  0.2794  0.4052
   16CHTO   H84 6629   7.044   3.079   2.323 -0.4936 -1.7763  0.7267
   16CHTO   C44 6630   7.062   3.080   2.105  0.2651 -0.4763 -0.2747
   16CHTO   H86 6631   6.995   3.102   2.022  2.8624  0.3860 -2.2098
   16CHTO   O32 6632   7.171   3.170   2.113 -0.3022 -0.1678 -0.0209
   16CHTO   H69 6633   7.242   3.146   2.057 -0.0387  0.4834  0.0266
   16CHTO   C48 6634   7.104   2.928   2.085  0.2475 -0.8689 -0.0221
   16CHTO   H90 6635   7.166   2.897   2.169  0.8731  0.3676 -0.0205
   16CHTO    N9 6636   7.180   2.909   1.958  0.0084 -0.0093 -0.8210
   16CHTO   H77 6637   7.154   2.969   1.872 -0.3473 -0.0060 -0.7109
   16CHTO   H78 6638   7.285   2.925   1.979 -0.1793 -0.7360  0.6852
   16CHTO   C51 6639   6.980   2.836   2.104  0.5987  0.4490  0.4895
   16CHTO   H93 6640   6.907   2.873   2.031 -1.3670  0.6082  2.4583
   16CHTO   O30 6641   6.933   2.849   2.237  0.7596 -0.2623 -0.6733
   16CHTO   C46 6642   6.867   2.982   2.260  0.5354 -0.1802  0.1398
   16CHTO   H88 6643   6.785   3.002   2.191 -1.4698 -1.6066  2.0581
   16CHTO   C53 6644   6.809   3.002   2.404 -0.3082 -0.1257 -0.6706
   16CHTO   O72 6645   6.708   2.900   2.420 -0.1488  0.0623 -0.0042
   16CHTO  H199 6646   6.679   2.897   2.509 -1.3685 -0.7648 -0.4155
   16CHTO   O22 6647   6.999   2.691   2.092  0.4873 -0.2130 -0.3224
   16CHTO   C31 6648   6.910   2.589   2.141 -0.6949 -0.6429 -0.3560
   16CHTO   H59 6649   6.873   2.626   2.239  0.1181 -0.9405  0.0679
   16CHTO   C29 6650   6.789   2.564   2.047 -0.1192 -0.1757  0.0769
   16CHTO   H57 6651   6.828   2.531   1.949 -0.2231 -1.2129  0.3745
   16CHTO   O21 6652   6.717   2.683   2.039 -0.6110 -0.5500 -0.2069
   16CHTO   H37 6653   6.751   2.745   1.977 -3.0231  0.2567 -0.7818
   16CHTO   C27 6654   6.700   2.447   2.109  0.4154  0.8086 -0.3911
   16CHTO   H55 6655   6.651   2.494   2.195  2.0366  3.9796 -1.1094
   16CHTO    N5 6656   6.596   2.410   2.010  0.6306  0.3988 -0.1384
   16CHTO   H43 6657   6.647   2.401   1.915  0.6865 -1.1502  0.0212
   16CHTO   H44 6658   6.544   2.322   2.043  1.2376 -0.1180 -0.5418
   16CHTO   C25 6659   6.773   2.315   2.162  0.1314  0.1689  0.0751
   16CHTO   H53 6660   6.811   2.260   2.075 -1.6405  0.5192 -0.9478
   16CHTO   O17 6661   6.885   2.356   2.231  0.0286 -0.0518  0.0291
   16CHTO   C32 6662   6.984   2.454   2.176  0.5519 -0.6741 -0.6151
   16CHTO   H60 6663   7.033   2.419   2.085  2.2821  2.1604 -0.8410
   16CHTO   C36 6664   7.093   2.472   2.281 -0.5325 -0.7718 -0.3646
   16CHTO   O25 6665   7.203   2.556   2.248  0.0901 -0.6756  0.7792
   16CHTO   H40 6666   7.235   2.610   2.318  0.4019  0.8152 -0.4828
   16CHTO   O15 6667   6.694   2.240   2.252 -0.3522 -0.6054 -0.3818
   16CHTO   C19 6668   6.564   2.180   2.294  0.1048 -0.0728  0.3347
   16CHTO   H47 6669   6.582   2.134   2.392 -3.2489 -1.5819  0.3154
   16CHTO   C20 6670   6.457   2.294   2.316  0.2878 -0.3886 -0.0532
   16CHTO   H48 6671   6.428   2.344   2.223 -0.1795 -1.0147 -0.2475
   16CHTO   O19 6672   6.526   2.392   2.396 -0.1905  0.4005 -0.3926
   16CHTO   H35 6673   6.478   2.473   2.392  1.8477  1.6646 -0.1938
   16CHTO   C21 6674   6.330   2.228   2.377 -0.7050 -0.2157 -0.2354
   16CHTO   H49 6675   6.351   2.175   2.470 -1.4872  0.2644  0.2262
   16CHTO    N4 6676   6.215   2.317   2.402 -0.4007  0.0282 -0.1668
   16CHTO   H41 6677   6.195   2.326   2.508  0.6701 -4.3197  0.4717
   16CHTO   H42 6678   6.247   2.415   2.368  0.3002 -0.1005  0.1231
   16CHTO   C22 6679   6.285   2.114   2.281 -0.0060  0.4645 -0.2337
   16CHTO   H50 6680   6.256   2.164   2.189 -0.0974  0.1221 -0.3911
   16CHTO   O14 6681   6.393   2.015   2.264  0.1618  0.1383 -0.1040
   16CHTO   C23 6682   6.510   2.063   2.195  0.3829 -0.6493  0.1370
   16CHTO   H51 6683   6.480   2.099   2.095 -1.3672 -0.6980  0.6331
   16CHTO   C34 6684   6.617   1.956   2.165 -0.2539  0.3550  0.1473
   16CHTO   O23 6685   6.583   1.865   2.060  0.6332  0.3886 -0.4690
   16CHTO   H38 6686   6.550   1.908   1.983  1.1745  0.2315 -0.7929
   16CHTO   O16 6687   6.190   2.028   2.343  0.1932 -0.2507  0.2075
   16CHTO   C24 6688   6.054   1.978   2.254 -0.6802 -0.4613 -0.4897
   16CHTO   H52 6689   6.075   1.964   2.148 -1.0171 -1.0168 -0.4819
   16CHTO   C26 6690   5.949   2.089   2.275  0.3880  0.0654 -0.2135
   16CHTO   H54 6691   5.941   2.110   2.384 -0.5635  0.7679 -0.4131
   16CHTO   O20 6692   5.994   2.201   2.193 -0.0468 -0.3978 -0.3562
   16CHTO   H36 6693   6.087   2.201   2.188  0.0481 -0.2594  1.0415
   16CHTO   C30 6694   5.808   2.056   2.223  0.5983 -0.3662  0.2954
   16CHTO   H58 6695   5.795   2.047   2.114  0.4332  0.1268  0.2693
   16CHTO    N6 6696   5.711   2.172   2.262  0.3833 -0.4986 -0.1907
   16CHTO   H45 6697   5.615   2.133   2.294  0.6497  0.3932  1.8062
   16CHTO   H46 6698   5.699   2.246   2.185 -0.5975 -0.6693 -0.2110
   16CHTO   C33 6699   5.768   1.918   2.280  0.0397  0.1045  0.5820
   16CHTO   H61 6700   5.771   1.941   2.387  1.0805 -0.5718  0.7119
   16CHTO   O18 6701   5.863   1.814   2.253  0.0318 -0.4536 -0.5102
   16CHTO   C28 6702   6.001   1.848   2.304  1.6651  0.0071 -0.0732
   16CHTO   H56 6703   5.997   1.858   2.412  0.9514 -0.0343 -0.0916
   16CHTO   C35 6704   6.103   1.726   2.272  0.2223 -0.0481 -0.0270
   16CHTO   O24 6705   6.224   1.731   2.358  0.0063  0.0279 -0.1942
   16CHTO   H39 6706   6.199   1.741   2.448  2.2218 -1.6429  0.6340
   16CHTO    O9 6707   5.636   1.875   2.242 -0.5752  0.6264 -0.1331
   16CHTO   C13 6708   5.562   1.784   2.347  0.2465  0.1175 -0.5430
   16CHTO   H26 6709   5.605   1.799   2.448 -0.9677 -1.6743  0.2740
   16CHTO   C11 6710   5.583   1.631   2.295 -0.1505  0.3087  0.1115
   16CHTO   H24 6711   5.690   1.608   2.297  0.4169  2.5584 -1.2410
   16CHTO    O8 6712   5.550   1.616   2.152  0.4116  0.5498 -0.6808
   16CHTO    H3 6713   5.567   1.697   2.109  0.5625  0.2769 -1.1414
   16CHTO    C9 6714   5.506   1.545   2.402 -0.3461  0.1701  0.1781
   16CHTO   H22 6715   5.554   1.567   2.499 -0.5924 -0.4415  0.4426
   16CHTO    N2 6716   5.524   1.399   2.370 -0.4957  0.4142  0.5623
   16CHTO   H10 6717   5.619   1.364   2.332 -1.2007  0.2123 -1.0543
   16CHTO   H11 6718   5.495   1.337   2.454 -0.2054 -2.7734 -1.6032
   16CHTO    C7 6719   5.354   1.596   2.415  0.8401  0.4686  0.1962
   16CHTO   H20 6720   5.333   1.618   2.522 -0.1946 -2.2791  0.5994
   16CHTO    O4 6721   5.325   1.701   2.328  0.1387 -0.1817  0.1689
   16CHTO   C14 6722   5.407   1.816   2.356 -0.3417 -0.1835 -0.4900
   16CHTO   H27 6723   5.386   1.856   2.458  0.5443  0.9038 -0.7272
   16CHTO   C18 6724   5.376   1.930   2.254  0.6383  0.1384 -0.2195
   16CHTO   O13 6725   5.243   1.987   2.270  0.0438  0.0798  0.3332
   16CHTO    H7 6726   5.218   1.987   2.360 -1.1718  0.2032  0.0070
   16CHTO    O2 6727   5.241   1.482   2.386  0.0909 -0.1267 -0.5546
   16CHTO    C1 6728   5.108   1.476   2.441  0.4677 -0.8512 -0.4741
   16CHTO   H14 6729   5.049   1.403   2.382  1.5972 -0.9426 -1.4976
   16CHTO    C2 6730   5.021   1.617   2.452 -0.6248  0.4874  0.0457
   16CHTO   H15 6731   5.080   1.684   2.517 -0.0601  0.7207 -0.7081
   16CHTO    O6 6732   5.002   1.683   2.324 -0.5339  0.7791  0.6239
   16CHTO    H1 6733   5.055   1.757   2.304 -0.7147  0.7206 -0.0755
   16CHTO    C3 6734   4.881   1.603   2.521 -0.4646 -0.2789  0.4332
   16CHTO   H16 6735   4.814   1.557   2.447  1.3782 -0.4793 -1.1588
   16CHTO    N1 6736   4.820   1.729   2.550  0.3522 -0.1194 -0.5272
   16CHTO    H8 6737   4.896   1.805   2.538 -0.4477  0.8683  0.5064
   16CHTO    H9 6738   4.753   1.755   2.470 -0.1428  1.1930  0.2921
   16CHTO    C4 6739   4.866   1.501   2.647  0.2961 -0.6181  0.4483
   16CHTO   H17 6740   4.894   1.552   2.738 -0.0922 -0.5413  0.5252
   16CHTO    O1 6741   4.954   1.384   2.626  0.0523 -0.1626  0.4149
   16CHTO    C5 6742   5.093   1.416   2.582  0.1716 -0.4065  0.6915
   16CHTO   H18 6743   5.132   1.496   2.646  0.4130 -0.1766  0.2607
   16CHTO   C16 6744   5.171   1.279   2.604 -0.6738  0.1090  0.1162
   16CHTO   O11 6745   5.319   1.292   2.610  0.0759 -0.5512 -0.0753
   16CHTO    H5 6746   5.347   1.311   2.522 -1.0147  0.9511 -0.1092
   16CHTO    O3 6747   4.731   1.446   2.658 -0.0909  0.5418 -0.1778
   16CHTO    C6 6748   4.699   1.390   2.790  0.1647 -0.1038  0.3774
   16CHTO   H19 6749   4.787   1.385   2.855  0.7825  2.3562 -0.2034
   16CHTO    C8 6750   4.586   1.481   2.852 -0.4644  0.0094 -0.1166
   16CHTO   H21 6751   4.492   1.463   2.800 -1.6669  0.6476  1.7916
   16CHTO    O7 6752   4.631   1.614   2.836 -0.2293  0.3187  0.1653
   16CHTO    H2 6753   4.567   1.662   2.787 -2.2180 -0.3027  2.0599
   16CHTO   C12 6754   4.573   1.430   3.002 -0.1348  1.3061 -0.1421
   16CHTO   H25 6755   4.675   1.445   3.044 -1.0496  1.7178  2.0158
   16CHTO    N3 6756   4.469   1.506   3.072 -0.1632 -0.0115 -0.1766
   16CHTO   H12 6757   4.376   1.450   3.071 -0.0332 -0.2918  1.2165
   16CHTO   H13 6758   4.497   1.534   3.172 -0.9637  0.0507  0.0362
   16CHTO   C15 6759   4.548   1.269   3.000  0.1426 -0.5779  0.3173
   16CHTO   H28 6760   4.446   1.243   2.972 -0.3211  1.4645 -0.0004
   16CHTO   O10 6761   4.598   1.216   3.141  0.3082  0.5920  0.2092
   16CHTO    H4 6762   4.573   1.274   3.210  0.2464  0.6481  0.1401
   16CHTO    O5 6763   4.638   1.192   2.911 -0.0369 -0.3217 -0.0957
   16CHTO   C10 6764   4.647   1.242   2.776 -0.4259  0.1686  0.1021
   16CHTO   H23 6765   4.544   1.233   2.741 -0.7269  0.3113  0.9365
   16CHTO   C17 6766   4.741   1.152   2.694 -0.1255  0.3849 -0.5879
   16CHTO   O12 6767   4.850   1.120   2.782  0.0804 -0.1191 -0.4492
   16CHTO    H6 6768   4.819   1.076   2.858  1.6537  0.3347  0.4731
   17CHTO  H203 6769   4.120   5.246   0.778 -0.7251 -0.1733 -0.4612
   17CHTO   O82 6770   4.038   5.248   0.824 -0.4327  0.2775  0.0383
   17CHTO  C123 6771   4.043   5.338   0.941  0.0888 -0.1772  0.2749
   17CHTO  H227 6772   3.944   5.346   0.988 -0.5952  2.5178 -1.5170
   17CHTO   O77 6773   4.135   5.277   1.035  0.2270 -0.1559 -0.1304
   17CHTO  C118 6774   4.154   5.342   1.164 -0.3596  0.1377  0.4935
   17CHTO  H222 6775   4.064   5.373   1.220 -0.4103  0.1244  0.4202
   17CHTO  C125 6776   4.242   5.264   1.256 -0.3321  0.2573 -0.7456
   17CHTO   O84 6777   4.370   5.234   1.205 -0.5008 -0.5419 -0.6463
   17CHTO  H205 6778   4.414   5.178   1.267  0.9933 -1.2288 -2.2529
   17CHTO  C114 6779   4.229   5.473   1.132 -0.0838  0.0532  0.5196
   17CHTO  H218 6780   4.316   5.450   1.070 -1.4250  1.4022 -1.9095
   17CHTO  C116 6781   4.131   5.560   1.050 -0.7033  0.2432 -0.1664
   17CHTO  H220 6782   4.038   5.577   1.107  1.3927 -1.1433  3.8668
   17CHTO   O79 6783   4.181   5.695   1.028  0.3549 -0.2416  0.1841
   17CHTO  H201 6784   4.203   5.738   1.109 -0.6018  0.6449 -0.0102
   17CHTO  C120 6785   4.096   5.491   0.911  0.1215  0.7992  0.2225
   17CHTO  H224 6786   4.188   5.484   0.849  1.4944  1.1263  2.1561
   17CHTO   N21 6787   3.997   5.563   0.822  0.2563  0.9256  0.4335
   17CHTO  H211 6788   4.019   5.552   0.717 -1.6561  1.7475 -0.0695
   17CHTO  H212 6789   3.996   5.671   0.828 -2.8904  0.9073  0.8833
   17CHTO   O75 6790   4.261   5.533   1.260 -0.2835  0.0639  0.1019
   17CHTO  C112 6791   4.359   5.666   1.281 -0.3014 -0.3106 -0.0924
   17CHTO  H216 6792   4.300   5.759   1.280  0.5792  0.2493  0.1193
   17CHTO   O73 6793   4.459   5.661   1.181  0.4026  0.4639  0.1173
   17CHTO  C113 6794   4.532   5.785   1.181 -0.0047 -0.2164  0.9453
   17CHTO  H217 6795   4.471   5.875   1.160  0.5857 -0.3935 -1.7133
   17CHTO  C124 6796   4.624   5.786   1.052 -0.3860  0.1789 -0.6808
   17CHTO   O83 6797   4.547   5.775   0.930  0.1945 -0.1332  0.1223
   17CHTO  H204 6798   4.465   5.730   0.940 -0.7249  1.1650 -1.2318
   17CHTO  C109 6799   4.612   5.807   1.317  0.2507  0.2517 -0.4432
   17CHTO  H213 6800   4.693   5.733   1.316 -0.8781 -1.0439  1.8123
   17CHTO  C110 6801   4.525   5.789   1.446  0.6323  0.4952  0.0150
   17CHTO  H214 6802   4.459   5.875   1.455 -0.7611 -0.5054 -0.4650
   17CHTO   O78 6803   4.606   5.780   1.568 -0.1717  0.7361 -0.0708
   17CHTO  H200 6804   4.657   5.701   1.565 -1.4909 -0.1392 -0.1060
   17CHTO  C111 6805   4.438   5.661   1.422 -0.0138 -0.1852  0.3753
   17CHTO  H215 6806   4.509   5.577   1.426  1.5909  1.0836 -0.9062
   17CHTO   N19 6807   4.350   5.641   1.532  0.0828  0.0157 -0.3009
   17CHTO  H207 6808   4.308   5.542   1.533  1.9301 -0.7608  1.1783
   17CHTO  H208 6809   4.384   5.670   1.630 -0.4118 -1.0441  0.1820
   17CHTO   O74 6810   4.676   5.938   1.326 -0.0002  1.1228  0.3306
   17CHTO  C115 6811   4.830   5.952   1.290 -0.3351  0.5460  0.3879
   17CHTO  H219 6812   4.889   5.987   1.374 -1.7655  0.7852  1.2997
   17CHTO   O76 6813   4.891   5.834   1.255  0.1110  0.3258  0.0933
   17CHTO  C122 6814   5.029   5.837   1.209 -0.2434  0.5535 -0.1658
   17CHTO  H226 6815   5.040   5.739   1.162  1.0383  0.6201 -0.0199
   17CHTO  C126 6816   5.131   5.829   1.328 -0.1593  0.0622  0.4586
   17CHTO   O85 6817   5.128   5.924   1.430 -0.0907 -0.0249 -0.5093
   17CHTO  H206 6818   5.141   6.005   1.385 -0.9574 -0.7625 -2.1408
   17CHTO  C121 6819   5.058   5.943   1.105  0.8111 -0.3727  0.1570
   17CHTO  H225 6820   5.164   5.963   1.079  1.2646  1.1495  3.0368
   17CHTO   O81 6821   4.981   5.897   0.989  0.0155 -0.9596  0.1399
   17CHTO  H202 6822   4.984   5.953   0.913 -0.1326 -0.6470  0.3646
   17CHTO  C119 6823   5.005   6.084   1.148 -0.0551 -0.0520 -0.6484
   17CHTO  H223 6824   5.045   6.121   1.242  0.0370  0.2720 -0.8143
   17CHTO  C117 6825   4.850   6.064   1.180  0.3654  0.2701  0.4350
   17CHTO  H221 6826   4.790   6.042   1.091 -0.8316  0.5896  1.1467
   17CHTO   N20 6827   4.792   6.191   1.233 -0.0455 -0.3342 -0.4368
   17CHTO  H209 6828   4.712   6.180   1.304 -0.4568  1.5972 -0.5716
   17CHTO  H210 6829   4.761   6.254   1.151  0.5430  1.0882  0.4262
   17CHTO   O80 6830   5.038   6.204   1.063 -0.0823 -0.3831  0.7865
   17CHTO  C103 6831   5.134   6.308   1.106 -0.8022 -0.3948 -0.0267
   17CHTO  H190 6832   5.130   6.335   1.211  0.5152 -0.5118  0.0553
   17CHTO  C101 6833   5.289   6.286   1.058 -0.0649 -0.6106  0.5676
   17CHTO  H188 6834   5.280   6.261   0.952 -1.0927 -0.8952  0.7212
   17CHTO   O68 6835   5.345   6.164   1.145 -0.2467 -0.1332  0.1862
   17CHTO  H168 6836   5.324   6.079   1.112  0.3113 -0.1035 -0.2576
   17CHTO   C99 6837   5.376   6.415   1.065  0.0377  0.1231 -0.4518
   17CHTO  H186 6838   5.378   6.449   1.171  0.1476 -0.5450 -0.2361
   17CHTO   N17 6839   5.515   6.388   1.014  0.0514  0.2332  0.1088
   17CHTO  H174 6840   5.507   6.360   0.911  1.6021  3.3787 -0.9400
   17CHTO  H175 6841   5.556   6.310   1.077 -0.9976 -0.0586  0.4437
   17CHTO   C97 6842   5.303   6.523   0.993 -0.3873 -0.1317  0.3787
   17CHTO  H184 6843   5.288   6.487   0.890 -0.9651 -1.2646  0.8574
   17CHTO   O64 6844   5.181   6.542   1.060 -0.7473 -0.4864 -0.2396
   17CHTO  C104 6845   5.087   6.436   1.029 -0.6927  0.4382  0.6847
   17CHTO  H191 6846   5.086   6.416   0.922 -1.6430 -0.2250  0.8101
   17CHTO  C108 6847   4.951   6.481   1.067 -0.2013 -0.2423  0.2842
   17CHTO   O71 6848   4.908   6.568   0.965  0.1066  0.1804  0.2458
   17CHTO  H171 6849   4.878   6.510   0.898  0.0081  2.0227 -1.3379
   17CHTO   O62 6850   5.357   6.657   1.002  0.6899  0.4770 -0.2661
   17CHTO   C91 6851   5.326   6.727   0.882  0.2581  0.5010 -0.7277
   17CHTO  H178 6852   5.314   6.650   0.805  2.5450 -1.6959  1.0392
   17CHTO   C92 6853   5.454   6.797   0.833 -0.2401  0.6180 -0.1847
   17CHTO  H179 6854   5.533   6.720   0.839 -0.8382 -0.0883 -1.2346
   17CHTO   O66 6855   5.437   6.845   0.700  0.0134  0.3909  0.4164
   17CHTO  H166 6856   5.519   6.842   0.654 -0.3566  1.9934 -0.3668
   17CHTO   C93 6857   5.480   6.923   0.925 -0.3599 -0.6881 -0.2611
   17CHTO  H180 6858   5.543   6.993   0.868  1.1071  0.4473  2.5998
   17CHTO   N16 6859   5.559   6.883   1.046  0.0648  0.0695  0.4381
   17CHTO  H172 6860   5.649   6.944   1.044 -1.1487  1.9345  1.1182
   17CHTO  H173 6861   5.502   6.903   1.136 -0.4845 -0.5784  0.2278
   17CHTO   C94 6862   5.348   7.001   0.967 -0.3777 -0.0326  0.3373
   17CHTO  H181 6863   5.311   6.971   1.065 -0.7927  2.3716  0.9478
   17CHTO   O61 6864   5.252   6.970   0.869  0.2687 -0.1698  0.1362
   17CHTO   C95 6865   5.208   6.829   0.901  0.6298  0.7512  0.4368
   17CHTO  H182 6866   5.177   6.829   1.005  0.1482  2.8515  0.3170
   17CHTO  C106 6867   5.084   6.793   0.814  0.4690  0.0835 -0.1506
   17CHTO   O69 6868   4.977   6.864   0.879 -0.1507 -0.0456  0.3122
   17CHTO  H169 6869   4.903   6.808   0.869 -0.1840  0.2406 -1.3076
   17CHTO   O63 6870   5.384   7.160   0.978  0.0448  0.6056 -0.1305
   17CHTO   C96 6871   5.261   7.242   1.036 -0.3842  0.0528 -0.3321
   17CHTO  H183 6872   5.215   7.172   1.105 -2.2648 -0.6261 -2.1851
   17CHTO   C98 6873   5.139   7.292   0.936 -0.1427  0.1662 -0.0463
   17CHTO  H185 6874   5.176   7.359   0.857  0.8832 -0.3996 -0.0577
   17CHTO   O67 6875   5.090   7.183   0.870 -0.7012  0.9059 -0.3709
   17CHTO  H167 6876   5.036   7.127   0.922  0.1384  1.9375  1.6398
   17CHTO  C102 6877   5.026   7.356   1.025  0.0814 -0.7978 -0.0239
   17CHTO  H189 6878   4.997   7.276   1.095 -0.0294 -1.7836 -1.1719
   17CHTO   N18 6879   4.898   7.392   0.958  0.0693 -0.4674  0.2888
   17CHTO  H176 6880   4.868   7.300   0.910  0.8247 -0.0431 -1.0475
   17CHTO  H177 6881   4.914   7.469   0.883 -0.5949  1.7509  2.3767
   17CHTO  C105 6882   5.090   7.476   1.110  0.4740 -0.5751  0.3553
   17CHTO  H192 6883   5.046   7.569   1.075  0.1046 -0.5192  0.9526
   17CHTO   O65 6884   5.233   7.492   1.108 -1.0082  0.5713  0.4256
   17CHTO  C100 6885   5.305   7.363   1.115  0.6636  0.9667  0.2129
   17CHTO  H187 6886   5.409   7.385   1.083 -0.4141  1.9227 -2.7903
   17CHTO  C107 6887   5.328   7.323   1.261 -0.7685 -0.3183  0.6100
   17CHTO   O70 6888   5.420   7.397   1.332 -0.0158 -0.2947  0.3995
   17CHTO  H170 6889   5.508   7.379   1.303  1.2800  2.9170  2.0114
   17CHTO   O57 6890   5.042   7.462   1.267  0.8358 -0.0575  0.2251
   17CHTO   C85 6891   4.962   7.564   1.336 -0.4963 -0.5359 -0.1462
   17CHTO  H157 6892   4.904   7.626   1.265  0.8650  2.0079  0.8947
   17CHTO   C83 6893   5.055   7.665   1.408 -0.2570 -0.2032 -0.4394
   17CHTO  H155 6894   5.112   7.719   1.333 -1.7995  2.9136  0.5346
   17CHTO   O56 6895   5.145   7.592   1.498 -0.0919  0.2129  0.2984
   17CHTO  H135 6896   5.134   7.499   1.494 -1.1114  0.3793 -1.1974
   17CHTO   C81 6897   4.966   7.768   1.484 -0.5698 -0.0050  0.1671
   17CHTO  H153 6898   4.901   7.815   1.410 -1.1626 -3.7748 -1.7859
   17CHTO   N14 6899   5.049   7.874   1.544  0.0517  0.4155  0.2016
   17CHTO  H141 6900   5.053   7.954   1.473 -0.1822  3.6040  3.6032
   17CHTO  H142 6901   4.992   7.911   1.627 -0.8677 -1.5193  0.4619
   17CHTO   C79 6902   4.873   7.684   1.587 -0.3228  0.2819 -0.5846
   17CHTO  H151 6903   4.816   7.758   1.643 -0.3752  1.2957 -1.9539
   17CHTO   O52 6904   4.793   7.585   1.524 -0.6381 -0.1962  0.1773
   17CHTO   C86 6905   4.874   7.493   1.443  0.0207 -0.0054  0.8131
   17CHTO  H158 6906   4.936   7.441   1.518  1.2229 -0.9551 -0.8011
   17CHTO   C90 6907   4.796   7.381   1.362 -0.6290 -0.1450  0.3572
   17CHTO   O60 6908   4.738   7.289   1.451  0.2227 -0.2168  0.1023
   17CHTO  H138 6909   4.662   7.326   1.492  1.0815  2.0574 -0.2928
   17CHTO   O50 6910   4.952   7.619   1.688  0.2051  0.0997  0.7275
   17CHTO   C73 6911   4.993   7.630   1.827 -0.9303  0.7839  0.3265
   17CHTO  H145 6912   4.987   7.735   1.860 -1.1651  0.8651  0.0282
   17CHTO   C74 6913   5.141   7.581   1.839  0.0118  0.0080 -0.1453
   17CHTO  H146 6914   5.207   7.645   1.779  1.7817  0.6937  2.4629
   17CHTO   O54 6915   5.186   7.605   1.976 -0.2889 -0.2257 -0.4626
   17CHTO  H133 6916   5.125   7.624   2.044  0.7701 -0.2550  0.5162
   17CHTO   C75 6917   5.150   7.431   1.794  0.6603 -0.1078  0.5410
   17CHTO  H147 6918   5.107   7.427   1.692 -1.3562  0.3582  1.3474
   17CHTO   N13 6919   5.287   7.380   1.787  0.5121 -0.2222 -0.4850
   17CHTO  H139 6920   5.337   7.455   1.727 -0.5539  0.7158 -0.1995
   17CHTO  H140 6921   5.332   7.373   1.885 -2.2948  0.1516  0.8796
   17CHTO   C76 6922   5.055   7.339   1.885 -0.2341  0.2484 -0.3582
   17CHTO  H148 6923   5.094   7.336   1.986  1.1604 -1.3667 -0.9217
   17CHTO   O49 6924   4.923   7.395   1.887  0.6203 -0.3247 -0.4294
   17CHTO   C77 6925   4.906   7.538   1.917  0.5294  0.3325  0.1105
   17CHTO  H149 6926   4.937   7.553   2.020 -1.1790  0.9262  0.5569
   17CHTO   C88 6927   4.756   7.564   1.902  0.0444 -0.3992 -0.0523
   17CHTO   O58 6928   4.727   7.700   1.928 -0.0319  0.5237  0.1986
   17CHTO  H136 6929   4.683   7.740   1.855  0.9583 -1.3431 -1.4682
   17CHTO   O51 6930   5.047   7.185   1.835  0.3810 -0.5969 -0.4714
   17CHTO   C78 6931   4.910   7.087   1.899  0.7712  0.3180 -0.0115
   17CHTO  H150 6932   4.817   7.148   1.903  0.7978  0.3004  1.0620
   17CHTO   C80 6933   4.946   7.039   2.043  0.3411  0.0052 -0.2043
   17CHTO  H152 6934   5.045   6.989   2.039  0.8963  1.0719 -0.0399
   17CHTO   O55 6935   4.963   7.156   2.123 -0.0099 -0.2596  0.3665
   17CHTO  H134 6936   5.046   7.198   2.115 -0.2424  0.1201 -0.0841
   17CHTO   C84 6937   4.835   6.940   2.094 -0.1316  0.7641  0.3085
   17CHTO  H156 6938   4.744   6.998   2.104 -0.6860 -0.1803  0.7929
   17CHTO   N15 6939   4.856   6.889   2.233 -0.3367 -0.0752 -0.5516
   17CHTO  H143 6940   4.957   6.855   2.246  0.1797  1.4028 -0.5659
   17CHTO  H144 6941   4.836   6.959   2.311  0.4044  0.3171 -0.7036
   17CHTO   C87 6942   4.829   6.823   1.993  0.1594 -1.0919 -0.3738
   17CHTO  H159 6943   4.927   6.776   1.990  0.0855 -1.3910  1.1746
   17CHTO   O53 6944   4.793   6.877   1.859 -0.0224  0.1883  0.6251
   17CHTO   C82 6945   4.892   6.965   1.802 -0.5751 -0.1315 -0.3931
   17CHTO  H154 6946   4.980   6.904   1.782 -1.8421 -2.0704 -0.1935
   17CHTO   C89 6947   4.841   7.016   1.661 -0.0143  0.2104 -0.3515
   17CHTO   O59 6948   4.750   7.127   1.677 -0.0992  0.5511 -0.2393
   17CHTO  H137 6949   4.696   7.132   1.600 -3.3700 -1.6677  1.7521
   17CHTO   O45 6950   4.703   6.715   2.016  0.2965  0.4500 -0.2227
   17CHTO   C67 6951   4.575   6.758   2.058  0.2974 -0.1436  0.3923
   17CHTO  H124 6952   4.586   6.824   2.143 -4.1413  0.3101  0.7264
   17CHTO   C65 6953   4.503   6.843   1.946 -0.1169 -0.3086 -0.0423
   17CHTO  H122 6954   4.573   6.900   1.885  0.6353  1.0058  1.9965
   17CHTO   O44 6955   4.415   6.934   2.016 -0.6997 -0.0701 -0.0970
   17CHTO  H102 6956   4.383   7.004   1.961 -2.6634 -1.4296 -0.7376
   17CHTO   C63 6957   4.433   6.742   1.840  0.6811 -0.1879  0.4304
   17CHTO  H120 6958   4.501   6.658   1.827  1.5011  0.2576  1.7539
   17CHTO   N11 6959   4.408   6.800   1.709  0.4567  0.3929  0.1397
   17CHTO  H108 6960   4.303   6.788   1.690  0.4485  0.5055  0.1202
   17CHTO  H109 6961   4.441   6.901   1.698  2.5290 -0.2394  0.3096
   17CHTO   C61 6962   4.311   6.686   1.922  0.9141  0.2551  0.5263
   17CHTO  H118 6963   4.279   6.596   1.866  1.4894  1.1136 -1.2031
   17CHTO   O40 6964   4.341   6.646   2.052  0.0102  0.4804 -0.1768
   17CHTO   C68 6965   4.485   6.627   2.104 -0.0987  0.2085  0.7443
   17CHTO  H125 6966   4.526   6.531   2.068  1.5635  0.6778  1.3538
   17CHTO   C72 6967   4.477   6.609   2.261 -0.8571 -0.1358 -0.6666
   17CHTO   O48 6968   4.606   6.620   2.322 -0.2893 -0.1466  0.5983
   17CHTO  H105 6969   4.601   6.567   2.399  1.5576 -2.4010 -0.7385
   17CHTO   O38 6970   4.197   6.770   1.938  0.6540  1.1093 -0.0517
   17CHTO   C55 6971   4.072   6.716   1.994  0.2293  0.0500 -0.1903
   17CHTO  H112 6972   4.077   6.681   2.098 -1.4771 -2.0171 -0.7729
   17CHTO   C56 6973   4.015   6.604   1.900  0.4290 -0.3416  0.4234
   17CHTO  H113 6974   4.053   6.631   1.801 -1.1859 -1.2551 -0.4676
   17CHTO   O42 6975   4.077   6.477   1.928  0.5466 -0.6911  0.2065
   17CHTO  H100 6976   4.105   6.433   1.851  0.7474  1.4488 -0.9821
   17CHTO   C57 6977   3.857   6.590   1.908  0.4165  0.0572  1.2319
   17CHTO  H114 6978   3.833   6.531   1.995 -0.3868  1.0283  1.6865
   17CHTO   N10 6979   3.795   6.519   1.788  0.2598  0.7193  0.6020
   17CHTO  H106 6980   3.774   6.415   1.812  0.3357  0.0445 -2.0945
   17CHTO  H107 6981   3.853   6.519   1.697 -1.2204  0.5767 -0.3754
   17CHTO   C58 6982   3.781   6.727   1.922 -0.2303 -0.2766  0.2141
   17CHTO  H115 6983   3.792   6.782   1.826  1.1565  0.8558  1.0097
   17CHTO   O37 6984   3.849   6.800   2.025  0.3321 -0.1626 -0.0670
   17CHTO   C59 6985   3.981   6.841   1.994  0.3814 -0.2284  0.3284
   17CHTO  H116 6986   3.990   6.896   1.900  1.4674 -0.5860  0.2183
   17CHTO   C70 6987   4.033   6.934   2.103  0.0430  0.5679  0.0646
   17CHTO   O46 6988   4.134   7.024   2.061  0.4602  0.4561 -0.0380
   17CHTO  H103 6989   4.129   7.114   2.086  1.3006  0.4492  0.1564
   17CHTO   O39 6990   3.624   6.693   1.965 -0.0183  1.0708  0.0030
   17CHTO   C60 6991   3.535   6.801   1.993 -0.1635 -0.3520  0.4377
   17CHTO  H117 6992   3.553   6.821   2.098 -0.2412 -0.5575  0.4921
   17CHTO   C62 6993   3.554   6.926   1.894 -0.2937  0.4524 -0.2021
   17CHTO  H119 6994   3.662   6.950   1.891 -0.2320  0.0652 -1.4748
   17CHTO   O43 6995   3.500   6.887   1.771  0.4078  0.3474 -0.8769
   17CHTO  H101 6996   3.522   6.947   1.703  1.3759  0.1780 -0.7273
   17CHTO   C66 6997   3.481   7.051   1.953 -0.5669 -0.3021 -0.4967
   17CHTO  H123 6998   3.533   7.075   2.046 -0.0735 -0.0959 -0.8251
   17CHTO   N12 6999   3.505   7.175   1.874  0.5008  0.2746 -0.7119
   17CHTO  H110 7000   3.603   7.219   1.890  0.0097  0.9095  0.6528
   17CHTO  H111 7001   3.464   7.163   1.775 -0.6032  1.0272 -0.3596
   17CHTO   C69 7002   3.327   7.030   1.980  0.0235  0.5053  0.4919
   17CHTO  H126 7003   3.268   7.032   1.886 -0.5167  1.8129  0.8495
   17CHTO   O41 7004   3.302   6.886   2.051  0.3640  0.3282  0.0590
   17CHTO   C64 7005   3.386   6.763   1.985 -0.5144 -0.1149 -0.1368
   17CHTO  H121 7006   3.345   6.750   1.883 -0.7540 -1.4649  0.1179
   17CHTO   C71 7007   3.365   6.629   2.061  0.2118  0.2624  0.4105
   17CHTO   O47 7008   3.228   6.595   2.068 -0.3703 -0.0875  0.2000
   17CHTO  H104 7009   3.229   6.509   2.105 -0.5823 -1.0112 -1.8684
   17CHTO   O34 7010   3.281   7.139   2.077  0.3341 -0.2304  0.3503
   17CHTO   C49 7011   3.155   7.209   2.147  0.7232 -0.4039  0.3599
   17CHTO   H91 7012   3.202   7.281   2.215 -1.8581  1.2376  0.4736
   17CHTO   C47 7013   3.052   7.125   2.227 -0.3047  1.3721 -0.2267
   17CHTO   H89 7014   3.013   7.210   2.287 -3.1983  0.7482 -1.1531
   17CHTO   O33 7015   3.110   7.023   2.308 -0.0144 -0.2146 -0.3658
   17CHTO   H70 7016   3.195   7.058   2.328 -0.2229  0.0330  0.0769
   17CHTO   C45 7017   2.945   7.053   2.129 -0.0561  0.2642  0.2772
   17CHTO   H87 7018   2.968   6.946   2.137  0.3562  0.4194  1.2508
   17CHTO    N8 7019   2.807   7.077   2.186  0.2567 -0.0084  1.2530
   17CHTO   H75 7020   2.796   7.060   2.292 -1.6499  0.0072  1.0706
   17CHTO   H76 7021   2.779   7.180   2.173 -1.8555 -0.6145  0.9207
   17CHTO   C43 7022   2.972   7.088   1.976  0.2811 -0.6216 -0.2572
   17CHTO   H85 7023   3.070   7.045   1.959  1.9000  3.3607 -1.5558
   17CHTO   O29 7024   2.978   7.230   1.953  0.1169  0.5398 -0.0039
   17CHTO   C50 7025   3.075   7.293   2.044 -0.3195 -0.0416  0.5413
   17CHTO   H92 7026   3.151   7.332   1.974 -2.0289 -0.1366 -1.4098
   17CHTO   C54 7027   3.012   7.431   2.097 -0.4850  0.6192 -0.3450
   17CHTO   O36 7028   2.904   7.411   2.197 -0.1357  1.0549 -0.3443
   17CHTO   H72 7029   2.909   7.487   2.251  3.1683 -0.4027  1.5222
   17CHTO   O27 7030   2.883   7.026   1.886  0.0370 -0.1636 -0.6024
   17CHTO   C37 7031   2.901   6.918   1.800 -0.1768  0.4945  0.4396
   17CHTO   H79 7032   2.804   6.897   1.752  0.4803 -0.5463 -0.4381
   17CHTO   C38 7033   2.987   6.967   1.687 -0.0170 -0.3377  0.3837
   17CHTO   H80 7034   3.070   7.022   1.732  0.2378 -0.5135  0.1330
   17CHTO   O31 7035   2.896   7.052   1.605  0.3814  0.1118  0.2412
   17CHTO   H68 7036   2.899   7.142   1.628 -0.4321 -0.2100  1.6974
   17CHTO   C39 7037   3.036   6.858   1.592 -0.2610 -0.5697  0.2475
   17CHTO   H81 7038   2.955   6.829   1.525  0.0760  0.6977 -0.7421
   17CHTO    N7 7039   3.148   6.905   1.498  0.4933 -0.1006 -0.5450
   17CHTO   H73 7040   3.234   6.842   1.513 -0.6121 -2.0540 -2.0086
   17CHTO   H74 7041   3.127   6.884   1.393  0.2258  1.0936 -0.7351
   17CHTO   C40 7042   3.082   6.725   1.671 -0.4643 -0.3064  0.1527
   17CHTO   H82 7043   3.176   6.757   1.715  0.8899 -1.6852 -1.6610
   17CHTO   O26 7044   2.989   6.686   1.768  0.2095  0.1291 -0.2078
   17CHTO   C41 7045   2.960   6.789   1.870  0.0917  0.2252  1.0025
   17CHTO   H83 7046   3.056   6.811   1.919  1.3089 -0.0019 -1.2484
   17CHTO   C52 7047   2.868   6.712   1.968 -0.1898 -0.2882  0.4718
   17CHTO   O35 7048   2.937   6.604   2.045 -0.3594 -0.0796  0.1988
   17CHTO   H71 7049   2.879   6.568   2.109 -2.0637  2.5942  0.2171
   17CHTO   O28 7050   3.098   6.606   1.589 -0.7063 -0.3413  0.2381
   17CHTO   C42 7051   3.171   6.484   1.635  0.1036 -0.7247  0.0677
   17CHTO   H84 7052   3.175   6.420   1.547 -0.9096 -0.3575 -0.2519
   17CHTO   C44 7053   3.104   6.401   1.745 -0.0783  0.6979  0.0681
   17CHTO   H86 7054   3.112   6.448   1.843 -0.6936 -0.8983  0.8964
   17CHTO   O32 7055   2.966   6.385   1.706 -0.3371  0.0141 -0.4836
   17CHTO   H69 7056   2.922   6.311   1.744 -0.2154 -0.2602 -0.8696
   17CHTO   C48 7057   3.169   6.253   1.767  0.1801  0.7424  0.4235
   17CHTO   H90 7058   3.151   6.199   1.674 -1.7971  2.2035 -0.1013
   17CHTO    N9 7059   3.107   6.173   1.882  0.0935 -0.0119 -0.0831
   17CHTO   H77 7060   3.130   6.214   1.979 -2.4929 -0.2688  0.6892
   17CHTO   H78 7061   3.000   6.173   1.867 -0.2073  0.2813  1.8378
   17CHTO   C51 7062   3.325   6.271   1.785  0.1504  0.0854  0.1970
   17CHTO   H93 7063   3.340   6.317   1.883  2.5147  1.7677 -0.9075
   17CHTO   O30 7064   3.371   6.359   1.684  0.3988  0.5171  0.2892
   17CHTO   C46 7065   3.313   6.506   1.684  0.0105  0.2110  0.6903
   17CHTO   H88 7066   3.309   6.537   1.789  1.7296  3.2816 -0.0852
   17CHTO   C53 7067   3.420   6.591   1.600 -0.3456  0.1339  0.1656
   17CHTO   O72 7068   3.462   6.518   1.479  0.4370  0.2477  0.8499
   17CHTO  H199 7069   3.413   6.559   1.411 -1.1792 -1.1198  1.1468
   17CHTO   O22 7070   3.396   6.143   1.773  0.0431  0.2090  0.4360
   17CHTO   C31 7071   3.477   6.101   1.656  0.1400  0.5485  0.0970
   17CHTO   H59 7072   3.498   5.995   1.682 -1.2457  0.3455  0.4293
   17CHTO   C29 7073   3.414   6.102   1.509  0.0905 -0.5572 -0.1218
   17CHTO   H57 7074   3.367   6.201   1.501  0.0364 -0.7733 -3.1996
   17CHTO   O21 7075   3.305   6.013   1.514 -0.6620 -0.6439  0.6835
   17CHTO   H37 7076   3.254   6.054   1.447  0.7480 -1.8047 -1.1633
   17CHTO   C27 7077   3.518   6.078   1.392  0.2986  0.2926  0.0258
   17CHTO   H55 7078   3.562   5.977   1.398 -1.9487 -0.6961  0.9128
   17CHTO    N5 7079   3.457   6.089   1.257 -0.2749 -0.1147  0.3032
   17CHTO   H43 7080   3.422   6.190   1.251 -0.9719 -0.2234  2.1714
   17CHTO   H44 7081   3.536   6.062   1.188 -0.5398 -0.8838  0.2970
   17CHTO   C25 7082   3.633   6.185   1.418 -0.5043  0.1168  0.2274
   17CHTO   H53 7083   3.573   6.276   1.431 -0.1437  0.3472  0.2862
   17CHTO   O17 7084   3.705   6.154   1.541  0.6989 -0.4049  0.3418
   17CHTO   C32 7085   3.615   6.174   1.653 -0.2315  0.3844  0.2970
   17CHTO   H60 7086   3.599   6.282   1.655  1.6669  0.6790  1.8357
   17CHTO   C36 7087   3.687   6.154   1.787 -0.1953 -0.1933  0.7106
   17CHTO   O25 7088   3.763   6.034   1.781 -0.4683 -0.6776  0.1922
   17CHTO   H40 7089   3.824   6.041   1.852 -0.3278  2.1747 -0.1769
   17CHTO   O15 7090   3.729   6.200   1.289  0.8008 -0.1545 -0.2134
   17CHTO   C19 7091   3.777   6.333   1.261 -0.6804 -0.2188 -0.0619
   17CHTO   H47 7092   3.848   6.325   1.177  0.1927 -0.2797  0.6658
   17CHTO   C20 7093   3.667   6.437   1.217 -0.2130 -0.5250 -0.2289
   17CHTO   H48 7094   3.594   6.455   1.297  0.4834  0.0813  0.2783
   17CHTO   O19 7095   3.599   6.376   1.104 -0.1048  0.1358  0.8080
   17CHTO   H35 7096   3.569   6.292   1.131  1.4274 -0.0069  2.1993
   17CHTO   C21 7097   3.733   6.579   1.182  0.0626  0.5715 -0.0906
   17CHTO   H49 7098   3.820   6.570   1.116  0.0563 -0.0553 -0.0109
   17CHTO    N4 7099   3.636   6.681   1.138  0.0881  0.0244 -0.2407
   17CHTO   H41 7100   3.682   6.776   1.117  2.0317 -1.1475 -1.4847
   17CHTO   H42 7101   3.588   6.641   1.050 -1.9731  0.5267  0.6404
   17CHTO   C22 7102   3.805   6.616   1.311 -0.9187 -0.1750 -0.0059
   17CHTO   H50 7103   3.729   6.622   1.389 -0.8463 -0.6873  0.1070
   17CHTO   O14 7104   3.907   6.521   1.344  0.8814 -0.0540  0.4048
   17CHTO   C23 7105   3.866   6.391   1.379 -0.0863 -0.3417 -1.2386
   17CHTO   H51 7106   3.811   6.385   1.473 -0.3150 -2.8703 -1.4931
   17CHTO   C34 7107   3.996   6.309   1.407  0.6238 -0.0516  0.6032
   17CHTO   O23 7108   4.071   6.350   1.522  0.2380 -0.1192  0.1486
   17CHTO   H38 7109   4.127   6.278   1.543  0.3746  0.7015  2.7015
   17CHTO   O16 7110   3.874   6.736   1.302  0.2158  0.0957  0.7006
   17CHTO   C24 7111   3.911   6.808   1.437  0.5988  0.2953 -0.0243
   17CHTO   H52 7112   3.908   6.743   1.525 -1.3282 -2.1326 -1.8339
   17CHTO   C26 7113   3.811   6.925   1.453 -0.2695  0.1554 -0.3587
   17CHTO   H54 7114   3.820   6.987   1.362  0.0847  1.7208  0.7228
   17CHTO   O20 7115   3.672   6.877   1.454 -0.4780 -0.3546  0.1028
   17CHTO   H36 7116   3.631   6.899   1.373  0.3709  1.1021  0.0657
   17CHTO   C30 7117   3.860   7.014   1.570 -0.7966 -0.0026 -0.0179
   17CHTO   H58 7118   3.864   6.951   1.661  0.9157 -1.6372 -1.2028
   17CHTO    N6 7119   3.771   7.130   1.599 -0.4822  0.2058  0.7811
   17CHTO   H45 7120   3.676   7.096   1.639 -0.7957  0.9739  0.7044
   17CHTO   H46 7121   3.818   7.193   1.673  0.2845 -0.5578  0.9500
   17CHTO   C33 7122   4.006   7.052   1.549 -0.6417 -0.2349  0.0257
   17CHTO   H61 7123   4.007   7.104   1.452  0.2764  0.1174  0.2198
   17CHTO   O18 7124   4.082   6.931   1.537  0.1653 -0.3394 -0.8075
   17CHTO   C28 7125   4.059   6.852   1.423  0.2949 -0.1179  0.2289
   17CHTO   H56 7126   4.077   6.897   1.325  1.3071 -1.6638 -0.3110
   17CHTO   C35 7127   4.159   6.735   1.426 -0.4632 -0.0734 -0.0108
   17CHTO   O24 7128   4.139   6.656   1.547 -0.0345 -0.2819 -0.2567
   17CHTO   H39 7129   4.160   6.706   1.624 -2.6934  0.0303  0.2891
   17CHTO    O9 7130   4.066   7.139   1.639 -0.8547  0.4511  0.2072
   17CHTO   C13 7131   4.216   7.193   1.603 -1.1054 -0.0665  0.6426
   17CHTO   H26 7132   4.271   7.111   1.554 -0.9702 -0.5767  1.6237
   17CHTO   C11 7133   4.280   7.228   1.747  0.5785 -0.2628  0.4852
   17CHTO   H24 7134   4.271   7.135   1.805  0.2681 -0.9236 -0.6139
   17CHTO    O8 7135   4.195   7.315   1.828  0.7417  0.3687  0.1886
   17CHTO    H3 7136   4.230   7.325   1.914  1.1299 -0.0871  0.0878
   17CHTO    C9 7137   4.431   7.281   1.717 -0.5855 -0.7892  0.3167
   17CHTO   H22 7138   4.483   7.207   1.655  1.2471  0.4197  0.3709
   17CHTO    N2 7139   4.507   7.281   1.843  0.0584 -0.0355 -0.2529
   17CHTO   H10 7140   4.587   7.209   1.838 -0.1252 -0.2595  0.1025
   17CHTO   H11 7141   4.556   7.375   1.866 -0.8769  1.0009 -2.3181
   17CHTO    C7 7142   4.423   7.419   1.633  0.1080  0.1571  0.0932
   17CHTO   H20 7143   4.520   7.430   1.579  1.0842 -5.3724  0.4706
   17CHTO    O4 7144   4.327   7.422   1.529  0.6290  0.1300  0.4046
   17CHTO   C14 7145   4.219   7.328   1.512 -0.3335 -0.4140 -0.0002
   17CHTO   H27 7146   4.235   7.302   1.405  1.9648 -0.4070  0.3313
   17CHTO   C18 7147   4.088   7.411   1.526  0.7497 -0.1933 -0.5782
   17CHTO   O13 7148   4.060   7.490   1.410  0.5929  0.0595  1.1121
   17CHTO    H7 7149   4.033   7.574   1.441  1.1867  0.4322  0.6292
   17CHTO    O2 7150   4.398   7.546   1.743 -0.7534  0.3599 -0.3315
   17CHTO    C1 7151   4.363   7.668   1.678  0.4783  0.2812  0.2700
   17CHTO   H14 7152   4.275   7.659   1.611 -1.1827  3.4611  1.9060
   17CHTO    C2 7153   4.483   7.723   1.590 -0.0964 -0.3389  0.6620
   17CHTO   H15 7154   4.569   7.688   1.649  1.5695  0.3019 -1.3450
   17CHTO    O6 7155   4.482   7.662   1.457 -0.1364  0.3911 -0.2917
   17CHTO    H1 7156   4.556   7.672   1.400  0.8449 -0.3678  0.8134
   17CHTO    C3 7157   4.490   7.890   1.582 -0.2104 -0.2137  0.1146
   17CHTO   H16 7158   4.417   7.930   1.511  1.3322  0.8128 -0.9334
   17CHTO    N1 7159   4.622   7.940   1.528  0.5994 -0.0541 -0.6172
   17CHTO    H8 7160   4.635   7.932   1.421  3.0709 -0.2530 -0.3342
   17CHTO    H9 7161   4.649   8.036   1.568 -2.0093  1.0135 -1.3405
   17CHTO    C4 7162   4.457   7.962   1.714 -0.1307 -0.6307 -0.3437
   17CHTO   H17 7163   4.529   7.939   1.793  0.1320 -0.1354 -0.4384
   17CHTO    O1 7164   4.326   7.906   1.741  0.2788  0.0589 -0.6303
   17CHTO    C5 7165   4.326   7.774   1.791 -0.1455 -0.2382 -0.0481
   17CHTO   H18 7166   4.403   7.761   1.867  0.9331 -0.1989 -1.1279
   17CHTO   C16 7167   4.190   7.748   1.856  0.2844  0.2307 -0.0088
   17CHTO   O11 7168   4.187   7.800   1.987  0.4930  0.8311  0.1923
   17CHTO    H5 7169   4.223   7.740   2.050  0.6057  0.5010 -0.1895
   17CHTO    O3 7170   4.435   8.108   1.709 -0.4090 -0.0547 -0.5744
   17CHTO    C6 7171   4.437   8.189   1.835 -0.0111 -0.1585  0.0760
   17CHTO   H19 7172   4.392   8.285   1.809 -1.6278 -0.6297  0.9995
   17CHTO    C8 7173   4.360   8.121   1.951  0.7072  0.3941  0.2823
   17CHTO   H21 7174   4.396   8.019   1.959  2.5209  0.9318 -0.8323
   17CHTO    O7 7175   4.223   8.105   1.920  0.4228  0.1580 -0.1262
   17CHTO    H2 7176   4.179   8.064   1.992  1.6789 -0.2263  0.4267
   17CHTO   C12 7177   4.391   8.191   2.093  0.2786  0.4390 -0.0809
   17CHTO   H25 7178   4.327   8.281   2.107  1.7185  1.5842 -0.6774
   17CHTO    N3 7179   4.346   8.089   2.200  0.1985 -0.5071 -0.1137
   17CHTO   H12 7180   4.378   8.132   2.294  0.8495  1.3053 -1.1413
   17CHTO   H13 7181   4.239   8.080   2.198  0.2963 -1.9473  0.1865
   17CHTO   C15 7182   4.539   8.239   2.111 -0.1317  0.2531  0.0862
   17CHTO   H28 7183   4.609   8.159   2.133 -1.2318 -1.0698 -1.1256
   17CHTO   O10 7184   4.560   8.340   2.197 -0.4425 -0.4510  0.2514
   17CHTO    H4 7185   4.613   8.311   2.268  0.4873 -0.0026 -0.2610
   17CHTO    O5 7186   4.579   8.313   1.989 -0.1289  0.4101 -0.0290
   17CHTO   C10 7187   4.578   8.217   1.876 -0.0514 -0.4608  0.4897
   17CHTO   H23 7188   4.621   8.121   1.904 -0.8848 -0.7634  0.7435
   17CHTO   C17 7189   4.666   8.269   1.760  0.4429 -0.6302 -0.0520
   17CHTO   O12 7190   4.623   8.391   1.684  0.1179 -0.2495 -0.1946
   17CHTO    H6 7191   4.629   8.476   1.723  1.8218 -0.0866 -0.7762
   18CHTO  H203 7192   5.937   7.928   2.517 -0.1617 -1.4368  0.0575
   18CHTO   O82 7193   6.006   7.918   2.454 -0.1139 -0.3251 -0.0791
   18CHTO  C123 7194   5.960   7.903   2.323  0.8378  0.2149 -0.2068
   18CHTO  H227 7195   5.882   7.977   2.299  1.7910  1.6996  1.2270
   18CHTO   O77 7196   6.079   7.944   2.242 -0.2064 -0.1355  0.4772
   18CHTO  C118 7197   6.068   7.943   2.095 -0.1347 -0.4985 -0.8389
   18CHTO  H222 7198   5.976   7.987   2.053  0.0673  0.5171 -0.2315
   18CHTO  C125 7199   6.195   8.016   2.032  0.7618  0.6245  0.1820
   18CHTO   O84 7200   6.323   7.955   2.069  0.4601  0.2521  0.5879
   18CHTO  H205 7201   6.325   7.863   2.050  1.8244  0.5731 -0.8853
   18CHTO  C114 7202   6.065   7.791   2.062 -0.6130 -0.6834  0.5526
   18CHTO  H218 7203   6.161   7.746   2.086  0.3307  0.7457 -0.5531
   18CHTO  C116 7204   5.948   7.718   2.138 -0.7579 -0.6199  0.4389
   18CHTO  H220 7205   5.851   7.740   2.089 -0.9396  0.8684  1.4350
   18CHTO   O79 7206   5.960   7.577   2.122 -0.0483 -0.1354  0.1931
   18CHTO  H201 7207   5.893   7.545   2.065 -1.7699 -0.4026  2.3063
   18CHTO  C120 7208   5.922   7.753   2.290  0.8035  0.1272 -0.3026
   18CHTO  H224 7209   5.989   7.684   2.346  0.4795 -0.2891 -0.4260
   18CHTO   N21 7210   5.787   7.727   2.344  0.0118  0.6751  0.2149
   18CHTO  H211 7211   5.713   7.748   2.268 -1.1644 -3.2253  0.1794
   18CHTO  H212 7212   5.767   7.790   2.430 -2.4872 -0.4642  0.5248
   18CHTO   O75 7213   6.045   7.780   1.922  0.4174  0.3053 -0.2013
   18CHTO  C112 7214   6.165   7.686   1.837  0.2766 -0.1477 -0.5614
   18CHTO  H216 7215   6.208   7.609   1.903  0.3584  1.6076  1.4570
   18CHTO   O73 7216   6.262   7.779   1.798  0.4077 -0.6278 -0.2650
   18CHTO  C113 7217   6.366   7.726   1.720  0.6926 -0.8407  0.3110
   18CHTO  H217 7218   6.422   7.646   1.774  1.5330 -1.5971 -1.6080
   18CHTO  C124 7219   6.475   7.832   1.689  0.5655  0.2534  0.5603
   18CHTO   O83 7220   6.535   7.883   1.812  0.6629  0.5160  0.9614
   18CHTO  H204 7221   6.569   7.814   1.866 -1.4749 -0.8578  0.6342
   18CHTO  C109 7222   6.308   7.667   1.588  0.2134 -0.0279 -0.0147
   18CHTO  H213 7223   6.257   7.748   1.533 -1.3242 -0.8084  0.2449
   18CHTO  C110 7224   6.199   7.561   1.616  0.0308 -0.7602 -0.0121
   18CHTO  H214 7225   6.261   7.481   1.655 -1.2042 -1.9722 -0.5188
   18CHTO   O78 7226   6.135   7.507   1.498 -0.2929  0.5107  0.1757
   18CHTO  H200 7227   6.189   7.453   1.443 -0.9602 -0.3017  0.3007
   18CHTO  C111 7228   6.098   7.623   1.717 -0.2808 -0.0236  0.3616
   18CHTO  H215 7229   6.040   7.698   1.662  1.3601  1.9470  1.2308
   18CHTO   N19 7230   6.007   7.518   1.763  0.1302 -0.3408  0.7534
   18CHTO  H207 7231   6.055   7.430   1.803 -0.8141 -1.3673 -0.3405
   18CHTO  H208 7232   5.948   7.559   1.844 -1.6024 -0.9245 -0.2003
   18CHTO   O74 7233   6.411   7.606   1.501  0.0545 -0.1358 -0.2852
   18CHTO  C115 7234   6.444   7.689   1.359 -0.1727 -0.4589  0.0380
   18CHTO  H219 7235   6.355   7.735   1.315  1.0836  0.6765 -1.3810
   18CHTO   O76 7236   6.529   7.807   1.389 -0.0891  0.8475 -0.1018
   18CHTO  C122 7237   6.573   7.883   1.275 -0.1976  0.5441 -1.1208
   18CHTO  H226 7238   6.656   7.942   1.315 -0.1615  0.8321 -1.6198
   18CHTO  C126 7239   6.465   7.982   1.225 -0.6893 -0.0160 -0.4208
   18CHTO   O85 7240   6.462   8.096   1.310 -0.3365 -0.3773  0.2834
   18CHTO  H206 7241   6.386   8.150   1.303 -0.2646 -0.0619  1.6962
   18CHTO  C121 7242   6.634   7.783   1.156  0.6645  0.1859  0.5214
   18CHTO  H225 7243   6.639   7.849   1.067 -1.5914  0.4674  0.5790
   18CHTO   O81 7244   6.766   7.735   1.171 -0.4257  0.2678 -0.5995
   18CHTO  H202 7245   6.824   7.807   1.183  0.9697 -0.5498 -2.1889
   18CHTO  C119 7246   6.544   7.657   1.125 -0.4213 -0.1661  0.4783
   18CHTO  H223 7247   6.447   7.698   1.097  0.9075  3.2007  0.5555
   18CHTO  C117 7248   6.505   7.586   1.264  0.4549  0.6578  0.4716
   18CHTO  H221 7249   6.589   7.553   1.325  0.9078  1.7032  0.4176
   18CHTO   N20 7250   6.419   7.466   1.240  0.0007  0.5168  0.2019
   18CHTO  H209 7251   6.379   7.425   1.332 -0.6422  1.1353  0.2033
   18CHTO  H210 7252   6.331   7.497   1.185 -0.7866 -2.0097 -0.0560
   18CHTO   O80 7253   6.598   7.572   0.984  0.0600 -0.3179  0.1497
   18CHTO  C103 7254   6.496   7.563   0.849 -0.6517  0.4905 -0.1975
   18CHTO  H190 7255   6.567   7.540   0.769 -0.3793 -1.9736  0.6999
   18CHTO  C101 7256   6.382   7.457   0.850 -0.4045  0.1248 -0.4117
   18CHTO  H188 7257   6.341   7.450   0.951  0.1935  2.8504  0.0594
   18CHTO   O68 7258   6.449   7.333   0.822  0.2554  0.7872  0.0858
   18CHTO  H168 7259   6.479   7.328   0.733 -0.7470  0.2757 -0.2338
   18CHTO   C99 7260   6.277   7.479   0.745  1.4732  0.3739 -0.1832
   18CHTO  H186 7261   6.328   7.462   0.647  3.4328 -0.5427  0.9660
   18CHTO   N17 7262   6.162   7.384   0.742  0.4423 -0.0116  0.0746
   18CHTO  H174 7263   6.210   7.287   0.744  1.9951  0.7074 -0.9638
   18CHTO  H175 7264   6.105   7.407   0.831 -0.1707 -1.4497  0.0720
   18CHTO   C97 7265   6.229   7.630   0.743 -0.1037  0.1213  0.5267
   18CHTO  H184 7266   6.180   7.655   0.838  0.3772  1.0736  0.5338
   18CHTO   O64 7267   6.346   7.707   0.720  0.2308  0.0056 -0.2112
   18CHTO  C104 7268   6.441   7.704   0.827  0.0899  0.4684  0.1235
   18CHTO  H191 7269   6.386   7.737   0.916 -1.3105 -1.4697 -0.0020
   18CHTO  C108 7270   6.550   7.804   0.793 -0.6190  0.0400 -0.2455
   18CHTO   O71 7271   6.498   7.935   0.784 -0.1333  0.6242  0.6369
   18CHTO  H171 7272   6.553   7.974   0.718  0.9857 -4.3647 -1.5700
   18CHTO   O62 7273   6.145   7.663   0.633 -0.1898  0.0866  0.3472
   18CHTO   C91 7274   6.053   7.779   0.657 -0.0890  0.4718 -0.2908
   18CHTO  H178 7275   6.063   7.812   0.760  1.5052 -1.7799  0.2983
   18CHTO   C92 7276   5.907   7.728   0.642  0.2753  0.0741  0.5941
   18CHTO  H179 7277   5.905   7.685   0.540 -0.1340  2.2317 -0.3359
   18CHTO   O66 7278   5.879   7.633   0.744 -0.1877 -0.8761 -0.2680
   18CHTO  H166 7279   5.865   7.667   0.830 -0.2060 -0.9861 -0.2275
   18CHTO   C93 7280   5.800   7.843   0.639 -0.0509 -0.4803 -0.6037
   18CHTO  H180 7281   5.790   7.878   0.743 -0.6204  0.0198 -0.8246
   18CHTO   N16 7282   5.668   7.797   0.588 -0.0332  0.7615 -0.5896
   18CHTO  H172 7283   5.596   7.877   0.582 -0.9440  0.1581  1.7256
   18CHTO  H173 7284   5.639   7.716   0.654 -0.2832  0.8154 -0.6323
   18CHTO   C94 7285   5.839   7.970   0.555  0.6107 -0.9042 -0.0165
   18CHTO  H181 7286   5.819   7.958   0.449  0.7380 -2.7810  0.1456
   18CHTO   O61 7287   5.982   8.006   0.568  1.2436  0.2159 -0.1543
   18CHTO   C95 7288   6.072   7.894   0.557  1.0638  0.2589  0.3461
   18CHTO  H182 7289   6.079   7.861   0.454 -0.0316  0.3894  0.2239
   18CHTO  C106 7290   6.208   7.962   0.597 -0.3710 -0.2305 -0.3048
   18CHTO   O69 7291   6.257   8.040   0.493  0.3277  0.0217  0.2797
   18CHTO  H169 7292   6.322   8.100   0.522  0.1049  0.3930  0.0138
   18CHTO   O63 7293   5.760   8.091   0.613  0.0337  0.8590 -0.2416
   18CHTO   C96 7294   5.698   8.194   0.490  0.6063 -0.2745  0.0810
   18CHTO  H183 7295   5.711   8.145   0.393 -1.8523 -2.2106  0.6713
   18CHTO   C98 7296   5.766   8.334   0.475 -0.1774  0.7916 -0.4909
   18CHTO  H185 7297   5.792   8.376   0.573 -1.4697  0.1593  0.1321
   18CHTO   O67 7298   5.889   8.299   0.406 -0.3941 -0.3887 -0.1949
   18CHTO  H167 7299   5.937   8.376   0.382 -0.8288 -0.1614 -0.3567
   18CHTO  C102 7300   5.680   8.443   0.401  0.7049 -0.2457 -0.0308
   18CHTO  H189 7301   5.691   8.429   0.293  0.9040  0.9485 -0.1796
   18CHTO   N18 7302   5.730   8.580   0.424 -0.4721  0.1266 -0.0915
   18CHTO  H176 7303   5.837   8.592   0.413 -0.2445 -0.7803  0.9935
   18CHTO  H177 7304   5.690   8.626   0.513  0.4110  1.5865 -0.4280
   18CHTO  C105 7305   5.527   8.428   0.420 -0.6373  0.6542 -0.6122
   18CHTO  H192 7306   5.494   8.461   0.518 -2.1501  0.5540 -1.0605
   18CHTO   O65 7307   5.480   8.295   0.416 -0.1082 -0.0633  0.8060
   18CHTO  C100 7308   5.542   8.208   0.515  0.3232  0.1978 -0.0097
   18CHTO  H187 7309   5.521   8.254   0.613 -1.3208  0.6230 -0.5478
   18CHTO  C107 7310   5.474   8.073   0.520 -0.4484  0.5635 -0.5211
   18CHTO   O70 7311   5.470   8.015   0.390 -0.1745 -0.0056  0.0386
   18CHTO  H170 7312   5.553   8.015   0.346  0.8821  4.9215  1.6510
   18CHTO   O57 7313   5.447   8.520   0.296 -0.3125 -0.0246  0.2243
   18CHTO   C85 7314   5.311   8.562   0.288  0.6419  0.0340 -0.6866
   18CHTO  H157 7315   5.307   8.619   0.193  3.5854  1.7782  0.1607
   18CHTO   C83 7316   5.263   8.657   0.404  0.3467  0.0383  0.1120
   18CHTO  H155 7317   5.329   8.743   0.408 -1.3715  1.3415  4.5209
   18CHTO   O56 7318   5.273   8.588   0.536  0.0000  0.3011 -0.3354
   18CHTO  H135 7319   5.241   8.641   0.606  0.4352  1.1766 -0.7941
   18CHTO   C81 7320   5.118   8.707   0.373 -0.0497  0.0647  0.1897
   18CHTO  H153 7321   5.127   8.755   0.275  0.9233 -0.4043  0.0379
   18CHTO   N14 7322   5.065   8.806   0.470  0.0787 -0.3042  0.5654
   18CHTO  H141 7323   5.062   8.771   0.571 -0.9630  0.1699  0.7037
   18CHTO  H142 7324   4.966   8.831   0.436  0.6783  0.9628 -0.2716
   18CHTO   C79 7325   5.023   8.578   0.355 -1.0647  0.0454  0.4588
   18CHTO  H151 7326   4.926   8.618   0.325  0.8011  3.8297 -0.7970
   18CHTO   O52 7327   5.079   8.489   0.252 -0.4250  0.3905  0.4121
   18CHTO   C86 7328   5.205   8.443   0.288  0.6774  0.6628  0.6115
   18CHTO  H158 7329   5.191   8.401   0.390 -0.9577 -1.6788 -0.5223
   18CHTO   C90 7330   5.245   8.329   0.192  0.3764  0.4348 -0.5945
   18CHTO   O60 7331   5.140   8.225   0.201 -0.1838 -0.7078  0.1261
   18CHTO  H138 7332   5.169   8.147   0.245  0.6972 -1.4378 -1.6934
   18CHTO   O50 7333   4.981   8.512   0.478  0.2957 -0.6186  0.3301
   18CHTO   C73 7334   4.865   8.434   0.511 -0.3310 -0.0329  0.9972
   18CHTO  H145 7335   4.841   8.350   0.444 -2.5307  1.7229 -0.5163
   18CHTO   C74 7336   4.734   8.518   0.513  0.2353  0.4525  0.1782
   18CHTO  H146 7337   4.731   8.558   0.411  0.1722  3.4808  1.3402
   18CHTO   O54 7338   4.622   8.425   0.519  0.1829  0.5099  0.3247
   18CHTO  H133 7339   4.617   8.387   0.433  1.0376  0.2667  0.3745
   18CHTO   C75 7340   4.740   8.631   0.620 -0.4343  0.5599 -0.7585
   18CHTO  H147 7341   4.821   8.701   0.593 -2.1397  1.2571 -4.3694
   18CHTO   N13 7342   4.623   8.721   0.627 -0.0043  0.4867  0.0463
   18CHTO  H139 7343   4.553   8.701   0.547  0.0213 -2.4779  0.7122
   18CHTO  H140 7344   4.662   8.821   0.639  0.6643 -0.1028  3.4316
   18CHTO   C76 7345   4.773   8.567   0.762 -0.0757  0.4327 -0.4287
   18CHTO  H148 7346   4.684   8.511   0.791  0.0710  0.9113  1.0175
   18CHTO   O49 7347   4.889   8.479   0.750  0.2966  0.3132 -0.6400
   18CHTO   C77 7348   4.874   8.375   0.653  0.3370  0.2044 -0.0513
   18CHTO  H149 7349   4.784   8.319   0.679  0.3006  0.1493 -0.2925
   18CHTO   C88 7350   4.994   8.279   0.668 -0.1597 -0.6204  0.3077
   18CHTO   O58 7351   4.962   8.150   0.619  0.5121  0.0698 -0.1579
   18CHTO  H136 7352   4.946   8.143   0.527  1.5085  1.8106 -0.4742
   18CHTO   O51 7353   4.823   8.688   0.878 -0.5105  0.7373 -0.4278
   18CHTO   C78 7354   4.855   8.614   1.018  0.1460  0.5963 -0.6194
   18CHTO  H150 7355   4.857   8.503   1.005  0.9082  0.8556 -3.1944
   18CHTO   C80 7356   4.751   8.656   1.126 -0.2127  0.0462  0.2695
   18CHTO  H152 7357   4.756   8.767   1.127  3.4891 -0.0704  0.5283
   18CHTO   O55 7358   4.625   8.630   1.074  0.6015  0.2939 -0.4992
   18CHTO  H134 7359   4.602   8.541   1.055 -2.3583  1.0708 -0.8767
   18CHTO   C84 7360   4.785   8.603   1.263 -0.1349 -0.4201 -0.7378
   18CHTO  H156 7361   4.780   8.495   1.250 -1.1370 -0.3219 -1.1939
   18CHTO   N15 7362   4.687   8.650   1.364 -0.2215  0.1282  0.2297
   18CHTO  H143 7363   4.717   8.712   1.446 -0.8218 -1.5155  1.7182
   18CHTO  H144 7364   4.634   8.567   1.404 -2.1735  1.4441  0.4388
   18CHTO   C87 7365   4.930   8.642   1.296 -0.1940  0.8508  0.0137
   18CHTO  H159 7366   4.934   8.751   1.293 -0.2244  0.8185 -2.3443
   18CHTO   O53 7367   5.020   8.572   1.186  0.1591  0.1000 -0.1794
   18CHTO   C82 7368   4.997   8.638   1.064 -1.5244 -0.7462 -0.7951
   18CHTO  H154 7369   5.022   8.742   1.084 -1.2639 -0.8603 -0.5169
   18CHTO   C89 7370   5.100   8.585   0.957  0.9816  0.0471 -0.5708
   18CHTO   O59 7371   5.099   8.666   0.842 -0.3309 -0.1179 -0.3066
   18CHTO  H137 7372   5.109   8.753   0.874  3.0322 -0.1350 -1.1130
   18CHTO   O45 7373   4.979   8.615   1.443  0.4302  0.8152  0.1521
   18CHTO   C67 7374   5.116   8.576   1.467 -0.2799 -0.6237 -0.3659
   18CHTO  H124 7375   5.131   8.497   1.394  1.4124  2.0023 -2.9750
   18CHTO   C65 7376   5.225   8.691   1.437  0.4851 -0.7219 -0.1321
   18CHTO  H122 7377   5.180   8.790   1.445  1.5986 -0.1589 -0.6971
   18CHTO   O44 7378   5.266   8.673   1.301 -0.4099  0.4565 -0.0966
   18CHTO  H102 7379   5.310   8.747   1.264 -0.3057 -0.5620 -2.0978
   18CHTO   C63 7380   5.345   8.687   1.543  0.3865 -0.3548  0.5660
   18CHTO  H120 7381   5.305   8.720   1.639 -1.1117 -1.5944  0.3803
   18CHTO   N11 7382   5.462   8.778   1.523 -0.2847  0.1680 -0.1946
   18CHTO  H108 7383   5.544   8.715   1.495 -0.3837 -1.0661  2.1780
   18CHTO  H109 7384   5.482   8.823   1.618  2.1296  1.8916 -1.4753
   18CHTO   C61 7385   5.377   8.541   1.564 -0.5289 -0.5263  0.1965
   18CHTO  H118 7386   5.463   8.543   1.633  0.4113  0.3329 -0.9607
   18CHTO   O40 7387   5.278   8.461   1.626  0.1688  0.0600  0.3250
   18CHTO   C68 7388   5.139   8.506   1.611  0.3054 -0.6650  0.3580
   18CHTO  H125 7389   5.105   8.579   1.686  1.8347  1.1127 -0.6365
   18CHTO   C72 7390   5.049   8.385   1.625 -0.1532  0.1263 -0.0200
   18CHTO   O48 7391   4.913   8.418   1.625  0.3357 -0.9004  0.3454
   18CHTO  H105 7392   4.883   8.409   1.536  0.9819  1.3052 -0.1291
   18CHTO   O38 7393   5.433   8.481   1.444 -0.5611 -0.0494 -0.6348
   18CHTO   C55 7394   5.540   8.389   1.458 -0.0730  0.1084 -0.1106
   18CHTO  H112 7395   5.545   8.369   1.566  0.6324  0.8811  0.0038
   18CHTO   C56 7396   5.673   8.443   1.400  0.0284  0.1359 -0.2760
   18CHTO  H113 7397   5.645   8.470   1.297 -1.6824  0.7706  0.3298
   18CHTO   O42 7398   5.699   8.564   1.470  0.1874 -0.1086 -0.3758
   18CHTO  H100 7399   5.738   8.544   1.553  0.5000 -0.1466 -0.5306
   18CHTO   C57 7400   5.786   8.329   1.426 -0.6187  0.6657  0.3096
   18CHTO  H114 7401   5.793   8.313   1.533  1.1005  1.8857  0.4171
   18CHTO   N10 7402   5.919   8.370   1.371 -0.1487 -0.1513 -0.0347
   18CHTO  H106 7403   5.968   8.431   1.446 -0.8964 -2.6868  2.6028
   18CHTO  H107 7404   5.904   8.429   1.282 -0.7006 -1.5278 -0.8682
   18CHTO   C58 7405   5.747   8.199   1.366 -0.1750  0.6238 -0.2957
   18CHTO  H115 7406   5.749   8.205   1.255 -1.5138  1.6230 -0.2817
   18CHTO   O37 7407   5.614   8.169   1.393 -0.6874  0.3741 -0.1129
   18CHTO   C59 7408   5.504   8.259   1.376 -0.0878 -0.3789  0.3074
   18CHTO  H116 7409   5.474   8.277   1.272  1.7091  0.5094 -0.0725
   18CHTO   C70 7410   5.382   8.175   1.429 -0.3657 -0.7778 -0.2614
   18CHTO   O46 7411   5.347   8.059   1.352  0.1576 -0.0859 -0.4952
   18CHTO  H103 7412   5.328   8.089   1.265 -1.9802  1.5448  0.4924
   18CHTO   O39 7413   5.854   8.058   1.411  0.1941 -0.7548  0.0885
   18CHTO   C60 7414   5.813   8.025   1.547 -0.4472  0.5815  0.7242
   18CHTO  H117 7415   5.748   8.103   1.587 -2.1965 -0.6533  0.3513
   18CHTO   C62 7416   5.728   7.893   1.540  0.1658 -0.7662  0.1228
   18CHTO  H119 7417   5.647   7.916   1.468 -0.3011 -0.2809  0.8016
   18CHTO   O43 7418   5.804   7.773   1.506 -0.1721 -0.3328  0.1338
   18CHTO  H101 7419   5.825   7.711   1.572 -0.9045  0.4213  1.0932
   18CHTO   C66 7420   5.656   7.872   1.677 -0.2147 -0.2295 -0.4754
   18CHTO  H123 7421   5.596   7.962   1.696  1.0147  0.8110 -1.4471
   18CHTO   N12 7422   5.547   7.764   1.681  0.4847 -0.1203 -0.1747
   18CHTO  H110 7423   5.465   7.792   1.617  2.8028  2.9141 -1.9863
   18CHTO  H111 7424   5.508   7.751   1.780  0.5108  0.8380 -0.0303
   18CHTO   C69 7425   5.760   7.856   1.792  0.2554 -0.0652 -0.5360
   18CHTO  H126 7426   5.810   7.757   1.791 -1.3530 -0.9178  1.3301
   18CHTO   O41 7427   5.872   7.968   1.783 -0.7026 -0.3003 -0.1914
   18CHTO   C64 7428   5.935   8.000   1.644 -0.8035 -0.3682  1.0247
   18CHTO  H121 7429   5.995   7.914   1.608 -0.0232  1.2632 -1.7643
   18CHTO   C71 7430   6.018   8.133   1.657 -0.3476  0.3979  0.6850
   18CHTO   O47 7431   6.134   8.146   1.575  0.0628 -0.1174  0.1703
   18CHTO  H104 7432   6.123   8.229   1.533 -0.1588 -0.2383 -0.0100
   18CHTO   O34 7433   5.697   7.878   1.947  0.1035  0.2146  0.0040
   18CHTO   C49 7434   5.659   7.982   2.073 -0.0331  0.1768 -0.2040
   18CHTO   H91 7435   5.730   7.965   2.154  3.0634  0.2173 -2.7938
   18CHTO   C47 7436   5.511   7.957   2.113  0.4051  0.0670 -0.9114
   18CHTO   H89 7437   5.481   8.032   2.189  0.1879 -2.0756  1.1479
   18CHTO   O33 7438   5.499   7.823   2.164  0.1970  0.2079  0.0042
   18CHTO   H70 7439   5.533   7.825   2.251 -1.1213 -1.1898  0.5741
   18CHTO   C45 7440   5.425   7.985   1.982 -0.3816  0.2196 -0.0715
   18CHTO   H87 7441   5.470   7.926   1.901 -2.2089  0.3759 -1.2164
   18CHTO    N8 7442   5.283   7.944   1.989 -0.3669 -0.1964  0.0671
   18CHTO   H75 7443   5.212   8.022   2.012  0.2397  0.9793 -1.9531
   18CHTO   H76 7444   5.249   7.885   1.905  0.1070  0.3754 -0.5294
   18CHTO   C43 7445   5.443   8.143   1.944 -0.0246 -0.7541  0.6516
   18CHTO   H85 7446   5.387   8.167   1.854  1.1697  1.3997  0.4431
   18CHTO   O29 7447   5.587   8.180   1.931  0.4061  0.8314  0.1459
   18CHTO   C50 7448   5.678   8.129   2.033 -0.7849  0.2300  0.3156
   18CHTO   H92 7449   5.778   8.133   1.986  0.0747  3.5117  2.2475
   18CHTO   C54 7450   5.694   8.232   2.150 -0.4907  0.2178  0.0502
   18CHTO   O36 7451   5.810   8.193   2.227 -0.2695 -0.3261 -0.6969
   18CHTO   H72 7452   5.802   8.230   2.313 -1.4759  0.1747 -1.0105
   18CHTO   O27 7453   5.377   8.219   2.046 -0.2716  0.1260 -0.2521
   18CHTO   C37 7454   5.305   8.342   2.081 -0.4710 -0.4832  0.0632
   18CHTO   H79 7455   5.317   8.362   2.189  0.5993  2.1633 -0.5096
   18CHTO   C38 7456   5.379   8.456   2.011  0.5834  0.5191 -0.6069
   18CHTO   H80 7457   5.410   8.424   1.910  0.2539 -0.1264 -0.5013
   18CHTO   O31 7458   5.500   8.458   2.091  0.2393 -0.3211 -0.0723
   18CHTO   H68 7459   5.569   8.509   2.053  1.4869 -0.1220  2.3399
   18CHTO   C39 7460   5.310   8.595   2.011  0.4684  0.1377  0.8906
   18CHTO   H81 7461   5.323   8.622   2.115  0.0509  0.2487  0.9155
   18CHTO    N7 7462   5.383   8.699   1.930  0.0702 -0.9504  0.1186
   18CHTO   H73 7463   5.357   8.800   1.958  2.0139 -0.7184  1.2044
   18CHTO   H74 7464   5.491   8.696   1.935  0.0149  0.0861  4.3456
   18CHTO   C40 7465   5.160   8.571   1.976  0.9023  0.0709 -0.1449
   18CHTO   H82 7466   5.140   8.555   1.870  2.6978  4.3985 -1.2698
   18CHTO   O26 7467   5.099   8.477   2.060  0.2085 -0.2838 -0.3368
   18CHTO   C41 7468   5.157   8.341   2.035 -0.1179 -0.1224 -0.2052
   18CHTO   H83 7469   5.147   8.314   1.930 -0.5684  1.4838 -0.5953
   18CHTO   C52 7470   5.066   8.246   2.110  0.0897 -0.3714  1.0026
   18CHTO   O35 7471   4.925   8.259   2.076  0.0717  0.3030  0.2245
   18CHTO   H71 7472   4.911   8.347   2.049 -1.8060 -0.3942 -1.2114
   18CHTO   O28 7473   5.088   8.689   2.016 -0.1146 -0.2463  0.5338
   18CHTO   C42 7474   4.948   8.728   2.026  0.2656 -0.2830 -0.0025
   18CHTO   H84 7475   4.963   8.835   2.038  3.1480 -0.3548 -2.2609
   18CHTO   C44 7476   4.873   8.675   2.154 -0.3897  0.0819  0.2117
   18CHTO   H86 7477   4.866   8.566   2.151 -0.1864  0.0241  1.6259
   18CHTO   O32 7478   4.953   8.717   2.268 -0.2113  0.4007 -0.1927
   18CHTO   H69 7479   4.911   8.686   2.346  2.8272 -0.8524  0.9949
   18CHTO   C48 7480   4.724   8.721   2.172  0.4561  0.0920 -0.1641
   18CHTO   H90 7481   4.730   8.828   2.192  2.7312  0.4956 -2.7030
   18CHTO    N9 7482   4.650   8.655   2.287  1.0088  0.2694  0.3840
   18CHTO   H77 7483   4.620   8.735   2.354  2.3465 -0.4424  1.8856
   18CHTO   H78 7484   4.564   8.603   2.248  0.4502  2.9026 -2.0635
   18CHTO   C51 7485   4.658   8.715   2.031  0.5107  0.4181  0.6462
   18CHTO   H93 7486   4.640   8.610   2.007 -1.9306  1.2640 -1.4657
   18CHTO   O30 7487   4.738   8.781   1.939 -0.1922  0.2767  0.0932
   18CHTO   C46 7488   4.856   8.713   1.901 -0.1137 -0.6046  0.4162
   18CHTO   H88 7489   4.833   8.611   1.872  0.3131 -1.3161  2.4416
   18CHTO   C53 7490   4.925   8.791   1.785 -0.3446  0.1043  0.1231
   18CHTO   O72 7491   4.848   8.778   1.664  0.1790 -0.2194  0.4698
   18CHTO  H199 7492   4.841   8.692   1.629 -2.1842  0.8875 -1.9665
   18CHTO   O22 7493   4.532   8.774   2.026  0.7937  0.2063  0.3104
   18CHTO   C31 7494   4.438   8.766   1.912 -1.0392  0.0812  0.6311
   18CHTO   H59 7495   4.357   8.836   1.942 -1.8714  0.6407 -2.7089
   18CHTO   C29 7496   4.489   8.819   1.775  0.3764  0.3916  0.4421
   18CHTO   H57 7497   4.566   8.755   1.730  0.9896  1.1631  0.3848
   18CHTO   O21 7498   4.555   8.946   1.808  0.3007 -0.0223 -0.1968
   18CHTO   H37 7499   4.509   9.017   1.767  0.3558  0.7753  1.1186
   18CHTO   C27 7500   4.369   8.822   1.672 -0.0198  0.1475 -0.6532
   18CHTO   H55 7501   4.293   8.891   1.712 -2.0481 -2.5349  0.3283
   18CHTO    N5 7502   4.401   8.870   1.542 -0.6570  0.0421 -0.4111
   18CHTO   H43 7503   4.314   8.917   1.498  1.6185  3.5928 -1.3753
   18CHTO   H44 7504   4.478   8.945   1.545 -0.0801 -0.5926  0.7215
   18CHTO   C25 7505   4.305   8.679   1.661 -0.0557  0.3802  0.3168
   18CHTO   H53 7506   4.379   8.607   1.621 -1.4852 -0.9837  0.0681
   18CHTO   O17 7507   4.265   8.635   1.793  0.0195 -0.2726  0.0195
   18CHTO   C32 7508   4.365   8.632   1.905  0.6621 -0.2046  0.4861
   18CHTO   H60 7509   4.434   8.550   1.887  0.4925 -0.5757  1.4993
   18CHTO   C36 7510   4.281   8.585   2.029 -0.4140  0.2443  0.8114
   18CHTO   O25 7511   4.135   8.598   2.029  0.5695  0.3391  0.9834
   18CHTO   H40 7512   4.096   8.598   2.115  1.8420 -1.5818  1.5881
   18CHTO   O15 7513   4.163   8.676   1.563 -0.0846  0.1843 -0.5692
   18CHTO   C19 7514   4.163   8.602   1.436 -0.1032  0.0727 -0.2001
   18CHTO   H47 7515   4.055   8.598   1.415 -0.4075  1.2071  1.0423
   18CHTO   C20 7516   4.228   8.686   1.315  0.3264  0.2350  0.4913
   18CHTO   H48 7517   4.333   8.714   1.337  0.8813 -0.2774 -1.4586
   18CHTO   O19 7518   4.148   8.804   1.302 -0.4635  0.1058 -0.0986
   18CHTO   H35 7519   4.190   8.872   1.253  0.1288  0.1892  0.5227
   18CHTO   C21 7520   4.226   8.604   1.177  0.0309  0.1550  0.4569
   18CHTO   H49 7521   4.122   8.596   1.146  0.1181  0.9326 -0.0442
   18CHTO    N4 7522   4.283   8.664   1.055 -0.0167  0.1854  0.3845
   18CHTO   H41 7523   4.232   8.626   0.968 -3.2388  0.7443  1.9533
   18CHTO   H42 7524   4.248   8.767   1.062  0.7824  0.4665  0.2964
   18CHTO   C22 7525   4.291   8.467   1.203 -0.6297 -0.6693 -0.3664
   18CHTO   H50 7526   4.396   8.475   1.232 -0.0859 -4.4030 -1.0919
   18CHTO   O14 7527   4.211   8.405   1.305  0.3250 -0.0337 -0.0938
   18CHTO   C23 7528   4.214   8.461   1.435 -0.1558  0.5054 -0.3582
   18CHTO   H51 7529   4.319   8.449   1.467 -0.0904 -3.4723 -1.8391
   18CHTO   C34 7530   4.114   8.383   1.526 -0.2021  0.5684  0.2998
   18CHTO   O23 7531   4.160   8.256   1.570  1.0774 -0.5380 -0.5757
   18CHTO   H38 7532   4.100   8.248   1.642  1.5733  0.0692 -0.0855
   18CHTO   O16 7533   4.289   8.372   1.102 -0.7189  0.6895 -0.5351
   18CHTO   C24 7534   4.427   8.290   1.070  0.4283  0.5663 -0.0681
   18CHTO   H52 7535   4.516   8.337   1.112  1.4884 -0.1769 -1.4496
   18CHTO   C26 7536   4.428   8.261   0.916 -0.7889 -0.0299  0.1509
   18CHTO   H54 7537   4.331   8.221   0.881 -0.0920  0.7802 -2.8293
   18CHTO   O20 7538   4.451   8.382   0.839  0.2762  1.1856 -0.2541
   18CHTO   H36 7539   4.381   8.442   0.854 -2.2838 -1.3180 -1.8030
   18CHTO   C30 7540   4.542   8.158   0.877 -0.4500  0.1249 -0.3743
   18CHTO   H58 7541   4.645   8.197   0.866  1.3441 -3.7468  1.5553
   18CHTO    N6 7542   4.519   8.110   0.737  0.1801  0.2221  0.3621
   18CHTO   H45 7543   4.594   8.157   0.675  0.5114  0.6856  1.1112
   18CHTO   H46 7544   4.525   8.002   0.732  0.5817  0.3000 -0.9622
   18CHTO   C33 7545   4.546   8.041   0.982 -0.2611 -0.4670  0.5275
   18CHTO   H61 7546   4.459   7.979   0.953 -1.0449  0.2741  1.2874
   18CHTO   O18 7547   4.536   8.078   1.121 -0.1450 -0.1669 -0.1280
   18CHTO   C28 7548   4.420   8.156   1.148  0.4610  0.3454 -0.1239
   18CHTO   H56 7549   4.333   8.105   1.106  0.1113  0.1313  0.8635
   18CHTO   C35 7550   4.412   8.167   1.303 -0.0011  0.6703  0.0122
   18CHTO   O24 7551   4.509   8.249   1.363  0.1900 -0.3910 -0.3232
   18CHTO   H39 7552   4.582   8.193   1.379  0.6623  0.1105 -0.7022
   18CHTO    O9 7553   4.663   7.951   0.959 -0.1454 -0.2801  0.1486
   18CHTO   C13 7554   4.784   7.953   1.069  0.1330 -0.7495  0.5012
   18CHTO   H26 7555   4.738   7.931   1.168 -1.2202 -1.2992 -0.2468
   18CHTO   C11 7556   4.859   8.095   1.073  0.3865 -0.4387  0.6068
   18CHTO   H24 7557   4.791   8.170   1.115 -0.5970  0.7363 -2.8975
   18CHTO    O8 7558   4.895   8.142   0.941 -0.5573  0.1646  0.3701
   18CHTO    H3 7559   4.820   8.132   0.886  0.2152 -0.0895 -0.6483
   18CHTO    C9 7560   4.976   8.079   1.171  0.1064 -0.8450 -0.1701
   18CHTO   H22 7561   4.932   8.047   1.267  1.4094 -1.0727  0.3540
   18CHTO    N2 7562   5.032   8.210   1.206 -0.1362 -0.3317 -0.4926
   18CHTO   H10 7563   4.996   8.251   1.299  1.9928  0.1837  0.1366
   18CHTO   H11 7564   5.025   8.277   1.122 -0.4994 -0.3533 -0.4801
   18CHTO    C7 7565   5.070   7.968   1.127 -0.4743 -0.5633  0.0547
   18CHTO   H20 7566   5.149   7.964   1.205 -1.4235  0.5800  1.1031
   18CHTO    O4 7567   4.996   7.847   1.126 -0.1715  0.3973  0.2130
   18CHTO   C14 7568   4.877   7.830   1.050 -0.2078  0.5996 -0.2193
   18CHTO   H27 7569   4.815   7.744   1.086 -0.3257  1.6071  2.0860
   18CHTO   C18 7570   4.917   7.795   0.900 -0.1718  0.3405 -0.6676
   18CHTO   O13 7571   4.810   7.775   0.804 -0.0863  0.2414 -0.4792
   18CHTO    H7 7572   4.827   7.816   0.721 -0.6324  2.2252  0.3706
   18CHTO    O2 7573   5.141   8.000   0.978  0.2563 -0.6070 -0.3588
   18CHTO    C1 7574   5.276   7.956   0.941 -0.4963  0.5258  0.4792
   18CHTO   H14 7575   5.281   7.961   0.830  1.4015  2.5754  0.6075
   18CHTO    C2 7576   5.318   7.808   0.987  0.1206 -0.0214  0.8351
   18CHTO   H15 7577   5.312   7.805   1.097  1.1224  0.0195  0.8980
   18CHTO    O6 7578   5.221   7.718   0.920 -0.6046 -0.0443  0.0761
   18CHTO    H1 7579   5.145   7.712   0.975 -0.8532  0.5462 -0.1989
   18CHTO    C3 7580   5.473   7.785   0.947  0.2517  0.1555  0.1276
   18CHTO   H16 7581   5.484   7.786   0.838  0.5841 -1.0496  0.1382
   18CHTO    N1 7582   5.511   7.649   0.993 -0.3876  0.0016  0.3927
   18CHTO    H8 7583   5.451   7.624   1.079  1.9269 -0.5584  1.9009
   18CHTO    H9 7584   5.480   7.589   0.908 -2.9149  0.7941  0.7141
   18CHTO    C4 7585   5.564   7.907   1.005 -0.0144  0.0720  0.3428
   18CHTO   H17 7586   5.560   7.903   1.113  0.5645 -0.7735  0.3329
   18CHTO    O1 7587   5.504   8.033   0.957 -0.7267 -0.7105 -0.4288
   18CHTO    C5 7588   5.374   8.062   0.996  0.1950 -0.1160 -0.4202
   18CHTO   H18 7589   5.361   8.055   1.104  0.5317  0.1450 -0.3634
   18CHTO   C16 7590   5.338   8.210   0.944  0.4943 -0.3331 -0.2757
   18CHTO   O11 7591   5.398   8.321   1.020  0.5664 -0.3378 -0.0409
   18CHTO    H5 7592   5.377   8.307   1.110 -3.1455  0.5218 -0.6722
   18CHTO    O3 7593   5.705   7.904   0.967 -0.4605 -0.2589  0.0166
   18CHTO    C6 7594   5.798   7.945   1.073  0.8701  0.1115 -0.6846
   18CHTO   H19 7595   5.749   8.007   1.148 -1.0293 -0.4802 -1.4103
   18CHTO    C8 7596   5.869   7.817   1.125  0.6594 -0.0417 -0.5165
   18CHTO   H21 7597   5.895   7.758   1.037 -3.1514 -0.4640 -1.4556
   18CHTO    O7 7598   5.779   7.739   1.205 -0.0188  0.1349 -0.1973
   18CHTO    H2 7599   5.762   7.777   1.289  1.7332  1.7521 -0.5383
   18CHTO   C12 7600   5.994   7.851   1.217 -0.1228  0.6295  0.4268
   18CHTO   H25 7601   5.955   7.896   1.310 -0.5017  3.6582 -1.1441
   18CHTO    N3 7602   6.075   7.731   1.245  0.5427 -0.1766  0.0318
   18CHTO   H12 7603   6.015   7.658   1.297 -1.2540  1.3656  0.1733
   18CHTO   H13 7604   6.096   7.700   1.144 -0.0298 -0.8772  0.1248
   18CHTO   C15 7605   6.078   7.964   1.155 -0.7458 -0.2228  0.2783
   18CHTO   H28 7606   6.139   7.932   1.071  0.7482  0.1877  1.1846
   18CHTO   O10 7607   6.160   8.043   1.277  0.5155  0.3568 -0.4065
   18CHTO    H4 7608   6.212   8.111   1.238  0.5884  1.1115  0.9923
   18CHTO    O5 7609   6.000   8.075   1.104 -0.2345 -0.1714  0.8205
   18CHTO   C10 7610   5.902   8.039   1.005 -0.8588  0.4304 -0.9371
   18CHTO   H23 7611   5.959   7.993   0.924  0.5559 -0.0207  0.2772
   18CHTO   C17 7612   5.849   8.167   0.952  0.2645 -0.0101  0.1882
   18CHTO   O12 7613   5.949   8.226   0.861 -0.2615  0.6787 -0.6701
   18CHTO    H6 7614   5.919   8.309   0.830  1.1035  0.6407 -2.1800
   19CHTO  H203 7615   5.264   0.018   0.141 -0.0441 -0.8049  0.4280
   19CHTO   O82 7616   5.199  -0.023   0.194 -0.1467 -0.6486  0.4252
   19CHTO  C123 7617   5.122  -0.123   0.119 -0.0675 -1.0216 -0.0165
   19CHTO  H227 7618   5.066  -0.074   0.038 -2.3522 -2.6027  0.5603
   19CHTO   O77 7619   5.217  -0.226   0.075  0.1803 -0.1611  0.6829
   19CHTO  C118 7620   5.170  -0.329  -0.009  0.1024 -0.4045 -0.6487
   19CHTO  H222 7621   5.128  -0.285  -0.101  0.4089  2.5658  0.5575
   19CHTO  C125 7622   5.309  -0.406  -0.056 -0.1394  0.2663 -0.3521
   19CHTO   O84 7623   5.392  -0.462   0.045 -0.1715 -0.0082  0.4801
   19CHTO  H205 7624   5.481  -0.480   0.025  0.1828  1.0165  1.0794
   19CHTO  C114 7625   5.063  -0.412   0.067  0.0574  0.3554 -0.5071
   19CHTO  H218 7626   5.108  -0.450   0.159 -0.1703 -0.2070 -0.6274
   19CHTO  C116 7627   4.952  -0.318   0.106  0.6433 -0.4358  0.6681
   19CHTO  H220 7628   4.919  -0.269   0.012  0.5112  0.5639  1.2293
   19CHTO   O79 7629   4.848  -0.388   0.170 -0.5275 -0.9383  0.2412
   19CHTO  H201 7630   4.810  -0.442   0.103  0.6071 -0.9615 -0.3856
   19CHTO  C120 7631   5.014  -0.201   0.202  0.2117  0.1312  0.3204
   19CHTO  H224 7632   5.067  -0.259   0.281  2.2616 -0.9339 -1.7846
   19CHTO   N21 7633   4.911  -0.113   0.258  0.0602 -0.7923 -0.5142
   19CHTO  H211 7634   4.936  -0.082   0.358  1.3066  1.3269 -1.4404
   19CHTO  H212 7635   4.810  -0.149   0.255  0.0021 -0.8053  1.4482
   19CHTO   O75 7636   5.027  -0.514  -0.021  0.4667  0.7224 -0.6155
   19CHTO  C112 7637   5.026  -0.673   0.052  0.4938  0.6827 -0.0881
   19CHTO  H216 7638   4.992  -0.663   0.156 -0.5002 -0.4043 -0.3025
   19CHTO   O73 7639   5.167  -0.724   0.040 -0.2146  0.3249 -0.2130
   19CHTO  C113 7640   5.180  -0.864   0.088  0.6113 -0.3392 -0.0952
   19CHTO  H217 7641   5.142  -0.867   0.192 -0.6639  2.3896 -0.4397
   19CHTO  C124 7642   5.331  -0.897   0.104 -0.7452  0.0871  0.3149
   19CHTO   O83 7643   5.391  -0.798   0.183  0.0623 -0.0725  0.5988
   19CHTO  H204 7644   5.468  -0.774   0.135 -0.5760 -4.1798 -2.7457
   19CHTO  C109 7645   5.102  -0.958  -0.000 -0.2915 -0.2629  0.2026
   19CHTO  H213 7646   5.142  -0.949  -0.102  0.9082 -3.1467  0.3736
   19CHTO  C110 7647   4.948  -0.919  -0.011  0.2873 -0.4270  0.3534
   19CHTO  H214 7648   4.905  -0.948   0.085  1.9815  1.1859  1.6350
   19CHTO   O78 7649   4.884  -0.985  -0.126  0.2315 -0.6950 -0.5636
   19CHTO  H200 7650   4.817  -1.045  -0.100 -0.2133  0.2565  0.5248
   19CHTO  C111 7651   4.921  -0.765  -0.028  0.7570  0.0582  0.5483
   19CHTO  H215 7652   4.939  -0.742  -0.134 -1.5359 -0.1754  0.0838
   19CHTO   N19 7653   4.781  -0.714  -0.005  0.4626  0.2062  0.0717
   19CHTO  H207 7654   4.725  -0.739  -0.093  3.6492  0.5397 -2.1600
   19CHTO  H208 7655   4.741  -0.750   0.088  0.4602  1.3761  0.5273
   19CHTO   O74 7656   5.111  -1.100   0.040  0.8898 -0.2963 -0.1421
   19CHTO  C115 7657   5.099  -1.209  -0.102 -0.1131  0.6662  0.4525
   19CHTO  H219 7658   5.010  -1.186  -0.161 -0.0964  1.6803  0.8178
   19CHTO   O76 7659   5.225  -1.197  -0.203  0.4184 -0.1926 -0.3898
   19CHTO  C122 7660   5.331  -1.286  -0.180 -0.2385 -0.2411 -0.3216
   19CHTO  H226 7661   5.380  -1.260  -0.086 -0.0320 -0.3092 -0.4093
   19CHTO  C126 7662   5.441  -1.273  -0.286  0.3216  0.8223  0.4277
   19CHTO   O85 7663   5.499  -1.139  -0.272 -0.2912  0.0781  0.1603
   19CHTO  H206 7664   5.546  -1.121  -0.351  0.4591  1.1547  0.8411
   19CHTO  C121 7665   5.290  -1.441  -0.164  0.1142 -0.0639  0.0631
   19CHTO  H225 7666   5.314  -1.488  -0.262  0.8122 -0.2589  0.3294
   19CHTO   O81 7667   5.378  -1.493  -0.061 -0.1708  0.0416  0.1015
   19CHTO  H202 7668   5.463  -1.518  -0.090  0.3436  1.1515  0.6459
   19CHTO  C119 7669   5.141  -1.463  -0.134 -0.1401 -0.3004 -0.5245
   19CHTO  H223 7670   5.081  -1.461  -0.225  0.7951 -0.9114 -1.1628
   19CHTO  C117 7671   5.087  -1.351  -0.035  0.2068 -0.1978 -0.2122
   19CHTO  H221 7672   5.136  -1.348   0.062 -0.8163  0.7165  0.2856
   19CHTO   N20 7673   4.943  -1.367  -0.013 -0.0435 -0.4329  0.0749
   19CHTO  H209 7674   4.896  -1.278   0.027  0.8731 -0.6116  1.5815
   19CHTO  H210 7675   4.892  -1.407  -0.100 -1.0238  1.0351 -0.0448
   19CHTO   O80 7676   5.109  -1.615  -0.077 -0.5485 -0.3284 -0.3318
   19CHTO  C103 7677   5.108  -1.739  -0.180 -0.4523 -0.0910 -0.6948
   19CHTO  H190 7678   5.083  -1.710  -0.282 -1.4643 -0.0370 -0.4431
   19CHTO  C101 7679   5.231  -1.835  -0.171 -0.4561 -0.2976  0.1826
   19CHTO  H188 7680   5.259  -1.848  -0.066  2.8729  1.0500 -0.4625
   19CHTO   O68 7681   5.350  -1.772  -0.229 -0.2660  0.4585  0.0961
   19CHTO  H168 7682   5.416  -1.839  -0.237 -0.4232  0.4327 -1.0652
   19CHTO   C99 7683   5.208  -1.985  -0.240  0.7396 -0.7316  0.6125
   19CHTO  H186 7684   5.199  -1.969  -0.349  3.5365 -1.7895  0.1806
   19CHTO   N17 7685   5.325  -2.075  -0.228  0.4049 -0.7920  0.1925
   19CHTO  H174 7686   5.302  -2.163  -0.287  2.2875  0.0644 -1.8787
   19CHTO  H175 7687   5.340  -2.084  -0.122  0.7187  0.6266  0.2662
   19CHTO   C97 7688   5.071  -2.046  -0.197 -0.3116 -0.1710 -0.7984
   19CHTO  H184 7689   5.072  -2.098  -0.100 -2.3537  0.6899 -0.2904
   19CHTO   O64 7690   4.970  -1.942  -0.200 -0.3358  0.7218  0.3162
   19CHTO  C104 7691   4.985  -1.825  -0.118  1.1084  0.6809  0.5839
   19CHTO  H191 7692   5.009  -1.858  -0.017 -1.1575  0.5422  1.1138
   19CHTO  C108 7693   4.846  -1.755  -0.103  0.2135  0.4501 -0.9340
   19CHTO   O71 7694   4.794  -1.707  -0.225 -0.0410  0.2491  0.3052
   19CHTO  H171 7695   4.703  -1.724  -0.242 -0.2326 -1.4696  2.8842
   19CHTO   O62 7696   5.031  -2.146  -0.297 -0.3988 -0.3561 -0.0587
   19CHTO   C91 7697   4.919  -2.227  -0.275 -0.2701 -0.3022 -0.3406
   19CHTO  H178 7698   4.869  -2.207  -0.180 -0.0685 -0.9225 -0.0962
   19CHTO   C92 7699   4.980  -2.376  -0.274 -0.8790 -0.9717  0.6703
   19CHTO  H179 7700   5.041  -2.396  -0.363  0.3001  0.6081  1.1165
   19CHTO   O66 7701   5.065  -2.386  -0.155  0.0708 -0.0384  0.3264
   19CHTO  H166 7702   5.112  -2.467  -0.156  0.5536  0.2474 -0.1805
   19CHTO   C93 7703   4.861  -2.480  -0.266  0.5511  0.6150 -0.6923
   19CHTO  H180 7704   4.827  -2.476  -0.161 -1.1265 -1.7968 -1.1030
   19CHTO   N16 7705   4.904  -2.626  -0.280  0.1285 -0.5295  0.0295
   19CHTO  H172 7706   5.010  -2.644  -0.277  0.2738  0.3446  0.1063
   19CHTO  H173 7707   4.852  -2.689  -0.209 -0.1990 -2.0421 -1.5184
   19CHTO   C94 7708   4.745  -2.444  -0.364  0.1333 -0.4527 -0.5450
   19CHTO  H181 7709   4.774  -2.450  -0.469  2.8479  2.2607 -0.0028
   19CHTO   O61 7710   4.705  -2.312  -0.335 -0.1896  0.1685 -0.0522
   19CHTO   C95 7711   4.804  -2.215  -0.374  0.1583 -0.5608  0.3978
   19CHTO  H182 7712   4.834  -2.237  -0.477 -1.1451 -2.6804  0.4548
   19CHTO  C106 7713   4.728  -2.082  -0.372 -0.1391 -0.1679 -0.3135
   19CHTO   O69 7714   4.806  -1.999  -0.457 -0.1038 -0.5005 -0.4278
   19CHTO  H169 7715   4.765  -1.923  -0.493  2.1791  1.2583  0.5384
   19CHTO   O63 7716   4.618  -2.530  -0.331  0.1473 -0.1592 -0.1188
   19CHTO   C96 7717   4.498  -2.567  -0.443  0.0033 -0.6246  0.8211
   19CHTO  H183 7718   4.558  -2.608  -0.524  1.6462  0.0141  1.6827
   19CHTO   C98 7719   4.409  -2.450  -0.481  0.4753 -0.5262  0.5660
   19CHTO  H185 7720   4.467  -2.359  -0.503 -1.1118  0.3910  0.0770
   19CHTO   O67 7721   4.338  -2.479  -0.604  0.5105  0.0859  0.2592
   19CHTO  H167 7722   4.343  -2.407  -0.664  0.4873  0.0717  0.2397
   19CHTO  C102 7723   4.309  -2.409  -0.372  0.4701  0.8377  0.1638
   19CHTO  H189 7724   4.237  -2.345  -0.425  2.4519  1.7221 -1.5483
   19CHTO   N18 7725   4.370  -2.329  -0.261 -0.4808 -0.9207  0.0243
   19CHTO  H176 7726   4.325  -2.239  -0.224 -1.1088 -1.1847 -0.0857
   19CHTO  H177 7727   4.410  -2.392  -0.183 -2.9780 -0.2289  1.9010
   19CHTO  C105 7728   4.237  -2.536  -0.318 -0.6512  0.5075  0.0636
   19CHTO  H192 7729   4.277  -2.552  -0.218  2.5608  1.4085 -1.0157
   19CHTO   O65 7730   4.261  -2.655  -0.394 -0.1409  0.2876  0.2096
   19CHTO  C100 7731   4.399  -2.687  -0.385 -0.2577  0.3582  0.0560
   19CHTO  H187 7732   4.430  -2.711  -0.283  0.5535 -1.0128 -0.4971
   19CHTO  C107 7733   4.434  -2.815  -0.457 -0.1369  0.1125 -0.4137
   19CHTO   O70 7734   4.571  -2.852  -0.437 -0.3016  0.0276  0.9625
   19CHTO  H170 7735   4.577  -2.945  -0.448 -2.6554 -0.1570  1.0078
   19CHTO   O57 7736   4.072  -2.489  -0.328  0.6122 -0.1446 -0.0993
   19CHTO   C85 7737   3.966  -2.577  -0.366 -0.0497 -0.0348  0.0038
   19CHTO  H157 7738   3.986  -2.679  -0.326 -0.2333  0.9932  2.7989
   19CHTO   C83 7739   3.964  -2.602  -0.520  0.6324 -1.1053 -0.8735
   19CHTO  H155 7740   4.060  -2.648  -0.544  1.2783 -0.6842  0.8212
   19CHTO   O56 7741   3.972  -2.475  -0.588  0.3047 -0.1604  0.2373
   19CHTO  H135 7742   4.038  -2.494  -0.651  0.3279  1.4865 -0.2527
   19CHTO   C81 7743   3.857  -2.696  -0.571 -0.1786  0.0330  1.0690
   19CHTO  H153 7744   3.870  -2.794  -0.526 -1.5477  0.6987  2.9615
   19CHTO   N14 7745   3.865  -2.730  -0.716 -0.1461  0.2420  0.1078
   19CHTO  H141 7746   3.770  -2.759  -0.756  0.4377 -1.1884 -0.2734
   19CHTO  H142 7747   3.908  -2.648  -0.771  0.8992  0.6605  1.5246
   19CHTO   C79 7748   3.719  -2.636  -0.523  0.2102  0.3635  0.8913
   19CHTO  H151 7749   3.642  -2.711  -0.540 -1.2431  1.9204  0.3917
   19CHTO   O52 7750   3.715  -2.607  -0.379 -0.4970  0.3267 -0.1035
   19CHTO   C86 7751   3.818  -2.525  -0.328  0.3688 -0.4965  0.6187
   19CHTO  H158 7752   3.796  -2.428  -0.378 -0.4353 -0.8590  0.2559
   19CHTO   C90 7753   3.802  -2.495  -0.173 -0.3705  0.2440  0.0864
   19CHTO   O60 7754   3.675  -2.433  -0.141 -0.0773  0.1340 -0.4744
   19CHTO  H138 7755   3.613  -2.487  -0.096  0.5457  0.6706  1.0713
   19CHTO   O50 7756   3.670  -2.529  -0.609  0.4655  0.6981 -0.3119
   19CHTO   C73 7757   3.558  -2.465  -0.674 -0.1771 -0.3825  0.6759
   19CHTO  H145 7758   3.473  -2.535  -0.669  0.5936 -1.2507  1.8973
   19CHTO   C74 7759   3.591  -2.418  -0.822 -0.3181 -0.5006 -0.3474
   19CHTO  H146 7760   3.604  -2.510  -0.880  1.5354 -0.8881  0.6184
   19CHTO   O54 7761   3.473  -2.353  -0.872 -0.1498 -0.2095 -0.3749
   19CHTO  H133 7762   3.496  -2.289  -0.937  4.0056 -0.0403  1.1139
   19CHTO   C75 7763   3.726  -2.322  -0.822 -0.0236  0.0626 -0.0819
   19CHTO  H147 7764   3.811  -2.384  -0.791  0.6912  1.8210  1.5377
   19CHTO   N13 7765   3.769  -2.285  -0.957 -0.2468 -0.5643  0.0451
   19CHTO  H139 7766   3.703  -2.338  -1.024 -1.2939  2.3223 -1.3361
   19CHTO  H140 7767   3.743  -2.183  -0.982  0.3278 -0.8923 -2.0012
   19CHTO   C76 7768   3.707  -2.203  -0.714 -0.1680  0.5605  0.5648
   19CHTO  H148 7769   3.643  -2.129  -0.762 -0.6859  0.5282  1.1998
   19CHTO   O49 7770   3.640  -2.246  -0.586  0.5209 -0.5245  0.2264
   19CHTO   C77 7771   3.525  -2.336  -0.590 -0.1693 -0.1922  0.2177
   19CHTO  H149 7772   3.435  -2.283  -0.620  0.6458  1.5490  0.8256
   19CHTO   C88 7773   3.484  -2.385  -0.442  0.2363 -0.1600  0.5091
   19CHTO   O58 7774   3.364  -2.481  -0.450 -0.1245  0.0989  0.3861
   19CHTO  H136 7775   3.302  -2.472  -0.380 -1.4853 -1.1580 -0.6155
   19CHTO   O51 7776   3.836  -2.148  -0.676  0.6192 -0.0677 -0.3544
   19CHTO   C78 7777   3.808  -1.996  -0.641  0.0078 -0.4509 -0.6156
   19CHTO  H150 7778   3.702  -1.979  -0.611  0.0415  1.0329 -1.2838
   19CHTO   C80 7779   3.844  -1.898  -0.755  0.1202  0.1343 -0.0504
   19CHTO  H152 7780   3.938  -1.932  -0.803  1.1326  0.6925  1.4860
   19CHTO   O55 7781   3.751  -1.922  -0.862 -0.2700  0.1031 -0.1256
   19CHTO  H134 7782   3.668  -1.881  -0.847 -1.2591 -0.7725 -2.8115
   19CHTO   C84 7783   3.845  -1.749  -0.705 -0.7429  0.0616  0.5977
   19CHTO  H156 7784   3.739  -1.725  -0.693 -1.1686 -1.6925  0.4112
   19CHTO   N15 7785   3.909  -1.656  -0.811  0.3198 -0.5798  0.3269
   19CHTO  H143 7786   4.004  -1.693  -0.845  0.7340 -0.5696  1.4551
   19CHTO  H144 7787   3.919  -1.561  -0.764 -3.3735  0.2952 -0.5114
   19CHTO   C87 7788   3.929  -1.740  -0.578 -0.0599  0.3991 -0.2108
   19CHTO  H159 7789   4.034  -1.763  -0.594  0.1121  0.5561  0.6424
   19CHTO   O53 7790   3.875  -1.829  -0.479 -0.0513 -0.3465  0.1071
   19CHTO   C82 7791   3.892  -1.965  -0.512 -0.0625 -0.3434  0.5098
   19CHTO  H154 7792   3.995  -1.991  -0.533  0.4442  1.4449  0.6978
   19CHTO   C89 7793   3.838  -2.050  -0.391  0.1056  0.1639  0.0080
   19CHTO   O59 7794   3.831  -2.190  -0.411 -0.2151 -0.0661 -0.2782
   19CHTO  H137 7795   3.777  -2.225  -0.343  0.3435 -0.0471  0.1787
   19CHTO   O45 7796   3.904  -1.582  -0.504  0.3931 -0.0861  0.1254
   19CHTO   C67 7797   3.770  -1.549  -0.454 -0.1152 -0.7409 -0.0931
   19CHTO  H124 7798   3.697  -1.582  -0.528  0.1660  0.7468 -1.0593
   19CHTO   C65 7799   3.734  -1.617  -0.313  0.1227 -0.3617 -1.0731
   19CHTO  H122 7800   3.824  -1.664  -0.274  0.1091 -0.7623 -1.5137
   19CHTO   O44 7801   3.640  -1.722  -0.341  0.1806 -0.1074  0.0369
   19CHTO  H102 7802   3.554  -1.689  -0.356  0.1221  0.3176  1.2273
   19CHTO   C63 7803   3.696  -1.514  -0.199  0.3158 -0.5319 -0.2078
   19CHTO  H120 7804   3.785  -1.459  -0.166 -0.8944  0.3722  1.6444
   19CHTO   N11 7805   3.658  -1.578  -0.066 -0.5777  0.6459  0.5325
   19CHTO  H108 7806   3.729  -1.655  -0.044  0.7605  1.2831 -1.4300
   19CHTO  H109 7807   3.553  -1.598  -0.058 -0.9109  1.4440 -1.6157
   19CHTO   C61 7808   3.595  -1.416  -0.254 -0.1076 -0.3968 -0.2916
   19CHTO  H118 7809   3.574  -1.338  -0.179  1.0774 -0.3451 -0.0039
   19CHTO   O40 7810   3.642  -1.348  -0.379 -0.5669 -0.0585  0.9948
   19CHTO   C68 7811   3.765  -1.388  -0.439 -0.5403  0.0109 -0.7134
   19CHTO  H125 7812   3.847  -1.352  -0.374 -0.2263  0.6393 -1.4384
   19CHTO   C72 7813   3.781  -1.303  -0.567  0.0936  0.4909  0.3291
   19CHTO   O48 7814   3.694  -1.341  -0.672  0.7045  0.8368 -0.6825
   19CHTO  H105 7815   3.672  -1.273  -0.733  0.8322  0.6001 -0.9913
   19CHTO   O38 7816   3.475  -1.492  -0.288 -0.3461 -0.7425 -0.1334
   19CHTO   C55 7817   3.356  -1.412  -0.307  0.7915 -0.5607  0.0878
   19CHTO  H112 7818   3.389  -1.315  -0.348  0.9230 -0.6458 -0.0084
   19CHTO   C56 7819   3.271  -1.396  -0.172 -0.3048  0.3413 -0.0472
   19CHTO  H113 7820   3.227  -1.492  -0.143  2.3649 -1.1371 -0.7687
   19CHTO   O42 7821   3.347  -1.356  -0.060 -0.5370  0.3152 -1.0875
   19CHTO  H100 7822   3.408  -1.292  -0.091 -0.0351  0.1146 -0.5237
   19CHTO   C57 7823   3.143  -1.299  -0.195 -0.3943  0.8283  0.2863
   19CHTO  H114 7824   3.176  -1.196  -0.214  3.0921 -0.4015 -0.6348
   19CHTO   N10 7825   3.045  -1.291  -0.079  0.4745  0.4742 -0.2222
   19CHTO  H106 7826   3.102  -1.300   0.012 -1.5598  0.6309  1.0846
   19CHTO  H107 7827   2.987  -1.382  -0.087  1.4225 -0.0592 -1.1857
   19CHTO   C58 7828   3.064  -1.340  -0.323 -0.2193  0.3148  0.4080
   19CHTO  H115 7829   3.019  -1.439  -0.302  1.3497  0.3600  4.3651
   19CHTO   O37 7830   3.152  -1.348  -0.439  0.3293 -0.0191  0.7709
   19CHTO   C59 7831   3.251  -1.458  -0.417  0.2955  0.4746 -0.4454
   19CHTO  H116 7832   3.204  -1.551  -0.386 -1.4165  0.7894 -2.0097
   19CHTO   C70 7833   3.329  -1.482  -0.546 -0.2069  0.0446 -0.2998
   19CHTO   O46 7834   3.390  -1.363  -0.599  0.0374  0.0543  0.1004
   19CHTO  H103 7835   3.482  -1.373  -0.612 -0.3698 -1.3572 -1.9831
   19CHTO   O39 7836   2.942  -1.217  -0.344  0.4345  0.1264 -0.0648
   19CHTO   C60 7837   2.936  -1.166  -0.480  0.3787 -0.7788 -0.1448
   19CHTO  H117 7838   3.014  -1.218  -0.537  0.7033  0.0272 -0.4458
   19CHTO   C62 7839   2.803  -1.199  -0.545  0.0926  0.1215 -0.2052
   19CHTO  H119 7840   2.783  -1.308  -0.539  0.4266  0.1297  1.2648
   19CHTO   O43 7841   2.688  -1.142  -0.482 -0.4576 -0.1372  0.3244
   19CHTO  H101 7842   2.683  -1.178  -0.396  0.5648 -1.6992 -0.2514
   19CHTO   C66 7843   2.823  -1.169  -0.703 -0.0025  0.3103 -0.3094
   19CHTO  H123 7844   2.908  -1.229  -0.735 -0.0196  0.4487 -0.6078
   19CHTO   N12 7845   2.720  -1.209  -0.799  0.9583 -0.0024  0.2784
   19CHTO  H110 7846   2.756  -1.256  -0.889 -0.9342  0.0282 -0.5125
   19CHTO  H111 7847   2.641  -1.262  -0.747  0.6501  0.6395  0.4674
   19CHTO   C69 7848   2.870  -1.026  -0.744 -0.1239 -0.5013  0.5372
   19CHTO  H126 7849   2.790  -0.950  -0.735  0.9515  0.8724 -1.2152
   19CHTO   O41 7850   2.980  -0.969  -0.639  0.0408 -0.0917 -0.4075
   19CHTO   C64 7851   2.966  -1.011  -0.500 -0.0759  0.2485  0.2388
   19CHTO  H121 7852   2.887  -0.952  -0.450 -0.6995 -0.0448 -0.3831
   19CHTO   C71 7853   3.100  -0.978  -0.423  0.7400 -0.0102  0.7865
   19CHTO   O47 7854   3.217  -1.054  -0.475 -0.3558  0.4010 -0.3399
   19CHTO  H104 7855   3.213  -1.057  -0.569  3.0295 -1.8898 -0.4959
   19CHTO   O34 7856   2.946  -1.022  -0.900  0.7949  0.3174  0.3890
   19CHTO   C49 7857   3.083  -1.022  -0.966 -0.7569  0.5494 -0.2560
   19CHTO   H91 7858   3.130  -0.926  -0.946  2.2025 -1.0231  0.6514
   19CHTO   C47 7859   3.072  -1.068  -1.113 -0.2658 -0.1172  0.4764
   19CHTO   H89 7860   3.175  -1.056  -1.152 -0.1308  0.9240  1.1433
   19CHTO   O33 7861   2.989  -0.980  -1.191  0.0669 -0.1828 -0.2248
   19CHTO   H70 7862   2.908  -1.020  -1.215  0.0291 -0.5365  0.4733
   19CHTO   C45 7863   3.033  -1.225  -1.121 -0.6217  0.2106  0.0584
   19CHTO   H87 7864   2.950  -1.242  -1.051 -0.8012  1.3151  0.1278
   19CHTO    N8 7865   2.991  -1.274  -1.258  0.1026  0.2085  0.6258
   19CHTO   H75 7866   3.029  -1.371  -1.284  0.5572 -0.0490  2.1977
   19CHTO   H76 7867   2.883  -1.270  -1.261 -0.0852 -3.3050  1.2946
   19CHTO   C43 7868   3.145  -1.310  -1.054 -0.3945 -0.5971 -0.6147
   19CHTO   H85 7869   3.113  -1.414  -1.050 -2.6229  0.0889  0.0752
   19CHTO   O29 7870   3.162  -1.256  -0.924  0.0195 -0.5936 -0.5607
   19CHTO   C50 7871   3.185  -1.122  -0.886  0.4875  0.1774  0.1767
   19CHTO   H92 7872   3.170  -1.100  -0.780 -0.8044  4.4928 -0.7825
   19CHTO   C54 7873   3.334  -1.082  -0.910 -0.5823 -0.1216  0.0118
   19CHTO   O36 7874   3.431  -1.158  -0.836  0.2139 -0.1107  0.4545
   19CHTO   H72 7875   3.518  -1.137  -0.864  0.8108 -0.1790  2.1872
   19CHTO   O27 7876   3.271  -1.313  -1.127  0.3175 -0.6762  0.5833
   19CHTO   C37 7877   3.341  -1.401  -1.221  0.3395  0.9032 -0.9680
   19CHTO   H79 7878   3.274  -1.484  -1.247 -0.5289 -0.2045  4.3137
   19CHTO   C38 7879   3.400  -1.329  -1.345 -0.7542 -0.1857  1.1388
   19CHTO   H80 7880   3.472  -1.251  -1.314 -2.4916  2.0773 -0.4190
   19CHTO   O31 7881   3.282  -1.276  -1.405 -0.1116  1.1231 -0.1523
   19CHTO   H68 7882   3.297  -1.183  -1.410 -1.2233  1.3812  0.8436
   19CHTO   C39 7883   3.476  -1.438  -1.444  0.2607 -1.0692  0.1574
   19CHTO   H81 7884   3.404  -1.515  -1.472 -0.5320 -0.8221  1.4934
   19CHTO    N7 7885   3.532  -1.366  -1.568 -0.0247  0.3070 -0.3484
   19CHTO   H73 7886   3.489  -1.407  -1.658 -0.6680 -1.2940  0.6634
   19CHTO   H74 7887   3.638  -1.373  -1.584  0.2799  0.5497  1.5045
   19CHTO   C40 7888   3.583  -1.516  -1.359 -0.2167  0.0599  0.2377
   19CHTO   H82 7889   3.670  -1.451  -1.348  0.2256 -0.2814 -1.1623
   19CHTO   O26 7890   3.534  -1.559  -1.229  0.6022  0.1080 -0.5209
   19CHTO   C41 7891   3.466  -1.455  -1.154  0.4792  0.9260  0.0812
   19CHTO   H83 7892   3.543  -1.376  -1.148  0.8944  0.6066 -0.9822
   19CHTO   C52 7893   3.435  -1.496  -0.999 -0.5287  0.3685  0.0310
   19CHTO   O35 7894   3.528  -1.509  -0.929  0.2531  0.1683  0.1692
   19CHTO   H71 7895   3.550  -1.600  -0.940  0.7522  0.5301 -2.0624
   19CHTO   O28 7896   3.615  -1.651  -1.399 -0.0726  0.2016 -0.0202
   19CHTO   C42 7897   3.752  -1.693  -1.410 -0.5083  0.9466 -0.7003
   19CHTO   H84 7898   3.811  -1.637  -1.338 -1.0473  0.7979 -0.1419
   19CHTO   C44 7899   3.827  -1.669  -1.552 -0.4232 -0.0137 -0.2928
   19CHTO   H86 7900   3.760  -1.706  -1.630  0.0459  1.2347 -1.3139
   19CHTO   O32 7901   3.847  -1.529  -1.571  0.6183  0.9289 -0.3126
   19CHTO   H69 7902   3.766  -1.484  -1.555  1.8225  3.2307 -0.5312
   19CHTO   C48 7903   3.963  -1.754  -1.563 -0.1027 -0.4909  0.5109
   19CHTO   H90 7904   4.040  -1.696  -1.511 -1.9226  1.2733  1.3346
   19CHTO    N9 7905   4.017  -1.756  -1.704  0.3069 -0.2402 -0.2335
   19CHTO   H77 7906   3.947  -1.811  -1.766 -0.9763  1.0582  0.0463
   19CHTO   H78 7907   4.117  -1.792  -1.722  0.1821 -0.8215  0.2221
   19CHTO   C51 7908   3.967  -1.901  -1.508  0.3760 -0.1526  0.2021
   19CHTO   H93 7909   3.904  -1.961  -1.574 -0.4553  1.6847 -0.7159
   19CHTO   O30 7910   3.910  -1.892  -1.372  0.1906  0.1839 -0.0918
   19CHTO   C46 7911   3.758  -1.840  -1.369 -0.9604  0.7878 -0.2935
   19CHTO   H88 7912   3.710  -1.897  -1.449  1.0029  0.5211 -1.3148
   19CHTO   C53 7913   3.695  -1.859  -1.226  0.5541 -0.0302 -0.3523
   19CHTO   O72 7914   3.689  -1.997  -1.188  0.2519 -0.7229  0.0166
   19CHTO  H199 7915   3.622  -2.046  -1.232  1.7412 -2.0085 -0.8415
   19CHTO   O22 7916   4.092  -1.950  -1.488 -0.2511 -0.1443  0.9749
   19CHTO   C31 7917   4.113  -2.096  -1.508  0.0327 -0.2600  0.0560
   19CHTO   H59 7918   4.014  -2.145  -1.496 -0.5438  0.2999 -2.0622
   19CHTO   C29 7919   4.170  -2.144  -1.649  0.6321  0.4150 -0.5796
   19CHTO   H57 7920   4.255  -2.078  -1.672 -0.1351  1.2349 -1.1062
   19CHTO   O21 7921   4.083  -2.103  -1.747  0.7778  0.2585  0.2346
   19CHTO   H37 7922   4.110  -2.136  -1.831 -2.6956 -2.0032 -0.1136
   19CHTO   C27 7923   4.212  -2.301  -1.653  0.3882 -0.5084  0.2000
   19CHTO   H55 7924   4.118  -2.358  -1.650  0.0165 -0.0211 -1.4229
   19CHTO    N5 7925   4.287  -2.336  -1.780 -0.4890 -0.1424  0.3250
   19CHTO   H43 7926   4.339  -2.430  -1.769  0.4251  0.5068  1.6129
   19CHTO   H44 7927   4.218  -2.351  -1.862  1.1630 -3.4869 -0.5233
   19CHTO   C25 7928   4.298  -2.344  -1.529  0.3354  0.7079  0.3317
   19CHTO   H53 7929   4.397  -2.298  -1.544  0.7476 -0.9561 -2.4148
   19CHTO   O17 7930   4.234  -2.297  -1.406  0.0167  0.2942  0.2631
   19CHTO   C32 7931   4.200  -2.160  -1.389  0.0920 -0.5799  0.3985
   19CHTO   H60 7932   4.295  -2.108  -1.384 -0.0787 -0.3813  1.8908
   19CHTO   C36 7933   4.129  -2.134  -1.254  0.3252 -0.5326  0.3811
   19CHTO   O25 7934   4.007  -2.214  -1.247  0.1011  0.4399  0.6718
   19CHTO   H40 7935   3.973  -2.219  -1.159  0.7952 -2.3673  0.8121
   19CHTO   O15 7936   4.312  -2.507  -1.522  0.4435  0.2223 -0.5251
   19CHTO   C19 7937   4.332  -2.624  -1.601 -0.7243  0.5096  0.8188
   19CHTO   H47 7938   4.309  -2.604  -1.706  0.2984 -1.3936  0.1929
   19CHTO   C20 7939   4.473  -2.682  -1.591 -0.1490 -0.2359  0.2846
   19CHTO   H48 7940   4.500  -2.701  -1.486 -2.9032 -0.8918  0.9337
   19CHTO   O19 7941   4.560  -2.574  -1.647 -0.1549  0.2020 -0.1437
   19CHTO   H35 7942   4.646  -2.610  -1.653 -0.3527 -0.4455  0.8377
   19CHTO   C21 7943   4.505  -2.820  -1.674  0.2977 -0.1519  0.2671
   19CHTO   H49 7944   4.506  -2.787  -1.778  1.9664 -1.0031 -0.0175
   19CHTO    N4 7945   4.638  -2.882  -1.646 -0.4842  0.2482  0.4770
   19CHTO   H41 7946   4.649  -2.933  -1.551 -1.2987 -0.5628  0.1383
   19CHTO   H42 7947   4.678  -2.949  -1.721  2.2035  1.7467  0.4939
   19CHTO   C22 7948   4.390  -2.925  -1.646  0.5969  0.5594 -0.2815
   19CHTO   H50 7949   4.404  -2.956  -1.543 -1.5770 -1.1793 -0.4485
   19CHTO   O14 7950   4.262  -2.857  -1.655  0.0246  0.0018 -0.4753
   19CHTO   C23 7951   4.240  -2.746  -1.563 -0.4338  0.2816  0.3985
   19CHTO   H51 7952   4.249  -2.771  -1.456  0.6259 -0.8741  0.0434
   19CHTO   C34 7953   4.094  -2.708  -1.574 -0.2516  0.2983 -0.0722
   19CHTO   O23 7954   4.011  -2.816  -1.530 -0.2373  0.4885  0.1032
   19CHTO   H38 7955   3.929  -2.778  -1.504  0.2243  1.6751 -0.1437
   19CHTO   O16 7956   4.374  -3.029  -1.743  0.3309  0.4514 -0.5519
   19CHTO   C24 7957   4.395  -3.182  -1.679  0.2253  0.4126  0.0565
   19CHTO   H52 7958   4.411  -3.182  -1.571 -0.4478 -1.5979  0.1679
   19CHTO   C26 7959   4.500  -3.262  -1.750  0.0615  0.4598 -0.2478
   19CHTO   H54 7960   4.476  -3.259  -1.858 -2.4864 -0.5981  0.2560
   19CHTO   O20 7961   4.632  -3.209  -1.744  0.1504 -0.2716 -0.6921
   19CHTO   H36 7962   4.690  -3.234  -1.813  0.7892 -1.3963  0.2313
   19CHTO   C30 7963   4.507  -3.418  -1.713 -0.0575 -0.1372  0.6369
   19CHTO   H58 7964   4.554  -3.429  -1.614  1.4622 -2.6797 -0.2998
   19CHTO    N6 7965   4.599  -3.493  -1.805  0.1197  0.0027  0.4376
   19CHTO   H45 7966   4.675  -3.523  -1.734  0.1600  0.8890  0.7826
   19CHTO   H46 7967   4.643  -3.418  -1.868  0.4856 -0.6110 -0.0410
   19CHTO   C33 7968   4.363  -3.472  -1.705  0.1509 -0.6604 -0.1059
   19CHTO   H61 7969   4.327  -3.496  -1.806 -2.4406 -3.3791  1.3802
   19CHTO   O18 7970   4.271  -3.373  -1.638 -0.2931  0.0604 -0.8060
   19CHTO   C28 7971   4.254  -3.247  -1.701 -0.3565  0.9322  0.4690
   19CHTO   H56 7972   4.238  -3.260  -1.808 -0.6730  1.2250  0.4771
   19CHTO   C35 7973   4.146  -3.172  -1.631  0.4067 -0.0750  0.1072
   19CHTO   O24 7974   4.015  -3.229  -1.634  0.3134 -0.0310  0.4057
   19CHTO   H39 7975   3.991  -3.252  -1.721  1.1287 -0.7385  0.3709
   19CHTO    O9 7976   4.365  -3.597  -1.625 -0.5636 -0.8029 -0.3234
   19CHTO   C13 7977   4.307  -3.735  -1.688  0.4350 -0.2229 -0.2830
   19CHTO   H26 7978   4.360  -3.743  -1.785 -0.6904 -0.9913 -0.8348
   19CHTO   C11 7979   4.149  -3.721  -1.711  0.1857 -0.0115  0.4038
   19CHTO   H24 7980   4.141  -3.637  -1.781 -0.9735  2.1124  2.9964
   19CHTO    O8 7981   4.091  -3.661  -1.593 -0.2468  0.2941  0.0813
   19CHTO    H3 7982   4.009  -3.700  -1.572  0.8487 -1.8534  0.4895
   19CHTO    C9 7983   4.089  -3.856  -1.762 -0.1760  0.7739 -0.5063
   19CHTO   H22 7984   4.140  -3.883  -1.856 -0.4233 -3.1573  0.3853
   19CHTO    N2 7985   3.947  -3.839  -1.815 -0.4048  0.4489 -0.1213
   19CHTO   H10 7986   3.872  -3.853  -1.739 -1.5159  0.7870 -1.1418
   19CHTO   H11 7987   3.945  -3.741  -1.860  1.2014  0.1940 -0.7897
   19CHTO    C7 7988   4.121  -3.965  -1.664  0.4739 -0.4996  0.1667
   19CHTO   H20 7989   4.103  -4.059  -1.721  0.3999 -0.0019 -0.6364
   19CHTO    O4 7990   4.257  -3.970  -1.616  0.4280  0.4389 -0.6176
   19CHTO   C14 7991   4.341  -3.860  -1.596 -0.3361  0.0576 -0.9007
   19CHTO   H27 7992   4.439  -3.907  -1.618 -0.7697 -0.7658 -1.0709
   19CHTO   C18 7993   4.341  -3.821  -1.441  0.2879  0.5048  0.4349
   19CHTO   O13 7994   4.450  -3.866  -1.358 -0.1731 -0.0076  0.7100
   19CHTO    H7 7995   4.430  -3.842  -1.269 -0.6524 -0.5736  0.7630
   19CHTO    O2 7996   4.011  -3.951  -1.534 -0.4958  0.2338  0.0173
   19CHTO    C1 7997   3.966  -4.084  -1.503 -0.8994 -0.2698 -0.1775
   19CHTO   H14 7998   4.049  -4.155  -1.519  0.3162  0.8944  0.8840
   19CHTO    C2 7999   3.831  -4.125  -1.577 -0.4288 -0.4383  0.5940
   19CHTO   H15 8000   3.768  -4.035  -1.564  2.3533  1.5609  0.5773
   19CHTO    O6 8001   3.854  -4.145  -1.717  0.2376  0.2974  0.0802
   19CHTO    H1 8002   3.783  -4.133  -1.777  0.1319 -0.7393 -0.0283
   19CHTO    C3 8003   3.763  -4.261  -1.520 -0.9304 -0.2587  0.5470
   19CHTO   H16 8004   3.815  -4.347  -1.566 -1.7772  0.4780 -1.8798
   19CHTO    N1 8005   3.618  -4.269  -1.555 -0.3566  0.0231 -0.1462
   19CHTO    H8 8006   3.591  -4.291  -1.657  0.7799 -1.2528 -0.1912
   19CHTO    H9 8007   3.574  -4.338  -1.484  2.7697 -0.4270  1.4273
   19CHTO    C4 8008   3.784  -4.269  -1.366 -0.0605 -1.0379  0.9550
   19CHTO   H17 8009   3.727  -4.188  -1.320 -0.6042 -1.5890  1.2564
   19CHTO    O1 8010   3.929  -4.246  -1.341  0.5619  0.4324 -0.4139
   19CHTO    C5 8011   3.956  -4.108  -1.348 -1.1268  0.1019  0.0385
   19CHTO   H18 8012   3.880  -4.048  -1.298 -1.8893 -0.0293 -0.9484
   19CHTO   C16 8013   4.088  -4.066  -1.281 -0.8107 -0.1987 -0.0100
   19CHTO   O11 8014   4.109  -4.112  -1.149  0.7074  0.4365  0.3416
   19CHTO    H5 8015   4.039  -4.069  -1.103 -1.2982 -0.8613 -1.4126
   19CHTO    O3 8016   3.752  -4.402  -1.311  0.0151  0.4345  0.4847
   19CHTO    C6 8017   3.757  -4.402  -1.165  0.2197  0.7958  0.2493
   19CHTO   H19 8018   3.816  -4.321  -1.121  2.3198 -0.1572 -0.7507
   19CHTO    C8 8019   3.610  -4.390  -1.104  0.0993 -0.4637 -0.7163
   19CHTO   H21 8020   3.544  -4.451  -1.165 -0.4354 -0.3082 -0.2907
   19CHTO    O7 8021   3.568  -4.250  -1.113  0.0375  0.0451  0.0751
   19CHTO    H2 8022   3.474  -4.257  -1.119 -0.0909 -0.4137  2.1706
   19CHTO   C12 8023   3.614  -4.434  -0.954  0.3802  0.2013 -0.4456
   19CHTO   H25 8024   3.657  -4.348  -0.899 -1.2772 -1.2307  3.2602
   19CHTO    N3 8025   3.471  -4.455  -0.901  0.5890  0.9942 -0.1897
   19CHTO   H12 8026   3.404  -4.371  -0.910  0.3399  0.9152  0.9559
   19CHTO   H13 8027   3.482  -4.495  -0.802  1.0016  0.5896 -0.3983
   19CHTO   C15 8028   3.703  -4.557  -0.930  0.8553  0.5312  0.4019
   19CHTO   H28 8029   3.654  -4.651  -0.956  1.8931  0.0634  0.1192
   19CHTO   O10 8030   3.734  -4.581  -0.781 -0.2053 -0.0971  0.5445
   19CHTO    H4 8031   3.658  -4.603  -0.731 -1.2073  1.8559 -0.0824
   19CHTO    O5 8032   3.839  -4.534  -0.978 -0.0631  0.3266 -0.4187
   19CHTO   C10 8033   3.827  -4.532  -1.121  1.1104  0.1252 -0.8760
   19CHTO   H23 8034   3.769  -4.617  -1.156  0.3122  0.7109 -0.9814
   19CHTO   C17 8035   3.973  -4.533  -1.173  0.1220 -0.1235  0.5106
   19CHTO   O12 8036   4.038  -4.646  -1.136 -0.0629 -0.2874  0.4441
   19CHTO    H6 8037   4.128  -4.640  -1.163  0.0960  2.4547  1.4003
   20CHTO  H203 8038   4.818   0.702   2.415  0.0715  2.0412 -0.6588
   20CHTO   O82 8039   4.904   0.713   2.379  0.1465  0.2256 -1.0937
   20CHTO  C123 8040   4.924   0.857   2.374  0.0095  0.8425  0.3075
   20CHTO  H227 8041   4.913   0.902   2.474  0.7215  0.3425  0.6257
   20CHTO   O77 8042   5.061   0.865   2.332 -0.4810 -0.4021  0.2960
   20CHTO  C118 8043   5.110   1.005   2.323 -1.2005  0.1237 -0.2569
   20CHTO  H222 8044   5.095   1.039   2.426  1.5729 -0.1444  0.2820
   20CHTO  C125 8045   5.258   0.995   2.304  0.0516  0.2645 -0.5238
   20CHTO   O84 8046   5.334   1.109   2.336 -0.0458  0.7300  0.2279
   20CHTO  H205 8047   5.316   1.133   2.425 -1.4648  1.1147 -0.1360
   20CHTO  C114 8048   5.031   1.077   2.216  0.9071 -0.5688  0.4078
   20CHTO  H218 8049   5.061   1.037   2.119  0.9284  0.1139  0.1294
   20CHTO  C116 8050   4.877   1.086   2.244 -0.1976  0.1110  1.2989
   20CHTO  H220 8051   4.852   1.149   2.332  1.7356  2.0029  0.5584
   20CHTO   O79 8052   4.815   1.162   2.137  0.2421  0.4005  0.8056
   20CHTO  H201 8053   4.762   1.234   2.166 -2.2994 -1.0570 -0.0840
   20CHTO  C120 8054   4.830   0.939   2.270  0.2143  0.1450  0.3740
   20CHTO  H224 8055   4.832   0.890   2.171 -0.0730  0.7965  0.0468
   20CHTO   N21 8056   4.687   0.925   2.305  0.1008  1.3179  0.1041
   20CHTO  H211 8057   4.665   0.949   2.408 -0.3122  0.3774  0.2473
   20CHTO  H212 8058   4.664   0.821   2.285 -1.3760  1.7201 -0.3210
   20CHTO   O75 8059   5.094   1.212   2.209 -0.2599 -0.0112  0.7801
   20CHTO  C112 8060   5.161   1.258   2.064 -0.1818  0.3202  0.5128
   20CHTO  H216 8061   5.117   1.208   1.976  1.8161 -1.5135  0.5055
   20CHTO   O73 8062   5.297   1.228   2.069 -0.5690 -0.4034 -0.1311
   20CHTO  C113 8063   5.362   1.249   1.942  0.3953 -0.1674  0.0247
   20CHTO  H217 8064   5.309   1.212   1.852  0.3946 -0.4367  0.1378
   20CHTO  C124 8065   5.490   1.169   1.925 -0.1143  0.6985 -0.5625
   20CHTO   O83 8066   5.598   1.222   2.008 -0.1758 -0.8054 -0.6361
   20CHTO  H204 8067   5.654   1.278   1.959 -0.8446 -0.5648 -1.1293
   20CHTO  C109 8068   5.371   1.402   1.914 -0.2778  0.7193  0.1376
   20CHTO  H213 8069   5.430   1.445   1.997  0.0752  0.0229  0.2524
   20CHTO  C110 8070   5.224   1.457   1.914  0.6859 -0.0399 -0.4735
   20CHTO  H214 8071   5.177   1.410   1.829 -1.4159  1.0437  0.0682
   20CHTO   O78 8072   5.226   1.603   1.898  1.0719 -0.1212  0.4513
   20CHTO  H200 8073   5.243   1.618   1.808  2.1101  3.2914  1.1707
   20CHTO  C111 8074   5.152   1.413   2.049  0.2373  0.2079  0.1492
   20CHTO  H215 8075   5.196   1.466   2.135  2.6818  1.5368 -1.8456
   20CHTO   N19 8076   5.010   1.453   2.051  0.2033  0.0967 -0.3172
   20CHTO  H207 8077   4.996   1.547   1.999  1.5908 -0.6298 -2.0476
   20CHTO  H208 8078   4.974   1.463   2.152  2.2139 -0.0032  0.4306
   20CHTO   O74 8079   5.441   1.423   1.789 -0.1439  0.1135  0.1404
   20CHTO  C115 8080   5.560   1.537   1.808  0.9162 -0.5114 -0.2987
   20CHTO  H219 8081   5.553   1.587   1.905  0.3393  2.3442 -1.7470
   20CHTO   O76 8082   5.706   1.475   1.819  0.0382  0.1482  0.0150
   20CHTO  C122 8083   5.746   1.432   1.689  0.1561 -0.4885 -0.2556
   20CHTO  H226 8084   5.667   1.389   1.627 -0.8154  0.7280  0.1137
   20CHTO  C126 8085   5.854   1.318   1.707  0.5730  0.3276  1.0878
   20CHTO   O85 8086   5.794   1.197   1.765  0.0918  0.2625 -0.2573
   20CHTO  H206 8087   5.860   1.135   1.787 -0.8249 -0.7198 -0.2320
   20CHTO  C121 8088   5.800   1.559   1.617  0.0296 -0.4908  0.4638
   20CHTO  H225 8089   5.904   1.583   1.647  0.7681  0.6464 -2.8228
   20CHTO   O81 8090   5.817   1.527   1.474 -0.3073 -0.1421  0.1438
   20CHTO  H202 8091   5.853   1.600   1.427  0.9879 -1.4123 -0.8817
   20CHTO  C119 8092   5.707   1.679   1.639 -0.1328 -0.1776  0.2943
   20CHTO  H223 8093   5.750   1.736   1.721 -0.7761  2.7838 -1.3543
   20CHTO  C117 8094   5.555   1.641   1.691 -0.3707  0.0086  0.2192
   20CHTO  H221 8095   5.488   1.591   1.621 -0.2515 -0.0161  0.1213
   20CHTO   N20 8096   5.483   1.766   1.744  0.0822  0.6785  0.2382
   20CHTO  H209 8097   5.376   1.764   1.733  0.0378  3.0808  0.0416
   20CHTO  H210 8098   5.508   1.858   1.695  0.3127  0.3045 -0.3544
   20CHTO   O80 8099   5.717   1.789   1.504  0.0899 -0.1052 -0.2137
   20CHTO  C103 8100   5.630   1.769   1.355  0.2613 -0.0275  0.0919
   20CHTO  H190 8101   5.701   1.717   1.291  3.3330 -0.6060  3.8223
   20CHTO  C101 8102   5.499   1.689   1.360  0.8261  0.8857  0.4526
   20CHTO  H188 8103   5.440   1.730   1.442 -0.9070 -1.9242  0.6888
   20CHTO   O68 8104   5.538   1.521   1.400  0.0838 -0.4975 -0.9243
   20CHTO  H168 8105   5.586   1.517   1.481 -0.7203  1.7250 -0.2942
   20CHTO   C99 8106   5.418   1.699   1.226  0.3899  0.3891  0.1974
   20CHTO  H186 8107   5.471   1.656   1.139  1.2463  0.5521  0.6317
   20CHTO   N17 8108   5.282   1.619   1.226  0.0605 -0.1913  0.2144
   20CHTO  H174 8109   5.214   1.665   1.296 -0.8607  1.4955 -1.7427
   20CHTO  H175 8110   5.249   1.625   1.123  1.7328  1.4865 -0.2469
   20CHTO   C97 8111   5.405   1.849   1.193  0.0178  0.6006 -0.4817
   20CHTO  H184 8112   5.347   1.901   1.270  0.1427  1.0550 -0.6902
   20CHTO   O64 8113   5.533   1.910   1.173  0.0429  0.0297 -0.2329
   20CHTO  C104 8114   5.611   1.914   1.296 -0.1791  0.8418 -0.1038
   20CHTO  H191 8115   5.556   1.973   1.370 -1.7432 -1.1523  0.3755
   20CHTO  C108 8116   5.744   1.986   1.279 -0.1814  0.4154  0.1678
   20CHTO   O71 8117   5.714   2.120   1.254  0.1085 -0.8354 -0.1736
   20CHTO  H171 8118   5.762   2.140   1.176  1.8208 -0.3840  0.9558
   20CHTO   O62 8119   5.339   1.864   1.064  0.4689  0.1277  0.4046
   20CHTO   C91 8120   5.284   1.996   1.041 -0.0565  0.8044  0.4132
   20CHTO  H178 8121   5.322   2.068   1.113  0.2556  1.7810 -0.6985
   20CHTO   C92 8122   5.126   2.002   1.059 -0.3399 -0.7778 -0.1969
   20CHTO  H179 8123   5.087   1.916   1.003  0.1736  0.7458 -2.9802
   20CHTO   O66 8124   5.099   1.973   1.198 -0.2445 -0.0250 -0.3683
   20CHTO  H166 8125   5.139   2.034   1.257 -0.1025  1.8001 -2.3222
   20CHTO   C93 8126   5.068   2.143   1.024  0.0788  0.2745  0.2312
   20CHTO  H180 8127   5.102   2.212   1.103  2.3804 -0.3488 -0.1893
   20CHTO   N16 8128   4.920   2.137   1.014 -0.3579  0.1107 -0.0388
   20CHTO  H172 8129   4.880   2.047   0.970  0.4459 -0.3903  0.2647
   20CHTO  H173 8130   4.879   2.228   0.971 -0.0676 -0.2823 -1.1670
   20CHTO   C94 8131   5.129   2.195   0.892  0.4658 -0.0753  0.0416
   20CHTO  H181 8132   5.103   2.133   0.805  0.7827  1.6967 -1.3419
   20CHTO   O61 8133   5.274   2.184   0.887  0.4379 -0.3867 -0.3475
   20CHTO   C95 8134   5.327   2.053   0.906 -0.3301 -0.2080 -0.3379
   20CHTO  H182 8135   5.286   1.991   0.827 -0.8227  0.0988 -0.3225
   20CHTO  C106 8136   5.478   2.051   0.876  0.4917  0.7816 -0.0775
   20CHTO   O69 8137   5.500   2.051   0.735  0.5241  0.4356  0.0713
   20CHTO  H169 8138   5.488   2.140   0.706 -1.8230  0.2805  0.4826
   20CHTO   O63 8139   5.100   2.344   0.866  0.2678  0.1404 -0.2559
   20CHTO   C96 8140   5.059   2.375   0.730 -0.6645  0.2269 -0.0834
   20CHTO  H183 8141   4.996   2.290   0.702 -0.2995  0.4794 -1.7246
   20CHTO   C98 8142   5.167   2.392   0.622 -0.2614 -0.0071 -0.1816
   20CHTO  H185 8143   5.233   2.476   0.645 -1.1135  0.7255 -0.3866
   20CHTO   O67 8144   5.264   2.276   0.624  0.5060 -0.2715  0.2945
   20CHTO  H167 8145   5.213   2.199   0.611  0.4871  0.0447 -1.5589
   20CHTO  C102 8146   5.109   2.419   0.480 -0.2456 -0.6618  0.4545
   20CHTO  H189 8147   5.076   2.321   0.444  0.3972 -1.2460  1.4311
   20CHTO   N18 8148   5.216   2.454   0.380  0.4143 -0.7280  0.0467
   20CHTO  H176 8149   5.183   2.542   0.328 -1.8105 -0.7442  1.3813
   20CHTO  H177 8150   5.227   2.381   0.301 -0.1368 -0.9286  0.1512
   20CHTO  C105 8151   4.996   2.535   0.484 -0.3568  0.5988 -0.1993
   20CHTO  H192 8152   5.051   2.629   0.485  0.7559 -0.0290 -0.8851
   20CHTO   O65 8153   4.905   2.536   0.598  0.0272  0.5814 -0.1543
   20CHTO  C100 8154   4.966   2.509   0.727  0.2991  0.6591 -0.2556
   20CHTO  H187 8155   5.025   2.590   0.772  1.4607 -0.5740  0.4887
   20CHTO  C107 8156   4.848   2.500   0.819 -0.6512  0.4102  0.2453
   20CHTO   O70 8157   4.881   2.502   0.955  0.6762 -0.2824  0.5184
   20CHTO  H170 8158   4.907   2.420   0.991 -1.3719 -0.7884  0.9363
   20CHTO   O57 8159   4.906   2.517   0.358  0.3342 -0.0931 -0.4747
   20CHTO   C85 8160   4.833   2.624   0.285  0.5467 -0.5620  0.0873
   20CHTO  H157 8161   4.813   2.703   0.360 -0.8070 -1.1153  0.3125
   20CHTO   C83 8162   4.695   2.575   0.244 -0.0042 -0.7140 -0.2904
   20CHTO  H155 8163   4.637   2.547   0.332  1.4887  0.7861  1.2152
   20CHTO   O56 8164   4.701   2.457   0.165 -0.4284 -0.6760  0.1183
   20CHTO  H135 8165   4.747   2.394   0.218 -1.0761  1.0374  2.8640
   20CHTO   C81 8166   4.613   2.689   0.167 -0.2603 -0.1154  0.2309
   20CHTO  H153 8167   4.617   2.777   0.231  0.6921  0.8079 -1.0769
   20CHTO   N14 8168   4.468   2.657   0.158  0.2482 -0.2600 -0.6275
   20CHTO  H141 8169   4.433   2.672   0.058 -0.0452  1.2918 -0.2969
   20CHTO  H142 8170   4.415   2.717   0.229  0.2258  0.9799 -1.6681
   20CHTO   C79 8171   4.692   2.725   0.034 -0.0044 -0.0408 -0.2722
   20CHTO  H151 8172   4.634   2.795  -0.026 -1.2451 -0.7710  0.0564
   20CHTO   O52 8173   4.830   2.780   0.066 -0.3286 -0.3637 -0.1537
   20CHTO   C86 8174   4.901   2.681   0.149  0.3625 -0.6550 -0.4692
   20CHTO  H158 8175   4.913   2.595   0.080  0.7640 -1.8593  1.0766
   20CHTO   C90 8176   5.045   2.721   0.175 -0.1842  0.2729  0.3939
   20CHTO   O60 8177   5.051   2.844   0.259  0.2257  0.3166  0.3759
   20CHTO  H138 8178   5.049   2.923   0.209  1.0598 -0.2833 -0.6153
   20CHTO   O50 8179   4.692   2.619  -0.058  0.0738 -0.3362  0.1634
   20CHTO   C73 8180   4.708   2.609  -0.198 -0.2553 -0.0555  0.8281
   20CHTO  H145 8181   4.802   2.662  -0.222 -0.8094  0.3998 -0.3819
   20CHTO   C74 8182   4.580   2.662  -0.266 -0.3525 -0.5069 -0.0671
   20CHTO  H146 8183   4.566   2.767  -0.235  0.9304 -0.7807  1.4875
   20CHTO   O54 8184   4.609   2.666  -0.408  0.2351 -0.3885 -0.0944
   20CHTO  H133 8185   4.667   2.738  -0.427 -0.8478  0.3775 -0.5671
   20CHTO   C75 8186   4.455   2.579  -0.232  0.7488 -0.2723  0.0262
   20CHTO  H147 8187   4.435   2.588  -0.124  0.0865  0.5068 -0.1577
   20CHTO   N13 8188   4.329   2.637  -0.285  0.4643 -0.4747 -0.6498
   20CHTO  H139 8189   4.245   2.618  -0.220 -1.0125  1.4769 -1.9083
   20CHTO  H140 8190   4.344   2.744  -0.289 -0.1130 -0.4110 -1.1074
   20CHTO   C76 8191   4.481   2.428  -0.270  0.0272 -0.4708 -0.2978
   20CHTO  H148 8192   4.476   2.420  -0.379 -1.8016 -0.6735 -0.2049
   20CHTO   O49 8193   4.613   2.374  -0.224  0.1609  0.1027 -0.3758
   20CHTO   C77 8194   4.730   2.459  -0.244 -0.1264 -0.2582  0.1273
   20CHTO  H149 8195   4.766   2.454  -0.347 -0.5338 -0.5295 -0.0024
   20CHTO   C88 8196   4.839   2.377  -0.170 -0.6610  0.1161 -0.2154
   20CHTO   O58 8197   4.981   2.418  -0.196 -0.4803  0.0473 -0.2976
   20CHTO  H136 8198   5.022   2.364  -0.260  2.1930  1.1847  0.3839
   20CHTO   O51 8199   4.368   2.344  -0.205 -0.4107  0.2308  0.3722
   20CHTO   C78 8200   4.376   2.314  -0.033 -0.2971  0.7041  0.0487
   20CHTO  H150 8201   4.440   2.387   0.022 -0.8512  0.0014  1.6569
   20CHTO   C80 8202   4.431   2.175  -0.010 -0.0878  0.1932  0.1588
   20CHTO  H152 8203   4.371   2.098  -0.063  0.6788 -0.3164  0.0190
   20CHTO   O55 8204   4.557   2.158  -0.075 -0.0380  0.4682  0.3722
   20CHTO  H134 8205   4.623   2.216  -0.042 -0.2496  1.5840 -1.1310
   20CHTO   C84 8206   4.433   2.129   0.146  0.1485  0.9355 -0.5281
   20CHTO  H156 8207   4.497   2.192   0.207  0.0163 -0.7564  1.4449
   20CHTO   N15 8208   4.490   1.988   0.159 -0.3649 -0.2139 -0.0023
   20CHTO  H143 8209   4.589   1.978   0.122  0.1453  2.0935  0.6783
   20CHTO  H144 8210   4.432   1.913   0.110  0.2269 -0.3326 -0.5265
   20CHTO   C87 8211   4.289   2.148   0.200 -0.8076  0.2812 -0.4179
   20CHTO  H159 8212   4.224   2.072   0.155 -0.5717  1.6236 -3.1555
   20CHTO   O53 8213   4.234   2.287   0.161 -0.4483  0.0803 -0.3788
   20CHTO   C82 8214   4.234   2.309   0.024 -0.3733 -0.4607 -0.2063
   20CHTO  H154 8215   4.176   2.232  -0.028 -1.3940  0.2055 -0.0597
   20CHTO   C89 8216   4.166   2.442  -0.005  0.2697 -0.3515 -0.4759
   20CHTO   O59 8217   4.034   2.435   0.035  0.2656 -0.0340 -0.0383
   20CHTO  H137 8218   4.013   2.518   0.073  0.5429  0.7198 -1.4880
   20CHTO   O45 8219   4.279   2.136   0.361 -0.6176 -0.2220  0.1684
   20CHTO   C67 8220   4.342   2.245   0.432 -0.8289  0.5414 -0.9016
   20CHTO  H124 8221   4.400   2.305   0.362 -0.7778  0.7826 -0.6545
   20CHTO   C65 8222   4.240   2.343   0.495 -0.8561 -0.3011  0.0386
   20CHTO  H122 8223   4.164   2.358   0.417  0.1246  3.5325 -0.3030
   20CHTO   O44 8224   4.307   2.466   0.523 -0.2307 -0.4039  0.8925
   20CHTO  H102 8225   4.314   2.480   0.615 -0.5545 -0.6069  0.9486
   20CHTO   C63 8226   4.171   2.277   0.621  0.3865 -0.4377 -0.5254
   20CHTO  H120 8227   4.121   2.186   0.587 -1.7817  0.0503  1.2294
   20CHTO   N11 8228   4.062   2.360   0.686 -0.2012  0.1766 -0.3404
   20CHTO  H108 8229   3.970   2.309   0.667 -0.2096 -0.6072  1.5986
   20CHTO  H109 8230   4.064   2.455   0.638  2.1506  1.6768  2.5654
   20CHTO   C61 8231   4.280   2.230   0.723 -0.4976 -0.2265 -0.2682
   20CHTO  H118 8232   4.225   2.163   0.790 -2.9334  2.5308  0.5987
   20CHTO   O40 8233   4.383   2.150   0.659  0.0851 -0.2321 -1.0026
   20CHTO   C68 8234   4.442   2.181   0.537 -0.1330  0.1421  0.0356
   20CHTO  H125 8235   4.480   2.084   0.500  0.9957  1.0705 -1.3012
   20CHTO   C72 8236   4.564   2.267   0.563 -0.0826  0.0302 -0.1742
   20CHTO   O48 8237   4.559   2.404   0.606  0.4180 -0.3563  0.1751
   20CHTO  H105 8238   4.634   2.440   0.562 -0.3942  0.3254 -0.6462
   20CHTO   O38 8239   4.346   2.337   0.797  0.2338  0.2095  0.0161
   20CHTO   C55 8240   4.374   2.345   0.935 -0.0912 -0.3851 -0.1476
   20CHTO  H112 8241   4.288   2.304   0.991  0.9796  0.6164  2.2758
   20CHTO   C56 8242   4.400   2.496   0.969  0.4029 -0.9207 -0.4482
   20CHTO  H113 8243   4.474   2.529   0.895  2.7442 -1.3200  1.6429
   20CHTO   O42 8244   4.280   2.568   0.954 -0.6484 -0.0286  0.6156
   20CHTO  H100 8245   4.299   2.657   0.930 -2.0765  0.0789 -0.1640
   20CHTO   C57 8246   4.447   2.515   1.115  0.2402 -0.2356  0.3181
   20CHTO  H114 8247   4.367   2.487   1.183  2.0643  0.6224  2.9051
   20CHTO   N10 8248   4.480   2.657   1.157  0.0221 -0.6576  0.3385
   20CHTO  H106 8249   4.389   2.701   1.193 -0.1871  0.1867 -1.1689
   20CHTO  H107 8250   4.552   2.661   1.237 -1.1476 -1.9698  1.4797
   20CHTO   C58 8251   4.569   2.424   1.136  0.1339  0.2369 -0.4419
   20CHTO  H115 8252   4.652   2.455   1.069 -0.4547  2.0860 -0.3337
   20CHTO   O37 8253   4.538   2.284   1.112 -0.0829  0.0145  0.2742
   20CHTO   C59 8254   4.501   2.259   0.979  0.5045  0.0529 -0.8608
   20CHTO  H116 8255   4.586   2.280   0.913  1.0348 -1.1542 -0.5819
   20CHTO   C70 8256   4.465   2.107   0.967  0.0401 -0.4746  0.0557
   20CHTO   O46 8257   4.563   2.005   0.996 -0.1913  0.3034  0.2971
   20CHTO  H103 8258   4.604   1.968   0.920 -0.4397 -0.3117  0.4640
   20CHTO   O39 8259   4.630   2.431   1.299 -0.6923 -0.0629  0.0796
   20CHTO   C60 8260   4.716   2.329   1.351  0.0372  0.0509  0.6319
   20CHTO  H117 8261   4.707   2.240   1.289 -0.0211  1.8982 -2.0642
   20CHTO   C62 8262   4.867   2.373   1.350  0.4417 -0.3105  0.3326
   20CHTO  H119 8263   4.894   2.373   1.242 -1.2530 -1.3399 -0.1052
   20CHTO   O43 8264   4.884   2.503   1.418 -1.0671 -0.0783 -0.7121
   20CHTO  H101 8265   4.831   2.500   1.495 -2.0695 -1.7014 -1.4404
   20CHTO   C66 8266   4.963   2.257   1.417 -0.5079  0.2607  0.1376
   20CHTO  H123 8267   4.944   2.166   1.360  1.0180  0.7771 -1.2649
   20CHTO   N12 8268   5.109   2.278   1.396  0.1145 -0.4676 -0.4497
   20CHTO  H110 8269   5.131   2.275   1.290 -1.6076  3.3020 -1.0000
   20CHTO  H111 8270   5.159   2.196   1.445 -0.0279 -0.9197 -1.0608
   20CHTO   C69 8271   4.914   2.240   1.560 -0.9078 -0.0822  0.8383
   20CHTO  H126 8272   4.917   2.335   1.616  1.3113  0.9648 -0.9405
   20CHTO   O41 8273   4.759   2.191   1.540  0.1365  0.1230 -0.3507
   20CHTO   C64 8274   4.666   2.291   1.489 -0.6445 -0.3328  0.1101
   20CHTO  H121 8275   4.668   2.386   1.546  0.5098  1.3017 -2.5588
   20CHTO   C71 8276   4.511   2.250   1.485  0.2414 -0.2460  0.4093
   20CHTO   O47 8277   4.468   2.203   1.612 -0.0636 -0.0307 -0.4689
   20CHTO  H104 8278   4.542   2.202   1.669  0.1363  2.1996 -0.6309
   20CHTO   O34 8279   4.998   2.133   1.634 -0.1783  0.5886 -0.3519
   20CHTO   C49 8280   4.964   1.977   1.680  0.8689  0.0562  0.0412
   20CHTO   H91 8281   4.887   1.945   1.610 -0.2695 -1.0316  1.7570
   20CHTO   C47 8282   4.905   1.972   1.826 -0.5995  0.0214  0.1882
   20CHTO   H89 8283   4.797   1.990   1.808 -0.8978 -0.7353  1.1903
   20CHTO   O33 8284   4.967   2.076   1.901 -0.3415  0.1496  0.6676
   20CHTO   H70 8285   4.957   2.063   1.994 -2.8628  2.0381  0.7100
   20CHTO   C45 8286   4.921   1.834   1.890  0.2033  0.3316  0.0805
   20CHTO   H87 8287   5.019   1.828   1.941  0.1310  1.2187  0.3399
   20CHTO    N8 8288   4.821   1.806   1.996  0.2915 -0.4493  0.1083
   20CHTO   H75 8289   4.851   1.867   2.080  0.1937 -0.4988  0.1795
   20CHTO   H76 8290   4.826   1.701   2.021  0.6606 -0.4561  0.0084
   20CHTO   C43 8291   4.927   1.721   1.784 -0.7815  0.1137 -0.3477
   20CHTO   H85 8292   4.932   1.631   1.844 -2.1771  0.0992 -0.2214
   20CHTO   O29 8293   5.046   1.739   1.701  0.1339 -0.6479  0.3945
   20CHTO   C50 8294   5.072   1.876   1.658  0.0170 -0.4502  0.0753
   20CHTO   H92 8295   5.152   1.902   1.729  0.3594  0.6419 -0.6828
   20CHTO   C54 8296   5.134   1.871   1.514  0.2883 -0.5739  0.0120
   20CHTO   O36 8297   5.230   1.966   1.476 -0.0781 -0.2797  0.2887
   20CHTO   H72 8298   5.315   1.932   1.497 -0.3066 -0.7811  0.4095
   20CHTO   O27 8299   4.810   1.714   1.705  0.1107 -0.0098  0.0968
   20CHTO   C37 8300   4.763   1.642   1.590  0.3788 -0.0256  0.0546
   20CHTO   H79 8301   4.663   1.600   1.604  0.9379 -2.2372 -2.1929
   20CHTO   C38 8302   4.752   1.744   1.472 -0.1264 -0.0630 -0.2613
   20CHTO   H80 8303   4.850   1.794   1.461 -0.1740  1.2735  4.2165
   20CHTO   O31 8304   4.647   1.840   1.502 -0.4792  0.0616 -0.0476
   20CHTO   H68 8305   4.559   1.813   1.482  0.4065 -1.2209 -2.4270
   20CHTO   C39 8306   4.721   1.672   1.337 -0.7849  0.0968  0.5308
   20CHTO   H81 8307   4.622   1.628   1.350 -1.3142  1.0926 -0.0988
   20CHTO    N7 8308   4.719   1.760   1.219  0.3921 -0.4553 -0.4957
   20CHTO   H73 8309   4.816   1.798   1.188  0.0754  0.7391 -0.0635
   20CHTO   H74 8310   4.648   1.759   1.138  0.9259 -1.0096 -0.9594
   20CHTO   C40 8311   4.815   1.543   1.307 -0.6271 -0.7850 -0.0135
   20CHTO   H82 8312   4.913   1.586   1.286 -0.4499 -0.1958  1.9444
   20CHTO   O26 8313   4.816   1.463   1.424  0.2243 -0.3128  0.6795
   20CHTO   C41 8314   4.855   1.520   1.550 -0.2092 -0.1853  0.4489
   20CHTO   H83 8315   4.954   1.563   1.526 -1.2587  1.1555 -1.5490
   20CHTO   C52 8316   4.850   1.406   1.653  0.1078 -0.4860 -0.4312
   20CHTO   O35 8317   4.971   1.327   1.640  0.1933  0.0914  0.0331
   20CHTO   H71 8318   4.961   1.238   1.668  1.4348 -0.7167 -1.9690
   20CHTO   O28 8319   4.758   1.459   1.200  0.0016 -0.0672  0.0364
   20CHTO   C42 8320   4.851   1.372   1.129 -0.0686 -0.0498  0.6708
   20CHTO   H84 8321   4.789   1.309   1.066  1.3387 -0.8330  0.0449
   20CHTO   C44 8322   4.940   1.272   1.210 -0.5498 -0.3750 -0.5735
   20CHTO   H86 8323   4.995   1.333   1.281 -1.9273 -0.3173  0.4586
   20CHTO   O32 8324   4.843   1.199   1.284  0.0063 -0.0620  0.3745
   20CHTO   H69 8325   4.852   1.223   1.374  1.7410  1.5188 -0.1941
   20CHTO   C48 8326   5.022   1.184   1.107 -0.0731  0.4847  0.2597
   20CHTO   H90 8327   4.946   1.145   1.040  0.6833 -1.6755  0.6441
   20CHTO    N9 8328   5.100   1.074   1.172  0.1176  0.0921 -0.3109
   20CHTO   H77 8329   5.145   1.117   1.260 -2.1882  0.2363  0.8357
   20CHTO   H78 8330   5.035   0.996   1.209  0.4787  0.9365  2.1457
   20CHTO   C51 8331   5.112   1.281   1.018 -0.1823  0.6381 -0.5507
   20CHTO   H93 8332   5.167   1.338   1.092  1.3954  0.8013 -1.8231
   20CHTO   O30 8333   5.026   1.363   0.938 -0.7655 -0.4544  1.1789
   20CHTO   C46 8334   4.945   1.451   1.026  0.4896  0.2551  0.9526
   20CHTO   H88 8335   5.027   1.503   1.076  0.5068  1.7143 -0.5302
   20CHTO   C53 8336   4.868   1.543   0.929  0.1846  0.2052 -0.1262
   20CHTO   O72 8337   4.945   1.613   0.830 -0.7893  0.2862  0.2322
   20CHTO  H199 8338   4.953   1.557   0.755  0.0101  1.8368 -0.8819
   20CHTO   O22 8339   5.198   1.216   0.920  0.8203 -0.2916  0.0407
   20CHTO   C31 8340   5.312   1.288   0.868  0.2784 -0.8856  0.8066
   20CHTO   H59 8341   5.325   1.245   0.766  0.9473  1.3828 -0.1021
   20CHTO   C29 8342   5.283   1.442   0.842  0.5396 -0.0189  0.0035
   20CHTO   H57 8343   5.264   1.486   0.941  1.5213 -0.7613  0.5329
   20CHTO   O21 8344   5.177   1.466   0.747 -0.5712 -0.0115 -0.0030
   20CHTO   H37 8345   5.148   1.554   0.760  0.3235  0.2213  0.4755
   20CHTO   C27 8346   5.420   1.509   0.794 -0.4456  0.2490  0.0629
   20CHTO   H55 8347   5.444   1.465   0.696 -0.8701  0.6290 -0.2083
   20CHTO    N5 8348   5.402   1.659   0.783  0.2276 -0.1690 -0.8536
   20CHTO   H43 8349   5.346   1.693   0.697 -1.9396 -0.3024  0.4572
   20CHTO   H44 8350   5.360   1.699   0.874  2.2240 -0.0716  0.0413
   20CHTO   C25 8351   5.537   1.469   0.901  0.5967 -0.0969 -0.7404
   20CHTO   H53 8352   5.511   1.506   1.001  1.5588 -1.1449 -0.0874
   20CHTO   O17 8353   5.561   1.323   0.902 -0.4910  0.1458  0.5811
   20CHTO   C32 8354   5.450   1.260   0.948  0.3888  0.1359 -0.5083
   20CHTO   H60 8355   5.437   1.299   1.049  1.0147 -0.4336 -0.2075
   20CHTO   C36 8356   5.464   1.101   0.950  0.1335  0.2790 -0.5238
   20CHTO   O25 8357   5.480   1.027   0.827 -0.1719  0.0871 -0.3381
   20CHTO   H40 8358   5.395   1.026   0.787  0.8607 -0.1165 -2.5726
   20CHTO   O15 8359   5.671   1.536   0.858 -0.0322 -0.0130  0.1363
   20CHTO   C19 8360   5.756   1.652   0.826  0.2425  0.0522  0.6330
   20CHTO   H47 8361   5.678   1.729   0.819  0.4652  0.2703  0.5569
   20CHTO   C20 8362   5.856   1.680   0.939  0.9313  0.1545 -0.1471
   20CHTO   H48 8363   5.913   1.589   0.963  0.2615 -0.5437 -1.1462
   20CHTO   O19 8364   5.770   1.695   1.055 -0.2074 -0.4376  0.4104
   20CHTO   H35 8365   5.812   1.720   1.135  1.5054 -0.2460 -0.5246
   20CHTO   C21 8366   5.938   1.812   0.902 -0.2562  0.0644 -0.2748
   20CHTO   H49 8367   5.865   1.892   0.887  0.1513  0.2442 -1.3480
   20CHTO    N4 8368   6.019   1.856   1.017 -0.4390  0.4333 -0.2863
   20CHTO   H41 8369   6.112   1.801   1.018 -1.1187 -0.7394 -0.6790
   20CHTO   H42 8370   6.042   1.960   0.999  0.2612  0.4183  0.5030
   20CHTO   C22 8371   6.005   1.784   0.765  0.2239  0.3713  0.3193
   20CHTO   H50 8372   6.065   1.696   0.787  1.0625  1.2291  1.5894
   20CHTO   O14 8373   5.912   1.758   0.663 -0.0343  0.1793  0.6391
   20CHTO   C23 8374   5.827   1.648   0.686  0.6646  0.5183 -0.1190
   20CHTO   H51 8375   5.891   1.558   0.680  1.2109  0.9124 -0.2543
   20CHTO   C34 8376   5.724   1.623   0.572  0.4081  0.2430  0.7938
   20CHTO   O23 8377   5.625   1.731   0.552 -0.4400 -0.3535 -0.2409
   20CHTO   H38 8378   5.544   1.694   0.581 -0.0120 -1.2081 -0.1244
   20CHTO   O16 8379   6.085   1.894   0.714 -0.5620 -0.5383 -0.2443
   20CHTO   C24 8380   6.207   1.846   0.642  0.7987 -0.0203 -0.1236
   20CHTO   H52 8381   6.205   1.738   0.625  0.8837 -0.0114 -0.1943
   20CHTO   C26 8382   6.326   1.877   0.733  0.1429 -0.5565 -0.6487
   20CHTO   H54 8383   6.303   1.965   0.796  0.0670 -1.4553  0.6053
   20CHTO   O20 8384   6.336   1.782   0.842  0.0599 -0.1293  0.1586
   20CHTO   H36 8385   6.394   1.812   0.910  0.2252 -0.9227  0.3834
   20CHTO   C30 8386   6.463   1.871   0.659 -1.1253  0.7493 -0.2257
   20CHTO   H58 8387   6.539   1.815   0.715 -1.4188 -0.6650 -1.2268
   20CHTO    N6 8388   6.525   2.004   0.654 -0.1326  0.4531 -0.5275
   20CHTO   H45 8389   6.478   2.078   0.591 -0.3550  1.0771  0.3655
   20CHTO   H46 8390   6.625   1.987   0.616 -1.1943  0.4875 -3.5028
   20CHTO   C33 8391   6.446   1.802   0.523  0.1364 -0.1851 -0.1993
   20CHTO   H61 8392   6.543   1.798   0.471  1.3078 -1.3860  2.0212
   20CHTO   O18 8393   6.350   1.863   0.436 -0.0554 -0.5223 -0.3640
   20CHTO   C28 8394   6.229   1.914   0.503  0.8123  0.9196  1.1879
   20CHTO   H56 8395   6.244   2.021   0.518  1.8900  1.0472 -0.6845
   20CHTO   C35 8396   6.097   1.904   0.415  0.2236 -0.7101 -0.2070
   20CHTO   O24 8397   5.975   1.975   0.452 -0.1134 -0.4403 -0.0961
   20CHTO   H39 8398   5.984   2.060   0.412  0.2476  0.2099  1.3150
   20CHTO    O9 8399   6.416   1.667   0.547  0.5590  0.0085 -0.0008
   20CHTO   C13 8400   6.518   1.568   0.615  0.3417 -0.9750  0.2939
   20CHTO   H26 8401   6.576   1.624   0.691 -0.4782  2.6826 -1.6687
   20CHTO   C11 8402   6.615   1.498   0.505  0.1902 -0.4712  0.2880
   20CHTO   H24 8403   6.690   1.568   0.466 -0.8026 -0.1542 -1.0728
   20CHTO    O8 8404   6.539   1.441   0.392  0.3058 -0.1699 -0.2390
   20CHTO    H3 8405   6.508   1.515   0.343 -0.0276  0.1179  0.4051
   20CHTO    C9 8406   6.697   1.383   0.570  0.1472 -0.2131 -0.3065
   20CHTO   H22 8407   6.756   1.429   0.651  1.7683 -1.5612 -0.6751
   20CHTO    N2 8408   6.808   1.325   0.485  0.0587 -0.0788 -0.4013
   20CHTO   H10 8409   6.755   1.243   0.439  2.6607 -1.6816 -0.5998
   20CHTO   H11 8410   6.846   1.393   0.410 -1.4464  1.1725 -0.0571
   20CHTO    C7 8411   6.606   1.284   0.652  0.9794  0.2450 -0.0729
   20CHTO   H20 8412   6.663   1.264   0.746 -0.5601 -0.8660  0.6501
   20CHTO    O4 8413   6.468   1.323   0.671 -0.4751  0.1309 -0.4324
   20CHTO   C14 8414   6.435   1.458   0.701 -0.1274  0.1299  0.6662
   20CHTO   H27 8415   6.459   1.478   0.807  1.6053  1.7551 -0.0139
   20CHTO   C18 8416   6.276   1.478   0.686 -0.0748 -0.0028  0.2050
   20CHTO   O13 8417   6.213   1.397   0.785  0.0093  0.5764  0.4813
   20CHTO    H7 8418   6.159   1.332   0.743  0.8917  0.5665 -0.6610
   20CHTO    O2 8419   6.607   1.128   0.572  0.1213  0.0901  0.2526
   20CHTO    C1 8420   6.555   1.014   0.649 -0.4377  0.8924 -0.4812
   20CHTO   H14 8421   6.515   1.046   0.747  0.7757  1.4689 -0.1599
   20CHTO    C2 8422   6.665   0.913   0.676 -0.4179 -0.1014  0.7824
   20CHTO   H15 8423   6.708   0.889   0.579 -1.2169 -0.5307  0.5303
   20CHTO    O6 8424   6.764   0.972   0.765  0.0656 -0.1882  0.3675
   20CHTO    H1 8425   6.729   1.004   0.845  1.2717 -1.4340  1.4145
   20CHTO    C3 8426   6.612   0.779   0.743 -0.1637  0.1356  0.0848
   20CHTO   H16 8427   6.572   0.810   0.841  2.0377 -1.1251  1.4266
   20CHTO    N1 8428   6.723   0.680   0.768  0.7741  0.3550 -0.2159
   20CHTO    H8 8429   6.794   0.733   0.830  0.5017 -1.2402  1.4836
   20CHTO    H9 8430   6.762   0.653   0.671  0.3984  2.1053 -0.8755
   20CHTO    C4 8431   6.493   0.724   0.663  0.0092 -0.0444 -0.5354
   20CHTO   H17 8432   6.529   0.691   0.565  2.4292  1.0309 -0.0368
   20CHTO    O1 8433   6.398   0.831   0.635 -0.1235  0.4284 -0.3416
   20CHTO    C5 8434   6.443   0.942   0.564 -0.5634 -1.0834  0.1085
   20CHTO   H18 8435   6.488   0.910   0.470 -1.8763  0.1626 -0.9745
   20CHTO   C16 8436   6.311   1.036   0.544 -0.6311  0.0453  0.3917
   20CHTO   O11 8437   6.344   1.139   0.445  0.2222 -0.2850 -0.1886
   20CHTO    H5 8438   6.395   1.211   0.477 -1.8074  0.7772  0.7447
   20CHTO    O3 8439   6.417   0.612   0.713  0.2540 -0.4607 -0.3500
   20CHTO    C6 8440   6.354   0.535   0.610  0.5619  0.4061 -0.3640
   20CHTO   H19 8441   6.354   0.594   0.518 -0.6647 -1.7238 -1.7861
   20CHTO    C8 8442   6.439   0.401   0.608  0.6538  0.0618 -0.2253
   20CHTO   H21 8443   6.455   0.370   0.711 -1.1904  1.6661  0.5457
   20CHTO    O7 8444   6.558   0.445   0.543 -0.2269 -0.0606  0.3952
   20CHTO    H2 8445   6.595   0.528   0.567  0.0526  0.0680 -0.4820
   20CHTO   C12 8446   6.361   0.287   0.526  1.1575 -0.0577  0.4072
   20CHTO   H25 8447   6.349   0.330   0.424 -2.7558  1.4302  1.4043
   20CHTO    N3 8448   6.434   0.159   0.518 -0.8803 -0.0613  0.3852
   20CHTO   H12 8449   6.368   0.083   0.559 -1.2550 -0.0241 -0.1521
   20CHTO   H13 8450   6.523   0.161   0.579 -0.5305 -0.5819 -0.1042
   20CHTO   C15 8451   6.212   0.275   0.589 -0.9172  0.2201 -0.2006
   20CHTO   H28 8452   6.228   0.251   0.694  0.5407 -0.6997 -0.6181
   20CHTO   O10 8453   6.112   0.182   0.508 -0.0053 -0.1467 -0.2978
   20CHTO    H4 8454   6.141   0.093   0.503  1.1692  0.2044 -0.0497
   20CHTO    O5 8455   6.148   0.401   0.571  0.1718  0.0836  0.2009
   20CHTO   C10 8456   6.207   0.509   0.648  0.0805 -0.1682 -0.5880
   20CHTO   H23 8457   6.213   0.494   0.755  0.2992 -4.4601 -1.1298
   20CHTO   C17 8458   6.130   0.640   0.612  0.2417  0.3837 -0.3210
   20CHTO   O12 8459   5.997   0.617   0.666 -0.1333  0.1144  0.5923
   20CHTO    H6 8460   5.936   0.570   0.613  0.8552 -1.3135  0.6870
   21GLOH   H03 8461   3.423   0.082   1.364 -0.1988 -1.4712  0.2450
   21GLOH    O1 8462   3.421   0.077   1.461  0.2342 -0.0411  0.3376
   21GLOH    C1 8463   3.372  -0.052   1.508 -0.2773 -0.2556  0.5381
   21GLOH   H02 8464   3.460  -0.115   1.512  1.1917  1.7583  0.8602
   21GLOH   H08 8465   3.306  -0.107   1.441  0.8864  0.3845 -1.1553
   21GLOH    C2 8466   3.322  -0.044   1.652  0.2042  0.4878 -0.4842
   21GLOH   H04 8467   3.238   0.027   1.657 -2.8727 -3.0105 -0.6807
   21GLOH    O2 8468   3.284  -0.166   1.717 -0.5064  0.0372  0.1264
   21GLOH   H05 8469   3.358  -0.228   1.724  2.3916  3.1615 -1.0828
   21GLOH    C3 8470   3.426   0.019   1.749 -0.0939 -0.3857  0.2783
   21GLOH   H06 8471   3.403   0.000   1.853  0.6113 -1.0742  0.3149
   21GLOH   H07 8472   3.416   0.125   1.724 -1.7593 -0.5270  0.2748
   21GLOH    O3 8473   3.560  -0.034   1.723 -0.3549  0.1108  0.1346
   21GLOH   H01 8474   3.565  -0.127   1.694  2.4510  0.3498 -0.3140
   22GLOH   H03 8475   4.022   9.584   0.379  1.5167  1.3650 -1.1401
   22GLOH    O1 8476   4.074   9.522   0.325  0.0750 -0.4328 -0.5373
   22GLOH    C1 8477   3.986   9.421   0.271  0.1598  0.2181 -0.1384
   22GLOH   H02 8478   4.038   9.367   0.191  1.1381  0.8024  0.0919
   22GLOH   H08 8479   3.894   9.463   0.232  1.6292  0.3362 -3.7235
   22GLOH    C2 8480   3.943   9.324   0.383  0.0370  0.0785 -0.2473
   22GLOH   H04 8481   3.915   9.386   0.470  2.5342  1.1829 -0.1910
   22GLOH    O2 8482   3.836   9.232   0.355 -0.0854  0.1146 -0.1402
   22GLOH   H05 8483   3.816   9.191   0.441  1.8990 -0.0489  0.2499
   22GLOH    C3 8484   4.068   9.245   0.434  0.5276 -0.0131  0.2241
   22GLOH   H06 8485   4.098   9.181   0.351  1.6853  1.5128 -0.5731
   22GLOH   H07 8486   4.041   9.178   0.515  2.0897 -0.6637  0.2318
   22GLOH    O3 8487   4.189   9.323   0.467 -0.7382 -0.3859  0.2964
   22GLOH   H01 8488   4.196   9.391   0.397  0.8487 -3.0320 -2.2242
   23GLOH   H03 8489   3.614   0.055   1.191 -0.1974  0.4974  0.4809
   23GLOH    O1 8490   3.696   0.008   1.217 -0.5143 -0.1627  0.3127
   23GLOH    C1 8491   3.772   0.087   1.310 -0.1829 -0.0931 -0.6267
   23GLOH   H02 8492   3.718   0.112   1.402  0.6036  2.1873 -0.7620
   23GLOH   H08 8493   3.799   0.180   1.260 -0.2584 -0.6388 -1.6892
   23GLOH    C2 8494   3.901   0.016   1.360 -0.2641  0.2710  0.5534
   23GLOH   H04 8495   3.978   0.029   1.282 -0.2456  0.3442  0.5833
   23GLOH    O2 8496   3.949   0.068   1.489  0.5350 -0.0008 -0.7917
   23GLOH   H05 8497   3.892   0.145   1.507 -0.8151 -0.6280 -2.1615
   23GLOH    C3 8498   3.881  -0.139   1.384  0.1836  0.1144 -0.7263
   23GLOH   H06 8499   3.814  -0.157   1.469 -0.7539  0.0466 -1.4780
   23GLOH   H07 8500   3.978  -0.182   1.413  0.4800 -0.8619 -3.0575
   23GLOH    O3 8501   3.836  -0.205   1.262 -0.4689 -0.7031 -0.0953
   23GLOH   H01 8502   3.786  -0.136   1.214  0.7632 -0.3991 -0.9420
   24GLOH   H03 8503   4.347   0.139   1.790  0.6520 -0.7693  1.0782
   24GLOH    O1 8504   4.353   0.049   1.751 -0.2617 -0.2264 -0.3434
   24GLOH    C1 8505   4.254   0.051   1.644  0.0075  0.3722  0.3396
   24GLOH   H02 8506   4.269   0.140   1.583  1.9298  0.3033  0.6787
   24GLOH   H08 8507   4.154   0.042   1.689 -1.3679 -0.1952 -2.7038
   24GLOH    C2 8508   4.270  -0.069   1.553 -0.3386 -0.6283 -0.0238
   24GLOH   H04 8509   4.225  -0.149   1.613 -0.4634 -1.1879 -0.8512
   24GLOH    O2 8510   4.194  -0.043   1.428 -0.1025  0.3033  0.2809
   24GLOH   H05 8511   4.101  -0.025   1.449 -0.9139 -0.8300 -2.1025
   24GLOH    C3 8512   4.421  -0.117   1.530  0.2327 -0.2080 -0.1725
   24GLOH   H06 8513   4.462  -0.034   1.472 -1.7180  2.0604  1.5553
   24GLOH   H07 8514   4.434  -0.209   1.474  1.8988  0.1071 -0.3335
   24GLOH    O3 8515   4.487  -0.132   1.657  0.1408 -0.1627  0.2319
   24GLOH   H01 8516   4.449  -0.064   1.716  0.6856  0.1735  0.2022
   25GLOH   H03 8517   3.449   0.190   2.154  0.3815  1.3381  0.5507
   25GLOH    O1 8518   3.438   0.243   2.073 -0.2091 -0.3134 -0.4728
   25GLOH    C1 8519   3.323   0.324   2.095  0.1071  0.6715  0.2863
   25GLOH   H02 8520   3.327   0.404   2.021  2.0108  1.4559  1.2082
   25GLOH   H08 8521   3.323   0.374   2.192  0.1141 -2.0723  1.7444
   25GLOH    C2 8522   3.183   0.264   2.084 -0.2722  0.4032  0.5533
   25GLOH   H04 8523   3.180   0.175   2.148  0.6126  0.0837  0.1477
   25GLOH    O2 8524   3.080   0.353   2.133 -0.1799 -0.1210 -0.5894
   25GLOH   H05 8525   3.100   0.390   2.221 -1.4701  0.0408 -0.3484
   25GLOH    C3 8526   3.153   0.214   1.944 -0.1994  0.0518  0.0932
   25GLOH   H06 8527   3.088   0.130   1.966 -0.3679 -0.0778 -0.8517
   25GLOH   H07 8528   3.245   0.171   1.904 -0.2381  0.0349  0.0224
   25GLOH    O3 8529   3.095   0.306   1.850  0.1370 -0.3503  0.5186
   25GLOH   H01 8530   3.170   0.362   1.826 -0.7738  0.7525  0.2095
   26GLOH   H03 8531   4.224   2.018   1.452 -1.8123  1.4112  0.6251
   26GLOH    O1 8532   4.243   2.050   1.362  0.6821  0.5326  0.7922
   26GLOH    C1 8533   4.285   1.937   1.284 -0.2723  0.4542 -0.3199
   26GLOH   H02 8534   4.301   1.845   1.339  1.7791  0.9832  0.0068
   26GLOH   H08 8535   4.379   1.973   1.243  0.4481 -1.2095 -0.1528
   26GLOH    C2 8536   4.190   1.908   1.159  0.0380 -0.2334  0.1010
   26GLOH   H04 8537   4.086   1.882   1.186 -0.6232 -0.6767 -2.7207
   26GLOH    O2 8538   4.179   2.028   1.069 -0.1608  0.3609 -0.9494
   26GLOH   H05 8539   4.164   2.110   1.119 -4.0348 -0.5792 -0.4371
   26GLOH    C3 8540   4.250   1.787   1.085  0.0612 -0.9330  0.6782
   26GLOH   H06 8541   4.343   1.803   1.031 -0.2773 -0.2851  0.2794
   26GLOH   H07 8542   4.179   1.761   1.006 -0.2002 -0.2216  0.6718
   26GLOH    O3 8543   4.267   1.668   1.157  0.0439 -0.4354 -0.6479
   26GLOH   H01 8544   4.204   1.668   1.231  1.1153  2.2537  0.3451
   27GLOH   H03 8545   2.864   0.606   1.922 -3.0990  1.2511  0.8719
   27GLOH    O1 8546   2.858   0.658   1.840 -0.2830  0.1106 -0.1425
   27GLOH    C1 8547   2.891   0.796   1.873  0.1420  0.3591  0.3728
   27GLOH   H02 8548   2.985   0.806   1.927  0.0865  0.9351  0.3624
   27GLOH   H08 8549   2.818   0.827   1.947  0.1667  1.7712 -0.1715
   27GLOH    C2 8550   2.873   0.900   1.758 -0.1087 -0.0185 -0.1437
   27GLOH   H04 8551   2.910   0.997   1.794 -1.4411  0.6115 -0.4131
   27GLOH    O2 8552   2.970   0.862   1.654  0.4087  0.3226 -0.3142
   27GLOH   H05 8553   3.046   0.830   1.706 -0.5176 -0.5826  0.5051
   27GLOH    C3 8554   2.726   0.906   1.709 -0.0272 -0.6141 -0.1924
   27GLOH   H06 8555   2.702   0.816   1.652  0.5695 -0.0394 -1.3693
   27GLOH   H07 8556   2.726   0.988   1.637 -1.8696 -1.9277 -1.7381
   27GLOH    O3 8557   2.626   0.950   1.801 -0.4072  0.2560  0.2263
   27GLOH   H01 8558   2.546   0.965   1.747  0.4995  0.7426 -0.9960
   28GLOH   H03 8559   4.468   0.921   1.572 -0.5339  0.1758  0.1252
   28GLOH    O1 8560   4.481   0.977   1.494 -0.1625  0.3250  0.2911
   28GLOH    C1 8561   4.525   0.896   1.384  0.2513  0.4027 -0.7246
   28GLOH   H02 8562   4.441   0.827   1.372 -0.5221  1.2954 -0.4936
   28GLOH   H08 8563   4.622   0.848   1.392  0.3446  0.4956 -1.3098
   28GLOH    C2 8564   4.532   0.990   1.256  0.3787 -0.0527 -0.1776
   28GLOH   H04 8565   4.596   1.077   1.274  1.7318 -0.6134 -2.1068
   28GLOH    O2 8566   4.572   0.912   1.143 -0.1674 -1.3332  0.7481
   28GLOH   H05 8567   4.602   0.967   1.069  0.7469  1.0500  2.8062
   28GLOH    C3 8568   4.398   1.052   1.228 -0.3825  0.5623  0.5211
   28GLOH   H06 8569   4.332   0.967   1.212 -0.4245  0.6318  0.3298
   28GLOH   H07 8570   4.402   1.110   1.136  0.4635  1.1048  0.8899
   28GLOH    O3 8571   4.359   1.141   1.333 -0.4945 -0.0815 -0.0213
   28GLOH   H01 8572   4.404   1.113   1.415  3.1484  1.2290 -1.4621
   29GLOH   H03 8573   4.017   1.725   1.965  0.5841  0.1047 -1.2658
   29GLOH    O1 8574   4.023   1.629   1.982  0.1106  0.2378 -0.3067
   29GLOH    C1 8575   4.023   1.569   1.851 -0.0664 -0.1182 -0.1081
   29GLOH   H02 8576   4.083   1.629   1.781  0.4371 -0.7588 -0.2351
   29GLOH   H08 8577   3.922   1.575   1.812  0.6647  1.9218 -1.7807
   29GLOH    C2 8578   4.058   1.420   1.841  0.3294 -0.3097 -0.3802
   29GLOH   H04 8579   3.976   1.356   1.876  0.2433 -0.1053 -0.2131
   29GLOH    O2 8580   4.087   1.384   1.704 -0.2324  0.3906 -0.6861
   29GLOH   H05 8581   4.045   1.298   1.685 -2.6951  1.8349 -1.9847
   29GLOH    C3 8582   4.183   1.394   1.923 -0.3269  0.7022  0.7752
   29GLOH   H06 8583   4.267   1.445   1.877  0.3250  1.3736  2.6464
   29GLOH   H07 8584   4.211   1.289   1.924  2.2522  1.3351 -0.8310
   29GLOH    O3 8585   4.183   1.439   2.058  0.0121  0.1704 -0.6806
   29GLOH   H01 8586   4.136   1.524   2.055 -2.2402 -0.8978  1.6363
   30GLOH   H03 8587   2.352   0.145   0.039 -0.0850 -0.1438  0.4439
   30GLOH    O1 8588   2.429   0.202   0.053 -0.0290 -0.0324 -0.2829
   30GLOH    C1 8589   2.540   0.117   0.088 -0.5412 -0.2028  0.1029
   30GLOH   H02 8590   2.512   0.017   0.056  0.0236 -0.3209 -0.0282
   30GLOH   H08 8591   2.561   0.114   0.195 -1.2352  1.2237  0.2993
   30GLOH    C2 8592   2.671   0.154   0.017 -0.0263 -0.6227  0.2337
   30GLOH   H04 8593   2.692   0.261   0.030 -0.2703 -0.5285 -0.1317
   30GLOH    O2 8594   2.781   0.075   0.053  0.7727  0.0763 -0.0031
   30GLOH   H05 8595   2.832   0.122   0.122 -0.1508  0.3353  0.5080
   30GLOH    C3 8596   2.650   0.146  -0.133 -0.3225  0.8969  0.0634
   30GLOH   H06 8597   2.657   0.041  -0.161 -1.4085  0.8351 -0.0102
   30GLOH   H07 8598   2.742   0.190  -0.169  1.0182 -1.0501  1.0379
   30GLOH    O3 8599   2.536   0.219  -0.175  0.3618 -0.1258  0.5500
   30GLOH   H01 8600   2.480   0.244  -0.099 -0.1983  1.6734 -0.4191
   31GLOH   H03 8601   3.179   2.279   0.965  0.7300 -0.6894  0.6127
   31GLOH    O1 8602   3.252   2.343   0.970 -0.3005  0.5661 -0.2974
   31GLOH    C1 8603   3.365   2.307   1.058  0.1128  0.5642  0.3067
   31GLOH   H02 8604   3.379   2.379   1.138 -2.1326  1.2616  0.1056
   31GLOH   H08 8605   3.459   2.309   1.002 -1.0753  0.4751 -1.7462
   31GLOH    C2 8606   3.330   2.175   1.121  0.9286  0.4577 -0.4484
   31GLOH   H04 8607   3.227   2.174   1.161  0.7426  0.8244 -0.9172
   31GLOH    O2 8608   3.350   2.064   1.030  0.0413 -0.2419  0.8032
   31GLOH   H05 8609   3.306   2.074   0.944  1.2323  2.4015  0.4553
   31GLOH    C3 8610   3.418   2.153   1.245  0.0843 -0.8153  0.2641
   31GLOH   H06 8611   3.524   2.177   1.233  0.0097 -1.3811 -1.6947
   31GLOH   H07 8612   3.409   2.047   1.270 -0.8655 -0.5296  1.1507
   31GLOH    O3 8613   3.371   2.244   1.350  0.0630  0.0829  0.2327
   31GLOH   H01 8614   3.392   2.209   1.438  1.8767  0.1901 -0.1286
   32GLOH   H03 8615   3.510   2.083   2.488  0.1282  0.5754  1.2719
   32GLOH    O1 8616   3.432   2.117   2.535 -0.5978 -0.2799  0.6913
   32GLOH    C1 8617   3.452   2.110   2.675  0.9860  0.8324  0.6518
   32GLOH   H02 8618   3.368   2.152   2.731  0.2240  0.4151 -0.1613
   32GLOH   H08 8619   3.539   2.169   2.701  1.7799 -0.0619  0.0316
   32GLOH    C2 8620   3.469   1.966   2.723 -0.0757 -0.1398 -0.9061
   32GLOH   H04 8621   3.556   1.927   2.668  0.6283 -1.1762  0.8806
   32GLOH    O2 8622   3.498   1.952   2.865 -0.5384 -0.1060  0.3227
   32GLOH   H05 8623   3.568   1.884   2.866 -0.3630  0.0647 -0.1322
   32GLOH    C3 8624   3.335   1.892   2.691 -0.2818 -0.1178  0.2424
   32GLOH   H06 8625   3.309   1.909   2.586 -0.1642 -1.0717  0.0581
   32GLOH   H07 8626   3.247   1.927   2.744 -0.0918  0.0740  0.4284
   32GLOH    O3 8627   3.352   1.751   2.709  0.5226 -0.2334  0.1351
   32GLOH   H01 8628   3.366   1.737   2.804  1.0556 -2.5015 -0.2679
   33GLOH   H03 8629   3.887   0.565   1.135  0.2988 -0.0268 -0.3214
   33GLOH    O1 8630   3.967   0.610   1.169  0.3399 -0.2377 -0.1449
   33GLOH    C1 8631   3.923   0.656   1.301 -0.3638 -0.3101 -0.4970
   33GLOH   H02 8632   3.959   0.585   1.376  0.1389 -0.8540 -1.2474
   33GLOH   H08 8633   3.815   0.656   1.316 -0.3087  0.8694 -0.0048
   33GLOH    C2 8634   3.970   0.791   1.349 -0.5320  0.5158  0.2387
   33GLOH   H04 8635   3.939   0.872   1.281 -0.0875  0.7208  0.2805
   33GLOH    O2 8636   3.931   0.822   1.487 -0.2818 -0.4261 -0.3427
   33GLOH   H05 8637   3.839   0.792   1.492 -0.7239  0.8580 -0.6430
   33GLOH    C3 8638   4.128   0.785   1.351 -0.2050  1.0199  0.1259
   33GLOH   H06 8639   4.165   0.723   1.432  2.1026  0.9430 -0.9390
   33GLOH   H07 8640   4.160   0.889   1.364  0.9594  0.5634  1.0119
   33GLOH    O3 8641   4.176   0.737   1.216  0.2207  0.0187 -0.1879
   33GLOH   H01 8642   4.114   0.669   1.185 -0.4249  1.8438 -3.0554
   34GLOH   H03 8643   2.672   1.807   0.858  1.5517 -2.8469 -0.0636
   34GLOH    O1 8644   2.641   1.806   0.765 -0.4495  0.4528  0.4907
   34GLOH    C1 8645   2.759   1.837   0.694 -0.2766  0.2886  0.6119
   34GLOH   H02 8646   2.797   1.937   0.710  0.7354  0.2263 -1.2618
   34GLOH   H08 8647   2.736   1.828   0.587  0.0573 -1.9879  0.7020
   34GLOH    C2 8648   2.874   1.752   0.729 -0.7642  0.5522  0.5756
   34GLOH   H04 8649   2.955   1.797   0.670 -1.5930  2.7502  1.0668
   34GLOH    O2 8650   2.925   1.748   0.864  0.5144  0.0069 -0.2369
   34GLOH   H05 8651   2.851   1.745   0.927  1.1953 -1.7345  0.5294
   34GLOH    C3 8652   2.863   1.609   0.673  0.3606  0.1580  0.8896
   34GLOH   H06 8653   2.826   1.624   0.571 -0.2471 -2.6065  0.6599
   34GLOH   H07 8654   2.786   1.555   0.729 -0.4748 -0.1733 -0.5406
   34GLOH    O3 8655   3.003   1.563   0.677 -0.1235  0.4408  0.1726
   34GLOH   H01 8656   3.043   1.609   0.601 -0.9602 -0.4626 -0.8432
   35GLOH   H03 8657   3.936   1.762   1.584  2.2802 -1.6029  1.4864
   35GLOH    O1 8658   4.008   1.805   1.536  0.4660 -0.5691 -0.3682
   35GLOH    C1 8659   3.941   1.913   1.468 -0.0447 -0.0939 -0.2736
   35GLOH   H02 8660   4.005   1.965   1.397  1.0043 -0.4437  0.4126
   35GLOH   H08 8661   3.912   1.986   1.543  0.8378 -0.1101  0.0865
   35GLOH    C2 8662   3.812   1.874   1.391 -0.5848 -0.1188 -0.1083
   35GLOH   H04 8663   3.841   1.823   1.298 -0.3100 -0.7777  0.3368
   35GLOH    O2 8664   3.731   1.793   1.468  0.1033 -0.0939 -0.3675
   35GLOH   H05 8665   3.776   1.707   1.474 -2.3523 -1.5721 -1.8636
   35GLOH    C3 8666   3.730   2.000   1.349 -1.0417  0.5845 -0.3399
   35GLOH   H06 8667   3.662   2.042   1.423 -2.0837 -0.7022 -0.5598
   35GLOH   H07 8668   3.666   1.970   1.266 -0.5606  1.3101 -0.9886
   35GLOH    O3 8669   3.804   2.111   1.295  0.2619  0.3555  0.0979
   35GLOH   H01 8670   3.779   2.192   1.344  1.1885  0.2873  0.6947
   36GLOH   H03 8671   3.769   2.226   0.037  2.2237  1.1038  0.6328
   36GLOH    O1 8672   3.805   2.167  -0.032 -0.8404 -0.3428  0.1880
   36GLOH    C1 8673   3.808   2.039   0.026  0.6952 -0.5029  0.4622
   36GLOH   H02 8674   3.750   1.973  -0.039 -1.3039  1.4701  0.2307
   36GLOH   H08 8675   3.749   2.045   0.117 -1.3501  1.5444 -0.9710
   36GLOH    C2 8676   3.950   1.981   0.058  0.5249 -0.1669  0.8452
   36GLOH   H04 8677   4.012   2.056   0.109 -0.0937  0.9848 -0.0830
   36GLOH    O2 8678   3.954   1.867   0.131 -0.0535 -0.5940 -0.1067
   36GLOH   H05 8679   4.043   1.829   0.143  0.2144  0.1424  0.2893
   36GLOH    C3 8680   4.022   1.945  -0.077  0.1247  0.7285  0.9075
   36GLOH   H06 8681   3.990   2.020  -0.150  1.0687 -0.9663 -1.2985
   36GLOH   H07 8682   3.967   1.861  -0.119 -0.8994  1.6498  0.3842
   36GLOH    O3 8683   4.158   1.929  -0.055  0.2607  0.0903 -0.0603
   36GLOH   H01 8684   4.174   1.869   0.021  1.7723  1.3716  0.6534
   37GLOH   H03 8685   3.679   0.943   1.994 -1.2884 -0.2830 -1.4085
   37GLOH    O1 8686   3.655   1.027   2.038  0.9424 -0.2962 -0.0503
   37GLOH    C1 8687   3.777   1.076   2.093 -0.0462  0.0533  0.7279
   37GLOH   H02 8688   3.866   1.066   2.031  0.8317  2.4865  1.5653
   37GLOH   H08 8689   3.801   1.019   2.182  1.5376 -0.5618 -0.0765
   37GLOH    C2 8690   3.756   1.225   2.128 -0.1561 -0.0833  0.4592
   37GLOH   H04 8691   3.684   1.221   2.210  0.0592  1.9184  0.7718
   37GLOH    O2 8692   3.869   1.295   2.184  0.1022  0.3227  0.1798
   37GLOH   H05 8693   3.863   1.390   2.165  1.0908  0.2333 -0.6514
   37GLOH    C3 8694   3.692   1.308   2.016  0.0817  0.7218 -0.1978
   37GLOH   H06 8695   3.612   1.254   1.965  0.4978  0.0780 -0.1820
   37GLOH   H07 8696   3.762   1.323   1.933 -0.0157  0.5992 -0.3038
   37GLOH    O3 8697   3.642   1.429   2.066  0.1838 -0.0799 -0.2412
   37GLOH   H01 8698   3.716   1.470   2.114 -1.4595  1.3384  1.1672
   38GLOH   H03 8699   2.808   0.666   2.633 -0.5807  0.9667 -1.6184
   38GLOH    O1 8700   2.862   0.747   2.638 -0.0708  0.5082  0.7270
   38GLOH    C1 8701   2.909   0.755   2.775 -0.2015  0.0367 -0.0594
   38GLOH   H02 8702   2.986   0.832   2.782 -0.4023  0.3482 -1.1030
   38GLOH   H08 8703   2.946   0.656   2.801 -1.1051 -0.1991  0.3620
   38GLOH    C2 8704   2.798   0.780   2.879 -0.2547 -0.4245 -0.1759
   38GLOH   H04 8705   2.743   0.865   2.837 -1.4782 -2.0913 -2.0869
   38GLOH    O2 8706   2.707   0.674   2.908 -0.5327 -0.7941  0.3439
   38GLOH   H05 8707   2.645   0.722   2.965  0.2575  1.5595 -0.7009
   38GLOH    C3 8708   2.866   0.834   3.005  0.6035 -0.2652 -0.2683
   38GLOH   H06 8709   2.972   0.817   2.988 -0.0716 -2.2808 -2.7949
   38GLOH   H07 8710   2.840   0.775   3.092 -1.9889  2.3159  0.8234
   38GLOH    O3 8711   2.851   0.969   3.035  0.3933 -0.1033  0.6689
   38GLOH   H01 8712   2.918   1.023   2.991  1.4688  0.1391  2.5729
   39GLOH   H03 8713   4.276   0.308   1.746 -1.2831  0.8765  0.8463
   39GLOH    O1 8714   4.297   0.283   1.838 -0.0470  0.8262  0.5634
   39GLOH    C1 8715   4.334   0.407   1.902 -0.3223  0.2468 -0.3815
   39GLOH   H02 8716   4.441   0.399   1.918 -0.0031 -0.7211 -2.7810
   39GLOH   H08 8717   4.283   0.426   1.996  0.4685  0.5969 -0.0205
   39GLOH    C2 8718   4.315   0.532   1.810  0.2133 -0.5868 -0.3009
   39GLOH   H04 8719   4.207   0.549   1.801  0.1785 -1.1319 -0.8970
   39GLOH    O2 8720   4.387   0.639   1.877  0.3700 -0.0616 -0.2441
   39GLOH   H05 8721   4.335   0.664   1.955  1.1575 -2.6229  1.1671
   39GLOH    C3 8722   4.367   0.510   1.667  0.5378  0.3306 -0.5121
   39GLOH   H06 8723   4.474   0.493   1.674  0.6423  0.6154 -1.3831
   39GLOH   H07 8724   4.343   0.600   1.610  0.6953  1.5069  1.2670
   39GLOH    O3 8725   4.299   0.395   1.608  0.2784  0.2679  0.2564
   39GLOH   H01 8726   4.285   0.403   1.512 -2.7941  0.7029  0.6757
   40GLOH   H03 8727   3.195   9.782   0.204  0.3309  1.8709 -1.4061
   40GLOH    O1 8728   3.113   9.739   0.174  0.4310  0.4375  0.2699
   40GLOH    C1 8729   3.002   9.824   0.165  0.5700  0.3808  0.5001
   40GLOH   H02 8730   3.024   9.919   0.116 -1.3789  0.6559  0.1009
   40GLOH   H08 8731   2.957   9.841   0.263  2.9864  0.4552  1.6354
   40GLOH    C2 8732   2.905   9.753   0.077  0.3779 -0.5118 -0.0475
   40GLOH   H04 8733   2.894   9.647   0.106  0.6259 -0.5017  0.0880
   40GLOH    O2 8734   2.784   9.817   0.079  0.1195  0.4916  0.0444
   40GLOH   H05 8735   2.783   9.905   0.038 -2.3039  0.6155  0.2825
   40GLOH    C3 8736   2.952   9.750  -0.067 -0.5473  0.4674 -0.3820
   40GLOH   H06 8737   2.869   9.706  -0.121  0.4379 -0.6348 -1.0292
   40GLOH   H07 8738   3.044   9.691  -0.077  0.2269  1.6043 -0.0882
   40GLOH    O3 8739   2.987   9.882  -0.112  0.0497  0.1611 -0.4405
   40GLOH   H01 8740   2.988   9.886  -0.209  0.0450  2.8907 -0.3754
   41GLOH   H03 8741   2.481   0.578   2.088 -1.3596  0.9566  1.5226
   41GLOH    O1 8742   2.495   0.515   2.162 -0.3167  0.0881  0.6084
   41GLOH    C1 8743   2.593   0.580   2.249 -0.1387 -0.2165  0.2239
   41GLOH   H02 8744   2.607   0.510   2.331 -1.6066  0.1578  0.8310
   41GLOH   H08 8745   2.550   0.674   2.286 -0.2826 -0.5246  0.8396
   41GLOH    C2 8746   2.735   0.604   2.187 -0.3852 -0.4433  0.3290
   41GLOH   H04 8747   2.723   0.664   2.095 -1.7067 -1.9371 -0.4976
   41GLOH    O2 8748   2.829   0.660   2.285  0.6585 -0.3202 -0.2428
   41GLOH   H05 8749   2.771   0.718   2.337  0.0325 -0.8316 -0.3709
   41GLOH    C3 8750   2.798   0.476   2.132  0.1711 -0.6691  0.4413
   41GLOH   H06 8751   2.727   0.401   2.096  1.1395 -1.8774  1.0389
   41GLOH   H07 8752   2.855   0.428   2.210  3.5226  0.2027 -1.3874
   41GLOH    O3 8753   2.896   0.494   2.036  0.1798  0.0881  0.3594
   41GLOH   H01 8754   2.962   0.426   2.058 -1.2263 -1.4600 -0.1721
   42GLOH   H03 8755   3.054   1.070   2.255  0.4118  1.2243  0.1925
   42GLOH    O1 8756   3.016   1.143   2.203 -0.7282  0.4476 -0.0800
   42GLOH    C1 8757   3.053   1.119   2.069  0.3196  0.6744  0.5320
   42GLOH   H02 8758   3.004   1.034   2.021 -3.3633  3.4121 -0.8250
   42GLOH   H08 8759   3.160   1.103   2.082  0.0178 -1.9325  0.0860
   42GLOH    C2 8760   3.040   1.237   1.972 -0.1283 -0.8128  0.8651
   42GLOH   H04 8761   3.066   1.199   1.872 -0.5124 -0.5190  0.6494
   42GLOH    O2 8762   2.900   1.271   1.960 -0.4564  0.4286 -0.0780
   42GLOH   H05 8763   2.842   1.203   1.999  1.6899 -2.2092 -1.3751
   42GLOH    C3 8764   3.136   1.356   1.997  1.0440 -0.0951 -0.0016
   42GLOH   H06 8765   3.107   1.403   2.091  2.4484  1.2679 -0.2276
   42GLOH   H07 8766   3.110   1.427   1.918  2.5352  1.2347  0.6744
   42GLOH    O3 8767   3.272   1.319   1.991 -0.6887  0.3878  0.5151
   42GLOH   H01 8768   3.324   1.384   2.040 -1.5116  0.6146  1.0886
   43GLOH   H03 8769   2.739   9.722   2.172  2.3085 -1.2912  0.4557
   43GLOH    O1 8770   2.788   9.800   2.202  0.2351  0.1124  0.2807
   43GLOH    C1 8771   2.735   9.922   2.143  0.6455  0.0390  0.1141
   43GLOH   H02 8772   2.650   9.967   2.195  0.2854  0.6643 -0.9737
   43GLOH   H08 8773   2.708   9.903   2.039  2.9007  3.5369 -1.1937
   43GLOH    C2 8774   2.844  10.033   2.136 -0.4041  0.3350 -0.7751
   43GLOH   H04 8775   2.927  10.000   2.071  0.4530 -1.2515  1.0725
   43GLOH    O2 8776   2.790  10.156   2.093 -0.1559 -0.4197  0.3189
   43GLOH   H05 8777   2.701  10.173   2.129  1.0328  0.4351  2.8965
   43GLOH    C3 8778   2.911  10.056   2.273 -0.4206  0.4511  0.0202
   43GLOH   H06 8779   2.833  10.099   2.337  0.5778  1.0044  0.8858
   43GLOH   H07 8780   2.990  10.132   2.267 -0.3407  0.4123  0.5528
   43GLOH    O3 8781   2.953   9.935   2.334  0.0406 -0.0332 -0.1581
   43GLOH   H01 8782   2.910   9.872   2.274 -0.1736 -0.2463  0.2178
   44GLOH   H03 8783   3.549   0.656   2.514  2.5336 -0.0813  0.2304
   44GLOH    O1 8784   3.564   0.752   2.525  0.2412  0.2635  0.5150
   44GLOH    C1 8785   3.492   0.827   2.425 -0.1965  0.6553 -0.5558
   44GLOH   H02 8786   3.524   0.930   2.436  0.8828  0.0821  1.9506
   44GLOH   H08 8787   3.383   0.822   2.433 -0.1777 -0.1875 -0.7827
   44GLOH    C2 8788   3.516   0.789   2.277 -0.5310  0.3531 -0.6326
   44GLOH   H04 8789   3.622   0.815   2.262 -0.6409  0.2084 -1.6731
   44GLOH    O2 8790   3.490   0.646   2.251 -0.2247  0.1811  0.5247
   44GLOH   H05 8791   3.504   0.599   2.335  1.4632 -1.8331 -0.8531
   44GLOH    C3 8792   3.423   0.872   2.186  0.0867 -0.3745  0.2031
   44GLOH   H06 8793   3.321   0.864   2.223 -0.4353  1.9105 -0.6367
   44GLOH   H07 8794   3.432   0.848   2.081  3.3727  0.2711  0.2768
   44GLOH    O3 8795   3.457   1.010   2.191  0.8851 -0.2335 -0.1485
   44GLOH   H01 8796   3.534   1.023   2.133 -0.1230  1.2618 -1.1882
   45GLOH   H03 8797   3.600   0.300   0.680 -0.6484 -1.3684 -0.8728
   45GLOH    O1 8798   3.678   0.254   0.715 -0.9009 -0.7139  0.5756
   45GLOH    C1 8799   3.668   0.120   0.666 -0.3981  0.1210  0.6254
   45GLOH   H02 8800   3.566   0.093   0.694 -1.0046  2.2054  0.4546
   45GLOH   H08 8801   3.741   0.054   0.714  1.1424  1.5995  0.3352
   45GLOH    C2 8802   3.704   0.117   0.514 -1.0294 -0.5528  0.4643
   45GLOH   H04 8803   3.718   0.014   0.477  2.4334  0.6563 -1.8848
   45GLOH    O2 8804   3.604   0.179   0.437 -0.5933 -0.5503 -0.1100
   45GLOH   H05 8805   3.613   0.275   0.427  2.8642 -1.1462 -4.8930
   45GLOH    C3 8806   3.839   0.188   0.501 -0.4647 -0.6189  0.4562
   45GLOH   H06 8807   3.826   0.292   0.532  1.0560 -0.0259 -0.8426
   45GLOH   H07 8808   3.863   0.204   0.396 -0.3307  0.6867  0.6785
   45GLOH    O3 8809   3.946   0.128   0.572  0.1251 -0.2648  0.3468
   45GLOH   H01 8810   4.024   0.140   0.514 -0.2098 -2.0460 -0.5040
   46GLOH   H03 8811   4.095   8.984   2.169  0.1727  1.7769 -1.2144
   46GLOH    O1 8812   4.165   8.962   2.105  0.0673 -0.6166 -0.5391
   46GLOH    C1 8813   4.159   9.044   1.985 -0.5661 -0.4329  0.1090
   46GLOH   H02 8814   4.241   9.020   1.917  0.2214  1.1295  0.4795
   46GLOH   H08 8815   4.172   9.148   2.015  0.1749 -0.5718  0.2678
   46GLOH    C2 8816   4.028   9.028   1.916  0.0724 -0.4575 -0.4485
   46GLOH   H04 8817   3.945   9.051   1.984  1.4394  0.0850  1.0880
   46GLOH    O2 8818   4.027   9.114   1.800 -0.7452 -0.4022  0.0865
   46GLOH   H05 8819   4.022   9.058   1.720  1.5514  2.6535 -2.3539
   46GLOH    C3 8820   4.005   8.882   1.881  0.4546 -1.0405  0.1450
   46GLOH   H06 8821   4.010   8.823   1.973  0.8554 -1.2333 -0.0024
   46GLOH   H07 8822   4.095   8.854   1.826  1.7635  4.0734 -0.5599
   46GLOH    O3 8823   3.883   8.856   1.805  0.1626 -0.2063  0.9872
   46GLOH   H01 8824   3.829   8.936   1.822  0.2757  0.3107 -1.0048
   47GLOH   H03 8825   2.721   0.646   1.786 -0.0128 -0.0898 -0.5527
   47GLOH    O1 8826   2.637   0.605   1.757 -0.3789  0.0885  0.2183
   47GLOH    C1 8827   2.678   0.515   1.653  0.2768  0.2818 -0.0127
   47GLOH   H02 8828   2.591   0.503   1.589  0.6716  1.8910 -0.8581
   47GLOH   H08 8829   2.694   0.417   1.698 -2.0597 -0.8243 -1.5202
   47GLOH    C2 8830   2.794   0.553   1.558  0.1359  0.4067  0.2676
   47GLOH   H04 8831   2.786   0.658   1.525 -1.7130  0.7003  1.5823
   47GLOH    O2 8832   2.920   0.525   1.625 -0.3957 -0.4534 -0.1581
   47GLOH   H05 8833   2.927   0.583   1.702 -3.0327 -0.5286  0.1699
   47GLOH    C3 8834   2.789   0.475   1.425 -0.5733 -0.1346  0.0833
   47GLOH   H06 8835   2.824   0.374   1.444  2.9060  0.7365 -1.4516
   47GLOH   H07 8836   2.861   0.525   1.361 -0.6040 -0.1383  0.0463
   47GLOH    O3 8837   2.660   0.476   1.362 -0.5851 -0.3032 -0.0805
   47GLOH   H01 8838   2.662   0.547   1.295 -0.4463 -0.9569 -0.7783
   48GLOH   H03 8839   3.351   9.632   1.529 -0.7467 -0.1902 -0.4228
   48GLOH    O1 8840   3.377   9.642   1.435  0.0579 -0.3201 -0.2157
   48GLOH    C1 8841   3.513   9.641   1.418  0.1152 -0.0229  0.4501
   48GLOH   H02 8842   3.556   9.731   1.460 -0.1289 -0.1856  1.0595
   48GLOH   H08 8843   3.532   9.647   1.311  1.7447 -1.8635  0.6060
   48GLOH    C2 8844   3.573   9.505   1.456 -0.4892 -0.4788 -0.0338
   48GLOH   H04 8845   3.540   9.482   1.558  0.1842 -0.8629  0.0989
   48GLOH    O2 8846   3.528   9.399   1.359 -0.2059  0.4520  0.0627
   48GLOH   H05 8847   3.533   9.442   1.271 -0.1897  2.2032  0.8939
   48GLOH    C3 8848   3.730   9.528   1.457 -0.1416  0.5109 -0.5663
   48GLOH   H06 8849   3.776   9.450   1.517 -0.1410  2.4394  2.0193
   48GLOH   H07 8850   3.758   9.619   1.510 -2.9225 -0.6893  3.2103
   48GLOH    O3 8851   3.774   9.548   1.322 -0.0869 -0.4035  0.3836
   48GLOH   H01 8852   3.825   9.631   1.317 -0.8034  0.0262  0.2513
   49GLOH   H03 8853   3.961   1.306   1.091 -0.3770 -1.4037  0.7620
   49GLOH    O1 8854   3.989   1.324   1.182  0.4091 -0.2059  0.3017
   49GLOH    C1 8855   4.059   1.443   1.203 -0.0430 -0.1897 -0.1361
   49GLOH   H02 8856   4.020   1.522   1.139 -0.3812  1.6126  2.2189
   49GLOH   H08 8857   4.161   1.431   1.165  0.1611  0.0618  0.3283
   49GLOH    C2 8858   4.034   1.505   1.342  0.1165  0.4881 -0.1536
   49GLOH   H04 8859   4.074   1.430   1.410 -0.6714  1.5575  1.5252
   49GLOH    O2 8860   4.106   1.629   1.343  0.2754  0.1561 -0.4927
   49GLOH   H05 8861   4.061   1.683   1.410 -1.1671  1.0355 -2.1314
   49GLOH    C3 8862   3.887   1.509   1.370  0.1116 -0.4719 -0.3071
   49GLOH   H06 8863   3.844   1.409   1.373 -0.2984 -0.2602  0.9614
   49GLOH   H07 8864   3.845   1.561   1.283  1.1957 -1.1828 -1.2762
   49GLOH    O3 8865   3.855   1.577   1.496 -0.4264 -0.3633  0.3724
   49GLOH   H01 8866   3.848   1.515   1.571  0.2452 -1.4927 -0.4890
   50GLOH   H03 8867   4.513   0.489   0.896 -1.2995  1.8942 -1.7875
   50GLOH    O1 8868   4.565   0.468   0.816  0.1456 -0.4202 -0.2982
   50GLOH    C1 8869   4.496   0.534   0.710  0.1735 -0.9988  0.2075
   50GLOH   H02 8870   4.440   0.619   0.748  3.0076  1.9374 -1.9127
   50GLOH   H08 8871   4.431   0.460   0.664 -1.2293  0.4536 -0.1958
   50GLOH    C2 8872   4.570   0.598   0.595  0.2387  0.3634  0.3379
   50GLOH   H04 8873   4.627   0.510   0.561 -2.0361 -1.5273  1.3373
   50GLOH    O2 8874   4.489   0.655   0.491  0.1032  0.3653  0.5998
   50GLOH   H05 8875   4.449   0.583   0.439  0.5857  2.2392 -2.4468
   50GLOH    C3 8876   4.669   0.699   0.655  0.1819  0.3935  0.1717
   50GLOH   H06 8877   4.610   0.784   0.689  0.5176  0.5057  0.4833
   50GLOH   H07 8878   4.737   0.737   0.579 -0.6277  1.5213  0.0064
   50GLOH    O3 8879   4.753   0.642   0.758  0.0905 -0.0440  0.5559
   50GLOH   H01 8880   4.707   0.563   0.793 -1.1428  0.2131 -0.4453
   51GLOH   H03 8881   3.278   1.171   0.108  0.1185 -0.8781  0.3473
   51GLOH    O1 8882   3.287   1.211   0.019  0.2512  0.0437  0.7705
   51GLOH    C1 8883   3.222   1.136  -0.082 -0.0832  0.9467  0.8371
   51GLOH   H02 8884   3.115   1.156  -0.088 -0.0763  1.1698  1.4469
   51GLOH   H08 8885   3.219   1.028  -0.065 -0.1568  0.9191  0.6567
   51GLOH    C2 8886   3.295   1.165  -0.220  0.1575 -0.1915 -0.1234
   51GLOH   H04 8887   3.405   1.160  -0.213 -0.0560 -1.1634  2.9397
   51GLOH    O2 8888   3.253   1.089  -0.337 -0.0906  0.3395  0.2070
   51GLOH   H05 8889   3.327   1.081  -0.400  1.2660  0.3953  1.7555
   51GLOH    C3 8890   3.271   1.321  -0.252 -0.6162  0.2771 -0.0667
   51GLOH   H06 8891   3.162   1.326  -0.264 -0.5653  0.6735 -0.3824
   51GLOH   H07 8892   3.304   1.346  -0.353  1.2824 -0.0702  0.4485
   51GLOH    O3 8893   3.316   1.401  -0.141 -0.2877  0.3245 -0.0773
   51GLOH   H01 8894   3.323   1.338  -0.067 -1.3689 -0.5154 -0.6650
   52GLOH   H03 8895   2.616   1.062   2.612  3.5112 -3.1642  0.5418
   52GLOH    O1 8896   2.581   0.991   2.555  0.2955 -0.9406 -0.3959
   52GLOH    C1 8897   2.457   0.957   2.620 -0.0339 -0.5330  0.7474
   52GLOH   H02 8898   2.377   0.968   2.546 -0.6849 -0.7791  1.4028
   52GLOH   H08 8899   2.428   1.021   2.704  3.7598 -0.2136  1.8861
   52GLOH    C2 8900   2.444   0.810   2.668  0.2273 -0.1449  0.3466
   52GLOH   H04 8901   2.501   0.799   2.761  0.6786  0.0732  0.0969
   52GLOH    O2 8902   2.307   0.784   2.711 -0.5457  0.0575 -0.0123
   52GLOH   H05 8903   2.264   0.871   2.722  2.0386  1.3868 -0.0172
   52GLOH    C3 8904   2.497   0.703   2.568 -0.2497 -0.2423 -0.7192
   52GLOH   H06 8905   2.604   0.724   2.563 -0.6782  2.1509 -0.6581
   52GLOH   H07 8906   2.445   0.717   2.474 -2.0856  2.4407  0.6414
   52GLOH    O3 8907   2.478   0.571   2.624 -0.1661 -0.3983 -0.6548
   52GLOH   H01 8908   2.387   0.536   2.619 -0.2241 -0.2178 -0.8794
   53GLOH   H03 8909   3.045   0.485   1.541 -1.2053  0.0176 -1.8595
   53GLOH    O1 8910   3.115   0.451   1.482 -0.0240 -0.7462 -0.0882
   53GLOH    C1 8911   3.094   0.305   1.488  0.5400 -0.0729  1.0780
   53GLOH   H02 8912   2.992   0.285   1.523  0.9419 -2.2266  1.1009
   53GLOH   H08 8913   3.151   0.262   1.571 -1.9681 -3.0897  1.3617
   53GLOH    C2 8914   3.137   0.239   1.357  0.0600 -0.0681 -0.2029
   53GLOH   H04 8915   3.241   0.270   1.339  0.5950 -1.3881  0.5708
   53GLOH    O2 8916   3.128   0.095   1.356 -0.3565  0.8943 -0.2387
   53GLOH   H05 8917   3.136   0.068   1.263 -1.8139  1.6074 -0.5965
   53GLOH    C3 8918   3.050   0.287   1.238  0.4449 -0.0277  0.6666
   53GLOH   H06 8919   3.045   0.395   1.252  0.9560 -0.1389  1.7822
   53GLOH   H07 8920   2.953   0.240   1.257 -0.7758  0.8186 -3.1714
   53GLOH    O3 8921   3.105   0.252   1.111  0.5133  0.5596 -0.5137
   53GLOH   H01 8922   3.035   0.233   1.045 -1.1781 -1.4742  1.7598
   54GLOH   H03 8923   3.381   9.748   0.980 -1.1025  0.7342 -0.0008
   54GLOH    O1 8924   3.442   9.787   0.916 -0.0678 -0.5218  0.1929
   54GLOH    C1 8925   3.579   9.771   0.958 -0.0546 -0.4791 -1.2486
   54GLOH   H02 8926   3.621   9.671   0.949  0.1475 -0.4889 -0.2417
   54GLOH   H08 8927   3.594   9.812   1.058  1.2611 -1.3765 -1.0680
   54GLOH    C2 8928   3.665   9.857   0.864 -0.3907 -1.0271 -0.8752
   54GLOH   H04 8929   3.633   9.961   0.882  0.9326 -0.6461 -0.6940
   54GLOH    O2 8930   3.802   9.828   0.887  0.0321 -0.2817  0.5755
   54GLOH   H05 8931   3.838   9.898   0.944  1.4702 -0.3313 -0.2206
   54GLOH    C3 8932   3.639   9.815   0.720 -0.0550  0.2185  0.2205
   54GLOH   H06 8933   3.665   9.709   0.719 -2.4908 -0.3864 -0.9816
   54GLOH   H07 8934   3.710   9.863   0.653 -0.5202  0.6541  0.0347
   54GLOH    O3 8935   3.505   9.847   0.680  0.7730  0.2236 -0.6128
   54GLOH   H01 8936   3.445   9.823   0.753 -0.6189  0.1338 -1.7574
   55GLOH   H03 8937   4.453   1.406   1.278  2.6892  2.4194 -1.7409
   55GLOH    O1 8938   4.481   1.433   1.367 -0.1605  0.2480 -0.1093
   55GLOH    C1 8939   4.364   1.496   1.426  0.5235  0.6925 -0.1508
   55GLOH   H02 8940   4.269   1.451   1.401  0.0407  0.3376  2.2241
   55GLOH   H08 8941   4.356   1.602   1.400  0.8734  0.5015 -1.0650
   55GLOH    C2 8942   4.379   1.485   1.582 -0.3196 -0.2849 -0.1471
   55GLOH   H04 8943   4.466   1.535   1.628  0.7294 -1.9838 -0.2269
   55GLOH    O2 8944   4.266   1.554   1.644  0.0490  0.1242  0.3209
   55GLOH   H05 8945   4.188   1.497   1.635  0.7177 -1.1563  2.3027
   55GLOH    C3 8946   4.387   1.333   1.611  0.1641 -0.2806  0.1782
   55GLOH   H06 8947   4.302   1.270   1.581  0.2515 -0.2420 -0.1603
   55GLOH   H07 8948   4.394   1.312   1.717  0.7873 -1.5678 -0.1079
   55GLOH    O3 8949   4.512   1.290   1.551  0.0167 -0.2437 -0.4919
   55GLOH   H01 8950   4.515   1.343   1.469 -0.5132 -1.1848 -1.1303
   56GLOH   H03 8951   3.173   1.313   1.032  0.5732  1.7934  0.4852
   56GLOH    O1 8952   3.082   1.345   1.046 -0.2685 -0.2320 -0.1813
   56GLOH    C1 8953   3.014   1.331   0.920 -0.3909  0.0735 -0.4802
   56GLOH   H02 8954   3.033   1.421   0.862 -1.3950  1.6758  1.6293
   56GLOH   H08 8955   2.908   1.323   0.940 -0.9874  3.1198 -2.1085
   56GLOH    C2 8956   3.063   1.211   0.836 -0.0471 -0.0729  0.0932
   56GLOH   H04 8957   3.173   1.207   0.837 -0.0181  0.8580  1.9038
   56GLOH    O2 8958   2.998   1.087   0.877  0.4358 -0.1522 -0.3783
   56GLOH   H05 8959   2.980   1.026   0.804  0.5066 -0.6492  0.0075
   56GLOH    C3 8960   3.029   1.237   0.688 -0.3176  0.0684 -0.0498
   56GLOH   H06 8961   2.936   1.295   0.690 -0.9327 -0.8800 -0.7423
   56GLOH   H07 8962   3.016   1.149   0.626  0.1239  0.7193 -1.0798
   56GLOH    O3 8963   3.125   1.330   0.638 -0.1985  0.5518 -0.0491
   56GLOH   H01 8964   3.107   1.418   0.678  2.1222  0.4814  1.1992
   57GLOH   H03 8965   3.419   0.986   1.358 -4.0220  0.9586  2.8932
   57GLOH    O1 8966   3.446   0.911   1.415 -0.6875 -0.3201 -0.1526
   57GLOH    C1 8967   3.321   0.858   1.461 -0.2584 -0.2667 -0.2171
   57GLOH   H02 8968   3.255   0.938   1.494 -1.6317 -1.9660  1.2750
   57GLOH   H08 8969   3.342   0.804   1.553 -0.8150 -0.9224 -0.4686
   57GLOH    C2 8970   3.246   0.761   1.360  0.3615  0.6500 -0.4128
   57GLOH   H04 8971   3.169   0.711   1.420  0.7241  1.8526  1.1158
   57GLOH    O2 8972   3.173   0.830   1.255 -0.3730  0.1974  0.0534
   57GLOH   H05 8973   3.089   0.863   1.292 -0.6910 -2.7064  2.0889
   57GLOH    C3 8974   3.343   0.652   1.311  0.4652  0.2292  0.7626
   57GLOH   H06 8975   3.442   0.694   1.325  0.5560  0.1533  0.3390
   57GLOH   H07 8976   3.331   0.641   1.204  0.3517 -0.7792  0.8751
   57GLOH    O3 8977   3.329   0.517   1.361  0.1496  0.1957  0.3903
   57GLOH   H01 8978   3.244   0.509   1.409 -0.1636 -1.2956 -0.3964
   58GLOH   H03 8979   3.392   0.234   1.515 -0.8590  0.6093 -1.2768
   58GLOH    O1 8980   3.398   0.319   1.563  0.1734 -0.1423 -0.0231
   58GLOH    C1 8981   3.532   0.319   1.606  0.3111  0.9597 -0.0276
   58GLOH   H02 8982   3.567   0.224   1.647 -1.4643 -0.1878 -1.1007
   58GLOH   H08 8983   3.538   0.389   1.690 -1.0019 -0.2361  1.0842
   58GLOH    C2 8984   3.623   0.379   1.496  0.0463  0.4030 -0.0051
   58GLOH   H04 8985   3.605   0.301   1.421  1.1115 -1.1349  1.2885
   58GLOH    O2 8986   3.579   0.508   1.454  0.7936  0.2985 -0.5090
   58GLOH   H05 8987   3.486   0.497   1.426  1.2195 -3.6647 -0.7083
   58GLOH    C3 8988   3.767   0.382   1.553 -0.2515 -0.4534 -0.2319
   58GLOH   H06 8989   3.773   0.466   1.621 -0.6874 -0.7800  0.2121
   58GLOH   H07 8990   3.829   0.405   1.466 -0.9574  1.9487 -0.1450
   58GLOH    O3 8991   3.824   0.270   1.618 -0.2718 -0.2859  0.4505
   58GLOH   H01 8992   3.850   0.289   1.710  1.0090  0.3043 -0.0123
   59GLOH   H03 8993   4.079   1.476   0.707 -0.6742 -0.9453  0.3518
   59GLOH    O1 8994   4.161   1.446   0.664 -0.6190 -0.3931  0.0697
   59GLOH    C1 8995   4.141   1.386   0.534  0.1347 -0.1794 -0.2913
   59GLOH   H02 8996   4.175   1.456   0.458 -0.0243 -0.0506 -0.2430
   59GLOH   H08 8997   4.034   1.373   0.514 -0.6316  3.1939  1.3879
   59GLOH    C2 8998   4.224   1.255   0.526 -0.4514 -0.4965 -0.5223
   59GLOH   H04 8999   4.332   1.276   0.539 -0.4137 -1.8205  1.4585
   59GLOH    O2 9000   4.187   1.163   0.631  0.4976 -0.1418 -0.5756
   59GLOH   H05 9001   4.270   1.135   0.673  0.1164  0.4777  0.6076
   59GLOH    C3 9002   4.197   1.196   0.384  0.1903 -0.5142 -0.0927
   59GLOH   H06 9003   4.099   1.151   0.391  0.0893 -0.4524 -1.1517
   59GLOH   H07 9004   4.275   1.122   0.364  1.3868  0.3699  1.1477
   59GLOH    O3 9005   4.198   1.291   0.272  0.0303 -0.1019  0.6607
   59GLOH   H01 9006   4.225   1.247   0.190 -0.9541  2.1769 -0.9427
   60GLOH   H03 9007   3.546   0.785   1.824 -0.1483 -0.9455  0.8994
   60GLOH    O1 9008   3.452   0.773   1.802 -0.0002 -0.2597 -0.2103
   60GLOH    C1 9009   3.409   0.637   1.828 -0.1849  0.5119  0.0191
   60GLOH   H02 9010   3.359   0.640   1.926 -1.7814 -0.6723 -0.7295
   60GLOH   H08 9011   3.486   0.561   1.835  0.1297  0.9471  1.8293
   60GLOH    C2 9012   3.314   0.597   1.715  1.2048  0.0286 -0.7760
   60GLOH   H04 9013   3.366   0.608   1.619 -1.1931 -2.1347 -2.3703
   60GLOH    O2 9014   3.281   0.455   1.730 -0.0146 -0.0255  0.4941
   60GLOH   H05 9015   3.327   0.407   1.660 -3.2257  0.0808 -1.8103
   60GLOH    C3 9016   3.179   0.674   1.715  0.1799 -0.1258  0.4350
   60GLOH   H06 9017   3.115   0.631   1.791  0.7400  0.6529  1.3671
   60GLOH   H07 9018   3.131   0.667   1.617 -2.0666  0.6120  1.4434
   60GLOH    O3 9019   3.190   0.813   1.750 -0.0278 -0.0340  0.9171
   60GLOH   H01 9020   3.283   0.836   1.728 -0.5853  1.4487  0.0017
   61GLOH   H03 9021   3.326   0.615   0.374 -0.2649 -1.7769  0.2987
   61GLOH    O1 9022   3.232   0.619   0.349 -0.3755 -0.0714  0.9005
   61GLOH    C1 9023   3.193   0.488   0.315  0.3553  0.9020  0.8709
   61GLOH   H02 9024   3.109   0.506   0.248  0.7007 -0.5753  0.0215
   61GLOH   H08 9025   3.165   0.430   0.404 -1.4582  2.9505  1.6844
   61GLOH    C2 9026   3.297   0.420   0.231 -0.0755  0.4624 -0.0126
   61GLOH   H04 9027   3.392   0.422   0.288 -0.3953  2.0700  0.4680
   61GLOH    O2 9028   3.253   0.285   0.211 -0.4125  0.5734 -0.1556
   61GLOH   H05 9029   3.328   0.224   0.225  0.1260  0.6540 -2.4939
   61GLOH    C3 9030   3.323   0.497   0.098  0.0740 -0.3852  0.1080
   61GLOH   H06 9031   3.345   0.603   0.114  2.5881 -0.9641  0.7766
   61GLOH   H07 9032   3.239   0.499   0.029 -0.1042  1.8960  0.3405
   61GLOH    O3 9033   3.445   0.442   0.036  0.5864  0.2472  0.1714
   61GLOH   H01 9034   3.528   0.485   0.062  0.3161  1.8141 -1.4486
   62GLOH   H03 9035   4.225   0.036   1.301  0.7587 -0.6990  0.0366
   62GLOH    O1 9036   4.219   0.111   1.238  0.3285 -0.6606  0.1167
   62GLOH    C1 9037   4.275   0.222   1.314 -0.3961 -0.0429 -0.1534
   62GLOH   H02 9038   4.371   0.195   1.358 -1.4364 -0.4933  1.8880
   62GLOH   H08 9039   4.208   0.257   1.392  1.4007 -0.9230  1.8298
   62GLOH    C2 9040   4.291   0.347   1.225  0.1321 -0.2405  0.0043
   62GLOH   H04 9041   4.193   0.368   1.181  0.8677  2.0488 -0.5938
   62GLOH    O2 9042   4.324   0.451   1.326 -0.3017  0.4784  0.0492
   62GLOH   H05 9043   4.374   0.521   1.281  0.9264  0.6078  1.5732
   62GLOH    C3 9044   4.393   0.340   1.114 -0.5071 -0.4795 -0.3621
   62GLOH   H06 9045   4.380   0.250   1.054  0.1601  1.0697 -2.9464
   62GLOH   H07 9046   4.486   0.334   1.169 -1.7075  1.5429  1.9990
   62GLOH    O3 9047   4.399   0.456   1.029  0.1577  0.0412 -0.6548
   62GLOH   H01 9048   4.424   0.535   1.080 -0.4297 -0.8630  1.1024
   63GLOH   H03 9049   3.915   1.310   0.858 -1.5174  0.1599  0.2698
   63GLOH    O1 9050   3.905   1.326   0.953 -0.1645  0.6827  0.3412
   63GLOH    C1 9051   3.840   1.455   0.958 -1.0134  0.3332 -0.0648
   63GLOH   H02 9052   3.807   1.474   1.060 -0.4667 -0.6602  0.3121
   63GLOH   H08 9053   3.750   1.444   0.897 -1.1364 -1.1672  0.3589
   63GLOH    C2 9054   3.935   1.563   0.899 -0.1185  0.1240 -0.0158
   63GLOH   H04 9055   4.037   1.550   0.939  0.7087  2.6176 -1.2518
   63GLOH    O2 9056   3.945   1.549   0.756  0.1490  0.0826 -0.0659
   63GLOH   H05 9057   3.858   1.560   0.713  0.1317 -1.4433 -0.4566
   63GLOH    C3 9058   3.882   1.696   0.941 -0.2282 -0.9979 -0.4988
   63GLOH   H06 9059   3.777   1.703   0.913 -0.9419 -2.2079  1.7207
   63GLOH   H07 9060   3.922   1.771   0.873 -1.4982  1.1309  1.0218
   63GLOH    O3 9061   3.900   1.735   1.080 -0.2562  0.4899 -0.0685
   63GLOH   H01 9062   3.913   1.831   1.078  4.2352 -0.0445 -0.3108
   64GLOH   H03 9063   3.772   0.790   0.320  0.4531 -1.6839  1.4389
   64GLOH    O1 9064   3.708   0.719   0.300 -0.1225 -0.5001 -1.1137
   64GLOH    C1 9065   3.578   0.782   0.276  0.0481 -0.1882 -0.1367
   64GLOH   H02 9066   3.511   0.714   0.223  1.0664 -0.0205 -1.6615
   64GLOH   H08 9067   3.596   0.868   0.212  0.4792 -0.8428 -0.8978
   64GLOH    C2 9068   3.514   0.819   0.414  0.2378 -0.5026 -1.3227
   64GLOH   H04 9069   3.582   0.894   0.456 -0.6777  0.0218 -0.7706
   64GLOH    O2 9070   3.373   0.870   0.414  0.0085  0.4564 -0.7035
   64GLOH   H05 9071   3.354   0.886   0.508 -0.2866  1.3084 -0.9029
   64GLOH    C3 9072   3.524   0.693   0.501  0.3199 -0.7894 -0.1960
   64GLOH   H06 9073   3.462   0.699   0.590  1.7692  0.8073  0.7545
   64GLOH   H07 9074   3.626   0.684   0.538  0.8816  0.7740 -1.3200
   64GLOH    O3 9075   3.485   0.563   0.441  0.3806 -0.2044  0.2237
   64GLOH   H01 9076   3.559   0.513   0.402 -1.4465 -2.2720 -0.6917
   65GLOH   H03 9077   3.235   9.714   0.766 -1.3148  0.5358 -1.7306
   65GLOH    O1 9078   3.287   9.670   0.696  0.2600 -0.4676  0.0398
   65GLOH    C1 9079   3.313   9.530   0.721  0.1710  0.1298 -0.3909
   65GLOH   H02 9080   3.223   9.474   0.697 -1.8233  2.7478  0.7124
   65GLOH   H08 9081   3.324   9.501   0.825  3.8003  0.8257 -0.5370
   65GLOH    C2 9082   3.437   9.478   0.649  0.1272 -0.4047 -0.0137
   65GLOH   H04 9083   3.522   9.536   0.687 -1.0858  1.5407 -0.1981
   65GLOH    O2 9084   3.460   9.345   0.701 -0.1446 -0.0706  0.0480
   65GLOH   H05 9085   3.523   9.366   0.772 -0.0303  3.3126 -0.9585
   65GLOH    C3 9086   3.412   9.483   0.501 -0.2722  0.6891  0.1676
   65GLOH   H06 9087   3.322   9.426   0.477  0.3732 -0.3576  0.2022
   65GLOH   H07 9088   3.498   9.431   0.459  0.9811  1.3198  1.9185
   65GLOH    O3 9089   3.418   9.627   0.468 -0.1600  0.0353 -0.3960
   65GLOH   H01 9090   3.376   9.672   0.543  0.2506 -0.7453  0.3160
   66GLOH   H03 9091   4.175   9.355   0.627 -0.7607 -0.0223 -0.3550
   66GLOH    O1 9092   4.146   9.367   0.719 -0.3203 -0.1135 -0.2010
   66GLOH    C1 9093   4.017   9.431   0.715  0.2692  0.8526 -0.2265
   66GLOH   H02 9094   3.936   9.363   0.687  0.4549 -0.4233  2.1871
   66GLOH   H08 9095   4.013   9.509   0.639  0.9932  0.3805 -0.7525
   66GLOH    C2 9096   3.970   9.488   0.857 -0.6848 -0.0230  0.1151
   66GLOH   H04 9097   4.047   9.554   0.901 -0.6692 -0.4854  0.7892
   66GLOH    O2 9098   3.846   9.557   0.854  1.1755  0.0461  0.2157
   66GLOH   H05 9099   3.863   9.653   0.859 -1.2080  0.5150 -0.0306
   66GLOH    C3 9100   3.973   9.369   0.956  0.1792 -0.7830  0.2565
   66GLOH   H06 9101   3.900   9.295   0.923 -0.4764 -0.3386  0.6997
   66GLOH   H07 9102   3.948   9.407   1.055 -0.2009  1.7850 -0.7718
   66GLOH    O3 9103   4.104   9.324   0.963  0.0176  0.6084  0.3408
   66GLOH   H01 9104   4.141   9.334   0.873 -1.6800 -2.1507 -0.7398
   67GLOH   H03 9105   4.056   1.892   2.090 -0.0610  0.7721 -0.0624
   67GLOH    O1 9106   4.085   1.901   1.997  0.4068 -0.1522 -0.0066
   67GLOH    C1 9107   4.002   2.007   1.941  0.2317  0.1308  0.2806
   67GLOH   H02 9108   4.066   2.093   1.920 -0.6269  0.8834  0.7308
   67GLOH   H08 9109   3.925   2.032   2.013  0.0607 -2.3754  1.0098
   67GLOH    C2 9110   3.934   1.970   1.807  1.1824 -0.0746  0.6239
   67GLOH   H04 9111   4.005   1.977   1.724 -0.1278  0.1692 -0.5021
   67GLOH    O2 9112   3.879   1.839   1.796 -0.1096 -0.3113 -0.0652
   67GLOH   H05 9113   3.783   1.838   1.782 -0.2763 -1.8000  1.0757
   67GLOH    C3 9114   3.825   2.078   1.772  0.7893 -0.4822  0.2356
   67GLOH   H06 9115   3.757   2.093   1.856  1.1289 -3.5221  1.1400
   67GLOH   H07 9116   3.771   2.025   1.693 -0.4380  1.4235 -0.2322
   67GLOH    O3 9117   3.874   2.204   1.728  0.6377  0.2128  0.2837
   67GLOH   H01 9118   3.968   2.201   1.703  0.6004 -0.8848  0.2458
   68GLOH   H03 9119   2.875   1.795   1.584 -0.6992 -1.0038 -1.1765
   68GLOH    O1 9120   2.923   1.714   1.609 -0.1309 -0.3751 -0.2196
   68GLOH    C1 9121   2.825   1.616   1.649  0.0628  0.1392 -1.3611
   68GLOH   H02 9122   2.791   1.563   1.560 -0.1525 -1.0349 -0.5814
   68GLOH   H08 9123   2.740   1.663   1.698 -0.1969 -0.4499 -1.2446
   68GLOH    C2 9124   2.887   1.501   1.722  0.5438  0.8324  0.0251
   68GLOH   H04 9125   2.947   1.542   1.805  2.2394 -0.1949 -0.6508
   68GLOH    O2 9126   2.789   1.409   1.777  0.1901 -0.5143 -0.0875
   68GLOH   H05 9127   2.829   1.353   1.846  1.8811  0.7783  0.0132
   68GLOH    C3 9128   2.978   1.428   1.620  0.3417 -0.2533  0.1785
   68GLOH   H06 9129   2.921   1.376   1.543  0.6447  0.9382 -0.8510
   68GLOH   H07 9130   3.023   1.341   1.669 -0.3056 -1.0552 -0.6244
   68GLOH    O3 9131   3.075   1.507   1.553 -0.5352  0.0738  0.7616
   68GLOH   H01 9132   3.044   1.600   1.552  3.4241  1.4732 -0.2906
   69GLOH   H03 9133   4.348   1.725   2.127 -1.0882 -1.0490  0.0701
   69GLOH    O1 9134   4.346   1.756   2.219 -0.1721 -0.4171 -0.1111
   69GLOH    C1 9135   4.391   1.890   2.227 -0.3577 -0.0930  0.1470
   69GLOH   H02 9136   4.336   1.962   2.167 -0.3051 -1.6978 -1.8878
   69GLOH   H08 9137   4.489   1.896   2.181 -0.7194 -0.0976 -0.6360
   69GLOH    C2 9138   4.391   1.948   2.373 -0.2662 -0.2623 -0.1027
   69GLOH   H04 9139   4.450   2.041   2.365 -1.3690  0.3838 -0.7183
   69GLOH    O2 9140   4.259   1.996   2.410 -0.4452 -0.6769 -0.3088
   69GLOH   H05 9141   4.229   1.947   2.488  1.3175 -1.8797 -0.3483
   69GLOH    C3 9142   4.452   1.850   2.478  0.0559  0.5493  0.2530
   69GLOH   H06 9143   4.424   1.886   2.577 -2.4328 -1.2321  0.2629
   69GLOH   H07 9144   4.559   1.845   2.459 -0.0694 -1.5598 -0.0556
   69GLOH    O3 9145   4.393   1.718   2.469 -0.2116  0.3341 -0.7678
   69GLOH   H01 9146   4.380   1.707   2.373  2.6808  2.4448 -1.4668
   70GLOH   H03 9147   3.280   9.786   2.542 -0.5380  1.9874 -2.2285
   70GLOH    O1 9148   3.263   9.721   2.471  0.5501 -0.2500 -0.5272
   70GLOH    C1 9149   3.288   9.583   2.514  0.2907  0.9630 -0.0637
   70GLOH   H02 9150   3.249   9.504   2.450 -0.4542 -0.5264  2.1832
   70GLOH   H08 9151   3.246   9.580   2.614 -0.5193 -0.5216 -0.4301
   70GLOH    C2 9152   3.437   9.560   2.509 -0.1946  0.1673  0.3464
   70GLOH   H04 9153   3.479   9.586   2.411 -1.5095  0.0092 -0.2795
   70GLOH    O2 9154   3.504   9.630   2.616 -0.3855  0.0187 -0.1482
   70GLOH   H05 9155   3.485   9.576   2.694  3.1335 -1.4545 -0.2051
   70GLOH    C3 9156   3.458   9.409   2.523  0.4122  0.5389  0.3045
   70GLOH   H06 9157   3.425   9.375   2.622 -0.3823 -0.9871 -0.4675
   70GLOH   H07 9158   3.563   9.380   2.528  0.4037  0.7664  2.3165
   70GLOH    O3 9159   3.392   9.334   2.423 -0.4814 -0.1532 -0.3765
   70GLOH   H01 9160   3.377   9.244   2.455  0.7655 -0.4836 -0.7005
   71GLOH   H03 9161   3.973   1.223   2.301  3.4182  1.4086 -1.3197
   71GLOH    O1 9162   4.012   1.146   2.346 -0.2094  0.2188 -0.0894
   71GLOH    C1 9163   3.959   1.132   2.479 -0.0555  0.2548 -0.4662
   71GLOH   H02 9164   3.965   1.224   2.537  1.6635 -1.0714  1.5776
   71GLOH   H08 9165   4.021   1.065   2.539 -1.0984 -1.5182 -1.3249
   71GLOH    C2 9166   3.808   1.079   2.492  0.0173  0.2662 -0.1914
   71GLOH   H04 9167   3.742   1.122   2.415 -0.4250 -3.1319 -1.7759
   71GLOH    O2 9168   3.802   0.936   2.469  0.0468 -0.4205  0.2242
   71GLOH   H05 9169   3.712   0.907   2.490 -0.1124  0.4914  0.8140
   71GLOH    C3 9170   3.733   1.111   2.619  0.0365 -0.5062 -0.6517
   71GLOH   H06 9171   3.761   1.034   2.690  2.0374  0.6195 -0.1977
   71GLOH   H07 9172   3.624   1.106   2.609 -0.2063 -0.4075  1.6885
   71GLOH    O3 9173   3.763   1.240   2.668 -0.0537 -0.7712 -0.1887
   71GLOH   H01 9174   3.720   1.309   2.614  4.2245  0.9901 -1.5136
   72GLOH   H03 9175   3.021   9.546   1.704 -1.0006 -0.7890 -1.7599
   72GLOH    O1 9176   2.979   9.463   1.733  0.4676 -0.4746  1.3759
   72GLOH    C1 9177   2.968   9.379   1.616  0.3067  0.7570  0.1625
   72GLOH   H02 9178   2.891   9.419   1.549 -0.2276 -1.8817 -0.8793
   72GLOH   H08 9179   2.925   9.287   1.656 -0.1090  1.0388  0.3695
   72GLOH    C2 9180   3.092   9.342   1.541 -0.6386  0.2474 -0.2927
   72GLOH   H04 9181   3.147   9.262   1.593 -1.6564 -0.1872  0.1379
   72GLOH    O2 9182   3.050   9.294   1.411  0.0807 -0.0581 -0.3824
   72GLOH   H05 9183   3.122   9.269   1.352  0.2324  0.4216 -0.4001
   72GLOH    C3 9184   3.187   9.466   1.528  0.1841 -0.0840 -0.0449
   72GLOH   H06 9185   3.129   9.548   1.485  1.0578  0.1510 -0.7914
   72GLOH   H07 9186   3.265   9.435   1.458  0.4410 -1.3155  0.7786
   72GLOH    O3 9187   3.250   9.512   1.644 -0.5882  0.6024 -0.0892
   72GLOH   H01 9188   3.275   9.430   1.691 -0.2573  0.6652 -0.1568
   73GLOH   H03 9189   4.181   2.170   2.395 -0.3923 -1.7009 -2.2811
   73GLOH    O1 9190   4.118   2.241   2.375  0.4635 -0.1981  0.1096
   73GLOH    C1 9191   4.114   2.268   2.230  0.8211 -0.9196  0.2897
   73GLOH   H02 9192   4.091   2.176   2.176 -0.7351 -0.5688  0.3313
   73GLOH   H08 9193   4.205   2.320   2.199  0.1121 -0.4467 -1.0524
   73GLOH    C2 9194   3.998   2.361   2.189 -0.2471  0.5731  0.6382
   73GLOH   H04 9195   4.018   2.456   2.241 -1.3342  1.2571 -0.1620
   73GLOH    O2 9196   3.985   2.380   2.045 -0.1242 -0.3558 -0.6719
   73GLOH   H05 9197   4.061   2.435   2.019 -0.3062  0.4063  0.3411
   73GLOH    C3 9198   3.870   2.310   2.250 -1.2295 -0.0504 -0.3821
   73GLOH   H06 9199   3.857   2.204   2.228 -1.4406 -0.2405  0.6126
   73GLOH   H07 9200   3.787   2.372   2.216 -1.8536 -0.8319 -0.2850
   73GLOH    O3 9201   3.871   2.321   2.396  0.1287 -0.6319 -0.3730
   73GLOH   H01 9202   3.964   2.309   2.421  0.3964  0.5452 -0.7903
   74GLOH   H03 9203   2.592   8.969   0.706 -0.2434 -0.6359 -0.1888
   74GLOH    O1 9204   2.587   9.012   0.618 -0.1644  0.2239  0.2203
   74GLOH    C1 9205   2.632   9.145   0.629  0.0945  0.1543  0.3555
   74GLOH   H02 9206   2.739   9.151   0.651  0.6312 -0.2818 -2.0099
   74GLOH   H08 9207   2.578   9.197   0.708 -1.9338  0.0804 -0.9676
   74GLOH    C2 9208   2.595   9.226   0.502 -0.2101 -0.1394  0.8929
   74GLOH   H04 9209   2.486   9.218   0.492 -0.0153 -0.1709 -1.4799
   74GLOH    O2 9210   2.647   9.362   0.498  0.2272 -0.0810  0.3928
   74GLOH   H05 9211   2.578   9.408   0.448 -0.7750 -1.0837  0.8403
   74GLOH    C3 9212   2.651   9.160   0.377  0.1406  0.3652 -0.2783
   74GLOH   H06 9213   2.759   9.148   0.389  0.0136 -0.4925  0.0897
   74GLOH   H07 9214   2.626   9.216   0.288  1.0127 -0.0527 -0.7970
   74GLOH    O3 9215   2.600   9.025   0.360  0.3756  0.8400  0.2313
   74GLOH   H01 9216   2.593   8.989   0.450 -0.5510 -1.1856 -0.6221
   75GLOH   H03 9217   3.680   0.049   1.801 -0.8625  2.8080 -0.8380
   75GLOH    O1 9218   3.765   0.081   1.837 -0.1149  0.0732 -0.0470
   75GLOH    C1 9219   3.876  -0.014   1.824 -0.5104  0.2756 -0.0611
   75GLOH   H02 9220   3.974   0.032   1.840 -0.5986  0.7613 -0.8897
   75GLOH   H08 9221   3.869  -0.048   1.721 -0.2380  0.4579 -0.1421
   75GLOH    C2 9222   3.874  -0.133   1.919 -0.2179 -0.1229 -0.3612
   75GLOH   H04 9223   3.778  -0.185   1.906 -0.4775  0.1743  0.3903
   75GLOH    O2 9224   3.984  -0.218   1.882  0.3626  0.2423 -0.6351
   75GLOH   H05 9225   4.064  -0.179   1.921 -0.4396  0.0469  1.2832
   75GLOH    C3 9226   3.892  -0.087   2.063  0.3573 -0.9953 -0.8935
   75GLOH   H06 9227   3.886  -0.163   2.141 -1.3692 -0.5829 -0.5984
   75GLOH   H07 9228   3.807  -0.024   2.090  0.4728 -0.3215 -2.0772
   75GLOH    O3 9229   4.013  -0.013   2.091 -0.3810  0.6455 -0.0775
   75GLOH   H01 9230   3.999   0.040   2.172 -2.0254 -1.3693  1.0178
   76GLOH   H03 9231   3.722   2.379   0.092 -3.1406 -3.0573 -1.4639
   76GLOH    O1 9232   3.736   2.326   0.173 -0.1472 -0.0346  0.1166
   76GLOH    C1 9233   3.621   2.348   0.257  0.0807  0.2433 -0.1957
   76GLOH   H02 9234   3.535   2.289   0.224  2.3889 -3.0723 -0.4705
   76GLOH   H08 9235   3.580   2.449   0.247 -0.3368 -0.0445 -1.4765
   76GLOH    C2 9236   3.640   2.307   0.406  0.3236 -0.3575 -0.5223
   76GLOH   H04 9237   3.702   2.390   0.444 -1.5258  0.2228  1.3179
   76GLOH    O2 9238   3.515   2.319   0.480  0.0877 -0.6397 -0.3997
   76GLOH   H05 9239   3.494   2.234   0.522  1.7281  0.7200  3.4520
   76GLOH    C3 9240   3.721   2.180   0.439 -0.0228 -0.7716  0.1193
   76GLOH   H06 9241   3.653   2.097   0.459 -0.2584 -0.6582 -0.2018
   76GLOH   H07 9242   3.774   2.196   0.533 -0.5789 -0.7058  0.4287
   76GLOH    O3 9243   3.809   2.152   0.332 -0.5526 -0.8890  0.1855
   76GLOH   H01 9244   3.796   2.216   0.260 -0.1801  0.1062  0.9957
   77GLOH   H03 9245   4.110   1.443   0.271  0.4920  0.1807 -1.8751
   77GLOH    O1 9246   4.050   1.517   0.253 -0.0606  0.2169  0.0842
   77GLOH    C1 9247   4.049   1.555   0.114 -0.3731  0.3349  0.7030
   77GLOH   H02 9248   3.998   1.651   0.106 -2.4415 -0.8211 -0.5162
   77GLOH   H08 9249   3.989   1.491   0.049 -1.5332 -0.1136  2.1910
   77GLOH    C2 9250   4.188   1.579   0.045  0.5060  0.7101  0.8550
   77GLOH   H04 9251   4.244   1.484   0.049  1.7844  1.3457 -0.8351
   77GLOH    O2 9252   4.175   1.620  -0.098  0.2574 -0.4833  0.2269
   77GLOH   H05 9253   4.257   1.655  -0.138 -0.6944  2.3355  0.6124
   77GLOH    C3 9254   4.268   1.682   0.128  0.1799 -0.4817 -0.6638
   77GLOH   H06 9255   4.357   1.710   0.071  1.4837 -1.2370  0.9677
   77GLOH   H07 9256   4.304   1.636   0.220  1.2779 -0.2953 -0.9943
   77GLOH    O3 9257   4.201   1.810   0.154  0.0351  0.0296  0.0805
   77GLOH   H01 9258   4.220   1.837   0.246  1.8835 -0.8865 -0.0084
   78GLOH   H03 9259   4.409   1.556   1.985 -2.4666 -0.4339  0.2561
   78GLOH    O1 9260   4.399   1.653   1.989 -0.2125 -0.1429 -0.4672
   78GLOH    C1 9261   4.445   1.721   1.876 -0.1331  0.3843  0.1624
   78GLOH   H02 9262   4.473   1.661   1.788 -0.9085  0.5567 -0.1996
   78GLOH   H08 9263   4.531   1.784   1.899  0.3722  0.1748 -1.0666
   78GLOH    C2 9264   4.337   1.819   1.818 -0.7374  0.2030  0.3553
   78GLOH   H04 9265   4.243   1.763   1.810 -1.2201  0.8710  1.2008
   78GLOH    O2 9266   4.331   1.944   1.888  0.3501 -0.2882  0.1293
   78GLOH   H05 9267   4.247   1.940   1.937 -0.2063 -0.7856 -0.8571
   78GLOH    C3 9268   4.361   1.855   1.670 -0.2262  0.7365  0.4539
   78GLOH   H06 9269   4.374   1.767   1.606 -0.5859  1.7946 -1.0973
   78GLOH   H07 9270   4.457   1.904   1.657  0.1843  0.3105  1.8456
   78GLOH    O3 9271   4.244   1.928   1.612  0.2244 -0.1152  0.3128
   78GLOH   H01 9272   4.160   1.880   1.599 -0.1848  1.1995 -2.0581
   79GLOH   H03 9273   3.736   9.455   1.773  0.1225  0.3416 -1.2053
   79GLOH    O1 9274   3.684   9.535   1.794 -0.1563  0.0222 -0.6725
   79GLOH    C1 9275   3.674   9.552   1.940  0.1177 -0.0134  0.2254
   79GLOH   H02 9276   3.742   9.629   1.975 -0.6334  1.0159 -0.4999
   79GLOH   H08 9277   3.689   9.461   1.998 -0.1373 -2.8203 -3.8694
   79GLOH    C2 9278   3.533   9.603   1.962  0.2395 -1.0953 -0.6003
   79GLOH   H04 9279   3.459   9.536   1.916  1.1621 -2.4826 -0.0574
   79GLOH    O2 9280   3.511   9.618   2.108 -0.2935 -0.0722  0.3615
   79GLOH   H05 9281   3.506   9.526   2.136 -1.7598 -0.5032 -1.2848
   79GLOH    C3 9282   3.505   9.736   1.896  0.4258  0.6429  0.5866
   79GLOH   H06 9283   3.573   9.814   1.930  1.9534  0.3037 -1.5801
   79GLOH   H07 9284   3.409   9.778   1.925 -0.1147  1.4459 -2.1884
   79GLOH    O3 9285   3.513   9.710   1.752 -0.0365 -0.0053  0.2231
   79GLOH   H01 9286   3.569   9.631   1.756  1.7809  1.2333 -0.2015
   80GLOH   H03 9287   3.591   9.750   2.606  2.1025 -0.2194  0.6366
   80GLOH    O1 9288   3.641   9.827   2.574  0.9294  0.0901 -0.4746
   80GLOH    C1 9289   3.782   9.795   2.596  0.2417  0.2118  0.1458
   80GLOH   H02 9290   3.803   9.771   2.700 -0.0892  1.9180  0.6199
   80GLOH   H08 9291   3.846   9.880   2.572 -1.8083  1.4220 -1.1858
   80GLOH    C2 9292   3.833   9.675   2.506 -0.2158 -0.2429 -0.0305
   80GLOH   H04 9293   3.781   9.587   2.546  0.2498  0.3319  1.8583
   80GLOH    O2 9294   3.823   9.690   2.362 -0.1864 -0.0645 -0.5973
   80GLOH   H05 9295   3.750   9.749   2.336 -0.3873  1.3139  2.7371
   80GLOH    C3 9296   3.985   9.660   2.540 -0.3388 -0.2039  0.3209
   80GLOH   H06 9297   4.045   9.750   2.526  2.1363 -1.6578  1.1297
   80GLOH   H07 9298   4.025   9.597   2.461 -0.3396 -0.0875  0.2287
   80GLOH    O3 9299   4.001   9.611   2.675  0.0522  0.3875  0.2151
   80GLOH   H01 9300   3.939   9.542   2.705 -0.3065  0.4560 -0.3730
   81GLOH   H03 9301   3.553   1.502   1.549 -1.3456 -1.5472  0.0856
   81GLOH    O1 9302   3.575   1.473   1.639  0.0616 -0.8671 -0.0214
   81GLOH    C1 9303   3.470   1.506   1.739 -0.1442  0.0374 -0.0538
   81GLOH   H02 9304   3.477   1.447   1.830  0.4175 -1.3345 -0.9668
   81GLOH   H08 9305   3.373   1.481   1.696 -0.8632  3.5152 -0.5735
   81GLOH    C2 9306   3.465   1.654   1.775  0.0819  0.3660 -0.1386
   81GLOH   H04 9307   3.439   1.714   1.686 -0.4921 -1.4373 -1.2270
   81GLOH    O2 9308   3.363   1.688   1.876  0.1481  0.3839 -0.4681
   81GLOH   H05 9309   3.285   1.728   1.833 -0.2824 -1.6500 -1.6313
   81GLOH    C3 9310   3.606   1.700   1.821  0.0657 -0.1256 -0.0062
   81GLOH   H06 9311   3.680   1.674   1.745  0.2346 -3.2569  1.1240
   81GLOH   H07 9312   3.632   1.634   1.904  0.9416  0.0542 -0.1343
   81GLOH    O3 9313   3.630   1.838   1.853 -0.2486  0.6305 -0.4423
   81GLOH   H01 9314   3.596   1.849   1.944 -2.1659  0.0769 -1.0645
   82GLOH   H03 9315   3.919   9.002   1.056 -0.9849  1.2442 -1.6084
   82GLOH    O1 9316   3.849   8.936   1.040 -0.0400 -0.2546  0.2083
   82GLOH    C1 9317   3.834   8.854   1.160  0.1104 -0.3518  0.8353
   82GLOH   H02 9318   3.933   8.845   1.204 -0.1206  1.7690  1.8793
   82GLOH   H08 9319   3.788   8.758   1.136  1.8221 -0.9396 -0.1655
   82GLOH    C2 9320   3.742   8.925   1.263 -0.3999  0.2743 -0.1903
   82GLOH   H04 9321   3.785   9.024   1.284  2.5469 -0.6160 -1.6531
   82GLOH    O2 9322   3.609   8.944   1.216 -0.1326  0.0538  0.5547
   82GLOH   H05 9323   3.573   9.022   1.262 -0.7928  0.3943 -0.5234
   82GLOH    C3 9324   3.740   8.845   1.393 -0.3611  0.4244 -0.6277
   82GLOH   H06 9325   3.678   8.756   1.380 -1.2819  0.7396  1.5085
   82GLOH   H07 9326   3.698   8.905   1.474 -1.9414 -0.6259 -0.6408
   82GLOH    O3 9327   3.870   8.808   1.437  0.3937  0.1711 -0.6385
   82GLOH   H01 9328   3.857   8.748   1.512 -2.3482  0.1615 -1.0805
   83GLOH   H03 9329   4.225   1.305   2.128 -1.2675 -1.4808 -2.7451
   83GLOH    O1 9330   4.263   1.229   2.176 -0.0983  0.6690 -0.1383
   83GLOH    C1 9331   4.368   1.270   2.275  0.2107 -0.1428  0.2555
   83GLOH   H02 9332   4.417   1.364   2.248  0.1403 -0.5510 -1.2969
   83GLOH   H08 9333   4.437   1.187   2.285  1.6400  1.3010  2.9759
   83GLOH    C2 9334   4.308   1.297   2.414 -0.2141  0.5915  0.0195
   83GLOH   H04 9335   4.234   1.379   2.406  0.4696  1.3242  1.0991
   83GLOH    O2 9336   4.237   1.185   2.469 -0.1706  0.4351  0.2467
   83GLOH   H05 9337   4.180   1.152   2.397  1.0995 -0.3457 -0.4366
   83GLOH    C3 9338   4.427   1.342   2.500 -0.3873 -0.2019 -0.1368
   83GLOH   H06 9339   4.505   1.266   2.493  0.1468  0.1329  1.7864
   83GLOH   H07 9340   4.407   1.357   2.606  0.8770  0.4262  0.0313
   83GLOH    O3 9341   4.481   1.468   2.454  0.3336 -0.7290  0.7809
   83GLOH   H01 9342   4.417   1.541   2.470 -1.1128 -1.6753 -0.5358
   84GLOH   H03 9343   3.468   2.019   2.000 -4.8754 -0.3486 -0.7778
   84GLOH    O1 9344   3.474   2.115   1.981 -0.5989 -0.3235  0.3960
   84GLOH    C1 9345   3.450   2.143   1.844  0.1031 -0.0162  0.9433
   84GLOH   H02 9346   3.538   2.114   1.786 -1.3917 -1.9097 -0.4673
   84GLOH   H08 9347   3.429   2.250   1.837 -0.9200 -0.2660  0.0489
   84GLOH    C2 9348   3.345   2.044   1.783 -0.3796 -0.0344 -0.7004
   84GLOH   H04 9349   3.398   1.948   1.772 -0.3961 -0.1150 -0.0698
   84GLOH    O2 9350   3.234   2.018   1.871  0.0267 -0.7318 -0.6517
   84GLOH   H05 9351   3.195   1.935   1.840  0.6035 -1.4725  0.5527
   84GLOH    C3 9352   3.295   2.066   1.638 -0.2426 -0.2014 -0.3939
   84GLOH   H06 9353   3.227   2.150   1.648 -0.2239  0.1578 -2.9378
   84GLOH   H07 9354   3.229   1.982   1.617 -0.9402 -0.3743  2.3781
   84GLOH    O3 9355   3.388   2.089   1.535  0.4434  0.1555  0.0681
   84GLOH   H01 9356   3.442   2.009   1.523 -0.8015 -0.4671 -1.4149
   85GLOH   H03 9357   3.572   9.612   0.436 -1.1967  3.6651 -1.3820
   85GLOH    O1 9358   3.664   9.640   0.418  0.1499 -0.1334 -0.7778
   85GLOH    C1 9359   3.655   9.762   0.344 -0.1887  0.5416 -0.4282
   85GLOH   H02 9360   3.613   9.841   0.407  2.0365  1.1174  0.3647
   85GLOH   H08 9361   3.585   9.750   0.261 -0.6461  0.5414 -0.0492
   85GLOH    C2 9362   3.797   9.803   0.298 -0.4874  0.0079 -0.1388
   85GLOH   H04 9363   3.833   9.733   0.221 -0.1610  0.3777 -0.3265
   85GLOH    O2 9364   3.809   9.930   0.236  0.4959 -0.1285  0.1989
   85GLOH   H05 9365   3.901   9.962   0.226 -0.1084  1.3226 -0.9136
   85GLOH    C3 9366   3.903   9.794   0.410  0.0135 -0.1306 -0.0737
   85GLOH   H06 9367   3.888   9.861   0.495  0.4410 -0.2399  0.0881
   85GLOH   H07 9368   3.998   9.816   0.362 -0.9627  2.0047 -1.0729
   85GLOH    O3 9369   3.907   9.658   0.456 -0.2194 -0.4019 -0.3566
   85GLOH   H01 9370   3.815   9.626   0.449 -1.0639  1.5306  1.4297
   86GLOH   H03 9371   3.808   0.803   0.762 -0.6931  0.0554  1.5069
   86GLOH    O1 9372   3.769   0.714   0.750 -0.2849  0.0388  0.2514
   86GLOH    C1 9373   3.811   0.632   0.861 -0.1910 -0.7705  0.6676
   86GLOH   H02 9374   3.908   0.663   0.901 -1.1784 -0.0348  2.5721
   86GLOH   H08 9375   3.821   0.529   0.826 -0.4713  0.6080 -3.7832
   86GLOH    C2 9376   3.706   0.621   0.976 -0.3098 -0.0654 -0.1434
   86GLOH   H04 9377   3.611   0.587   0.931 -0.6673 -0.9366  1.2533
   86GLOH    O2 9378   3.744   0.516   1.067 -0.4769  0.3399  0.0250
   86GLOH   H05 9379   3.723   0.431   1.024 -2.3138  0.0298  1.4608
   86GLOH    C3 9380   3.675   0.757   1.044  0.6859 -0.0723 -0.4563
   86GLOH   H06 9381   3.761   0.801   1.095  1.1742 -1.5830  0.0496
   86GLOH   H07 9382   3.601   0.739   1.121 -0.8031  2.1268 -1.3166
   86GLOH    O3 9383   3.620   0.853   0.951  0.0058  1.0377 -0.1559
   86GLOH   H01 9384   3.691   0.917   0.932  1.2146  0.1423  1.3426
   87GLOH   H03 9385   3.562   0.602   2.123 -0.7721  2.1277 -0.6441
   87GLOH    O1 9386   3.619   0.599   2.045  0.5236 -0.4367  0.3150
   87GLOH    C1 9387   3.696   0.475   2.037 -0.0574  0.0929 -1.0022
   87GLOH   H02 9388   3.675   0.430   1.940  1.0735  0.5461 -1.4608
   87GLOH   H08 9389   3.660   0.394   2.100  1.2163  0.0625 -0.2972
   87GLOH    C2 9390   3.844   0.493   2.056 -0.4492  0.1733 -0.2329
   87GLOH   H04 9391   3.878   0.576   1.993 -0.0155 -1.6060 -2.4222
   87GLOH    O2 9392   3.879   0.533   2.189  0.3716 -0.5746 -0.1246
   87GLOH   H05 9393   3.880   0.630   2.199  0.7177 -0.8774  3.3040
   87GLOH    C3 9394   3.903   0.360   2.004 -0.3256  0.5720  0.5772
   87GLOH   H06 9395   3.898   0.281   2.078  0.0617 -0.2708 -0.2939
   87GLOH   H07 9396   4.010   0.378   2.003 -0.4550  1.5692  2.6808
   87GLOH    O3 9397   3.860   0.313   1.874  0.4888 -0.0933  0.1309
   87GLOH   H01 9398   3.821   0.224   1.887 -0.4624  0.3667  0.5003
   88GLOH   H03 9399   2.698   0.889   2.446  2.2397 -1.5936  1.0940
   88GLOH    O1 9400   2.665   0.837   2.371  0.7969  0.5899  0.1771
   88GLOH    C1 9401   2.712   0.922   2.263 -0.6593  0.5569 -0.4718
   88GLOH   H02 9402   2.743   0.868   2.174  0.1642 -1.8747  1.2521
   88GLOH   H08 9403   2.798   0.980   2.295  0.1869 -1.6903  1.4141
   88GLOH    C2 9404   2.607   1.017   2.216 -0.8919  0.4476 -1.2276
   88GLOH   H04 9405   2.545   0.951   2.153 -0.7602 -1.8320  0.9568
   88GLOH    O2 9406   2.538   1.085   2.322  0.4545  0.0096 -0.0522
   88GLOH   H05 9407   2.560   1.039   2.405 -1.9466  0.7023  1.0027
   88GLOH    C3 9408   2.677   1.124   2.132 -0.0610 -0.8376 -0.4124
   88GLOH   H06 9409   2.752   1.170   2.196 -0.5571 -1.6181  0.7474
   88GLOH   H07 9410   2.612   1.210   2.118 -1.0299 -0.9604  2.8527
   88GLOH    O3 9411   2.732   1.088   2.011  0.1240 -0.3832 -0.0259
   88GLOH   H01 9412   2.683   1.023   1.957 -1.4720  1.0330 -0.3325
   89GLOH   H03 9413   4.332   9.456   1.555  0.4481  0.4380 -0.9208
   89GLOH    O1 9414   4.254   9.408   1.520  0.1585  0.5060 -0.3738
   89GLOH    C1 9415   4.144   9.419   1.608  0.6478  0.5504 -0.3388
   89GLOH   H02 9416   4.148   9.336   1.678  0.1201 -0.1980 -1.1891
   89GLOH   H08 9417   4.055   9.395   1.550 -0.1839  0.5096  0.9489
   89GLOH    C2 9418   4.138   9.559   1.677  0.3394  0.2063  0.0045
   89GLOH   H04 9419   4.127   9.636   1.599 -0.0287  0.5363  0.3812
   89GLOH    O2 9420   4.016   9.572   1.757 -0.3601  0.6220  0.3004
   89GLOH   H05 9421   4.012   9.663   1.791  2.4343  0.6095  0.7315
   89GLOH    C3 9422   4.262   9.582   1.762  0.2692 -0.1315 -0.4496
   89GLOH   H06 9423   4.266   9.505   1.838 -0.7900 -0.3588 -0.6084
   89GLOH   H07 9424   4.252   9.678   1.812  0.0080 -0.2148 -0.3439
   89GLOH    O3 9425   4.383   9.578   1.692  0.0121  0.1795  0.1020
   89GLOH   H01 9426   4.425   9.665   1.709 -0.3801  0.0652  1.7634
   90GLOH   H03 9427   2.804   1.822   0.305  1.1171  1.6156 -1.9509
   90GLOH    O1 9428   2.894   1.788   0.294  0.6960 -0.4676  0.4384
   90GLOH    C1 9429   2.972   1.863   0.197  0.0244 -0.4430  0.3982
   90GLOH   H02 9430   2.937   1.865   0.093  2.2095  0.5552 -0.3546
   90GLOH   H08 9431   3.072   1.819   0.194  0.9627  1.6910 -2.4809
   90GLOH    C2 9432   3.008   2.008   0.227 -0.3855 -0.4963  0.1996
   90GLOH   H04 9433   3.071   2.015   0.316 -0.4221 -0.0938  0.1949
   90GLOH    O2 9434   3.069   2.069   0.114 -0.0077 -0.0037 -0.3853
   90GLOH   H05 9435   3.102   2.157   0.142  2.3610 -0.3249 -1.9749
   90GLOH    C3 9436   2.881   2.087   0.266  0.0968 -0.5977  0.8639
   90GLOH   H06 9437   2.806   2.070   0.189 -1.3108 -1.0273  2.2999
   90GLOH   H07 9438   2.908   2.193   0.268  1.8837 -1.0453  1.6180
   90GLOH    O3 9439   2.803   2.054   0.381  0.0781 -0.2530  0.1746
   90GLOH   H01 9440   2.853   2.103   0.449  0.4425 -0.4041  0.0156
   91GLOH   H03 9441   4.341   1.846   0.447 -0.0379 -1.1737 -1.1660
   91GLOH    O1 9442   4.261   1.843   0.391 -0.4592  0.4877 -0.7089
   91GLOH    C1 9443   4.157   1.757   0.447  0.1722 -0.0335 -0.4982
   91GLOH   H02 9444   4.188   1.662   0.489 -0.6151  0.1748  0.5856
   91GLOH   H08 9445   4.088   1.737   0.365  0.0363 -0.5972 -0.2460
   91GLOH    C2 9446   4.080   1.825   0.556  0.3539 -0.2239 -0.2626
   91GLOH   H04 9447   4.009   1.752   0.598 -0.8655 -0.6260 -2.9027
   91GLOH    O2 9448   4.169   1.881   0.658  0.1106  0.5100 -0.2028
   91GLOH   H05 9449   4.115   1.912   0.732 -0.3542 -0.4564 -0.1252
   91GLOH    C3 9450   3.995   1.940   0.490 -0.1038  0.0751  0.2571
   91GLOH   H06 9451   4.050   1.985   0.407 -0.5880  0.7324  0.2809
   91GLOH   H07 9452   3.993   2.023   0.561  0.7689  0.4820 -0.1852
   91GLOH    O3 9453   3.867   1.908   0.434  0.0384 -0.2365  0.3533
   91GLOH   H01 9454   3.836   1.990   0.392 -1.2396 -1.4897 -1.2378
   92GLOH   H03 9455   3.821   9.409   1.282  3.5429  0.7643  0.2282
   92GLOH    O1 9456   3.846   9.318   1.258 -0.3972 -0.4074  0.2214
   92GLOH    C1 9457   3.981   9.308   1.288  0.1863  0.4778  0.0306
   92GLOH   H02 9458   3.988   9.307   1.397  0.4424  1.0096  0.0195
   92GLOH   H08 9459   4.041   9.393   1.257  0.0628  0.1728 -1.0604
   92GLOH    C2 9460   4.043   9.172   1.244 -0.3393  0.3736  0.4331
   92GLOH   H04 9461   3.991   9.096   1.303  0.3001  0.1616  0.7255
   92GLOH    O2 9462   4.007   9.144   1.109  0.6729 -0.6441  0.3089
   92GLOH   H05 9463   4.033   9.215   1.048  0.1837  0.5377  1.4722
   92GLOH    C3 9464   4.196   9.163   1.265  0.2235  0.7441  0.8709
   92GLOH   H06 9465   4.248   9.244   1.214  0.3967 -0.1894 -0.4804
   92GLOH   H07 9466   4.237   9.070   1.226  0.1472  0.2262  1.9890
   92GLOH    O3 9467   4.223   9.159   1.405  0.3537  0.0375  0.0681
   92GLOH   H01 9468   4.249   9.243   1.447 -0.8640 -0.4926  1.9583
   93GLOH   H03 9469   3.168   9.407   0.992 -0.2466 -0.9409  3.3329
   93GLOH    O1 9470   3.143   9.491   1.034  0.2375  0.8146  0.2857
   93GLOH    C1 9471   3.000   9.506   1.009  0.2266  0.0196  0.3963
   93GLOH   H02 9472   2.956   9.569   1.086  1.9412  2.1648 -0.3164
   93GLOH   H08 9473   2.952   9.409   1.013  1.4601 -0.5451  1.5560
   93GLOH    C2 9474   2.964   9.578   0.873  0.2223  0.6107 -0.0153
   93GLOH   H04 9475   3.019   9.532   0.790 -1.3082 -2.5191  0.6057
   93GLOH    O2 9476   2.828   9.560   0.839 -0.0458  0.2960  0.2169
   93GLOH   H05 9477   2.814   9.553   0.743 -0.9838  0.3560  0.3385
   93GLOH    C3 9478   2.990   9.728   0.894 -0.6113 -0.4279  0.1336
   93GLOH   H06 9479   2.948   9.754   0.991  1.3537  1.1027  0.6085
   93GLOH   H07 9480   2.944   9.789   0.816 -1.1548  0.3404  1.0576
   93GLOH    O3 9481   3.126   9.762   0.877 -0.5361  0.2340  0.0976
   93GLOH   H01 9482   3.118   9.859   0.883 -0.9230  0.3239 -1.6845
   94GLOH   H03 9483   3.425   1.749   2.318  1.8856  0.8226 -0.6716
   94GLOH    O1 9484   3.367   1.826   2.303  0.1552 -0.3244  0.0436
   94GLOH    C1 9485   3.235   1.806   2.365 -0.2510 -0.1842  0.5112
   94GLOH   H02 9486   3.187   1.901   2.386  0.1041 -0.7378  4.1175
   94GLOH   H08 9487   3.258   1.764   2.463  1.6772 -0.9340 -0.2247
   94GLOH    C2 9488   3.145   1.709   2.286  0.1938 -0.4818  0.3157
   94GLOH   H04 9489   3.197   1.612   2.277  1.6473  0.1333  1.7189
   94GLOH    O2 9490   3.028   1.708   2.365 -0.1673  0.2798 -0.6277
   94GLOH   H05 9491   3.047   1.644   2.436 -1.2956 -0.6713 -1.1639
   94GLOH    C3 9492   3.127   1.765   2.145 -0.0753  0.3071  0.2318
   94GLOH   H06 9493   3.228   1.792   2.113  0.6157 -1.7720  0.6088
   94GLOH   H07 9494   3.057   1.849   2.145 -1.2310 -0.6381 -0.9338
   94GLOH    O3 9495   3.076   1.676   2.045 -0.1740 -0.6453 -0.3219
   94GLOH   H01 9496   2.991   1.643   2.080  0.3567  0.3380  1.9727
   95GLOH   H03 9497   2.659   1.964   2.055  1.4707 -0.6807 -1.9690
   95GLOH    O1 9498   2.595   1.891   2.061  0.4858  0.3018  0.3419
   95GLOH    C1 9499   2.610   1.825   2.190  0.6839 -0.2298 -0.2215
   95GLOH   H02 9500   2.536   1.747   2.205  2.3382 -2.3097 -2.6148
   95GLOH   H08 9501   2.601   1.906   2.263  0.2063  0.6149 -1.1920
   95GLOH    C2 9502   2.747   1.752   2.201  0.7175  0.2810  0.1370
   95GLOH   H04 9503   2.828   1.809   2.154  0.1427  0.0114 -1.1965
   95GLOH    O2 9504   2.777   1.713   2.331 -0.3937  0.1049  0.3689
   95GLOH   H05 9505   2.870   1.733   2.350 -0.8400  2.1343  0.5758
   95GLOH    C3 9506   2.746   1.623   2.116  0.4562 -0.0812 -0.1112
   95GLOH   H06 9507   2.730   1.652   2.012 -1.1760  0.0456  0.1552
   95GLOH   H07 9508   2.668   1.555   2.149 -0.4199  1.7766  1.7674
   95GLOH    O3 9509   2.875   1.562   2.099 -0.4237  0.1087  0.1474
   95GLOH   H01 9510   2.896   1.499   2.170 -1.2639  0.5437  0.7983
   96GLOH   H03 9511   2.544   9.851   1.131  0.6868  1.8123 -0.5515
   96GLOH    O1 9512   2.589   9.870   1.215  0.1998  0.0700  0.1378
   96GLOH    C1 9513   2.728   9.823   1.221 -0.2867  0.8990  0.3380
   96GLOH   H02 9514   2.797   9.906   1.236  2.6485 -1.4743  0.4788
   96GLOH   H08 9515   2.766   9.771   1.133  1.0917  1.0201  0.8464
   96GLOH    C2 9516   2.742   9.725   1.340  0.3505 -0.2548 -0.6217
   96GLOH   H04 9517   2.673   9.641   1.324  0.5820 -0.3987 -0.8730
   96GLOH    O2 9518   2.876   9.667   1.347 -0.2119 -0.0193  0.6624
   96GLOH   H05 9519   2.941   9.739   1.351 -1.4842  1.1326  0.8836
   96GLOH    C3 9520   2.704   9.791   1.467  0.0529 -0.0532  0.1747
   96GLOH   H06 9521   2.765   9.881   1.480  0.0847  0.4355 -3.1253
   96GLOH   H07 9522   2.718   9.723   1.551  0.8675 -0.1399 -0.0291
   96GLOH    O3 9523   2.569   9.832   1.476  0.4766  0.2305 -0.1422
   96GLOH   H01 9524   2.536   9.857   1.388 -0.8896  2.0281  0.8393
   97GLOH   H03 9525   2.433   0.855   0.632 -0.3693 -0.2760  0.7450
   97GLOH    O1 9526   2.417   0.950   0.646 -0.1784 -0.1210 -0.0779
   97GLOH    C1 9527   2.417   0.961   0.788 -0.1263  0.0205 -0.1081
   97GLOH   H02 9528   2.502   0.908   0.830  2.1131  2.7599 -1.0608
   97GLOH   H08 9529   2.326   0.917   0.829 -0.1148 -0.2291 -0.3481
   97GLOH    C2 9530   2.438   1.104   0.845 -0.2790  0.3760 -0.5141
   97GLOH   H04 9531   2.370   1.177   0.800 -1.3512  0.4617  1.2047
   97GLOH    O2 9532   2.421   1.103   0.991  0.1981  0.2826  0.1293
   97GLOH   H05 9533   2.399   1.194   1.017 -1.0024 -0.1439  0.6543
   97GLOH    C3 9534   2.590   1.151   0.809  0.2622 -0.2429  0.3744
   97GLOH   H06 9535   2.662   1.077   0.845  1.3382 -0.6697 -2.5772
   97GLOH   H07 9536   2.617   1.238   0.869  0.6822 -1.2300  1.6480
   97GLOH    O3 9537   2.613   1.168   0.669  0.0293 -0.5543  0.0281
   97GLOH   H01 9538   2.650   1.083   0.638  0.1086 -1.5953  2.8146
   98GLOH   H03 9539   3.491   1.390   2.525  0.4784  1.2130  1.7351
   98GLOH    O1 9540   3.585   1.364   2.523  0.0983 -0.1004 -0.5385
   98GLOH    C1 9541   3.643   1.436   2.415 -0.3149 -0.2491  0.1204
   98GLOH   H02 9542   3.614   1.393   2.319  0.1350  1.3412 -0.7625
   98GLOH   H08 9543   3.750   1.412   2.409 -0.3850 -0.9865  1.6627
   98GLOH    C2 9544   3.619   1.589   2.415  0.1044 -0.6957 -0.1760
   98GLOH   H04 9545   3.679   1.635   2.335 -1.8326 -0.9752 -1.8420
   98GLOH    O2 9546   3.478   1.616   2.373 -0.4997  0.5456  0.1121
   98GLOH   H05 9547   3.444   1.564   2.298  1.0321 -0.1633 -0.0964
   98GLOH    C3 9548   3.637   1.643   2.554 -0.0331  0.5679  0.3948
   98GLOH   H06 9549   3.554   1.608   2.616  0.8023 -0.6944  0.8227
   98GLOH   H07 9550   3.629   1.751   2.546 -0.7508  0.6035  1.4043
   98GLOH    O3 9551   3.761   1.614   2.623  0.2434  0.1514  0.3904
   98GLOH   H01 9552   3.746   1.596   2.718  1.0444 -2.1716  0.1008
   99GLOH   H03 9553   4.364   0.888   0.298 -1.0732 -0.9825  1.2583
   99GLOH    O1 9554   4.295   0.894   0.229  0.3616 -0.1876 -0.1489
   99GLOH    C1 9555   4.225   0.766   0.239  0.3586  0.5630  0.0038
   99GLOH   H02 9556   4.246   0.710   0.330  1.2153  0.4878 -0.2368
   99GLOH   H08 9557   4.267   0.710   0.156  3.0196  1.4207  0.7247
   99GLOH    C2 9558   4.076   0.792   0.215  0.6669 -0.6888 -1.1800
   99GLOH   H04 9559   4.063   0.844   0.119  0.5992  1.1032 -0.2176
   99GLOH    O2 9560   4.004   0.663   0.193 -0.4803 -0.1478 -0.1174
   99GLOH   H05 9561   3.978   0.655   0.099 -0.2732  2.0073 -0.3782
   99GLOH    C3 9562   4.011   0.870   0.336  0.1095 -0.8560  0.0472
   99GLOH   H06 9563   4.069   0.955   0.373 -1.8523 -0.3568  2.0692
   99GLOH   H07 9564   4.021   0.801   0.419  0.6640  0.8242  1.4184
   99GLOH    O3 9565   3.877   0.909   0.306 -0.3028 -0.4847 -0.0128
   99GLOH   H01 9566   3.868   0.992   0.255  1.8136 -0.7991 -0.9515
  100GLOH   H03 9567   3.393   9.233   1.709  1.6473  1.1942  2.1056
  100GLOH    O1 9568   3.323   9.287   1.752 -0.7653 -0.4395  0.3247
  100GLOH    C1 9569   3.330   9.264   1.892 -0.1520  0.5247 -0.0653
  100GLOH   H02 9570   3.429   9.257   1.935 -1.1907  0.0477  2.3272
  100GLOH   H08 9571   3.291   9.164   1.915  0.1767 -0.0706 -1.9582
  100GLOH    C2 9572   3.241   9.363   1.973 -0.3631 -0.0781  0.3077
  100GLOH   H04 9573   3.255   9.471   1.955  2.5523 -0.8172 -2.1504
  100GLOH    O2 9574   3.102   9.326   1.945 -0.2313 -0.2136 -0.3524
  100GLOH   H05 9575   3.072   9.379   1.869  1.1266  1.0900 -0.0038
  100GLOH    C3 9576   3.260   9.337   2.124 -0.0173 -0.2455 -0.8578
  100GLOH   H06 9577   3.237   9.232   2.140  1.4742 -0.3722  0.6772
  100GLOH   H07 9578   3.185   9.394   2.178 -0.0988  0.0039 -1.2333
  100GLOH    O3 9579   3.394   9.376   2.169  0.2015  0.5499  0.1829
  100GLOH   H01 9580   3.393   9.371   2.266 -0.5906  0.4845  0.1758
  101GLOH   H03 9581   3.120   1.670   1.305  0.2620 -0.6573 -1.4888
  101GLOH    O1 9582   3.135   1.767   1.309 -0.4475 -0.5952  0.1461
  101GLOH    C1 9583   3.239   1.824   1.399  0.2665  0.3551  0.8401
  101GLOH   H02 9584   3.208   1.799   1.500 -2.5320 -0.6192 -0.2192
  101GLOH   H08 9585   3.241   1.933   1.398 -1.2658  0.3921  1.1384
  101GLOH    C2 9586   3.376   1.764   1.378  0.0179  0.8031  0.0717
  101GLOH   H04 9587   3.411   1.784   1.275 -0.0226 -0.0232 -0.1100
  101GLOH    O2 9588   3.473   1.820   1.463 -0.3095  0.8449  0.0645
  101GLOH   H05 9589   3.559   1.777   1.452  0.2598  2.1347 -0.4974
  101GLOH    C3 9590   3.381   1.613   1.398 -0.6442  0.1281  0.1143
  101GLOH   H06 9591   3.312   1.566   1.329 -2.7435  0.2446  2.0958
  101GLOH   H07 9592   3.334   1.589   1.494 -1.1210  2.4246  0.4787
  101GLOH    O3 9593   3.512   1.564   1.383 -0.1378  0.1872  0.1340
  101GLOH   H01 9594   3.552   1.608   1.305  0.8104 -0.6458  0.1369
  102GLOH   H03 9595   2.795   9.996   0.664 -1.0193 -1.3906 -1.1066
  102GLOH    O1 9596   2.855   9.983   0.588 -0.2508 -0.0837 -0.7505
  102GLOH    C1 9597   2.790  10.034   0.470  0.8548  0.0128  0.5902
  102GLOH   H02 9598   2.779   9.949   0.403 -1.4693  0.5979  0.1874
  102GLOH   H08 9599   2.861  10.097   0.416  0.5890 -0.4194 -0.2672
  102GLOH    C2 9600   2.649  10.094   0.483 -0.1031 -0.6409 -0.1050
  102GLOH   H04 9601   2.602  10.109   0.385 -0.8005 -0.2360  0.2774
  102GLOH    O2 9602   2.552   9.995   0.535  0.3275  0.4294  0.0561
  102GLOH   H05 9603   2.574   9.909   0.496  0.5463 -0.1688  1.4747
  102GLOH    C3 9604   2.646  10.230   0.558 -0.6689 -0.9146  0.1197
  102GLOH   H06 9605   2.727  10.245   0.629 -0.8392  1.4021 -0.1523
  102GLOH   H07 9606   2.558  10.239   0.621  1.3520  0.3570  2.8330
  102GLOH    O3 9607   2.639  10.328   0.456 -0.0812  0.1962  0.0848
  102GLOH   H01 9608   2.565  10.310   0.397  0.2384 -0.6474 -0.0592
  103GLOH   H03 9609   2.605   8.934   0.201  0.6216 -0.3661  0.2322
  103GLOH    O1 9610   2.594   8.956   0.106  0.1549 -0.3484  0.2885
  103GLOH    C1 9611   2.619   9.096   0.065  0.3850  0.6011 -0.4350
  103GLOH   H02 9612   2.704   9.147   0.111  0.6028  0.2431 -0.4342
  103GLOH   H08 9613   2.535   9.159   0.092  0.6598  0.1483  1.5286
  103GLOH    C2 9614   2.649   9.095  -0.087 -0.7043  0.8064 -0.2250
  103GLOH   H04 9615   2.562   9.040  -0.127  0.5257 -0.9352 -0.5301
  103GLOH    O2 9616   2.654   9.232  -0.134  0.3993 -0.9804 -0.1416
  103GLOH   H05 9617   2.689   9.228  -0.224 -0.2140 -2.4681 -0.3155
  103GLOH    C3 9618   2.785   9.026  -0.127 -0.1732 -0.0052  0.0836
  103GLOH   H06 9619   2.792   9.030  -0.236 -1.0218  1.6982  0.0720
  103GLOH   H07 9620   2.777   8.923  -0.091  0.5613 -0.7236 -1.7581
  103GLOH    O3 9621   2.904   9.095  -0.076  0.1262  0.1828  0.4021
  103GLOH   H01 9622   2.925   9.057   0.011  1.6683  0.9279  0.3817
  104GLOH   H03 9623   3.088   1.432   0.275 -0.2911  3.2963 -0.1657
  104GLOH    O1 9624   3.139   1.412   0.194 -0.6188  0.8808  0.1904
  104GLOH    C1 9625   3.037   1.403   0.088 -0.4217  0.0819 -0.3065
  104GLOH   H02 9626   2.941   1.371   0.129  0.5307 -2.0069  0.3670
  104GLOH   H08 9627   3.065   1.327   0.014 -1.6030  0.9869 -1.7239
  104GLOH    C2 9628   3.020   1.533   0.011  0.1569  0.5726  0.1362
  104GLOH   H04 9629   3.072   1.611   0.069  2.7214 -0.1782 -1.0600
  104GLOH    O2 9630   3.091   1.541  -0.116 -0.2416 -0.4985  0.2299
  104GLOH   H05 9631   3.166   1.480  -0.117 -1.6216 -2.2848 -2.9863
  104GLOH    C3 9632   2.872   1.576  -0.020 -0.7281 -0.4755 -0.2675
  104GLOH   H06 9633   2.820   1.503  -0.082 -0.3110  1.3285 -2.8340
  104GLOH   H07 9634   2.880   1.662  -0.086 -0.4480 -0.1203  0.2228
  104GLOH    O3 9635   2.796   1.609   0.096  0.5845  0.5205  0.7190
  104GLOH   H01 9636   2.848   1.672   0.149  0.8917  2.2330 -1.5278
  105GLOH   H03 9637   3.068   9.611   0.262 -0.5283 -0.0854 -0.7927
  105GLOH    O1 9638   3.028   9.542   0.318  0.3467  0.4406  0.4905
  105GLOH    C1 9639   3.070   9.559   0.447  0.0934  0.3914  0.2945
  105GLOH   H02 9640   3.174   9.590   0.445 -0.1338  1.1261 -2.2223
  105GLOH   H08 9641   3.069   9.468   0.506 -1.2342  1.4116  1.8756
  105GLOH    C2 9642   2.993   9.674   0.522 -0.2580  1.0655  0.1448
  105GLOH   H04 9643   3.020   9.663   0.628 -0.2710  0.0202  0.0391
  105GLOH    O2 9644   3.030   9.801   0.477 -0.4187 -0.2439 -0.2290
  105GLOH   H05 9645   2.969   9.865   0.518  0.4157  0.2223  0.2967
  105GLOH    C3 9646   2.842   9.649   0.513  0.1773 -0.4922 -0.4033
  105GLOH   H06 9647   2.821   9.636   0.407 -2.8331 -0.3908  0.1363
  105GLOH   H07 9648   2.798   9.744   0.544  2.0418 -0.4077  2.1406
  105GLOH    O3 9649   2.799   9.536   0.593 -0.1295  0.1778  0.2611
  105GLOH   H01 9650   2.727   9.492   0.544 -1.1207  2.3749 -0.3354
  106GLOH   H03 9651   2.629   0.680   0.619 -0.2594  0.9689 -0.3925
  106GLOH    O1 9652   2.534   0.694   0.637 -0.3598 -0.4428  0.2532
  106GLOH    C1 9653   2.472   0.562   0.629 -0.0620 -0.2324 -0.5863
  106GLOH   H02 9654   2.493   0.506   0.538  1.0564 -1.1552  0.2291
  106GLOH   H08 9655   2.364   0.575   0.625 -0.5156 -2.9098  1.5596
  106GLOH    C2 9656   2.503   0.488   0.761 -0.6607 -0.5172  0.5530
  106GLOH   H04 9657   2.443   0.396   0.759  0.9814 -1.6159  0.6739
  106GLOH    O2 9658   2.636   0.445   0.762 -0.0477  0.4216 -0.1556
  106GLOH   H05 9659   2.675   0.480   0.844 -1.1616 -1.7257  1.3533
  106GLOH    C3 9660   2.450   0.571   0.882 -0.4976 -0.2629  0.7101
  106GLOH   H06 9661   2.343   0.590   0.869 -0.5085  1.2696  2.7700
  106GLOH   H07 9662   2.494   0.670   0.877 -0.0762 -0.3526  2.2986
  106GLOH    O3 9663   2.486   0.506   1.010 -0.0410 -0.1232  0.2394
  106GLOH   H01 9664   2.404   0.462   1.039  0.3706 -0.5755  0.7165
  107GLOH   H03 9665   2.998   9.300   2.076  0.2237  0.2219  0.0462
  107GLOH    O1 9666   2.934   9.320   2.147 -0.4889 -0.2463 -0.4459
  107GLOH    C1 9667   2.843   9.410   2.081 -0.2461 -0.4992 -0.0351
  107GLOH   H02 9668   2.773   9.368   2.008  1.6776 -0.6987 -1.8209
  107GLOH   H08 9669   2.897   9.493   2.035 -2.1421 -0.3759 -2.1561
  107GLOH    C2 9670   2.747   9.480   2.180  0.1854 -0.3963 -0.6102
  107GLOH   H04 9671   2.814   9.533   2.251 -2.0897  0.6965  0.7975
  107GLOH    O2 9672   2.675   9.584   2.103  0.1959  0.9860  0.2402
  107GLOH   H05 9673   2.714   9.587   2.014  1.8289 -0.9938  0.8629
  107GLOH    C3 9674   2.654   9.387   2.259 -0.1726  0.5516 -0.4555
  107GLOH   H06 9675   2.569   9.353   2.201 -1.2807 -1.5404  2.2598
  107GLOH   H07 9676   2.606   9.447   2.337 -0.2760  2.6725 -2.1118
  107GLOH    O3 9677   2.735   9.271   2.298  0.3292 -0.0175 -0.1774
  107GLOH   H01 9678   2.804   9.262   2.230 -0.4013 -0.4217 -0.8868
  108GLOH   H03 9679   2.247   1.383   2.140 -0.4947 -0.6563 -0.5802
  108GLOH    O1 9680   2.305   1.335   2.078  0.3744 -0.0759 -0.2230
  108GLOH    C1 9681   2.420   1.410   2.045 -0.1303  0.1056 -0.0034
  108GLOH   H02 9682   2.513   1.375   2.091  1.3751  2.2943 -1.2599
  108GLOH   H08 9683   2.395   1.513   2.066  0.2970  1.0415 -3.6647
  108GLOH    C2 9684   2.442   1.400   1.894  0.3495  0.2615  0.5724
  108GLOH   H04 9685   2.353   1.436   1.840  1.6583  0.2637 -1.6453
  108GLOH    O2 9686   2.554   1.476   1.852 -0.3701 -0.8110  0.0204
  108GLOH   H05 9687   2.627   1.419   1.824  0.3611  0.1889 -0.1117
  108GLOH    C3 9688   2.469   1.255   1.852 -0.1044  0.5731 -0.0988
  108GLOH   H06 9689   2.566   1.224   1.891  0.8956  2.8996 -0.6460
  108GLOH   H07 9690   2.476   1.249   1.743 -1.9732  0.2308 -0.2067
  108GLOH    O3 9691   2.367   1.160   1.902  0.2099  0.0799  0.8070
  108GLOH   H01 9692   2.317   1.209   1.970 -1.4454 -1.6026  0.8564
  109GLOH   H03 9693   4.309   1.471   0.723  0.7377  0.0862 -1.6185
  109GLOH    O1 9694   4.397   1.446   0.757 -0.1634 -0.2651  0.5819
  109GLOH    C1 9695   4.373   1.475   0.892  0.0508  0.0580  0.0020
  109GLOH   H02 9696   4.281   1.420   0.912 -0.6160  0.3588 -2.1087
  109GLOH   H08 9697   4.346   1.580   0.904  0.4272  0.0568  0.9206
  109GLOH    C2 9698   4.481   1.453   0.998 -0.2012  0.2360 -0.0294
  109GLOH   H04 9699   4.568   1.517   0.977  0.0886  0.5327  1.9660
  109GLOH    O2 9700   4.431   1.490   1.131  0.4998  0.9167  0.4835
  109GLOH   H05 9701   4.384   1.575   1.125  0.1357  0.5989 -1.4695
  109GLOH    C3 9702   4.526   1.306   0.993  0.1212 -0.3404  0.2822
  109GLOH   H06 9703   4.431   1.253   1.005  0.2419 -0.3474  1.2207
  109GLOH   H07 9704   4.589   1.268   1.073 -0.8775 -0.1505  1.1676
  109GLOH    O3 9705   4.586   1.277   0.862  0.0505  0.2153 -0.1107
  109GLOH   H01 9706   4.533   1.327   0.797  1.0701 -0.0708 -1.1773
  110GLOH   H03 9707   3.057   2.112   2.354  0.4587 -0.0356  0.7379
  110GLOH    O1 9708   3.020   2.087   2.267  0.9512  1.1256  0.1837
  110GLOH    C1 9709   3.108   2.125   2.156 -0.3954 -0.3954  0.4439
  110GLOH   H02 9710   3.155   2.037   2.112 -1.4060 -1.1575  0.8494
  110GLOH   H08 9711   3.197   2.176   2.193  0.2892 -2.2286  1.3817
  110GLOH    C2 9712   3.035   2.186   2.033 -0.2646 -0.2144  0.2976
  110GLOH   H04 9713   2.969   2.270   2.057 -1.5213 -0.5845 -1.6933
  110GLOH    O2 9714   3.130   2.236   1.933 -0.5026  0.0245 -0.5337
  110GLOH   H05 9715   3.196   2.167   1.923 -1.3451 -0.8614 -0.0734
  110GLOH    C3 9716   2.933   2.082   1.983  0.7017  0.9954  0.1730
  110GLOH   H06 9717   2.989   1.990   1.964 -1.7694 -0.8410  1.5219
  110GLOH   H07 9718   2.893   2.114   1.887  1.0907 -0.9958 -0.6769
  110GLOH    O3 9719   2.831   2.060   2.079  0.0026 -0.4864 -0.6535
  110GLOH   H01 9720   2.884   2.073   2.160  1.9372  1.4027 -2.1855
  111GLOH   H03 9721   2.985   2.166   1.011 -1.6596 -1.3168 -1.9077
  111GLOH    O1 9722   3.057   2.139   0.951  0.2168 -0.1001 -0.2402
  111GLOH    C1 9723   3.024   2.086   0.817 -0.0720 -0.1736 -0.4999
  111GLOH   H02 9724   2.949   2.152   0.775 -0.5797 -0.4740 -0.0622
  111GLOH   H08 9725   2.986   1.985   0.825  0.4995 -0.5148 -1.9654
  111GLOH    C2 9726   3.153   2.094   0.729  0.1740  0.4339 -0.1602
  111GLOH   H04 9727   3.191   2.198   0.724 -1.2170  0.8840 -1.8467
  111GLOH    O2 9728   3.263   2.014   0.788  0.1752 -0.5796 -0.0488
  111GLOH   H05 9729   3.224   1.932   0.821  0.0199 -1.4457 -2.2874
  111GLOH    C3 9730   3.117   2.059   0.584 -0.6692  0.4249 -0.3326
  111GLOH   H06 9731   3.071   1.960   0.586  0.2700  0.0146  1.1498
  111GLOH   H07 9732   3.209   2.065   0.525 -0.0872  1.2749  0.6426
  111GLOH    O3 9733   3.029   2.155   0.520 -0.0559  0.2821 -0.0859
  111GLOH   H01 9734   3.081   2.238   0.516 -1.7492  1.3105 -1.3176
  112GLOH   H03 9735   3.336   1.195   1.399  1.5390 -1.0092  0.5936
  112GLOH    O1 9736   3.395   1.164   1.327 -0.3262 -0.8888 -1.0162
  112GLOH    C1 9737   3.455   1.284   1.275 -0.5030 -0.1798  0.2234
  112GLOH   H02 9738   3.521   1.324   1.352  0.5713 -0.4031 -0.5590
  112GLOH   H08 9739   3.392   1.368   1.248 -1.1228 -0.4344  0.8627
  112GLOH    C2 9740   3.533   1.271   1.146 -0.4181  0.0201 -0.0331
  112GLOH   H04 9741   3.584   1.367   1.131 -2.6804  1.1860 -0.5222
  112GLOH    O2 9742   3.640   1.172   1.154 -0.0252  0.0356 -0.1016
  112GLOH   H05 9743   3.675   1.155   1.243  1.3638 -1.3056 -0.8710
  112GLOH    C3 9744   3.447   1.238   1.026  0.1776  0.2287  0.4761
  112GLOH   H06 9745   3.392   1.148   1.052  1.0333 -0.2996  0.4818
  112GLOH   H07 9746   3.501   1.230   0.931 -1.4142  1.2791 -0.5494
  112GLOH    O3 9747   3.345   1.337   1.004  0.3874 -0.2632  0.0481
  112GLOH   H01 9748   3.381   1.427   0.991  0.3055 -0.4215 -1.3162
  113GLOH   H03 9749   2.124   0.167   2.645 -0.7424 -0.7141 -0.7108
  113GLOH    O1 9750   2.082   0.245   2.604 -0.1845 -0.2697 -0.4485
  113GLOH    C1 9751   2.090   0.236   2.458  0.4435 -0.4613 -0.1392
  113GLOH   H02 9752   2.018   0.309   2.420 -0.6781 -0.7337  1.4053
  113GLOH   H08 9753   2.069   0.137   2.419  0.1033 -0.5936  0.3706
  113GLOH    C2 9754   2.228   0.278   2.412  0.3115 -0.3656  0.6041
  113GLOH   H04 9755   2.293   0.198   2.448 -0.3013 -0.7437  0.8783
  113GLOH    O2 9756   2.228   0.279   2.270  0.1651 -0.0600  0.4522
  113GLOH   H05 9757   2.319   0.254   2.244 -0.2840 -1.0674 -0.1775
  113GLOH    C3 9758   2.261   0.423   2.453  0.1805  0.3041  0.2996
  113GLOH   H06 9759   2.181   0.487   2.416  0.8428  1.6919  1.2064
  113GLOH   H07 9760   2.344   0.456   2.389 -0.1715  0.4428 -0.0857
  113GLOH    O3 9761   2.275   0.437   2.596 -0.2376  0.6822 -0.0563
  113GLOH   H01 9762   2.204   0.384   2.636  1.3765 -1.1797  0.4077
  114GLOH   H03 9763   2.936   1.124   1.022  0.5097  0.8878  0.6926
  114GLOH    O1 9764   2.877   1.105   1.097  0.1778  0.5519  0.3526
  114GLOH    C1 9765   2.956   1.041   1.193 -0.0882  0.4462  0.3587
  114GLOH   H02 9766   3.054   1.087   1.204  0.3815 -0.0171 -1.6920
  114GLOH   H08 9767   2.976   0.940   1.156  0.3687  0.8788 -0.5815
  114GLOH    C2 9768   2.893   1.022   1.328 -0.0370  0.1046 -0.6158
  114GLOH   H04 9769   2.792   0.981   1.319 -0.2942  0.9004 -1.5112
  114GLOH    O2 9770   2.973   0.929   1.411  0.1852 -0.3166  1.0581
  114GLOH   H05 9771   2.947   0.913   1.504 -0.6641  0.3015  0.9235
  114GLOH    C3 9772   2.877   1.163   1.388  0.1129  0.2807  0.0071
  114GLOH   H06 9773   2.976   1.187   1.427  1.0304 -0.7867 -1.6072
  114GLOH   H07 9774   2.814   1.163   1.477 -0.9432  2.9431 -0.7020
  114GLOH    O3 9775   2.825   1.258   1.297 -0.4964 -0.7816  0.2897
  114GLOH   H01 9776   2.817   1.220   1.208 -1.9641  1.8697 -0.7769
  115GLOH   H03 9777   3.532   1.188   0.585  0.2425 -0.1818 -0.7213
  115GLOH    O1 9778   3.627   1.203   0.573  0.3316 -0.2313 -0.0629
  115GLOH    C1 9779   3.717   1.202   0.685 -0.4634 -0.5455 -0.4220
  115GLOH   H02 9780   3.685   1.129   0.759 -1.0708 -1.3192 -1.4443
  115GLOH   H08 9781   3.718   1.303   0.727  1.4024  0.3448 -2.5136
  115GLOH    C2 9782   3.854   1.165   0.642 -0.0612 -0.0637 -0.1563
  115GLOH   H04 9783   3.868   1.197   0.538 -0.2915 -0.7324 -0.3946
  115GLOH    O2 9784   3.956   1.221   0.730 -0.4171 -0.0543  0.7659
  115GLOH   H05 9785   4.042   1.211   0.685 -0.8137  1.6235 -0.3964
  115GLOH    C3 9786   3.869   1.015   0.627  0.1601 -0.1605 -0.1275
  115GLOH   H06 9787   3.959   0.987   0.572  0.4392 -0.0790  0.2863
  115GLOH   H07 9788   3.786   0.969   0.574 -0.0319  0.1524 -0.0981
  115GLOH    O3 9789   3.868   0.947   0.754 -0.6745  0.0941  0.0240
  115GLOH   H01 9790   3.923   0.988   0.824  0.7152 -1.8919  0.1480
  116GLOH   H03 9791   2.430   9.569   0.688 -0.1396  0.4890 -1.6462
  116GLOH    O1 9792   2.438   9.666   0.698  0.0351  0.3479 -0.2971
  116GLOH    C1 9793   2.444   9.706   0.836 -0.4526 -0.1369  0.4770
  116GLOH   H02 9794   2.495   9.627   0.892  0.1011  0.4124  0.7558
  116GLOH   H08 9795   2.346   9.718   0.881 -2.0569 -0.2496 -2.8630
  116GLOH    C2 9796   2.515   9.842   0.848 -0.2972 -0.5163 -0.0382
  116GLOH   H04 9797   2.479   9.919   0.778  0.3895  0.8559  1.0858
  116GLOH    O2 9798   2.501   9.907   0.980  0.4208 -0.2832  0.8917
  116GLOH   H05 9799   2.515  10.002   0.964 -3.0550  0.0188 -0.6554
  116GLOH    C3 9800   2.666   9.833   0.821 -0.1413  0.0663  0.1131
  116GLOH   H06 9801   2.675   9.767   0.734 -1.3089  1.4345 -1.0628
  116GLOH   H07 9802   2.710   9.775   0.902 -0.7368 -2.3804 -1.2449
  116GLOH    O3 9803   2.731   9.964   0.813  0.0504 -0.4339  0.2656
  116GLOH   H01 9804   2.677  10.029   0.860 -0.8686 -1.6579  0.9393
  117GLOH   H03 9805   3.449   1.924   1.027 -0.1595 -0.8109 -1.4009
  117GLOH    O1 9806   3.511   1.849   1.023  0.4338 -0.4323  0.1873
  117GLOH    C1 9807   3.486   1.766   0.908  0.7859 -0.7545 -0.2356
  117GLOH   H02 9808   3.585   1.731   0.876  2.1082  1.6235  1.0835
  117GLOH   H08 9809   3.447   1.821   0.823  0.9176  0.7995  0.6899
  117GLOH    C2 9810   3.385   1.653   0.929  0.4843  0.2019 -0.5680
  117GLOH   H04 9811   3.389   1.607   0.828  2.3342  2.6185 -1.6210
  117GLOH    O2 9812   3.447   1.561   1.024  0.4964  0.1886  0.2111
  117GLOH   H05 9813   3.529   1.604   1.055  1.6314 -0.9350 -1.1126
  117GLOH    C3 9814   3.243   1.699   0.967  0.1367 -0.4920 -1.0380
  117GLOH   H06 9815   3.251   1.742   1.067 -1.0155 -1.4071 -0.5481
  117GLOH   H07 9816   3.178   1.614   0.984 -2.0368  1.5190  1.1254
  117GLOH    O3 9817   3.178   1.794   0.886 -0.2625 -0.0713  0.4895
  117GLOH   H01 9818   3.085   1.765   0.875  0.1078 -0.3524 -1.9750
  118GLOH   H03 9819   4.024   0.085   2.387 -0.1011  0.8907  0.5976
  118GLOH    O1 9820   3.964   0.104   2.313  0.0237  0.3044  0.3484
  118GLOH    C1 9821   3.837   0.108   2.375  0.5556  0.6245  0.6552
  118GLOH   H02 9822   3.846   0.073   2.478 -2.6084  1.1692  1.1641
  118GLOH   H08 9823   3.770   0.037   2.327 -0.7386  2.2346  0.0385
  118GLOH    C2 9824   3.780   0.254   2.362 -0.0930  0.8151  0.4881
  118GLOH   H04 9825   3.783   0.286   2.257 -0.0128  0.2617  0.3203
  118GLOH    O2 9826   3.648   0.270   2.423  0.0218 -0.1091 -0.7846
  118GLOH   H05 9827   3.591   0.214   2.368 -0.4116 -2.6375  2.0888
  118GLOH    C3 9828   3.874   0.345   2.450 -0.6820 -0.5775  0.1523
  118GLOH   H06 9829   3.972   0.299   2.444  0.3776  1.6913 -0.4871
  118GLOH   H07 9830   3.837   0.332   2.552  0.4338  1.4172  0.8391
  118GLOH    O3 9831   3.874   0.490   2.425 -0.6638 -0.4113  0.4422
  118GLOH   H01 9832   3.841   0.502   2.333 -0.2093 -0.5791  0.2565
  119GLOH   H03 9833   3.394   1.994   0.444  0.8255 -0.9059 -1.5547
  119GLOH    O1 9834   3.448   1.933   0.497  0.4749  0.0192 -0.0883
  119GLOH    C1 9835   3.355   1.829   0.508  0.0196  0.0177 -0.1008
  119GLOH   H02 9836   3.270   1.860   0.568 -0.1153  0.0693 -0.3201
  119GLOH   H08 9837   3.400   1.741   0.554  0.3514  1.7591  3.0249
  119GLOH    C2 9838   3.301   1.772   0.367 -0.0021 -0.3894 -0.0185
  119GLOH   H04 9839   3.261   1.859   0.313 -4.0479 -1.4027  1.2121
  119GLOH    O2 9840   3.406   1.723   0.287 -0.2834  0.0706 -0.2440
  119GLOH   H05 9841   3.485   1.780   0.283 -1.4296  1.8186  1.3437
  119GLOH    C3 9842   3.187   1.675   0.388  0.4219 -0.2786  0.0088
  119GLOH   H06 9843   3.223   1.584   0.436  2.8864  1.9897  2.6084
  119GLOH   H07 9844   3.146   1.645   0.291 -0.9460 -0.6644  0.6958
  119GLOH    O3 9845   3.076   1.734   0.462 -0.1555  0.2251 -0.2471
  119GLOH   H01 9846   3.002   1.761   0.405 -0.3329 -0.6829 -0.4493
  120GLOH   H03 9847   3.686   2.240   0.777 -0.9979  2.7043 -0.7623
  120GLOH    O1 9848   3.742   2.268   0.852 -0.2249 -0.3163 -0.1214
  120GLOH    C1 9849   3.741   2.173   0.962 -0.2573  0.1917 -0.0706
  120GLOH   H02 9850   3.654   2.109   0.951  1.6620 -2.7070  0.9952
  120GLOH   H08 9851   3.716   2.226   1.054  0.8871  0.0761  0.3218
  120GLOH    C2 9852   3.872   2.096   0.978  0.4192 -0.7378  0.4242
  120GLOH   H04 9853   3.950   2.164   1.016  0.0649 -0.0673 -0.0508
  120GLOH    O2 9854   3.858   2.001   1.081  0.0208  0.0079 -0.0696
  120GLOH   H05 9855   3.840   2.047   1.164  0.4605  1.1058 -0.5767
  120GLOH    C3 9856   3.920   2.041   0.844  0.3859 -0.8621  0.2811
  120GLOH   H06 9857   3.923   2.124   0.772  0.1504  0.3289  1.6264
  120GLOH   H07 9858   3.845   1.970   0.810 -2.5303  1.0561  2.4780
  120GLOH    O3 9859   4.047   1.978   0.845 -0.9365  0.0022  0.1992
  120GLOH   H01 9860   4.100   2.011   0.920  0.8118 -1.7197 -0.2313
  121ACOH    H4 9861   3.265   9.759   2.320 -0.6864 -0.0779 -0.2242
  121ACOH    O2 9862   3.233   9.780   2.231 -0.3720  0.2872 -0.2492
  121ACOH    C2 9863   3.135   9.694   2.194  0.2264  0.0874 -0.1340
  121ACOH    O1 9864   3.065   9.635   2.271  0.3894 -0.5223 -0.2251
  121ACOH    C1 9865   3.115   9.686   2.051 -0.3037  0.7358  0.1568
  121ACOH    H1 9866   3.022   9.733   2.018 -1.2568 -0.7679  0.6671
  121ACOH    H2 9867   3.111   9.582   2.020  0.3392  0.1770  1.8872
  121ACOH    H3 9868   3.193   9.738   1.994 -0.2651 -0.4986 -0.9295
  122ACOH    H4 9869   3.858   8.889   2.517 -0.7410 -0.8238  0.8470
  122ACOH    O2 9870   3.906   8.805   2.504 -0.3913 -0.4889 -0.0872
  122ACOH    C2 9871   3.993   8.832   2.403 -0.6320 -0.6051  1.0246
  122ACOH    O1 9872   3.982   8.921   2.321 -0.3421 -0.1792  0.3937
  122ACOH    C1 9873   4.095   8.722   2.378 -0.2297 -0.5851  0.4086
  122ACOH    H1 9874   4.041   8.627   2.376  0.9774 -1.2552 -1.2628
  122ACOH    H2 9875   4.176   8.721   2.451  0.5377  1.4627 -0.3847
  122ACOH    H3 9876   4.144   8.741   2.283  0.1933 -2.5676  0.2163
  123ACOH    H4 9877   4.308   1.843   0.735 -0.0961 -0.4933  0.5578
  123ACOH    O2 9878   4.386   1.806   0.779  0.1753 -0.1774  0.3450
  123ACOH    C2 9879   4.479   1.793   0.680  0.3839 -0.2311  0.1760
  123ACOH    O1 9880   4.464   1.831   0.566  0.3295 -0.1899  0.0641
  123ACOH    C1 9881   4.601   1.723   0.718  0.1408  0.5187 -0.0314
  123ACOH    H1 9882   4.615   1.640   0.649  1.2003  0.2797  0.4605
  123ACOH    H2 9883   4.591   1.689   0.821  1.3457  3.4611  1.1115
  123ACOH    H3 9884   4.688   1.789   0.724  0.3430  0.1075  2.0738
  124ACOH    H4 9885   3.800   2.399   0.930  1.3954 -0.0858 -1.9272
  124ACOH    O2 9886   3.824   2.489   0.960  0.2171 -0.2665 -0.3358
  124ACOH    C2 9887   3.714   2.564   0.961  0.0790 -0.6527 -0.1461
  124ACOH    O1 9888   3.602   2.535   0.921  0.1929 -0.3309  0.0535
  124ACOH    C1 9889   3.755   2.704   0.994 -0.0649  0.3702 -0.1539
  124ACOH    H1 9890   3.768   2.719   1.101 -1.5549  3.2367 -0.3158
  124ACOH    H2 9891   3.678   2.771   0.955  0.8104  0.6633 -1.4210
  124ACOH    H3 9892   3.844   2.737   0.941  0.9979 -0.9760  0.7834
  125ACOH    H4 9893   2.300   1.018   1.893  1.1103 -0.1605 -0.2127
  125ACOH    O2 9894   2.305   0.922   1.879  0.0064 -0.1991 -0.4300
  125ACOH    C2 9895   2.278   0.895   1.752 -0.4684 -0.9607 -0.3758
  125ACOH    O1 9896   2.303   0.961   1.654 -0.2850  0.2944 -0.1726
  125ACOH    C1 9897   2.229   0.754   1.749  0.1649 -0.3696  0.4402
  125ACOH    H1 9898   2.128   0.733   1.713 -0.2481 -0.3508  1.5543
  125ACOH    H2 9899   2.237   0.716   1.851  0.3472  1.1804  1.0104
  125ACOH    H3 9900   2.302   0.696   1.693 -0.7177 -0.3549 -0.7532
  126ACOH    H4 9901   3.263   8.836   0.490 -1.3731 -0.7233 -0.0427
  126ACOH    O2 9902   3.331   8.771   0.512 -0.9428 -0.2011  0.1658
  126ACOH    C2 9903   3.445   8.806   0.455  0.5680  0.6710 -0.1232
  126ACOH    O1 9904   3.463   8.884   0.366  0.1540 -0.1858  0.0438
  126ACOH    C1 9905   3.555   8.713   0.492  0.1530  0.3491  0.4000
  126ACOH    H1 9906   3.640   8.772   0.525  0.1682  0.2464  0.5426
  126ACOH    H2 9907   3.590   8.679   0.395 -2.9272 -0.5634 -0.4718
  126ACOH    H3 9908   3.522   8.640   0.565  1.0681 -0.4837 -0.0152
  127ACOH    H4 9909   3.843   9.552   2.289 -0.5543  0.0163  0.0291
  127ACOH    O2 9910   3.843   9.481   2.223 -0.5274 -0.4207  0.4902
  127ACOH    C2 9911   3.858   9.370   2.288 -0.3078  0.0478  0.2598
  127ACOH    O1 9912   3.864   9.354   2.410  0.3686 -0.0728  0.6052
  127ACOH    C1 9913   3.868   9.248   2.198 -0.9916 -0.1880  0.9978
  127ACOH    H1 9914   3.973   9.228   2.177 -1.0834  1.2919 -1.0292
  127ACOH    H2 9915   3.829   9.268   2.098  2.2988 -1.0501 -0.5188
  127ACOH    H3 9916   3.816   9.161   2.239 -0.5379  0.7526  3.6378
  128ACOH    H4 9917   4.154   0.268   0.814  1.1326 -0.4436 -2.8236
  128ACOH    O2 9918   4.218   0.207   0.857  0.1805  0.2411 -0.3317
  128ACOH    C2 9919   4.294   0.173   0.755 -0.6588  0.4992 -0.3322
  128ACOH    O1 9920   4.270   0.190   0.637  0.4399  0.0496  0.3647
  128ACOH    C1 9921   4.409   0.094   0.812 -0.0424 -0.0387 -0.4622
  128ACOH    H1 9922   4.461   0.160   0.881 -0.3520 -1.6021  1.3183
  128ACOH    H2 9923   4.476   0.075   0.728 -0.5822  0.4914 -1.0210
  128ACOH    H3 9924   4.384   0.002   0.865 -0.8659  0.5370  0.1581
  129ACOH    H4 9925   2.393   0.070   0.591  0.3027 -0.0766  0.1874
  129ACOH    O2 9926   2.297   0.076   0.607  0.3798  0.6722  0.3934
  129ACOH    C2 9927   2.261   0.130   0.725  0.1754 -0.5355 -0.3771
  129ACOH    O1 9928   2.338   0.161   0.809  0.0852 -0.5861 -0.0568
  129ACOH    C1 9929   2.113   0.133   0.745 -0.6779 -0.3145  0.7646
  129ACOH    H1 9930   2.072   0.041   0.787 -1.4324 -0.5869 -0.5569
  129ACOH    H2 9931   2.070   0.129   0.645 -2.4275  0.7413  1.4376
  129ACOH    H3 9932   2.076   0.228   0.785 -0.5636  1.2760 -2.7466
  130ACOH    H4 9933   3.858   8.800   0.969  0.7403 -0.0347 -0.0253
  130ACOH    O2 9934   3.861   8.719   0.915  0.2122 -0.2542  0.2723
  130ACOH    C2 9935   3.845   8.753   0.787  0.3004  0.5340  0.2007
  130ACOH    O1 9936   3.852   8.868   0.744  0.0818 -0.0371  0.1629
  130ACOH    C1 9937   3.829   8.638   0.696 -0.3840  0.0994 -0.3008
  130ACOH    H1 9938   3.894   8.551   0.706 -1.3922 -0.8388 -1.6927
  130ACOH    H2 9939   3.820   8.673   0.593 -1.9338 -0.1280 -0.2601
  130ACOH    H3 9940   3.738   8.587   0.730  0.3410 -0.3909  0.9448
  131ACOH    H4 9941   4.448   2.042   1.959  0.0680  0.2636 -2.1797
  131ACOH    O2 9942   4.534   2.084   1.972 -0.0359 -0.2492  0.4713
  131ACOH    C2 9943   4.511   2.215   1.936  0.8557  0.1594 -0.3304
  131ACOH    O1 9944   4.405   2.275   1.936 -0.0173 -0.2055 -0.8380
  131ACOH    C1 9945   4.640   2.294   1.911 -0.1584 -0.5747 -0.1051
  131ACOH    H1 9946   4.718   2.238   1.963  0.2212 -0.5997 -0.7082
  131ACOH    H2 9947   4.633   2.396   1.947  0.2870 -0.4956 -0.2497
  131ACOH    H3 9948   4.655   2.299   1.804 -0.7330 -1.3765 -0.2295
  132ACOH    H4 9949   3.735   2.252   1.665  0.2747 -0.3848 -0.4867
  132ACOH    O2 9950   3.651   2.300   1.657  0.2750 -0.2456  0.2480
  132ACOH    C2 9951   3.648   2.352   1.532  0.2836  0.4405 -0.4085
  132ACOH    O1 9952   3.720   2.310   1.443  0.1287  0.6304 -0.3853
  132ACOH    C1 9953   3.564   2.475   1.513 -0.5046 -0.1439  0.4688
  132ACOH    H1 9954   3.507   2.488   1.605 -2.0365  1.3877 -0.6596
  132ACOH    H2 9955   3.496   2.474   1.428 -0.0781 -1.0635  0.1281
  132ACOH    H3 9956   3.636   2.557   1.511 -1.0319  0.3016 -0.4546
  133ACOH    H4 9957   2.410   9.728   0.044  1.6204 -2.7089  1.5948
  133ACOH    O2 9958   2.444   9.693  -0.039  0.0341 -0.0825 -0.2570
  133ACOH    C2 9959   2.365   9.729  -0.139 -0.5294  0.2090  0.4450
  133ACOH    O1 9960   2.275   9.814  -0.137 -0.4934 -0.0987 -0.3436
  133ACOH    C1 9961   2.401   9.659  -0.264  0.3169  0.8215  0.2743
  133ACOH    H1 9962   2.506   9.672  -0.290 -0.0218  1.8251 -0.5761
  133ACOH    H2 9963   2.355   9.712  -0.347  1.0576 -0.6798 -1.1184
  133ACOH    H3 9964   2.371   9.554  -0.272  1.0269  0.6878 -0.7117
  134ACOH    H4 9965   4.577   1.067   1.616 -0.3113 -1.4966  0.2456
  134ACOH    O2 9966   4.662   1.043   1.657 -0.1033 -0.4191  0.4616
  134ACOH    C2 9967   4.660   1.072   1.793  0.5953 -0.5107  0.4334
  134ACOH    O1 9968   4.563   1.123   1.844  0.2744 -0.3276 -0.0427
  134ACOH    C1 9969   4.787   1.050   1.864 -0.1673 -0.0599 -0.2828
  134ACOH    H1 9970   4.862   0.999   1.802  0.9302 -1.2872  1.9968
  134ACOH    H2 9971   4.772   1.000   1.959 -0.9631  0.8596  0.0797
  134ACOH    H3 9972   4.828   1.150   1.882 -0.8708  0.4803 -1.6100
  135ACOH    H4 9973   2.497   1.404   1.106  0.6606 -1.2948 -0.4039
  135ACOH    O2 9974   2.439   1.391   1.029  0.5257 -0.2590 -0.4761
  135ACOH    C2 9975   2.477   1.473   0.930  0.0556 -0.7681  0.6969
  135ACOH    O1 9976   2.589   1.509   0.914 -0.8271  0.7927 -0.5788
  135ACOH    C1 9977   2.379   1.490   0.820 -0.1367 -0.6527  0.2590
  135ACOH    H1 9978   2.275   1.503   0.852 -0.6166 -0.9579 -1.1085
  135ACOH    H2 9979   2.382   1.407   0.748 -0.8236 -2.4372  2.2189
  135ACOH    H3 9980   2.409   1.575   0.760 -0.4975 -1.0020 -0.4259
  136ACOH    H4 9981   4.885   0.718   0.778 -1.3469  1.0492  0.9387
  136ACOH    O2 9982   4.979   0.743   0.783 -0.9400 -0.2429 -0.1820
  136ACOH    C2 9983   5.008   0.864   0.836  0.1986 -0.5020  0.0423
  136ACOH    O1 9984   4.922   0.939   0.876  0.0873  0.1664 -0.1536
  136ACOH    C1 9985   5.148   0.903   0.808 -0.1323 -0.8160 -0.3119
  136ACOH    H1 9986   5.146   1.010   0.784  0.4142 -0.7071  0.1198
  136ACOH    H2 9987   5.204   0.852   0.730 -1.8651 -0.7748 -1.6026
  136ACOH    H3 9988   5.203   0.883   0.900 -0.0859  1.8170  0.2725
  137ACOH    H4 9989   4.220   2.183   1.287  0.0708  0.3428 -0.6952
  137ACOH    O2 9990   4.173   2.244   1.228 -0.1434  0.3732 -0.4996
  137ACOH    C2 9991   4.150   2.358   1.295 -0.2751  0.6843  0.4755
  137ACOH    O1 9992   4.142   2.366   1.415  0.1502 -0.3857 -0.8396
  137ACOH    C1 9993   4.081   2.444   1.195 -0.4773  0.7730  0.1919
  137ACOH    H1 9994   4.129   2.448   1.097 -2.5585  0.9972 -0.8301
  137ACOH    H2 9995   4.086   2.545   1.237 -2.0383 -0.5587  3.8131
  137ACOH    H3 9996   3.976   2.416   1.192 -0.1265 -0.6130  0.5801
  138ACOH    H4 9997   4.097   0.381   2.631 -0.8085  0.6476  0.0378
  138ACOH    O2 9998   4.156   0.439   2.579  0.1256 -0.1574  0.1816
  138ACOH    C2 9999   4.263   0.472   2.654  0.0413  0.6986 -0.1576
  138ACOH    O110000   4.294   0.444   2.767  0.6870 -0.1716 -0.0800
  138ACOH    C110001   4.353   0.560   2.576  0.2182 -0.3602 -0.2702
  138ACOH    H110002   4.453   0.516   2.572  1.2141  1.8308 -0.0018
  138ACOH    H210003   4.363   0.657   2.624 -2.7746  0.0394 -0.3741
  138ACOH    H310004   4.320   0.576   2.473 -0.6059 -1.3945 -0.1701
  139SOL     OW10005   4.407   0.821   1.689 -0.0914 -0.0765 -1.0974
  139SOL    HW110006   4.413   0.749   1.758 -0.5800  0.3657 -0.5954
  139SOL    HW210007   4.333   0.884   1.712  1.4958  1.6139 -0.5593
  140SOL     OW10008   3.408   9.523   0.171  0.4706 -0.3459  0.1769
  140SOL    HW110009   3.457   9.543   0.256  1.5908 -1.5792 -0.1806
  140SOL    HW210010   3.326   9.470   0.193  0.3689 -0.0380  0.5588
  141SOL     OW10011   2.635   1.799   0.315  0.4253 -0.2955 -0.0682
  141SOL    HW110012   2.549   1.748   0.317 -0.4756  1.2127 -0.4990
  141SOL    HW210013   2.624   1.886   0.363  1.6606 -0.0049 -0.2940
  142SOL     OW10014   2.815   1.747   1.263  0.1775  0.1030  0.2936
  142SOL    HW110015   2.848   1.652   1.259 -0.2673 -0.0276 -0.3903
  142SOL    HW210016   2.893   1.809   1.260  0.5878 -0.2578  2.4735
  143SOL     OW10017   3.342   2.125   0.323  0.1721 -0.0714  0.4058
  143SOL    HW110018   3.286   2.179   0.260 -0.1218 -1.1335 -0.2595
  143SOL    HW210019   3.429   2.102   0.280  0.0481 -0.6380  0.4448
  144SOL     OW10020   2.287   0.343   1.029  0.0138  0.1423  0.1792
  144SOL    HW110021   2.257   0.285   1.105 -1.0588  0.7942  0.2620
  144SOL    HW210022   2.310   0.285   0.951  0.8848 -0.5170  0.9169
  145SOL     OW10023   3.316   2.462   2.663 -0.1206 -0.1322 -0.4374
  145SOL    HW110024   3.353   2.428   2.576 -0.0103 -0.3047 -0.3229
  145SOL    HW210025   3.283   2.555   2.650  0.9501  0.2681 -0.3822
  146SOL     OW10026   3.710   1.123   1.393 -0.1461  0.4111  0.6980
  146SOL    HW110027   3.664   1.165   1.471 -0.1783 -0.0372  0.9247
  146SOL    HW210028   3.699   1.024   1.398 -0.0902  0.3771  0.1587
  147SOL     OW10029   3.139   2.148   2.526 -0.1025 -0.1256 -0.6491
  147SOL    HW110030   3.236   2.151   2.552 -0.2637  0.1730 -0.0697
  147SOL    HW210031   3.084   2.124   2.606 -0.6531  1.2756 -0.6014
  148SOL     OW10032   2.601   1.424   1.213 -0.2611  0.0066 -0.4960
  148SOL    HW110033   2.591   1.495   1.282 -0.9086 -0.3322 -0.2386
  148SOL    HW210034   2.675   1.362   1.239 -0.6554 -0.2521 -0.0002
  149SOL     OW10035   3.031   9.727   1.718 -0.4264 -0.5018  0.3400
  149SOL    HW110036   3.121   9.769   1.732 -0.5618 -0.0130 -0.2174
  149SOL    HW210037   2.960   9.797   1.731 -0.6860 -0.7177  0.0763
  150SOL     OW10038   3.360   8.958   0.714  0.5969  0.2381 -0.7885
  150SOL    HW110039   3.294   8.884   0.709  2.0578 -1.0406 -1.5349
  150SOL    HW210040   3.414   8.948   0.798 -0.0283  1.1859 -0.2613
  151SOL     OW10041   4.140   2.210   1.693  0.0807 -0.2807  0.3170
  151SOL    HW110042   4.213   2.154   1.730 -0.9262 -2.1611 -0.4805
  151SOL    HW210043   4.173   2.260   1.612  0.8706 -0.0029  0.8112
  152SOL     OW10044   3.058   0.901   2.301  0.3716  0.1048 -0.1288
  152SOL    HW110045   3.138   0.953   2.331 -0.1995  0.0663  1.5039
  152SOL    HW210046   3.086   0.809   2.274  0.7537 -0.2442  1.3967
  153SOL     OW10047   4.643   1.034   0.932  0.5388  0.2406 -0.0595
  153SOL    HW110048   4.730   1.003   0.892  0.4568  1.3476 -1.1118
  153SOL    HW210049   4.633   1.133   0.918 -1.1138  0.0421 -0.3659
  154SOL     OW10050   4.195   0.976   1.778 -0.6017 -0.2853 -0.0248
  154SOL    HW110051   4.237   1.000   1.865 -0.8056 -0.9613  0.2679
  154SOL    HW210052   4.159   1.058   1.734  0.0767  0.1465  0.2234
  155SOL     OW10053   4.043   1.870   2.256  0.2804 -0.3179 -0.1742
  155SOL    HW110054   4.140   1.889   2.270 -0.0039  1.5897 -0.5421
  155SOL    HW210055   4.007   1.820   2.334  1.8291 -2.1553 -0.6079
  156SOL     OW10056   2.256   9.016   0.963  0.3326  0.0114 -0.2203
  156SOL    HW110057   2.233   9.063   0.878 -0.7739  1.7055  0.9650
  156SOL    HW210058   2.171   8.987   1.008  0.7557  1.5685  1.6188
  157SOL     OW10059   2.442   1.724   0.578 -0.1166  0.0162  0.0360
  157SOL    HW110060   2.521   1.766   0.621  0.2122 -1.9999  1.5099
  157SOL    HW210061   2.359   1.753   0.625 -0.2048  1.6043 -1.0811
  158SOL     OW10062   2.456   9.419   2.651  0.2425  0.0441  0.0195
  158SOL    HW110063   2.506   9.505   2.647  2.3039 -1.0924  0.5779
  158SOL    HW210064   2.517   9.344   2.626 -0.3561 -1.7284  3.6325
  159SOL     OW10065   2.778   0.627   0.589  0.0836 -0.0972 -0.1376
  159SOL    HW110066   2.874   0.622   0.564  0.0025  0.9335 -0.7110
  159SOL    HW210067   2.750   0.542   0.634  1.5573  0.0537  1.1164
  160SOL     OW10068   3.292   0.533   0.867  0.2912 -0.3191  0.1549
  160SOL    HW110069   3.329   0.625   0.868  0.6649 -0.4362 -1.2211
  160SOL    HW210070   3.327   0.481   0.945  2.0924 -0.0658 -0.4733
  161SOL     OW10071   3.637   1.671   1.174 -0.4325  0.3166  0.2848
  161SOL    HW110072   3.737   1.673   1.168 -0.3610 -1.6910  0.6555
  161SOL    HW210073   3.600   1.750   1.125  1.2291 -0.3440 -2.1138
  162SOL     OW10074   3.772   9.099   2.559  0.2893 -0.3110  0.1438
  162SOL    HW110075   3.821   9.165   2.502 -3.8034  1.4597 -1.4805
  162SOL    HW210076   3.759   9.137   2.650 -0.2884  0.2565 -0.1768
  163SOL     OW10077   2.634   1.192   0.058 -0.2188  0.0047 -0.2235
  163SOL    HW110078   2.619   1.290   0.074 -0.3814 -0.1822  0.8489
  163SOL    HW210079   2.617   1.142   0.143 -1.2538 -1.0831 -1.0587
  164SOL     OW10080   2.528   9.536   0.321 -0.0295 -0.1040 -0.3886
  164SOL    HW110081   2.609   9.512   0.267  0.7388 -1.3121  1.2268
  164SOL    HW210082   2.446   9.523   0.266  0.8049 -0.0939 -1.6591
  165SOL     OW10083   2.739   0.521   2.646 -0.0261 -0.3085 -0.4796
  165SOL    HW110084   2.640   0.520   2.634 -0.0626 -0.6833 -0.1466
  165SOL    HW210085   2.762   0.484   2.736  0.3286  1.2200  0.0671
  166SOL     OW10086   3.560   9.065   2.366  0.5059 -0.4626 -0.2626
  166SOL    HW110087   3.642   9.073   2.423  0.4996  1.2987 -0.4455
  166SOL    HW210088   3.482   9.038   2.423  0.5148  1.2133  0.5914
  167SOL     OW10089   3.667   2.099   2.399 -1.0429 -0.1274  0.0726
  167SOL    HW110090   3.650   2.176   2.338 -0.6966  0.0485  0.1951
  167SOL    HW210091   3.721   2.131   2.478  0.4275 -0.8044 -0.6355
  168SOL     OW10092   3.460   9.439   1.099 -0.9698 -0.6307 -0.1454
  168SOL    HW110093   3.513   9.419   1.016 -2.7924 -0.5107 -1.3706
  168SOL    HW210094   3.425   9.532   1.093 -1.6973 -0.8722  0.4459
  169SOL     OW10095   2.852   8.844   0.367  0.0280 -0.0520  0.1387
  169SOL    HW110096   2.777   8.910   0.373 -1.4459 -1.8734  2.4743
  169SOL    HW210097   2.821   8.761   0.320  0.8452 -0.4695  0.3174
  170SOL     OW10098   2.987   0.429   2.566 -0.2525  0.1351  0.7862
  170SOL    HW110099   2.991   0.330   2.571 -0.8856 -0.0630 -1.7318
  170SOL    HW210100   2.891   0.459   2.567 -0.2480  0.4248 -1.8504
  171SOL     OW10101   4.217   0.691   2.107 -0.2797  0.0313  0.5798
  171SOL    HW110102   4.186   0.639   2.187  0.0709  0.8604  1.2649
  171SOL    HW210103   4.226   0.787   2.132 -2.1437  0.6572 -1.0037
  172SOL     OW10104   3.055   0.656   0.572 -0.0432 -0.3468 -0.6608
  172SOL    HW110105   3.141   0.665   0.521  0.4160  0.2791  0.2085
  172SOL    HW210106   3.049   0.565   0.612  0.4189 -0.2443 -0.3576
  173SOL     OW10107   4.062   0.018   0.230 -0.1205  0.1747  0.1201
  173SOL    HW110108   4.117  -0.066   0.223 -0.0248  0.2334  0.1608
  173SOL    HW210109   4.112   0.085   0.285 -0.0360  0.3904 -0.2227
  174SOL     OW10110   2.577   8.995   0.896  0.1537  0.3709  0.2540
  174SOL    HW110111   2.614   9.082   0.929  2.6664 -1.1276  1.5461
  174SOL    HW210112   2.494   8.974   0.947  0.3460  1.2910  0.9747
  175SOL     OW10113   3.363   1.154   0.577  1.1226  0.2831 -0.0963
  175SOL    HW110114   3.307   1.236   0.590 -0.1026 -0.6942  0.9077
  175SOL    HW210115   3.307   1.073   0.590  1.9998 -0.7448 -2.4783
  176SOL     OW10116   2.734   1.744   1.008 -0.2033 -0.3689  0.3556
  176SOL    HW110117   2.696   1.653   0.990  1.2774 -0.6451 -1.5431
  176SOL    HW210118   2.753   1.754   1.105 -0.9618 -1.8599  0.6652
  177SOL     OW10119   3.781   1.074   1.730  0.0711  0.3502 -0.1183
  177SOL    HW110120   3.815   0.985   1.760  0.1134  0.8439  1.3021
  177SOL    HW210121   3.681   1.071   1.725  0.0130  0.5222  0.8979
  178SOL     OW10122   3.380   1.338   0.339 -0.8078  0.2409 -0.1314
  178SOL    HW110123   3.314   1.361   0.266  0.9870  0.9695 -1.5680
  178SOL    HW210124   3.370   1.242   0.363 -3.9754  0.8554  1.3375
  179SOL     OW10125   3.508   1.890   2.109 -0.0229 -0.0255  0.7049
  179SOL    HW110126   3.427   1.871   2.164 -0.8011  4.0094  1.0948
  179SOL    HW210127   3.589   1.887   2.166 -0.4471  0.7685  1.3534
  180SOL     OW10128   3.940   0.822   1.757  0.2920  0.1429  0.3343
  180SOL    HW110129   4.023   0.858   1.799  0.9346 -0.7923 -0.1332
  180SOL    HW210130   3.949   0.824   1.657 -0.4737  0.5656  0.2677
  181SOL     OW10131   3.544   2.293   2.178  0.1110 -0.5127 -0.2385
  181SOL    HW110132   3.466   2.249   2.134  0.2274 -1.8082  0.8268
  181SOL    HW210133   3.620   2.298   2.113 -0.0384 -1.5212 -0.4910
  182SOL     OW10134   3.131   0.034   0.867  0.0323  0.1214  0.2783
  182SOL    HW110135   3.087   0.055   0.780  2.2555 -0.7272 -1.0911
  182SOL    HW210136   3.208   0.096   0.882  0.3554 -0.4589  1.1099
  183SOL     OW10137   2.727   8.637   0.192 -0.0836 -0.1292 -0.2310
  183SOL    HW110138   2.670   8.664   0.115 -2.2271 -0.9199  1.0272
  183SOL    HW210139   2.695   8.549   0.227 -0.1939  0.9815  2.5716
  184SOL     OW10140   2.761   9.467   0.234  0.4289 -0.7411  0.7744
  184SOL    HW110141   2.852   9.497   0.265  0.8763  0.2499 -1.4344
  184SOL    HW210142   2.762   9.453   0.135 -1.5540 -1.7841  0.8799
  185SOL     OW10143   3.399   1.504   2.124 -0.1421 -0.1739 -0.5187
  185SOL    HW110144   3.379   1.595   2.086 -0.8699  0.2301  0.8373
  185SOL    HW210145   3.493   1.479   2.100  0.9608  2.0553  1.2527
  186SOL     OW10146   3.337   9.886   2.657  0.1202 -0.3347  0.1472
  186SOL    HW110147   3.334   9.986   2.653 -0.4860 -0.3307  0.6680
  186SOL    HW210148   3.324   9.856   2.751 -1.8403 -0.9739 -0.2985
  187SOL     OW10149   3.039   1.117   0.260  0.5857  0.3479 -0.2056
  187SOL    HW110150   3.022   1.214   0.275 -0.3800 -0.1254  1.8268
  187SOL    HW210151   3.137   1.103   0.243  0.2530  2.0744 -4.0456
  188SOL     OW10152   2.406   1.279   0.527 -0.4403  0.0614 -0.0279
  188SOL    HW110153   2.371   1.224   0.452 -0.1132 -1.3427  0.8265
  188SOL    HW210154   2.432   1.219   0.603  0.1931  1.3733  0.8123
  189SOL     OW10155   3.863   1.644   0.403 -0.1439  0.2132  0.3977
  189SOL    HW110156   3.936   1.608   0.344  0.1335  0.0706  0.8297
  189SOL    HW210157   3.880   1.741   0.421 -0.4972  0.3820 -0.1636
  190SOL     OW10158   2.622   0.139   0.967  0.2708  0.4835  0.6529
  190SOL    HW110159   2.561   0.211   0.933 -1.5960  0.0764  2.9598
  190SOL    HW210160   2.638   0.153   1.065  0.8288 -1.5663  0.8752
  191SOL     OW10161   3.194   9.338   0.159  0.2294 -0.1659 -0.8146
  191SOL    HW110162   3.178   9.317   0.063  2.1458 -0.9110 -0.9960
  191SOL    HW210163   3.265   9.278   0.195  0.4833  1.0112  0.7040
  192SOL     OW10164   3.581   0.089   2.649 -0.7633  0.3101 -0.6978
  192SOL    HW110165   3.592  -0.003   2.611 -0.7093  0.8575 -2.0304
  192SOL    HW210166   3.503   0.134   2.606 -0.7362  0.9217 -0.1132
  193SOL     OW10167   3.769   1.369   0.392  0.4045 -0.8445  0.2482
  193SOL    HW110168   3.787   1.465   0.415 -0.2332 -1.0133  1.4508
  193SOL    HW210169   3.699   1.332   0.452 -0.2433 -1.7198 -1.0199
  194SOL     OW10170   2.655   0.632   1.169 -0.0632  0.0641  0.3245
  194SOL    HW110171   2.585   0.588   1.114  1.0170 -1.1549 -0.1170
  194SOL    HW210172   2.642   0.731   1.168 -0.7412 -0.0300 -1.1812
  195SOL     OW10173   2.344   9.767   0.472  0.0290  0.0046 -0.1821
  195SOL    HW110174   2.365   9.752   0.568 -3.5864  2.3523  1.0655
  195SOL    HW210175   2.325   9.680   0.428  0.8102 -0.9979  1.4269
  196SOL     OW10176   3.717   0.810   1.905 -0.5282  0.4085 -0.0833
  196SOL    HW110177   3.790   0.793   1.839  0.0886  0.0980  0.6677
  196SOL    HW210178   3.713   0.734   1.969 -0.0376  1.4605  1.2236
  197SOL     OW10179   2.346   9.268   0.955 -0.1366 -0.2149 -0.3831
  197SOL    HW110180   2.292   9.186   0.973  0.8982 -0.5527  1.2759
  197SOL    HW210181   2.384   9.302   1.040 -0.2671  1.8102 -1.1160
  198SOL     OW10182   4.205   0.709   0.601 -0.2610  0.6026 -0.5636
  198SOL    HW110183   4.290   0.704   0.550 -0.2472 -0.8008 -0.4014
  198SOL    HW210184   4.224   0.743   0.694  0.1980 -0.1982 -0.3593
  199SOL     OW10185   2.433   9.393   0.680 -0.1876  0.3192 -0.0136
  199SOL    HW110186   2.531   9.382   0.661 -0.1540 -0.8678  0.8164
  199SOL    HW210187   2.412   9.356   0.770 -1.0514  2.3883  0.6503
  200SOL     OW10188   3.845   1.546   2.171 -0.6929 -0.1750 -0.4050
  200SOL    HW110189   3.922   1.576   2.114  0.8026 -2.6299  0.2149
  200SOL    HW210190   3.854   1.587   2.262  0.0031 -0.5998 -0.2778
  201SOL     OW10191   4.169   0.517   0.903  0.1531 -0.5477 -0.3852
  201SOL    HW110192   4.241   0.466   0.950 -1.1626 -2.8264 -0.7920
  201SOL    HW210193   4.105   0.454   0.860 -0.7010  1.4647 -2.1993
  202SOL     OW10194   3.227   9.234   0.985  0.0946  0.0751  0.4600
  202SOL    HW110195   3.246   9.238   1.083  0.1151 -3.7160  0.6780
  202SOL    HW210196   3.313   9.223   0.935 -0.1306 -0.3899  0.1764
  203SOL     OW10197   2.759   0.959   0.606 -0.3640 -0.0994 -0.5828
  203SOL    HW110198   2.784   0.873   0.650  3.0231  1.1126  0.0768
  203SOL    HW210199   2.793   0.960   0.512  0.3266  0.8105 -0.3325
  204SOL     OW10200   4.200   9.896   1.938 -0.6375 -0.0008 -0.3912
  204SOL    HW110201   4.159   9.937   2.020  0.8922  1.2421 -0.2142
  204SOL    HW210202   4.253   9.965   1.889 -1.2156 -0.8313 -2.2379
  205SOL     OW10203   3.104   0.644   2.301 -0.3139  0.4307 -0.4650
  205SOL    HW110204   3.006   0.637   2.286 -0.8118  0.7074  2.3710
  205SOL    HW210205   3.141   0.556   2.330 -0.1718  0.8892  0.7854
  206SOL     OW10206   3.012   9.883   1.441  0.0405 -0.2087 -0.2099
  206SOL    HW110207   3.019   9.859   1.538  0.6888 -0.7652 -0.3999
  206SOL    HW210208   3.062   9.968   1.424  1.8321 -1.2880 -0.4858
  207SOL     OW10209   4.130   0.223   0.387 -0.0540  0.2819  0.1846
  207SOL    HW110210   4.065   0.299   0.374 -1.7356 -1.3712 -1.3018
  207SOL    HW210211   4.204   0.253   0.446 -1.6512  2.5417  1.1097
  208SOL     OW10212   2.831   0.520   0.977 -0.3286  0.3058  0.2237
  208SOL    HW110213   2.912   0.571   0.947 -0.4448  0.6157  0.4298
  208SOL    HW210214   2.782   0.574   1.046 -0.0007 -0.4458  1.0535
  209SOL     OW10215   2.874   9.400   1.247 -0.4163 -0.4197  0.8024
  209SOL    HW110216   2.936   9.355   1.311 -1.0417  0.7311  2.2458
  209SOL    HW210217   2.869   9.497   1.269 -0.7984 -0.0470 -0.8845
  210SOL     OW10218   3.199   0.939   1.000 -0.1809  0.4123  0.0311
  210SOL    HW110219   3.201   0.930   1.100 -3.1125 -2.3587 -0.0922
  210SOL    HW210220   3.137   1.013   0.974 -1.3653 -0.4976  0.2261
  211SOL     OW10221   2.710   1.344   0.453 -0.5466  0.5009  0.2712
  211SOL    HW110222   2.677   1.283   0.526  1.0589  0.5693  1.0656
  211SOL    HW210223   2.645   1.419   0.440 -1.9481 -0.7215  0.1022
  212SOL     OW10224   3.959   0.586   0.604 -0.0018 -0.4544  0.2872
  212SOL    HW110225   4.050   0.624   0.625  0.1819 -1.3125  1.0915
  212SOL    HW210226   3.892   0.623   0.668 -0.6105  1.7523 -1.5896
  213SOL     OW10227   3.728   2.313   1.976 -0.4858 -0.5823  0.7390
  213SOL    HW110228   3.820   2.351   1.984 -0.8889  0.2565  1.3708
  213SOL    HW210229   3.711   2.286   1.881 -0.6273  1.8830  0.0461
  214SOL     OW10230   2.469   0.324   1.489 -0.3184 -0.1981 -0.1542
  214SOL    HW110231   2.424   0.299   1.403  0.2389 -0.0572 -0.4903
  214SOL    HW210232   2.553   0.374   1.469  0.7482 -1.7160  0.4254
  215SOL     OW10233   3.195   0.408   2.388 -0.7258  0.4168 -0.3300
  215SOL    HW110234   3.137   0.400   2.469 -1.8295 -1.9220 -1.2999
  215SOL    HW210235   3.286   0.373   2.409 -1.4637 -1.6761 -0.5089
  216SOL     OW10236   2.564   1.451   0.123 -0.1325  0.1219  0.6360
  216SOL    HW110237   2.501   1.477   0.196 -2.2199  0.2664 -1.1649
  216SOL    HW210238   2.631   1.524   0.110 -2.1891  1.8933 -0.2457
  217SOL     OW10239   2.890   0.980   2.523 -0.6355  0.3889 -0.0170
  217SOL    HW110240   2.873   0.892   2.567 -0.7294  0.3982 -0.0336
  217SOL    HW210241   2.957   0.969   2.450  1.3139  0.8038  1.6650
  218SOL     OW10242   2.346   9.806   0.171 -0.6757  0.3620  0.3691
  218SOL    HW110243   2.436   9.817   0.212 -0.0253  2.1424 -1.4544
  218SOL    HW210244   2.281   9.867   0.218 -0.6387  0.0646  0.8085
  219SOL     OW10245   2.606   0.204   1.213  0.3657  0.7419 -0.0760
  219SOL    HW110246   2.602   0.303   1.230  2.4648  0.6944  0.7582
  219SOL    HW210247   2.678   0.163   1.269 -2.0176 -1.6596  1.3190
  220SOL     OW10248   2.987   0.238   0.164 -0.5666  0.1765 -0.2406
  220SOL    HW110249   3.070   0.285   0.193 -1.0218  1.2590 -0.6435
  220SOL    HW210250   2.907   0.293   0.192 -1.1686 -1.1443  0.6916
  221SOL     OW10251   3.123   9.229   2.591 -0.4753  0.0584 -0.1245
  221SOL    HW110252   3.036   9.181   2.590  0.2071 -1.1959 -0.3705
  221SOL    HW210253   3.120   9.307   2.529 -1.2769 -0.2402 -0.4522
  222SOL     OW10254   2.981   0.839   0.767 -0.7106 -0.4393  0.0146
  222SOL    HW110255   3.023   0.769   0.708 -1.3827  0.5363 -1.6419
  222SOL    HW210256   2.990   0.811   0.863  1.1833 -1.6266 -0.4785
  223SOL     OW10257   3.880   0.796   2.254 -0.1187  0.3470 -0.3349
  223SOL    HW110258   3.961   0.829   2.206 -0.3746  0.7629 -0.4860
  223SOL    HW210259   3.871   0.844   2.341  0.1113 -0.1063 -0.0586
  224SOL     OW10260   3.862   9.382   0.015 -0.0506  0.4521 -0.5443
  224SOL    HW110261   3.786   9.325   0.048  1.2897 -0.5373  0.8829
  224SOL    HW210262   3.868   9.374  -0.085 -0.6223 -0.9698 -0.4750
  225SOL     OW10263   3.539   8.943   0.928 -0.0189 -0.3371 -0.5477
  225SOL    HW110264   3.507   8.928   1.021 -0.4665 -0.2601 -0.6894
  225SOL    HW210265   3.628   8.989   0.930 -1.0301  1.6771 -0.1829
  226SOL     OW10266   2.536   1.099   1.510  0.1815  0.4737  0.0326
  226SOL    HW110267   2.466   1.040   1.551  0.1600  0.7158  0.3367
  226SOL    HW210268   2.492   1.174   1.461  0.2603  1.1749  1.0460
  227SOL     OW10269   2.209   1.476   2.271  0.3756  0.3470  0.4085
  227SOL    HW110270   2.136   1.502   2.334 -0.2221  0.0569 -0.1615
  227SOL    HW210271   2.281   1.427   2.320  0.0744  0.4241  0.9214
  228SOL     OW10272   3.326   9.861   0.265 -0.2912 -0.1967 -0.1082
  228SOL    HW110273   3.355   9.956   0.263  0.7065 -0.4486  1.4363
  228SOL    HW210274   3.371   9.814   0.341 -0.1711 -2.0943 -1.3211
  229SOL     OW10275   3.800   9.188   1.505 -0.5187 -0.0047 -0.2048
  229SOL    HW110276   3.890   9.153   1.529 -1.4703 -1.2902  1.6735
  229SOL    HW210277   3.801   9.225   1.412  1.2977 -2.2722 -1.1176
  230SOL     OW10278   3.383   0.780   0.852  0.4998 -0.1082  0.8380
  230SOL    HW110279   3.479   0.797   0.873  0.6567  1.3360 -0.8835
  230SOL    HW210280   3.327   0.855   0.887  0.2299 -0.0189  0.2364
  231SOL     OW10281   2.865   9.972   1.700  0.2256 -0.1896  0.4708
  231SOL    HW110282   2.774   9.934   1.715 -0.4496  1.1718 -0.0317
  231SOL    HW210283   2.858  10.071   1.687  2.0207  0.2578  2.5497
  232SOL     OW10284   3.239   1.254   1.523 -0.9127 -0.8880 -0.2278
  232SOL    HW110285   3.250   1.213   1.613 -2.5525 -1.2157 -0.1742
  232SOL    HW210286   3.205   1.348   1.533  2.1614  0.3094 -0.3799
  233SOL     OW10287   3.940   0.677   2.623  0.1977  0.1141 -0.1023
  233SOL    HW110288   3.938   0.617   2.543  0.7169  1.2225 -0.9633
  233SOL    HW210289   3.984   0.763   2.598 -0.2574  0.7286  1.2054
  234SOL     OW10290   3.627   9.362   0.892 -0.7358  0.0997  0.1128
  234SOL    HW110291   3.668   9.287   0.944 -1.5702  0.5371  1.4256
  234SOL    HW210292   3.699   9.423   0.859 -0.1624 -0.4669  0.3012
  235SOL     OW10293   3.063   0.652   0.956  0.0429 -0.6943 -0.1702
  235SOL    HW110294   3.104   0.722   1.014  0.2876 -0.3475 -0.7574
  235SOL    HW210295   3.134   0.591   0.923 -0.1716 -1.2357  0.3527
  236SOL     OW10296   3.963   1.651   2.441 -0.0760 -0.1390 -0.3670
  236SOL    HW110297   3.892   1.677   2.506 -1.1657 -1.7480 -0.8769
  236SOL    HW210298   4.041   1.612   2.490  0.7338  2.1642  0.2409
  237SOL     OW10299   4.322   0.472   0.397 -0.2616 -0.2872 -0.3351
  237SOL    HW110300   4.306   0.451   0.300 -1.0903 -0.1442 -0.2337
  237SOL    HW210301   4.234   0.486   0.443  0.0825 -1.4044  0.6823
  238SOL     OW10302   3.680   0.410   0.342  0.6620  0.0378 -0.2999
  238SOL    HW110303   3.702   0.342   0.272 -1.6955  0.6410 -1.6621
  238SOL    HW210304   3.704   0.501   0.309  0.2378  0.2550 -0.0163
  239SOL     OW10305   2.626   1.428   2.372 -0.1723 -0.1851 -0.5400
  239SOL    HW110306   2.692   1.502   2.358 -0.6914  0.2818 -0.5632
  239SOL    HW210307   2.674   1.344   2.395  0.4893 -0.1397 -1.7619
  240SOL     OW10308   2.798   0.435   0.249 -0.0756 -0.1899 -0.1657
  240SOL    HW110309   2.740   0.396   0.320  1.2718 -0.2493  0.9136
  240SOL    HW210310   2.784   0.534   0.245 -0.4535 -0.2415 -0.0901
  241SOL     OW10311   2.472   0.697   1.973 -0.2404 -0.5557 -0.2981
  241SOL    HW110312   2.423   0.773   1.931  0.8222 -0.0283 -0.5969
  241SOL    HW210313   2.527   0.651   1.904  0.3360 -0.6233  0.2026
  242SOL     OW10314   3.098   0.407   0.680 -0.5551  0.0691 -0.7940
  242SOL    HW110315   3.120   0.395   0.777 -0.2359  0.4003 -0.8242
  242SOL    HW210316   3.077   0.317   0.639 -2.3738  0.1114 -0.0258
  243SOL     OW10317   3.408   9.189   0.239 -0.0952 -0.2652  0.4489
  243SOL    HW110318   3.413   9.104   0.187 -0.9963 -0.2422  0.3190
  243SOL    HW210319   3.431   9.171   0.335 -1.1411 -0.8220  0.5996
  244SOL     OW10320   3.846   8.652   1.649  0.4280 -0.1553 -0.4113
  244SOL    HW110321   3.891   8.723   1.704 -0.3396  0.4665 -0.5902
  244SOL    HW210322   3.793   8.592   1.710  0.7643 -0.3472 -0.3056
  245SOL     OW10323   3.678   1.882   0.627 -0.0659 -0.0660 -0.1908
  245SOL    HW110324   3.582   1.894   0.602 -0.3197 -0.5975  0.5102
  245SOL    HW210325   3.733   1.869   0.544 -0.5803  0.3447 -0.5997
  246SOL     OW10326   4.247   0.793   0.864  0.1326 -0.3418  0.2649
  246SOL    HW110327   4.193   0.856   0.921  2.4401 -0.4667  2.7143
  246SOL    HW210328   4.242   0.701   0.903  0.7664 -0.6822 -0.4523
  247SOL     OW10329   4.462   0.910   0.418 -0.3036 -0.8771 -0.2336
  247SOL    HW110330   4.481   0.966   0.499 -2.8413 -0.6990  0.2564
  247SOL    HW210331   4.506   0.820   0.429 -2.0298 -1.4853  2.1455
  248SOL     OW10332   3.362   0.204   0.868 -0.9117  0.3087  0.0698
  248SOL    HW110333   3.390   0.181   0.775 -2.2018  1.4508 -0.6207
  248SOL    HW210334   3.439   0.244   0.918  0.2898 -1.9406  0.0811
  249SOL     OW10335   2.588   1.630   1.404 -0.9011 -0.1182 -0.0648
  249SOL    HW110336   2.547   1.676   1.482 -3.3119 -1.6286 -0.3954
  249SOL    HW210337   2.661   1.687   1.365 -0.1317  0.9339  2.8363
  250SOL     OW10338   2.625   0.913   1.111 -0.1799  0.5304  0.4064
  250SOL    HW110339   2.542   0.952   1.071 -1.0946  0.2860  1.9949
  250SOL    HW210340   2.702   0.976   1.097 -0.4954  0.4779 -1.6102
  251SOL     OW10341   2.018   0.235   0.331  0.0702  0.1139 -0.4512
  251SOL    HW110342   1.934   0.222   0.382  1.1057 -0.9952  1.0260
  251SOL    HW210343   2.044   0.331   0.332 -0.1027  0.1461  0.8098
  252SOL     OW10344   3.479   0.134   1.188  0.2761 -0.2119 -0.5206
  252SOL    HW110345   3.464   0.229   1.162  0.3535 -0.2264 -0.6183
  252SOL    HW210346   3.400   0.079   1.160  0.5703 -0.3128 -1.1621
  253SOL     OW10347   2.322   1.341   0.009  0.2196 -0.3118 -0.1164
  253SOL    HW110348   2.320   1.327  -0.090 -0.1129  1.5267 -0.3974
  253SOL    HW210349   2.409   1.383   0.035  1.1787 -2.7158  0.6768
  254SOL     OW10350   3.356   0.212   2.579 -0.4431 -0.2204 -0.2412
  254SOL    HW110351   3.264   0.184   2.605 -0.4026  0.7516  0.9992
  254SOL    HW210352   3.383   0.292   2.633  0.0924  1.1572 -2.4914
  255SOL     OW10353   3.255   9.257   1.254 -0.1677 -0.4824  0.5763
  255SOL    HW110354   3.334   9.198   1.276  1.5151 -0.3568 -4.3910
  255SOL    HW210355   3.277   9.351   1.277  0.6159 -0.6378  0.4981
  256SOL     OW10356   3.299   1.040   0.209 -0.1202 -0.2581 -0.2447
  256SOL    HW110357   3.359   0.994   0.142  0.0488  0.3413 -0.5127
  256SOL    HW210358   3.315   1.002   0.300 -0.1642 -0.9048 -0.5066
  257SOL     OW10359   3.500   9.141   1.350  0.1512  0.2749 -0.0548
  257SOL    HW110360   3.501   9.240   1.338 -1.3740  0.4029  0.7619
  257SOL    HW210361   3.524   9.118   1.444 -1.1750 -0.0357  0.2142
  258SOL     OW10362   2.103   0.511   0.309  0.2307  0.2320  0.5822
  258SOL    HW110363   2.186   0.561   0.287 -0.8150  1.6419 -0.2287
  258SOL    HW210364   2.043   0.508   0.228  0.6341 -3.1014  0.3170
  259SOL     OW10365   3.101   9.181   0.579 -0.1716  0.1296 -0.5089
  259SOL    HW110366   3.059   9.207   0.492  0.0507 -0.6332 -0.8548
  259SOL    HW210367   3.201   9.178   0.568 -0.1978 -1.0361 -0.5444
  260SOL     OW10368   3.381   0.861   0.018  0.2891  0.3020 -0.4680
  260SOL    HW110369   3.446   0.811  -0.040  0.1788 -0.7956  0.3323
  260SOL    HW210370   3.288   0.849  -0.018  0.1508 -0.8519  0.2305
  261SOL     OW10371   3.549   9.134   1.649 -0.2748 -0.6247 -0.4388
  261SOL    HW110372   3.563   9.062   1.716 -1.2985  1.5213  2.1809
  261SOL    HW210373   3.634   9.152   1.601  0.6873 -1.6404  0.8598
  262SOL     OW10374   2.785   9.657   1.864  0.2330 -0.6701  0.2104
  262SOL    HW110375   2.838   9.608   1.794 -0.3151  1.2548 -1.5900
  262SOL    HW210376   2.724   9.722   1.820 -0.6980  0.0329  2.4776
  263SOL     OW10377   2.938   1.493   1.220  0.0186 -0.0428 -0.5713
  263SOL    HW110378   2.917   1.414   1.277  1.6631  0.3011  0.5655
  263SOL    HW210379   2.996   1.465   1.144 -1.5330 -0.3631 -1.6628
  264SOL     OW10380   4.213   2.503   1.972 -0.4666  0.1532  0.2639
  264SOL    HW110381   4.292   2.442   1.963  0.4572  1.1222  1.5947
  264SOL    HW210382   4.212   2.569   1.897  0.4868  0.6809  0.7039
  265SOL     OW10383   2.803   9.413   2.653 -0.1510  0.4881 -0.1277
  265SOL    HW110384   2.876   9.414   2.586  2.0686 -2.1132  2.1391
  265SOL    HW210385   2.740   9.338   2.633  0.1669  0.1002  0.3116
  266SOL     OW10386   3.633   9.847   2.284  0.0406 -0.0370 -0.3194
  266SOL    HW110387   3.568   9.775   2.258  2.1549 -1.9703 -0.4260
  266SOL    HW210388   3.634   9.857   2.383  1.2215 -1.6438 -0.1443
  267SOL     OW10389   2.394   1.319   2.416  0.3154  0.2142 -0.4283
  267SOL    HW110390   2.399   1.233   2.366  3.4260  0.8432 -1.2884
  267SOL    HW210391   2.476   1.373   2.398 -1.8639  3.6771 -0.4399
  268SOL     OW10392   2.606   9.374   1.134  0.5445  0.1406  0.0061
  268SOL    HW110393   2.665   9.400   1.211  1.9066  0.3323 -1.0792
  268SOL    HW210394   2.661   9.330   1.063 -1.0351 -1.8092 -0.0440
  269SOL     OW10395   3.661   1.516   0.175  0.2854 -0.3458 -0.6793
  269SOL    HW110396   3.598   1.471   0.112 -0.2985  0.8688 -0.9905
  269SOL    HW210397   3.698   1.449   0.239  0.3755 -1.4718 -1.8900
  270SOL     OW10398   3.138   0.770   2.570  0.0090 -0.2980  0.4982
  270SOL    HW110399   3.059   0.758   2.631 -0.0209 -0.2072  0.4776
  270SOL    HW210400   3.113   0.741   2.478 -0.2459  0.4623  0.3200
  271SOL     OW10401   2.432   0.325   0.296  0.8780 -0.0695  0.0305
  271SOL    HW110402   2.411   0.421   0.275 -1.4397 -0.9688 -2.1262
  271SOL    HW210403   2.427   0.272   0.211 -2.1405 -2.8025  1.8151
  272SOL     OW10404   3.790   1.336   1.648  0.1092  0.0030  0.1693
  272SOL    HW110405   3.697   1.372   1.641 -0.1364 -0.7054 -0.3408
  272SOL    HW210406   3.785   1.237   1.667  0.7483 -0.1698 -0.5630
  273SOL     OW10407   2.978   9.279   0.330 -0.0070 -0.2451 -0.0199
  273SOL    HW110408   3.050   9.323   0.276 -0.6704 -0.6982 -1.3080
  273SOL    HW210409   2.906   9.346   0.350  1.2770  0.5117  2.2526
  274SOL     OW10410   2.793   0.225   1.820 -0.4881 -0.2221  0.2303
  274SOL    HW110411   2.883   0.267   1.826 -0.8676  0.5434  0.7431
  274SOL    HW210412   2.753   0.220   1.912 -1.1463 -0.1357 -0.0452
  275SOL     OW10413   2.981   1.378   0.403  0.2303  0.0846 -0.1075
  275SOL    HW110414   3.034   1.357   0.485 -0.5393  1.4618  0.7829
  275SOL    HW210415   2.886   1.349   0.417 -0.1531  1.3388 -0.0480
  276SOL     OW10416   3.466   0.093   0.221  0.2570  0.3409  0.0984
  276SOL    HW110417   3.531   0.124   0.291  1.9938 -0.3889 -1.1578
  276SOL    HW210418   3.515   0.076   0.136 -1.1349 -2.7701 -0.1487
  277SOL     OW10419   3.255   9.943   0.551 -0.9200  0.2596  0.3338
  277SOL    HW110420   3.341   9.913   0.593 -0.9839  1.4158  1.3280
  277SOL    HW210421   3.190   9.868   0.550  0.6045 -1.0809 -1.8081
  278SOL     OW10422   2.815   1.234   2.524  0.7049  0.4283  0.3130
  278SOL    HW110423   2.752   1.246   2.601  1.1539  0.4032  0.6841
  278SOL    HW210424   2.833   1.137   2.511 -1.2321  0.2565 -1.3279
  279SOL     OW10425   3.208   2.392   1.755 -0.3548 -0.2483  0.5383
  279SOL    HW110426   3.158   2.348   1.829 -0.0741  0.0249  0.8888
  279SOL    HW210427   3.210   2.491   1.769 -1.2341 -0.0813 -0.3987
  280SOL     OW10428   2.191   1.093   0.015 -0.4599  0.3358  0.2790
  280SOL    HW110429   2.260   1.166   0.013 -0.6247  0.4931  0.3208
  280SOL    HW210430   2.101   1.133   0.031 -0.5889  0.1492  0.0171
  281SOL     OW10431   2.785   0.121   1.402 -0.2444  0.0760 -0.1105
  281SOL    HW110432   2.858   0.055   1.421 -0.8889 -0.7527 -0.5017
  281SOL    HW210433   2.729   0.132   1.484 -0.8267 -0.7348 -0.3954
  282SOL     OW10434   3.415   2.395   0.746  0.1167  0.0818 -0.4280
  282SOL    HW110435   3.472   2.473   0.774  0.3407  0.0673 -0.8350
  282SOL    HW210436   3.354   2.369   0.821 -0.0850  0.7636 -0.3562
  283SOL     OW10437   2.526   0.257   2.210  0.5212 -0.1831  0.1753
  283SOL    HW110438   2.538   0.239   2.308 -0.3146  0.4782  0.4088
  283SOL    HW210439   2.499   0.353   2.197 -1.6025 -0.8317 -0.5126
  284SOL     OW10440   3.120   1.799   1.814 -0.2270  0.0991 -0.0061
  284SOL    HW110441   3.046   1.791   1.747 -0.0454 -0.3922 -0.1519
  284SOL    HW210442   3.091   1.757   1.900 -0.5126  0.8546  0.2669
  285SOL     OW10443   4.147   0.961   2.211  0.2110  0.4893 -0.0221
  285SOL    HW110444   4.209   1.006   2.147 -0.0743  1.1174  0.1277
  285SOL    HW210445   4.080   1.028   2.244  0.5491  0.2562  1.1795
  286SOL     OW10446   2.934   1.379   2.302  0.1748  0.2809  0.0486
  286SOL    HW110447   2.971   1.308   2.243 -1.0358 -0.3908  0.0744
  286SOL    HW210448   2.908   1.340   2.390  0.0660  0.8683  0.2827
  287SOL     OW10449   3.519   0.495   2.464 -0.2348 -0.1550  0.0023
  287SOL    HW110450   3.580   0.417   2.452 -0.6412 -0.3832 -0.6056
  287SOL    HW210451   3.471   0.485   2.552 -1.4781 -1.4383 -0.7881
  288SOL     OW10452   2.384   0.291   1.773  0.0490  0.3515  0.0401
  288SOL    HW110453   2.408   0.287   1.676  0.6803 -2.5903  0.2640
  288SOL    HW210454   2.430   0.368   1.816  1.8108  0.1843 -1.4840
  289SOL     OW10455   4.061   0.034   2.583  0.1983  0.7119 -0.4727
  289SOL    HW110456   4.030   0.094   2.657  0.7034  1.5251 -0.9118
  289SOL    HW210457   4.129  -0.030   2.618  2.1618  2.6100 -0.7063
  290SOL     OW10458   3.083   0.138   0.612 -0.2687  0.0488  0.4476
  290SOL    HW110459   3.165   0.086   0.584  0.3962  1.9529 -1.1853
  290SOL    HW210460   3.002   0.096   0.572  0.4059  1.1008 -2.0924
  291SOL     OW10461   4.648   1.431   2.244 -0.0592 -0.0554 -0.0832
  291SOL    HW110462   4.600   1.458   2.328 -0.2061  0.6607 -0.3973
  291SOL    HW210463   4.746   1.424   2.263 -0.3854 -2.6891  0.8681
  292SOL     OW10464   3.713   9.174   1.070  0.6550 -0.3161 -0.0405
  292SOL    HW110465   3.756   9.224   1.145 -0.7650  0.2840  0.3708
  292SOL    HW210466   3.725   9.075   1.085  1.1185 -0.1756  0.5205
  293SOL     OW10467   4.065   0.943   1.029 -0.4272 -0.0095  0.0670
  293SOL    HW110468   4.098   0.908   1.117  1.6518  1.5316 -0.0497
  293SOL    HW210469   3.977   0.989   1.043 -0.9076 -1.1736  1.0325
  294SOL     OW10470   3.209   9.969   1.134 -0.1422  0.2261  0.0654
  294SOL    HW110471   3.227   9.871   1.122 -0.3503 -0.0155  1.6434
  294SOL    HW210472   3.157  10.003   1.056 -0.2027 -0.9553 -0.4181
  295SOL     OW10473   2.607   1.092   0.318 -0.1624  0.0637 -0.4596
  295SOL    HW110474   2.686   1.038   0.345 -0.2738  0.4416  0.6491
  295SOL    HW210475   2.624   1.188   0.336 -0.4618  0.2693 -1.2317
  296SOL     OW10476   2.252   9.992   2.265 -0.3551  0.4001 -0.6465
  296SOL    HW110477   2.251  10.091   2.250 -1.2545  0.2292 -1.7637
  296SOL    HW210478   2.225   9.973   2.360  1.2397  1.2823 -0.0012
  297SOL     OW10479   3.730   1.878   2.252  0.1757 -0.5720 -0.5368
  297SOL    HW110480   3.823   1.899   2.223 -0.2516 -0.4369 -1.8343
  297SOL    HW210481   3.695   1.952   2.310  1.1773 -1.0395  0.6944
  298SOL     OW10482   3.446   0.385   0.653  0.3354 -0.1720 -0.1001
  298SOL    HW110483   3.377   0.428   0.712  1.5137  1.5139  0.0562
  298SOL    HW210484   3.449   0.432   0.565  0.0347 -1.3996 -0.7856
  299SOL     OW10485   3.092   0.146   2.601 -0.0909  0.0217 -1.0460
  299SOL    HW110486   3.056   0.199   2.678 -0.0900 -0.3527 -0.7890
  299SOL    HW210487   3.045   0.058   2.596  0.3980 -0.2369 -1.0590
  300SOL     OW10488   2.801   1.925   1.529  0.1271  0.5781  0.3559
  300SOL    HW110489   2.705   1.928   1.556 -0.0262 -0.8497  0.0282
  300SOL    HW210490   2.827   2.012   1.487 -1.2572  0.6677 -0.3339
  301SOL     OW10491   4.108   1.170   1.393 -0.1046 -0.3327  0.2050
  301SOL    HW110492   4.203   1.155   1.364  0.3617  1.8478  0.5070
  301SOL    HW210493   4.058   1.216   1.319  0.1776  2.1451  1.5032
  302SOL     OW10494   3.515   1.527   0.477  0.6679  0.5388  0.0260
  302SOL    HW110495   3.472   1.443   0.444  1.1776  0.2486  0.0953
  302SOL    HW210496   3.495   1.602   0.413 -1.7965  0.9441  1.1814
  303SOL     OW10497   4.151   9.758   0.155  0.1165  0.1650 -0.3769
  303SOL    HW110498   4.165   9.700   0.235  0.2698  1.3471  0.4645
  303SOL    HW210499   4.122   9.701   0.078  0.1707 -1.0131  0.4503
  304SOL     OW10500   3.173   2.300   0.159  0.7060 -0.2393  0.1664
  304SOL    HW110501   3.228   2.344   0.088  0.0600 -1.4834 -1.1242
  304SOL    HW210502   3.126   2.371   0.212 -0.8763  0.6798 -2.3225
  305SOL     OW10503   3.485   9.136   0.548  0.4920 -0.2308  0.3327
  305SOL    HW110504   3.442   9.064   0.603 -0.9944  1.5351  1.5756
  305SOL    HW210505   3.493   9.219   0.604 -1.2899  1.7003 -2.1795
  306SOL     OW10506   2.242   0.372   0.496  0.2774 -0.4715 -0.4963
  306SOL    HW110507   2.331   0.352   0.455  0.8255 -1.2187  1.0221
  306SOL    HW210508   2.191   0.432   0.435  1.9343  0.2083 -1.2621
  307SOL     OW10509   3.353   0.377   1.123  0.0559 -0.4528 -0.1943
  307SOL    HW110510   3.264   0.331   1.124  0.2085 -0.7429  0.1213
  307SOL    HW210511   3.356   0.444   1.198 -0.2545  0.2500 -0.7946
  308SOL     OW10512   2.737   9.291   0.892  0.1149 -0.1062 -0.1095
  308SOL    HW110513   2.835   9.280   0.878  0.1973  1.2579 -0.6787
  308SOL    HW210514   2.712   9.388   0.882 -0.8089  0.0286  2.9711
  309SOL     OW10515   2.972   9.403   2.426  0.1369 -0.3880  0.0123
  309SOL    HW110516   2.927   9.333   2.371  0.9866 -0.3414 -0.7649
  309SOL    HW210517   3.004   9.477   2.366 -0.3899  0.4586  0.7798
  310SOL     OW10518   3.005   9.233   0.830  0.3981 -0.0818 -0.2687
  310SOL    HW110519   3.081   9.226   0.895  1.3452 -2.1939 -1.5596
  310SOL    HW210520   3.033   9.198   0.741 -1.4562  1.0893 -1.3638
  311SOL     OW10521   2.959   2.130   1.405  0.0985  0.1813 -0.3243
  311SOL    HW110522   2.988   2.092   1.318  3.4977 -2.6698  1.8918
  311SOL    HW210523   3.003   2.220   1.418  1.8298 -0.6268 -0.4019
  312SOL     OW10524   2.361   0.146   1.271  0.0226 -0.6397  0.3072
  312SOL    HW110525   2.449   0.152   1.223 -1.4007 -0.3757 -2.3929
  312SOL    HW210526   2.356   0.060   1.321  2.1099 -0.3161  1.1066
  313SOL     OW10527   4.323   1.026   2.009  0.0843 -0.1106 -0.2048
  313SOL    HW110528   4.312   1.095   2.081 -1.3525 -2.6696  2.1303
  313SOL    HW210529   4.418   1.024   1.980  0.6253  1.2146  1.3712
  314SOL     OW10530   2.509   1.860   1.606  0.2257  0.4364  0.0152
  314SOL    HW110531   2.510   1.806   1.690  2.7451  0.5139  0.0779
  314SOL    HW210532   2.421   1.907   1.597 -0.8656 -1.2725  1.4894
  315SOL     OW10533   3.558   9.132   2.107  0.1994  0.0297 -0.2810
  315SOL    HW110534   3.513   9.219   2.125  1.6055  0.5734  0.7448
  315SOL    HW210535   3.553   9.074   2.188  0.9309 -0.0723 -0.2990
  316SOL     OW10536   3.251   0.921   0.643 -0.2256 -0.7763  0.2779
  316SOL    HW110537   3.154   0.903   0.624 -1.1958  1.6835  2.6204
  316SOL    HW210538   3.278   0.874   0.727 -0.5346  1.7361  1.8419
  317SOL     OW10539   2.522   1.754   1.856  0.1645 -0.8054 -0.4135
  317SOL    HW110540   2.528   1.656   1.872  1.7384 -0.5497  0.8308
  317SOL    HW210541   2.563   1.802   1.934  0.6968  0.7824 -1.6446
  318SOL     OW10542   2.401   9.996   1.861  0.0152 -0.1480 -0.3526
  318SOL    HW110543   2.342  10.010   1.941 -2.4012 -1.1846 -1.8948
  318SOL    HW210544   2.393  10.075   1.800  1.0602  0.1757 -0.0830
  319SOL     OW10545   3.243   0.042   2.373 -0.1482 -0.3846 -0.1892
  319SOL    HW110546   3.202   0.080   2.456 -0.8783 -2.5349  0.4493
  319SOL    HW210547   3.181  -0.023   2.331  1.3625 -1.4332 -0.8580
  320SOL     OW10548   3.698   2.424   2.610  0.0820  0.5047  0.3275
  320SOL    HW110549   3.771   2.415   2.543 -0.6648  0.4142 -0.4864
  320SOL    HW210550   3.615   2.458   2.565 -0.1523  1.3855  1.3840
  321SOL     OW10551   3.873   1.162   0.222  0.9167 -0.1592 -0.2763
  321SOL    HW110552   3.854   1.192   0.129 -0.9293 -1.9755 -0.5034
  321SOL    HW210553   3.861   1.239   0.285  0.1800  0.5600 -1.2860
  322SOL     OW10554   3.686   0.757   1.493 -0.4407  0.2949 -0.2852
  322SOL    HW110555   3.598   0.804   1.480 -0.2871  0.5493 -0.4170
  322SOL    HW210556   3.670   0.659   1.500 -0.6360  0.2295 -1.4865
  323SOL     OW10557   3.705   1.589   0.658 -0.3011  0.1898  0.0442
  323SOL    HW110558   3.653   1.559   0.578  2.5993  0.7733 -2.1396
  323SOL    HW210559   3.694   1.687   0.671  0.5290  0.3736 -0.6324
  324SOL     OW10560   3.506   0.093   2.290  0.2958 -0.0219 -0.3145
  324SOL    HW110561   3.411   0.086   2.317  0.3713  0.2946  0.0303
  324SOL    HW210562   3.543   0.001   2.274  0.3672 -0.2311  1.0295
  325SOL     OW10563   4.160   0.846   2.472  0.1145  0.1022 -0.2343
  325SOL    HW110564   4.142   0.883   2.381 -0.6215  0.3479  0.0057
  325SOL    HW210565   4.202   0.755   2.464 -0.7735 -0.2619 -0.8092
  326SOL     OW10566   2.510   0.773   0.384 -0.0379  0.0502 -0.9634
  326SOL    HW110567   2.472   0.865   0.376 -0.2377  0.1851  1.4054
  326SOL    HW210568   2.490   0.735   0.474 -1.5472 -3.0592 -2.5014
  327SOL     OW10569   2.913   9.036   0.174  0.3307 -0.1034  0.0318
  327SOL    HW110570   2.955   9.118   0.213 -2.6957  1.1343  0.8685
  327SOL    HW210571   2.912   8.963   0.242 -0.0612  0.2900  0.4491
  328SOL     OW10572   3.987   0.250   0.056 -0.1382 -0.0203 -0.1627
  328SOL    HW110573   4.046   0.267   0.136  0.5686 -1.6517 -0.3175
  328SOL    HW210574   3.891   0.255   0.083  0.0957 -0.0794  0.6901
  329SOL     OW10575   3.731   0.202   0.148  0.3286 -0.5923 -0.2137
  329SOL    HW110576   3.669   0.180   0.073 -0.6946  0.3260  0.3444
  329SOL    HW210577   3.758   0.118   0.195 -2.5716 -0.8200  1.1448
  330SOL     OW10578   2.593   9.832   1.742 -0.7291 -0.0538  0.5988
  330SOL    HW110579   2.544   9.815   1.657  0.2738 -1.8988  0.3580
  330SOL    HW210580   2.532   9.876   1.808 -1.2514  2.1849 -1.3516
  331SOL     OW10581   2.211   0.003   0.335  0.0969  0.3471 -0.5248
  331SOL    HW110582   2.162   0.080   0.377  1.4952  0.9200  0.1034
  331SOL    HW210583   2.252  -0.053   0.406  2.2319  1.1529 -1.0644
  332SOL     OW10584   3.690   9.207   0.124 -0.8684  0.3616 -0.2844
  332SOL    HW110585   3.592   9.200   0.143 -1.2132  1.2642 -1.6331
  332SOL    HW210586   3.741   9.206   0.210 -2.1897  1.6944  0.5404
  333SOL     OW10587   3.696   1.786   0.192  0.0509 -0.6067 -0.2885
  333SOL    HW110588   3.687   1.688   0.210 -0.2822 -0.3662  0.8597
  333SOL    HW210589   3.792   1.810   0.180  0.2361 -0.8477  0.7248
  334SOL     OW10590   3.362   9.042   2.551 -0.1543  0.1147  0.1464
  334SOL    HW110591   3.265   9.064   2.564 -0.3684 -0.3258 -0.6801
  334SOL    HW210592   3.401   9.012   2.637 -0.6451  0.7098  0.5864
  335SOL     OW10593   3.305   1.154   1.789 -0.3957  0.1069  0.3606
  335SOL    HW110594   3.296   1.204   1.875  1.7758  1.1668 -0.0055
  335SOL    HW210595   3.289   1.057   1.806  0.7578  0.1923  2.1127
  336SOL     OW10596   3.991   0.461   0.354  0.2547  0.0320 -0.7617
  336SOL    HW110597   4.004   0.532   0.285  0.6333  0.6389 -0.0792
  336SOL    HW210598   3.978   0.503   0.443 -1.1754 -0.7205 -0.5976
  337SOL     OW10599   2.897   0.259   0.957 -0.4059  0.4847 -0.6122
  337SOL    HW110600   2.874   0.355   0.969  0.0246  0.5196 -0.0118
  337SOL    HW210601   2.813   0.204   0.958 -0.4872  0.5637  1.9534
  338SOL     OW10602   2.366   0.599   0.230  0.3910  0.0561  0.0149
  338SOL    HW110603   2.349   0.632   0.136  0.2538 -0.3954 -0.1182
  338SOL    HW210604   2.416   0.669   0.280 -0.9838  0.9931  0.1117
  339SOL     OW10605   2.850   2.256   1.102  0.4635  0.2980 -0.3424
  339SOL    HW110606   2.840   2.352   1.125  0.4766  0.3187 -0.4233
  339SOL    HW210607   2.768   2.206   1.128  0.3545  0.3761 -0.5365
  340SOL     OW10608   3.822   1.066   1.004 -0.0908  0.6460 -0.1870
  340SOL    HW110609   3.740   1.103   1.049 -0.5109  0.5075 -0.8252
  340SOL    HW210610   3.884   1.142   0.982 -0.2296  0.7962 -0.0664
  341SOL     OW10611   3.424   2.370   2.431 -0.2545  0.7847 -0.0145
  341SOL    HW110612   3.481   2.381   2.349  2.2974  2.9477  1.9434
  341SOL    HW210613   3.427   2.275   2.461  0.5301  0.4192 -1.2063
  342SOL     OW10614   2.514   8.762   2.623 -0.3280  0.1371  0.1792
  342SOL    HW110615   2.547   8.824   2.693  0.5220 -0.5857  0.4356
  342SOL    HW210616   2.487   8.814   2.542  1.0806  0.7899  0.1127
  343SOL     OW10617   3.098   8.908   0.492 -0.0204  0.0976  0.3322
  343SOL    HW110618   3.093   8.974   0.567 -0.4758  0.7592 -0.2727
  343SOL    HW210619   3.006   8.877   0.469 -0.0060  0.8316 -0.7664
  344SOL     OW10620   3.009   1.971   1.184 -0.7052 -0.2793  0.6029
  344SOL    HW110621   3.059   1.904   1.239 -2.4453 -1.8390  0.3246
  344SOL    HW210622   3.061   1.992   1.101  1.0728  0.7093  1.9353
  345SOL     OW10623   2.605   9.811   0.278  0.4848  0.4219  0.1065
  345SOL    HW110624   2.690   9.796   0.228  0.8394 -1.0192  1.0896
  345SOL    HW210625   2.572   9.724   0.314 -1.9977  0.7942 -1.1559
  346SOL     OW10626   4.124   0.553   2.315  0.5136 -0.0448 -0.3657
  346SOL    HW110627   4.034   0.552   2.271 -0.4715  0.3941  1.5987
  346SOL    HW210628   4.125   0.488   2.391  1.5325  0.6745  0.2515
  347SOL     OW10629   3.503   2.133   0.749 -0.1244 -0.1839  0.1508
  347SOL    HW110630   3.446   2.063   0.791  2.2622 -1.5143  1.2641
  347SOL    HW210631   3.453   2.219   0.746 -2.7178 -1.6415 -0.2618
  348SOL     OW10632   2.268   9.510   0.143 -0.3098 -0.0387 -0.2702
  348SOL    HW110633   2.329   9.460   0.082  0.7094 -1.4208  1.8281
  348SOL    HW210634   2.212   9.574   0.089  0.3716 -1.3792 -2.6529
  349SOL     OW10635   2.225   0.034   0.029  0.0328  0.1842 -0.2354
  349SOL    HW110636   2.256  -0.044  -0.025  1.8351  2.1057 -2.0298
  349SOL    HW210637   2.198   0.002   0.120 -0.3630 -2.6773 -1.3104
  350SOL     OW10638   3.749   9.074   0.563 -0.4688  0.0479  0.0025
  350SOL    HW110639   3.650   9.066   0.565 -0.3968 -1.6039 -2.1817
  350SOL    HW210640   3.789   9.003   0.621 -0.5564  1.3344  1.6813
  351SOL     OW10641   1.944   0.444   0.096 -0.5457  0.5752 -0.1186
  351SOL    HW110642   1.856   0.406   0.126  1.2875 -1.8003  2.4974
  351SOL    HW210643   1.987   0.380   0.032  0.4313  0.4911  0.6147
  352SOL     OW10644   3.131   2.349   1.464 -0.1683 -0.0914 -0.2569
  352SOL    HW110645   3.220   2.343   1.419  0.2136 -4.8955  0.8194
  352SOL    HW210646   3.143   2.350   1.563 -1.2592 -0.2819 -0.1129
  353SOL     OW10647   4.265   1.149   0.049  0.3442  0.3603 -0.4127
  353SOL    HW110648   4.260   1.050   0.052  1.5386  0.3290  1.9027
  353SOL    HW210649   4.251   1.181  -0.045 -1.6671 -1.8715 -0.9189
  354SOL     OW10650   3.708   0.250   0.986  0.4990  0.3262  0.2172
  354SOL    HW110651   3.738   0.160   1.018  1.3913  0.4285 -0.3231
  354SOL    HW210652   3.707   0.252   0.886  4.1281  2.0843  0.1449
  355SOL     OW10653   2.645   0.135   1.625 -0.6601  0.5396  0.4441
  355SOL    HW110654   2.697   0.180   1.698 -0.5600  0.3249  0.5059
  355SOL    HW210655   2.606   0.050   1.660 -1.3808  0.8914  0.5147
  356SOL     OW10656   3.723   9.098   1.880  0.0588 -0.3969  0.1434
  356SOL    HW110657   3.783   9.177   1.868 -0.8422  0.2406 -0.2906
  356SOL    HW210658   3.672   9.108   1.966 -1.0000  0.1497 -0.5348
  357SOL     OW10659   4.457   0.658   1.172 -0.2963  0.0678 -0.5650
  357SOL    HW110660   4.542   0.710   1.180 -0.1272 -0.6086  3.5260
  357SOL    HW210661   4.379   0.720   1.181 -0.2610  0.5472 -3.2604
  358SOL     OW10662   3.963   0.010   0.999 -0.3127 -0.1247  0.1399
  358SOL    HW110663   4.000   0.100   0.974 -1.6004  0.0985 -1.0302
  358SOL    HW210664   4.038  -0.050   1.028  0.6011  1.2122  0.6113
  359SOL     OW10665   4.012   0.330   0.766 -0.4272 -0.5079  0.2013
  359SOL    HW110666   4.014   0.403   0.698 -1.8909 -0.1394  0.5370
  359SOL    HW210667   3.968   0.249   0.727  0.3636 -0.9111  0.1307
  360SOL     OW10668   3.474   8.955   0.100 -0.2461  0.2650  0.0083
  360SOL    HW110669   3.532   8.893   0.048  0.6491  0.3376  0.8896
  360SOL    HW210670   3.460   8.918   0.192 -1.3629  0.3934 -0.1002
  361SOL     OW10671   4.031   9.028   1.560 -0.1351 -0.1491 -0.0206
  361SOL    HW110672   4.115   9.067   1.521 -0.7038  0.9912 -0.1338
  361SOL    HW210673   4.024   8.931   1.535  1.2212 -0.2869  0.1230
  362SOL     OW10674   4.423   0.975   0.776  0.4298 -0.1683  0.0127
  362SOL    HW110675   4.349   0.922   0.817  0.5316 -1.3384 -1.2735
  362SOL    HW210676   4.499   0.981   0.841 -0.3569  0.0977  0.9206
  363SOL     OW10677   4.024   1.139   1.635  0.0338  0.0700 -0.0444
  363SOL    HW110678   4.028   1.160   1.537 -2.3928 -0.1580 -0.2227
  363SOL    HW210679   3.930   1.115   1.660  0.4594  0.9290  2.5180
  364SOL     OW10680   3.509   1.068   1.636 -0.5555 -0.6731  0.3617
  364SOL    HW110681   3.425   1.110   1.670 -0.2907 -0.2551  0.5093
  364SOL    HW210682   3.488   1.012   1.556 -0.7829  0.4518 -0.3799
  365SOL     OW10683   3.687   0.545   0.090  0.5709 -0.0543  0.1310
  365SOL    HW110684   3.759   0.555   0.022  0.1692  2.1823 -0.0007
  365SOL    HW210685   3.701   0.611   0.164 -0.9306 -0.0849  0.4703
  366SOL     OW10686   3.220   2.345   0.511  0.2513 -0.4553 -0.8375
  366SOL    HW110687   3.268   2.403   0.576  0.1045 -2.0296  0.7024
  366SOL    HW210688   3.284   2.311   0.442  1.4030 -2.4440  1.1296
  367SOL     OW10689   3.287   9.691   1.136 -0.2675 -0.4366 -0.3928
  367SOL    HW110690   3.301   9.677   1.234 -0.9801  1.2012 -0.0278
  367SOL    HW210691   3.221   9.624   1.101  0.6558 -1.5836  0.0555
  368SOL     OW10692   3.885   9.348   1.779  0.1244 -0.6528  0.2003
  368SOL    HW110693   3.942   9.266   1.790  0.5954 -0.0893  2.1786
  368SOL    HW210694   3.943   9.429   1.785 -0.8233 -0.0817  1.9208
  369SOL     OW10695   4.516   1.414   1.996  0.2703 -0.3367  0.5941
  369SOL    HW110696   4.553   1.331   1.954  1.5300  0.5338 -0.0655
  369SOL    HW210697   4.562   1.429   2.084 -0.2163 -0.5216  0.8842
  370SOL     OW10698   2.484   1.508   0.396 -0.1833  0.9047 -0.1185
  370SOL    HW110699   2.470   1.596   0.441 -2.8591 -0.1493  1.2216
  370SOL    HW210700   2.448   1.435   0.454  1.1246 -1.0017 -1.6411
  10.00000  10.00000   2.67592
