Written by MDAnalysis
11118
    1CHTO  H203    1   4.720   7.164   0.342 -0.0046 -0.0218 -1.2915
    1CHTO   O82    2   4.689   7.076   0.341  0.3160 -0.1623  0.3751
    1CHTO  C123    3   4.788   6.984   0.393  0.0640  0.4259 -0.0820
    1CHTO  H227    4   4.833   7.029   0.483  0.7567 -1.6935  0.6447
    1CHTO   O77    5   4.708   6.872   0.441 -0.7934 -0.5286  0.0547
    1CHTO  C118    6   4.787   6.764   0.506  0.2857  0.4059 -0.8841
    1CHTO  H222    7   4.835   6.803   0.597  0.4112  0.3463 -0.9249
    1CHTO  C125    8   4.692   6.644   0.549 -0.0065 -0.2572  0.4728
    1CHTO   O84    9   4.583   6.628   0.464 -0.5057 -0.0006 -0.0138
    1CHTO  H205   10   4.553   6.541   0.445 -1.5506  0.1944  0.7481
    1CHTO  C114   11   4.901   6.709   0.420 -0.3874 -0.8093  0.1645
    1CHTO  H218   12   4.862   6.651   0.336 -1.5506  1.6308 -1.0066
    1CHTO  C116   13   4.986   6.828   0.359  0.4965  0.0897 -0.7738
    1CHTO  H220   14   5.038   6.872   0.446 -0.2441 -0.0824 -0.2431
    1CHTO   O79   15   5.085   6.770   0.280  0.2461  0.3548  0.4291
    1CHTO  H201   16   5.150   6.736   0.339 -0.0191 -1.2825 -0.1922
    1CHTO  C120   17   4.897   6.939   0.291  0.2710  0.6139 -0.5025
    1CHTO  H224   18   4.850   6.902   0.197 -0.8381 -1.8743  0.9821
    1CHTO   N21   19   4.978   7.052   0.242  0.0204 -0.2192 -1.0091
    1CHTO  H211   20   5.027   7.024   0.150 -1.9219 -0.1066 -2.1120
    1CHTO  H212   21   4.919   7.139   0.216 -0.0025 -0.2430 -1.0325
    1CHTO   O75   22   4.980   6.642   0.518 -0.0304  0.0454 -0.1975
    1CHTO  C112   23   5.040   6.492   0.481  0.4732  0.5909  0.2020
    1CHTO  H216   24   5.033   6.477   0.373 -1.7178 -1.0780  0.5468
    1CHTO   O73   25   4.958   6.393   0.547  0.7903 -0.2630 -0.7741
    1CHTO  C113   26   4.985   6.257   0.515  0.3801 -0.0286 -0.3186
    1CHTO  H217   27   4.965   6.254   0.406  0.0112 -0.5551 -0.2351
    1CHTO  C124   28   4.868   6.179   0.587 -0.5820  0.7806 -0.9714
    1CHTO   O83   29   4.857   6.048   0.548 -0.4720 -0.5273 -0.7283
    1CHTO  H204   30   4.884   5.984   0.612 -0.8506 -1.3861 -1.4206
    1CHTO  C109   31   5.130   6.216   0.558 -0.2582  0.5728 -0.2408
    1CHTO  H213   32   5.131   6.203   0.667  0.4222  0.8381 -0.2134
    1CHTO  C110   33   5.237   6.319   0.507  0.9335  0.1126  0.8977
    1CHTO  H214   34   5.259   6.293   0.404 -2.8797  0.9559 -0.2133
    1CHTO   O78   35   5.358   6.305   0.590  0.4998  0.4174  0.9842
    1CHTO  H200   36   5.427   6.306   0.527 -1.7175  0.9556 -1.5174
    1CHTO  C111   37   5.195   6.468   0.530  0.5125  0.3222  0.7048
    1CHTO  H215   38   5.212   6.496   0.635  3.6082  1.8688 -0.1492
    1CHTO   N19   39   5.279   6.557   0.456  0.2564 -0.4006 -0.5169
    1CHTO  H207   40   5.379   6.518   0.447 -0.6058 -2.9276  0.2567
    1CHTO  H208   41   5.249   6.558   0.352 -1.7801  0.0006  0.0472
    1CHTO   O74   42   5.155   6.091   0.494 -0.0128 -0.3015 -0.4105
    1CHTO  C115   43   5.233   5.977   0.587 -0.3677 -0.2888 -0.5126
    1CHTO  H219   44   5.238   6.008   0.691  3.4817  0.3375 -0.8243
    1CHTO   O76   45   5.164   5.847   0.586 -0.3514  0.3859  0.0975
    1CHTO  C122   46   5.152   5.790   0.453 -0.1181  0.2960 -0.4918
    1CHTO  H226   47   5.065   5.836   0.406  0.4401  2.4267  0.4700
    1CHTO  C126   48   5.124   5.633   0.471 -0.1821 -0.2381 -0.7297
    1CHTO   O85   49   5.173   5.576   0.592 -0.1365 -0.3537 -0.0045
    1CHTO  H206   50   5.236   5.635   0.630  0.3697 -1.8106  1.4769
    1CHTO  C121   51   5.281   5.803   0.367 -0.0484 -0.9392 -0.2224
    1CHTO  H225   52   5.304   5.705   0.320  0.2192  0.0132 -2.1192
    1CHTO   O81   53   5.262   5.898   0.259 -0.3487 -0.6445 -0.0399
    1CHTO  H202   54   5.199   5.864   0.198 -1.2432  0.7492  0.0783
    1CHTO  C119   55   5.406   5.837   0.457 -0.3050  0.0701  0.2401
    1CHTO  H223   56   5.414   5.757   0.531  0.9207  1.7149  1.9264
    1CHTO  C117   57   5.381   5.970   0.536 -0.3321 -0.0721 -0.7831
    1CHTO  H221   58   5.389   6.064   0.481 -0.2126  1.8233  2.3232
    1CHTO   N20   59   5.475   5.984   0.661  0.2633 -0.3917 -0.7720
    1CHTO  H209   60   5.579   5.994   0.634  0.6330 -0.4681  0.5891
    1CHTO  H210   61   5.467   5.899   0.727  0.5744  0.0168 -0.2105
    1CHTO   O80   62   5.547   5.835   0.383 -0.3234  0.6156  0.3213
    1CHTO  C103   63   5.622   5.705   0.370  0.5790  0.4757 -0.2868
    1CHTO  H190   64   5.642   5.652   0.464 -1.4071  0.6973  0.2779
    1CHTO  C101   65   5.580   5.595   0.255  1.3819  0.5383 -0.3266
    1CHTO  H188   66   5.576   5.650   0.161  1.7090 -1.1689 -1.3667
    1CHTO   O68   67   5.435   5.533   0.287  0.6052  0.1467 -0.6162
    1CHTO  H168   68   5.363   5.582   0.252  0.1531 -1.6169 -2.1862
    1CHTO   C99   69   5.695   5.478   0.245  0.9851  0.4931 -0.1458
    1CHTO  H186   70   5.690   5.429   0.344  0.1980  0.4558 -0.2061
    1CHTO   N17   71   5.666   5.380   0.132  0.4680  0.2743  0.4685
    1CHTO  H174   72   5.713   5.405   0.039 -1.8180  1.7397 -0.3369
    1CHTO  H175   73   5.560   5.365   0.117  1.0533  0.1408 -4.1806
    1CHTO   C97   74   5.839   5.539   0.233  0.6409  0.1087 -0.0735
    1CHTO  H184   75   5.854   5.576   0.131  1.7428  0.5264  0.2252
    1CHTO   O64   76   5.851   5.642   0.329  0.3377  0.1348  0.4418
    1CHTO  C104   77   5.765   5.763   0.316 -0.0360  0.3007  0.3998
    1CHTO  H191   78   5.753   5.797   0.213  0.8032  1.6219  0.7270
    1CHTO  C108   79   5.814   5.878   0.400  0.4488 -0.3907 -0.6099
    1CHTO   O71   80   5.956   5.899   0.378 -0.1399  0.1671  0.3265
    1CHTO  H171   81   6.008   5.823   0.393 -0.6131  0.0839  1.6484
    1CHTO   O62   82   5.939   5.442   0.280 -0.3641  0.0918 -0.3984
    1CHTO   C91   83   6.047   5.406   0.195  0.7617 -0.1198 -0.4591
    1CHTO  H178   84   6.013   5.428   0.094  0.1144  0.8605 -0.0309
    1CHTO   C92   85   6.073   5.248   0.206 -0.3432  0.1835  0.5791
    1CHTO  H179   86   6.077   5.215   0.310 -2.3060  2.4124  1.4030
    1CHTO   O66   87   5.954   5.203   0.155  0.1922 -0.6455 -0.1576
    1CHTO  H166   88   5.918   5.132   0.205  0.5768 -0.1870  0.7752
    1CHTO   C93   89   6.194   5.185   0.121 -0.1791 -0.1989 -0.5549
    1CHTO  H180   90   6.167   5.197   0.015  0.6479 -1.9511 -0.9737
    1CHTO   N16   91   6.210   5.041   0.149 -0.1967  0.7218 -0.7564
    1CHTO  H172   92   6.166   4.977   0.074  0.1587 -0.7331  0.2334
    1CHTO  H173   93   6.150   5.018   0.236  0.4266  0.2405 -0.4425
    1CHTO   C94   94   6.318   5.276   0.152  0.0858 -0.4373  0.3038
    1CHTO  H181   95   6.353   5.263   0.255  0.7126  1.0316  0.2946
    1CHTO   O61   96   6.285   5.417   0.136 -0.0188 -0.1869  0.3213
    1CHTO   C95   97   6.186   5.470   0.229  0.6642  1.0876 -0.2014
    1CHTO  H182   98   6.221   5.446   0.329  1.8297  0.0388 -0.8543
    1CHTO  C106   99   6.190   5.626   0.213  0.0164  0.4985 -0.4661
    1CHTO   O69  100   6.328   5.681   0.229 -0.0087  0.0373  0.8647
    1CHTO  H169  101   6.328   5.760   0.279  1.8691 -1.1126  2.7346
    1CHTO   O63  102   6.428   5.249   0.061  0.2383  0.2898 -0.0901
    1CHTO   C96  103   6.557   5.342   0.088 -0.4229  0.1779  0.0760
    1CHTO  H183  104   6.529   5.438   0.132 -0.7612 -0.0001  0.2517
    1CHTO   C98  105   6.635   5.360  -0.046 -0.7017  0.3481  0.5438
    1CHTO  H185  106   6.563   5.375  -0.128  1.4037 -1.2099 -1.6288
    1CHTO   O67  107   6.718   5.481  -0.038  0.2867  0.1336 -0.5437
    1CHTO  H167  108   6.793   5.461   0.014 -0.0439  1.5185  0.4970
    1CHTO  C102  109   6.729   5.236  -0.083 -0.5011 -0.7932 -0.2958
    1CHTO  H189  110   6.802   5.277  -0.154  0.9579  2.2613  2.8422
    1CHTO   N18  111   6.673   5.118  -0.160 -0.2623 -0.0690 -0.7217
    1CHTO  H176  112   6.744   5.068  -0.224  1.4891  1.5439 -0.0998
    1CHTO  H177  113   6.616   5.051  -0.099  0.3272 -0.3752 -0.5063
    1CHTO  C105  114   6.816   5.197   0.041 -0.5878  0.1719  0.1198
    1CHTO  H192  115   6.799   5.092   0.063 -1.1801  0.3706  0.6382
    1CHTO   O65  116   6.785   5.273   0.163  0.0001  0.4277  0.2856
    1CHTO  C100  117   6.646   5.269   0.194  0.0818  0.2734  1.3463
    1CHTO  H187  118   6.613   5.164   0.202 -1.6897  0.7703  0.6519
    1CHTO  C107  119   6.624   5.327   0.331 -0.3222  0.4231  0.1499
    1CHTO   O70  120   6.683   5.453   0.339  0.2032 -0.6856  0.3076
    1CHTO  H170  121   6.776   5.450   0.349  0.3258 -0.0972 -0.5757
    1CHTO   O57  122   6.966   5.216  -0.002 -0.5042  0.4348 -0.1578
    1CHTO   C85  123   7.059   5.107   0.008  0.3315  0.3377 -0.3165
    1CHTO  H157  124   7.012   5.017  -0.037  0.0730  0.5783 -0.5258
    1CHTO   C83  125   7.080   5.059   0.155 -0.0158 -0.2164 -0.6820
    1CHTO  H155  126   6.984   5.018   0.186 -1.1257  0.9097 -2.5426
    1CHTO   O56  127   7.089   5.174   0.240 -0.3617  0.1510 -0.1346
    1CHTO  H135  128   7.142   5.242   0.202 -1.6360 -0.1204 -2.4938
    1CHTO   C81  129   7.188   4.947   0.169  0.0987 -0.6901 -0.5330
    1CHTO  H153  130   7.157   4.857   0.115 -0.2479 -1.0878  0.3231
    1CHTO   N14  131   7.194   4.892   0.311  0.1695  0.1343 -0.7041
    1CHTO  H141  132   7.095   4.861   0.337  0.0956  0.4499 -0.5973
    1CHTO  H142  133   7.221   4.974   0.374  0.5326 -0.5192 -0.0026
    1CHTO   C79  134   7.332   4.996   0.112  0.1385 -0.3100 -0.7714
    1CHTO  H151  135   7.393   4.908   0.096 -1.0023 -1.6726  1.9904
    1CHTO   O52  136   7.299   5.040  -0.027  0.2531 -0.0961  0.2625
    1CHTO   C86  137   7.199   5.135  -0.051  0.4852  0.2219 -0.4361
    1CHTO  H158  138   7.237   5.234  -0.017 -1.0857  0.6252  0.2094
    1CHTO   C90  139   7.180   5.154  -0.204  0.2370  0.5381 -0.0120
    1CHTO   O60  140   7.114   5.278  -0.232  0.7451  0.0655 -0.1213
    1CHTO  H138  141   7.128   5.292  -0.323  1.1984 -0.1360 -0.0814
    1CHTO   O50  142   7.397   5.100   0.182 -0.1673 -0.2003 -0.0632
    1CHTO   C73  143   7.525   5.159   0.196  0.2576  0.2378  0.4332
    1CHTO  H145  144   7.581   5.174   0.103  2.5399 -2.0355  1.3544
    1CHTO   C74  145   7.613   5.066   0.282  0.4607 -0.1735  0.5918
    1CHTO  H146  146   7.632   4.970   0.233 -1.7038 -0.3026 -0.0524
    1CHTO   O54  147   7.744   5.120   0.291 -0.8664  0.0010  0.5324
    1CHTO  H133  148   7.780   5.148   0.209 -1.5576 -1.8686 -0.4392
    1CHTO   C75  149   7.547   5.046   0.426 -0.2617  0.4557  0.3017
    1CHTO  H147  150   7.453   4.991   0.414 -0.4108  1.0079 -1.1937
    1CHTO   N13  151   7.621   4.960   0.523  0.2084 -0.0236  0.3541
    1CHTO  H139  152   7.701   4.895   0.489 -0.4693 -0.1774 -0.9967
    1CHTO  H140  153   7.556   4.909   0.592  0.4866 -1.5835 -0.4975
    1CHTO   C76  154   7.503   5.189   0.493  0.0136  0.4915 -0.2982
    1CHTO  H148  155   7.591   5.238   0.535  0.6675 -0.7949 -0.1199
    1CHTO   O49  156   7.435   5.276   0.394  0.3024 -0.4942  0.3239
    1CHTO   C77  157   7.512   5.294   0.276  0.1810 -0.2964  0.7708
    1CHTO  H149  158   7.608   5.336   0.302  0.7929 -1.4821  0.4661
    1CHTO   C88  159   7.447   5.409   0.198  0.2155 -0.6612 -0.5406
    1CHTO   O58  160   7.294   5.387   0.206 -0.2498 -0.1213 -0.1438
    1CHTO  H136  161   7.272   5.367   0.295 -0.3615  1.5908  0.2256
    1CHTO   O51  162   7.389   5.159   0.604  0.3757 -0.8580  0.0909
    1CHTO   C78  163   7.331   5.299   0.674 -0.6859 -0.5856  0.5779
    1CHTO  H150  164   7.344   5.385   0.606 -1.2326 -0.1392  1.0327
    1CHTO   C80  165   7.418   5.324   0.797 -0.2622 -0.3267  0.1027
    1CHTO  H152  166   7.431   5.227   0.851 -2.4941  0.0668  1.4120
    1CHTO   O55  167   7.549   5.364   0.755  0.1370  0.1414 -0.1634
    1CHTO  H134  168   7.616   5.389   0.815 -1.7822  1.4783  1.4878
    1CHTO   C84  169   7.355   5.431   0.897  0.2542 -0.6095  0.7431
    1CHTO  H156  170   7.370   5.523   0.840 -1.5893 -0.4695  0.4449
    1CHTO   N15  171   7.432   5.432   1.025  0.0512  0.3117  0.3848
    1CHTO  H143  172   7.420   5.524   1.079  1.6035 -0.4932  2.2050
    1CHTO  H144  173   7.396   5.350   1.084 -1.3449  0.8158  0.2299
    1CHTO   C87  174   7.206   5.404   0.909 -0.4326  0.8785 -0.2953
    1CHTO  H159  175   7.182   5.330   0.986  0.9286  1.2654  0.5196
    1CHTO   O53  176   7.141   5.393   0.781  0.4754  0.1981  0.2972
    1CHTO   C82  177   7.190   5.276   0.710  0.2929 -0.2434  0.2584
    1CHTO  H154  178   7.187   5.190   0.777 -0.8536  0.2101  0.7959
    1CHTO   C89  179   7.107   5.244   0.583  0.3970 -0.3939 -0.6721
    1CHTO   O59  180   6.970   5.212   0.601  0.5027 -0.6327  0.2202
    1CHTO  H137  181   6.929   5.202   0.517  0.9845 -0.6849 -0.0147
    1CHTO   O45  182   7.130   5.549   0.959 -0.2868  0.4001  0.7905
    1CHTO   C67  183   7.105   5.646   0.850  0.2728  0.2382 -0.5094
    1CHTO  H124  184   7.184   5.645   0.775  0.5400 -1.1758 -0.2139
    1CHTO   C65  185   6.964   5.623   0.785  0.6168  0.0598 -0.4257
    1CHTO  H122  186   6.949   5.515   0.788  0.5971  0.0728 -0.0844
    1CHTO   O44  187   6.967   5.680   0.656 -0.4991  0.0552  0.0704
    1CHTO  H102  188   6.884   5.695   0.616 -0.9231  0.1688  0.9720
    1CHTO   C63  189   6.850   5.687   0.880  0.1304  0.8706  0.0364
    1CHTO  H120  190   6.876   5.665   0.984 -1.3042  6.4417  1.7443
    1CHTO   N11  191   6.716   5.631   0.856  0.4115 -0.3608 -0.0297
    1CHTO  H108  192   6.645   5.654   0.933  0.8011  0.7054  0.0173
    1CHTO  H109  193   6.697   5.625   0.751 -0.4068  0.6157  0.0569
    1CHTO   C61  194   6.873   5.846   0.885  0.7619  0.1495  0.4131
    1CHTO  H118  195   6.835   5.885   0.980 -3.3543 -1.4501 -0.4765
    1CHTO   O40  196   7.011   5.885   0.876  0.0343 -0.0116  0.5905
    1CHTO   C68  197   7.111   5.791   0.918  0.0026  0.5155  0.4012
    1CHTO  H125  198   7.100   5.773   1.027 -1.2541 -0.3779  0.1453
    1CHTO   C72  199   7.253   5.845   0.895 -0.4605  0.2129 -0.1242
    1CHTO   O48  200   7.253   5.975   0.953 -0.1078  0.4040  0.1590
    1CHTO  H105  201   7.180   6.025   0.920 -1.0215 -1.3636 -0.5473
    1CHTO   O38  202   6.802   5.914   0.777  0.0546  0.0796 -0.6285
    1CHTO   C55  203   6.720   6.026   0.803 -0.2712 -1.2363 -0.6349
    1CHTO  H112  204   6.772   6.078   0.885  1.2452  0.2969 -2.5183
    1CHTO   C56  205   6.565   5.993   0.839  0.8279 -0.4736 -0.6269
    1CHTO  H113  206   6.535   5.919   0.763 -0.0626  0.7701 -1.5124
    1CHTO   O42  207   6.572   5.933   0.967  0.7248  0.3616 -0.1524
    1CHTO  H100  208   6.487   5.946   1.005  0.2799  0.1952 -1.0808
    1CHTO   C57  209   6.471   6.125   0.829  0.1670 -0.0926 -0.4456
    1CHTO  H114  210   6.484   6.195   0.912 -3.2299 -1.3228  1.2167
    1CHTO   N10  211   6.323   6.106   0.838  0.2442  0.4042  0.8374
    1CHTO  H106  212   6.279   6.074   0.745  0.6313 -1.7753  1.3803
    1CHTO  H107  213   6.296   6.038   0.917  2.1837 -2.3415 -0.7855
    1CHTO   C58  214   6.509   6.206   0.699  0.8530 -0.0287  0.0156
    1CHTO  H115  215   6.484   6.144   0.610  0.3200  0.7443 -0.3798
    1CHTO   O37  216   6.643   6.237   0.699 -0.0940  0.0279  0.5895
    1CHTO   C59  217   6.729   6.128   0.688  0.0593  0.5098  0.4757
    1CHTO  H116  218   6.699   6.076   0.597 -0.1557  0.0967  0.7831
    1CHTO   C70  219   6.878   6.177   0.677  0.3236  0.0813  0.8669
    1CHTO   O46  220   6.926   6.249   0.794 -0.3888  0.4990 -0.2345
    1CHTO  H103  221   6.913   6.342   0.803 -0.6359  0.2825  1.8410
    1CHTO   O39  222   6.441   6.345   0.683 -0.0447 -0.0840  0.1854
    1CHTO   C60  223   6.476   6.453   0.774 -0.2535 -0.2710 -0.4333
    1CHTO  H117  224   6.477   6.407   0.873 -1.1603 -1.0509 -0.7731
    1CHTO   C62  225   6.614   6.527   0.750  0.0858  0.4374 -0.1776
    1CHTO  H119  226   6.695   6.458   0.779 -0.9863  0.1616  2.2963
    1CHTO   O43  227   6.632   6.556   0.614  0.4592 -0.2614  0.3603
    1CHTO  H101  228   6.722   6.578   0.596  0.3580 -0.2167 -0.0837
    1CHTO   C66  229   6.628   6.647   0.855  0.0792  0.4464  0.7381
    1CHTO  H123  230   6.629   6.606   0.956  0.2420 -1.1142  0.1269
    1CHTO   N12  231   6.760   6.705   0.843  0.4012 -0.5956 -0.7374
    1CHTO  H110  232   6.784   6.752   0.938 -2.1115 -1.1724  0.2240
    1CHTO  H111  233   6.763   6.774   0.760  0.4909  0.9689  0.5231
    1CHTO   C69  234   6.507   6.739   0.828  0.3279  0.2132  0.6583
    1CHTO  H126  235   6.507   6.780   0.724  2.6886  0.4885  0.7371
    1CHTO   O41  236   6.381   6.662   0.858 -0.7663 -0.1322 -0.0996
    1CHTO   C64  237   6.358   6.553   0.770 -0.0380 -0.0543 -0.0803
    1CHTO  H121  238   6.338   6.592   0.668 -1.9974  0.4143  0.4612
    1CHTO   C71  239   6.223   6.486   0.804 -0.0162  0.6224  0.9215
    1CHTO   O47  240   6.203   6.457   0.947 -0.1198 -0.2083  0.3098
    1CHTO  H104  241   6.117   6.422   0.962  0.1628 -0.4761  1.3415
    1CHTO   O34  242   6.518   6.861   0.918  0.2511 -0.1279  0.3569
    1CHTO   C49  243   6.439   7.007   0.901  0.0725 -0.4759 -0.6463
    1CHTO   H91  244   6.346   6.991   0.955  0.3016 -0.7929 -0.3386
    1CHTO   C47  245   6.408   7.055   0.757 -0.4501 -0.2320 -0.4449
    1CHTO   H89  246   6.356   7.153   0.756  0.5404  0.3478  1.5482
    1CHTO   O33  247   6.316   6.960   0.718 -0.2829  0.0574 -0.1419
    1CHTO   H70  248   6.299   6.958   0.626 -1.2100  0.9653 -0.0090
    1CHTO   C45  249   6.536   7.075   0.675 -0.0037  0.2832 -0.7701
    1CHTO   H87  250   6.589   6.979   0.685 -0.1593  0.4852  2.4240
    1CHTO    N8  251   6.508   7.100   0.531  0.0711  0.6217 -0.3498
    1CHTO   H75  252   6.479   7.005   0.487  0.6256 -0.1967  1.0412
    1CHTO   H76  253   6.601   7.123   0.481 -0.4722  0.1195 -1.6136
    1CHTO   C43  254   6.635   7.177   0.750 -0.0461  0.7070 -0.3162
    1CHTO   H85  255   6.730   7.165   0.697  0.2482  0.7577  0.1934
    1CHTO   O29  256   6.642   7.154   0.892 -0.2235  0.3316 -0.2704
    1CHTO   C50  257   6.525   7.117   0.964 -0.4140  0.0298 -0.2558
    1CHTO   H92  258   6.544   7.081   1.066  0.0195 -2.3647 -1.1552
    1CHTO   C54  259   6.453   7.256   0.994  0.3802 -0.0916 -0.3314
    1CHTO   O36  260   6.316   7.257   1.040  0.3335  0.1530 -0.2858
    1CHTO   H72  261   6.285   7.168   1.043  0.3667  0.0889 -1.5867
    1CHTO   O27  262   6.592   7.306   0.728 -0.2439 -0.2203  0.0928
    1CHTO   C37  263   6.583   7.445   0.759  0.3880 -0.4719 -0.3182
    1CHTO   H79  264   6.563   7.470   0.865  4.1231 -0.2356  0.4012
    1CHTO   C38  265   6.719   7.519   0.732  1.0889 -1.1154 -0.5266
    1CHTO   H80  266   6.743   7.519   0.625 -0.0323 -0.1602 -0.7879
    1CHTO   O31  267   6.818   7.452   0.811 -0.3679 -1.0242  0.8184
    1CHTO   H68  268   6.829   7.496   0.894  0.5297  1.5353 -0.5998
    1CHTO   C39  269   6.701   7.669   0.776 -0.1906  0.0424  0.2465
    1CHTO   H81  270   6.672   7.673   0.881 -0.6638  0.2173  0.1122
    1CHTO    N7  271   6.824   7.756   0.747  0.4239  0.5653 -0.5126
    1CHTO   H73  272   6.796   7.858   0.769 -2.1211  0.0037 -0.9109
    1CHTO   H74  273   6.871   7.718   0.658  0.4159 -1.5464  0.3405
    1CHTO   C40  274   6.582   7.725   0.694  0.0613  0.0607  0.4406
    1CHTO   H82  275   6.604   7.724   0.587 -1.1228  0.3966  0.1931
    1CHTO   O26  276   6.459   7.654   0.718 -0.4558 -0.3796 -0.7400
    1CHTO   C41  277   6.470   7.510   0.674  0.6421 -0.8250 -0.5987
    1CHTO   H83  278   6.487   7.504   0.565 -2.3372 -0.7850 -1.1027
    1CHTO   C52  279   6.323   7.459   0.693 -1.1842 -0.4945  0.3221
    1CHTO   O35  280   6.234   7.547   0.613 -0.2857  0.3345 -0.3524
    1CHTO   H71  281   6.151   7.503   0.623 -0.5842  0.7176 -1.1232
    1CHTO   O28  282   6.548   7.863   0.729  0.4438  0.2965  0.7523
    1CHTO   C42  283   6.544   7.967   0.628 -0.8348  0.3608 -0.3249
    1CHTO   H84  284   6.603   7.941   0.540  0.5476  0.0908  0.6566
    1CHTO   C44  285   6.617   8.104   0.679 -0.3414 -0.6434 -0.0135
    1CHTO   H86  286   6.580   8.130   0.778 -0.7312  0.8698 -0.5328
    1CHTO   O32  287   6.754   8.077   0.696 -0.1339  0.1481  0.0697
    1CHTO   H69  288   6.806   8.153   0.716  0.2451 -0.2684  0.7064
    1CHTO   C48  289   6.590   8.226   0.584  0.0020  0.0010 -0.2239
    1CHTO   H90  290   6.654   8.202   0.500 -1.1817 -1.3226 -0.7659
    1CHTO    N9  291   6.617   8.358   0.647 -0.4457  0.2758 -0.3962
    1CHTO   H77  292   6.559   8.376   0.736  0.4392  0.6996  0.0999
    1CHTO   H78  293   6.598   8.432   0.570 -0.1253 -0.8806 -1.6124
    1CHTO   C51  294   6.448   8.222   0.531  0.3005  0.0115  0.5058
    1CHTO   H93  295   6.375   8.248   0.608  0.0747  0.6129  0.0868
    1CHTO   O30  296   6.417   8.096   0.478  1.5485  0.3632 -0.1871
    1CHTO   C46  297   6.400   8.003   0.581  0.1338 -0.3239  0.1708
    1CHTO   H88  298   6.344   8.045   0.664  0.1688 -1.4851  0.7913
    1CHTO   C53  299   6.320   7.888   0.506 -0.3844  0.4115  0.4177
    1CHTO   O72  300   6.185   7.915   0.500 -0.6065  0.1119  0.0446
    1CHTO  H199  301   6.159   7.998   0.536  1.2041  0.2251  1.1736
    1CHTO   O22  302   6.437   8.320   0.418  0.3388 -0.1535  0.0686
    1CHTO   C31  303   6.421   8.311   0.276  0.1889 -0.3423  0.7680
    1CHTO   H59  304   6.421   8.416   0.242  0.0266 -0.2289  1.1115
    1CHTO   C29  305   6.533   8.237   0.209 -0.1492  0.0230  0.7913
    1CHTO   H57  306   6.535   8.136   0.254 -2.8378 -0.3958  0.0461
    1CHTO   O21  307   6.658   8.305   0.240  0.2562  0.2019 -0.2342
    1CHTO   H37  308   6.716   8.316   0.167  0.0821 -1.8304 -0.7067
    1CHTO   C27  309   6.511   8.216   0.048  0.0611 -0.6097 -0.2072
    1CHTO   H55  310   6.519   8.315   0.000 -0.5971 -1.3124 -1.7793
    1CHTO    N5  311   6.617   8.132  -0.008  0.5790  0.7266  0.3113
    1CHTO   H43  312   6.591   8.131  -0.113  0.9523  0.8703  0.2188
    1CHTO   H44  313   6.713   8.180  -0.010  0.9093  0.0601  0.3449
    1CHTO   C25  314   6.365   8.159   0.021  0.6248  0.0680  0.0472
    1CHTO   H53  315   6.359   8.062   0.072 -2.7088  0.4254  0.4210
    1CHTO   O17  316   6.267   8.246   0.080  0.3783 -0.6746 -0.5281
    1CHTO   C32  317   6.278   8.253   0.225  0.2374  0.6722 -0.6815
    1CHTO   H60  318   6.274   8.149   0.256 -2.0945  0.4646 -1.6056
    1CHTO   C36  319   6.157   8.334   0.279  0.3165  0.0591 -0.3106
    1CHTO   O25  320   6.145   8.322   0.423 -0.0629 -0.2519 -0.0262
    1CHTO   H40  321   6.139   8.235   0.456  2.5536 -0.6186 -0.4217
    1CHTO   O15  322   6.333   8.144  -0.114 -0.2252  0.2701 -0.0283
    1CHTO   C19  323   6.229   8.065  -0.178 -0.0508  0.5932 -0.5151
    1CHTO   H47  324   6.240   7.968  -0.125 -3.8141 -0.5462 -1.7320
    1CHTO   C20  325   6.080   8.100  -0.160 -0.4112  0.4188 -0.7022
    1CHTO   H48  326   6.055   8.190  -0.218 -1.2235 -0.1608 -1.2580
    1CHTO   O19  327   6.053   8.120  -0.019  0.2506  0.6416 -0.2642
    1CHTO   H35  328   5.960   8.123  -0.007  0.3189 -1.9350  1.1490
    1CHTO   C21  329   5.987   7.987  -0.219  0.0684  0.1154 -0.5923
    1CHTO   H49  330   5.994   7.896  -0.159 -2.9140 -0.5253 -1.1148
    1CHTO    N4  331   5.846   8.035  -0.221 -0.1623  0.2703 -0.4164
    1CHTO   H41  332   5.836   8.135  -0.261  3.2889  0.8199 -0.0835
    1CHTO   H42  333   5.811   8.032  -0.119  1.9059 -1.6842  0.2789
    1CHTO   C22  334   6.037   7.938  -0.362  0.0999 -0.7848 -0.0738
    1CHTO   H50  335   6.006   8.019  -0.429  0.5437 -0.8373 -0.3435
    1CHTO   O14  336   6.173   7.922  -0.360 -0.0508 -0.1315 -0.8579
    1CHTO   C23  337   6.256   8.033  -0.322 -0.2368 -0.4014 -0.4678
    1CHTO   H51  338   6.233   8.118  -0.389 -0.9519 -0.1534  0.0906
    1CHTO   C34  339   6.400   7.986  -0.357  0.1490  0.0273  0.0306
    1CHTO   O23  340   6.413   7.955  -0.496  0.1417 -0.5697 -1.0872
    1CHTO   H38  341   6.390   7.865  -0.511 -2.7570 -0.7776  3.6639
    1CHTO   O16  342   5.977   7.816  -0.407  0.7244 -0.2727 -0.1040
    1CHTO   C24  343   6.053   7.669  -0.381 -0.5251 -0.1806 -0.0804
    1CHTO   H52  344   6.121   7.674  -0.297  0.8656 -1.6119 -1.0971
    1CHTO   C26  345   6.130   7.629  -0.506 -0.2189  0.2882 -0.9429
    1CHTO   H54  346   6.058   7.633  -0.591  1.2213  0.8704 -2.1711
    1CHTO   O20  347   6.231   7.722  -0.533 -0.1405 -0.0352  0.0496
    1CHTO   H36  348   6.310   7.676  -0.553  0.3117  0.8503 -0.2380
    1CHTO   C30  349   6.186   7.484  -0.501 -0.4523  0.0573  0.0594
    1CHTO   H58  350   6.283   7.487  -0.448 -1.3528  2.7121  1.6423
    1CHTO    N6  351   6.229   7.435  -0.636  0.5654  0.4834  0.2983
    1CHTO   H45  352   6.303   7.357  -0.629 -0.6862 -0.8471 -0.8376
    1CHTO   H46  353   6.146   7.397  -0.695  2.2325 -1.2088 -1.0238
    1CHTO   C33  354   6.100   7.382  -0.424  0.1305  0.1034  0.0578
    1CHTO   H61  355   6.022   7.337  -0.486 -0.4929  1.5234 -0.2028
    1CHTO   O18  356   6.033   7.441  -0.311  0.3329  0.1597 -0.5837
    1CHTO   C28  357   5.951   7.554  -0.349 -0.4866  0.3122 -0.6088
    1CHTO   H56  358   5.882   7.540  -0.433 -2.3112  2.3369  0.4941
    1CHTO   C35  359   5.858   7.590  -0.237 -0.2632  0.0573 -0.1631
    1CHTO   O24  360   5.748   7.675  -0.269 -0.5122  0.0176  0.6024
    1CHTO   H39  361   5.671   7.652  -0.222  1.0468 -0.6460  2.9185
    1CHTO    O9  362   6.193   7.276  -0.388 -0.1614 -0.0938  0.5151
    1CHTO   C13  363   6.129   7.152  -0.319  0.0286 -0.0372 -0.5566
    1CHTO   H26  364   6.028   7.181  -0.283  0.2842 -0.6780  0.7287
    1CHTO   C11  365   6.221   7.106  -0.193  0.1839  1.4734 -0.7014
    1CHTO   H24  366   6.200   7.173  -0.109  1.0492  1.5020 -0.5049
    1CHTO    O8  367   6.360   7.119  -0.224 -0.0531 -0.1472 -0.0025
    1CHTO    H3  368   6.410   7.094  -0.148  3.9326 -0.1349 -2.4982
    1CHTO    C9  369   6.170   6.955  -0.158 -0.0275  0.2460  0.1137
    1CHTO   H22  370   6.064   6.973  -0.136  0.1168 -0.3896  1.3639
    1CHTO    N2  371   6.232   6.909  -0.039  0.4138 -0.5409 -0.7188
    1CHTO   H10  372   6.211   6.969   0.049 -1.2286 -1.5659 -0.3949
    1CHTO   H11  373   6.336   6.927  -0.062  0.5378  0.8750  0.7752
    1CHTO    C7  374   6.188   6.857  -0.283  0.5284 -1.0525 -0.2752
    1CHTO   H20  375   6.093   6.798  -0.282  0.1470 -0.4306  0.5535
    1CHTO    O4  376   6.199   6.931  -0.406 -0.3649 -0.8847 -0.2062
    1CHTO   C14  377   6.110   7.037  -0.424 -0.5544  0.2316  0.0194
    1CHTO   H27  378   6.009   6.997  -0.400 -1.1542  1.1361 -0.9914
    1CHTO   C18  379   6.108   7.082  -0.573  0.3581 -0.2485 -0.3658
    1CHTO   O13  380   6.093   6.968  -0.653  0.3551 -0.3611 -0.1051
    1CHTO    H7  381   6.102   6.982  -0.746 -0.8247 -1.2643 -0.3711
    1CHTO    O2  382   6.297   6.755  -0.284 -0.0934 -0.5536  0.1493
    1CHTO    C1  383   6.286   6.648  -0.373 -0.0879 -0.1201 -0.3154
    1CHTO   H14  384   6.211   6.669  -0.451 -0.3042 -0.8138 -0.2966
    1CHTO    C2  385   6.247   6.508  -0.301 -0.6818  0.4784 -0.0536
    1CHTO   H15  386   6.328   6.493  -0.228 -0.1213  3.2669 -0.0218
    1CHTO    O6  387   6.128   6.514  -0.230  0.0910 -0.0195 -0.1786
    1CHTO    H1  388   6.050   6.514  -0.282 -0.2349  2.9032  0.2420
    1CHTO    C3  389   6.250   6.390  -0.417 -0.2175  0.4079  0.8688
    1CHTO   H16  390   6.161   6.386  -0.481  0.0722 -1.9720  0.5829
    1CHTO    N1  391   6.260   6.260  -0.355  0.1375 -0.6698  0.3957
    1CHTO    H8  392   6.362   6.239  -0.326  0.1774 -2.2256 -0.8184
    1CHTO    H9  393   6.187   6.243  -0.277 -0.0952 -2.0616 -0.1024
    1CHTO    C4  394   6.377   6.398  -0.515  0.4155  0.5190 -0.3096
    1CHTO   H17  395   6.464   6.355  -0.464 -0.5405  0.2567  1.1245
    1CHTO    O1  396   6.410   6.531  -0.558  0.0990 -0.3540  0.3969
    1CHTO    C5  397   6.414   6.634  -0.456  0.2712  0.4205 -0.5302
    1CHTO   H18  398   6.495   6.605  -0.388 -1.6124  0.8612  1.9700
    1CHTO   C16  399   6.448   6.774  -0.516  0.1291  0.6795  0.2958
    1CHTO   O11  400   6.574   6.756  -0.582  0.2908 -0.2382 -0.0391
    1CHTO    H5  401   6.602   6.835  -0.624  1.2537 -0.5836 -0.0523
    1CHTO    O3  402   6.346   6.322  -0.634 -0.2128  0.1360 -0.4092
    1CHTO    C6  403   6.461   6.271  -0.715  0.2290 -0.6256 -0.5273
    1CHTO   H19  404   6.557   6.311  -0.680 -1.6502  1.1857  2.7209
    1CHTO    C8  405   6.447   6.117  -0.708  0.2120 -0.6648 -0.6639
    1CHTO   H21  406   6.346   6.089  -0.739 -0.1725 -1.1097  0.9543
    1CHTO    O7  407   6.484   6.073  -0.574 -0.4974 -0.1792  0.1960
    1CHTO    H2  408   6.557   6.119  -0.540 -0.3216  0.5629 -1.1305
    1CHTO   C12  409   6.542   6.048  -0.817  0.5342  0.8801 -0.1004
    1CHTO   H25  410   6.647   6.066  -0.786  0.2925  0.4275  1.0088
    1CHTO    N3  411   6.520   5.900  -0.833  0.2444  0.3072 -0.1690
    1CHTO   H12  412   6.607   5.857  -0.880  0.0523 -0.5875  0.2840
    1CHTO   H13  413   6.429   5.877  -0.886 -1.0753  2.7621  0.9397
    1CHTO   C15  414   6.519   6.118  -0.958  0.2735 -0.0520  0.5374
    1CHTO   H28  415   6.419   6.100  -0.998 -0.1017  1.2201  0.8865
    1CHTO   O10  416   6.616   6.073  -1.066  0.1738  0.1451 -0.5046
    1CHTO    H4  417   6.562   6.031  -1.130 -1.4628  2.4410 -0.7090
    1CHTO    O5  418   6.544   6.261  -0.956  0.1884  0.5031  0.3759
    1CHTO   C10  419   6.446   6.313  -0.869  0.0033 -0.0563  0.0615
    1CHTO   H23  420   6.344   6.280  -0.891  1.0122 -2.8988 -0.5832
    1CHTO   C17  421   6.455   6.470  -0.893 -0.1502  0.3481  0.1071
    1CHTO   O12  422   6.326   6.534  -0.856 -0.3671 -0.4008 -0.1898
    1CHTO    H6  423   6.318   6.627  -0.849  2.0458 -0.1551 -0.3483
    2CHTO  H203  424   5.149   4.084   0.590 -1.4168 -2.6260  0.1312
    2CHTO   O82  425   5.087   4.139   0.632  0.3588 -0.2767 -0.2109
    2CHTO  C123  426   4.980   4.160   0.542 -0.6714 -0.1903  0.0895
    2CHTO  H227  427   4.952   4.068   0.488 -0.5578 -0.4320  0.4444
    2CHTO   O77  428   4.877   4.190   0.636 -0.4031 -0.3525 -0.0334
    2CHTO  C118  429   4.747   4.196   0.579  0.3088 -0.8682  0.3615
    2CHTO  H222  430   4.725   4.107   0.518 -2.0902  0.9256 -1.5031
    2CHTO  C125  431   4.645   4.206   0.704 -0.7081 -0.4277  0.3531
    2CHTO   O84  432   4.607   4.085   0.764 -0.2307 -0.1331  0.8371
    2CHTO  H205  433   4.517   4.079   0.737  0.0640 -1.8500  0.1648
    2CHTO  C114  434   4.742   4.318   0.486  0.1381  0.0262  0.5988
    2CHTO  H218  435   4.748   4.410   0.544 -2.8485  0.6026  0.0625
    2CHTO  C116  436   4.852   4.314   0.372  0.5692 -0.1076  0.3320
    2CHTO  H220  437   4.822   4.237   0.297  1.6796 -2.0487  1.8455
    2CHTO   O79  438   4.856   4.439   0.299  0.1842 -1.0396  0.0044
    2CHTO  H201  439   4.788   4.453   0.236  0.0498 -1.2887  0.0911
    2CHTO  C120  440   4.991   4.273   0.437  0.4510  0.1635  0.3516
    2CHTO  H224  441   5.035   4.361   0.489  2.3902  0.2036 -1.2827
    2CHTO   N21  442   5.098   4.239   0.338 -0.2890 -0.1740  0.0812
    2CHTO  H211  443   5.061   4.225   0.238 -0.7822 -0.2962  0.2831
    2CHTO  H212  444   5.169   4.321   0.340 -0.4927 -0.0103  0.6714
    2CHTO   O75  445   4.607   4.318   0.436 -0.7304 -0.6443  0.2978
    2CHTO  C112  446   4.521   4.457   0.432 -0.3618  0.2356  0.0606
    2CHTO  H216  447   4.586   4.544   0.413  0.5374  0.7682  5.0481
    2CHTO   O73  448   4.451   4.469   0.554  0.4446  0.7085  0.0513
    2CHTO  C113  449   4.358   4.583   0.557  0.1807  0.1205  0.2551
    2CHTO  H217  450   4.410   4.677   0.529 -1.0373  0.9440  0.6939
    2CHTO  C124  451   4.305   4.621   0.700  0.2646  0.3238 -0.2088
    2CHTO   O83  452   4.235   4.512   0.762 -0.1195 -0.5415 -0.7145
    2CHTO  H204  453   4.142   4.511   0.757 -0.0018 -1.1864 -3.4988
    2CHTO  C109  454   4.249   4.563   0.458 -0.3381  0.4533 -0.7344
    2CHTO  H213  455   4.209   4.463   0.482  0.9739  0.2990  0.9001
    2CHTO  C110  456   4.307   4.559   0.314 -0.2314 -0.5459  0.3456
    2CHTO  H214  457   4.352   4.656   0.291 -0.7230 -0.6050 -0.9113
    2CHTO   O78  458   4.202   4.537   0.217 -0.0248  0.3557 -0.4258
    2CHTO  H200  459   4.228   4.556   0.129  0.6658 -0.0116 -0.3074
    2CHTO  C111  460   4.420   4.447   0.308  0.0684  0.0582 -0.1777
    2CHTO  H215  461   4.373   4.347   0.315 -2.2646  1.0989 -0.4079
    2CHTO   N19  462   4.500   4.458   0.181  0.0064 -0.2615  0.7041
    2CHTO  H207  463   4.540   4.359   0.161  1.5642  0.3862  0.5075
    2CHTO  H208  464   4.449   4.485   0.091  1.6259 -0.5672 -0.3339
    2CHTO   O74  465   4.143   4.661   0.468 -0.5999  0.3762 -0.2755
    2CHTO  C115  466   3.989   4.602   0.442  0.6191 -0.1025 -0.3693
    2CHTO  H219  467   3.992   4.512   0.381  0.5539 -0.9507  0.8824
    2CHTO   O76  468   3.930   4.561   0.557  0.0634 -0.0578  1.2008
    2CHTO  C122  469   3.930   4.664   0.657 -0.1483 -0.5929  0.0946
    2CHTO  H226  470   4.029   4.685   0.698 -2.3300  4.5196  3.1149
    2CHTO  C126  471   3.855   4.600   0.778  0.0120  0.1130 -0.6001
    2CHTO   O85  472   3.938   4.502   0.837  0.8182  0.2795  0.0251
    2CHTO  H206  473   3.905   4.415   0.825  1.3281  0.0083  0.5337
    2CHTO  C121  474   3.866   4.801   0.607  0.2412 -0.5338 -0.3596
    2CHTO  H225  475   3.786   4.829   0.679 -0.9970 -1.6998 -1.2622
    2CHTO   O81  476   3.963   4.906   0.606 -0.2295 -0.2981 -0.3072
    2CHTO  H202  477   4.047   4.873   0.579  0.9926  1.4421  1.1681
    2CHTO  C119  478   3.805   4.789   0.466  0.1634 -0.3459 -0.0714
    2CHTO  H223  479   3.718   4.724   0.463  0.0443 -0.1659 -0.5438
    2CHTO  C117  480   3.914   4.720   0.368 -0.2348 -0.3570  0.5933
    2CHTO  H221  481   3.991   4.790   0.334 -0.0396 -0.8050  0.0882
    2CHTO   N20  482   3.844   4.674   0.239 -0.0114 -0.8727  0.1423
    2CHTO  H209  483   3.817   4.764   0.186  0.1366 -0.2973  1.0381
    2CHTO  H210  484   3.925   4.637   0.177 -0.3520 -1.4838  0.0556
    2CHTO   O80  485   3.740   4.947   0.392 -0.4341  0.1687  0.5186
    2CHTO  C103  486   3.605   5.017   0.450 -0.2248  0.2695  0.5139
    2CHTO  H190  487   3.515   4.958   0.434 -0.8111  0.8994  1.4732
    2CHTO  C101  488   3.612   5.077   0.598 -0.5402 -0.2855  0.7461
    2CHTO  H188  489   3.711   5.120   0.610 -1.0254  0.9011  0.5635
    2CHTO   O68  490   3.601   4.981   0.686 -0.2768 -0.2477  0.4770
    2CHTO  H168  491   3.586   5.010   0.773 -1.6146 -0.9407  0.4822
    2CHTO   C99  492   3.505   5.191   0.620  0.8301  0.2051  0.1324
    2CHTO  H186  493   3.409   5.140   0.599  0.4256  1.8270 -2.2367
    2CHTO   N17  494   3.500   5.255   0.757 -0.1422 -0.0380  0.1749
    2CHTO  H174  495   3.594   5.301   0.780  0.3471 -1.3456  0.8472
    2CHTO  H175  496   3.417   5.321   0.775  0.5749  1.5862 -2.1703
    2CHTO   C97  497   3.509   5.300   0.511 -0.4054  0.3428  0.0705
    2CHTO  H184  498   3.603   5.357   0.520 -0.8776  1.1803 -0.2734
    2CHTO   O64  499   3.496   5.229   0.386  0.4489 -0.1630 -0.4796
    2CHTO  C104  500   3.595   5.137   0.341  0.1713  0.0194  0.8778
    2CHTO  H191  501   3.692   5.187   0.339  0.3666 -0.3732 -1.7931
    2CHTO  C108  502   3.576   5.074   0.202  0.6262  0.4816  0.2125
    2CHTO   O71  503   3.574   5.168   0.097  0.0191  0.3220  0.3134
    2CHTO  H171  504   3.642   5.233   0.105  1.3227 -1.1010  1.0737
    2CHTO   O62  505   3.401   5.390   0.523 -0.2373  0.1791 -0.2215
    2CHTO   C91  506   3.419   5.513   0.458  0.3116  0.3623  0.0381
    2CHTO  H178  507   3.519   5.515   0.415 -0.1061 -1.6173 -1.0970
    2CHTO   C92  508   3.405   5.639   0.560  0.3853  0.0154 -0.3827
    2CHTO  H179  509   3.474   5.629   0.645 -0.8954 -0.5937  0.6081
    2CHTO   O66  510   3.459   5.752   0.492  0.3919 -0.0339  0.2715
    2CHTO  H166  511   3.440   5.753   0.400 -3.2144  1.7226  0.9633
    2CHTO   C93  512   3.260   5.665   0.602  0.9809  1.1142  0.4323
    2CHTO  H180  513   3.247   5.765   0.644 -0.7454  2.2613 -2.6331
    2CHTO   N16  514   3.222   5.584   0.721 -0.2803 -0.0075  0.0155
    2CHTO  H172  515   3.117   5.598   0.745  0.3771  0.8816  2.4581
    2CHTO  H173  516   3.229   5.478   0.697 -0.2745 -0.3724  1.5876
    2CHTO   C94  517   3.162   5.642   0.476 -0.0334 -0.0539 -0.5519
    2CHTO  H181  518   3.107   5.548   0.473  1.2048 -0.7701 -1.3438
    2CHTO   O61  519   3.238   5.648   0.347 -0.2696 -0.3097  0.0893
    2CHTO   C95  520   3.324   5.530   0.336  0.9746  0.7356  0.3720
    2CHTO  H182  521   3.262   5.441   0.332 -0.0701  1.3891  1.4718
    2CHTO  C106  522   3.402   5.526   0.189  0.5022 -0.4469  0.7456
    2CHTO   O69  523   3.479   5.652   0.166 -0.5547  0.0247  0.2320
    2CHTO  H169  524   3.542   5.658   0.235 -0.7017 -1.0859  0.4684
    2CHTO   O63  525   3.061   5.772   0.472 -0.0254  0.0052 -0.6173
    2CHTO   C96  526   3.111   5.919   0.457  0.5798  0.6210  0.1528
    2CHTO  H183  527   3.220   5.917   0.445  0.5005  2.4278 -1.0906
    2CHTO   C98  528   3.082   6.017   0.572 -0.1165  0.1632  0.0162
    2CHTO  H185  529   2.979   6.003   0.609  0.9609 -0.4526  2.8923
    2CHTO   O67  530   3.162   5.965   0.679 -0.2160  0.2867  0.1941
    2CHTO  H167  531   3.170   6.035   0.742  1.6040  0.8832 -0.6719
    2CHTO  C102  532   3.111   6.173   0.540 -0.1984 -0.2458  0.2451
    2CHTO  H189  533   3.217   6.183   0.513 -0.0704 -0.6134  0.6153
    2CHTO   N18  534   3.079   6.263   0.651 -0.3808 -0.0728 -0.5952
    2CHTO  H176  535   2.979   6.241   0.684 -0.7061  0.3634 -1.2768
    2CHTO  H177  536   3.149   6.244   0.731  0.1053 -0.4982 -1.1117
    2CHTO  C105  537   3.032   6.206   0.409  0.5740  0.0045 -0.4238
    2CHTO  H192  538   2.926   6.215   0.435  0.8959  0.0889  0.9272
    2CHTO   O65  539   3.067   6.110   0.310  0.1423 -0.1559 -0.7538
    2CHTO  C100  540   3.043   5.973   0.327  0.4202  0.4005 -0.3048
    2CHTO  H187  541   2.936   5.951   0.339  0.2717  1.2386 -0.0016
    2CHTO  C107  542   3.093   5.899   0.201 -0.0253  0.7327 -0.2948
    2CHTO   O70  543   3.035   5.765   0.183  0.0879 -0.3952 -0.1421
    2CHTO  H170  544   2.945   5.780   0.164 -0.2854 -3.2435 -0.8149
    2CHTO   O57  545   3.076   6.354   0.342 -0.0120  0.2180  0.5084
    2CHTO   C85  546   3.015   6.418   0.234  0.2733  0.3942  0.3223
    2CHTO  H157  547   2.910   6.381   0.243  0.1401  0.0658 -2.3997
    2CHTO   C83  548   3.075   6.352   0.107 -0.7225  0.4795 -0.1829
    2CHTO  H155  549   3.020   6.257   0.104 -1.0159  0.5054  2.5894
    2CHTO   O56  550   3.218   6.322   0.120 -0.4281  0.6376  0.2366
    2CHTO  H135  551   3.250   6.274   0.193  0.1880 -1.4352 -1.3399
    2CHTO   C81  552   3.031   6.433  -0.019 -0.4037 -0.1645  0.7722
    2CHTO  H153  553   2.922   6.438  -0.031 -0.2969  0.3362 -0.0470
    2CHTO   N14  554   3.062   6.358  -0.147  0.2662 -0.5010 -0.5572
    2CHTO  H141  555   3.168   6.370  -0.158  0.2776 -1.1848 -1.2401
    2CHTO  H142  556   3.016   6.412  -0.228  0.1952  0.5761  0.1796
    2CHTO   C79  557   3.086   6.581  -0.007 -0.1520 -0.1644 -0.5275
    2CHTO  H151  558   3.065   6.634  -0.101 -4.1095  0.4685  0.6454
    2CHTO   O52  559   3.025   6.651   0.110  0.2158 -0.4190  0.2875
    2CHTO   C86  560   3.021   6.579   0.236  0.5164  0.0945  0.2299
    2CHTO  H158  561   3.117   6.608   0.283  0.0530  1.4699  0.3751
    2CHTO   C90  562   2.906   6.634   0.329  0.4854 -0.2875 -0.3369
    2CHTO   O60  563   2.912   6.566   0.453  1.1174  0.5827 -0.1108
    2CHTO  H138  564   3.000   6.547   0.481  1.0238 -0.2601 -0.3558
    2CHTO   O50  565   3.228   6.584   0.012  0.3376 -0.8649 -0.1813
    2CHTO   C73  566   3.357   6.648   0.025 -0.7351 -0.5611 -0.0217
    2CHTO  H145  567   3.340   6.754   0.049 -2.2630 -0.5456 -1.1054
    2CHTO   C74  568   3.429   6.630  -0.113 -0.7481 -0.2342 -0.5648
    2CHTO  H146  569   3.361   6.681  -0.184 -1.1132 -0.3700 -0.3128
    2CHTO   O54  570   3.550   6.710  -0.108  0.2083  0.2878  0.0367
    2CHTO  H133  571   3.619   6.652  -0.080 -1.2858 -0.8824  1.4052
    2CHTO   C75  572   3.440   6.475  -0.150 -0.0234 -0.7815  0.4571
    2CHTO  H147  573   3.338   6.436  -0.146 -0.6785  0.9784  2.2772
    2CHTO   N13  574   3.496   6.464  -0.287  0.2387  0.0937 -0.1886
    2CHTO  H139  575   3.548   6.369  -0.294  2.1108  1.1472 -0.8070
    2CHTO  H140  576   3.572   6.539  -0.304 -0.4403  0.9156  0.3698
    2CHTO   C76  577   3.531   6.413  -0.029 -0.2622  0.0903 -0.2798
    2CHTO  H148  578   3.622   6.472  -0.040 -1.7255  1.8208 -3.8558
    2CHTO   O49  579   3.478   6.440   0.101  0.3024  0.3541 -0.3735
    2CHTO   C77  580   3.447   6.573   0.133  0.0502 -0.3103  0.6028
    2CHTO  H149  581   3.544   6.622   0.139 -1.1011  1.8373  2.3740
    2CHTO   C88  582   3.371   6.577   0.268  0.7952  0.4078 -0.0525
    2CHTO   O58  583   3.451   6.547   0.367  0.3567 -0.1515  0.1933
    2CHTO  H136  584   3.459   6.454   0.377 -0.5147 -0.5395 -2.2717
    2CHTO   O51  585   3.541   6.251  -0.048 -0.4475 -0.0166  0.1036
    2CHTO   C78  586   3.639   6.184   0.061  0.8379  0.3481 -0.9443
    2CHTO  H150  587   3.651   6.249   0.151 -0.5957 -0.3386 -0.2446
    2CHTO   C80  588   3.778   6.169   0.001  0.5211  0.1047  0.2259
    2CHTO  H152  589   3.770   6.122  -0.100 -1.9960 -1.5723  1.1387
    2CHTO   O55  590   3.819   6.304  -0.008  1.0152  0.1764  0.2621
    2CHTO  H134  591   3.790   6.338  -0.090 -0.7762  2.1653  1.6401
    2CHTO   C84  592   3.878   6.087   0.090  0.4436 -1.2147  0.3237
    2CHTO  H156  593   3.911   6.148   0.174 -0.5183  1.8092 -1.4460
    2CHTO   N15  594   4.011   6.060   0.022 -0.1955 -0.9778  0.1319
    2CHTO  H143  595   4.043   5.959   0.007  1.8773 -0.5829  1.6922
    2CHTO  H144  596   4.034   6.115  -0.066 -0.6687  0.0556  0.6472
    2CHTO   C87  597   3.818   5.960   0.153  0.3824  0.3138 -0.2058
    2CHTO  H159  598   3.810   5.878   0.083  0.0821 -0.5855  0.8677
    2CHTO   O53  599   3.671   5.993   0.205 -0.8445 -0.5452  0.4664
    2CHTO   C82  600   3.589   6.047   0.101 -0.1894  0.3793 -0.3999
    2CHTO  H154  601   3.595   5.975   0.019  1.1126 -0.4276  0.3899
    2CHTO   C89  602   3.443   6.052   0.143 -0.5063  0.0097  0.2012
    2CHTO   O59  603   3.414   6.133   0.261  0.1087  0.5102  0.3836
    2CHTO  H137  604   3.334   6.104   0.301 -0.1257  1.2510  0.4611
    2CHTO   O45  605   3.909   5.916   0.278  0.2895 -0.0643 -0.5481
    2CHTO   C67  606   3.851   5.871   0.403 -0.0151  0.1120  0.0939
    2CHTO  H124  607   3.755   5.922   0.412  0.9975  2.7224 -2.9668
    2CHTO   C65  608   3.830   5.715   0.407 -0.5403  0.0120 -0.4328
    2CHTO  H122  609   3.909   5.671   0.346 -1.2682  0.4408 -1.6826
    2CHTO   O44  610   3.698   5.688   0.354 -0.4658 -0.7424  0.7287
    2CHTO  H102  611   3.691   5.734   0.273 -0.8197 -0.9268  0.6565
    2CHTO   C63  612   3.857   5.650   0.554  0.4818 -0.3760  0.3218
    2CHTO  H120  613   3.964   5.640   0.573  0.4004 -1.3716  0.2766
    2CHTO   N11  614   3.812   5.507   0.571  0.4499  0.4482 -0.0005
    2CHTO  H108  615   3.812   5.480   0.675 -1.0431  0.5599  0.0359
    2CHTO  H109  616   3.721   5.484   0.519  2.0142  2.0326 -3.5984
    2CHTO   C61  617   3.815   5.754   0.670  0.8064  0.1195  0.5982
    2CHTO  H118  618   3.851   5.708   0.763  0.6265 -1.5250 -0.1278
    2CHTO   O40  619   3.881   5.884   0.660  0.0014  0.1403 -0.2893
    2CHTO   C68  620   3.932   5.919   0.524 -0.2828 -0.3814  0.2802
    2CHTO  H125  621   4.027   5.863   0.512 -0.7510 -1.2285  0.5352
    2CHTO   C72  622   3.964   6.075   0.515 -0.9837 -0.0867 -0.3725
    2CHTO   O48  623   4.050   6.107   0.625  0.1107 -0.2393 -0.3659
    2CHTO  H105  624   4.081   6.194   0.607 -1.8819  0.7137  0.7084
    2CHTO   O38  625   3.674   5.771   0.677 -0.2011  0.4715 -0.3850
    2CHTO   C55  626   3.630   5.842   0.797 -0.1435 -0.3662 -0.4191
    2CHTO  H112  627   3.702   5.912   0.841 -1.0756  0.0789  0.4232
    2CHTO   C56  628   3.573   5.739   0.909 -0.7264  0.3168  0.8967
    2CHTO  H113  629   3.496   5.682   0.856  0.7139 -0.4336 -0.4303
    2CHTO   O42  630   3.685   5.642   0.939 -0.2878 -0.4263  0.3943
    2CHTO  H100  631   3.669   5.600   1.021 -1.0626 -0.2615  0.3309
    2CHTO   C57  632   3.512   5.822   1.027  0.1295  0.0343  0.6445
    2CHTO  H114  633   3.590   5.882   1.073  1.4203  1.3808 -3.1602
    2CHTO   N10  634   3.458   5.730   1.133  0.1943  0.3044 -0.1429
    2CHTO  H106  635   3.359   5.698   1.104  0.2839 -0.7330  0.6815
    2CHTO  H107  636   3.459   5.763   1.235 -1.2926 -1.3872  0.4343
    2CHTO   C58  637   3.404   5.917   0.963 -0.4121  0.0845  0.7075
    2CHTO  H115  638   3.330   5.853   0.910 -0.2121  0.9980 -0.7073
    2CHTO   O37  639   3.461   6.005   0.871 -0.1840 -0.3866 -0.3543
    2CHTO   C59  640   3.511   5.936   0.758  0.4890  0.1412  0.7838
    2CHTO  H116  641   3.432   5.879   0.709 -0.4177  2.8876 -1.1222
    2CHTO   C70  642   3.565   6.040   0.655 -0.8107  0.0619  0.0180
    2CHTO   O46  643   3.470   6.146   0.631 -0.1629  0.0173  0.1399
    2CHTO  H103  644   3.510   6.212   0.577  0.2858 -0.6457 -0.3477
    2CHTO   O39  645   3.344   6.009   1.061  0.1431 -0.4026  0.0289
    2CHTO   C60  646   3.219   6.065   1.023  0.1663 -0.1740 -0.2593
    2CHTO  H117  647   3.205   6.078   0.916 -0.4357  2.8609  0.1440
    2CHTO   C62  648   3.103   5.962   1.062  0.8932 -0.8083 -0.1342
    2CHTO  H119  649   3.142   5.866   1.020 -0.0852 -0.9931 -0.6288
    2CHTO   O43  650   3.111   5.929   1.200 -0.2363 -0.1041 -0.4807
    2CHTO  H101  651   3.083   5.842   1.219  0.1335 -0.9764 -3.5857
    2CHTO   C66  652   2.958   6.022   1.014  0.3183 -0.3855  0.5494
    2CHTO  H123  653   2.970   6.051   0.910  3.1749 -0.3554  0.8219
    2CHTO   N12  654   2.853   5.921   1.023 -0.0439  0.1544  0.3424
    2CHTO  H110  655   2.761   5.958   0.979  1.6244  1.6022 -2.0112
    2CHTO  H111  656   2.842   5.877   1.121 -0.8839 -1.3065 -0.4013
    2CHTO   C69  657   2.930   6.149   1.103 -0.8783  0.0436  1.1696
    2CHTO  H126  658   2.934   6.114   1.208  1.4093 -0.4646  0.9335
    2CHTO   O41  659   3.040   6.265   1.077  0.4162 -0.0599  0.0470
    2CHTO   C64  660   3.199   6.199   1.089  0.0221  0.6712 -0.1704
    2CHTO  H121  661   3.217   6.175   1.196 -1.2202  0.8485  0.0810
    2CHTO   C71  662   3.303   6.306   1.051 -0.1895 -0.0923 -0.4152
    2CHTO   O47  663   3.276   6.426   1.122 -1.0318  0.2761 -0.3633
    2CHTO  H104  664   3.338   6.492   1.096 -1.7175  1.4476  0.9153
    2CHTO   O34  665   2.783   6.223   1.082 -0.4361 -0.1965  0.3558
    2CHTO   C49  666   2.710   6.347   1.128  0.6307  0.8102  0.4644
    2CHTO   H91  667   2.651   6.297   1.205  0.7053 -1.8694 -1.1502
    2CHTO   C47  668   2.620   6.391   1.012 -0.3748 -0.5422 -0.0222
    2CHTO   H89  669   2.548   6.463   1.057 -2.7550 -2.9543  0.1298
    2CHTO   O33  670   2.540   6.283   0.961  0.1372 -0.0912 -0.1251
    2CHTO   H70  671   2.492   6.314   0.886 -0.1327  0.6667  0.3587
    2CHTO   C45  672   2.708   6.468   0.906 -0.0987  0.9934 -0.4644
    2CHTO   H87  673   2.785   6.395   0.878  2.3137  2.5949  1.7195
    2CHTO    N8  674   2.635   6.509   0.778 -0.5364 -0.4752  0.3484
    2CHTO   H75  675   2.634   6.426   0.708 -1.0208 -2.3400  2.5045
    2CHTO   H76  676   2.540   6.559   0.786 -0.0669  0.5551 -0.5152
    2CHTO   C43  677   2.778   6.592   0.975  0.3746 -0.6451  0.1932
    2CHTO   H85  678   2.829   6.647   0.897 -2.0360  1.2803 -0.0781
    2CHTO   O29  679   2.866   6.549   1.085 -0.0796 -0.3030  0.9459
    2CHTO   C50  680   2.802   6.457   1.181  0.0124 -0.1114 -0.5462
    2CHTO   H92  681   2.886   6.410   1.233 -2.4314 -2.6464  1.2696
    2CHTO   C54  682   2.735   6.534   1.291  0.2958  0.3399 -0.9500
    2CHTO   O36  683   2.811   6.639   1.357 -0.8361 -0.4888 -0.6780
    2CHTO   H72  684   2.873   6.600   1.415  2.0587  1.5836 -2.2945
    2CHTO   O27  685   2.679   6.681   1.029  0.2378  0.5702 -0.0948
    2CHTO   C37  686   2.589   6.791   1.017  1.0538 -0.0628 -0.5943
    2CHTO   H79  687   2.519   6.779   0.933  0.8195 -1.1766 -0.2485
    2CHTO   C38  688   2.503   6.801   1.151 -0.0051 -0.2236  0.4399
    2CHTO   H80  689   2.578   6.806   1.232  1.2538 -2.6986 -0.5088
    2CHTO   O31  690   2.416   6.688   1.150 -0.4449  0.4793 -0.2831
    2CHTO   H68  691   2.392   6.675   1.240  0.4855 -0.9026 -0.2162
    2CHTO   C39  692   2.420   6.935   1.149  0.1362 -0.3858  0.0554
    2CHTO   H81  693   2.344   6.916   1.073  1.6652  0.7508 -1.8089
    2CHTO    N7  694   2.348   6.972   1.277 -0.5656 -0.4979 -0.0441
    2CHTO   H73  695   2.305   7.070   1.270 -1.9002 -1.1234 -0.9200
    2CHTO   H74  696   2.424   6.983   1.353 -0.2239  1.8088 -0.6938
    2CHTO   C40  697   2.496   7.066   1.102  0.3731 -0.1144  0.3588
    2CHTO   H82  698   2.565   7.101   1.179  0.0728 -0.3144  0.7184
    2CHTO   O26  699   2.567   7.037   0.978 -0.3369  0.2360  0.0976
    2CHTO   C41  700   2.663   6.924   1.001  0.1487  0.8035  0.2734
    2CHTO   H83  701   2.715   6.935   1.097 -0.4694 -4.6818  1.4462
    2CHTO   C52  702   2.766   6.927   0.886  0.5695  0.4231 -0.1338
    2CHTO   O35  703   2.851   7.058   0.864 -0.0914 -0.3404  0.8059
    2CHTO   H71  704   2.809   7.137   0.836 -0.2793 -0.9665 -0.7052
    2CHTO   O28  705   2.396   7.165   1.060  0.2877  0.1577 -0.1756
    2CHTO   C42  706   2.419   7.308   1.066 -1.2085  0.0825 -0.5630
    2CHTO   H84  707   2.332   7.344   1.012 -0.9756  0.0928 -0.9357
    2CHTO   C44  708   2.543   7.359   0.984 -0.9416  0.3703  0.1599
    2CHTO   H86  709   2.629   7.295   1.005  1.0125  2.6410 -0.7817
    2CHTO   O32  710   2.510   7.349   0.844  0.4633 -0.0691 -0.1731
    2CHTO   H69  711   2.586   7.320   0.798  1.7297  0.6967  1.3971
    2CHTO   C48  712   2.594   7.501   1.022  1.1064  0.3515  0.6076
    2CHTO   H90  713   2.539   7.567   0.955 -0.9690 -0.0637  1.8464
    2CHTO    N9  714   2.744   7.522   0.973 -0.2502 -0.0433  0.1783
    2CHTO   H77  715   2.797   7.557   1.060  1.5029 -1.3858 -0.3284
    2CHTO   H78  716   2.803   7.435   0.950 -1.1593 -0.1223 -2.0448
    2CHTO   C51  717   2.579   7.539   1.175 -0.0900 -0.8461 -0.1556
    2CHTO   H93  718   2.649   7.476   1.230 -0.5494 -1.1854  0.0533
    2CHTO   O30  719   2.443   7.515   1.222 -0.5499  0.8575  0.5224
    2CHTO   C46  720   2.408   7.367   1.209 -0.5433  0.5149  0.6754
    2CHTO   H88  721   2.478   7.305   1.266  0.0709  1.0147  0.4726
    2CHTO   C53  722   2.267   7.353   1.264 -0.2311 -0.2402  0.3321
    2CHTO   O72  723   2.273   7.379   1.406 -0.1638  0.0342 -0.2174
    2CHTO  H199  724   2.202   7.326   1.436 -0.9525  1.4745  0.4719
    2CHTO   O22  725   2.608   7.676   1.198  0.2829  0.2965 -0.1351
    2CHTO   C31  726   2.617   7.735   1.332 -0.2574 -0.1874 -0.0035
    2CHTO   H59  727   2.616   7.845   1.320 -1.6474  0.0040  1.6969
    2CHTO   C29  728   2.500   7.713   1.430 -0.0006  0.3701  0.6638
    2CHTO   H57  729   2.497   7.603   1.435 -0.0549  0.3779  0.8047
    2CHTO   O21  730   2.384   7.767   1.367 -0.0632 -0.1078 -0.8331
    2CHTO   H37  731   2.303   7.722   1.383 -1.2110  1.2765 -2.6295
    2CHTO   C27  732   2.527   7.778   1.573  0.3999  0.7502  0.0151
    2CHTO   H55  733   2.525   7.888   1.564  0.7887  0.4522 -4.8313
    2CHTO    N5  734   2.431   7.733   1.677  0.4505 -0.6892  0.1807
    2CHTO   H43  735   2.463   7.771   1.772  0.3881  1.7448 -0.7474
    2CHTO   H44  736   2.338   7.786   1.663  1.4064  1.0302  0.2572
    2CHTO   C25  737   2.675   7.755   1.625 -1.1492 -0.0666 -0.2252
    2CHTO   H53  738   2.677   7.645   1.635  0.7105 -0.1524 -1.2645
    2CHTO   O17  739   2.777   7.785   1.520 -0.4000  0.4223 -0.2349
    2CHTO   C32  740   2.751   7.702   1.402  0.2983  0.0215 -0.5221
    2CHTO   H60  741   2.750   7.597   1.432  1.4219  0.7980  2.3725
    2CHTO   C36  742   2.873   7.729   1.314  0.2109 -0.5187  0.3383
    2CHTO   O25  743   2.999   7.702   1.371  0.3437 -0.0798 -0.1383
    2CHTO   H40  744   3.009   7.612   1.395 -2.4973 -0.3077  0.4135
    2CHTO   O15  745   2.716   7.844   1.767 -0.2918  0.2405  0.4328
    2CHTO   C19  746   2.811   7.797   1.866 -0.2335  0.1409  0.5405
    2CHTO   H47  747   2.796   7.689   1.878  0.9900  0.1361  2.2748
    2CHTO   C20  748   2.961   7.820   1.824  0.2303  0.2759  0.4349
    2CHTO   H48  749   2.981   7.926   1.802  1.6890 -0.0868 -0.0710
    2CHTO   O19  750   2.986   7.748   1.704 -0.3211 -0.4030  0.0770
    2CHTO   H35  751   2.948   7.662   1.710  0.7087 -0.8233  0.6893
    2CHTO   C21  752   3.060   7.771   1.936  0.3377  0.2540 -0.6702
    2CHTO   H49  753   3.050   7.662   1.941 -1.0810  0.3046 -1.9952
    2CHTO    N4  754   3.202   7.798   1.905  0.1021 -0.3426 -0.1005
    2CHTO   H41  755   3.222   7.786   1.800  0.8653 -0.1565  0.0234
    2CHTO   H42  756   3.221   7.901   1.931  1.8181 -0.0279 -2.4328
    2CHTO   C22  757   3.019   7.826   2.075  0.2547 -0.1414  0.2246
    2CHTO   H50  758   3.040   7.932   2.091 -0.0551 -0.3812  2.3801
    2CHTO   O14  759   2.888   7.794   2.095  0.1428  0.1691 -0.1042
    2CHTO   C23  760   2.791   7.855   2.008  0.5275 -0.2962  0.2540
    2CHTO   H51  761   2.808   7.963   2.013  2.2890 -0.4348 -1.9029
    2CHTO   C34  762   2.654   7.815   2.059 -0.6437 -0.0323  1.0212
    2CHTO   O23  763   2.632   7.887   2.181 -0.1678  0.3629  0.0006
    2CHTO   H38  764   2.701   7.885   2.245 -0.5379  2.2000  0.4658
    2CHTO   O16  765   3.081   7.755   2.189  0.6530 -0.2215 -0.2245
    2CHTO   C24  766   3.143   7.848   2.322 -0.1472  0.1175 -0.3979
    2CHTO   H52  767   3.129   7.955   2.306  0.3492  0.2913  0.2615
    2CHTO   C26  768   3.291   7.823   2.343  0.6915 -0.2709 -0.4548
    2CHTO   H54  769   3.307   7.713   2.353 -1.3255 -0.4776  0.7925
    2CHTO   O20  770   3.361   7.873   2.226  0.2727  0.2289 -0.3000
    2CHTO   H36  771   3.451   7.847   2.230  0.2152  0.1852  0.6218
    2CHTO   C30  772   3.353   7.894   2.474 -0.0312  0.3107 -0.3429
    2CHTO   H58  773   3.350   8.004   2.467 -1.0030  0.4228  1.4789
    2CHTO    N6  774   3.491   7.852   2.499 -0.1099  0.4211  0.5414
    2CHTO   H45  775   3.515   7.873   2.602  0.6536 -0.0596  0.4599
    2CHTO   H46  776   3.565   7.900   2.437  0.6932 -0.2697  0.9530
    2CHTO   C33  777   3.262   7.864   2.594 -0.3209 -0.5502  0.0511
    2CHTO   H61  778   3.274   7.757   2.617  0.7243 -0.1111  1.6141
    2CHTO   O18  779   3.127   7.898   2.558  0.7817  0.2927 -0.0179
    2CHTO   C28  780   3.075   7.816   2.450  0.0328 -0.6713 -0.3775
    2CHTO   H56  781   3.086   7.710   2.473 -1.4307 -0.8995 -0.6547
    2CHTO   C35  782   2.923   7.849   2.431 -0.7269  0.4999 -0.6609
    2CHTO   O24  783   2.875   7.986   2.438  0.0796 -0.1047  0.6350
    2CHTO   H39  784   2.892   8.033   2.518  1.8707 -1.4221  1.0659
    2CHTO    O9  785   3.305   7.945   2.706  0.4141  0.8711  0.5975
    2CHTO   C13  786   3.273   7.847   2.853  0.1085 -0.2662  0.4427
    2CHTO   H26  787   3.332   7.753   2.843  2.2954  1.1309 -0.0714
    2CHTO   C11  788   3.112   7.827   2.867 -0.1736 -0.1883  0.1054
    2CHTO   H24  789   3.077   7.758   2.789 -0.0373 -1.0023  0.7606
    2CHTO    O8  790   3.054   7.953   2.844 -0.0413 -0.0698 -0.2296
    2CHTO    H3  791   2.971   7.950   2.801 -0.4371  2.0673  0.3301
    2CHTO    C9  792   3.067   7.764   3.001  0.0716 -0.4952  0.5087
    2CHTO   H22  793   3.126   7.671   3.008 -0.5274 -0.9128  0.0222
    2CHTO    N2  794   2.931   7.717   3.006  0.5111  0.4391 -0.1387
    2CHTO   H10  795   2.896   7.669   2.916 -0.7012  1.0734 -0.0168
    2CHTO   H11  796   2.920   7.668   3.102  1.0633  1.0303  0.2215
    2CHTO    C7  797   3.122   7.855   3.118  0.2126 -0.6698  0.1487
    2CHTO   H20  798   3.104   7.797   3.211 -0.2063 -0.9938 -0.1295
    2CHTO    O4  799   3.265   7.879   3.107 -0.3191  0.7477 -0.0019
    2CHTO   C14  800   3.334   7.910   2.985 -0.0034 -0.2059 -0.5070
    2CHTO   H27  801   3.427   7.850   2.995 -1.0271 -1.9692 -1.2928
    2CHTO   C18  802   3.364   8.055   2.980  0.4084  0.7527 -0.0627
    2CHTO   O13  803   3.447   8.095   3.089  0.2449 -0.3256 -0.1396
    2CHTO    H7  804   3.528   8.048   3.084  0.1254 -0.5619  0.1612
    2CHTO    O2  805   3.047   7.987   3.128  0.7367 -0.3776 -0.2574
    2CHTO    C1  806   3.011   8.036   3.259 -0.4329 -0.2099  0.6096
    2CHTO   H14  807   3.091   8.009   3.331 -0.4943  0.6128  0.9834
    2CHTO    C2  808   2.880   7.973   3.319  0.4500 -0.4189 -0.4142
    2CHTO   H15  809   2.798   7.986   3.245  1.2072  4.4633 -0.5731
    2CHTO    O6  810   2.904   7.840   3.347  0.0994  0.2526  0.5361
    2CHTO    H1  811   2.933   7.820   3.434  1.2634 -1.4249 -0.2174
    2CHTO    C3  812   2.852   8.043   3.459 -0.4425  0.0522 -0.6403
    2CHTO   H16  813   2.938   8.015   3.522  1.1559  1.9145 -1.9313
    2CHTO    N1  814   2.726   7.993   3.530  0.6175  0.5617  0.2444
    2CHTO    H8  815   2.645   8.063   3.521  0.6754  0.6767  0.6064
    2CHTO    H9  816   2.709   7.891   3.500 -0.9559  1.1393 -0.9073
    2CHTO    C4  817   2.854   8.202   3.449 -0.4771  0.0266  0.5587
    2CHTO   H17  818   2.768   8.233   3.390 -1.2056 -2.0296  0.5025
    2CHTO    O1  819   2.969   8.251   3.386  0.3257 -0.0859 -0.1028
    2CHTO    C5  820   2.994   8.196   3.255 -0.0573  0.1411  0.3841
    2CHTO   H18  821   2.911   8.227   3.192  1.2812 -0.2800 -1.6112
    2CHTO   C16  822   3.123   8.261   3.201  0.0154  0.0641  0.0516
    2CHTO   O11  823   3.237   8.236   3.281  0.3918  0.7177  0.6573
    2CHTO    H5  824   3.305   8.296   3.256  0.5251  0.1423 -0.4103
    2CHTO    O3  825   2.843   8.264   3.580  0.0627  0.2761 -0.4632
    2CHTO    C6  826   2.771   8.388   3.595 -0.4810 -0.1540  0.1764
    2CHTO   H19  827   2.724   8.428   3.505 -0.6771  0.0857  0.3845
    2CHTO    C8  828   2.648   8.367   3.695 -0.1216  0.4366 -0.6313
    2CHTO   H21  829   2.685   8.334   3.792  0.2114  1.4108 -0.4210
    2CHTO    O7  830   2.565   8.265   3.637 -0.1274  0.3110  0.4729
    2CHTO    H2  831   2.589   8.180   3.670  0.1429 -0.2154 -1.0567
    2CHTO   C12  832   2.572   8.502   3.711  0.1343  0.2370  0.3998
    2CHTO   H25  833   2.535   8.535   3.611  0.8605 -1.5773 -0.4924
    2CHTO    N3  834   2.442   8.494   3.795 -0.1919  0.3842 -0.8119
    2CHTO   H12  835   2.373   8.574   3.769 -1.5875 -1.1969 -2.0600
    2CHTO   H13  836   2.455   8.481   3.901 -1.2346 -0.6234 -0.7943
    2CHTO   C15  837   2.673   8.604   3.764 -0.6440 -0.5728  0.0569
    2CHTO   H28  838   2.701   8.585   3.868  2.2539  1.3310 -0.3195
    2CHTO   O10  839   2.619   8.723   3.760 -0.1114  0.4028 -0.3987
    2CHTO    H4  840   2.605   8.757   3.846 -0.9941  2.5191 -1.3257
    2CHTO    O5  841   2.789   8.619   3.684  0.4359  0.6216  0.0628
    2CHTO   C10  842   2.864   8.503   3.651  0.2071  0.0852  0.4685
    2CHTO   H23  843   2.905   8.459   3.742  0.2887 -0.3193  0.2389
    2CHTO   C17  844   2.974   8.535   3.546  0.2353  0.3873  0.7232
    2CHTO   O12  845   3.085   8.570   3.626 -0.6085 -0.1631  0.1961
    2CHTO    H6  846   3.160   8.519   3.604  0.6776  1.0841  1.5879
    3CHTO  H203  847   7.682   2.103   2.321  0.7892  1.2110 -1.5671
    3CHTO   O82  848   7.699   2.026   2.270  0.4146 -0.1684  0.3372
    3CHTO  C123  849   7.664   1.909   2.342 -0.5635 -0.5800  0.0000
    3CHTO  H227  850   7.711   1.906   2.442 -2.1859 -0.4107  0.7857
    3CHTO   O77  851   7.525   1.929   2.358 -0.3142  0.3950  0.1297
    3CHTO  C118  852   7.432   1.822   2.398 -0.3798 -0.7351 -0.5060
    3CHTO  H222  853   7.458   1.796   2.501  1.1600  0.4443 -0.5654
    3CHTO  C125  854   7.288   1.890   2.399  0.7101 -0.1212 -0.2767
    3CHTO   O84  855   7.266   1.977   2.506  0.6295  0.1424  0.3417
    3CHTO  H205  856   7.239   1.927   2.581 -0.6292  1.8480  1.0451
    3CHTO  C114  857   7.444   1.702   2.308 -0.1238  0.6157 -0.0215
    3CHTO  H218  858   7.408   1.724   2.208  0.0078  2.3760  0.3141
    3CHTO  C116  859   7.596   1.658   2.293 -0.0150  0.3415 -0.4952
    3CHTO  H220  860   7.618   1.612   2.391  0.6529  0.5521 -0.5480
    3CHTO   O79  861   7.615   1.549   2.203 -0.2902  0.2777  0.2213
    3CHTO  H201  862   7.575   1.562   2.119 -0.5272 -1.0458  0.1301
    3CHTO  C120  863   7.701   1.776   2.267  0.3170 -0.1757  0.3487
    3CHTO  H224  864   7.696   1.797   2.158  1.6197 -0.8651  0.1535
    3CHTO   N21  865   7.842   1.733   2.287 -0.0673  0.0520  0.1538
    3CHTO  H211  866   7.849   1.662   2.368 -0.0115  2.1081  1.9561
    3CHTO  H212  867   7.884   1.695   2.194 -2.2605  2.0098 -1.7146
    3CHTO   O75  868   7.363   1.609   2.385 -0.2127  0.2837  0.1143
    3CHTO  C112  869   7.264   1.527   2.283  0.8538 -0.3674 -0.7066
    3CHTO  H216  870   7.314   1.503   2.188 -0.5778  0.2788 -1.6327
    3CHTO   O73  871   7.147   1.616   2.259  0.2147  0.1891 -0.2507
    3CHTO  C113  872   7.045   1.566   2.174 -0.7997  0.0464  0.8760
    3CHTO  H217  873   7.089   1.535   2.077  0.6673  2.1436  0.8573
    3CHTO  C124  874   6.958   1.691   2.158 -0.4732  0.0860 -0.1776
    3CHTO   O83  875   7.028   1.809   2.116  0.2783 -0.6330  0.8540
    3CHTO  H204  876   7.011   1.839   2.029 -1.7711  0.7745  1.7237
    3CHTO  C109  877   6.982   1.450   2.251 -0.0989  0.5291 -0.0212
    3CHTO  H213  878   6.934   1.493   2.340  0.0991  1.1927 -0.2311
    3CHTO  C110  879   7.087   1.339   2.292  0.0780 -0.2138 -0.2539
    3CHTO  H214  880   7.123   1.288   2.203 -1.2956 -0.5522 -0.6201
    3CHTO   O78  881   7.016   1.256   2.379 -0.2128 -0.5798  0.0338
    3CHTO  H200  882   6.979   1.186   2.329 -0.5172 -0.9513  0.7722
    3CHTO  C111  883   7.214   1.398   2.358 -0.0563  0.1781  0.1730
    3CHTO  H215  884   7.189   1.431   2.460 -1.8309 -0.4040 -0.0515
    3CHTO   N19  885   7.320   1.303   2.374  0.5148  0.5201 -0.4069
    3CHTO  H207  886   7.343   1.294   2.479 -1.1926 -2.0798 -0.2233
    3CHTO  H208  887   7.287   1.205   2.344  0.8573  0.3060 -0.0913
    3CHTO   O74  888   6.882   1.390   2.161 -0.9072 -0.0228 -0.0470
    3CHTO  C115  889   6.734   1.393   2.195  0.1505 -0.6539 -0.2382
    3CHTO  H219  890   6.718   1.375   2.301  1.7951  1.0447  0.3119
    3CHTO   O76  891   6.676   1.527   2.169  0.3605  0.2542 -0.3980
    3CHTO  C122  892   6.537   1.553   2.196  0.3560  0.5684  0.5051
    3CHTO  H226  893   6.511   1.644   2.143  3.4300  0.7536 -0.7823
    3CHTO  C126  894   6.511   1.583   2.350 -0.1935  0.1805 -0.5931
    3CHTO   O85  895   6.383   1.651   2.368 -0.0007  0.3475  0.1577
    3CHTO  H206  896   6.372   1.679   2.456 -1.3293  1.2972 -0.3023
    3CHTO  C121  897   6.447   1.441   2.134 -0.3266  0.4484 -0.2531
    3CHTO  H225  898   6.343   1.450   2.170 -0.7899 -0.0320 -1.4318
    3CHTO   O81  899   6.438   1.465   1.989 -0.1980  0.3905  0.3970
    3CHTO  H202  900   6.393   1.398   1.942 -0.6494  1.0370 -0.1095
    3CHTO  C119  901   6.504   1.292   2.157  0.3023 -0.3365  0.8968
    3CHTO  H223  902   6.490   1.279   2.265 -0.3090 -0.3133  0.8245
    3CHTO  C117  903   6.655   1.275   2.119  0.5442  0.7564  0.4000
    3CHTO  H221  904   6.679   1.295   2.014 -0.3829 -2.1644 -0.4159
    3CHTO   N20  905   6.718   1.139   2.155  0.3383  0.2788 -0.6859
    3CHTO  H209  906   6.679   1.054   2.101 -1.4225  1.4842 -1.3846
    3CHTO  H210  907   6.825   1.137   2.143 -0.0052  0.7303 -4.6712
    3CHTO   O80  908   6.409   1.175   2.099 -0.6371  0.0231 -0.2321
    3CHTO  C103  909   6.270   1.161   2.146  0.3154 -0.1648 -0.0163
    3CHTO  H190  910   6.255   1.202   2.246 -4.7819  1.8350 -1.4461
    3CHTO  C101  911   6.154   1.216   2.056 -1.1375 -0.1991  0.9384
    3CHTO  H188  912   6.174   1.199   1.950  0.7742  0.5822  1.1416
    3CHTO   O68  913   6.135   1.375   2.078  0.1694  0.1135  0.1504
    3CHTO  H168  914   6.106   1.400   2.163  0.8148  0.6236  0.2259
    3CHTO   C99  915   6.009   1.147   2.099  0.4509 -0.0357  0.8304
    3CHTO  H186  916   5.997   1.178   2.204  0.1366  1.1020  0.4688
    3CHTO   N17  917   5.880   1.188   2.028 -0.1727 -0.3966 -0.7463
    3CHTO  H174  918   5.794   1.141   2.074 -0.3882  0.5719 -0.1313
    3CHTO  H175  919   5.871   1.294   2.009 -2.4258 -0.3999  0.1084
    3CHTO   C97  920   6.028   0.993   2.106  0.9437 -0.8326  0.0063
    3CHTO  H184  921   6.037   0.966   2.000 -3.6935 -1.5293 -0.3078
    3CHTO   O64  922   6.136   0.950   2.188 -0.1219  0.3829  0.2526
    3CHTO  C104  923   6.267   1.000   2.155  0.1897  0.1988 -0.8085
    3CHTO  H191  924   6.291   0.958   2.058  1.0363  0.6200 -0.7811
    3CHTO  C108  925   6.386   0.954   2.251  0.6970  0.1060 -0.1824
    3CHTO   O71  926   6.346   0.970   2.388  0.0411 -0.9211 -0.3510
    3CHTO  H171  927   6.413   0.928   2.439 -1.0755 -0.7974  1.2378
    3CHTO   O62  928   5.914   0.938   2.168  0.7382  0.5264  0.6293
    3CHTO   C91  929   5.882   0.804   2.127 -0.5962  0.1663 -0.0348
    3CHTO  H178  930   5.916   0.792   2.024 -0.3662  0.2990  0.0238
    3CHTO   C92  931   5.730   0.789   2.126  0.3010 -0.5689 -0.0603
    3CHTO  H179  932   5.695   0.808   2.229 -0.4238 -1.1760 -0.1893
    3CHTO   O66  933   5.672   0.883   2.040  0.1094  0.0309 -0.4484
    3CHTO  H166  934   5.586   0.861   2.008 -0.2121  0.5224  0.0709
    3CHTO   C93  935   5.683   0.646   2.082  0.1085  0.6436 -0.5981
    3CHTO  H180  936   5.716   0.646   1.977  1.4136  0.9546 -0.2034
    3CHTO   N16  937   5.533   0.624   2.091 -0.0465  0.7571  0.4578
    3CHTO  H172  938   5.492   0.558   2.166 -1.6111  2.1901  0.9031
    3CHTO  H173  939   5.475   0.618   1.999 -2.2761 -1.6435  1.9695
    3CHTO   C94  940   5.757   0.532   2.152 -0.6655 -0.2329  0.1527
    3CHTO  H181  941   5.691   0.478   2.221 -1.3702 -0.7885 -0.9360
    3CHTO   O61  942   5.860   0.584   2.243  0.9803  0.0140 -0.4282
    3CHTO   C95  943   5.955   0.685   2.202  1.0222  0.5613 -0.2318
    3CHTO  H182  944   6.008   0.720   2.291  0.5080 -0.9053  0.6752
    3CHTO  C106  945   6.065   0.612   2.108 -0.0506 -0.6304  0.0401
    3CHTO   O69  946   6.175   0.694   2.085  0.1418 -0.2705  0.7687
    3CHTO  H169  947   6.158   0.737   2.004  0.9901  0.3737  0.9315
    3CHTO   O63  948   5.808   0.434   2.042  0.0292  0.0304 -0.6449
    3CHTO   C96  949   5.782   0.288   2.066  0.2886 -0.0450 -0.0185
    3CHTO  H183  950   5.828   0.236   1.983  1.7900  1.5511 -0.2042
    3CHTO   C98  951   5.631   0.258   2.055  0.1406 -0.0096 -0.0608
    3CHTO  H185  952   5.572   0.332   2.111  0.7369  0.2478  0.2328
    3CHTO   O67  953   5.596   0.268   1.914  0.0479 -0.1868  0.7147
    3CHTO  H167  954   5.640   0.204   1.862 -0.3116 -0.0039  0.1897
    3CHTO  C102  955   5.595   0.113   2.098 -0.0086  0.3762 -0.7465
    3CHTO  H189  956   5.638   0.048   2.020 -1.3253 -0.8649 -0.4639
    3CHTO   N18  957   5.457   0.082   2.100 -0.1846  0.1957  0.0751
    3CHTO  H176  958   5.419   0.048   2.196  1.6531  0.3056  0.8689
    3CHTO  H177  959   5.412   0.180   2.090 -0.5902  0.1926  1.6987
    3CHTO  C105  960   5.661   0.078   2.231 -0.4525  0.0769 -0.1822
    3CHTO  H192  961   5.615   0.131   2.315  1.2299  0.7655  0.3333
    3CHTO   O65  962   5.802   0.107   2.244  0.5472 -0.2634 -0.2873
    3CHTO  C100  963   5.842   0.235   2.203 -0.5605  0.4815 -0.3717
    3CHTO  H187  964   5.818   0.310   2.280 -1.3889 -0.2558  0.1070
    3CHTO  C107  965   5.994   0.226   2.196 -0.6934 -0.3676 -0.8486
    3CHTO   O70  966   6.057   0.210   2.329 -0.3450 -0.0682  0.4886
    3CHTO  H170  967   6.013   0.144   2.380  1.8878 -0.2212  2.2583
    3CHTO   O57  968   5.642  -0.087   2.261 -0.2559  0.2820 -0.0783
    3CHTO   C85  969   5.643  -0.154   2.392 -0.6987 -0.8263  0.6717
    3CHTO  H157  970   5.643  -0.262   2.366 -0.0592 -0.9097  1.0159
    3CHTO   C83  971   5.508  -0.130   2.468  0.1747 -0.4044  0.0806
    3CHTO  H155  972   5.428  -0.165   2.402  0.1464  1.6231 -0.9957
    3CHTO   O56  973   5.479   0.010   2.479  0.0361 -0.4494  0.5858
    3CHTO  H135  974   5.538   0.031   2.549  1.2899  0.8646 -0.8357
    3CHTO   C81  975   5.506  -0.206   2.599  0.1279  0.1435 -0.1396
    3CHTO  H153  976   5.531  -0.311   2.584 -5.1859 -0.9280 -2.7030
    3CHTO   N14  977   5.377  -0.207   2.668 -0.8832 -0.6333  0.1831
    3CHTO  H141  978   5.327  -0.300   2.656 -3.0988  0.8440 -2.8348
    3CHTO  H142  979   5.316  -0.130   2.625 -0.5416 -0.8535 -0.6969
    3CHTO   C79  980   5.611  -0.144   2.689 -0.0130 -0.1711 -0.6349
    3CHTO  H151  981   5.613  -0.198   2.784  0.3033 -1.5792 -1.4208
    3CHTO   O52  982   5.741  -0.152   2.623  0.7931  0.3267  0.5222
    3CHTO   C86  983   5.761  -0.125   2.482 -0.3438 -0.4533 -1.1329
    3CHTO  H158  984   5.783  -0.017   2.487 -0.6540 -0.4529  0.6644
    3CHTO   C90  985   5.882  -0.190   2.425 -0.8147 -0.3741 -0.4805
    3CHTO   O60  986   5.998  -0.113   2.444 -0.5948  0.2396 -0.5732
    3CHTO  H138  987   6.052  -0.158   2.507 -0.1036  2.0558  0.3281
    3CHTO   O50  988   5.602  -0.001   2.720  0.0800  0.0890 -0.8647
    3CHTO   C73  989   5.636   0.104   2.813 -0.6857 -0.7411  0.7326
    3CHTO  H145  990   5.739   0.086   2.847 -0.1671  1.5577  0.4782
    3CHTO   C74  991   5.541   0.112   2.944  0.5556  0.1180 -0.2241
    3CHTO  H146  992   5.537   0.019   3.003 -2.6947 -1.1249 -2.2795
    3CHTO   O54  993   5.610   0.211   3.026  0.5977  0.2339 -0.3182
    3CHTO  H133  994   5.555   0.284   3.050 -0.1806 -0.6637  0.6903
    3CHTO   C75  995   5.398   0.156   2.896  0.0367 -0.2246 -0.1085
    3CHTO  H147  996   5.353   0.075   2.837  0.3540  0.9479 -2.0221
    3CHTO   N13  997   5.307   0.194   3.012 -0.2125 -0.4619 -0.3068
    3CHTO  H139  998   5.290   0.300   3.027  2.5808 -0.0459  0.2193
    3CHTO  H140  999   5.207   0.155   2.998 -0.3382  0.2119 -1.3756
    3CHTO   C76 1000   5.405   0.270   2.783 -0.0305 -0.3854 -0.4200
    3CHTO  H148 1001   5.421   0.370   2.825  0.1043 -1.0531  1.1529
    3CHTO   O49 1002   5.510   0.256   2.680  0.1218  0.3383 -0.2322
    3CHTO   C77 1003   5.641   0.234   2.727  0.1031  0.2168  0.3195
    3CHTO  H149 1004   5.683   0.315   2.786 -2.0673  1.3424  0.3492
    3CHTO   C88 1005   5.748   0.213   2.619 -0.1403 -0.5365  0.3502
    3CHTO   O58 1006   5.743   0.348   2.518  0.3542  0.2740  0.0512
    3CHTO  H136 1007   5.818   0.397   2.545  0.5586  0.2262 -0.4323
    3CHTO   O51 1008   5.264   0.259   2.708  0.0928 -0.1969  0.0110
    3CHTO   C78 1009   5.229   0.401   2.668  0.6130  0.5853 -0.4610
    3CHTO  H150 1010   5.313   0.472   2.684  0.9463 -0.0061  0.4596
    3CHTO   C80 1011   5.108   0.457   2.753 -0.0530  0.0057  0.8132
    3CHTO  H152 1012   5.031   0.378   2.757 -0.4341  0.2698 -1.0918
    3CHTO   O55 1013   5.157   0.484   2.888 -0.0313  0.0260  0.2243
    3CHTO  H134 1014   5.093   0.473   2.956  2.2575 -2.5006  2.0922
    3CHTO   C84 1015   5.055   0.599   2.703  0.0037  0.5508  0.7652
    3CHTO  H156 1016   5.119   0.665   2.761  2.8771 -1.2045 -0.3335
    3CHTO   N15 1017   4.918   0.641   2.751  0.2750 -0.6137 -0.1953
    3CHTO  H143 1018   4.906   0.640   2.858  1.7525  1.4014  0.0295
    3CHTO  H144 1019   4.890   0.737   2.712  0.7346  0.1325  1.2566
    3CHTO   C87 1020   5.064   0.620   2.541  0.0374 -0.2663  0.4038
    3CHTO  H159 1021   4.975   0.588   2.488 -0.4602 -0.8155  1.5460
    3CHTO   O53 1022   5.193   0.546   2.487  0.3956  0.1323  0.6423
    3CHTO   C82 1023   5.198   0.404   2.520  0.3490 -0.0307 -0.4243
    3CHTO  H154 1024   5.105   0.351   2.498  0.5476 -1.0481  1.0897
    3CHTO   C89 1025   5.309   0.335   2.438  0.0132 -0.0497 -0.8574
    3CHTO   O59 1026   5.313   0.376   2.296  0.8439  0.2269  0.6371
    3CHTO  H137 1027   5.346   0.301   2.250  0.9690 -1.0901  2.7653
    3CHTO   O45 1028   5.077   0.786   2.513  0.2052 -0.4679 -0.1398
    3CHTO   C67 1029   5.215   0.832   2.516 -0.2206 -0.4333 -0.0383
    3CHTO  H124 1030   5.283   0.757   2.556  0.8077  0.3367 -0.3357
    3CHTO   C65 1031   5.244   0.862   2.368  0.1658 -0.2461  0.6819
    3CHTO  H122 1032   5.149   0.895   2.327  0.5775 -0.8315 -0.7620
    3CHTO   O44 1033   5.280   0.740   2.310  0.4569  0.0092  0.5955
    3CHTO  H102 1034   5.207   0.707   2.261  0.4676 -1.0134  1.2558
    3CHTO   C63 1035   5.340   0.986   2.336  0.3428  0.3954  0.3711
    3CHTO  H120 1036   5.288   1.080   2.356  2.2534  1.4449  0.5368
    3CHTO   N11 1037   5.382   1.013   2.196  0.0917 -0.8155  0.6786
    3CHTO  H108 1038   5.487   1.006   2.178 -0.0674 -2.8869  0.4459
    3CHTO  H109 1039   5.333   1.102   2.161 -2.6007 -3.2544 -2.1639
    3CHTO   C61 1040   5.455   0.991   2.444 -0.4594  0.2059 -0.1901
    3CHTO  H118 1041   5.512   1.083   2.424 -0.5048  0.4303  0.7179
    3CHTO   O40 1042   5.391   1.002   2.585  0.0508  0.6021  0.4176
    3CHTO   C68 1043   5.242   0.962   2.602 -1.2272  0.0137  0.0013
    3CHTO  H125 1044   5.177   1.047   2.573  0.9702  1.7284 -0.0074
    3CHTO   C72 1045   5.205   0.932   2.751  0.1597 -0.0668  0.8973
    3CHTO   O48 1046   5.250   1.031   2.845  0.3620  0.0561  0.1658
    3CHTO  H105 1047   5.334   1.007   2.879  0.8529 -0.3821 -1.3384
    3CHTO   O38 1048   5.532   0.869   2.439 -0.5380 -0.5142  0.0177
    3CHTO   C55 1049   5.646   0.849   2.530 -0.2341 -0.0347  0.6465
    3CHTO  H112 1050   5.612   0.904   2.619 -0.2049  1.3904 -0.2020
    3CHTO   C56 1051   5.782   0.904   2.472  0.5451  1.0676  0.0998
    3CHTO  H113 1052   5.808   0.849   2.381  0.7671  1.4193 -0.0510
    3CHTO   O42 1053   5.773   1.047   2.450  0.9158  0.1880 -0.3215
    3CHTO  H100 1054   5.850   1.079   2.407  1.1449 -0.3173 -0.2840
    3CHTO   C57 1055   5.902   0.864   2.580  0.3994 -0.6828 -0.2399
    3CHTO  H114 1056   5.867   0.902   2.676 -0.9705  0.6139 -1.2277
    3CHTO   N10 1057   6.030   0.921   2.540 -0.1418  0.6647  0.2529
    3CHTO  H106 1058   6.097   0.924   2.625  0.3303  1.4483 -0.1544
    3CHTO  H107 1059   6.077   0.856   2.468  1.3733  2.3163 -0.2767
    3CHTO   C58 1060   5.903   0.709   2.587 -0.2722 -0.9556  0.1382
    3CHTO  H115 1061   5.931   0.674   2.486 -2.0899 -2.0186 -0.0333
    3CHTO   O37 1062   5.772   0.656   2.633  0.3185  0.3201  0.2641
    3CHTO   C59 1063   5.661   0.690   2.547  0.2703  0.1658  0.3571
    3CHTO  H116 1064   5.683   0.654   2.446 -2.1027  1.0929 -0.5286
    3CHTO   C70 1065   5.535   0.621   2.599 -0.1153 -0.6239 -0.1428
    3CHTO   O46 1066   5.483   0.683   2.718  0.3035  0.2848 -0.3029
    3CHTO  H103 1067   5.403   0.635   2.728 -0.9324  2.1604 -0.8972
    3CHTO   O39 1068   6.025   0.645   2.700  0.2079 -0.6591 -0.2196
    3CHTO   C60 1069   6.024   0.508   2.735  0.2027  0.2391 -0.6339
    3CHTO  H117 1070   5.929   0.465   2.704  1.1801 -1.3868 -1.4265
    3CHTO   C62 1071   6.138   0.424   2.667  0.9191 -0.2205 -0.3307
    3CHTO  H119 1072   6.118   0.430   2.558  1.8987 -1.6002 -0.5918
    3CHTO   O43 1073   6.266   0.486   2.696  0.2915  0.5460 -0.5342
    3CHTO  H101 1074   6.296   0.448   2.776 -3.9899 -1.1240  0.4287
    3CHTO   C66 1075   6.109   0.272   2.705  0.3013  0.8421 -0.3896
    3CHTO  H123 1076   6.008   0.244   2.673  1.6511 -0.2492 -3.9469
    3CHTO   N12 1077   6.199   0.177   2.635  0.5789  0.6489  0.6521
    3CHTO  H110 1078   6.198   0.077   2.676  1.9024  0.5429  0.4558
    3CHTO  H111 1079   6.184   0.182   2.528  1.5394  0.0074  0.4858
    3CHTO   C69 1080   6.116   0.254   2.859 -0.3183 -0.2232  0.0599
    3CHTO  H126 1081   6.218   0.285   2.888  0.5629 -1.0951 -2.0334
    3CHTO   O41 1082   6.024   0.338   2.918 -0.0735  0.5138  0.2544
    3CHTO   C64 1083   6.033   0.489   2.894 -0.5637 -0.3001 -0.1251
    3CHTO  H121 1084   6.130   0.535   2.923 -1.2438  2.3325 -1.9191
    3CHTO   C71 1085   5.913   0.554   2.966 -0.2016 -0.6586  0.5811
    3CHTO   O47 1086   5.920   0.697   2.958 -0.1253 -0.4975  0.3794
    3CHTO  H104 1087   5.838   0.725   2.993 -1.8364 -2.6244 -1.7256
    3CHTO   O34 1088   6.081   0.096   2.909  0.1253  0.0480 -0.2772
    3CHTO   C49 1089   6.129  -0.068   2.904  1.0788 -0.1114 -0.8270
    3CHTO   H91 1090   6.212  -0.067   2.833  1.7957  3.0356 -0.0020
    3CHTO   C47 1091   6.007  -0.152   2.858 -1.0818 -0.1914  0.6197
    3CHTO   H89 1092   5.989  -0.137   2.749  1.6732 -0.0854  0.1530
    3CHTO   O33 1093   5.892  -0.113   2.924 -0.2188  0.2249 -0.3417
    3CHTO   H70 1094   5.825  -0.091   2.862  0.8639  0.3400 -1.4785
    3CHTO   C45 1095   6.035  -0.305   2.895  0.2414  0.5954 -0.1154
    3CHTO   H87 1096   5.988  -0.322   2.994  0.4029  0.7729 -0.0087
    3CHTO    N8 1097   5.969  -0.386   2.793 -0.8121 -0.1346 -0.1298
    3CHTO   H75 1098   5.877  -0.432   2.827 -1.0648  1.2801  1.1576
    3CHTO   H76 1099   6.031  -0.468   2.762 -1.4804 -1.1094  1.0428
    3CHTO   C43 1100   6.191  -0.340   2.922 -0.4626 -0.1340 -0.1397
    3CHTO   H85 1101   6.198  -0.446   2.949  2.9898  0.2903  0.8763
    3CHTO   O29 1102   6.237  -0.255   3.037  0.0992 -0.2748 -0.3118
    3CHTO   C50 1103   6.183  -0.124   3.037  0.0450 -0.4547 -0.5960
    3CHTO   H92 1104   6.115  -0.126   3.124 -0.5003  0.8299 -0.9944
    3CHTO   C54 1105   6.300  -0.045   3.100 -0.0319 -0.0567 -0.3018
    3CHTO   O36 1106   6.425  -0.053   3.032  0.4184 -0.2337 -0.4344
    3CHTO   H72 1107   6.493  -0.005   3.075 -1.2324  0.3145  1.6710
    3CHTO   O27 1108   6.277  -0.325   2.806  0.2213  0.2426  0.2357
    3CHTO   C37 1109   6.349  -0.329   2.679  0.1820  0.0186 -1.0756
    3CHTO   H79 1110   6.373  -0.429   2.639  1.9696  1.1291 -2.9078
    3CHTO   C38 1111   6.258  -0.269   2.565 -1.3883 -0.3089  0.7750
    3CHTO   H80 1112   6.198  -0.183   2.599 -0.3916  1.4018 -1.6634
    3CHTO   O31 1113   6.159  -0.374   2.512 -0.7532  0.1038 -0.5305
    3CHTO   H68 1114   6.097  -0.392   2.579  2.1703 -2.9530  1.5513
    3CHTO   C39 1115   6.356  -0.225   2.440 -0.7732  0.5413 -0.8197
    3CHTO   H81 1116   6.405  -0.315   2.402 -1.2647  1.1047 -2.8476
    3CHTO    N7 1117   6.284  -0.155   2.327 -0.1075  0.5665  0.6367
    3CHTO   H73 1118   6.337  -0.070   2.288 -2.3054  1.3194 -0.8089
    3CHTO   H74 1119   6.270  -0.228   2.248 -1.4074 -0.9648  2.2396
    3CHTO   C40 1120   6.479  -0.149   2.501 -0.1906  0.3351  0.1497
    3CHTO   H82 1121   6.431  -0.063   2.548 -1.3377 -0.0568 -0.2994
    3CHTO   O26 1122   6.552  -0.228   2.597 -0.1810 -0.3745 -0.3049
    3CHTO   C41 1123   6.488  -0.247   2.714  0.5047  0.6876  0.8846
    3CHTO   H83 1124   6.469  -0.155   2.771 -1.5171 -0.7289  2.5586
    3CHTO   C52 1125   6.588  -0.324   2.800  0.4493  0.0644  0.2411
    3CHTO   O35 1126   6.700  -0.249   2.871  0.1550 -0.3276 -0.0061
    3CHTO   H71 1127   6.774  -0.303   2.891  1.8396  1.7921 -0.2958
    3CHTO   O28 1128   6.570  -0.096   2.405  0.2079  0.0024  0.6178
    3CHTO   C42 1129   6.638   0.035   2.417  0.2707 -0.3706  0.3130
    3CHTO   H84 1130   6.724   0.042   2.349  2.2386  0.6956  2.8188
    3CHTO   C44 1131   6.697   0.067   2.557  0.0333  0.6411  0.5871
    3CHTO   H86 1132   6.613   0.062   2.626 -0.2785  0.4505  0.1925
    3CHTO   O32 1133   6.794  -0.035   2.587  0.2689 -0.1627 -0.5052
    3CHTO   H69 1134   6.860  -0.008   2.647 -1.0765  0.2529  0.8331
    3CHTO   C48 1135   6.760   0.214   2.563  0.1927 -0.9892  0.0164
    3CHTO   H90 1136   6.846   0.201   2.496  1.5820  2.4991  0.9980
    3CHTO    N9 1137   6.809   0.249   2.695 -0.2737 -0.5331 -0.6206
    3CHTO   H77 1138   6.873   0.335   2.687  0.4714 -0.8676  1.4454
    3CHTO   H78 1139   6.862   0.163   2.734 -0.6144 -0.6085 -0.3179
    3CHTO   C51 1140   6.648   0.325   2.523  0.4883  1.2471  0.1153
    3CHTO   H93 1141   6.571   0.332   2.600  2.7363  1.5803  2.4047
    3CHTO   O30 1142   6.592   0.299   2.397  0.4090  0.3239 -0.4330
    3CHTO   C46 1143   6.544   0.143   2.380 -0.1358  0.0467  0.6541
    3CHTO   H88 1144   6.461   0.146   2.450  0.6197  1.5730  1.4950
    3CHTO   C53 1145   6.499   0.129   2.234 -0.0258 -0.0166  0.2264
    3CHTO   O72 1146   6.377   0.199   2.202 -0.1627 -0.1683 -0.6566
    3CHTO  H199 1147   6.335   0.150   2.134  0.2344 -1.0132 -0.3090
    3CHTO   O22 1148   6.716   0.454   2.505 -0.0377 -0.4796  0.2271
    3CHTO   C31 1149   6.742   0.542   2.386  0.2379 -0.2236 -0.5168
    3CHTO   H59 1150   6.788   0.636   2.422 -0.1438  0.5796 -2.0949
    3CHTO   C29 1151   6.826   0.480   2.278  0.3575  0.5133  1.0726
    3CHTO   H57 1152   6.761   0.403   2.234  1.6187 -0.2186  0.4838
    3CHTO   O21 1153   6.941   0.416   2.336 -0.0027 -0.3280 -0.5984
    3CHTO   H37 1154   6.976   0.346   2.285  1.0333  0.0940 -0.4704
    3CHTO   C27 1155   6.851   0.589   2.162 -0.1367  0.6607 -0.6786
    3CHTO   H55 1156   6.900   0.678   2.205  3.7999 -0.5235 -2.4484
    3CHTO    N5 1157   6.938   0.536   2.055  0.9126  0.0520  0.0158
    3CHTO   H43 1158   7.007   0.459   2.085 -2.3768 -2.7716  0.6837
    3CHTO   H44 1159   6.995   0.620   2.018  1.5101 -0.2727  0.1927
    3CHTO   C25 1160   6.715   0.645   2.111 -1.3200  0.0375  0.7097
    3CHTO   H53 1161   6.672   0.561   2.055  0.9513 -0.2477 -0.6437
    3CHTO   O17 1162   6.633   0.692   2.220  0.5070 -0.6542 -0.0627
    3CHTO   C32 1163   6.609   0.587   2.316 -0.1334  0.0066 -0.0229
    3CHTO   H60 1164   6.562   0.499   2.270  0.9482  0.3095 -1.7702
    3CHTO   C36 1165   6.496   0.629   2.421  0.0888 -0.1910  0.3100
    3CHTO   O25 1166   6.368   0.652   2.363 -0.7791  0.5280  0.2160
    3CHTO   H40 1167   6.341   0.741   2.346 -1.7026  0.3272  0.6174
    3CHTO   O15 1168   6.731   0.753   1.993 -0.2062 -0.2447 -0.5293
    3CHTO   C19 1169   6.686   0.782   1.859  0.0293  1.0293  0.1808
    3CHTO   H47 1170   6.670   0.683   1.815  0.6046  0.7910  0.4959
    3CHTO   C20 1171   6.560   0.874   1.858 -0.4526 -0.4346 -0.4987
    3CHTO   H48 1172   6.585   0.971   1.904 -0.7215 -1.1437  1.2112
    3CHTO   O19 1173   6.468   0.815   1.950 -0.4463 -0.6678 -0.4091
    3CHTO   H35 1174   6.473   0.850   2.037  0.5034 -0.0717 -0.6970
    3CHTO   C21 1175   6.511   0.893   1.712  0.3727 -0.5999  0.1727
    3CHTO   H49 1176   6.480   0.793   1.682 -0.9322 -0.7858  1.9833
    3CHTO    N4 1177   6.393   0.981   1.688 -1.0106 -0.2111  0.2918
    3CHTO   H41 1178   6.419   1.086   1.687 -3.2545  0.3928  1.3135
    3CHTO   H42 1179   6.342   0.954   1.597 -3.2948 -1.5850  1.9193
    3CHTO   C22 1180   6.626   0.932   1.620  0.2946 -0.9391 -0.5300
    3CHTO   H50 1181   6.663   1.030   1.650  2.6861 -1.9709  0.0255
    3CHTO   O14 1182   6.737   0.850   1.636  0.3129  0.0426 -0.0630
    3CHTO   C23 1183   6.792   0.849   1.769  0.2526  0.2072  0.7548
    3CHTO   H51 1184   6.808   0.955   1.795  0.4843  0.6000 -0.9700
    3CHTO   C34 1185   6.935   0.797   1.776 -0.1616  0.2645 -0.2882
    3CHTO   O23 1186   6.995   0.837   1.900  0.3000  0.1126  0.7881
    3CHTO   H38 1187   7.035   0.769   1.950 -0.6419 -0.6041  0.5651
    3CHTO   O16 1188   6.601   0.943   1.482 -0.0588 -0.2621  0.5012
    3CHTO   C24 1189   6.686   1.062   1.403  0.3582 -0.1060  0.6005
    3CHTO   H52 1190   6.760   1.113   1.465 -0.9554 -0.5334  2.5682
    3CHTO   C26 1191   6.592   1.171   1.355  0.2921  0.5494  0.4445
    3CHTO   H54 1192   6.508   1.122   1.302  0.9387 -0.3054  0.1973
    3CHTO   O20 1193   6.535   1.231   1.470  0.4276  0.6914 -0.2465
    3CHTO   H36 1194   6.447   1.259   1.453 -0.1063 -1.7885 -1.7453
    3CHTO   C30 1195   6.660   1.269   1.259  0.3214 -0.3165 -0.8639
    3CHTO   H58 1196   6.732   1.332   1.314 -0.6096  1.5722 -1.7729
    3CHTO    N6 1197   6.564   1.369   1.206 -0.2316 -0.4181  0.2649
    3CHTO   H45 1198   6.620   1.448   1.157  2.0954 -2.1997  0.0004
    3CHTO   H46 1199   6.516   1.406   1.296 -0.1873 -0.6108  0.3675
    3CHTO   C33 1200   6.733   1.199   1.147  0.1574  0.2700 -0.0099
    3CHTO   H61 1201   6.657   1.142   1.091  0.2055 -0.3923  0.5906
    3CHTO   O18 1202   6.825   1.103   1.204  0.3908  0.1177  0.3367
    3CHTO   C28 1203   6.761   1.004   1.283  0.1383  0.1651 -0.4615
    3CHTO   H56 1204   6.690   0.944   1.225 -0.7550 -0.5235  1.3236
    3CHTO   C35 1205   6.880   0.909   1.328  0.8039  0.0021 -0.5733
    3CHTO   O24 1206   6.969   0.965   1.424  0.7454 -0.4119  0.2308
    3CHTO   H39 1207   6.930   0.966   1.509  0.0636 -1.5840 -0.0645
    3CHTO    O9 1208   6.795   1.287   1.047 -0.0818  0.4922  0.5806
    3CHTO   C13 1209   6.921   1.398   1.110  0.0438 -0.3576  0.9466
    3CHTO   H26 1210   6.908   1.387   1.220 -0.8505 -2.1248  0.6834
    3CHTO   C11 1211   6.896   1.541   1.065  0.5760  0.6759  0.1676
    3CHTO   H24 1212   6.808   1.576   1.122  0.1396  0.8853 -0.6293
    3CHTO    O8 1213   6.872   1.536   0.927 -0.1436 -0.3032  0.4524
    3CHTO    H3 1214   6.785   1.565   0.907 -0.3398 -1.7664 -0.9104
    3CHTO    C9 1215   7.018   1.625   1.110 -0.0703  0.1970  0.0330
    3CHTO   H22 1216   7.029   1.613   1.218 -1.8972 -1.5136  0.0418
    3CHTO    N2 1217   6.986   1.776   1.103 -0.2880  0.1037 -0.1314
    3CHTO   H10 1218   6.968   1.806   1.001 -0.6869 -0.6857 -0.2975
    3CHTO   H11 1219   6.913   1.821   1.169 -1.0783 -1.2724 -0.0385
    3CHTO    C7 1220   7.152   1.576   1.042 -0.1996  0.4206 -0.0922
    3CHTO   H20 1221   7.226   1.584   1.125 -0.1757 -0.4065 -0.0264
    3CHTO    O4 1222   7.145   1.439   1.003  0.9347  0.6307 -0.2258
    3CHTO   C14 1223   7.072   1.345   1.085 -0.6228  0.2181  0.1144
    3CHTO   H27 1224   7.135   1.340   1.176 -1.3029  1.4792  0.6662
    3CHTO   C18 1225   7.076   1.212   1.013  0.5619  0.2417  0.1549
    3CHTO   O13 1226   7.207   1.169   0.980  0.2874 -0.0844 -0.2795
    3CHTO    H7 1227   7.265   1.164   1.054  0.4334  0.1915 -0.3743
    3CHTO    O2 1228   7.178   1.664   0.912 -0.3349 -0.1651 -0.3529
    3CHTO    C1 1229   7.292   1.625   0.834  0.1899 -0.1392 -0.0052
    3CHTO   H14 1230   7.338   1.532   0.872  0.8416  0.1318 -0.1325
    3CHTO    C2 1231   7.397   1.740   0.819 -0.7883 -0.1169 -0.1371
    3CHTO   H15 1232   7.346   1.835   0.798 -0.4040 -0.1953 -1.4854
    3CHTO    O6 1233   7.467   1.761   0.941  0.1127  0.1476  0.2350
    3CHTO    H1 1234   7.407   1.792   1.005 -1.5905  0.9788 -1.7197
    3CHTO    C3 1235   7.506   1.702   0.701 -0.0525 -0.0463  0.0057
    3CHTO   H16 1236   7.566   1.618   0.740 -0.5980 -1.1522 -1.5120
    3CHTO    N1 1237   7.596   1.823   0.671 -0.3746 -0.2066 -0.1820
    3CHTO    H8 1238   7.570   1.856   0.571 -2.4583  0.2412  0.4660
    3CHTO    H9 1239   7.700   1.797   0.678  0.2171  2.1775  0.3029
    3CHTO    C4 1240   7.441   1.643   0.569 -0.0025 -0.7644 -0.0540
    3CHTO   H17 1241   7.401   1.727   0.512  3.3871  1.3488  0.5622
    3CHTO    O1 1242   7.340   1.547   0.605 -0.0921  0.2617  0.3828
    3CHTO    C5 1243   7.235   1.591   0.692 -0.4284  0.4922  0.2815
    3CHTO   H18 1244   7.184   1.679   0.654 -0.8997  0.1293  0.0738
    3CHTO   C16 1245   7.135   1.474   0.689 -0.6368  0.2686 -0.1659
    3CHTO   O11 1246   7.195   1.353   0.733  0.6402  0.2473  0.0102
    3CHTO    H5 1247   7.134   1.281   0.735  0.8531  0.0816  0.8137
    3CHTO    O3 1248   7.534   1.573   0.492  0.6114 -0.1322 -0.0131
    3CHTO    C6 1249   7.499   1.556   0.353 -0.0839  0.6653 -0.6788
    3CHTO   H19 1250   7.393   1.567   0.329 -0.1610  2.9982  0.5954
    3CHTO    C8 1251   7.584   1.660   0.270  0.3077 -0.5103 -0.3975
    3CHTO   H21 1252   7.684   1.659   0.314  0.5850 -1.0242 -1.0388
    3CHTO    O7 1253   7.529   1.789   0.298  0.4417  1.1605  0.1926
    3CHTO    H2 1254   7.571   1.838   0.366 -2.9993  2.8803  1.2304
    3CHTO   C12 1255   7.581   1.635   0.113  0.8580  0.1437 -0.2237
    3CHTO   H25 1256   7.481   1.660   0.074  1.0508 -0.1359 -0.9021
    3CHTO    N3 1257   7.684   1.726   0.041 -0.3763  0.2003  0.4150
    3CHTO   H12 1258   7.642   1.752  -0.055  2.2356 -1.9969 -1.3773
    3CHTO   H13 1259   7.773   1.664   0.038  0.9775  2.2106 -1.8323
    3CHTO   C15 1260   7.606   1.478   0.084 -0.1594  0.2220 -1.5663
    3CHTO   H28 1261   7.710   1.449   0.098 -0.6784 -0.6186  0.7606
    3CHTO   O10 1262   7.560   1.430  -0.050  0.3427 -0.3038  0.0297
    3CHTO    H4 1263   7.614   1.456  -0.123 -0.7313  1.9626 -0.0013
    3CHTO    O5 1264   7.536   1.394   0.166  0.3824 -0.0957 -0.2348
    3CHTO   C10 1265   7.552   1.413   0.305 -0.5743  0.2645 -0.0590
    3CHTO   H23 1266   7.659   1.427   0.319 -0.6336 -0.2590  1.0157
    3CHTO   C17 1267   7.477   1.291   0.365 -0.4975 -0.0270 -0.0990
    3CHTO   O12 1268   7.544   1.170   0.340 -0.1897  0.4518 -0.0092
    3CHTO    H6 1269   7.533   1.111   0.412 -1.0175  0.8761  0.2124
    4CHTO  H203 1270   5.411   7.150   2.833 -1.9886  1.9163 -0.5556
    4CHTO   O82 1271   5.484   7.208   2.823 -0.1435 -0.0770  0.9285
    4CHTO  C123 1272   5.442   7.335   2.875  0.0186 -0.0722 -0.0922
    4CHTO  H227 1273   5.363   7.318   2.950  1.8677 -0.6609  1.7477
    4CHTO   O77 1274   5.557   7.382   2.944 -0.1674 -0.2748 -0.0334
    4CHTO  C118 1275   5.536   7.507   3.015  0.6838  0.0583  0.2086
    4CHTO  H222 1276   5.445   7.492   3.075  0.0505  0.7977 -0.5597
    4CHTO  C125 1277   5.655   7.542   3.110 -0.2102  0.2061  0.2093
    4CHTO   O84 1278   5.706   7.436   3.185 -0.5627  0.2774  1.1135
    4CHTO  H205 1279   5.658   7.419   3.264 -2.3297  0.2384  0.0645
    4CHTO  C114 1280   5.512   7.624   2.913  0.5340 -0.3350 -0.2731
    4CHTO  H218 1281   5.606   7.644   2.861  0.3363  1.5485  0.0601
    4CHTO  C116 1282   5.396   7.584   2.818 -0.6670 -0.4611 -0.1756
    4CHTO  H220 1283   5.300   7.597   2.872 -0.3579  0.8027  0.0919
    4CHTO   O79 1284   5.391   7.671   2.704 -0.0666 -0.2277 -0.1353
    4CHTO  H201 1285   5.478   7.668   2.669 -0.3741  0.8241 -1.0345
    4CHTO  C120 1286   5.403   7.434   2.759  0.0991 -0.0154 -0.6376
    4CHTO  H224 1287   5.489   7.436   2.689  2.1700  0.7126  1.8592
    4CHTO   N21 1288   5.282   7.398   2.685  0.2979 -0.1800  0.4128
    4CHTO  H211 1289   5.306   7.304   2.636 -1.8783 -0.5726  0.0446
    4CHTO  H212 1290   5.201   7.375   2.754 -0.4195 -0.9575 -0.6598
    4CHTO   O75 1291   5.471   7.744   2.990 -0.8766 -0.2843 -0.4228
    4CHTO  C112 1292   5.517   7.868   2.937  0.2614  0.2580 -0.1429
    4CHTO  H216 1293   5.492   7.872   2.830  0.9768 -0.6729 -0.3543
    4CHTO   O73 1294   5.656   7.890   2.965  0.6977 -0.4336 -0.2902
    4CHTO  C113 1295   5.710   8.001   2.893  0.2519 -0.1890 -0.6949
    4CHTO  H217 1296   5.689   7.992   2.784  0.1360 -0.2576 -0.6674
    4CHTO  C124 1297   5.866   7.995   2.897 -0.6366 -0.1847 -0.6303
    4CHTO   O83 1298   5.928   8.021   3.027  0.6867 -0.2599 -0.1271
    4CHTO  H204 1299   5.943   7.942   3.075  1.1116  1.0006  1.8865
    4CHTO  C109 1300   5.645   8.131   2.948 -0.2992  0.0300  0.4364
    4CHTO  H213 1301   5.662   8.133   3.057 -0.8262 -0.4887  0.5334
    4CHTO  C110 1302   5.485   8.127   2.927 -0.3187  0.4321  0.3940
    4CHTO  H214 1303   5.460   8.140   2.822 -1.2862  0.3286  0.6083
    4CHTO   O78 1304   5.432   8.247   2.988 -0.2616  0.6538  0.6476
    4CHTO  H200 1305   5.351   8.264   2.944  0.6151  0.9994 -0.8721
    4CHTO  C111 1306   5.436   7.993   2.994  0.4236  0.0603 -1.0820
    4CHTO  H215 1307   5.443   7.999   3.104  1.1433  2.3568 -1.2259
    4CHTO   N19 1308   5.292   7.978   2.962  0.1574  0.0153 -0.8934
    4CHTO  H207 1309   5.228   8.045   3.020  4.2963  0.2223  3.8116
    4CHTO  H208 1310   5.254   7.961   2.863 -0.2788  0.7586 -0.8612
    4CHTO   O74 1311   5.709   8.249   2.883  0.0392  0.1299 -0.0920
    4CHTO  C115 1312   5.692   8.375   2.901  1.2791 -0.9352  0.1631
    4CHTO  H219 1313   5.596   8.408   2.861  0.1741 -2.7969  1.1866
    4CHTO   O76 1314   5.689   8.417   3.065  0.0899 -0.5908  0.5284
    4CHTO  C122 1315   5.697   8.555   3.100  0.7215  0.5201  0.0923
    4CHTO  H226 1316   5.740   8.564   3.199  0.3438 -2.7877  0.6141
    4CHTO  C126 1317   5.546   8.620   3.111  0.0589 -0.1404  0.0560
    4CHTO   O85 1318   5.462   8.595   2.996  0.1611  0.1091 -0.3313
    4CHTO  H206 1319   5.378   8.637   3.002  0.7176  1.2410 -0.2772
    4CHTO  C121 1320   5.790   8.644   3.002 -0.0887  0.0950  0.6706
    4CHTO  H225 1321   5.775   8.754   3.014  0.9285  0.5519 -1.7980
    4CHTO   O81 1322   5.926   8.625   3.049  0.0945 -0.3046  0.2185
    4CHTO  H202 1323   5.977   8.700   3.025  0.7521 -0.8138  0.0072
    4CHTO  C119 1324   5.782   8.607   2.850  0.2083  0.3687  0.1889
    4CHTO  H223 1325   5.680   8.624   2.815  1.0418  0.2767 -2.4528
    4CHTO  C117 1326   5.804   8.455   2.824 -0.8553 -0.1387 -0.2919
    4CHTO  H221 1327   5.902   8.421   2.857 -1.6961 -0.9545  1.4051
    4CHTO   N20 1328   5.793   8.426   2.674  0.1983 -0.1242 -0.2879
    4CHTO  H209 1329   5.692   8.414   2.636 -0.0050 -0.6109  0.3838
    4CHTO  H210 1330   5.860   8.346   2.645  1.3631  0.6406  0.2479
    4CHTO   O80 1331   5.860   8.719   2.745 -0.4740  0.3446  0.2513
    4CHTO  C103 1332   5.995   8.753   2.766  0.4941 -0.7554 -0.2777
    4CHTO  H190 1333   6.028   8.736   2.869  0.6159  0.4142 -0.1256
    4CHTO  C101 1334   6.109   8.685   2.679  0.3596 -0.8272 -0.4476
    4CHTO  H188 1335   6.081   8.685   2.574 -1.7942 -1.3856  0.1177
    4CHTO   O68 1336   6.130   8.525   2.717  0.6192 -0.0999  0.1886
    4CHTO  H168 1337   6.190   8.497   2.650 -0.7709 -2.0834 -0.2809
    4CHTO   C99 1338   6.248   8.763   2.695 -0.5957  0.1248  0.3100
    4CHTO  H186 1339   6.288   8.755   2.799 -1.9062 -0.4643  0.7868
    4CHTO   N17 1340   6.350   8.702   2.604 -0.2370  0.0210  0.2607
    4CHTO  H174 1341   6.413   8.622   2.640 -1.4978 -1.0654  0.0587
    4CHTO  H175 1342   6.304   8.684   2.508  0.5312 -1.3624  0.1458
    4CHTO   C97 1343   6.231   8.913   2.679 -0.2297  0.3099 -0.1004
    4CHTO  H184 1344   6.204   8.929   2.573  1.6054 -1.9633 -0.9461
    4CHTO   O64 1345   6.131   8.965   2.766 -0.4733 -0.5140  0.1201
    4CHTO  C104 1346   6.000   8.913   2.742  0.0267 -0.4498  0.7950
    4CHTO  H191 1347   5.964   8.927   2.640 -0.8546  0.4718  1.2303
    4CHTO  C108 1348   5.910   8.989   2.835 -0.3362  0.0478 -0.3350
    4CHTO   O71 1349   5.778   8.971   2.801 -0.1362 -0.4752 -0.6468
    4CHTO  H171 1350   5.746   9.059   2.803  0.2051 -0.3521 -0.5189
    4CHTO   O62 1351   6.344   8.981   2.709 -0.5318 -0.0046  0.2530
    4CHTO   C91 1352   6.388   9.085   2.621  0.7041 -0.5358 -0.2191
    4CHTO  H178 1353   6.353   9.072   2.519 -1.8162 -1.6319  0.7414
    4CHTO   C92 1354   6.545   9.089   2.619 -0.1159 -0.5604  0.5642
    4CHTO  H179 1355   6.579   9.132   2.714 -1.8698  1.3443  0.3660
    4CHTO   O66 1356   6.606   8.961   2.614 -0.1943 -0.1027 -0.2016
    4CHTO  H166 1357   6.700   8.968   2.618 -0.2344  1.5396 -1.9637
    4CHTO   C93 1358   6.586   9.176   2.495  0.1773  0.6352  0.5684
    4CHTO  H180 1359   6.562   9.112   2.408  1.0340  1.7526 -0.5117
    4CHTO   N16 1360   6.729   9.200   2.483  0.2603 -0.2230 -0.3061
    4CHTO  H172 1361   6.759   9.273   2.556 -0.4200  0.1685 -0.4162
    4CHTO  H173 1362   6.781   9.107   2.504  2.6825  0.7811 -1.6466
    4CHTO   C94 1363   6.494   9.304   2.482  0.0084  0.0237 -0.0269
    4CHTO  H181 1364   6.554   9.394   2.468  0.5141 -0.3372 -0.1951
    4CHTO   O61 1365   6.426   9.335   2.610  0.0995 -0.2434  0.5084
    4CHTO   C95 1366   6.346   9.230   2.674  0.5482  0.9284  1.0189
    4CHTO  H182 1367   6.356   9.235   2.782 -0.0843  0.9361  1.0788
    4CHTO  C106 1368   6.185   9.267   2.654 -0.0480  0.2273 -0.6392
    4CHTO   O69 1369   6.154   9.386   2.717  0.6274 -0.0606 -0.1453
    4CHTO  H169 1370   6.061   9.394   2.713  0.4140 -1.6072  1.0296
    4CHTO   O63 1371   6.404   9.292   2.358  0.4704 -0.0293  0.0834
    4CHTO   C96 1372   6.491   9.279   2.213  0.2039  0.2789  0.2468
    4CHTO  H183 1373   6.588   9.234   2.233 -0.3526 -1.0057  0.1103
    4CHTO   C98 1374   6.521   9.417   2.143 -0.0784  0.1514 -0.0453
    4CHTO  H185 1375   6.432   9.477   2.120 -0.1576 -0.1477 -0.5428
    4CHTO   O67 1376   6.601   9.500   2.226 -0.0423 -0.3253  0.7867
    4CHTO  H167 1377   6.672   9.455   2.269  0.9254  0.2229 -0.1934
    4CHTO  C102 1378   6.591   9.381   2.004 -0.3723  0.3393  0.6772
    4CHTO  H189 1379   6.680   9.323   2.033  1.1646  2.1576 -0.2925
    4CHTO   N18 1380   6.650   9.492   1.926  0.4776 -0.4139 -0.3813
    4CHTO  H176 1381   6.568   9.521   1.861  1.0693 -1.0431 -1.4335
    4CHTO  H177 1382   6.670   9.572   1.994 -0.5009  0.7201 -1.4032
    4CHTO  C105 1383   6.491   9.295   1.921  0.4210 -0.2324  0.3322
    4CHTO  H192 1384   6.403   9.356   1.901  0.9501  0.1734 -0.7576
    4CHTO   O65 1385   6.469   9.173   1.993 -0.1316 -0.1231 -0.0299
    4CHTO  C100 1386   6.408   9.192   2.116  0.1675 -0.2477 -0.1479
    4CHTO  H187 1387   6.317   9.252   2.102  0.8567  0.3976 -1.9815
    4CHTO  C107 1388   6.382   9.052   2.179 -0.5121 -1.0884  0.1862
    4CHTO   O70 1389   6.301   8.987   2.082  0.1962  0.4472 -0.1957
    4CHTO  H170 1390   6.218   8.963   2.119 -0.2723  2.4985  0.1266
    4CHTO   O57 1391   6.539   9.260   1.790  0.2594  0.3949 -0.5213
    4CHTO   C85 1392   6.455   9.199   1.691 -0.3047 -0.4510 -0.6539
    4CHTO  H157 1393   6.365   9.264   1.701  1.1060  1.2978  1.1952
    4CHTO   C83 1394   6.406   9.057   1.723  0.3978  0.0149  0.1808
    4CHTO  H155 1395   6.349   9.053   1.816  1.7840  0.6790  1.0846
    4CHTO   O56 1396   6.516   8.971   1.750 -0.8203  0.0510 -0.4377
    4CHTO  H135 1397   6.593   8.985   1.698 -0.6962  0.6203 -0.1107
    4CHTO   C81 1398   6.322   9.004   1.604  0.8472 -0.0081 -0.3683
    4CHTO  H153 1399   6.240   9.074   1.591 -1.9742 -2.7956  1.6167
    4CHTO   N14 1400   6.251   8.873   1.635 -0.1147 -0.4129  0.0424
    4CHTO  H141 1401   6.202   8.838   1.546 -0.0600 -1.4158  0.3983
    4CHTO  H142 1402   6.323   8.798   1.658  0.1053  0.4216  2.2146
    4CHTO   C79 1403   6.408   9.007   1.468 -1.2311  0.0294 -0.7499
    4CHTO  H151 1404   6.340   8.973   1.391 -2.7377 -1.0903  1.0330
    4CHTO   O52 1405   6.448   9.145   1.435  0.7346  0.1978 -0.4586
    4CHTO   C86 1406   6.521   9.214   1.546  0.3414 -0.1828  0.7631
    4CHTO  H158 1407   6.624   9.176   1.536  0.4067 -0.1417  1.2490
    4CHTO   C90 1408   6.526   9.359   1.501 -0.2978  0.5845  0.0723
    4CHTO   O60 1409   6.562   9.382   1.368 -0.0214  0.5178 -0.1288
    4CHTO  H138 1410   6.591   9.469   1.348 -1.5214  0.8958 -0.7189
    4CHTO   O50 1411   6.522   8.918   1.483 -0.4870  0.4864  0.2603
    4CHTO   C73 1412   6.621   8.920   1.381 -0.3933 -0.1869  0.7282
    4CHTO  H145 1413   6.637   9.027   1.359 -1.5927  0.1953  1.6568
    4CHTO   C74 1414   6.574   8.840   1.252 -0.3894  0.7478 -0.1391
    4CHTO  H146 1415   6.480   8.883   1.213  0.7691  1.5266 -2.1535
    4CHTO   O54 1416   6.672   8.866   1.150  0.1496  0.1228 -0.0823
    4CHTO  H133 1417   6.640   8.836   1.067 -1.2804  1.0428  0.1078
    4CHTO   C75 1418   6.550   8.687   1.296 -0.3708  0.3123 -0.2581
    4CHTO  H147 1419   6.467   8.679   1.368  1.5398 -0.3717  1.9372
    4CHTO   N13 1420   6.510   8.601   1.183 -0.0424 -0.2159 -0.4165
    4CHTO  H139 1421   6.470   8.508   1.221 -0.6928 -0.6725 -2.1627
    4CHTO  H140 1422   6.424   8.648   1.138  0.2181  1.2959  0.6111
    4CHTO   C76 1423   6.681   8.636   1.355  0.1443  0.2791 -0.2692
    4CHTO  H148 1424   6.756   8.641   1.276  1.5868 -2.0047  0.9163
    4CHTO   O49 1425   6.728   8.712   1.466 -0.0387  0.2554 -0.8297
    4CHTO   C77 1426   6.753   8.849   1.439 -0.2784 -0.5307 -0.3941
    4CHTO  H149 1427   6.837   8.860   1.370 -0.3237 -0.4742 -0.4404
    4CHTO   C88 1428   6.810   8.915   1.570  0.2482 -0.4486  0.3887
    4CHTO   O58 1429   6.864   9.039   1.527 -0.6014 -0.0435  0.1779
    4CHTO  H136 1430   6.904   9.089   1.596 -0.1204 -0.9589  0.5664
    4CHTO   O51 1431   6.673   8.495   1.391 -0.3527  0.0481  0.2789
    4CHTO   C78 1432   6.797   8.378   1.344 -0.1467  0.4533 -0.4610
    4CHTO  H150 1433   6.898   8.415   1.369 -0.6015  0.1679  1.9398
    4CHTO   C80 1434   6.788   8.355   1.189  0.1341 -0.4281  0.4822
    4CHTO  H152 1435   6.684   8.328   1.161  0.2272  0.6784 -1.0520
    4CHTO   O55 1436   6.827   8.479   1.119  0.5217 -0.0232  0.8427
    4CHTO  H134 1437   6.918   8.477   1.094 -0.1448  0.4736 -1.8295
    4CHTO   C84 1438   6.885   8.239   1.149  0.0398  0.0505 -0.0905
    4CHTO  H156 1439   6.991   8.262   1.160  0.1376 -0.6776  0.5777
    4CHTO   N15 1440   6.871   8.194   1.004  0.2282  0.8901 -0.0159
    4CHTO  H143 1441   6.964   8.164   0.961  0.0618 -0.5834  0.6447
    4CHTO  H144 1442   6.821   8.266   0.943  2.9314  1.8311 -1.2176
    4CHTO   C87 1443   6.871   8.115   1.238 -0.2069 -0.2902 -0.6569
    4CHTO  H159 1444   6.781   8.056   1.222 -0.2243 -0.6574  0.7069
    4CHTO   O53 1445   6.875   8.157   1.380 -0.0586 -0.1336  0.2079
    4CHTO   C82 1446   6.767   8.250   1.420  0.1262  0.0998 -0.4346
    4CHTO  H154 1447   6.670   8.217   1.384  0.4183 -0.2025 -0.9511
    4CHTO   C89 1448   6.760   8.268   1.571 -0.0099 -0.3089 -0.3841
    4CHTO   O59 1449   6.888   8.327   1.604 -0.1865  0.1290  0.0653
    4CHTO  H137 1450   6.932   8.292   1.679 -0.4065 -0.2708  0.0098
    4CHTO   O45 1451   7.004   8.000   1.226 -0.6285  0.0105  0.3747
    4CHTO   C67 1452   6.972   7.868   1.166 -0.5182  0.1106  0.7528
    4CHTO  H124 1453   6.943   7.887   1.063 -0.2291  2.4306  1.0811
    4CHTO   C65 1454   7.100   7.784   1.178 -0.3288 -0.2566  0.0265
    4CHTO  H122 1455   7.190   7.842   1.157 -0.1732 -0.2390  0.7391
    4CHTO   O44 1456   7.097   7.679   1.078  0.1580  0.0032  0.3968
    4CHTO  H102 1457   7.030   7.615   1.091  0.5629 -0.7548 -1.2086
    4CHTO   C63 1458   7.113   7.729   1.325  0.4278 -0.4522 -0.3374
    4CHTO  H120 1459   7.102   7.813   1.394 -0.0355 -0.9483  0.1927
    4CHTO   N11 1460   7.248   7.690   1.359 -0.7145  0.4654 -0.3659
    4CHTO  H108 1461   7.329   7.758   1.338  0.0450 -0.5739 -0.8253
    4CHTO  H109 1462   7.255   7.680   1.466  1.9041  1.2470 -0.4273
    4CHTO   C61 1463   7.007   7.624   1.356  0.6542  0.7226  0.0261
    4CHTO  H118 1464   6.997   7.617   1.465 -1.1919 -0.5643 -0.1951
    4CHTO   O40 1465   6.876   7.672   1.319 -0.5074 -0.4537 -0.3141
    4CHTO   C68 1466   6.847   7.797   1.237  0.0092  0.1601 -0.3689
    4CHTO  H125 1467   6.803   7.866   1.312  0.5246 -2.5394  2.5261
    4CHTO   C72 1468   6.732   7.766   1.133 -0.4145  0.5295  0.1616
    4CHTO   O48 1469   6.684   7.881   1.057 -0.1436 -0.2024 -0.4685
    4CHTO  H105 1470   6.668   7.852   0.969 -2.4101  0.4954 -0.3198
    4CHTO   O38 1471   7.037   7.493   1.290 -0.4632  0.3501 -0.3444
    4CHTO   C55 1472   6.986   7.380   1.369  0.2266 -0.0283  0.3060
    4CHTO  H112 1473   6.894   7.409   1.422 -0.4328  0.8120 -1.2964
    4CHTO   C56 1474   7.099   7.327   1.471  0.8299  1.1682  0.3996
    4CHTO  H113 1475   7.182   7.299   1.405 -1.2679 -3.2257 -0.5883
    4CHTO   O42 1476   7.149   7.430   1.551 -0.2658  0.2836 -0.2064
    4CHTO  H100 1477   7.213   7.399   1.612  0.3223  1.5595 -0.1495
    4CHTO   C57 1478   7.051   7.204   1.562 -0.5880  0.2546  0.4058
    4CHTO  H114 1479   6.995   7.247   1.645 -0.5207 -0.5454  0.8682
    4CHTO   N10 1480   7.163   7.139   1.638 -0.0177  0.0993  0.1345
    4CHTO  H106 1481   7.188   7.197   1.726 -1.7366  1.9982 -0.5722
    4CHTO  H107 1482   7.251   7.132   1.576 -0.1712  1.6649 -0.2942
    4CHTO   C58 1483   6.961   7.105   1.478  0.3780  0.6749 -0.0251
    4CHTO  H115 1484   7.025   7.030   1.427 -0.2872  1.2839 -1.7909
    4CHTO   O37 1485   6.874   7.171   1.385  0.6079  0.3837  0.1527
    4CHTO   C59 1486   6.942   7.257   1.289 -0.3126 -0.1938 -0.3034
    4CHTO  H116 1487   7.029   7.203   1.250 -0.9202 -1.1571 -0.3397
    4CHTO   C70 1488   6.845   7.291   1.172  0.0589  0.3080  0.5288
    4CHTO   O46 1489   6.716   7.347   1.211 -0.5050  0.1560  0.5379
    4CHTO  H103 1490   6.652   7.280   1.225 -0.6771  0.0855 -0.4927
    4CHTO   O39 1491   6.882   7.010   1.592 -1.0211  0.1872 -0.1078
    4CHTO   C60 1492   6.795   6.910   1.533 -0.8180 -0.8067  0.5085
    4CHTO  H117 1493   6.800   6.911   1.424  1.2971 -2.6221  0.5624
    4CHTO   C62 1494   6.839   6.761   1.568  0.3181 -0.2093 -0.5844
    4CHTO  H119 1495   6.944   6.744   1.536  1.4951  0.7675  2.5903
    4CHTO   O43 1496   6.842   6.753   1.712 -0.2677 -0.3970 -0.5514
    4CHTO  H101 1497   6.874   6.833   1.748  0.7634 -0.7636 -0.6492
    4CHTO   C66 1498   6.726   6.660   1.503 -0.6606 -1.0866  0.3527
    4CHTO  H123 1499   6.737   6.675   1.396  0.5330  1.5588  0.7852
    4CHTO   N12 1500   6.763   6.521   1.532 -0.8816 -0.3205 -0.4264
    4CHTO  H110 1501   6.868   6.519   1.506 -1.0038 -0.6390 -0.8923
    4CHTO  H111 1502   6.707   6.452   1.472 -0.1716  0.1577 -1.6591
    4CHTO   C69 1503   6.589   6.697   1.563  0.1267  0.4145  0.5355
    4CHTO  H126 1504   6.582   6.705   1.673  0.5046  1.0437  0.5103
    4CHTO   O41 1505   6.566   6.835   1.514 -0.2307  0.3237 -0.4509
    4CHTO   C64 1506   6.641   6.932   1.574  0.1961 -0.4526  0.3166
    4CHTO  H121 1507   6.627   6.936   1.684  0.9870  0.3203  0.3968
    4CHTO   C71 1508   6.588   7.068   1.530 -0.4965  0.9501 -0.0570
    4CHTO   O47 1509   6.583   7.094   1.391  0.1499 -0.1208  0.1512
    4CHTO  H104 1510   6.552   7.179   1.366 -1.2376 -0.8216 -0.5806
    4CHTO   O34 1511   6.467   6.597   1.517  0.0408 -0.3123 -0.3190
    4CHTO   C49 1512   6.364   6.624   1.411 -0.5052 -0.4809  0.1360
    4CHTO   H91 1513   6.316   6.712   1.453  0.3286  0.1207 -0.1698
    4CHTO   C47 1514   6.258   6.507   1.413 -0.7171 -0.3205  0.2289
    4CHTO   H89 1515   6.176   6.553   1.354  1.6753 -1.7885 -4.5682
    4CHTO   O33 1516   6.217   6.483   1.544 -0.8438  0.3468 -0.2027
    4CHTO   H70 1517   6.285   6.439   1.593 -0.0869  1.6077 -0.0910
    4CHTO   C45 1518   6.311   6.377   1.336 -0.3118 -0.2475  0.0700
    4CHTO   H87 1519   6.357   6.303   1.405  2.4516 -1.7189 -3.2018
    4CHTO    N8 1520   6.201   6.310   1.260  0.3618 -0.2465  0.5558
    4CHTO   H75 1521   6.195   6.203   1.277  2.1996 -0.3564  0.5929
    4CHTO   H76 1522   6.234   6.321   1.157 -1.9190  2.2430  0.0354
    4CHTO   C43 1523   6.440   6.411   1.249 -0.4591 -0.1369  0.0189
    4CHTO   H85 1524   6.519   6.424   1.324 -0.8682  1.0670  0.2561
    4CHTO   O29 1525   6.421   6.532   1.179  0.6786 -0.0120  0.2579
    4CHTO   C50 1526   6.414   6.648   1.263 -0.5808 -0.4529  0.3848
    4CHTO   H92 1527   6.515   6.692   1.262 -0.9499  0.4288  1.3908
    4CHTO   C54 1528   6.312   6.740   1.191  0.5109 -0.3965 -0.3222
    4CHTO   O36 1529   6.311   6.867   1.258  0.2662 -0.4510 -0.1805
    4CHTO   H72 1530   6.227   6.909   1.249  1.2991  1.1995 -2.4367
    4CHTO   O27 1531   6.497   6.319   1.154  0.4649  0.0058  0.2815
    4CHTO   C37 1532   6.600   6.220   1.164 -0.0676 -0.5054  0.2065
    4CHTO   H79 1533   6.601   6.160   1.072  2.1635 -0.8274  0.4087
    4CHTO   C38 1534   6.738   6.289   1.168  0.1837  0.4488  0.7094
    4CHTO   H80 1535   6.743   6.357   1.254 -0.1524  0.3072  0.8396
    4CHTO   O31 1536   6.753   6.365   1.047 -0.1282 -0.3810  0.1696
    4CHTO   H68 1537   6.837   6.407   1.056  0.0055 -0.0796 -2.2740
    4CHTO   C39 1538   6.843   6.171   1.172 -0.3551 -0.0232 -0.0701
    4CHTO   H81 1539   6.847   6.122   1.075 -1.1429  2.2218 -1.2525
    4CHTO    N7 1540   6.981   6.221   1.200 -0.2230 -0.3932  0.3454
    4CHTO   H73 1541   7.036   6.142   1.249 -0.7007 -0.2738  1.0823
    4CHTO   H74 1542   7.022   6.265   1.110  1.1866  0.0414  1.1932
    4CHTO   C40 1543   6.811   6.056   1.279  0.2759 -0.4225  0.1466
    4CHTO   H82 1544   6.832   6.092   1.380 -1.9502 -0.6858  0.7261
    4CHTO   O26 1545   6.678   6.011   1.266 -0.3170 -1.0738 -0.4344
    4CHTO   C41 1546   6.588   6.124   1.288  0.4646 -0.2297  0.0760
    4CHTO   H83 1547   6.624   6.173   1.380  0.1690 -1.9991  1.1564
    4CHTO   C52 1548   6.451   6.060   1.310 -0.5212 -0.3532 -0.7902
    4CHTO   O35 1549   6.457   5.971   1.408 -0.4751 -0.0065 -0.4653
    4CHTO   H71 1550   6.462   5.884   1.371 -0.8670  0.2302 -1.0865
    4CHTO   O28 1551   6.882   5.935   1.241 -0.2755  0.2618  0.3728
    4CHTO   C42 1552   6.908   5.824   1.339 -0.3260  0.2369  0.3674
    4CHTO   H84 1553   6.961   5.759   1.270 -0.0870  1.2368 -0.4052
    4CHTO   C44 1554   6.784   5.744   1.391  0.0187 -0.7344  0.1112
    4CHTO   H86 1555   6.705   5.813   1.421 -1.1863 -1.2802 -1.7319
    4CHTO   O32 1556   6.740   5.673   1.274  0.4172  0.1603  0.1731
    4CHTO   H69 1557   6.681   5.603   1.295  0.2568  0.0758 -0.5258
    4CHTO   C48 1558   6.819   5.647   1.510  0.5279  0.4610  0.2629
    4CHTO   H90 1559   6.881   5.568   1.466  0.7146  1.6578 -1.6741
    4CHTO    N9 1560   6.689   5.580   1.556  0.4822  0.0848  0.1705
    4CHTO   H77 1561   6.694   5.472   1.546 -1.2399 -0.0147  0.2945
    4CHTO   H78 1562   6.668   5.607   1.658  1.6047  1.3089  0.0837
    4CHTO   C51 1563   6.900   5.714   1.622  0.1120  0.1335  0.2352
    4CHTO   H93 1564   6.852   5.806   1.655  0.7421 -0.1745  2.0893
    4CHTO   O30 1565   7.028   5.743   1.559  0.4449  0.6387  0.7206
    4CHTO   C46 1566   7.009   5.866   1.456  1.2626 -0.4304 -0.5720
    4CHTO   H88 1567   6.980   5.954   1.515  0.8226  0.5597 -2.2339
    4CHTO   C53 1568   7.147   5.910   1.398  0.8401  0.0318  0.0794
    4CHTO   O72 1569   7.249   5.948   1.494 -0.1134  0.1447  0.2008
    4CHTO  H199 1570   7.289   6.031   1.476 -0.1526  0.2216  0.4741
    4CHTO   O22 1571   6.937   5.634   1.736 -0.7904  0.4285 -0.3437
    4CHTO   C31 1572   6.868   5.638   1.865  0.4295 -1.1169  0.0584
    4CHTO   H59 1573   6.763   5.669   1.845  0.5494 -0.9762 -0.3431
    4CHTO   C29 1574   6.859   5.501   1.927 -0.0992  0.2663  0.1470
    4CHTO   H57 1575   6.962   5.466   1.943  0.0062  0.7710  0.5696
    4CHTO   O21 1576   6.793   5.414   1.837  0.2818  0.7613 -0.0684
    4CHTO   H37 1577   6.704   5.440   1.823 -0.3670 -1.8992 -1.1886
    4CHTO   C27 1578   6.790   5.494   2.069  0.1094  0.2496 -0.6803
    4CHTO   H55 1579   6.683   5.514   2.056 -0.4098 -0.4168  2.2130
    4CHTO    N5 1580   6.806   5.362   2.135  0.2635 -0.0742 -0.1098
    4CHTO   H43 1581   6.887   5.300   2.100  0.4769 -0.6182  1.2975
    4CHTO   H44 1582   6.713   5.308   2.125 -0.5459  1.5717 -1.8369
    4CHTO   C25 1583   6.846   5.608   2.160  0.2662  0.0254  0.4181
    4CHTO   H53 1584   6.954   5.589   2.174 -0.1322 -1.4797  1.5523
    4CHTO   O17 1585   6.846   5.741   2.091 -0.0307 -0.0906 -0.1825
    4CHTO   C32 1586   6.926   5.742   1.971  0.0926 -0.7389 -0.2696
    4CHTO   H60 1587   7.026   5.708   1.995  0.0481 -1.5205 -1.1981
    4CHTO   C36 1588   6.937   5.884   1.917  0.1781 -1.1346  0.0916
    4CHTO   O25 1589   6.996   5.967   2.015 -0.3481 -0.1839  0.3902
    4CHTO   H40 1590   6.944   5.980   2.091 -1.2194  1.0988 -0.3879
    4CHTO   O15 1591   6.775   5.628   2.300  0.1409  0.4272  0.0371
    4CHTO   C19 1592   6.772   5.761   2.376  0.0591  0.4749  0.7037
    4CHTO   H47 1593   6.761   5.724   2.480  1.8519  0.3030  0.8485
    4CHTO   C20 1594   6.907   5.842   2.365 -0.5447  0.6503  0.2652
    4CHTO   H48 1595   6.923   5.885   2.265 -1.6714 -0.4542 -0.3958
    4CHTO   O19 1596   7.013   5.754   2.396 -0.1731 -0.1686 -0.1733
    4CHTO   H35 1597   7.093   5.804   2.398 -0.4342  0.2300  3.1807
    4CHTO   C21 1598   6.895   5.963   2.465 -0.7015  0.1634  0.3243
    4CHTO   H49 1599   6.893   5.923   2.567  1.0698  1.1851  0.7832
    4CHTO    N4 1600   7.018   6.051   2.465  0.0256 -0.4940  0.0459
    4CHTO   H41 1601   7.107   6.010   2.420 -0.0105 -0.2661 -0.2382
    4CHTO   H42 1602   6.993   6.145   2.417  5.5534  0.8336 -0.5779
    4CHTO   C22 1603   6.766   6.042   2.425 -0.1400 -0.6488  0.2974
    4CHTO   H50 1604   6.778   6.068   2.320 -0.7785 -2.1067 -0.1555
    4CHTO   O14 1605   6.651   5.956   2.448  0.3187 -0.6325  0.0607
    4CHTO   C23 1606   6.644   5.856   2.349  0.1171 -0.3487  0.2312
    4CHTO   H51 1607   6.644   5.895   2.246 -2.5724 -2.4380 -0.6184
    4CHTO   C34 1608   6.517   5.773   2.371  0.2185  0.0091 -0.8064
    4CHTO   O23 1609   6.502   5.729   2.507  0.0378 -0.1005 -0.0826
    4CHTO   H38 1610   6.520   5.638   2.521  2.5192  0.7989  3.4578
    4CHTO   O16 1611   6.744   6.158   2.508 -0.8307 -0.3717  0.2358
    4CHTO   C24 1612   6.683   6.279   2.451  0.0750 -0.2600 -0.0964
    4CHTO   H52 1613   6.598   6.254   2.388 -1.8311 -0.4089  2.4196
    4CHTO   C26 1614   6.792   6.359   2.383  0.0359  0.2469  0.0906
    4CHTO   H54 1615   6.889   6.346   2.436  1.1488 -0.3846 -2.0392
    4CHTO   O20 1616   6.808   6.312   2.245  0.4061 -0.7483 -0.0494
    4CHTO   H36 1617   6.763   6.231   2.233  2.7692 -2.3978  1.6290
    4CHTO   C30 1618   6.763   6.513   2.379  0.2045 -0.1688  0.1529
    4CHTO   H58 1619   6.678   6.532   2.311  0.6985 -0.2719 -0.5003
    4CHTO    N6 1620   6.880   6.597   2.331  0.1500 -0.1963  0.1489
    4CHTO   H45 1621   6.853   6.653   2.243  0.6269 -2.3462 -1.3859
    4CHTO   H46 1622   6.901   6.670   2.408  0.6182  0.0876 -0.2534
    4CHTO   C33 1623   6.717   6.555   2.520 -0.2130 -0.4661  0.0885
    4CHTO   H61 1624   6.795   6.526   2.592 -0.0373 -0.9317 -0.2854
    4CHTO   O18 1625   6.603   6.482   2.548 -0.4844  0.4380 -0.1239
    4CHTO   C28 1626   6.625   6.344   2.573  0.7441  0.2048  0.1630
    4CHTO   H56 1627   6.691   6.326   2.658  0.4931  0.8473  0.4995
    4CHTO   C35 1628   6.486   6.285   2.617  0.1550  0.6789 -0.0061
    4CHTO   O24 1629   6.465   6.144   2.640  0.3903 -0.0475 -0.6538
    4CHTO   H39 1630   6.511   6.123   2.719 -0.3644 -2.5340 -0.8436
    4CHTO    O9 1631   6.689   6.694   2.537 -0.0433 -0.3407 -0.1606
    4CHTO   C13 1632   6.772   6.768   2.628 -0.4341 -0.1665  0.0941
    4CHTO   H26 1633   6.856   6.704   2.663 -1.0808 -0.7810  0.5466
    4CHTO   C11 1634   6.676   6.805   2.751  0.0494 -0.0502 -0.3401
    4CHTO   H24 1635   6.649   6.707   2.793  0.2812 -0.4489 -1.1134
    4CHTO    O8 1636   6.555   6.881   2.718  0.4309  0.0639  0.0049
    4CHTO    H3 1637   6.578   6.965   2.684  1.7528 -0.3814 -0.2302
    4CHTO    C9 1638   6.768   6.876   2.857  0.1231 -0.6932 -0.0535
    4CHTO   H22 1639   6.849   6.803   2.872 -1.9504 -3.2083 -0.6512
    4CHTO    N2 1640   6.702   6.888   2.991 -0.0023 -0.3485  0.3101
    4CHTO   H10 1641   6.648   6.981   2.988  1.9184  0.7900 -0.1095
    4CHTO   H11 1642   6.638   6.802   3.007 -1.4744  1.2691  3.4997
    4CHTO    C7 1643   6.839   7.008   2.805 -0.2112  0.3479  0.6445
    4CHTO   H20 1644   6.945   6.985   2.829 -0.2150  0.0118  0.3388
    4CHTO    O4 1645   6.819   7.025   2.662 -0.0276  0.1868 -0.0877
    4CHTO   C14 1646   6.840   6.905   2.578 -0.1680 -0.0980  0.0089
    4CHTO   H27 1647   6.950   6.894   2.584 -0.2585 -0.7781  0.4942
    4CHTO   C18 1648   6.794   6.948   2.436 -0.0928 -0.2444 -0.0173
    4CHTO   O13 1649   6.891   7.039   2.382  0.0524 -0.1463 -0.1684
    4CHTO    H7 1650   6.848   7.120   2.360 -0.7353  0.0415  1.9621
    4CHTO    O2 1651   6.790   7.158   2.881 -0.2964  0.6562  0.6639
    4CHTO    C1 1652   6.900   7.257   2.900  0.3927 -0.2182 -0.0025
    4CHTO   H14 1653   6.999   7.211   2.883  0.9195  1.4432 -1.5483
    4CHTO    C2 1654   6.894   7.328   3.049  0.0645  0.5970 -0.3716
    4CHTO   H15 1655   6.795   7.376   3.051 -0.5978 -0.5487 -2.9802
    4CHTO    O6 1656   6.909   7.226   3.150 -0.1982 -0.0115 -0.1225
    4CHTO    H1 1657   6.980   7.170   3.125  1.0030  2.7575 -3.3310
    4CHTO    C3 1658   7.004   7.448   3.053  1.2571  0.6932 -0.3263
    4CHTO   H16 1659   7.101   7.407   3.021  0.7291 -0.9036  0.0361
    4CHTO    N1 1660   7.026   7.506   3.189 -0.3487 -0.2978  0.0750
    4CHTO    H8 1661   7.030   7.613   3.185  2.3690 -0.3858  0.0265
    4CHTO    H9 1662   6.948   7.477   3.258  1.5073 -1.9546  1.5202
    4CHTO    C4 1663   6.968   7.549   2.944 -0.2823  0.1026 -0.6761
    4CHTO   H17 1664   6.871   7.591   2.968  0.4980  1.4088  0.2972
    4CHTO    O1 1665   6.968   7.487   2.817 -0.0378 -0.9069 -0.7775
    4CHTO    C5 1666   6.880   7.370   2.795  0.1363 -0.4506 -0.3242
    4CHTO   H18 1667   6.783   7.418   2.807  1.4960  2.5994 -1.1047
    4CHTO   C16 1668   6.905   7.319   2.649 -0.7180  0.2490 -0.1859
    4CHTO   O11 1669   7.041   7.300   2.631  0.2433 -0.8066  0.2224
    4CHTO    H5 1670   7.047   7.277   2.540 -1.3107 -0.7710  0.1038
    4CHTO    O3 1671   7.073   7.649   2.939  0.2083  0.3374 -0.5540
    4CHTO    C6 1672   7.037   7.774   2.863 -0.1825 -0.6506  1.0198
    4CHTO   H19 1673   6.941   7.768   2.813  0.2256 -0.1849  0.1724
    4CHTO    C8 1674   7.003   7.886   2.972 -0.2670  0.2689  0.6402
    4CHTO   H21 1675   7.087   7.901   3.040  1.2512 -1.1234 -0.8696
    4CHTO    O7 1676   6.878   7.849   3.040  0.0216 -0.5397 -0.1356
    4CHTO    H2 1677   6.816   7.818   2.976 -1.0135 -0.1483  0.6688
    4CHTO   C12 1678   6.989   8.028   2.904  0.7598 -0.1755  0.3404
    4CHTO   H25 1679   6.894   8.024   2.846 -0.5937  2.7921  2.2283
    4CHTO    N3 1680   6.968   8.140   3.002  0.0894 -0.4847 -0.5686
    4CHTO   H12 1681   6.869   8.128   3.043  0.2671  1.7483  0.5728
    4CHTO   H13 1682   7.034   8.126   3.086 -2.0293 -3.0786  0.7193
    4CHTO   C15 1683   7.112   8.052   2.801 -0.1903  0.5741  0.4304
    4CHTO   H28 1684   7.207   8.049   2.855 -0.2162 -1.7453  0.3568
    4CHTO   O10 1685   7.094   8.180   2.722  0.0655  0.5048 -0.0228
    4CHTO    H4 1686   7.042   8.233   2.779  0.1596 -0.4291  0.9522
    4CHTO    O5 1687   7.109   7.946   2.704  0.2646  0.1049 -0.9119
    4CHTO   C10 1688   7.147   7.818   2.759  0.7658 -0.3925  0.0141
    4CHTO   H23 1689   7.248   7.829   2.799  0.5011 -1.3833  0.9815
    4CHTO   C17 1690   7.154   7.708   2.656  0.0599  0.0262  0.0003
    4CHTO   O12 1691   7.222   7.741   2.535  0.8816  0.2452 -0.1872
    4CHTO    H6 1692   7.191   7.687   2.465  2.2101 -0.9061  0.1093
    5CHTO  H203 1693   7.683   3.296   1.546  0.7135  0.3891  1.1018
    5CHTO   O82 1694   7.600   3.326   1.576  0.1306 -0.2965  0.1998
    5CHTO  C123 1695   7.575   3.255   1.697 -0.8817  0.0737 -0.1041
    5CHTO  H227 1696   7.630   3.160   1.695 -0.0349  0.5273  0.8927
    5CHTO   O77 1697   7.649   3.339   1.796  0.0552  0.2385  0.0166
    5CHTO  C118 1698   7.650   3.281   1.928 -0.0875  0.9054 -0.3039
    5CHTO  H222 1699   7.693   3.180   1.918 -1.8088 -0.1790  2.5978
    5CHTO  C125 1700   7.746   3.375   2.013 -0.1907  0.2924  0.0139
    5CHTO   O84 1701   7.677   3.503   2.028  0.2607  0.2473 -0.2706
    5CHTO  H205 1702   7.683   3.561   1.955 -1.0486  2.1893  1.1283
    5CHTO  C114 1703   7.510   3.265   1.986 -0.3802 -0.0554 -0.0993
    5CHTO  H218 1704   7.460   3.362   1.990 -0.0444  0.0860  0.6738
    5CHTO  C116 1705   7.426   3.175   1.890  0.0707  0.5684  0.3797
    5CHTO  H220 1706   7.473   3.075   1.901 -0.8330  0.4075  3.1676
    5CHTO   O79 1707   7.291   3.163   1.941 -0.0606 -0.7266 -0.5254
    5CHTO  H201 1708   7.285   3.124   2.027 -0.0715  0.3980 -0.0001
    5CHTO  C120 1709   7.428   3.230   1.742  0.0024  0.5245 -0.0852
    5CHTO  H224 1710   7.369   3.324   1.736 -1.1385 -0.2004 -0.3561
    5CHTO   N21 1711   7.354   3.141   1.644 -0.2823 -0.6473  0.2809
    5CHTO  H211 1712   7.254   3.181   1.633 -0.2967 -0.2133  1.8832
    5CHTO  H212 1713   7.355   3.035   1.662  0.2684 -0.5199  1.0468
    5CHTO   O75 1714   7.520   3.225   2.125  0.4808 -0.5211 -0.2128
    5CHTO  C112 1715   7.391   3.265   2.215  0.4788  0.0564  0.2101
    5CHTO  H216 1716   7.298   3.233   2.165  0.2185 -0.6094  1.1066
    5CHTO   O73 1717   7.400   3.411   2.228  0.3629  0.0782 -0.3373
    5CHTO  C113 1718   7.282   3.457   2.297 -0.5914  0.1818 -0.2810
    5CHTO  H217 1719   7.194   3.422   2.239 -0.0548  2.0900 -2.3252
    5CHTO  C124 1720   7.286   3.614   2.289 -0.0729  0.0712 -0.0996
    5CHTO   O83 1721   7.166   3.674   2.336 -0.4829  0.4738 -0.2200
    5CHTO  H204 1722   7.099   3.653   2.274 -0.1010 -1.8825  0.1189
    5CHTO  C109 1723   7.265   3.400   2.444 -0.3729  0.3539 -0.3476
    5CHTO  H213 1724   7.344   3.450   2.502 -0.8357  0.5599  0.1080
    5CHTO  C110 1725   7.291   3.249   2.443  0.3469  0.5782  0.1027
    5CHTO  H214 1726   7.196   3.206   2.411 -0.0126  0.5408  1.1702
    5CHTO   O78 1727   7.302   3.200   2.576 -0.1398 -0.2900 -0.7486
    5CHTO  H200 1728   7.222   3.159   2.602 -0.4534  0.6394 -0.2003
    5CHTO  C111 1729   7.407   3.203   2.354  0.0933 -0.1605 -0.0099
    5CHTO  H215 1730   7.503   3.229   2.400 -0.5842  1.1473  0.6983
    5CHTO   N19 1731   7.406   3.055   2.337 -0.5651  0.1930 -0.1943
    5CHTO  H207 1732   7.499   3.023   2.293 -0.6136  1.7584 -1.4657
    5CHTO  H208 1733   7.396   3.009   2.434  4.1039  1.1559  0.8339
    5CHTO   O74 1734   7.140   3.438   2.496 -0.0943 -0.4904 -0.4165
    5CHTO  C115 1735   7.118   3.442   2.663  0.0895  0.3393 -0.2512
    5CHTO  H219 1736   7.194   3.387   2.717 -1.7129 -0.4771  1.5125
    5CHTO   O76 1737   7.119   3.590   2.720  0.1987  0.1187  0.2560
    5CHTO  C122 1738   7.025   3.680   2.648 -0.6880 -0.3751 -0.3209
    5CHTO  H226 1739   7.081   3.714   2.561 -0.1332 -0.9024 -0.1756
    5CHTO  C126 1740   7.021   3.800   2.744 -0.0392  0.6396 -0.3939
    5CHTO   O85 1741   6.949   3.916   2.697 -0.0756 -0.2486 -0.1458
    5CHTO  H206 1742   6.910   3.898   2.613  0.4974  1.3625 -0.7851
    5CHTO  C121 1743   6.886   3.610   2.622  0.2588 -0.0260  0.7201
    5CHTO  H225 1744   6.812   3.687   2.652  1.1640  1.0968  0.1406
    5CHTO   O81 1745   6.874   3.581   2.479 -0.5131  0.0882  0.3075
    5CHTO  H202 1746   6.868   3.666   2.439  1.5523  0.3286  0.4658
    5CHTO  C119 1747   6.870   3.491   2.712 -0.6275  0.3544  0.2676
    5CHTO  H223 1748   6.892   3.520   2.814 -0.6951  1.0907  0.0710
    5CHTO  C117 1749   6.975   3.375   2.685  0.3557 -0.5777 -0.0269
    5CHTO  H221 1750   6.966   3.324   2.589  1.9282  1.7336 -1.4735
    5CHTO   N20 1751   6.973   3.270   2.791 -0.4265 -0.3801 -0.3590
    5CHTO  H209 1752   7.055   3.280   2.860  0.2685 -0.1484 -1.2098
    5CHTO  H210 1753   6.883   3.252   2.848  0.3510  0.9135  1.3230
    5CHTO   O80 1754   6.716   3.451   2.730  0.0473  0.2759 -0.7278
    5CHTO  C103 1755   6.627   3.420   2.603 -0.3791  0.2248  0.0924
    5CHTO  H190 1756   6.633   3.493   2.523 -1.3364 -1.7922 -1.8965
    5CHTO  C101 1757   6.648   3.279   2.534 -0.0307  0.0355  0.0851
    5CHTO  H188 1758   6.650   3.201   2.610  0.6253 -0.1009 -0.0759
    5CHTO   O68 1759   6.768   3.289   2.457  0.1905  0.1564 -0.2651
    5CHTO  H168 1760   6.755   3.275   2.365  2.8387  0.8103 -0.7658
    5CHTO   C99 1761   6.522   3.246   2.429 -0.6155  0.7777 -0.5104
    5CHTO  H186 1762   6.511   3.325   2.351  1.6354 -0.4986 -2.1719
    5CHTO   N17 1763   6.527   3.115   2.361 -0.7197  0.0511 -0.4708
    5CHTO  H174 1764   6.611   3.055   2.393  0.5727  0.5545 -2.7349
    5CHTO  H175 1765   6.528   3.126   2.253 -1.0583 -0.0833 -0.4871
    5CHTO   C97 1766   6.385   3.255   2.504  0.5668  0.6638  0.4611
    5CHTO  H184 1767   6.382   3.179   2.583  0.8924  0.8653  0.6665
    5CHTO   O64 1768   6.382   3.387   2.560  0.4551  0.2995  0.3473
    5CHTO  C104 1769   6.478   3.423   2.659  1.2837  0.3475  0.1606
    5CHTO  H191 1770   6.477   3.354   2.743  1.1770  0.0617 -0.0772
    5CHTO  C108 1771   6.436   3.556   2.709  0.2089 -0.5164 -0.4760
    5CHTO   O71 1772   6.348   3.551   2.821 -0.2711  0.4188 -0.9184
    5CHTO  H171 1773   6.276   3.612   2.815 -1.3873 -0.5775  1.7407
    5CHTO   O62 1774   6.265   3.246   2.420 -0.2176  0.2776 -0.3602
    5CHTO   C91 1775   6.143   3.199   2.476  0.1477 -0.1284 -0.0708
    5CHTO  H178 1776   6.135   3.249   2.572  0.0464 -1.0288  0.3965
    5CHTO   C92 1777   6.137   3.043   2.511 -0.2584  0.2369  0.7292
    5CHTO  H179 1778   6.179   2.989   2.425 -1.0838  2.0043 -0.7951
    5CHTO   O66 1779   6.229   3.014   2.620  0.4788  0.1725 -0.1017
    5CHTO  H166 1780   6.311   3.058   2.610  0.4015  0.3329 -0.0337
    5CHTO   C93 1781   5.991   2.984   2.549 -0.3381 -0.2960  0.5125
    5CHTO  H180 1782   5.964   3.016   2.651 -0.4752  1.8355 -0.1517
    5CHTO   N16 1783   5.994   2.833   2.545  0.0687  0.2057  0.6670
    5CHTO  H172 1784   5.895   2.792   2.547  0.3797 -0.8154 -2.1117
    5CHTO  H173 1785   6.055   2.808   2.459  1.9688  0.9132  1.7807
    5CHTO   C94 1786   5.887   3.044   2.452 -0.0152  0.4318  0.1613
    5CHTO  H181 1787   5.901   3.012   2.348 -1.3717  0.2561  0.0235
    5CHTO   O61 1788   5.898   3.186   2.452  0.6821 -0.3995  0.1285
    5CHTO   C95 1789   6.015   3.231   2.390  0.2032 -0.9435 -0.3291
    5CHTO  H182 1790   6.018   3.191   2.289  0.2508  0.9281 -1.0952
    5CHTO  C106 1791   5.995   3.385   2.368 -0.1622 -0.1799 -0.3754
    5CHTO   O69 1792   6.098   3.441   2.283 -0.2235 -0.3422  0.2399
    5CHTO  H169 1793   6.187   3.430   2.311  0.1826  1.7524 -0.1726
    5CHTO   O63 1794   5.736   3.002   2.505  0.4773 -0.0096  0.0588
    5CHTO   C96 1795   5.637   2.965   2.380 -0.8648 -0.1171  1.0224
    5CHTO  H183 1796   5.689   2.911   2.301 -0.0905  0.6035  1.0351
    5CHTO   C98 1797   5.558   3.087   2.319 -0.3305  0.2470 -0.5776
    5CHTO  H185 1798   5.506   3.138   2.401 -0.5998 -1.9797  0.6490
    5CHTO   O67 1799   5.658   3.178   2.273 -0.7387 -0.4173 -0.4118
    5CHTO  H167 1800   5.704   3.208   2.349  0.3888 -0.9974 -0.8506
    5CHTO  C102 1801   5.461   3.049   2.195  0.0005 -0.2627 -0.2587
    5CHTO  H189 1802   5.524   3.026   2.108 -1.4124  1.0482 -1.6498
    5CHTO   N18 1803   5.367   3.150   2.154 -0.2856 -0.0233  0.0092
    5CHTO  H176 1804   5.414   3.246   2.138  0.6453 -0.7066 -1.4493
    5CHTO  H177 1805   5.290   3.161   2.229 -0.0387  0.1888  0.2342
    5CHTO  C105 1806   5.380   2.916   2.231 -0.5011 -0.0054 -0.0764
    5CHTO  H192 1807   5.298   2.941   2.298  0.6462  1.0219  0.9671
    5CHTO   O65 1808   5.468   2.821   2.297 -0.1699 -0.1879 -0.2525
    5CHTO  C100 1809   5.531   2.870   2.417  0.3874 -0.7061  0.3983
    5CHTO  H187 1810   5.462   2.924   2.485 -0.4672 -0.1672 -0.8898
    5CHTO  C107 1811   5.577   2.756   2.502 -0.3260 -0.1437  0.0534
    5CHTO   O70 1812   5.466   2.666   2.544 -0.0235 -0.4055 -0.0782
    5CHTO  H170 1813   5.385   2.710   2.559  0.7575  1.1747 -0.4753
    5CHTO   O57 1814   5.330   2.863   2.074 -0.0377 -0.2455 -1.1407
    5CHTO   C85 1815   5.241   2.754   2.073  0.1076  0.1954  0.5798
    5CHTO  H157 1816   5.146   2.773   2.128 -0.5061 -0.2650 -0.2981
    5CHTO   C83 1817   5.302   2.626   2.144 -0.1242 -0.9038 -0.0092
    5CHTO  H155 1818   5.316   2.645   2.251 -0.3682 -0.9103  0.0226
    5CHTO   O56 1819   5.434   2.594   2.092  0.0171 -0.0463  0.2167
    5CHTO  H135 1820   5.423   2.534   2.021 -0.6048  1.2576 -0.8077
    5CHTO   C81 1821   5.201   2.513   2.129  0.8997 -0.6550 -0.2710
    5CHTO  H153 1822   5.111   2.545   2.182 -0.2619 -2.7148 -0.9544
    5CHTO   N14 1823   5.233   2.389   2.207 -0.3143 -0.3639 -0.0757
    5CHTO  H141 1824   5.236   2.303   2.142  1.1790 -0.1201 -0.3410
    5CHTO  H142 1825   5.160   2.379   2.285  0.2453  0.1933  0.5203
    5CHTO   C79 1826   5.166   2.481   1.975  0.2085 -0.8199  0.0851
    5CHTO  H151 1827   5.089   2.404   1.974  0.5444 -1.1739  0.9476
    5CHTO   O52 1828   5.125   2.600   1.906 -0.4530 -0.1937 -0.3068
    5CHTO   C86 1829   5.210   2.711   1.921  0.0574  0.3863 -0.3979
    5CHTO  H158 1830   5.302   2.689   1.862  0.1607  0.9429 -0.4473
    5CHTO   C90 1831   5.148   2.834   1.842 -0.5220 -0.0077 -0.4735
    5CHTO   O60 1832   5.128   2.804   1.702 -0.0290  0.2307 -0.5238
    5CHTO  H138 1833   5.205   2.830   1.656 -0.8431  1.4768 -1.1921
    5CHTO   O50 1834   5.272   2.418   1.901 -0.1707 -0.0086 -0.1690
    5CHTO   C73 1835   5.334   2.342   1.792 -0.5715 -0.1650 -0.3168
    5CHTO  H145 1836   5.269   2.333   1.704 -2.7577 -2.7522  1.4963
    5CHTO   C74 1837   5.354   2.195   1.848 -0.0996 -0.2380 -0.5167
    5CHTO  H146 1838   5.254   2.165   1.883 -0.1167 -0.0721 -0.4224
    5CHTO   O54 1839   5.378   2.101   1.740  0.8074  0.0769  0.0961
    5CHTO  H133 1840   5.414   2.149   1.667  2.3073 -0.3846  0.5277
    5CHTO   C75 1841   5.459   2.193   1.962  0.3232 -0.9164  0.1426
    5CHTO  H147 1842   5.427   2.263   2.040 -1.5007 -1.6837  0.1126
    5CHTO   N13 1843   5.481   2.065   2.025 -0.5781  0.4126 -0.0514
    5CHTO  H139 1844   5.517   2.085   2.125  0.0874 -2.4653  0.3237
    5CHTO  H140 1845   5.392   2.008   2.046  0.5275 -0.3364  2.7633
    5CHTO   C76 1846   5.595   2.260   1.918 -0.1729 -0.0067 -0.3724
    5CHTO  H148 1847   5.641   2.188   1.851  2.0694  0.0307  1.0861
    5CHTO   O49 1848   5.575   2.384   1.847 -0.1198 -0.2161 -0.6196
    5CHTO   C77 1849   5.475   2.394   1.740  0.1369  0.3656 -0.4889
    5CHTO  H149 1850   5.509   2.320   1.667 -1.0886  0.3914 -1.1097
    5CHTO   C88 1851   5.462   2.534   1.677  0.0340 -0.3368  0.1053
    5CHTO   O58 1852   5.612   2.579   1.617 -0.2723 -0.1096  0.7315
    5CHTO  H136 1853   5.614   2.565   1.525 -1.2781  2.2734  0.3135
    5CHTO   O51 1854   5.685   2.292   2.040 -0.2061  0.4229 -0.2970
    5CHTO   C78 1855   5.817   2.350   1.999 -0.6184  0.7455 -0.0575
    5CHTO  H150 1856   5.814   2.422   1.914  1.5871 -0.8950 -1.5862
    5CHTO   C80 1857   5.927   2.245   1.960  0.6961 -0.0020  0.5160
    5CHTO  H152 1858   5.932   2.181   2.050 -2.6209 -1.4130 -0.2234
    5CHTO   O55 1859   5.873   2.159   1.856  0.2178  0.3967  0.2474
    5CHTO  H134 1860   5.894   2.069   1.872  1.7270  0.5663 -0.5678
    5CHTO   C84 1861   6.073   2.308   1.935 -0.1827  0.6610  0.0089
    5CHTO  H156 1862   6.083   2.375   1.849 -0.3051  0.9983  0.2562
    5CHTO   N15 1863   6.181   2.204   1.918  0.1617 -0.5322 -0.2895
    5CHTO  H143 1864   6.274   2.250   1.943 -0.2967  1.7561 -2.7004
    5CHTO  H144 1865   6.169   2.108   1.965 -0.1513  0.5365  1.9024
    5CHTO   C87 1866   6.109   2.407   2.051  0.5354 -1.5633  0.7488
    5CHTO  H159 1867   6.143   2.365   2.146  0.7943  1.9585  2.3341
    5CHTO   O53 1868   5.991   2.507   2.075 -0.7793 -0.2260 -0.0605
    5CHTO   C82 1869   5.875   2.443   2.112  0.3392  0.1215  0.4962
    5CHTO  H154 1870   5.885   2.377   2.199 -0.4414  0.4405  0.8297
    5CHTO   C89 1871   5.768   2.552   2.143 -0.2967  0.1354  0.1977
    5CHTO   O59 1872   5.813   2.631   2.249 -0.0821  0.0224 -0.4044
    5CHTO  H137 1873   5.785   2.720   2.237 -0.1081  0.2656  1.3575
    5CHTO   O45 1874   6.223   2.515   2.007 -0.5052 -0.5805  0.3910
    5CHTO   C67 1875   6.329   2.529   2.110  0.2248 -0.0100  0.0269
    5CHTO  H124 1876   6.298   2.492   2.208 -0.6133 -1.4813 -0.7630
    5CHTO   C65 1877   6.460   2.445   2.070  0.2394 -0.1291 -0.0271
    5CHTO  H122 1878   6.454   2.433   1.962 -4.3573 -0.4142  0.1253
    5CHTO   O44 1879   6.442   2.316   2.124 -0.2062 -0.5033 -0.3016
    5CHTO  H102 1880   6.505   2.251   2.099  1.5395  1.5472 -1.3873
    5CHTO   C63 1881   6.592   2.520   2.089  0.1377 -0.3544  0.4246
    5CHTO  H120 1882   6.617   2.573   1.997 -0.5806  0.3471  0.6300
    5CHTO   N11 1883   6.714   2.437   2.101  0.1598 -0.0382 -0.0079
    5CHTO  H108 1884   6.788   2.465   2.030 -1.4401 -0.9226 -2.1019
    5CHTO  H109 1885   6.697   2.333   2.083  3.0482 -0.4777 -0.2976
    5CHTO   C61 1886   6.582   2.629   2.205  0.5285 -0.1413 -0.4724
    5CHTO  H118 1887   6.676   2.685   2.197  1.1162 -0.9071  1.0695
    5CHTO   O40 1888   6.470   2.726   2.199  0.2732 -0.2659  0.0532
    5CHTO   C68 1889   6.358   2.686   2.122  0.0261 -0.0024  0.8944
    5CHTO  H125 1890   6.370   2.715   2.016 -2.3557  2.2519  1.2105
    5CHTO   C72 1891   6.235   2.760   2.170 -0.5333  0.0404  0.0778
    5CHTO   O48 1892   6.203   2.704   2.300  0.0437 -0.0373  0.3943
    5CHTO  H105 1893   6.178   2.616   2.279 -0.5091  0.3490 -0.6355
    5CHTO   O38 1894   6.573   2.562   2.333 -0.0870 -0.4123 -0.5107
    5CHTO   C55 1895   6.555   2.635   2.453  0.0244  1.0794  0.6821
    5CHTO  H112 1896   6.498   2.727   2.434 -0.1364  0.5354 -1.5882
    5CHTO   C56 1897   6.705   2.665   2.511  0.6894  0.2098 -0.0087
    5CHTO  H113 1898   6.756   2.569   2.529 -0.2245 -0.5526 -1.4020
    5CHTO   O42 1899   6.790   2.735   2.410 -0.0798  0.0075 -0.2955
    5CHTO  H100 1900   6.735   2.801   2.372 -2.2904 -0.8837  1.2596
    5CHTO   C57 1901   6.688   2.747   2.647 -0.3140 -0.0718  0.0769
    5CHTO  H114 1902   6.642   2.844   2.625 -0.1386  0.2753  1.2005
    5CHTO   N10 1903   6.819   2.776   2.713  0.0671 -0.1790 -0.3345
    5CHTO  H106 1904   6.861   2.701   2.778  2.3299  0.3139 -1.1697
    5CHTO  H107 1905   6.816   2.872   2.764  0.7068  0.4284 -1.4125
    5CHTO   C58 1906   6.599   2.668   2.746  0.0538 -0.0545 -0.0520
    5CHTO  H115 1907   6.653   2.581   2.788  0.5421 -1.4128 -3.3929
    5CHTO   O37 1908   6.479   2.622   2.679  0.2306 -0.1868 -0.4947
    5CHTO   C59 1909   6.488   2.538   2.557  0.1417  0.1593  0.0417
    5CHTO  H116 1910   6.551   2.450   2.572  0.6424  0.3317 -0.9971
    5CHTO   C70 1911   6.349   2.491   2.519 -0.4646 -0.1508  0.5903
    5CHTO   O46 1912   6.240   2.553   2.592  0.1037 -0.3833 -0.2032
    5CHTO  H103 1913   6.252   2.551   2.685  3.8591 -0.3234 -0.5833
    5CHTO   O39 1914   6.550   2.770   2.867  0.3037  0.1255  0.3716
    5CHTO   C60 1915   6.422   2.833   2.855  0.6501 -0.3477 -0.1526
    5CHTO  H117 1916   6.397   2.838   2.749 -0.1305  3.6186  0.1275
    5CHTO   C62 1917   6.313   2.747   2.932 -0.9135 -0.1439  0.1961
    5CHTO  H119 1918   6.321   2.642   2.895  1.8684  0.7403 -1.9345
    5CHTO   O43 1919   6.355   2.744   3.069 -0.0464  0.1318 -0.0213
    5CHTO  H101 1920   6.351   2.656   3.102 -2.5841  1.3718  3.2081
    5CHTO   C66 1921   6.164   2.804   2.902  0.3352  0.3311  0.2235
    5CHTO  H123 1922   6.152   2.809   2.794  1.8303 -0.0284  0.0218
    5CHTO   N12 1923   6.064   2.706   2.947 -0.3272 -0.1155  0.2409
    5CHTO  H110 1924   5.970   2.745   2.910 -0.8584 -0.6649  0.9949
    5CHTO  H111 1925   6.089   2.610   2.904 -0.2908  0.4576 -1.0382
    5CHTO   C69 1926   6.156   2.942   2.959  0.1918  0.6778  0.0594
    5CHTO  H126 1927   6.163   2.938   3.069 -0.5623  1.5350  0.1366
    5CHTO   O41 1928   6.265   3.048   2.898 -0.1662 -0.5070  0.1873
    5CHTO   C64 1929   6.419   2.977   2.899  0.1667 -0.2941 -0.2273
    5CHTO  H121 1930   6.460   2.987   3.002  0.4890  0.3518 -0.4215
    5CHTO   C71 1931   6.503   3.075   2.814 -0.4546  0.2087  0.3615
    5CHTO   O47 1932   6.641   3.060   2.850  0.4282  0.5277 -0.5621
    5CHTO  H104 1933   6.667   2.999   2.784 -0.4875 -1.7329  1.1237
    5CHTO   O34 1934   6.017   2.998   2.924 -0.6285 -0.6659  0.1710
    5CHTO   C49 1935   5.961   3.111   2.994 -0.1445  0.2224 -0.2053
    5CHTO   H91 1936   6.032   3.142   3.071  0.8724 -2.1737 -0.1026
    5CHTO   C47 1937   5.833   3.046   3.061 -0.2173 -0.1145 -0.3640
    5CHTO   H89 1938   5.784   3.133   3.110  1.4030  1.5742 -1.6297
    5CHTO   O33 1939   5.870   2.944   3.158 -0.0820 -0.0657 -0.0854
    5CHTO   H70 1940   5.909   2.877   3.105 -1.1389 -0.2254 -0.6839
    5CHTO   C45 1941   5.734   3.000   2.938  0.3368 -0.7151  1.0135
    5CHTO   H87 1942   5.792   2.932   2.874  0.8589  0.3855  0.3054
    5CHTO    N8 1943   5.608   2.935   2.986 -0.1373 -0.8154  0.4110
    5CHTO   H75 1944   5.582   2.854   2.920  0.5162 -0.4718 -0.2771
    5CHTO   H76 1945   5.535   3.010   3.016 -1.1176 -1.2473 -0.8562
    5CHTO   C43 1946   5.700   3.124   2.847 -0.2226 -0.7627 -0.8331
    5CHTO   H85 1947   5.635   3.090   2.767  0.7475 -0.8243 -1.6109
    5CHTO   O29 1948   5.819   3.194   2.803 -0.6233  0.5951  0.5804
    5CHTO   C50 1949   5.921   3.228   2.900  0.4247  0.8015  0.2382
    5CHTO   H92 1950   6.012   3.249   2.843  0.0247  1.9499  0.0162
    5CHTO   C54 1951   5.901   3.369   2.961 -0.0084 -0.0502  0.2639
    5CHTO   O36 1952   5.872   3.469   2.862  0.2366  0.6825 -0.0119
    5CHTO   H72 1953   5.904   3.441   2.779  1.5961 -1.9384  1.3536
    5CHTO   O27 1954   5.621   3.219   2.927 -0.3135  0.1259  1.1307
    5CHTO   C37 1955   5.546   3.340   2.963 -0.0561  0.0516  0.3492
    5CHTO   H79 1956   5.608   3.431   2.967  2.4300 -1.6150  1.1282
    5CHTO   C38 1957   5.427   3.362   2.860  0.4462 -0.2223  0.0359
    5CHTO   H80 1958   5.370   3.268   2.861  0.1184 -0.0280 -0.1999
    5CHTO   O31 1959   5.485   3.381   2.723 -0.1516  0.3205 -0.1419
    5CHTO   H68 1960   5.568   3.424   2.724 -0.2369  0.4767  0.2131
    5CHTO   C39 1961   5.329   3.476   2.904 -0.7195 -0.4008 -0.2387
    5CHTO   H81 1962   5.391   3.566   2.903 -2.0185  0.5267  0.5879
    5CHTO    N7 1963   5.210   3.492   2.813  0.8117  0.0499 -1.2170
    5CHTO   H73 1964   5.191   3.405   2.752  0.4950 -0.5661 -0.2635
    5CHTO   H74 1965   5.121   3.525   2.865 -0.0545 -1.9249 -1.3780
    5CHTO   C40 1966   5.283   3.445   3.056  0.1821 -0.4360  0.0183
    5CHTO   H82 1967   5.213   3.361   3.057 -2.0620  1.3441 -1.6213
    5CHTO   O26 1968   5.402   3.424   3.138 -0.1264 -0.0150  0.1930
    5CHTO   C41 1969   5.490   3.318   3.103 -0.7734  0.3771  0.6983
    5CHTO   H83 1970   5.430   3.226   3.100 -1.0539  0.5758  0.1317
    5CHTO   C52 1971   5.602   3.318   3.207 -1.0545 -0.1286 -0.1605
    5CHTO   O35 1972   5.562   3.278   3.344  0.0480 -0.4257  0.1273
    5CHTO   H71 1973   5.577   3.186   3.355  0.3962 -0.5425 -1.1572
    5CHTO   O28 1974   5.211   3.551   3.121  0.1087  0.3163 -0.0531
    5CHTO   C42 1975   5.192   3.553   3.267  1.0400 -0.1276  0.5635
    5CHTO   H84 1976   5.105   3.618   3.283  0.7533 -0.9444  2.5564
    5CHTO   C44 1977   5.308   3.614   3.353  0.0754 -0.7518  0.0461
    5CHTO   H86 1978   5.402   3.577   3.312  0.2561 -0.9437  0.6214
    5CHTO   O32 1979   5.309   3.757   3.333 -0.2074 -0.1694 -0.0353
    5CHTO   H69 1980   5.380   3.786   3.280 -0.8373 -0.3703 -0.9969
    5CHTO   C48 1981   5.310   3.565   3.508  0.3304  0.4547  0.5516
    5CHTO   H90 1982   5.238   3.624   3.564 -2.7565 -0.2165 -2.5290
    5CHTO    N9 1983   5.445   3.595   3.578 -0.7842 -0.5151  0.0337
    5CHTO   H77 1984   5.503   3.649   3.505 -0.4445  0.0810  0.7417
    5CHTO   H78 1985   5.499   3.505   3.607 -0.2431 -0.3950 -0.5972
    5CHTO   C51 1986   5.271   3.418   3.522 -0.6985  0.2020 -0.7853
    5CHTO   H93 1987   5.338   3.346   3.475 -1.5172 -1.8694  1.1266
    5CHTO   O30 1988   5.139   3.410   3.468  0.1679 -0.0498  0.7525
    5CHTO   C46 1989   5.150   3.404   3.318 -0.1561  0.2984  0.8668
    5CHTO   H88 1990   5.219   3.332   3.277 -1.0927  0.7028 -1.4861
    5CHTO   C53 1991   5.005   3.379   3.265  0.6963  0.0689  0.1839
    5CHTO   O72 1992   4.951   3.261   3.329 -0.2448  0.1426  0.1521
    5CHTO  H199 1993   4.882   3.227   3.275 -2.7854  0.9008  2.8073
    5CHTO   O22 1994   5.260   3.371   3.658  0.4060 -0.7034 -0.2173
    5CHTO   C31 1995   5.271   3.229   3.693  0.3164 -0.1316 -0.0968
    5CHTO   H59 1996   5.242   3.224   3.800 -1.1900  1.0743 -0.4322
    5CHTO   C29 1997   5.172   3.134   3.618  0.6494  0.8108  0.3743
    5CHTO   H57 1998   5.174   3.151   3.510  0.1950 -1.0774  0.0522
    5CHTO   O21 1999   5.039   3.169   3.658  0.0821 -0.2535  0.1790
    5CHTO   H37 2000   5.027   3.146   3.748  1.2771  0.6727  0.5892
    5CHTO   C27 2001   5.206   2.985   3.647 -0.2830  0.4051 -0.0893
    5CHTO   H55 2002   5.187   2.962   3.753  3.0715 -2.2208  0.0224
    5CHTO    N5 2003   5.123   2.895   3.567  0.3610 -0.2448  0.4980
    5CHTO   H43 2004   5.046   2.950   3.514  0.4274 -0.1327  0.5154
    5CHTO   H44 2005   5.173   2.818   3.510  0.7301 -0.1525  0.6945
    5CHTO   C25 2006   5.357   2.963   3.625  0.3364  0.9540  0.6808
    5CHTO   H53 2007   5.382   3.000   3.524 -2.3519 -1.6499 -0.9979
    5CHTO   O17 2008   5.433   3.040   3.723 -0.0267  0.1499  0.1662
    5CHTO   C32 2009   5.419   3.176   3.700 -0.3699 -0.2908  0.2372
    5CHTO   H60 2010   5.462   3.203   3.603  0.4323 -0.0979  0.6378
    5CHTO   C36 2011   5.487   3.250   3.812 -0.0273  0.0938  0.2387
    5CHTO   O25 2012   5.438   3.200   3.937 -0.2044 -0.4749  0.0689
    5CHTO   H40 2013   5.475   3.248   4.009  0.2274 -0.2345 -0.3119
    5CHTO   O15 2014   5.394   2.819   3.623  0.1906 -0.0011  0.0178
    5CHTO   C19 2015   5.515   2.740   3.619  0.1527  0.0008  1.0284
    5CHTO   H47 2016   5.591   2.792   3.678  0.6534 -0.2079  0.5667
    5CHTO   C20 2017   5.489   2.595   3.669  0.1061 -0.1428 -0.2646
    5CHTO   H48 2018   5.411   2.545   3.611 -0.6667  0.3688  0.3221
    5CHTO   O19 2019   5.444   2.613   3.808  0.7030  0.7997 -0.1121
    5CHTO   H35 2020   5.364   2.661   3.805  0.1098 -0.0169  2.0245
    5CHTO   C21 2021   5.621   2.515   3.662 -0.2664 -0.1822  0.1687
    5CHTO   H49 2022   5.678   2.551   3.747  0.0537 -1.0612  0.3298
    5CHTO    N4 2023   5.602   2.367   3.678  0.1547 -0.3122 -0.1111
    5CHTO   H41 2024   5.495   2.355   3.686  0.1500  1.0895  2.9682
    5CHTO   H42 2025   5.644   2.344   3.775  2.5985  3.9074 -0.0517
    5CHTO   C22 2026   5.716   2.548   3.543 -0.3750  0.2577  0.2363
    5CHTO   H50 2027   5.709   2.468   3.469  0.1200 -0.3097  0.7937
    5CHTO   O14 2028   5.712   2.673   3.482 -0.0401 -0.5900  0.1313
    5CHTO   C23 2029   5.584   2.734   3.478 -0.4777 -1.0137 -0.4884
    5CHTO   H51 2030   5.525   2.677   3.405 -1.9698 -1.3943  0.9870
    5CHTO   C34 2031   5.608   2.869   3.411 -0.5734  0.7447 -1.1289
    5CHTO   O23 2032   5.632   2.841   3.277  0.4267  0.2467 -0.2360
    5CHTO   H38 2033   5.708   2.788   3.262  0.1877 -0.1983  0.1147
    5CHTO   O16 2034   5.848   2.551   3.588 -0.5237 -0.6905 -0.3188
    5CHTO   C24 2035   5.972   2.460   3.492 -0.5963 -0.2325  0.1084
    5CHTO   H52 2036   5.936   2.435   3.392  0.2383  0.8142 -0.4619
    5CHTO   C26 2037   6.015   2.339   3.567  0.1698  0.1838 -0.0595
    5CHTO   H54 2038   6.060   2.371   3.663  0.2962 -1.4716  0.4537
    5CHTO   O20 2039   5.900   2.260   3.609 -0.1001  0.5246  0.0866
    5CHTO   H36 2040   5.870   2.207   3.537  2.4986 -2.1101  0.8309
    5CHTO   C30 2041   6.133   2.263   3.493  0.0282 -0.0408 -0.0246
    5CHTO   H58 2042   6.093   2.234   3.394 -1.9422  2.3798  0.0102
    5CHTO    N6 2043   6.167   2.135   3.563 -0.6338 -0.0844 -0.0229
    5CHTO   H45 2044   6.232   2.064   3.514 -0.1144  1.9612 -2.4042
    5CHTO   H46 2045   6.217   2.160   3.655  0.7499 -0.9705 -0.5338
    5CHTO   C33 2046   6.253   2.361   3.481 -0.0809  0.3392  0.4530
    5CHTO   H61 2047   6.282   2.385   3.584  0.2671  3.5041 -0.3472
    5CHTO   O18 2048   6.210   2.485   3.413  0.4879 -0.5696  0.0964
    5CHTO   C28 2049   6.097   2.559   3.472 -0.7692 -0.7217  0.4055
    5CHTO   H56 2050   6.127   2.594   3.571  0.1838 -2.3020  0.6951
    5CHTO   C35 2051   6.055   2.673   3.378  0.3944  0.1178 -0.4588
    5CHTO   O24 2052   6.160   2.761   3.342  0.5207 -0.7925  0.0908
    5CHTO   H39 2053   6.131   2.850   3.338  1.7076 -0.3300  1.3433
    5CHTO    O9 2054   6.364   2.296   3.412 -0.0169  0.1730 -0.1888
    5CHTO   C13 2055   6.344   2.244   3.260  0.3372 -0.0993  0.1104
    5CHTO   H26 2056   6.234   2.227   3.248  0.0598  0.0656  2.1539
    5CHTO   C11 2057   6.434   2.114   3.238 -0.2208  0.2311  0.0291
    5CHTO   H24 2058   6.386   2.027   3.285  1.3914  0.1005  1.4874
    5CHTO    O8 2059   6.574   2.124   3.285 -0.0978  0.4061  0.3043
    5CHTO    H3 2060   6.604   2.036   3.287  0.8603  0.6824 -1.5945
    5CHTO    C9 2061   6.434   2.090   3.086  0.6585 -0.1302 -0.3882
    5CHTO   H22 2062   6.329   2.072   3.058  0.6731 -0.6214 -0.1263
    5CHTO    N2 2063   6.497   1.962   3.046 -0.0313 -0.0969 -0.9671
    5CHTO   H10 2064   6.587   1.939   3.101  0.7865 -0.0333 -2.2662
    5CHTO   H11 2065   6.508   1.960   2.939  2.6716 -0.6875 -0.7022
    5CHTO    C7 2066   6.480   2.217   2.999 -0.3592 -0.0945 -0.0447
    5CHTO   H20 2067   6.452   2.195   2.894  1.2612 -0.6356 -0.3772
    5CHTO    O4 2068   6.415   2.341   3.037 -0.3272  0.1622  0.5189
    5CHTO   C14 2069   6.384   2.368   3.176  0.3119  0.2168  0.0419
    5CHTO   H27 2070   6.302   2.442   3.169  1.8630  1.8487 -1.5130
    5CHTO   C18 2071   6.508   2.440   3.226 -0.4294 -0.1295 -0.3065
    5CHTO   O13 2072   6.550   2.552   3.144 -0.0449  0.0485 -0.5741
    5CHTO    H7 2073   6.545   2.632   3.192  1.0945 -1.6737  2.5172
    5CHTO    O2 2074   6.644   2.231   3.010  0.4265 -0.7363  0.4230
    5CHTO    C1 2075   6.723   2.300   2.903  0.4037 -0.2025  1.1646
    5CHTO   H14 2076   6.691   2.404   2.879  1.5488 -0.6846 -2.8516
    5CHTO    C2 2077   6.730   2.218   2.760 -0.4066 -0.5026 -0.0013
    5CHTO   H15 2078   6.777   2.120   2.775  1.1486  0.2100 -0.1386
    5CHTO    O6 2079   6.602   2.205   2.696  0.0347  0.3590 -0.3863
    5CHTO    H1 2080   6.629   2.181   2.610  1.7561 -1.8091  0.7009
    5CHTO    C3 2081   6.835   2.285   2.660  0.1990  0.1508 -0.7456
    5CHTO   H16 2082   6.792   2.378   2.619 -1.3741 -0.1304  0.2705
    5CHTO    N1 2083   6.873   2.199   2.542  0.2767  0.7710 -0.1682
    5CHTO    H8 2084   6.917   2.261   2.466  1.1312 -0.5727 -0.7851
    5CHTO    H9 2085   6.937   2.114   2.556  1.1191  1.7527  2.2022
    5CHTO    C4 2086   6.972   2.339   2.723 -0.8012  0.3622 -0.1420
    5CHTO   H17 2087   7.039   2.254   2.732  1.3049  1.8750 -1.0464
    5CHTO    O1 2088   6.944   2.395   2.853 -0.2555  0.1815 -0.1374
    5CHTO    C5 2089   6.866   2.318   2.947 -0.2527  0.2125 -0.0362
    5CHTO   H18 2090   6.911   2.218   2.951  2.2706  1.1789 -2.2971
    5CHTO   C16 2091   6.881   2.385   3.088  0.2896  0.5015  0.3804
    5CHTO   O11 2092   7.011   2.397   3.134 -0.3992  0.2453  0.5262
    5CHTO    H5 2093   7.072   2.425   3.068 -0.0661 -0.5316  0.5033
    5CHTO    O3 2094   7.043   2.436   2.640 -0.2542  0.3725 -0.0207
    5CHTO    C6 2095   7.194   2.443   2.674 -0.6378 -0.0153 -0.0630
    5CHTO   H19 2096   7.220   2.380   2.759 -1.5098  0.4819  0.5841
    5CHTO    C8 2097   7.273   2.403   2.540 -0.6637  0.0535  0.8263
    5CHTO   H21 2098   7.236   2.472   2.464  0.1893  0.5004  0.8114
    5CHTO    O7 2099   7.247   2.265   2.516  0.0912  0.5219 -0.1358
    5CHTO    H2 2100   7.288   2.239   2.436  1.2671 -1.0290  0.9134
    5CHTO   C12 2101   7.429   2.440   2.553 -0.1694  0.5085  0.0095
    5CHTO   H25 2102   7.478   2.380   2.633 -0.2763  1.4630  0.8079
    5CHTO    N3 2103   7.506   2.412   2.427 -0.5953 -0.0196 -0.6895
    5CHTO   H12 2104   7.613   2.415   2.438 -0.7020 -1.1088  0.7974
    5CHTO   H13 2105   7.476   2.499   2.370  0.0950 -0.5239 -1.8557
    5CHTO   C15 2106   7.432   2.585   2.600  0.0131 -0.3867 -0.4728
    5CHTO   H28 2107   7.381   2.654   2.533 -0.3668  0.3779  0.6068
    5CHTO   O10 2108   7.575   2.645   2.631  0.1194  0.2786  0.4110
    5CHTO    H4 2109   7.635   2.614   2.566 -1.7455  0.0933 -1.2843
    5CHTO    O5 2110   7.371   2.606   2.725 -0.3717  0.1174  0.3255
    5CHTO   C10 2111   7.226   2.582   2.715 -0.9939  0.4142 -0.3719
    5CHTO   H23 2112   7.189   2.642   2.632  0.8119 -1.2075 -2.3911
    5CHTO   C17 2113   7.153   2.637   2.841  0.4522 -0.5593 -0.5292
    5CHTO   O12 2114   7.182   2.569   2.964 -0.2065 -0.0875 -0.3330
    5CHTO    H6 2115   7.118   2.598   3.026  0.4006  1.8027 -0.5357
    6CHTO  H203 2116   5.479   4.148   0.514  0.6753 -0.7445 -0.2697
    6CHTO   O82 2117   5.467   4.206   0.441 -0.0213 -0.6661 -0.0886
    6CHTO  C123 2118   5.506   4.341   0.479  0.7464  0.0575  0.3367
    6CHTO  H227 2119   5.563   4.380   0.393 -0.4656  2.2839  0.5170
    6CHTO   O77 2120   5.378   4.420   0.493  0.4577 -0.5140  0.4119
    6CHTO  C118 2121   5.390   4.563   0.500  0.0524  0.0516  0.3807
    6CHTO  H222 2122   5.427   4.612   0.409 -4.1271  1.7965 -0.4990
    6CHTO  C125 2123   5.257   4.633   0.528  0.0660  0.3483 -0.2183
    6CHTO   O84 2124   5.177   4.651   0.410  0.0973 -0.9105  0.2526
    6CHTO  H205 2125   5.150   4.568   0.377 -1.0132 -0.8718  1.0391
    6CHTO  C114 2126   5.485   4.595   0.626  0.5022  0.1633  0.5255
    6CHTO  H218 2127   5.432   4.555   0.713  0.0760  0.6124  0.4721
    6CHTO  C116 2128   5.615   4.512   0.624 -0.1907  0.4789 -0.2378
    6CHTO  H220 2129   5.681   4.552   0.544  0.4217  1.3727  0.6999
    6CHTO   O79 2130   5.676   4.535   0.746  0.0592  0.1647 -0.4841
    6CHTO  H201 2131   5.697   4.625   0.757 -0.8482  0.2707  0.3862
    6CHTO  C120 2132   5.592   4.354   0.604  0.8653  0.3654  0.1182
    6CHTO  H224 2133   5.542   4.312   0.694  4.4593 -0.9971  1.6013
    6CHTO   N21 2134   5.711   4.269   0.595  0.3670 -0.5020 -0.1936
    6CHTO  H211 2135   5.793   4.311   0.651  0.0446  0.1222 -0.1935
    6CHTO  H212 2136   5.744   4.247   0.495 -0.0919 -2.1458 -0.0044
    6CHTO   O75 2137   5.513   4.736   0.641 -0.1424 -0.5396 -0.2971
    6CHTO  C112 2138   5.470   4.806   0.796 -0.2469 -0.2597  0.2224
    6CHTO  H216 2139   5.502   4.739   0.877  0.4572  0.7769  0.8151
    6CHTO   O73 2140   5.330   4.833   0.801  0.3105  0.1552  0.0626
    6CHTO  C113 2141   5.292   4.877   0.936 -0.4468  0.3702  0.2283
    6CHTO  H217 2142   5.328   4.800   1.008 -0.1319  1.1590  0.9261
    6CHTO  C124 2143   5.140   4.866   0.936  0.6948  0.1197 -0.0090
    6CHTO   O83 2144   5.083   4.742   0.902 -0.0862 -0.5582  0.0314
    6CHTO  H204 2145   5.122   4.667   0.943 -1.0061 -1.8895 -1.4666
    6CHTO  C109 2146   5.350   5.011   0.978 -0.2799  0.3232  0.2888
    6CHTO  H213 2147   5.311   5.089   0.912  0.3809 -0.5539 -1.1607
    6CHTO  C110 2148   5.502   5.002   0.950  0.3055 -0.1158 -0.9055
    6CHTO  H214 2149   5.548   4.949   1.033  1.6515 -0.0511 -1.5985
    6CHTO   O78 2150   5.566   5.137   0.973 -0.5267  0.5477  0.3407
    6CHTO  H200 2151   5.556   5.189   0.895  1.4672 -0.4270 -0.5982
    6CHTO  C111 2152   5.540   4.945   0.810  0.1901 -0.2336  1.0135
    6CHTO  H215 2153   5.502   5.013   0.732  1.0448  1.1758  1.8017
    6CHTO   N19 2154   5.685   4.928   0.795 -0.7858 -0.4884  0.7429
    6CHTO  H207 2155   5.741   4.910   0.886 -0.6624 -0.2771  0.7073
    6CHTO  H208 2156   5.725   4.863   0.718  4.0755  1.6731  1.2345
    6CHTO   O74 2157   5.324   5.044   1.115 -0.2794  0.6048 -0.2925
    6CHTO  C115 2158   5.259   5.173   1.149 -0.2787 -0.2772  0.7853
    6CHTO  H219 2159   5.273   5.245   1.068  1.5862 -2.0861 -0.5769
    6CHTO   O76 2160   5.106   5.157   1.165 -0.1263  0.1908 -0.2806
    6CHTO  C122 2161   5.069   5.061   1.260 -0.4510  0.6102 -0.2471
    6CHTO  H226 2162   5.077   4.963   1.213  0.9520  0.6798 -0.1688
    6CHTO  C126 2163   4.921   5.083   1.298 -0.7924  0.1049 -0.1323
    6CHTO   O85 2164   4.895   5.215   1.338 -0.0109  0.0978 -0.0284
    6CHTO  H206 2165   4.816   5.238   1.294 -0.9524 -1.9363  0.5482
    6CHTO  C121 2166   5.149   5.072   1.398 -0.8313  0.2344  0.5545
    6CHTO  H225 2167   5.075   5.077   1.481  0.3605 -0.0707  1.6472
    6CHTO   O81 2168   5.221   4.944   1.421 -0.1220  0.2347 -0.9815
    6CHTO  H202 2169   5.171   4.867   1.399  0.3663  0.4513 -2.9234
    6CHTO  C119 2170   5.236   5.201   1.405  0.2165  0.4683  0.2482
    6CHTO  H223 2171   5.162   5.279   1.392  0.5154  0.4424 -1.6904
    6CHTO  C117 2172   5.330   5.217   1.286  0.7421 -0.0024 -0.2669
    6CHTO  H221 2173   5.419   5.157   1.303  0.9545  0.6582  1.0362
    6CHTO   N20 2174   5.383   5.353   1.276 -0.1293  0.4894  0.2021
    6CHTO  H209 2175   5.338   5.428   1.340 -0.6772 -0.5797  1.0847
    6CHTO  H210 2176   5.489   5.340   1.292  0.1999  1.5442 -1.0366
    6CHTO   O80 2177   5.296   5.229   1.557  0.5009 -0.0887 -0.8517
    6CHTO  C103 2178   5.196   5.236   1.691 -0.2283 -0.1852 -0.3171
    6CHTO  H190 2179   5.237   5.302   1.767 -2.1051  2.3016 -1.3819
    6CHTO  C101 2180   5.045   5.293   1.662  0.7057  0.3847 -0.3212
    6CHTO  H188 2181   5.000   5.232   1.584 -0.4023  2.0811 -1.0372
    6CHTO   O68 2182   5.062   5.458   1.633 -0.3347  0.1837  0.2707
    6CHTO  H168 2183   4.983   5.491   1.595  0.1506  0.7050 -0.3024
    6CHTO   C99 2184   4.949   5.268   1.790 -0.6593 -0.4281  0.2091
    6CHTO  H186 2185   4.991   5.326   1.875  2.1022  0.0253 -1.3907
    6CHTO   N17 2186   4.809   5.309   1.766 -0.0781  0.4036 -0.4375
    6CHTO  H174 2187   4.813   5.409   1.725  0.1495 -0.2323 -2.0089
    6CHTO  H175 2188   4.749   5.308   1.856 -0.6387 -0.3897 -0.8178
    6CHTO   C97 2189   4.966   5.117   1.833 -0.0973 -0.3373 -0.2722
    6CHTO  H184 2190   4.928   5.060   1.748  1.8892 -1.1588 -0.6446
    6CHTO   O64 2191   5.102   5.089   1.860 -0.3139 -0.3678 -0.2495
    6CHTO  C104 2192   5.193   5.090   1.753  0.5943  0.5409  0.4875
    6CHTO  H191 2193   5.154   5.017   1.682  2.5799  0.6360 -0.7406
    6CHTO  C108 2194   5.327   5.041   1.801  0.1886  0.3670 -0.0829
    6CHTO   O71 2195   5.428   5.016   1.698  0.3479 -0.3167  0.1047
    6CHTO  H171 2196   5.474   5.097   1.690 -1.6299  0.5886 -3.1450
    6CHTO   O62 2197   4.889   5.079   1.949  0.6299  0.6664 -0.1393
    6CHTO   C91 2198   4.824   4.949   1.945  0.7354  0.3034  0.4988
    6CHTO  H178 2199   4.810   4.927   2.051  0.7928  1.1014  0.6803
    6CHTO   C92 2200   4.910   4.837   1.896 -0.3729 -0.1301 -0.0329
    6CHTO  H179 2201   4.938   4.852   1.790  0.0335  0.9264  0.2181
    6CHTO   O66 2202   5.031   4.827   1.976  0.0926  0.0839  0.2927
    6CHTO  H166 2203   5.098   4.888   1.951  0.4029 -0.7859 -1.0730
    6CHTO   C93 2204   4.830   4.694   1.905  0.4867  0.1851 -0.2076
    6CHTO  H180 2205   4.791   4.678   2.007  0.4441  0.8123 -0.1233
    6CHTO   N16 2206   4.919   4.578   1.886 -0.2221  0.2270 -0.2745
    6CHTO  H172 2207   5.019   4.606   1.855 -0.3652  1.2778  0.2002
    6CHTO  H173 2208   4.878   4.503   1.820  1.0705  0.4975 -1.4136
    6CHTO   C94 2209   4.714   4.704   1.806  0.6308  0.5672 -0.2993
    6CHTO  H181 2210   4.745   4.738   1.707 -2.7073 -0.9650 -1.9326
    6CHTO   O61 2211   4.627   4.804   1.858  0.0574 -0.4108  0.3749
    6CHTO   C95 2212   4.686   4.941   1.867 -0.3109 -0.1481 -0.0857
    6CHTO  H182 2213   4.707   4.974   1.765 -0.0786 -1.3497 -0.4349
    6CHTO  C106 2214   4.576   5.039   1.928 -0.7927  0.3964 -0.2711
    6CHTO   O69 2215   4.516   4.977   2.042 -0.4729 -0.8035  0.1050
    6CHTO  H169 2216   4.442   4.922   2.023 -0.6518 -0.5752  0.1348
    6CHTO   O63 2217   4.636   4.565   1.792 -0.3551 -0.5027 -0.0835
    6CHTO   C96 2218   4.539   4.561   1.653 -0.7719  0.1762  0.6232
    6CHTO  H183 2219   4.559   4.652   1.596  2.3089 -0.1606  1.1115
    6CHTO   C98 2220   4.380   4.547   1.681 -0.7287 -0.6534  0.4462
    6CHTO  H185 2221   4.368   4.481   1.768  0.1466 -2.7348 -0.9670
    6CHTO   O67 2222   4.326   4.679   1.721 -0.1748  0.2200 -0.6207
    6CHTO  H167 2223   4.247   4.657   1.766  1.2344  0.3593  2.0427
    6CHTO  C102 2224   4.304   4.491   1.554  0.0732  0.2126 -0.1416
    6CHTO  H189 2225   4.307   4.574   1.481 -2.2370  1.2951  0.9479
    6CHTO   N18 2226   4.159   4.458   1.576  0.0694  0.2966 -0.6052
    6CHTO  H176 2227   4.107   4.527   1.640  3.3494 -1.1467  3.8679
    6CHTO  H177 2228   4.135   4.357   1.604 -1.4971  1.1344  1.1664
    6CHTO  C105 2229   4.380   4.378   1.481  0.0601  0.2333  0.4275
    6CHTO  H192 2230   4.388   4.294   1.550 -1.3892  0.1470  0.4944
    6CHTO   O65 2231   4.514   4.411   1.446  0.4029  0.0822  0.8875
    6CHTO  C100 2232   4.591   4.441   1.560  0.6389  0.2759  0.0559
    6CHTO  H187 2233   4.596   4.346   1.615 -0.6960 -1.3929 -2.5908
    6CHTO  C107 2234   4.733   4.458   1.514 -0.1352 -0.1099 -0.2329
    6CHTO   O70 2235   4.791   4.336   1.461 -0.2715 -0.5108  0.3212
    6CHTO  H170 2236   4.884   4.340   1.445  0.6597 -2.9449  4.1061
    6CHTO   O57 2237   4.294   4.327   1.344 -0.1255  0.2179 -0.1397
    6CHTO   C85 2238   4.351   4.226   1.253 -0.3745  0.0904  0.3540
    6CHTO  H157 2239   4.263   4.190   1.196  1.1438 -1.6885 -0.9550
    6CHTO   C83 2240   4.414   4.099   1.325  0.4872 -0.2092  0.3378
    6CHTO  H155 2241   4.341   4.054   1.392  1.0797  1.7659  2.3282
    6CHTO   O56 2242   4.530   4.137   1.407  0.6554  0.0408  0.2574
    6CHTO  H135 2243   4.507   4.188   1.482 -0.4473 -0.9472  0.6053
    6CHTO   C81 2244   4.450   3.992   1.210 -0.7767 -0.0479  0.0141
    6CHTO  H153 2245   4.366   3.972   1.144  1.4411  0.5753 -3.0827
    6CHTO   N14 2246   4.479   3.857   1.272  0.4883 -0.1043  0.3283
    6CHTO  H141 2247   4.516   3.798   1.190 -1.7761 -0.1625 -0.6762
    6CHTO  H142 2248   4.391   3.810   1.310  0.9041 -1.5636 -0.4633
    6CHTO   C79 2249   4.564   4.047   1.120  0.4499 -0.1443  0.3758
    6CHTO  H151 2250   4.571   3.985   1.031  0.2741  0.3520  0.0154
    6CHTO   O52 2251   4.510   4.170   1.065  0.2025  0.0980  0.1611
    6CHTO   C86 2252   4.462   4.273   1.156  0.2376 -0.3682  0.6775
    6CHTO  H158 2253   4.549   4.311   1.213  1.4617 -1.2871 -0.5296
    6CHTO   C90 2254   4.410   4.392   1.075 -0.3428  0.5787 -0.0223
    6CHTO   O60 2255   4.506   4.448   0.980  0.3340 -0.4954 -0.2823
    6CHTO  H138 2256   4.568   4.496   1.031 -0.4412  0.4931 -0.2502
    6CHTO   O50 2257   4.695   4.074   1.182  0.3464 -0.1995 -0.2472
    6CHTO   C73 2258   4.815   4.078   1.102 -0.0857 -0.0455  0.0658
    6CHTO  H145 2259   4.796   4.095   0.995  1.5958  0.0371 -0.2375
    6CHTO   C74 2260   4.887   3.932   1.103  0.3074  0.1703 -0.0419
    6CHTO  H146 2261   4.811   3.853   1.090  1.1242 -0.5485 -0.5032
    6CHTO   O54 2262   4.958   3.930   0.978  0.1381  0.4996  0.3965
    6CHTO  H133 2263   4.988   3.842   0.962  0.4880  0.7322 -0.2238
    6CHTO   C75 2264   4.967   3.916   1.235 -0.2717  1.0132  0.3099
    6CHTO  H147 2265   4.895   3.914   1.318 -0.6936  2.5501 -0.0059
    6CHTO   N13 2266   5.041   3.787   1.245 -0.4773 -0.1003  0.3880
    6CHTO  H139 2267   5.045   3.738   1.149  3.8946 -2.6377  1.6905
    6CHTO  H140 2268   5.146   3.800   1.267 -0.5628  1.5626 -0.1127
    6CHTO   C76 2269   5.063   4.042   1.261 -0.3070 -0.0184 -0.0757
    6CHTO  H148 2270   5.141   4.058   1.186 -0.3168  3.2937  0.5442
    6CHTO   O49 2271   4.975   4.161   1.275 -0.2321 -0.0675  0.4425
    6CHTO   C77 2272   4.918   4.188   1.143  0.3078  0.3378  0.2776
    6CHTO  H149 2273   4.994   4.189   1.065  1.3326  1.7438  1.2553
    6CHTO   C88 2274   4.860   4.324   1.146  0.2946  0.1048 -0.1070
    6CHTO   O58 2275   4.955   4.431   1.157  0.0800 -0.0076  0.3279
    6CHTO  H136 2276   4.923   4.501   1.210 -0.2413  0.9877 -1.1368
    6CHTO   O51 2277   5.121   4.025   1.415  0.0472 -0.4758  0.1489
    6CHTO   C78 2278   5.221   4.136   1.481 -0.8170 -0.3121  0.1217
    6CHTO  H150 2279   5.258   4.106   1.581 -3.0558  0.4692  1.2007
    6CHTO   C80 2280   5.159   4.276   1.499 -1.1405 -0.6660 -0.7172
    6CHTO  H152 2281   5.120   4.314   1.402 -0.1680  1.7104 -0.1960
    6CHTO   O55 2282   5.050   4.257   1.590 -0.1737 -0.0107 -0.0616
    6CHTO  H134 2283   5.067   4.250   1.682 -0.3204  4.8460  0.4318
    6CHTO   C84 2284   5.271   4.381   1.556  0.8616  0.0502  0.7006
    6CHTO  H156 2285   5.310   4.340   1.650 -1.1626  0.6300  1.8063
    6CHTO   N15 2286   5.211   4.511   1.590 -0.0235  0.4603  0.2030
    6CHTO  H143 2287   5.169   4.501   1.688  1.5844 -2.2157  0.6715
    6CHTO  H144 2288   5.288   4.584   1.598  0.3724 -0.1169  1.9712
    6CHTO   C87 2289   5.382   4.388   1.445 -0.4836 -0.0113 -0.9242
    6CHTO  H159 2290   5.348   4.424   1.348  3.0993 -1.9469 -2.9925
    6CHTO   O53 2291   5.438   4.246   1.444 -0.3702 -0.0794  0.0508
    6CHTO   C82 2292   5.347   4.145   1.391  0.5208 -0.1192 -0.6335
    6CHTO  H154 2293   5.313   4.171   1.291 -1.3176  0.7203  0.1804
    6CHTO   C89 2294   5.435   4.012   1.378  0.5601  1.3575  0.5363
    6CHTO   O59 2295   5.367   3.918   1.292  0.2093 -0.6929 -0.0936
    6CHTO  H137 2296   5.333   3.960   1.215 -0.3466 -0.9225  0.0240
    6CHTO   O45 2297   5.502   4.494   1.488 -0.3426  0.5516 -1.0074
    6CHTO   C67 2298   5.623   4.505   1.402 -0.6921 -0.0961 -0.2849
    6CHTO  H124 2299   5.630   4.440   1.315  0.9687  0.2609 -0.4229
    6CHTO   C65 2300   5.623   4.652   1.352 -0.0912  0.4828 -0.3313
    6CHTO  H122 2301   5.523   4.669   1.313 -0.6890 -2.6563 -0.3052
    6CHTO   O44 2302   5.715   4.655   1.243 -0.2327 -0.1347 -0.5993
    6CHTO  H102 2303   5.773   4.727   1.260  0.5755 -0.6995 -0.9407
    6CHTO   C63 2304   5.643   4.748   1.479 -0.2512 -0.2531 -0.2477
    6CHTO  H120 2305   5.556   4.749   1.544  0.7441  0.1268  1.0857
    6CHTO   N11 2306   5.639   4.895   1.447  0.2601  0.0217  0.7160
    6CHTO  H108 2307   5.711   4.927   1.375  0.0986  0.3892  0.7136
    6CHTO  H109 2308   5.658   4.957   1.532  3.2876 -0.2345  0.2752
    6CHTO   C61 2309   5.757   4.706   1.578 -0.7480 -0.0507  0.1891
    6CHTO  H118 2310   5.747   4.760   1.673 -1.3653  3.4871 -1.8063
    6CHTO   O40 2311   5.762   4.567   1.604 -0.0891  0.0862 -0.2437
    6CHTO   C68 2312   5.745   4.473   1.494 -0.4361  0.2878  0.2839
    6CHTO  H125 2313   5.706   4.380   1.541  2.5260 -0.0879  2.1174
    6CHTO   C72 2314   5.871   4.440   1.419 -0.2807  0.3163 -0.2015
    6CHTO   O48 2315   5.955   4.354   1.499 -0.2922 -0.2920  0.0259
    6CHTO  H105 2316   5.946   4.266   1.470  0.3337 -0.0163 -1.0724
    6CHTO   O38 2317   5.885   4.741   1.525  0.2757 -0.2385 -0.1361
    6CHTO   C55 2318   5.976   4.808   1.611 -0.3752 -0.3591 -0.1206
    6CHTO  H112 2319   5.951   4.778   1.714 -1.4287 -2.3972 -0.9410
    6CHTO   C56 2320   5.957   4.961   1.591  0.0515 -0.0971 -0.0371
    6CHTO  H113 2321   5.932   4.978   1.485 -2.1188 -1.5408  0.1982
    6CHTO   O42 2322   5.838   5.002   1.657 -0.2153  0.2688  0.3817
    6CHTO  H100 2323   5.765   4.948   1.632  1.1019 -1.0591 -0.7189
    6CHTO   C57 2324   6.074   5.049   1.652  0.3772 -0.0092 -0.3173
    6CHTO  H114 2325   6.060   5.046   1.760 -0.1634  1.0368 -0.3490
    6CHTO   N10 2326   6.070   5.195   1.620  0.3848 -0.4527 -0.6912
    6CHTO  H106 2327   5.964   5.215   1.612  0.4683 -0.5571 -2.2128
    6CHTO  H107 2328   6.111   5.216   1.522 -0.9047  3.8264 -0.3804
    6CHTO   C58 2329   6.212   4.979   1.621  0.8887  0.2743  0.2800
    6CHTO  H115 2330   6.227   4.980   1.511 -1.8429 -0.6888 -0.1353
    6CHTO   O37 2331   6.208   4.844   1.665  0.6999 -0.2986  0.2099
    6CHTO   C59 2332   6.122   4.764   1.587  0.5363 -0.1221  0.1567
    6CHTO  H116 2333   6.157   4.777   1.485  2.0935 -0.1500  0.6827
    6CHTO   C70 2334   6.138   4.620   1.628 -0.3930 -0.1214 -0.3089
    6CHTO   O46 2335   6.276   4.571   1.620  0.1732 -0.4230  0.4835
    6CHTO  H103 2336   6.272   4.482   1.650 -0.4509 -0.9979 -1.2294
    6CHTO   O39 2337   6.331   5.042   1.713  0.3035  0.0069  0.2781
    6CHTO   C60 2338   6.462   5.062   1.655 -0.1173  0.4009 -0.3859
    6CHTO  H117 2339   6.483   4.974   1.593 -1.7705  0.6141 -1.2851
    6CHTO   C62 2340   6.463   5.175   1.555 -0.4069 -0.1926 -0.2851
    6CHTO  H119 2341   6.378   5.150   1.488  0.0276 -0.5596 -0.7090
    6CHTO   O43 2342   6.440   5.305   1.619 -0.3756  0.0857  0.5086
    6CHTO  H101 2343   6.451   5.373   1.555 -0.7120 -0.6656 -0.3566
    6CHTO   C66 2344   6.599   5.170   1.469  0.2296  0.0885  0.5909
    6CHTO  H123 2345   6.603   5.071   1.424 -0.9845  0.8370 -1.1806
    6CHTO   N12 2346   6.600   5.265   1.358  0.9344 -0.0783  0.0662
    6CHTO  H110 2347   6.684   5.241   1.295  0.0407 -0.1601 -1.1099
    6CHTO  H111 2348   6.509   5.254   1.302  1.5352  1.3949 -1.2194
    6CHTO   C69 2349   6.727   5.175   1.559 -0.3177 -0.5122  0.1073
    6CHTO  H126 2350   6.729   5.278   1.600  0.3700 -0.1439 -0.8303
    6CHTO   O41 2351   6.697   5.064   1.690  0.0239 -0.1935 -0.3221
    6CHTO   C64 2352   6.570   5.078   1.764 -0.8444  0.5377 -0.0064
    6CHTO  H121 2353   6.565   5.178   1.813  0.1811  0.0549  1.0923
    6CHTO   C71 2354   6.557   4.981   1.878 -0.2664  0.0858 -0.3407
    6CHTO   O47 2355   6.670   4.975   1.969 -0.0322 -0.3762  0.5328
    6CHTO  H104 2356   6.733   4.915   1.934  0.3063 -0.0621  0.5838
    6CHTO   O34 2357   6.850   5.141   1.490  0.1599  0.2765  0.0263
    6CHTO   C49 2358   7.011   5.183   1.472 -0.5708  0.3774  0.7127
    6CHTO   H91 2359   7.038   5.146   1.373 -0.7064  2.6462 -0.2072
    6CHTO   C47 2360   7.084   5.102   1.581 -0.3795  0.1864 -0.9032
    6CHTO   H89 2361   7.189   5.124   1.554  0.2236  0.4148  1.5011
    6CHTO   O33 2362   7.058   4.964   1.565  0.0526 -0.1811 -0.8747
    6CHTO   H70 2363   7.120   4.925   1.507 -1.5613 -1.2584 -1.9024
    6CHTO   C45 2364   7.044   5.171   1.719  0.0609  0.4070 -0.9799
    6CHTO   H87 2365   6.936   5.188   1.726 -0.3098 -2.2592  0.3605
    6CHTO    N8 2366   7.091   5.101   1.845  0.7212  0.6613 -0.0832
    6CHTO   H75 2367   7.174   5.157   1.886 -0.9097  1.6007  2.0062
    6CHTO   H76 2368   7.010   5.097   1.916  1.4692  0.6237  0.7779
    6CHTO   C43 2369   7.101   5.320   1.720  0.0070 -0.3521  0.6069
    6CHTO   H85 2370   7.078   5.359   1.819  1.4585  0.9228  0.4547
    6CHTO   O29 2371   7.044   5.400   1.618 -0.5675  0.5050  0.1202
    6CHTO   C50 2372   7.042   5.339   1.483  0.3013 -0.7409 -0.1649
    6CHTO   H92 2373   6.965   5.387   1.421  0.2435 -1.0110 -0.3014
    6CHTO   C54 2374   7.167   5.386   1.406  0.2603 -0.5109 -0.1183
    6CHTO   O36 2375   7.158   5.524   1.376 -0.2685  0.0704 -0.2042
    6CHTO   H72 2376   7.218   5.569   1.431  1.6985 -0.6896 -1.6463
    6CHTO   O27 2377   7.242   5.313   1.715 -0.2525 -0.0971 -0.6350
    6CHTO   C37 2378   7.339   5.399   1.778 -0.1743 -0.1430  0.1436
    6CHTO   H79 2379   7.437   5.376   1.734 -0.5213  3.0632 -2.5158
    6CHTO   C38 2380   7.296   5.544   1.741  0.2868  0.0081  0.1682
    6CHTO   H80 2381   7.187   5.548   1.755  0.1732 -0.9390 -0.3479
    6CHTO   O31 2382   7.327   5.570   1.602  0.0999  0.2740 -0.2222
    6CHTO   H68 2383   7.257   5.628   1.581 -1.1482 -1.2179 -0.3070
    6CHTO   C39 2384   7.364   5.658   1.833 -0.6509  0.3346 -0.5363
    6CHTO   H81 2385   7.465   5.664   1.792  0.2708 -0.7480  1.4746
    6CHTO    N7 2386   7.308   5.795   1.824  0.0197 -0.0227  0.1760
    6CHTO   H73 2387   7.202   5.793   1.847 -0.3820 -0.2252 -1.5527
    6CHTO   H74 2388   7.348   5.858   1.902 -1.0408  2.7809 -1.4282
    6CHTO   C40 2389   7.377   5.609   1.986  0.1045  0.3790  0.3015
    6CHTO   H82 2390   7.284   5.622   2.041 -0.3438  0.9905 -0.5874
    6CHTO   O26 2391   7.427   5.472   1.989 -0.2393  0.1473  0.2887
    6CHTO   C41 2392   7.342   5.371   1.930 -1.1948 -0.5771 -0.1530
    6CHTO   H83 2393   7.237   5.373   1.962 -1.4110 -1.2936 -0.7994
    6CHTO   C52 2394   7.400   5.227   1.953  0.0356 -0.3277 -0.3836
    6CHTO   O35 2395   7.544   5.222   1.892  0.0410 -0.5673  0.7035
    6CHTO   H71 2396   7.578   5.135   1.885 -1.4346 -1.1456  0.7186
    6CHTO   O28 2397   7.477   5.687   2.055 -0.1428  0.2912  0.4908
    6CHTO   C42 2398   7.490   5.697   2.193  0.7458 -0.4173 -0.6864
    6CHTO   H84 2399   7.587   5.742   2.214  0.4503 -0.6233  1.2305
    6CHTO   C44 2400   7.487   5.563   2.287 -0.4675  0.4800 -0.3879
    6CHTO   H86 2401   7.408   5.498   2.249 -1.3787  0.2342  1.8371
    6CHTO   O32 2402   7.616   5.497   2.258 -0.0724 -0.1592  0.2666
    6CHTO   H69 2403   7.624   5.477   2.167  2.1154 -0.6769  0.5422
    6CHTO   C48 2404   7.469   5.587   2.444  0.5183 -0.5829  0.5956
    6CHTO   H90 2405   7.562   5.625   2.487 -0.4148  2.1605  0.3000
    6CHTO    N9 2406   7.446   5.466   2.537 -0.0168 -0.0708 -0.3080
    6CHTO   H77 2407   7.407   5.391   2.469  1.0656  0.9304 -2.0529
    6CHTO   H78 2408   7.537   5.438   2.588  0.2619  1.0049 -0.2187
    6CHTO   C51 2409   7.358   5.698   2.461 -0.1771 -0.1952 -0.2964
    6CHTO   H93 2410   7.267   5.656   2.417 -0.0620  0.5473 -1.2746
    6CHTO   O30 2411   7.396   5.817   2.395  0.2119  0.0268  0.6633
    6CHTO   C46 2412   7.381   5.800   2.248  0.6416 -0.0481 -0.2507
    6CHTO   H88 2413   7.282   5.757   2.229  0.4997 -0.4312  1.2757
    6CHTO   C53 2414   7.401   5.943   2.181  0.9387  0.2104  0.8407
    6CHTO   O72 2415   7.316   6.038   2.253 -0.3523 -0.3217 -0.1055
    6CHTO  H199 2416   7.260   6.091   2.199 -2.3767  0.9524  3.0513
    6CHTO   O22 2417   7.357   5.748   2.595  0.0563  0.0809  0.4120
    6CHTO   C31 2418   7.231   5.790   2.652 -0.1085 -0.2611 -0.2500
    6CHTO   H59 2419   7.172   5.828   2.566  1.5318  0.2640 -1.1440
    6CHTO   C29 2420   7.152   5.674   2.721 -0.1775 -0.4454 -0.7983
    6CHTO   H57 2421   7.227   5.636   2.792  2.6531  3.0097 -1.7856
    6CHTO   O21 2422   7.115   5.574   2.623 -0.2086  0.4717 -0.4807
    6CHTO   H37 2423   7.025   5.571   2.599 -1.0669  0.0958  2.5996
    6CHTO   C27 2424   7.020   5.723   2.799  0.0056  0.3161 -0.4802
    6CHTO   H55 2425   6.939   5.747   2.729 -1.2947  1.4472  1.3609
    6CHTO    N5 2426   6.973   5.612   2.887 -0.0640 -0.0447  0.8243
    6CHTO   H43 2427   7.034   5.565   2.962 -0.8713  0.8025  2.0215
    6CHTO   H44 2428   6.912   5.543   2.831  0.2846  0.9329 -0.8233
    6CHTO   C25 2429   7.043   5.853   2.873 -0.0339 -0.2958  0.0239
    6CHTO   H53 2430   7.113   5.840   2.956  0.8462 -2.5236 -1.0373
    6CHTO   O17 2431   7.100   5.949   2.782  0.4242  0.2891  0.3475
    6CHTO   C32 2432   7.240   5.911   2.752 -0.0901  0.3942 -0.1041
    6CHTO   H60 2433   7.295   5.886   2.842  1.4100  0.0680 -1.0969
    6CHTO   C36 2434   7.312   6.034   2.697  0.0481 -0.5675 -0.6117
    6CHTO   O25 2435   7.342   6.137   2.786  0.0466 -1.0467  0.3874
    6CHTO   H40 2436   7.265   6.189   2.800  1.1973  1.4957 -2.2141
    6CHTO   O15 2437   6.903   5.913   2.910  0.2578  0.1548 -0.0332
    6CHTO   C19 2438   6.816   6.019   2.970 -0.4650 -0.0808 -0.1274
    6CHTO   H47 2439   6.806   5.988   3.075  2.4812 -1.9967 -0.3534
    6CHTO   C20 2440   6.864   6.168   2.958  0.8043  0.8137  0.2955
    6CHTO   H48 2441   6.878   6.195   2.853 -0.6989 -2.6059 -0.8556
    6CHTO   O19 2442   6.993   6.180   3.023  0.0700 -0.1675 -0.3009
    6CHTO   H35 2443   7.065   6.165   2.964  0.9306 -2.0653  1.1711
    6CHTO   C21 2444   6.760   6.262   3.032 -0.4458  0.7018 -0.0131
    6CHTO   H49 2445   6.761   6.234   3.137  3.1852  3.1572  0.7324
    6CHTO    N4 2446   6.792   6.415   3.031  0.0205  0.2589  0.0048
    6CHTO   H41 2447   6.738   6.459   3.114 -1.5348 -1.2172 -0.1835
    6CHTO   H42 2448   6.757   6.456   2.937 -1.4903 -3.2873 -1.0722
    6CHTO   C22 2449   6.623   6.242   2.975  0.5777  0.1975 -0.1401
    6CHTO   H50 2450   6.610   6.274   2.871  1.0165  2.7864  0.5601
    6CHTO   O14 2451   6.586   6.107   2.975 -0.7222  0.1109  0.0921
    6CHTO   C23 2452   6.675   6.015   2.912 -0.5741 -0.5620  0.0304
    6CHTO   H51 2453   6.678   6.035   2.804 -0.1530 -1.3555 -0.1151
    6CHTO   C34 2454   6.599   5.883   2.920  0.1926 -0.5310  0.4392
    6CHTO   O23 2455   6.655   5.771   2.845 -0.0313 -0.2120 -0.2899
    6CHTO   H38 2456   6.654   5.791   2.754  3.8805  0.0954 -0.3467
    6CHTO   O16 2457   6.526   6.293   3.072 -0.2109 -0.5480 -0.3437
    6CHTO   C24 2458   6.400   6.338   3.017 -0.2447  0.7873 -0.6007
    6CHTO   H52 2459   6.391   6.316   2.911  2.0124 -0.0082 -0.6572
    6CHTO   C26 2460   6.390   6.492   3.023 -0.4650  0.3687  0.0720
    6CHTO   H54 2461   6.388   6.524   3.130  0.4687 -2.3563  0.9569
    6CHTO   O20 2462   6.514   6.548   2.975  0.2671  0.1236  0.5049
    6CHTO   H36 2463   6.582   6.533   3.038  2.1781  1.5796 -1.1282
    6CHTO   C30 2464   6.262   6.544   2.946  0.0544  0.6636 -0.0809
    6CHTO   H58 2465   6.282   6.526   2.839 -1.4192  0.6932 -0.3778
    6CHTO    N6 2466   6.239   6.689   2.962 -0.8859 -0.1404  0.7480
    6CHTO   H45 2467   6.322   6.734   3.015 -0.8600 -0.1219  0.6912
    6CHTO   H46 2468   6.228   6.743   2.869 -1.8824 -0.0705  0.9101
    6CHTO   C33 2469   6.132   6.458   2.983  0.1170 -0.5316  0.2859
    6CHTO   H61 2470   6.079   6.501   3.069 -1.2882 -2.0177  0.1785
    6CHTO   O18 2471   6.165   6.319   3.010 -0.0768 -0.0354 -1.2502
    6CHTO   C28 2472   6.279   6.271   3.086 -0.0961  0.3588  0.0642
    6CHTO   H56 2473   6.278   6.310   3.188 -1.1680  0.9672 -0.1769
    6CHTO   C35 2474   6.268   6.109   3.080 -0.2727  0.1560 -0.9443
    6CHTO   O24 2475   6.279   6.051   2.948 -0.0547  0.2518 -0.1283
    6CHTO   H39 2476   6.303   5.961   2.938 -0.2077  0.2487 -0.5053
    6CHTO    O9 2477   6.037   6.468   2.875 -0.0512  0.4011  0.2433
    6CHTO   C13 2478   5.891   6.465   2.909  0.2154  0.0785 -0.7115
    6CHTO   H26 2479   5.870   6.554   2.973 -1.6476 -1.4048  0.7992
    6CHTO   C11 2480   5.836   6.331   2.985 -0.2082  0.1835  0.7762
    6CHTO   H24 2481   5.902   6.317   3.072  0.6258  0.4396  0.1975
    6CHTO    O8 2482   5.865   6.218   2.894 -0.4364 -0.7003  0.1963
    6CHTO    H3 2483   5.798   6.211   2.830 -1.3501 -1.3165  1.1969
    6CHTO    C9 2484   5.688   6.350   3.033  0.9674 -0.5875  0.3256
    6CHTO   H22 2485   5.691   6.427   3.111 -0.2728 -0.3497  0.1383
    6CHTO    N2 2486   5.622   6.235   3.103 -0.4220 -0.1167  0.4891
    6CHTO   H10 2487   5.578   6.262   3.198  0.8260 -0.8606  1.3038
    6CHTO   H11 2488   5.548   6.187   3.041  2.0985 -1.9780 -1.2071
    6CHTO    C7 2489   5.604   6.422   2.915  0.2631  0.1857 -0.0450
    6CHTO   H20 2490   5.607   6.525   2.956 -0.7848  0.7765 -1.4054
    6CHTO    O4 2491   5.677   6.418   2.783  0.0625  0.5185 -0.0295
    6CHTO   C14 2492   5.796   6.489   2.782  0.2407 -0.5002 -0.7557
    6CHTO   H27 2493   5.766   6.595   2.789  1.0087 -0.3222 -0.1145
    6CHTO   C18 2494   5.871   6.461   2.649  0.1208  0.3848 -0.6889
    6CHTO   O13 2495   5.777   6.498   2.544  0.1878  0.0351  0.2735
    6CHTO    H7 2496   5.837   6.506   2.473  1.7379 -0.5580  1.4779
    6CHTO    O2 2497   5.454   6.370   2.890  0.0223  0.2364 -0.4773
    6CHTO    C1 2498   5.376   6.403   2.771 -0.4135 -0.3972 -0.1466
    6CHTO   H14 2499   5.401   6.325   2.696  1.3354  1.1496 -1.2143
    6CHTO    C2 2500   5.389   6.546   2.707  0.1948 -0.5370 -1.0202
    6CHTO   H15 2501   5.400   6.611   2.796 -0.5090 -1.3461 -0.3326
    6CHTO    O6 2502   5.508   6.560   2.630  0.1961 -0.0427 -1.1563
    6CHTO    H1 2503   5.583   6.544   2.685 -1.6962  0.5449  1.7446
    6CHTO    C3 2504   5.266   6.592   2.618  0.3821 -0.2652 -0.1778
    6CHTO   H16 2505   5.281   6.565   2.513  0.0379  0.8553 -0.5265
    6CHTO    N1 2506   5.257   6.745   2.608 -0.2231  0.0149  0.2263
    6CHTO    H8 2507   5.240   6.789   2.706  1.4837  0.7875  0.2086
    6CHTO    H9 2508   5.165   6.764   2.556  0.7394 -0.6758 -1.7615
    6CHTO    C4 2509   5.127   6.528   2.656 -0.3651 -0.6942  0.0745
    6CHTO   H17 2510   5.093   6.577   2.746 -1.4173  2.7386 -2.1001
    6CHTO    O1 2511   5.137   6.392   2.689  0.3883  0.0841  1.0203
    6CHTO    C5 2512   5.224   6.366   2.803  0.6542  0.2730 -0.4061
    6CHTO   H18 2513   5.193   6.427   2.888  1.3226  0.7532 -0.5035
    6CHTO   C16 2514   5.197   6.218   2.838 -0.0862 -0.2639 -0.1235
    6CHTO   O11 2515   5.056   6.217   2.871 -0.9280 -0.1345  0.3477
    6CHTO    H5 2516   5.045   6.126   2.891 -1.4120 -0.7892 -2.7105
    6CHTO    O3 2517   5.025   6.546   2.555  0.1210  0.5918  0.0220
    6CHTO    C6 2518   4.890   6.571   2.596  0.4115  0.5601  0.0576
    6CHTO   H19 2519   4.834   6.561   2.503  1.7488  0.9146 -0.8043
    6CHTO    C8 2520   4.838   6.473   2.705  0.1539 -0.0444  0.1244
    6CHTO   H21 2521   4.899   6.486   2.795  3.0721  0.0160 -1.8204
    6CHTO    O7 2522   4.849   6.346   2.648 -0.5148  0.3291  0.4025
    6CHTO    H2 2523   4.790   6.351   2.575  1.1914  2.7672 -0.8420
    6CHTO   C12 2524   4.689   6.510   2.754  0.1030 -0.3775  0.1457
    6CHTO   H25 2525   4.628   6.503   2.661 -0.2112  1.7298  0.1708
    6CHTO    N3 2526   4.625   6.422   2.855 -0.1286 -0.4068  0.5929
    6CHTO   H12 2527   4.598   6.484   2.939 -0.9941 -0.1213  0.1186
    6CHTO   H13 2528   4.690   6.351   2.903  0.2257 -0.2158  0.3933
    6CHTO   C15 2529   4.689   6.667   2.793 -0.0518  0.0516  0.7683
    6CHTO   H28 2530   4.757   6.681   2.878 -1.0637  1.8608  1.3181
    6CHTO   O10 2531   4.556   6.724   2.835 -0.1665  0.1438 -0.5133
    6CHTO    H4 2532   4.483   6.686   2.791 -0.2118 -0.8011  0.3452
    6CHTO    O5 2533   4.736   6.741   2.684 -0.2539 -0.7477 -0.1262
    6CHTO   C10 2534   4.868   6.717   2.633 -0.0647 -0.8888 -0.6625
    6CHTO   H23 2535   4.930   6.755   2.713  0.7512  0.7216 -2.0199
    6CHTO   C17 2536   4.880   6.816   2.516  0.1424 -0.0087 -0.1070
    6CHTO   O12 2537   4.795   6.771   2.406  0.3107  0.2506  0.1423
    6CHTO    H6 2538   4.712   6.814   2.409  0.2858  0.1623  1.0121
    7CHTO  H203 2539   4.573   2.010   0.587  0.8897 -0.0464  0.4107
    7CHTO   O82 2540   4.621   2.091   0.579 -0.1896  0.6465  0.8437
    7CHTO  C123 2541   4.638   2.112   0.436 -0.2857 -1.1081  0.2220
    7CHTO  H227 2542   4.542   2.144   0.393 -0.1451  0.4075  0.9795
    7CHTO   O77 2543   4.731   2.223   0.443 -0.7607  0.1419 -0.2896
    7CHTO  C118 2544   4.802   2.261   0.322 -0.0247  0.6421 -0.1468
    7CHTO  H222 2545   4.723   2.306   0.260  0.0093  0.6604 -0.1763
    7CHTO  C125 2546   4.911   2.370   0.366  0.1118 -0.2415 -0.2749
    7CHTO   O84 2547   4.844   2.498   0.394  0.0884  0.0893  0.8491
    7CHTO  H205 2548   4.880   2.550   0.325  1.8262  0.1940  1.8112
    7CHTO  C114 2549   4.861   2.141   0.244  0.1426 -0.1559 -0.5605
    7CHTO  H218 2550   4.941   2.100   0.305  2.5687  2.1250 -2.0583
    7CHTO  C116 2551   4.751   2.033   0.227 -0.6351 -0.2951 -0.3121
    7CHTO  H220 2552   4.671   2.072   0.161 -0.2267  0.7074 -0.2143
    7CHTO   O79 2553   4.827   1.929   0.162 -0.2880 -0.4887  0.0744
    7CHTO  H201 2554   4.787   1.846   0.178 -2.1499  0.3653  0.0097
    7CHTO  C120 2555   4.699   1.993   0.367 -0.3722  0.5241  0.4158
    7CHTO  H224 2556   4.793   1.958   0.415 -0.9557 -1.4001  0.1987
    7CHTO   N21 2557   4.605   1.878   0.366  0.1632  0.0303  0.1861
    7CHTO  H211 2558   4.511   1.920   0.335  1.1411  1.4308 -0.9309
    7CHTO  H212 2559   4.587   1.826   0.459 -2.0337 -1.7763 -1.2033
    7CHTO   O75 2560   4.934   2.176   0.121 -0.1580 -0.1513  0.1019
    7CHTO  C112 2561   5.097   2.139   0.109 -0.1852  0.1273 -0.4611
    7CHTO  H216 2562   5.112   2.047   0.051 -2.1640 -0.2355 -0.4354
    7CHTO   O73 2563   5.144   2.125   0.240 -0.7106  0.3886  0.5154
    7CHTO  C113 2564   5.283   2.087   0.244 -0.2263  0.4391  0.0427
    7CHTO  H217 2565   5.303   2.004   0.172  2.6987  0.6339  0.5676
    7CHTO  C124 2566   5.323   2.049   0.386 -0.2160 -0.1654 -0.0190
    7CHTO   O83 2567   5.241   1.947   0.438  0.4446  0.3235  0.2939
    7CHTO  H204 2568   5.158   1.974   0.472 -0.9989 -2.6883 -0.6367
    7CHTO  C109 2569   5.369   2.208   0.182 -0.0427 -0.3054  0.2269
    7CHTO  H213 2570   5.355   2.295   0.249 -1.3650 -0.1208 -0.2918
    7CHTO  C110 2571   5.324   2.244   0.042 -0.1968  0.9394 -0.1610
    7CHTO  H214 2572   5.359   2.160  -0.018  0.2211 -0.0836  1.5092
    7CHTO   O78 2573   5.396   2.353  -0.006  0.3781  0.0193 -0.2480
    7CHTO  H200 2574   5.488   2.347   0.006  0.3027 -3.1917 -0.9617
    7CHTO  C111 2575   5.168   2.263   0.039 -0.6638  0.9204  0.7627
    7CHTO  H215 2576   5.142   2.350   0.101  0.3358  1.5768  0.2680
    7CHTO   N19 2577   5.116   2.291  -0.096 -0.3085 -0.0560  0.4308
    7CHTO  H207 2578   5.188   2.244  -0.162  0.4701  2.0308 -0.2481
    7CHTO  H208 2579   5.111   2.396  -0.121 -0.3495 -0.3008 -0.6150
    7CHTO   O74 2580   5.517   2.171   0.175 -0.5471  0.0522  0.2039
    7CHTO  C115 2581   5.628   2.284   0.215 -0.5360  0.8117 -0.7267
    7CHTO  H219 2582   5.585   2.384   0.218 -0.7418  0.6721  2.1515
    7CHTO   O76 2583   5.683   2.258   0.377  0.1995 -0.1895  0.3161
    7CHTO  C122 2584   5.789   2.348   0.413 -0.6976  0.3399 -0.1421
    7CHTO  H226 2585   5.827   2.285   0.494  1.6687 -0.8813 -2.1218
    7CHTO  C126 2586   5.736   2.484   0.474  0.1968 -0.0944  0.1523
    7CHTO   O85 2587   5.666   2.555   0.371  0.3399  0.4573 -0.6009
    7CHTO  H206 2588   5.685   2.646   0.376  1.5174  0.1944  0.0237
    7CHTO  C121 2589   5.903   2.366   0.299  0.2060  0.0567 -0.0133
    7CHTO  H225 2590   5.893   2.468   0.257  2.2713 -0.2541 -1.3122
    7CHTO   O81 2591   6.035   2.357   0.347  0.1723 -0.5722 -1.0325
    7CHTO  H202 2592   6.093   2.395   0.283  0.6388 -0.0966 -0.3305
    7CHTO  C119 2593   5.878   2.263   0.182 -0.3983  0.0160 -0.1938
    7CHTO  H223 2594   5.954   2.279   0.105  0.3642  1.6761  0.8662
    7CHTO  C117 2595   5.744   2.269   0.110 -0.7298  0.3350 -0.4117
    7CHTO  H221 2596   5.726   2.184   0.044 -0.4516  2.3650 -3.2293
    7CHTO   N20 2597   5.743   2.380   0.010  0.0096 -0.1768 -0.0358
    7CHTO  H209 2598   5.821   2.363  -0.062 -0.6930 -1.1756 -0.5567
    7CHTO  H210 2599   5.657   2.375  -0.055  0.1687  0.7420 -0.3294
    7CHTO   O80 2600   5.918   2.123   0.222  0.1399  0.3969  0.1033
    7CHTO  C103 2601   5.972   2.021   0.104 -0.1406 -0.8512  0.4834
    7CHTO  H190 2602   5.924   2.042   0.009  1.2904 -0.6776 -0.2228
    7CHTO  C101 2603   6.135   2.025   0.071 -0.0567 -0.1629 -0.6244
    7CHTO  H188 2604   6.178   2.018   0.171 -0.8991  3.6199  0.0696
    7CHTO   O68 2605   6.170   2.167   0.013  0.7082 -0.1518 -0.1873
    7CHTO  H168 2606   6.102   2.195  -0.045 -0.2588 -0.4309  0.7980
    7CHTO   C99 2607   6.193   1.900  -0.018 -0.4873 -0.0116  0.0462
    7CHTO  H186 2608   6.154   1.918  -0.120 -0.1167 -2.3536 -0.5306
    7CHTO   N17 2609   6.340   1.894  -0.018 -0.2936  0.1546  0.3501
    7CHTO  H174 2610   6.367   1.848  -0.112  1.3148 -1.6814  1.6552
    7CHTO  H175 2611   6.381   1.992   0.000  0.9369 -0.8243  3.2056
    7CHTO   C97 2612   6.130   1.765   0.027  0.5463 -0.4059  0.0127
    7CHTO  H184 2613   6.169   1.741   0.127 -1.1153 -0.9373  0.5513
    7CHTO   O64 2614   5.986   1.789   0.027 -0.2711  0.1077 -0.3731
    7CHTO  C104 2615   5.944   1.869   0.134  0.0972  0.1288 -0.8546
    7CHTO  H191 2616   5.983   1.836   0.230 -2.9398 -0.2649  0.3212
    7CHTO  C108 2617   5.794   1.844   0.150  0.5896  0.4146 -0.2631
    7CHTO   O71 2618   5.772   1.712   0.197 -0.5962  0.3455  0.4256
    7CHTO  H171 2619   5.690   1.683   0.162 -0.9313  1.5993  0.1535
    7CHTO   O62 2620   6.150   1.663  -0.070  0.0306  0.1697  0.7073
    7CHTO   C91 2621   6.156   1.530  -0.027 -0.7566 -0.1510  0.3310
    7CHTO  H178 2622   6.260   1.523   0.006  0.3509 -0.2072 -3.0260
    7CHTO   C92 2623   6.134   1.437  -0.150 -0.2519  0.1801 -0.0477
    7CHTO  H179 2624   6.200   1.457  -0.236  1.0307 -0.1359  0.8425
    7CHTO   O66 2625   6.193   1.315  -0.106  0.2440  0.1861 -0.0967
    7CHTO  H166 2626   6.275   1.296  -0.148  0.7002 -0.2269  0.9571
    7CHTO   C93 2627   5.980   1.425  -0.182  0.9620  0.1406 -0.9427
    7CHTO  H180 2628   5.982   1.321  -0.218 -0.4985 -0.2610  0.0967
    7CHTO   N16 2629   5.921   1.514  -0.285  0.2274 -0.1838  0.0937
    7CHTO  H172 2630   5.942   1.477  -0.384  2.0603  3.5091 -0.9740
    7CHTO  H173 2631   5.815   1.526  -0.266  0.2608  1.3266 -0.6539
    7CHTO   C94 2632   5.891   1.428  -0.055  0.9979  0.8051 -0.2427
    7CHTO  H181 2633   5.856   1.528  -0.027  1.9380  0.8366  0.8589
    7CHTO   O61 2634   5.970   1.387   0.056 -0.3362  0.4074  0.0488
    7CHTO   C95 2635   6.059   1.489   0.095  0.3887 -0.5926  0.0976
    7CHTO  H182 2636   5.995   1.568   0.135  0.2611 -1.1078  0.9173
    7CHTO  C106 2637   6.123   1.433   0.221 -0.3461  0.4461  0.1597
    7CHTO   O69 2638   6.213   1.533   0.271  0.2262 -0.3983  0.0020
    7CHTO  H169 2639   6.259   1.498   0.345  0.7331  2.2461  1.0233
    7CHTO   O63 2640   5.757   1.333  -0.064 -0.5578 -0.0861 -0.2822
    7CHTO   C96 2641   5.634   1.377   0.045 -0.3617  0.2215 -0.2903
    7CHTO  H183 2642   5.612   1.480   0.018  1.4480  0.3389 -1.4655
    7CHTO   C98 2643   5.683   1.363   0.195  0.3693  0.1444 -0.0681
    7CHTO  H185 2644   5.775   1.420   0.212  0.4857 -0.0005 -0.2079
    7CHTO   O67 2645   5.580   1.418   0.277 -0.3072 -0.4998 -0.3207
    7CHTO  H167 2646   5.590   1.511   0.278 -1.8493 -0.3167  2.9395
    7CHTO  C102 2647   5.696   1.214   0.244 -0.2270 -0.0494 -0.0090
    7CHTO  H189 2648   5.705   1.222   0.353 -2.4321  3.0750  0.0218
    7CHTO   N18 2649   5.820   1.149   0.200 -0.6777  0.5375 -0.1020
    7CHTO  H176 2650   5.802   1.059   0.143  1.4027 -0.8057  1.2842
    7CHTO  H177 2651   5.879   1.218   0.142 -0.0604  0.6377  0.6385
    7CHTO  C105 2652   5.567   1.134   0.207 -0.1759  0.3160 -0.2349
    7CHTO  H192 2653   5.599   1.045   0.153  1.0305  0.8526 -0.4134
    7CHTO   O65 2654   5.461   1.207   0.137  0.5215  0.5205 -0.2131
    7CHTO  C100 2655   5.508   1.277   0.022  0.2080 -0.3666 -0.7131
    7CHTO  H187 2656   5.539   1.196  -0.047 -0.4250 -0.2419 -1.1534
    7CHTO  C107 2657   5.395   1.366  -0.028 -0.1077  0.0781  0.0866
    7CHTO   O70 2658   5.298   1.283  -0.092 -0.3375  0.5426 -0.0484
    7CHTO  H170 2659   5.227   1.270  -0.032 -0.1518 -1.5999 -0.2287
    7CHTO   O57 2660   5.490   1.079   0.349 -0.1711  0.2720 -0.5866
    7CHTO   C85 2661   5.544   0.961   0.402 -0.0533  0.5473 -0.0109
    7CHTO  H157 2662   5.649   0.949   0.368  0.5256  1.8648  1.2462
    7CHTO   C83 2663   5.471   0.837   0.347 -0.5134  0.4669  0.2045
    7CHTO  H155 2664   5.468   0.850   0.239  0.0846  1.6209  0.3150
    7CHTO   O56 2665   5.335   0.833   0.385 -0.3693 -0.1512 -0.0947
    7CHTO  H135 2666   5.289   0.902   0.342  1.3002  0.1817 -1.3977
    7CHTO   C81 2667   5.556   0.713   0.384  0.7894 -0.8085 -0.4408
    7CHTO  H153 2668   5.659   0.727   0.354  0.6835  0.7251 -0.0904
    7CHTO   N14 2669   5.512   0.586   0.317 -0.3599 -0.1043 -0.5680
    7CHTO  H141 2670   5.416   0.552   0.350 -0.3961  1.5298  1.1249
    7CHTO  H142 2671   5.585   0.510   0.330 -3.0838 -2.8769 -0.7644
    7CHTO   C79 2672   5.547   0.700   0.538  0.6599  0.1040 -0.1390
    7CHTO  H151 2673   5.614   0.617   0.564  0.6612  0.1819  0.1076
    7CHTO   O52 2674   5.595   0.823   0.602 -0.4986 -0.3830 -0.0638
    7CHTO   C86 2675   5.534   0.949   0.550  0.1647 -0.4045 -0.0817
    7CHTO  H158 2676   5.430   0.939   0.588  0.3476  0.8476  0.7817
    7CHTO   C90 2677   5.594   1.071   0.630 -0.0340 -0.0875  0.2932
    7CHTO   O60 2678   5.568   1.057   0.770 -0.4784 -1.0171  0.5538
    7CHTO  H138 2679   5.620   1.117   0.820 -0.7032 -3.2707  3.5906
    7CHTO   O50 2680   5.419   0.676   0.591  0.1911  0.7297 -0.1517
    7CHTO   C73 2681   5.397   0.570   0.691 -0.4145  0.6537  0.3502
    7CHTO  H145 2682   5.493   0.524   0.719 -1.5032 -2.0748 -0.3154
    7CHTO   C74 2683   5.314   0.460   0.620 -0.0312 -0.3352  0.1531
    7CHTO  H146 2684   5.357   0.433   0.523 -4.0979  0.1899 -1.9211
    7CHTO   O54 2685   5.334   0.342   0.696 -0.6692 -0.2189 -0.0476
    7CHTO  H133 2686   5.386   0.280   0.649  0.5706 -0.2962  1.4001
    7CHTO   C75 2687   5.156   0.501   0.608  0.1850  0.8823  0.6806
    7CHTO  H147 2688   5.147   0.594   0.550  1.3485  0.4241 -0.2645
    7CHTO   N13 2689   5.077   0.401   0.535 -0.1097  0.2029  0.2757
    7CHTO  H139 2690   5.009   0.453   0.469 -1.9185  1.4511  3.0343
    7CHTO  H140 2691   5.016   0.333   0.592  0.2576 -0.8090 -0.5011
    7CHTO   C76 2692   5.102   0.524   0.756  0.1368  0.0539  0.1719
    7CHTO  H148 2693   5.127   0.433   0.810 -1.1752  1.6822  3.6725
    7CHTO   O49 2694   5.182   0.639   0.814  0.1185  0.1605  0.4916
    7CHTO   C77 2695   5.322   0.623   0.819 -0.1389  0.4898 -0.0604
    7CHTO  H149 2696   5.344   0.558   0.904  1.3412  1.3880  0.2698
    7CHTO   C88 2697   5.383   0.753   0.877 -0.1349 -0.1593  0.0370
    7CHTO   O58 2698   5.345   0.855   0.798 -0.1085 -0.0155  0.2408
    7CHTO  H136 2699   5.367   0.828   0.711  0.0960  3.5491 -0.8851
    7CHTO   O51 2700   4.939   0.578   0.753  0.2470 -0.2714  0.1067
    7CHTO   C78 2701   4.892   0.573   0.889 -0.0928 -0.2721 -0.4756
    7CHTO  H150 2702   4.976   0.570   0.961  0.4929  0.5058 -1.1066
    7CHTO   C80 2703   4.796   0.459   0.912  0.4560  0.1714  0.7431
    7CHTO  H152 2704   4.707   0.480   0.849  2.1429 -0.4664 -1.9414
    7CHTO   O55 2705   4.862   0.337   0.858 -0.0164 -0.0677 -0.1366
    7CHTO  H134 2706   4.847   0.342   0.766 -0.1520  0.7221 -0.0731
    7CHTO   C84 2707   4.763   0.445   1.065  0.0896  0.2114 -0.4469
    7CHTO  H156 2708   4.857   0.442   1.119 -0.6562 -2.9764  0.7565
    7CHTO   N15 2709   4.679   0.327   1.101 -0.0775 -0.0250  0.2359
    7CHTO  H143 2710   4.602   0.323   1.027 -1.4666 -1.0422  1.7120
    7CHTO  H144 2711   4.734   0.236   1.103 -0.5007 -0.2653  1.0266
    7CHTO   C87 2712   4.704   0.578   1.118  0.1042 -0.5737  0.6909
    7CHTO  H159 2713   4.608   0.591   1.068  1.2108  1.4659 -0.9928
    7CHTO   O53 2714   4.815   0.704   1.076 -0.2630 -0.0093 -0.2068
    7CHTO   C82 2715   4.828   0.708   0.932 -0.3385  0.1871  0.6150
    7CHTO  H154 2716   4.730   0.720   0.886 -1.0738 -2.5192  1.4008
    7CHTO   C89 2717   4.908   0.833   0.895  0.1418  0.0256 -0.3067
    7CHTO   O59 2718   5.033   0.855   0.960 -0.3573 -0.4393  0.1584
    7CHTO  H137 2719   5.027   0.895   1.045 -1.1562 -0.5283  0.1496
    7CHTO   O45 2720   4.693   0.568   1.294 -0.0368 -0.2230  0.2323
    7CHTO   C67 2721   4.785   0.654   1.357 -0.2197  0.4348 -0.2378
    7CHTO  H124 2722   4.868   0.671   1.288  1.4001 -0.2754  1.5032
    7CHTO   C65 2723   4.710   0.784   1.389  0.0595  0.0610 -0.3971
    7CHTO  H122 2724   4.607   0.753   1.405  0.5442 -1.2909  0.1263
    7CHTO   O44 2725   4.717   0.879   1.278  0.1012  0.8196 -0.0742
    7CHTO  H102 2726   4.743   0.828   1.205  0.3475  2.4529 -1.1637
    7CHTO   C63 2727   4.739   0.836   1.540  0.1403  0.2745  0.0068
    7CHTO  H120 2728   4.687   0.763   1.602  2.4866  0.4028  2.1717
    7CHTO   N11 2729   4.679   0.971   1.571 -0.5760  0.4420 -0.1945
    7CHTO  H108 2730   4.587   0.982   1.519  0.0663  2.3646 -0.9800
    7CHTO  H109 2731   4.749   1.052   1.562  1.1897 -0.9118  1.0300
    7CHTO   C61 2732   4.900   0.830   1.565 -0.5603  0.2426 -0.4931
    7CHTO  H118 2733   4.924   0.862   1.667 -0.8405 -1.7314  0.2324
    7CHTO   O40 2734   4.950   0.685   1.551 -0.5450 -0.1457 -0.3839
    7CHTO   C68 2735   4.861   0.593   1.487 -0.3577  0.1340 -0.2235
    7CHTO  H125 2736   4.791   0.564   1.568  2.7256  0.6604  2.7284
    7CHTO   C72 2737   4.942   0.463   1.446 -0.6037 -0.3557  0.0988
    7CHTO   O48 2738   5.011   0.394   1.553  0.0403  0.3895 -0.9534
    7CHTO  H105 2739   5.084   0.354   1.510  0.6116 -0.6799  0.9459
    7CHTO   O38 2740   4.965   0.913   1.469  0.0989 -0.0134  0.2725
    7CHTO   C55 2741   5.090   0.979   1.510  0.5768  0.6159 -0.6631
    7CHTO  H112 2742   5.146   0.922   1.586  0.8027 -0.9181 -1.9541
    7CHTO   C56 2743   5.053   1.119   1.561 -0.2708  0.0454 -0.1874
    7CHTO  H113 2744   4.978   1.158   1.491  1.7462  1.8244 -1.4545
    7CHTO   O42 2745   4.985   1.113   1.689  0.0107 -0.4718 -0.4805
    7CHTO  H100 2746   4.969   1.200   1.722  1.8565 -1.0616  2.0595
    7CHTO   C57 2747   5.168   1.225   1.576  0.2729  0.2090  0.0592
    7CHTO  H114 2748   5.210   1.218   1.677  2.0263  0.2811 -0.6360
    7CHTO   N10 2749   5.117   1.367   1.575  0.5149  0.2253 -0.5840
    7CHTO  H106 2750   5.097   1.392   1.472 -3.1471 -2.8660 -0.7109
    7CHTO  H107 2751   5.191   1.432   1.620 -1.1343  0.9797  1.1214
    7CHTO   C58 2752   5.281   1.196   1.476 -0.2161  0.0359 -0.6413
    7CHTO  H115 2753   5.260   1.238   1.376  0.6238  0.5912 -0.5914
    7CHTO   O37 2754   5.306   1.057   1.453 -0.0768 -0.3093  0.4212
    7CHTO   C59 2755   5.195   0.989   1.398 -0.3505  0.7865 -0.2438
    7CHTO  H116 2756   5.151   1.041   1.313 -0.6466  1.5012  0.3365
    7CHTO   C70 2757   5.241   0.855   1.335  0.0443 -0.2016  0.1811
    7CHTO   O46 2758   5.129   0.786   1.275 -0.0475 -0.1219  0.3525
    7CHTO  H103 2759   5.122   0.697   1.303  0.9777  0.1570  1.5370
    7CHTO   O39 2760   5.438   1.260   1.546  0.3135  0.0568  0.0263
    7CHTO   C60 2761   5.553   1.211   1.474  1.0546 -0.9130  0.6302
    7CHTO  H117 2762   5.560   1.106   1.503  0.9657 -0.5677  1.9451
    7CHTO   C62 2763   5.541   1.219   1.320 -0.0404 -0.1437 -0.1615
    7CHTO  H119 2764   5.461   1.149   1.285 -0.1034 -0.7800  1.2144
    7CHTO   O43 2765   5.493   1.348   1.291  0.0543 -0.4821 -0.0310
    7CHTO  H101 2766   5.533   1.373   1.210 -0.0405 -2.1732 -0.6113
    7CHTO   C66 2767   5.676   1.174   1.242 -0.4208 -0.1680 -0.2260
    7CHTO  H123 2768   5.704   1.075   1.277  0.7391  0.1224 -0.3330
    7CHTO   N12 2769   5.658   1.152   1.095  0.2791  0.2630 -0.0866
    7CHTO  H110 2770   5.728   1.077   1.062 -0.9236 -0.5326 -0.8811
    7CHTO  H111 2771   5.676   1.249   1.051 -3.0389  1.1917  0.4272
    7CHTO   C69 2772   5.788   1.264   1.295 -0.1998  0.1721 -0.7668
    7CHTO  H126 2773   5.761   1.370   1.280 -0.5858  0.0093 -1.2368
    7CHTO   O41 2774   5.796   1.230   1.451  0.3773 -0.6398  0.0957
    7CHTO   C64 2775   5.682   1.276   1.524  1.1192  0.6260  0.2428
    7CHTO  H121 2776   5.659   1.385   1.527  1.9986  0.8604 -1.1142
    7CHTO   C71 2777   5.705   1.248   1.672  0.2067  0.3711 -0.0433
    7CHTO   O47 2778   5.806   1.335   1.739 -0.0604 -0.4712  0.3159
    7CHTO  H104 2779   5.773   1.370   1.819 -2.0504 -1.8059  0.1339
    7CHTO   O34 2780   5.913   1.224   1.223  0.1743 -0.8251 -0.1999
    7CHTO   C49 2781   6.033   1.143   1.242  0.2455 -0.0169  0.3143
    7CHTO   H91 2782   6.093   1.189   1.321 -1.3867  0.2922  1.4014
    7CHTO   C47 2783   6.111   1.141   1.111 -0.4870 -0.3191  0.1873
    7CHTO   H89 2784   6.209   1.098   1.140  0.2674  0.6773 -0.8456
    7CHTO   O33 2785   6.138   1.277   1.080  0.5456 -0.3104 -0.2146
    7CHTO   H70 2786   6.151   1.280   0.988  1.7595  1.0557  0.0003
    7CHTO   C45 2787   6.029   1.044   1.008 -0.6175 -0.1019 -0.0572
    7CHTO   H87 2788   5.929   1.089   0.998 -0.6465 -0.2285 -0.3393
    7CHTO    N8 2789   6.095   1.032   0.878 -0.6814 -0.0739  0.0862
    7CHTO   H75 2790   6.095   1.129   0.829  2.8548  0.7709  1.5818
    7CHTO   H76 2791   6.196   0.993   0.883  0.3181  2.3328 -0.4541
    7CHTO   C43 2792   6.006   0.902   1.072 -0.1066  0.2132  0.7478
    7CHTO   H85 2793   5.948   0.840   1.004 -0.7688 -1.5413  2.8297
    7CHTO   O29 2794   5.939   0.924   1.199  0.1862 -0.3623 -0.7839
    7CHTO   C50 2795   5.990   1.007   1.296 -0.4552  0.1693 -0.0985
    7CHTO   H92 2796   5.910   1.019   1.370 -2.8083 -0.9944 -2.3764
    7CHTO   C54 2797   6.098   0.934   1.378  0.3543 -0.0326  0.1267
    7CHTO   O36 2798   6.107   1.002   1.501  0.5520 -0.0127 -0.6390
    7CHTO   H72 2799   6.192   0.992   1.539 -0.4408 -1.0639  1.3519
    7CHTO   O27 2800   6.123   0.823   1.096  0.0435 -0.2717  0.7398
    7CHTO   C37 2801   6.197   0.713   1.153  0.2478 -0.7697  0.0646
    7CHTO   H79 2802   6.209   0.717   1.263  1.0920 -1.1281 -0.0117
    7CHTO   C38 2803   6.123   0.585   1.116  0.1293 -0.4660  0.2226
    7CHTO   H80 2804   6.096   0.583   1.010 -2.1922 -0.5942  0.7973
    7CHTO   O31 2805   6.001   0.583   1.200 -0.2490  0.3188 -0.1865
    7CHTO   H68 2806   5.929   0.567   1.143 -0.7964 -1.0212  0.8713
    7CHTO   C39 2807   6.198   0.452   1.151 -0.3729 -0.0783 -0.1072
    7CHTO   H81 2808   6.207   0.454   1.260  1.4644 -0.5751 -0.2301
    7CHTO    N7 2809   6.140   0.318   1.112  0.0126  0.3423 -0.0540
    7CHTO   H73 2810   6.207   0.237   1.139 -0.8622 -0.1460  0.6982
    7CHTO   H74 2811   6.114   0.309   1.008 -1.6909  0.6700  0.3353
    7CHTO   C40 2812   6.349   0.464   1.104 -0.5652  0.4866 -0.5222
    7CHTO   H82 2813   6.359   0.450   0.997  0.8109 -1.2172 -0.1958
    7CHTO   O26 2814   6.400   0.585   1.148 -0.0620 -0.2732 -0.2558
    7CHTO   C41 2815   6.337   0.700   1.080 -1.0283  0.1594 -0.0370
    7CHTO   H83 2816   6.320   0.683   0.973  1.2811 -0.7427 -0.2940
    7CHTO   C52 2817   6.424   0.828   1.116  0.3638  0.5146 -0.0457
    7CHTO   O35 2818   6.408   0.919   1.023 -0.2493  0.5618  0.1959
    7CHTO   H71 2819   6.404   1.002   1.065 -2.0326  0.4701  0.2374
    7CHTO   O28 2820   6.446   0.375   1.176 -0.1813 -0.3847 -0.0249
    7CHTO   C42 2821   6.576   0.333   1.124 -0.8019  0.2859 -0.2591
    7CHTO   H84 2822   6.595   0.260   1.203 -2.3480  0.1258 -0.0269
    7CHTO   C44 2823   6.690   0.440   1.128 -0.2258  0.2762  0.3685
    7CHTO   H86 2824   6.655   0.525   1.069 -0.1820  0.9586  1.3026
    7CHTO   O32 2825   6.704   0.465   1.272 -0.0462 -0.0641  0.7483
    7CHTO   H69 2826   6.746   0.547   1.290  1.3209 -0.6476  0.3489
    7CHTO   C48 2827   6.820   0.390   1.059 -0.3371  0.0945 -1.1855
    7CHTO   H90 2828   6.868   0.314   1.120 -1.5712  1.1403  1.1883
    7CHTO    N9 2829   6.927   0.498   1.053 -0.3785 -0.3696  0.2256
    7CHTO   H77 2830   7.003   0.496   1.129  0.5122  2.3685 -0.5261
    7CHTO   H78 2831   6.903   0.600   1.025 -0.3205 -0.2243  0.7046
    7CHTO   C51 2832   6.782   0.338   0.913  0.2567 -0.1725  0.2106
    7CHTO   H93 2833   6.725   0.414   0.861  1.8843  0.5666 -0.5395
    7CHTO   O30 2834   6.705   0.219   0.935  0.3976 -0.3311  0.3586
    7CHTO   C46 2835   6.568   0.253   0.991 -0.1265 -0.8415 -0.7511
    7CHTO   H88 2836   6.512   0.318   0.924  0.3646 -0.5647 -0.8951
    7CHTO   C53 2837   6.496   0.119   1.019 -0.1353  0.7003 -0.0752
    7CHTO   O72 2838   6.453   0.048   0.904  0.0540  0.1155 -0.0249
    7CHTO  H199 2839   6.492  -0.037   0.902 -1.4190 -0.5984  0.7217
    7CHTO   O22 2840   6.890   0.294   0.833 -0.1938 -0.2870 -0.4068
    7CHTO   C31 2841   6.889   0.308   0.684  1.3937  1.2338  0.1024
    7CHTO   H59 2842   6.977   0.249   0.653 -0.2749 -1.4524  0.2742
    7CHTO   C29 2843   6.766   0.238   0.613 -0.5835  0.4857 -0.2017
    7CHTO   H57 2844   6.679   0.264   0.675 -0.7255 -1.6584  0.5571
    7CHTO   O21 2845   6.787   0.096   0.636 -0.4114 -0.2773  0.2892
    7CHTO   H37 2846   6.829   0.051   0.565 -0.8277 -0.7094  0.3139
    7CHTO   C27 2847   6.733   0.282   0.467 -0.2480  0.5652  0.5588
    7CHTO   H55 2848   6.804   0.230   0.401  0.3323  1.2677  0.6183
    7CHTO    N5 2849   6.594   0.245   0.429  0.2465 -0.1877  0.3856
    7CHTO   H43 2850   6.532   0.323   0.385 -0.2716 -0.7314  0.1491
    7CHTO   H44 2851   6.581   0.159   0.366 -0.4515  0.8618 -0.9491
    7CHTO   C25 2852   6.764   0.438   0.440  0.5586  0.4265 -0.1774
    7CHTO   H53 2853   6.702   0.500   0.506 -0.4427  1.8412 -2.3903
    7CHTO   O17 2854   6.898   0.475   0.488 -0.4756 -0.2943  0.2512
    7CHTO   C32 2855   6.911   0.450   0.629  0.4472 -0.3178 -0.0715
    7CHTO   H60 2856   6.855   0.521   0.690 -0.9922  0.3183 -2.0698
    7CHTO   C36 2857   7.065   0.484   0.653  0.1606 -0.4534 -0.8226
    7CHTO   O25 2858   7.103   0.619   0.606  0.0269  0.2230 -0.1100
    7CHTO   H40 2859   7.196   0.633   0.613  0.2826 -0.7367 -1.5636
    7CHTO   O15 2860   6.765   0.476   0.298  0.0386 -0.5892  0.0853
    7CHTO   C19 2861   6.707   0.569   0.197 -0.3399 -1.0626  0.2237
    7CHTO   H47 2862   6.694   0.509   0.106  1.3104 -0.2157 -0.5891
    7CHTO   C20 2863   6.560   0.603   0.227 -0.4131 -0.4905 -0.1380
    7CHTO   H48 2864   6.546   0.657   0.322 -1.1768  0.6774 -0.9062
    7CHTO   O19 2865   6.479   0.483   0.225  0.5339 -0.3052  0.0404
    7CHTO   H35 2866   6.398   0.502   0.269  0.3247  0.3637 -0.6343
    7CHTO   C21 2867   6.509   0.713   0.123 -1.2968  0.3434  0.2968
    7CHTO   H49 2868   6.505   0.671   0.022 -1.4825  0.5826  0.2055
    7CHTO    N4 2869   6.364   0.747   0.146 -0.0543 -0.3228  0.0854
    7CHTO   H41 2870   6.312   0.764   0.053 -1.8910  0.0087  1.1337
    7CHTO   H42 2871   6.314   0.662   0.189 -2.0386 -0.5170 -2.4712
    7CHTO   C22 2872   6.604   0.836   0.114 -0.2905 -0.1773 -0.4781
    7CHTO   H50 2873   6.614   0.883   0.212  1.7013 -0.4216 -0.5391
    7CHTO   O14 2874   6.735   0.783   0.075 -0.0905  0.3551  0.6292
    7CHTO   C23 2875   6.798   0.691   0.169  0.2888  0.8785  0.1890
    7CHTO   H51 2876   6.826   0.745   0.261  0.0809  1.7064 -0.2213
    7CHTO   C34 2877   6.937   0.670   0.110  0.6033  0.1821  0.1193
    7CHTO   O23 2878   6.936   0.620  -0.024  0.2058 -0.2658  0.2433
    7CHTO   H38 2879   6.899   0.686  -0.079 -0.1192  0.1878  0.9987
    7CHTO   O16 2880   6.574   0.924   0.005  0.0977  0.3746  0.0787
    7CHTO   C24 2881   6.636   1.064   0.016 -0.4621  0.0433 -0.7412
    7CHTO   H52 2882   6.723   1.064   0.081  0.6189  0.7104 -2.1511
    7CHTO   C26 2883   6.530   1.162   0.069  0.4443 -0.1920  0.0292
    7CHTO   H54 2884   6.443   1.164   0.000  0.8108 -0.5440 -0.4484
    7CHTO   O20 2885   6.491   1.111   0.195  0.2722  0.0842 -0.2503
    7CHTO   H36 2886   6.399   1.110   0.212  0.6075  0.0246  1.7095
    7CHTO   C30 2887   6.585   1.306   0.076 -0.3746  0.4071  0.0411
    7CHTO   H58 2888   6.677   1.306   0.137 -0.7523 -0.6794  0.6230
    7CHTO    N6 2889   6.495   1.401   0.137  0.0377  0.1606 -0.2610
    7CHTO   H45 2890   6.402   1.362   0.173 -0.1856  1.1989  0.3122
    7CHTO   H46 2891   6.473   1.478   0.065  0.1649  0.0729 -0.3950
    7CHTO   C33 2892   6.642   1.343  -0.069 -0.7408  0.2599 -0.5740
    7CHTO   H61 2893   6.557   1.336  -0.139 -0.6525 -1.8598 -0.5038
    7CHTO   O18 2894   6.734   1.242  -0.108 -0.7870 -0.1536 -0.5179
    7CHTO   C28 2895   6.678   1.108  -0.126 -0.0749 -0.6921 -0.4066
    7CHTO   H56 2896   6.593   1.108  -0.194 -0.1375  2.5971 -0.3825
    7CHTO   C35 2897   6.784   1.009  -0.180 -0.1008 -1.0630 -0.4736
    7CHTO   O24 2898   6.906   1.025  -0.108  0.1879 -0.2662 -0.5033
    7CHTO   H39 2899   6.922   1.112  -0.077  0.5775 -0.9747  1.3083
    7CHTO    O9 2900   6.689   1.475  -0.085 -0.3155  0.3771  0.3488
    7CHTO   C13 2901   6.852   1.512  -0.072  0.5333 -0.2683 -0.0978
    7CHTO   H26 2902   6.903   1.440  -0.139  2.4646 -1.7522  2.8670
    7CHTO   C11 2903   6.900   1.487   0.077 -0.1654 -0.7124 -0.3779
    7CHTO   H24 2904   6.911   1.379   0.095  0.9883 -0.6283 -0.5431
    7CHTO    O8 2905   6.814   1.529   0.181  0.2674  0.4171 -0.0399
    7CHTO    H3 2906   6.842   1.501   0.266 -1.6336  3.2042  1.6109
    7CHTO    C9 2907   7.039   1.546   0.089 -0.3024 -0.4965  0.0034
    7CHTO   H22 2908   7.105   1.486   0.025  0.4100  0.5564 -0.2751
    7CHTO    N2 2909   7.105   1.526   0.221 -0.2159  0.2139 -0.1946
    7CHTO   H10 2910   7.169   1.610   0.245  0.1189 -0.1403  0.1732
    7CHTO   H11 2911   7.122   1.429   0.265 -2.9591 -0.9651 -1.6367
    7CHTO    C7 2912   7.039   1.704   0.046  0.3045 -0.5722 -0.1967
    7CHTO   H20 2913   7.145   1.736   0.053  0.0788  0.4416 -1.4236
    7CHTO    O4 2914   7.003   1.725  -0.091 -0.3382  0.7095 -0.2911
    7CHTO   C14 2915   6.876   1.666  -0.138 -0.4401  0.2103  0.5541
    7CHTO   H27 2916   6.886   1.655  -0.248 -0.5697  0.0795  0.5558
    7CHTO   C18 2917   6.758   1.762  -0.112  0.3022  0.2118  0.5597
    7CHTO   O13 2918   6.778   1.900  -0.160  0.4486  0.3277 -0.0586
    7CHTO    H7 2919   6.868   1.923  -0.143  1.2470 -2.8915  0.3490
    7CHTO    O2 2920   6.933   1.794   0.152  0.1691  0.3329  0.6178
    7CHTO    C1 2921   6.976   1.889   0.244 -0.0145 -0.7131 -0.2824
    7CHTO   H14 2922   6.905   1.973   0.236 -0.1540 -0.7037  0.9208
    7CHTO    C2 2923   7.129   1.943   0.226  0.0393 -0.6619  0.0141
    7CHTO   H15 2924   7.195   1.857   0.241 -0.1696 -0.8576 -0.1663
    7CHTO    O6 2925   7.153   2.010   0.101  0.0815  0.0026  0.6811
    7CHTO    H1 2926   7.225   2.071   0.107 -1.4671  1.7834  1.7198
    7CHTO    C3 2927   7.168   2.031   0.353  0.4714 -0.3301 -0.3863
    7CHTO   H16 2928   7.107   2.121   0.342  0.6990 -0.0071  0.9062
    7CHTO    N1 2929   7.307   2.073   0.349  0.5066 -0.0116 -0.0505
    7CHTO    H8 2930   7.345   2.078   0.248  0.5103 -0.6596 -0.0813
    7CHTO    H9 2931   7.380   2.038   0.421  0.5845 -2.1274 -1.1167
    7CHTO    C4 2932   7.125   1.967   0.498  0.2247 -0.6719  0.3659
    7CHTO   H17 2933   7.199   1.895   0.535  1.0257  0.2066  0.4915
    7CHTO    O1 2934   6.994   1.920   0.493 -0.3498  0.1608  0.1722
    7CHTO    C5 2935   6.974   1.822   0.387  0.1701 -0.4345 -0.4175
    7CHTO   H18 2936   7.058   1.753   0.383  1.3428  0.7922  1.7633
    7CHTO   C16 2937   6.845   1.741   0.409 -0.0919  0.2794  0.0457
    7CHTO   O11 2938   6.816   1.699   0.543  0.0031  0.4177 -1.0038
    7CHTO    H5 2939   6.754   1.630   0.532  0.4956 -0.0225 -1.0608
    7CHTO    O3 2940   7.110   2.075   0.591 -0.3418 -0.3667 -0.0012
    7CHTO    C6 2941   7.158   2.051   0.732  0.4843 -0.0569 -0.1120
    7CHTO   H19 2942   7.193   1.949   0.750 -0.1993 -0.1646  0.6224
    7CHTO    C8 2943   7.282   2.139   0.767 -0.6256 -0.3908  0.5221
    7CHTO   H21 2944   7.251   2.242   0.750 -1.0798 -0.5828  0.1738
    7CHTO    O7 2945   7.395   2.097   0.676 -0.3703  0.7510 -0.7687
    7CHTO    H2 2946   7.390   2.004   0.674 -0.4903  0.7564 -0.7338
    7CHTO   C12 2947   7.321   2.116   0.916 -0.0415  0.7737 -0.8162
    7CHTO   H25 2948   7.335   2.006   0.930 -2.3433  0.5745  0.1583
    7CHTO    N3 2949   7.448   2.198   0.952 -0.1712  0.9986 -0.9675
    7CHTO   H12 2950   7.460   2.202   1.059  0.2104 -4.3433 -0.6423
    7CHTO   H13 2951   7.458   2.296   0.907  3.0915  0.2714 -2.0179
    7CHTO   C15 2952   7.201   2.153   1.003  0.5698  0.0545 -0.1408
    7CHTO   H28 2953   7.170   2.257   1.013 -0.5575 -0.0698 -2.2008
    7CHTO   O10 2954   7.218   2.116   1.145 -0.0689 -0.6413 -0.3839
    7CHTO    H4 2955   7.166   2.162   1.208 -0.0570 -1.3567  0.1585
    7CHTO    O5 2956   7.086   2.074   0.968 -0.2040 -0.1578 -0.5188
    7CHTO   C10 2957   7.038   2.084   0.834 -0.7505  0.5537  0.8353
    7CHTO   H23 2958   7.005   2.186   0.817  1.6594  1.0067 -1.3733
    7CHTO   C17 2959   6.906   2.008   0.809 -0.1234 -0.7152  0.5163
    7CHTO   O12 2960   6.800   2.070   0.882  0.3369  0.0359  0.6199
    7CHTO    H6 2961   6.790   2.048   0.972  0.2652  0.4745  0.7239
    8CHTO  H203 2962   6.985   8.192   2.279 -0.2037  0.0566 -0.5316
    8CHTO   O82 2963   6.919   8.209   2.343 -0.1430 -0.1795 -0.4048
    8CHTO  C123 2964   6.813   8.289   2.297  0.0360  0.0949 -0.1746
    8CHTO  H227 2965   6.856   8.368   2.234 -1.6962  0.8694 -0.4068
    8CHTO   O77 2966   6.743   8.194   2.217  0.6239  0.3619  0.3831
    8CHTO  C118 2967   6.649   8.258   2.127  0.3183 -0.1751 -0.3905
    8CHTO  H222 2968   6.714   8.327   2.072 -0.2111  0.1973 -0.5508
    8CHTO  C125 2969   6.589   8.150   2.032 -0.8134 -0.1119  0.2916
    8CHTO   O84 2970   6.673   8.105   1.928 -0.1186 -0.5168  0.0573
    8CHTO  H205 2971   6.699   8.017   1.949  0.7170 -0.5111 -0.9286
    8CHTO  C114 2972   6.541   8.344   2.208 -0.6008  0.2603 -0.3704
    8CHTO  H218 2973   6.469   8.273   2.248 -0.9598  0.6014 -0.4149
    8CHTO  C116 2974   6.601   8.415   2.332 -0.2598 -0.2027 -0.3288
    8CHTO  H220 2975   6.636   8.514   2.296  0.4123 -0.8266 -1.4203
    8CHTO   O79 2976   6.494   8.437   2.423 -0.5154  0.1714 -0.0273
    8CHTO  H201 2977   6.504   8.518   2.469  1.9827 -0.0202 -0.1651
    8CHTO  C120 2978   6.716   8.334   2.411 -0.1616 -0.6891  0.0032
    8CHTO  H224 2979   6.677   8.242   2.460 -2.4509  0.7940  1.0489
    8CHTO   N21 2980   6.779   8.419   2.515 -0.5213 -0.2847 -0.0292
    8CHTO  H211 2981   6.728   8.407   2.609  0.2645 -0.8959  0.3231
    8CHTO  H212 2982   6.794   8.523   2.489 -3.5034  0.6026  1.5566
    8CHTO   O75 2983   6.475   8.418   2.103 -0.3109  0.0564  0.4878
    8CHTO  C112 2984   6.367   8.524   2.157  0.1233  1.2577 -0.0184
    8CHTO  H216 2985   6.402   8.600   2.228 -1.4635  0.8042  1.2764
    8CHTO   O73 2986   6.258   8.447   2.211  0.6230  0.9317  0.2629
    8CHTO  C113 2987   6.146   8.521   2.255  0.2945 -0.1936  0.0206
    8CHTO  H217 2988   6.181   8.579   2.342 -0.1956 -0.8119  0.6397
    8CHTO  C124 2989   6.042   8.422   2.305  0.9646  0.4854  0.0624
    8CHTO   O83 2990   5.948   8.483   2.388  0.3165  0.4517  0.1915
    8CHTO  H204 2991   5.880   8.506   2.328  2.2472  0.9235 -1.8995
    8CHTO  C109 2992   6.081   8.608   2.148 -0.8904 -0.7320  0.1517
    8CHTO  H213 2993   6.031   8.545   2.073  0.3327 -0.6133 -0.7981
    8CHTO  C110 2994   6.187   8.692   2.072  0.5550  0.0445 -0.1339
    8CHTO  H214 2995   6.208   8.777   2.137  0.4623  0.1032 -0.1802
    8CHTO   O78 2996   6.125   8.751   1.955 -0.2932  0.2842  0.4217
    8CHTO  H200 2997   6.124   8.693   1.882  0.9155  0.5446  0.1877
    8CHTO  C111 2998   6.316   8.610   2.035  0.1081  0.2092 -0.0214
    8CHTO  H215 2999   6.285   8.538   1.957 -0.6213  0.6237 -0.1195
    8CHTO   N19 3000   6.419   8.697   1.979 -0.4048 -0.6151  0.1163
    8CHTO  H207 3001   6.394   8.736   1.882  1.3321 -1.5642 -0.7279
    8CHTO  H208 3002   6.454   8.776   2.045  0.5007  1.5974 -2.8755
    8CHTO   O74 3003   5.980   8.696   2.200 -0.3034  0.0248  0.0787
    8CHTO  C115 3004   5.830   8.648   2.153  0.7805 -0.9635  0.3317
    8CHTO  H219 3005   5.829   8.544   2.122  3.1474 -1.5041  1.9269
    8CHTO   O76 3006   5.718   8.652   2.274  0.3325  0.2555 -0.0136
    8CHTO  C122 3007   5.700   8.786   2.316  0.0836  0.4836 -0.3621
    8CHTO  H226 3008   5.797   8.819   2.353 -0.6651  1.7900  0.4735
    8CHTO  C126 3009   5.600   8.785   2.440 -0.1330  0.6969 -0.0475
    8CHTO   O85 3010   5.639   8.697   2.544  0.5050 -0.1670  1.3704
    8CHTO  H206 3011   5.729   8.707   2.569  0.2617 -2.0802  3.1585
    8CHTO  C121 3012   5.649   8.884   2.197  0.0557 -0.2131 -0.4070
    8CHTO  H225 3013   5.548   8.850   2.168 -0.5483  0.6341  0.6863
    8CHTO   O81 3014   5.621   9.017   2.240  0.6700  0.5160  0.0319
    8CHTO  H202 3015   5.602   9.078   2.172  1.1779  0.7950  0.1345
    8CHTO  C119 3016   5.757   8.882   2.082  0.6495 -0.0317 -0.6941
    8CHTO  H223 3017   5.714   8.930   1.994 -1.0473  1.5247  0.9441
    8CHTO  C117 3018   5.780   8.738   2.028 -0.2647 -0.7818 -0.4514
    8CHTO  H221 3019   5.858   8.747   1.953 -0.2771  1.6733 -0.2378
    8CHTO   N20 3020   5.668   8.673   1.957 -0.4885 -0.0153  0.6021
    8CHTO  H209 3021   5.570   8.720   1.956  0.2264  1.4682 -1.1403
    8CHTO  H210 3022   5.690   8.625   1.863  1.0075  1.1665  0.3260
    8CHTO   O80 3023   5.883   8.964   2.106 -0.1226  0.2660 -0.5757
    8CHTO  C103 3024   5.889   9.117   2.071  0.1695 -0.3203  0.2689
    8CHTO  H190 3025   5.791   9.163   2.058  0.8347  0.4689 -2.2685
    8CHTO  C101 3026   5.980   9.200   2.171  0.5164  0.0263 -0.2790
    8CHTO  H188 3027   6.075   9.147   2.181 -0.7367 -1.9260  1.6659
    8CHTO   O68 3028   5.910   9.197   2.322 -0.7222  0.4961 -0.2466
    8CHTO  H168 3029   5.822   9.228   2.314 -0.0478  2.1192 -1.7820
    8CHTO   C99 3030   6.005   9.343   2.118  0.1094 -0.3280  0.0214
    8CHTO  H186 3031   5.910   9.398   2.100  0.4043  0.4294  0.7734
    8CHTO   N17 3032   6.094   9.430   2.201  0.0191 -0.2957 -0.0850
    8CHTO  H174 3033   6.167   9.483   2.141  0.8225  1.3259  2.2375
    8CHTO  H175 3034   6.154   9.378   2.274  0.0765  1.0581  0.8505
    8CHTO   C97 3035   6.069   9.336   1.977  0.3248 -1.3948  0.7284
    8CHTO  H184 3036   6.167   9.288   1.989 -0.1224 -2.2503  1.0226
    8CHTO   O64 3037   5.980   9.260   1.890 -0.4904 -0.8296 -0.0111
    8CHTO  C104 3038   5.959   9.121   1.930  0.0637 -0.4796 -0.0968
    8CHTO  H191 3039   6.056   9.073   1.944  0.0799  0.0878  1.7804
    8CHTO  C108 3040   5.895   9.036   1.818  0.1214  0.2005 -0.3170
    8CHTO   O71 3041   5.772   9.082   1.768 -0.1836  0.0814 -0.2813
    8CHTO  H171 3042   5.712   9.072   1.839  0.6882  0.4452  0.5175
    8CHTO   O62 3043   6.087   9.465   1.913  0.2944  0.8567 -0.1330
    8CHTO   C91 3044   6.164   9.473   1.794 -0.5716  0.1755 -0.8155
    8CHTO  H178 3045   6.211   9.378   1.768 -0.2301  0.3973 -0.9999
    8CHTO   C92 3046   6.281   9.576   1.814 -0.6658 -0.0525  0.5083
    8CHTO  H179 3047   6.326   9.557   1.912 -0.1705 -1.2052  0.0747
    8CHTO   O66 3048   6.384   9.547   1.717  0.0302 -0.5378  0.4880
    8CHTO  H166 3049   6.396   9.625   1.666  0.4583 -0.2219  1.0668
    8CHTO   C93 3050   6.230   9.724   1.791 -0.3601  0.3120  0.2142
    8CHTO  H180 3051   6.315   9.783   1.752  0.2893 -2.0770 -2.1594
    8CHTO   N16 3052   6.195   9.801   1.918  0.2236  0.1654  0.2038
    8CHTO  H172 3053   6.098   9.849   1.908  0.5520  0.6746 -0.5473
    8CHTO  H173 3054   6.184   9.737   2.005  1.9083 -1.3189 -0.6412
    8CHTO   C94 3055   6.112   9.736   1.683 -0.6278 -0.0004  0.1227
    8CHTO  H181 3056   6.014   9.739   1.731 -1.1262  0.8062 -0.9282
    8CHTO   O61 3057   6.117   9.618   1.603 -0.5450 -0.8462 -0.4028
    8CHTO   C95 3058   6.075   9.497   1.667  0.4446 -0.2468 -0.8781
    8CHTO  H182 3059   5.970   9.504   1.697  1.0319 -2.0967  1.7843
    8CHTO  C106 3060   6.091   9.380   1.560 -0.4141 -0.2621 -0.3032
    8CHTO   O69 3061   6.067   9.247   1.615 -0.6114 -0.4383 -0.2490
    8CHTO  H169 3062   6.038   9.193   1.545  0.5041  1.3474 -2.1526
    8CHTO   O63 3063   6.134   9.859   1.593 -0.4637 -0.1904 -0.0810
    8CHTO   C96 3064   6.029   9.857   1.452  0.4025  0.8516  0.7165
    8CHTO  H183 3065   5.972   9.765   1.457  1.5135 -0.0055 -1.6579
    8CHTO   C98 3066   6.108   9.859   1.319  0.3613  0.0135  0.4143
    8CHTO  H185 3067   6.181   9.941   1.323  0.5807 -0.1378 -0.3494
    8CHTO   O67 3068   6.192   9.741   1.311 -0.1221 -0.2411  0.8695
    8CHTO  H167 3069   6.269   9.757   1.260 -0.6959 -2.5874 -0.8052
    8CHTO  C102 3070   6.016   9.887   1.197  0.4777  0.3114  0.0691
    8CHTO  H189 3071   5.961   9.792   1.183  1.5112 -0.2902  0.0362
    8CHTO   N18 3072   6.088   9.912   1.069 -0.2595 -0.2013 -1.1038
    8CHTO  H176 3073   6.151   9.830   1.036  2.6818  0.8821  1.5918
    8CHTO  H177 3074   6.154   9.997   1.073 -0.3651 -0.2125  0.9153
    8CHTO  C105 3075   5.917  10.006   1.230  0.2525 -0.0632  0.1093
    8CHTO  H192 3076   5.973  10.099   1.241 -0.4899  0.0875  2.8210
    8CHTO   O65 3077   5.849   9.970   1.353 -0.1774  0.0683  0.0861
    8CHTO  C100 3078   5.942   9.975   1.467  0.1477  0.3275 -0.1786
    8CHTO  H187 3079   5.995  10.071   1.463 -1.8591  1.4424 -0.7371
    8CHTO  C107 3080   5.856   9.976   1.601  0.0740  0.8227 -0.2475
    8CHTO   O70 3081   5.931  10.023   1.711  0.7236  0.1203  0.0393
    8CHTO  H170 3082   5.928  10.116   1.699  0.8608  0.1935  0.5777
    8CHTO   O57 3083   5.798  10.011   1.119  0.0767 -0.4773 -0.3347
    8CHTO   C85 3084   5.770  10.125   1.037  0.3523 -0.2508 -0.0848
    8CHTO  H157 3085   5.865  10.156   0.988  1.0910 -1.3011  0.6647
    8CHTO   C83 3086   5.732  10.244   1.133  0.1734  0.6935  0.0234
    8CHTO  H155 3087   5.821  10.263   1.192 -0.2308  0.5985  0.6696
    8CHTO   O56 3088   5.631  10.192   1.224 -0.1994  0.5690  0.5698
    8CHTO  H135 3089   5.662  10.126   1.283  1.0776 -1.2113 -1.9999
    8CHTO   C81 3090   5.693  10.371   1.052  0.3904 -0.1390  0.0336
    8CHTO  H153 3091   5.775  10.384   0.982  0.9573 -0.4765  0.6394
    8CHTO   N14 3092   5.677  10.491   1.140 -0.3039 -0.4829 -0.3657
    8CHTO  H141 3093   5.579  10.487   1.183  1.6079  2.4712  4.6731
    8CHTO  H142 3094   5.679  10.574   1.073 -4.5126 -0.1565 -0.2393
    8CHTO   C79 3095   5.563  10.337   0.969  0.1289  0.1369 -1.0106
    8CHTO  H151 3096   5.527  10.430   0.925  1.6591  1.1930 -0.0922
    8CHTO   O52 3097   5.605  10.240   0.870 -0.1827  0.5988  0.1787
    8CHTO   C86 3098   5.655  10.113   0.932 -0.2716 -0.1833  0.1981
    8CHTO  H158 3099   5.564  10.056   0.962  0.2072 -0.5416  0.9930
    8CHTO   C90 3100   5.716  10.028   0.813  0.1998  0.1504  0.5816
    8CHTO   O60 3101   5.630  10.003   0.699 -0.1436 -0.7475 -0.1676
    8CHTO  H138 3102   5.555   9.961   0.735  0.8492 -1.7119  0.8415
    8CHTO   O50 3103   5.448  10.289   1.046 -0.0114 -0.1590  0.2260
    8CHTO   C73 3104   5.307  10.318   1.063  0.2174  0.4657 -0.3216
    8CHTO  H145 3105   5.258  10.351   0.970 -1.5693  2.5165  1.2933
    8CHTO   C74 3106   5.285  10.431   1.166  0.0232  0.0846  0.2775
    8CHTO  H146 3107   5.328  10.528   1.140 -1.6110  0.9301  0.6271
    8CHTO   O54 3108   5.145  10.471   1.160  0.4154  0.4133  0.3233
    8CHTO  H133 3109   5.119  10.508   1.242  0.1772  1.8015 -0.3531
    8CHTO   C75 3110   5.331  10.384   1.308  0.5944  0.4592 -0.7641
    8CHTO  H147 3111   5.440  10.370   1.303  0.5919 -0.7938  1.9663
    8CHTO   N13 3112   5.305  10.484   1.411  0.5092  0.0951 -0.1900
    8CHTO  H139 3113   5.373  10.457   1.490  0.2506 -0.4466 -0.1517
    8CHTO  H140 3114   5.204  10.477   1.449  0.3562  1.9542 -0.1583
    8CHTO   C76 3115   5.264  10.256   1.350  0.3403  0.1278 -0.1484
    8CHTO  H148 3116   5.159  10.269   1.377  0.7328 -1.0652  2.1503
    8CHTO   O49 3117   5.258  10.149   1.250  0.4243  0.1176  0.6004
    8CHTO   C77 3118   5.227  10.190   1.119 -0.1012  0.1064 -0.3347
    8CHTO  H149 3119   5.120  10.211   1.119  0.1003  1.2181 -1.9463
    8CHTO   C88 3120   5.234  10.078   1.018  0.0635  0.0328  0.8614
    8CHTO   O58 3121   5.158   9.950   1.079  0.2709 -0.5710  0.2942
    8CHTO  H136 3122   5.076   9.943   1.035  0.3001  0.3593  0.0807
    8CHTO   O51 3123   5.354  10.199   1.462 -0.1351  0.4341 -0.0960
    8CHTO   C78 3124   5.315  10.056   1.518  1.1692 -0.3262  0.0751
    8CHTO  H150 3125   5.243  10.007   1.448  1.2786  0.8739 -0.8990
    8CHTO   C80 3126   5.248  10.075   1.652 -0.1418  0.5050 -0.2803
    8CHTO  H152 3127   5.314  10.143   1.711  0.1752  0.1037 -0.1689
    8CHTO   O55 3128   5.123  10.143   1.631 -0.1120  0.1363 -0.3921
    8CHTO  H134 3129   5.067  10.094   1.574  1.9365 -2.7040 -0.0869
    8CHTO   C84 3130   5.228   9.933   1.725 -0.3746 -0.1405  1.0224
    8CHTO  H156 3131   5.175   9.871   1.653  0.4911 -0.9782  1.1080
    8CHTO   N15 3132   5.154   9.937   1.854  0.3780 -0.5202 -0.8272
    8CHTO  H143 3133   5.211   9.951   1.944  0.8261  0.1182 -1.2097
    8CHTO  H144 3134   5.101   9.844   1.862 -1.5086  0.6001  0.1278
    8CHTO   C87 3135   5.360   9.857   1.739 -0.7017  0.4604 -0.7007
    8CHTO  H159 3136   5.426   9.917   1.801  0.5390 -0.2701 -1.2821
    8CHTO   O53 3137   5.429   9.849   1.598  0.3640  0.3796 -0.4631
    8CHTO   C82 3138   5.444   9.975   1.536 -0.5749 -0.2962  0.8168
    8CHTO  H154 3139   5.506  10.036   1.603  2.6150  0.8158 -2.9203
    8CHTO   C89 3140   5.521   9.971   1.394  0.1349  0.0364  0.6936
    8CHTO   O59 3141   5.455   9.896   1.296  0.2888  0.3038  0.1905
    8CHTO  H137 3142   5.477   9.805   1.303  1.0625  0.3978 -0.8646
    8CHTO   O45 3143   5.351   9.693   1.801  0.2948  0.1254  0.7356
    8CHTO   C67 3144   5.429   9.640   1.906 -0.0530  0.0325 -0.4577
    8CHTO  H124 3145   5.411   9.533   1.909  2.0001 -0.4046 -2.4315
    8CHTO   C65 3146   5.585   9.654   1.874  0.3321  0.4033 -0.2305
    8CHTO  H122 3147   5.598   9.744   1.813  1.3159  1.1962  1.1156
    8CHTO   O44 3148   5.621   9.537   1.798  0.1592 -0.0611 -0.0543
    8CHTO  H102 3149   5.687   9.482   1.835  0.8223 -0.6631 -2.0791
    8CHTO   C63 3150   5.673   9.676   2.006 -0.1267 -0.2024  0.0359
    8CHTO  H120 3151   5.668   9.782   2.031 -2.0835 -0.1063 -0.7498
    8CHTO   N11 3152   5.819   9.657   1.985 -0.6761  0.5611 -0.1063
    8CHTO  H108 3153   5.866   9.752   1.995 -1.4705  0.9528 -0.0917
    8CHTO  H109 3154   5.833   9.593   1.900 -0.6632  1.3608 -0.7035
    8CHTO   C61 3155   5.619   9.588   2.128  1.0843  0.6016  0.2712
    8CHTO  H118 3156   5.675   9.624   2.216  3.0759  2.7187 -1.7903
    8CHTO   O40 3157   5.478   9.618   2.160 -0.2821  0.2615 -0.2552
    8CHTO   C68 3158   5.396   9.690   2.055  0.4410  0.1418  0.1071
    8CHTO  H125 3159   5.419   9.798   2.043 -0.6216  0.0952 -2.4782
    8CHTO   C72 3160   5.246   9.681   2.087 -0.0372 -0.6158  0.8284
    8CHTO   O48 3161   5.194   9.758   2.190 -0.7745  0.0686 -0.4004
    8CHTO  H105 3162   5.102   9.741   2.185 -0.7059 -0.4221 -0.0379
    8CHTO   O38 3163   5.653   9.450   2.116 -0.0127  0.7852  0.4708
    8CHTO   C55 3164   5.576   9.339   2.181 -0.3359  0.3503 -0.6128
    8CHTO  H112 3165   5.634   9.245   2.189 -3.2399 -1.3805  0.8475
    8CHTO   C56 3166   5.441   9.312   2.104  0.8448  0.9280 -0.2731
    8CHTO  H113 3167   5.390   9.409   2.095  0.2901  0.4007 -3.2088
    8CHTO   O42 3168   5.469   9.259   1.970  0.2748 -0.5742 -0.3057
    8CHTO  H100 3169   5.396   9.259   1.911 -0.1479  3.3080  0.1193
    8CHTO   C57 3170   5.336   9.214   2.187 -0.0024 -0.3481  0.2137
    8CHTO  H114 3171   5.388   9.118   2.187 -0.8158 -0.8018  1.2998
    8CHTO   N10 3172   5.210   9.198   2.123 -0.6870 -0.0079  0.0298
    8CHTO  H106 3173   5.208   9.120   2.047 -0.8859  0.6881 -0.6867
    8CHTO  H107 3174   5.136   9.172   2.197 -1.2101  0.2543 -0.3974
    8CHTO   C58 3175   5.334   9.271   2.328  1.1840  0.5012  0.1795
    8CHTO  H115 3176   5.302   9.377   2.320  1.4775  0.4964 -1.2617
    8CHTO   O37 3177   5.466   9.267   2.382  0.3927 -0.1235  0.2271
    8CHTO   C59 3178   5.552   9.368   2.332 -0.4753 -0.2130 -0.0976
    8CHTO  H116 3179   5.509   9.468   2.340  0.4712  0.2510 -0.6999
    8CHTO   C70 3180   5.685   9.352   2.418 -0.1133 -0.3341  0.0739
    8CHTO   O46 3181   5.780   9.461   2.401  0.0161  0.4945 -0.2751
    8CHTO  H103 3182   5.865   9.441   2.434 -0.1013 -0.5908 -0.5937
    8CHTO   O39 3183   5.225   9.185   2.428  0.3264 -0.3312 -0.4385
    8CHTO   C60 3184   5.097   9.253   2.439 -0.3293  0.4743  0.3193
    8CHTO  H117 3185   5.085   9.345   2.383 -2.7658 -0.5528 -0.9056
    8CHTO   C62 3186   4.983   9.156   2.398  0.2126  0.2003  0.0205
    8CHTO  H119 3187   5.006   9.133   2.292 -0.2679  1.5425 -0.3777
    8CHTO   O43 3188   4.988   9.037   2.471  0.1512  0.4920 -0.2104
    8CHTO  H101 3189   4.941   8.966   2.432 -1.1226  0.5578  1.1663
    8CHTO   C66 3190   4.845   9.233   2.404 -0.3313 -0.1076  0.5071
    8CHTO  H123 3191   4.846   9.319   2.338 -0.4735 -0.3074  0.2437
    8CHTO   N12 3192   4.726   9.167   2.352 -1.0999  0.4573  0.5618
    8CHTO  H110 3193   4.639   9.230   2.356 -1.7605 -0.3730 -0.4772
    8CHTO  H111 3194   4.710   9.074   2.404 -2.8458 -0.3193 -1.3456
    8CHTO   C69 3195   4.823   9.283   2.552 -0.1755  0.4831  0.4261
    8CHTO  H126 3196   4.798   9.195   2.615  4.6506 -2.1914 -1.1727
    8CHTO   O41 3197   4.959   9.355   2.625 -0.5999  0.2891 -0.1195
    8CHTO   C64 3198   5.088   9.304   2.591  0.0806  0.2416  0.1270
    8CHTO  H121 3199   5.111   9.215   2.653  1.0938  0.6108  0.2983
    8CHTO   C71 3200   5.203   9.400   2.617 -0.2765 -0.3401  0.1668
    8CHTO   O47 3201   5.184   9.520   2.535 -0.1647  0.3564  0.1496
    8CHTO  H104 3202   5.217   9.502   2.449 -0.3879 -1.3996  0.4128
    8CHTO   O34 3203   4.703   9.380   2.554  0.6536 -0.6054  0.2897
    8CHTO   C49 3204   4.683   9.512   2.557  0.2642 -0.2807  0.1701
    8CHTO   H91 3205   4.708   9.545   2.657  0.2137  0.3466 -0.0226
    8CHTO   C47 3206   4.535   9.542   2.535 -0.0412  0.4448 -0.3371
    8CHTO   H89 3207   4.526   9.651   2.548 -2.9008  0.0422  1.5294
    8CHTO   O33 3208   4.454   9.473   2.634  0.1224  0.4023  0.1192
    8CHTO   H70 3209   4.454   9.379   2.631 -0.8181  0.4306 -1.0719
    8CHTO   C45 3210   4.503   9.506   2.378  0.1781  0.6240 -0.1981
    8CHTO   H87 3211   4.519   9.398   2.367 -0.1215  0.4184  1.3638
    8CHTO    N8 3212   4.357   9.526   2.354 -0.0143 -0.1499  0.3806
    8CHTO   H75 3213   4.326   9.619   2.400 -1.7771 -0.3192 -0.4224
    8CHTO   H76 3214   4.344   9.532   2.247  0.8022  0.4692  0.3038
    8CHTO   C43 3215   4.600   9.592   2.277  0.6004 -0.6058  0.9080
    8CHTO   H85 3216   4.583   9.556   2.175  0.1373  1.1625  0.3363
    8CHTO   O29 3217   4.741   9.569   2.318 -0.1874 -0.4796 -0.0913
    8CHTO   C50 3218   4.780   9.589   2.455  0.3572  0.1624 -0.2558
    8CHTO   H92 3219   4.880   9.547   2.478  1.1375  0.9421 -2.1514
    8CHTO   C54 3220   4.793   9.734   2.489  0.2556  0.3157 -0.3913
    8CHTO   O36 3221   4.870   9.810   2.392  0.9197  0.4769 -0.2253
    8CHTO   H72 3222   4.944   9.850   2.434 -0.2989  0.8332  1.6063
    8CHTO   O27 3223   4.579   9.737   2.285 -0.2853  0.4455 -0.7442
    8CHTO   C37 3224   4.546   9.844   2.198 -0.6443 -0.6828  1.0669
    8CHTO   H79 3225   4.498   9.812   2.105  1.6972  2.0178 -1.1615
    8CHTO   C38 3226   4.442   9.933   2.263 -0.0522 -0.3519 -0.0550
    8CHTO   H80 3227   4.488   9.974   2.354 -0.5970  0.3213 -0.0787
    8CHTO   O31 3228   4.326   9.853   2.294  0.4872 -0.5688  0.2867
    8CHTO   H68 3229   4.293   9.884   2.376  1.2917  1.4387 -0.1169
    8CHTO   C39 3230   4.405  10.065   2.170 -0.2821 -0.6019 -0.4895
    8CHTO   H81 3231   4.364  10.032   2.075 -0.1287  2.5618 -1.6874
    8CHTO    N7 3232   4.305  10.154   2.241  0.3461 -0.0383  0.4691
    8CHTO   H73 3233   4.341  10.174   2.341  3.1945 -1.2877 -0.2557
    8CHTO   H74 3234   4.282  10.249   2.194 -2.5769 -0.6541  0.5459
    8CHTO   C40 3235   4.546  10.135   2.143 -0.0153 -0.5273  0.5017
    8CHTO   H82 3236   4.570  10.188   2.235 -0.5261  0.9678 -0.2014
    8CHTO   O26 3237   4.652  10.054   2.094 -0.0498 -0.0391 -0.2172
    8CHTO   C41 3238   4.680   9.930   2.167  0.4303 -0.1963 -0.1908
    8CHTO   H83 3239   4.729   9.969   2.257 -1.0155  0.4503  0.3458
    8CHTO   C52 3240   4.792   9.851   2.082  0.3892 -0.4756  0.1916
    8CHTO   O35 3241   4.737   9.823   1.938  0.5681  0.2414 -0.7351
    8CHTO   H71 3242   4.687   9.899   1.916 -3.1471 -1.4786  1.4638
    8CHTO   O28 3243   4.529  10.240   2.039  0.1141 -0.1190 -0.3669
    8CHTO   C42 3244   4.499  10.230   1.892 -0.7925  0.5580  0.0131
    8CHTO   H84 3245   4.499  10.330   1.849  1.6813 -0.0043 -1.3985
    8CHTO   C44 3246   4.362  10.167   1.844 -0.4833  0.2378 -0.6202
    8CHTO   H86 3247   4.365  10.061   1.869  1.1634  0.7167  1.3086
    8CHTO   O32 3248   4.263  10.249   1.908 -0.7328 -0.0644  0.2967
    8CHTO   H69 3249   4.238  10.201   1.985 -0.8506  1.1144  1.0126
    8CHTO   C48 3250   4.347  10.179   1.687  0.4755 -0.6518  0.0465
    8CHTO   H90 3251   4.348  10.284   1.661 -1.2438 -0.8633 -0.9468
    8CHTO    N9 3252   4.214  10.126   1.639  0.4227  0.4456 -0.3029
    8CHTO   H77 3253   4.177  10.036   1.685 -1.6339  3.0528  3.4487
    8CHTO   H78 3254   4.140  10.203   1.657  2.4421  2.4833 -0.3926
    8CHTO   C51 3255   4.477  10.119   1.615  0.6242 -0.2991 -0.7842
    8CHTO   H93 3256   4.476  10.012   1.636  0.1640 -0.1403  0.0458
    8CHTO   O30 3257   4.586  10.177   1.671  0.5818  0.7094 -0.7939
    8CHTO   C46 3258   4.618  10.154   1.825  0.7937  0.1889 -0.8584
    8CHTO   H88 3259   4.623  10.047   1.845 -1.3367  0.0465 -1.0098
    8CHTO   C53 3260   4.755  10.209   1.842  0.3127 -0.1808 -0.3858
    8CHTO   O72 3261   4.868  10.137   1.791  0.1122 -0.3269  0.7874
    8CHTO  H199 3262   4.874  10.160   1.700 -2.3244  0.3015  0.7365
    8CHTO   O22 3263   4.475  10.148   1.477  0.3150 -0.2079 -0.0962
    8CHTO   C31 3264   4.564  10.072   1.386 -0.6514  0.7785  0.2158
    8CHTO   H59 3265   4.550  10.116   1.285  0.7237 -0.7147 -0.6449
    8CHTO   C29 3266   4.713  10.075   1.415  0.1710  0.4292  0.1945
    8CHTO   H57 3267   4.732  10.029   1.513 -0.6621  0.9755  0.6257
    8CHTO   O21 3268   4.747  10.216   1.411  0.3232 -0.0715  0.4676
    8CHTO   H37 3269   4.839  10.222   1.431  0.7487  2.5029 -2.0563
    8CHTO   C27 3270   4.799   9.994   1.299  0.2946  0.0055 -0.4117
    8CHTO   H55 3271   4.792  10.050   1.205 -0.1437  0.4568 -0.1121
    8CHTO    N5 3272   4.940   9.990   1.335  0.2420  0.3933 -0.0309
    8CHTO   H43 3273   4.998   9.919   1.279  1.4266  0.6529  0.8335
    8CHTO   H44 3274   4.951   9.971   1.441  0.5735 -0.9612 -0.3012
    8CHTO   C25 3275   4.745   9.848   1.277 -0.2400  0.3632 -0.1694
    8CHTO   H53 3276   4.755   9.785   1.366 -0.0552 -0.8418 -1.0373
    8CHTO   O17 3277   4.600   9.850   1.270 -0.5697 -0.2478  0.4243
    8CHTO   C32 3278   4.527   9.919   1.369  0.1329 -0.1668 -0.5700
    8CHTO   H60 3279   4.543   9.869   1.464  0.1657  0.1681 -0.3976
    8CHTO   C36 3280   4.375   9.910   1.334 -0.2252 -0.0065 -0.1413
    8CHTO   O25 3281   4.333   9.781   1.375 -0.1771  0.5075  0.4166
    8CHTO   H40 3282   4.242   9.773   1.354 -0.8002  1.2394  2.6661
    8CHTO   O15 3283   4.803   9.789   1.162 -0.3938 -0.9536  0.2603
    8CHTO   C19 3284   4.823   9.771   1.025  0.0552  0.1052 -0.0270
    8CHTO   H47 3285   4.730   9.724   0.988 -0.4944  0.9354  0.2776
    8CHTO   C20 3286   4.842   9.901   0.937 -0.4066  0.1264 -0.3714
    8CHTO   H48 3287   4.922   9.963   0.980  0.4061 -1.4589  0.4112
    8CHTO   O19 3288   4.718   9.977   0.942  0.4505  0.5030  0.6498
    8CHTO   H35 3289   4.711  10.007   1.031 -1.2961 -0.2665  0.7981
    8CHTO   C21 3290   4.889   9.878   0.786  0.2818 -0.2112  0.3715
    8CHTO   H49 3291   4.800   9.852   0.729  1.3649 -2.1913 -0.4580
    8CHTO    N4 3292   4.939  10.008   0.729  0.3412  0.0903  0.2760
    8CHTO   H41 3293   5.026  10.054   0.773  1.6116 -2.0671  0.1148
    8CHTO   H42 3294   4.963   9.992   0.625  0.9139 -1.2021  0.5978
    8CHTO   C22 3295   4.994   9.765   0.782  0.2879  0.4544  0.5219
    8CHTO   H50 3296   5.086   9.791   0.835  1.0566 -2.0262  0.4676
    8CHTO   O14 3297   4.942   9.648   0.851  0.4079  0.2835 -0.2150
    8CHTO   C23 3298   4.935   9.666   0.992 -0.4087  0.2078 -0.0937
    8CHTO   H51 3299   5.034   9.701   1.025 -0.5507  0.4155  0.1072
    8CHTO   C34 3300   4.916   9.533   1.068  0.0558 -0.1966  0.3112
    8CHTO   O23 3301   5.039   9.449   1.062 -0.4799 -0.5914  0.7156
    8CHTO   H38 3302   5.121   9.494   1.074 -0.5149 -0.6025  0.9882
    8CHTO   O16 3303   5.009   9.720   0.651  0.3599 -0.4718  0.5327
    8CHTO   C24 3304   5.143   9.650   0.634 -0.3792  0.2084 -0.1316
    8CHTO   H52 3305   5.199   9.636   0.726  0.6776  0.7541 -0.6794
    8CHTO   C26 3306   5.226   9.745   0.550 -0.4220 -1.0142  0.5089
    8CHTO   H54 3307   5.160   9.779   0.467  0.5052 -0.7182 -0.1233
    8CHTO   O20 3308   5.255   9.872   0.614 -0.0705  0.2012 -0.2444
    8CHTO   H36 3309   5.173   9.914   0.633  0.9157  1.7594  0.6697
    8CHTO   C30 3310   5.355   9.687   0.490  0.2235 -0.2712  1.1752
    8CHTO   H58 3311   5.431   9.673   0.569  0.3011 -1.7310  0.8548
    8CHTO    N6 3312   5.405   9.774   0.383  0.3713 -0.3011 -0.0385
    8CHTO   H45 3313   5.501   9.736   0.353 -0.0887 -0.4827 -1.2885
    8CHTO   H46 3314   5.330   9.765   0.305 -0.5898 -0.5317  0.8902
    8CHTO   C33 3315   5.331   9.539   0.443 -0.0952 -0.3601  0.0038
    8CHTO   H61 3316   5.276   9.546   0.348  0.3392 -1.8042 -0.3703
    8CHTO   O18 3317   5.255   9.458   0.534  0.2916  0.5427 -0.3085
    8CHTO   C28 3318   5.128   9.516   0.565 -0.1610  0.2467 -0.2404
    8CHTO   H56 3319   5.055   9.529   0.486 -0.1107 -0.9724 -0.4924
    8CHTO   C35 3320   5.064   9.420   0.661 -0.4312  0.5979 -0.2659
    8CHTO   O24 3321   5.148   9.393   0.775  0.2632  0.0917  0.4178
    8CHTO   H39 3322   5.131   9.303   0.798  1.0310  0.0689  0.8919
    8CHTO    O9 3323   5.460   9.477   0.405 -0.1758  0.3592  0.0782
    8CHTO   C13 3324   5.469   9.329   0.365  0.5687  0.8496 -0.1639
    8CHTO   H26 3325   5.392   9.292   0.294 -0.8451  0.5167  1.4862
    8CHTO   C11 3326   5.465   9.235   0.496 -0.0731 -0.4254  0.5689
    8CHTO   H24 3327   5.359   9.221   0.521 -0.2175 -1.0184 -0.3435
    8CHTO    O8 3328   5.517   9.301   0.610 -0.3349 -0.1287  0.0489
    8CHTO    H3 3329   5.605   9.330   0.601  0.2215 -1.6803  0.3577
    8CHTO    C9 3330   5.529   9.095   0.466 -0.7421 -0.3173  0.0512
    8CHTO   H22 3331   5.482   9.056   0.374  0.6830  0.9905 -1.2718
    8CHTO    N2 3332   5.502   8.988   0.563  0.4948 -0.3750 -0.4756
    8CHTO   H10 3333   5.475   9.030   0.659  2.0303 -1.1034  0.3019
    8CHTO   H11 3334   5.435   8.909   0.534  1.2883 -2.1089  2.1612
    8CHTO    C7 3335   5.681   9.121   0.436  0.1628 -0.3724  0.0584
    8CHTO   H20 3336   5.717   9.031   0.382 -0.3641 -0.1885 -0.6091
    8CHTO    O4 3337   5.709   9.234   0.348  0.2283  0.3417 -0.7573
    8CHTO   C14 3338   5.603   9.301   0.274  0.0602  0.0765  0.3664
    8CHTO   H27 3339   5.582   9.238   0.185  0.9804  3.0384 -2.0434
    8CHTO   C18 3340   5.677   9.424   0.220  0.0433 -0.2626 -0.4200
    8CHTO   O13 3341   5.578   9.485   0.133  0.0277 -0.0500 -0.4630
    8CHTO    H7 3342   5.562   9.424   0.064 -2.3479 -0.7437  0.6534
    8CHTO    O2 3343   5.772   9.132   0.575 -0.5828 -0.1479  0.0182
    8CHTO    C1 3344   5.915   9.114   0.565 -0.5243 -0.8630  0.2661
    8CHTO   H14 3345   5.949   9.153   0.663 -0.3396  0.4951 -0.3189
    8CHTO    C2 3346   5.990   9.198   0.445  0.1151  0.8061 -1.4562
    8CHTO   H15 3347   5.941   9.160   0.354  2.1915  0.4542 -2.4573
    8CHTO    O6 3348   5.972   9.337   0.470  0.2808 -0.5399 -0.5223
    8CHTO    H1 3349   5.969   9.391   0.392  1.0207  1.8115  1.0058
    8CHTO    C3 3350   6.147   9.164   0.433  0.0030 -0.0396  0.7203
    8CHTO   H16 3351   6.196   9.216   0.516 -0.2906  0.8408  0.3514
    8CHTO    N1 3352   6.217   9.216   0.312 -0.0369 -0.0709 -0.0714
    8CHTO    H8 3353   6.198   9.323   0.304  1.1283 -0.0039 -2.2264
    8CHTO    H9 3354   6.164   9.157   0.239  1.9172 -0.2526 -1.3673
    8CHTO    C4 3355   6.174   9.005   0.458  0.0132  0.2545  0.7300
    8CHTO   H17 3356   6.136   8.950   0.371  3.2903 -0.6131 -0.2118
    8CHTO    O1 3357   6.107   8.958   0.572 -0.1667  0.2178 -0.2960
    8CHTO    C5 3358   5.967   8.972   0.564 -0.2709  0.1373 -0.5444
    8CHTO   H18 3359   5.939   8.934   0.466 -0.3458 -0.0940 -0.4330
    8CHTO   C16 3360   5.899   8.887   0.675 -0.2390 -0.0160  0.0637
    8CHTO   O11 3361   5.903   8.745   0.648  0.2436 -0.7587  0.1937
    8CHTO    H5 3362   5.856   8.720   0.571  0.5694 -0.8272  0.0163
    8CHTO    O3 3363   6.311   8.972   0.483 -0.3132 -0.6192  0.2633
    8CHTO    C6 3364   6.373   8.880   0.389  0.3917 -0.7818 -0.5826
    8CHTO   H19 3365   6.318   8.865   0.296 -0.2708 -1.3639 -0.1045
    8CHTO    C8 3366   6.510   8.930   0.332 -0.3364 -0.4278  0.0133
    8CHTO   H21 3367   6.572   8.959   0.417 -0.6950 -0.6202  0.3425
    8CHTO    O7 3368   6.485   9.046   0.250 -0.3155 -0.1502 -0.1584
    8CHTO    H2 3369   6.538   9.115   0.287  2.1727 -0.8152 -2.2905
    8CHTO   C12 3370   6.592   8.828   0.240  0.1901 -0.3088 -0.4894
    8CHTO   H25 3371   6.541   8.818   0.141  1.5591 -2.7756 -0.9803
    8CHTO    N3 3372   6.730   8.880   0.199  0.0278 -0.0623 -0.3962
    8CHTO   H12 3373   6.788   8.896   0.289 -1.4901 -0.7364  0.7198
    8CHTO   H13 3374   6.784   8.826   0.123 -0.7750  0.2187 -1.1697
    8CHTO   C15 3375   6.592   8.688   0.302  0.7478  0.1501  0.4030
    8CHTO   H28 3376   6.650   8.689   0.394  0.8153  0.6342  0.3565
    8CHTO   O10 3377   6.628   8.581   0.192  0.1131 -0.5744 -0.3631
    8CHTO    H4 3378   6.702   8.526   0.210  1.5843  1.9579  1.5676
    8CHTO    O5 3379   6.460   8.653   0.345  0.5614 -0.8521  0.2392
    8CHTO   C10 3380   6.399   8.738   0.441 -0.3827 -0.0762 -0.2372
    8CHTO   H23 3381   6.457   8.732   0.533  0.7398 -1.2954 -1.0086
    8CHTO   C17 3382   6.266   8.678   0.482  0.4543  0.3550  0.0140
    8CHTO   O12 3383   6.295   8.561   0.555  0.0091  0.0277  0.3006
    8CHTO    H6 3384   6.368   8.511   0.522  0.8991  0.7196  1.1807
    9CHTO  H203 3385   7.296   2.380   0.617 -1.2253 -0.5317 -1.2800
    9CHTO   O82 3386   7.377   2.372   0.570 -0.7370  0.5388 -0.6401
    9CHTO  C123 3387   7.472   2.475   0.579  0.1124  0.1161  0.3763
    9CHTO  H227 3388   7.573   2.436   0.600  0.3175  0.0219 -0.7438
    9CHTO   O77 3389   7.475   2.518   0.442  0.3567  0.2589 -0.5068
    9CHTO  C118 3390   7.577   2.619   0.423 -0.2474  0.2319 -0.1202
    9CHTO  H222 3391   7.674   2.586   0.462  0.4008  1.8890 -0.3004
    9CHTO  C125 3392   7.597   2.639   0.276 -0.2139  0.2290  0.0242
    9CHTO   O84 3393   7.646   2.521   0.224 -0.5880 -0.0566  0.0875
    9CHTO  H205 3394   7.739   2.532   0.220 -0.6609  0.8462  0.6047
    9CHTO  C114 3395   7.544   2.750   0.495  0.3034  0.1825 -0.4159
    9CHTO  H218 3396   7.452   2.788   0.450  0.0757  1.1072  0.8247
    9CHTO  C116 3397   7.517   2.729   0.652 -0.2508 -0.5758 -0.4125
    9CHTO  H220 3398   7.623   2.714   0.682 -0.1871 -3.3931 -1.8750
    9CHTO   O79 3399   7.471   2.852   0.714  0.0438 -0.6336 -0.0623
    9CHTO  H201 3400   7.413   2.896   0.655  0.6979  0.8076  0.3655
    9CHTO  C120 3401   7.423   2.600   0.670  0.2823 -0.1114  0.1825
    9CHTO  H224 3402   7.322   2.634   0.640 -0.6179 -1.6766  1.4142
    9CHTO   N21 3403   7.408   2.561   0.814 -0.6469  0.2730  0.4678
    9CHTO  H211 3404   7.380   2.648   0.871 -0.4718  0.2911  0.5275
    9CHTO  H212 3405   7.489   2.507   0.861  1.1384  2.7712  0.3675
    9CHTO   O75 3406   7.656   2.838   0.467  0.1180 -0.1975  0.3406
    9CHTO  C112 3407   7.609   2.989   0.417 -0.1390  0.7642 -0.0668
    9CHTO  H216 3408   7.526   3.037   0.471 -0.8156 -0.3095 -0.1347
    9CHTO   O73 3409   7.589   2.987   0.277 -0.0581 -0.1699 -0.1489
    9CHTO  C113 3410   7.544   3.100   0.212 -0.7030 -0.4047 -0.7001
    9CHTO  H217 3411   7.448   3.134   0.256  0.1160  1.4940 -0.3430
    9CHTO  C124 3412   7.503   3.064   0.069 -0.0028  0.5059 -0.2092
    9CHTO   O83 3413   7.600   3.007  -0.023  0.4379  0.0643  0.2482
    9CHTO  H204 3414   7.559   2.938  -0.071 -0.2198 -0.2633  1.2605
    9CHTO  C109 3415   7.644   3.207   0.228  0.3924  0.2130 -0.3781
    9CHTO  H213 3416   7.730   3.180   0.166  0.0756 -1.2838 -0.1737
    9CHTO  C110 3417   7.697   3.222   0.374 -0.1781  0.0138 -0.1274
    9CHTO  H214 3418   7.628   3.272   0.441  1.3520 -0.0827  1.5740
    9CHTO   O78 3419   7.815   3.305   0.369 -0.0024  0.1507 -0.1749
    9CHTO  H200 3420   7.895   3.265   0.397  0.0857  1.1089  0.9578
    9CHTO  C111 3421   7.732   3.087   0.444  0.4010 -0.1191 -0.1507
    9CHTO  H215 3422   7.819   3.044   0.391 -1.1943 -1.4572 -1.7608
    9CHTO   N19 3423   7.763   3.089   0.590  0.1683 -1.0962 -0.6697
    9CHTO  H207 3424   7.783   2.995   0.640  1.2807  0.4401  1.8843
    9CHTO  H208 3425   7.855   3.144   0.602 -0.1980 -0.3065 -1.4529
    9CHTO   O74 3426   7.582   3.339   0.185  0.1184 -0.2958  0.8751
    9CHTO  C115 3427   7.662   3.431   0.080  0.0230 -0.7376 -0.7244
    9CHTO  H219 3428   7.762   3.390   0.064 -0.5270 -2.1730 -0.5631
    9CHTO   O76 3429   7.592   3.425  -0.069  0.2002  0.3344 -0.5937
    9CHTO  C122 3430   7.641   3.520  -0.169  0.0567 -0.1605 -0.5060
    9CHTO  H226 3431   7.555   3.552  -0.228 -2.1058 -2.7288  1.1391
    9CHTO  C126 3432   7.734   3.450  -0.275 -0.3619 -0.0911 -0.7732
    9CHTO   O85 3433   7.854   3.397  -0.223 -0.1147 -0.1699  0.1434
    9CHTO  H206 3434   7.920   3.463  -0.215 -0.7901  0.7772 -1.7477
    9CHTO  C121 3435   7.715   3.651  -0.114 -0.7508 -0.4604  0.8368
    9CHTO  H225 3436   7.820   3.623  -0.092 -1.0088 -1.3161  1.0054
    9CHTO   O81 3437   7.706   3.765  -0.207  0.1215  0.4310 -0.2294
    9CHTO  H202 3438   7.729   3.727  -0.290 -2.1662 -0.2569 -0.5931
    9CHTO  C119 3439   7.641   3.679   0.026  0.0334 -0.2948  0.2649
    9CHTO  H223 3440   7.674   3.778   0.055  0.5578 -0.8565  1.6235
    9CHTO  C117 3441   7.676   3.578   0.141 -0.7151  0.2747 -0.6182
    9CHTO  H221 3442   7.611   3.582   0.228 -0.5630 -1.7824 -0.3651
    9CHTO   N20 3443   7.811   3.598   0.199 -0.6205 -0.0329 -0.1984
    9CHTO  H209 3444   7.807   3.565   0.301 -1.7162 -0.8409 -0.4946
    9CHTO  H210 3445   7.881   3.538   0.142 -0.1766 -1.1430  1.4948
    9CHTO   O80 3446   7.488   3.697   0.002 -0.4528 -0.1284  0.3432
    9CHTO  C103 3447   7.416   3.820   0.062 -0.1482 -0.6333  0.2168
    9CHTO  H190 3448   7.312   3.797   0.085 -0.6551  2.6465  1.4607
    9CHTO  C101 3449   7.467   3.899   0.195  0.2874 -0.2006 -0.8303
    9CHTO  H188 3450   7.565   3.941   0.170 -0.6662  0.7205 -3.1681
    9CHTO   O68 3451   7.486   3.787   0.323  0.0070 -0.2250 -0.6868
    9CHTO  H168 3452   7.546   3.717   0.307 -0.0497 -0.9938  2.1767
    9CHTO   C99 3453   7.362   4.009   0.233 -0.3511  0.3764 -0.1195
    9CHTO  H186 3454   7.265   3.962   0.262  0.5487  0.6599  3.5989
    9CHTO   N17 3455   7.402   4.095   0.350  0.1724  0.2409  0.3653
    9CHTO  H174 3456   7.498   4.144   0.339  0.3942 -0.3757 -0.4225
    9CHTO  H175 3457   7.401   4.035   0.440  0.4822  0.4550  0.5124
    9CHTO   C97 3458   7.328   4.098   0.106  0.2115 -0.1958 -0.4327
    9CHTO  H184 3459   7.401   4.179   0.091  1.1297 -0.7491  0.9379
    9CHTO   O64 3460   7.307   4.020  -0.016  0.2210 -0.0529  0.0383
    9CHTO  C104 3461   7.415   3.933  -0.045  0.4530  0.7704  1.3021
    9CHTO  H191 3462   7.515   3.976  -0.045  0.1011  1.5955  2.5510
    9CHTO  C108 3463   7.398   3.871  -0.190  0.0389  0.0524  0.3210
    9CHTO   O71 3464   7.425   3.960  -0.302  0.2868  0.2387  0.4842
    9CHTO  H171 3465   7.512   3.947  -0.334 -0.0015  1.4180 -0.8461
    9CHTO   O62 3466   7.192   4.151   0.128 -0.1340  0.3258 -0.1506
    9CHTO   C91 3467   7.177   4.270   0.055 -0.0301  0.3049 -0.5908
    9CHTO  H178 3468   7.228   4.256  -0.040 -1.6037  0.7205 -1.5287
    9CHTO   C92 3469   7.238   4.387   0.136 -0.2199  0.0881  1.0431
    9CHTO  H179 3470   7.341   4.374   0.172  0.7252  3.2591 -0.3146
    9CHTO   O66 3471   7.263   4.490   0.036  0.1357  0.3105  0.6626
    9CHTO  H166 3472   7.186   4.525  -0.006  0.9808  1.9633  0.4464
    9CHTO   C93 3473   7.147   4.457   0.241 -0.4216  0.6579 -0.5062
    9CHTO  H180 3474   7.190   4.558   0.250 -0.6064  0.6749  0.1986
    9CHTO   N16 3475   7.168   4.389   0.374 -0.0979  0.1761  0.3223
    9CHTO  H172 3476   7.135   4.286   0.372  0.6608 -0.0696  0.3980
    9CHTO  H173 3477   7.119   4.445   0.453  2.0829 -0.3556  2.1227
    9CHTO   C94 3478   7.000   4.469   0.186 -0.0658  0.4912  0.8732
    9CHTO  H181 3479   6.934   4.405   0.244  0.0531 -1.3309 -0.9369
    9CHTO   O61 3480   6.987   4.434   0.051 -0.4088 -0.5041 -0.3243
    9CHTO   C95 3481   7.022   4.291   0.027 -0.4223  0.1124 -0.1993
    9CHTO  H182 3482   6.965   4.226   0.094  1.4111 -0.5798  0.7381
    9CHTO  C106 3483   6.993   4.252  -0.124  0.5871  0.4172  0.3348
    9CHTO   O69 3484   6.854   4.250  -0.151 -0.0893 -0.3135 -0.0677
    9CHTO  H169 3485   6.821   4.335  -0.128 -0.6846 -1.4125  3.5261
    9CHTO   O63 3486   6.960   4.625   0.200  0.4577  0.9411  0.0517
    9CHTO   C96 3487   6.823   4.646   0.226  0.4114  0.3570  0.3554
    9CHTO  H183 3488   6.773   4.550   0.241  2.0159 -0.5545 -0.0334
    9CHTO   C98 3489   6.759   4.727   0.118  0.1601  0.9288  0.1680
    9CHTO  H185 3490   6.806   4.826   0.101  1.8713 -0.2298 -2.1771
    9CHTO   O67 3491   6.781   4.663  -0.006 -0.8631 -0.1384  0.3423
    9CHTO  H167 3492   6.740   4.578  -0.007 -1.4156  0.1275  0.2962
    9CHTO  C102 3493   6.600   4.743   0.150  0.2334 -0.3057 -0.3167
    9CHTO  H189 3494   6.559   4.641   0.158 -2.3676  0.3458 -4.0413
    9CHTO   N18 3495   6.517   4.805   0.049 -0.3279 -0.2662 -0.0958
    9CHTO  H176 3496   6.546   4.773  -0.050 -0.9019 -0.1087 -0.3162
    9CHTO  H177 3497   6.510   4.913   0.051 -1.5005 -0.3515  1.3676
    9CHTO  C105 3498   6.596   4.814   0.290  0.2165  0.2084  0.4022
    9CHTO  H192 3499   6.647   4.910   0.282 -2.6262  1.8074  0.7821
    9CHTO   O65 3500   6.669   4.744   0.391 -0.3933  0.0801  0.4452
    9CHTO  C100 3501   6.812   4.719   0.361  0.0063 -0.5699  0.4851
    9CHTO  H187 3502   6.874   4.809   0.373  0.5877 -0.8167 -0.6031
    9CHTO  C107 3503   6.863   4.629   0.474  0.0141 -0.3367  0.2057
    9CHTO   O70 3504   6.856   4.702   0.600  0.0970 -0.1980  0.0064
    9CHTO  H170 3505   6.935   4.751   0.608  0.6294 -1.0094 -0.2880
    9CHTO   O57 3506   6.440   4.844   0.348  0.3133 -0.4536  0.3553
    9CHTO   C85 3507   6.421   4.893   0.484 -0.7597 -0.1027  0.1364
    9CHTO  H157 3508   6.313   4.919   0.483 -0.6984  0.0959 -1.4128
    9CHTO   C83 3509   6.497   5.021   0.512 -0.1976 -0.1862  0.1558
    9CHTO  H155 3510   6.483   5.092   0.430 -1.6213 -1.6123 -0.8600
    9CHTO   O56 3511   6.640   5.002   0.508 -0.3663  0.3170  0.1141
    9CHTO  H135 3512   6.674   4.944   0.573  4.7488  2.7213 -0.1397
    9CHTO   C81 3513   6.444   5.082   0.642 -0.1844 -0.6743  0.2034
    9CHTO  H153 3514   6.337   5.100   0.630 -0.3739 -1.3323  0.8854
    9CHTO   N14 3515   6.506   5.214   0.671  0.5118  0.2669 -0.2511
    9CHTO  H141 3516   6.599   5.202   0.722 -1.6274  1.1988  4.0967
    9CHTO  H142 3517   6.519   5.257   0.574  0.1371  0.9243 -0.0189
    9CHTO   C79 3518   6.465   4.985   0.764  0.5150  0.2425  0.1764
    9CHTO  H151 3519   6.404   5.022   0.847 -2.1525  0.0615 -1.6412
    9CHTO   O52 3520   6.400   4.856   0.728 -0.1010 -0.2400  0.7157
    9CHTO   C86 3521   6.455   4.799   0.606 -0.2953  0.1041  0.1560
    9CHTO  H158 3522   6.565   4.785   0.615  0.0494  0.7038 -2.5240
    9CHTO   C90 3523   6.386   4.659   0.590 -0.2822 -0.3500 -0.2083
    9CHTO   O60 3524   6.455   4.585   0.486  0.2286 -0.1250 -0.2892
    9CHTO  H138 3525   6.431   4.625   0.404 -1.5562  3.1576  1.7574
    9CHTO   O50 3526   6.595   4.963   0.814  0.5932 -0.2894  0.2684
    9CHTO   C73 3527   6.631   4.929   0.946  0.1121 -0.4001  0.0185
    9CHTO  H145 3528   6.540   4.900   1.000  0.3768  0.7545  1.1177
    9CHTO   C74 3529   6.679   5.063   1.017  0.0120 -0.0099  0.2559
    9CHTO  H146 3530   6.600   5.136   0.994 -1.5887 -0.7579  3.0559
    9CHTO   O54 3531   6.678   5.045   1.161  0.1256  0.1680  0.7671
    9CHTO  H133 3532   6.690   5.130   1.199  1.3623 -0.0626  0.9250
    9CHTO   C75 3533   6.818   5.101   0.956  0.2392 -0.1381  0.0166
    9CHTO  H147 3534   6.810   5.121   0.848  0.9297  2.1753  0.3560
    9CHTO   N13 3535   6.869   5.225   1.014  0.9655  0.1966  0.8538
    9CHTO  H139 3536   6.953   5.201   1.077  1.8963 -0.7684 -0.7262
    9CHTO  H140 3537   6.920   5.267   0.929 -0.3027  2.3228  1.1226
    9CHTO   C76 3538   6.914   4.975   0.970  0.6000 -0.7228 -0.0287
    9CHTO  H148 3539   6.919   4.949   1.076  3.0226 -2.0240 -0.4179
    9CHTO   O49 3540   6.856   4.868   0.893  0.7105  0.2080  0.6534
    9CHTO   C77 3541   6.736   4.817   0.953 -0.0631  0.7936 -0.1686
    9CHTO  H149 3542   6.752   4.785   1.056 -2.6920 -1.4385 -0.4236
    9CHTO   C88 3543   6.704   4.684   0.877  0.2234  0.1044  0.7244
    9CHTO   O58 3544   6.576   4.652   0.848 -0.0647 -0.3476  0.1107
    9CHTO  H136 3545   6.572   4.558   0.842  0.0505 -0.2939 -0.7876
    9CHTO   O51 3546   7.044   5.002   0.907  0.2762  0.4561 -0.2635
    9CHTO   C78 3547   7.164   4.923   0.983  0.2356  0.2002  0.5252
    9CHTO  H150 3548   7.125   4.834   1.037  0.3624 -1.0351 -1.3778
    9CHTO   C80 3549   7.241   5.011   1.087  0.7080  0.6271 -0.0668
    9CHTO  H152 3550   7.270   5.105   1.035  0.5078  0.4374 -0.5198
    9CHTO   O55 3551   7.147   5.048   1.188 -0.0144  0.2222  0.0633
    9CHTO  H134 3552   7.066   5.081   1.153  0.0176 -1.2026 -1.4476
    9CHTO   C84 3553   7.367   4.940   1.156  0.5097  0.5805  0.1096
    9CHTO  H156 3554   7.320   4.858   1.210  0.2478 -0.9144 -2.3354
    9CHTO   N15 3555   7.443   5.018   1.257  0.4146 -0.6049 -0.1123
    9CHTO  H143 3556   7.393   5.049   1.346  0.0823  0.0476 -0.5227
    9CHTO  H144 3557   7.483   5.106   1.210 -0.2669  2.0724  4.0363
    9CHTO   C87 3558   7.450   4.875   1.040  0.5568 -0.0985  0.0342
    9CHTO  H159 3559   7.482   4.959   0.978  1.0071  0.6196  1.2383
    9CHTO   O53 3560   7.356   4.785   0.954 -0.4409  0.0522  0.1423
    9CHTO   C82 3561   7.262   4.867   0.879  0.4061  0.2852  0.4795
    9CHTO  H154 3562   7.312   4.943   0.818 -1.7144 -0.1043 -1.7994
    9CHTO   C89 3563   7.193   4.778   0.779  0.0654 -0.0836  0.1918
    9CHTO   O59 3564   7.126   4.831   0.665  0.0679 -0.4697  0.0303
    9CHTO  H137 3565   7.105   4.922   0.664  1.5558 -0.0586  2.6559
    9CHTO   O45 3566   7.552   4.793   1.101  0.0404 -0.1167 -0.0873
    9CHTO   C67 3567   7.563   4.649   1.069 -0.5388 -0.0116  1.0586
    9CHTO  H124 3568   7.471   4.610   1.026 -0.1984  2.0848 -1.7200
    9CHTO   C65 3569   7.672   4.636   0.964 -0.6877  0.6462  0.5467
    9CHTO  H122 3570   7.750   4.711   0.979  0.8552 -0.7724 -0.1152
    9CHTO   O44 3571   7.613   4.665   0.836 -0.0915  0.2200 -0.7215
    9CHTO  H102 3572   7.575   4.586   0.803 -0.9999  0.6851 -0.7948
    9CHTO   C63 3573   7.751   4.491   0.983  0.0077 -0.6958  0.3980
    9CHTO  H120 3574   7.832   4.504   1.054 -0.0588  0.7082  0.2453
    9CHTO   N11 3575   7.819   4.432   0.858  0.1490  0.7844  0.1574
    9CHTO  H108 3576   7.869   4.341   0.883 -0.7994  0.8056  2.2403
    9CHTO  H109 3577   7.743   4.409   0.786  1.3053 -0.4805 -0.6981
    9CHTO   C61 3578   7.654   4.387   1.040  0.1101 -0.1439  0.0973
    9CHTO  H118 3579   7.708   4.298   1.075  0.3474 -0.1495 -0.2840
    9CHTO   O40 3580   7.586   4.435   1.160 -0.1239  0.5286  0.2292
    9CHTO   C68 3581   7.588   4.574   1.202  0.2407 -0.2291  0.2041
    9CHTO  H125 3582   7.684   4.584   1.258 -0.7739  0.2813  1.9052
    9CHTO   C72 3583   7.479   4.601   1.311  0.2751 -0.1951  0.1397
    9CHTO   O48 3584   7.342   4.595   1.269  0.3180  0.5264 -0.0348
    9CHTO  H105 3585   7.340   4.585   1.176 -1.1663  0.7172 -0.0409
    9CHTO   O38 3586   7.548   4.354   0.949  0.3430  0.6673  0.5347
    9CHTO   C55 3587   7.440   4.258   0.965 -0.1669 -0.6269 -0.1171
    9CHTO  H112 3588   7.356   4.313   1.011 -0.1488  1.9482 -3.0577
    9CHTO   C56 3589   7.484   4.125   1.044  0.1704 -0.1070  0.0232
    9CHTO  H113 3590   7.584   4.094   1.012  0.6544  1.3413  0.0666
    9CHTO   O42 3591   7.503   4.164   1.182  0.1800 -0.8183 -0.3694
    9CHTO  H100 3592   7.590   4.139   1.209  0.6037  0.8993 -0.0989
    9CHTO   C57 3593   7.373   4.010   1.035  0.0478  0.3805 -0.3024
    9CHTO  H114 3594   7.293   4.040   1.102  0.1056  1.7938 -0.8271
    9CHTO   N10 3595   7.431   3.879   1.081  1.0810  0.0206  0.4705
    9CHTO  H106 3596   7.464   3.825   0.994  0.5548 -0.9968  0.9012
    9CHTO  H107 3597   7.511   3.896   1.152  1.6579  1.7895 -0.5668
    9CHTO   C58 3598   7.316   4.007   0.888  0.0948  0.4073 -0.0308
    9CHTO  H115 3599   7.389   3.959   0.818 -0.1189 -0.2333  0.1801
    9CHTO   O37 3600   7.284   4.139   0.840 -0.1737  0.2322  0.1561
    9CHTO   C59 3601   7.401   4.219   0.818 -1.0274 -0.0375  0.5964
    9CHTO  H116 3602   7.478   4.158   0.770 -2.2004 -0.1076 -1.2321
    9CHTO   C70 3603   7.352   4.341   0.736  1.0016 -0.7100 -0.2738
    9CHTO   O46 3604   7.391   4.323   0.606  0.0476 -0.1717  0.2718
    9CHTO  H103 3605   7.478   4.356   0.597 -0.0267 -0.0271  0.0848
    9CHTO   O39 3606   7.177   3.934   0.880 -0.0632 -0.6135  0.1783
    9CHTO   C60 3607   7.175   3.796   0.823  0.8275 -0.9442 -0.0331
    9CHTO  H117 3608   7.277   3.763   0.800  1.3448  0.9187 -0.5090
    9CHTO   C62 3609   7.114   3.700   0.927  0.1955 -0.6470  0.0396
    9CHTO  H119 3610   7.169   3.708   1.023 -0.4933 -0.8269  0.4494
    9CHTO   O43 3611   6.987   3.735   0.987 -0.0155 -0.1964 -0.2453
    9CHTO  H101 3612   6.990   3.828   1.001 -2.6161 -0.1030 -0.1757
    9CHTO   C66 3613   7.126   3.550   0.863 -0.5517 -0.4598  1.1112
    9CHTO  H123 3614   7.230   3.529   0.836 -0.5080 -2.4255  2.6913
    9CHTO   N12 3615   7.090   3.443   0.963 -0.0887  0.1144 -0.2683
    9CHTO  H110 3616   7.124   3.349   0.922 -0.2857 -0.1240  0.1024
    9CHTO  H111 3617   6.983   3.437   0.977  0.3283 -1.7728  2.6545
    9CHTO   C69 3618   7.034   3.536   0.741 -0.0265 -0.4260 -0.1671
    9CHTO  H126 3619   6.928   3.545   0.771 -0.0295 -0.2552 -0.2304
    9CHTO   O41 3620   7.066   3.648   0.639 -0.2303 -0.6242  1.4875
    9CHTO   C64 3621   7.089   3.788   0.688 -0.1299  0.4823  0.1372
    9CHTO  H121 3622   6.994   3.843   0.705  0.6235  2.1957 -1.0791
    9CHTO   C71 3623   7.157   3.858   0.577 -0.4338 -0.5504 -0.1182
    9CHTO   O47 3624   7.281   3.806   0.532  0.0995  0.2614 -0.5148
    9CHTO  H104 3625   7.264   3.720   0.497  1.0371  1.4911 -4.1972
    9CHTO   O34 3626   7.053   3.403   0.666  0.2046 -0.1012 -0.5559
    9CHTO   C49 3627   7.093   3.367   0.536 -0.0713 -0.1245  0.2881
    9CHTO   H91 3628   7.032   3.430   0.471 -1.5450 -0.6526  1.1390
    9CHTO   C47 3629   7.071   3.214   0.499  0.2311 -0.3688 -0.5161
    9CHTO   H89 3630   7.100   3.207   0.392 -0.0411  0.8277 -0.6822
    9CHTO   O33 3631   6.931   3.176   0.517  0.1105  0.0658  0.0089
    9CHTO   H70 3632   6.931   3.082   0.516 -0.0747  0.0735 -1.4084
    9CHTO   C45 3633   7.167   3.121   0.600  0.0528 -0.1302 -0.5852
    9CHTO   H87 3634   7.113   3.101   0.693  0.6616  3.2646  0.5575
    9CHTO    N8 3635   7.200   2.989   0.534 -0.0571  0.6637 -0.0291
    9CHTO   H75 3636   7.288   2.991   0.472  1.0397 -0.8658  1.4148
    9CHTO   H76 3637   7.115   2.949   0.481  0.5480  1.7464 -1.8633
    9CHTO   C43 3638   7.288   3.208   0.654 -0.4862 -0.0666 -0.0832
    9CHTO   H85 3639   7.247   3.271   0.734  0.6024 -0.3186  0.6836
    9CHTO   O29 3640   7.344   3.288   0.546  0.4044 -0.0054  0.2713
    9CHTO   C50 3641   7.247   3.397   0.507  0.4632 -0.2626 -0.4331
    9CHTO   H92 3642   7.279   3.485   0.565  0.7461 -0.0092 -0.9702
    9CHTO   C54 3643   7.280   3.445   0.359  0.0220  0.2328  0.4096
    9CHTO   O36 3644   7.275   3.331   0.271  0.2336 -0.8511  0.2129
    9CHTO   H72 3645   7.331   3.261   0.298 -0.6598 -1.4361  0.5636
    9CHTO   O27 3646   7.389   3.128   0.726  0.2393  0.1058  0.3206
    9CHTO   C37 3647   7.431   3.157   0.858  0.3711  0.4717 -0.4124
    9CHTO   H79 3648   7.517   3.093   0.883 -1.6214 -1.8616  0.7645
    9CHTO   C38 3649   7.490   3.296   0.865 -0.1300 -0.2143  0.1179
    9CHTO   H80 3650   7.404   3.362   0.846 -1.4142 -2.3568 -1.7646
    9CHTO   O31 3651   7.591   3.314   0.757 -0.2400 -0.3897  0.0261
    9CHTO   H68 3652   7.676   3.288   0.788 -0.3726 -0.9532 -0.0793
    9CHTO   C39 3653   7.543   3.325   1.003 -0.5559  0.3329  0.0902
    9CHTO   H81 3654   7.605   3.239   1.029 -1.6497 -0.1128  1.2657
    9CHTO    N7 3655   7.619   3.455   1.020 -0.0763 -0.0745 -0.5888
    9CHTO   H73 3656   7.588   3.513   1.107  0.2244 -0.3225 -0.3142
    9CHTO   H74 3657   7.613   3.511   0.928 -3.1278 -0.5363 -0.7117
    9CHTO   C40 3658   7.429   3.310   1.107  0.0406  0.4991  0.0108
    9CHTO   H82 3659   7.350   3.381   1.082 -0.1620  0.4943  0.6301
    9CHTO   O26 3660   7.381   3.176   1.105  0.1328  0.4389  0.3223
    9CHTO   C41 3661   7.328   3.141   0.970  0.1321  0.1217  0.8910
    9CHTO   H83 3662   7.240   3.205   0.954  0.1348 -0.9514 -4.2383
    9CHTO   C52 3663   7.281   2.995   0.995 -0.2132  0.3086 -0.1227
    9CHTO   O35 3664   7.156   2.981   0.947  0.1706 -0.1434 -0.0929
    9CHTO   H71 3665   7.124   2.894   0.934 -0.4745 -0.1639  1.5478
    9CHTO   O28 3666   7.456   3.325   1.251  0.1929  0.2177 -0.3910
    9CHTO   C42 3667   7.348   3.373   1.339  0.1278 -0.2933 -0.3808
    9CHTO   H84 3668   7.383   3.342   1.438 -0.5026  2.1891  0.6766
    9CHTO   C44 3669   7.207   3.312   1.319  0.4040  0.0082  0.2137
    9CHTO   H86 3670   7.165   3.342   1.223 -0.5134 -2.2005 -0.1134
    9CHTO   O32 3671   7.230   3.170   1.329 -0.4005  0.0212 -0.1565
    9CHTO   H69 3672   7.147   3.127   1.340 -0.9725  0.7092 -1.6941
    9CHTO   C48 3673   7.101   3.368   1.430  0.1466  0.2096 -0.2506
    9CHTO   H90 3674   7.114   3.326   1.530 -0.9896 -1.6724 -0.8767
    9CHTO    N9 3675   6.962   3.325   1.394  0.3115  0.1792  0.2225
    9CHTO   H77 3676   6.897   3.389   1.452 -1.7089 -0.0487 -1.7380
    9CHTO   H78 3677   6.937   3.220   1.402  0.0946  0.2778  0.8903
    9CHTO   C51 3678   7.118   3.518   1.432  0.1071 -0.4198 -0.3271
    9CHTO   H93 3679   7.101   3.548   1.329 -2.9230 -0.7101  0.0447
    9CHTO   O30 3680   7.252   3.554   1.475  0.1672  0.6264  0.0626
    9CHTO   C46 3681   7.344   3.529   1.348 -0.3009  0.0349 -0.2832
    9CHTO   H88 3682   7.302   3.571   1.257 -0.3962 -1.1254 -0.7804
    9CHTO   C53 3683   7.484   3.586   1.374  0.6771  0.2238 -0.0137
    9CHTO   O72 3684   7.468   3.712   1.434 -0.2855  0.4354  0.4345
    9CHTO  H199 3685   7.472   3.704   1.528  1.9108  1.8534  0.5003
    9CHTO   O22 3686   7.039   3.594   1.529 -0.2966  0.2103  0.2915
    9CHTO   C31 3687   7.009   3.742   1.495  0.3167 -0.7283  0.0149
    9CHTO   H59 3688   6.955   3.777   1.585  0.2674  1.1490 -0.7282
    9CHTO   C29 3689   7.136   3.834   1.480 -0.0829 -0.0846  0.3772
    9CHTO   H57 3690   7.198   3.803   1.394 -0.5107 -2.2064  0.8166
    9CHTO   O21 3691   7.206   3.822   1.603 -0.0989 -0.0781 -0.9910
    9CHTO   H37 3692   7.186   3.888   1.666  1.8593 -1.1565  0.8525
    9CHTO   C27 3693   7.098   3.978   1.445  0.3593 -0.2674 -0.1787
    9CHTO   H55 3694   7.041   4.022   1.528 -0.0833 -2.2521  0.5871
    9CHTO    N5 3695   7.216   4.063   1.415 -0.3876  0.1421  0.4660
    9CHTO   H43 3696   7.178   4.150   1.364 -1.5742  1.0857  2.8897
    9CHTO   H44 3697   7.261   4.096   1.508 -0.0807  2.1507 -0.3772
    9CHTO   C25 3698   6.998   3.984   1.326  0.9081 -0.3583 -0.0802
    9CHTO   H53 3699   7.052   3.966   1.232 -0.2281  2.8792 -1.4526
    9CHTO   O17 3700   6.882   3.897   1.356  0.2637  0.1203  0.7871
    9CHTO   C32 3701   6.907   3.758   1.372  1.2931  0.5937  0.4044
    9CHTO   H60 3702   6.948   3.711   1.282 -0.4379 -3.2399  1.5322
    9CHTO   C36 3703   6.774   3.685   1.387  0.4871 -0.4399  0.0640
    9CHTO   O25 3704   6.689   3.733   1.481 -0.1229 -0.3713  0.5501
    9CHTO   H40 3705   6.666   3.820   1.457  2.0758 -0.1943 -1.0691
    9CHTO   O15 3706   6.937   4.106   1.315 -0.6459 -0.7526  0.2487
    9CHTO   C19 3707   6.905   4.192   1.197 -0.6595 -0.3320  0.5125
    9CHTO   H47 3708   6.824   4.251   1.245  0.0940  1.0765  0.0738
    9CHTO   C20 3709   7.012   4.290   1.143 -0.4183 -0.5636 -0.7926
    9CHTO   H48 3710   7.095   4.238   1.094 -1.7497 -0.8211 -2.8060
    9CHTO   O19 3711   7.061   4.365   1.262  0.0041 -0.1278  0.3869
    9CHTO   H35 3712   7.097   4.439   1.217 -0.2944  1.3092  2.4241
    9CHTO   C21 3713   6.954   4.385   1.031 -0.8304 -0.6590  0.6355
    9CHTO   H49 3714   6.870   4.439   1.073 -1.3651 -0.9092 -0.1191
    9CHTO    N4 3715   7.055   4.486   0.984  0.1188 -0.0250  0.8220
    9CHTO   H41 3716   7.081   4.568   1.048  1.5464 -1.1799  1.7525
    9CHTO   H42 3717   7.019   4.527   0.891  0.6571  2.1334  1.5372
    9CHTO   C22 3718   6.910   4.292   0.911 -0.0896 -0.2948 -1.0392
    9CHTO   H50 3719   6.993   4.227   0.886  0.8153 -0.1628  1.5427
    9CHTO   O14 3720   6.809   4.211   0.969 -0.2523 -0.2613 -0.2168
    9CHTO   C23 3721   6.844   4.114   1.076 -0.6352  0.5895 -0.3254
    9CHTO   H51 3722   6.910   4.033   1.043 -0.0074  0.5197  1.0509
    9CHTO   C34 3723   6.714   4.044   1.117  0.4007 -0.3875  0.2466
    9CHTO   O23 3724   6.659   3.965   1.019  0.1607  0.5277  0.0035
    9CHTO   H38 3725   6.638   4.021   0.947  0.0826  1.1641  0.5240
    9CHTO   O16 3726   6.855   4.357   0.793 -0.1003  0.3653  0.1320
    9CHTO   C24 3727   6.786   4.246   0.670  0.1270  0.1094 -0.3143
    9CHTO   H52 3728   6.764   4.149   0.715  0.4845  0.3430  0.3824
    9CHTO   C26 3729   6.885   4.219   0.552  0.0136  0.1288  0.2541
    9CHTO   H54 3730   6.900   4.315   0.498 -0.9854  0.5112  0.6361
    9CHTO   O20 3731   7.006   4.177   0.609 -0.1398  0.8471  0.2395
    9CHTO   H36 3732   6.990   4.107   0.669  0.2525  1.4833  1.0940
    9CHTO   C30 3733   6.819   4.125   0.446  0.1768  0.2844 -0.0135
    9CHTO   H58 3734   6.796   4.031   0.497 -0.8195 -0.4850 -1.8287
    9CHTO    N6 3735   6.916   4.089   0.335 -0.1847 -0.0614 -0.2387
    9CHTO   H45 3736   7.005   4.150   0.333 -1.0966  1.2817 -0.8201
    9CHTO   H46 3737   6.875   4.079   0.235 -0.8836 -3.6898  0.3300
    9CHTO   C33 3738   6.684   4.187   0.393  0.1999  0.1313  0.2308
    9CHTO   H61 3739   6.705   4.283   0.343  3.2965 -0.0281  1.0865
    9CHTO   O18 3740   6.607   4.213   0.511 -0.1553  0.2824  0.3454
    9CHTO   C28 3741   6.650   4.295   0.616 -0.8203  0.0118 -0.2117
    9CHTO   H56 3742   6.667   4.396   0.579  0.0480  0.5004  1.4570
    9CHTO   C35 3743   6.552   4.282   0.737  0.0275  0.0290  0.0142
    9CHTO   O24 3744   6.570   4.354   0.858 -0.3123  0.1777  0.2379
    9CHTO   H39 3745   6.580   4.447   0.855  0.3150  0.1311  0.8850
    9CHTO    O9 3746   6.613   4.108   0.298  0.1337 -0.2675 -0.4649
    9CHTO   C13 3747   6.555   4.176   0.169  0.1963 -0.1325  0.0891
    9CHTO   H26 3748   6.636   4.231   0.116  2.1909 -1.8017  1.3338
    9CHTO   C11 3749   6.435   4.271   0.218 -0.0245 -0.9157  0.7837
    9CHTO   H24 3750   6.485   4.360   0.260 -3.1973  1.2741  0.1708
    9CHTO    O8 3751   6.341   4.208   0.305  0.2771  0.5817  0.4497
    9CHTO    H3 3752   6.266   4.264   0.303 -0.0534  0.1111 -0.4406
    9CHTO    C9 3753   6.375   4.324   0.089 -0.3569  0.2072 -0.4349
    9CHTO   H22 3754   6.462   4.365   0.036  0.6670 -1.7686 -0.3409
    9CHTO    N2 3755   6.293   4.446   0.115 -0.2272 -0.1002  0.3640
    9CHTO   H10 3756   6.221   4.435   0.195 -0.9758 -1.5826 -0.5024
    9CHTO   H11 3757   6.258   4.483   0.020  1.1553  2.7206  0.9063
    9CHTO    C7 3758   6.312   4.205   0.005  0.8403 -0.0986 -0.1482
    9CHTO   H20 3759   6.350   4.230  -0.096  2.9791  2.4360  1.2178
    9CHTO    O4 3760   6.360   4.080   0.049 -0.6489  0.0648 -0.0042
    9CHTO   C14 3761   6.499   4.078   0.057  0.5569  0.2010 -0.1059
    9CHTO   H27 3762   6.550   4.110  -0.036  0.1024  0.1729 -0.3626
    9CHTO   C18 3763   6.530   3.926   0.088 -0.6560  0.3547  0.7618
    9CHTO   O13 3764   6.665   3.895   0.117  0.0701  0.4171 -0.0853
    9CHTO    H7 3765   6.681   3.906   0.209 -2.0435  2.2211  0.0979
    9CHTO    O2 3766   6.148   4.201   0.002  0.0615  0.4196 -0.4181
    9CHTO    C1 3767   6.083   4.098   0.077  0.4148 -1.1032 -0.3245
    9CHTO   H14 3768   6.151   4.076   0.162 -0.1905 -1.2740  0.1179
    9CHTO    C2 3769   6.062   3.970  -0.017 -0.3122 -0.5737  0.2151
    9CHTO   H15 3770   6.035   4.013  -0.115 -1.1520  0.4867  0.9127
    9CHTO    O6 3771   6.185   3.896  -0.031 -0.2065  0.4650  0.1194
    9CHTO    H1 3772   6.171   3.804  -0.031  0.7015  0.3141 -0.8232
    9CHTO    C3 3773   5.941   3.874   0.038  0.0602 -0.7911 -0.3057
    9CHTO   H16 3774   5.991   3.846   0.132 -0.0155  0.8957  0.2437
    9CHTO    N1 3775   5.907   3.753  -0.044 -0.0635 -0.3399 -0.1868
    9CHTO    H8 3776   5.952   3.763  -0.142 -1.9226 -0.2388 -1.0598
    9CHTO    H9 3777   5.942   3.662   0.002 -0.9410 -1.4059 -1.5996
    9CHTO    C4 3778   5.814   3.960   0.074  0.6607  0.3475 -0.3054
    9CHTO   H17 3779   5.776   4.002  -0.019 -2.9042 -0.5220  0.6899
    9CHTO    O1 3780   5.850   4.060   0.167  0.2958 -0.1644  0.0809
    9CHTO    C5 3781   5.944   4.154   0.113  0.1117  0.2533  1.0078
    9CHTO   H18 3782   5.902   4.197   0.022  1.3206  0.1803  0.4059
    9CHTO   C16 3783   5.955   4.261   0.228 -0.7445  0.2757 -1.2012
    9CHTO   O11 3784   5.825   4.322   0.255 -0.5122 -0.1478  0.0922
    9CHTO    H5 3785   5.834   4.415   0.263  2.0108 -0.3381 -0.1487
    9CHTO    O3 3786   5.711   3.875   0.136 -0.1681 -0.2688  0.4672
    9CHTO    C6 3787   5.588   3.942   0.183  0.7834  0.7815  0.2121
    9CHTO   H19 3788   5.612   4.037   0.230 -0.3589  2.6580 -2.8426
    9CHTO    C8 3789   5.486   3.957   0.068 -0.6603 -0.5647  0.5064
    9CHTO   H21 3790   5.498   3.876  -0.004  0.8183  1.0901 -1.1667
    9CHTO    O7 3791   5.524   4.078  -0.001 -0.5781  0.5286 -0.2975
    9CHTO    H2 3792   5.453   4.125  -0.041 -1.4379 -1.3994 -1.1289
    9CHTO   C12 3793   5.337   3.971   0.113  0.6155 -0.0253 -0.0063
    9CHTO   H25 3794   5.333   4.067   0.168 -0.7814  0.0916 -0.2884
    9CHTO    N3 3795   5.232   3.969   0.003 -0.0707 -0.0775 -0.2948
    9CHTO   H12 3796   5.142   4.008   0.049  1.1791  0.2122  1.9856
    9CHTO   H13 3797   5.226   3.870  -0.038  0.5786 -0.9568  1.6993
    9CHTO   C15 3798   5.301   3.864   0.222  0.0464  0.0335 -0.4068
    9CHTO   H28 3799   5.300   3.767   0.174 -0.0180 -0.5574  0.7825
    9CHTO   O10 3800   5.152   3.887   0.301  1.0981 -0.0439  0.0192
    9CHTO    H4 3801   5.080   3.848   0.255  1.9659 -0.3212 -1.1525
    9CHTO    O5 3802   5.392   3.877   0.328  0.2023  0.4287 -0.5427
    9CHTO   C10 3803   5.531   3.845   0.293  0.2036  0.4361 -0.2978
    9CHTO   H23 3804   5.541   3.742   0.260 -0.0377 -0.2860  1.8158
    9CHTO   C17 3805   5.598   3.857   0.427 -0.2978  0.0112  0.0256
    9CHTO   O12 3806   5.617   3.731   0.487  0.3992  0.7838 -0.2899
    9CHTO    H6 3807   5.539   3.694   0.525  1.4580 -0.8192  0.3750
   10CHTO  H203 3808   4.203   6.270   0.439  1.5386  1.2952 -0.1763
   10CHTO   O82 3809   4.191   6.246   0.350  0.4116 -0.0400  0.3294
   10CHTO  C123 3810   4.115   6.355   0.297  0.6103 -0.4413 -0.2119
   10CHTO  H227 3811   4.102   6.344   0.188 -0.2545  0.5591 -0.2168
   10CHTO   O77 3812   3.994   6.337   0.375  0.5172 -0.0419  0.4459
   10CHTO  C118 3813   3.888   6.424   0.335  0.1118 -0.6653  0.5442
   10CHTO  H222 3814   3.893   6.409   0.226 -0.1421  0.7259  0.3209
   10CHTO  C125 3815   3.747   6.380   0.386 -0.7852 -0.4592 -0.2783
   10CHTO   O84 3816   3.755   6.332   0.515 -0.1568  0.4087  0.4844
   10CHTO  H205 3817   3.700   6.257   0.510  1.7534 -1.1233  1.4741
   10CHTO  C114 3818   3.920   6.574   0.355 -0.3854 -0.4758  0.2874
   10CHTO  H218 3819   3.946   6.588   0.460 -0.9896  1.1371  0.2291
   10CHTO  C116 3820   4.053   6.603   0.286  0.3553 -0.0283  0.4979
   10CHTO  H220 3821   4.039   6.606   0.176 -0.7289 -0.5355  0.6043
   10CHTO   O79 3822   4.088   6.740   0.318 -0.1469 -0.1946 -0.1593
   10CHTO  H201 3823   4.095   6.762   0.409 -0.3337 -2.8556  0.5273
   10CHTO  C120 3824   4.169   6.502   0.329  0.2374  0.7927 -0.4105
   10CHTO  H224 3825   4.198   6.500   0.436 -0.5105 -0.1023 -0.2163
   10CHTO   N21 3826   4.299   6.535   0.263  0.3453 -0.3755 -0.3034
   10CHTO  H211 3827   4.286   6.577   0.165  0.0165 -0.1079 -0.1451
   10CHTO  H212 3828   4.361   6.447   0.251 -0.3077 -0.7863 -0.7064
   10CHTO   O75 3829   3.817   6.660   0.309 -0.4566  0.7399  0.3693
   10CHTO  C112 3830   3.760   6.771   0.429 -0.3300  0.0880 -0.2596
   10CHTO  H216 3831   3.841   6.837   0.466 -0.6587  0.7477 -0.7118
   10CHTO   O73 3832   3.707   6.690   0.538  0.1557 -0.3918  0.1032
   10CHTO  C113 3833   3.642   6.762   0.644 -0.5015 -0.3574 -0.1455
   10CHTO  H217 3834   3.719   6.828   0.691 -2.5216  0.9045  1.4658
   10CHTO  C124 3835   3.604   6.648   0.745  0.0972 -0.6839 -0.0060
   10CHTO   O83 3836   3.523   6.545   0.695  0.3362 -0.0498  0.6432
   10CHTO  H204 3837   3.443   6.538   0.744 -1.5428 -2.4482 -2.5712
   10CHTO  C109 3838   3.526   6.847   0.586 -0.5012  0.0616  0.5642
   10CHTO  H213 3839   3.447   6.776   0.559 -0.6693 -0.6115  2.7345
   10CHTO  C110 3840   3.583   6.942   0.473  0.1471  0.0939 -0.0109
   10CHTO  H214 3841   3.658   7.008   0.515  2.7006 -1.2850 -2.2850
   10CHTO   O78 3842   3.474   7.027   0.423  0.7694  0.3747  0.0710
   10CHTO  H200 3843   3.502   7.072   0.346 -2.6845  1.6829 -0.5091
   10CHTO  C111 3844   3.648   6.854   0.361  0.1448  0.6296 -0.1987
   10CHTO  H215 3845   3.573   6.783   0.322 -1.3430  2.2082 -0.3067
   10CHTO   N19 3846   3.702   6.935   0.244 -0.3098  0.0237 -0.2385
   10CHTO  H207 3847   3.623   7.005   0.219  0.2844  1.1862  1.1149
   10CHTO  H208 3848   3.793   6.991   0.256 -0.9236  0.9218  0.2525
   10CHTO   O74 3849   3.475   6.927   0.699  0.4187  0.3228 -0.5964
   10CHTO  C115 3850   3.320   6.976   0.692  0.1181  0.3986  0.5561
   10CHTO  H219 3851   3.296   7.011   0.592 -3.1919 -1.8939  0.4886
   10CHTO   O76 3852   3.213   6.849   0.721  0.0454 -0.3694  0.0647
   10CHTO  C122 3853   3.256   6.785   0.837 -0.8568  0.3385  0.2854
   10CHTO  H226 3854   3.337   6.715   0.817 -1.8070 -0.2660 -1.5263
   10CHTO  C126 3855   3.142   6.686   0.886 -0.5219 -0.4637 -0.2158
   10CHTO   O85 3856   3.146   6.559   0.821 -0.2581  0.7523 -0.1193
   10CHTO  H206 3857   3.140   6.499   0.893  0.9751  0.4176 -0.2884
   10CHTO  C121 3858   3.293   6.878   0.954 -0.3841 -0.9138 -0.1547
   10CHTO  H225 3859   3.257   6.843   1.053  0.2877 -0.1874  0.3526
   10CHTO   O81 3860   3.432   6.880   0.977  0.8532  0.1793  0.3004
   10CHTO  H202 3861   3.472   6.798   0.953 -0.9946 -0.2119 -1.6324
   10CHTO  C119 3862   3.243   7.021   0.934  0.7845 -0.3519  0.2881
   10CHTO  H223 3863   3.137   7.006   0.913  0.9734 -2.2561  0.5401
   10CHTO  C117 3864   3.303   7.085   0.806  0.1490  0.3202 -0.6870
   10CHTO  H221 3865   3.404   7.124   0.820  0.5865  0.1828 -3.1052
   10CHTO   N20 3866   3.223   7.199   0.760  0.2649  0.6664 -0.8055
   10CHTO  H209 3867   3.252   7.264   0.678  1.3515  1.8837  0.5096
   10CHTO  H210 3868   3.128   7.158   0.730  0.5131  0.2840 -1.0835
   10CHTO   O80 3869   3.233   7.112   1.067 -0.0515  0.3443 -0.2117
   10CHTO  C103 3870   3.094   7.139   1.128  0.5978  0.1940 -0.1944
   10CHTO  H190 3871   3.030   7.162   1.043  0.5821  1.4378  0.1565
   10CHTO  C101 3872   3.024   7.024   1.216  0.6498 -0.0003  0.5846
   10CHTO  H188 3873   3.090   6.993   1.297  1.7087 -0.6507 -0.5207
   10CHTO   O68 3874   2.999   6.899   1.121 -0.1460  0.2708  0.1160
   10CHTO  H168 3875   2.937   6.839   1.160  0.4108  0.6802  1.6639
   10CHTO   C99 3876   2.890   7.074   1.275  0.3187 -0.3881  0.1530
   10CHTO  H186 3877   2.819   7.098   1.193 -0.7726 -1.7685  0.6865
   10CHTO   N17 3878   2.817   6.980   1.364  0.2738  0.1280 -0.2502
   10CHTO  H174 3879   2.724   7.026   1.396  0.6636 -1.5691  3.6254
   10CHTO  H175 3880   2.880   6.965   1.451 -1.2399  2.1875  1.2532
   10CHTO   C97 3881   2.917   7.206   1.352 -0.2460 -0.2258 -0.0868
   10CHTO  H184 3882   2.991   7.184   1.430  3.0080  1.0583 -2.6595
   10CHTO   O64 3883   2.977   7.308   1.263 -0.0804 -0.2474  0.0303
   10CHTO  C104 3884   3.108   7.274   1.212 -0.0291 -0.2037  0.3229
   10CHTO  H191 3885   3.183   7.253   1.289 -1.3183 -3.5182  0.7575
   10CHTO  C108 3886   3.158   7.389   1.124 -0.0579 -0.5543  0.4079
   10CHTO   O71 3887   3.169   7.508   1.205 -0.4301  0.0063  0.3358
   10CHTO  H171 3888   3.100   7.563   1.175 -0.0440  0.0864 -0.4375
   10CHTO   O62 3889   2.804   7.283   1.401 -0.3373  0.5674 -0.2289
   10CHTO   C91 3890   2.771   7.267   1.541  0.9011  0.0755  0.1815
   10CHTO  H178 3891   2.799   7.173   1.590  2.5922  0.3422 -0.2408
   10CHTO   C92 3892   2.613   7.272   1.552 -0.3293 -0.2034  0.2580
   10CHTO  H179 3893   2.577   7.365   1.507 -0.1456  0.5477  1.6277
   10CHTO   O66 3894   2.560   7.170   1.472  0.3437 -0.1512  0.2543
   10CHTO  H166 3895   2.597   7.169   1.385 -1.0110  5.0280 -0.5752
   10CHTO   C93 3896   2.557   7.261   1.704 -0.2050 -0.3349 -0.7767
   10CHTO  H180 3897   2.575   7.157   1.735 -2.9353  0.1524  2.8865
   10CHTO   N16 3898   2.411   7.283   1.721  0.3874  0.2651  0.0625
   10CHTO  H172 3899   2.362   7.191   1.749  1.2039  0.0597  0.8451
   10CHTO  H173 3900   2.387   7.369   1.782 -1.0926 -1.6680  2.2912
   10CHTO   C94 3901   2.636   7.359   1.796 -0.2345 -0.4645 -0.0563
   10CHTO  H181 3902   2.616   7.462   1.769 -0.6856 -0.4989  0.1375
   10CHTO   O61 3903   2.780   7.342   1.778 -0.1874  0.4773  0.0125
   10CHTO   C95 3904   2.826   7.376   1.646  0.7924  0.1857  0.6127
   10CHTO  H182 3905   2.789   7.472   1.610 -0.3679 -0.7629 -0.7352
   10CHTO  C106 3906   2.980   7.386   1.645  0.0862 -0.4279  0.4890
   10CHTO   O69 3907   3.036   7.446   1.521 -0.0268  0.4333 -0.0552
   10CHTO  H169 3908   3.129   7.431   1.514 -0.1349 -0.2215 -0.1668
   10CHTO   O63 3909   2.598   7.332   1.960 -0.1006 -0.1949 -0.0781
   10CHTO   C96 3910   2.707   7.249   2.061 -0.2228 -0.4641  0.8388
   10CHTO  H183 3911   2.802   7.250   2.008 -1.2890 -0.9048 -1.1186
   10CHTO   C98 3912   2.662   7.104   2.065 -0.4399  0.1317 -0.3137
   10CHTO  H185 3913   2.554   7.094   2.083 -0.5511  0.9504 -0.5005
   10CHTO   O67 3914   2.690   7.041   1.930 -0.0751 -0.5007 -0.1334
   10CHTO  H167 3915   2.712   7.108   1.868  0.8964 -0.8194 -0.1354
   10CHTO  C102 3916   2.728   7.018   2.180 -0.1995 -0.2035  0.0266
   10CHTO  H189 3917   2.834   7.012   2.153 -0.3064  1.6223 -0.8944
   10CHTO   N18 3918   2.680   6.881   2.186  0.5563 -0.2999  0.3461
   10CHTO  H176 3919   2.744   6.820   2.248  1.3051  0.0319 -0.0959
   10CHTO  H177 3920   2.663   6.842   2.086 -0.1256  1.3633 -0.1987
   10CHTO  C105 3921   2.713   7.098   2.315 -0.3716  0.5386  0.2701
   10CHTO  H192 3922   2.609   7.118   2.339 -0.8539 -2.8033  1.2229
   10CHTO   O65 3923   2.771   7.231   2.303  0.0187  0.3978 -0.1653
   10CHTO  C100 3924   2.714   7.322   2.209  0.4657  0.0337 -0.5909
   10CHTO  H187 3925   2.611   7.340   2.243  0.6533  0.7444 -0.3916
   10CHTO  C107 3926   2.793   7.457   2.212 -0.5107  0.1322  0.5633
   10CHTO   O70 3927   2.755   7.544   2.319  0.0670 -0.8724  0.4636
   10CHTO  H170 3928   2.719   7.494   2.389 -0.9170  1.2939  1.5362
   10CHTO   O57 3929   2.777   7.019   2.424  0.0516  0.4164 -0.0654
   10CHTO   C85 3930   2.703   7.013   2.550  0.5695 -0.2710  0.0380
   10CHTO  H157 3931   2.594   7.007   2.530  0.5717 -0.6432  0.1414
   10CHTO   C83 3932   2.714   7.154   2.626 -0.4725  0.0570 -0.0427
   10CHTO  H155 3933   2.670   7.235   2.566  0.3387 -0.9837 -2.1007
   10CHTO   O56 3934   2.854   7.182   2.638 -0.3172  0.3276 -0.4143
   10CHTO  H135 3935   2.875   7.273   2.630  1.4465  0.0709  0.9745
   10CHTO   C81 3936   2.638   7.143   2.759  0.8003 -0.0015  0.6335
   10CHTO  H153 3937   2.539   7.102   2.741 -0.5034  1.7603  3.3357
   10CHTO   N14 3938   2.625   7.270   2.838 -0.1494 -0.0369  0.0653
   10CHTO  H141 3939   2.720   7.308   2.871  0.4815 -0.3124 -1.3803
   10CHTO  H142 3940   2.581   7.342   2.773  0.2821  1.4926  1.4203
   10CHTO   C79 3941   2.706   7.033   2.847  1.2780  0.6664 -0.1422
   10CHTO  H151 3942   2.643   7.015   2.933 -0.8256  0.7505 -1.6308
   10CHTO   O52 3943   2.694   6.901   2.782 -0.0652 -0.2823  0.3935
   10CHTO   C86 3944   2.747   6.895   2.647  0.4247  0.1670  0.2585
   10CHTO  H158 3945   2.857   6.895   2.656  0.5966  1.5821 -1.5937
   10CHTO   C90 3946   2.707   6.749   2.595  0.2163  0.3392  0.6590
   10CHTO   O60 3947   2.770   6.711   2.474  0.5105 -0.1623  0.1091
   10CHTO  H138 3948   2.753   6.618   2.472 -0.5024  0.0446 -1.7519
   10CHTO   O50 3949   2.841   7.049   2.899  0.4544 -0.2561  0.2827
   10CHTO   C73 3950   2.913   7.019   3.024  0.3429 -0.4349  0.4787
   10CHTO  H145 3951   2.891   6.913   3.044 -1.7439  0.0199  0.7109
   10CHTO   C74 3952   2.873   7.110   3.146 -0.2283 -0.0193 -0.0523
   10CHTO  H146 3953   2.764   7.096   3.141 -0.0208 -1.1901 -1.9299
   10CHTO   O54 3954   2.933   7.060   3.264 -0.8943 -0.4129 -0.5754
   10CHTO  H133 3955   2.903   7.106   3.340  2.0990  0.1575  0.3515
   10CHTO   C75 3956   2.920   7.262   3.110  0.1579 -0.4043  0.9197
   10CHTO  H147 3957   2.879   7.289   3.011 -0.9939 -1.2835  1.1385
   10CHTO   N13 3958   2.874   7.361   3.207 -0.1726  0.1061 -0.5533
   10CHTO  H139 3959   2.815   7.438   3.158  0.6262 -0.3278 -2.2339
   10CHTO  H140 3960   2.953   7.420   3.252  0.4286 -1.6424  0.7298
   10CHTO   C76 3961   3.077   7.259   3.080  0.4431 -0.8681 -0.2711
   10CHTO  H148 3962   3.126   7.223   3.170 -0.5447 -0.5195  0.4111
   10CHTO   O49 3963   3.106   7.171   2.972 -0.0922  0.4179  0.6241
   10CHTO   C77 3964   3.066   7.034   2.999 -0.6229 -0.0420 -0.6398
   10CHTO  H149 3965   3.119   6.993   3.085 -0.4744  0.1385 -0.6427
   10CHTO   C88 3966   3.112   6.957   2.880  0.4833  0.2953 -0.0054
   10CHTO   O58 3967   3.250   6.933   2.885  0.4104  0.4577  0.3633
   10CHTO  H136 3968   3.272   6.846   2.914 -0.8541  0.1890  0.5304
   10CHTO   O51 3969   3.134   7.413   3.040  0.5401  0.0345 -0.5392
   10CHTO   C78 3970   3.297   7.411   3.012  0.4113  0.2045 -0.5013
   10CHTO  H150 3971   3.342   7.313   3.035 -1.6895 -0.0300  2.9198
   10CHTO   C80 3972   3.364   7.517   3.101  0.6311  0.4657 -0.3486
   10CHTO  H152 3973   3.317   7.617   3.085  0.6629  0.9167  2.0585
   10CHTO   O55 3974   3.334   7.483   3.236 -0.0951 -0.8659  0.4873
   10CHTO  H134 3975   3.273   7.542   3.275 -1.7648 -2.8167  0.9501
   10CHTO   C84 3976   3.520   7.524   3.085 -0.0296 -0.0952  0.4331
   10CHTO  H156 3977   3.568   7.426   3.098  1.9015  0.5047 -1.7476
   10CHTO   N15 3978   3.578   7.635   3.172  0.3329  0.1106  0.0407
   10CHTO  H143 3979   3.683   7.634   3.154  0.3399 -2.0844  0.0135
   10CHTO  H144 3980   3.536   7.732   3.155  0.6526 -0.1116 -2.0463
   10CHTO   C87 3981   3.550   7.555   2.932  0.4878 -0.2457 -0.9480
   10CHTO  H159 3982   3.511   7.656   2.917 -0.7229 -0.6467 -0.6000
   10CHTO   O53 3983   3.474   7.452   2.849 -0.3394  0.0941 -0.3287
   10CHTO   C82 3984   3.330   7.445   2.863 -0.4347 -0.5981  0.0979
   10CHTO  H154 3985   3.282   7.540   2.837 -0.6762 -0.4432  1.0873
   10CHTO   C89 3986   3.282   7.335   2.769  0.4516 -0.6916 -0.2210
   10CHTO   O59 3987   3.142   7.366   2.753  0.0682 -0.0767  0.0940
   10CHTO  H137 3988   3.091   7.305   2.803 -0.2082 -0.8234 -1.0750
   10CHTO   O45 3989   3.713   7.548   2.894  0.1724 -0.0340  0.1563
   10CHTO   C67 3990   3.768   7.643   2.793 -0.0343  0.4143 -0.2052
   10CHTO  H124 3991   3.716   7.636   2.697  0.7941 -1.1343 -0.5602
   10CHTO   C65 3992   3.739   7.792   2.843 -0.2175  0.2664 -0.0487
   10CHTO  H122 3993   3.638   7.795   2.883 -0.0048  0.4568  0.4811
   10CHTO   O44 3994   3.748   7.887   2.738  0.0611 -0.6237 -0.4775
   10CHTO  H102 3995   3.825   7.940   2.753  0.4145 -1.5280  1.0502
   10CHTO   C63 3996   3.837   7.826   2.971 -0.2843 -0.1301 -0.4304
   10CHTO  H120 3997   3.821   7.755   3.052  1.0000  0.7941  0.6540
   10CHTO   N11 3998   3.799   7.951   3.047  0.1616  0.8365 -0.5821
   10CHTO  H108 3999   3.775   8.030   2.979 -1.0206  0.0731 -1.0667
   10CHTO  H109 4000   3.710   7.931   3.102  0.5067  1.7327  0.3198
   10CHTO   C61 4001   3.984   7.810   2.929 -0.2401 -0.0979  0.2540
   10CHTO  H118 4002   4.048   7.810   3.018  1.5187  1.3666 -0.9551
   10CHTO   O40 4003   4.012   7.684   2.867  0.5200  0.4829 -0.5108
   10CHTO   C68 4004   3.928   7.623   2.761  0.1884 -0.2112  0.1792
   10CHTO  H125 4005   3.951   7.514   2.765  0.0978 -0.2707 -0.7545
   10CHTO   C72 4006   3.976   7.666   2.614 -0.5835 -0.0167 -0.3702
   10CHTO   O48 4007   3.935   7.796   2.569 -0.3514 -0.1066  0.5056
   10CHTO  H105 4008   3.973   7.811   2.485  0.1509  0.9443  0.9179
   10CHTO   O38 4009   4.026   7.915   2.836 -0.0650 -0.2604  0.5302
   10CHTO   C55 4010   4.155   7.975   2.856  0.2874  0.0034  0.6008
   10CHTO  H112 4011   4.238   7.907   2.832 -0.2013 -1.0150  1.7479
   10CHTO   C56 4012   4.172   8.039   3.002  0.2911 -0.4113  0.6619
   10CHTO  H113 4013   4.070   8.070   3.029 -0.0297  0.0565 -1.0400
   10CHTO   O42 4014   4.217   7.945   3.093 -0.1389  0.2487  0.0905
   10CHTO  H100 4015   4.202   7.959   3.184 -0.9595 -1.1473  0.1798
   10CHTO   C57 4016   4.282   8.154   3.007 -0.3671 -0.5306  0.4915
   10CHTO  H114 4017   4.381   8.110   2.997 -0.0219  0.6288 -1.5874
   10CHTO   N10 4018   4.282   8.225   3.131 -0.0131  0.2795 -0.6294
   10CHTO  H106 4019   4.194   8.205   3.190  0.5721 -0.0660  0.1332
   10CHTO  H107 4020   4.372   8.201   3.186  1.0929 -0.0335 -2.5179
   10CHTO   C58 4021   4.264   8.251   2.885 -0.7925 -0.7252 -0.0011
   10CHTO  H115 4022   4.160   8.290   2.887  0.0850  1.6858  2.5928
   10CHTO   O37 4023   4.291   8.163   2.769 -0.0330  0.0602 -0.6535
   10CHTO   C59 4024   4.176   8.082   2.743 -0.1785  0.0329 -0.4178
   10CHTO  H116 4025   4.087   8.144   2.750  0.2214  0.6500 -0.6810
   10CHTO   C70 4026   4.201   8.024   2.607 -0.1062  0.0342  0.7072
   10CHTO   O46 4027   4.180   8.110   2.492  0.3988  0.4771  0.4268
   10CHTO  H103 4028   4.089   8.132   2.486 -0.2512 -2.2212 -0.4183
   10CHTO   O39 4029   4.380   8.372   2.890  0.6258  0.4048  0.6988
   10CHTO   C60 4030   4.328   8.512   2.876  0.1272  0.6536 -0.3231
   10CHTO  H117 4031   4.220   8.507   2.868  0.1701  0.4950 -0.8673
   10CHTO   C62 4032   4.368   8.585   3.004  0.0921 -0.5367  0.6044
   10CHTO  H119 4033   4.307   8.529   3.077  0.4363 -2.4789 -0.5603
   10CHTO   O43 4034   4.508   8.576   3.031  0.8031  0.0975 -0.2259
   10CHTO  H101 4035   4.550   8.625   2.963 -0.9174  2.5351  0.3868
   10CHTO   C66 4036   4.319   8.740   2.997  0.1504  0.2631  0.5317
   10CHTO  H123 4037   4.211   8.746   2.987  0.3503 -0.9095 -3.2823
   10CHTO   N12 4038   4.349   8.806   3.129 -0.3480 -0.1782 -0.3929
   10CHTO  H110 4039   4.333   8.745   3.217 -2.5792  0.2956 -0.4400
   10CHTO  H111 4040   4.298   8.901   3.130  1.4507  0.8217 -0.3151
   10CHTO   C69 4041   4.370   8.814   2.874 -0.5845  0.9363 -0.3193
   10CHTO  H126 4042   4.479   8.831   2.886 -0.5090  0.9168 -0.9555
   10CHTO   O41 4043   4.339   8.721   2.741  0.5966  0.6234  0.6850
   10CHTO   C64 4044   4.388   8.577   2.742  0.0267  0.2097  0.0214
   10CHTO  H121 4045   4.496   8.556   2.750 -0.2175 -1.8054 -1.4845
   10CHTO   C71 4046   4.327   8.502   2.625 -0.3735 -0.5143  0.2262
   10CHTO   O47 4047   4.181   8.475   2.624  0.3591 -0.7873  0.0774
   10CHTO  H104 4048   4.126   8.542   2.659 -0.2120 -0.2297 -1.8198
   10CHTO   O34 4049   4.295   8.968   2.852  0.1081  0.5183  0.0402
   10CHTO   C49 4050   4.173   9.041   2.782  0.0406 -0.2153  0.3439
   10CHTO   H91 4051   4.175   9.144   2.817  2.0488  0.5521 -1.9090
   10CHTO   C47 4052   4.040   8.977   2.825  0.3406  0.1845  0.2073
   10CHTO   H89 4053   4.046   8.992   2.935 -0.7387 -0.9408  0.4410
   10CHTO   O33 4054   4.032   8.833   2.804 -0.3213  0.0582  0.6545
   10CHTO   H70 4055   4.009   8.818   2.714  0.8650  0.3060  0.3018
   10CHTO   C45 4056   3.915   9.059   2.765 -0.6984  0.7825  0.0212
   10CHTO   H87 4057   3.854   8.983   2.715 -2.2082  2.7186 -1.1153
   10CHTO    N8 4058   3.822   9.110   2.867 -1.3641 -0.5188 -0.2170
   10CHTO   H75 4059   3.765   9.196   2.835 -0.4669 -0.5869 -2.1010
   10CHTO   H76 4060   3.757   9.034   2.907 -0.0371 -0.9138  1.2247
   10CHTO   C43 4061   3.964   9.162   2.654 -0.4694 -0.7453 -0.6233
   10CHTO   H85 4062   3.872   9.187   2.602 -0.6058 -1.3796 -0.6927
   10CHTO   O29 4063   4.062   9.094   2.569 -0.6796 -0.0904 -0.5709
   10CHTO   C50 4064   4.180   9.047   2.631 -0.6110  0.5464  0.2616
   10CHTO   H92 4065   4.183   8.939   2.611 -0.7022  0.8176 -1.2805
   10CHTO   C54 4066   4.302   9.110   2.570 -0.0932 -0.3980  0.2053
   10CHTO   O36 4067   4.337   9.067   2.440  0.4480  0.0130  0.1724
   10CHTO   H72 4068   4.269   9.061   2.375  1.1298  0.9193 -0.6270
   10CHTO   O27 4069   4.012   9.285   2.702 -0.0657  0.2152  0.4578
   10CHTO   C37 4070   4.049   9.412   2.655  0.8473 -0.3807  0.3802
   10CHTO   H79 4071   4.131   9.406   2.581  0.8737  0.6932  0.3105
   10CHTO   C38 4072   3.929   9.486   2.580  0.6677 -0.2715 -0.6292
   10CHTO   H80 4073   3.840   9.479   2.644  1.3566 -0.5630  0.3022
   10CHTO   O31 4074   3.907   9.432   2.447  0.2130 -0.1316 -0.0496
   10CHTO   H68 4075   3.875   9.344   2.448  0.3562 -0.2113 -1.4199
   10CHTO   C39 4076   3.961   9.648   2.566  0.0929 -0.8038 -0.3665
   10CHTO   H81 4077   4.002   9.659   2.465 -0.7535 -0.7684 -0.7049
   10CHTO    N7 4078   3.836   9.732   2.553  0.1656  0.6561  1.1378
   10CHTO   H73 4079   3.763   9.713   2.630  0.9899 -1.8511  1.3266
   10CHTO   H74 4080   3.867   9.834   2.533 -0.8902  0.9287  0.8128
   10CHTO   C40 4081   4.051   9.717   2.676 -0.4386 -0.6286 -0.2478
   10CHTO   H82 4082   3.994   9.763   2.756  0.7735 -0.5952  0.5925
   10CHTO   O26 4083   4.147   9.620   2.728 -0.2277  0.1841 -0.1639
   10CHTO   C41 4084   4.089   9.496   2.781  0.4158  0.3688  0.2934
   10CHTO   H83 4085   3.998   9.521   2.838 -0.9833  0.6082 -1.9490
   10CHTO   C52 4086   4.195   9.417   2.868 -0.1917 -0.5247 -0.8625
   10CHTO   O35 4087   4.209   9.482   2.988 -0.2381 -0.1261  0.0393
   10CHTO   H71 4088   4.219   9.428   3.064  2.4491  1.0499  0.5862
   10CHTO   O28 4089   4.140   9.805   2.607  0.0901  0.0893  0.4255
   10CHTO   C42 4090   4.178   9.926   2.686  0.0127 -0.0909  0.5222
   10CHTO   H84 4091   4.147   9.912   2.790 -0.0432  1.4139  0.7203
   10CHTO   C44 4092   4.103  10.053   2.635  0.0722  0.0490 -0.1476
   10CHTO   H86 4093   4.098  10.046   2.527 -0.9250 -1.5284 -0.0143
   10CHTO   O32 4094   3.964  10.042   2.676  0.5971  0.0193  0.3858
   10CHTO   H69 4095   3.931   9.965   2.634 -0.1786  0.8609 -0.5716
   10CHTO   C48 4096   4.158  10.197   2.684 -0.0098 -0.3002 -0.1393
   10CHTO   H90 4097   4.130  10.217   2.788 -1.4443 -0.0231 -0.5780
   10CHTO    N9 4098   4.100  10.315   2.616  0.1022 -0.1773  0.1609
   10CHTO   H77 4099   4.046  10.273   2.532  0.5812 -0.5351  0.0335
   10CHTO   H78 4100   4.178  10.379   2.578 -0.1280 -0.9662 -1.6763
   10CHTO   C51 4101   4.312  10.188   2.681  0.6556 -0.1125 -0.1569
   10CHTO   H93 4102   4.337  10.174   2.576  1.1497  0.5462 -0.1292
   10CHTO   O30 4103   4.354  10.078   2.758 -0.6359  0.7028 -0.7367
   10CHTO   C46 4104   4.332   9.944   2.692 -0.7253 -0.2892  0.2303
   10CHTO   H88 4105   4.376   9.944   2.592 -1.5563  2.0024 -0.1619
   10CHTO   C53 4106   4.407   9.830   2.776 -0.0950 -0.6967 -0.5004
   10CHTO   O72 4107   4.377   9.823   2.920 -0.3764 -0.4587  0.1291
   10CHTO  H199 4108   4.296   9.869   2.929 -0.4521 -0.4184 -0.7356
   10CHTO   O22 4109   4.375  10.309   2.735 -0.0961  0.1811  0.1596
   10CHTO   C31 4110   4.507  10.361   2.700 -0.2028  1.0780 -0.2314
   10CHTO   H59 4111   4.537  10.420   2.789  1.1009  1.1211 -0.6836
   10CHTO   C29 4112   4.620  10.246   2.696  0.2712  0.6174  0.4637
   10CHTO   H57 4113   4.579  10.157   2.647 -0.4697  1.4207 -0.4080
   10CHTO   O21 4114   4.648  10.198   2.827  0.2955 -0.4033  0.4944
   10CHTO   H37 4115   4.576  10.200   2.887  0.9867 -0.1628  1.3471
   10CHTO   C27 4116   4.753  10.294   2.620 -0.5833  0.0453 -0.3499
   10CHTO   H55 4117   4.807  10.368   2.681  0.4914 -0.0943 -1.1024
   10CHTO    N5 4118   4.851  10.195   2.592  0.0936 -0.4469  0.3161
   10CHTO   H43 4119   4.870  10.134   2.679 -2.1715  1.8776  2.5423
   10CHTO   H44 4120   4.829  10.138   2.503  0.5676 -1.0594  0.5863
   10CHTO   C25 4121   4.707  10.366   2.485  0.6359  0.1565 -0.7333
   10CHTO   H53 4122   4.630  10.311   2.428  1.2452 -0.3088 -1.1161
   10CHTO   O17 4123   4.636  10.486   2.521 -0.5250  0.1929  0.6214
   10CHTO   C32 4124   4.504  10.456   2.572  0.6237  0.7927 -0.8132
   10CHTO   H60 4125   4.456  10.401   2.491 -0.1499  0.7171 -0.3117
   10CHTO   C36 4126   4.431  10.585   2.613  0.1736 -0.0980  0.1901
   10CHTO   O25 4127   4.472  10.639   2.733  0.2708 -0.3828 -0.4415
   10CHTO   H40 4128   4.542  10.589   2.769 -1.1709 -2.0991  0.0513
   10CHTO   O15 4129   4.825  10.412   2.393  0.1326 -0.2404 -0.1205
   10CHTO   C19 4130   4.848  10.433   2.254  0.5438 -0.0849  0.3792
   10CHTO   H47 4131   4.779  10.357   2.213 -1.8569  1.2044  1.9607
   10CHTO   C20 4132   4.789  10.573   2.205  0.7120  0.6677 -0.0128
   10CHTO   H48 4133   4.839  10.654   2.261  0.9073  0.6018 -0.0917
   10CHTO   O19 4134   4.649  10.581   2.229  0.4371 -0.1445 -0.1051
   10CHTO   H35 4135   4.627  10.614   2.314  0.0960  1.0760 -0.6617
   10CHTO   C21 4136   4.816  10.600   2.054 -0.7962 -0.0864  0.1191
   10CHTO   H49 4137   4.758  10.529   1.995  3.0856  0.9584 -5.2741
   10CHTO    N4 4138   4.773  10.734   2.009  0.4608 -0.6336  0.1883
   10CHTO   H41 4139   4.861  10.796   2.002 -0.2185  0.3030 -0.1892
   10CHTO   H42 4140   4.710  10.776   2.086 -0.5370 -0.6027 -0.6312
   10CHTO   C22 4141   4.965  10.567   2.033  0.4347 -0.1082 -0.7337
   10CHTO   H50 4142   5.026  10.624   2.104 -0.1558  1.8834 -1.7958
   10CHTO   O14 4143   4.979  10.428   2.060 -0.4305  0.3024  0.2137
   10CHTO   C23 4144   4.988  10.395   2.197 -0.3699 -0.1968 -0.1801
   10CHTO   H51 4145   5.068  10.452   2.247 -0.7829  0.5359 -0.3544
   10CHTO   C34 4146   5.014  10.248   2.210  0.0224 -0.0525  0.1870
   10CHTO   O23 4147   5.134  10.186   2.153  0.2700 -0.0351 -0.3563
   10CHTO   H38 4148   5.206  10.218   2.203 -0.4828  1.8916 -0.4648
   10CHTO   O16 4149   5.013  10.590   1.900  0.4436 -0.8112 -0.1717
   10CHTO   C24 4150   5.167  10.636   1.892 -0.2943 -0.2400 -0.1012
   10CHTO   H52 4151   5.218  10.622   1.987 -1.2242  0.9554  0.5902
   10CHTO   C26 4152   5.175  10.789   1.865  0.4979  0.1066 -0.5117
   10CHTO   H54 4153   5.125  10.815   1.770 -0.5979  0.8724  0.2673
   10CHTO   O20 4154   5.103  10.865   1.965  0.3398 -0.1620  0.1287
   10CHTO   H36 4155   5.016  10.831   1.963  1.3116 -2.7275 -0.2583
   10CHTO   C30 4156   5.329  10.830   1.848  0.2466  0.0266  0.1857
   10CHTO   H58 4157   5.372  10.807   1.947 -2.8534 -1.0842  1.3497
   10CHTO    N6 4158   5.352  10.978   1.825  0.1604  0.6476 -0.4921
   10CHTO   H45 4159   5.268  11.029   1.782  0.2929 -0.1370 -1.6896
   10CHTO   H46 4160   5.383  11.028   1.916  0.4813  1.7106 -1.1714
   10CHTO   C33 4161   5.387  10.740   1.734 -0.0460  0.3877  0.4161
   10CHTO   H61 4162   5.330  10.750   1.640  1.0433  0.3301 -0.2639
   10CHTO   O18 4163   5.372  10.602   1.776  0.0221  0.4509 -0.0475
   10CHTO   C28 4164   5.239  10.551   1.796 -0.4921 -0.0637 -0.4579
   10CHTO   H56 4165   5.191  10.565   1.699 -1.2377 -2.0286 -0.3909
   10CHTO   C35 4166   5.235  10.399   1.833 -0.0856 -0.7807  0.0400
   10CHTO   O24 4167   5.315  10.369   1.951  0.2939 -0.0024 -0.4303
   10CHTO   H39 4168   5.399  10.406   1.934  0.2640 -0.3101 -1.2563
   10CHTO    O9 4169   5.523  10.774   1.711 -0.1911 -0.4594 -0.1082
   10CHTO   C13 4170   5.622  10.696   1.596 -0.0533  0.0150  0.2632
   10CHTO   H26 4171   5.570  10.713   1.500  1.9065  1.7603 -0.5245
   10CHTO   C11 4172   5.638  10.541   1.630  0.3051  0.5489  0.4458
   10CHTO   H24 4173   5.542  10.496   1.600  0.1333  0.2619  1.4102
   10CHTO    O8 4174   5.671  10.529   1.768  0.0063  0.1579 -0.0322
   10CHTO    H3 4175   5.740  10.470   1.794 -1.1337 -1.7312 -1.1483
   10CHTO    C9 4176   5.742  10.476   1.538 -0.4282 -0.1362 -0.4139
   10CHTO   H22 4177   5.700  10.493   1.438 -3.1005  0.3568  0.7385
   10CHTO    N2 4178   5.749  10.330   1.544 -0.1220  0.4610 -0.2710
   10CHTO   H10 4179   5.654  10.282   1.562 -0.5110  0.4914 -2.1632
   10CHTO   H11 4180   5.794  10.284   1.457  1.5727  2.6079 -0.5919
   10CHTO    C7 4181   5.879  10.551   1.540 -0.1871  0.1425  0.5752
   10CHTO   H20 4182   5.931  10.515   1.449  1.1632  1.6148  0.7479
   10CHTO    O4 4183   5.862  10.693   1.515  0.4019  0.1789  0.0965
   10CHTO   C14 4184   5.761  10.770   1.579  1.1852 -0.6084  0.6627
   10CHTO   H27 4185   5.745  10.864   1.522 -0.9260  0.3984  2.8398
   10CHTO   C18 4186   5.816  10.818   1.715 -0.0336  0.1045  0.0632
   10CHTO   O13 4187   5.941  10.884   1.703  0.0923  0.3163  0.1715
   10CHTO    H7 4188   6.004  10.848   1.643 -0.2032 -0.5008  0.3518
   10CHTO    O2 4189   5.957  10.526   1.679  0.2372  0.6423  0.0337
   10CHTO    C1 4190   6.100  10.501   1.681 -0.5948  0.3345 -0.2107
   10CHTO   H14 4191   6.136  10.547   1.776  1.0163  1.6513 -1.4264
   10CHTO    C2 4192   6.194  10.549   1.564 -0.1833 -0.0937 -0.2206
   10CHTO   H15 4193   6.154  10.510   1.469 -0.5043  0.4925 -0.3311
   10CHTO    O6 4194   6.192  10.689   1.572  0.0879 -0.7303  0.3035
   10CHTO    H1 4195   6.221  10.726   1.491  3.0973 -1.4876  0.9888
   10CHTO    C3 4196   6.344  10.490   1.599  0.6091 -0.2303  1.1659
   10CHTO   H16 4197   6.362  10.512   1.706 -2.3011  0.3320  1.5716
   10CHTO    N1 4198   6.456  10.546   1.523  0.5143 -0.6096  0.2117
   10CHTO    H8 4199   6.538  10.566   1.590  2.7510 -0.6172 -2.4596
   10CHTO    H9 4200   6.487  10.473   1.449 -0.3462  2.2455 -3.1282
   10CHTO    C4 4201   6.323  10.341   1.592 -0.2648 -0.0372 -0.1180
   10CHTO   H17 4202   6.288  10.317   1.492  0.9959 -1.6720 -0.1862
   10CHTO    O1 4203   6.231  10.289   1.696 -0.5798 -0.4009 -0.4454
   10CHTO    C5 4204   6.103  10.348   1.713  0.2551 -0.0863  0.4468
   10CHTO   H18 4205   6.031  10.311   1.640  1.0422  1.8632 -1.3747
   10CHTO   C16 4206   6.059  10.306   1.857  0.6930  0.6486 -0.0464
   10CHTO   O11 4207   6.177  10.318   1.947 -0.0190 -0.4073  0.3438
   10CHTO    H5 4208   6.139  10.347   2.027 -0.7592 -1.0347  0.2283
   10CHTO    O3 4209   6.450  10.268   1.614 -0.0650 -0.0926 -0.4635
   10CHTO    C6 4210   6.438  10.121   1.597 -0.8905  0.2067 -0.3309
   10CHTO   H19 4211   6.334  10.089   1.607 -0.6947 -0.8060 -1.4990
   10CHTO    C8 4212   6.493  10.067   1.456 -0.1297 -0.0304  0.3673
   10CHTO   H21 4213   6.592  10.110   1.441  0.4248 -1.6864 -0.8705
   10CHTO    O7 4214   6.393  10.100   1.364  0.2595 -0.8204 -0.5091
   10CHTO    H2 4215   6.334  10.027   1.354 -1.7414  0.4522  1.4322
   10CHTO   C12 4216   6.532   9.914   1.461 -0.0953 -0.4540  0.3851
   10CHTO   H25 4217   6.438   9.855   1.466  0.3081 -1.4364 -2.6491
   10CHTO    N3 4218   6.602   9.881   1.332  0.1028  0.4049  0.3536
   10CHTO   H12 4219   6.547   9.807   1.276 -0.1881  2.0219 -1.5165
   10CHTO   H13 4220   6.704   9.851   1.349 -0.1760 -0.1502  1.0874
   10CHTO   C15 4221   6.616   9.885   1.591  0.1271 -0.5867 -0.3265
   10CHTO   H28 4222   6.710   9.939   1.595  1.3494 -2.5988 -0.9872
   10CHTO   O10 4223   6.650   9.724   1.611 -0.3278 -0.2564  0.0775
   10CHTO    H4 4224   6.677   9.712   1.700 -2.6105  1.4057  1.0365
   10CHTO    O5 4225   6.538   9.916   1.701 -0.2750 -0.5083 -0.4300
   10CHTO   C10 4226   6.518  10.057   1.717 -0.5336  0.4311 -0.2356
   10CHTO   H23 4227   6.611  10.114   1.716  1.0713 -2.1188 -2.5511
   10CHTO   C17 4228   6.447  10.076   1.849 -0.4365 -0.6236 -0.1718
   10CHTO   O12 4229   6.537  10.050   1.952 -0.4899 -0.3833  0.1340
   10CHTO    H6 4230   6.608  10.112   1.950 -1.8533  1.1863 -1.2526
   11CHTO  H203 4231   5.954   5.075   0.861 -2.6413  2.3558 -0.1748
   11CHTO   O82 4232   6.023   5.137   0.869 -0.4465 -0.0568  0.2427
   11CHTO  C123 4233   6.061   5.152   1.001 -0.2630  0.1988 -0.0323
   11CHTO  H227 4234   6.131   5.071   1.027  1.3760  0.8812 -2.2494
   11CHTO   O77 4235   6.139   5.277   0.992  0.2068  0.1797  0.6358
   11CHTO  C118 4236   6.194   5.320   1.117 -0.1931  0.2706 -0.6046
   11CHTO  H222 4237   6.242   5.233   1.164 -3.0553 -0.8602  0.3067
   11CHTO  C125 4238   6.300   5.430   1.089  0.1781  0.3260  0.5810
   11CHTO   O84 4239   6.396   5.380   0.996  0.1322 -0.0870 -0.3743
   11CHTO  H205 4240   6.346   5.362   0.918 -1.5223  0.6269  0.4949
   11CHTO  C114 4241   6.076   5.361   1.209  0.0663  0.5154 -0.2059
   11CHTO  H218 4242   6.012   5.427   1.149 -0.9156  0.2972  0.5924
   11CHTO  C116 4243   5.991   5.231   1.243  0.5352  0.2709  0.1254
   11CHTO  H220 4244   6.061   5.161   1.294 -0.2659  0.2327  1.2002
   11CHTO   O79 4245   5.885   5.274   1.331  0.5798 -0.0172 -0.4299
   11CHTO  H201 4246   5.862   5.209   1.395 -1.4415 -0.3413 -1.4511
   11CHTO  C120 4247   5.934   5.169   1.097  0.2957 -0.3962  0.3637
   11CHTO  H224 4248   5.862   5.242   1.055  0.4647  0.7011  1.9589
   11CHTO   N21 4249   5.869   5.037   1.126  0.4859 -0.5873  0.7212
   11CHTO  H211 4250   5.794   5.023   1.051  1.0115  0.9206 -0.1104
   11CHTO  H212 4251   5.942   4.958   1.117 -0.4567 -1.3776 -0.0057
   11CHTO   O75 4252   6.148   5.421   1.313 -0.1120 -0.1361 -0.4672
   11CHTO  C112 4253   6.066   5.535   1.411 -0.3803 -0.4311  0.1249
   11CHTO  H216 4254   6.047   5.483   1.506  2.1877 -0.7188  0.5110
   11CHTO   O73 4255   5.948   5.573   1.342 -0.4648  0.1277 -0.0232
   11CHTO  C113 4256   5.868   5.662   1.418  0.0952  0.0058  0.1539
   11CHTO  H217 4257   5.855   5.618   1.519 -1.3218 -0.2408 -0.1223
   11CHTO  C124 4258   5.727   5.665   1.351 -0.5320 -0.1538  0.3292
   11CHTO   O83 4259   5.671   5.536   1.338 -0.5812  0.4838 -0.3742
   11CHTO  H204 4260   5.658   5.521   1.246  1.7302 -0.0215 -0.6412
   11CHTO  C109 4261   5.938   5.803   1.422  0.5299  0.1664 -0.6723
   11CHTO  H213 4262   5.946   5.832   1.316 -0.9774  1.2750 -0.5114
   11CHTO  C110 4263   6.087   5.782   1.477  0.6830 -0.5617  0.5056
   11CHTO  H214 4264   6.084   5.791   1.586  2.6359 -0.7156  0.5968
   11CHTO   O78 4265   6.166   5.897   1.430 -0.6185 -0.2181 -0.4115
   11CHTO  H200 4266   6.146   5.977   1.475  0.2382 -1.1555  1.7057
   11CHTO  C111 4267   6.163   5.660   1.433 -0.5248  0.6989  0.3136
   11CHTO  H215 4268   6.212   5.674   1.336  1.8869  2.9497  1.7973
   11CHTO   N19 4269   6.270   5.629   1.535 -0.5052 -0.3375  0.3127
   11CHTO  H207 4270   6.362   5.647   1.480  0.0394 -1.5761  0.7871
   11CHTO  H208 4271   6.264   5.523   1.558 -0.9592  0.0659  2.1220
   11CHTO   O74 4272   5.859   5.895   1.494 -0.2391  0.0088  0.1610
   11CHTO  C115 4273   5.815   6.025   1.417 -0.2232  0.3840 -0.4669
   11CHTO  H219 4274   5.877   6.041   1.330 -0.3570 -0.4604 -0.7183
   11CHTO   O76 4275   5.682   6.008   1.360 -0.2837 -0.5677 -0.2467
   11CHTO  C122 4276   5.578   5.969   1.447  0.2931 -0.2256 -0.0236
   11CHTO  H226 4277   5.591   5.865   1.477 -1.6149 -1.2695 -2.6543
   11CHTO  C126 4278   5.447   5.962   1.356  0.6414 -0.8632 -0.6154
   11CHTO   O85 4279   5.471   5.899   1.226 -0.2066 -1.0943 -0.2802
   11CHTO  H206 4280   5.472   5.806   1.237 -1.2068 -0.8691  1.9682
   11CHTO  C121 4281   5.570   6.071   1.567  0.2973 -0.1575 -0.7782
   11CHTO  H225 4282   5.464   6.105   1.574  0.4962  0.0119  2.3030
   11CHTO   O81 4283   5.602   6.006   1.689  0.0565 -0.1256 -0.1596
   11CHTO  H202 4284   5.537   5.940   1.702 -0.8223  0.1571 -2.7339
   11CHTO  C119 4285   5.660   6.199   1.538 -0.7469 -0.7286 -0.4449
   11CHTO  H223 4286   5.623   6.241   1.445  1.2393  0.5431 -0.6808
   11CHTO  C117 4287   5.809   6.150   1.515 -0.6663  0.3925 -0.4306
   11CHTO  H221 4288   5.863   6.121   1.606 -1.0095  0.1926 -0.2899
   11CHTO   N20 4289   5.889   6.269   1.461  0.8951 -0.2228 -0.1799
   11CHTO  H209 4290   5.996   6.256   1.464  1.0938  1.4308  0.4350
   11CHTO  H210 4291   5.876   6.281   1.354  0.8930  1.9611  0.0337
   11CHTO   O80 4292   5.634   6.308   1.629  0.1851 -0.3714 -0.2724
   11CHTO  C103 4293   5.672   6.309   1.778 -0.1489  0.7140  0.6549
   11CHTO  H190 4294   5.675   6.213   1.830  0.1626 -0.2146 -1.0650
   11CHTO  C101 4295   5.801   6.393   1.820  0.3062  0.2393  0.7112
   11CHTO  H188 4296   5.802   6.488   1.766  1.2298 -0.1923 -0.0409
   11CHTO   O68 4297   5.930   6.312   1.790 -0.1293  0.5315  0.5083
   11CHTO  H168 4298   5.931   6.283   1.701  0.6759  0.9636  0.3728
   11CHTO   C99 4299   5.796   6.440   1.981  0.7709  0.1720  0.7388
   11CHTO  H186 4300   5.789   6.350   2.047  0.7323 -1.1498 -1.0469
   11CHTO   N17 4301   5.911   6.517   2.032 -0.0763  0.7640 -0.1707
   11CHTO  H174 4302   5.981   6.534   1.951 -2.2614 -0.6524 -2.4394
   11CHTO  H175 4303   5.879   6.612   2.072 -0.8108  0.5558 -0.2569
   11CHTO   C97 4304   5.661   6.512   2.009  0.7725  0.2129  0.7301
   11CHTO  H184 4305   5.650   6.603   1.948 -5.5357  0.7102  2.2147
   11CHTO   O64 4306   5.558   6.420   1.977 -0.4902 -0.5158 -0.7487
   11CHTO  C104 4307   5.550   6.390   1.836  0.3976  0.2602  0.6712
   11CHTO  H191 4308   5.537   6.484   1.782  0.4185  0.8866  1.7543
   11CHTO  C108 4309   5.416   6.309   1.819 -0.0641 -0.5243  0.4024
   11CHTO   O71 4310   5.306   6.400   1.847 -0.0076 -0.4397  0.5451
   11CHTO  H171 4311   5.238   6.356   1.895  0.0292 -0.2886  0.7374
   11CHTO   O62 4312   5.633   6.552   2.148 -0.5301 -0.1078 -0.1962
   11CHTO   C91 4313   5.520   6.644   2.145 -0.2708  0.4578  0.0447
   11CHTO  H178 4314   5.453   6.619   2.063  2.2202  0.6913 -2.1229
   11CHTO   C92 4315   5.585   6.786   2.119 -0.8039 -0.5185 -0.0623
   11CHTO  H179 4316   5.644   6.790   2.026  2.5168  1.5985  2.0339
   11CHTO   O66 4317   5.488   6.885   2.090 -0.3668  0.0470 -0.3547
   11CHTO  H166 4318   5.427   6.891   2.161  1.4363 -0.3628  1.2679
   11CHTO   C93 4319   5.666   6.840   2.248 -0.0875  0.0172 -0.1199
   11CHTO  H180 4320   5.680   6.948   2.235 -1.1345  0.4764  2.3300
   11CHTO   N16 4321   5.801   6.793   2.256 -0.0331  0.4555 -0.5374
   11CHTO  H172 4322   5.822   6.739   2.348 -2.4570 -0.9413 -0.7855
   11CHTO  H173 4323   5.871   6.875   2.251  3.1673 -1.8923  2.6914
   11CHTO   C94 4324   5.585   6.827   2.382 -0.1009  0.8757 -0.0435
   11CHTO  H181 4325   5.622   6.745   2.443 -2.2763  1.0965  1.5930
   11CHTO   O61 4326   5.448   6.778   2.346 -0.0017  0.5444  0.0471
   11CHTO   C95 4327   5.436   6.649   2.278  0.4819 -0.1440 -0.3645
   11CHTO  H182 4328   5.469   6.566   2.341 -0.4042 -1.0133 -1.0282
   11CHTO  C106 4329   5.285   6.613   2.239 -0.0225 -0.0271 -0.0935
   11CHTO   O69 4330   5.221   6.684   2.130  0.3355  0.0491  0.2489
   11CHTO  H169 4331   5.257   6.770   2.122  0.0768 -0.0048 -1.7832
   11CHTO   O63 4332   5.586   6.958   2.468 -0.0030  0.5302  0.0532
   11CHTO   C96 4333   5.715   6.991   2.547 -0.6986  0.6147  0.4165
   11CHTO  H183 4334   5.801   6.964   2.486 -0.3173 -2.6382  2.2779
   11CHTO   C98 4335   5.741   6.902   2.668 -0.1637 -0.3457 -0.3113
   11CHTO  H185 4336   5.646   6.898   2.724 -1.3394  1.3336 -2.0890
   11CHTO   O67 4337   5.770   6.770   2.631  0.1941 -0.0391  0.3187
   11CHTO  H167 4338   5.702   6.737   2.575 -0.4973 -0.0830  1.1863
   11CHTO  C102 4339   5.844   6.959   2.761  0.1589  0.1686  0.2584
   11CHTO  H189 4340   5.941   6.936   2.714  0.0607 -1.5743  0.8691
   11CHTO   N18 4341   5.847   6.888   2.894 -0.1222  0.2077  0.6794
   11CHTO  H176 4342   5.907   6.949   2.959  1.1090  0.2991 -0.5124
   11CHTO  H177 4343   5.896   6.792   2.898  1.7791  1.0730 -0.8537
   11CHTO  C105 4344   5.835   7.114   2.780  0.4671 -0.8571 -0.8027
   11CHTO  H192 4345   5.746   7.138   2.839  0.1650  1.5376 -2.1570
   11CHTO   O65 4346   5.820   7.183   2.657 -0.2951  0.3302 -0.3757
   11CHTO  C100 4347   5.706   7.141   2.584  0.1631 -0.0883  0.1418
   11CHTO  H187 4348   5.614   7.162   2.640 -0.3243  0.6724 -0.9105
   11CHTO  C107 4349   5.695   7.228   2.462 -0.7650  0.6372  0.0238
   11CHTO   O70 4350   5.632   7.356   2.492  0.2723  0.3202 -0.2714
   11CHTO  H170 4351   5.661   7.429   2.441 -1.5206  2.2740  1.3860
   11CHTO   O57 4352   5.972   7.156   2.848 -0.0769  0.2866  0.2811
   11CHTO   C85 4353   5.974   7.283   2.911  0.0564 -0.1117 -0.2537
   11CHTO  H157 4354   5.868   7.311   2.927  0.3187  0.9168 -0.2449
   11CHTO   C83 4355   6.025   7.400   2.810  0.1217  0.2116 -1.3698
   11CHTO  H155 4356   5.949   7.406   2.731  0.3316 -0.2595 -1.6101
   11CHTO   O56 4357   6.147   7.366   2.747  0.1168 -0.2528  0.1878
   11CHTO  H135 4358   6.208   7.393   2.813  1.0872  1.5965 -1.4243
   11CHTO   C81 4359   6.041   7.536   2.888 -0.0375 -0.2188 -0.2488
   11CHTO  H153 4360   5.949   7.557   2.942 -0.9436 -1.6327 -1.2288
   11CHTO   N14 4361   6.048   7.654   2.801  0.4238  0.3502  0.2025
   11CHTO  H141 4362   6.011   7.741   2.851 -2.9596 -0.7578 -0.2384
   11CHTO  H142 4363   6.145   7.671   2.761  0.2491  0.7006 -0.0710
   11CHTO   C79 4364   6.162   7.523   2.991  0.2531 -0.3880 -0.0238
   11CHTO  H151 4365   6.170   7.617   3.046 -0.0233 -0.7648  0.6784
   11CHTO   O52 4366   6.124   7.419   3.080 -0.4390 -0.5811  0.1100
   11CHTO   C86 4367   6.060   7.291   3.042  0.4488 -0.5765 -0.1441
   11CHTO  H158 4368   6.149   7.227   3.023 -0.7562 -1.6536 -2.3642
   11CHTO   C90 4369   5.992   7.221   3.156 -0.0784 -0.6946  0.2861
   11CHTO   O60 4370   6.085   7.176   3.257  0.3222  0.1918  0.3775
   11CHTO  H138 4371   6.064   7.218   3.338 -0.7659 -0.5410  0.4865
   11CHTO   O50 4372   6.282   7.487   2.931 -0.4435 -0.0306  0.0716
   11CHTO   C73 4373   6.418   7.478   2.967  0.1907 -0.3669 -0.3021
   11CHTO  H145 4374   6.439   7.417   3.056 -1.0173 -0.8245 -0.3355
   11CHTO   C74 4375   6.482   7.617   2.999 -0.2294  0.0172  0.0068
   11CHTO  H146 4376   6.429   7.663   3.083 -1.7991  1.0848 -1.5442
   11CHTO   O54 4377   6.620   7.600   3.038  0.6173  0.2183  0.3288
   11CHTO  H133 4378   6.640   7.581   3.127  0.3758  0.6781  0.4839
   11CHTO   C75 4379   6.474   7.708   2.865 -0.7122  0.6520  0.0000
   11CHTO  H147 4380   6.369   7.709   2.830 -1.4500  0.2129  2.1428
   11CHTO   N13 4381   6.535   7.844   2.883 -0.2056 -0.3849 -0.2739
   11CHTO  H139 4382   6.640   7.840   2.856 -0.8396 -0.1288 -2.8458
   11CHTO  H140 4383   6.519   7.875   2.985  0.2184 -0.7531 -0.0947
   11CHTO   C76 4384   6.542   7.628   2.742  0.3638  0.2523  0.8200
   11CHTO  H148 4385   6.648   7.613   2.766  0.8031  0.6296 -0.7880
   11CHTO   O49 4386   6.474   7.503   2.729 -0.0437 -0.4483 -0.6002
   11CHTO   C77 4387   6.493   7.419   2.841 -0.1832 -0.2630  0.4222
   11CHTO  H149 4388   6.600   7.425   2.863 -0.2071  2.8529 -0.1979
   11CHTO   C88 4389   6.460   7.277   2.803  0.4594  0.1326 -0.1081
   11CHTO   O58 4390   6.575   7.226   2.726  0.2855  0.1292  0.7447
   11CHTO  H136 4391   6.553   7.208   2.637 -0.5035  2.3171  0.4597
   11CHTO   O51 4392   6.522   7.698   2.597 -0.3947  0.5522  0.3154
   11CHTO   C78 4393   6.638   7.652   2.498  0.3326 -0.2847 -0.7776
   11CHTO  H150 4394   6.713   7.583   2.541  1.8538  0.4906 -2.1407
   11CHTO   C80 4395   6.717   7.779   2.465  0.3071  0.5826 -0.6609
   11CHTO  H152 4396   6.646   7.860   2.436  0.8732  1.2039 -0.3296
   11CHTO   O55 4397   6.795   7.810   2.579  0.1353 -0.5221 -0.0584
   11CHTO  H134 4398   6.809   7.903   2.581  2.5911 -0.8986  1.9811
   11CHTO   C84 4399   6.813   7.759   2.344 -0.9652 -0.0167  0.3864
   11CHTO  H156 4400   6.899   7.701   2.377 -0.4753  0.3450 -0.2568
   11CHTO   N15 4401   6.870   7.894   2.307 -0.3345 -0.0529 -0.0599
   11CHTO  H143 4402   6.829   7.922   2.212 -2.7909  0.2016  1.0111
   11CHTO  H144 4403   6.976   7.886   2.300 -0.3871  0.5310 -1.6148
   11CHTO   C87 4404   6.742   7.680   2.229  0.4241 -0.7342 -0.0422
   11CHTO  H159 4405   6.665   7.738   2.179  0.4087  0.5204  1.3966
   11CHTO   O53 4406   6.679   7.565   2.280 -0.3840 -0.1277  1.1762
   11CHTO   C82 4407   6.574   7.592   2.374 -0.5290 -1.2527 -0.8163
   11CHTO  H154 4408   6.499   7.661   2.337  0.0593  0.1991  0.6204
   11CHTO   C89 4409   6.500   7.460   2.407  0.0521 -0.0089 -0.5931
   11CHTO   O59 4410   6.586   7.359   2.452 -0.1704  0.4962 -0.1118
   11CHTO  H137 4411   6.551   7.275   2.431  1.1075 -0.2757  0.7631
   11CHTO   O45 4412   6.855   7.623   2.126 -0.0655 -0.1290 -0.0017
   11CHTO   C67 4413   6.812   7.606   1.990  0.5685 -0.7027  0.2880
   11CHTO  H124 4414   6.711   7.565   1.984  1.1423 -2.3312  1.5821
   11CHTO   C65 4415   6.803   7.746   1.917  0.3565  0.1146  0.2368
   11CHTO  H122 4416   6.885   7.806   1.957 -1.3937  2.4691  0.4109
   11CHTO   O44 4417   6.675   7.798   1.962  0.2197  0.4170 -0.4935
   11CHTO  H102 4418   6.651   7.875   1.914 -2.0873  0.2196  0.3223
   11CHTO   C63 4419   6.834   7.743   1.757 -0.1886 -0.8202 -0.5939
   11CHTO  H120 4420   6.943   7.745   1.753 -0.1942 -0.0847 -0.5473
   11CHTO   N11 4421   6.801   7.864   1.671  0.1771 -0.1122 -0.3185
   11CHTO  H108 4422   6.695   7.857   1.657  0.2675 -0.1170 -1.0584
   11CHTO  H109 4423   6.838   7.955   1.714  1.7615 -0.3009 -1.2479
   11CHTO   C61 4424   6.783   7.607   1.699 -0.0417 -0.8269 -0.1871
   11CHTO  H118 4425   6.822   7.604   1.596 -1.1367  0.4961 -0.6585
   11CHTO   O40 4426   6.844   7.492   1.768 -0.3957 -0.2607 -0.2394
   11CHTO   C68 4427   6.907   7.515   1.898 -0.1418  0.2118 -0.2422
   11CHTO  H125 4428   6.999   7.571   1.869  1.2654 -1.7769  0.3337
   11CHTO   C72 4429   6.958   7.387   1.963  0.2160  0.1524 -0.0985
   11CHTO   O48 4430   6.858   7.323   2.043  0.1471  0.1971  0.1203
   11CHTO  H105 4431   6.890   7.238   2.066 -0.8569 -0.2733 -0.2288
   11CHTO   O38 4432   6.636   7.600   1.702  0.2895 -0.7796 -0.2699
   11CHTO   C55 4433   6.578   7.490   1.627  0.1635 -1.2775 -0.3094
   11CHTO  H112 4434   6.655   7.413   1.611  0.8744 -0.9019  1.2081
   11CHTO   C56 4435   6.509   7.542   1.491 -0.2697  0.0219 -0.3541
   11CHTO  H113 4436   6.437   7.618   1.523 -0.0306  0.1375 -0.0910
   11CHTO   O42 4437   6.604   7.601   1.406 -0.7594  0.6359  0.3255
   11CHTO  H100 4438   6.643   7.680   1.438  0.3216 -0.6346  2.2589
   11CHTO   C57 4439   6.436   7.420   1.420 -0.4543 -0.4143  0.1558
   11CHTO  H114 4440   6.517   7.354   1.388  1.9533  1.6492  1.7601
   11CHTO   N10 4441   6.346   7.451   1.298 -0.1977  0.6006  0.0286
   11CHTO  H106 4442   6.394   7.436   1.203  0.1966  1.0882  0.1426
   11CHTO  H107 4443   6.310   7.552   1.308  1.1507  1.2169 -1.1077
   11CHTO   C58 4444   6.340   7.348   1.521  0.7830  0.3707 -0.0763
   11CHTO  H115 4445   6.254   7.413   1.545 -0.6609 -1.4981 -0.1124
   11CHTO   O37 4446   6.403   7.315   1.647 -0.0434  0.0818  0.2712
   11CHTO   C59 4447   6.473   7.418   1.720  0.3878  0.9642 -0.0516
   11CHTO  H116 4448   6.400   7.485   1.766 -0.0445 -0.7693  1.8692
   11CHTO   C70 4449   6.531   7.352   1.847 -0.4672  0.6710  0.6515
   11CHTO   O46 4450   6.617   7.235   1.811  0.0906 -0.2269  0.6742
   11CHTO  H103 4451   6.681   7.231   1.879  0.3611  0.3810  0.4564
   11CHTO   O39 4452   6.283   7.214   1.466 -0.2001  0.3596 -0.1193
   11CHTO   C60 4453   6.161   7.165   1.531 -0.2086  0.0665 -0.0411
   11CHTO  H117 4454   6.143   7.236   1.611 -1.0920 -0.8571  0.5965
   11CHTO   C62 4455   6.041   7.182   1.433 -0.2851 -0.5478  0.3980
   11CHTO  H119 4456   6.029   7.289   1.406 -1.3484 -1.0457 -1.1732
   11CHTO   O43 4457   6.069   7.106   1.313  0.1667  0.1536  0.2539
   11CHTO  H101 4458   6.069   7.168   1.243 -0.8736 -0.0343  0.0840
   11CHTO   C66 4459   5.896   7.136   1.503 -0.6841  0.3446  0.2359
   11CHTO  H123 4460   5.885   7.198   1.592  1.5194 -0.9815  1.4670
   11CHTO   N12 4461   5.775   7.156   1.417 -0.1282 -0.8762  0.0562
   11CHTO  H110 4462   5.734   7.252   1.445  1.1490 -0.6169  1.0807
   11CHTO  H111 4463   5.805   7.155   1.314  0.9609 -0.5517  0.3590
   11CHTO   C69 4464   5.920   6.991   1.554  0.1239 -0.0934  0.1595
   11CHTO  H126 4465   5.943   6.912   1.480  2.0478  0.1252  0.4889
   11CHTO   O41 4466   6.020   6.985   1.661  0.2362 -0.1701  0.3079
   11CHTO   C64 4467   6.166   7.025   1.595  0.8755  0.1897  0.1446
   11CHTO  H121 4468   6.200   6.959   1.513  0.0104  0.0117 -0.0756
   11CHTO   C71 4469   6.265   7.013   1.703 -0.2267 -0.1826  0.4130
   11CHTO   O47 4470   6.303   6.877   1.731  0.3619  0.1281  0.5442
   11CHTO  H104 4471   6.395   6.861   1.743  0.2368 -0.3783  0.8411
   11CHTO   O34 4472   5.789   6.949   1.622  0.4278 -0.6829 -0.0753
   11CHTO   C49 4473   5.684   6.838   1.659  0.4249 -1.0060  0.0669
   11CHTO   H91 4474   5.714   6.803   1.758  1.3806 -0.3591  0.0131
   11CHTO   C47 4475   5.683   6.730   1.550  0.0299 -0.4854 -0.1178
   11CHTO   H89 4476   5.609   6.651   1.576 -0.8099 -0.6482 -2.8530
   11CHTO   O33 4477   5.812   6.674   1.567 -0.0170 -0.2216  0.1782
   11CHTO   H70 4478   5.828   6.605   1.506 -1.8063  0.8013 -1.5376
   11CHTO   C45 4479   5.644   6.795   1.415 -0.7906 -0.2198  0.6876
   11CHTO   H87 4480   5.706   6.882   1.390 -1.5328 -0.3219 -1.6415
   11CHTO    N8 4481   5.661   6.699   1.294  0.0611  0.4132  0.1384
   11CHTO   H75 4482   5.586   6.724   1.220  0.7630 -1.2627 -1.1645
   11CHTO   H76 4483   5.628   6.605   1.334  0.1128  0.0460 -0.6870
   11CHTO   C43 4484   5.491   6.858   1.431 -0.3659  0.1960 -0.0723
   11CHTO   H85 4485   5.477   6.910   1.336 -1.5764  0.9699  0.5251
   11CHTO   O29 4486   5.480   6.944   1.547  0.1169 -0.3147 -0.2154
   11CHTO   C50 4487   5.546   6.897   1.667 -0.4135 -0.8722  0.2475
   11CHTO   H92 4488   5.553   6.990   1.725 -0.2640 -0.4366 -0.4621
   11CHTO   C54 4489   5.454   6.808   1.754  0.2151 -0.4963  0.3620
   11CHTO   O36 4490   5.331   6.873   1.787  0.3099 -0.5090 -0.0324
   11CHTO   H72 4491   5.322   6.887   1.879  0.7125  0.0467 -0.0765
   11CHTO   O27 4492   5.387   6.756   1.437  0.7200  0.4403  0.6991
   11CHTO   C37 4493   5.242   6.752   1.443  0.5406 -1.2090  0.2415
   11CHTO   H79 4494   5.214   6.754   1.549 -0.4774  2.4069 -0.0089
   11CHTO   C38 4495   5.168   6.865   1.370 -0.1027  0.1142  0.4037
   11CHTO   H80 4496   5.187   6.856   1.262  3.0080 -0.1653  0.9394
   11CHTO   O31 4497   5.215   6.985   1.431 -0.1916  0.3181  0.3556
   11CHTO   H68 4498   5.162   7.054   1.398 -0.9466 -0.5155 -0.1799
   11CHTO   C39 4499   5.016   6.853   1.396 -0.4820  0.1656 -0.1870
   11CHTO   H81 4500   4.990   6.866   1.501 -1.3334  0.7873 -0.4692
   11CHTO    N7 4501   4.929   6.953   1.330  0.6065 -0.1444 -0.5990
   11CHTO   H73 4502   4.901   7.038   1.391  1.0293  0.1438 -0.8026
   11CHTO   H74 4503   4.978   6.975   1.236  1.4854  0.2142 -0.0603
   11CHTO   C40 4504   4.976   6.707   1.355  0.7827 -0.4320  0.1440
   11CHTO   H82 4505   4.966   6.692   1.248  0.3636 -1.0824  0.2721
   11CHTO   O26 4506   5.059   6.603   1.410  0.7638  0.3140 -0.1227
   11CHTO   C41 4507   5.189   6.618   1.377 -0.6136 -0.1212 -0.2227
   11CHTO   H83 4508   5.210   6.616   1.269 -0.9781 -1.3195 -0.2816
   11CHTO   C52 4509   5.264   6.495   1.439  0.0765  0.3540  1.0590
   11CHTO   O35 4510   5.231   6.368   1.350 -0.0823 -0.1258  0.5370
   11CHTO   H71 4511   5.227   6.294   1.408 -2.1306  0.4097  1.1136
   11CHTO   O28 4512   4.851   6.676   1.427  0.2564 -0.4010  0.0268
   11CHTO   C42 4513   4.765   6.562   1.400  0.9947  0.2374  0.3897
   11CHTO   H84 4514   4.822   6.499   1.331 -0.3568 -0.8711  0.2629
   11CHTO   C44 4515   4.635   6.597   1.316  0.6428  0.3347 -0.3344
   11CHTO   H86 4516   4.574   6.667   1.373 -2.5671 -1.2659 -1.6722
   11CHTO   O32 4517   4.683   6.675   1.202 -0.6752 -0.0580  0.0902
   11CHTO   H69 4518   4.616   6.662   1.137  1.3997 -2.5438 -1.6491
   11CHTO   C48 4519   4.554   6.468   1.283 -0.0284 -0.2904  0.5981
   11CHTO   H90 4520   4.608   6.411   1.208 -2.2852 -1.4019 -0.2241
   11CHTO    N9 4521   4.417   6.503   1.223  0.4587 -0.0320  0.8576
   11CHTO   H77 4522   4.385   6.605   1.236  2.1496  0.5489  0.6906
   11CHTO   H78 4523   4.338   6.434   1.246 -0.3459  0.6422  0.1410
   11CHTO   C51 4524   4.548   6.375   1.406 -0.1725 -0.1777  0.8339
   11CHTO   H93 4525   4.478   6.429   1.470 -2.8618 -0.2979 -1.8784
   11CHTO   O30 4526   4.676   6.361   1.463 -0.3340  0.0030 -0.1352
   11CHTO   C46 4527   4.732   6.479   1.516 -0.0009  0.1457 -0.0492
   11CHTO   H88 4528   4.668   6.528   1.590 -1.4422  1.0627 -1.8873
   11CHTO   C53 4529   4.857   6.428   1.593  0.0981  0.1159  0.7702
   11CHTO   O72 4530   4.820   6.393   1.726 -0.4392  0.4335 -0.8477
   11CHTO  H199 4531   4.876   6.327   1.762  0.6172  1.9865  0.4196
   11CHTO   O22 4532   4.498   6.243   1.370 -0.4914 -0.8001  0.1753
   11CHTO   C31 4533   4.494   6.117   1.449 -0.1701 -0.3106  0.5238
   11CHTO   H59 4534   4.535   6.143   1.549  0.8354  2.7507 -0.6544
   11CHTO   C29 4535   4.353   6.062   1.476  0.5016  0.9587  0.0097
   11CHTO   H57 4536   4.305   6.034   1.381 -0.4479 -0.7717  0.9850
   11CHTO   O21 4537   4.279   6.172   1.529 -0.7013  0.4733  0.1216
   11CHTO   H37 4538   4.250   6.227   1.459  1.8359 -0.0971 -1.4412
   11CHTO   C27 4539   4.359   5.934   1.569 -0.1326  0.1791  0.1420
   11CHTO   H55 4540   4.391   5.973   1.667 -0.9308 -0.9282  0.8586
   11CHTO    N5 4541   4.226   5.868   1.589 -0.4482  0.1223 -0.2101
   11CHTO   H43 4542   4.185   5.810   1.508  0.6349  1.1857 -1.5531
   11CHTO   H44 4543   4.216   5.814   1.681  2.0634  0.3571  0.2597
   11CHTO   C25 4544   4.471   5.831   1.526 -0.0492 -0.5188  0.0742
   11CHTO   H53 4545   4.444   5.778   1.433 -0.2504 -0.6109  0.1858
   11CHTO   O17 4546   4.598   5.896   1.504 -0.3672 -0.2977 -0.4941
   11CHTO   C32 4547   4.586   6.004   1.406  0.5463 -0.5811 -0.0001
   11CHTO   H60 4548   4.544   5.958   1.317  1.5943  0.4429 -1.0381
   11CHTO   C36 4549   4.718   6.064   1.372  0.5261 -0.7013  0.1638
   11CHTO   O25 4550   4.792   5.963   1.303 -0.4918  0.7582 -0.2129
   11CHTO   H40 4551   4.884   5.985   1.302 -0.5354  0.9351 -0.3722
   11CHTO   O15 4552   4.494   5.722   1.634 -0.3120 -0.3942 -0.2377
   11CHTO   C19 4553   4.503   5.588   1.662  0.4132  0.4065 -0.0581
   11CHTO   H47 4554   4.607   5.580   1.697  1.0533 -0.8741 -2.1672
   11CHTO   C20 4555   4.406   5.546   1.776  0.2705 -0.5091  0.0466
   11CHTO   H48 4556   4.306   5.589   1.760  0.4423  0.0119  0.3623
   11CHTO   O19 4557   4.460   5.599   1.900 -0.4359  0.0473  0.2319
   11CHTO   H35 4558   4.444   5.691   1.912 -1.8579 -0.2034  0.2926
   11CHTO   C21 4559   4.388   5.395   1.788 -0.6026  0.0583 -0.7501
   11CHTO   H49 4560   4.478   5.356   1.834 -1.1358  1.3605  1.4378
   11CHTO    N4 4561   4.272   5.351   1.870 -0.3019  0.1479  0.3487
   11CHTO   H41 4562   4.193   5.312   1.808  0.5594 -0.8049 -0.1650
   11CHTO   H42 4563   4.232   5.429   1.934 -0.5510 -0.5395  1.0316
   11CHTO   C22 4564   4.384   5.324   1.650 -0.3130  0.4653  0.4295
   11CHTO   H50 4565   4.292   5.348   1.595 -1.1485  0.9540  1.9984
   11CHTO   O14 4566   4.495   5.358   1.577  0.0624 -0.3829 -0.2696
   11CHTO   C23 4567   4.487   5.495   1.536 -1.0596 -0.6565 -0.4996
   11CHTO   H51 4568   4.398   5.520   1.476  0.6986  0.8429 -2.5593
   11CHTO   C34 4569   4.612   5.511   1.445  0.2874 -0.0681  0.3652
   11CHTO   O23 4570   4.740   5.488   1.501 -0.5330  0.2639 -0.2952
   11CHTO   H38 4571   4.805   5.501   1.435 -2.6518  1.1532 -2.2810
   11CHTO   O16 4572   4.402   5.178   1.661  0.2165 -0.2149  0.1297
   11CHTO   C24 4573   4.305   5.097   1.547 -0.5216  0.4517  0.9566
   11CHTO   H52 4574   4.279   5.160   1.462  0.0428 -2.1196 -1.2174
   11CHTO   C26 4575   4.180   5.028   1.607  0.3321 -0.1277 -0.1566
   11CHTO   H54 4576   4.207   4.949   1.680  1.4759 -0.9188 -1.4343
   11CHTO   O20 4577   4.111   5.131   1.686 -0.4746  0.4798  0.0530
   11CHTO   H36 4578   4.017   5.125   1.691 -0.5657  1.5436 -0.1445
   11CHTO   C30 4579   4.102   4.972   1.488 -0.0670 -0.8031 -0.7385
   11CHTO   H58 4580   4.070   5.060   1.429 -3.9143 -0.3045  1.9505
   11CHTO    N6 4581   3.970   4.908   1.532  0.1671  0.1190 -0.1845
   11CHTO   H45 4582   3.987   4.804   1.558  0.1221  0.3039  0.5794
   11CHTO   H46 4583   3.891   4.909   1.459  0.1774 -3.7384 -0.3849
   11CHTO   C33 4584   4.183   4.878   1.397  0.2585  0.0991 -0.3264
   11CHTO   H61 4585   4.194   4.781   1.449 -1.4854  0.7880  1.4038
   11CHTO   O18 4586   4.312   4.928   1.368 -0.3447  0.2323  0.1559
   11CHTO   C28 4587   4.388   4.981   1.483  0.1407 -0.5722 -0.0986
   11CHTO   H56 4588   4.409   4.904   1.558 -1.4661  0.9026  1.9274
   11CHTO   C35 4589   4.517   5.030   1.428 -0.0923 -0.4203 -0.2081
   11CHTO   O24 4590   4.603   4.918   1.403  0.4772 -0.4971  0.1664
   11CHTO   H39 4591   4.682   4.916   1.454  0.0111 -1.6584  0.8607
   11CHTO    O9 4592   4.107   4.848   1.279  0.0860  0.0274 -0.9011
   11CHTO   C13 4593   4.116   4.945   1.171  0.1933  0.2963  0.0789
   11CHTO   H26 4594   4.143   5.041   1.220  0.2547  0.4132 -0.1829
   11CHTO   C11 4595   3.974   4.957   1.090  0.0532  0.2617 -0.0150
   11CHTO   H24 4596   3.883   4.957   1.152  0.4216  1.5359  0.5378
   11CHTO    O8 4597   3.947   4.830   1.021 -0.4934  0.1259 -0.3446
   11CHTO    H3 4598   4.023   4.798   0.976 -0.9770  0.4918 -1.4447
   11CHTO    C9 4599   3.986   5.077   0.993  0.6817  0.6302  0.3168
   11CHTO   H22 4600   3.992   5.166   1.058 -0.7028 -0.8270  2.4712
   11CHTO    N2 4601   3.874   5.099   0.900 -0.4457  0.1568 -0.2161
   11CHTO   H10 4602   3.829   5.197   0.896  1.4475  0.9754 -2.2705
   11CHTO   H11 4603   3.796   5.025   0.906 -0.5026  0.2691  0.5306
   11CHTO    C7 4604   4.124   5.075   0.914 -0.4037  0.0619  0.3576
   11CHTO   H20 4605   4.182   5.150   0.972 -0.7074  1.8518 -1.5738
   11CHTO    O4 4606   4.195   4.952   0.926 -0.8902  0.3816  0.0655
   11CHTO   C14 4607   4.234   4.923   1.062 -0.2647  0.3810 -0.2357
   11CHTO   H27 4608   4.317   4.991   1.090 -0.7119 -0.0247  2.2220
   11CHTO   C18 4609   4.288   4.776   1.072 -0.3398  0.5591 -1.2741
   11CHTO   O13 4610   4.193   4.667   1.057  0.0362  0.1883 -0.0969
   11CHTO    H7 4611   4.176   4.669   0.965 -1.7453  0.7504  0.2235
   11CHTO    O2 4612   4.115   5.115   0.752 -0.4107 -0.1189 -0.3898
   11CHTO    C1 4613   4.211   5.222   0.724  0.2684 -0.1336 -0.0285
   11CHTO   H14 4614   4.285   5.222   0.806  0.8220 -0.2733 -0.5275
   11CHTO    C2 4615   4.146   5.367   0.707 -0.3482 -0.1312  0.5848
   11CHTO   H15 4616   4.072   5.370   0.625 -0.3457 -4.8521  0.2948
   11CHTO    O6 4617   4.068   5.386   0.829 -0.2928 -0.2305 -0.1236
   11CHTO    H1 4618   4.029   5.471   0.822  1.5815  0.6141 -0.6911
   11CHTO    C3 4619   4.264   5.476   0.701 -0.9579  0.1183  0.6353
   11CHTO   H16 4620   4.324   5.479   0.793  2.2258 -0.1157 -1.3313
   11CHTO    N1 4621   4.201   5.612   0.671 -0.3016 -0.2514 -0.2170
   11CHTO    H8 4622   4.142   5.632   0.759  0.3488  0.0446  0.1537
   11CHTO    H9 4623   4.132   5.617   0.588 -2.0903  1.2480  1.3259
   11CHTO    C4 4624   4.366   5.435   0.588 -0.5410 -0.2738  0.0833
   11CHTO   H17 4625   4.322   5.443   0.489 -0.4713  1.5458  0.1760
   11CHTO    O1 4626   4.404   5.298   0.603  0.3062 -0.0826 -0.0588
   11CHTO    C5 4627   4.298   5.203   0.597  0.5459  0.4416  0.0457
   11CHTO   H18 4628   4.234   5.219   0.511 -0.8787  0.9742  1.1847
   11CHTO   C16 4629   4.363   5.059   0.589 -0.1680 -1.1121 -0.3566
   11CHTO   O11 4630   4.450   5.021   0.695 -0.1562  0.3855  0.3165
   11CHTO    H5 4631   4.491   4.939   0.676 -1.0682 -0.3460  1.4486
   11CHTO    O3 4632   4.490   5.509   0.610 -0.2103 -0.4013 -0.1337
   11CHTO    C6 4633   4.557   5.574   0.487  0.1048  0.8476 -0.2206
   11CHTO   H19 4634   4.542   5.532   0.387 -0.6096  0.2620  0.1268
   11CHTO    C8 4635   4.510   5.721   0.456 -0.3657  0.1468 -0.0060
   11CHTO   H21 4636   4.530   5.781   0.545 -3.6000  1.5011 -0.1317
   11CHTO    O7 4637   4.375   5.714   0.411 -0.8254  0.2060 -0.1160
   11CHTO    H2 4638   4.335   5.798   0.404 -0.5902  0.3595  0.3702
   11CHTO   C12 4639   4.607   5.789   0.347 -0.0620 -0.1027  0.4189
   11CHTO   H25 4640   4.589   5.733   0.253 -3.4670  0.1442  0.8548
   11CHTO    N3 4641   4.568   5.935   0.317 -0.0399 -0.2753  0.0102
   11CHTO   H12 4642   4.467   5.951   0.281 -0.2755  1.6270  1.3996
   11CHTO   H13 4643   4.593   6.003   0.397 -2.8586 -0.5687  1.1925
   11CHTO   C15 4644   4.758   5.765   0.392  0.0474 -0.2760  0.2884
   11CHTO   H28 4645   4.786   5.806   0.489 -0.2094  0.9696 -0.1536
   11CHTO   O10 4646   4.845   5.804   0.284  0.4062  0.2047  0.2513
   11CHTO    H4 4647   4.815   5.774   0.200  0.2879  0.4881  0.1928
   11CHTO    O5 4648   4.784   5.624   0.400 -0.3250 -0.1219 -0.4972
   11CHTO   C10 4649   4.713   5.570   0.513 -0.0879  0.5271  0.0022
   11CHTO   H23 4650   4.738   5.626   0.604  0.2285 -0.3688  0.4739
   11CHTO   C17 4651   4.763   5.427   0.551  0.1030 -0.1471 -0.4647
   11CHTO   O12 4652   4.906   5.421   0.548  0.5831  0.3741 -0.3070
   11CHTO    H6 4653   4.925   5.428   0.456 -1.2881  0.3488 -0.7061
   12CHTO  H203 4654   5.012  11.851   0.223 -0.2150  0.3008 -2.0572
   12CHTO   O82 4655   5.095  11.809   0.214 -0.2561 -0.3410  0.0872
   12CHTO  C123 4656   5.105  11.698   0.302 -0.7252 -0.0270 -0.8884
   12CHTO  H227 4657   5.136  11.731   0.402  0.6118  0.4019 -1.4384
   12CHTO   O77 4658   4.972  11.641   0.287  0.3277  0.4894  0.6810
   12CHTO  C118 4659   4.947  11.540   0.389 -0.2209 -0.5800  0.3629
   12CHTO  H222 4660   4.961  11.585   0.488 -1.0773 -1.3142  0.8223
   12CHTO  C125 4661   4.804  11.490   0.384 -0.0633  0.0371  0.1808
   12CHTO   O84 4662   4.745  11.477   0.255  0.1536  0.0905  0.4448
   12CHTO  H205 4663   4.704  11.554   0.220 -2.9216 -1.4132  0.6273
   12CHTO  C114 4664   5.035  11.426   0.357  0.1506  0.1573  0.0138
   12CHTO  H218 4665   5.008  11.386   0.259 -2.3746 -3.3539  2.0117
   12CHTO  C116 4666   5.186  11.457   0.345  0.3825 -0.1303 -0.0279
   12CHTO  H220 4667   5.220  11.464   0.451  1.8365 -2.9495 -0.2775
   12CHTO   O79 4668   5.248  11.336   0.289  0.8044  0.3215  0.5470
   12CHTO  H201 4669   5.230  11.259   0.340 -0.8844  0.4339  0.1732
   12CHTO  C120 4670   5.210  11.585   0.255 -0.6583  0.3694 -0.2570
   12CHTO  H224 4671   5.168  11.557   0.156 -0.4701 -1.6106  0.1949
   12CHTO   N21 4672   5.350  11.624   0.248  0.2379  0.1264  0.4435
   12CHTO  H211 4673   5.398  11.566   0.171 -0.2499  0.3635 -0.0453
   12CHTO  H212 4674   5.355  11.727   0.213  1.7135 -0.3754 -0.8880
   12CHTO   O75 4675   5.004  11.326   0.466 -0.0979 -0.5037  0.1788
   12CHTO  C112 4676   4.983  11.181   0.400  0.3107 -1.2719  0.4440
   12CHTO  H216 4677   5.043  11.177   0.308 -2.7665 -1.1764 -1.6487
   12CHTO   O73 4678   4.842  11.168   0.364 -0.3041 -0.0724 -0.2242
   12CHTO  C113 4679   4.811  11.037   0.302 -0.4209 -0.0832 -0.4542
   12CHTO  H217 4680   4.890  11.023   0.225 -0.0315 -0.8570  0.0801
   12CHTO  C124 4681   4.665  11.031   0.253 -0.1791 -0.8723 -0.0559
   12CHTO   O83 4682   4.646  11.118   0.137  0.0262  0.0158  0.5254
   12CHTO  H204 4683   4.558  11.149   0.139  0.7582  2.1230  0.9011
   12CHTO  C109 4684   4.831  10.930   0.411  0.5888  0.7345  0.0534
   12CHTO  H213 4685   4.775  10.966   0.499  3.7264  0.0403  2.4231
   12CHTO  C110 4686   4.988  10.922   0.444  0.7840 -0.2788 -0.3247
   12CHTO  H214 4687   5.050  10.897   0.358  0.6722 -2.9556  0.3492
   12CHTO   O78 4688   5.006  10.815   0.541 -0.6808  0.1007 -0.3957
   12CHTO  H200 4689   5.097  10.801   0.558 -0.0773  0.1949 -3.2343
   12CHTO  C111 4690   5.028  11.062   0.498  0.1165 -0.0337 -0.0397
   12CHTO  H215 4691   4.981  11.068   0.597  1.1995 -0.1634  0.4978
   12CHTO   N19 4692   5.171  11.075   0.526 -0.0495  0.0957 -0.1700
   12CHTO  H207 4693   5.185  11.169   0.578 -2.4029 -0.3667  1.3445
   12CHTO  H208 4694   5.232  11.066   0.437  1.7987 -2.4275  1.2611
   12CHTO   O74 4695   4.786  10.801   0.376  0.4358 -0.0894  0.3444
   12CHTO  C115 4696   4.689  10.722   0.479  0.8490  0.5764 -0.2895
   12CHTO  H219 4697   4.747  10.677   0.560 -0.3001 -1.0427 -0.3569
   12CHTO   O76 4698   4.589  10.827   0.560 -0.0328  0.1079  0.2942
   12CHTO  C122 4699   4.452  10.786   0.586 -0.2106 -0.3796  0.5870
   12CHTO  H226 4700   4.394  10.878   0.583  0.8172  0.4206  3.4777
   12CHTO  C126 4701   4.436  10.737   0.735 -0.3458  0.4085 -0.6569
   12CHTO   O85 4702   4.485  10.834   0.833  0.0406  0.3176  0.3369
   12CHTO  H206 4703   4.574  10.816   0.857 -0.6127  0.6911  3.2106
   12CHTO  C121 4704   4.388  10.678   0.487  0.1206 -0.1257 -0.3648
   12CHTO  H225 4705   4.302  10.652   0.551  0.9539  0.4705  1.0230
   12CHTO   O81 4706   4.360  10.749   0.363 -0.3350 -0.3041 -0.0895
   12CHTO  H202 4707   4.267  10.742   0.348 -0.7550  0.4669  1.9706
   12CHTO  C119 4708   4.489  10.562   0.464 -0.2064 -0.5828  0.2053
   12CHTO  H223 4709   4.507  10.529   0.567 -0.5637  0.0710  0.4781
   12CHTO  C117 4710   4.615  10.612   0.391  0.3545  0.1786 -0.0636
   12CHTO  H221 4711   4.596  10.664   0.297  0.3665  0.5275  0.1231
   12CHTO   N20 4712   4.712  10.503   0.364  0.2243  0.2107 -0.4032
   12CHTO  H209 4713   4.669  10.434   0.293  0.1260  1.2297 -1.3474
   12CHTO  H210 4714   4.728  10.442   0.452 -0.7876 -1.0053 -1.0464
   12CHTO   O80 4715   4.425  10.436   0.392 -0.1556 -0.2789 -0.2889
   12CHTO  C103 4716   4.335  10.353   0.467 -0.7715 -0.0519 -0.2131
   12CHTO  H190 4717   4.287  10.410   0.546  1.2991  2.1719 -0.5086
   12CHTO  C101 4718   4.229  10.294   0.368  0.4059  0.5330 -0.0380
   12CHTO  H188 4719   4.288  10.253   0.286  1.0980  1.7541 -0.1655
   12CHTO   O68 4720   4.131  10.422   0.303  1.0614 -0.2387  0.0267
   12CHTO  H168 4721   4.197  10.484   0.279  1.2585 -0.7951 -0.8880
   12CHTO   C99 4722   4.144  10.171   0.432  0.2398  0.0715  0.2298
   12CHTO  H186 4723   4.085  10.222   0.511 -0.7598  0.4357 -0.7332
   12CHTO   N17 4724   4.052  10.107   0.338  0.9326  0.3066  0.3420
   12CHTO  H174 4725   3.951  10.137   0.361  0.7099 -0.6131  0.5787
   12CHTO  H175 4726   4.084  10.112   0.235  1.8538  3.0859  0.7329
   12CHTO   C97 4727   4.231  10.072   0.514 -0.4079 -0.7186  0.7719
   12CHTO  H184 4728   4.280   9.999   0.449 -2.1780 -1.7252  0.5308
   12CHTO   O64 4729   4.323  10.143   0.600  0.5425 -0.0552 -0.4576
   12CHTO  C104 4730   4.413  10.236   0.544 -0.1978 -0.3013  0.2505
   12CHTO  H191 4731   4.476  10.179   0.476 -1.4610 -0.7552 -0.5337
   12CHTO  C108 4732   4.503  10.281   0.661  0.5130 -0.6951  0.5192
   12CHTO   O71 4733   4.593  10.179   0.696 -0.3101  0.6784  0.9815
   12CHTO  H171 4734   4.554  10.094   0.696 -0.8708  0.9144  2.7180
   12CHTO   O62 4735   4.142  10.008   0.608  0.3738 -0.4807 -0.3765
   12CHTO   C91 4736   4.166   9.879   0.664 -1.1723 -0.3827 -0.3891
   12CHTO  H178 4737   4.256   9.844   0.613 -2.0584 -1.0416 -1.4966
   12CHTO   C92 4738   4.054   9.782   0.622  0.2308  0.4940 -0.8007
   12CHTO  H179 4739   3.957   9.824   0.653  1.2163  0.3555  2.7023
   12CHTO   O66 4740   4.046   9.773   0.478  0.2680  0.1963  0.4349
   12CHTO  H166 4741   3.990   9.700   0.460  0.1096  0.2895  0.5485
   12CHTO   C93 4742   4.075   9.643   0.690  0.1202  0.6578  0.1863
   12CHTO  H180 4743   4.166   9.601   0.644  0.1588 -2.3704  2.8639
   12CHTO   N16 4744   3.961   9.545   0.668  0.0154 -0.3220 -0.9457
   12CHTO  H172 4745   3.929   9.524   0.567  0.2427 -2.5742 -0.5849
   12CHTO  H173 4746   3.874   9.581   0.720 -0.9783 -0.4585 -2.4602
   12CHTO   C94 4747   4.104   9.656   0.838 -0.6676  0.1607 -0.2710
   12CHTO  H181 4748   4.016   9.683   0.895 -1.2328 -0.3763 -0.8768
   12CHTO   O61 4749   4.207   9.754   0.871  0.2285 -0.0799 -0.2281
   12CHTO   C95 4750   4.185   9.886   0.821 -0.0131 -0.4768  0.0031
   12CHTO  H182 4751   4.095   9.929   0.864  1.5634  1.7060  1.2217
   12CHTO  C106 4752   4.312   9.966   0.875 -0.3250 -0.4653 -0.3493
   12CHTO   O69 4753   4.274  10.107   0.867 -0.3848 -0.0818  0.2025
   12CHTO  H169 4754   4.356  10.151   0.862 -0.5696  0.0924 -2.1992
   12CHTO   O63 4755   4.168   9.506   0.905  0.4668  0.5959 -0.4161
   12CHTO   C96 4756   4.235   9.528   1.044 -0.9692  0.1593  0.5306
   12CHTO  H183 4757   4.209   9.628   1.077 -0.1438  0.5244  0.0765
   12CHTO   C98 4758   4.391   9.516   1.058  0.1122 -0.3354  0.3957
   12CHTO  H185 4759   4.420   9.423   1.008  1.4829  0.6557 -0.7023
   12CHTO   O67 4760   4.449   9.624   0.987  0.4454  0.0233 -0.0178
   12CHTO  H167 4761   4.422   9.701   1.034 -0.0481 -1.0587  1.4987
   12CHTO  C102 4762   4.451   9.508   1.205 -0.8955  1.0829  0.3549
   12CHTO  H189 4763   4.464   9.612   1.236  0.7054  0.9215  0.2951
   12CHTO   N18 4764   4.587   9.444   1.205  0.3102 -0.0289 -0.2233
   12CHTO  H176 4765   4.654   9.490   1.276  2.1948  0.5642 -2.3003
   12CHTO  H177 4766   4.627   9.463   1.107  0.7035 -2.0914 -0.4941
   12CHTO  C105 4767   4.345   9.444   1.304 -0.2612  1.1225  0.3274
   12CHTO  H192 4768   4.347   9.335   1.297 -0.4604  1.0729  0.9847
   12CHTO   O65 4769   4.207   9.480   1.274 -0.0658 -0.0235 -1.3040
   12CHTO  C100 4770   4.161   9.437   1.147 -0.3528 -0.0945  0.7068
   12CHTO  H187 4771   4.186   9.332   1.128 -0.5419  0.4728 -3.1787
   12CHTO  C107 4772   4.005   9.458   1.136  0.7888  0.3071 -0.0648
   12CHTO   O70 4773   3.948   9.382   1.023 -0.1821  0.3256 -0.0210
   12CHTO  H170 4774   3.892   9.439   0.975  1.2409  0.5082 -1.5174
   12CHTO   O57 4775   4.391   9.486   1.450  0.0255 -0.1593 -0.0745
   12CHTO   C85 4776   4.328   9.437   1.566 -0.0206  0.4354 -0.2213
   12CHTO  H157 4777   4.221   9.462   1.549  0.0905  0.3356 -1.0602
   12CHTO   C83 4778   4.381   9.529   1.686 -0.5889 -0.0587  0.4417
   12CHTO  H155 4779   4.319   9.617   1.674 -0.7622 -0.2829 -0.3470
   12CHTO   O56 4780   4.522   9.555   1.668  0.0140 -0.0278  0.0751
   12CHTO  H135 4781   4.553   9.624   1.723 -1.1536  1.4253 -1.0123
   12CHTO   C81 4782   4.359   9.462   1.821 -0.4052 -0.3419 -0.6802
   12CHTO  H153 4783   4.251   9.449   1.836 -0.3500  2.0760  2.2536
   12CHTO   N14 4784   4.396   9.547   1.934 -0.3537  0.6490 -0.2576
   12CHTO  H141 4785   4.330   9.549   2.017 -0.4212 -0.6295 -0.2622
   12CHTO  H142 4786   4.498   9.533   1.965  0.6782  2.1439 -2.7512
   12CHTO   C79 4787   4.421   9.320   1.827  0.1550  0.1095 -0.0323
   12CHTO  H151 4788   4.401   9.281   1.926 -0.0124  0.5609  0.1121
   12CHTO   O52 4789   4.354   9.235   1.730  0.8653  0.4385  0.4486
   12CHTO   C86 4790   4.353   9.286   1.588  0.2093 -0.5522 -0.1985
   12CHTO  H158 4791   4.442   9.247   1.535 -1.6175 -3.6127 -1.1261
   12CHTO   C90 4792   4.241   9.215   1.521 -0.4761 -0.4400 -0.4778
   12CHTO   O60 4793   4.261   9.069   1.514  0.3741 -0.2589  0.2144
   12CHTO  H138 4794   4.343   9.034   1.484 -0.9472 -2.7346 -0.5980
   12CHTO   O50 4795   4.567   9.321   1.810  0.4653 -0.5386 -0.6126
   12CHTO   C73 4796   4.658   9.219   1.855 -0.0009 -0.1605  0.2535
   12CHTO  H145 4797   4.616   9.122   1.886 -0.6847  0.2004  0.4548
   12CHTO   C74 4798   4.736   9.274   1.981 -0.7640 -0.5263  0.0833
   12CHTO  H146 4799   4.663   9.292   2.061 -2.1063  0.0335 -1.2394
   12CHTO   O54 4800   4.821   9.172   2.035 -0.1209 -0.6712 -0.5672
   12CHTO  H133 4801   4.844   9.200   2.122 -1.7867  0.5868 -0.5009
   12CHTO   C75 4802   4.813   9.405   1.940 -0.0396 -0.1391 -0.2969
   12CHTO  H147 4803   4.737   9.481   1.914 -1.3758 -1.5431 -0.5532
   12CHTO   N13 4804   4.894   9.472   2.046  0.0413 -0.3922  0.3188
   12CHTO  H139 4805   4.949   9.408   2.114  1.0223 -0.5804 -0.6284
   12CHTO  H140 4806   4.964   9.541   2.000 -2.3498  0.0711 -2.8305
   12CHTO   C76 4807   4.910   9.358   1.822 -0.2393  0.5122 -0.0700
   12CHTO  H148 4808   4.980   9.281   1.856  0.3860  1.1582  0.1155
   12CHTO   O49 4809   4.837   9.305   1.703  0.0036 -0.3607 -0.2243
   12CHTO   C77 4810   4.765   9.190   1.737 -1.1776  0.3909 -0.4084
   12CHTO  H149 4811   4.835   9.117   1.778  0.2640  1.6813 -0.5610
   12CHTO   C88 4812   4.713   9.118   1.613 -0.1625  0.4533  0.3406
   12CHTO   O58 4813   4.612   9.028   1.638 -0.1996  0.5197 -0.5568
   12CHTO  H136 4814   4.540   9.065   1.590 -0.5541  2.8115  1.6878
   12CHTO   O51 4815   5.014   9.477   1.754  0.4461  0.3620 -0.2371
   12CHTO   C78 4816   5.098   9.411   1.633 -0.2083  0.2419  0.6201
   12CHTO  H150 4817   5.048   9.321   1.590  1.5211 -0.3119 -0.2994
   12CHTO   C80 4818   5.235   9.362   1.688  0.0969 -0.3488 -0.7409
   12CHTO  H152 4819   5.279   9.445   1.747  1.0502  0.5050 -2.6316
   12CHTO   O55 4820   5.218   9.250   1.774  0.0292  0.4775 -0.2464
   12CHTO  H134 4821   5.169   9.181   1.734  1.4206 -0.0748 -1.0675
   12CHTO   C84 4822   5.337   9.326   1.573 -1.0071 -0.3327  0.5723
   12CHTO  H156 4823   5.311   9.235   1.521 -2.9106  0.6031 -0.1676
   12CHTO   N15 4824   5.469   9.286   1.633 -0.4720 -0.6579 -0.0486
   12CHTO  H143 4825   5.478   9.300   1.739 -0.9558  0.8033 -0.1899
   12CHTO  H144 4826   5.523   9.198   1.605 -0.9639 -0.6077 -1.1816
   12CHTO   C87 4827   5.347   9.437   1.464 -0.9883  0.5545 -0.2983
   12CHTO  H159 4828   5.393   9.522   1.515  0.3312  0.3323 -1.1174
   12CHTO   O53 4829   5.194   9.485   1.417 -0.1067 -1.2781  0.3413
   12CHTO   C82 4830   5.109   9.522   1.524  0.3735  0.1887 -0.5176
   12CHTO  H154 4831   5.126   9.616   1.577  1.5124 -1.3302  1.8999
   12CHTO   C89 4832   4.974   9.539   1.453  0.1402  0.7292 -0.4082
   12CHTO   O59 4833   4.867   9.577   1.544  0.0183  0.3206  0.3872
   12CHTO  H137 4834   4.889   9.662   1.579  0.9196 -0.4759  1.8024
   12CHTO   O45 4835   5.442   9.386   1.339  0.8855  0.2633  0.3666
   12CHTO   C67 4836   5.498   9.478   1.243  0.9160  0.3185 -0.3913
   12CHTO  H124 4837   5.574   9.419   1.191  0.8198 -0.8779  0.7932
   12CHTO   C65 4838   5.397   9.528   1.142 -0.3327  0.3065 -0.0918
   12CHTO  H122 4839   5.306   9.566   1.189  0.5517  0.6145  1.4323
   12CHTO   O44 4840   5.370   9.413   1.065  1.0125  0.2565 -0.5724
   12CHTO  H102 4841   5.320   9.355   1.119  0.8656  0.0281 -0.9520
   12CHTO   C63 4842   5.448   9.651   1.052  0.8250 -0.2213  0.3721
   12CHTO  H120 4843   5.415   9.745   1.096  1.3681  1.7617 -3.2753
   12CHTO   N11 4844   5.395   9.662   0.911  0.0091 -0.5446 -0.6197
   12CHTO  H108 4845   5.297   9.620   0.904 -0.5080  0.5961 -0.3870
   12CHTO  H109 4846   5.380   9.766   0.890 -0.2782 -0.5187 -0.2936
   12CHTO   C61 4847   5.604   9.661   1.064  1.1374  0.5807 -0.5810
   12CHTO  H118 4848   5.630   9.759   1.021 -1.4622  2.3971  1.8260
   12CHTO   O40 4849   5.650   9.668   1.215  0.8285  0.1647 -0.0498
   12CHTO   C68 4850   5.570   9.594   1.316  0.7211 -0.4111 -0.4831
   12CHTO  H125 4851   5.510   9.670   1.370 -0.0700 -1.4696  0.1424
   12CHTO   C72 4852   5.667   9.540   1.428 -0.1843  0.0787  0.4048
   12CHTO   O48 4853   5.722   9.650   1.502 -0.3987 -0.8864 -0.4754
   12CHTO  H105 4854   5.801   9.667   1.454 -0.9534  1.3443 -0.6243
   12CHTO   O38 4855   5.685   9.555   0.996  0.4821  0.1634 -0.2998
   12CHTO   C55 4856   5.817   9.603   0.952  0.3108  1.1681 -0.2836
   12CHTO  H112 4857   5.843   9.696   1.005  0.2051  0.5429  0.8908
   12CHTO   C56 4858   5.813   9.619   0.794 -0.6295 -0.1250 -0.3094
   12CHTO  H113 4859   5.796   9.518   0.753 -0.9893  0.1470 -0.8221
   12CHTO   O42 4860   5.707   9.706   0.743  0.0047  0.0687  0.2594
   12CHTO  H100 4861   5.675   9.766   0.809  1.0886 -0.0184  0.8663
   12CHTO   C57 4862   5.945   9.660   0.728  0.1461  0.1118 -0.1137
   12CHTO  H114 4863   5.958   9.760   0.770  0.7090 -0.4306  1.0449
   12CHTO   N10 4864   5.953   9.661   0.579  0.3210  0.2754 -0.5819
   12CHTO  H106 4865   5.950   9.760   0.536  1.0715  0.5216 -0.0652
   12CHTO  H107 4866   5.872   9.602   0.537  0.8807  0.6073 -2.1886
   12CHTO   C58 4867   6.055   9.562   0.795  0.0636 -0.9820 -0.7131
   12CHTO  H115 4868   6.053   9.467   0.739 -0.3053 -2.3404  1.5575
   12CHTO   O37 4869   6.052   9.550   0.930 -0.3498  0.5014 -0.4438
   12CHTO   C59 4870   5.928   9.493   0.981 -0.2293  0.0641 -0.6683
   12CHTO  H116 4871   5.909   9.398   0.931 -1.5225  0.1403 -0.3500
   12CHTO   C70 4872   5.941   9.466   1.133 -0.4754 -0.3653  0.3298
   12CHTO   O46 4873   6.054   9.393   1.183 -0.4423  0.0851 -0.7660
   12CHTO  H103 4874   6.137   9.437   1.180 -1.5755  2.3054 -0.4904
   12CHTO   O39 4875   6.201   9.629   0.777  0.3087  0.2761  0.0131
   12CHTO   C60 4876   6.301   9.531   0.754  0.7771 -0.0601 -0.1199
   12CHTO  H117 4877   6.273   9.429   0.780  2.8520 -0.3328  1.2074
   12CHTO   C62 4878   6.358   9.530   0.603 -0.1292  0.5837 -0.6658
   12CHTO  H119 4879   6.274   9.506   0.534  0.2862 -1.7479 -0.3959
   12CHTO   O43 4880   6.395   9.666   0.581  0.2732  0.9152 -0.3070
   12CHTO  H101 4881   6.324   9.727   0.575 -0.5389  0.1035  0.7362
   12CHTO   C66 4882   6.477   9.424   0.596  0.7210 -0.2372  0.0806
   12CHTO  H123 4883   6.439   9.326   0.624 -1.4551  0.6273  0.2342
   12CHTO   N12 4884   6.527   9.407   0.458  0.2757  0.0289  0.0738
   12CHTO  H110 4885   6.449   9.355   0.406  1.0931 -0.7363 -0.3985
   12CHTO  H111 4886   6.627   9.367   0.446  0.7714  1.1570  0.4089
   12CHTO   C69 4887   6.587   9.438   0.703 -1.0404 -0.1080 -0.7152
   12CHTO  H126 4888   6.646   9.525   0.668 -1.7957 -0.1217 -2.0381
   12CHTO   O41 4889   6.534   9.472   0.836 -0.2945  0.1257  0.1883
   12CHTO   C64 4890   6.416   9.566   0.852 -0.1251 -0.1693  0.1556
   12CHTO  H121 4891   6.445   9.671   0.834  1.2361 -0.5864 -0.1221
   12CHTO   C71 4892   6.357   9.576   0.995 -0.0478  0.2511  0.4949
   12CHTO   O47 4893   6.434   9.670   1.070 -0.6166  0.3078 -0.3314
   12CHTO  H104 4894   6.452   9.635   1.155  1.5555  1.0683 -0.4462
   12CHTO   O34 4895   6.677   9.296   0.709  0.0892  0.3703 -0.6409
   12CHTO   C49 4896   6.757   9.220   0.799 -0.0142 -0.1451 -0.8103
   12CHTO   H91 4897   6.854   9.267   0.812 -0.5702  1.6501 -2.9038
   12CHTO   C47 4898   6.765   9.080   0.729 -0.4061  0.4003  0.6271
   12CHTO   H89 4899   6.826   9.013   0.793 -1.4637 -0.9430  0.2285
   12CHTO   O33 4900   6.826   9.089   0.597 -0.0105  0.4763 -0.4354
   12CHTO   H70 4901   6.843   9.176   0.565  1.6287 -0.6376 -2.7667
   12CHTO   C45 4902   6.617   9.010   0.725  0.0949 -0.2834  0.3911
   12CHTO   H87 4903   6.562   9.047   0.637  0.3304  0.3455  0.5028
   12CHTO    N8 4904   6.629   8.863   0.703  0.5759 -0.1104 -0.2064
   12CHTO   H75 4905   6.683   8.862   0.610 -2.8005  1.3688 -2.2898
   12CHTO   H76 4906   6.529   8.826   0.683  0.4823  0.7960 -1.4304
   12CHTO   C43 4907   6.522   9.072   0.845  0.5328  1.1065  1.1921
   12CHTO   H85 4908   6.487   9.166   0.803 -0.7551 -0.0754 -0.4416
   12CHTO   O29 4909   6.606   9.091   0.966  0.0332  0.2925  0.4930
   12CHTO   C50 4910   6.691   9.203   0.942 -0.3597 -0.1281  0.5461
   12CHTO   H92 4911   6.639   9.298   0.960  2.3356  1.6133 -0.5364
   12CHTO   C54 4912   6.802   9.203   1.055  0.4214  0.2037  0.3011
   12CHTO   O36 4913   6.757   9.256   1.180 -0.9537 -0.2993  0.0208
   12CHTO   H72 4914   6.670   9.235   1.210 -0.8685 -0.6957 -0.0105
   12CHTO   O27 4915   6.401   9.002   0.868 -0.5095  0.0925 -0.2945
   12CHTO   C37 4916   6.266   8.984   0.900  0.6190  0.6930 -0.2398
   12CHTO   H79 4917   6.198   9.027   0.826 -1.1942 -1.0954  0.3119
   12CHTO   C38 4918   6.242   8.828   0.902 -0.2142  0.6558 -0.3855
   12CHTO   H80 4919   6.318   8.779   0.965 -1.6565  0.7217  1.4112
   12CHTO   O31 4920   6.259   8.783   0.766 -0.2423 -1.1753 -0.1875
   12CHTO   H68 4921   6.351   8.770   0.758 -0.3119 -1.1353 -1.1760
   12CHTO   C39 4922   6.106   8.789   0.967  0.1535 -0.1337  0.2880
   12CHTO   H81 4923   6.030   8.834   0.902  1.7248  2.2210  0.0091
   12CHTO    N7 4924   6.083   8.648   0.985  0.3053 -0.2854  0.6869
   12CHTO   H73 4925   6.171   8.586   0.974 -1.2287 -2.3406 -0.3547
   12CHTO   H74 4926   6.023   8.623   1.071 -0.7736  2.7747  0.8556
   12CHTO   C40 4927   6.073   8.875   1.093 -0.0929  0.4424  0.1621
   12CHTO   H82 4928   6.128   8.834   1.177 -0.8415  1.9416  1.4074
   12CHTO   O26 4929   6.097   9.016   1.074  0.3652  0.5959 -0.6484
   12CHTO   C41 4930   6.234   9.045   1.038 -0.2381 -0.2757 -0.1034
   12CHTO   H83 4931   6.302   8.992   1.107 -0.1125 -1.7583 -1.3360
   12CHTO   C52 4932   6.252   9.198   1.028 -0.6458  0.2968  0.3509
   12CHTO   O35 4933   6.159   9.258   0.910  0.4086  0.2411 -0.0189
   12CHTO   H71 4934   6.077   9.211   0.909  1.5663 -1.9410  1.9863
   12CHTO   O28 4935   5.933   8.872   1.123 -0.2179  0.6884 -0.1636
   12CHTO   C42 4936   5.817   8.911   1.053  0.0049  0.0478 -0.2656
   12CHTO   H84 4937   5.815   8.856   0.959 -2.7187  0.0724 -0.2709
   12CHTO   C44 4938   5.803   9.064   1.014  0.3520  0.0885  0.2090
   12CHTO   H86 4939   5.810   9.133   1.099 -0.8750  1.7311 -0.9946
   12CHTO   O32 4940   5.905   9.092   0.927 -0.5430  0.0547  0.6837
   12CHTO   H69 4941   5.902   9.046   0.844 -0.3436  0.4586  0.4532
   12CHTO   C48 4942   5.663   9.097   0.958  0.2167 -0.6106  0.1698
   12CHTO   H90 4943   5.644   9.024   0.879  1.1399 -0.4150 -0.2397
   12CHTO    N9 4944   5.656   9.237   0.895  0.8351 -0.2918  0.0196
   12CHTO   H77 4945   5.564   9.291   0.913  3.1686  3.9765 -0.2067
   12CHTO   H78 4946   5.732   9.307   0.924  1.4482 -0.8570 -0.2052
   12CHTO   C51 4947   5.550   9.062   1.067  0.3968 -0.2807  0.2801
   12CHTO   H93 4948   5.594   9.113   1.153  0.1627 -0.3890  0.4641
   12CHTO   O30 4949   5.557   8.917   1.087  0.2309  0.8234  0.4809
   12CHTO   C46 4950   5.699   8.861   1.133  0.4094  0.3161 -0.3121
   12CHTO   H88 4951   5.716   8.885   1.238  0.9805  0.4523 -0.4295
   12CHTO   C53 4952   5.687   8.703   1.108  0.2318  0.1002  0.0818
   12CHTO   O72 4953   5.567   8.635   1.151  0.4549 -0.1687  0.3107
   12CHTO  H199 4954   5.599   8.572   1.212  1.8443  1.6337  1.4853
   12CHTO   O22 4955   5.420   9.108   1.029  0.4064 -0.0258  0.3495
   12CHTO   C31 4956   5.283   9.057   1.066  0.2715 -0.0673 -0.3454
   12CHTO   H59 4957   5.286   8.946   1.062  1.1903 -0.1001  0.9242
   12CHTO   C29 4958   5.229   9.097   1.212 -0.4315 -0.3644  1.0286
   12CHTO   H57 4959   5.248   9.203   1.234  1.4986 -0.9004  2.1364
   12CHTO   O21 4960   5.319   9.031   1.302 -0.1489 -0.3135 -1.0398
   12CHTO   H37 4961   5.264   8.993   1.368  1.0786 -1.3054 -0.5583
   12CHTO   C27 4962   5.075   9.061   1.221 -0.4981  0.0360 -0.0300
   12CHTO   H55 4963   5.070   8.951   1.219 -0.4949  0.0567 -1.0586
   12CHTO    N5 4964   5.009   9.109   1.348  0.1110  0.0498  0.1932
   12CHTO   H43 4965   5.074   9.131   1.432 -1.6302 -0.7363  1.7583
   12CHTO   H44 4966   4.958   9.021   1.385  0.5664 -0.7018 -0.9545
   12CHTO   C25 4967   5.001   9.109   1.101  0.4567  0.3459 -0.2729
   12CHTO   H53 4968   5.012   9.217   1.087  0.9352  0.9424  3.9045
   12CHTO   O17 4969   5.060   9.042   0.988  0.0563 -0.1185  0.2602
   12CHTO   C32 4970   5.183   9.103   0.958 -0.5207 -0.0073 -0.6412
   12CHTO   H60 4971   5.181   9.212   0.961 -1.3521  0.0029 -1.5555
   12CHTO   C36 4972   5.227   9.056   0.810  0.0926 -0.2450 -0.3914
   12CHTO   O25 4973   5.124   9.104   0.714  0.0112  0.2217  0.1368
   12CHTO   H40 4974   5.038   9.079   0.742 -0.4098  1.9888  0.4901
   12CHTO   O15 4975   4.851   9.065   1.093  0.4706  0.2734 -0.0087
   12CHTO   C19 4976   4.746   9.149   1.041 -0.4654  0.3099  0.9431
   12CHTO   H47 4977   4.757   9.242   1.098  1.0321  0.9368 -0.3169
   12CHTO   C20 4978   4.752   9.177   0.885  0.9168 -0.2879 -0.3109
   12CHTO   H48 4979   4.761   9.083   0.828  1.8862  0.8529 -2.0718
   12CHTO   O19 4980   4.869   9.254   0.856 -0.2003  0.2630  0.0745
   12CHTO   H35 4981   4.857   9.345   0.877  1.7318 -0.0538  2.7511
   12CHTO   C21 4982   4.621   9.253   0.843  0.4433  0.3871 -0.3911
   12CHTO   H49 4983   4.615   9.344   0.902 -2.6617  1.8580 -2.8242
   12CHTO    N4 4984   4.608   9.293   0.697  0.7683 -0.4717 -0.8622
   12CHTO   H41 4985   4.599   9.203   0.637  0.2979 -1.9873  1.3888
   12CHTO   H42 4986   4.695   9.349   0.667 -0.0681  0.9144 -0.7158
   12CHTO   C22 4987   4.496   9.171   0.888  0.1310 -0.0337  0.4015
   12CHTO   H50 4988   4.508   9.071   0.846 -0.8345  0.0244 -0.0298
   12CHTO   O14 4989   4.498   9.156   1.031 -0.2737  0.1488  0.2312
   12CHTO   C23 4990   4.613   9.082   1.079  0.0350  0.2221  0.4831
   12CHTO   H51 4991   4.610   8.977   1.046 -1.2343  1.4589 -3.7261
   12CHTO   C34 4992   4.591   9.085   1.233 -0.1665 -0.2037  0.2203
   12CHTO   O23 4993   4.482   9.006   1.275 -0.5154  0.0298  0.0122
   12CHTO   H38 4994   4.494   8.918   1.245  0.7031  0.0871  0.3128
   12CHTO   O16 4995   4.366   9.230   0.870  0.6615 -0.1110 -0.2997
   12CHTO   C24 4996   4.263   9.127   0.822  0.3447 -0.4397 -0.3021
   12CHTO   H52 4997   4.312   9.033   0.796 -0.1458 -1.2460  1.5964
   12CHTO   C26 4998   4.186   9.185   0.708 -0.4814  0.2697  0.1133
   12CHTO   H54 4999   4.134   9.277   0.743 -0.1952  0.0608  1.0854
   12CHTO   O20 5000   4.285   9.212   0.605  0.0754  0.5646  0.1964
   12CHTO   H36 5001   4.242   9.238   0.526 -0.0992  3.2459  1.1352
   12CHTO   C30 5002   4.074   9.094   0.666 -0.1506  0.2032 -0.4672
   12CHTO   H58 5003   4.127   9.005   0.630  0.1368  0.9004 -1.8043
   12CHTO    N6 5004   4.000   9.135   0.545 -0.2029  0.5865 -0.1048
   12CHTO   H45 5005   3.929   9.056   0.520  1.5417 -0.4395 -1.9867
   12CHTO   H46 5006   3.948   9.227   0.568 -0.7899  0.5675 -1.3163
   12CHTO   C33 5007   3.980   9.054   0.784 -0.8976  0.2715 -0.0941
   12CHTO   H61 5008   3.925   9.141   0.824 -1.1571 -0.0934  0.3435
   12CHTO   O18 5009   4.065   8.999   0.885 -0.1977  0.1776  0.7818
   12CHTO   C28 5010   4.161   9.091   0.940  0.6198  0.4792  0.8137
   12CHTO   H56 5011   4.124   9.183   0.984 -0.7758  0.4573 -0.2959
   12CHTO   C35 5012   4.220   9.023   1.061 -0.4787  0.5570  0.0052
   12CHTO   O24 5013   4.132   9.010   1.175 -0.1754  0.4924  0.3232
   12CHTO   H39 5014   4.045   8.995   1.145 -0.6693  0.0470  1.9441
   12CHTO    O9 5015   3.876   8.961   0.745 -0.1463  0.0481 -0.1946
   12CHTO   C13 5016   3.964   8.803   0.680  0.3046 -0.5025  0.1262
   12CHTO   H26 5017   4.074   8.819   0.682  0.0897  2.0744 -3.3291
   12CHTO   C11 5018   3.911   8.763   0.535  0.4568 -0.0104 -0.3251
   12CHTO   H24 5019   3.945   8.840   0.464 -0.6893 -0.8190 -1.7803
   12CHTO    O8 5020   3.765   8.766   0.533 -0.3599 -0.1884  0.3724
   12CHTO    H3 5021   3.733   8.808   0.455 -2.3181 -1.2928  0.5546
   12CHTO    C9 5022   3.961   8.621   0.504 -0.3091  0.0907  0.6249
   12CHTO   H22 5023   4.070   8.636   0.504 -0.2966  0.0360 -0.2175
   12CHTO    N2 5024   3.936   8.582   0.362 -0.3119 -0.2926  0.4211
   12CHTO   H10 5025   3.844   8.623   0.323 -1.3237 -1.6583  1.3472
   12CHTO   H11 5026   3.932   8.477   0.339  2.0857 -0.3207 -0.0221
   12CHTO    C7 5027   3.922   8.510   0.613 -0.2855 -0.2767  0.1432
   12CHTO   H20 5028   3.978   8.420   0.580 -3.0208 -1.1797 -2.1993
   12CHTO    O4 5029   3.952   8.555   0.752 -0.0794  1.1090  0.4093
   12CHTO   C14 5030   3.945   8.692   0.792  0.8611 -0.4602  0.9789
   12CHTO   H27 5031   4.026   8.716   0.864  2.9382 -0.2043 -1.3603
   12CHTO   C18 5032   3.813   8.714   0.874 -0.4111  0.1441  0.0291
   12CHTO   O13 5033   3.822   8.635   0.995  0.4295 -0.2395  0.2455
   12CHTO    H7 5034   3.743   8.648   1.044 -0.1130  1.2577 -0.9694
   12CHTO    O2 5035   3.744   8.460   0.603  0.2412  0.1773  0.1726
   12CHTO    C1 5036   3.705   8.376   0.709  0.1355  0.6595 -0.0093
   12CHTO   H14 5037   3.743   8.414   0.806 -1.6969 -0.8293  1.3120
   12CHTO    C2 5038   3.763   8.228   0.691  0.2790 -0.3874  0.3821
   12CHTO   H15 5039   3.744   8.207   0.585  0.7078  1.4395 -0.0790
   12CHTO    O6 5040   3.908   8.225   0.707  0.0778  0.3151  0.1216
   12CHTO    H1 5041   3.946   8.155   0.657 -0.3397 -0.4501  0.8550
   12CHTO    C3 5042   3.686   8.127   0.793 -0.7362 -0.0640  0.0753
   12CHTO   H16 5043   3.718   8.140   0.898 -0.5150 -2.4377  0.3280
   12CHTO    N1 5044   3.709   7.984   0.762  0.1823  0.0503 -0.5854
   12CHTO    H8 5045   3.814   7.961   0.773  0.3089  1.1177  0.6100
   12CHTO    H9 5046   3.652   7.920   0.829  1.4853  0.3012  0.7663
   12CHTO    C4 5047   3.529   8.147   0.800  0.2979  0.2784 -0.3184
   12CHTO   H17 5048   3.492   8.116   0.702  4.0260  0.6737 -1.9436
   12CHTO    O1 5049   3.492   8.288   0.823 -0.0046 -0.0955 -0.5088
   12CHTO    C5 5050   3.548   8.378   0.729  0.1258 -0.1429  0.5956
   12CHTO   H18 5051   3.497   8.350   0.637  0.0818 -0.8207  0.8237
   12CHTO   C16 5052   3.499   8.517   0.770 -0.3102 -0.2135 -1.0776
   12CHTO   O11 5053   3.359   8.530   0.755 -0.4807  0.0339  0.3117
   12CHTO    H5 5054   3.312   8.564   0.829 -1.2125  3.5720 -1.6677
   12CHTO    O3 5055   3.470   8.072   0.909  0.6626 -0.2002 -0.0052
   12CHTO    C6 5056   3.329   8.024   0.894  0.2793 -0.1588 -0.0870
   12CHTO   H19 5057   3.273   8.078   0.818  0.4330  0.6525  0.3753
   12CHTO    C8 5058   3.321   7.873   0.851  0.6687 -0.4145  0.2314
   12CHTO   H21 5059   3.383   7.812   0.918 -0.6096 -1.8857  0.1182
   12CHTO    O7 5060   3.368   7.854   0.717  0.3219  0.3704  0.5366
   12CHTO    H2 5061   3.311   7.890   0.652 -1.2447 -1.4505  0.8655
   12CHTO   C12 5062   3.183   7.802   0.866 -0.2460 -0.9228  0.0025
   12CHTO   H25 5063   3.117   7.851   0.791  1.8634  0.5581 -0.9436
   12CHTO    N3 5064   3.183   7.654   0.847  0.9317 -0.0947  0.9779
   12CHTO   H12 5065   3.114   7.603   0.913  1.2372  1.4911  2.5456
   12CHTO   H13 5066   3.158   7.628   0.745 -0.6544  2.3589  0.7196
   12CHTO   C15 5067   3.120   7.843   1.005 -0.6840 -0.5522  0.1190
   12CHTO   H28 5068   3.175   7.801   1.089  1.7915  2.0572 -0.1306
   12CHTO   O10 5069   2.967   7.807   1.036 -0.0630  0.1928 -0.5223
   12CHTO    H4 5070   2.952   7.717   1.011  1.8869 -0.3876  0.3076
   12CHTO    O5 5071   3.116   7.985   1.021 -0.5647  0.2584  0.6268
   12CHTO   C10 5072   3.254   8.043   1.025  0.8171  0.3618 -0.0032
   12CHTO   H23 5073   3.310   7.990   1.102 -0.5033  0.6725  1.2046
   12CHTO   C17 5074   3.241   8.192   1.058  0.4991  0.3037 -0.1801
   12CHTO   O12 5075   3.208   8.283   0.955  0.3047 -0.3018  0.5884
   12CHTO    H6 5076   3.240   8.261   0.869 -2.4464 -1.2820 -0.2464
   13CHTO  H203 5077   7.255   4.131  -0.491  0.8769 -1.3293 -0.2025
   13CHTO   O82 5078   7.306   4.200  -0.530 -0.2793 -0.4577 -0.1884
   13CHTO  C123 5079   7.243   4.327  -0.539  0.1129 -0.3830 -0.3099
   13CHTO  H227 5080   7.291   4.382  -0.622  0.2147  1.2263  0.7968
   13CHTO   O77 5081   7.101   4.297  -0.571 -0.5076  0.3493 -0.2866
   13CHTO  C118 5082   7.017   4.414  -0.595  0.1372 -0.4784  0.4104
   13CHTO  H222 5083   7.054   4.468  -0.683 -0.4551 -0.2141  0.3175
   13CHTO  C125 5084   6.872   4.369  -0.621 -0.2757  0.0885  0.0478
   13CHTO   O84 5085   6.809   4.478  -0.694 -0.1696 -0.1224  0.7557
   13CHTO  H205 5086   6.722   4.449  -0.717  0.1336 -1.5915  1.4327
   13CHTO  C114 5087   7.015   4.505  -0.471 -0.0680  0.4030  0.2678
   13CHTO  H218 5088   6.960   4.455  -0.390 -1.6908  1.7354  0.0147
   13CHTO  C116 5089   7.164   4.540  -0.422  0.1977  0.7504 -0.4640
   13CHTO  H220 5090   7.207   4.598  -0.506 -0.7768  2.5645  0.2754
   13CHTO   O79 5091   7.155   4.625  -0.305  0.3515  0.3790  0.2099
   13CHTO  H201 5092   7.110   4.703  -0.329 -0.8019 -0.2117  0.4066
   13CHTO  C120 5093   7.243   4.403  -0.396 -0.8509  0.1208 -0.2216
   13CHTO  H224 5094   7.194   4.343  -0.316  1.7709 -2.0908 -0.2029
   13CHTO   N21 5095   7.380   4.430  -0.345 -0.1301 -0.1775 -0.2495
   13CHTO  H211 5096   7.448   4.423  -0.429  0.6778 -2.3016  0.5311
   13CHTO  H212 5097   7.410   4.358  -0.270 -0.4763  0.9670  0.9889
   13CHTO   O75 5098   6.948   4.621  -0.510 -0.4393  0.7966  0.1508
   13CHTO  C112 5099   6.803   4.656  -0.407  0.8136  0.3282  0.3613
   13CHTO  H216 5100   6.833   4.658  -0.301 -1.5131 -0.9940  1.0937
   13CHTO   O73 5101   6.705   4.543  -0.434 -0.0578  0.3399  0.2963
   13CHTO  C113 5102   6.583   4.556  -0.360 -0.6868  0.2336 -0.3467
   13CHTO  H217 5103   6.615   4.566  -0.254  0.7226 -2.0800 -0.5107
   13CHTO  C124 5104   6.487   4.438  -0.386 -0.2440 -0.3439  0.0441
   13CHTO   O83 5105   6.517   4.323  -0.316  0.0361 -0.0515 -0.3566
   13CHTO  H204 5106   6.528   4.342  -0.225  0.2868  0.0295 -0.4053
   13CHTO  C109 5107   6.513   4.687  -0.397 -0.2256  0.0005 -0.1444
   13CHTO  H213 5108   6.484   4.677  -0.503 -2.2274 -0.6927  0.4347
   13CHTO  C110 5109   6.606   4.814  -0.384 -0.1842 -0.5374 -0.1341
   13CHTO  H214 5110   6.624   4.830  -0.277 -2.1544  0.6826  0.0494
   13CHTO   O78 5111   6.538   4.933  -0.426 -0.0392 -0.5983  0.5045
   13CHTO  H200 5112   6.468   4.950  -0.365  0.5246  1.5034  0.6032
   13CHTO  C111 5113   6.745   4.798  -0.455 -0.2104  0.3111 -0.2871
   13CHTO  H215 5114   6.729   4.795  -0.564  0.5916  1.0132 -0.4284
   13CHTO   N19 5115   6.841   4.901  -0.424  0.1781  0.4202  0.1208
   13CHTO  H207 5116   6.918   4.888  -0.499  1.2124 -3.0753  1.7177
   13CHTO  H208 5117   6.784   4.985  -0.463  1.0063  0.0906 -1.8583
   13CHTO   O74 5118   6.391   4.693  -0.317  0.2361 -0.5067  0.0991
   13CHTO  C115 5119   6.258   4.765  -0.387  0.1673 -0.4773  0.3811
   13CHTO  H219 5120   6.281   4.866  -0.422  0.3251  0.2002  2.3801
   13CHTO   O76 5121   6.205   4.677  -0.518 -0.2508  0.1316 -0.2671
   13CHTO  C122 5122   6.078   4.715  -0.576  0.2506 -0.8593  0.0409
   13CHTO  H226 5123   6.049   4.653  -0.661  0.7524 -2.5771  1.0997
   13CHTO  C126 5124   6.093   4.865  -0.641  0.4344  0.0810  0.3165
   13CHTO   O85 5125   5.983   4.885  -0.735  0.2768 -0.0211  0.0935
   13CHTO  H206 5126   5.901   4.876  -0.691  0.2314  0.7366  0.1832
   13CHTO  C121 5127   5.968   4.717  -0.469 -0.2501 -0.3693  0.0193
   13CHTO  H225 5128   5.869   4.747  -0.510  0.0616  1.2709  0.4394
   13CHTO   O81 5129   5.953   4.584  -0.416  0.3027 -0.0256  0.1670
   13CHTO  H202 5130   5.948   4.517  -0.481  0.1098 -0.6678  0.8286
   13CHTO  C119 5131   5.999   4.806  -0.346  0.1662 -0.1831 -0.0051
   13CHTO  H223 5132   5.992   4.909  -0.379 -2.1671 -0.0920  0.6902
   13CHTO  C117 5133   6.140   4.772  -0.284 -0.9753 -0.3733 -0.3625
   13CHTO  H221 5134   6.142   4.677  -0.230 -0.4376 -0.6976 -0.9517
   13CHTO   N20 5135   6.172   4.880  -0.178  0.3302 -0.2720  0.5341
   13CHTO  H209 5136   6.106   4.860  -0.095 -0.5369 -0.4807 -0.1946
   13CHTO  H210 5137   6.148   4.976  -0.221 -0.9697 -1.3606 -1.2174
   13CHTO   O80 5138   5.891   4.809  -0.242  0.5770  0.1366 -0.0918
   13CHTO  C103 5139   5.786   4.938  -0.230 -1.1041  1.0194 -0.7020
   13CHTO  H190 5140   5.767   4.952  -0.123  1.6535  2.7138 -0.3888
   13CHTO  C101 5141   5.825   5.083  -0.279 -0.7651 -0.7996  0.2072
   13CHTO  H188 5142   5.830   5.081  -0.388 -2.4341  0.5856  0.0735
   13CHTO   O68 5143   5.964   5.122  -0.226 -0.0766  0.5781  0.4924
   13CHTO  H168 5144   5.996   5.209  -0.239 -0.2342  0.9341  2.2683
   13CHTO   C99 5145   5.705   5.186  -0.248 -0.7512 -0.7760  0.8175
   13CHTO  H186 5146   5.684   5.185  -0.139 -2.3088  0.5427  0.5470
   13CHTO   N17 5147   5.739   5.324  -0.293 -0.6654 -0.0307 -0.4924
   13CHTO  H174 5148   5.793   5.331  -0.386 -1.9060  0.9203 -1.1498
   13CHTO  H175 5149   5.784   5.381  -0.213  1.3517  0.0223 -1.6225
   13CHTO   C97 5150   5.576   5.132  -0.317  0.4031 -0.3518  0.2878
   13CHTO  H184 5151   5.585   5.129  -0.427 -4.2870  1.3523 -0.2710
   13CHTO   O64 5152   5.554   5.004  -0.262 -0.2385  0.6967  0.6314
   13CHTO  C104 5153   5.651   4.902  -0.290  0.3719  0.0987  0.0156
   13CHTO  H191 5154   5.666   4.890  -0.397 -1.4702  3.6979 -0.7023
   13CHTO  C108 5155   5.594   4.771  -0.247  0.0396  0.5711 -0.4686
   13CHTO   O71 5156   5.640   4.647  -0.291  0.1737  0.6879  0.5556
   13CHTO  H171 5157   5.679   4.603  -0.218 -0.5254 -4.2808 -1.8583
   13CHTO   O62 5158   5.451   5.205  -0.272 -0.2221 -0.2468  0.7096
   13CHTO   C91 5159   5.335   5.198  -0.362  0.5244  0.2824 -0.7739
   13CHTO  H178 5160   5.353   5.128  -0.444 -1.3696  0.6821 -1.5555
   13CHTO   C92 5161   5.325   5.334  -0.445  0.8265  0.4122 -0.2594
   13CHTO  H179 5162   5.313   5.415  -0.371 -1.3938  0.6234 -0.8138
   13CHTO   O66 5163   5.441   5.347  -0.524 -0.2198  0.5831  0.1393
   13CHTO  H166 5164   5.519   5.372  -0.480 -0.6192 -0.6112  1.5289
   13CHTO   C93 5165   5.189   5.335  -0.532 -0.0510  0.6734 -0.7202
   13CHTO  H180 5166   5.209   5.263  -0.612  0.7835  0.4359 -0.3035
   13CHTO   N16 5167   5.170   5.463  -0.599 -0.1562 -0.2528 -1.0585
   13CHTO  H172 5168   5.249   5.487  -0.669  0.3025 -1.0592 -0.8174
   13CHTO  H173 5169   5.164   5.542  -0.527  1.3200 -2.3982  1.4896
   13CHTO   C94 5170   5.068   5.290  -0.446 -0.4608  0.7814 -0.3269
   13CHTO  H181 5171   5.044   5.360  -0.366  0.6841 -0.8107  1.4703
   13CHTO   O61 5172   5.100   5.171  -0.375 -0.1028 -0.3832  0.4059
   13CHTO   C95 5173   5.206   5.173  -0.286 -0.0907 -0.1531 -0.1790
   13CHTO  H182 5174   5.193   5.252  -0.212 -0.6200 -0.6333  0.2518
   13CHTO  C106 5175   5.193   5.045  -0.203 -0.3446 -0.2726  0.7370
   13CHTO   O69 5176   5.066   5.024  -0.133  0.1905 -0.5067  0.6110
   13CHTO  H169 5177   5.028   4.944  -0.162  0.6419 -0.2913 -0.5922
   13CHTO   O63 5178   4.953   5.247  -0.548  0.4867 -0.0428  0.7568
   13CHTO   C96 5179   4.804   5.273  -0.517  0.1955  0.2978 -0.1956
   13CHTO  H183 5180   4.743   5.231  -0.597 -1.8811  0.3195  1.3305
   13CHTO   C98 5181   4.785   5.428  -0.504 -0.0458  0.2482  1.0850
   13CHTO  H185 5182   4.868   5.475  -0.450  1.3892  0.0531 -0.8769
   13CHTO   O67 5183   4.800   5.483  -0.641 -0.1485 -0.4476  0.2893
   13CHTO  H167 5184   4.826   5.574  -0.641  1.3757 -0.7617 -4.0221
   13CHTO  C102 5185   4.643   5.475  -0.442  0.0362  0.0672  0.1242
   13CHTO  H189 5186   4.565   5.444  -0.513 -0.4845  2.7015 -0.5278
   13CHTO   N18 5187   4.624   5.617  -0.419  0.0667 -0.0727  0.4945
   13CHTO  H176 5188   4.616   5.667  -0.515  1.0502  1.3098  1.1164
   13CHTO  H177 5189   4.705   5.649  -0.356  0.6024 -0.8337  0.2025
   13CHTO  C105 5190   4.624   5.376  -0.321 -0.1042 -0.0089 -0.2062
   13CHTO  H192 5191   4.696   5.401  -0.244 -1.1348  0.3300  0.6666
   13CHTO   O65 5192   4.629   5.234  -0.369  0.4049 -0.2730 -0.3571
   13CHTO  C100 5193   4.763   5.195  -0.389  0.2532  0.8883 -0.2296
   13CHTO  H187 5194   4.839   5.221  -0.313  2.9924  0.6703 -2.7803
   13CHTO  C107 5195   4.784   5.042  -0.410  0.0683  0.2363  0.3322
   13CHTO   O70 5196   4.757   4.977  -0.288  0.7724 -0.1402 -0.1648
   13CHTO  H170 5197   4.795   5.017  -0.212 -0.5561  1.3262 -0.2506
   13CHTO   O57 5198   4.456   5.402  -0.254 -0.1944 -0.3356  0.2315
   13CHTO   C85 5199   4.351   5.333  -0.314  0.5176  0.4093  1.0828
   13CHTO  H157 5200   4.390   5.288  -0.407 -1.8540  0.7291 -0.1195
   13CHTO   C83 5201   4.250   5.447  -0.355 -0.6826  0.1804  0.3143
   13CHTO  H155 5202   4.303   5.522  -0.415 -0.3522 -0.6652 -0.4717
   13CHTO   O56 5203   4.207   5.513  -0.237 -0.4466  0.5754 -0.0089
   13CHTO  H135 5204   4.274   5.574  -0.214  1.7969 -0.7880 -2.7176
   13CHTO   C81 5205   4.133   5.389  -0.442 -0.2764  0.1878  0.2756
   13CHTO  H153 5206   4.178   5.348  -0.533 -0.4868  0.7057 -0.0641
   13CHTO   N14 5207   4.037   5.497  -0.490 -0.5052  0.2991 -0.1673
   13CHTO  H141 5208   3.966   5.462  -0.563 -1.1581  1.9563 -0.3497
   13CHTO  H142 5209   3.987   5.551  -0.413  0.1240 -0.2765  0.6526
   13CHTO   C79 5210   4.062   5.269  -0.363 -0.1428  0.4562  0.3072
   13CHTO  H151 5211   4.001   5.211  -0.432  0.6361 -1.6897  1.3817
   13CHTO   O52 5212   4.167   5.174  -0.319  0.1924  0.4524  0.2487
   13CHTO   C86 5213   4.273   5.229  -0.239 -0.1338  0.4835 -0.5286
   13CHTO  H158 5214   4.214   5.278  -0.159  1.2754  0.1386  0.7492
   13CHTO   C90 5215   4.355   5.123  -0.169  0.1053  0.2005  0.8566
   13CHTO   O60 5216   4.424   5.030  -0.253 -0.1586 -0.0414  0.1958
   13CHTO  H138 5217   4.485   5.077  -0.309 -0.3428 -1.0003 -0.8247
   13CHTO   O50 5218   3.976   5.302  -0.255  0.2573 -0.5009  0.5175
   13CHTO   C73 5219   3.843   5.272  -0.220  0.5716 -0.1962  0.0909
   13CHTO  H145 5220   3.799   5.214  -0.302  0.1942  0.8990 -0.4952
   13CHTO   C74 5221   3.759   5.405  -0.202 -0.1063 -1.1302 -0.2721
   13CHTO  H146 5222   3.767   5.458  -0.297  2.2526 -1.8451 -0.4854
   13CHTO   O54 5223   3.611   5.380  -0.184 -0.4436  0.1678  0.5723
   13CHTO  H133 5224   3.586   5.308  -0.239  2.2557 -0.7729  0.5065
   13CHTO   C75 5225   3.827   5.487  -0.079 -0.3670  0.1447  0.2137
   13CHTO  H147 5226   3.932   5.509  -0.104 -0.0225  0.2592  1.6778
   13CHTO   N13 5227   3.771   5.617  -0.035  0.2880  0.3774  0.1991
   13CHTO  H139 5228   3.851   5.689  -0.023  0.9054 -0.3088  0.1953
   13CHTO  H140 5229   3.710   5.624   0.054 -0.6185  1.5941 -0.4987
   13CHTO   C76 5230   3.843   5.386   0.050  0.6477  0.0603  0.4675
   13CHTO  H148 5231   3.744   5.354   0.082  0.5303  1.5256  1.5938
   13CHTO   O49 5232   3.919   5.264   0.016  0.2552  0.0917  0.4870
   13CHTO   C77 5233   3.849   5.189  -0.086  0.2969  0.3858  0.0128
   13CHTO  H149 5234   3.747   5.166  -0.057 -0.1590 -0.6722 -2.2671
   13CHTO   C88 5235   3.917   5.049  -0.100  0.1843  0.3776 -0.3703
   13CHTO   O58 5236   3.941   4.983   0.028  0.2200 -0.3798  0.2954
   13CHTO  H136 5237   3.976   5.035   0.097  2.2820 -1.6584  0.2635
   13CHTO   O51 5238   3.912   5.454   0.181 -0.3284  0.3465  0.6883
   13CHTO   C78 5239   4.085   5.459   0.203  0.7977  0.1300  0.1570
   13CHTO  H150 5240   4.101   5.486   0.310 -0.2200  0.7688  0.1428
   13CHTO   C80 5241   4.159   5.550   0.107 -0.7600 -0.0480 -0.7837
   13CHTO  H152 5242   4.149   5.516   0.001  2.5799  1.1750 -1.5588
   13CHTO   O55 5243   4.095   5.676   0.124 -0.1626 -0.0162  0.1690
   13CHTO  H134 5244   4.142   5.744   0.080  0.0924  0.8032  1.6516
   13CHTO   C84 5245   4.319   5.548   0.128  0.4790 -0.1376 -0.3770
   13CHTO  H156 5246   4.338   5.582   0.230  0.1203  2.3776 -1.1086
   13CHTO   N15 5247   4.394   5.646   0.042 -0.4866  0.7601 -0.2099
   13CHTO  H143 5248   4.330   5.727   0.012 -0.2380  0.6235 -1.1192
   13CHTO  H144 5249   4.446   5.603  -0.041  0.4047 -0.2775  0.8731
   13CHTO   C87 5250   4.372   5.404   0.118  0.4479  0.7410  0.1988
   13CHTO  H159 5251   4.367   5.372   0.014  0.0640 -1.2490  0.8176
   13CHTO   O53 5252   4.284   5.309   0.230 -0.3627 -0.7445 -0.1100
   13CHTO   C82 5253   4.145   5.316   0.193 -0.2319  0.4392 -0.9556
   13CHTO  H154 5254   4.129   5.273   0.094 -0.7026  1.3962 -1.3031
   13CHTO   C89 5255   4.058   5.226   0.285 -0.1864 -0.2181  0.6048
   13CHTO   O59 5256   4.103   5.093   0.254  0.2059 -0.3628  0.3082
   13CHTO  H137 5257   4.189   5.082   0.290  0.3962  0.7827  0.2298
   13CHTO   O45 5258   4.531   5.380   0.172 -0.1087  0.1011  0.3238
   13CHTO   C67 5259   4.580   5.254   0.131  0.0968 -0.4529 -0.4469
   13CHTO  H124 5260   4.503   5.193   0.084  0.1533 -1.2935  0.5250
   13CHTO   C65 5261   4.695   5.285   0.028 -0.1029  0.0622  0.8255
   13CHTO  H122 5262   4.658   5.359  -0.044  0.8489 -0.9632 -0.7537
   13CHTO   O44 5263   4.730   5.168  -0.044  0.2427 -0.1962 -0.0491
   13CHTO  H102 5264   4.652   5.141  -0.088  0.2188  0.1106 -0.2020
   13CHTO   C63 5265   4.805   5.363   0.097  0.2419 -0.6265  0.2529
   13CHTO  H120 5266   4.764   5.454   0.141  1.0882  0.5160 -1.2728
   13CHTO   N11 5267   4.900   5.425   0.004  0.3605  0.3435  0.8393
   13CHTO  H108 5268   4.875   5.528  -0.011  0.5482  0.0574 -1.7628
   13CHTO  H109 5269   4.994   5.424   0.055 -0.0993 -1.9693  1.6843
   13CHTO   C61 5270   4.870   5.277   0.206 -0.2479  0.0383  0.1116
   13CHTO  H118 5271   4.918   5.356   0.266 -1.4927 -0.1497  1.3763
   13CHTO   O40 5272   4.774   5.206   0.300  0.1190 -0.0901  0.0339
   13CHTO   C68 5273   4.643   5.171   0.249 -0.4718  0.6499  0.0217
   13CHTO  H125 5274   4.587   5.202   0.340  0.3502 -0.2122  0.8166
   13CHTO   C72 5275   4.614   5.018   0.240  0.3726  0.1161  0.4429
   13CHTO   O48 5276   4.596   4.948   0.358 -0.3649 -0.1015 -0.5728
   13CHTO  H105 5277   4.613   4.856   0.347  1.0500  0.3129 -2.0380
   13CHTO   O38 5278   4.954   5.168   0.160 -0.2247  0.4678  0.1707
   13CHTO   C55 5279   5.077   5.147   0.236 -0.7352 -0.1992 -0.3869
   13CHTO  H112 5280   5.141   5.078   0.180  1.3933  1.7871 -0.4798
   13CHTO   C56 5281   5.048   5.097   0.381 -0.0165 -0.3609 -0.0358
   13CHTO  H113 5282   4.974   5.165   0.425 -0.0080 -1.1491  1.2218
   13CHTO   O42 5283   4.978   4.969   0.370 -1.1320 -0.3241 -0.6585
   13CHTO  H100 5284   4.961   4.930   0.453  0.6401  0.2946  0.0135
   13CHTO   C57 5285   5.176   5.077   0.475 -0.2278 -0.2673  0.1566
   13CHTO  H114 5286   5.228   4.989   0.437  0.7014  0.5019 -0.3744
   13CHTO   N10 5287   5.152   5.045   0.616  0.0196  0.2788 -0.0270
   13CHTO  H106 5288   5.057   4.996   0.637 -0.7379  1.3613 -0.8886
   13CHTO  H107 5289   5.233   4.990   0.660  0.3555  0.5894 -0.2552
   13CHTO   C58 5290   5.274   5.202   0.467 -0.1009 -0.5420 -0.5408
   13CHTO  H115 5291   5.228   5.285   0.525 -0.3605 -1.8543  1.1667
   13CHTO   O37 5292   5.293   5.238   0.328 -0.2781  0.3471  0.0943
   13CHTO   C59 5293   5.172   5.271   0.251  0.4572  0.2986  0.1033
   13CHTO  H116 5294   5.114   5.346   0.306 -0.6870 -0.3337 -0.2098
   13CHTO   C70 5295   5.212   5.334   0.121 -0.3317  0.2776 -0.0612
   13CHTO   O46 5296   5.278   5.247   0.029  0.3352 -0.1409  0.0325
   13CHTO  H103 5297   5.227   5.171   0.013 -0.1188  0.0324  0.6310
   13CHTO   O39 5298   5.414   5.160   0.550  0.0510  0.6509  0.2578
   13CHTO   C60 5299   5.494   5.280   0.564  0.9564 -0.1217 -0.2109
   13CHTO  H117 5300   5.491   5.341   0.473 -1.7443  0.8137  0.4509
   13CHTO   C62 5301   5.442   5.368   0.678 -0.6580  0.2340 -0.1087
   13CHTO  H119 5302   5.340   5.395   0.646  0.0594  0.8260 -1.9518
   13CHTO   O43 5303   5.442   5.286   0.798 -0.2278 -0.4571 -0.8865
   13CHTO  H101 5304   5.363   5.309   0.842  1.3931  3.2581  0.3005
   13CHTO   C66 5305   5.531   5.498   0.693 -0.2793 -0.0722 -0.8409
   13CHTO  H123 5306   5.513   5.559   0.604  1.2684  0.5050 -0.7749
   13CHTO   N12 5307   5.490   5.584   0.810 -0.6357 -0.3690  0.1624
   13CHTO  H110 5308   5.467   5.517   0.891  0.7342 -0.0156  0.8718
   13CHTO  H111 5309   5.412   5.655   0.790 -1.5698 -1.0991  1.1983
   13CHTO   C69 5310   5.685   5.460   0.714 -0.7370 -0.9561  0.0033
   13CHTO  H126 5311   5.694   5.401   0.808  0.9117 -1.1420 -0.2729
   13CHTO   O41 5312   5.726   5.360   0.601  0.3897  0.1825  0.0566
   13CHTO   C64 5313   5.637   5.235   0.582 -0.3725  0.0216  0.8562
   13CHTO  H121 5314   5.646   5.176   0.675 -0.4444  0.5120  1.1764
   13CHTO   C71 5315   5.697   5.162   0.459  1.2745  0.1114  0.0063
   13CHTO   O47 5316   5.831   5.112   0.492 -0.3886 -0.5371  0.2686
   13CHTO  H104 5317   5.879   5.092   0.414  1.4122  2.2176  0.5866
   13CHTO   O34 5318   5.791   5.570   0.715  0.1790 -0.2612 -0.1471
   13CHTO   C49 5319   5.931   5.558   0.753 -0.3831  0.2988  0.1487
   13CHTO   H91 5320   5.966   5.459   0.726  1.8100 -0.1371  4.2478
   13CHTO   C47 5321   5.943   5.575   0.906 -0.2702 -0.3127 -0.2786
   13CHTO   H89 5322   6.046   5.539   0.924  0.5567  2.4584  0.7136
   13CHTO   O33 5323   5.852   5.484   0.979  0.5776  0.2307 -0.3180
   13CHTO   H70 5324   5.771   5.521   1.007  0.1442 -0.7378 -0.2645
   13CHTO   C45 5325   5.927   5.730   0.942  0.3694  0.2316 -0.2166
   13CHTO   H87 5326   5.822   5.745   0.972 -0.4015 -1.0552 -2.1808
   13CHTO    N8 5327   6.018   5.765   1.053  0.6619 -0.1130  0.2060
   13CHTO   H75 5328   6.091   5.688   1.075  1.1377  0.1700 -0.3748
   13CHTO   H76 5329   6.063   5.862   1.039 -1.7790  1.1489  0.8044
   13CHTO   C43 5330   5.940   5.833   0.817 -0.5184  0.9616  0.8339
   13CHTO   H85 5331   5.845   5.830   0.764 -1.3074  1.5850  2.1771
   13CHTO   O29 5332   6.050   5.784   0.733  0.3082 -0.0580  0.3493
   13CHTO   C50 5333   6.029   5.654   0.677  0.1439 -0.3381 -0.2617
   13CHTO   H92 5334   5.993   5.666   0.574  2.2467  1.3745 -0.8475
   13CHTO   C54 5335   6.167   5.573   0.646  0.1651  0.2350  0.1552
   13CHTO   O36 5336   6.229   5.631   0.532 -0.4274 -0.5157  0.0873
   13CHTO   H72 5337   6.253   5.560   0.476 -1.6084  1.3135 -2.8652
   13CHTO   O27 5338   5.966   5.969   0.857 -0.2038 -0.5054  0.3715
   13CHTO   C37 5339   5.888   6.085   0.860 -0.2053  0.4936 -1.0582
   13CHTO   H79 5340   5.791   6.066   0.812 -1.4513 -2.8744  2.5205
   13CHTO   C38 5341   5.843   6.125   1.007  0.8905  0.0384  0.2246
   13CHTO   H80 5342   5.933   6.139   1.068 -0.3032  4.9578  1.0644
   13CHTO   O31 5343   5.771   6.017   1.066  0.3301  0.0329  0.0114
   13CHTO   H68 5344   5.737   6.048   1.147 -0.5620 -2.3104  0.5650
   13CHTO   C39 5345   5.761   6.261   1.008  0.3744  0.0505 -0.3106
   13CHTO   H81 5346   5.667   6.238   0.958  0.5809 -2.7723  0.5227
   13CHTO    N7 5347   5.731   6.313   1.143  0.3769  0.8724 -0.6037
   13CHTO   H73 5348   5.624   6.310   1.153  0.4803 -0.6890  0.3093
   13CHTO   H74 5349   5.777   6.249   1.218 -1.9319 -1.2445 -0.9419
   13CHTO   C40 5350   5.838   6.364   0.923  0.1169 -0.2620 -0.5321
   13CHTO   H82 5351   5.930   6.393   0.975 -0.8440  2.5065 -0.3139
   13CHTO   O26 5352   5.866   6.319   0.794  0.1664  0.2489 -0.3328
   13CHTO   C41 5353   5.954   6.202   0.794 -0.1205 -0.6259  0.0948
   13CHTO   H83 5354   6.047   6.219   0.851  0.4050  0.2437 -0.9905
   13CHTO   C52 5355   5.996   6.175   0.639  0.1337 -0.6341  0.1052
   13CHTO   O35 5356   5.888   6.119   0.569  0.3633  0.3719 -0.3044
   13CHTO   H71 5357   5.835   6.193   0.545 -2.2800 -0.8966  1.3183
   13CHTO   O28 5358   5.765   6.486   0.895  0.1083 -0.1888 -0.3459
   13CHTO   C42 5359   5.841   6.615   0.853 -0.8278 -0.6891 -0.3657
   13CHTO   H84 5360   5.939   6.587   0.816 -1.0224 -1.0913 -0.5868
   13CHTO   C44 5361   5.867   6.711   0.978  0.3820  0.5388  0.2535
   13CHTO   H86 5362   5.775   6.710   1.038 -0.8273 -2.9665 -1.5337
   13CHTO   O32 5363   5.966   6.645   1.059  0.4494  0.3026 -0.3887
   13CHTO   H69 5364   5.985   6.696   1.136 -0.2749  1.4096 -0.9217
   13CHTO   C48 5365   5.899   6.861   0.940  0.6492  0.0448 -0.5093
   13CHTO   H90 5366   5.994   6.865   0.888  1.3089 -1.1020  0.5806
   13CHTO    N9 5367   5.928   6.948   1.059  0.1973  0.2949 -1.0166
   13CHTO   H77 5368   5.917   7.053   1.038 -0.8765  0.5667  0.8312
   13CHTO   H78 5369   5.862   6.918   1.140 -0.3587  1.4691 -1.0227
   13CHTO   C51 5370   5.793   6.905   0.831  0.0090  0.4994 -0.0865
   13CHTO   H93 5371   5.696   6.895   0.880  0.0654 -0.4145 -0.1622
   13CHTO   O30 5372   5.805   6.820   0.718  0.0439  0.3094 -0.0755
   13CHTO   C46 5373   5.768   6.685   0.735 -0.2589  0.2328  1.0266
   13CHTO   H88 5374   5.660   6.688   0.748 -0.5236 -1.6118 -0.5880
   13CHTO   C53 5375   5.801   6.615   0.598 -0.5090 -0.0686 -0.2625
   13CHTO   O72 5376   5.715   6.666   0.498  0.1175  0.9528  0.1680
   13CHTO  H199 5377   5.735   6.617   0.420  0.1516  0.5781  0.4082
   13CHTO   O22 5378   5.815   7.041   0.789 -0.4473  0.1177  0.0368
   13CHTO   C31 5379   5.708   7.118   0.719  0.6704  0.0551 -0.1286
   13CHTO   H59 5380   5.756   7.212   0.685  0.0812  1.6842  3.3069
   13CHTO   C29 5381   5.645   7.054   0.596  0.6310  0.4184  0.7006
   13CHTO   H57 5382   5.602   6.963   0.640 -3.4207  3.6598  3.8401
   13CHTO   O21 5383   5.750   7.021   0.502 -0.1034 -0.0266 -1.0387
   13CHTO   H37 5384   5.787   6.935   0.513  1.2056  0.5685 -0.7012
   13CHTO   C27 5385   5.529   7.132   0.530 -0.6810  0.0174  0.2269
   13CHTO   H55 5386   5.576   7.214   0.473  1.7162 -1.8685 -0.6502
   13CHTO    N5 5387   5.457   7.045   0.437  0.5519  0.2235  0.4274
   13CHTO   H43 5388   5.461   6.941   0.465 -2.1299 -0.2570 -0.8150
   13CHTO   H44 5389   5.470   7.064   0.331  2.7820  0.0130  0.6223
   13CHTO   C25 5390   5.433   7.199   0.633 -0.1020  0.0907 -0.2015
   13CHTO   H53 5391   5.362   7.128   0.677  0.4121  0.2907  0.9531
   13CHTO   O17 5392   5.501   7.257   0.750  0.0174  0.2561  0.0603
   13CHTO   C32 5393   5.595   7.168   0.819 -0.1650  0.5169  0.2726
   13CHTO   H60 5394   5.549   7.079   0.863  1.4232 -0.4953 -0.0519
   13CHTO   C36 5395   5.658   7.245   0.939 -0.2682 -0.9218 -0.1156
   13CHTO   O25 5396   5.749   7.352   0.901 -0.2334 -0.4538  0.1545
   13CHTO   H40 5397   5.801   7.329   0.826  1.1123  0.3963  0.8196
   13CHTO   O15 5398   5.347   7.313   0.555 -0.1880 -0.2651 -0.2505
   13CHTO   C19 5399   5.239   7.387   0.613  0.2718 -0.1814  0.7498
   13CHTO   H47 5400   5.247   7.388   0.723  1.8214  0.8748  0.6455
   13CHTO   C20 5401   5.236   7.533   0.578 -0.2332 -0.1507  0.3271
   13CHTO   H48 5402   5.239   7.550   0.469  1.0383  2.7026  0.7614
   13CHTO   O19 5403   5.358   7.594   0.624  0.1299  0.4023  0.3430
   13CHTO   H35 5404   5.428   7.584   0.564  0.7117 -1.7460  1.3363
   13CHTO   C21 5405   5.109   7.607   0.633  1.1286  0.2262 -0.0911
   13CHTO   H49 5406   5.119   7.604   0.742  0.7547 -1.1179 -0.0849
   13CHTO    N4 5407   5.097   7.745   0.591  0.0157 -0.7413  0.4310
   13CHTO   H41 5408   5.187   7.803   0.605 -0.2519 -0.4865  1.0965
   13CHTO   H42 5409   5.008   7.788   0.635 -0.9998 -0.4966 -1.8044
   13CHTO   C22 5410   4.982   7.532   0.595 -0.1553  0.4917 -0.3007
   13CHTO   H50 5411   4.969   7.534   0.487  0.5665 -1.5652 -0.4554
   13CHTO   O14 5412   4.994   7.393   0.631  0.1266  0.4342 -0.1903
   13CHTO   C23 5413   5.102   7.323   0.577 -0.2945 -0.5762  0.3720
   13CHTO   H51 5414   5.085   7.318   0.469  1.1801  0.3273  0.0839
   13CHTO   C34 5415   5.078   7.179   0.623 -0.0489 -0.0208 -0.4177
   13CHTO   O23 5416   5.141   7.079   0.539 -0.4556  0.7828 -0.4533
   13CHTO   H38 5417   5.077   7.024   0.499 -1.2731  0.3918  1.3483
   13CHTO   O16 5418   4.861   7.568   0.669  0.3496 -0.1892  0.3076
   13CHTO   C24 5419   4.714   7.591   0.584 -0.1394 -0.3991 -0.3080
   13CHTO   H52 5420   4.727   7.606   0.477  0.6078 -1.6646 -0.4089
   13CHTO   C26 5421   4.630   7.711   0.648 -0.4032  0.4469 -0.1777
   13CHTO   H54 5422   4.617   7.692   0.756  0.8099  0.4760 -0.0145
   13CHTO   O20 5423   4.715   7.827   0.647 -0.9351 -0.7213  0.0220
   13CHTO   H36 5424   4.671   7.898   0.689  1.1541  0.2392  0.6425
   13CHTO   C30 5425   4.492   7.723   0.572  0.0544 -0.3882  0.4096
   13CHTO   H58 5426   4.509   7.740   0.465 -1.8668  1.6687  0.4005
   13CHTO    N6 5427   4.420   7.843   0.622 -0.4826 -0.2615  0.1690
   13CHTO   H45 5428   4.422   7.840   0.730  1.6028  1.4572  0.1982
   13CHTO   H46 5429   4.475   7.927   0.582 -0.4142 -0.7067 -0.6668
   13CHTO   C33 5430   4.421   7.587   0.587  0.3180  0.6291  0.4634
   13CHTO   H61 5431   4.408   7.566   0.694  0.0206  1.0015  0.4977
   13CHTO   O18 5432   4.499   7.477   0.531 -0.1982 -0.5460 -0.5245
   13CHTO   C28 5433   4.625   7.459   0.597 -0.0278 -0.1552  0.0746
   13CHTO   H56 5434   4.609   7.436   0.702  1.2865  0.7979  0.5002
   13CHTO   C35 5435   4.691   7.339   0.528 -0.1111  0.5451 -0.5085
   13CHTO   O24 5436   4.764   7.358   0.409 -0.5335 -0.5235  0.4429
   13CHTO   H39 5437   4.778   7.280   0.359  1.6229  1.1273 -1.5942
   13CHTO    O9 5438   4.295   7.593   0.531  0.2603 -0.4787  0.2185
   13CHTO   C13 5439   4.184   7.484   0.579  0.5133  0.4622  0.0082
   13CHTO   H26 5440   4.233   7.403   0.637  2.3495  0.8978 -0.9267
   13CHTO   C11 5441   4.101   7.421   0.454  0.2620 -0.6793  0.7224
   13CHTO   H24 5442   4.179   7.372   0.393  0.1603  0.7821 -0.6060
   13CHTO    O8 5443   4.055   7.540   0.381  0.1109  0.6186 -0.6926
   13CHTO    H3 5444   4.131   7.592   0.363  2.1017 -2.7173 -2.1531
   13CHTO    C9 5445   3.994   7.316   0.499  0.3874  0.3941  0.2971
   13CHTO   H22 5446   4.052   7.226   0.528  0.1265 -0.4324 -1.6834
   13CHTO    N2 5447   3.908   7.266   0.393 -0.1712  0.2762 -0.1284
   13CHTO   H10 5448   3.967   7.205   0.326  2.0296 -0.6031  2.4997
   13CHTO   H11 5449   3.859   7.341   0.332 -0.5253 -0.2213 -0.4585
   13CHTO    C7 5450   3.925   7.371   0.634 -0.1712 -0.4081 -0.0961
   13CHTO   H20 5451   3.982   7.325   0.718  2.0115 -0.7327 -1.7368
   13CHTO    O4 5452   3.938   7.512   0.653 -0.3689  0.0353  0.8782
   13CHTO   C14 5453   4.077   7.552   0.672 -0.1454  0.0099 -0.9703
   13CHTO   H27 5454   4.097   7.525   0.778  1.9988 -0.1063 -1.3769
   13CHTO   C18 5455   4.081   7.712   0.668 -0.4983 -0.9378  0.0396
   13CHTO   O13 5456   4.002   7.783   0.567 -0.3601 -0.0444 -0.1414
   13CHTO    H7 5457   3.962   7.858   0.605 -0.4141 -0.6799  1.0687
   13CHTO    O2 5458   3.770   7.330   0.650 -0.1063  0.5287 -0.8589
   13CHTO    C1 5459   3.738   7.295   0.786  0.2077 -0.0605  0.4911
   13CHTO   H14 5460   3.819   7.338   0.848  2.1730  0.8013 -2.5292
   13CHTO    C2 5461   3.735   7.138   0.814 -0.0038 -0.3291 -1.0224
   13CHTO   H15 5462   3.640   7.095   0.780 -1.4056  1.7515  0.1545
   13CHTO    O6 5463   3.839   7.070   0.747  0.3176  0.3080 -0.3489
   13CHTO    H1 5464   3.835   7.070   0.653  1.5445 -2.6896 -0.4405
   13CHTO    C3 5465   3.740   7.120   0.974  1.0360 -0.5451 -0.6306
   13CHTO   H16 5466   3.835   7.156   1.017  2.5790 -4.2406 -0.7780
   13CHTO    N1 5467   3.740   6.979   1.024 -0.6983 -0.6200  0.1683
   13CHTO    H8 5468   3.762   6.980   1.129  1.0350  1.6143 -0.1734
   13CHTO    H9 5469   3.789   6.909   0.958  0.2127  0.6569 -0.5442
   13CHTO    C4 5470   3.621   7.205   1.042 -0.2091 -0.1004  0.0443
   13CHTO   H17 5471   3.524   7.159   1.021 -0.3467  0.5215 -0.6902
   13CHTO    O1 5472   3.618   7.344   0.996 -0.1591 -0.0964  0.3612
   13CHTO    C5 5473   3.607   7.352   0.851 -0.1123 -0.1219  0.1828
   13CHTO   H18 5474   3.520   7.294   0.822  0.9328 -0.3482 -2.6508
   13CHTO   C16 5475   3.591   7.502   0.816 -0.3915  0.0276 -0.0846
   13CHTO   O11 5476   3.674   7.584   0.897 -0.1186  0.1530 -1.0298
   13CHTO    H5 5477   3.670   7.557   0.986 -0.0732 -1.3823 -1.4767
   13CHTO    O3 5478   3.636   7.215   1.188 -0.2272 -0.5420  0.3095
   13CHTO    C6 5479   3.512   7.219   1.263  1.1310 -0.0872 -0.2802
   13CHTO   H19 5480   3.427   7.246   1.200  1.1087 -1.9687 -1.1042
   13CHTO    C8 5481   3.484   7.073   1.325  0.0038 -0.0446 -0.6908
   13CHTO   H21 5482   3.576   7.038   1.372  0.4807 -0.2574 -1.7672
   13CHTO    O7 5483   3.441   6.991   1.217  0.1378  0.1298 -0.0836
   13CHTO    H2 5484   3.401   6.911   1.244  0.3428  0.2443  0.5646
   13CHTO   C12 5485   3.376   7.076   1.444 -0.6231 -0.7926 -0.1098
   13CHTO   H25 5486   3.279   7.098   1.393 -0.0796  1.1614 -0.3251
   13CHTO    N3 5487   3.352   6.948   1.511 -0.0393 -0.1037 -0.0978
   13CHTO   H12 5488   3.282   6.956   1.592 -1.1141  1.2385 -1.1271
   13CHTO   H13 5489   3.296   6.893   1.436 -0.3531  0.9960 -0.6787
   13CHTO   C15 5490   3.410   7.197   1.551 -0.8140 -0.3799  0.7920
   13CHTO   H28 5491   3.498   7.172   1.611  0.2008 -1.9214 -1.3063
   13CHTO   O10 5492   3.291   7.226   1.653 -0.0697 -0.0055 -0.0822
   13CHTO    H4 5493   3.256   7.149   1.692 -0.5038 -0.0227 -0.5015
   13CHTO    O5 5494   3.422   7.323   1.473 -0.0739  0.4719 -0.1015
   13CHTO   C10 5495   3.525   7.334   1.372  0.7070 -0.3368 -0.6400
   13CHTO   H23 5496   3.627   7.339   1.411  0.9338  1.9828 -1.4060
   13CHTO   C17 5497   3.503   7.470   1.303  0.0269  0.5832  0.7157
   13CHTO   O12 5498   3.639   7.508   1.255  0.5033 -0.1295 -0.2495
   13CHTO    H6 5499   3.648   7.466   1.172 -1.3534 -0.0597 -0.5054
   14CHTO  H203 5500   6.088   4.515   3.109 -0.1826  0.2117  1.9393
   14CHTO   O82 5501   6.140   4.584   3.073 -0.8656 -0.3567 -0.2402
   14CHTO  C123 5502   6.062   4.675   2.988  0.1587 -0.1440 -0.0447
   14CHTO  H227 5503   6.129   4.747   2.940  1.0289 -0.9931 -0.1152
   14CHTO   O77 5504   5.996   4.598   2.883 -0.5720  0.1784  0.2353
   14CHTO  C118 5505   5.903   4.674   2.795  0.0476  0.1419 -0.3616
   14CHTO  H222 5506   5.940   4.764   2.744  0.4287 -0.0988 -0.5168
   14CHTO  C125 5507   5.855   4.570   2.684 -0.2340 -0.4044 -0.1953
   14CHTO   O84 5508   5.977   4.520   2.621  0.2149 -0.1762 -0.1568
   14CHTO  H205 5509   5.988   4.585   2.554 -0.5738  0.8276  0.6799
   14CHTO  C114 5510   5.785   4.715   2.880  0.3784  0.1455 -0.2198
   14CHTO  H218 5511   5.754   4.626   2.936  0.4477  1.7296  2.4095
   14CHTO  C116 5512   5.827   4.801   2.999  0.6354 -0.5107  0.2176
   14CHTO  H220 5513   5.851   4.902   2.959 -1.7088  0.1470  0.4023
   14CHTO   O79 5514   5.720   4.817   3.097  0.2307  0.0357 -0.3760
   14CHTO  H201 5515   5.764   4.831   3.179  0.8331 -0.9618 -0.5247
   14CHTO  C120 5516   5.956   4.745   3.080  0.4416 -0.6609 -0.4129
   14CHTO  H224 5517   5.916   4.665   3.146 -0.0396 -0.8084 -0.8798
   14CHTO   N21 5518   6.019   4.843   3.174 -0.2687 -0.8652  0.7104
   14CHTO  H211 5519   6.076   4.799   3.255  0.8863 -1.2666 -0.3151
   14CHTO  H212 5520   5.958   4.926   3.209 -1.2629 -0.1130 -2.6639
   14CHTO   O75 5521   5.684   4.774   2.789  0.6065  0.3220  0.4314
   14CHTO  C112 5522   5.540   4.736   2.855  0.1576 -0.3468 -0.2336
   14CHTO  H216 5523   5.551   4.740   2.965  0.7877  1.6513 -0.3381
   14CHTO   O73 5524   5.509   4.602   2.811 -0.0566  0.7310 -0.3167
   14CHTO  C113 5525   5.379   4.544   2.828 -0.4577 -0.2766 -0.0269
   14CHTO  H217 5526   5.347   4.541   2.935 -1.7446 -1.4733 -0.4349
   14CHTO  C124 5527   5.375   4.400   2.770  0.2015  0.0894 -0.0274
   14CHTO   O83 5528   5.488   4.325   2.822  0.1506  0.3817 -0.0719
   14CHTO  H204 5529   5.463   4.236   2.806 -1.9896  1.2916 -2.1413
   14CHTO  C109 5530   5.276   4.636   2.762  0.3452  0.6425  0.1076
   14CHTO  H213 5531   5.302   4.641   2.655 -0.9586 -1.1807 -0.3105
   14CHTO  C110 5532   5.284   4.771   2.833  0.0210  0.3266 -0.7491
   14CHTO  H214 5533   5.261   4.767   2.939  0.3129  0.0768 -0.6929
   14CHTO   O78 5534   5.179   4.848   2.776 -0.1010  0.0370 -0.1860
   14CHTO  H200 5535   5.167   4.920   2.835 -0.7417 -0.4498  0.2835
   14CHTO  C111 5536   5.424   4.834   2.809 -0.5804  0.4917  0.4132
   14CHTO  H215 5537   5.442   4.843   2.701  0.4951 -3.3718  0.1880
   14CHTO   N19 5538   5.454   4.965   2.863  0.3292 -0.1908  0.3343
   14CHTO  H207 5539   5.422   4.975   2.966  1.3101  1.7892  0.4487
   14CHTO  H208 5540   5.554   5.000   2.848  0.9954 -2.0151  0.3496
   14CHTO   O74 5541   5.143   4.590   2.777  0.0249  0.5882 -0.4283
   14CHTO  C115 5542   5.049   4.618   2.639  0.4077  0.5358 -0.1941
   14CHTO  H219 5543   5.079   4.711   2.592 -0.7132  2.1239  2.1523
   14CHTO   O76 5544   5.062   4.516   2.536  0.0003  0.2516 -0.4621
   14CHTO  C122 5545   4.986   4.395   2.543  0.0720  0.2074 -0.1684
   14CHTO  H226 5546   5.030   4.328   2.617  1.0987  1.4110  0.3419
   14CHTO  C126 5547   4.980   4.315   2.410  0.7136  0.4109 -0.1212
   14CHTO   O85 5548   4.934   4.385   2.292 -0.2263 -0.0258  0.6289
   14CHTO  H206 5549   5.004   4.443   2.268 -1.1236  0.8401  0.0140
   14CHTO  C121 5550   4.835   4.415   2.588 -0.2084  1.2055  0.2043
   14CHTO  H225 5551   4.768   4.366   2.514  2.8669 -0.0670 -1.8365
   14CHTO   O81 5552   4.817   4.363   2.719 -0.0925 -0.3817 -0.2642
   14CHTO  H202 5553   4.881   4.299   2.740 -0.4370 -0.3563  0.8912
   14CHTO  C119 5554   4.797   4.560   2.596 -0.2553 -0.7368  0.7085
   14CHTO  H223 5555   4.821   4.614   2.505  2.8863  0.7278  2.3297
   14CHTO  C117 5556   4.896   4.636   2.698  0.6970  0.1817  0.7921
   14CHTO  H221 5557   4.899   4.589   2.796 -1.6198 -1.2637  0.2162
   14CHTO   N20 5558   4.860   4.783   2.732 -0.7957  0.0055 -0.2550
   14CHTO  H209 5559   4.917   4.812   2.819  0.9294  0.1178 -1.4112
   14CHTO  H210 5560   4.894   4.853   2.658 -0.8925  0.1736 -0.1400
   14CHTO   O80 5561   4.651   4.580   2.603  0.5450 -0.0034  0.2153
   14CHTO  C103 5562   4.564   4.658   2.480  0.7051  0.1079  0.0354
   14CHTO  H190 5563   4.596   4.762   2.468  2.3216 -0.4439 -0.6737
   14CHTO  C101 5564   4.566   4.598   2.331  0.0214 -0.8417  0.5142
   14CHTO  H188 5565   4.527   4.497   2.330 -2.1836 -0.0133  0.0648
   14CHTO   O68 5566   4.708   4.588   2.282 -0.8598 -0.2818 -0.2195
   14CHTO  H168 5567   4.758   4.667   2.293  1.3698 -1.7118  0.1928
   14CHTO   C99 5568   4.467   4.681   2.232 -0.2819  0.6719  1.1175
   14CHTO  H186 5569   4.494   4.788   2.228 -1.7334  0.9937 -0.8004
   14CHTO   N17 5570   4.475   4.616   2.099 -0.4735  0.2716  0.9165
   14CHTO  H174 5571   4.541   4.532   2.084 -0.3536  0.2653  1.4918
   14CHTO  H175 5572   4.377   4.613   2.053 -0.8379 -0.3154  1.7391
   14CHTO   C97 5573   4.324   4.680   2.294  0.3437 -0.0833 -0.9480
   14CHTO  H184 5574   4.294   4.574   2.303 -1.0228  0.3841  0.3236
   14CHTO   O64 5575   4.337   4.741   2.419  0.1922 -0.3575 -0.2687
   14CHTO  C104 5576   4.409   4.667   2.519  0.5036 -0.2563  0.3453
   14CHTO  H191 5577   4.366   4.567   2.526 -1.6859  0.6710  0.4669
   14CHTO  C108 5578   4.389   4.731   2.656  0.5093  0.0884 -0.1023
   14CHTO   O71 5579   4.244   4.741   2.682 -0.1580  0.1025  0.2164
   14CHTO  H171 5580   4.227   4.798   2.754  1.8476  0.3481  0.5252
   14CHTO   O62 5581   4.225   4.742   2.209 -0.4314  0.5561  0.0647
   14CHTO   C91 5582   4.083   4.701   2.208 -0.0377 -0.1083  0.1656
   14CHTO  H178 5583   4.078   4.596   2.237 -0.2441 -0.6983 -1.9082
   14CHTO   C92 5584   4.023   4.705   2.069 -0.7982 -0.0046 -0.3894
   14CHTO  H179 5585   4.076   4.646   1.993 -1.3615 -0.7793 -0.1847
   14CHTO   O66 5586   3.898   4.636   2.072 -0.2104  0.1888 -0.2554
   14CHTO  H166 5587   3.918   4.550   2.102 -1.1439 -0.0361 -0.2515
   14CHTO   C93 5588   3.997   4.848   2.021  0.3092 -0.1122  0.5169
   14CHTO  H180 5589   3.934   4.832   1.933  0.6211  1.1562  0.0489
   14CHTO   N16 5590   4.118   4.917   1.968 -0.5395  0.2133 -0.5834
   14CHTO  H172 5591   4.209   4.861   1.985 -1.4267 -0.9351  0.5061
   14CHTO  H173 5592   4.099   4.951   1.867 -1.5760  1.1818 -0.0684
   14CHTO   C94 5593   3.915   4.932   2.124 -0.6861 -0.2390  0.2305
   14CHTO  H181 5594   3.970   5.023   2.150 -2.8541  0.6415  1.8781
   14CHTO   O61 5595   3.889   4.866   2.246 -0.5853  0.3861 -0.0769
   14CHTO   C95 5596   3.999   4.784   2.308 -0.2589 -0.5060  0.2395
   14CHTO  H182 5597   4.065   4.851   2.363 -1.4536 -0.6491  1.8745
   14CHTO  C106 5598   3.929   4.693   2.408 -0.2559 -0.8798  0.4622
   14CHTO   O69 5599   3.994   4.660   2.530 -0.0607 -0.3882  0.0961
   14CHTO  H169 5600   4.025   4.732   2.581  0.0675 -1.3718  1.4608
   14CHTO   O63 5601   3.770   4.986   2.055 -0.3213  0.2189  0.0937
   14CHTO   C96 5602   3.709   5.121   2.125 -0.1926  0.4761  0.0155
   14CHTO  H183 5603   3.757   5.147   2.220 -1.4505 -1.4395  1.2146
   14CHTO   C98 5604   3.557   5.115   2.156 -0.3578 -0.3101 -0.4198
   14CHTO  H185 5605   3.499   5.078   2.070 -1.0980  0.8714 -0.4394
   14CHTO   O67 5606   3.542   5.012   2.249  0.3321  0.3313 -0.4666
   14CHTO  H167 5607   3.451   5.007   2.273  0.8171 -0.4636  1.2898
   14CHTO  C102 5608   3.499   5.254   2.213 -0.1237 -0.4980 -0.2788
   14CHTO  H189 5609   3.526   5.255   2.320 -0.0994 -0.9688 -0.2779
   14CHTO   N18 5610   3.349   5.253   2.212  0.3587  0.6417 -0.0255
   14CHTO  H176 5611   3.306   5.336   2.160  2.9912  1.9802 -0.1426
   14CHTO  H177 5612   3.297   5.241   2.306  0.2160  0.1032 -0.1672
   14CHTO  C105 5613   3.557   5.381   2.145  0.2421  0.0333  0.3561
   14CHTO  H192 5614   3.523   5.401   2.044  3.3924 -1.8220 -1.1309
   14CHTO   O65 5615   3.691   5.362   2.111 -0.7210  0.2280 -0.4919
   14CHTO  C100 5616   3.725   5.245   2.033  0.2949 -0.0317  0.4161
   14CHTO  H187 5617   3.652   5.239   1.950  1.5071  0.0345 -0.6592
   14CHTO  C107 5618   3.868   5.261   1.988  0.0249 -0.8447 -0.0251
   14CHTO   O70 5619   3.899   5.183   1.871  0.2230 -0.3297  0.4195
   14CHTO  H170 5620   3.836   5.196   1.802 -2.0177 -0.0466  2.4171
   14CHTO   O57 5621   3.535   5.510   2.241 -0.2223 -0.5539 -0.0944
   14CHTO   C85 5622   3.516   5.640   2.174 -0.3467  0.3165  0.0058
   14CHTO  H157 5623   3.419   5.632   2.120  0.0815  1.8001 -1.0079
   14CHTO   C83 5624   3.628   5.670   2.075  0.0724  0.9737  0.6276
   14CHTO  H155 5625   3.620   5.596   1.994  0.3001  0.3671  1.1487
   14CHTO   O56 5626   3.753   5.641   2.141  0.2067  0.5386  0.6675
   14CHTO  H135 5627   3.786   5.712   2.193  1.0327 -1.0220  2.2944
   14CHTO   C81 5628   3.628   5.810   2.010 -0.5449  0.0313  0.8624
   14CHTO  H153 5629   3.546   5.810   1.938 -0.9217  0.9145  1.2806
   14CHTO   N14 5630   3.750   5.837   1.919 -1.0685 -0.1127  0.6180
   14CHTO  H141 5631   3.731   5.783   1.828  0.5132 -0.4643  0.4850
   14CHTO  H142 5632   3.753   5.941   1.896  1.0131 -0.6047 -1.5411
   14CHTO   C79 5633   3.606   5.924   2.117  0.1803 -0.3902 -0.4126
   14CHTO  H151 5634   3.579   6.014   2.063  1.1351  0.6946  0.8629
   14CHTO   O52 5635   3.501   5.895   2.215 -0.5286  0.2128  0.3522
   14CHTO   C86 5636   3.515   5.763   2.271  0.8274 -0.3436 -0.3421
   14CHTO  H158 5637   3.609   5.758   2.330  0.6272  0.4567  0.0467
   14CHTO   C90 5638   3.401   5.756   2.379 -0.3805 -0.0371  0.1932
   14CHTO   O60 5639   3.427   5.851   2.483  0.0420 -0.3715  0.8543
   14CHTO  H138 5640   3.422   5.934   2.440  0.6451  0.2360  1.9400
   14CHTO   O50 5641   3.728   5.951   2.184  0.0139 -0.2987 -0.2915
   14CHTO   C73 5642   3.772   6.041   2.288  0.3698 -0.3304  0.0383
   14CHTO  H145 5643   3.696   6.035   2.367 -2.1141  0.3488 -2.2474
   14CHTO   C74 5644   3.780   6.190   2.234  0.2532  0.3035 -1.3224
   14CHTO  H146 5645   3.677   6.208   2.200 -0.6403 -0.5572  0.8540
   14CHTO   O54 5646   3.816   6.277   2.339 -0.1718 -0.0278  0.2290
   14CHTO  H133 5647   3.849   6.356   2.301 -2.8938  1.0695  0.0177
   14CHTO   C75 5648   3.883   6.187   2.115  0.1909 -0.2176 -0.2672
   14CHTO  H147 5649   3.847   6.120   2.035  0.6176  0.1118 -0.7380
   14CHTO   N13 5650   3.912   6.316   2.052 -0.2645  0.1178 -0.4471
   14CHTO  H139 5651   3.838   6.394   2.065  0.1249  0.2438  1.1047
   14CHTO  H140 5652   3.936   6.301   1.948 -0.6243 -1.1663 -0.3483
   14CHTO   C76 5653   4.025   6.119   2.158 -0.1277 -0.3111  0.0826
   14CHTO  H148 5654   4.080   6.180   2.230 -0.6879  1.0335 -0.5985
   14CHTO   O49 5655   4.004   6.000   2.234 -0.0836  0.3219  0.3096
   14CHTO   C77 5656   3.914   6.001   2.340 -0.2244 -0.2611  1.5102
   14CHTO  H149 5657   3.948   6.072   2.415  0.8550  2.4578 -1.4598
   14CHTO   C88 5658   3.918   5.869   2.416  0.4740  0.7007  0.1594
   14CHTO   O58 5659   4.042   5.826   2.453  0.1979  0.0698 -0.4652
   14CHTO  H136 5660   4.062   5.753   2.397  0.4304  0.7802 -1.3224
   14CHTO   O51 5661   4.125   6.088   2.030  0.2743  0.6149 -0.0618
   14CHTO   C78 5662   4.272   6.114   2.044 -0.1564 -1.3850 -0.4927
   14CHTO  H150 5663   4.295   6.161   2.142 -3.0531  0.9088 -0.8437
   14CHTO   C80 5664   4.307   6.205   1.928 -0.4122  0.3197 -0.2826
   14CHTO  H152 5665   4.275   6.154   1.836 -0.9324  1.9570 -1.0278
   14CHTO   O55 5666   4.238   6.334   1.959  0.6199  0.1725 -0.1979
   14CHTO  H134 5667   4.280   6.381   2.028  1.3960  3.8263 -3.0265
   14CHTO   C84 5668   4.462   6.231   1.914  0.4294  0.4482 -0.3265
   14CHTO  H156 5669   4.479   6.290   2.004 -2.4097  4.0336 -2.0030
   14CHTO   N15 5670   4.507   6.310   1.790  0.0018  0.1137 -0.0493
   14CHTO  H143 5671   4.421   6.337   1.732  1.7803 -0.5829 -3.0675
   14CHTO  H144 5672   4.578   6.264   1.725 -0.8230  2.2795 -2.5604
   14CHTO   C87 5673   4.531   6.094   1.916  0.1207 -0.3155 -0.2595
   14CHTO  H159 5674   4.495   6.038   1.830 -0.4411 -2.9432  1.5866
   14CHTO   O53 5675   4.485   6.018   2.041 -0.5574  0.6227  0.2433
   14CHTO   C82 5676   4.346   5.986   2.038  0.1083  0.4316 -0.6721
   14CHTO  H154 5677   4.323   5.934   1.945 -1.0351 -1.5193  0.6623
   14CHTO   C89 5678   4.315   5.891   2.158 -0.1336  0.3621 -0.1381
   14CHTO   O59 5679   4.366   5.758   2.118  0.0475  0.4091 -0.1620
   14CHTO  H137 5680   4.438   5.761   2.057  0.2310 -0.9680 -0.0334
   14CHTO   O45 5681   4.699   6.098   1.901 -0.5384 -0.9176  0.4750
   14CHTO   C67 5682   4.756   5.968   1.894  0.3116  0.3770  0.0886
   14CHTO  H124 5683   4.672   5.898   1.889 -0.2977  1.1727 -0.9675
   14CHTO   C65 5684   4.843   5.962   1.763  0.0399 -0.2833  0.2923
   14CHTO  H122 5685   4.778   5.997   1.683  1.2246  1.1345 -0.0725
   14CHTO   O44 5686   4.873   5.822   1.736  0.5082 -0.2228 -0.0117
   14CHTO  H102 5687   4.929   5.825   1.661 -0.7951 -0.3645 -1.0273
   14CHTO   C63 5688   4.965   6.057   1.785  0.1432  1.0828 -0.2458
   14CHTO  H120 5689   4.930   6.154   1.818 -1.3055  0.5372 -0.1482
   14CHTO   N11 5690   5.047   6.088   1.662 -0.1787  0.0118  0.3513
   14CHTO  H108 5691   5.103   6.175   1.690  0.5206 -0.0389 -0.8424
   14CHTO  H109 5692   5.123   6.015   1.645  0.9014  1.5750 -1.7259
   14CHTO   C61 5693   5.046   6.000   1.909  0.2149 -0.4126  0.4443
   14CHTO  H118 5694   5.130   6.068   1.927  0.0003  0.4434 -1.6542
   14CHTO   O40 5695   4.966   6.003   2.025  0.6080  0.0903 -0.3630
   14CHTO   C68 5696   4.840   5.935   2.022 -0.1759 -0.5185 -0.8616
   14CHTO  H125 5697   4.782   5.976   2.108 -1.7494 -2.4816 -0.9542
   14CHTO   C72 5698   4.852   5.789   2.043  0.0464 -0.1965  0.7669
   14CHTO   O48 5699   4.926   5.739   2.153 -0.0927  0.0847 -0.5474
   14CHTO  H105 5700   4.948   5.648   2.151  1.6573  0.5184 -2.2526
   14CHTO   O38 5701   5.104   5.866   1.892  0.0453  0.5015  0.2054
   14CHTO   C55 5702   5.239   5.847   1.845 -0.5255 -0.0358  0.3958
   14CHTO  H112 5703   5.292   5.936   1.809  0.1374 -1.1510 -1.4382
   14CHTO   C56 5704   5.231   5.736   1.733  0.0673  0.0008 -0.4977
   14CHTO  H113 5705   5.180   5.648   1.774 -1.0542 -0.5296 -2.9297
   14CHTO   O42 5706   5.155   5.793   1.622  0.2285 -0.1265  0.5618
   14CHTO  H100 5707   5.100   5.727   1.585  1.4048  0.3365 -2.1136
   14CHTO   C57 5708   5.379   5.701   1.689 -0.7669  0.2193  0.5643
   14CHTO  H114 5709   5.428   5.788   1.645  0.6182 -0.7290  0.2118
   14CHTO   N10 5710   5.380   5.597   1.580  0.0418  0.1506  0.3563
   14CHTO  H106 5711   5.453   5.629   1.507  0.6551 -2.4738 -0.2356
   14CHTO  H107 5712   5.408   5.497   1.610  1.8094  0.4023 -0.3860
   14CHTO   C58 5713   5.466   5.658   1.810  0.3576  0.6718 -0.1031
   14CHTO  H115 5714   5.430   5.562   1.853  0.0154  0.3037 -1.1810
   14CHTO   O37 5715   5.462   5.760   1.906  0.2453  0.0147  0.8408
   14CHTO   C59 5716   5.329   5.785   1.961 -0.6532  0.1590  0.0834
   14CHTO  H116 5717   5.281   5.692   1.992 -2.1231 -0.0912 -2.7571
   14CHTO   C70 5718   5.337   5.885   2.079 -0.6441  0.0903  0.5901
   14CHTO   O46 5719   5.230   5.873   2.174 -0.5044 -0.0259  0.2927
   14CHTO  H103 5720   5.270   5.902   2.253 -0.7223  0.2959  0.2876
   14CHTO   O39 5721   5.635   5.643   1.761  0.0733 -0.0699  0.3152
   14CHTO   C60 5722   5.706   5.569   1.860 -0.0949  0.0192  0.1216
   14CHTO  H117 5723   5.690   5.604   1.962 -0.4628 -4.6862  1.7877
   14CHTO   C62 5724   5.660   5.418   1.867  0.2353  0.0431  0.3084
   14CHTO  H119 5725   5.553   5.406   1.895  0.8498 -0.6627  2.4348
   14CHTO   O43 5726   5.678   5.367   1.737 -0.1414  0.0088 -0.1610
   14CHTO  H101 5727   5.766   5.340   1.719 -0.4204  0.7283 -2.8390
   14CHTO   C66 5728   5.748   5.341   1.979  0.7056 -0.8070  0.5056
   14CHTO  H123 5729   5.725   5.391   2.073  0.7275 -0.1371  0.1592
   14CHTO   N12 5730   5.721   5.192   1.997 -0.7140  0.2798 -0.6079
   14CHTO  H110 5731   5.620   5.176   2.031  0.1731 -1.2645  1.4471
   14CHTO  H111 5732   5.740   5.125   1.914  0.0770 -2.1719  1.4831
   14CHTO   C69 5733   5.895   5.358   1.935 -0.4661  0.7094 -0.3126
   14CHTO  H126 5734   5.920   5.323   1.833  1.3283  0.6086  0.1451
   14CHTO   O41 5735   5.936   5.521   1.930  0.5059  0.0453  0.2832
   14CHTO   C64 5736   5.860   5.588   1.830 -0.7075  0.0803 -0.1835
   14CHTO  H121 5737   5.893   5.553   1.731  0.7572  0.2160  0.2484
   14CHTO   C71 5738   5.893   5.736   1.846  0.3294 -0.3125  0.6088
   14CHTO   O47 5739   6.038   5.756   1.858 -0.6026 -0.2158  0.0919
   14CHTO  H104 5740   6.068   5.832   1.812  0.2855 -0.1061  0.8384
   14CHTO   O34 5741   5.997   5.292   2.035 -0.0866 -0.1035  0.3810
   14CHTO   C49 5742   6.163   5.301   2.050 -0.5452  1.7366 -0.1780
   14CHTO   H91 5743   6.193   5.226   1.976 -0.3545  2.0260 -0.3933
   14CHTO   C47 5744   6.205   5.266   2.197  0.5165 -0.2265  0.1622
   14CHTO   H89 5745   6.312   5.238   2.182  0.7216  0.3948  0.4581
   14CHTO   O33 5746   6.139   5.150   2.243  0.2462  0.0167  0.0177
   14CHTO   H70 5747   6.049   5.174   2.254  0.6462  1.6834 -0.2379
   14CHTO   C45 5748   6.188   5.391   2.309  0.5884  0.6768 -0.3936
   14CHTO   H87 5749   6.095   5.356   2.356  0.3324  0.3334 -1.1489
   14CHTO    N8 5750   6.292   5.391   2.419  0.0162  0.0047  0.2895
   14CHTO   H75 5751   6.386   5.342   2.401 -0.1503 -0.6838  1.2152
   14CHTO   H76 5752   6.311   5.493   2.449  0.9577 -0.4121  1.1550
   14CHTO   C43 5753   6.164   5.521   2.221  0.1270 -0.7523 -0.8930
   14CHTO   H85 5754   6.060   5.525   2.189  0.5688  1.5334 -2.1372
   14CHTO   O29 5755   6.258   5.526   2.112  0.2453 -0.5791 -0.2077
   14CHTO   C50 5756   6.228   5.431   2.009  0.1591  0.4731  0.2595
   14CHTO   H92 5757   6.167   5.479   1.932  0.9219  0.1821 -0.5336
   14CHTO   C54 5758   6.355   5.392   1.932 -0.0416 -0.5035 -0.5745
   14CHTO   O36 5759   6.409   5.503   1.875 -0.1207 -0.1896  0.1728
   14CHTO   H72 5760   6.473   5.533   1.937  0.7562 -0.1489 -0.7354
   14CHTO   O27 5761   6.178   5.641   2.299  0.2171  0.1678  0.0203
   14CHTO   C37 5762   6.128   5.775   2.329 -0.2162  0.0593 -0.5067
   14CHTO   H79 5763   6.211   5.820   2.385 -1.0597  0.7703  0.1588
   14CHTO   C38 5764   6.105   5.856   2.197 -0.2653  0.1556 -0.1263
   14CHTO   H80 5765   6.042   5.797   2.129  0.5053 -0.1003 -0.6255
   14CHTO   O31 5766   6.229   5.883   2.128 -0.0451 -0.1309  0.2089
   14CHTO   H68 5767   6.291   5.816   2.148  0.2414 -0.2571 -1.0420
   14CHTO   C39 5768   6.021   5.986   2.212 -0.3305 -0.4047  0.0755
   14CHTO   H81 5769   6.091   6.058   2.253  0.8568 -1.7408  0.4538
   14CHTO    N7 5770   5.977   6.053   2.086  0.0300  0.3703  0.7841
   14CHTO   H73 5771   5.899   5.987   2.050  0.2888  0.3428  0.2685
   14CHTO   H74 5772   6.061   6.036   2.021  1.0269 -0.4571  2.2624
   14CHTO   C40 5773   5.908   5.969   2.320 -1.0922 -0.1449  0.7566
   14CHTO   H82 5774   5.827   5.909   2.277  0.1714 -0.9083 -0.5770
   14CHTO   O26 5775   5.965   5.903   2.437  0.0363 -0.3680  0.4164
   14CHTO   C41 5776   6.006   5.770   2.418  0.2800 -0.3815 -0.7698
   14CHTO   H83 5777   5.928   5.714   2.365  0.9144 -1.5299 -0.5339
   14CHTO   C52 5778   6.030   5.706   2.556  0.0720  0.2277 -0.8681
   14CHTO   O35 5779   5.926   5.589   2.573 -0.7828 -0.0135 -0.0073
   14CHTO   H71 5780   5.870   5.610   2.646 -1.5591 -2.0212  0.0007
   14CHTO   O28 5781   5.870   6.092   2.379  0.1808  0.1951  0.4729
   14CHTO   C42 5782   5.744   6.104   2.435  0.2224 -0.3788  0.5609
   14CHTO   H84 5783   5.752   6.208   2.468 -2.1256 -0.5773  1.9312
   14CHTO   C44 5784   5.704   6.024   2.564  0.4081  0.0559  0.2188
   14CHTO   H86 5785   5.696   5.919   2.534  2.3227 -0.0076 -0.1471
   14CHTO   O32 5786   5.818   6.042   2.648  0.2817 -0.2591  0.2678
   14CHTO   H69 5787   5.816   5.976   2.714  0.8165 -2.7856 -2.1433
   14CHTO   C48 5788   5.560   6.076   2.620 -0.1025 -0.5133 -0.5846
   14CHTO   H90 5789   5.570   6.180   2.652  0.0535 -0.5701 -0.4458
   14CHTO    N9 5790   5.530   6.005   2.751  0.5393  0.1553  0.3557
   14CHTO   H77 5791   5.453   6.055   2.808  0.4641 -2.3199  2.4956
   14CHTO   H78 5792   5.623   5.992   2.804  0.7982 -0.4352 -0.2428
   14CHTO   C51 5793   5.457   6.049   2.504 -1.1684  0.6661 -0.1500
   14CHTO   H93 5794   5.456   5.943   2.479  0.1861  1.0107 -1.7158
   14CHTO   O30 5795   5.488   6.134   2.393 -0.2820  0.5080  0.2712
   14CHTO   C46 5796   5.628   6.090   2.335  0.0118 -0.1271  0.5202
   14CHTO   H88 5797   5.633   5.989   2.295  0.0835 -0.2078  0.7374
   14CHTO   C53 5798   5.648   6.192   2.220 -0.6303  0.2349  0.2232
   14CHTO   O72 5799   5.579   6.152   2.090  0.0769 -0.7106  0.3829
   14CHTO  H199 5800   5.575   6.214   2.020  1.7890 -0.0768  0.8192
   14CHTO   O22 5801   5.329   6.103   2.531  0.5644 -0.2704 -0.4541
   14CHTO   C31 5802   5.199   6.051   2.484 -0.5646  0.1657 -0.0765
   14CHTO   H59 5803   5.228   5.989   2.398 -1.2847 -1.5889  0.9180
   14CHTO   C29 5804   5.128   5.954   2.582 -0.1985  0.1055 -0.1055
   14CHTO   H57 5805   5.106   6.003   2.678 -3.1215  0.5590 -0.9780
   14CHTO   O21 5806   5.222   5.848   2.620 -0.1025  0.2229  0.3093
   14CHTO   H37 5807   5.307   5.886   2.632  0.1208 -0.5491  1.3180
   14CHTO   C27 5808   4.989   5.899   2.529  0.4055 -0.6769  0.2138
   14CHTO   H55 5809   5.005   5.833   2.442  0.2920  2.1792 -2.0523
   14CHTO    N5 5810   4.913   5.827   2.627 -0.3092  0.0890 -1.1606
   14CHTO   H43 5811   4.927   5.854   2.730 -1.0111  0.9465 -1.2843
   14CHTO   H44 5812   4.923   5.720   2.622  0.0512 -0.0228  1.3397
   14CHTO   C25 5813   4.915   6.025   2.481  0.3636 -0.3736 -0.9378
   14CHTO   H53 5814   4.888   6.090   2.565  1.4248 -1.7857  0.5297
   14CHTO   O17 5815   4.982   6.081   2.377 -0.2857 -0.0035 -0.3820
   14CHTO   C32 5816   5.102   6.152   2.423 -0.1538 -0.5531  0.3671
   14CHTO   H60 5817   5.075   6.230   2.495 -0.2173 -0.0020 -0.2587
   14CHTO   C36 5818   5.154   6.236   2.310 -0.4625  0.6437  0.0916
   14CHTO   O25 5819   5.068   6.338   2.260 -0.0016 -0.7676  0.0016
   14CHTO   H40 5820   5.053   6.406   2.323  0.9720 -1.7097  1.2680
   14CHTO   O15 5821   4.775   5.993   2.420  0.6683  0.3727 -0.4306
   14CHTO   C19 5822   4.648   6.068   2.419 -0.5018 -0.0239  0.8610
   14CHTO   H47 5823   4.586   6.005   2.353  0.1092 -1.6673  1.8307
   14CHTO   C20 5824   4.588   6.074   2.564 -0.1053  0.0823 -0.3111
   14CHTO   H48 5825   4.651   6.132   2.633 -0.5935 -0.3635  0.5273
   14CHTO   O19 5826   4.585   5.946   2.628 -0.2192  0.2418 -0.0831
   14CHTO   H35 5827   4.497   5.913   2.630  0.2444 -0.9887  0.0528
   14CHTO   C21 5828   4.440   6.132   2.558  0.3301 -0.1477  0.0798
   14CHTO   H49 5829   4.374   6.061   2.510  1.1088 -0.6672 -0.2395
   14CHTO    N4 5830   4.390   6.174   2.695 -0.6260  0.5483 -0.3404
   14CHTO   H41 5831   4.452   6.256   2.727 -1.5150  1.4074 -0.7956
   14CHTO   H42 5832   4.288   6.208   2.693 -0.6886  0.4380  0.5625
   14CHTO   C22 5833   4.436   6.256   2.462 -0.1609  0.0797 -0.1840
   14CHTO   H50 5834   4.485   6.339   2.512 -1.1447  0.0827  0.7966
   14CHTO   O14 5835   4.510   6.239   2.341  0.0495 -0.3317  0.0953
   14CHTO   C23 5836   4.650   6.214   2.363 -0.6856  0.4214 -0.8871
   14CHTO   H51 5837   4.684   6.286   2.439 -1.9417 -0.9227  0.9826
   14CHTO   C34 5838   4.734   6.221   2.238  0.1923 -0.0687  0.1154
   14CHTO   O23 5839   4.733   6.361   2.201  0.4692  0.1682  0.4621
   14CHTO   H38 5840   4.779   6.380   2.122  1.4061 -1.0585  0.6935
   14CHTO   O16 5841   4.302   6.293   2.422 -0.5906  0.2588 -0.0650
   14CHTO   C24 5842   4.267   6.460   2.395  0.1616  0.0254 -0.4240
   14CHTO   H52 5843   4.175   6.470   2.337  0.6833 -1.2164 -1.4996
   14CHTO   C26 5844   4.385   6.538   2.326  0.1055  0.1834  0.4602
   14CHTO   H54 5845   4.484   6.513   2.370  0.3787  0.1805 -0.1495
   14CHTO   O20 5846   4.389   6.493   2.189  0.9430  0.2991 -0.4816
   14CHTO   H36 5847   4.430   6.548   2.124 -1.7281  0.0169 -2.4641
   14CHTO   C30 5848   4.356   6.694   2.330 -0.2623 -0.1119  0.1010
   14CHTO   H58 5849   4.262   6.721   2.279  0.1178  3.1855  1.0132
   14CHTO    N6 5850   4.466   6.781   2.271 -0.0152 -0.0353  0.6381
   14CHTO   H45 5851   4.434   6.881   2.296 -0.3324 -0.2674  1.1654
   14CHTO   H46 5852   4.567   6.768   2.306 -0.2801  1.1138  1.8499
   14CHTO   C33 5853   4.324   6.736   2.480 -0.3284  0.8812  0.3844
   14CHTO   H61 5854   4.400   6.702   2.552 -1.9088 -0.7270  1.3060
   14CHTO   O18 5855   4.204   6.664   2.507  0.1543  0.4363 -0.4817
   14CHTO   C28 5856   4.233   6.521   2.532 -0.3825 -0.6896 -0.1214
   14CHTO   H56 5857   4.311   6.500   2.604 -0.3005  0.0687  0.0122
   14CHTO   C35 5858   4.108   6.460   2.604 -0.0531 -0.3482 -0.0537
   14CHTO   O24 5859   3.988   6.477   2.526  0.0452 -0.5292  0.4298
   14CHTO   H39 5860   3.999   6.429   2.446 -0.5626 -4.5795  2.6303
   14CHTO    O9 5861   4.308   6.880   2.510 -0.0273 -0.4806 -0.7301
   14CHTO   C13 5862   4.393   6.931   2.626 -0.5154  0.0278 -0.8986
   14CHTO   H26 5863   4.475   6.859   2.648 -0.7569  0.2590  0.8238
   14CHTO   C11 5864   4.306   6.966   2.760 -0.0274  1.0439  1.1781
   14CHTO   H24 5865   4.282   6.868   2.803  1.9684 -0.5560 -1.2092
   14CHTO    O8 5866   4.185   7.033   2.716  0.1871 -0.1502 -0.0444
   14CHTO    H3 5867   4.199   7.109   2.663 -3.0323  0.1487 -0.5774
   14CHTO    C9 5868   4.387   7.043   2.869  0.2742  0.0578 -0.1280
   14CHTO   H22 5869   4.457   6.968   2.909 -0.9376  0.0186  2.0084
   14CHTO    N2 5870   4.304   7.080   2.990  0.1450 -0.3721 -0.6946
   14CHTO   H10 5871   4.244   6.995   3.019  1.4127 -0.4667  1.8718
   14CHTO   H11 5872   4.357   7.125   3.073 -0.8238 -0.5254  0.0142
   14CHTO    C7 5873   4.467   7.166   2.800 -0.3111  0.4032 -0.3011
   14CHTO   H20 5874   4.570   7.127   2.807 -0.1319  0.9884  0.3607
   14CHTO    O4 5875   4.434   7.179   2.660  0.2461 -0.0274  0.5584
   14CHTO   C14 5876   4.476   7.062   2.582 -0.0206  0.4400  0.3751
   14CHTO   H27 5877   4.585   7.050   2.601  0.0018  0.9717  0.5760
   14CHTO   C18 5878   4.463   7.093   2.439 -0.2327  0.1317  0.0368
   14CHTO   O13 5879   4.563   7.193   2.407 -0.1277 -0.4427  0.5120
   14CHTO    H7 5880   4.575   7.201   2.314  2.8516  0.7339  0.9591
   14CHTO    O2 5881   4.463   7.324   2.878 -0.7257 -0.4985  0.1730
   14CHTO    C1 5882   4.533   7.425   2.799 -0.5961 -0.0487 -0.4328
   14CHTO   H14 5883   4.489   7.434   2.698  2.2623  0.4715 -1.6534
   14CHTO    C2 5884   4.692   7.403   2.783 -0.1243  0.5733 -0.0873
   14CHTO   H15 5885   4.731   7.349   2.871  0.5659 -0.6066 -1.0939
   14CHTO    O6 5886   4.714   7.331   2.659 -0.9713 -0.0371  0.9531
   14CHTO    H1 5887   4.805   7.331   2.637 -0.9709  2.5573  0.7996
   14CHTO    C3 5888   4.764   7.549   2.770  0.1410 -0.5969 -0.5541
   14CHTO   H16 5889   4.756   7.589   2.669 -2.6676  0.5024  0.0614
   14CHTO    N1 5890   4.914   7.538   2.793  0.5138  0.1780 -0.1721
   14CHTO    H8 5891   4.933   7.481   2.882  2.5015 -1.0985 -1.3704
   14CHTO    H9 5892   4.957   7.482   2.712  1.3563 -0.6976  0.8744
   14CHTO    C4 5893   4.704   7.666   2.865  1.3884  0.6045 -0.2646
   14CHTO   H17 5894   4.728   7.651   2.970 -1.5044  0.9274  0.5079
   14CHTO    O1 5895   4.562   7.668   2.837  0.0783  0.2288  0.3471
   14CHTO    C5 5896   4.496   7.551   2.883 -0.3091 -0.1997 -0.0359
   14CHTO   H18 5897   4.538   7.537   2.982  2.2775 -0.1826 -1.0867
   14CHTO   C16 5898   4.345   7.585   2.889  0.5186  0.3102  0.1510
   14CHTO   O11 5899   4.289   7.606   2.761 -0.2630 -0.3154 -0.1539
   14CHTO    H5 5900   4.204   7.566   2.752 -1.3652  2.0812 -0.8437
   14CHTO    O3 5901   4.759   7.788   2.825 -0.3927  0.3526 -0.6925
   14CHTO    C6 5902   4.717   7.910   2.901 -0.5386 -0.3681 -0.1977
   14CHTO   H19 5903   4.627   7.890   2.959 -2.3218 -1.4137 -3.2188
   14CHTO    C8 5904   4.833   7.967   2.990 -0.7310 -0.1126 -1.4417
   14CHTO   H21 5905   4.922   7.971   2.927  0.2929 -1.9769 -0.1667
   14CHTO    O7 5906   4.858   7.873   3.090  0.1055  0.3431  0.3821
   14CHTO    H2 5907   4.950   7.865   3.104 -0.0270  0.4490  1.3819
   14CHTO   C12 5908   4.784   8.104   3.048 -0.7322 -0.3167  0.3436
   14CHTO   H25 5909   4.693   8.087   3.110 -1.8285  0.9944 -0.8712
   14CHTO    N3 5910   4.880   8.166   3.143 -0.2586  0.1556  0.0193
   14CHTO   H12 5911   4.836   8.234   3.214  1.0914  0.5265  0.5166
   14CHTO   H13 5912   4.945   8.096   3.193 -0.7895 -0.6397 -0.3886
   14CHTO   C15 5913   4.741   8.192   2.932  0.7590  0.3852  0.5882
   14CHTO   H28 5914   4.821   8.225   2.866 -1.5888 -0.5904 -2.9469
   14CHTO   O10 5915   4.670   8.340   3.002 -0.1706 -0.4308 -0.4287
   14CHTO    H4 5916   4.723   8.412   2.975  1.5545 -1.0075  1.3048
   14CHTO    O5 5917   4.627   8.141   2.856  0.4313  0.2731 -0.6250
   14CHTO   C10 5918   4.680   8.022   2.795  0.3569 -0.5229 -0.0859
   14CHTO   H23 5919   4.772   8.054   2.747  2.4711 -2.0828  2.7613
   14CHTO   C17 5920   4.582   7.973   2.688 -0.0395 -0.2383 -0.1491
   14CHTO   O12 5921   4.657   7.915   2.585  0.2926 -0.2381 -0.3226
   14CHTO    H6 5922   4.675   7.985   2.525 -0.2854  1.1418  1.0806
   15CHTO  H203 5923   5.364   4.966   2.221 -0.6343 -0.6665 -0.7337
   15CHTO   O82 5924   5.327   4.885   2.253 -0.7407 -0.1588  0.4445
   15CHTO  C123 5925   5.343   4.787   2.155  0.1238  0.3816 -0.5208
   15CHTO  H227 5926   5.277   4.808   2.070 -3.2347 -3.4104  0.9786
   15CHTO   O77 5927   5.486   4.785   2.106  0.1121 -0.4303 -0.0913
   15CHTO  C118 5928   5.504   4.696   1.994  0.2388  0.0393  0.1029
   15CHTO  H222 5929   5.432   4.715   1.913  1.9500  1.7558 -1.0390
   15CHTO  C125 5930   5.655   4.724   1.936 -0.2321  0.3733  0.4767
   15CHTO   O84 5931   5.672   4.860   1.904  0.4779 -0.1703  0.0708
   15CHTO  H205 5932   5.672   4.910   1.983  1.8141  0.1914 -0.1327
   15CHTO  C114 5933   5.474   4.553   2.036 -0.2103 -0.9603 -0.2275
   15CHTO  H218 5934   5.548   4.528   2.112 -0.9174 -1.0176  0.4592
   15CHTO  C116 5935   5.321   4.543   2.082  0.4835  0.3025  0.4941
   15CHTO  H220 5936   5.248   4.567   2.001  2.0811 -0.2304 -1.1318
   15CHTO   O79 5937   5.305   4.401   2.114  0.0719  0.0375  0.3261
   15CHTO  H201 5938   5.333   4.394   2.204  1.1060  1.2895  0.1168
   15CHTO  C120 5939   5.309   4.632   2.207 -0.6373 -0.9256  0.1803
   15CHTO  H224 5940   5.385   4.592   2.277 -0.5163 -0.9625  0.0254
   15CHTO   N21 5941   5.168   4.624   2.269 -0.3601  0.3574 -0.3882
   15CHTO  H211 5942   5.159   4.537   2.333 -2.0234  0.3042 -0.6734
   15CHTO  H212 5943   5.135   4.720   2.307 -1.9238  0.0129 -0.8501
   15CHTO   O75 5944   5.498   4.484   1.915  0.0691  0.4350  0.4862
   15CHTO  C112 5945   5.610   4.368   1.918  0.3152 -0.1580 -0.0481
   15CHTO  H216 5946   5.614   4.322   2.018  0.5647  0.0392  0.0300
   15CHTO   O73 5947   5.735   4.422   1.877  0.3642 -0.4023 -0.1369
   15CHTO  C113 5948   5.840   4.331   1.890 -0.5560 -0.1356 -0.7847
   15CHTO  H217 5949   5.837   4.302   1.997 -0.6663  1.0741 -0.4525
   15CHTO  C124 5950   5.975   4.405   1.869 -0.1500  0.4804  0.1177
   15CHTO   O83 5951   6.100   4.328   1.859 -0.6247  0.0250 -0.4503
   15CHTO  H204 5952   6.171   4.381   1.831 -0.5223  1.0193  1.6175
   15CHTO  C109 5953   5.810   4.204   1.804 -0.0891  0.4722  0.1943
   15CHTO  H213 5954   5.825   4.236   1.700  4.0482 -0.9518  0.2643
   15CHTO  C110 5955   5.671   4.141   1.819  0.1994 -0.4004 -0.1055
   15CHTO  H214 5956   5.657   4.085   1.912  0.1156  0.5097  0.4285
   15CHTO   O78 5957   5.649   4.056   1.705  0.4853 -0.1934  0.0229
   15CHTO  H200 5958   5.618   4.109   1.634  0.4818 -1.0264 -0.6034
   15CHTO  C111 5959   5.561   4.252   1.815  0.4050 -0.8281  0.2546
   15CHTO  H215 5960   5.555   4.302   1.717  0.2473  0.0645  0.7137
   15CHTO   N19 5961   5.424   4.196   1.846 -0.3942  0.2489 -0.1175
   15CHTO  H207 5962   5.426   4.089   1.857 -1.0117  0.3262  0.8694
   15CHTO  H208 5963   5.396   4.245   1.939  0.3757 -1.4317  1.0274
   15CHTO   O74 5964   5.900   4.095   1.827 -0.4036  0.2792 -0.0150
   15CHTO  C115 5965   5.944   4.025   1.675  0.8199  0.0980  0.1671
   15CHTO  H219 5966   5.857   4.010   1.612  0.4237 -0.8374  0.9247
   15CHTO   O76 5967   6.040   4.124   1.593  0.1650 -0.0538 -0.1306
   15CHTO  C122 5968   6.180   4.093   1.610  0.1224 -0.3449  0.0047
   15CHTO  H226 5969   6.198   4.099   1.717  1.7080 -0.4291 -0.2558
   15CHTO  C126 5970   6.281   4.199   1.548 -0.0640  0.1400 -0.2357
   15CHTO   O85 5971   6.266   4.203   1.403 -0.0329  0.0525 -0.0364
   15CHTO  H206 5972   6.183   4.238   1.377 -1.1384 -1.6235  1.1055
   15CHTO  C121 5973   6.218   3.936   1.578 -0.1870 -0.0700  0.0466
   15CHTO  H225 5974   6.265   3.931   1.478 -1.5821  0.5275 -0.6505
   15CHTO   O81 5975   6.314   3.889   1.676 -0.6402 -0.1251 -0.5415
   15CHTO  H202 5976   6.402   3.914   1.656 -0.4325 -0.3935  0.0469
   15CHTO  C119 5977   6.091   3.843   1.583  0.0508  0.3512  0.2212
   15CHTO  H223 5978   6.038   3.878   1.494 -0.2752 -1.4087 -0.3096
   15CHTO  C117 5979   6.005   3.879   1.709  0.2641  0.0232  0.3706
   15CHTO  H221 5980   6.067   3.891   1.798  0.2004 -1.2923  0.5997
   15CHTO   N20 5981   5.907   3.775   1.745  0.2758 -0.0604 -0.2876
   15CHTO  H209 5982   5.950   3.701   1.811 -1.1389  2.0835  3.1641
   15CHTO  H210 5983   5.816   3.820   1.782 -0.5451 -1.5044 -0.5013
   15CHTO   O80 5984   6.123   3.690   1.545 -0.1981 -0.0769  0.7541
   15CHTO  C103 5985   6.014   3.579   1.479 -0.2725  0.8084  0.0673
   15CHTO  H190 5986   5.953   3.530   1.555 -0.8238 -2.1993 -2.2276
   15CHTO  C101 5987   5.920   3.625   1.364 -0.4309  0.1548 -0.4485
   15CHTO  H188 5988   5.980   3.671   1.285  0.0536 -2.9601 -1.9598
   15CHTO   O68 5989   5.810   3.728   1.423  0.3895 -0.0925 -0.6384
   15CHTO  H168 5990   5.850   3.813   1.416 -1.3667  0.6173 -2.6471
   15CHTO   C99 5991   5.846   3.499   1.289  0.2860  0.2766  0.4570
   15CHTO  H186 5992   5.779   3.452   1.364 -0.7321 -0.3440 -0.8184
   15CHTO   N17 5993   5.772   3.532   1.168 -0.1347 -0.6042  0.3912
   15CHTO  H174 5994   5.834   3.544   1.080 -2.7425  0.3749 -1.3875
   15CHTO  H175 5995   5.723   3.626   1.184 -2.0349 -1.8174  1.9022
   15CHTO   C97 5996   5.953   3.383   1.259 -0.4629  0.4348  0.6385
   15CHTO  H184 5997   6.024   3.424   1.185 -0.5908  0.8641  0.7504
   15CHTO   O64 5998   6.018   3.356   1.383  0.5194  0.4591  0.5542
   15CHTO  C104 5999   6.103   3.458   1.424 -0.1848 -0.2530 -0.0403
   15CHTO  H191 6000   6.167   3.498   1.345  3.2463  0.6228  3.0631
   15CHTO  C108 6001   6.200   3.403   1.533 -0.3900  0.3467 -0.3463
   15CHTO   O71 6002   6.312   3.492   1.553 -0.2733  0.3553  0.3550
   15CHTO  H171 6003   6.388   3.438   1.547 -1.3983 -1.2025 -0.1901
   15CHTO   O62 6004   5.891   3.264   1.212 -0.0160 -0.7227  0.1324
   15CHTO   C91 6005   5.948   3.191   1.105  0.3154  0.2971 -0.0320
   15CHTO  H178 6006   5.990   3.259   1.031 -2.1076 -0.0020 -1.7635
   15CHTO   C92 6007   5.844   3.097   1.028  0.0684  0.4355 -0.3292
   15CHTO  H179 6008   5.752   3.148   0.996 -1.4055 -1.7029  0.4337
   15CHTO   O66 6009   5.906   3.053   0.902  0.2631 -0.4080 -0.3450
   15CHTO  H166 6010   5.849   3.067   0.829 -0.2187  0.9020  0.2710
   15CHTO   C93 6011   5.804   2.966   1.115 -0.1193 -0.6469  0.0699
   15CHTO  H180 6012   5.747   2.899   1.049 -0.6817  0.0594 -0.1783
   15CHTO   N16 6013   5.709   2.996   1.223 -0.0068 -0.6717 -0.7242
   15CHTO  H172 6014   5.718   2.920   1.299 -0.6401  1.4214  1.5190
   15CHTO  H173 6015   5.742   3.095   1.251  2.3055 -0.8927 -2.5684
   15CHTO   C94 6016   5.936   2.893   1.166 -0.1594  1.0368 -0.2403
   15CHTO  H181 6017   5.948   2.894   1.274 -0.7351 -0.7407 -0.1471
   15CHTO   O61 6018   6.050   2.960   1.114 -0.3806 -0.2743 -0.1337
   15CHTO   C95 6019   6.067   3.100   1.150  0.1711  0.6473 -0.1288
   15CHTO  H182 6020   6.069   3.097   1.259  0.8230 -1.5971 -0.1838
   15CHTO  C106 6021   6.210   3.148   1.097 -0.5186 -0.5758  0.6452
   15CHTO   O69 6022   6.236   3.289   1.130 -0.1677 -0.1972 -0.1201
   15CHTO  H169 6023   6.180   3.348   1.083  0.1060  0.2061  0.0678
   15CHTO   O63 6024   5.922   2.740   1.119 -0.6594 -0.4242  0.0604
   15CHTO   C96 6025   6.011   2.633   1.215 -0.3435 -0.0893  0.1706
   15CHTO  H183 6026   6.013   2.686   1.311 -0.6997 -0.0970  0.1820
   15CHTO   C98 6027   6.153   2.582   1.170 -0.6216 -0.2751  0.1771
   15CHTO  H185 6028   6.153   2.567   1.061  0.5364 -0.8958  0.2528
   15CHTO   O67 6029   6.243   2.688   1.198  0.1995 -0.0051  0.2562
   15CHTO  H167 6030   6.306   2.667   1.132 -2.0228 -0.5560 -1.8118
   15CHTO  C102 6031   6.209   2.455   1.259 -0.6580  0.6205  0.4524
   15CHTO  H189 6032   6.221   2.498   1.359  0.7001  0.4130  0.3850
   15CHTO   N18 6033   6.343   2.400   1.221  0.4052 -0.2076  0.1233
   15CHTO  H176 6034   6.421   2.474   1.208  2.3427 -2.7005 -3.5651
   15CHTO  H177 6035   6.335   2.349   1.125 -0.2052  0.2676 -0.0751
   15CHTO  C105 6036   6.096   2.350   1.264 -0.4955  0.4091 -0.5456
   15CHTO  H192 6037   6.073   2.311   1.165  0.7941 -0.2089 -0.6168
   15CHTO   O65 6038   5.972   2.404   1.311 -0.8105  0.3220 -0.0073
   15CHTO  C100 6039   5.909   2.514   1.232 -0.3743  0.6411  0.1113
   15CHTO  H187 6040   5.884   2.460   1.140 -0.0745 -2.5153  1.8209
   15CHTO  C107 6041   5.782   2.563   1.309 -0.1087  0.3213  0.4381
   15CHTO   O70 6042   5.701   2.450   1.344 -0.7733 -0.1306 -0.2030
   15CHTO  H170 6043   5.661   2.460   1.429  0.3218 -0.5080  0.3673
   15CHTO   O57 6044   6.145   2.225   1.365  0.2102 -0.1111 -0.3854
   15CHTO   C85 6045   6.053   2.130   1.408 -0.7878 -0.3523 -0.2136
   15CHTO  H157 6046   5.953   2.174   1.430 -1.2471 -0.3651 -2.1721
   15CHTO   C83 6047   6.106   2.082   1.547 -0.4410  0.0755 -0.3025
   15CHTO  H155 6048   6.073   2.164   1.612 -3.9790 -0.8013 -0.8976
   15CHTO   O56 6049   6.251   2.066   1.552  0.1545 -0.3852 -0.4659
   15CHTO  H135 6050   6.301   2.048   1.630  0.0694 -2.6862 -0.9105
   15CHTO   C81 6051   6.026   1.952   1.585 -0.0532 -0.0655 -0.1675
   15CHTO  H153 6052   5.920   1.974   1.577 -0.0892 -0.7955 -2.0446
   15CHTO   N14 6053   6.049   1.900   1.724  0.2824  0.0950  0.0655
   15CHTO  H141 6054   6.071   1.795   1.726  0.3638  0.0943 -0.7037
   15CHTO  H142 6055   6.132   1.953   1.765 -1.2734  2.4879  0.1895
   15CHTO   C79 6056   6.052   1.846   1.475 -0.3763 -0.5150 -0.1471
   15CHTO  H151 6057   5.991   1.760   1.503  0.5576 -0.5176  1.9614
   15CHTO   O52 6058   5.995   1.892   1.354  0.4228 -0.2305  0.1737
   15CHTO   C86 6059   6.045   2.017   1.302 -0.0422 -0.6293 -0.0638
   15CHTO  H158 6060   6.148   1.998   1.265 -0.5755 -0.5841 -1.5944
   15CHTO   C90 6061   5.966   2.060   1.185  0.0864  0.4873  0.1692
   15CHTO   O60 6062   5.936   1.963   1.084 -0.7756  0.2847 -0.8042
   15CHTO  H138 6063   5.861   1.995   1.039 -1.7416 -1.1829 -0.2849
   15CHTO   O50 6064   6.193   1.819   1.461 -0.7255  0.3148 -0.5799
   15CHTO   C73 6065   6.254   1.715   1.379 -0.5489 -0.4939  0.5356
   15CHTO  H145 6066   6.217   1.716   1.275 -1.4346  1.6362  0.8288
   15CHTO   C74 6067   6.220   1.572   1.442  0.6746 -0.4169 -0.0348
   15CHTO  H146 6068   6.111   1.570   1.459  0.8198 -0.2408  0.9577
   15CHTO   O54 6069   6.240   1.467   1.347  0.4609  0.0700 -0.2328
   15CHTO  H133 6070   6.193   1.488   1.268  1.2843  2.3465 -0.1602
   15CHTO   C75 6071   6.300   1.549   1.578 -0.1191 -0.5362 -0.9520
   15CHTO  H147 6072   6.278   1.634   1.645 -2.8060 -1.0860 -1.0760
   15CHTO   N13 6073   6.277   1.427   1.648 -0.4505 -0.2815 -0.7753
   15CHTO  H139 6074   6.237   1.350   1.584  0.6180 -0.8498 -0.7749
   15CHTO  H140 6075   6.220   1.443   1.738  0.7431  0.2393 -0.0932
   15CHTO   C76 6076   6.459   1.581   1.545 -0.2738  0.0327 -0.2968
   15CHTO  H148 6077   6.483   1.516   1.461 -0.3810  0.8902 -1.0112
   15CHTO   O49 6078   6.464   1.721   1.502 -0.3183 -0.1540 -0.3025
   15CHTO   C77 6079   6.408   1.738   1.376 -0.3685 -0.1084 -0.1236
   15CHTO  H149 6080   6.458   1.673   1.304 -1.4363  0.5051 -1.4405
   15CHTO   C88 6081   6.439   1.884   1.342 -0.4572  0.4401  0.0886
   15CHTO   O58 6082   6.365   1.924   1.223 -0.1723  0.3157 -0.4060
   15CHTO  H136 6083   6.412   1.960   1.150  0.6361  1.1292  0.4768
   15CHTO   O51 6084   6.558   1.568   1.675 -0.4376 -0.8890  0.3371
   15CHTO   C78 6085   6.685   1.495   1.641  0.3377 -0.7198  0.0044
   15CHTO  H150 6086   6.686   1.452   1.538  3.2289 -0.5521 -0.0684
   15CHTO   C80 6087   6.711   1.386   1.750  0.5565 -0.6017  0.5680
   15CHTO  H152 6088   6.700   1.429   1.852 -0.3469  0.1318  0.1692
   15CHTO   O55 6089   6.610   1.281   1.746  0.1519  0.6151 -0.1821
   15CHTO  H134 6090   6.607   1.240   1.662 -0.4289  1.9383 -0.8232
   15CHTO   C84 6091   6.861   1.327   1.743  0.7413 -1.0688  0.3083
   15CHTO  H156 6092   6.863   1.264   1.653 -1.7477  0.3180 -0.7566
   15CHTO   N15 6093   6.895   1.222   1.844 -0.9619  0.0117  0.1839
   15CHTO  H143 6094   6.907   1.261   1.943  2.6745 -1.6249  0.4988
   15CHTO  H144 6095   6.835   1.133   1.846 -0.9994  0.0411  0.5189
   15CHTO   C87 6096   6.971   1.440   1.737 -0.7200 -0.5031 -0.5505
   15CHTO  H159 6097   6.974   1.494   1.831 -0.7038  0.4255 -1.0790
   15CHTO   O53 6098   6.923   1.542   1.617  0.0475 -0.4447  0.4693
   15CHTO   C82 6099   6.798   1.600   1.631  0.6351 -0.5339 -0.6082
   15CHTO  H154 6100   6.800   1.660   1.722  1.7801  2.6137 -2.6074
   15CHTO   C89 6101   6.785   1.690   1.512 -0.1159  0.1966  0.5538
   15CHTO   O59 6102   6.780   1.633   1.386 -0.2516 -0.0978 -0.3099
   15CHTO  H137 6103   6.868   1.605   1.369 -0.6527 -0.8603 -1.1711
   15CHTO   O45 6104   7.135   1.396   1.704  0.1565 -0.3679  0.7117
   15CHTO   C67 6105   7.207   1.520   1.697  0.0088  0.2070 -0.5080
   15CHTO  H124 6106   7.153   1.615   1.702  0.4943  0.4164  0.9119
   15CHTO   C65 6107   7.314   1.525   1.811 -0.6885  0.4185  0.6171
   15CHTO  H122 6108   7.356   1.425   1.817  0.4170  0.7634 -1.1930
   15CHTO   O44 6109   7.244   1.561   1.932  0.2467 -0.0875 -1.0561
   15CHTO  H102 6110   7.293   1.539   2.009 -0.1543  2.3924 -0.0446
   15CHTO   C63 6111   7.440   1.609   1.773  0.1527  0.8441 -0.6628
   15CHTO  H120 6112   7.515   1.543   1.730  1.9958  1.5006  1.4356
   15CHTO   N11 6113   7.511   1.670   1.892 -0.1778  0.9052 -0.5643
   15CHTO  H108 6114   7.438   1.682   1.970 -0.5674 -0.7230 -0.6552
   15CHTO  H109 6115   7.572   1.754   1.870 -1.1862  1.8822  0.2939
   15CHTO   C61 6116   7.415   1.709   1.647  0.6181  0.3081  0.4204
   15CHTO  H118 6117   7.513   1.742   1.608 -0.1953 -0.1602 -2.0562
   15CHTO   O40 6118   7.345   1.647   1.533 -0.4268 -0.1982 -0.5658
   15CHTO   C68 6119   7.283   1.516   1.557 -0.4215  0.9847 -0.2437
   15CHTO  H125 6120   7.363   1.439   1.552  0.0280  1.3748  0.7720
   15CHTO   C72 6121   7.193   1.489   1.433  0.2261  0.4974  0.1852
   15CHTO   O48 6122   7.150   1.352   1.422  0.5450  0.1650 -0.7356
   15CHTO  H105 6123   7.158   1.327   1.332  2.2928  2.3423 -1.2422
   15CHTO   O38 6124   7.334   1.814   1.693  0.3857 -0.3775 -0.0065
   15CHTO   C55 6125   7.346   1.936   1.615 -0.0363  0.0479  0.1951
   15CHTO  H112 6126   7.384   1.914   1.515 -0.7869 -2.9195  0.5093
   15CHTO   C56 6127   7.440   2.041   1.699 -0.1826  0.1463 -0.7035
   15CHTO  H113 6128   7.407   2.046   1.804 -1.1194  1.2065 -1.0343
   15CHTO   O42 6129   7.569   1.980   1.710 -0.0725 -0.3039  0.4096
   15CHTO  H100 6130   7.632   2.042   1.739  0.4493 -0.5927 -0.1106
   15CHTO   C57 6131   7.450   2.179   1.619 -0.1707 -0.1514  0.3600
   15CHTO  H114 6132   7.504   2.163   1.526 -0.1461 -0.0936  0.3645
   15CHTO   N10 6133   7.524   2.285   1.687  0.0659  0.0888 -0.0667
   15CHTO  H106 6134   7.517   2.286   1.794 -0.2925  0.6868 -0.0942
   15CHTO  H107 6135   7.626   2.293   1.652  0.0855 -1.9081 -0.5486
   15CHTO   C58 6136   7.306   2.227   1.583  0.4698  0.2597  0.2004
   15CHTO  H115 6137   7.260   2.266   1.676 -0.1284  1.4082 -0.5721
   15CHTO   O37 6138   7.229   2.123   1.521  0.3910 -0.2919  0.2570
   15CHTO   C59 6139   7.215   2.011   1.604  0.0035  0.9536  0.2767
   15CHTO  H116 6140   7.171   2.033   1.702  0.9861  1.2937  0.6512
   15CHTO   C70 6141   7.099   1.931   1.541  0.4156  0.3243  0.1985
   15CHTO   O46 6142   7.120   1.873   1.413  0.1323  0.9565 -0.1193
   15CHTO  H103 6143   7.190   1.810   1.417 -1.7051 -1.0382  2.1496
   15CHTO   O39 6144   7.309   2.344   1.476 -0.0438 -0.2417  0.1427
   15CHTO   C60 6145   7.219   2.359   1.359  0.0389 -0.1187  0.5573
   15CHTO  H117 6146   7.245   2.270   1.301 -0.4038  0.2920 -0.2843
   15CHTO   C62 6147   7.064   2.360   1.391 -0.1031 -0.4491  0.0513
   15CHTO  H119 6148   7.034   2.279   1.460 -0.4086  0.9628  1.6016
   15CHTO   O43 6149   7.021   2.477   1.464  0.3773 -0.4841  0.3121
   15CHTO  H101 6150   6.928   2.478   1.477  0.3922  2.3499  0.4044
   15CHTO   C66 6151   6.985   2.355   1.257  0.5664  0.2063 -0.4603
   15CHTO  H123 6152   7.022   2.271   1.199 -2.5588 -0.5891 -1.3643
   15CHTO   N12 6153   6.838   2.340   1.280  0.1736 -0.6536  0.0944
   15CHTO  H110 6154   6.789   2.436   1.289 -1.9657 -1.6477 -0.6062
   15CHTO  H111 6155   6.791   2.281   1.202  2.4100 -0.9619 -1.0367
   15CHTO   C69 6156   7.019   2.480   1.169  0.3128 -0.4696  0.6537
   15CHTO  H126 6157   6.983   2.572   1.219  0.6396  0.1852 -0.2905
   15CHTO   O41 6158   7.159   2.502   1.143 -0.5656  0.2576 -0.4663
   15CHTO   C64 6159   7.258   2.480   1.268  0.9754  0.4094 -0.0863
   15CHTO  H121 6160   7.253   2.565   1.339  0.5981  0.6712 -0.4243
   15CHTO   C71 6161   7.403   2.480   1.221 -0.3866 -0.1334  0.0745
   15CHTO   O47 6162   7.497   2.493   1.328  0.1367  0.2617  0.2252
   15CHTO  H104 6163   7.513   2.414   1.376 -2.6484 -0.5036 -0.0250
   15CHTO   O34 6164   6.958   2.464   1.025  0.3012  0.2759  0.1505
   15CHTO   C49 6165   6.868   2.441   0.933 -0.2784  0.8200  0.5034
   15CHTO   H91 6166   6.839   2.336   0.936  1.8577  0.1372 -1.0472
   15CHTO   C47 6167   6.929   2.485   0.799  0.6057 -0.0118 -0.1570
   15CHTO   H89 6168   6.862   2.451   0.716 -2.1573  2.1968  1.0844
   15CHTO   O33 6169   7.055   2.411   0.795 -0.2911 -0.2469 -0.4340
   15CHTO   H70 6170   7.101   2.421   0.714  1.2075  0.4521  0.4962
   15CHTO   C45 6171   6.957   2.641   0.797  0.1976 -0.0604 -0.4188
   15CHTO   H87 6172   7.015   2.666   0.887  0.1522 -0.6056 -0.2303
   15CHTO    N8 6173   7.033   2.681   0.679 -0.6754 -0.6110 -0.1142
   15CHTO   H75 6174   7.031   2.618   0.592 -0.2599 -0.4333 -0.2541
   15CHTO   H76 6175   7.133   2.717   0.699 -0.6692 -0.4985 -0.3389
   15CHTO   C43 6176   6.816   2.719   0.816 -0.3898  0.3954 -0.4575
   15CHTO   H85 6177   6.837   2.825   0.830  0.4525  0.1157  0.4288
   15CHTO   O29 6178   6.742   2.663   0.928 -0.0048 -0.2016  0.3191
   15CHTO   C50 6179   6.740   2.519   0.957 -0.0222 -0.3060  0.3053
   15CHTO   H92 6180   6.707   2.496   1.059  1.0336  1.0286  0.9706
   15CHTO   C54 6181   6.634   2.451   0.873 -0.7115  0.9012 -0.0872
   15CHTO   O36 6182   6.506   2.479   0.920  0.3428 -0.1338 -0.0247
   15CHTO   H72 6183   6.445   2.425   0.874 -2.6887  0.7767  2.7839
   15CHTO   O27 6184   6.736   2.716   0.694 -0.1214  0.1641 -0.4364
   15CHTO   C37 6185   6.655   2.809   0.633 -0.2138  0.2741  0.0017
   15CHTO   H79 6186   6.593   2.764   0.555  0.0596 -0.6931  0.3378
   15CHTO   C38 6187   6.565   2.893   0.731  0.1369  0.6078 -0.8467
   15CHTO   H80 6188   6.626   2.946   0.806  0.9966 -0.2314 -0.9418
   15CHTO   O31 6189   6.481   2.799   0.801 -0.5338 -0.0972 -0.0431
   15CHTO   H68 6190   6.398   2.797   0.757 -0.9459 -2.4428  0.7970
   15CHTO   C39 6191   6.481   3.003   0.650  0.5324 -0.4940 -0.0859
   15CHTO   H81 6192   6.414   2.961   0.575 -0.3082 -0.1175  0.4454
   15CHTO    N7 6193   6.391   3.082   0.742  0.4685  0.4134  0.3639
   15CHTO   H73 6194   6.358   3.030   0.830 -0.6106  0.9648  0.2894
   15CHTO   H74 6195   6.437   3.176   0.771  2.8341 -0.3845 -0.6343
   15CHTO   C40 6196   6.577   3.097   0.572 -0.2764  0.3968  0.6641
   15CHTO   H82 6197   6.621   3.177   0.632  0.5270 -0.7981  1.6719
   15CHTO   O26 6198   6.672   3.025   0.494 -0.0089 -0.6685 -0.1442
   15CHTO   C41 6199   6.744   2.912   0.562  0.3387 -0.3329 -0.6975
   15CHTO   H83 6200   6.816   2.956   0.633 -1.1254 -1.8170  1.7765
   15CHTO   C52 6201   6.823   2.853   0.444  0.4015  0.6504  0.1914
   15CHTO   O35 6202   6.737   2.793   0.350 -0.1838 -0.0476  0.0593
   15CHTO   H71 6203   6.663   2.846   0.328  1.1552  2.0724  0.4477
   15CHTO   O28 6204   6.503   3.161   0.460 -0.1099 -0.5333  0.5595
   15CHTO   C42 6205   6.509   3.304   0.413  0.1479  0.1908 -0.7218
   15CHTO   H84 6206   6.477   3.292   0.309 -2.3818 -2.2100  0.2656
   15CHTO   C44 6207   6.654   3.374   0.402  0.3722 -0.9257  0.2046
   15CHTO   H86 6208   6.696   3.380   0.503  1.5081  1.0887 -0.3632
   15CHTO   O32 6209   6.730   3.286   0.315 -0.5837  0.1808 -0.2507
   15CHTO   H69 6210   6.710   3.285   0.223  0.2070 -2.2456 -0.4292
   15CHTO   C48 6211   6.633   3.521   0.360 -0.6716 -0.1541  0.8911
   15CHTO   H90 6212   6.591   3.515   0.260  0.5826 -0.2728  0.3603
   15CHTO    N9 6213   6.765   3.599   0.352  0.3798 -0.0262 -0.5848
   15CHTO   H77 6214   6.760   3.691   0.296  0.0144 -0.0271 -0.5569
   15CHTO   H78 6215   6.809   3.613   0.449 -0.6723 -0.5674 -0.0156
   15CHTO   C51 6216   6.528   3.597   0.449 -0.6566  0.3159 -0.2187
   15CHTO   H93 6217   6.554   3.604   0.555 -1.8860 -1.5051  0.2493
   15CHTO   O30 6218   6.411   3.519   0.431 -0.1103 -0.4072  0.0573
   15CHTO   C46 6219   6.395   3.398   0.477 -0.3789  0.6240 -0.6364
   15CHTO   H88 6220   6.409   3.392   0.584 -0.3775 -2.7068 -0.7872
   15CHTO   C53 6221   6.261   3.344   0.442 -0.0849 -0.2811  0.3880
   15CHTO   O72 6222   6.226   3.311   0.308 -0.3574  0.6352 -0.1533
   15CHTO  H199 6223   6.132   3.312   0.309 -0.4357 -2.6434 -0.5047
   15CHTO   O22 6224   6.486   3.721   0.390 -0.3744 -0.7224 -0.3092
   15CHTO   C31 6225   6.398   3.825   0.442  0.3352  0.3479 -0.0262
   15CHTO   H59 6226   6.419   3.917   0.383  2.2372  0.3843  0.6774
   15CHTO   C29 6227   6.249   3.790   0.430  0.3685  0.1337  0.1204
   15CHTO   H57 6228   6.224   3.702   0.492  3.2151 -1.2300 -0.5795
   15CHTO   O21 6229   6.208   3.752   0.299  0.6866  0.2280  0.2450
   15CHTO   H37 6230   6.117   3.729   0.302  1.2217 -2.7036 -3.0496
   15CHTO   C27 6231   6.169   3.920   0.473  0.7265 -0.9330 -0.8680
   15CHTO   H55 6232   6.207   4.006   0.415  2.9482 -0.8400  0.6948
   15CHTO    N5 6233   6.023   3.900   0.454  0.2665 -0.0546 -0.0413
   15CHTO   H43 6234   5.961   3.976   0.498 -0.2497 -0.3336 -0.2828
   15CHTO   H44 6235   5.993   3.873   0.354  2.6184  1.4950 -1.1854
   15CHTO   C25 6236   6.203   3.938   0.628  0.7089  0.5544  0.1317
   15CHTO   H53 6237   6.177   3.842   0.677  0.9260 -0.5722 -1.9082
   15CHTO   O17 6238   6.348   3.964   0.644  0.1532  0.1283 -0.2926
   15CHTO   C32 6239   6.428   3.862   0.588  0.1237 -0.0806 -0.1633
   15CHTO   H60 6240   6.407   3.776   0.651  0.2484  0.1631  0.2147
   15CHTO   C36 6241   6.568   3.888   0.615 -0.3387 -0.4618 -0.6282
   15CHTO   O25 6242   6.612   3.864   0.750 -0.1715 -0.4369 -0.1647
   15CHTO   H40 6243   6.647   3.778   0.756 -0.2981 -0.6878 -2.4850
   15CHTO   O15 6244   6.109   4.066   0.706  0.2304 -0.0245  0.0390
   15CHTO   C19 6245   6.149   4.199   0.754 -0.2797 -0.9190  0.1980
   15CHTO   H47 6246   6.236   4.222   0.689 -0.1082 -0.2645  0.6581
   15CHTO   C20 6247   6.047   4.322   0.732 -0.4251  0.2201  0.0572
   15CHTO   H48 6248   5.955   4.310   0.791 -0.8667 -2.2266 -1.0496
   15CHTO   O19 6249   6.018   4.325   0.590  0.3144  0.1152 -0.0432
   15CHTO   H35 6250   5.943   4.271   0.576  1.4168 -1.3309 -0.4801
   15CHTO   C21 6251   6.120   4.458   0.773 -0.6347 -0.2296 -0.3394
   15CHTO   H49 6252   6.204   4.474   0.706 -1.2756  0.0433 -1.0847
   15CHTO    N4 6253   6.033   4.577   0.767  0.2684 -0.2997 -0.2167
   15CHTO   H41 6254   6.079   4.668   0.803 -0.0222  0.0314 -0.6803
   15CHTO   H42 6255   5.947   4.553   0.829  0.3904  0.1570  0.1371
   15CHTO   C22 6256   6.190   4.446   0.910  0.1206 -0.2174 -0.4880
   15CHTO   H50 6257   6.118   4.441   0.992 -1.1028  1.8562 -1.4067
   15CHTO   O14 6258   6.267   4.326   0.912  0.7964 -0.4218 -0.9734
   15CHTO   C23 6259   6.199   4.201   0.904 -0.2386 -0.4823 -0.6380
   15CHTO   H51 6260   6.114   4.204   0.974  0.2696  2.1466 -0.0809
   15CHTO   C34 6261   6.294   4.091   0.950  0.3173  0.9679 -0.2630
   15CHTO   O23 6262   6.293   4.081   1.091 -0.3685 -0.2834  0.3888
   15CHTO   H38 6263   6.243   4.002   1.099 -0.0706 -0.8094 -2.3030
   15CHTO   O16 6264   6.287   4.550   0.936  0.2963 -0.0502  0.3933
   15CHTO   C24 6265   6.297   4.603   1.102  0.3186 -0.1344  0.2625
   15CHTO   H52 6266   6.222   4.555   1.165  2.0465 -2.8967  0.3117
   15CHTO   C26 6267   6.286   4.758   1.104 -0.8997  0.3601  0.6923
   15CHTO   H54 6268   6.364   4.807   1.043 -2.9395  3.2084  0.2676
   15CHTO   O20 6269   6.155   4.788   1.062 -0.6769 -0.0393 -0.5336
   15CHTO   H36 6270   6.146   4.882   1.057 -1.1412 -0.0641 -0.1982
   15CHTO   C30 6271   6.325   4.812   1.246 -0.3522 -0.3972 -0.2750
   15CHTO   H58 6272   6.249   4.777   1.317 -0.3688 -0.5145 -0.3513
   15CHTO    N6 6273   6.331   4.962   1.249  0.1011  0.3492  0.3831
   15CHTO   H45 6274   6.248   4.999   1.307  0.3624  1.5519  0.0025
   15CHTO   H46 6275   6.425   5.005   1.280  0.6569  0.1952 -1.0472
   15CHTO   C33 6276   6.456   4.745   1.297  0.4704  0.3690 -0.0377
   15CHTO   H61 6277   6.534   4.783   1.229  1.1652  1.9488  1.5986
   15CHTO   O18 6278   6.450   4.608   1.285 -0.1619  0.3129  0.2532
   15CHTO   C28 6279   6.440   4.559   1.154  0.7719  0.5904  0.8486
   15CHTO   H56 6280   6.520   4.604   1.096 -0.1419  1.8318  0.5147
   15CHTO   C35 6281   6.471   4.412   1.151 -0.0259  0.1300 -0.1267
   15CHTO   O24 6282   6.593   4.375   1.219  0.2781  0.4319  0.4297
   15CHTO   H39 6283   6.611   4.413   1.303  2.1691  0.0715  0.2161
   15CHTO    O9 6284   6.499   4.787   1.432  0.7241  0.7409 -0.1458
   15CHTO   C13 6285   6.661   4.788   1.463  0.3372  0.0341  0.2307
   15CHTO   H26 6286   6.688   4.891   1.494  1.2147 -0.1617  0.1148
   15CHTO   C11 6287   6.764   4.730   1.350  0.1469  0.4728 -0.3457
   15CHTO   H24 6288   6.737   4.786   1.259  0.8257  0.1806 -0.7319
   15CHTO    O8 6289   6.735   4.596   1.314  0.4098 -0.2443 -0.2744
   15CHTO    H3 6290   6.775   4.545   1.381 -3.3404 -0.2868  2.0288
   15CHTO    C9 6291   6.908   4.757   1.399  0.4728 -0.1160  0.3246
   15CHTO   H22 6292   6.919   4.867   1.393  0.5087 -0.1962 -1.6413
   15CHTO    N2 6293   7.015   4.714   1.306  0.1757  0.0317  0.3369
   15CHTO   H10 6294   7.058   4.803   1.263  2.1846 -0.8375  0.4930
   15CHTO   H11 6295   7.090   4.652   1.354 -0.0684 -0.3995  0.1618
   15CHTO    C7 6296   6.921   4.694   1.544 -0.4651  0.0600  0.1771
   15CHTO   H20 6297   7.016   4.743   1.573 -0.6076 -0.3067  1.2535
   15CHTO    O4 6298   6.820   4.719   1.641 -0.6070 -0.1355 -0.8039
   15CHTO   C14 6299   6.679   4.716   1.600 -1.0949  0.2260 -0.2017
   15CHTO   H27 6300   6.618   4.776   1.670 -0.0396  0.1277  0.8104
   15CHTO   C18 6301   6.629   4.575   1.599 -0.3902 -0.6451  0.5100
   15CHTO   O13 6302   6.656   4.508   1.726 -0.1386 -0.0621 -0.4334
   15CHTO    H7 6303   6.743   4.530   1.753 -0.0765  0.5478 -1.0986
   15CHTO    O2 6304   6.959   4.542   1.547 -0.5121  0.3004 -0.1674
   15CHTO    C1 6305   7.022   4.476   1.662 -0.6463 -0.0460 -0.3353
   15CHTO   H14 6306   6.958   4.506   1.748 -0.2730 -0.3388  0.0464
   15CHTO    C2 6307   7.169   4.526   1.689  0.5146 -0.3854 -0.5217
   15CHTO   H15 6308   7.218   4.540   1.592  1.8663 -1.2555  0.0252
   15CHTO    O6 6309   7.157   4.661   1.755 -0.6761 -0.1975  0.0436
   15CHTO    H1 6310   7.098   4.662   1.828 -1.2325  0.4415 -0.4093
   15CHTO    C3 6311   7.252   4.421   1.780  0.2666  0.0513 -0.6625
   15CHTO   H16 6312   7.221   4.443   1.884  0.0660  2.5894 -1.2308
   15CHTO    N1 6313   7.400   4.451   1.764 -0.4807  0.4052  0.4888
   15CHTO    H8 6314   7.445   4.374   1.703 -0.6291 -0.7849  1.8576
   15CHTO    H9 6315   7.453   4.459   1.858  1.9715 -1.8421 -0.6297
   15CHTO    C4 6316   7.216   4.272   1.752  0.8419  0.2692 -0.2702
   15CHTO   H17 6317   7.258   4.242   1.656  0.5799  0.7358 -0.5322
   15CHTO    O1 6318   7.071   4.247   1.747  0.2383  0.1929  0.1783
   15CHTO    C5 6319   7.008   4.320   1.642 -0.5759 -0.0372  0.3085
   15CHTO   H18 6320   7.061   4.305   1.548 -0.1462  1.1774  0.3552
   15CHTO   C16 6321   6.854   4.280   1.625  0.5491  0.7237 -0.6210
   15CHTO   O11 6322   6.838   4.143   1.591 -0.4833  0.2734 -0.4865
   15CHTO    H5 6323   6.873   4.081   1.652  0.0201  0.0585 -0.9917
   15CHTO    O3 6324   7.264   4.182   1.855 -0.1674 -0.4232  0.4002
   15CHTO    C6 6325   7.280   4.038   1.831  0.0137  0.5615 -0.3695
   15CHTO   H19 6326   7.233   4.008   1.737  1.4832 -0.1654 -0.9044
   15CHTO    C8 6327   7.433   3.998   1.813 -0.8859 -0.4358  0.2874
   15CHTO   H21 6328   7.485   4.024   1.905 -0.5255  0.6511 -0.2159
   15CHTO    O7 6329   7.494   4.079   1.711 -1.1215 -0.6001  0.2795
   15CHTO    H2 6330   7.508   4.168   1.735  1.4135 -0.8396 -0.1963
   15CHTO   C12 6331   7.451   3.836   1.796 -0.2301 -0.0990 -0.0682
   15CHTO   H25 6332   7.412   3.804   1.698  0.8151  1.3169 -0.9710
   15CHTO    N3 6333   7.595   3.788   1.778 -0.5887 -0.4858  0.0374
   15CHTO   H12 6334   7.601   3.682   1.756  0.7305 -0.8718  2.0814
   15CHTO   H13 6335   7.652   3.850   1.712 -0.1838 -1.2755 -0.3617
   15CHTO   C15 6336   7.369   3.769   1.904  0.1560  0.4265 -0.0396
   15CHTO   H28 6337   7.411   3.780   2.004 -1.0999  3.8771  0.1654
   15CHTO   O10 6338   7.351   3.609   1.865 -0.1261 -0.2198 -0.1110
   15CHTO    H4 6339   7.295   3.562   1.923  2.1142 -1.8226  0.8286
   15CHTO    O5 6340   7.236   3.807   1.912 -1.4037  0.4418  0.2829
   15CHTO   C10 6341   7.221   3.945   1.941  0.1937 -0.2915 -0.2962
   15CHTO   H23 6342   7.268   3.955   2.038 -1.7168 -0.1948  0.6407
   15CHTO   C17 6343   7.073   3.970   1.964 -0.1280 -0.0890 -0.1305
   15CHTO   O12 6344   6.979   3.951   1.858  0.4013 -0.3384 -0.1212
   15CHTO    H6 6345   6.983   4.030   1.807 -1.1581  0.0345  0.3182
   16CHTO  H203 6346   5.271   4.454   0.752 -1.1305 -0.3696 -1.4795
   16CHTO   O82 6347   5.212   4.425   0.819  0.2901 -0.2383 -0.1364
   16CHTO  C123 6348   5.275   4.348   0.918 -0.0289  0.4336  0.0562
   16CHTO  H227 6349   5.199   4.315   0.991 -0.7446  1.9138  0.0043
   16CHTO   O77 6350   5.318   4.227   0.845  0.5855  0.3080 -0.1412
   16CHTO  C118 6351   5.382   4.132   0.936  0.6357 -0.4679  0.0539
   16CHTO  H222 6352   5.327   4.122   1.031 -0.1520 -2.7994 -0.5995
   16CHTO  C125 6353   5.389   3.983   0.874 -0.0927 -0.5729  0.3135
   16CHTO   O84 6354   5.477   3.984   0.757 -0.4148  0.1097 -0.6593
   16CHTO  H205 6355   5.512   3.899   0.736 -1.7702 -1.4725  2.9671
   16CHTO  C114 6356   5.520   4.186   0.982  0.5949  0.2027 -0.0715
   16CHTO  H218 6357   5.579   4.205   0.892 -2.1210 -0.4452 -2.0392
   16CHTO  C116 6358   5.502   4.330   1.061 -0.4646  1.0376  0.9080
   16CHTO  H220 6359   5.465   4.312   1.165 -1.6405 -0.1561  0.3032
   16CHTO   O79 6360   5.635   4.380   1.070 -0.3569  0.0990  0.2102
   16CHTO  H201 6361   5.693   4.329   1.123 -0.2411  0.2346  0.2134
   16CHTO  C120 6362   5.398   4.429   0.988  0.0799  0.2594 -0.0688
   16CHTO  H224 6363   5.454   4.478   0.906  1.0407  0.7234  0.8499
   16CHTO   N21 6364   5.355   4.547   1.071  0.0872 -0.2279 -0.2060
   16CHTO  H211 6365   5.343   4.525   1.176  0.6116  2.8282  0.5392
   16CHTO  H212 6366   5.258   4.582   1.041 -1.7561 -2.2235  3.1612
   16CHTO   O75 6367   5.579   4.071   1.051 -0.4865 -0.1687 -0.1174
   16CHTO  C112 6368   5.747   4.054   1.004  0.2832  0.7438  0.3488
   16CHTO  H216 6369   5.779   4.148   0.957 -0.4620  1.1754  0.6866
   16CHTO   O73 6370   5.752   3.944   0.910 -0.8559 -0.3799  0.3291
   16CHTO  C113 6371   5.891   3.908   0.888 -0.0737  1.1542 -0.4195
   16CHTO  H217 6372   5.949   3.998   0.858  0.5709  0.4665 -1.2455
   16CHTO  C124 6373   5.889   3.801   0.778  0.0367  0.1650 -0.7089
   16CHTO   O83 6374   5.797   3.689   0.797 -0.3906 -0.1602 -0.5460
   16CHTO  H204 6375   5.761   3.650   0.719 -2.0755  2.5852 -1.2574
   16CHTO  C109 6376   5.972   3.861   1.004 -0.1770 -0.3416 -0.2212
   16CHTO  H213 6377   5.921   3.770   1.039 -0.7127  0.4633  1.1200
   16CHTO  C110 6378   5.972   3.966   1.115 -0.0242 -0.6074  0.0374
   16CHTO  H214 6379   6.028   4.045   1.066 -0.4230 -0.3449  0.0041
   16CHTO   O78 6380   6.014   3.915   1.239  0.1064  0.4935 -0.3943
   16CHTO  H200 6381   6.103   3.886   1.230 -0.1496 -0.0018 -1.4598
   16CHTO  C111 6382   5.825   4.016   1.134  0.3225 -0.2361 -0.8101
   16CHTO  H215 6383   5.768   3.931   1.175  1.3196 -1.0078 -1.0013
   16CHTO   N19 6384   5.824   4.132   1.235  0.0794  0.1732 -0.4222
   16CHTO  H207 6385   5.726   4.177   1.235  0.1594  0.4089 -2.3769
   16CHTO  H208 6386   5.903   4.200   1.208 -0.6036  2.1540  2.4061
   16CHTO   O74 6387   6.114   3.827   0.963  0.3386  0.0791  0.5967
   16CHTO  C115 6388   6.168   3.710   1.041  0.1365 -0.0785 -0.0722
   16CHTO  H219 6389   6.138   3.715   1.146  0.8213  2.0054  0.0511
   16CHTO   O76 6390   6.108   3.573   0.994 -0.0747  0.6781 -0.5619
   16CHTO  C122 6391   6.160   3.534   0.863 -0.1247 -0.7820 -0.5313
   16CHTO  H226 6392   6.140   3.614   0.792 -0.8855  1.4350  2.0870
   16CHTO  C126 6393   6.090   3.413   0.820  0.6870  0.0696  0.1903
   16CHTO   O85 6394   5.946   3.415   0.828 -0.0734 -0.7344  0.0546
   16CHTO  H206 6395   5.923   3.329   0.800  0.8531 -1.7447  2.3209
   16CHTO  C121 6396   6.316   3.506   0.871 -0.7508  0.2737  0.7609
   16CHTO  H225 6397   6.335   3.397   0.872 -3.5536 -0.2784  0.1947
   16CHTO   O81 6398   6.393   3.564   0.766  0.7886  0.1621  0.8762
   16CHTO  H202 6399   6.446   3.496   0.728 -1.7317 -1.8480  0.7763
   16CHTO  C119 6400   6.370   3.565   1.009  0.1982 -0.2914  0.2014
   16CHTO  H223 6401   6.324   3.507   1.090  0.3024 -0.1534  0.3591
   16CHTO  C117 6402   6.328   3.714   1.034 -0.5245 -0.4683 -0.1362
   16CHTO  H221 6403   6.344   3.777   0.947  0.0508  0.3124  0.5258
   16CHTO   N20 6404   6.400   3.783   1.142 -0.1684 -0.2701 -1.0120
   16CHTO  H209 6405   6.404   3.717   1.227 -1.7315 -1.5970 -1.9402
   16CHTO  H210 6406   6.347   3.875   1.163  2.5856  1.1460  0.0147
   16CHTO   O80 6407   6.529   3.524   1.033 -0.0131 -0.0968 -0.2703
   16CHTO  C103 6408   6.565   3.384   1.028 -0.2385 -0.0757 -0.1398
   16CHTO  H190 6409   6.479   3.324   0.997 -0.0297 -0.3100 -0.2671
   16CHTO  C101 6410   6.685   3.357   0.929 -0.3595 -0.1807  0.7071
   16CHTO  H188 6411   6.770   3.414   0.969  0.6057 -2.0689  1.3821
   16CHTO   O68 6412   6.654   3.398   0.777 -0.0745 -0.2290 -0.3138
   16CHTO  H168 6413   6.624   3.486   0.772 -1.6784 -0.7900 -1.1436
   16CHTO   C99 6414   6.726   3.201   0.932 -0.4542 -0.3191 -0.2743
   16CHTO  H186 6415   6.651   3.139   0.880 -1.2437 -1.6760  2.4096
   16CHTO   N17 6416   6.854   3.172   0.855  0.5880 -0.1212 -0.1452
   16CHTO  H174 6417   6.832   3.114   0.767  0.0519 -0.3645  0.1470
   16CHTO  H175 6418   6.900   3.264   0.822 -0.9703  0.0522 -1.8635
   16CHTO   C97 6419   6.736   3.152   1.081 -0.8375 -0.6312  1.0892
   16CHTO  H184 6420   6.827   3.208   1.110 -0.0789  0.4643 -3.1365
   16CHTO   O64 6421   6.620   3.194   1.150 -0.5868  0.5711 -0.7452
   16CHTO  C104 6422   6.607   3.333   1.174 -0.3899  0.3505  0.0580
   16CHTO  H191 6423   6.698   3.384   1.205 -0.6310  0.9710 -0.2497
   16CHTO  C108 6424   6.508   3.361   1.285 -0.3430  0.0475  0.5932
   16CHTO   O71 6425   6.545   3.303   1.407 -0.2939 -0.1568  0.3136
   16CHTO  H171 6426   6.538   3.210   1.400  0.7768 -0.2730  0.6496
   16CHTO   O62 6427   6.751   3.012   1.101 -0.0606 -0.0574  0.1567
   16CHTO   C91 6428   6.769   2.962   1.235  0.2687 -0.1240 -0.2368
   16CHTO  H178 6429   6.743   3.035   1.311  1.3342  1.5109 -1.3972
   16CHTO   C92 6430   6.920   2.924   1.251 -0.3216  0.9163  0.1595
   16CHTO  H179 6431   6.943   2.857   1.167 -0.7618  0.8942  0.0577
   16CHTO   O66 6432   6.993   3.044   1.220 -0.0415  0.1891 -0.4518
   16CHTO  H166 6433   7.071   3.022   1.172 -0.5785  0.0893 -1.2815
   16CHTO   C93 6434   6.953   2.855   1.392  0.3471 -1.1812  0.2370
   16CHTO  H180 6435   6.945   2.945   1.454 -1.6675 -0.3236 -1.2152
   16CHTO   N16 6436   7.100   2.809   1.404  0.7755  0.3583  0.3435
   16CHTO  H172 6437   7.111   2.712   1.357  3.2620 -0.2509  2.1269
   16CHTO  H173 6438   7.154   2.886   1.351  1.2298  0.1291  0.4728
   16CHTO   C94 6439   6.836   2.758   1.439  0.1477 -0.0272  0.0104
   16CHTO  H181 6440   6.840   2.661   1.390 -0.9490 -1.0505  1.8976
   16CHTO   O61 6441   6.704   2.815   1.418  0.6825 -0.2776 -0.1539
   16CHTO   C95 6442   6.676   2.837   1.284 -0.2053 -0.7739  1.2787
   16CHTO  H182 6443   6.693   2.747   1.225  1.5032 -0.6531  1.5605
   16CHTO  C106 6444   6.522   2.869   1.260  0.3233 -0.2846 -0.5060
   16CHTO   O69 6445   6.492   2.899   1.125  0.2487 -0.5749  0.1967
   16CHTO  H169 6446   6.564   2.873   1.070 -0.3142  0.4188 -1.0143
   16CHTO   O63 6447   6.847   2.729   1.590 -0.6328 -0.1527 -0.4786
   16CHTO   C96 6448   6.705   2.662   1.658  0.3584  0.0994 -0.0364
   16CHTO  H183 6449   6.737   2.619   1.753 -0.6715  2.2549  1.3282
   16CHTO   C98 6450   6.622   2.549   1.584 -0.1296 -0.3423  0.6559
   16CHTO  H185 6451   6.583   2.584   1.487 -1.9635  2.0567  2.2208
   16CHTO   O67 6452   6.703   2.433   1.567 -0.6565  0.0971 -0.0466
   16CHTO  H167 6453   6.753   2.431   1.487 -1.5621 -0.4342 -0.6066
   16CHTO  C102 6454   6.489   2.515   1.668 -0.5184 -0.3595  0.2021
   16CHTO  H189 6455   6.525   2.493   1.770 -1.0210  1.9068  0.8869
   16CHTO   N18 6456   6.409   2.403   1.620 -0.0211  0.0472  0.0808
   16CHTO  H176 6457   6.456   2.306   1.631 -2.6317 -1.3078 -0.3816
   16CHTO  H177 6458   6.318   2.403   1.677  0.8935  0.6313  1.5727
   16CHTO  C105 6459   6.410   2.649   1.677 -0.2236 -0.9439  0.4193
   16CHTO  H192 6460   6.404   2.694   1.578 -4.5242  1.8151  1.7530
   16CHTO   O65 6461   6.480   2.739   1.766 -0.1867 -0.2819  1.2071
   16CHTO  C100 6462   6.609   2.782   1.720  0.4879  0.5592  0.2261
   16CHTO  H187 6463   6.589   2.858   1.643  1.1510  1.0364  0.5261
   16CHTO  C107 6464   6.673   2.858   1.834  0.0649  0.5796  1.0249
   16CHTO   O70 6465   6.606   2.980   1.876  0.3297 -0.2305  0.4543
   16CHTO  H170 6466   6.599   3.042   1.806  1.9959  2.6765  2.7399
   16CHTO   O57 6467   6.265   2.642   1.728 -0.0170 -0.9199  0.1390
   16CHTO   C85 6468   6.165   2.695   1.637 -0.1137 -0.2030  0.1086
   16CHTO  H157 6469   6.204   2.672   1.536 -1.5120  0.7524 -0.6791
   16CHTO   C83 6470   6.160   2.857   1.638  0.2958 -0.0179 -1.0428
   16CHTO  H155 6471   6.256   2.890   1.597  0.9327  1.2039  1.3292
   16CHTO   O56 6472   6.141   2.904   1.774 -0.1895 -0.1111  0.3425
   16CHTO  H135 6473   6.170   2.993   1.782  0.1139 -0.0082 -1.5989
   16CHTO   C81 6474   6.045   2.904   1.542 -0.1596  0.2083  0.0213
   16CHTO  H153 6475   6.064   2.863   1.443 -0.2359  0.7847 -0.2362
   16CHTO   N14 6476   6.034   3.053   1.541  0.7174 -0.5568 -0.3719
   16CHTO  H141 6477   6.123   3.082   1.490  0.3979  1.0943 -0.0153
   16CHTO  H142 6478   6.041   3.085   1.643 -3.5096 -2.9798  0.8248
   16CHTO   C79 6479   5.911   2.840   1.595 -0.5837  0.0976  0.4166
   16CHTO  H151 6480   5.835   2.867   1.522  0.8482  1.5323 -0.5885
   16CHTO   O52 6481   5.915   2.692   1.590  0.0897 -0.5899  0.7114
   16CHTO   C86 6482   6.028   2.629   1.658 -0.0288 -0.7866  0.3321
   16CHTO  H158 6483   5.992   2.633   1.763 -1.2079 -2.1912  0.0081
   16CHTO   C90 6484   6.025   2.478   1.624 -0.0063  0.0868 -0.1584
   16CHTO   O60 6485   5.915   2.412   1.687  0.1704 -0.4086  0.7904
   16CHTO  H138 6486   5.844   2.402   1.626  1.5628  0.8445 -1.0727
   16CHTO   O50 6487   5.866   2.888   1.724 -0.2844  0.3377  0.2891
   16CHTO   C73 6488   5.744   2.867   1.794 -0.5477  0.3712  0.1869
   16CHTO  H145 6489   5.737   2.762   1.826  0.1387 -0.0571 -1.0336
   16CHTO   C74 6490   5.621   2.893   1.705  0.0433 -0.1170 -0.4403
   16CHTO  H146 6491   5.627   2.830   1.615 -0.2901 -0.2151 -0.3968
   16CHTO   O54 6492   5.505   2.853   1.784 -0.1983  0.4095  0.1328
   16CHTO  H133 6493   5.444   2.794   1.744 -0.7168  0.3185  1.0236
   16CHTO   C75 6494   5.619   3.051   1.669  0.1469  0.0775 -0.6630
   16CHTO  H147 6495   5.718   3.079   1.629  0.3001 -0.5408 -0.7097
   16CHTO   N13 6496   5.509   3.090   1.580 -0.9759 -0.0785  0.2535
   16CHTO  H139 6497   5.538   3.070   1.478  1.0448 -0.3522  0.8511
   16CHTO  H140 6498   5.497   3.197   1.596 -1.9275 -0.0222 -0.7649
   16CHTO   C76 6499   5.601   3.132   1.810 -0.5369 -0.1418 -0.1981
   16CHTO  H148 6500   5.505   3.105   1.855 -0.1667 -1.0265  0.0756
   16CHTO   O49 6501   5.709   3.100   1.906 -0.0901  0.5917  0.2755
   16CHTO   C77 6502   5.734   2.959   1.927 -0.0770 -0.3667 -0.1060
   16CHTO  H149 6503   5.661   2.911   1.991  0.0483  0.2874  0.5302
   16CHTO   C88 6504   5.856   2.948   2.012 -0.0604 -0.7728  0.0257
   16CHTO   O58 6505   5.966   3.027   1.970 -0.3807 -0.6027  0.3357
   16CHTO  H136 6506   6.002   2.985   1.894 -0.3247 -2.1382  1.1999
   16CHTO   O51 6507   5.631   3.290   1.791  0.1215  0.1486 -0.1925
   16CHTO   C78 6508   5.569   3.369   1.902  0.4879  0.7093 -0.6327
   16CHTO  H150 6509   5.553   3.300   1.987 -1.6655 -0.1632 -1.6950
   16CHTO   C80 6510   5.435   3.433   1.868 -0.4406 -0.3969  0.2437
   16CHTO  H152 6511   5.456   3.505   1.786  0.8348 -0.8890  0.1262
   16CHTO   O55 6512   5.342   3.331   1.822  0.3634 -0.5882 -0.0109
   16CHTO  H134 6513   5.269   3.382   1.794  0.5941 -0.6571 -0.7366
   16CHTO   C84 6514   5.364   3.514   1.985 -0.2271 -0.3295 -0.8365
   16CHTO  H156 6515   5.331   3.443   2.061  1.7548  0.9082  1.2548
   16CHTO   N15 6516   5.231   3.584   1.955 -0.1668 -0.1708  0.1123
   16CHTO  H143 6517   5.199   3.642   2.039  2.4590  2.7774 -0.8345
   16CHTO  H144 6518   5.156   3.511   1.932 -0.5810  0.9819 -2.3159
   16CHTO   C87 6519   5.472   3.598   2.049 -0.0038 -0.3314 -0.8038
   16CHTO  H159 6520   5.498   3.686   1.990 -2.1782  1.5046  0.8925
   16CHTO   O53 6521   5.610   3.514   2.083 -0.1889  0.2149  0.3331
   16CHTO   C82 6522   5.666   3.473   1.954 -0.1977 -0.9418  0.0672
   16CHTO  H154 6523   5.671   3.561   1.891 -0.3274  0.1537  1.5592
   16CHTO   C89 6524   5.810   3.425   1.971 -0.2093  0.2920  0.1988
   16CHTO   O59 6525   5.835   3.326   2.076  0.1091 -0.2962 -0.3639
   16CHTO  H137 6526   5.849   3.374   2.155  0.7231  0.2364 -0.7997
   16CHTO   O45 6527   5.426   3.653   2.181  0.8273 -0.9933 -0.2039
   16CHTO   C67 6528   5.505   3.760   2.240 -0.6392  0.4326 -0.2525
   16CHTO  H124 6529   5.610   3.750   2.209  0.6689  0.8958  3.7766
   16CHTO   C65 6530   5.448   3.902   2.205 -0.2203  0.0025 -0.1835
   16CHTO  H122 6531   5.340   3.886   2.205 -0.3592  0.9317 -0.2310
   16CHTO   O44 6532   5.472   3.937   2.063  0.1935 -0.3879  0.4616
   16CHTO  H102 6533   5.420   3.882   2.006 -1.8672 -1.4652  3.2528
   16CHTO   C63 6534   5.476   4.006   2.319  0.1532  0.6054 -0.0745
   16CHTO  H120 6535   5.407   3.990   2.402 -0.7378  1.2232 -0.6880
   16CHTO   N11 6536   5.444   4.147   2.289  0.7036 -0.4667 -0.0182
   16CHTO  H108 6537   5.341   4.176   2.300  0.5805 -0.6423 -0.6533
   16CHTO  H109 6538   5.488   4.175   2.195  1.5412  1.6339  0.9872
   16CHTO   C61 6539   5.620   3.977   2.378 -0.1619  0.2377  0.1295
   16CHTO  H118 6540   5.636   4.051   2.458  0.9400 -0.9229  0.9951
   16CHTO   O40 6541   5.628   3.840   2.443  0.3132 -0.3991  0.0210
   16CHTO   C68 6542   5.522   3.743   2.399  0.2136 -0.4962 -0.7297
   16CHTO  H125 6543   5.431   3.754   2.462 -0.3034  2.9552 -1.9626
   16CHTO   C72 6544   5.581   3.607   2.438 -0.4572  0.7939 -0.0781
   16CHTO   O48 6545   5.489   3.497   2.424 -0.5284 -0.2093  0.0880
   16CHTO  H105 6546   5.515   3.424   2.476 -0.7554 -1.1795 -1.1623
   16CHTO   O38 6547   5.717   4.003   2.274  0.3380 -0.1591  0.7368
   16CHTO   C55 6548   5.857   4.027   2.304 -0.1813  0.3766  0.1964
   16CHTO  H112 6549   5.870   3.973   2.400 -2.0686 -1.9966 -0.8325
   16CHTO   C56 6550   5.902   4.183   2.315  0.2714  0.0620 -0.4439
   16CHTO  H113 6551   5.885   4.234   2.219 -1.4296  0.7441  0.1933
   16CHTO   O42 6552   5.814   4.263   2.392 -0.3225  0.1440  0.1345
   16CHTO  H100 6553   5.853   4.348   2.397  2.6560 -1.0959 -0.9406
   16CHTO   C57 6554   6.061   4.195   2.351  0.7314 -0.8900  0.3177
   16CHTO  H114 6555   6.066   4.156   2.453 -0.5659 -0.4933  0.5540
   16CHTO   N10 6556   6.124   4.330   2.352  0.3322  0.1647 -0.2389
   16CHTO  H106 6557   6.161   4.362   2.255 -0.8894 -2.8902 -1.7758
   16CHTO  H107 6558   6.038   4.389   2.380 -1.1844 -0.9085 -2.4098
   16CHTO   C58 6559   6.140   4.105   2.253 -0.3095 -0.0543 -0.6543
   16CHTO  H115 6560   6.139   4.154   2.154 -0.0624  2.5839  0.5977
   16CHTO   O37 6561   6.076   3.973   2.243  0.2960  0.6098  0.4501
   16CHTO   C59 6562   5.939   3.962   2.199  0.1826 -0.1193 -0.1465
   16CHTO  H116 6563   5.913   4.011   2.105 -2.0223 -0.4597  0.2420
   16CHTO   C70 6564   5.907   3.814   2.176  0.5407 -0.2956  0.1268
   16CHTO   O46 6565   6.007   3.747   2.089 -0.4671 -0.3054  0.0228
   16CHTO  H103 6566   6.090   3.749   2.132  0.1511  0.5820 -1.1606
   16CHTO   O39 6567   6.306   4.076   2.297 -0.3291 -0.0906 -0.1959
   16CHTO   C60 6568   6.368   3.995   2.198 -0.4713 -0.6945 -0.9499
   16CHTO  H117 6569   6.294   3.925   2.159 -0.6792  0.3266 -2.4269
   16CHTO   C62 6570   6.422   4.081   2.079 -0.8200  0.5133  0.7708
   16CHTO  H119 6571   6.337   4.134   2.031 -0.0366  1.6324  0.5781
   16CHTO   O43 6572   6.520   4.178   2.118 -0.1583 -0.5005 -0.0781
   16CHTO  H101 6573   6.486   4.245   2.175  1.9293  0.1465  0.4290
   16CHTO   C66 6574   6.485   3.985   1.956  0.0057  0.3845 -0.1231
   16CHTO  H123 6575   6.413   3.909   1.926 -0.1143 -0.2519  1.7174
   16CHTO   N12 6576   6.533   4.057   1.837 -0.3286 -0.0855 -0.6513
   16CHTO  H110 6577   6.533   4.164   1.847 -2.2435 -0.0201 -1.1741
   16CHTO  H111 6578   6.514   4.018   1.738 -1.2850 -0.7886 -0.2013
   16CHTO   C69 6579   6.595   3.886   2.018  0.8476  0.2205  0.5963
   16CHTO  H126 6580   6.688   3.941   2.046  0.5231  0.6137  0.9016
   16CHTO   O41 6581   6.530   3.816   2.154 -0.1938 -0.2371 -0.1617
   16CHTO   C64 6582   6.486   3.909   2.256 -0.0772  0.1549  0.1416
   16CHTO  H121 6583   6.566   3.977   2.291 -0.0037  0.3781 -0.4467
   16CHTO   C71 6584   6.440   3.820   2.374 -0.6267 -0.1088  0.1494
   16CHTO   O47 6585   6.538   3.738   2.441 -0.6253  0.1863  0.4950
   16CHTO  H104 6586   6.577   3.688   2.372  1.1361  1.2443  0.7019
   16CHTO   O34 6587   6.630   3.772   1.931 -0.6669  0.4641 -0.2899
   16CHTO   C49 6588   6.740   3.691   1.869  0.2965 -0.1662  0.6478
   16CHTO   H91 6589   6.793   3.753   1.796  0.0925 -2.6829 -1.7541
   16CHTO   C47 6590   6.673   3.566   1.802 -0.1772 -0.7057  0.5313
   16CHTO   H89 6591   6.748   3.525   1.731 -0.8138  1.4482 -1.4391
   16CHTO   O33 6592   6.571   3.622   1.721  0.1809  0.2735 -0.0391
   16CHTO   H70 6593   6.575   3.591   1.632 -1.4951  0.7945 -0.3019
   16CHTO   C45 6594   6.611   3.458   1.910  0.1212  0.0057  0.7292
   16CHTO   H87 6595   6.536   3.506   1.974 -2.2573 -2.8194  0.1270
   16CHTO    N8 6596   6.555   3.344   1.837 -0.3265  0.2870  0.6060
   16CHTO   H75 6597   6.482   3.360   1.759 -1.2131  1.2790  1.6218
   16CHTO   H76 6598   6.631   3.274   1.807 -0.3327  0.2847  0.5944
   16CHTO   C43 6599   6.725   3.424   2.014 -0.5599 -0.1725 -0.0137
   16CHTO   H85 6600   6.672   3.378   2.097  0.0607  1.4063  1.3057
   16CHTO   O29 6601   6.793   3.543   2.059  0.3313  0.6431 -0.1021
   16CHTO   C50 6602   6.842   3.641   1.968  0.4179 -0.0192  0.4532
   16CHTO   H92 6603   6.886   3.725   2.025 -0.1329 -0.2113  1.1622
   16CHTO   C54 6604   6.971   3.586   1.903 -0.0699  0.2657 -0.1223
   16CHTO   O36 6605   7.013   3.678   1.804 -0.1571  0.2981 -0.2498
   16CHTO   H72 6606   7.102   3.705   1.810 -0.2575  1.5127 -3.1653
   16CHTO   O27 6607   6.826   3.325   1.976  0.1290 -0.0919 -0.4982
   16CHTO   C37 6608   6.938   3.244   2.027  0.3071  0.1785  0.0605
   16CHTO   H79 6609   7.029   3.302   2.001 -0.5998  0.8584 -1.6653
   16CHTO   C38 6610   6.924   3.217   2.183 -0.3562 -0.0277 -0.6752
   16CHTO   H80 6611   6.821   3.186   2.206 -0.9054  0.6770 -2.1205
   16CHTO   O31 6612   6.951   3.341   2.253  0.4355  0.8228  0.0682
   16CHTO   H68 6613   6.879   3.401   2.241  0.7796  0.7321 -2.6720
   16CHTO   C39 6614   7.024   3.103   2.231 -0.3130  0.5836 -0.5219
   16CHTO   H81 6615   7.126   3.141   2.234  0.4187 -1.3674  0.0206
   16CHTO    N7 6616   6.992   3.053   2.368  0.1445  0.3794 -0.4231
   16CHTO   H73 6617   7.065   2.989   2.414 -1.2304 -0.8135  0.1421
   16CHTO   H74 6618   6.892   3.013   2.364  0.1815  0.1712  0.4770
   16CHTO   C40 6619   7.037   2.976   2.128 -0.0251  0.1218 -0.7290
   16CHTO   H82 6620   6.943   2.921   2.140  0.7333 -0.9257  0.6040
   16CHTO   O26 6621   7.054   3.021   1.998 -0.1378  0.2910  0.2847
   16CHTO   C41 6622   6.942   3.109   1.948  0.1441 -0.2090 -0.8450
   16CHTO   H83 6623   6.845   3.057   1.948  0.5866 -1.0430 -1.2832
   16CHTO   C52 6624   6.981   3.142   1.806  0.0635 -0.0952  0.6432
   16CHTO   O35 6625   6.865   3.186   1.704  0.5618  0.4627  0.1838
   16CHTO   H71 6626   6.839   3.267   1.744 -0.4318 -0.3983  1.3085
   16CHTO   O28 6627   7.149   2.893   2.164 -0.5112  0.2559 -0.9762
   16CHTO   C42 6628   7.183   2.764   2.103 -0.1006  0.4014 -0.1675
   16CHTO   H84 6629   7.281   2.740   2.144 -0.5593 -0.2333  0.5898
   16CHTO   C44 6630   7.198   2.765   1.943  0.4926  0.7260 -0.2347
   16CHTO   H86 6631   7.099   2.781   1.900 -0.3176 -2.5202  0.2644
   16CHTO   O32 6632   7.297   2.864   1.914  0.1821 -0.2741 -0.4455
   16CHTO   H69 6633   7.269   2.943   1.955  0.4269 -0.2783 -0.2672
   16CHTO   C48 6634   7.241   2.626   1.891 -0.0440 -0.5187  0.0833
   16CHTO   H90 6635   7.342   2.605   1.927  0.6519 -0.0638 -1.5826
   16CHTO    N9 6636   7.244   2.611   1.739  0.1969  0.3571  0.1985
   16CHTO   H77 6637   7.343   2.612   1.697  0.4697 -0.7124  0.7941
   16CHTO   H78 6638   7.175   2.683   1.698  1.3518 -0.0023 -2.4635
   16CHTO   C51 6639   7.135   2.520   1.951 -0.3972 -0.1860 -0.3398
   16CHTO   H93 6640   7.037   2.542   1.909 -0.5914 -1.5414 -0.6124
   16CHTO   O30 6641   7.148   2.536   2.093  0.1636  0.5075 -0.0674
   16CHTO   C46 6642   7.096   2.644   2.141  0.4354  0.4694  0.4913
   16CHTO   H88 6643   6.994   2.663   2.106  0.4498  2.9038  1.6870
   16CHTO   C53 6644   7.085   2.628   2.293 -0.2309 -0.6227 -0.3563
   16CHTO   O72 6645   6.973   2.546   2.327 -0.2550 -0.0737  0.5942
   16CHTO  H199 6646   6.891   2.589   2.344 -0.9845 -2.0348  2.1843
   16CHTO   O22 6647   7.165   2.385   1.912  0.2857 -0.2954 -0.3241
   16CHTO   C31 6648   7.061   2.288   1.930  0.2527  0.5374 -0.3326
   16CHTO   H59 6649   6.990   2.325   2.006 -1.8420 -0.6865 -1.6379
   16CHTO   C29 6650   6.978   2.271   1.802  0.1625 -0.1018  0.2093
   16CHTO   H57 6651   7.046   2.230   1.726  0.0803  3.1320 -1.7006
   16CHTO   O21 6652   6.932   2.395   1.749  0.3921  0.0595  0.3196
   16CHTO   H37 6653   6.886   2.435   1.821  1.4831  1.4709  0.2442
   16CHTO   C27 6654   6.859   2.172   1.832 -0.4340  0.2449  0.4025
   16CHTO   H55 6655   6.793   2.208   1.912 -1.3149 -2.4674  0.9364
   16CHTO    N5 6656   6.768   2.133   1.718 -0.2910 -0.3891 -0.0727
   16CHTO   H43 6657   6.667   2.118   1.754 -0.9534  0.7917 -1.4190
   16CHTO   H44 6658   6.806   2.050   1.661  0.3900 -1.0816  1.3618
   16CHTO   C25 6659   6.920   2.039   1.881 -0.2276  0.6184 -0.0711
   16CHTO   H53 6660   6.964   1.987   1.795  3.1287  0.8604  1.4191
   16CHTO   O17 6661   7.008   2.065   2.001 -0.5783  0.2814 -0.4998
   16CHTO   C32 6662   7.119   2.152   1.983 -0.1477 -0.3902 -0.5821
   16CHTO   H60 6663   7.193   2.111   1.914  1.0838 -1.3275  1.2576
   16CHTO   C36 6664   7.191   2.169   2.115  0.4130  0.3397 -0.0743
   16CHTO   O25 6665   7.136   2.235   2.233  0.2788  0.3610  0.4771
   16CHTO   H40 6666   7.195   2.223   2.305 -0.8556  0.6991  1.4630
   16CHTO   O15 6667   6.801   1.924   1.933 -0.0367  0.3081 -0.2083
   16CHTO   C19 6668   6.694   1.919   2.032  0.1127  0.2931  0.2346
   16CHTO   H47 6669   6.702   1.825   2.089  1.0534  1.1006  1.4551
   16CHTO   C20 6670   6.690   2.027   2.135  0.3408 -0.0155  0.0227
   16CHTO   H48 6671   6.690   2.127   2.089  1.2271  0.7112  1.5650
   16CHTO   O19 6672   6.815   2.023   2.210  0.2066  0.2660  0.4150
   16CHTO   H35 6673   6.847   1.935   2.215  2.8954  1.1971  0.4975
   16CHTO   C21 6674   6.572   2.016   2.244 -0.2297  0.1708  0.7521
   16CHTO   H49 6675   6.583   1.921   2.296 -2.1994 -0.1841  0.5513
   16CHTO    N4 6676   6.566   2.107   2.360  0.1482 -0.5218  0.5949
   16CHTO   H41 6677   6.520   2.058   2.445  0.6603 -0.6184  0.8174
   16CHTO   H42 6678   6.506   2.190   2.326  0.2768 -1.3850 -1.8574
   16CHTO   C22 6679   6.438   1.983   2.168  0.6248 -0.9003  0.5944
   16CHTO   H50 6680   6.396   2.068   2.113  1.3148 -2.1160 -1.8538
   16CHTO   O14 6681   6.453   1.886   2.072  0.0711  0.3623  0.0247
   16CHTO   C23 6682   6.550   1.917   1.968  0.1214 -0.0728  0.1144
   16CHTO   H51 6683   6.531   2.010   1.912  0.5080  0.1582  0.3590
   16CHTO   C34 6684   6.531   1.797   1.872  0.1235 -0.0170  0.2541
   16CHTO   O23 6685   6.394   1.769   1.846  0.3384  0.0088  0.2802
   16CHTO   H38 6686   6.388   1.710   1.773 -0.7856  0.3594  0.0797
   16CHTO   O16 6687   6.337   1.929   2.253  0.5484 -0.5516 -0.1876
   16CHTO   C24 6688   6.194   1.997   2.247 -0.8128  0.2467 -0.1400
   16CHTO   H52 6689   6.179   2.048   2.152 -2.1198  0.3578  0.1184
   16CHTO   C26 6690   6.168   2.110   2.344  0.6139  0.2579 -0.4616
   16CHTO   H54 6691   6.192   2.081   2.448  0.8140 -2.8614 -1.3234
   16CHTO   O20 6692   6.259   2.217   2.322  0.0257  0.7938  0.5515
   16CHTO   H36 6693   6.292   2.266   2.395 -1.1980  1.8693  0.4144
   16CHTO   C30 6694   6.022   2.169   2.335  0.0631 -0.4578  0.0043
   16CHTO   H58 6695   6.008   2.211   2.235 -0.4483 -0.8438 -0.0939
   16CHTO    N6 6696   5.991   2.278   2.434  0.1599  0.4125  0.3041
   16CHTO   H45 6697   6.002   2.381   2.404 -2.2382  0.4294 -0.6297
   16CHTO   H46 6698   5.891   2.267   2.475  0.5103 -0.2485  1.0071
   16CHTO   C33 6699   5.922   2.052   2.340 -0.6483  0.8058 -0.1515
   16CHTO   H61 6700   5.925   2.000   2.437  0.9655 -0.0985 -0.6662
   16CHTO   O18 6701   5.957   1.956   2.238 -0.1960 -0.5960 -0.3548
   16CHTO   C28 6702   6.086   1.889   2.255  0.0724 -0.5909  0.5013
   16CHTO   H56 6703   6.086   1.851   2.357 -1.8081 -1.7843  0.0877
   16CHTO   C35 6704   6.095   1.787   2.140  0.6118  0.1085 -0.8541
   16CHTO   O24 6705   6.148   1.663   2.184  0.4632 -0.2231  0.5152
   16CHTO   H39 6706   6.116   1.591   2.132 -1.0520 -1.6124  3.2785
   16CHTO    O9 6707   5.781   2.095   2.322 -0.4913 -0.2577  0.3504
   16CHTO   C13 6708   5.682   2.028   2.443 -0.0761 -0.5154 -0.0799
   16CHTO   H26 6709   5.748   2.052   2.529  1.4122  0.1823 -1.3940
   16CHTO   C11 6710   5.654   1.877   2.433  0.2316  0.1601  0.7723
   16CHTO   H24 6711   5.750   1.828   2.456 -0.1693 -0.8040  0.4223
   16CHTO    O8 6712   5.615   1.847   2.300 -0.5592 -0.0237 -0.5396
   16CHTO    H3 6713   5.592   1.758   2.280 -0.9081  0.0719 -0.5591
   16CHTO    C9 6714   5.552   1.851   2.545  0.5500  0.3498  0.1842
   16CHTO   H22 6715   5.589   1.901   2.635  2.2355 -3.1550  1.5575
   16CHTO    N2 6716   5.535   1.708   2.586  0.3488 -0.0851 -0.2074
   16CHTO   H10 6717   5.476   1.655   2.512  0.6703 -0.7196 -0.0161
   16CHTO   H11 6718   5.635   1.668   2.593 -0.5847 -2.2732  1.1692
   16CHTO    C7 6719   5.413   1.915   2.505  0.3530 -0.1761  0.3860
   16CHTO   H20 6720   5.366   1.929   2.605 -1.2346 -0.5003 -0.3014
   16CHTO    O4 6721   5.427   2.046   2.447 -0.4625 -0.0561  0.5972
   16CHTO   C14 6722   5.546   2.117   2.465 -0.3039  0.5921  0.3399
   16CHTO   H27 6723   5.553   2.157   2.569 -0.8933 -0.4686  0.7899
   16CHTO   C18 6724   5.541   2.241   2.371 -0.2322  0.0331 -0.2439
   16CHTO   O13 6725   5.626   2.350   2.391  0.3817  0.1681  0.1884
   16CHTO    H7 6726   5.706   2.342   2.438  0.6619  2.2794  0.1161
   16CHTO    O2 6727   5.320   1.820   2.399  0.1814  0.4265 -0.1595
   16CHTO    C1 6728   5.178   1.839   2.390  0.1475  0.4434  0.3962
   16CHTO   H14 6729   5.134   1.759   2.326 -0.0223  0.7507  0.1276
   16CHTO    C2 6730   5.142   1.978   2.322 -0.7645 -0.3725 -0.0364
   16CHTO   H15 6731   5.179   2.058   2.388 -1.4981  0.4152 -0.5700
   16CHTO    O6 6732   5.204   1.989   2.191 -0.1520  0.3120  0.2689
   16CHTO    H1 6733   5.169   2.067   2.154 -0.9486  0.7792  1.9645
   16CHTO    C3 6734   4.983   1.989   2.308  0.0614 -0.0959 -0.3608
   16CHTO   H16 6735   4.955   1.911   2.234  0.9642  1.3047 -2.2158
   16CHTO    N1 6736   4.943   2.126   2.255  0.2662 -0.2993  0.2811
   16CHTO    H8 6737   4.995   2.159   2.166  2.3180 -0.0903  1.5453
   16CHTO    H9 6738   4.966   2.197   2.332  1.3078 -0.5914  0.2508
   16CHTO    C4 6739   4.909   1.951   2.438  0.1241  0.3683 -0.2578
   16CHTO   H17 6740   4.923   2.033   2.509  0.0669  0.3866 -0.2686
   16CHTO    O1 6741   4.965   1.829   2.499 -0.3812 -0.5492  0.1897
   16CHTO    C5 6742   5.101   1.828   2.525  0.6265 -0.2441 -0.8151
   16CHTO   H18 6743   5.106   1.904   2.604  1.1007 -0.6943 -0.4136
   16CHTO   C16 6744   5.141   1.693   2.591  1.0761 -0.1513  0.1400
   16CHTO   O11 6745   5.108   1.572   2.517 -0.5159  0.2829 -0.1352
   16CHTO    H5 6746   5.188   1.524   2.514 -0.2691  0.4928  2.3799
   16CHTO    O3 6747   4.767   1.936   2.420 -0.2086 -0.0464  0.0705
   16CHTO    C6 6748   4.685   1.989   2.535  0.5520 -0.4507 -0.4241
   16CHTO   H19 6749   4.738   2.018   2.626 -1.8125 -2.8587  1.7945
   16CHTO    C8 6750   4.598   2.112   2.485  0.1627 -0.3031  0.5260
   16CHTO   H21 6751   4.541   2.076   2.399  2.3836  0.9148 -1.5564
   16CHTO    O7 6752   4.678   2.212   2.431 -0.0914  0.0842 -0.0581
   16CHTO    H2 6753   4.626   2.287   2.405  0.3964  1.6625  3.2721
   16CHTO   C12 6754   4.511   2.161   2.605 -0.0674  1.0998  0.3428
   16CHTO   H25 6755   4.575   2.202   2.686 -0.6904  1.6900  0.5354
   16CHTO    N3 6756   4.422   2.278   2.563  0.0981  0.7107  0.3137
   16CHTO   H12 6757   4.458   2.321   2.471  1.0913  1.0205  0.8468
   16CHTO   H13 6758   4.408   2.351   2.642 -2.0767  2.8913 -2.0055
   16CHTO   C15 6759   4.428   2.038   2.667 -0.6892  0.2828  0.0934
   16CHTO   H28 6760   4.341   2.016   2.605 -0.4588  1.6550 -0.7549
   16CHTO   O10 6761   4.389   2.067   2.808 -0.0951  0.5488  0.0736
   16CHTO    H4 6762   4.351   2.153   2.810 -2.2846 -0.3810  0.1200
   16CHTO    O5 6763   4.511   1.923   2.691  0.7062 -0.2283  0.0771
   16CHTO   C10 6764   4.587   1.882   2.576  0.0247  0.6948  0.5903
   16CHTO   H23 6765   4.514   1.864   2.497 -0.4658  0.6525  1.0433
   16CHTO   C17 6766   4.654   1.748   2.622  0.2149  0.2934  0.9455
   16CHTO   O12 6767   4.553   1.655   2.651  0.4113  0.7319 -0.0644
   16CHTO    H6 6768   4.551   1.572   2.607  2.3730  1.8200 -2.2996
   17CHTO  H203 6769   4.856   4.466   0.687  1.0599 -0.4415  0.1822
   17CHTO   O82 6770   4.834   4.479   0.777  0.5497  0.4369 -0.0629
   17CHTO  C123 6771   4.756   4.598   0.788 -1.0037 -1.3056 -0.1857
   17CHTO  H227 6772   4.650   4.572   0.769 -1.6121  0.2026  1.0264
   17CHTO   O77 6773   4.757   4.622   0.933 -0.6794  0.3173  0.3773
   17CHTO  C118 6774   4.692   4.740   0.986 -0.0557  0.2824  0.4866
   17CHTO  H222 6775   4.583   4.725   0.975  0.1957  0.3848 -2.8913
   17CHTO  C125 6776   4.736   4.737   1.138 -0.5541 -0.2731 -0.9343
   17CHTO   O84 6777   4.666   4.635   1.215 -1.0007  0.7241 -0.5027
   17CHTO  H205 6778   4.600   4.672   1.271 -0.9347 -0.3334  0.2909
   17CHTO  C114 6779   4.738   4.866   0.908 -0.5689 -0.0711 -0.8136
   17CHTO  H218 6780   4.844   4.881   0.925 -0.2998 -1.7605 -0.8789
   17CHTO  C116 6781   4.726   4.853   0.750 -0.2971  0.1046 -0.5008
   17CHTO  H220 6782   4.620   4.859   0.718  0.2578 -2.7176 -3.0632
   17CHTO   O79 6783   4.783   4.978   0.709 -0.2800  0.1339  0.4841
   17CHTO  H201 6784   4.824   4.983   0.625 -0.2015  1.2364  0.5867
   17CHTO  C120 6785   4.802   4.726   0.705 -0.5008 -0.1467  0.5447
   17CHTO  H224 6786   4.907   4.758   0.722  0.5777 -0.6688 -4.3491
   17CHTO   N21 6787   4.792   4.705   0.561 -0.1108  0.1532 -0.1680
   17CHTO  H211 6788   4.880   4.646   0.543  0.9862  0.9215  2.4625
   17CHTO  H212 6789   4.788   4.799   0.507  0.3683 -0.2097 -0.8445
   17CHTO   O75 6790   4.668   4.974   0.975 -0.2819 -0.0024 -0.1375
   17CHTO  C112 6791   4.691   5.142   0.933  0.0696 -0.2161 -0.6309
   17CHTO  H216 6792   4.646   5.159   0.834 -1.3061  0.1970  0.0486
   17CHTO   O73 6793   4.834   5.168   0.929 -0.3335 -0.7499 -0.3445
   17CHTO  C113 6794   4.873   5.299   0.885 -0.1861  0.2793 -0.7476
   17CHTO  H217 6795   4.845   5.297   0.777  0.4044  1.0458 -0.9153
   17CHTO  C124 6796   5.028   5.311   0.906  0.4952 -0.5848  0.6039
   17CHTO   O83 6797   5.091   5.413   0.834  0.0947 -0.7110  0.2586
   17CHTO  H204 6798   5.101   5.498   0.873  2.9937 -0.8069 -0.1262
   17CHTO  C109 6799   4.806   5.415   0.968  0.4289 -0.4548 -0.2709
   17CHTO  H213 6800   4.857   5.419   1.065  2.0469 -0.8336 -1.0775
   17CHTO  C110 6801   4.651   5.385   0.986  0.1622  0.5937 -0.2322
   17CHTO  H214 6802   4.593   5.411   0.898  1.9715  0.7628 -1.3864
   17CHTO   O78 6803   4.619   5.480   1.093  0.2837 -0.0508  0.3714
   17CHTO  H200 6804   4.595   5.563   1.056  0.9812  0.9648  2.1518
   17CHTO  C111 6805   4.629   5.235   1.039 -0.5813  0.1666  0.4929
   17CHTO  H215 6806   4.675   5.224   1.138  0.2183 -0.0707  0.0942
   17CHTO   N19 6807   4.484   5.203   1.054 -0.1840 -0.2501 -0.0986
   17CHTO  H207 6808   4.408   5.277   1.075  0.1025 -0.7421  2.8019
   17CHTO  H208 6809   4.478   5.137   1.139 -2.3013  0.9216  0.7157
   17CHTO   O74 6810   4.833   5.538   0.899  0.5751 -0.3038 -0.0569
   17CHTO  C115 6811   4.900   5.654   0.994 -0.0735  0.0014  0.3717
   17CHTO  H219 6812   4.831   5.691   1.070 -0.1310  0.7335 -0.0260
   17CHTO   O76 6813   5.035   5.592   1.084 -0.2682  0.0816 -0.0286
   17CHTO  C122 6814   5.098   5.694   1.156 -0.8526 -0.6564 -0.0615
   17CHTO  H226 6815   5.192   5.648   1.186 -0.1629 -0.4542 -1.8120
   17CHTO  C126 6816   5.024   5.729   1.290  0.0383 -0.0547 -0.1184
   17CHTO   O85 6817   5.035   5.629   1.386  0.2846 -0.1736  0.5616
   17CHTO  H206 6818   4.966   5.634   1.450 -0.1556 -0.2412  0.0930
   17CHTO  C121 6819   5.130   5.817   1.061  0.2313 -0.5496  0.2648
   17CHTO  H225 6820   5.168   5.886   1.139  0.8101 -0.4415 -0.1090
   17CHTO   O81 6821   5.240   5.798   0.970 -0.2494  0.4568  0.3778
   17CHTO  H202 6822   5.232   5.719   0.920  0.6555  0.5130  0.1217
   17CHTO  C119 6823   4.999   5.879   0.996 -0.3677  0.1514  0.2003
   17CHTO  H223 6824   4.932   5.908   1.077  0.9695  1.5643  0.8408
   17CHTO  C117 6825   4.932   5.775   0.906  0.0610  0.1174  0.0910
   17CHTO  H221 6826   4.997   5.738   0.827  1.3638 -1.5046  1.8517
   17CHTO   N20 6827   4.806   5.825   0.841  0.1436  0.9326  0.1439
   17CHTO  H209 6828   4.722   5.817   0.907 -0.4194  0.3542 -0.6343
   17CHTO  H210 6829   4.819   5.931   0.824  1.7304  0.7154 -0.1387
   17CHTO   O80 6830   5.017   6.034   0.910  0.5194  1.0798  0.3368
   17CHTO  C103 6831   5.084   6.176   0.994  1.2166 -0.6511 -0.2991
   17CHTO  H190 6832   5.081   6.163   1.103  2.1889  0.8210 -0.0882
   17CHTO  C101 6833   5.228   6.211   0.944  0.0558  0.0154  0.8097
   17CHTO  H188 6834   5.237   6.202   0.836 -0.1018  1.3281  0.6849
   17CHTO   O68 6835   5.329   6.104   0.998  0.0643  0.0134 -0.4964
   17CHTO  H168 6836   5.313   6.105   1.091  3.5759  1.3211  0.2003
   17CHTO   C99 6837   5.271   6.367   0.972 -0.2809 -0.0536 -0.1578
   17CHTO  H186 6838   5.266   6.370   1.082  1.6634  0.7859 -0.0682
   17CHTO   N17 6839   5.407   6.399   0.922 -0.0609 -0.1643  0.7189
   17CHTO  H174 6840   5.429   6.497   0.963 -0.0308  0.3992 -0.6105
   17CHTO  H175 6841   5.483   6.332   0.960  1.4023  1.8360  1.4406
   17CHTO   C97 6842   5.152   6.455   0.925  0.0593 -0.8458  0.1266
   17CHTO  H184 6843   5.137   6.440   0.817  2.7502  1.3574 -0.6035
   17CHTO   O64 6844   5.033   6.417   0.997 -0.4359 -0.3028 -1.1096
   17CHTO  C104 6845   4.983   6.290   0.958  0.1251  0.5083  0.0224
   17CHTO  H191 6846   4.960   6.281   0.852  0.9590 -0.8665 -0.0540
   17CHTO  C108 6847   4.845   6.269   1.026  0.1958 -0.3876  0.4129
   17CHTO   O71 6848   4.747   6.354   0.985  0.3340 -0.0387  0.0514
   17CHTO  H171 6849   4.761   6.367   0.893  2.3955 -0.6301  0.2550
   17CHTO   O62 6850   5.179   6.593   0.957  0.5265  0.4059 -0.2529
   17CHTO   C91 6851   5.130   6.696   0.869 -0.0847 -0.3897 -0.3067
   17CHTO  H178 6852   5.073   6.651   0.787 -0.8481 -0.3787  0.2144
   17CHTO   C92 6853   5.247   6.777   0.813  0.2069 -0.2926 -0.0427
   17CHTO  H179 6854   5.326   6.710   0.777 -0.7339 -0.7791 -1.2281
   17CHTO   O66 6855   5.199   6.840   0.689 -0.1347 -0.0400  0.7729
   17CHTO  H166 6856   5.157   6.784   0.627 -1.5467  0.9755  0.7983
   17CHTO   C93 6857   5.303   6.894   0.902 -0.7475  0.3632  0.5077
   17CHTO  H180 6858   5.363   6.956   0.833  1.1645 -0.8577  1.0253
   17CHTO   N16 6859   5.402   6.848   1.003 -0.0965  0.2982  0.5361
   17CHTO  H172 6860   5.438   6.748   0.984  0.0842  0.1088  1.8265
   17CHTO  H173 6861   5.483   6.911   1.035  0.4495  0.2555 -0.7583
   17CHTO   C94 6862   5.196   6.982   0.969  0.2581 -0.3108  0.1489
   17CHTO  H181 6863   5.182   6.964   1.076 -1.9403  2.3782  0.3730
   17CHTO   O61 6864   5.069   6.942   0.917 -0.4764  0.2231 -0.4341
   17CHTO   C95 6865   5.036   6.804   0.942  0.1924  0.0837 -1.0106
   17CHTO  H182 6866   5.043   6.782   1.049  1.0602 -1.2467 -1.3269
   17CHTO  C106 6867   4.895   6.767   0.892  0.0912 -0.7097 -0.2981
   17CHTO   O69 6868   4.843   6.644   0.945  0.4727  0.2011  0.4414
   17CHTO  H169 6869   4.836   6.640   1.039 -1.1657 -1.1050  0.2913
   17CHTO   O63 6870   5.221   7.130   0.942 -0.2063  0.2621  0.5589
   17CHTO   C96 6871   5.131   7.232   1.029 -0.1642  0.3673  0.1799
   17CHTO  H183 6872   5.076   7.172   1.102 -2.4694  0.7104 -1.2099
   17CHTO   C98 6873   5.028   7.314   0.954  0.0987  0.7856 -0.5803
   17CHTO  H185 6874   5.077   7.362   0.868 -0.2379 -1.2705 -1.9393
   17CHTO   O67 6875   4.928   7.229   0.893 -0.1976 -0.2774 -0.0282
   17CHTO  H167 6876   4.890   7.165   0.951 -1.7608  0.1684 -0.5333
   17CHTO  C102 6877   4.954   7.420   1.055 -0.3656 -0.5404 -0.6524
   17CHTO  H189 6878   4.888   7.363   1.122 -0.5684  0.9002  0.3881
   17CHTO   N18 6879   4.865   7.523   0.986  0.2957  0.0817  0.6573
   17CHTO  H176 6880   4.767   7.508   1.029  0.7567 -4.0894  0.3748
   17CHTO  H177 6881   4.907   7.621   0.965  1.8107 -0.6775  0.0862
   17CHTO  C105 6882   5.050   7.488   1.151 -0.3661  0.4180 -0.3066
   17CHTO  H192 6883   5.104   7.567   1.097  1.0157  0.5201  1.2138
   17CHTO   O65 6884   5.150   7.399   1.199  0.1104  0.1676 -0.4872
   17CHTO  C100 6885   5.230   7.320   1.111  0.2886 -0.0673 -0.3144
   17CHTO  H187 6886   5.277   7.388   1.038 -1.2980  0.6652 -0.6753
   17CHTO  C107 6887   5.336   7.245   1.196  0.7208 -0.8608 -0.0233
   17CHTO   O70 6888   5.443   7.337   1.236  0.6155  0.2985  0.3425
   17CHTO  H170 6889   5.402   7.404   1.288 -0.9944 -1.8512  1.8985
   17CHTO   O57 6890   4.970   7.536   1.272  0.3843 -0.3577 -0.4017
   17CHTO   C85 6891   4.976   7.674   1.309 -0.2768 -0.0100  0.2939
   17CHTO  H157 6892   4.970   7.739   1.219  0.3356 -0.3370  0.0111
   17CHTO   C83 6893   5.119   7.703   1.377 -0.2437 -0.3737  0.5830
   17CHTO  H155 6894   5.198   7.681   1.304  0.0341 -0.5101  0.9214
   17CHTO   O56 6895   5.148   7.619   1.489  0.6431  0.2395  0.6698
   17CHTO  H135 6896   5.138   7.528   1.466 -0.4117  0.6291 -0.5209
   17CHTO   C81 6897   5.118   7.853   1.414 -0.0195 -0.4688 -0.3015
   17CHTO  H153 6898   5.105   7.911   1.323  1.2611  2.2515  1.2008
   17CHTO   N14 6899   5.250   7.912   1.463  0.1307 -0.0070  0.3237
   17CHTO  H141 6900   5.285   7.875   1.557  0.6043  0.6959  0.4280
   17CHTO  H142 6901   5.324   7.891   1.389 -0.3042 -2.2459  0.5039
   17CHTO   C79 6902   5.004   7.891   1.514 -0.0304 -0.5900  0.3051
   17CHTO  H151 6903   5.006   8.000   1.523  0.4379 -0.5062 -0.7975
   17CHTO   O52 6904   4.874   7.844   1.459  0.5937  0.3406  0.3300
   17CHTO   C86 6905   4.866   7.710   1.407 -0.6119  0.5411  0.2855
   17CHTO  H158 6906   4.878   7.643   1.495 -0.2977 -0.5354 -0.5669
   17CHTO   C90 6907   4.728   7.682   1.351 -0.4348 -0.0712 -0.1235
   17CHTO   O60 6908   4.681   7.771   1.255 -0.6484 -0.0018  0.2178
   17CHTO  H138 6909   4.610   7.723   1.218  1.2135 -2.0238 -0.8568
   17CHTO   O50 6910   5.020   7.828   1.646 -0.3739  0.2983  0.1420
   17CHTO   C73 6911   5.010   7.826   1.789 -0.3118  0.1919  0.2087
   17CHTO  H145 6912   4.959   7.916   1.825 -0.3359  0.0676  0.4870
   17CHTO   C74 6913   5.152   7.805   1.855  0.4130 -0.7880  0.6089
   17CHTO  H146 6914   5.213   7.892   1.825 -0.0092 -0.2956  1.1689
   17CHTO   O54 6915   5.142   7.813   1.994 -0.1707  0.0792 -0.1221
   17CHTO  H133 6916   5.228   7.830   2.028 -0.9507  2.1704  0.8889
   17CHTO   C75 6917   5.215   7.667   1.806 -0.1610  0.6943 -0.2708
   17CHTO  H147 6918   5.233   7.673   1.698  1.0795 -0.7321 -0.1753
   17CHTO   N13 6919   5.346   7.638   1.863 -0.7049 -0.8672 -0.0260
   17CHTO  H139 6920   5.403   7.729   1.858 -1.7324  0.0117  3.0571
   17CHTO  H140 6921   5.326   7.628   1.969 -1.5159 -2.0235 -0.2700
   17CHTO   C76 6922   5.103   7.554   1.824 -0.5050 -0.1821 -0.4581
   17CHTO  H148 6923   5.092   7.537   1.931  0.8695  1.5897 -0.0177
   17CHTO   O49 6924   4.962   7.578   1.781  0.2806  1.1584  0.2379
   17CHTO   C77 6925   4.920   7.706   1.833  0.1374 -0.1745 -0.4721
   17CHTO  H149 6926   4.911   7.699   1.941  1.8929 -0.0239 -0.3013
   17CHTO   C88 6927   4.778   7.728   1.776 -0.0357 -0.2257 -0.6947
   17CHTO   O58 6928   4.691   7.653   1.821  0.0068  0.0742 -0.2810
   17CHTO  H136 6929   4.672   7.667   1.912  1.0757  1.6412 -0.2657
   17CHTO   O51 6930   5.146   7.424   1.757 -0.8374 -0.2731 -0.3990
   17CHTO   C78 6931   5.036   7.301   1.780 -0.1565  0.4182  0.4636
   17CHTO  H150 6932   4.932   7.339   1.779 -0.4505 -0.3767  0.4100
   17CHTO   C80 6933   5.048   7.219   1.907 -0.4098  0.3749  1.5110
   17CHTO  H152 6934   5.155   7.192   1.911  0.1502  2.1192 -0.7664
   17CHTO   O55 6935   5.000   7.313   2.008 -0.2101  0.3705  0.0733
   17CHTO  H134 6936   4.985   7.272   2.091 -1.0873  1.6772  0.5602
   17CHTO   C84 6937   4.958   7.086   1.900  0.0154  1.0919 -0.9793
   17CHTO  H156 6938   4.852   7.112   1.900 -0.3515 -0.3786 -1.5100
   17CHTO   N15 6939   4.976   7.003   2.018 -0.0253  0.4891  0.5448
   17CHTO  H143 6940   4.875   6.991   2.051 -1.0796  3.0599 -1.5308
   17CHTO  H144 6941   5.030   7.055   2.094  0.3637  0.0577  0.5635
   17CHTO   C87 6942   4.985   7.001   1.775  0.1499  0.5028 -0.1702
   17CHTO  H159 6943   5.087   6.964   1.764 -0.2242 -1.1265  1.6580
   17CHTO   O53 6944   4.963   7.095   1.668  0.3830  0.0352  0.0578
   17CHTO   C82 6945   5.057   7.206   1.664 -0.0401 -0.5125 -0.5368
   17CHTO  H154 6946   5.153   7.156   1.672  0.6724  1.1640  1.9640
   17CHTO   C89 6947   5.054   7.285   1.528 -0.3919 -0.2147  0.1416
   17CHTO   O59 6948   4.922   7.295   1.468 -0.5126 -0.0598 -0.5222
   17CHTO  H137 6949   4.930   7.345   1.389  1.9904 -0.2207 -0.4223
   17CHTO   O45 6950   4.887   6.882   1.731 -0.3018 -0.1006  0.1212
   17CHTO   C67 6951   4.753   6.904   1.771  0.4465  0.5190  0.0073
   17CHTO  H124 6952   4.748   6.939   1.874  0.1519 -0.1476  0.2209
   17CHTO   C65 6953   4.671   7.004   1.685  0.6353  0.2435 -0.1944
   17CHTO  H122 6954   4.746   7.060   1.629  1.3466 -0.7727 -0.2770
   17CHTO   O44 6955   4.573   7.084   1.765  0.0204  0.5145 -0.0362
   17CHTO  H102 6956   4.510   7.133   1.717 -0.0550  0.3891 -0.0644
   17CHTO   C63 6957   4.594   6.912   1.579 -0.4456 -0.2148 -0.2181
   17CHTO  H120 6958   4.671   6.849   1.535  0.5711  1.3255 -0.7189
   17CHTO   N11 6959   4.537   6.986   1.459  0.4457 -0.7571  0.0024
   17CHTO  H108 6960   4.486   7.076   1.485  0.4621 -0.3975 -1.1743
   17CHTO  H109 6961   4.614   7.019   1.393 -0.8029  1.3874 -0.3971
   17CHTO   C61 6962   4.493   6.818   1.650 -0.7618 -0.7651 -0.5338
   17CHTO  H118 6963   4.459   6.743   1.577 -1.6291 -0.5407 -0.3648
   17CHTO   O40 6964   4.554   6.747   1.763 -0.7378  0.0217  0.0475
   17CHTO   C68 6965   4.694   6.757   1.780  0.3356 -0.0502  0.5693
   17CHTO  H125 6966   4.749   6.691   1.710  0.7435 -1.0856  1.8394
   17CHTO   C72 6967   4.724   6.703   1.921 -0.4187 -0.4256  0.0600
   17CHTO   O48 6968   4.715   6.567   1.931 -0.1036 -0.3789 -0.7208
   17CHTO  H105 6969   4.780   6.545   1.994 -0.0704 -0.9652 -0.9563
   17CHTO   O38 6970   4.385   6.899   1.706 -0.3890  0.8447 -0.5086
   17CHTO   C55 6971   4.277   6.848   1.782 -0.0756 -0.0981  0.3555
   17CHTO  H112 6972   4.318   6.804   1.873  0.6892  1.2893  0.7083
   17CHTO   C56 6973   4.186   6.740   1.700  0.3753 -0.2198 -0.1657
   17CHTO  H113 6974   4.141   6.800   1.620  0.1390 -1.8198 -1.2704
   17CHTO   O42 6975   4.256   6.622   1.648  0.2479 -0.6679  0.3483
   17CHTO  H100 6976   4.321   6.581   1.701  0.5438  0.1551  0.6259
   17CHTO   C57 6977   4.066   6.693   1.799 -0.4686 -0.5848  0.5444
   17CHTO  H114 6978   4.111   6.634   1.878  0.8953 -1.3622 -0.7973
   17CHTO   N10 6979   3.960   6.612   1.731 -0.0913  0.2833  0.2541
   17CHTO  H106 6980   3.995   6.567   1.639 -0.7483  1.0578 -0.3757
   17CHTO  H107 6981   3.934   6.534   1.802  1.9673 -0.1308  0.5656
   17CHTO   C58 6982   3.996   6.819   1.864  0.2892  0.2699  0.0206
   17CHTO  H115 6983   3.934   6.877   1.792  0.5069  1.6236  0.9159
   17CHTO   O37 6984   4.098   6.900   1.925 -0.4071  0.0389  0.4070
   17CHTO   C59 6985   4.193   6.964   1.836  0.1909 -0.2882  0.4431
   17CHTO  H116 6986   4.137   7.021   1.762 -1.1569  0.1963  1.8059
   17CHTO   C70 6987   4.271   7.065   1.917  0.3268  0.1486  0.0850
   17CHTO   O46 6988   4.289   7.035   2.060  0.2660 -0.5887  0.5889
   17CHTO  H103 6989   4.306   6.943   2.068 -1.2916 -1.1190 -1.6352
   17CHTO   O39 6990   3.906   6.772   1.983 -0.3759 -0.3959 -0.1271
   17CHTO   C60 6991   3.825   6.867   2.047  0.5190 -0.5574 -0.1013
   17CHTO  H117 6992   3.890   6.954   2.064  0.3900 -0.6090  0.6549
   17CHTO   C62 6993   3.698   6.893   1.962 -0.0271  0.1166 -0.0900
   17CHTO  H119 6994   3.737   6.939   1.869  1.8540  1.6101  1.3691
   17CHTO   O43 6995   3.640   6.761   1.943 -0.4326  0.6583  0.7206
   17CHTO  H101 6996   3.699   6.702   1.900  0.9386  2.5856 -0.1124
   17CHTO   C66 6997   3.598   6.988   2.043 -0.5007 -0.5325 -0.1533
   17CHTO  H123 6998   3.638   7.088   2.051  0.9595 -0.7369 -3.8760
   17CHTO   N12 6999   3.466   7.010   1.971  0.1773 -0.4253  0.0885
   17CHTO  H110 7000   3.480   7.100   1.913 -0.6064 -2.2556 -3.0428
   17CHTO  H111 7001   3.425   6.925   1.919 -0.1113  0.8501 -1.7933
   17CHTO   C69 7002   3.571   6.941   2.190  0.4466  0.0933  0.2146
   17CHTO  H126 7003   3.501   6.855   2.184 -0.1619  0.5879  0.2721
   17CHTO   O41 7004   3.694   6.906   2.261 -0.4170  0.2744 -0.5560
   17CHTO   C64 7005   3.795   6.809   2.189  0.3115  0.0531  0.3302
   17CHTO  H121 7006   3.740   6.713   2.184  0.7722 -0.2578  1.1404
   17CHTO   C71 7007   3.924   6.793   2.265  0.0997 -0.5939  0.4111
   17CHTO   O47 7008   3.975   6.918   2.304 -0.1837  0.0370 -0.1912
   17CHTO  H104 7009   4.063   6.904   2.331 -0.0380 -1.1764 -1.2012
   17CHTO   O34 7010   3.491   7.041   2.288  0.0940  0.2475 -0.1035
   17CHTO   C49 7011   3.388   7.146   2.385 -0.1469  0.9748 -0.1130
   17CHTO   H91 7012   3.450   7.219   2.437  2.5339  0.2481 -2.2030
   17CHTO   C47 7013   3.317   7.052   2.478  0.0495 -0.3690 -0.7376
   17CHTO   H89 7014   3.261   7.120   2.546 -0.6046 -0.8007 -0.8420
   17CHTO   O33 7015   3.412   6.975   2.558  0.8677 -0.2075  0.6911
   17CHTO   H70 7016   3.399   6.882   2.553 -1.8691  0.1760 -0.1108
   17CHTO   C45 7017   3.214   6.952   2.403 -0.4608 -0.1290 -0.0409
   17CHTO   H87 7018   3.265   6.854   2.398  1.2539  0.5765  2.9585
   17CHTO    N8 7019   3.090   6.928   2.479  0.0343 -0.0697 -0.4742
   17CHTO   H75 7020   3.062   6.828   2.449 -0.9114 -0.0970  0.4729
   17CHTO   H76 7021   3.008   6.988   2.441  0.5553 -0.8587 -2.8982
   17CHTO   C43 7022   3.195   6.990   2.251  0.2489  0.6416  0.1849
   17CHTO   H85 7023   3.282   6.951   2.198 -0.6031  0.7799 -1.3405
   17CHTO   O29 7024   3.183   7.127   2.235  0.3579  0.1238 -0.3570
   17CHTO   C50 7025   3.288   7.214   2.291  0.6592  0.3575 -0.4943
   17CHTO   H92 7026   3.346   7.253   2.206  0.8601 -2.0543 -1.4853
   17CHTO   C54 7027   3.214   7.340   2.343 -0.5506 -0.7981 -0.1055
   17CHTO   O36 7028   3.300   7.418   2.420  0.5757 -0.1518 -0.3319
   17CHTO   H72 7029   3.331   7.375   2.497  2.4171  1.1286 -0.3119
   17CHTO   O27 7030   3.084   6.927   2.183 -0.4805 -0.6579 -0.2561
   17CHTO   C37 7031   3.041   6.828   2.084 -0.0047  0.4178 -0.0416
   17CHTO   H79 7032   2.932   6.810   2.089 -0.0425 -0.5261 -3.0787
   17CHTO   C38 7033   3.056   6.877   1.936 -0.7245 -0.1897 -0.5861
   17CHTO   H80 7034   3.161   6.909   1.922 -0.9509  1.2461  0.8304
   17CHTO   O31 7035   2.979   6.992   1.918  0.4551  0.2960  0.4975
   17CHTO   H68 7036   3.003   7.032   1.837 -0.7125  0.4342  0.2146
   17CHTO   C39 7037   3.007   6.767   1.836  0.3395 -0.2763  0.3107
   17CHTO   H81 7038   2.901   6.754   1.856  0.2478  0.1974  0.1475
   17CHTO    N7 7039   3.023   6.799   1.688 -0.2673  1.0295  0.0382
   17CHTO   H73 7040   2.923   6.798   1.648 -0.0614  4.2504 -0.6784
   17CHTO   H74 7041   3.077   6.892   1.675 -1.0036  1.6698  1.3938
   17CHTO   C40 7042   3.080   6.632   1.867 -0.1681 -0.0435 -0.2891
   17CHTO   H82 7043   3.184   6.658   1.851 -0.1542 -0.2599 -0.5511
   17CHTO   O26 7044   3.054   6.596   2.008 -0.4166  0.7204  0.6360
   17CHTO   C41 7045   3.116   6.694   2.100 -0.4612 -0.1309 -0.4250
   17CHTO   H83 7046   3.222   6.703   2.072 -0.2564  0.9759  0.6720
   17CHTO   C52 7047   3.120   6.639   2.248 -0.5270 -0.3608 -0.0158
   17CHTO   O35 7048   2.960   6.598   2.317 -0.5047  0.1722 -0.5247
   17CHTO   H71 7049   2.904   6.659   2.273  1.6716  1.2439 -1.8728
   17CHTO   O28 7050   3.042   6.521   1.779 -0.0494  0.2791  0.1482
   17CHTO   C42 7051   3.131   6.403   1.758 -0.3301 -0.0315 -0.6092
   17CHTO   H84 7052   3.066   6.327   1.714  2.2937 -1.0456 -2.8492
   17CHTO   C44 7053   3.189   6.340   1.888 -0.1459 -0.5536  0.1027
   17CHTO   H86 7054   3.259   6.411   1.933  0.0881 -0.2602 -0.7095
   17CHTO   O32 7055   3.066   6.305   1.962 -0.1670 -0.0048 -0.7676
   17CHTO   H69 7056   3.088   6.280   2.050 -1.5771 -2.4806 -1.0794
   17CHTO   C48 7057   3.275   6.207   1.853 -0.3444  0.1475  0.6035
   17CHTO   H90 7058   3.205   6.134   1.811  0.1625  1.0469 -1.8807
   17CHTO    N9 7059   3.353   6.146   1.964 -0.4208 -0.1483  0.2505
   17CHTO   H77 7060   3.323   6.043   1.973 -1.2342  0.0359 -0.3698
   17CHTO   H78 7061   3.457   6.154   1.937 -0.6930  0.0497 -0.7339
   17CHTO   C51 7062   3.375   6.248   1.731 -0.0988  0.2388 -0.2765
   17CHTO   H93 7063   3.444   6.322   1.772  0.0238  1.2381 -2.2274
   17CHTO   O30 7064   3.302   6.305   1.619  0.2536  0.0768  0.0442
   17CHTO   C46 7065   3.235   6.433   1.652 -0.0300 -0.1021  0.4732
   17CHTO   H88 7066   3.316   6.499   1.684 -0.8900  0.6641  1.1142
   17CHTO   C53 7067   3.168   6.490   1.521  0.0963 -0.1158 -0.0586
   17CHTO   O72 7068   3.268   6.555   1.436  0.9184 -0.2880 -0.4983
   17CHTO  H199 7069   3.240   6.522   1.353 -1.7791  0.6770 -0.0262
   17CHTO   O22 7070   3.440   6.130   1.691 -0.5967  0.0389 -0.3017
   17CHTO   C31 7071   3.551   6.147   1.594  0.2096  0.0816 -0.8137
   17CHTO   H59 7072   3.540   6.248   1.549  0.0247  0.8214  0.8447
   17CHTO   C29 7073   3.691   6.146   1.664  0.4943  0.3452 -0.0997
   17CHTO   H57 7074   3.698   6.038   1.686 -0.1357 -0.2689 -2.6800
   17CHTO   O21 7075   3.689   6.225   1.784 -0.3733 -0.4247 -0.0528
   17CHTO   H37 7076   3.772   6.225   1.827 -0.5102  0.1737  0.2097
   17CHTO   C27 7077   3.805   6.183   1.562 -0.1533  0.1517  0.3145
   17CHTO   H55 7078   3.799   6.292   1.545  1.5577  0.0566 -1.0358
   17CHTO    N5 7079   3.945   6.158   1.613 -0.0786 -0.0115  0.3714
   17CHTO   H43 7080   3.949   6.054   1.642  0.6156  0.2819  1.3251
   17CHTO   H44 7081   3.952   6.219   1.701 -0.3224  0.7787 -0.1472
   17CHTO   C25 7082   3.791   6.118   1.424  0.0176  0.0353  0.7608
   17CHTO   H53 7083   3.826   6.014   1.429 -0.0105 -0.0585 -0.7062
   17CHTO   O17 7084   3.654   6.102   1.380  0.1917  0.6166 -0.7053
   17CHTO   C32 7085   3.564   6.049   1.479 -0.1864 -0.1684 -0.0138
   17CHTO   H60 7086   3.607   5.954   1.512  0.2922  0.3433  0.8295
   17CHTO   C36 7087   3.427   6.025   1.418  0.2907  0.5523 -0.4205
   17CHTO   O25 7088   3.347   5.912   1.467 -0.6207 -0.4415  0.1351
   17CHTO   H40 7089   3.379   5.834   1.425 -0.3250  0.1987 -0.8546
   17CHTO   O15 7090   3.857   6.203   1.315  0.8493  0.1699  0.4787
   17CHTO   C19 7091   3.840   6.347   1.277 -0.6166  0.5749 -0.2269
   17CHTO   H47 7092   3.870   6.344   1.172 -0.0022 -1.7710 -0.0050
   17CHTO   C20 7093   3.704   6.417   1.290 -0.2093 -0.1964 -0.1145
   17CHTO   H48 7094   3.666   6.420   1.394 -0.9674  1.3655 -0.4258
   17CHTO   O19 7095   3.608   6.343   1.212  0.8027  0.2616  0.0767
   17CHTO   H35 7096   3.524   6.383   1.205  0.6640 -0.1935 -0.9400
   17CHTO   C21 7097   3.714   6.561   1.232  0.6117 -0.4688  0.0677
   17CHTO   H49 7098   3.752   6.557   1.130 -0.2470  2.7640 -0.4296
   17CHTO    N4 7099   3.587   6.639   1.221  0.5937 -0.4926 -0.1588
   17CHTO   H41 7100   3.536   6.631   1.316 -0.7757  0.8133 -0.7548
   17CHTO   H42 7101   3.599   6.745   1.204  0.9487 -0.7049 -1.2784
   17CHTO   C22 7102   3.819   6.637   1.315 -0.4552 -0.8041 -0.1124
   17CHTO   H50 7103   3.776   6.640   1.415 -1.6607  1.4531 -0.6531
   17CHTO   O14 7104   3.947   6.568   1.300  0.0207 -0.5258  0.5116
   17CHTO   C23 7105   3.953   6.438   1.350  1.2820  0.4023  0.3544
   17CHTO   H51 7106   3.932   6.448   1.458  1.1767 -0.8987  0.4682
   17CHTO   C34 7107   4.097   6.390   1.336  0.0035 -0.0636  0.5753
   17CHTO   O23 7108   4.174   6.434   1.447  0.4172 -0.5224  0.2122
   17CHTO   H38 7109   4.263   6.408   1.455  0.6617 -0.2350 -1.3744
   17CHTO   O16 7110   3.850   6.769   1.274 -0.2086  0.0969  0.3607
   17CHTO   C24 7111   3.920   6.869   1.391 -0.1752 -0.4807 -0.1369
   17CHTO   H52 7112   3.967   6.815   1.473  1.4056 -0.1535 -0.8169
   17CHTO   C26 7113   3.809   6.963   1.453  0.6598  0.3011 -1.0214
   17CHTO   H54 7114   3.763   7.016   1.367  2.0270  0.5516 -1.6147
   17CHTO   O20 7115   3.717   6.880   1.522  0.0536  0.1058 -0.0162
   17CHTO   H36 7116   3.633   6.921   1.522  0.0955  0.2065 -1.5478
   17CHTO   C30 7117   3.862   7.071   1.553 -0.6828  0.3915  0.0590
   17CHTO   H58 7118   3.887   7.026   1.650  0.9425  1.2081  0.0305
   17CHTO    N6 7119   3.755   7.173   1.592 -0.7826  0.1995 -0.2024
   17CHTO   H45 7120   3.787   7.248   1.662  2.2827 -1.0032 -0.2272
   17CHTO   H46 7121   3.698   7.220   1.513 -1.7382 -1.6985 -0.6842
   17CHTO   C33 7122   3.990   7.128   1.489  0.7104  0.3671  0.5253
   17CHTO   H61 7123   3.967   7.190   1.400  1.1140  0.2293  0.3232
   17CHTO   O18 7124   4.084   7.030   1.440  0.2378  0.0441 -0.4034
   17CHTO   C28 7125   4.035   6.953   1.327  0.1863  0.9667 -0.5586
   17CHTO   H56 7126   3.990   7.013   1.247  1.5171  2.5709 -0.1285
   17CHTO   C35 7127   4.140   6.861   1.267  0.0969  0.8378  0.4506
   17CHTO   O24 7128   4.209   6.780   1.364 -0.1026  0.6685 -0.1869
   17CHTO   H39 7129   4.174   6.780   1.451 -0.3962 -1.9073 -0.2626
   17CHTO    O9 7130   4.055   7.219   1.576 -0.7583 -0.4439 -0.1571
   17CHTO   C13 7131   4.145   7.322   1.511 -0.4938 -0.3967 -0.7697
   17CHTO   H26 7132   4.147   7.298   1.402  0.0072 -1.4186 -0.5523
   17CHTO   C11 7133   4.289   7.322   1.566 -0.4692 -0.1942  0.1882
   17CHTO   H24 7134   4.332   7.224   1.543  2.1071  1.2465 -1.4544
   17CHTO    O8 7135   4.296   7.353   1.708  0.1818 -0.3137  0.0586
   17CHTO    H3 7136   4.333   7.288   1.765  0.8196  1.0236  1.1797
   17CHTO    C9 7137   4.369   7.426   1.483 -0.2962  0.5131 -0.9043
   17CHTO   H22 7138   4.351   7.396   1.378  0.3631 -1.7511 -0.3927
   17CHTO    N2 7139   4.515   7.418   1.497 -0.5961 -0.3815 -0.8450
   17CHTO   H10 7140   4.559   7.389   1.403  0.0471 -2.0154 -0.0580
   17CHTO   H11 7141   4.541   7.348   1.576  2.6140 -0.1691 -1.6676
   17CHTO    C7 7142   4.304   7.567   1.510  0.0751 -0.2157 -0.1597
   17CHTO   H20 7143   4.359   7.638   1.445 -0.4403  0.4332  0.1119
   17CHTO    O4 7144   4.162   7.579   1.483  0.3783 -0.1206  0.5710
   17CHTO   C14 7145   4.081   7.464   1.521  0.7710  0.4997 -0.1544
   17CHTO   H27 7146   4.007   7.460   1.438 -0.0164  1.8099  0.4741
   17CHTO   C18 7147   4.006   7.497   1.653 -0.0303  0.1480  0.2888
   17CHTO   O13 7148   3.918   7.603   1.644  0.0583  0.3125  0.2837
   17CHTO    H7 7149   3.902   7.639   1.729  1.9421  0.6733  0.5123
   17CHTO    O2 7150   4.343   7.622   1.651  0.6435  0.2295 -0.3713
   17CHTO    C1 7151   4.328   7.763   1.666  0.6887  0.1613  1.1233
   17CHTO   H14 7152   4.228   7.797   1.633 -0.1760 -2.5816  0.7396
   17CHTO    C2 7153   4.444   7.850   1.592  0.2096 -0.1101 -0.3985
   17CHTO   H15 7154   4.535   7.796   1.622 -0.3336 -0.8267 -0.0131
   17CHTO    O6 7155   4.435   7.857   1.450  0.3779  0.3673 -0.1227
   17CHTO    H1 7156   4.468   7.783   1.402 -0.0789 -1.1217  1.8288
   17CHTO    C3 7157   4.447   8.004   1.656  0.1502  0.4961 -1.3211
   17CHTO   H16 7158   4.358   8.045   1.605 -1.4605 -1.8223 -0.4990
   17CHTO    N1 7159   4.575   8.075   1.621  0.1790 -0.0982 -0.0463
   17CHTO    H8 7160   4.604   8.053   1.519  3.9899  0.8819  0.7244
   17CHTO    H9 7161   4.560   8.182   1.619 -0.2942 -0.1685 -0.2078
   17CHTO    C4 7162   4.413   8.012   1.807  0.6293  0.1755 -0.0558
   17CHTO   H17 7163   4.505   7.994   1.863  0.7322  0.2289 -0.2074
   17CHTO    O1 7164   4.305   7.925   1.850  0.1691  0.0371 -0.2278
   17CHTO    C5 7165   4.328   7.787   1.814 -0.0821 -0.2399  0.6169
   17CHTO   H18 7166   4.427   7.762   1.851 -0.0566 -1.0908 -0.0242
   17CHTO   C16 7167   4.221   7.714   1.894  0.2165 -0.6416 -0.7494
   17CHTO   O11 7168   4.211   7.723   2.040 -0.1286 -0.6151 -0.4416
   17CHTO    H5 7169   4.281   7.671   2.076 -0.2245 -0.3699  0.0952
   17CHTO    O3 7170   4.371   8.148   1.836 -0.4847 -0.6622 -0.1987
   17CHTO    C6 7171   4.394   8.217   1.967  1.0843 -0.4643  0.4565
   17CHTO   H19 7172   4.310   8.279   1.997  0.0007 -1.0824 -1.2077
   17CHTO    C8 7173   4.408   8.126   2.092  0.7967 -0.1119  0.2729
   17CHTO   H21 7174   4.474   8.042   2.069 -0.0957 -0.6304 -0.4256
   17CHTO    O7 7175   4.282   8.069   2.118  0.1131 -0.2076  0.4310
   17CHTO    H2 7176   4.253   8.015   2.047 -1.6627  1.4378 -0.1259
   17CHTO   C12 7177   4.460   8.210   2.219  0.6313  0.2873 -0.8085
   17CHTO   H25 7178   4.376   8.277   2.250 -0.2033 -1.5317  1.0113
   17CHTO    N3 7179   4.482   8.124   2.341 -0.0711 -0.0086  0.1672
   17CHTO   H12 7180   4.408   8.141   2.418  1.4684  2.4200  1.1791
   17CHTO   H13 7181   4.499   8.020   2.319 -3.3035 -0.2321 -1.5474
   17CHTO   C15 7182   4.581   8.292   2.180  0.5591 -0.0902 -0.6624
   17CHTO   H28 7183   4.671   8.232   2.172 -0.7004 -2.2860  1.2379
   17CHTO   O10 7184   4.602   8.395   2.287  0.1457  0.1868  0.0843
   17CHTO    H4 7185   4.674   8.370   2.341  0.1666  0.4711  0.1878
   17CHTO    O5 7186   4.561   8.375   2.070 -0.3581  0.4944 -0.5740
   17CHTO   C10 7187   4.517   8.312   1.951  0.5475 -0.4971  0.9122
   17CHTO   H23 7188   4.602   8.255   1.915  1.7719  1.2178  1.0182
   17CHTO   C17 7189   4.485   8.417   1.849  0.3799  0.2297  0.0372
   17CHTO   O12 7190   4.602   8.494   1.815 -0.0676 -0.2076 -0.6350
   17CHTO    H6 7191   4.570   8.578   1.790  2.0638  1.2299  1.3185
   18CHTO  H203 7192   5.481   7.307   2.141  1.6150  2.8010  0.1860
   18CHTO   O82 7193   5.564   7.264   2.134  0.0073 -0.5267  0.7554
   18CHTO  C123 7194   5.629   7.333   2.027  0.5296  0.5497  0.3546
   18CHTO  H227 7195   5.559   7.345   1.943  0.3539 -1.9583  0.0987
   18CHTO   O77 7196   5.659   7.461   2.087  0.4004 -0.1613 -0.2713
   18CHTO  C118 7197   5.699   7.559   1.996  0.1786 -0.0506  0.2443
   18CHTO  H222 7198   5.621   7.568   1.919  0.2742  0.4437  0.1991
   18CHTO  C125 7199   5.721   7.709   2.063  0.8723  0.2654 -0.1088
   18CHTO   O84 7200   5.608   7.750   2.149 -0.9945 -0.3641 -0.0430
   18CHTO  H205 7201   5.637   7.827   2.195 -1.5920 -0.1974  0.0557
   18CHTO  C114 7202   5.835   7.513   1.937  0.1681  0.4136 -0.3926
   18CHTO  H218 7203   5.907   7.514   2.020 -0.8723  0.5841  0.5192
   18CHTO  C116 7204   5.834   7.370   1.887  0.2656  0.3323 -0.0446
   18CHTO  H220 7205   5.793   7.360   1.784  1.9144 -2.6915 -0.4782
   18CHTO   O79 7206   5.972   7.331   1.865  0.0542  0.2473 -0.3526
   18CHTO  H201 7207   5.969   7.242   1.837  1.5702 -0.4237  1.4958
   18CHTO  C120 7208   5.758   7.266   1.980 -0.2783 -0.1769  0.7431
   18CHTO  H224 7209   5.823   7.255   2.070  0.5398 -0.2623  0.1488
   18CHTO   N21 7210   5.743   7.131   1.919 -0.1714 -0.6476 -0.4137
   18CHTO  H211 7211   5.755   7.045   1.983  1.2926  0.1858  0.4440
   18CHTO  H212 7212   5.818   7.124   1.841  0.5392  2.7728 -0.1407
   18CHTO   O75 7213   5.856   7.610   1.837  0.2650 -0.2446 -0.0884
   18CHTO  C112 7214   6.012   7.652   1.801 -0.3068 -0.3988  0.4107
   18CHTO  H216 7215   6.091   7.585   1.839  1.5040  0.6572 -1.3847
   18CHTO   O73 7216   6.029   7.792   1.841 -0.1040  0.0059  0.1569
   18CHTO  C113 7217   6.149   7.856   1.797  0.7605  0.1385 -0.0563
   18CHTO  H217 7218   6.232   7.800   1.845  0.5603  1.6481  2.1714
   18CHTO  C124 7219   6.158   7.995   1.857 -0.2152 -0.1676  0.0254
   18CHTO   O83 7220   6.151   7.983   2.000 -0.0701  0.1419 -0.1928
   18CHTO  H204 7221   6.083   8.040   2.030  0.1912  0.2552  0.1889
   18CHTO  C109 7222   6.173   7.857   1.649  0.3077  0.0475 -0.0220
   18CHTO  H213 7223   6.092   7.918   1.606  0.2240  0.7933  1.1752
   18CHTO  C110 7224   6.155   7.708   1.598  0.4366  0.2112 -0.2490
   18CHTO  H214 7225   6.236   7.650   1.641  0.8153  2.0455  1.5530
   18CHTO   O78 7226   6.177   7.709   1.452 -0.3047 -0.1456  0.2403
   18CHTO  H200 7227   6.269   7.702   1.434 -0.2874  0.1594  0.2161
   18CHTO  C111 7228   6.018   7.653   1.645  0.3599 -0.0241 -0.0104
   18CHTO  H215 7229   5.936   7.720   1.617  0.1336  0.5955  2.0465
   18CHTO   N19 7230   5.977   7.520   1.586 -0.0220 -0.4516 -0.0927
   18CHTO  H207 7231   6.040   7.496   1.502 -1.4868 -2.0426 -0.7502
   18CHTO  H208 7232   5.983   7.438   1.656 -1.5951  0.4532  1.1452
   18CHTO   O74 7233   6.304   7.909   1.611 -0.8132 -0.0075 -0.1054
   18CHTO  C115 7234   6.280   8.009   1.475  0.2712  0.4991 -0.6301
   18CHTO  H219 7235   6.196   7.976   1.414 -0.7554  0.2929  0.8355
   18CHTO   O76 7236   6.244   8.149   1.520  0.0167 -0.3045 -0.1603
   18CHTO  C122 7237   6.223   8.240   1.411 -0.6534 -0.8710 -0.1638
   18CHTO  H226 7238   6.221   8.344   1.445  2.2150 -0.9332  0.3190
   18CHTO  C126 7239   6.082   8.216   1.348 -0.2263  0.3794  0.3014
   18CHTO   O85 7240   6.045   8.284   1.231 -0.0363  0.6953  0.2158
   18CHTO  H206 7241   6.017   8.215   1.174 -0.3373  1.5654 -0.6981
   18CHTO  C121 7242   6.335   8.237   1.302  0.3872 -0.3754 -0.1447
   18CHTO  H225 7243   6.301   8.294   1.213  1.2695 -0.9330 -0.8617
   18CHTO   O81 7244   6.453   8.307   1.338 -0.7592 -0.2908 -0.5835
   18CHTO  H202 7245   6.458   8.388   1.292 -0.0917  0.7371  1.2459
   18CHTO  C119 7246   6.359   8.090   1.258 -0.4974 -0.3126 -0.2834
   18CHTO  H223 7247   6.268   8.044   1.221 -1.1211  0.8092 -0.1642
   18CHTO  C117 7248   6.408   8.014   1.388  0.4317 -0.0575  0.1686
   18CHTO  H221 7249   6.484   8.063   1.450  1.6054  1.6827 -2.5220
   18CHTO   N20 7250   6.467   7.883   1.353 -0.3537  0.0223  0.3897
   18CHTO  H209 7251   6.395   7.819   1.304 -0.8497  0.3196  0.7266
   18CHTO  H210 7252   6.509   7.832   1.438  0.1689  0.2370  0.2606
   18CHTO   O80 7253   6.454   8.083   1.123 -0.8641 -0.8940  0.3329
   18CHTO  C103 7254   6.386   8.033   0.981 -0.0158 -0.5605 -0.0467
   18CHTO  H190 7255   6.454   8.041   0.896 -2.2402 -0.8318 -1.8743
   18CHTO  C101 7256   6.319   7.888   0.995  0.4062 -0.4285 -0.1406
   18CHTO  H188 7257   6.265   7.880   1.090 -1.5916  2.3797 -0.9757
   18CHTO   O68 7258   6.416   7.778   0.982 -0.1267 -0.5077 -0.3181
   18CHTO  H168 7259   6.373   7.696   0.998 -0.2635 -0.8081 -2.2098
   18CHTO   C99 7260   6.209   7.863   0.878 -0.3414  0.3003  0.0378
   18CHTO  H186 7261   6.263   7.852   0.782  0.3970  0.2145  0.4593
   18CHTO   N17 7262   6.133   7.736   0.898  0.1548 -0.8137  1.0530
   18CHTO  H174 7263   6.065   7.717   0.816  0.3378  0.7172  0.5291
   18CHTO  H175 7264   6.198   7.652   0.919  0.5469 -1.0638 -1.0490
   18CHTO   C97 7265   6.116   7.991   0.877 -0.3074  0.9003  1.2565
   18CHTO  H184 7266   6.060   7.997   0.972 -2.3088  3.5205 -0.0153
   18CHTO   O64 7267   6.194   8.110   0.853  0.3945  0.7310 -0.8989
   18CHTO  C104 7268   6.281   8.144   0.959 -0.4250  0.1272 -0.1550
   18CHTO  H191 7269   6.226   8.162   1.052  0.4695  1.9047  0.0660
   18CHTO  C108 7270   6.349   8.282   0.927 -0.6028  0.3388 -0.5029
   18CHTO   O71 7271   6.254   8.388   0.909  0.3598 -0.1430 -0.1350
   18CHTO  H171 7272   6.212   8.399   0.992  2.2807 -2.2238  1.1916
   18CHTO   O62 7273   6.038   8.005   0.749 -0.0324 -0.1105 -0.1909
   18CHTO   C91 7274   5.903   8.043   0.763  0.7254 -0.7632  0.4194
   18CHTO  H178 7275   5.886   8.047   0.871  0.9402  1.5433  0.3770
   18CHTO   C92 7276   5.811   7.933   0.706  0.0550  0.0689 -0.2803
   18CHTO  H179 7277   5.851   7.906   0.607  1.8425  0.1502  0.4096
   18CHTO   O66 7278   5.833   7.811   0.785 -0.5459  0.2448 -0.7318
   18CHTO  H166 7279   5.816   7.737   0.730  2.8327 -0.9542 -0.2956
   18CHTO   C93 7280   5.659   7.975   0.711 -0.0269 -0.2607 -0.0982
   18CHTO  H180 7281   5.635   7.958   0.817  3.0621 -1.4360  0.4879
   18CHTO   N16 7282   5.570   7.880   0.640  1.2399 -0.5836  0.0814
   18CHTO  H172 7283   5.588   7.785   0.688  0.6225 -0.7846 -0.0769
   18CHTO  H173 7284   5.590   7.871   0.534  1.6382  1.5148 -0.0470
   18CHTO   C94 7285   5.625   8.130   0.678 -0.3038  0.3021 -0.1429
   18CHTO  H181 7286   5.613   8.148   0.572 -0.6686  0.6042 -0.0514
   18CHTO   O61 7287   5.732   8.218   0.710  0.3587  0.1551 -0.2755
   18CHTO   C95 7288   5.867   8.175   0.685  0.6129  0.5896  0.2828
   18CHTO  H182 7289   5.884   8.150   0.580  0.1258  0.2731  0.2789
   18CHTO  C106 7290   5.963   8.299   0.710  0.7055  0.4284  0.4138
   18CHTO   O69 7291   5.929   8.365   0.834 -0.3462 -0.1215  0.6762
   18CHTO  H169 7292   5.985   8.327   0.899  0.3305 -0.6732 -0.2130
   18CHTO   O63 7293   5.495   8.181   0.761  0.4460  0.0689 -0.6769
   18CHTO   C96 7294   5.423   8.315   0.700 -0.0179 -0.1608  0.4354
   18CHTO  H183 7295   5.470   8.348   0.607 -2.7100  0.6458 -0.7071
   18CHTO   C98 7296   5.443   8.437   0.803  0.1013 -0.4402 -0.0539
   18CHTO  H185 7297   5.401   8.396   0.896  0.6247  1.2872  0.9766
   18CHTO   O67 7298   5.582   8.464   0.826 -0.6144  0.4762  0.3441
   18CHTO  H167 7299   5.598   8.514   0.904  2.0524 -0.8659  0.7110
   18CHTO  C102 7300   5.378   8.570   0.752  0.0332  0.4311  0.2401
   18CHTO  H189 7301   5.446   8.609   0.676 -0.8507  0.3757 -0.5920
   18CHTO   N18 7302   5.373   8.685   0.850 -0.7283  0.4157  0.0391
   18CHTO  H176 7303   5.299   8.656   0.923 -0.3937 -0.0989  0.1748
   18CHTO  H177 7304   5.470   8.685   0.897 -1.0591  0.6563  0.7216
   18CHTO  C105 7305   5.235   8.541   0.698  0.5269  0.1553 -0.1014
   18CHTO  H192 7306   5.161   8.547   0.778 -0.5120 -1.6788 -0.9022
   18CHTO   O65 7307   5.222   8.416   0.622 -0.6506  0.2362 -0.0848
   18CHTO  C100 7308   5.272   8.296   0.682 -0.3448 -0.5349 -0.0559
   18CHTO  H187 7309   5.219   8.279   0.777 -1.0204 -1.7773 -0.6450
   18CHTO  C107 7310   5.242   8.184   0.570  0.3492 -0.1309 -0.0555
   18CHTO   O70 7311   5.276   8.053   0.614 -0.0894 -0.4117 -0.0298
   18CHTO  H170 7312   5.253   7.989   0.550  1.8933 -1.5310  0.3128
   18CHTO   O57 7313   5.215   8.673   0.588 -0.5385  0.1732  0.1035
   18CHTO   C85 7314   5.093   8.697   0.510  0.8035 -0.3216  0.0003
   18CHTO  H157 7315   5.140   8.758   0.430 -0.9884  1.1006 -0.0058
   18CHTO   C83 7316   4.989   8.788   0.593 -0.2611  0.9848 -0.1979
   18CHTO  H155 7317   5.036   8.883   0.618 -0.8321  1.4399 -0.8260
   18CHTO   O56 7318   4.968   8.715   0.711 -0.4740 -0.2406 -0.0113
   18CHTO  H135 7319   4.931   8.631   0.693 -2.5859  0.7960 -0.7839
   18CHTO   C81 7320   4.869   8.815   0.508  0.0658 -0.9158  0.2350
   18CHTO  H153 7321   4.900   8.866   0.417 -1.2570 -1.0753 -0.3072
   18CHTO   N14 7322   4.775   8.909   0.579  0.0916  0.7757 -0.2913
   18CHTO  H141 7323   4.824   8.998   0.611  1.4120  0.4684 -1.4316
   18CHTO  H142 7324   4.690   8.927   0.516  1.1676 -1.8725 -2.5966
   18CHTO   C79 7325   4.805   8.672   0.468  0.5895 -0.2221  0.4650
   18CHTO  H151 7326   4.721   8.695   0.402  2.3119  1.8860 -1.0847
   18CHTO   O52 7327   4.896   8.591   0.381  0.3046  0.1534  0.3667
   18CHTO   C86 7328   5.023   8.567   0.450  0.0001  0.6220  0.1751
   18CHTO  H158 7329   4.991   8.488   0.521  2.0305 -0.3614  0.0181
   18CHTO   C90 7330   5.121   8.496   0.346 -0.3241  0.1954  0.2070
   18CHTO   O60 7331   5.084   8.365   0.305  0.5511 -0.2399  0.1281
   18CHTO  H138 7332   5.036   8.361   0.225  2.1171 -0.4267 -0.8093
   18CHTO   O50 7333   4.764   8.586   0.574  0.4873 -0.3978  0.1796
   18CHTO   C73 7334   4.675   8.481   0.623  0.1038 -0.7897  0.4540
   18CHTO  H145 7335   4.672   8.396   0.553  3.2052 -0.7456  0.1883
   18CHTO   C74 7336   4.530   8.542   0.641 -0.0865  0.5750  0.3193
   18CHTO  H146 7337   4.488   8.586   0.549  4.2217  3.1972 -0.5706
   18CHTO   O54 7338   4.456   8.422   0.679 -0.1471  0.3399  0.7695
   18CHTO  H133 7339   4.364   8.441   0.686 -0.5467 -1.1859 -0.1671
   18CHTO   C75 7340   4.530   8.650   0.759  1.0777  0.0302 -0.1556
   18CHTO  H147 7341   4.592   8.735   0.727  1.3040 -0.5103 -1.1809
   18CHTO   N13 7342   4.387   8.692   0.790  0.7150  0.0023  0.4953
   18CHTO  H139 7343   4.334   8.722   0.702  0.8556 -1.6113 -0.1629
   18CHTO  H140 7344   4.335   8.607   0.831 -0.4304 -0.8687 -2.6278
   18CHTO   C76 7345   4.602   8.584   0.882  0.5474 -0.1553  0.3095
   18CHTO  H148 7346   4.539   8.502   0.918 -0.8820 -0.1054 -1.9457
   18CHTO   O49 7347   4.738   8.542   0.854  0.2005 -0.1311 -0.7433
   18CHTO   C77 7348   4.738   8.436   0.759 -0.7373  0.1191 -0.3106
   18CHTO  H149 7349   4.679   8.354   0.798 -1.5451 -0.6478 -2.9881
   18CHTO   C88 7350   4.885   8.395   0.738 -0.1313  0.0758 -0.3045
   18CHTO   O58 7351   4.935   8.342   0.846  0.0075  0.1973  0.3862
   18CHTO  H136 7352   4.915   8.251   0.849 -1.7801  0.4435 -2.0682
   18CHTO   O51 7353   4.630   8.698   0.999 -0.3967  0.2453  0.1143
   18CHTO   C78 7354   4.682   8.647   1.145  0.2358  0.5016  0.7663
   18CHTO  H150 7355   4.695   8.537   1.136 -1.0648  0.4444 -0.5668
   18CHTO   C80 7356   4.567   8.675   1.243 -0.5963 -0.0809 -0.0248
   18CHTO  H152 7357   4.546   8.784   1.243  2.3424  0.5278  1.7226
   18CHTO   O55 7358   4.450   8.592   1.215 -0.2030 -0.3231 -0.2555
   18CHTO  H134 7359   4.377   8.650   1.203 -2.6094 -3.1274  0.1732
   18CHTO   C84 7360   4.628   8.639   1.387 -0.0325  1.2994 -0.2912
   18CHTO  H156 7361   4.619   8.531   1.404 -3.2230  1.5888  0.3089
   18CHTO   N15 7362   4.544   8.705   1.492  1.3721 -0.0841 -0.0443
   18CHTO  H143 7363   4.552   8.811   1.481  2.5852  0.3312  3.9079
   18CHTO  H144 7364   4.573   8.674   1.590 -0.1461 -2.9876 -0.4494
   18CHTO   C87 7365   4.782   8.680   1.410 -0.2668 -0.5608  0.3576
   18CHTO  H159 7366   4.793   8.788   1.410  0.5528 -0.6073 -2.5057
   18CHTO   O53 7367   4.864   8.627   1.294 -0.0808  0.8457  0.5430
   18CHTO   C82 7368   4.823   8.700   1.178 -0.6204  0.4566 -0.3693
   18CHTO  H154 7369   4.827   8.808   1.191  0.9739  0.5088 -1.2481
   18CHTO   C89 7370   4.932   8.659   1.072  0.2017  0.1375 -0.1117
   18CHTO   O59 7371   5.060   8.731   1.078  0.5921 -0.1121 -0.1021
   18CHTO  H137 7372   5.123   8.694   1.137 -0.6177 -0.6116  0.9020
   18CHTO   O45 7373   4.835   8.607   1.555 -0.0448 -0.7725  0.3555
   18CHTO   C67 7374   4.975   8.600   1.570  0.0331  0.0403 -0.7393
   18CHTO  H124 7375   5.019   8.546   1.487 -0.7447 -1.6263 -0.0801
   18CHTO   C65 7376   5.042   8.746   1.575  0.5807 -0.3194 -0.5557
   18CHTO  H122 7377   4.968   8.825   1.587  0.0761 -0.9443  0.4325
   18CHTO   O44 7378   5.106   8.762   1.448 -0.2072 -0.1703 -0.1055
   18CHTO  H102 7379   5.152   8.844   1.446  0.6498 -0.6709 -1.4668
   18CHTO   C63 7380   5.133   8.777   1.703 -0.4535  0.5514 -0.2175
   18CHTO  H120 7381   5.067   8.780   1.790 -3.5915  0.2513 -2.5192
   18CHTO   N11 7382   5.207   8.912   1.703  0.3976 -0.2209 -0.4586
   18CHTO  H108 7383   5.256   8.928   1.609  1.4617 -0.5762  0.0351
   18CHTO  H109 7384   5.280   8.893   1.778 -0.5697 -0.2110  0.4890
   18CHTO   C61 7385   5.236   8.656   1.709 -0.1469  0.7281 -0.2767
   18CHTO  H118 7386   5.302   8.674   1.795 -0.5784 -1.1205  0.4506
   18CHTO   O40 7387   5.167   8.532   1.729 -0.2611 -0.7010 -0.0228
   18CHTO   C68 7388   5.022   8.521   1.700  0.1627 -0.2367  0.2076
   18CHTO  H125 7389   4.976   8.566   1.791  2.1917  1.8911  0.2241
   18CHTO   C72 7390   4.987   8.374   1.685 -0.5951 -0.3924 -0.1976
   18CHTO   O48 7391   5.035   8.297   1.573 -0.2560  0.2436 -0.0712
   18CHTO  H105 7392   4.980   8.221   1.580 -0.1533  0.0622 -1.2323
   18CHTO   O38 7393   5.313   8.644   1.586  0.2063 -0.0833 -0.6271
   18CHTO   C55 7394   5.446   8.577   1.589  1.4163 -0.2697 -0.0950
   18CHTO  H112 7395   5.455   8.537   1.691 -2.5976 -2.4822 -0.5034
   18CHTO   C56 7396   5.554   8.685   1.555  0.0590  0.0266 -0.2463
   18CHTO  H113 7397   5.528   8.723   1.455 -0.0449  0.0837 -0.1977
   18CHTO   O42 7398   5.540   8.803   1.643  0.6538  0.1285 -0.4552
   18CHTO  H100 7399   5.562   8.775   1.730 -3.0580 -2.1741 -0.1272
   18CHTO   C57 7400   5.696   8.615   1.561  0.6407 -0.4925 -0.3137
   18CHTO  H114 7401   5.715   8.581   1.663  0.2617  1.7228  0.5338
   18CHTO   N10 7402   5.808   8.712   1.524  0.1174 -0.5688  0.4581
   18CHTO  H106 7403   5.780   8.797   1.464  0.1131  1.4425  3.2512
   18CHTO  H107 7404   5.869   8.744   1.607  0.2061 -2.7006  1.2554
   18CHTO   C58 7405   5.695   8.491   1.462 -0.5113 -0.4345  0.3461
   18CHTO  H115 7406   5.710   8.531   1.359 -1.5088 -0.7485  0.0724
   18CHTO   O37 7407   5.581   8.404   1.469  0.8103 -0.2808 -0.3452
   18CHTO   C59 7408   5.445   8.458   1.487 -0.3890  0.3829 -0.2407
   18CHTO  H116 7409   5.412   8.486   1.387 -3.4466  0.1854  0.6658
   18CHTO   C70 7410   5.373   8.334   1.541  0.1356  0.2339 -0.6353
   18CHTO   O46 7411   5.382   8.218   1.463 -0.2463 -0.3992 -0.2032
   18CHTO  H103 7412   5.312   8.227   1.400 -0.5878  1.4112  0.3991
   18CHTO   O39 7413   5.834   8.384   1.522  0.0445 -0.3306  0.3722
   18CHTO   C60 7414   5.791   8.298   1.632 -0.1049  0.4295  0.1378
   18CHTO  H117 7415   5.706   8.352   1.674 -0.8557  0.5212 -1.4427
   18CHTO   C62 7416   5.736   8.147   1.598 -0.3752 -0.3008 -0.1720
   18CHTO  H119 7417   5.650   8.156   1.529 -2.6296  2.4292  2.8053
   18CHTO   O43 7418   5.842   8.073   1.540  0.1309 -0.5735  0.1014
   18CHTO  H101 7419   5.870   8.128   1.470  2.0659 -0.7778  0.7005
   18CHTO   C66 7420   5.681   8.092   1.734  0.0203  0.4922  0.4706
   18CHTO  H123 7421   5.592   8.143   1.769 -0.5121  0.9096 -1.4241
   18CHTO   N12 7422   5.639   7.949   1.715 -0.0786  0.1978  0.4224
   18CHTO  H110 7423   5.547   7.959   1.661 -0.8734 -2.0485  1.3197
   18CHTO  H111 7424   5.714   7.897   1.657 -0.3742  0.0881  0.1416
   18CHTO   C69 7425   5.773   8.109   1.861 -0.3795  0.3173  0.0196
   18CHTO  H126 7426   5.857   8.037   1.855  1.2478  2.1195  0.7576
   18CHTO   O41 7427   5.836   8.246   1.873  0.1018 -0.1960 -1.1992
   18CHTO   C64 7428   5.905   8.295   1.740  0.1028  0.2361  0.0115
   18CHTO  H121 7429   5.996   8.237   1.712  0.1799  0.1097  0.5179
   18CHTO   C71 7430   5.978   8.429   1.773 -0.5573  0.0896  0.7658
   18CHTO   O47 7431   6.076   8.400   1.877 -0.4226 -0.3084  0.5375
   18CHTO  H104 7432   6.115   8.480   1.905  3.1796 -1.6330 -0.4220
   18CHTO   O34 7433   5.678   8.090   1.977 -0.2472 -0.4097 -0.3441
   18CHTO   C49 7434   5.601   8.105   2.113 -0.6740  0.4842 -0.0274
   18CHTO   H91 7435   5.641   8.041   2.192  1.0077  0.7429 -0.6388
   18CHTO   C47 7436   5.452   8.076   2.102  0.2530  0.5266  0.2302
   18CHTO   H89 7437   5.410   8.092   2.204 -1.2414  3.0303 -0.7543
   18CHTO   O33 7438   5.439   7.941   2.063  0.3125 -0.3451  0.6143
   18CHTO   H70 7439   5.366   7.938   2.005  0.7785  1.2270 -0.0740
   18CHTO   C45 7440   5.393   8.175   1.996  0.1678 -0.1277  0.4837
   18CHTO   H87 7441   5.463   8.173   1.911 -2.0800 -2.0793 -1.3941
   18CHTO    N8 7442   5.253   8.151   1.940 -0.3601  0.2407  0.1692
   18CHTO   H75 7443   5.187   8.124   2.022 -2.6028  0.5055 -1.4905
   18CHTO   H76 7444   5.212   8.234   1.884 -2.0135 -0.5228  0.2182
   18CHTO   C43 7445   5.405   8.325   2.063 -0.3699 -0.0718  0.1444
   18CHTO   H85 7446   5.371   8.395   1.987  0.0520  0.6169  0.5874
   18CHTO   O29 7447   5.539   8.357   2.104 -0.5331 -0.5760 -0.3476
   18CHTO   C50 7448   5.615   8.249   2.171 -0.6088 -0.0651 -0.3805
   18CHTO   H92 7449   5.720   8.272   2.150 -0.7728 -0.8200 -2.1195
   18CHTO   C54 7450   5.602   8.249   2.329  0.2112 -0.0764 -0.4226
   18CHTO   O36 7451   5.645   8.374   2.391 -0.2243 -0.2932 -0.6214
   18CHTO   H72 7452   5.610   8.375   2.478 -0.4681 -0.3246 -0.7206
   18CHTO   O27 7453   5.318   8.345   2.173 -0.7062 -0.5115  0.7512
   18CHTO   C37 7454   5.207   8.438   2.202 -0.7442  0.2810 -0.8988
   18CHTO   H79 7455   5.156   8.399   2.291  0.9045 -2.2898 -1.0019
   18CHTO   C38 7456   5.275   8.575   2.242  0.2663  0.0504  0.1830
   18CHTO   H80 7457   5.339   8.606   2.159 -2.0841  0.3880 -1.5532
   18CHTO   O31 7458   5.362   8.545   2.351 -0.1512  0.3954  0.7460
   18CHTO   H68 7459   5.376   8.621   2.404  0.6413  0.6403  0.1902
   18CHTO   C39 7460   5.176   8.696   2.268 -0.2105  0.7550  0.0322
   18CHTO   H81 7461   5.100   8.665   2.341 -1.6093 -0.4099 -1.8783
   18CHTO    N7 7462   5.242   8.827   2.302 -0.6551  0.3228  0.0580
   18CHTO   H73 7463   5.279   8.815   2.403 -3.0498 -1.6527  0.7553
   18CHTO   H74 7464   5.175   8.911   2.292  0.3387  1.3644  1.9391
   18CHTO   C40 7465   5.092   8.713   2.136  0.2134 -0.0374 -0.9026
   18CHTO   H82 7466   5.157   8.745   2.054 -0.9603  2.3333 -0.9510
   18CHTO   O26 7467   5.026   8.591   2.103 -0.0407  0.1532 -0.4655
   18CHTO   C41 7468   5.101   8.463   2.089 -0.4796 -0.2104 -0.8096
   18CHTO   H83 7469   5.153   8.467   1.992 -1.0036 -0.3694 -1.0997
   18CHTO   C52 7470   4.983   8.359   2.088 -0.1846  0.2865 -0.1776
   18CHTO   O35 7471   4.906   8.372   2.228  0.3701  0.4320 -0.5956
   18CHTO   H71 7472   4.836   8.311   2.238 -1.8638  3.2483  1.9434
   18CHTO   O28 7473   4.986   8.815   2.137 -0.1026  0.6690 -0.1006
   18CHTO   C42 7474   4.841   8.810   2.150 -0.5911 -0.9520 -0.2325
   18CHTO   H84 7475   4.811   8.914   2.163 -2.3956 -1.5156  0.2362
   18CHTO   C44 7476   4.775   8.737   2.268  0.3636 -0.4635  0.1361
   18CHTO   H86 7477   4.772   8.630   2.248 -0.3833 -0.1572 -1.5161
   18CHTO   O32 7478   4.868   8.764   2.381  0.1600 -0.3841  0.3351
   18CHTO   H69 7479   4.835   8.724   2.459 -0.6918 -0.4230 -0.0424
   18CHTO   C48 7480   4.626   8.796   2.279 -0.5788  0.4346  0.3530
   18CHTO   H90 7481   4.628   8.905   2.268  0.2302  0.4727  0.8095
   18CHTO    N9 7482   4.577   8.759   2.416  0.8146 -0.8544  0.4399
   18CHTO   H77 7483   4.540   8.657   2.409 -1.6010  0.0091  0.4574
   18CHTO   H78 7484   4.490   8.820   2.432 -1.2857 -3.1861 -1.6294
   18CHTO   C51 7485   4.550   8.745   2.159 -1.1757 -0.4291  0.9440
   18CHTO   H93 7486   4.553   8.637   2.172 -0.7986 -0.5604 -0.1689
   18CHTO   O30 7487   4.611   8.788   2.034 -0.4382  0.5229 -0.2704
   18CHTO   C46 7488   4.777   8.761   2.020  0.4507  0.1459  0.0320
   18CHTO   H88 7489   4.798   8.656   2.003  1.9511  0.4383 -0.0727
   18CHTO   C53 7490   4.812   8.850   1.899  0.3092  0.4099  0.5976
   18CHTO   O72 7491   4.726   8.806   1.791 -0.4853  0.2838  0.2216
   18CHTO  H199 7492   4.736   8.862   1.717  1.1498  0.9042  0.8780
   18CHTO   O22 7493   4.417   8.781   2.157 -0.3207 -0.1888  0.1083
   18CHTO   C31 7494   4.323   8.712   2.071  0.1099  0.2907 -0.1790
   18CHTO   H59 7495   4.384   8.650   2.002  2.7864  2.6047  0.0380
   18CHTO   C29 7496   4.232   8.616   2.152 -0.5227 -0.2132  0.1741
   18CHTO   H57 7497   4.177   8.677   2.226  1.2926 -0.4811  1.7731
   18CHTO   O21 7498   4.304   8.519   2.223 -0.1705 -0.2508 -0.1589
   18CHTO   H37 7499   4.363   8.560   2.284 -0.3455  0.2634 -0.3392
   18CHTO   C27 7500   4.122   8.552   2.063 -0.5929  0.4241  0.0542
   18CHTO   H55 7501   4.171   8.486   1.990 -1.7974 -0.1113 -0.2718
   18CHTO    N5 7502   4.030   8.466   2.145 -0.3012  0.1966 -0.3305
   18CHTO   H43 7503   4.087   8.382   2.182  0.2683  0.3828 -0.7864
   18CHTO   H44 7504   3.975   8.517   2.223 -1.7155 -0.7281 -0.7123
   18CHTO   C25 7505   4.048   8.655   1.975 -0.7504  0.2624  0.0723
   18CHTO   H53 7506   3.994   8.723   2.043  0.8038  2.5847 -0.9880
   18CHTO   O17 7507   4.148   8.736   1.902 -0.3587  0.4618  0.6414
   18CHTO   C32 7508   4.238   8.813   1.981 -0.0137  0.2038 -0.7562
   18CHTO   H60 7509   4.179   8.879   2.046 -0.4114  0.0587 -0.9734
   18CHTO   C36 7510   4.325   8.890   1.876  0.6859  0.1371  0.1672
   18CHTO   O25 7511   4.376   9.014   1.915 -0.2019  0.0421 -0.2919
   18CHTO   H40 7512   4.444   8.995   1.976 -1.0152 -1.2410  0.2468
   18CHTO   O15 7513   3.950   8.587   1.876 -0.4373  0.2265  0.5186
   18CHTO   C19 7514   3.931   8.553   1.740  0.0811  0.0602  0.4795
   18CHTO   H47 7515   3.833   8.505   1.726  0.8645 -1.2707 -0.6301
   18CHTO   C20 7516   3.923   8.671   1.635 -0.0029 -0.0828  0.4017
   18CHTO   H48 7517   4.012   8.736   1.644  0.2110 -0.4620  1.1459
   18CHTO   O19 7518   3.806   8.759   1.661  0.4660 -0.3427  0.4710
   18CHTO   H35 7519   3.842   8.839   1.693 -1.6965  0.7062  0.3625
   18CHTO   C21 7520   3.926   8.620   1.480  0.4808  0.4186 -0.0708
   18CHTO   H49 7521   3.827   8.579   1.460  0.0727  1.0653  0.5862
   18CHTO    N4 7522   3.950   8.730   1.380 -0.8581 -0.6146  0.1915
   18CHTO   H41 7523   3.866   8.790   1.348 -1.5750 -0.7253  1.8287
   18CHTO   H42 7524   4.023   8.796   1.425 -1.1733 -0.7593  0.9143
   18CHTO   C22 7525   4.042   8.512   1.460 -0.7006 -0.0821 -0.0014
   18CHTO   H50 7526   4.139   8.560   1.467 -0.7186 -0.1840  1.1407
   18CHTO   O14 7527   4.020   8.406   1.551  0.2341  0.0778  0.1136
   18CHTO   C23 7528   4.044   8.452   1.685 -0.2845 -0.7897 -0.1835
   18CHTO   H51 7529   4.142   8.501   1.687 -1.2055  1.0850 -0.1674
   18CHTO   C34 7530   4.041   8.336   1.778  0.1175 -0.4934  0.2604
   18CHTO   O23 7531   3.918   8.265   1.771 -0.2396  0.1587 -0.1624
   18CHTO   H38 7532   3.852   8.317   1.813  1.4163  2.7189 -0.6213
   18CHTO   O16 7533   4.029   8.441   1.338 -0.4121 -0.6456 -0.1613
   18CHTO   C24 7534   4.166   8.414   1.269 -0.6154 -0.5830  0.5697
   18CHTO   H52 7535   4.240   8.489   1.297 -0.7954  0.8024 -2.4524
   18CHTO   C26 7536   4.133   8.411   1.117  0.4005 -0.9105  0.2229
   18CHTO   H54 7537   4.040   8.353   1.104  0.8101 -1.8400  1.3887
   18CHTO   O20 7538   4.122   8.550   1.075 -0.2402  0.2970 -0.2667
   18CHTO   H36 7539   4.118   8.547   0.981 -0.1955  1.4624 -0.3128
   18CHTO   C30 7540   4.250   8.351   1.029  0.0773 -0.0860 -0.1608
   18CHTO   H58 7541   4.335   8.421   1.024  1.6720 -2.0823 -1.8381
   18CHTO    N6 7542   4.215   8.334   0.883  0.0829  0.0093 -0.0531
   18CHTO   H45 7543   4.108   8.324   0.880  0.2439 -2.1202  0.4731
   18CHTO   H46 7544   4.266   8.248   0.840 -1.0199 -1.3624  1.3213
   18CHTO   C33 7545   4.315   8.227   1.087  0.0719  0.2827 -0.0841
   18CHTO   H61 7546   4.239   8.147   1.083 -1.4695  1.6889  0.3976
   18CHTO   O18 7547   4.340   8.247   1.229  0.3669 -0.2524  0.1375
   18CHTO   C28 7548   4.222   8.273   1.310  0.3611  0.7393  0.1977
   18CHTO   H56 7549   4.144   8.198   1.312  0.5951  0.3937 -2.6157
   18CHTO   C35 7550   4.282   8.269   1.458  0.8649 -0.3972  0.1503
   18CHTO   O24 7551   4.384   8.365   1.489  0.3104  0.0572 -0.2019
   18CHTO   H39 7552   4.407   8.356   1.579 -1.4311 -1.6410  0.1197
   18CHTO    O9 7553   4.432   8.178   1.016  0.1238  0.3079  0.0695
   18CHTO   C13 7554   4.544   8.097   1.097  0.7316 -0.1796 -0.3869
   18CHTO   H26 7555   4.493   8.034   1.172  4.1855 -1.4961  0.9628
   18CHTO   C11 7556   4.638   8.200   1.168 -0.1271  0.2724  0.4499
   18CHTO   H24 7557   4.581   8.262   1.239  1.0919 -0.0327  1.7256
   18CHTO    O8 7558   4.685   8.290   1.075 -0.1773  0.6918  0.1465
   18CHTO    H3 7559   4.770   8.322   1.096  0.3223  0.6490 -1.6933
   18CHTO    C9 7560   4.749   8.121   1.241  0.7682  0.2190  0.3506
   18CHTO   H22 7561   4.700   8.040   1.296  0.5276  0.5608  0.6407
   18CHTO    N2 7562   4.818   8.202   1.346 -0.1676 -0.4742 -0.2910
   18CHTO   H10 7563   4.924   8.183   1.351 -0.3705 -1.3773  0.9662
   18CHTO   H11 7564   4.773   8.195   1.444  0.6153 -1.5997  0.0059
   18CHTO    C7 7565   4.840   8.039   1.138  0.2495 -1.0154  1.0480
   18CHTO   H20 7566   4.913   7.985   1.201  2.5193 -0.1805 -0.8131
   18CHTO    O4 7567   4.758   7.957   1.051 -0.1458 -0.0703 -0.6733
   18CHTO   C14 7568   4.633   8.006   0.994 -0.0226 -0.0157 -1.0597
   18CHTO   H27 7569   4.584   7.909   0.975  0.2164 -0.0638 -1.4344
   18CHTO   C18 7570   4.668   8.072   0.852  0.2931  0.2301 -0.0916
   18CHTO   O13 7571   4.545   8.096   0.779 -0.3679 -0.3106  0.5294
   18CHTO    H7 7572   4.563   8.107   0.688 -1.1811 -3.1769 -0.0154
   18CHTO    O2 7573   4.918   8.139   1.051 -0.3555 -0.0544 -0.3033
   18CHTO    C1 7574   5.054   8.107   1.015  0.2761 -0.1069  0.2159
   18CHTO   H14 7575   5.080   8.176   0.932  0.7207 -1.2322 -0.5842
   18CHTO    C2 7576   5.084   7.952   0.966  0.2273  0.3374 -0.2517
   18CHTO   H15 7577   5.042   7.891   1.048 -1.3983 -0.4678 -1.6654
   18CHTO    O6 7578   5.011   7.923   0.850 -0.5689 -0.5927  0.3338
   18CHTO    H1 7579   5.002   7.830   0.841  1.1018 -0.6499 -1.0178
   18CHTO    C3 7580   5.243   7.931   0.951  0.3491 -0.2329  0.3149
   18CHTO   H16 7581   5.284   7.985   0.866  0.4306  1.0286  1.1426
   18CHTO    N1 7582   5.276   7.784   0.939  0.2868 -0.4145 -0.6462
   18CHTO    H8 7583   5.382   7.767   0.955  0.8660  1.9052 -1.8541
   18CHTO    H9 7584   5.232   7.730   1.022  1.5015 -0.9672 -0.3494
   18CHTO    C4 7585   5.325   7.992   1.073  0.5136  0.2814 -0.8494
   18CHTO   H17 7586   5.312   7.935   1.165  1.8766  0.3661 -0.5874
   18CHTO    O1 7587   5.291   8.134   1.094  0.5339 -0.2032 -0.0354
   18CHTO    C5 7588   5.157   8.150   1.127  0.1029 -0.4023 -0.0858
   18CHTO   H18 7589   5.142   8.092   1.218 -2.2500  0.7828  0.3061
   18CHTO   C16 7590   5.151   8.306   1.163 -0.1538  0.5901 -0.6787
   18CHTO   O11 7591   5.171   8.383   1.041  0.3399 -0.0651 -0.0439
   18CHTO    H5 7592   5.098   8.371   0.984  0.1963  2.8771 -0.5905
   18CHTO    O3 7593   5.468   8.004   1.050  0.0258 -0.0901 -0.2246
   18CHTO    C6 7594   5.561   7.957   1.160  0.4503  0.5064  0.1643
   18CHTO   H19 7595   5.525   7.993   1.256  3.4388  0.6755  1.2771
   18CHTO    C8 7596   5.596   7.802   1.167  0.3138  0.4329  0.7178
   18CHTO   H21 7597   5.616   7.770   1.064 -1.5812  0.3219  0.3702
   18CHTO    O7 7598   5.478   7.732   1.210  0.2836 -0.2320  0.1174
   18CHTO    H2 7599   5.406   7.735   1.150 -1.0215  1.6476  1.7288
   18CHTO   C12 7600   5.719   7.777   1.264  0.8350  0.8118  0.4204
   18CHTO   H25 7601   5.676   7.808   1.362  1.7904 -0.1960  1.1726
   18CHTO    N3 7602   5.750   7.632   1.278 -0.0624 -0.6536  0.9260
   18CHTO   H12 7603   5.805   7.621   1.370  0.6351  1.2742  0.7576
   18CHTO   H13 7604   5.665   7.565   1.276 -0.0106 -0.7234  1.0515
   18CHTO   C15 7605   5.838   7.871   1.231 -0.0436  0.1067 -0.6091
   18CHTO   H28 7606   5.895   7.839   1.145  0.7985  0.9691 -0.3804
   18CHTO   O10 7607   5.951   7.863   1.353 -0.2348  0.2640 -0.4718
   18CHTO    H4 7608   6.029   7.817   1.329 -1.8393 -1.3167 -2.8280
   18CHTO    O5 7609   5.796   8.005   1.221 -0.0429  0.3688 -0.0736
   18CHTO   C10 7610   5.700   8.039   1.126 -0.2712  0.3129  0.3235
   18CHTO   H23 7611   5.731   8.007   1.026 -0.1869 -1.2315  0.8439
   18CHTO   C17 7612   5.690   8.194   1.128 -0.5769 -0.1274  0.1178
   18CHTO   O12 7613   5.602   8.238   1.029 -0.6862  1.3057  0.6003
   18CHTO    H6 7614   5.515   8.203   1.030  0.0009 -0.4079  2.0633
   19CHTO  H203 7615   4.654  10.028   3.207  0.5340 -1.6100  0.9864
   19CHTO   O82 7616   4.716   9.996   3.144  0.4716  0.0763  0.0445
   19CHTO  C123 7617   4.684   9.868   3.092  0.0628  0.3064  0.4908
   19CHTO  H227 7618   4.603   9.880   3.018  0.5821 -2.3147 -0.5361
   19CHTO   O77 7619   4.800   9.832   3.020  0.0701 -0.5217  0.4576
   19CHTO  C118 7620   4.787   9.724   2.930  0.6195 -1.0228  0.1184
   19CHTO  H222 7621   4.707   9.746   2.857 -1.4215  3.5243  3.4599
   19CHTO  C125 7622   4.923   9.710   2.853 -0.4716 -0.1971  1.1531
   19CHTO   O84 7623   4.959   9.831   2.777 -0.1851  0.0209  0.1841
   19CHTO  H205 7624   5.049   9.826   2.753  0.1245  1.0259  1.1070
   19CHTO  C114 7625   4.748   9.604   3.018  0.7372  0.0513  0.8721
   19CHTO  H218 7626   4.828   9.580   3.088 -0.4950 -0.6458  2.0725
   19CHTO  C116 7627   4.630   9.632   3.117 -0.0582  0.8125 -0.3935
   19CHTO  H220 7628   4.542   9.639   3.051  0.3227 -1.7778 -1.2089
   19CHTO   O79 7629   4.605   9.523   3.210  0.2985  0.3126  0.6888
   19CHTO  H201 7630   4.550   9.462   3.164  0.6571  0.1506  0.4725
   19CHTO  C120 7631   4.649   9.762   3.203 -0.0733 -0.0096 -0.1118
   19CHTO  H224 7632   4.736   9.734   3.266 -0.6058 -1.1648  0.1237
   19CHTO   N21 7633   4.533   9.809   3.282  0.7855 -0.4340 -0.6984
   19CHTO  H211 7634   4.467   9.724   3.281 -0.3795  0.4559 -1.1094
   19CHTO  H212 7635   4.482   9.896   3.243  2.1467  0.1071 -1.3191
   19CHTO   O75 7636   4.717   9.492   2.930 -0.1280  0.3138  0.0498
   19CHTO  C112 7637   4.763   9.331   2.990 -0.8096 -0.0062  0.5977
   19CHTO  H216 7638   4.730   9.315   3.093  0.2403 -1.4127  0.7411
   19CHTO   O73 7639   4.904   9.323   2.985  0.1406  0.1161 -0.0325
   19CHTO  C113 7640   4.958   9.197   3.004 -0.3190  0.2391 -0.5858
   19CHTO  H217 7641   4.932   9.171   3.109 -0.0860  2.9155  0.1923
   19CHTO  C124 7642   5.109   9.206   2.994 -0.2138  0.1890  0.5849
   19CHTO   O83 7643   5.175   9.103   3.064 -0.1649 -0.4010 -0.2055
   19CHTO  H204 7644   5.167   9.022   3.017 -0.5737 -0.8514  0.6318
   19CHTO  C109 7645   4.898   9.097   2.899  0.2204 -0.5099  0.9977
   19CHTO  H213 7646   4.927   9.139   2.802  1.2482 -2.0132  0.6368
   19CHTO  C110 7647   4.745   9.089   2.909 -0.3942  0.0062 -0.4623
   19CHTO  H214 7648   4.719   9.035   3.000 -1.4165  0.0924 -0.6894
   19CHTO   O78 7649   4.696   9.004   2.795 -0.1635 -0.6359 -0.1241
   19CHTO  H200 7650   4.607   9.016   2.769  0.0185  2.4019  0.5166
   19CHTO  C111 7651   4.686   9.232   2.895  0.2214 -0.5490 -0.0112
   19CHTO  H215 7652   4.694   9.256   2.789 -2.1443 -3.1619 -0.8554
   19CHTO   N19 7653   4.535   9.233   2.931 -0.3009  0.0394 -0.1312
   19CHTO  H207 7654   4.503   9.133   2.956 -1.0750  0.4604  0.6114
   19CHTO  H208 7655   4.474   9.280   2.854  0.0456  0.7964  0.0538
   19CHTO   O74 7656   4.959   8.962   2.911  0.1564 -0.2630 -0.4411
   19CHTO  C115 7657   4.982   8.897   2.753 -0.1046  0.5572  0.1883
   19CHTO  H219 7658   4.907   8.931   2.681  1.1784  0.2115 -1.3283
   19CHTO   O76 7659   5.108   8.945   2.695  0.2454  0.5806 -0.0333
   19CHTO  C122 7660   5.215   8.874   2.744 -0.3871  0.3317 -0.7029
   19CHTO  H226 7661   5.209   8.862   2.852  0.7555 -0.7650 -0.7445
   19CHTO  C126 7662   5.353   8.951   2.717  0.0014  0.3030 -0.2661
   19CHTO   O85 7663   5.342   9.078   2.782  0.7371 -0.0409  0.0289
   19CHTO  H206 7664   5.424   9.117   2.801  2.1238 -0.9141 -3.6751
   19CHTO  C121 7665   5.218   8.726   2.679 -0.4148 -0.4201 -0.3555
   19CHTO  H225 7666   5.255   8.732   2.575 -2.1696 -1.5325 -1.0683
   19CHTO   O81 7667   5.307   8.647   2.754  0.1243  0.0216  0.2547
   19CHTO  H202 7668   5.298   8.555   2.738 -2.0105  0.1673  0.3786
   19CHTO  C119 7669   5.071   8.661   2.671 -0.3187 -0.2807  0.2013
   19CHTO  H223 7670   5.044   8.675   2.567  0.0351  0.9631  0.2747
   19CHTO  C117 7671   4.970   8.738   2.760 -0.0358 -0.0855  0.1211
   19CHTO  H221 7672   4.977   8.716   2.867 -1.1607  0.0355  0.2250
   19CHTO   N20 7673   4.828   8.689   2.728  0.3730 -0.1431 -0.1857
   19CHTO  H209 7674   4.813   8.582   2.733 -2.5713  0.1273 -1.9317
   19CHTO  H210 7675   4.796   8.739   2.638  0.8017  2.3431  1.0169
   19CHTO   O80 7676   5.067   8.489   2.681  0.2810 -0.5062  0.2635
   19CHTO  C103 7677   5.098   8.415   2.569  0.2941 -0.6108 -1.0991
   19CHTO  H190 7678   5.095   8.477   2.479  1.1788 -0.1645 -0.8222
   19CHTO  C101 7679   5.223   8.319   2.589  0.0292 -0.2539 -0.2537
   19CHTO  H188 7680   5.230   8.278   2.690  2.7090  2.5715  0.7647
   19CHTO   O68 7681   5.357   8.391   2.573 -0.4831  0.0824 -0.0202
   19CHTO  H168 7682   5.356   8.482   2.593 -0.4409  0.6277 -2.3689
   19CHTO   C99 7683   5.224   8.185   2.492  0.3772  0.0464 -0.4146
   19CHTO  H186 7684   5.252   8.217   2.390  3.0433 -2.4988 -0.5673
   19CHTO   N17 7685   5.328   8.088   2.545 -0.2981 -0.2911  0.2922
   19CHTO  H174 7686   5.302   8.063   2.647 -1.9377 -0.8876 -0.2599
   19CHTO  H175 7687   5.327   7.996   2.488  2.8119 -0.0216 -0.2692
   19CHTO   C97 7688   5.078   8.126   2.484 -0.5737  0.4547  0.0150
   19CHTO  H184 7689   5.046   8.080   2.578 -1.8192 -0.4846 -0.8546
   19CHTO   O64 7690   4.988   8.229   2.443  0.1275 -0.4921 -0.0663
   19CHTO  C104 7691   4.976   8.314   2.558 -0.6546  1.0461 -0.2813
   19CHTO  H191 7692   4.967   8.256   2.650 -0.7111  1.4760 -0.0158
   19CHTO  C108 7693   4.839   8.376   2.543  0.1687 -0.0590 -0.4588
   19CHTO   O71 7694   4.730   8.296   2.593 -0.5514  0.1189  0.1212
   19CHTO  H171 7695   4.699   8.232   2.531 -3.1237 -1.3211  2.7625
   19CHTO   O62 7696   5.071   8.019   2.385 -1.1316  0.1238  0.3122
   19CHTO   C91 7697   4.964   7.921   2.389  1.0551 -0.3285  0.5620
   19CHTO  H178 7698   4.897   7.957   2.467 -0.6582 -2.2976  0.0344
   19CHTO   C92 7699   5.024   7.783   2.436 -0.6267 -0.2442 -0.3231
   19CHTO  H179 7700   5.117   7.771   2.378 -0.6303 -0.5198 -0.2713
   19CHTO   O66 7701   5.083   7.782   2.574 -0.2883  0.3004 -0.3030
   19CHTO  H166 7702   5.159   7.833   2.594 -0.2505 -0.0878  0.5609
   19CHTO   C93 7703   4.919   7.662   2.415 -0.4203  0.1374  0.2011
   19CHTO  H180 7704   4.847   7.673   2.498 -1.5691  0.7510 -0.8459
   19CHTO   N16 7705   4.981   7.524   2.428  0.1428  0.3584  0.1205
   19CHTO  H172 7706   4.920   7.440   2.397  0.3396  0.7091 -1.2531
   19CHTO  H173 7707   5.076   7.517   2.378 -1.0136  1.1457 -2.3052
   19CHTO   C94 7708   4.841   7.675   2.283 -0.2292 -0.3746  0.0762
   19CHTO  H181 7709   4.904   7.654   2.197 -2.1850  1.0512 -1.7509
   19CHTO   O61 7710   4.789   7.809   2.260  0.4134 -0.6476  1.2262
   19CHTO   C95 7711   4.896   7.902   2.251  0.2239  0.0108  0.6548
   19CHTO  H182 7712   4.973   7.862   2.185 -0.4336  0.7278 -0.5688
   19CHTO  C106 7713   4.850   8.039   2.186 -0.3934 -0.4560 -0.2302
   19CHTO   O69 7714   4.804   8.014   2.052  0.1061  0.3046  0.0151
   19CHTO  H169 7715   4.763   7.930   2.039 -1.3321  1.3859 -2.9841
   19CHTO   O63 7716   4.705   7.548   2.296  0.3222  0.3174  0.3108
   19CHTO   C96 7717   4.608   7.586   2.188 -0.3822 -0.4126 -0.2599
   19CHTO  H183 7718   4.662   7.616   2.098 -0.4598  0.1857 -0.1049
   19CHTO   C98 7719   4.509   7.699   2.233  0.3740  0.0026 -0.2609
   19CHTO  H185 7720   4.568   7.777   2.284  0.5666  0.4781 -1.1962
   19CHTO   O67 7721   4.454   7.760   2.118  0.0126  0.0448 -0.0208
   19CHTO  H167 7722   4.401   7.835   2.134 -0.2420  0.1134 -1.1467
   19CHTO  C102 7723   4.392   7.646   2.339 -0.1533  0.2484 -0.6048
   19CHTO  H189 7724   4.306   7.712   2.320 -0.3262  0.0149 -0.6433
   19CHTO   N18 7725   4.428   7.654   2.484  1.2258 -0.2613 -0.6824
   19CHTO  H176 7726   4.427   7.559   2.536 -0.1010  0.9553  1.6352
   19CHTO  H177 7727   4.350   7.718   2.524  0.1725 -2.2887  0.6059
   19CHTO  C105 7728   4.346   7.506   2.299  0.3249  0.4688  0.5778
   19CHTO  H192 7729   4.387   7.431   2.368  2.3346  0.9946  0.0028
   19CHTO   O65 7730   4.383   7.478   2.163  0.2146  0.7742  0.2899
   19CHTO  C100 7731   4.524   7.454   2.153  0.0940  0.1625 -0.7950
   19CHTO  H187 7732   4.554   7.378   2.226 -1.9032  1.0538  1.0147
   19CHTO  C107 7733   4.548   7.408   2.012 -0.0859  0.1346  0.5076
   19CHTO   O70 7734   4.687   7.376   1.992 -0.0648 -0.0337  0.2941
   19CHTO  H170 7735   4.716   7.311   2.054  1.0635 -1.4462 -1.6386
   19CHTO   O57 7736   4.186   7.508   2.319  0.2074  0.2449  0.1844
   19CHTO   C85 7737   4.118   7.386   2.280  0.3368 -0.5317  0.4458
   19CHTO  H157 7738   4.188   7.301   2.272  0.5496 -0.4690  1.6691
   19CHTO   C83 7739   4.058   7.400   2.127 -0.1954 -0.7012  0.1782
   19CHTO  H155 7740   4.140   7.392   2.056 -0.4368  0.4236 -0.2436
   19CHTO   O56 7741   3.996   7.531   2.118 -0.1070 -0.0598  0.2067
   19CHTO  H135 7742   3.912   7.556   2.151 -0.4826 -0.3999 -0.4735
   19CHTO   C81 7743   3.966   7.275   2.106 -0.4010 -0.3959  0.0349
   19CHTO  H153 7744   4.031   7.189   2.125  0.2130  0.2126  0.7851
   19CHTO   N14 7745   3.929   7.258   1.964 -0.1163  0.2195  0.1540
   19CHTO  H141 7746   3.824   7.260   1.941  0.0661  2.0187 -0.5757
   19CHTO  H142 7747   3.977   7.338   1.912 -1.2566  2.4044  2.3223
   19CHTO   C79 7748   3.852   7.265   2.209  0.1892  0.6517 -0.3911
   19CHTO  H151 7749   3.806   7.167   2.199  1.0150  0.1459  0.7794
   19CHTO   O52 7750   3.906   7.261   2.344  0.0201  0.5083 -0.0438
   19CHTO   C86 7751   4.005   7.358   2.381  0.0789  0.3453 -0.3087
   19CHTO  H158 7752   3.945   7.449   2.405  0.0213  0.1124  0.4435
   19CHTO   C90 7753   4.075   7.319   2.512 -0.0479  0.0316  0.2500
   19CHTO   O60 7754   3.981   7.294   2.617  0.0859 -0.7305  0.5858
   19CHTO  H138 7755   4.018   7.256   2.695 -1.9710 -0.7209  1.5820
   19CHTO   O50 7756   3.747   7.365   2.178  0.2510  0.3003  0.1277
   19CHTO   C73 7757   3.617   7.422   2.187 -0.2717 -0.1728  0.9611
   19CHTO  H145 7758   3.547   7.357   2.241 -0.1361 -0.1451  1.1719
   19CHTO   C74 7759   3.553   7.439   2.041  0.1063  0.3920 -0.5475
   19CHTO  H146 7760   3.575   7.343   1.991 -0.4603 -0.1955  0.3227
   19CHTO   O54 7761   3.410   7.455   2.056 -0.2269 -0.5249 -0.3725
   19CHTO  H133 7762   3.377   7.505   1.983 -0.3608 -1.3979 -0.9180
   19CHTO   C75 7763   3.624   7.560   1.972  0.2189  0.2676 -0.2241
   19CHTO  H147 7764   3.731   7.533   1.962  0.6355  0.9456  2.2931
   19CHTO   N13 7765   3.566   7.585   1.837 -0.0701 -0.5567  0.7762
   19CHTO  H139 7766   3.553   7.495   1.779  0.0878 -1.8421  2.7117
   19CHTO  H140 7767   3.618   7.658   1.777 -1.0174  1.0094  1.8391
   19CHTO   C76 7768   3.612   7.695   2.061 -0.3374 -0.2644  0.2564
   19CHTO  H148 7769   3.508   7.724   2.073 -0.7518 -2.4880  2.4456
   19CHTO   O49 7770   3.676   7.666   2.191 -0.2772 -0.0746 -0.7708
   19CHTO   C77 7771   3.609   7.560   2.264  0.1137 -0.7643  0.8035
   19CHTO  H149 7772   3.505   7.589   2.274  0.2537 -0.0211  0.2031
   19CHTO   C88 7773   3.678   7.537   2.399 -0.6204  0.1634 -0.0897
   19CHTO   O58 7774   3.609   7.435   2.491  0.7104  0.3243  0.6547
   19CHTO  H136 7775   3.556   7.374   2.444  0.6194  1.8980 -1.3332
   19CHTO   O51 7776   3.710   7.813   2.007  0.1951  0.3451  0.3244
   19CHTO   C78 7777   3.697   7.961   2.091  0.2169  0.3639  0.3997
   19CHTO  H150 7778   3.634   7.949   2.182 -0.4135 -0.3760 -0.1260
   19CHTO   C80 7779   3.631   8.060   1.994 -0.8806 -0.0494  0.2647
   19CHTO  H152 7780   3.703   8.080   1.912  2.8172 -1.9643  2.8492
   19CHTO   O55 7781   3.520   7.982   1.946  0.1430  0.6271  1.0686
   19CHTO  H134 7782   3.466   8.029   1.886 -2.0409 -0.8093  1.8209
   19CHTO   C84 7783   3.599   8.200   2.064  0.1086  0.2106 -0.1100
   19CHTO  H156 7784   3.536   8.172   2.149  0.6191 -1.5278 -0.2916
   19CHTO   N15 7785   3.517   8.293   1.979  0.1619 -0.4647 -0.0071
   19CHTO  H143 7786   3.423   8.298   2.029  0.4324 -2.2545  0.7081
   19CHTO  H144 7787   3.508   8.254   1.879 -1.1592 -0.6577  0.1844
   19CHTO   C87 7788   3.732   8.253   2.125  0.4901 -0.7472  0.5498
   19CHTO  H159 7789   3.798   8.277   2.042 -0.7688  4.9670  0.9861
   19CHTO   O53 7790   3.792   8.128   2.217  0.0246 -0.1494 -0.1493
   19CHTO   C82 7791   3.832   8.020   2.134 -0.0212 -0.2587 -0.5796
   19CHTO  H154 7792   3.894   8.052   2.050 -1.6765 -1.2379 -2.2203
   19CHTO   C89 7793   3.914   7.905   2.207 -0.1421  0.3307 -0.5216
   19CHTO   O59 7794   3.845   7.878   2.328  0.0413  0.1230 -0.0209
   19CHTO  H137 7795   3.901   7.831   2.386 -1.7336 -1.4889  0.4522
   19CHTO   O45 7796   3.711   8.377   2.212 -0.2800 -0.1625 -0.7693
   19CHTO   C67 7797   3.608   8.367   2.316 -0.3685  0.0395 -0.7326
   19CHTO  H124 7798   3.518   8.320   2.277 -1.5701  0.2852  1.6699
   19CHTO   C65 7799   3.651   8.291   2.452  0.4011 -1.1699  0.2409
   19CHTO  H122 7800   3.759   8.275   2.442  0.2994  0.4209 -4.2977
   19CHTO   O44 7801   3.572   8.170   2.447  0.3602 -0.4172 -0.5646
   19CHTO  H102 7802   3.480   8.186   2.449  0.3071 -0.8248  1.9865
   19CHTO   C63 7803   3.626   8.373   2.587 -0.1298 -0.1809  0.6405
   19CHTO  H120 7804   3.690   8.461   2.587 -0.1814 -0.1359  0.0557
   19CHTO   N11 7805   3.662   8.305   2.715 -0.2044 -0.0548  0.0518
   19CHTO  H108 7806   3.587   8.314   2.790 -2.8041  1.9289 -2.6853
   19CHTO  H109 7807   3.758   8.342   2.746 -0.4841  0.5420  0.2002
   19CHTO   C61 7808   3.479   8.423   2.571  0.5120  0.3343 -0.0977
   19CHTO  H118 7809   3.460   8.478   2.665 -1.3810 -0.1122 -0.1919
   19CHTO   O40 7810   3.471   8.519   2.460  0.1706 -0.7758  0.2539
   19CHTO   C68 7811   3.567   8.514   2.353  0.2032  0.1539  0.0320
   19CHTO  H125 7812   3.657   8.572   2.385 -0.1116  0.7665 -0.1823
   19CHTO   C72 7813   3.499   8.591   2.228  0.3437  0.6479 -0.3713
   19CHTO   O48 7814   3.353   8.591   2.216  0.2633  0.2770 -0.1594
   19CHTO  H105 7815   3.318   8.505   2.232  1.4280 -0.6023 -2.0866
   19CHTO   O38 7816   3.386   8.313   2.566 -0.1601  0.3533  0.3511
   19CHTO   C55 7817   3.249   8.353   2.586  0.5449  0.2256 -0.1227
   19CHTO  H112 7818   3.240   8.462   2.575  0.7198  0.2223 -0.3078
   19CHTO   C56 7819   3.190   8.301   2.723  0.3765  0.5109 -1.2667
   19CHTO  H113 7820   3.206   8.192   2.725 -0.2987  0.4359  0.2494
   19CHTO   O42 7821   3.272   8.352   2.824 -0.7600  0.1544 -0.4739
   19CHTO  H100 7822   3.264   8.290   2.894 -1.7334  1.4013  0.5383
   19CHTO   C57 7823   3.034   8.337   2.745  0.2698  0.0627 -0.2788
   19CHTO  H114 7824   3.026   8.446   2.755  2.7731  0.2163  0.5001
   19CHTO   N10 7825   2.969   8.285   2.870 -0.1941  0.0705  0.1697
   19CHTO  H106 7826   3.038   8.282   2.953  0.7936 -0.9866 -0.6914
   19CHTO  H107 7827   2.926   8.188   2.849  0.7922 -1.0305  2.9592
   19CHTO   C58 7828   2.950   8.300   2.619  0.1016  0.3093  0.2962
   19CHTO  H115 7829   2.930   8.191   2.620 -1.5062  0.5962  0.7073
   19CHTO   O37 7830   3.016   8.344   2.493 -0.2879  0.2986  0.2960
   19CHTO   C59 7831   3.148   8.294   2.478  0.7790 -0.4426  0.0537
   19CHTO  H116 7832   3.144   8.185   2.484 -1.3757 -0.3262  1.5220
   19CHTO   C70 7833   3.191   8.319   2.336  0.0692  0.5298  0.2681
   19CHTO   O46 7834   3.250   8.207   2.272  0.3001 -0.5919 -0.2554
   19CHTO  H103 7835   3.340   8.219   2.295  0.0981  1.1727 -0.3407
   19CHTO   O39 7836   2.821   8.381   2.622 -0.5966 -0.0669  0.8071
   19CHTO   C60 7837   2.737   8.392   2.514  0.3120 -0.1062 -0.1862
   19CHTO  H117 7838   2.783   8.369   2.418  0.9054  0.2727  0.0055
   19CHTO   C62 7839   2.615   8.297   2.516  0.6312 -0.1457  0.1910
   19CHTO  H119 7840   2.653   8.196   2.543 -1.2504 -0.7383  0.7633
   19CHTO   O43 7841   2.524   8.325   2.628 -0.0324  0.0894  0.1192
   19CHTO  H101 7842   2.510   8.417   2.642  1.4442  0.4159 -0.3906
   19CHTO   C66 7843   2.542   8.306   2.379  0.3847 -0.7284  0.1373
   19CHTO  H123 7844   2.615   8.278   2.302 -0.3362 -0.7608 -0.5416
   19CHTO   N12 7845   2.434   8.206   2.359  0.3792 -0.4542 -0.3580
   19CHTO  H110 7846   2.340   8.242   2.320  1.1324  2.1134  0.0961
   19CHTO  H111 7847   2.416   8.164   2.457  0.2922 -1.5478 -0.8374
   19CHTO   C69 7848   2.481   8.448   2.363  0.0746 -0.1086 -0.1551
   19CHTO  H126 7849   2.412   8.457   2.450  1.1720 -1.6228  0.8838
   19CHTO   O41 7850   2.590   8.552   2.381 -0.1848 -0.3530 -0.0502
   19CHTO   C64 7851   2.691   8.540   2.514 -0.7761 -0.0554 -0.0139
   19CHTO  H121 7852   2.633   8.563   2.605 -1.8450  0.6455 -0.8553
   19CHTO   C71 7853   2.813   8.644   2.499  0.1730  0.3414 -0.3353
   19CHTO   O47 7854   2.890   8.613   2.385  0.5462  0.5893  0.1228
   19CHTO  H104 7855   2.962   8.673   2.387  0.1778  1.0173  0.9402
   19CHTO   O34 7856   2.433   8.456   2.229  0.1925  0.8173  0.0429
   19CHTO   C49 7857   2.478   8.482   2.078  0.2314  0.8305 -0.5433
   19CHTO   H91 7858   2.450   8.585   2.052 -0.5766  0.2079 -2.2689
   19CHTO   C47 7859   2.415   8.380   1.990  0.0041  0.4494 -0.1799
   19CHTO   H89 7860   2.403   8.427   1.890 -1.4783 -0.7883 -0.6081
   19CHTO   O33 7861   2.281   8.352   2.041 -0.3087  0.1849 -0.3736
   19CHTO   H70 7862   2.246   8.285   1.985 -0.7843  0.5004 -0.4524
   19CHTO   C45 7863   2.491   8.245   1.992  0.1926 -0.3865 -0.9462
   19CHTO   H87 7864   2.468   8.208   2.093  0.8436 -0.5505 -0.8549
   19CHTO    N8 7865   2.426   8.153   1.893  0.5234 -0.0853 -0.3154
   19CHTO   H75 7866   2.388   8.064   1.941  1.6761 -0.4504 -0.0535
   19CHTO   H76 7867   2.502   8.120   1.823 -0.8307 -2.6288 -0.6536
   19CHTO   C43 7868   2.650   8.255   1.994  0.3339  0.0254  1.0687
   19CHTO   H85 7869   2.683   8.157   2.028 -1.9914 -1.2107 -0.0942
   19CHTO   O29 7870   2.698   8.362   2.076 -0.3254 -0.4287  0.2369
   19CHTO   C50 7871   2.635   8.486   2.060  0.6737 -0.4762  0.4050
   19CHTO   H92 7872   2.685   8.550   2.135  0.1832  1.2993 -0.7570
   19CHTO   C54 7873   2.677   8.565   1.933  0.3600  0.1615 -0.6316
   19CHTO   O36 7874   2.813   8.595   1.929 -0.0713 -0.4978  0.6960
   19CHTO   H72 7875   2.824   8.680   1.967  2.4759 -0.2762 -0.4446
   19CHTO   O27 7876   2.701   8.270   1.860  0.0956  0.5479 -1.0065
   19CHTO   C37 7877   2.813   8.207   1.787  0.1882  0.7111 -0.0588
   19CHTO   H79 7878   2.838   8.112   1.835 -2.2053  0.5605  0.9604
   19CHTO   C38 7879   2.765   8.188   1.638 -0.3154 -0.1909  0.1353
   19CHTO   H80 7880   2.716   8.283   1.614  0.1151 -0.4909 -2.0898
   19CHTO   O31 7881   2.660   8.093   1.650 -0.2533  0.2318  0.3123
   19CHTO   H68 7882   2.702   8.011   1.668 -0.9713  0.3926  2.9652
   19CHTO   C39 7883   2.871   8.153   1.533  0.0273  0.1856  0.4394
   19CHTO   H81 7884   2.879   8.046   1.552  0.5643  0.4137  1.5370
   19CHTO    N7 7885   2.830   8.175   1.389 -0.6344  0.2437  0.5262
   19CHTO   H73 7886   2.757   8.096   1.373 -0.8084  0.7770 -1.3877
   19CHTO   H74 7887   2.807   8.280   1.385  2.6989  0.9717 -0.6184
   19CHTO   C40 7888   3.012   8.222   1.558  0.4020 -0.4666 -0.1357
   19CHTO   H82 7889   3.029   8.317   1.508 -0.8101  0.7029  1.6460
   19CHTO   O26 7890   3.048   8.231   1.702 -0.0934  0.1512  0.2575
   19CHTO   C41 7891   2.940   8.293   1.781 -0.0884  0.3907  0.0757
   19CHTO   H83 7892   2.904   8.392   1.746  0.2677  0.4366 -0.1617
   19CHTO   C52 7893   2.998   8.311   1.925  0.1260 -0.0162  0.7595
   19CHTO   O35 7894   3.092   8.400   1.935 -0.1361  0.7937 -0.0780
   19CHTO   H71 7895   3.074   8.482   1.892  0.2719 -0.2461 -2.2762
   19CHTO   O28 7896   3.112   8.134   1.504 -0.0382  0.1738 -0.1114
   19CHTO   C42 7897   3.255   8.134   1.535  0.5516  1.3534  0.1080
   19CHTO   H84 7898   3.265   8.117   1.642  3.1994  0.9081 -0.1647
   19CHTO   C44 7899   3.346   8.263   1.508 -0.1595 -0.1528  0.9188
   19CHTO   H86 7900   3.341   8.297   1.405  0.8807  0.2190  0.9808
   19CHTO   O32 7901   3.289   8.372   1.580 -0.1844  0.0906  0.4372
   19CHTO   H69 7902   3.350   8.438   1.606  0.8166 -0.4360 -0.5072
   19CHTO   C48 7903   3.503   8.249   1.539  0.6687  0.1936 -0.5492
   19CHTO   H90 7904   3.517   8.224   1.644  2.1025  0.0144 -0.7718
   19CHTO    N9 7905   3.580   8.380   1.523  0.4280 -0.0115 -0.5388
   19CHTO   H77 7906   3.636   8.389   1.615 -1.1478  0.0771  0.4176
   19CHTO   H78 7907   3.631   8.399   1.430  1.2619  1.8180  0.2729
   19CHTO   C51 7908   3.565   8.126   1.453  0.5905 -0.5216  0.6861
   19CHTO   H93 7909   3.554   8.137   1.345  1.5709 -1.4213  0.4915
   19CHTO   O30 7910   3.496   8.012   1.507  0.0848 -0.2730 -0.0696
   19CHTO   C46 7911   3.328   8.010   1.465  0.7813  0.3783  0.0283
   19CHTO   H88 7912   3.322   8.016   1.356  0.4972 -0.7492 -0.0293
   19CHTO   C53 7913   3.281   7.869   1.502 -0.0786  0.0972  0.6407
   19CHTO   O72 7914   3.316   7.780   1.397  0.2141  0.9338 -0.0157
   19CHTO  H199 7915   3.255   7.800   1.329 -2.5632  0.9040  2.3898
   19CHTO   O22 7916   3.708   8.107   1.474  0.2648 -0.2225  0.3539
   19CHTO   C31 7917   3.798   8.006   1.405  0.5616 -0.3859  0.2520
   19CHTO   H59 7918   3.743   7.910   1.409  0.7827 -0.5607 -0.8141
   19CHTO   C29 7919   3.827   8.032   1.253  0.2591  0.0921 -0.6887
   19CHTO   H57 7920   3.872   8.132   1.245  0.8612 -0.2129 -1.1036
   19CHTO   O21 7921   3.711   8.032   1.164  0.1332 -0.2066 -0.4524
   19CHTO   H37 7922   3.650   8.097   1.191 -0.3796 -0.8372 -0.0822
   19CHTO   C27 7923   3.934   7.928   1.192 -0.2328  0.4205 -0.1804
   19CHTO   H55 7924   3.883   7.833   1.172  0.2617 -0.1304  1.1478
   19CHTO    N5 7925   4.007   7.971   1.065  0.0774 -0.0795 -0.0508
   19CHTO   H43 7926   4.045   8.071   1.077  1.2438 -0.3327 -1.4870
   19CHTO   H44 7927   3.944   7.967   0.978  0.4940  1.8584 -0.4598
   19CHTO   C25 7928   4.046   7.890   1.291 -0.5809  0.4394 -0.4450
   19CHTO   H53 7929   4.123   7.968   1.302  0.0454 -0.1183 -0.8371
   19CHTO   O17 7930   3.990   7.867   1.424 -0.4369  0.3037  0.5229
   19CHTO   C32 7931   3.930   7.979   1.480  0.1269 -0.3038 -0.5878
   19CHTO   H60 7932   3.989   8.071   1.480 -1.8746  1.0520  1.0750
   19CHTO   C36 7933   3.908   7.943   1.625 -0.3105 -0.2660  0.1647
   19CHTO   O25 7934   4.017   7.899   1.707  0.5724  0.1395 -0.3295
   19CHTO   H40 7935   4.015   7.808   1.729 -1.3380  0.2925  0.2204
   19CHTO   O15 7936   4.097   7.746   1.243  0.8509  0.3364 -0.6652
   19CHTO   C19 7937   4.151   7.656   1.139 -0.2736 -0.1261 -0.0881
   19CHTO   H47 7938   4.100   7.684   1.046 -0.1979 -0.1363 -0.1326
   19CHTO   C20 7939   4.305   7.678   1.123  0.3862  0.4744  0.1813
   19CHTO   H48 7940   4.357   7.665   1.220  0.9023  1.6639  0.0711
   19CHTO   O19 7941   4.335   7.815   1.095  0.7077 -0.2276 -0.5156
   19CHTO   H35 7942   4.331   7.869   1.172 -1.9434 -3.4284  1.7488
   19CHTO   C21 7943   4.362   7.575   1.017  0.1293 -0.1097  0.4144
   19CHTO   H49 7944   4.325   7.606   0.919  0.4827 -0.8802  0.0376
   19CHTO    N4 7945   4.508   7.574   1.005  0.0298 -0.0337 -0.1301
   19CHTO   H41 7946   4.552   7.584   1.103  0.7689 -0.1886 -0.4436
   19CHTO   H42 7947   4.549   7.651   0.941 -0.5127  1.4777  1.3129
   19CHTO   C22 7948   4.307   7.431   1.036  0.1066  0.2028 -0.1410
   19CHTO   H50 7949   4.365   7.394   1.120  1.7811 -1.1462 -1.8614
   19CHTO   O14 7950   4.168   7.425   1.063  1.1176 -0.4510 -0.1097
   19CHTO   C23 7951   4.113   7.505   1.166  0.0502  0.6131 -0.2863
   19CHTO   H51 7952   4.155   7.473   1.263  0.1314 -1.1151 -0.8761
   19CHTO   C34 7953   3.958   7.481   1.153  0.3293  0.9148  0.0421
   19CHTO   O23 7954   3.917   7.349   1.178  0.3443  0.3978  0.2192
   19CHTO   H38 7955   3.941   7.283   1.116  1.2223 -1.5975  2.5738
   19CHTO   O16 7956   4.328   7.348   0.917 -0.4260 -0.0643 -0.4294
   19CHTO   C24 7957   4.380   7.198   0.938  0.1259 -0.4936 -0.1729
   19CHTO   H52 7958   4.400   7.174   1.043  1.0468  0.1119 -0.2068
   19CHTO   C26 7959   4.512   7.174   0.857 -0.5630 -0.1259 -0.2012
   19CHTO   H54 7960   4.498   7.213   0.755  0.6891  0.8589 -0.0022
   19CHTO   O20 7961   4.623   7.249   0.905  0.0494  0.2927  0.0096
   19CHTO   H36 7962   4.632   7.250   0.999  1.5403  0.0683 -0.1115
   19CHTO   C30 7963   4.542   7.023   0.846 -0.3997 -0.2333 -0.2993
   19CHTO   H58 7964   4.595   6.996   0.939  0.9162  1.1585 -0.6241
   19CHTO    N6 7965   4.649   6.997   0.746 -0.4870  0.7653  0.1045
   19CHTO   H45 7966   4.713   7.083   0.758  0.2754  0.1533  0.5533
   19CHTO   H46 7967   4.609   6.992   0.645 -1.0269 -2.6071  0.4011
   19CHTO   C33 7968   4.416   6.938   0.822 -0.4756  0.5194 -0.6837
   19CHTO   H61 7969   4.379   6.952   0.720  0.2680 -0.0863 -1.0377
   19CHTO   O18 7970   4.311   6.969   0.910  0.2926 -0.5268  0.4319
   19CHTO   C28 7971   4.266   7.101   0.893 -0.2261  0.2128  0.3647
   19CHTO   H56 7972   4.248   7.114   0.787  1.7800 -1.6224 -0.2374
   19CHTO   C35 7973   4.140   7.127   0.985  0.3101  0.1969 -0.2870
   19CHTO   O24 7974   4.051   7.015   0.987  0.2493 -0.0144  0.0879
   19CHTO   H39 7975   3.996   7.011   0.912  0.4946  2.9239 -0.3110
   19CHTO    O9 7976   4.444   6.799   0.828 -0.0570  0.2542  0.2605
   19CHTO   C13 7977   4.324   6.703   0.757 -0.0397 -0.7806 -0.4038
   19CHTO   H26 7978   4.297   6.740   0.655 -0.4654 -0.8132 -0.3031
   19CHTO   C11 7979   4.191   6.697   0.854  0.2459  0.0516 -0.1037
   19CHTO   H24 7980   4.143   6.795   0.840 -0.9917 -0.6240 -0.7064
   19CHTO    O8 7981   4.226   6.676   0.989  0.0683  0.3783  0.7477
   19CHTO    H3 7982   4.159   6.699   1.051 -0.9772 -0.3639 -0.0973
   19CHTO    C9 7983   4.089   6.593   0.799  0.3119 -0.6170 -0.1703
   19CHTO   H22 7984   4.073   6.623   0.694  0.8155 -0.0241 -0.0866
   19CHTO    N2 7985   3.951   6.606   0.861 -0.0005  0.4713  0.1293
   19CHTO   H10 7986   3.901   6.510   0.855  0.4573  0.3219 -1.3234
   19CHTO   H11 7987   3.955   6.634   0.965  1.1635  0.9193 -0.0290
   19CHTO    C7 7988   4.148   6.454   0.786 -0.1076  0.7764 -0.5835
   19CHTO   H20 7989   4.071   6.388   0.739  0.1869  1.2925 -1.8177
   19CHTO    O4 7990   4.270   6.455   0.708  0.5098 -0.5682 -0.0359
   19CHTO   C14 7991   4.380   6.548   0.729  0.3338 -0.1545  0.8969
   19CHTO   H27 7992   4.447   6.542   0.640  1.7674  2.4363  1.7507
   19CHTO   C18 7993   4.465   6.489   0.848 -0.2389 -0.6298 -0.2263
   19CHTO   O13 7994   4.585   6.566   0.864 -0.5582 -0.2308 -0.4319
   19CHTO    H7 7995   4.648   6.533   0.925  1.4562  0.0868 -2.2958
   19CHTO    O2 7996   4.188   6.386   0.952 -0.3805  0.3973  0.4230
   19CHTO    C1 7997   4.159   6.243   0.950  0.0570  0.2508  1.6657
   19CHTO   H14 7998   4.173   6.207   0.846 -2.4080  1.5246  0.8366
   19CHTO    C2 7999   4.017   6.201   1.000  0.1918  0.4109 -0.0508
   19CHTO   H15 8000   4.003   6.229   1.105 -0.4754  0.6470 -0.1983
   19CHTO    O6 8001   3.919   6.264   0.917  0.2725  0.4462  0.7204
   19CHTO    H1 8002   3.916   6.234   0.828  2.1331 -2.4044  1.5425
   19CHTO    C3 8003   4.000   6.041   0.993 -0.6674 -0.3834 -0.6185
   19CHTO   H16 8004   4.016   6.006   0.889  0.7013  3.7112 -1.9044
   19CHTO    N1 8005   3.868   6.002   1.052  0.3948 -0.2964  0.4493
   19CHTO    H8 8006   3.819   5.939   0.979 -1.2166  3.1952 -1.6065
   19CHTO    H9 8007   3.816   6.093   1.078  0.2677 -0.6404  1.3970
   19CHTO    C4 8008   4.116   5.969   1.069 -1.0514  0.4154  0.0464
   19CHTO   H17 8009   4.105   5.973   1.178  0.5003 -0.3709  0.2514
   19CHTO    O1 8010   4.245   6.021   1.024 -0.0511 -0.3062  0.1025
   19CHTO    C5 8011   4.264   6.165   1.033 -0.0451 -0.4347 -0.1236
   19CHTO   H18 8012   4.261   6.198   1.137 -0.8707 -0.9800  0.0273
   19CHTO   C16 8013   4.410   6.187   0.986 -0.1327  0.2513  0.1254
   19CHTO   O11 8014   4.506   6.111   1.059 -0.1806  0.2894  0.5996
   19CHTO    H5 8015   4.519   6.148   1.144 -0.4458 -0.3106  0.9037
   19CHTO    O3 8016   4.121   5.830   1.023  0.5348 -0.4389  0.0649
   19CHTO    C6 8017   4.163   5.729   1.130  0.0167 -0.2621  0.1689
   19CHTO   H19 8018   4.205   5.776   1.219  2.5046 -0.4499 -0.8630
   19CHTO    C8 8019   4.043   5.637   1.176  0.3881  0.1575 -0.1047
   19CHTO   H21 8020   3.996   5.600   1.085 -2.4895 -0.7871  1.6883
   19CHTO    O7 8021   3.955   5.712   1.259  0.5457  0.6799 -0.2449
   19CHTO    H2 8022   3.901   5.764   1.202 -0.7601 -0.6010 -0.2213
   19CHTO   C12 8023   4.091   5.515   1.269  0.1494  0.0108  0.3616
   19CHTO   H25 8024   4.140   5.554   1.361  0.9186 -1.4919  0.6118
   19CHTO    N3 8025   3.977   5.417   1.305 -0.1385  0.3013  0.3381
   19CHTO   H12 8026   3.887   5.463   1.343 -2.7934 -3.0510 -1.6217
   19CHTO   H13 8027   3.951   5.353   1.222  0.9057  2.0401 -1.3769
   19CHTO   C15 8028   4.204   5.434   1.193 -0.0714  0.5944  0.0315
   19CHTO   H28 8029   4.163   5.399   1.099 -1.2003  1.1244  0.3228
   19CHTO   O10 8030   4.279   5.329   1.276 -0.5039  0.6882  0.5494
   19CHTO    H4 8031   4.228   5.250   1.279 -1.6982  1.4659  1.0687
   19CHTO    O5 8032   4.309   5.523   1.156  0.1376  0.2299 -0.5952
   19CHTO   C10 8033   4.274   5.633   1.073 -0.1479 -0.3674  0.1937
   19CHTO   H23 8034   4.245   5.589   0.978 -1.7229  0.0263  0.4775
   19CHTO   C17 8035   4.390   5.720   1.042  0.2139  0.5399 -0.2797
   19CHTO   O12 8036   4.400   5.767   0.906 -0.8205  0.6533  0.2751
   19CHTO    H6 8037   4.381   5.699   0.844 -1.5315  1.1421 -0.0431
   20CHTO  H203 8038   4.691   0.876   2.699  0.5733 -0.4087  0.5169
   20CHTO   O82 8039   4.722   0.861   2.612  0.2206  0.2624  0.2697
   20CHTO  C123 8040   4.713   0.982   2.536 -0.6957 -0.2281 -0.2313
   20CHTO  H227 8041   4.625   1.039   2.569  1.1585  0.7865  3.1326
   20CHTO   O77 8042   4.834   1.052   2.577  0.1932 -0.0450  0.2883
   20CHTO  C118 8043   4.863   1.177   2.518  0.3443 -0.6934  0.8120
   20CHTO  H222 8044   4.777   1.245   2.516  0.9788  0.0807 -1.0875
   20CHTO  C125 8045   4.972   1.233   2.619 -0.0808  0.2315  0.3140
   20CHTO   O84 8046   4.924   1.228   2.749 -0.3362  0.5506 -0.1720
   20CHTO  H205 8047   4.999   1.223   2.805 -0.9283 -0.2177  0.5590
   20CHTO  C114 8048   4.901   1.159   2.372  0.0893  0.0533 -0.2457
   20CHTO  H218 8049   4.984   1.091   2.356  2.5236  3.2227 -1.5031
   20CHTO  C116 8050   4.775   1.088   2.308 -0.1138  0.8878  0.1794
   20CHTO  H220 8051   4.687   1.155   2.310 -0.3972  0.5025  0.9790
   20CHTO   O79 8052   4.803   1.064   2.170  0.1762 -0.0821  0.1625
   20CHTO  H201 8053   4.716   1.061   2.134  0.1875 -1.5356  0.2367
   20CHTO  C120 8054   4.734   0.958   2.382 -0.0328 -0.3624 -0.4150
   20CHTO  H224 8055   4.815   0.884   2.368  0.6548 -0.0460  1.7006
   20CHTO   N21 8056   4.610   0.907   2.326 -0.2196 -0.2843 -0.4452
   20CHTO  H211 8057   4.607   0.801   2.348 -1.6162 -0.2225 -0.2928
   20CHTO  H212 8058   4.528   0.955   2.376  0.5347 -1.4176  1.9572
   20CHTO   O75 8059   4.925   1.288   2.324  0.4746  0.1429 -0.3280
   20CHTO  C112 8060   5.033   1.309   2.196 -0.0166  0.4673  0.0354
   20CHTO  H216 8061   5.050   1.213   2.145 -1.9266  0.5068 -0.7360
   20CHTO   O73 8062   5.153   1.362   2.245 -0.1233  0.1749 -0.4400
   20CHTO  C113 8063   5.244   1.399   2.146 -0.7059 -0.3610  0.2424
   20CHTO  H217 8064   5.282   1.302   2.106 -2.5552 -0.6745 -0.7769
   20CHTO  C124 8065   5.363   1.457   2.225  0.5267  0.2928  0.0892
   20CHTO   O83 8066   5.433   1.363   2.311  0.0829 -0.3001 -0.4318
   20CHTO  H204 8067   5.424   1.393   2.399 -0.8103 -0.4335 -0.4745
   20CHTO  C109 8068   5.192   1.485   2.027 -0.0199 -0.4404  0.6743
   20CHTO  H213 8069   5.164   1.582   2.073  1.9538 -0.1968  1.4259
   20CHTO  C110 8070   5.059   1.427   1.969 -0.2851 -0.4918  0.2265
   20CHTO  H214 8071   5.079   1.331   1.921 -1.3863 -0.4990 -0.2435
   20CHTO   O78 8072   5.001   1.522   1.872  0.1979  0.4035 -0.3245
   20CHTO  H200 8073   4.961   1.593   1.918 -1.8614 -1.0750  0.2099
   20CHTO  C111 8074   4.960   1.404   2.089  0.0046 -0.0097  0.0588
   20CHTO  H215 8075   4.944   1.500   2.141  0.5528  0.2321 -0.2079
   20CHTO   N19 8076   4.821   1.356   2.049  0.0277  0.7678  0.0240
   20CHTO  H207 8077   4.752   1.358   2.133 -0.4698  0.2336 -0.3677
   20CHTO  H208 8078   4.772   1.405   1.967  0.8563  1.1322 -0.2593
   20CHTO   O74 8079   5.297   1.504   1.930 -0.1428 -0.7397  0.7359
   20CHTO  C115 8080   5.358   1.641   1.923  0.6098 -0.0054 -0.7565
   20CHTO  H219 8081   5.311   1.708   1.994  1.5818 -0.4026  0.2802
   20CHTO   O76 8082   5.505   1.641   1.971 -0.1952 -0.4221  0.4091
   20CHTO  C122 8083   5.605   1.584   1.881 -0.6972 -0.0190 -0.4894
   20CHTO  H226 8084   5.591   1.476   1.882 -0.2726 -0.0795 -1.1540
   20CHTO  C126 8085   5.748   1.604   1.945 -0.0831  0.2758  0.8185
   20CHTO   O85 8086   5.748   1.581   2.086  0.8187 -0.2167 -0.1630
   20CHTO  H206 8087   5.770   1.494   2.114 -2.1815 -0.1325  2.7274
   20CHTO  C121 8088   5.591   1.651   1.732 -0.6791 -0.0802  1.1882
   20CHTO  H225 8089   5.686   1.703   1.710 -1.3674  0.2470 -1.2868
   20CHTO   O81 8090   5.563   1.539   1.650  0.0497 -0.0937 -0.0588
   20CHTO  H202 8091   5.481   1.496   1.666 -1.4144  2.9639  1.2951
   20CHTO  C119 8092   5.478   1.757   1.728  0.7664 -0.4382 -0.5121
   20CHTO  H223 8093   5.501   1.827   1.808 -0.2942  0.0720 -0.6375
   20CHTO  C117 8094   5.338   1.697   1.777  1.1021  0.1406 -0.3065
   20CHTO  H221 8095   5.294   1.618   1.716  1.7403 -1.1448  0.8790
   20CHTO   N20 8096   5.231   1.805   1.780 -0.4150 -0.1704 -0.5357
   20CHTO  H209 8097   5.202   1.843   1.683 -1.9913 -0.6372 -0.2638
   20CHTO  H210 8098   5.142   1.765   1.826 -0.1633 -0.1925 -0.0710
   20CHTO   O80 8099   5.469   1.855   1.599 -0.1560  0.5026 -0.4375
   20CHTO  C103 8100   5.483   1.796   1.454  0.1027  0.1521 -0.0923
   20CHTO  H190 8101   5.572   1.734   1.444 -0.9093 -1.2668 -0.3734
   20CHTO  C101 8102   5.351   1.723   1.400 -0.2089 -0.1226 -0.0175
   20CHTO  H188 8103   5.265   1.783   1.428 -0.5902 -0.3870 -0.6328
   20CHTO   O68 8104   5.331   1.576   1.479 -0.9347  0.3205 -0.1157
   20CHTO  H168 8105   5.377   1.577   1.561 -1.8024 -2.2681  0.4645
   20CHTO   C99 8106   5.353   1.700   1.234  0.4235  1.0828 -0.7402
   20CHTO  H186 8107   5.439   1.634   1.209  0.1355  1.1117 -1.8219
   20CHTO   N17 8108   5.234   1.633   1.172 -0.8735  0.2749 -0.1343
   20CHTO  H174 8109   5.218   1.537   1.218 -2.2691 -0.5763 -2.3405
   20CHTO  H175 8110   5.244   1.623   1.065  0.5185  1.2781 -0.1150
   20CHTO   C97 8111   5.381   1.845   1.179  0.3335  0.1504  0.0670
   20CHTO  H184 8112   5.299   1.911   1.211  0.4940  1.5668 -2.3078
   20CHTO   O64 8113   5.510   1.889   1.223 -0.2328  0.2816  0.6919
   20CHTO  C104 8114   5.501   1.931   1.364  0.0606  0.0394  0.1741
   20CHTO  H191 8115   5.416   1.998   1.376 -0.1128 -0.1957  0.2462
   20CHTO  C108 8116   5.623   2.013   1.406 -0.6398 -0.0557  0.8244
   20CHTO   O71 8117   5.650   2.134   1.331  0.1240  0.2757 -0.0738
   20CHTO  H171 8118   5.718   2.179   1.377  2.0803 -4.0873  1.6093
   20CHTO   O62 8119   5.391   1.848   1.033 -0.0042 -0.2385  0.1345
   20CHTO   C91 8120   5.350   1.966   0.963 -0.7831  0.2373 -0.9492
   20CHTO  H178 8121   5.342   2.046   1.037 -2.4147 -0.5518 -0.2430
   20CHTO   C92 8122   5.209   1.953   0.903  0.3828  0.3819 -0.3996
   20CHTO  H179 8123   5.199   1.864   0.840 -1.2146  1.3624 -1.5820
   20CHTO   O66 8124   5.107   1.927   1.006 -0.2891 -0.0751  0.7025
   20CHTO  H166 8125   5.028   1.970   0.979  0.2381  1.2058  1.1166
   20CHTO   C93 8126   5.163   2.082   0.821 -0.3280 -0.6683  0.3395
   20CHTO  H180 8127   5.127   2.149   0.900  0.3122 -0.9876  0.9035
   20CHTO   N16 8128   5.043   2.075   0.731  0.7001  0.3074 -0.1234
   20CHTO  H172 8129   5.064   2.080   0.625 -0.5440 -0.6988 -0.4306
   20CHTO  H173 8130   4.987   2.165   0.750  0.5170 -0.1384  1.4976
   20CHTO   C94 8131   5.279   2.162   0.742  0.3988  0.1111  0.5514
   20CHTO  H181 8132   5.283   2.130   0.637 -1.7365  0.9349  0.1949
   20CHTO   O61 8133   5.410   2.139   0.795  0.1189 -0.5360 -0.0596
   20CHTO   C95 8134   5.444   2.004   0.830 -0.0959  0.2478  0.8654
   20CHTO  H182 8135   5.419   1.945   0.742  0.3995  0.6668  0.4446
   20CHTO  C106 8136   5.589   1.996   0.865  0.5405  0.5493 -0.4235
   20CHTO   O69 8137   5.681   2.042   0.765  0.2438 -0.1806  0.0051
   20CHTO  H169 8138   5.660   2.011   0.679 -2.8496  1.0080  0.2992
   20CHTO   O63 8139   5.276   2.315   0.764 -0.3040  0.3194 -0.0989
   20CHTO   C96 8140   5.216   2.392   0.649 -0.0869  0.5681  0.4759
   20CHTO  H183 8141   5.158   2.323   0.588  1.9032  0.4493 -1.3346
   20CHTO   C98 8142   5.319   2.454   0.560 -0.4763  0.0424  0.9113
   20CHTO  H185 8143   5.381   2.526   0.615 -0.7817  1.2826 -0.3144
   20CHTO   O67 8144   5.402   2.344   0.523 -0.1930  0.4013  0.0706
   20CHTO  H167 8145   5.359   2.270   0.486  0.4126 -0.9418  1.9339
   20CHTO  C102 8146   5.252   2.532   0.438 -0.1611  0.1462 -0.1032
   20CHTO  H189 8147   5.195   2.454   0.387 -1.4516  0.8889  0.1887
   20CHTO   N18 8148   5.345   2.578   0.332  0.5285 -0.2444 -0.1103
   20CHTO  H176 8149   5.415   2.502   0.299 -1.2054 -2.1903  0.6273
   20CHTO  H177 8150   5.399   2.669   0.356  3.4773 -2.1801  0.8194
   20CHTO  C105 8151   5.159   2.637   0.497  0.5827  0.1806  0.0820
   20CHTO  H192 8152   5.220   2.706   0.555 -0.7897  0.4266  1.2631
   20CHTO   O65 8153   5.067   2.581   0.600 -0.1276  0.1013  0.2848
   20CHTO  C100 8154   5.127   2.517   0.712  0.1738 -0.3994 -0.1767
   20CHTO  H187 8155   5.187   2.587   0.772 -1.1592  0.5623  0.0346
   20CHTO  C107 8156   5.018   2.464   0.803 -0.1508  0.1730 -0.1278
   20CHTO   O70 8157   5.073   2.446   0.934  0.1635  0.1474  0.5113
   20CHTO  H170 8158   5.002   2.429   0.993  0.5937 -0.4082  0.8694
   20CHTO   O57 8159   5.063   2.722   0.385 -0.7053  0.6080  0.7859
   20CHTO   C85 8160   5.051   2.866   0.395  0.3313  0.0851 -0.1958
   20CHTO  H157 8161   5.026   2.877   0.502  1.5879 -1.4871  0.2695
   20CHTO   C83 8162   4.932   2.906   0.301 -0.6737 -1.0248 -0.0293
   20CHTO  H155 8163   4.846   2.867   0.356  0.9453 -1.6631  2.1079
   20CHTO   O56 8164   4.961   2.850   0.170  0.0971  0.2491 -0.6904
   20CHTO  H135 8165   5.041   2.884   0.135 -0.1664  0.9506 -0.6261
   20CHTO   C81 8166   4.920   3.062   0.298 -0.6335 -0.0484 -0.5604
   20CHTO  H153 8167   4.922   3.095   0.402  1.2561 -0.2086 -0.5225
   20CHTO   N14 8168   4.789   3.112   0.241 -0.2888 -0.3689 -0.2080
   20CHTO  H141 8169   4.807   3.202   0.187 -3.0256  1.7996  2.3740
   20CHTO  H142 8170   4.742   3.039   0.179 -1.0447  0.3079 -0.4389
   20CHTO   C79 8171   5.051   3.128   0.227 -0.3954 -0.6720 -0.4774
   20CHTO  H151 8172   5.042   3.237   0.229  0.6908 -0.5548 -1.4964
   20CHTO   O52 8173   5.172   3.095   0.300  0.1468  0.1173  0.4699
   20CHTO   C86 8174   5.179   2.959   0.356  0.2301 -0.6561  0.2290
   20CHTO  H158 8175   5.233   2.909   0.272 -0.8316 -0.0609 -0.8222
   20CHTO   C90 8176   5.277   2.971   0.471 -0.0235 -0.6574  0.0784
   20CHTO   O60 8177   5.226   3.053   0.574 -0.3508 -0.0119  0.4217
   20CHTO  H138 8178   5.186   3.008   0.645  0.6900  0.3978  1.2819
   20CHTO   O50 8179   5.073   3.092   0.089 -0.6155  0.2425  1.2088
   20CHTO   C73 8180   5.155   3.127  -0.020 -0.4496 -0.1854  0.4641
   20CHTO  H145 8181   5.237   3.190   0.018  2.2705 -2.8412 -0.8115
   20CHTO   C74 8182   5.071   3.216  -0.113 -0.0861 -0.2133  0.7970
   20CHTO  H146 8183   5.024   3.295  -0.053 -0.2780 -0.9891  1.6831
   20CHTO   O54 8184   5.161   3.278  -0.203 -0.2639 -0.1021  0.0059
   20CHTO  H133 8185   5.122   3.344  -0.257  0.1917  0.4334  0.3269
   20CHTO   C75 8186   4.963   3.127  -0.182 -0.4546 -0.5115  0.1791
   20CHTO  H147 8187   4.889   3.088  -0.110 -0.2284  0.1345  0.7651
   20CHTO   N13 8188   4.871   3.219  -0.264 -0.3564 -0.1247  0.4544
   20CHTO  H139 8189   4.812   3.163  -0.335 -0.5521  1.3464 -0.5570
   20CHTO  H140 8190   4.930   3.286  -0.324 -0.4668  1.0253  1.6171
   20CHTO   C76 8191   5.031   3.001  -0.253  0.1005 -0.2290  0.5669
   20CHTO  H148 8192   5.084   3.049  -0.336 -0.1405 -0.7694  0.0938
   20CHTO   O49 8193   5.117   2.934  -0.159 -0.3068  0.4572 -0.0693
   20CHTO   C77 8194   5.220   3.004  -0.094  0.4023  0.7099  0.5659
   20CHTO  H149 8195   5.289   3.038  -0.171  0.9512 -1.7853 -0.0901
   20CHTO   C88 8196   5.285   2.904   0.001  0.0440  0.1330  0.2989
   20CHTO   O58 8197   5.375   2.973   0.068 -0.3601 -0.4177  0.2515
   20CHTO  H136 8198   5.438   2.906   0.086 -0.0015 -0.0840  0.2497
   20CHTO   O51 8199   4.931   2.897  -0.298  0.1706  1.0119  1.1389
   20CHTO   C78 8200   4.837   2.831  -0.178  0.6824  0.3100  0.6235
   20CHTO  H150 8201   4.845   2.885  -0.081 -0.2015 -1.1482  1.5223
   20CHTO   C80 8202   4.878   2.686  -0.143 -0.4636 -0.2787 -0.1033
   20CHTO  H152 8203   4.879   2.627  -0.238  1.9120 -0.7438  0.1848
   20CHTO   O55 8204   5.013   2.682  -0.090  0.2831 -0.1424  0.8413
   20CHTO  H134 8205   5.010   2.732  -0.011 -1.4648  1.3705 -0.1067
   20CHTO   C84 8206   4.776   2.615  -0.037 -0.1841 -0.2401  0.1678
   20CHTO  H156 8207   4.782   2.678   0.052 -0.9084  1.3518 -0.8901
   20CHTO   N15 8208   4.812   2.475  -0.008  0.0502  0.0312  0.5748
   20CHTO  H143 8209   4.735   2.423   0.046  0.2202 -1.6014 -0.7093
   20CHTO  H144 8210   4.905   2.465   0.044  0.4518  1.1687  0.0838
   20CHTO   C87 8211   4.635   2.643  -0.093  0.2494 -0.0795 -0.8221
   20CHTO  H159 8212   4.618   2.577  -0.178 -0.0873  0.0092 -0.8256
   20CHTO   O53 8213   4.608   2.766  -0.128 -0.1716  0.4767 -0.8068
   20CHTO   C82 8214   4.690   2.828  -0.227 -0.0797 -0.0089 -0.0929
   20CHTO  H154 8215   4.679   2.767  -0.316  0.5766  2.2895 -1.7796
   20CHTO   C89 8216   4.626   2.966  -0.254  0.0860 -0.4791  0.5359
   20CHTO   O59 8217   4.650   3.048  -0.140  0.4684  0.4933 -0.5629
   20CHTO  H137 8218   4.567   3.059  -0.097  0.0626 -0.4208 -1.0880
   20CHTO   O45 8219   4.516   2.589   0.012 -0.0569 -0.3166 -0.1474
   20CHTO   C67 8220   4.529   2.627   0.148  0.2895  0.2342  0.5204
   20CHTO  H124 8221   4.622   2.590   0.190 -0.4626 -3.7394 -1.0738
   20CHTO   C65 8222   4.524   2.787   0.162  0.1133  0.0504  0.1330
   20CHTO  H122 8223   4.476   2.819   0.069  1.8392 -0.5772 -0.9939
   20CHTO   O44 8224   4.655   2.845   0.163 -0.6054  0.2256 -0.4338
   20CHTO  H102 8225   4.658   2.887   0.247 -1.2115  0.5917 -0.5878
   20CHTO   C63 8226   4.425   2.832   0.275 -0.2598 -0.1223  0.3154
   20CHTO  H120 8227   4.322   2.808   0.247  0.3083  0.1029 -2.0857
   20CHTO   N11 8228   4.421   2.976   0.307  0.2422 -0.2778 -0.0279
   20CHTO  H108 8229   4.423   3.028   0.213 -3.0421  0.5286  0.2756
   20CHTO  H109 8230   4.512   3.003   0.356 -0.8273 -1.8614  2.9415
   20CHTO   C61 8231   4.448   2.737   0.402  0.1221  0.4139  0.1168
   20CHTO  H118 8232   4.373   2.768   0.476  1.8499 -1.0607  2.5476
   20CHTO   O40 8233   4.425   2.601   0.376 -0.4092 -0.0728  0.8060
   20CHTO   C68 8234   4.417   2.558   0.234  0.2387 -0.8388 -0.4736
   20CHTO  H125 8235   4.319   2.592   0.194  0.3087  0.6067  0.5660
   20CHTO   C72 8236   4.428   2.404   0.219  0.0752  0.2385 -0.3314
   20CHTO   O48 8237   4.379   2.331   0.330  0.0273 -0.0195 -0.0954
   20CHTO  H105 8238   4.324   2.256   0.320 -2.4600  1.9253 -1.6742
   20CHTO   O38 8239   4.584   2.755   0.449 -0.0311 -0.2032  0.5584
   20CHTO   C55 8240   4.608   2.767   0.592 -0.0466  0.2408 -0.5951
   20CHTO  H112 8241   4.513   2.753   0.646  1.3034  0.2217  1.8688
   20CHTO   C56 8242   4.682   2.903   0.631 -0.1267  0.5104  0.4232
   20CHTO  H113 8243   4.782   2.894   0.585 -0.8591 -2.6198 -0.7123
   20CHTO   O42 8244   4.608   3.013   0.578 -0.2841 -0.0399  0.1520
   20CHTO  H100 8245   4.654   3.094   0.588  1.3779 -1.2340  2.9052
   20CHTO   C57 8246   4.686   2.924   0.785 -0.8641 -0.3408  0.2238
   20CHTO  H114 8247   4.583   2.911   0.817 -0.7564 -0.0508  0.7033
   20CHTO   N10 8248   4.741   3.047   0.838 -0.0952  0.2838  0.4729
   20CHTO  H106 8249   4.750   3.031   0.944 -0.5745  0.0576  0.4774
   20CHTO  H107 8250   4.671   3.129   0.827  0.0261  0.1553 -1.5014
   20CHTO   C58 8251   4.762   2.799   0.844 -1.3485 -0.5657  0.2272
   20CHTO  H115 8252   4.867   2.796   0.807 -1.6119  1.9020 -0.8365
   20CHTO   O37 8253   4.708   2.670   0.799 -0.0208 -0.4240 -0.0991
   20CHTO   C59 8254   4.691   2.651   0.657 -0.1053 -0.4121 -0.1011
   20CHTO  H116 8255   4.788   2.646   0.608 -0.6689  1.8443 -1.5000
   20CHTO   C70 8256   4.637   2.513   0.626  0.4024 -0.1668 -0.4233
   20CHTO   O46 8257   4.510   2.482   0.677  0.4797 -0.1767 -0.3675
   20CHTO  H103 8258   4.463   2.563   0.669  0.1151 -0.3422  0.1370
   20CHTO   O39 8259   4.758   2.789   1.013 -0.5890  0.0537 -0.2215
   20CHTO   C60 8260   4.868   2.710   1.076  0.2671  0.2571 -0.0376
   20CHTO  H117 8261   4.947   2.679   1.008  0.8944 -0.2454  0.9167
   20CHTO   C62 8262   4.951   2.796   1.175 -0.2308 -0.3411 -0.1683
   20CHTO  H119 8263   4.990   2.892   1.136  0.6962 -0.3934  0.5857
   20CHTO   O43 8264   4.865   2.835   1.285  0.0351 -0.4666 -0.2249
   20CHTO  H101 8265   4.864   2.771   1.353  0.5824  1.8304  2.0143
   20CHTO   C66 8266   5.078   2.709   1.222 -1.1741  0.0848 -0.0510
   20CHTO  H123 8267   5.133   2.676   1.133 -0.3678  1.4633 -0.0748
   20CHTO   N12 8268   5.184   2.775   1.302  0.0928  0.5114 -0.8919
   20CHTO  H110 8269   5.132   2.825   1.382 -3.8351  0.2017 -3.1699
   20CHTO  H111 8270   5.261   2.706   1.335 -0.7534 -1.9950 -3.9869
   20CHTO   C69 8271   5.026   2.592   1.308  0.1428 -0.7097 -0.8379
   20CHTO  H126 8272   4.971   2.633   1.395  1.4643 -2.2935  0.8029
   20CHTO   O41 8273   4.929   2.513   1.215 -0.1691  0.0562  0.0492
   20CHTO   C64 8274   4.813   2.586   1.146 -0.2113  0.7287  0.7718
   20CHTO  H121 8275   4.736   2.626   1.216  0.3777 -1.1533  2.5162
   20CHTO   C71 8276   4.741   2.490   1.049  0.4071 -0.8414 -0.1063
   20CHTO   O47 8277   4.604   2.468   1.088  0.4621 -0.2767  0.3328
   20CHTO  H104 8278   4.590   2.392   1.141 -1.0193 -0.5804 -0.4396
   20CHTO   O34 8279   5.138   2.499   1.363 -0.2856  0.3807  0.0223
   20CHTO   C49 8280   5.111   2.353   1.407  0.1894  0.0577  0.3300
   20CHTO   H91 8281   5.058   2.307   1.324  1.3009 -2.2065  0.8597
   20CHTO   C47 8282   5.021   2.345   1.534  0.3220  0.0337 -1.1889
   20CHTO   H89 8283   4.918   2.366   1.498  1.0337  1.1485 -2.6171
   20CHTO   O33 8284   5.062   2.460   1.615 -0.4804  0.4023  0.4997
   20CHTO   H70 8285   5.141   2.436   1.659  0.2105  1.7963  0.0503
   20CHTO   C45 8286   5.026   2.205   1.609  0.2213 -0.1190  0.0928
   20CHTO   H87 8287   5.104   2.213   1.686 -1.3961 -3.4610  2.1596
   20CHTO    N8 8288   4.906   2.167   1.676 -0.1238 -0.2307  0.6156
   20CHTO   H75 8289   4.907   2.060   1.691 -2.0179 -0.3202  0.2228
   20CHTO   H76 8290   4.923   2.221   1.768  0.3092  0.2429  0.2648
   20CHTO   C43 8291   5.097   2.090   1.517 -0.3197 -0.6258  0.0204
   20CHTO   H85 8292   5.095   2.002   1.580  0.0514 -0.3362  0.4348
   20CHTO   O29 8293   5.228   2.128   1.486 -0.6060 -0.7071  0.2079
   20CHTO   C50 8294   5.241   2.263   1.421 -0.5710 -0.1012  0.4775
   20CHTO   H92 8295   5.320   2.319   1.473 -2.0559  1.5625  0.9930
   20CHTO   C54 8296   5.297   2.240   1.280 -0.0228 -0.3328 -0.2567
   20CHTO   O36 8297   5.395   2.341   1.240  0.4688  0.2120 -0.5277
   20CHTO   H72 8298   5.478   2.324   1.280 -0.2189 -1.4103  0.2231
   20CHTO   O27 8299   5.025   2.050   1.398  0.1683 -0.0752 -0.3404
   20CHTO   C37 8300   4.891   2.006   1.346  0.6422 -0.2877  0.1118
   20CHTO   H79 8301   4.814   2.022   1.424  1.2657  1.1737  0.4498
   20CHTO   C38 8302   4.859   2.086   1.216 -0.7168 -0.0156  0.3299
   20CHTO   H80 8303   4.955   2.088   1.162 -0.9098 -3.6260 -0.3005
   20CHTO   O31 8304   4.833   2.214   1.264  0.0465 -0.3355 -0.1723
   20CHTO   H68 8305   4.756   2.216   1.316  0.4054  0.2086  0.3450
   20CHTO   C39 8306   4.747   2.012   1.134  0.0725  0.4025 -0.1739
   20CHTO   H81 8307   4.660   2.009   1.200  1.2994 -1.4559  1.4289
   20CHTO    N7 8308   4.716   2.080   1.012 -0.1293 -0.2441 -0.1593
   20CHTO   H73 8309   4.684   2.008   0.939  2.8599 -0.7764 -1.0175
   20CHTO   H74 8310   4.623   2.131   1.032  0.1069  0.4568 -0.7939
   20CHTO   C40 8311   4.781   1.861   1.109 -0.0406  0.1059  0.1406
   20CHTO   H82 8312   4.880   1.860   1.064 -0.3583  0.1255 -0.5620
   20CHTO   O26 8313   4.781   1.800   1.241  0.4366 -0.5331 -0.2428
   20CHTO   C41 8314   4.902   1.855   1.311 -0.1439  0.1478 -0.1119
   20CHTO   H83 8315   4.990   1.844   1.246 -0.2429 -0.0405 -0.2157
   20CHTO   C52 8316   4.933   1.777   1.443  0.2116  0.4730  0.7576
   20CHTO   O35 8317   4.977   1.652   1.413 -0.1180  0.1746  0.4047
   20CHTO   H71 8318   5.044   1.657   1.347  1.4571 -1.5816  1.8082
   20CHTO   O28 8319   4.696   1.779   1.017  0.4702 -0.2013  0.1643
   20CHTO   C42 8320   4.747   1.654   0.960 -0.2667  0.9299  0.6832
   20CHTO   H84 8321   4.664   1.598   0.916  1.4923 -1.5655  0.3975
   20CHTO   C44 8322   4.804   1.559   1.067  0.0288  0.6012  0.7541
   20CHTO   H86 8323   4.883   1.609   1.123 -0.3828  0.6246  1.3291
   20CHTO   O32 8324   4.691   1.532   1.152  0.2786 -0.6355  0.1195
   20CHTO   H69 8325   4.612   1.496   1.117  0.3868 -0.9448  0.1997
   20CHTO   C48 8326   4.868   1.431   1.001 -0.8544 -0.3274 -0.2771
   20CHTO   H90 8327   4.786   1.386   0.945 -2.9847  1.1928  1.5283
   20CHTO    N9 8328   4.918   1.342   1.106 -0.0438  0.6544  1.0742
   20CHTO   H77 8329   4.833   1.289   1.146 -0.2477  0.0344 -0.1522
   20CHTO   H78 8330   4.997   1.275   1.074 -0.6420  0.0080  0.9417
   20CHTO   C51 8331   4.977   1.476   0.893  0.6362 -0.0479 -0.2427
   20CHTO   H93 8332   5.045   1.546   0.941  3.3458 -1.5872 -1.7498
   20CHTO   O30 8333   4.907   1.541   0.787  0.5233 -0.1320  0.7649
   20CHTO   C46 8334   4.847   1.684   0.841 -0.2868 -0.1350  0.6502
   20CHTO   H88 8335   4.935   1.738   0.876  1.5118 -1.5141 -1.5608
   20CHTO   C53 8336   4.775   1.753   0.730  0.4408 -0.1805 -0.2516
   20CHTO   O72 8337   4.863   1.801   0.627 -0.5285  0.5212  1.2210
   20CHTO  H199 8338   4.818   1.821   0.547  0.8418 -0.8268  0.0775
   20CHTO   O22 8339   5.042   1.368   0.817 -0.2436  0.2195 -0.0127
   20CHTO   C31 8340   5.191   1.375   0.796  0.0760  0.9216  0.1835
   20CHTO   H59 8341   5.209   1.313   0.706 -3.8850 -1.8422  1.1545
   20CHTO   C29 8342   5.239   1.516   0.761  0.7590  0.1421 -0.6278
   20CHTO   H57 8343   5.228   1.594   0.838 -1.2735 -1.7555  1.0725
   20CHTO   O21 8344   5.159   1.569   0.657 -0.1900  0.2252 -0.4027
   20CHTO   H37 8345   5.094   1.509   0.625 -2.4950  3.0229 -1.1745
   20CHTO   C27 8346   5.393   1.510   0.723 -0.9725  0.1368  0.5069
   20CHTO   H55 8347   5.397   1.443   0.635 -2.3122 -1.1006  1.3513
   20CHTO    N5 8348   5.460   1.642   0.685 -0.2073  0.0136  0.1883
   20CHTO   H43 8349   5.563   1.627   0.659 -0.1519  0.5495  0.0799
   20CHTO   H44 8350   5.437   1.710   0.766  1.0332 -0.3737  0.8705
   20CHTO   C25 8351   5.466   1.435   0.842 -0.3433 -0.0778 -0.0616
   20CHTO   H53 8352   5.454   1.500   0.930  1.8381  0.3979 -0.0971
   20CHTO   O17 8353   5.411   1.303   0.858 -0.6468 -0.0593  0.0402
   20CHTO   C32 8354   5.276   1.314   0.910  0.3616  0.1751  0.0929
   20CHTO   H60 8355   5.277   1.377   0.999 -1.4219 -0.8688  0.8730
   20CHTO   C36 8356   5.239   1.174   0.945 -0.4381 -0.0739  0.3183
   20CHTO   O25 8357   5.332   1.131   1.047 -0.2554 -0.6015  0.0913
   20CHTO   H40 8358   5.327   1.042   1.076  0.1475  0.2988  3.1031
   20CHTO   O15 8359   5.626   1.420   0.805 -0.0791  0.0423 -0.3967
   20CHTO   C19 8360   5.756   1.488   0.827 -0.0640 -0.2892  0.2964
   20CHTO   H47 8361   5.742   1.591   0.793  1.8404 -0.4537 -1.0307
   20CHTO   C20 8362   5.806   1.492   0.973 -0.2950  0.3824 -0.3022
   20CHTO   H48 8363   5.830   1.390   1.007  1.6651  0.8963 -0.1204
   20CHTO   O19 8364   5.693   1.532   1.057 -0.2532 -0.1722 -0.5747
   20CHTO   H35 8365   5.700   1.504   1.146 -2.8596  0.0899 -0.2467
   20CHTO   C21 8366   5.926   1.587   0.988  0.0817  0.6648  0.0384
   20CHTO   H49 8367   5.898   1.690   0.963  0.5892  1.7189  3.5829
   20CHTO    N4 8368   5.973   1.579   1.125 -0.3787  0.3682 -0.7324
   20CHTO   H41 8369   5.915   1.653   1.178 -1.0163  0.2358 -1.2460
   20CHTO   H42 8370   6.078   1.601   1.138 -0.7942  1.1482  1.4944
   20CHTO   C22 8371   6.033   1.553   0.880 -0.0877 -0.5052  0.4054
   20CHTO   H50 8372   6.094   1.466   0.907 -0.4262 -0.6496  0.6997
   20CHTO   O14 8373   5.974   1.540   0.747 -0.2203 -0.5668  0.2188
   20CHTO   C23 8374   5.879   1.434   0.750  0.3142  0.2878 -0.4437
   20CHTO   H51 8375   5.922   1.342   0.794  1.7241  1.1317 -0.0124
   20CHTO   C34 8376   5.848   1.403   0.604  0.3277 -0.0649  0.4568
   20CHTO   O23 8377   5.968   1.369   0.548  0.1935 -0.0974  0.4349
   20CHTO   H38 8378   5.974   1.276   0.537  0.2550 -0.3985  2.7566
   20CHTO   O16 8379   6.107   1.674   0.857  0.0999  0.2480 -0.0930
   20CHTO   C24 8380   6.248   1.647   0.809  0.0320 -0.4460  0.4200
   20CHTO   H52 8381   6.261   1.546   0.769  1.2834  0.2154 -0.8864
   20CHTO   C26 8382   6.346   1.680   0.929  0.1910  0.0589 -0.4563
   20CHTO   H54 8383   6.313   1.778   0.968  0.8574  1.3505 -3.0596
   20CHTO   O20 8384   6.331   1.583   1.032  0.2677  0.2209 -0.5722
   20CHTO   H36 8385   6.390   1.590   1.105 -0.7481  0.3586  0.2443
   20CHTO   C30 8386   6.498   1.667   0.892 -0.1723 -0.1229  0.5680
   20CHTO   H58 8387   6.537   1.574   0.936 -0.0269 -1.0540 -1.4504
   20CHTO    N6 8388   6.569   1.786   0.951  0.4585  0.3696 -0.0959
   20CHTO   H45 8389   6.653   1.820   0.891 -1.0072 -0.9604 -3.0233
   20CHTO   H46 8390   6.600   1.771   1.053 -0.3593  0.3310  0.1468
   20CHTO   C33 8391   6.520   1.651   0.736  0.9110 -0.1592 -0.7686
   20CHTO   H61 8392   6.626   1.664   0.709  1.8943  0.3273  3.0637
   20CHTO   O18 8393   6.436   1.752   0.671  0.1556 -0.0778  0.1882
   20CHTO   C28 8394   6.295   1.743   0.700 -0.3520  0.2187 -0.0792
   20CHTO   H56 8395   6.266   1.844   0.729  1.4107  1.3690 -2.1898
   20CHTO   C35 8396   6.222   1.696   0.569 -0.1608  0.1751  0.0268
   20CHTO   O24 8397   6.237   1.785   0.459 -0.5592 -0.5134 -0.3525
   20CHTO   H39 8398   6.189   1.758   0.383 -1.5691  1.8465 -0.5940
   20CHTO    O9 8399   6.483   1.517   0.693  0.4780 -0.0710  0.1962
   20CHTO   C13 8400   6.599   1.408   0.676  0.0654 -1.0005  0.3852
   20CHTO   H26 8401   6.696   1.451   0.709  0.6558 -2.4308  0.5846
   20CHTO   C11 8402   6.608   1.367   0.526 -0.2970 -0.5729  0.0976
   20CHTO   H24 8403   6.647   1.450   0.465  0.6068 -0.1250  1.2661
   20CHTO    O8 8404   6.480   1.318   0.478 -0.2598 -0.2833  0.1042
   20CHTO    H3 8405   6.488   1.288   0.390  2.5572 -0.2465  0.3131
   20CHTO    C9 8406   6.713   1.251   0.523  0.3668  0.3979 -0.0784
   20CHTO   H22 8407   6.806   1.292   0.564  2.3988 -3.2155 -0.9315
   20CHTO    N2 8408   6.773   1.218   0.390  0.0002  0.3722 -0.2289
   20CHTO   H10 8409   6.805   1.310   0.344  0.5081  0.5392  0.4640
   20CHTO   H11 8410   6.699   1.165   0.332  0.3155 -1.4037  0.9614
   20CHTO    C7 8411   6.665   1.125   0.606 -0.4889  0.3296  0.0097
   20CHTO   H20 8412   6.747   1.051   0.612 -2.9170 -2.2224  5.2076
   20CHTO    O4 8413   6.634   1.168   0.744 -0.1071 -0.6100 -0.9190
   20CHTO   C14 8414   6.580   1.295   0.787 -0.4361  0.4020  0.2400
   20CHTO   H27 8415   6.639   1.328   0.874 -2.8624  1.0180  1.6913
   20CHTO   C18 8416   6.432   1.275   0.834  0.3763 -0.0292 -0.1677
   20CHTO   O13 8417   6.340   1.233   0.732  0.3801 -0.2951 -0.2755
   20CHTO    H7 8418   6.266   1.208   0.785  0.7906  1.5750  1.2596
   20CHTO    O2 8419   6.541   1.050   0.547 -0.2577 -0.2245 -0.0534
   20CHTO    C1 8420   6.466   0.952   0.615  0.7083  1.2330 -0.6356
   20CHTO   H14 8421   6.437   0.994   0.714 -1.5325 -1.2759 -0.1787
   20CHTO    C2 8422   6.544   0.819   0.640 -0.3574 -0.3125 -0.2430
   20CHTO   H15 8423   6.577   0.784   0.541  3.1230  0.1108  0.6739
   20CHTO    O6 8424   6.666   0.839   0.712 -0.4179 -0.2741 -0.1515
   20CHTO    H1 8425   6.728   0.770   0.701  1.0292  0.9904 -0.0917
   20CHTO    C3 8426   6.449   0.704   0.710 -0.2841  0.1917 -0.0347
   20CHTO   H16 8427   6.418   0.753   0.803 -0.0453  2.3793 -1.0585
   20CHTO    N1 8428   6.521   0.582   0.737  0.0620  0.0154 -0.3557
   20CHTO    H8 8429   6.584   0.601   0.822  0.8692  1.6178 -1.2892
   20CHTO    H9 8430   6.449   0.503   0.751 -1.1524  1.1911  0.1302
   20CHTO    C4 8431   6.316   0.690   0.631  0.1609 -0.3521 -0.0251
   20CHTO   H17 8432   6.339   0.642   0.535  2.1255 -1.3957  0.9348
   20CHTO    O1 8433   6.250   0.814   0.611 -0.1253 -0.2992 -0.2858
   20CHTO    C5 8434   6.330   0.908   0.537  0.6466 -0.2337  0.1883
   20CHTO   H18 8435   6.366   0.862   0.445 -2.8400  0.7399 -1.7465
   20CHTO   C16 8436   6.236   1.031   0.503  0.3245  0.2457 -0.2792
   20CHTO   O11 8437   6.152   1.005   0.385 -0.0134 -0.4529  0.2883
   20CHTO    H5 8438   6.101   0.931   0.414 -1.0030  0.4285  0.8563
   20CHTO    O3 8439   6.220   0.615   0.709 -0.4107  0.3373 -0.8051
   20CHTO    C6 8440   6.116   0.545   0.640 -0.7887 -0.3560 -0.5236
   20CHTO   H19 8441   6.120   0.563   0.533 -0.6571 -1.7716 -0.7668
   20CHTO    C8 8442   6.134   0.390   0.669  0.2806  0.5415  0.3776
   20CHTO   H21 8443   6.149   0.381   0.777  0.7638  0.2718  0.2889
   20CHTO    O7 8444   6.255   0.359   0.602 -1.0955  0.3874  0.0873
   20CHTO    H2 8445   6.328   0.398   0.645 -0.6117 -0.8343  0.4049
   20CHTO   C12 8446   6.005   0.306   0.624  0.1102  0.8682  0.8794
   20CHTO   H25 8447   6.008   0.314   0.514  1.4568 -0.2655  0.8222
   20CHTO    N3 8448   6.021   0.162   0.654 -0.0262 -0.4724  0.3198
   20CHTO   H12 8449   6.103   0.122   0.596  0.7993 -0.6289  1.5737
   20CHTO   H13 8450   5.932   0.103   0.637 -0.9657  1.3770 -1.3909
   20CHTO   C15 8451   5.873   0.364   0.674  0.4251  0.2301  0.8403
   20CHTO   H28 8452   5.859   0.335   0.778 -1.4083 -1.4453  0.1671
   20CHTO   O10 8453   5.729   0.329   0.572  0.1699 -0.1923 -0.2294
   20CHTO    H4 8454   5.671   0.272   0.617  0.7712 -2.2723 -1.9595
   20CHTO    O5 8455   5.864   0.508   0.650  0.5325 -0.0790  0.5178
   20CHTO   C10 8456   5.975   0.582   0.699 -0.0035 -0.0439 -0.7237
   20CHTO   H23 8457   5.991   0.556   0.804 -1.3364 -1.8479 -0.9616
   20CHTO   C17 8458   5.945   0.734   0.698 -0.2476  0.1951  0.4782
   20CHTO   O12 8459   5.912   0.782   0.569 -0.2969  0.0678 -0.0949
   20CHTO    H6 8460   5.936   0.873   0.566 -0.3733  0.2863  3.8473
   21GLOH   H03 8461   3.966   0.020   2.145 -2.2097  0.2696 -1.2634
   21GLOH    O1 8462   3.960   0.111   2.178  0.0537 -0.1689  0.4900
   21GLOH    C1 8463   3.892   0.082   2.301 -0.5334 -0.4005  0.8176
   21GLOH   H02 8464   3.921   0.157   2.375  1.8196 -1.2802  0.8153
   21GLOH   H08 8465   3.915  -0.017   2.341 -1.1806 -0.8948 -0.0194
   21GLOH    C2 8466   3.738   0.104   2.291  0.1298 -0.1339 -0.5355
   21GLOH   H04 8467   3.728   0.209   2.258 -1.0346  0.0916  0.4833
   21GLOH    O2 8468   3.670   0.008   2.208 -0.0010 -0.1494  0.0594
   21GLOH   H05 8469   3.725   0.001   2.128 -1.2247  1.4981 -0.9498
   21GLOH    C3 8470   3.668   0.103   2.427  0.5677  0.1856  0.0656
   21GLOH   H06 8471   3.707   0.020   2.487  1.5038  1.4245  1.2115
   21GLOH   H07 8472   3.563   0.084   2.408  0.0881  2.6972  0.0458
   21GLOH    O3 8473   3.685   0.234   2.490  0.1628 -0.2352  0.4754
   21GLOH   H01 8474   3.631   0.305   2.449  2.7110  0.4383 -1.9447
   22GLOH   H03 8475   3.558   0.327   2.102 -0.2806  0.6561 -1.1794
   22GLOH    O1 8476   3.518   0.250   2.057 -0.4900  0.0805 -0.0383
   22GLOH    C1 8477   3.403   0.203   2.138 -0.0531 -1.0095  0.5236
   22GLOH   H02 8478   3.384   0.256   2.232 -0.6948  1.3935 -0.8963
   22GLOH   H08 8479   3.429   0.103   2.172  0.2579 -1.4993 -1.1293
   22GLOH    C2 8480   3.271   0.194   2.058 -0.3221 -0.9317  0.1078
   22GLOH   H04 8481   3.194   0.198   2.137 -1.9337  1.9123 -1.5218
   22GLOH    O2 8482   3.254   0.306   1.968  0.1144  0.0804 -0.2606
   22GLOH   H05 8483   3.162   0.308   1.935 -1.0031  1.1732  2.7573
   22GLOH    C3 8484   3.262   0.064   1.983 -0.0254 -0.1297  0.2269
   22GLOH   H06 8485   3.288  -0.017   2.051 -0.7404 -1.4249 -1.0254
   22GLOH   H07 8486   3.329   0.057   1.897 -0.7876 -0.5988 -0.3258
   22GLOH    O3 8487   3.134   0.045   1.929 -0.1394 -0.2401  0.1028
   22GLOH   H01 8488   3.141   0.013   1.837 -0.8078 -2.2001  0.7153
   23GLOH   H03 8489   3.592   8.763   2.617 -1.7663 -2.4487 -2.9444
   23GLOH    O1 8490   3.681   8.742   2.584  0.1312 -0.1620  0.3727
   23GLOH    C1 8491   3.713   8.818   2.471 -0.1300  0.1037 -0.4053
   23GLOH   H02 8492   3.734   8.922   2.497 -1.1062 -0.0077  0.8546
   23GLOH   H08 8493   3.627   8.827   2.405 -0.0654  0.9268 -0.3920
   23GLOH    C2 8494   3.836   8.765   2.388  0.2421 -0.4428  0.3078
   23GLOH   H04 8495   3.799   8.670   2.348 -0.3892  1.0320 -2.7216
   23GLOH    O2 8496   3.865   8.849   2.278 -0.2298 -0.7958 -0.1003
   23GLOH   H05 8497   3.789   8.846   2.217  0.2966 -0.5297 -0.7746
   23GLOH    C3 8498   3.969   8.747   2.467 -0.2590  0.2551 -0.4248
   23GLOH   H06 8499   3.983   8.847   2.509 -0.5015 -0.1854  0.7291
   23GLOH   H07 8500   4.055   8.730   2.403 -0.8423  3.5096 -2.2057
   23GLOH    O3 8501   3.954   8.649   2.574  0.6806 -0.5869  0.1784
   23GLOH   H01 8502   3.861   8.669   2.596  0.6048 -0.8847  0.1340
   24GLOH   H03 8503   4.151   1.781   0.642  0.0491 -0.8282 -0.1601
   24GLOH    O1 8504   4.229   1.733   0.609  0.7083 -0.0403  0.2548
   24GLOH    C1 8505   4.231   1.609   0.677 -0.2687 -0.2907 -0.0944
   24GLOH   H02 8506   4.310   1.546   0.637 -0.1802 -0.2892  0.0774
   24GLOH   H08 8507   4.136   1.558   0.661  0.0017 -0.2825 -1.8818
   24GLOH    C2 8508   4.271   1.638   0.821 -0.5799 -0.1868 -0.1854
   24GLOH   H04 8509   4.187   1.688   0.872  0.3820  0.5112  0.7419
   24GLOH    O2 8510   4.296   1.505   0.882 -0.1592  0.2145 -1.0607
   24GLOH   H05 8511   4.239   1.480   0.956  1.5527  1.8276  0.8687
   24GLOH    C3 8512   4.391   1.734   0.844  0.2936 -0.1730 -0.5503
   24GLOH   H06 8513   4.369   1.824   0.786 -0.1696 -0.6619 -1.1411
   24GLOH   H07 8514   4.470   1.676   0.795  0.8601 -0.8297  1.1171
   24GLOH    O3 8515   4.413   1.766   0.980  0.5432 -0.4108  0.4876
   24GLOH   H01 8516   4.382   1.855   1.002 -0.3049 -0.6251  0.1889
   25GLOH   H03 8517   4.004   3.488   2.099 -1.5078  0.8531  2.0362
   25GLOH    O1 8518   3.985   3.572   2.053  0.2716 -0.0173 -0.4432
   25GLOH    C1 8519   4.013   3.560   1.911 -0.4201  0.1138 -0.7502
   25GLOH   H02 8520   3.997   3.458   1.875  0.2324 -0.1805 -0.2030
   25GLOH   H08 8521   4.120   3.579   1.905 -0.2191 -1.3630 -2.3806
   25GLOH    C2 8522   3.946   3.675   1.833  0.4875 -0.0114  0.0943
   25GLOH   H04 8523   4.006   3.765   1.851  0.4925  0.0873 -0.3953
   25GLOH    O2 8524   3.954   3.662   1.688  0.4162  0.6255 -0.5102
   25GLOH   H05 8525   3.908   3.581   1.660  0.9193  0.2297 -0.2074
   25GLOH    C3 8526   3.811   3.705   1.893  0.1968  0.4239 -0.3267
   25GLOH   H06 8527   3.818   3.733   1.998 -0.6448 -0.7899  0.0666
   25GLOH   H07 8528   3.768   3.605   1.896  0.1282  0.4897  1.3506
   25GLOH    O3 8529   3.725   3.798   1.819 -0.4808 -0.1117  0.6374
   25GLOH   H01 8530   3.784   3.860   1.773  0.1134 -1.5259 -0.5405
   26GLOH   H03 8531   4.305   1.711   2.215  1.2318 -0.2273  0.0679
   26GLOH    O1 8532   4.303   1.660   2.132 -0.2660  0.4059 -0.2875
   26GLOH    C1 8533   4.375   1.742   2.033  0.1715  0.0170 -0.1436
   26GLOH   H02 8534   4.341   1.845   2.041  0.2623  0.2752 -2.7134
   26GLOH   H08 8535   4.345   1.718   1.931  0.3264 -1.7121  0.1977
   26GLOH    C2 8536   4.527   1.741   2.053  0.0347 -0.0913  0.5633
   26GLOH   H04 8537   4.554   1.635   2.063 -0.5859 -0.1176  1.9923
   26GLOH    O2 8538   4.597   1.793   1.937  0.2561 -0.2570  0.7352
   26GLOH   H05 8539   4.558   1.758   1.855 -0.9220 -0.4227  1.3562
   26GLOH    C3 8540   4.574   1.818   2.176  0.0451 -0.1138 -0.3758
   26GLOH   H06 8541   4.551   1.924   2.167 -2.2387 -0.5609 -0.2904
   26GLOH   H07 8542   4.679   1.794   2.189  0.0811 -0.6945 -1.6618
   26GLOH    O3 8543   4.506   1.763   2.289  0.1586 -0.0389  0.1936
   26GLOH   H01 8544   4.564   1.689   2.316 -0.0597  0.2869  1.5885
   27GLOH   H03 8545   4.577   1.272   1.721 -0.4194  0.2850 -0.5474
   27GLOH    O1 8546   4.532   1.196   1.762 -0.2401  0.7540  0.5359
   27GLOH    C1 8547   4.500   1.236   1.898  0.1154 -0.1199  0.1628
   27GLOH   H02 8548   4.412   1.299   1.901  0.2609  0.1702 -1.4034
   27GLOH   H08 8549   4.583   1.290   1.944  0.5786 -0.6352 -0.0557
   27GLOH    C2 8550   4.467   1.124   1.992  0.1370 -0.8045  0.2838
   27GLOH   H04 8551   4.552   1.055   2.002  0.6449 -0.2294 -0.0405
   27GLOH    O2 8552   4.430   1.163   2.125  0.1573  0.3333 -0.1940
   27GLOH   H05 8553   4.385   1.088   2.166  1.7824  1.1211  3.2189
   27GLOH    C3 8554   4.340   1.048   1.928  0.0921 -0.6636 -0.5722
   27GLOH   H06 8555   4.248   1.105   1.937 -0.4929 -1.8183  1.0520
   27GLOH   H07 8556   4.326   0.962   1.994 -1.0335  1.0861  1.5466
   27GLOH    O3 8557   4.359   1.003   1.791  0.2002  0.0680  0.1275
   27GLOH   H01 8558   4.410   1.070   1.742  1.4792 -0.4009  0.8238
   28GLOH   H03 8559   2.739   1.814   0.342 -0.4506  1.0159 -0.4068
   28GLOH    O1 8560   2.644   1.827   0.323 -0.5847  0.1410 -0.3554
   28GLOH    C1 8561   2.616   1.717   0.234 -0.3703  0.3687  0.4484
   28GLOH   H02 8562   2.510   1.691   0.239 -0.4261  0.6981  0.9886
   28GLOH   H08 8563   2.664   1.628   0.275  0.9272  0.5178 -0.7216
   28GLOH    C2 8564   2.659   1.736   0.090 -0.6534 -0.5638  0.0247
   28GLOH   H04 8565   2.768   1.744   0.084 -0.9046  2.6412 -1.3999
   28GLOH    O2 8566   2.626   1.611   0.015 -0.0553  0.1295 -0.0898
   28GLOH   H05 8567   2.693   1.542   0.030  1.6393  1.5226 -1.0471
   28GLOH    C3 8568   2.587   1.850   0.009 -0.1086 -0.5410 -0.2200
   28GLOH   H06 8569   2.485   1.813   0.000 -1.0804  1.5488  1.6616
   28GLOH   H07 8570   2.640   1.868  -0.084  0.6562 -3.0286 -0.2955
   28GLOH    O3 8571   2.575   1.967   0.090  0.2053 -0.1679  0.5902
   28GLOH   H01 8572   2.594   1.942   0.182  0.0143  0.5864  0.8375
   29GLOH   H03 8573   3.588   9.134   1.548 -0.1036 -0.6564  0.3847
   29GLOH    O1 8574   3.653   9.096   1.610  0.3133 -0.1969  0.2300
   29GLOH    C1 8575   3.661   9.175   1.725  0.0553  0.4381 -0.2418
   29GLOH   H02 8576   3.567   9.160   1.779  0.3160 -0.3652  0.0003
   29GLOH   H08 8577   3.672   9.281   1.701 -1.4657  0.3059 -1.6028
   29GLOH    C2 8578   3.776   9.132   1.819 -0.3343 -0.2079  0.1069
   29GLOH   H04 8579   3.770   9.192   1.911  2.3073  0.0116  0.1820
   29GLOH    O2 8580   3.772   8.992   1.849 -0.2587 -0.0691 -0.1935
   29GLOH   H05 8581   3.787   8.940   1.768 -1.0372 -2.0388  0.8940
   29GLOH    C3 8582   3.910   9.171   1.751 -0.3766 -0.2899  0.6459
   29GLOH   H06 8583   3.905   9.111   1.660  2.0185 -0.9478  0.9080
   29GLOH   H07 8584   3.991   9.124   1.807  1.6174  3.0417  0.7110
   29GLOH    O3 8585   3.923   9.307   1.716  0.1513  0.5222 -0.2184
   29GLOH   H01 8586   3.932   9.309   1.619 -0.2716 -0.5864 -0.2880
   30GLOH   H03 8587   3.781   3.606   0.374 -0.2542  0.7733 -0.4312
   30GLOH    O1 8588   3.696   3.588   0.418  0.5292 -0.4022  0.6279
   30GLOH    C1 8589   3.697   3.645   0.548  0.6760 -0.5208 -0.5773
   30GLOH   H02 8590   3.795   3.640   0.596  0.8187  1.4881 -0.6498
   30GLOH   H08 8591   3.631   3.584   0.611  0.8936 -2.2619 -1.9815
   30GLOH    C2 8592   3.630   3.783   0.562  0.2747 -0.5906  0.4305
   30GLOH   H04 8593   3.704   3.849   0.514 -0.0082 -1.3531 -1.0833
   30GLOH    O2 8594   3.509   3.798   0.489  0.3427  1.0363 -0.1924
   30GLOH   H05 8595   3.468   3.711   0.479  0.4336  0.8398  1.0917
   30GLOH    C3 8596   3.617   3.820   0.715  1.0513 -0.6841  0.1527
   30GLOH   H06 8597   3.564   3.736   0.759  0.1366  0.5650  1.4967
   30GLOH   H07 8598   3.563   3.912   0.739  2.1888  0.3158 -1.0355
   30GLOH    O3 8599   3.746   3.834   0.772  0.7166 -0.3123  0.0051
   30GLOH   H01 8600   3.749   3.894   0.850  1.2030  2.3723 -1.9937
   31GLOH   H03 8601   2.892   1.894   2.536  0.3446  0.3998 -0.0849
   31GLOH    O1 8602   2.858   1.813   2.495  0.3662  0.0762  0.5330
   31GLOH    C1 8603   2.922   1.692   2.539 -0.2953  0.2578  0.1960
   31GLOH   H02 8604   2.844   1.620   2.562 -0.7865  0.9477  0.7332
   31GLOH   H08 8605   2.971   1.716   2.633 -2.7011 -2.4408  2.2199
   31GLOH    C2 8606   3.026   1.642   2.438  0.1587  0.0441  0.6035
   31GLOH   H04 8607   2.975   1.625   2.343  1.2084  4.0694 -0.8099
   31GLOH    O2 8608   3.128   1.739   2.425 -0.1384  0.8399  0.7091
   31GLOH   H05 8609   3.100   1.832   2.416 -1.4371  0.2995 -1.1302
   31GLOH    C3 8610   3.091   1.512   2.481 -0.9334  0.3433 -0.2939
   31GLOH   H06 8611   3.171   1.538   2.549 -0.8076 -1.1239  0.1378
   31GLOH   H07 8612   3.131   1.475   2.386 -0.3344 -1.0159  0.4850
   31GLOH    O3 8613   3.006   1.404   2.536 -0.1727 -0.4539 -0.3973
   31GLOH   H01 8614   2.932   1.387   2.474 -0.7771  1.2190 -0.1748
   32GLOH   H03 8615   4.058   2.431   1.282  0.9511  0.8402 -0.2246
   32GLOH    O1 8616   4.014   2.448   1.197 -0.6135  0.8517  0.5712
   32GLOH    C1 8617   3.875   2.453   1.230  0.2157 -0.0864 -0.6459
   32GLOH   H02 8618   3.831   2.509   1.148 -1.1766 -0.0284  0.1327
   32GLOH   H08 8619   3.850   2.508   1.320 -1.3324  1.8623 -2.2295
   32GLOH    C2 8620   3.823   2.313   1.241  0.7703 -0.0688  0.8371
   32GLOH   H04 8621   3.907   2.245   1.263  1.7654  1.8433  3.2021
   32GLOH    O2 8622   3.720   2.288   1.336  0.0498  0.0712  0.4311
   32GLOH   H05 8623   3.714   2.191   1.347  0.2795 -0.2459 -1.9399
   32GLOH    C3 8624   3.760   2.274   1.102 -0.2054  0.1172  0.0190
   32GLOH   H06 8625   3.700   2.357   1.063  1.1069 -0.0565 -2.4884
   32GLOH   H07 8626   3.679   2.204   1.122 -1.5022  0.9772 -1.9275
   32GLOH    O3 8627   3.851   2.228   0.995 -0.3581 -0.5159  0.3202
   32GLOH   H01 8628   3.794   2.201   0.921  0.2415  0.2295 -0.4152
   33GLOH   H03 8629   3.236   1.158   1.915 -2.5486 -1.3835  1.0097
   33GLOH    O1 8630   3.285   1.088   1.962  0.4788 -0.2667 -0.3222
   33GLOH    C1 8631   3.413   1.070   1.896  0.2785  0.2470  0.0761
   33GLOH   H02 8632   3.400   1.057   1.789 -0.3541 -1.9307  0.3888
   33GLOH   H08 8633   3.469   0.984   1.934  2.9120  1.3182 -1.2308
   33GLOH    C2 8634   3.514   1.191   1.915 -0.3212 -0.1618 -0.6516
   33GLOH   H04 8635   3.596   1.191   1.843 -0.0973  2.3413 -0.4514
   33GLOH    O2 8636   3.449   1.319   1.902  0.2379  0.2027  0.0879
   33GLOH   H05 8637   3.447   1.326   1.805  3.4862 -3.9001 -0.4357
   33GLOH    C3 8638   3.582   1.180   2.054 -0.0268 -0.3706 -0.1726
   33GLOH   H06 8639   3.586   1.073   2.076 -2.1560 -0.2833  0.7222
   33GLOH   H07 8640   3.508   1.227   2.119  1.9107 -0.8220  2.4470
   33GLOH    O3 8641   3.715   1.242   2.058  0.0093 -0.1889 -0.1664
   33GLOH   H01 8642   3.717   1.309   2.129 -0.2578 -0.1670 -0.1792
   34GLOH   H03 8643   4.405   3.073   2.659  1.2564  0.5629 -2.2802
   34GLOH    O1 8644   4.412   3.161   2.700 -0.0154 -0.5502  0.4363
   34GLOH    C1 8645   4.286   3.231   2.685 -0.5357  0.5513 -0.9695
   34GLOH   H02 8646   4.204   3.192   2.744 -0.8034  0.3822 -1.4451
   34GLOH   H08 8647   4.251   3.229   2.581 -4.2348  0.8462  0.2245
   34GLOH    C2 8648   4.315   3.378   2.731 -0.1139  0.1901  0.9645
   34GLOH   H04 8649   4.399   3.405   2.665  2.7729 -2.9378  3.1704
   34GLOH    O2 8650   4.200   3.456   2.703  0.7179 -0.1192 -0.3146
   34GLOH   H05 8651   4.236   3.536   2.662  1.9884 -0.4322  0.1516
   34GLOH    C3 8652   4.357   3.378   2.881  0.3444 -0.1251 -0.3389
   34GLOH   H06 8653   4.270   3.345   2.936 -1.4205  2.1930 -1.6341
   34GLOH   H07 8654   4.370   3.479   2.921 -1.6887 -0.2183  0.5907
   34GLOH    O3 8655   4.486   3.301   2.907  0.2274 -0.2922 -0.0574
   34GLOH   H01 8656   4.484   3.229   2.841  2.2658 -0.1837 -0.2480
   35GLOH   H03 8657   4.305   3.404   1.840 -1.4187  0.5752 -0.3453
   35GLOH    O1 8658   4.345   3.492   1.854  0.4264 -0.3385  0.3011
   35GLOH    C1 8659   4.401   3.499   1.984 -0.2873  0.1833 -0.5799
   35GLOH   H02 8660   4.470   3.418   2.009 -1.3215 -0.2569  0.9192
   35GLOH   H08 8661   4.328   3.481   2.063 -0.2497  0.9087 -0.3776
   35GLOH    C2 8662   4.463   3.638   2.002  0.4477 -0.6790 -0.3675
   35GLOH   H04 8663   4.547   3.644   1.931  1.0341 -0.2241  0.3550
   35GLOH    O2 8664   4.365   3.744   1.973 -0.4736 -0.2493  0.0875
   35GLOH   H05 8665   4.313   3.713   1.897  1.1884 -1.1231 -0.7257
   35GLOH    C3 8666   4.524   3.663   2.143  0.0644 -0.7248  0.2446
   35GLOH   H06 8667   4.440   3.674   2.212  1.5792  1.8889  1.7601
   35GLOH   H07 8668   4.580   3.756   2.139 -1.2498  0.0126 -2.0069
   35GLOH    O3 8669   4.607   3.557   2.188  0.6783 -0.2217 -0.3338
   35GLOH   H01 8670   4.680   3.556   2.123  0.2050  2.3729 -0.9525
   36GLOH   H03 8671   3.719   3.123   2.221 -1.0967  0.8291  2.4076
   36GLOH    O1 8672   3.684   3.210   2.192 -0.7012 -0.0525 -0.8783
   36GLOH    C1 8673   3.789   3.291   2.141 -0.0078 -0.0414  0.7781
   36GLOH   H02 8674   3.756   3.394   2.130  0.0254 -0.0797  0.2912
   36GLOH   H08 8675   3.830   3.265   2.043 -3.2635 -0.1543 -0.6058
   36GLOH    C2 8676   3.913   3.283   2.237 -0.1552 -0.1045  0.5007
   36GLOH   H04 8677   3.941   3.180   2.261 -0.3975  0.0444  1.4352
   36GLOH    O2 8678   4.031   3.349   2.187 -0.2282 -0.7528  0.1562
   36GLOH   H05 8679   4.112   3.316   2.230 -1.0748 -1.1195  1.4950
   36GLOH    C3 8680   3.858   3.361   2.365  0.4881  0.6168  0.3310
   36GLOH   H06 8681   3.770   3.301   2.389  1.2550 -1.5885 -2.0986
   36GLOH   H07 8682   3.820   3.461   2.350 -0.5519  0.0781 -0.7178
   36GLOH    O3 8683   3.950   3.353   2.476 -0.1285  0.9214 -0.0669
   36GLOH   H01 8684   4.024   3.414   2.456  1.4896 -0.8877  0.2407
   37GLOH   H03 8685   3.715   4.013   2.169 -0.7925 -0.6483  1.0285
   37GLOH    O1 8686   3.786   3.953   2.198  0.4834  0.2576 -0.2088
   37GLOH    C1 8687   3.726   3.836   2.256  0.8980 -0.3871  0.3004
   37GLOH   H02 8688   3.798   3.760   2.287  1.5509  0.1582  0.1393
   37GLOH   H08 8689   3.661   3.779   2.191  2.1306 -1.2198 -0.2209
   37GLOH    C2 8690   3.645   3.869   2.385 -0.3677  0.0593  0.0903
   37GLOH   H04 8691   3.721   3.906   2.455 -0.5797 -0.1917  0.4541
   37GLOH    O2 8692   3.544   3.975   2.366  0.4681 -0.1891  0.1080
   37GLOH   H05 8693   3.581   4.045   2.310  2.6232  0.9570  2.8408
   37GLOH    C3 8694   3.589   3.740   2.455  0.5019  0.0285 -0.4418
   37GLOH   H06 8695   3.533   3.680   2.384  0.3825  0.1937 -0.4864
   37GLOH   H07 8696   3.517   3.766   2.533  1.1870 -1.8257  0.8528
   37GLOH    O3 8697   3.698   3.668   2.501  0.1129 -0.3904 -0.0564
   37GLOH   H01 8698   3.688   3.632   2.591  0.1743 -1.3349 -0.4183
   38GLOH   H03 8699   2.928   2.088  -0.081  3.6668  0.4028  1.0083
   38GLOH    O1 8700   2.925   1.994  -0.057  0.2119  0.1085 -0.3056
   38GLOH    C1 8701   3.030   1.979   0.040 -0.8951  0.9102 -0.5755
   38GLOH   H02 8702   3.129   2.019   0.017 -0.2759  0.0309  0.4973
   38GLOH   H08 8703   3.045   1.873   0.057  0.0160  1.1347  0.1211
   38GLOH    C2 8704   2.999   2.041   0.176  0.7367 -1.1033 -0.0841
   38GLOH   H04 8705   2.994   2.150   0.161 -0.7027 -0.6897  3.1602
   38GLOH    O2 8706   2.873   1.990   0.216  0.1970  0.3689 -0.0435
   38GLOH   H05 8707   2.820   1.993   0.134  0.5219  1.0012 -0.2362
   38GLOH    C3 8708   3.117   2.021   0.280 -0.2998 -0.1297 -0.0595
   38GLOH   H06 8709   3.156   1.919   0.280 -1.7262 -0.7356 -3.2589
   38GLOH   H07 8710   3.075   2.042   0.378 -1.2988  0.4146 -0.5908
   38GLOH    O3 8711   3.222   2.121   0.258 -0.4054 -0.0474 -0.1707
   38GLOH   H01 8712   3.296   2.084   0.208 -0.6580  0.5319 -0.9687
   39GLOH   H03 8713   3.812   1.333   0.410 -0.0698  1.0749 -1.3274
   39GLOH    O1 8714   3.900   1.371   0.426  0.2073 -0.2477  0.3968
   39GLOH    C1 8715   3.986   1.257   0.419  0.4011  0.5131  0.0244
   39GLOH   H02 8716   4.083   1.297   0.390 -0.2187  2.3949  0.4444
   39GLOH   H08 8717   3.961   1.191   0.336  0.2913  0.0788  0.3998
   39GLOH    C2 8718   3.998   1.179   0.550  0.3868  0.5074  0.3224
   39GLOH   H04 8719   3.897   1.138   0.564  0.1019  1.4143  1.0270
   39GLOH    O2 8720   4.095   1.074   0.539 -0.2323 -0.4679  0.6189
   39GLOH   H05 8721   4.041   0.994   0.544  0.4842 -0.9107  1.4163
   39GLOH    C3 8722   4.032   1.270   0.666 -0.4884 -0.1431 -0.5577
   39GLOH   H06 8723   4.111   1.332   0.626  0.4510 -1.3187 -0.5539
   39GLOH   H07 8724   4.080   1.213   0.745  0.9006  0.8550 -0.6767
   39GLOH    O3 8725   3.913   1.348   0.686  0.6255  0.1976 -0.2406
   39GLOH   H01 8726   3.890   1.385   0.598  1.9186 -2.5136 -1.7679
   40GLOH   H03 8727   3.229   1.069   1.407  0.0636  0.1077 -1.1959
   40GLOH    O1 8728   3.303   1.119   1.446  0.1884 -0.9310 -0.0783
   40GLOH    C1 8729   3.418   1.027   1.451  0.6484 -0.1606  0.6342
   40GLOH   H02 8730   3.380   0.927   1.474  1.1004  0.1038  2.5875
   40GLOH   H08 8731   3.492   1.060   1.524  0.1453  3.7896 -0.5116
   40GLOH    C2 8732   3.485   1.021   1.314 -0.7225  0.3670  0.5321
   40GLOH   H04 8733   3.563   0.944   1.323 -0.9921 -0.1887 -1.5811
   40GLOH    O2 8734   3.397   0.991   1.207  0.3712  0.0592  0.1836
   40GLOH   H05 8735   3.445   0.985   1.123 -0.2242  1.8864 -0.3102
   40GLOH    C3 8736   3.554   1.158   1.290  0.1707  0.6680 -0.8739
   40GLOH   H06 8737   3.630   1.175   1.366 -1.2583 -0.2286  0.8105
   40GLOH   H07 8738   3.489   1.244   1.309 -2.3782 -1.6626  1.3126
   40GLOH    O3 8739   3.607   1.177   1.160 -0.5259  0.4128 -0.5249
   40GLOH   H01 8740   3.669   1.104   1.144  0.7784  1.3387  0.2755
   41GLOH   H03 8741   2.362   1.180   2.331 -1.1496 -1.9318  1.8008
   41GLOH    O1 8742   2.393   1.222   2.413 -0.1726  0.1718  0.4129
   41GLOH    C1 8743   2.511   1.307   2.390 -0.3913 -0.3215  0.6399
   41GLOH   H02 8744   2.580   1.252   2.325  0.5063  0.6483  0.7532
   41GLOH   H08 8745   2.571   1.313   2.481  0.7098 -0.4239 -0.0570
   41GLOH    C2 8746   2.483   1.446   2.341 -0.2199  0.5124 -0.2294
   41GLOH   H04 8747   2.433   1.492   2.426 -1.0678 -2.1399  0.7691
   41GLOH    O2 8748   2.606   1.508   2.304 -0.3893 -0.4302  0.2124
   41GLOH   H05 8749   2.617   1.599   2.335  0.9139 -0.8718  1.1167
   41GLOH    C3 8750   2.391   1.436   2.213  0.0154  0.2755 -0.0162
   41GLOH   H06 8751   2.310   1.365   2.229  3.0600 -3.5273 -0.4981
   41GLOH   H07 8752   2.454   1.411   2.128 -3.0176  3.6195 -3.3785
   41GLOH    O3 8753   2.334   1.566   2.181  0.1300 -0.1585  0.2736
   41GLOH   H01 8754   2.334   1.612   2.267 -0.2895  2.8617 -1.2723
   42GLOH   H03 8755   3.715   4.035   1.666  0.1973  1.1244 -0.6672
   42GLOH    O1 8756   3.787   4.041   1.732 -0.2722  0.5964 -0.0952
   42GLOH    C1 8757   3.728   4.095   1.853 -0.4190 -0.1860  0.3379
   42GLOH   H02 8758   3.748   4.032   1.939 -1.2784 -0.9631 -0.0299
   42GLOH   H08 8759   3.621   4.113   1.847 -0.3996 -0.2513 -0.2871
   42GLOH    C2 8760   3.791   4.232   1.900  0.6752 -1.3491  0.0397
   42GLOH   H04 8761   3.760   4.300   1.820  1.0810 -0.1939  0.8485
   42GLOH    O2 8762   3.737   4.283   2.024 -0.3079  0.3257 -0.7005
   42GLOH   H05 8763   3.815   4.312   2.074  1.0291 -1.0723 -1.9295
   42GLOH    C3 8764   3.944   4.215   1.898 -0.0490 -0.0038 -0.8176
   42GLOH   H06 8765   3.985   4.137   1.962  2.4148 -0.2216 -2.6273
   42GLOH   H07 8766   3.984   4.312   1.929 -2.9260  1.5669 -1.7773
   42GLOH    O3 8767   3.993   4.187   1.766 -0.3733 -0.3862  0.1538
   42GLOH   H01 8768   3.938   4.114   1.730  0.3288 -0.5696 -0.5452
   43GLOH   H03 8769   3.163   9.984   1.390 -2.8436 -0.8143 -0.5167
   43GLOH    O1 8770   3.196   9.896   1.363 -0.1175 -0.0503  0.1420
   43GLOH    C1 8771   3.202   9.884   1.222 -0.4468  0.2032 -0.3170
   43GLOH   H02 8772   3.256   9.965   1.172 -0.3048 -0.1380 -0.7212
   43GLOH   H08 8773   3.102   9.886   1.179 -0.3001  0.1411 -0.6674
   43GLOH    C2 8774   3.268   9.752   1.182  0.5522 -0.0057 -0.6145
   43GLOH   H04 8775   3.218   9.674   1.242  0.7526 -0.3535 -0.8985
   43GLOH    O2 8776   3.257   9.725   1.045 -0.4869 -0.3991 -0.2103
   43GLOH   H05 8777   3.171   9.716   1.002  1.4459 -1.4042 -4.1740
   43GLOH    C3 8778   3.415   9.751   1.228  0.1096 -0.3136  0.6021
   43GLOH   H06 8779   3.475   9.829   1.181 -1.2345  0.3923  0.0349
   43GLOH   H07 8780   3.453   9.657   1.186  1.9856  0.1331  1.2364
   43GLOH    O3 8781   3.434   9.753   1.367  0.5235 -0.4307 -0.6638
   43GLOH   H01 8782   3.375   9.825   1.398  2.0539  0.2846  0.6414
   44GLOH   H03 8783   4.560   3.737   1.567 -0.5589  2.0198 -0.5788
   44GLOH    O1 8784   4.645   3.785   1.570  0.1888  0.6952 -0.3926
   44GLOH    C1 8785   4.628   3.894   1.662 -0.4519 -0.1216 -0.3606
   44GLOH   H02 8786   4.635   3.858   1.764  1.6203  3.2944  0.7909
   44GLOH   H08 8787   4.535   3.948   1.645  0.6319  1.9658  0.0915
   44GLOH    C2 8788   4.739   4.001   1.637 -0.2185  0.4347 -0.5021
   44GLOH   H04 8789   4.739   4.031   1.531  1.6231  1.9505 -0.0937
   44GLOH    O2 8790   4.704   4.117   1.718  0.7067  0.0408  0.1570
   44GLOH   H05 8791   4.619   4.158   1.697  0.5812 -0.6374 -0.6778
   44GLOH    C3 8792   4.881   3.945   1.677 -0.1652  0.6466 -0.0192
   44GLOH   H06 8793   4.888   3.947   1.786  0.9181 -1.9721  0.0067
   44GLOH   H07 8794   4.961   4.011   1.644 -1.0639  1.8572  0.2091
   44GLOH    O3 8795   4.901   3.810   1.625  0.0914 -0.1119  0.4638
   44GLOH   H01 8796   4.812   3.785   1.594 -0.5253  1.9681  0.5342
   45GLOH   H03 8797   4.160   1.633   1.730 -0.4002 -0.6539 -1.1809
   45GLOH    O1 8798   4.164   1.541   1.762  0.2875 -0.1566  0.1955
   45GLOH    C1 8799   4.060   1.458   1.702 -0.0608 -0.0276  0.1715
   45GLOH   H02 8800   4.060   1.469   1.594 -0.7953 -1.4168  0.0125
   45GLOH   H08 8801   3.967   1.499   1.742  0.2048 -0.1539  0.9281
   45GLOH    C2 8802   4.069   1.311   1.732 -0.0246 -0.0812  0.5662
   45GLOH   H04 8803   4.074   1.298   1.841 -0.9265 -0.4093  0.5730
   45GLOH    O2 8804   3.954   1.236   1.678 -0.2668  0.0573 -0.4513
   45GLOH   H05 8805   3.927   1.177   1.750 -0.6729 -0.3568 -0.9414
   45GLOH    C3 8806   4.202   1.246   1.679  0.0409  0.9574  0.3645
   45GLOH   H06 8807   4.207   1.138   1.693 -0.5049  0.7296 -1.1045
   45GLOH   H07 8808   4.289   1.287   1.730  0.0877 -0.3566  1.3605
   45GLOH    O3 8809   4.218   1.255   1.535  0.3865  0.5036 -0.5387
   45GLOH   H01 8810   4.129   1.255   1.494 -0.2484  0.9082  0.7983
   46GLOH   H03 8811   3.763   0.404   2.110  0.3733  1.3021 -0.2888
   46GLOH    O1 8812   3.676   0.428   2.147  0.0416 -0.0812 -0.1647
   46GLOH    C1 8813   3.671   0.572   2.128  0.4181  0.5145 -0.2866
   46GLOH   H02 8814   3.734   0.603   2.045 -1.2494  2.3437 -0.9115
   46GLOH   H08 8815   3.715   0.619   2.217 -1.4780  1.3924  0.2178
   46GLOH    C2 8816   3.527   0.631   2.123 -0.0453 -0.2205 -0.3287
   46GLOH   H04 8817   3.463   0.611   2.210 -0.6765 -0.1408 -0.7734
   46GLOH    O2 8818   3.542   0.775   2.104 -0.2811 -0.0535 -0.2460
   46GLOH   H05 8819   3.611   0.803   2.166 -2.7070  1.5884  1.8245
   46GLOH    C3 8820   3.463   0.565   1.997 -0.1811  0.0294 -0.0847
   46GLOH   H06 8821   3.506   0.466   1.980  1.2738  0.7267 -0.5935
   46GLOH   H07 8822   3.508   0.622   1.915  1.1581  0.7870  1.1504
   46GLOH    O3 8823   3.323   0.572   1.995 -0.3567 -0.1854 -0.8992
   46GLOH   H01 8824   3.301   0.477   2.002 -1.0293  0.1524  2.0611
   47GLOH   H03 8825   3.655   9.367   1.174 -2.2421 -2.5098 -0.0394
   47GLOH    O1 8826   3.703   9.318   1.243 -0.3684 -0.4386  0.1571
   47GLOH    C1 8827   3.734   9.194   1.181  0.3950  0.2749 -0.4178
   47GLOH   H02 8828   3.797   9.209   1.094  0.7053 -4.2176 -1.0675
   47GLOH   H08 8829   3.642   9.144   1.151 -1.0221  1.5772  1.5817
   47GLOH    C2 8830   3.805   9.095   1.278 -0.3674 -0.4644 -0.7337
   47GLOH   H04 8831   3.722   9.069   1.345  1.1366 -0.9927  0.9690
   47GLOH    O2 8832   3.833   8.976   1.203  0.0620 -0.1692 -0.1498
   47GLOH   H05 8833   3.753   8.945   1.158  0.2177 -0.3854 -0.2768
   47GLOH    C3 8834   3.926   9.148   1.360  0.3387 -0.3586  0.2223
   47GLOH   H06 8835   4.011   9.167   1.294  0.3525 -0.4866  0.2025
   47GLOH   H07 8836   3.939   9.059   1.422 -0.9297 -2.8635 -2.9527
   47GLOH    O3 8837   3.887   9.259   1.440  0.3160  0.0692 -0.2164
   47GLOH   H01 8838   3.795   9.281   1.419  0.6775  0.4115 -1.4755
   48GLOH   H03 8839   3.524   9.230   0.479  1.1955 -0.2805  0.9245
   48GLOH    O1 8840   3.469   9.204   0.555  0.0491  0.6030  0.4192
   48GLOH    C1 8841   3.526   9.281   0.665 -0.2813  0.3856  0.1918
   48GLOH   H02 8842   3.621   9.234   0.691 -0.2829 -1.0956 -2.3545
   48GLOH   H08 8843   3.456   9.282   0.749 -1.4800 -0.5998 -0.7858
   48GLOH    C2 8844   3.551   9.428   0.619  0.1108 -0.4523  0.3702
   48GLOH   H04 8845   3.459   9.465   0.571 -0.1503 -0.7308  0.6478
   48GLOH    O2 8846   3.574   9.518   0.729 -0.5347 -0.1183 -0.2405
   48GLOH   H05 8847   3.563   9.611   0.701  2.1002  0.7025  1.2118
   48GLOH    C3 8848   3.664   9.428   0.519 -0.1814 -0.1211  0.5151
   48GLOH   H06 8849   3.744   9.368   0.563  1.3388  0.0350 -1.9020
   48GLOH   H07 8850   3.695   9.531   0.501 -1.6278  0.5315  1.6700
   48GLOH    O3 8851   3.615   9.360   0.400  0.4033 -0.4324  0.3755
   48GLOH   H01 8852   3.670   9.390   0.325  0.2742  2.5759  1.4119
   49GLOH   H03 8853   3.960   4.116   0.424 -1.7976  1.2364  0.1084
   49GLOH    O1 8854   3.941   4.106   0.519  0.2654  0.3647  0.4477
   49GLOH    C1 8855   4.040   4.176   0.593  0.2984 -0.2215 -0.7042
   49GLOH   H02 8856   4.012   4.184   0.698 -0.2682 -3.0445 -0.5973
   49GLOH   H08 8857   4.037   4.281   0.565  1.3612  0.6762  2.3092
   49GLOH    C2 8858   4.191   4.134   0.592 -0.2729  0.1945 -0.6907
   49GLOH   H04 8859   4.188   4.027   0.616  0.2134  0.3399  0.0263
   49GLOH    O2 8860   4.243   4.145   0.459 -0.3636  0.2468 -0.1102
   49GLOH   H05 8861   4.340   4.136   0.457 -0.5817 -2.2029 -1.5914
   49GLOH    C3 8862   4.268   4.192   0.703 -0.6532 -0.1522  0.1710
   49GLOH   H06 8863   4.247   4.299   0.700  0.1696 -0.0095 -1.0589
   49GLOH   H07 8864   4.375   4.176   0.689 -0.5069 -1.8685  2.8054
   49GLOH    O3 8865   4.220   4.148   0.832 -0.0827 -0.0742  0.2679
   49GLOH   H01 8866   4.241   4.054   0.848 -0.8195 -0.3426 -0.3349
   50GLOH   H03 8867   3.281   2.716   1.186  1.0381  1.0418  2.4049
   50GLOH    O1 8868   3.335   2.640   1.215  0.1978 -0.2026  0.7771
   50GLOH    C1 8869   3.404   2.673   1.334 -0.6028 -0.0599 -0.0239
   50GLOH   H02 8870   3.342   2.718   1.412 -1.4554  0.0226 -0.7477
   50GLOH   H08 8871   3.481   2.745   1.306 -1.3889 -0.0325 -2.1971
   50GLOH    C2 8872   3.472   2.556   1.407 -0.2469  0.1857 -0.1696
   50GLOH   H04 8873   3.517   2.498   1.325 -0.2429  0.4164 -0.3321
   50GLOH    O2 8874   3.567   2.618   1.503 -0.5494 -0.2751  0.3634
   50GLOH   H05 8875   3.637   2.658   1.449  2.4699 -1.7746  2.9747
   50GLOH    C3 8876   3.358   2.473   1.472  0.6913  1.0326  0.7512
   50GLOH   H06 8877   3.303   2.531   1.546 -3.6863 -2.7324  0.6596
   50GLOH   H07 8878   3.403   2.392   1.529  0.7510  1.1384  0.8545
   50GLOH    O3 8879   3.275   2.420   1.361  0.1446 -0.5287  0.7194
   50GLOH   H01 8880   3.294   2.473   1.282 -1.1583  2.3840  2.2731
   51GLOH   H03 8881   2.960   1.560   1.566 -1.5593 -2.9183  4.2313
   51GLOH    O1 8882   2.876   1.610   1.574 -0.3155  0.1694 -0.1259
   51GLOH    C1 8883   2.784   1.527   1.506  0.3394  0.1352 -0.1540
   51GLOH   H02 8884   2.696   1.506   1.567  0.4174 -2.2408 -0.7803
   51GLOH   H08 8885   2.839   1.436   1.480 -0.3096 -0.1867 -0.4306
   51GLOH    C2 8886   2.721   1.577   1.370 -0.8224 -0.0101  0.6680
   51GLOH   H04 8887   2.797   1.608   1.297 -0.1141 -3.3006 -0.0758
   51GLOH    O2 8888   2.630   1.479   1.311 -0.1192  0.4850 -0.0304
   51GLOH   H05 8889   2.568   1.542   1.272 -1.1533  1.9788  3.7311
   51GLOH    C3 8890   2.649   1.711   1.401  0.0651 -0.6715  0.2955
   51GLOH   H06 8891   2.556   1.693   1.454 -0.3956 -0.6608 -0.5009
   51GLOH   H07 8892   2.616   1.756   1.307 -0.5594 -0.7013  0.4990
   51GLOH    O3 8893   2.736   1.801   1.469 -0.0246 -0.2137 -0.9458
   51GLOH   H01 8894   2.788   1.750   1.535 -1.7947  2.3192  2.5958
   52GLOH   H03 8895   3.678   1.762   0.245  0.0920  0.2687 -0.5808
   52GLOH    O1 8896   3.594   1.715   0.233 -0.0874  0.3960  0.1903
   52GLOH    C1 8897   3.488   1.812   0.230 -0.9015 -0.1317  0.2699
   52GLOH   H02 8898   3.472   1.858   0.327 -2.2632  0.3925 -0.1887
   52GLOH   H08 8899   3.397   1.760   0.200 -0.2394 -0.8382 -0.5143
   52GLOH    C2 8900   3.516   1.917   0.117  0.3383  0.0388 -0.0702
   52GLOH   H04 8901   3.503   1.861   0.023  0.4504  2.3564 -1.5070
   52GLOH    O2 8902   3.416   2.017   0.125 -0.4315 -0.0430  0.2724
   52GLOH   H05 8903   3.423   2.067   0.042  0.7846  0.7696  0.8371
   52GLOH    C3 8904   3.656   1.979   0.122 -0.0369 -0.0512 -0.5357
   52GLOH   H06 8905   3.656   2.049   0.206 -0.4823 -1.2103  0.4524
   52GLOH   H07 8906   3.655   2.036   0.029 -1.8991  1.2484  0.2553
   52GLOH    O3 8907   3.774   1.889   0.139 -0.3796 -0.6480 -0.2047
   52GLOH   H01 8908   3.851   1.947   0.155 -1.5660  0.5716  1.1256
   53GLOH   H03 8909   3.393   3.386   2.358  0.5099 -0.2982 -0.1691
   53GLOH    O1 8910   3.352   3.405   2.445  0.2833  0.4406 -0.4365
   53GLOH    C1 8911   3.457   3.403   2.541  0.0543  0.0457 -0.6168
   53GLOH   H02 8912   3.429   3.439   2.640  1.3463 -0.2682 -0.1373
   53GLOH   H08 8913   3.539   3.466   2.508  0.3628  0.3355  0.6642
   53GLOH    C2 8914   3.521   3.270   2.570 -0.5963  0.1464  0.3629
   53GLOH   H04 8915   3.544   3.220   2.475 -0.0484 -1.3460  1.2616
   53GLOH    O2 8916   3.639   3.284   2.650 -0.3468  0.2146 -0.0264
   53GLOH   H05 8917   3.625   3.256   2.742 -3.8907  1.1613 -0.2248
   53GLOH    C3 8918   3.416   3.185   2.653  0.5799 -0.3621  0.1153
   53GLOH   H06 8919   3.323   3.180   2.595 -0.9057  2.1237  2.1463
   53GLOH   H07 8920   3.391   3.224   2.751 -2.4952  0.3684 -0.8924
   53GLOH    O3 8921   3.449   3.047   2.667  0.2528  0.0030  0.1172
   53GLOH   H01 8922   3.399   3.000   2.737  1.0966  0.6487  1.1705
   54GLOH   H03 8923   3.502   3.141   2.279 -0.8718  1.0340  1.2916
   54GLOH    O1 8924   3.464   3.055   2.303 -0.2594  0.5046  0.3829
   54GLOH    C1 8925   3.326   3.082   2.295  0.4554  0.5358  0.1923
   54GLOH   H02 8926   3.297   3.074   2.190 -0.2096 -1.3366  0.4885
   54GLOH   H08 8927   3.302   3.180   2.336 -1.7177 -0.8112  2.2863
   54GLOH    C2 8928   3.237   2.980   2.369  0.6491 -0.2943 -0.5049
   54GLOH   H04 8929   3.251   3.011   2.474 -2.6725  3.8462 -1.1042
   54GLOH    O2 8930   3.095   2.994   2.341  0.6145  0.0688 -0.6571
   54GLOH   H05 8931   3.055   3.076   2.375  0.2355 -0.6305  0.6292
   54GLOH    C3 8932   3.285   2.835   2.348  0.0409 -0.5045 -0.2669
   54GLOH   H06 8933   3.270   2.809   2.244  0.5218  0.5049 -0.5982
   54GLOH   H07 8934   3.220   2.765   2.400 -2.5110  1.1572 -1.1201
   54GLOH    O3 8935   3.422   2.812   2.384 -0.4429  0.8193  0.1795
   54GLOH   H01 8936   3.471   2.893   2.362  2.2358 -0.5564  0.8822
   55GLOH   H03 8937   4.136   2.618   0.514  1.7448 -0.2938 -0.4333
   55GLOH    O1 8938   4.102   2.634   0.424 -0.0327  0.2855  0.3182
   55GLOH    C1 8939   4.017   2.528   0.386  0.1038 -0.1011  0.1461
   55GLOH   H02 8940   3.916   2.569   0.392 -0.3081 -1.1790  0.7365
   55GLOH   H08 8941   4.021   2.442   0.453 -2.3168 -0.0029  0.4965
   55GLOH    C2 8942   4.042   2.474   0.242  0.1988 -0.5449 -0.3330
   55GLOH   H04 8943   4.144   2.434   0.245 -0.1771 -1.4694  0.3940
   55GLOH    O2 8944   3.951   2.367   0.219  0.0249 -0.0247 -0.3686
   55GLOH   H05 8945   3.983   2.293   0.273  0.9425  0.8613  0.3161
   55GLOH    C3 8946   4.046   2.581   0.131 -0.3537 -0.0331 -0.2502
   55GLOH   H06 8947   4.049   2.538   0.032  0.5320 -0.7108  0.0696
   55GLOH   H07 8948   4.134   2.642   0.152 -1.0764  0.3250  1.8817
   55GLOH    O3 8949   3.932   2.665   0.137  0.1109 -0.1572  0.2271
   55GLOH   H01 8950   3.851   2.616   0.161 -0.5280  0.5713 -0.4034
   56GLOH   H03 8951   4.140   3.039   0.932  0.2985  1.4113  0.0946
   56GLOH    O1 8952   4.236   3.024   0.923  0.0571 -0.0305 -0.0725
   56GLOH    C1 8953   4.267   2.947   0.803  0.2312 -0.0409 -0.1162
   56GLOH   H02 8954   4.277   2.840   0.821  3.8598  0.2745  0.1943
   56GLOH   H08 8955   4.366   2.976   0.769  1.5891 -0.8772  2.9064
   56GLOH    C2 8956   4.176   2.950   0.679 -0.5104  0.8266  0.0657
   56GLOH   H04 8957   4.201   2.865   0.614 -0.1014  1.3139 -0.4154
   56GLOH    O2 8958   4.038   2.928   0.713 -0.2834  0.6019  0.2550
   56GLOH   H05 8959   4.007   2.991   0.780 -1.9032  1.0056 -0.8509
   56GLOH    C3 8960   4.197   3.081   0.590 -0.2149  0.0513 -0.6076
   56GLOH   H06 8961   4.195   3.055   0.485  1.8935  0.4706 -0.7892
   56GLOH   H07 8962   4.299   3.114   0.610  0.5993 -3.3734  1.4165
   56GLOH    O3 8963   4.111   3.191   0.629  0.3265 -0.1472  0.1944
   56GLOH   H01 8964   4.096   3.244   0.549 -1.8350  1.1971  1.4292
   57GLOH   H03 8965   3.138   8.732   2.636  0.1143  1.5713  2.0971
   57GLOH    O1 8966   3.225   8.765   2.608  0.3343 -0.4759  0.2127
   57GLOH    C1 8967   3.244   8.758   2.462 -0.3583 -0.3568  0.4940
   57GLOH   H02 8968   3.195   8.667   2.427 -1.2850  0.2061  0.3149
   57GLOH   H08 8969   3.346   8.763   2.424  0.0384  0.3143  1.6095
   57GLOH    C2 8970   3.183   8.882   2.389  0.4185 -0.3824  0.3489
   57GLOH   H04 8971   3.083   8.900   2.430  1.1913  1.3295  1.5907
   57GLOH    O2 8972   3.252   9.000   2.429 -0.9566 -0.5853  0.5362
   57GLOH   H05 8973   3.225   9.025   2.519 -0.9729 -0.2888  0.4475
   57GLOH    C3 8974   3.176   8.875   2.236  0.3243  0.2964 -0.8204
   57GLOH   H06 8975   3.129   8.782   2.207 -0.5166  0.5570 -0.3175
   57GLOH   H07 8976   3.272   8.878   2.184 -0.1256 -0.7253 -1.7173
   57GLOH    O3 8977   3.090   8.973   2.181 -0.0920  0.0647  0.1291
   57GLOH   H01 8978   3.127   8.997   2.094  0.6586  1.9678  0.9480
   58GLOH   H03 8979   4.276   2.954   1.490 -1.1222  0.0328  2.0100
   58GLOH    O1 8980   4.214   2.890   1.450 -0.2211  0.5209 -0.2460
   58GLOH    C1 8981   4.233   2.884   1.306 -0.0986 -0.0840  0.4478
   58GLOH   H02 8982   4.212   2.984   1.270 -1.0915  0.7706  3.2884
   58GLOH   H08 8983   4.166   2.820   1.248  0.6686 -2.4466  2.0777
   58GLOH    C2 8984   4.378   2.842   1.271 -0.2220  0.3518  0.1336
   58GLOH   H04 8985   4.442   2.912   1.328 -1.0441  0.6693  0.6851
   58GLOH    O2 8986   4.401   2.712   1.324 -0.3026  0.1545  0.2568
   58GLOH   H05 8987   4.356   2.648   1.266  0.9813  0.6050 -1.2772
   58GLOH    C3 8988   4.413   2.845   1.124  0.4523  0.0586  0.4539
   58GLOH   H06 8989   4.334   2.793   1.069  0.7327  0.1599 -0.0496
   58GLOH   H07 8990   4.496   2.775   1.111 -0.2785 -1.3322  2.8351
   58GLOH    O3 8991   4.436   2.968   1.065  0.1439 -0.3144 -0.0006
   58GLOH   H01 8992   4.365   2.983   1.000 -0.2285 -2.6267 -0.1626
   59GLOH   H03 8993   3.866   2.080   2.304 -1.4036  0.7771 -0.4607
   59GLOH    O1 8994   3.898   2.108   2.217  0.6823 -0.3329 -0.0817
   59GLOH    C1 8995   4.046   2.113   2.211 -0.2711 -0.1500 -0.0954
   59GLOH   H02 8996   4.074   2.185   2.288 -1.2813 -0.5338  0.6329
   59GLOH   H08 8997   4.097   2.152   2.122  1.8809 -1.9636  0.3056
   59GLOH    C2 8998   4.124   1.984   2.248 -0.1197  0.1732  0.7385
   59GLOH   H04 8999   4.094   1.973   2.354  0.4416  0.1042  0.8922
   59GLOH    O2 9000   4.086   1.871   2.170 -0.0595  0.5615  0.3570
   59GLOH   H05 9001   4.045   1.902   2.088 -1.0104 -0.2966  0.4980
   59GLOH    C3 9002   4.277   2.014   2.246 -0.5974  0.7462 -0.3438
   59GLOH   H06 9003   4.326   1.917   2.255 -1.7938  0.4770  4.9399
   59GLOH   H07 9004   4.303   2.070   2.336 -0.0699  0.1715 -0.1366
   59GLOH    O3 9005   4.319   2.090   2.132 -0.3794  1.0160  0.2108
   59GLOH   H01 9006   4.284   2.180   2.146  1.7708  1.6433  1.6647
   60GLOH   H03 9007   3.457   3.294   1.234 -0.4706  0.1231  0.1982
   60GLOH    O1 9008   3.406   3.352   1.294 -0.2596  0.1383  0.3602
   60GLOH    C1 9009   3.359   3.271   1.407  0.9333 -0.6692  0.3701
   60GLOH   H02 9010   3.264   3.225   1.377  1.2081  0.1388 -1.7755
   60GLOH   H08 9011   3.335   3.342   1.486  0.3775 -0.6425  0.1827
   60GLOH    C2 9012   3.443   3.157   1.460 -0.6549  0.2002  0.4121
   60GLOH   H04 9013   3.537   3.205   1.491  0.1713  0.1584 -1.9213
   60GLOH    O2 9014   3.377   3.090   1.567 -0.2757  0.6044  0.3919
   60GLOH   H05 9015   3.379   3.143   1.648 -0.5723 -0.3442  1.0407
   60GLOH    C3 9016   3.457   3.056   1.339  0.0362 -0.1594  0.4333
   60GLOH   H06 9017   3.353   3.025   1.323  0.3895 -1.9998  1.6385
   60GLOH   H07 9018   3.506   2.968   1.379 -1.5810 -0.6781  1.3263
   60GLOH    O3 9019   3.530   3.114   1.227 -0.1494  0.2182 -0.5734
   60GLOH   H01 9020   3.514   3.055   1.151 -1.3926  0.1369 -0.2624
   61GLOH   H03 9021   3.619   9.801   0.313 -0.0467 -0.0898  0.0107
   61GLOH    O1 9022   3.559   9.768   0.243  0.0371 -0.1038 -0.0540
   61GLOH    C1 9023   3.438   9.850   0.263  0.2337  0.1711  0.6488
   61GLOH   H02 9024   3.460   9.956   0.275  1.5116  0.0012 -0.1647
   61GLOH   H08 9025   3.384   9.818   0.353 -0.0194 -0.0766  0.4097
   61GLOH    C2 9026   3.334   9.833   0.149 -0.3282  0.3277 -0.1956
   61GLOH   H04 9027   3.285   9.735   0.145  0.5173 -0.0904 -0.3881
   61GLOH    O2 9028   3.242   9.940   0.180 -0.7384 -0.0897  0.7201
   61GLOH   H05 9029   3.222   9.997   0.103  0.0301  0.6435  1.0533
   61GLOH    C3 9030   3.411   9.862   0.013 -0.0584 -0.1713 -0.8447
   61GLOH   H06 9031   3.469   9.953   0.030 -2.2511  1.2055 -0.4488
   61GLOH   H07 9032   3.337   9.887  -0.064  0.8545  0.9723 -1.3690
   61GLOH    O3 9033   3.502   9.754  -0.015  0.3125 -0.0867  0.2868
   61GLOH   H01 9034   3.541   9.732   0.072  1.9903  0.3331 -0.3307
   62GLOH   H03 9035   4.140   4.137   1.801  0.4507  0.5706 -1.7503
   62GLOH    O1 9036   4.223   4.088   1.786  0.3589 -0.0146 -0.4191
   62GLOH    C1 9037   4.175   3.948   1.767 -0.3498  0.1971  0.1069
   62GLOH   H02 9038   4.067   3.950   1.783 -0.3818  1.0809 -0.1479
   62GLOH   H08 9039   4.220   3.889   1.846 -2.4572 -0.7374  0.6513
   62GLOH    C2 9040   4.206   3.894   1.623  0.7119 -0.1259  0.1292
   62GLOH   H04 9041   4.314   3.909   1.606  0.3730  1.6020 -0.5321
   62GLOH    O2 9042   4.180   3.754   1.622 -0.8875  0.2445 -0.4855
   62GLOH   H05 9043   4.084   3.739   1.616 -0.6626 -0.7001 -1.8706
   62GLOH    C3 9044   4.131   3.985   1.521 -0.8575  0.3977  0.0047
   62GLOH   H06 9045   4.159   3.949   1.423 -0.1316 -0.6031  0.5722
   62GLOH   H07 9046   4.173   4.085   1.531  0.2565 -0.0325 -0.3295
   62GLOH    O3 9047   3.992   3.983   1.547 -0.1093 -0.2384  0.5147
   62GLOH   H01 9048   3.956   3.917   1.485 -1.9646  0.2165  1.0722
   63GLOH   H03 9049   4.149   0.580   1.620 -1.6207 -0.1166  1.6761
   63GLOH    O1 9050   4.100   0.500   1.596 -0.1568 -0.3109 -0.8637
   63GLOH    C1 9051   3.992   0.495   1.695 -0.4593  0.5169  0.1892
   63GLOH   H02 9052   4.026   0.447   1.787 -0.3983 -0.1542 -0.1751
   63GLOH   H08 9053   3.911   0.429   1.663  0.1061  0.2917 -0.8032
   63GLOH    C2 9054   3.929   0.637   1.724  0.2496  0.7224 -0.3717
   63GLOH   H04 9055   3.884   0.671   1.630  1.2415  0.4181 -0.9708
   63GLOH    O2 9056   3.826   0.628   1.824  0.0044  0.4442 -0.1325
   63GLOH   H05 9057   3.757   0.568   1.792 -1.0432  1.5035  0.1374
   63GLOH    C3 9058   4.039   0.741   1.762  0.0979  0.1445  0.1644
   63GLOH   H06 9059   4.092   0.700   1.847 -4.7075 -1.6950  2.4401
   63GLOH   H07 9060   3.991   0.828   1.805  0.2066 -0.1232  0.8230
   63GLOH    O3 9061   4.126   0.776   1.648  0.1835  0.0265  0.0382
   63GLOH   H01 9062   4.072   0.840   1.598  1.1322 -1.3461 -2.8315
   64GLOH   H03 9063   4.052   3.062   2.464 -0.6973  0.4351 -0.6593
   64GLOH    O1 9064   4.126   3.015   2.421  0.1780  0.1507  1.1009
   64GLOH    C1 9065   4.120   2.876   2.462  0.5298 -0.3748  0.4886
   64GLOH   H02 9066   4.101   2.810   2.377 -0.2174  1.2471 -0.6370
   64GLOH   H08 9067   4.036   2.847   2.525 -1.4860 -0.0274 -1.9670
   64GLOH    C2 9068   4.253   2.827   2.529 -0.2855  1.1789 -0.0375
   64GLOH   H04 9069   4.322   2.837   2.443 -2.2899  2.0751 -1.5900
   64GLOH    O2 9070   4.287   2.893   2.652 -0.4707  0.8583  0.5489
   64GLOH   H05 9071   4.213   2.921   2.709 -0.7522 -0.8341  1.0498
   64GLOH    C3 9072   4.243   2.673   2.544  0.8172 -0.6739  0.4990
   64GLOH   H06 9073   4.159   2.659   2.612 -0.8297  0.6891 -1.1867
   64GLOH   H07 9074   4.333   2.641   2.595  1.7363 -0.2547 -0.8026
   64GLOH    O3 9075   4.230   2.607   2.416  0.0549  0.1077 -0.5776
   64GLOH   H01 9076   4.312   2.622   2.365 -0.3649  1.1253 -0.9755
   65GLOH   H03 9077   2.770   8.836   0.482 -0.9522 -0.6550  1.1422
   65GLOH    O1 9078   2.822   8.868   0.558 -0.1026 -0.0986  0.3387
   65GLOH    C1 9079   2.938   8.793   0.568  0.3625  0.5367  0.0169
   65GLOH   H02 9080   2.934   8.719   0.488 -2.2857  0.4465  0.2025
   65GLOH   H08 9081   2.940   8.738   0.662  0.0252  0.4475 -0.0263
   65GLOH    C2 9082   3.066   8.879   0.547 -0.2744 -0.0769 -0.3145
   65GLOH   H04 9083   3.044   8.961   0.478 -1.1811  0.6786  0.8381
   65GLOH    O2 9084   3.097   8.946   0.677 -0.1116  0.0544  0.0935
   65GLOH   H05 9085   3.115   9.039   0.655 -2.6242  0.4551 -0.4565
   65GLOH    C3 9086   3.181   8.791   0.495 -0.3964 -0.1395  0.4449
   65GLOH   H06 9087   3.221   8.731   0.577  2.6024  1.4344  0.2145
   65GLOH   H07 9088   3.261   8.863   0.478  0.4627 -0.5104  2.6430
   65GLOH    O3 9089   3.163   8.711   0.373  0.0767  0.1510 -0.3419
   65GLOH   H01 9090   3.143   8.770   0.298  0.3289  0.7201  0.0370
   66GLOH   H03 9091   3.666   0.200  -0.052  0.9181  0.7703  0.3775
   66GLOH    O1 9092   3.613   0.167   0.024  0.5937  0.4313  0.0072
   66GLOH    C1 9093   3.711   0.161   0.133  0.5077 -0.3908  0.4448
   66GLOH   H02 9094   3.808   0.199   0.102  0.2734 -0.6087 -0.5956
   66GLOH   H08 9095   3.724   0.060   0.170  2.1777 -1.4010 -2.7463
   66GLOH    C2 9096   3.658   0.244   0.255 -0.4333 -0.0996 -0.1126
   66GLOH   H04 9097   3.553   0.270   0.232 -0.1982  0.8662 -0.1178
   66GLOH    O2 9098   3.673   0.168   0.371  0.2560 -0.3027 -0.0380
   66GLOH   H05 9099   3.668   0.224   0.450 -0.4374  0.7552 -0.8200
   66GLOH    C3 9100   3.731   0.382   0.270 -0.2144 -0.0178  0.1684
   66GLOH   H06 9101   3.829   0.360   0.313 -1.1571 -2.3176  1.2367
   66GLOH   H07 9102   3.683   0.442   0.346  0.5360 -0.6074  1.1153
   66GLOH    O3 9103   3.731   0.462   0.151  0.5298 -0.6237 -0.0621
   66GLOH   H01 9104   3.641   0.454   0.113  0.5658 -0.2988 -0.2247
   67GLOH   H03 9105   4.247   1.791   1.578  0.4180 -0.7580  0.6045
   67GLOH    O1 9106   4.185   1.771   1.651 -0.5508  0.2560  0.0716
   67GLOH    C1 9107   4.161   1.883   1.731  0.1371  0.4388 -0.5865
   67GLOH   H02 9108   4.134   1.966   1.666 -1.4231 -0.5931 -1.2718
   67GLOH   H08 9109   4.247   1.919   1.789  0.9379 -1.6643 -0.4436
   67GLOH    C2 9110   4.046   1.870   1.826  0.0814 -0.2446 -0.2946
   67GLOH   H04 9111   4.074   1.779   1.883 -0.3571 -0.7508 -0.8871
   67GLOH    O2 9112   4.049   1.977   1.924  0.1826 -0.3633  0.5458
   67GLOH   H05 9113   4.055   2.061   1.877 -2.4320 -0.1825  0.4698
   67GLOH    C3 9114   3.915   1.843   1.756  0.2165 -0.4464 -0.6288
   67GLOH   H06 9115   3.893   1.929   1.694 -2.5268  1.0231  2.2585
   67GLOH   H07 9116   3.837   1.832   1.831 -1.0458 -2.0292 -2.1214
   67GLOH    O3 9117   3.910   1.727   1.669  0.2130  0.2105  0.3999
   67GLOH   H01 9118   4.002   1.701   1.647 -0.4321 -0.8248 -1.1700
   68GLOH   H03 9119   4.310   3.319   1.451  1.5346 -1.3470  0.5535
   68GLOH    O1 9120   4.243   3.250   1.461 -0.2186  0.2181 -0.0385
   68GLOH    C1 9121   4.181   3.270   1.586  0.3079 -0.1889 -0.0093
   68GLOH   H02 9122   4.087   3.214   1.593  0.1220  0.1910  0.5845
   68GLOH   H08 9123   4.154   3.375   1.599 -1.4523 -0.6176 -0.0436
   68GLOH    C2 9124   4.269   3.235   1.703 -0.2727  0.4313  0.2418
   68GLOH   H04 9125   4.363   3.291   1.690 -1.7524  2.5703 -1.6198
   68GLOH    O2 9126   4.201   3.283   1.824 -0.2913  0.9340 -0.5331
   68GLOH   H05 9127   4.126   3.226   1.847 -0.0890  0.4483 -1.1051
   68GLOH    C3 9128   4.286   3.082   1.716 -0.0628  0.3101  0.5386
   68GLOH   H06 9129   4.186   3.040   1.700 -0.5973  2.0112 -0.7189
   68GLOH   H07 9130   4.321   3.056   1.816 -3.4341 -2.8977  1.0302
   68GLOH    O3 9131   4.371   3.014   1.623 -0.5092 -0.3003  0.4089
   68GLOH   H01 9132   4.463   3.038   1.644 -0.1223 -0.7155 -0.7428
   69GLOH   H03 9133   3.432   1.866   2.198 -0.1614 -0.0405 -0.7202
   69GLOH    O1 9134   3.498   1.932   2.170  0.3929 -0.3856 -0.2402
   69GLOH    C1 9135   3.630   1.876   2.133  0.6098 -0.0689  0.7683
   69GLOH   H02 9136   3.698   1.860   2.217 -1.6900  2.1042  3.1032
   69GLOH   H08 9137   3.685   1.940   2.063 -0.6407  0.2367  0.0644
   69GLOH    C2 9138   3.623   1.738   2.054  0.4901  0.1375 -0.3881
   69GLOH   H04 9139   3.569   1.671   2.123 -1.6941  1.4536 -0.7746
   69GLOH    O2 9140   3.564   1.754   1.925  0.4123 -0.1725  0.9319
   69GLOH   H05 9141   3.497   1.825   1.932  1.3852  0.6854  1.6860
   69GLOH    C3 9142   3.765   1.680   2.048  0.0516 -0.4092 -0.5840
   69GLOH   H06 9143   3.829   1.764   2.021 -0.1057  0.2595  1.1013
   69GLOH   H07 9144   3.768   1.594   1.980 -2.8223 -1.3746  0.4366
   69GLOH    O3 9145   3.807   1.633   2.168 -0.4575 -0.3238  0.6434
   69GLOH   H01 9146   3.904   1.620   2.171 -0.0465  2.7683  1.9381
   70GLOH   H03 9147   2.582   1.875   0.965 -1.0006  0.9653  0.4415
   70GLOH    O1 9148   2.561   1.784   0.992  0.0236  0.5538 -0.0864
   70GLOH    C1 9149   2.654   1.699   0.913  0.6928  0.6440  0.1614
   70GLOH   H02 9150   2.708   1.750   0.833 -1.6334 -0.3485 -2.0743
   70GLOH   H08 9151   2.607   1.611   0.871 -0.9403  1.4134  0.3325
   70GLOH    C2 9152   2.765   1.651   1.015 -0.3333  1.1104 -0.1922
   70GLOH   H04 9153   2.712   1.606   1.100 -0.8009  0.6138 -0.7393
   70GLOH    O2 9154   2.854   1.557   0.952 -0.1494  0.4037  0.1966
   70GLOH   H05 9155   2.812   1.472   0.931 -1.9019  1.0614  0.9860
   70GLOH    C3 9156   2.847   1.775   1.061  0.2195  0.1791  0.2893
   70GLOH   H06 9157   2.774   1.850   1.090  1.8239  1.4937  1.0284
   70GLOH   H07 9158   2.898   1.814   0.972 -1.5765 -1.2533 -1.4040
   70GLOH    O3 9159   2.935   1.741   1.162  0.0590 -0.0696  0.5393
   70GLOH   H01 9160   2.978   1.657   1.138 -1.3929 -0.7947  0.4046
   71GLOH   H03 9161   3.756   3.440   1.552  0.7960  3.2531  0.0250
   71GLOH    O1 9162   3.833   3.423   1.609  0.2596 -0.0693 -0.1397
   71GLOH    C1 9163   3.850   3.284   1.643  0.1466  0.2726 -0.1627
   71GLOH   H02 9164   3.933   3.267   1.711 -0.8544  1.1650  1.3088
   71GLOH   H08 9165   3.866   3.226   1.552  1.7951  0.1868  0.1703
   71GLOH    C2 9166   3.738   3.208   1.716 -0.3090  0.4153  0.0007
   71GLOH   H04 9167   3.676   3.179   1.629  1.8918 -0.4895 -1.3178
   71GLOH    O2 9168   3.783   3.088   1.774 -0.4607 -0.1507  0.0502
   71GLOH   H05 9169   3.716   3.046   1.832 -0.2657  1.8102  1.7381
   71GLOH    C3 9170   3.662   3.300   1.815 -0.2774 -0.2973  0.1756
   71GLOH   H06 9171   3.733   3.361   1.871  0.5519  0.4161 -1.6034
   71GLOH   H07 9172   3.621   3.235   1.893  0.7113 -2.4520 -1.0382
   71GLOH    O3 9173   3.559   3.383   1.762  0.5221 -0.1086  0.7884
   71GLOH   H01 9174   3.477   3.331   1.773  0.7944 -0.7414 -0.0701
   72GLOH   H03 9175   2.800   3.045   0.278  0.5680  0.2173 -0.3198
   72GLOH    O1 9176   2.788   3.026   0.183 -0.4264 -0.3814 -0.0745
   72GLOH    C1 9177   2.814   3.144   0.110 -1.1139  0.3838 -0.8906
   72GLOH   H02 9178   2.800   3.227   0.179  1.3606  0.2905 -0.1960
   72GLOH   H08 9179   2.748   3.148   0.024 -0.8950  0.6641 -1.0475
   72GLOH    C2 9180   2.964   3.161   0.062  0.2859  0.1284  0.1602
   72GLOH   H04 9181   2.990   3.070   0.006 -1.7423 -0.1470 -0.3666
   72GLOH    O2 9182   2.969   3.269  -0.028 -0.4368 -0.0906 -0.3585
   72GLOH   H05 9183   3.027   3.336   0.012 -1.1901  0.8918 -0.8764
   72GLOH    C3 9184   3.055   3.166   0.192 -0.1785 -0.2474 -0.5843
   72GLOH   H06 9185   3.157   3.135   0.172  0.8095  2.9816 -0.8837
   72GLOH   H07 9186   3.024   3.090   0.263  1.4775 -1.2226 -0.8696
   72GLOH    O3 9187   3.046   3.294   0.270  0.5202  0.3661 -0.1921
   72GLOH   H01 9188   3.066   3.365   0.206  0.4406 -1.2834 -2.1344
   73GLOH   H03 9189   3.623   2.460   2.869 -0.8287  0.3483 -0.6646
   73GLOH    O1 9190   3.595   2.368   2.884 -0.2139  0.2334 -0.2231
   73GLOH    C1 9191   3.459   2.350   2.850 -0.4269 -0.2036  0.4124
   73GLOH   H02 9192   3.397   2.421   2.904 -0.0929  0.3740  0.0450
   73GLOH   H08 9193   3.424   2.252   2.880  0.3485  0.4516  3.6120
   73GLOH    C2 9194   3.433   2.372   2.695 -0.0773 -0.6775  0.5987
   73GLOH   H04 9195   3.324   2.373   2.681 -0.1211  0.0441  0.9439
   73GLOH    O2 9196   3.470   2.505   2.659  0.6284  0.5147 -0.0034
   73GLOH   H05 9197   3.484   2.515   2.563  2.3655 -1.8016 -0.0269
   73GLOH    C3 9198   3.513   2.272   2.607 -0.0483 -0.4175  0.4855
   73GLOH   H06 9199   3.619   2.287   2.630  0.1329  0.2436 -0.7820
   73GLOH   H07 9200   3.507   2.301   2.503  0.5716  2.7672  1.2811
   73GLOH    O3 9201   3.470   2.137   2.618  0.5800 -0.0725  0.3904
   73GLOH   H01 9202   3.497   2.094   2.535 -3.0665  1.8828 -1.9025
   74GLOH   H03 9203   3.205   1.869   2.118 -0.7260 -1.2558 -0.4611
   74GLOH    O1 9204   3.157   1.924   2.053 -0.1971 -0.0336  0.1718
   74GLOH    C1 9205   3.115   1.843   1.942  0.8020  0.3317  0.5335
   74GLOH   H02 9206   3.205   1.810   1.889 -1.7647 -2.0116 -2.5358
   74GLOH   H08 9207   3.051   1.902   1.877  0.5539  0.6950  1.1126
   74GLOH    C2 9208   3.035   1.724   1.985  0.8240 -0.1358 -0.8376
   74GLOH   H04 9209   3.099   1.686   2.067 -0.2945  2.8685  1.4979
   74GLOH    O2 9210   2.909   1.765   2.038 -0.6599 -0.2118 -0.4571
   74GLOH   H05 9211   2.874   1.835   1.979 -1.8878 -2.4200 -2.4308
   74GLOH    C3 9212   3.017   1.624   1.867 -0.3321  0.1481 -0.0878
   74GLOH   H06 9213   2.983   1.680   1.780 -0.9069 -0.7560 -0.4558
   74GLOH   H07 9214   2.940   1.551   1.892 -0.5766  0.2147 -0.6261
   74GLOH    O3 9215   3.138   1.555   1.841 -1.1102  0.1104  0.2395
   74GLOH   H01 9216   3.192   1.534   1.920  0.5073  0.3399 -0.7776
   75GLOH   H03 9217   2.479   0.978   0.921 -2.6688  2.1061 -0.5950
   75GLOH    O1 9218   2.498   0.931   0.837  0.8919  0.2447  1.1079
   75GLOH    C1 9219   2.382   0.928   0.755 -0.1236  0.6034  0.0710
   75GLOH   H02 9220   2.338   1.024   0.730 -0.3969 -0.0452 -2.0360
   75GLOH   H08 9221   2.300   0.870   0.797  1.0328  1.0295  2.9913
   75GLOH    C2 9222   2.419   0.891   0.608 -0.2608 -0.2290  0.2064
   75GLOH   H04 9223   2.326   0.884   0.550  0.4278 -1.0914 -0.8055
   75GLOH    O2 9224   2.494   0.993   0.540  0.8263  0.3407  0.4254
   75GLOH   H05 9225   2.578   1.017   0.583 -0.5540  5.0489  0.8633
   75GLOH    C3 9226   2.507   0.764   0.601  0.0769  0.5896  0.0265
   75GLOH   H06 9227   2.608   0.781   0.640 -0.2054 -0.6498  1.3402
   75GLOH   H07 9228   2.506   0.734   0.496 -3.4218  0.7750 -0.0411
   75GLOH    O3 9229   2.446   0.661   0.677 -0.5398 -0.1553  0.0975
   75GLOH   H01 9230   2.452   0.574   0.633  0.1864  0.7584 -1.6498
   76GLOH   H03 9231   4.262   3.594   1.058  0.4096 -0.9305 -3.8296
   76GLOH    O1 9232   4.297   3.681   1.034  0.1089  0.4741  0.4337
   76GLOH    C1 9233   4.426   3.671   0.966  0.1357 -0.5987 -0.6663
   76GLOH   H02 9234   4.470   3.575   0.991  0.4720 -0.2375  0.1410
   76GLOH   H08 9235   4.493   3.750   1.000 -1.1587  0.9718 -1.6793
   76GLOH    C2 9236   4.388   3.684   0.821  0.7291  0.4352 -0.6227
   76GLOH   H04 9237   4.478   3.655   0.765  0.0905  0.0919 -1.4882
   76GLOH    O2 9238   4.280   3.593   0.777 -0.8151  0.0325 -0.2197
   76GLOH   H05 9239   4.255   3.618   0.687 -2.3411 -0.9632 -0.0877
   76GLOH    C3 9240   4.363   3.838   0.789  0.1497  0.1286  0.1843
   76GLOH   H06 9241   4.329   3.837   0.686 -0.9543  2.9816  0.4797
   76GLOH   H07 9242   4.456   3.894   0.777 -1.1352  1.8235 -2.3921
   76GLOH    O3 9243   4.277   3.909   0.881 -0.5386 -0.1471  0.1038
   76GLOH   H01 9244   4.266   3.848   0.957  0.6672  0.0315  0.4308
   77GLOH   H03 9245   2.733   1.074   2.125  0.3060 -0.4322  0.0290
   77GLOH    O1 9246   2.774   1.119   2.202  0.4430 -0.1356 -0.2164
   77GLOH    C1 9247   2.854   1.016   2.265  0.4702  0.8685 -0.0671
   77GLOH   H02 9248   2.914   1.047   2.350  1.0834  0.7497 -0.4531
   77GLOH   H08 9249   2.928   0.977   2.195 -1.2812  1.8175 -2.5435
   77GLOH    C2 9250   2.759   0.903   2.303 -0.0952 -0.3865  1.0643
   77GLOH   H04 9251   2.722   0.861   2.208 -1.1899  0.0681  1.2818
   77GLOH    O2 9252   2.830   0.792   2.363  0.5057  0.3562 -0.2349
   77GLOH   H05 9253   2.894   0.744   2.307 -1.0024 -1.7411 -0.2465
   77GLOH    C3 9254   2.647   0.956   2.388  0.1067 -0.3559  0.0698
   77GLOH   H06 9255   2.578   0.873   2.408 -1.0570  1.1504  2.4529
   77GLOH   H07 9256   2.596   1.025   2.321  1.0351 -0.5248 -0.8145
   77GLOH    O3 9257   2.697   1.021   2.505  0.4401  0.0942  0.4949
   77GLOH   H01 9258   2.618   1.033   2.560  0.1920  1.3939 -0.1213
   78GLOH   H03 9259   3.731   3.929   1.071  3.8003  2.0602  1.9931
   78GLOH    O1 9260   3.771   3.948   0.984 -0.2367  0.6785 -0.2831
   78GLOH    C1 9261   3.843   4.071   0.989  0.8190  0.3213  0.1607
   78GLOH   H02 9262   3.811   4.137   1.069 -0.8137  0.3860 -0.5446
   78GLOH   H08 9263   3.835   4.127   0.895 -0.9454  0.6734  0.5128
   78GLOH    C2 9264   3.996   4.052   1.001  0.3580  0.5570  0.4620
   78GLOH   H04 9265   4.041   3.997   0.916 -0.6732  1.9713 -1.0161
   78GLOH    O2 9266   4.048   4.178   1.010 -0.2539 -0.2999 -0.1839
   78GLOH   H05 9267   4.123   4.177   0.948  0.7371 -1.0888  1.0029
   78GLOH    C3 9268   4.044   3.981   1.127  0.4698 -0.5492  0.0143
   78GLOH   H06 9269   4.020   4.050   1.209 -0.7282 -0.3495 -0.4889
   78GLOH   H07 9270   4.150   3.959   1.129  0.5979  0.0548  0.0998
   78GLOH    O3 9271   3.970   3.857   1.148  0.2714  0.2118 -0.0191
   78GLOH   H01 9272   3.980   3.803   1.068 -0.4794 -1.7308  1.1603
   79GLOH   H03 9273   3.366   1.165   2.284 -0.1673 -1.2571  0.7452
   79GLOH    O1 9274   3.377   1.246   2.337 -0.5851 -0.0423 -1.0080
   79GLOH    C1 9275   3.350   1.210   2.474  0.3894  0.7890 -0.3543
   79GLOH   H02 9276   3.369   1.299   2.533  0.3144 -0.1996  1.1720
   79GLOH   H08 9277   3.418   1.132   2.507 -0.5241  0.3209  0.4709
   79GLOH    C2 9278   3.206   1.151   2.498 -0.3043  0.9253  0.3249
   79GLOH   H04 9279   3.129   1.207   2.441 -2.5564 -2.4932 -0.1246
   79GLOH    O2 9280   3.213   1.014   2.453  0.1606 -0.3095 -0.3135
   79GLOH   H05 9281   3.255   1.014   2.366  0.5262 -0.9829 -0.1448
   79GLOH    C3 9282   3.177   1.162   2.649  0.3497  0.1661  0.5270
   79GLOH   H06 9283   3.246   1.114   2.718  0.5424  0.6903  0.7029
   79GLOH   H07 9284   3.079   1.115   2.650 -0.1137  1.1317  1.5663
   79GLOH    O3 9285   3.165   1.301   2.695  0.3352 -0.1798 -0.3058
   79GLOH   H01 9286   3.094   1.342   2.642 -0.1517 -0.6000  0.0142
   80GLOH   H03 9287   3.986   9.423   1.805 -1.5582  0.0289  0.5176
   80GLOH    O1 9288   4.006   9.478   1.883 -0.3370  0.2398  0.0661
   80GLOH    C1 9289   3.873   9.471   1.950 -0.1241  0.0391 -0.2170
   80GLOH   H02 9290   3.872   9.378   2.007 -0.0311 -0.5206 -1.1293
   80GLOH   H08 9291   3.791   9.463   1.879 -2.0745  1.3632  1.8069
   80GLOH    C2 9292   3.844   9.583   2.046  0.0416 -0.7181 -0.4555
   80GLOH   H04 9293   3.814   9.670   1.985 -3.6581 -0.7776  1.1589
   80GLOH    O2 9294   3.732   9.553   2.137 -0.6354  0.2534  0.1490
   80GLOH   H05 9295   3.674   9.629   2.151 -0.1200  1.1708 -2.4867
   80GLOH    C3 9296   3.966   9.611   2.131  0.3635 -0.3734 -0.1849
   80GLOH   H06 9297   3.983   9.527   2.199  0.5268 -1.1113 -1.1127
   80GLOH   H07 9298   3.950   9.700   2.191 -0.3754 -0.4267 -0.2968
   80GLOH    O3 9299   4.087   9.632   2.056  0.0634  0.0955  0.5298
   80GLOH   H01 9300   4.083   9.571   1.980  2.5743  0.2398  0.2444
   81GLOH   H03 9301   4.577   3.388   2.206 -1.3251  0.2616  0.4713
   81GLOH    O1 9302   4.539   3.299   2.207 -0.1537 -0.2552  0.4427
   81GLOH    C1 9303   4.424   3.300   2.287 -0.2314  0.1110 -0.1822
   81GLOH   H02 9304   4.371   3.392   2.263 -2.1318 -1.6178 -2.8742
   81GLOH   H08 9305   4.448   3.283   2.392  1.3128 -1.8329 -0.8187
   81GLOH    C2 9306   4.336   3.175   2.254  0.5502  0.3811  0.0210
   81GLOH   H04 9307   4.367   3.082   2.304 -1.3343  1.1579  2.7715
   81GLOH    O2 9308   4.204   3.207   2.301  0.1585  0.4918 -0.8299
   81GLOH   H05 9309   4.162   3.135   2.351  0.3910  1.4330  0.7504
   81GLOH    C3 9310   4.326   3.155   2.101  0.2344 -0.1697 -0.2880
   81GLOH   H06 9311   4.326   3.250   2.048  1.1009 -0.8298 -1.5071
   81GLOH   H07 9312   4.243   3.090   2.072  1.7394 -1.0964 -2.6496
   81GLOH    O3 9313   4.452   3.098   2.059  0.5063 -0.2114  0.2878
   81GLOH   H01 9314   4.517   3.169   2.074  1.0319 -0.6683  0.2072
   82GLOH   H03 9315   3.487   0.021   1.543  1.9246  0.3813  0.1543
   82GLOH    O1 9316   3.466   0.026   1.448  0.2143 -0.2686  0.4814
   82GLOH    C1 9317   3.475   0.166   1.409  0.2303  0.5648 -0.4829
   82GLOH   H02 9318   3.552   0.225   1.459 -1.3795  0.4616  2.1939
   82GLOH   H08 9319   3.384   0.220   1.434 -0.2505 -0.8927  1.0039
   82GLOH    C2 9320   3.507   0.165   1.263 -0.9148  0.8787  0.1748
   82GLOH   H04 9321   3.451   0.079   1.223  1.3237 -0.9792  0.8837
   82GLOH    O2 9322   3.464   0.292   1.214 -0.0377  0.1005 -0.0949
   82GLOH   H05 9323   3.370   0.283   1.192  0.1183 -0.6592 -0.4519
   82GLOH    C3 9324   3.660   0.138   1.248 -1.1493 -0.6081 -0.3310
   82GLOH   H06 9325   3.678   0.036   1.284  0.4647  0.0039  0.6382
   82GLOH   H07 9326   3.720   0.195   1.318  0.8236 -1.2061 -1.4906
   82GLOH    O3 9327   3.706   0.136   1.113  0.5124  0.1061 -0.1656
   82GLOH   H01 9328   3.772   0.208   1.113  1.2087 -0.5012  1.7332
   83GLOH   H03 9329   4.342   1.748   1.374  0.7676  0.5617 -0.0137
   83GLOH    O1 9330   4.338   1.818   1.442  0.4094  0.1560  0.3852
   83GLOH    C1 9331   4.446   1.913   1.429  0.1875  0.3601  0.7685
   83GLOH   H02 9332   4.430   1.973   1.340 -1.6120 -0.9846  0.1725
   83GLOH   H08 9333   4.542   1.861   1.418  0.2372  0.4470  0.7905
   83GLOH    C2 9334   4.450   2.013   1.550 -0.3754 -0.3457 -0.5472
   83GLOH   H04 9335   4.348   2.055   1.556 -1.3027 -2.6632  0.4173
   83GLOH    O2 9336   4.481   1.941   1.671  0.8060 -0.3778  0.7176
   83GLOH   H05 9337   4.460   1.988   1.753 -2.7583 -3.1517  1.5117
   83GLOH    C3 9338   4.560   2.121   1.525  0.7606  0.3018 -0.8205
   83GLOH   H06 9339   4.649   2.069   1.488  0.4607 -0.1922 -0.8545
   83GLOH   H07 9340   4.581   2.166   1.622 -0.6889 -1.9750  0.6202
   83GLOH    O3 9341   4.513   2.219   1.433 -0.3027  0.2663  0.0826
   83GLOH   H01 9342   4.516   2.305   1.479 -1.0773  1.0632 -1.2982
   84GLOH   H03 9343   2.916   1.108   1.581  0.1476  1.1753 -0.0188
   84GLOH    O1 9344   3.014   1.104   1.586  0.1083 -0.3099 -0.0405
   84GLOH    C1 9345   3.058   0.969   1.585 -0.2970 -0.2151  0.0836
   84GLOH   H02 9346   3.163   0.959   1.609  0.0262 -2.4934 -2.0749
   84GLOH   H08 9347   3.048   0.930   1.484 -0.6639  3.0081 -1.1977
   84GLOH    C2 9348   2.977   0.878   1.676 -0.5662  0.5861  0.3988
   84GLOH   H04 9349   2.887   0.857   1.616 -0.8847 -0.8500  1.3675
   84GLOH    O2 9350   3.052   0.755   1.699 -0.4725 -0.2943 -0.5230
   84GLOH   H05 9351   2.985   0.684   1.699 -0.6775 -0.1066  0.0301
   84GLOH    C3 9352   2.947   0.960   1.803 -0.7288 -0.4246  0.2920
   84GLOH   H06 9353   2.877   1.041   1.786  0.6761  0.1779 -3.0781
   84GLOH   H07 9354   3.042   1.008   1.826 -0.0765 -1.8592  0.7165
   84GLOH    O3 9355   2.896   0.881   1.920  0.1113 -0.2392  0.2266
   84GLOH   H01 9356   2.961   0.825   1.966  1.9225  2.0800  0.5816
   85GLOH   H03 9357   4.192   3.402   0.984  1.4752  0.7491 -0.7867
   85GLOH    O1 9358   4.210   3.454   1.064 -0.2607  0.6202 -0.2816
   85GLOH    C1 9359   4.195   3.358   1.178  0.5412 -0.7715  0.0665
   85GLOH   H02 9360   4.223   3.415   1.267 -0.9993  0.9346 -0.5140
   85GLOH   H08 9361   4.259   3.270   1.169 -0.8004 -1.8583  1.0611
   85GLOH    C2 9362   4.053   3.308   1.195 -0.0056  0.4448  0.2718
   85GLOH   H04 9363   3.999   3.283   1.102  2.3628  0.3614 -1.1041
   85GLOH    O2 9364   4.040   3.190   1.288 -0.1658  0.4752 -0.1233
   85GLOH   H05 9365   4.094   3.199   1.368 -0.5860  0.9250  0.1170
   85GLOH    C3 9366   3.975   3.418   1.260  0.1681  0.0640  0.6635
   85GLOH   H06 9367   3.970   3.499   1.186  1.3213 -1.0130 -0.6207
   85GLOH   H07 9368   4.035   3.457   1.342  0.8719  0.3147  0.0400
   85GLOH    O3 9369   3.840   3.374   1.302  0.5017 -0.0761 -0.2217
   85GLOH   H01 9370   3.844   3.278   1.318 -1.8923 -0.1650  0.0441
   86GLOH   H03 9371   4.462   4.032   0.050  1.0659 -0.6409  0.3342
   86GLOH    O1 9372   4.375   4.020   0.092  0.3062 -0.2197 -1.0527
   86GLOH    C1 9373   4.393   3.957   0.221  0.1011 -0.0597 -0.3593
   86GLOH   H02 9374   4.430   3.855   0.214 -0.5216 -0.4440  1.5110
   86GLOH   H08 9375   4.298   3.954   0.276 -0.2213  0.9443 -0.8555
   86GLOH    C2 9376   4.501   4.029   0.303  0.3743  0.9966 -0.3195
   86GLOH   H04 9377   4.487   4.138   0.305  0.6158  1.0096  0.9056
   86GLOH    O2 9378   4.494   3.999   0.441  0.3626  0.6308  0.0184
   86GLOH   H05 9379   4.505   3.905   0.464  1.9035  0.5563 -1.0031
   86GLOH    C3 9380   4.644   3.988   0.254 -0.3754  0.6194  0.0384
   86GLOH   H06 9381   4.661   3.888   0.295 -0.1744  0.8699  0.5786
   86GLOH   H07 9382   4.723   4.051   0.295 -0.6834  0.8312  0.3107
   86GLOH    O3 9383   4.647   3.985   0.109  0.0683 -0.5103 -0.8729
   86GLOH   H01 9384   4.649   3.892   0.079  2.4515 -0.8359  0.2011
   87GLOH   H03 9385   2.578   0.394   1.669  1.9974 -1.7390 -0.2172
   87GLOH    O1 9386   2.631   0.448   1.731  0.1065 -0.5069  0.3849
   87GLOH    C1 9387   2.542   0.498   1.836  0.3269 -0.0089  1.3737
   87GLOH   H02 9388   2.481   0.420   1.882  0.4761 -0.1451  1.3387
   87GLOH   H08 9389   2.473   0.568   1.789 -1.0367 -1.3592  1.3427
   87GLOH    C2 9390   2.613   0.573   1.946  0.5869  0.0108  0.2018
   87GLOH   H04 9391   2.700   0.517   1.985 -0.1491 -2.1616 -1.2111
   87GLOH    O2 9392   2.663   0.701   1.921  0.3625 -0.2852  0.5163
   87GLOH   H05 9393   2.754   0.702   1.887  0.9587 -1.2139  2.0213
   87GLOH    C3 9394   2.513   0.593   2.061  0.3237  0.2266  0.8274
   87GLOH   H06 9395   2.427   0.647   2.020 -0.0336 -0.9760 -0.0368
   87GLOH   H07 9396   2.550   0.656   2.141 -0.3809  2.0044 -0.2256
   87GLOH    O3 9397   2.464   0.474   2.122 -0.9190 -0.2950 -0.1960
   87GLOH   H01 9398   2.537   0.453   2.182 -0.2251  0.5476 -0.7443
   88GLOH   H03 9399   5.044   3.852   2.171  0.7060  0.2923 -0.7616
   88GLOH    O1 9400   5.076   3.785   2.234 -0.2324  0.3596 -0.2043
   88GLOH    C1 9401   5.086   3.843   2.366  0.2359 -0.3684  0.3136
   88GLOH   H02 9402   5.129   3.943   2.363 -2.0756  0.6005 -2.0169
   88GLOH   H08 9403   5.151   3.781   2.428  0.4879 -0.8615 -0.4364
   88GLOH    C2 9404   4.957   3.842   2.450 -0.2325  0.3602  0.1792
   88GLOH   H04 9405   4.983   3.859   2.556 -0.4097  0.8386  0.1451
   88GLOH    O2 9406   4.875   3.950   2.405  0.4941 -0.4150 -0.1211
   88GLOH   H05 9407   4.845   3.929   2.316 -0.5186  1.1127 -0.1707
   88GLOH    C3 9408   4.889   3.704   2.458  0.4777 -0.9606  0.1726
   88GLOH   H06 9409   4.889   3.668   2.355  0.3941  0.6769 -0.4167
   88GLOH   H07 9410   4.784   3.710   2.486  0.4993  1.0712 -0.1210
   88GLOH    O3 9411   4.959   3.613   2.546 -0.0929 -0.5266  0.5717
   88GLOH   H01 9412   5.037   3.579   2.499  0.6591 -0.1187  1.5127
   89GLOH   H03 9413   4.477   1.763   1.661 -2.5831  0.5756  0.9327
   89GLOH    O1 9414   4.495   1.681   1.710  0.3362  0.2915 -0.5033
   89GLOH    C1 9415   4.450   1.558   1.641  0.3711  0.2521  0.3556
   89GLOH   H02 9416   4.372   1.590   1.572 -0.1493  1.0176  1.2993
   89GLOH   H08 9417   4.406   1.496   1.719  0.6728  1.0893  1.1983
   89GLOH    C2 9418   4.568   1.477   1.582  0.3109  0.4768  0.1687
   89GLOH   H04 9419   4.641   1.542   1.532 -0.0629 -0.1173 -1.1749
   89GLOH    O2 9420   4.645   1.417   1.689  0.0224  0.9785 -0.1414
   89GLOH   H05 9421   4.684   1.486   1.744  2.2247  1.1220 -1.8079
   89GLOH    C3 9422   4.525   1.380   1.470  0.7041  0.0513  0.2052
   89GLOH   H06 9423   4.461   1.308   1.523  0.6784  1.3628  2.0029
   89GLOH   H07 9424   4.608   1.322   1.430  2.0168  2.2613 -0.2912
   89GLOH    O3 9425   4.475   1.458   1.357 -0.2388 -0.0829 -0.2328
   89GLOH   H01 9426   4.453   1.405   1.278  1.5120 -0.1117 -0.7290
   90GLOH   H03 9427   3.952   0.764   1.202  1.0421 -2.0709  0.3162
   90GLOH    O1 9428   3.867   0.717   1.210 -0.0529 -0.1596  0.1715
   90GLOH    C1 9429   3.877   0.631   1.326 -1.0399  0.3014 -0.4416
   90GLOH   H02 9430   3.781   0.621   1.376  0.1916 -1.3784  1.6722
   90GLOH   H08 9431   3.937   0.675   1.406  0.5668 -0.3194 -1.2652
   90GLOH    C2 9432   3.927   0.486   1.303 -0.7912 -0.1842 -0.3800
   90GLOH   H04 9433   4.026   0.495   1.255  0.7130  1.7453  2.9008
   90GLOH    O2 9434   3.937   0.402   1.426  0.5000  0.1449 -0.5686
   90GLOH   H05 9435   3.995   0.449   1.488 -1.4931 -1.2026  2.4530
   90GLOH    C3 9436   3.825   0.424   1.210  0.3477  0.5374  0.1891
   90GLOH   H06 9437   3.790   0.501   1.141 -0.1057  0.0737 -0.1046
   90GLOH   H07 9438   3.737   0.393   1.266  0.4687  1.3094  0.8010
   90GLOH    O3 9439   3.873   0.311   1.138  0.0442 -0.6316  0.3275
   90GLOH   H01 9440   3.946   0.272   1.190  0.6865  0.3565  0.1766
   91GLOH   H03 9441   3.954   3.767   0.055 -1.8186  1.5963  1.2228
   91GLOH    O1 9442   4.007   3.754   0.136 -0.0736  0.2833 -0.0859
   91GLOH    C1 9443   4.046   3.874   0.201  0.0621 -0.3685  0.0568
   91GLOH   H02 9444   4.130   3.922   0.151 -1.0826  0.1264 -1.4119
   91GLOH   H08 9445   4.090   3.858   0.300  1.1571 -1.0629 -0.5356
   91GLOH    C2 9446   3.938   3.976   0.198 -0.0831  0.1010  0.6130
   91GLOH   H04 9447   3.852   3.928   0.248 -0.5262 -1.7877 -1.8403
   91GLOH    O2 9448   3.986   4.095   0.260 -0.4544  0.0169 -0.3767
   91GLOH   H05 9449   4.075   4.117   0.228 -0.4842  2.3924  1.0846
   91GLOH    C3 9450   3.903   4.000   0.048  0.3515 -0.1305  0.3528
   91GLOH   H06 9451   3.988   4.026  -0.014 -0.3002  1.7005  0.1889
   91GLOH   H07 9452   3.840   4.089   0.035  1.2916  0.5539  0.4551
   91GLOH    O3 9453   3.839   3.889  -0.024  0.6998  0.3279 -0.1909
   91GLOH   H01 9454   3.746   3.886   0.005  0.4491  1.8140 -0.8099
   92GLOH   H03 9455   2.791   8.918   2.655  0.5530  0.9719 -0.1508
   92GLOH    O1 9456   2.769   8.920   2.750 -0.0312 -0.7187 -0.2429
   92GLOH    C1 9457   2.851   9.012   2.817 -0.2642  0.5977  0.2396
   92GLOH   H02 9458   2.957   8.997   2.796 -0.0457  0.0523  1.6836
   92GLOH   H08 9459   2.843   9.006   2.926  0.2923  3.2987  0.4747
   92GLOH    C2 9460   2.821   9.157   2.773  0.0335 -0.0237 -0.4433
   92GLOH   H04 9461   2.714   9.175   2.791  0.3101  0.9508  0.3308
   92GLOH    O2 9462   2.898   9.250   2.856 -0.5623  0.3888 -0.1521
   92GLOH   H05 9463   2.844   9.274   2.934 -0.0910 -0.9096  0.5890
   92GLOH    C3 9464   2.841   9.183   2.624  1.2921  0.2259 -0.6225
   92GLOH   H06 9465   2.949   9.182   2.614  1.2428 -1.2780 -1.0733
   92GLOH   H07 9466   2.806   9.283   2.598  0.9481  0.0875 -0.6891
   92GLOH    O3 9467   2.770   9.094   2.539 -0.4579  0.3858 -0.4066
   92GLOH   H01 9468   2.811   9.095   2.451  1.3662  0.7606  0.4266
   93GLOH   H03 9469   2.879   1.263   0.671  0.3306  0.5393 -1.7914
   93GLOH    O1 9470   2.969   1.231   0.686 -0.1150  0.1267  0.1362
   93GLOH    C1 9471   3.012   1.319   0.786 -1.4109 -0.3314 -0.5438
   93GLOH   H02 9472   2.946   1.295   0.870  1.2591 -0.3027  1.6040
   93GLOH   H08 9473   2.998   1.424   0.759 -0.8099 -0.4767 -1.4342
   93GLOH    C2 9474   3.158   1.292   0.823 -0.2884  0.1045  0.8223
   93GLOH   H04 9475   3.224   1.310   0.736 -0.7813  1.5392  0.7326
   93GLOH    O2 9476   3.198   1.383   0.929  0.1507  0.5001 -0.6461
   93GLOH   H05 9477   3.293   1.369   0.945  0.1186 -0.2741 -1.0743
   93GLOH    C3 9478   3.172   1.156   0.881  0.1114 -0.0561  0.3122
   93GLOH   H06 9479   3.165   1.156   0.989  1.6900 -0.6519  0.4330
   93GLOH   H07 9480   3.276   1.127   0.861 -0.4162 -1.6089 -0.2803
   93GLOH    O3 9481   3.083   1.053   0.824  0.0042 -0.0907 -0.0576
   93GLOH   H01 9482   3.022   1.106   0.770  0.9962 -1.2940 -2.4547
   94GLOH   H03 9483   3.318   1.860   1.732  1.0173 -1.7842  0.9408
   94GLOH    O1 9484   3.299   1.828   1.642  0.6368  0.0705  0.3343
   94GLOH    C1 9485   3.202   1.911   1.577 -0.2698 -0.9038 -0.3357
   94GLOH   H02 9486   3.257   1.957   1.495 -0.9619  3.5465  1.5261
   94GLOH   H08 9487   3.174   1.995   1.641  0.9245 -0.2476 -0.6594
   94GLOH    C2 9488   3.087   1.835   1.528 -0.0403  0.4612  0.2611
   94GLOH   H04 9489   3.038   1.777   1.607  0.8731 -4.6259 -2.6424
   94GLOH    O2 9490   2.989   1.927   1.482 -0.6570  0.2159 -0.2220
   94GLOH   H05 9491   2.917   1.870   1.449  0.4298 -1.0503 -0.4343
   94GLOH    C3 9492   3.133   1.727   1.427 -0.0771  0.3624  0.7425
   94GLOH   H06 9493   3.165   1.774   1.335 -0.7340 -0.3954  0.1154
   94GLOH   H07 9494   3.044   1.670   1.400  0.5129  0.3967 -1.3660
   94GLOH    O3 9495   3.234   1.641   1.483 -0.0509 -0.3300  0.2607
   94GLOH   H01 9496   3.271   1.694   1.555 -0.7810  0.2496  0.2167
   95GLOH   H03 9497   4.005   2.762   1.934  1.2422  0.9386 -1.9260
   95GLOH    O1 9498   4.020   2.849   1.975  0.3630  0.4308 -0.5158
   95GLOH    C1 9499   3.958   2.868   2.106  0.7100 -0.1966  0.1605
   95GLOH   H02 9500   3.999   2.961   2.145 -0.5220 -0.0880  1.2416
   95GLOH   H08 9501   3.989   2.789   2.175 -1.3595 -1.3016 -0.1324
   95GLOH    C2 9502   3.808   2.874   2.108 -0.3614  0.6327  0.4870
   95GLOH   H04 9503   3.789   2.971   2.059  1.4548  1.0277  0.5451
   95GLOH    O2 9504   3.734   2.772   2.038  0.0029  0.2986  0.7853
   95GLOH   H05 9505   3.798   2.723   1.982 -0.4786 -0.3993  0.8395
   95GLOH    C3 9506   3.754   2.876   2.252 -0.3799 -0.3179  0.1885
   95GLOH   H06 9507   3.800   2.792   2.304  1.0914 -0.1315 -0.7666
   95GLOH   H07 9508   3.647   2.855   2.243 -0.3819 -0.3575  0.3042
   95GLOH    O3 9509   3.768   3.003   2.322 -0.2216 -0.0038  0.3491
   95GLOH   H01 9510   3.745   3.000   2.417 -1.2335  0.2929  0.1116
   96GLOH   H03 9511   3.090  -0.066   0.784  0.2164  2.9740 -0.9995
   96GLOH    O1 9512   3.150  -0.037   0.854  0.5718 -0.3044  0.1265
   96GLOH    C1 9513   3.259   0.043   0.795 -0.0270 -0.6189 -0.4232
   96GLOH   H02 9514   3.227   0.147   0.785 -1.1207 -1.0047 -1.0964
   96GLOH   H08 9515   3.286   0.002   0.697 -0.0389 -0.8814 -0.3160
   96GLOH    C2 9516   3.391   0.030   0.873  0.5777  0.0126  0.3513
   96GLOH   H04 9517   3.389   0.095   0.961  0.3398 -0.2221  0.5197
   96GLOH    O2 9518   3.427  -0.110   0.893 -0.1577 -0.8661 -0.4496
   96GLOH   H05 9519   3.355  -0.149   0.945  0.0144 -1.9890 -1.0382
   96GLOH    C3 9520   3.497   0.082   0.782 -0.7397 -0.4271 -0.0339
   96GLOH   H06 9521   3.502   0.017   0.695 -1.0570  0.3215 -0.6201
   96GLOH   H07 9522   3.590   0.072   0.837 -1.0384  0.9671  0.7471
   96GLOH    O3 9523   3.471   0.221   0.747 -0.3666 -0.5351  0.3839
   96GLOH   H01 9524   3.522   0.278   0.807 -1.7660 -1.1121  2.1672
   97GLOH   H03 9525   3.555   3.832   1.185  0.0660  0.5405 -2.0385
   97GLOH    O1 9526   3.642   3.874   1.185  0.1953  0.2987 -0.4646
   97GLOH    C1 9527   3.675   3.922   1.316  0.2144  0.2887 -0.0728
   97GLOH   H02 9528   3.603   3.995   1.354 -0.7537 -1.0934  0.7677
   97GLOH   H08 9529   3.774   3.965   1.304  1.7452 -2.5455  1.9188
   97GLOH    C2 9530   3.688   3.816   1.433  0.3666 -0.0315  0.3428
   97GLOH   H04 9531   3.702   3.883   1.519  0.1019  1.2594 -0.6107
   97GLOH    O2 9532   3.565   3.748   1.459  0.3015  0.2661 -0.2175
   97GLOH   H05 9533   3.558   3.716   1.550 -0.0476  0.0067 -0.3353
   97GLOH    C3 9534   3.809   3.721   1.412  0.0442 -0.2509  0.1061
   97GLOH   H06 9535   3.794   3.650   1.331  0.0432  0.0932 -0.1967
   97GLOH   H07 9536   3.824   3.663   1.503 -0.4910 -0.8688 -0.2036
   97GLOH    O3 9537   3.932   3.789   1.399  0.1784 -0.5606  0.3760
   97GLOH   H01 9538   3.942   3.812   1.305 -0.2718 -2.9426 -0.2788
   98GLOH   H03 9539   3.945   3.570   0.920  0.4073 -0.8528  1.8527
   98GLOH    O1 9540   3.877   3.503   0.900 -0.1982  0.3288 -0.2694
   98GLOH    C1 9541   3.744   3.558   0.917 -0.1890  0.1894  0.0945
   98GLOH   H02 9542   3.693   3.582   0.823 -0.8103 -0.8063  0.1708
   98GLOH   H08 9543   3.744   3.654   0.968 -0.2058  1.0658 -1.5318
   98GLOH    C2 9544   3.662   3.462   1.008  0.1505 -0.3985 -0.0465
   98GLOH   H04 9545   3.703   3.361   0.991  0.4273 -0.3739  0.4875
   98GLOH    O2 9546   3.665   3.496   1.144 -0.0007 -0.2508 -0.1547
   98GLOH   H05 9547   3.752   3.459   1.166  0.0874 -0.1441 -0.3232
   98GLOH    C3 9548   3.514   3.451   0.957 -0.1640 -0.1112  0.7194
   98GLOH   H06 9549   3.489   3.557   0.951 -1.2045 -0.4262 -0.8297
   98GLOH   H07 9550   3.447   3.408   1.030 -1.5555 -2.3065 -1.7553
   98GLOH    O3 9551   3.486   3.379   0.830  0.4858  0.8620 -0.9971
   98GLOH   H01 9552   3.428   3.310   0.867 -0.7049  2.8730  0.9763
   99GLOH   H03 9553   4.411   0.573   2.043  0.2376 -2.1089 -1.6854
   99GLOH    O1 9554   4.345   0.520   2.091 -0.0979 -0.2872 -0.0933
   99GLOH    C1 9555   4.314   0.568   2.221 -0.5260 -0.3970 -0.8313
   99GLOH   H02 9556   4.361   0.665   2.235 -0.9852 -0.4229  1.0542
   99GLOH   H08 9557   4.354   0.497   2.294  0.2085  0.3601 -0.4852
   99GLOH    C2 9558   4.166   0.581   2.246  0.1499 -0.3370  0.1267
   99GLOH   H04 9559   4.129   0.488   2.290 -0.4749 -0.2906 -0.2882
   99GLOH    O2 9560   4.148   0.685   2.344 -0.9251 -0.1775 -0.4175
   99GLOH   H05 9561   4.053   0.704   2.351 -1.3644 -1.1177 -2.9231
   99GLOH    C3 9562   4.073   0.620   2.123 -0.3659  0.1590 -0.2496
   99GLOH   H06 9563   4.092   0.727   2.117  0.8451 -0.0477 -0.2452
   99GLOH   H07 9564   3.968   0.612   2.155 -0.0229  0.2382  0.9293
   99GLOH    O3 9565   4.093   0.532   2.013  0.5290 -0.0813 -0.3207
   99GLOH   H01 9566   4.188   0.512   2.015  0.5951  0.2559  1.9984
  100GLOH   H03 9567   3.290   9.309   1.008  0.3410 -1.1752  1.5808
  100GLOH    O1 9568   3.267   9.240   0.943 -0.0948  0.4623 -0.0594
  100GLOH    C1 9569   3.374   9.145   0.949 -0.4816  0.0829 -0.4354
  100GLOH   H02 9570   3.408   9.135   1.051 -1.1853  0.4053 -0.1621
  100GLOH   H08 9571   3.461   9.167   0.887  0.1651  0.3320  0.5523
  100GLOH    C2 9572   3.327   9.006   0.900 -0.2129  0.8696 -0.1730
  100GLOH   H04 9573   3.287   9.009   0.798  0.0946  0.0274 -0.3224
  100GLOH    O2 9574   3.433   8.908   0.894  0.5424 -0.3811 -0.3404
  100GLOH   H05 9575   3.459   8.891   0.802 -2.5353  1.0038 -1.5308
  100GLOH    C3 9576   3.201   8.959   0.982 -0.0263 -0.0267 -0.4187
  100GLOH   H06 9577   3.187   8.855   0.956  1.0871 -1.2349  3.3924
  100GLOH   H07 9578   3.117   9.020   0.950 -1.1293 -1.9944 -1.3197
  100GLOH    O3 9579   3.203   8.955   1.130 -0.1517 -0.0649 -0.1874
  100GLOH   H01 9580   3.209   9.048   1.160  0.9791 -0.9584  2.5450
  101GLOH   H03 9581   3.507   3.271   0.265  2.0022 -1.4308  0.9734
  101GLOH    O1 9582   3.576   3.299   0.202 -0.5189  0.3778 -1.0847
  101GLOH    C1 9583   3.695   3.289   0.281 -0.3957  0.6989 -0.2711
  101GLOH   H02 9584   3.676   3.295   0.388  0.3660  0.7171 -0.1306
  101GLOH   H08 9585   3.754   3.377   0.257  0.0176  0.4367 -0.2224
  101GLOH    C2 9586   3.774   3.164   0.245 -0.3413 -0.0105  0.0620
  101GLOH   H04 9587   3.821   3.177   0.147  0.5991 -0.5843  0.4293
  101GLOH    O2 9588   3.883   3.133   0.333  0.2316 -0.2848  0.0759
  101GLOH   H05 9589   3.888   3.037   0.347  1.8010 -0.3034 -0.5398
  101GLOH    C3 9590   3.680   3.039   0.238  0.1472  0.4154 -0.3801
  101GLOH   H06 9591   3.731   2.955   0.190 -0.7913 -0.6474  0.4666
  101GLOH   H07 9592   3.601   3.051   0.163 -0.7518 -0.3621  0.4153
  101GLOH    O3 9593   3.628   2.994   0.367 -0.2665 -0.4929 -0.8122
  101GLOH   H01 9594   3.567   2.920   0.352 -2.7062  1.6255 -1.6873
  102GLOH   H03 9595   4.391   3.684   2.534 -0.0209  0.6223 -0.0459
  102GLOH    O1 9596   4.300   3.659   2.556  0.0776  0.2592 -0.0546
  102GLOH    C1 9597   4.215   3.774   2.548  0.1772  0.1181 -0.3772
  102GLOH   H02 9598   4.252   3.858   2.490  1.1912  0.5935  0.9349
  102GLOH   H08 9599   4.205   3.804   2.653 -1.3717 -3.6008  0.6399
  102GLOH    C2 9600   4.068   3.751   2.490  0.1387  0.0282  0.7089
  102GLOH   H04 9601   4.021   3.689   2.568 -0.8891  0.5491  0.5109
  102GLOH    O2 9602   3.991   3.874   2.472  0.1797 -0.0068 -0.2910
  102GLOH   H05 9603   3.927   3.874   2.545 -0.4816  0.6214 -0.8653
  102GLOH    C3 9604   4.078   3.659   2.365  0.3022 -0.3744  0.3703
  102GLOH   H06 9605   4.141   3.709   2.292  0.8075 -0.8163  0.4989
  102GLOH   H07 9606   3.983   3.648   2.313  0.1246  0.5665  0.4877
  102GLOH    O3 9607   4.124   3.528   2.404 -0.0849  0.2889 -0.5152
  102GLOH   H01 9608   4.195   3.548   2.468  0.7459  1.4998 -1.7932
  103GLOH   H03 9609   4.077  -0.193   2.065 -2.9518 -1.0231 -1.9036
  103GLOH    O1 9610   4.044  -0.101   2.060  0.3187  0.3086 -0.4279
  103GLOH    C1 9611   4.047  -0.068   1.918  0.3130  0.2477  0.6295
  103GLOH   H02 9612   4.138  -0.102   1.867  0.3260  0.6718  0.3666
  103GLOH   H08 9613   4.049   0.041   1.914 -0.2337  0.2531  0.4117
  103GLOH    C2 9614   3.920  -0.118   1.853  0.2315 -0.6941 -0.1119
  103GLOH   H04 9615   3.929  -0.228   1.853 -3.1921 -1.0692  1.4242
  103GLOH    O2 9616   3.797  -0.085   1.931 -0.4427 -0.1190 -0.3088
  103GLOH   H05 9617   3.779   0.010   1.918  1.9334  0.2289 -1.3096
  103GLOH    C3 9618   3.912  -0.053   1.714 -0.4465 -0.9418 -0.2786
  103GLOH   H06 9619   3.939   0.052   1.721 -1.0483 -0.8542  0.9555
  103GLOH   H07 9620   3.808  -0.055   1.679  0.3333  1.6417 -2.9645
  103GLOH    O3 9621   4.001  -0.123   1.621  0.0565  0.3850 -0.0774
  103GLOH   H01 9622   3.995  -0.092   1.528  0.8365 -0.2403 -0.3381
  104GLOH   H03 9623   4.276   4.302   2.201  0.3224 -4.3286 -0.3392
  104GLOH    O1 9624   4.181   4.318   2.216  0.9744 -0.0740  0.0492
  104GLOH    C1 9625   4.149   4.237   2.330  0.9393  0.5031  0.0072
  104GLOH   H02 9626   4.138   4.299   2.418 -1.0856  0.2662 -0.0404
  104GLOH   H08 9627   4.214   4.150   2.342 -1.2557 -1.1482  0.3317
  104GLOH    C2 9628   4.003   4.185   2.312 -0.1195  0.7389 -0.9487
  104GLOH   H04 9629   4.023   4.099   2.248  0.0066  0.3620 -0.4041
  104GLOH    O2 9630   3.966   4.136   2.441 -0.2448 -0.2578  0.1257
  104GLOH   H05 9631   3.965   4.039   2.437 -0.6995 -0.2671  0.4905
  104GLOH    C3 9632   3.904   4.291   2.279 -0.0515  0.4104 -0.1358
  104GLOH   H06 9633   3.895   4.357   2.366 -1.6413 -0.9519  0.7522
  104GLOH   H07 9634   3.808   4.242   2.267  0.3023 -0.1682 -0.6366
  104GLOH    O3 9635   3.940   4.356   2.159  0.1611  0.5887 -0.0405
  104GLOH   H01 9636   4.031   4.383   2.180  0.7320 -1.1190 -0.2761
  105GLOH   H03 9637   4.644   4.117   1.914  0.2086  0.1954 -0.6919
  105GLOH    O1 9638   4.717   4.133   1.978 -0.1326  0.5433 -0.3871
  105GLOH    C1 9639   4.657   4.222   2.075 -0.4119  0.2598  0.5892
  105GLOH   H02 9640   4.673   4.325   2.043  3.2834 -0.4891 -0.1117
  105GLOH   H08 9641   4.697   4.198   2.174  0.1306 -0.1802  0.2634
  105GLOH    C2 9642   4.506   4.204   2.088  0.3503 -0.1229 -0.0112
  105GLOH   H04 9643   4.510   4.096   2.108  2.3445  0.3729  2.5221
  105GLOH    O2 9644   4.457   4.286   2.195  0.3077 -0.0737 -0.1820
  105GLOH   H05 9645   4.467   4.252   2.286  0.9159 -0.2877 -0.3302
  105GLOH    C3 9646   4.437   4.237   1.954 -0.1018 -0.1788  0.4020
  105GLOH   H06 9647   4.475   4.327   1.905 -1.8549 -0.0914 -0.8134
  105GLOH   H07 9648   4.329   4.245   1.965 -0.3666 -1.1002 -1.4921
  105GLOH    O3 9649   4.471   4.131   1.865 -0.3198  0.2905 -0.2076
  105GLOH   H01 9650   4.385   4.088   1.849  1.1700 -2.3170 -1.3441
  106GLOH   H03 9651   3.942   3.066   1.212  1.1416 -1.0694  0.1882
  106GLOH    O1 9652   3.897   3.013   1.144  0.2960 -0.3157  0.1622
  106GLOH    C1 9653   3.872   2.882   1.201  0.7881  0.1903 -0.1485
  106GLOH   H02 9654   3.964   2.853   1.251 -1.7123 -1.8737  3.5304
  106GLOH   H08 9655   3.862   2.809   1.121  0.6852 -0.5569  0.5419
  106GLOH    C2 9656   3.760   2.874   1.307 -0.5665 -0.1343  0.1075
  106GLOH   H04 9657   3.670   2.895   1.247 -0.0495 -1.3857 -1.1363
  106GLOH    O2 9658   3.749   2.753   1.376  0.1415  0.3162  0.1222
  106GLOH   H05 9659   3.836   2.745   1.419  2.3505  1.4752 -3.9401
  106GLOH    C3 9660   3.781   2.990   1.401  0.1623  0.3395  0.0101
  106GLOH   H06 9661   3.881   2.988   1.442 -0.2575 -2.7967  1.0581
  106GLOH   H07 9662   3.716   2.977   1.488 -0.8950  1.4826 -0.5833
  106GLOH    O3 9663   3.757   3.115   1.342  0.2389  0.4867  0.1526
  106GLOH   H01 9664   3.671   3.106   1.296 -0.1354  0.6836  0.8121
  107GLOH   H03 9665   4.000   3.230   0.375  0.3175 -0.6928  0.9632
  107GLOH    O1 9666   4.053   3.301   0.416  0.4600 -0.0852 -0.2570
  107GLOH    C1 9667   3.975   3.421   0.401  0.7442  0.0299 -0.2999
  107GLOH   H02 9668   3.887   3.418   0.466 -0.9601 -3.3774 -2.5775
  107GLOH   H08 9669   3.927   3.421   0.303  1.8492 -1.5798 -0.8697
  107GLOH    C2 9670   4.044   3.549   0.426 -0.2690  0.0929 -0.3513
  107GLOH   H04 9671   4.137   3.553   0.368  0.6407 -1.8670  0.9616
  107GLOH    O2 9672   3.955   3.657   0.392  0.0736  0.0888  0.5588
  107GLOH   H05 9673   3.984   3.691   0.306 -1.8547  2.4757  0.7847
  107GLOH    C3 9674   4.085   3.565   0.576 -0.2891  0.2145 -0.2812
  107GLOH   H06 9675   4.144   3.478   0.606  1.4274  1.1510 -0.8261
  107GLOH   H07 9676   3.999   3.547   0.640  1.2431 -1.5789  1.3656
  107GLOH    O3 9677   4.151   3.695   0.592 -0.3612  0.4708 -0.7836
  107GLOH   H01 9678   4.087   3.765   0.613 -0.0997  0.1325  1.2749
  108GLOH   H03 9679   3.734   0.935   2.313  0.4645  1.4042 -1.1169
  108GLOH    O1 9680   3.741   0.876   2.235 -0.7519 -0.3688  0.0705
  108GLOH    C1 9681   3.861   0.913   2.164  1.0305  0.3513 -0.1615
  108GLOH   H02 9682   3.825   0.984   2.090 -3.2125 -1.5367 -0.0663
  108GLOH   H08 9683   3.898   0.825   2.110 -4.6096 -2.6509  0.5812
  108GLOH    C2 9684   3.967   0.988   2.247 -0.5891 -0.4647  0.3269
  108GLOH   H04 9685   4.016   0.911   2.309 -0.6727  1.7067  3.2204
  108GLOH    O2 9686   4.077   1.051   2.182  0.0640 -0.0242  0.7897
  108GLOH   H05 9687   4.063   1.146   2.169 -0.0692 -0.3258 -1.5516
  108GLOH    C3 9688   3.898   1.083   2.358 -0.1323 -0.1453  0.3862
  108GLOH   H06 9689   3.853   1.168   2.309  1.7294 -0.1930 -1.4689
  108GLOH   H07 9690   3.977   1.131   2.416 -1.1293  0.6000  1.1506
  108GLOH    O3 9691   3.797   1.023   2.440  0.4133  0.2072 -0.2717
  108GLOH   H01 9692   3.825   0.999   2.530  0.4700 -1.8432 -0.8197
  109GLOH   H03 9693   2.712   1.950   1.850  0.6551  3.0521 -1.0315
  109GLOH    O1 9694   2.801   1.957   1.887  0.4461 -0.5525  0.3941
  109GLOH    C1 9695   2.821   2.101   1.891  0.2183  0.2765 -0.3196
  109GLOH   H02 9696   2.727   2.151   1.912 -1.1765 -2.2337 -0.3257
  109GLOH   H08 9697   2.847   2.132   1.790  3.2199 -0.1858  0.2814
  109GLOH    C2 9698   2.937   2.144   1.983  0.1097  0.2152 -0.7096
  109GLOH   H04 9699   2.943   2.068   2.062 -1.4192 -0.3316 -1.0935
  109GLOH    O2 9700   3.069   2.137   1.933  0.3442 -0.9267 -0.0058
  109GLOH   H05 9701   3.129   2.075   1.979 -0.5101 -4.5436 -3.5332
  109GLOH    C3 9702   2.915   2.285   2.045  0.2353  0.5510 -0.0603
  109GLOH   H06 9703   2.877   2.342   1.960 -1.8379  0.8647  1.0362
  109GLOH   H07 9704   3.007   2.339   2.066 -1.1501  1.7842  3.1935
  109GLOH    O3 9705   2.822   2.295   2.153  0.2878  0.3442 -0.4434
  109GLOH   H01 9706   2.857   2.307   2.244 -1.7921  0.5910  0.3473
  110GLOH   H03 9707   3.654   2.008   0.519 -0.6601 -1.0389  1.5612
  110GLOH    O1 9708   3.741   1.976   0.488 -0.7198 -0.0079  0.2545
  110GLOH    C1 9709   3.814   1.947   0.612  0.0042 -0.0738 -0.0774
  110GLOH   H02 9710   3.759   1.889   0.686  0.3293  1.8111  1.7047
  110GLOH   H08 9711   3.849   2.036   0.664 -0.3795 -0.0474  0.1360
  110GLOH    C2 9712   3.938   1.869   0.582  0.0630 -0.1144  0.4714
  110GLOH   H04 9713   3.990   1.926   0.505 -1.3278 -1.6588 -1.6599
  110GLOH    O2 9714   4.018   1.859   0.702  0.3982  0.1587  0.4822
  110GLOH   H05 9715   3.964   1.801   0.759  0.7282 -1.1747 -0.5212
  110GLOH    C3 9716   3.913   1.729   0.522 -0.2061 -0.6915 -0.3918
  110GLOH   H06 9717   3.842   1.672   0.583 -1.1701  0.0291 -0.8257
  110GLOH   H07 9718   4.008   1.677   0.519  0.1444 -0.0657 -0.1347
  110GLOH    O3 9719   3.859   1.739   0.389 -0.0298 -0.1025  0.1291
  110GLOH   H01 9720   3.813   1.825   0.379  1.7010  0.6627 -1.5733
  111GLOH   H03 9721   3.063   2.672   2.901 -1.4801  2.4219  2.6964
  111GLOH    O1 9722   3.154   2.664   2.933 -0.4952  0.2057 -0.4451
  111GLOH    C1 9723   3.239   2.633   2.817 -0.2387  0.3822  0.1935
  111GLOH   H02 9724   3.201   2.538   2.777 -0.8297 -0.1416  1.9487
  111GLOH   H08 9725   3.344   2.627   2.844 -0.0328  3.4603  0.1916
  111GLOH    C2 9726   3.227   2.742   2.708 -0.0247  0.3528  0.3546
  111GLOH   H04 9727   3.312   2.742   2.639  1.1341  1.9887  1.7537
  111GLOH    O2 9728   3.117   2.719   2.615  0.1174  0.3497  0.3517
  111GLOH   H05 9729   3.131   2.634   2.569 -1.0266  0.6158 -0.5033
  111GLOH    C3 9730   3.215   2.884   2.761  0.5373  0.7398 -0.1748
  111GLOH   H06 9731   3.112   2.899   2.792  0.2719 -1.2534 -0.0101
  111GLOH   H07 9732   3.225   2.955   2.679  0.7754  1.9993  0.9200
  111GLOH    O3 9733   3.316   2.921   2.859  0.4180  0.2485 -0.2955
  111GLOH   H01 9734   3.284   2.882   2.942 -0.2315  0.3839 -0.4800
  112GLOH   H03 9735   5.024   3.273   1.792  0.2584 -0.3353  0.2498
  112GLOH    O1 9736   4.971   3.282   1.874 -0.4423  0.7857 -0.3222
  112GLOH    C1 9737   5.000   3.174   1.963 -0.1440  0.2534 -0.5802
  112GLOH   H02 9738   5.033   3.222   2.055 -0.5091 -0.2438 -0.1881
  112GLOH   H08 9739   5.079   3.111   1.922 -1.0742 -2.0562  1.1014
  112GLOH    C2 9740   4.886   3.074   1.997 -0.0041 -0.4498  0.0271
  112GLOH   H04 9741   4.868   3.005   1.914 -0.8214 -0.7806  0.4752
  112GLOH    O2 9742   4.928   2.987   2.111 -0.0193 -0.2767 -0.2403
  112GLOH   H05 9743   4.905   2.894   2.099  2.3480 -0.8934 -0.2924
  112GLOH    C3 9744   4.759   3.151   2.044 -0.2704 -0.3683 -0.6355
  112GLOH   H06 9745   4.780   3.202   2.138  0.0642 -1.5914 -0.0390
  112GLOH   H07 9746   4.688   3.071   2.061  0.9263 -1.1474  0.8487
  112GLOH    O3 9747   4.719   3.246   1.947 -0.2277 -0.4655  0.2385
  112GLOH   H01 9748   4.798   3.283   1.903 -1.0211 -0.1076 -0.8977
  113GLOH   H03 9749   4.524   2.425   1.982 -0.2481  2.4960 -2.1887
  113GLOH    O1 9750   4.511   2.486   2.058  0.2791  0.2903 -0.2681
  113GLOH    C1 9751   4.485   2.604   1.980  0.0484  0.1279 -0.1686
  113GLOH   H02 9752   4.386   2.597   1.936  0.3777  1.9472 -1.2458
  113GLOH   H08 9753   4.556   2.612   1.898 -1.4193  2.5427 -1.2766
  113GLOH    C2 9754   4.493   2.736   2.054  0.9937  0.4498  0.7429
  113GLOH   H04 9755   4.598   2.755   2.080  1.6599  0.8666 -2.1054
  113GLOH    O2 9756   4.446   2.847   1.968 -0.0355  0.1911 -0.3859
  113GLOH   H05 9757   4.451   2.936   2.008 -1.4102  0.9184 -1.7908
  113GLOH    C3 9758   4.407   2.728   2.183 -0.4805 -0.7521  0.2141
  113GLOH   H06 9759   4.299   2.739   2.170 -0.2633  1.9271  0.3047
  113GLOH   H07 9760   4.441   2.815   2.240  0.5847 -2.9691  3.1200
  113GLOH    O3 9761   4.432   2.607   2.260 -0.1454 -0.0651 -0.7709
  113GLOH   H01 9762   4.462   2.541   2.196  0.3434 -0.8614  0.2622
  114GLOH   H03 9763   4.827   3.632   0.210 -0.6528 -0.0537 -1.4048
  114GLOH    O1 9764   4.767   3.662   0.281  0.5308 -0.4120 -0.2123
  114GLOH    C1 9765   4.639   3.598   0.243  0.2184 -0.3113 -0.3267
  114GLOH   H02 9766   4.558   3.647   0.296  0.0468  0.3792 -1.2224
  114GLOH   H08 9767   4.641   3.494   0.276 -2.0008 -0.3776 -0.2874
  114GLOH    C2 9768   4.615   3.603   0.094  0.0340 -0.3910  0.1416
  114GLOH   H04 9769   4.515   3.560   0.077  1.0226 -3.2614  1.3140
  114GLOH    O2 9770   4.608   3.741   0.041  0.4573  0.2213  0.7739
  114GLOH   H05 9771   4.584   3.745  -0.054 -0.7459  0.1517  1.0689
  114GLOH    C3 9772   4.713   3.511   0.008 -0.4727  0.0254  0.4555
  114GLOH   H06 9773   4.702   3.530  -0.098  0.4380 -1.9235 -0.0157
  114GLOH   H07 9774   4.682   3.407   0.022  1.5682 -0.8040 -1.0141
  114GLOH    O3 9775   4.849   3.532   0.046  0.6069  0.2279 -0.2200
  114GLOH   H01 9776   4.903   3.557  -0.031  0.9340 -1.1819 -0.4688
  115GLOH   H03 9777   2.920   2.067   1.417 -1.0454 -0.6380 -1.3051
  115GLOH    O1 9778   2.882   2.156   1.415 -0.1669 -0.2199  0.2336
  115GLOH    C1 9779   2.996   2.245   1.430  0.0282  0.0781 -0.3590
  115GLOH   H02 9780   3.009   2.295   1.334  0.7099 -0.0893 -0.3564
  115GLOH   H08 9781   3.081   2.183   1.460  0.3571  0.2612 -0.9009
  115GLOH    C2 9782   2.961   2.344   1.542 -0.0746 -0.2282  0.2655
  115GLOH   H04 9783   2.934   2.295   1.637  1.2869 -0.9433  0.3107
  115GLOH    O2 9784   3.071   2.411   1.593  0.3063  0.2141  0.2940
  115GLOH   H05 9785   3.112   2.471   1.529 -1.0074  1.9478  1.0230
  115GLOH    C3 9786   2.838   2.427   1.488 -0.0029  0.0064 -0.3290
  115GLOH   H06 9787   2.820   2.510   1.555  0.9101  0.4265 -0.5951
  115GLOH   H07 9788   2.749   2.366   1.478  0.0297 -0.5637  2.5200
  115GLOH    O3 9789   2.861   2.493   1.363  0.2347 -0.0356  0.3878
  115GLOH   H01 9790   2.916   2.571   1.385  0.4656 -0.0522 -0.1094
  116GLOH   H03 9791   3.959   9.719   1.632 -3.1149  0.3552  1.1682
  116GLOH    O1 9792   3.939   9.624   1.619 -0.3985 -0.1207  0.1939
  116GLOH    C1 9793   3.883   9.606   1.485 -0.1828 -0.3501 -0.3168
  116GLOH   H02 9794   3.865   9.501   1.464 -0.1964 -0.8367  1.9502
  116GLOH   H08 9795   3.941   9.643   1.401  1.0986 -2.0308 -0.1970
  116GLOH    C2 9796   3.737   9.666   1.489 -0.2014 -0.1117  0.1532
  116GLOH   H04 9797   3.732   9.751   1.559 -2.7849 -1.2634  1.4079
  116GLOH    O2 9798   3.690   9.700   1.359  0.1090 -0.2280  0.5112
  116GLOH   H05 9799   3.595   9.718   1.351  0.2176 -0.4835 -1.7778
  116GLOH    C3 9800   3.648   9.563   1.547  0.0617 -0.2471 -0.4721
  116GLOH   H06 9801   3.634   9.482   1.475  1.1065  0.3576 -1.3763
  116GLOH   H07 9802   3.555   9.618   1.564  1.8973  3.0891 -0.8685
  116GLOH    O3 9803   3.688   9.527   1.673  0.2080  0.5896 -0.4670
  116GLOH   H01 9804   3.784   9.523   1.688  0.0869 -0.3460  0.1022
  117GLOH   H03 9805   3.804   2.682   0.752 -0.4443  0.9951  1.3253
  117GLOH    O1 9806   3.771   2.601   0.796 -0.3510 -0.0069 -0.3949
  117GLOH    C1 9807   3.857   2.491   0.763 -0.4188  0.6804  0.4936
  117GLOH   H02 9808   3.878   2.492   0.656 -2.1929 -3.2131  0.0233
  117GLOH   H08 9809   3.805   2.397   0.784  2.1598 -0.8279  0.3422
  117GLOH    C2 9810   3.994   2.501   0.847 -0.4479 -0.5050  0.0357
  117GLOH   H04 9811   3.961   2.542   0.944  0.1932  1.4432 -0.5507
  117GLOH    O2 9812   4.050   2.373   0.871 -0.1979 -0.3537 -0.3578
  117GLOH   H05 9813   4.001   2.320   0.936  0.8182  1.1878  1.7120
  117GLOH    C3 9814   4.094   2.594   0.776 -0.3860 -0.1877 -0.0982
  117GLOH   H06 9815   4.183   2.605   0.839 -0.6127 -2.1766  0.6005
  117GLOH   H07 9816   4.058   2.695   0.759 -0.6947 -0.6445 -2.3732
  117GLOH    O3 9817   4.145   2.536   0.654  0.9266  0.4787  0.3880
  117GLOH   H01 9818   4.159   2.441   0.671  0.6121  0.3440 -0.0826
  118GLOH   H03 9819   3.324   1.198   0.491 -0.7362  1.1591 -1.6881
  118GLOH    O1 9820   3.419   1.196   0.471 -0.4429 -0.8153 -0.2498
  118GLOH    C1 9821   3.430   1.122   0.345  0.1650  0.1220 -0.4503
  118GLOH   H02 9822   3.383   1.174   0.261 -2.4675  1.5017  1.7695
  118GLOH   H08 9823   3.388   1.021   0.347  0.1365  0.1370  1.9245
  118GLOH    C2 9824   3.571   1.093   0.310  0.2017  0.0736 -0.1088
  118GLOH   H04 9825   3.624   1.023   0.377  0.7421  2.8818  2.4948
  118GLOH    O2 9826   3.565   1.029   0.183 -0.1605 -0.0349 -0.6476
  118GLOH   H05 9827   3.485   0.974   0.176 -1.1734  1.5702 -1.8219
  118GLOH    C3 9828   3.654   1.228   0.298 -0.6901 -0.6072  0.6221
  118GLOH   H06 9829   3.617   1.287   0.215 -2.9124 -2.1454  0.4725
  118GLOH   H07 9830   3.756   1.199   0.274 -0.2857  0.7346  0.6941
  118GLOH    O3 9831   3.658   1.301   0.423 -0.4638 -0.4767  0.7846
  118GLOH   H01 9832   3.567   1.303   0.458 -1.1285 -2.2062 -0.7427
  119GLOH   H03 9833   3.636   2.538   0.774  0.8284 -1.3392 -2.5107
  119GLOH    O1 9834   3.551   2.492   0.768  0.1667 -0.4289 -0.4291
  119GLOH    C1 9835   3.478   2.518   0.893 -0.2753  0.1799 -0.3626
  119GLOH   H02 9836   3.451   2.624   0.888  0.4601  0.3769 -0.1738
  119GLOH   H08 9837   3.544   2.506   0.979 -0.5758  1.8013  0.1118
  119GLOH    C2 9838   3.352   2.437   0.914  0.0409  0.8095  0.3248
  119GLOH   H04 9839   3.322   2.468   1.015  1.4004  1.8192  0.4430
  119GLOH    O2 9840   3.245   2.473   0.826 -0.2925  0.8497 -0.1543
  119GLOH   H05 9841   3.245   2.567   0.801  0.2694  0.5600 -1.3073
  119GLOH    C3 9842   3.380   2.294   0.919 -0.2960  0.5784  0.1120
  119GLOH   H06 9843   3.428   2.255   0.829 -0.9923 -1.3387  0.5536
  119GLOH   H07 9844   3.288   2.239   0.934 -0.1288  0.4081  0.5091
  119GLOH    O3 9845   3.461   2.261   1.031 -0.4721 -0.2622 -0.0785
  119GLOH   H01 9846   3.401   2.247   1.107  1.5238 -0.6799  1.4893
  120GLOH   H03 9847   4.728   3.023   1.692 -0.3893 -0.7100  0.5397
  120GLOH    O1 9848   4.808   2.972   1.668  0.0906  0.3765 -0.2192
  120GLOH    C1 9849   4.787   2.844   1.736 -0.3114 -0.0590 -0.8964
  120GLOH   H02 9850   4.695   2.835   1.794 -0.5233 -1.2067 -1.3842
  120GLOH   H08 9851   4.874   2.822   1.799 -1.1287 -0.6096  0.0526
  120GLOH    C2 9852   4.773   2.727   1.635 -0.6432  0.0524 -0.4458
  120GLOH   H04 9853   4.857   2.728   1.565 -1.1300  0.1644 -1.0329
  120GLOH    O2 9854   4.768   2.599   1.701  0.2842  0.0572  0.1849
  120GLOH   H05 9855   4.732   2.534   1.639 -1.3925 -1.0378  2.2417
  120GLOH    C3 9856   4.659   2.759   1.545  0.3067  0.2590  0.3743
  120GLOH   H06 9857   4.675   2.855   1.497 -2.0398  1.8618  2.6557
  120GLOH   H07 9858   4.570   2.778   1.605  0.8963  0.1319  1.3116
  120GLOH    O3 9859   4.627   2.665   1.441  0.6070 -0.2731 -0.0211
  120GLOH   H01 9860   4.543   2.695   1.402 -0.1609 -1.0099  1.0415
  121ACOH    H4 9861   4.805   3.759   0.381  0.8544 -0.5321 -0.4688
  121ACOH    O2 9862   4.840   3.809   0.456  0.4357  0.1807 -0.7419
  121ACOH    C2 9863   4.762   3.769   0.558  0.5214 -0.0960 -0.3408
  121ACOH    O1 9864   4.651   3.729   0.546  0.5727  0.6739  0.5374
  121ACOH    C1 9865   4.819   3.811   0.690  0.0671  0.6102  0.3325
  121ACOH    H1 9866   4.922   3.777   0.700  0.2962  0.7662 -1.2759
  121ACOH    H2 9867   4.766   3.764   0.772 -0.4172  0.9147  0.1933
  121ACOH    H3 9868   4.816   3.919   0.704  1.8048  0.7131  0.0035
  122ACOH    H4 9869   5.065   3.814   1.609  0.0611  1.7493 -0.6738
  122ACOH    O2 9870   5.161   3.814   1.595  0.2078 -0.0852  0.2159
  122ACOH    C2 9871   5.227   3.807   1.710 -0.2122 -0.6398  0.1391
  122ACOH    O1 9872   5.184   3.865   1.809 -0.6171  0.7164 -0.2546
  122ACOH    C1 9873   5.376   3.803   1.686  0.2619 -0.0241  0.4109
  122ACOH    H1 9874   5.380   3.767   1.583 -2.2776 -0.9438  0.5905
  122ACOH    H2 9875   5.434   3.747   1.759 -0.2017  2.6504  2.9200
  122ACOH    H3 9876   5.410   3.906   1.680  2.0224 -0.4385  2.6754
  123ACOH    H4 9877   2.621   8.830   0.116  0.3967 -0.4465 -1.0970
  123ACOH    O2 9878   2.555   8.762   0.136  0.8781 -0.4209  0.6182
  123ACOH    C2 9879   2.560   8.730   0.269  0.0074  0.2677 -0.5548
  123ACOH    O1 9880   2.650   8.756   0.346  0.5563 -0.8893  0.4474
  123ACOH    C1 9881   2.470   8.622   0.305  0.4187  0.1022 -0.7602
  123ACOH    H1 9882   2.501   8.567   0.394  0.0123  1.2642  0.1016
  123ACOH    H2 9883   2.465   8.545   0.227 -0.7386 -0.0727 -0.5157
  123ACOH    H3 9884   2.369   8.658   0.322  0.5513  0.0316  0.1844
  125ACOH    H4 9885   3.488   8.623   1.201 -0.2297 -0.4829  0.4664
  125ACOH    O2 9886   3.580   8.591   1.200 -0.0967 -0.1039  0.6178
  125ACOH    C2 9887   3.578   8.460   1.170  0.6038  0.0787 -0.0832
  125ACOH    O1 9888   3.484   8.382   1.152  0.4060 -0.2188  0.4806
  125ACOH    C1 9889   3.722   8.406   1.173  0.0424 -0.8721 -0.0385
  125ACOH    H1 9890   3.791   8.486   1.202 -0.1855 -0.5235 -0.4458
  125ACOH    H2 9891   3.753   8.369   1.075  0.5065  3.2773 -1.5944
  125ACOH    H3 9892   3.734   8.332   1.252 -0.5678 -0.3176  0.5800
  126ACOH    H4 9893   4.571   3.013   1.127 -0.7838  0.9347  1.0811
  126ACOH    O2 9894   4.655   3.040   1.169  0.6283 -1.2057 -0.2632
  126ACOH    C2 9895   4.642   3.146   1.248 -0.4615 -0.0921  0.3931
  126ACOH    O1 9896   4.543   3.222   1.255  0.2631 -0.0916  0.1321
  126ACOH    C1 9897   4.765   3.170   1.325 -0.1868 -0.0717  0.4359
  126ACOH    H1 9898   4.788   3.276   1.336 -1.9219  0.6115 -1.9861
  126ACOH    H2 9899   4.854   3.123   1.283 -1.9904 -3.3327  0.0482
  126ACOH    H3 9900   4.760   3.124   1.423  0.8192 -1.1509 -0.0017
  127ACOH    H4 9901   4.265   4.118   2.787 -0.2498 -0.2841 -0.0543
  127ACOH    O2 9902   4.186   4.172   2.803 -0.0492 -0.0131  0.0229
  127ACOH    C2 9903   4.173   4.254   2.694  0.3026  0.4717  0.9628
  127ACOH    O1 9904   4.264   4.280   2.619 -0.2007 -0.2545 -0.7529
  127ACOH    C1 9905   4.055   4.336   2.715  0.0810  0.4856 -0.7931
  127ACOH    H1 9906   3.966   4.281   2.683  0.2613  0.5388 -1.3992
  127ACOH    H2 9907   4.056   4.428   2.656 -0.9552 -2.1589 -5.1325
  127ACOH    H3 9908   4.041   4.352   2.822  1.2581  1.1801 -0.7422
  128ACOH    H4 9909   4.376   0.856   1.711  2.6269  1.1008  1.1034
  128ACOH    O2 9910   4.411   0.774   1.674 -0.7603  0.0089  0.1685
  128ACOH    C2 9911   4.433   0.678   1.765  0.9290  0.1070  0.2613
  128ACOH    O1 9912   4.426   0.695   1.882 -0.2204 -0.9370 -0.0660
  128ACOH    C1 9913   4.514   0.568   1.707 -0.7021 -0.6374  0.8803
  128ACOH    H1 9914   4.474   0.467   1.715 -1.2480 -0.5594 -0.6695
  128ACOH    H2 9915   4.616   0.575   1.742  0.5901  0.2754 -2.8464
  128ACOH    H3 9916   4.528   0.580   1.599  0.0427  2.2106  1.2514
  130ACOH    H4 9917   4.524   3.287   0.379  4.3452  1.3085 -0.6060
  130ACOH    O2 9918   4.532   3.273   0.475  0.2783  0.3252 -0.3032
  130ACOH    C2 9919   4.501   3.385   0.534  0.3762 -0.3796 -0.3547
  130ACOH    O1 9920   4.434   3.477   0.494 -0.0104  0.1475 -0.6473
  130ACOH    C1 9921   4.563   3.392   0.671  0.6014  0.4981  0.1860
  130ACOH    H1 9922   4.613   3.299   0.698 -1.3383 -0.1554  1.6583
  130ACOH    H2 9923   4.477   3.403   0.738  0.2770  1.3377 -0.3593
  130ACOH    H3 9924   4.633   3.475   0.677  0.6237  0.6713 -1.8893
  131ACOH    H4 9925   4.245   1.119   0.530  0.4203 -1.5068 -0.3259
  131ACOH    O2 9926   4.330   1.164   0.542 -0.3337 -0.1467  0.0941
  131ACOH    C2 9927   4.368   1.200   0.419 -0.3893 -0.1663  0.1322
  131ACOH    O1 9928   4.308   1.183   0.314  0.1806  0.0067  0.0517
  131ACOH    C1 9929   4.487   1.294   0.414 -0.1311  0.2023 -0.7221
  131ACOH    H1 9930   4.481   1.371   0.492  1.3223 -0.3296 -0.0806
  131ACOH    H2 9931   4.501   1.342   0.317 -0.8291  2.7082  0.3487
  131ACOH    H3 9932   4.575   1.235   0.434  0.0272 -0.7223 -3.8704
  132ACOH    H4 9933   3.979   8.955   2.226 -0.2523 -0.2656  1.3306
  132ACOH    O2 9934   4.054   9.017   2.222 -0.4651 -0.0849  0.1094
  132ACOH    C2 9935   4.011   9.134   2.181 -0.8239 -0.3273 -0.7620
  132ACOH    O1 9936   3.891   9.160   2.154 -0.1083 -0.4768  0.2520
  132ACOH    C1 9937   4.124   9.226   2.167 -0.0582  0.1720  0.3643
  132ACOH    H1 9938   4.095   9.328   2.144 -0.3119  0.2494  1.0322
  132ACOH    H2 9939   4.184   9.195   2.081 -1.0372  3.6906 -1.6678
  132ACOH    H3 9940   4.186   9.226   2.257  2.5240  2.7748 -1.3148
  133ACOH    H4 9941   4.339   0.672   1.365  0.1482  0.3044  0.0010
  133ACOH    O2 9942   4.334   0.576   1.376  0.1755  0.3499  0.4210
  133ACOH    C2 9943   4.316   0.516   1.264 -0.2839 -0.1357  0.0655
  133ACOH    O1 9944   4.296   0.565   1.153  0.3856  0.3483 -0.4598
  133ACOH    C1 9945   4.290   0.373   1.292  0.7496  0.6456  0.8584
  133ACOH    H1 9946   4.373   0.353   1.359  1.5010 -2.8376 -0.9903
  133ACOH    H2 9947   4.307   0.312   1.203  2.5017  0.3604  1.3631
  133ACOH    H3 9948   4.193   0.356   1.337 -0.1147  2.7254 -0.1466
  135ACOH    H4 9949   4.925   2.971   1.560 -0.2510  0.2465 -0.3736
  135ACOH    O2 9950   4.998   2.980   1.496 -0.0674  0.2499 -0.1625
  135ACOH    C2 9951   5.035   3.103   1.495  0.6814  0.6296  0.0496
  135ACOH    O1 9952   5.023   3.185   1.582 -0.5673 -0.4142 -0.0583
  135ACOH    C1 9953   5.126   3.127   1.386  0.0569 -0.1350  0.0427
  135ACOH    H1 9954   5.171   3.226   1.394 -1.7242  0.8831 -1.9036
  135ACOH    H2 9955   5.073   3.125   1.290  1.2950  0.4869 -0.6609
  135ACOH    H3 9956   5.211   3.059   1.384  1.2819  1.3921 -2.4032
  136ACOH    H4 9957   3.866   0.657   0.491 -0.4846  1.8872 -0.9013
  136ACOH    O2 9958   3.913   0.630   0.410 -0.4932 -0.0152 -0.3066
  136ACOH    C2 9959   3.937   0.745   0.348 -0.0805 -0.0985  0.1554
  136ACOH    O1 9960   3.955   0.853   0.406 -0.0247  0.1080  0.5909
  136ACOH    C1 9961   3.978   0.723   0.206  0.1821  0.0440 -0.3456
  136ACOH    H1 9962   3.966   0.618   0.178 -1.5420  0.1343  0.0129
  136ACOH    H2 9963   4.085   0.741   0.194  0.1688 -0.3690 -1.1157
  136ACOH    H3 9964   3.927   0.794   0.140 -0.3517  1.2565  1.3232
  137ACOH    H4 9965   3.689   9.982   1.085 -0.1559  0.5205 -1.5995
  137ACOH    O2 9966   3.665   9.891   1.059 -0.4133 -0.0400  0.5308
  137ACOH    C2 9967   3.737   9.869   0.951  0.5902  0.3096 -0.7222
  137ACOH    O1 9968   3.811   9.941   0.885 -1.5764 -0.0874  0.3775
  137ACOH    C1 9969   3.703   9.726   0.911 -0.3158  0.5979 -0.3218
  137ACOH    H1 9970   3.744   9.670   0.995 -1.1601  0.8189  0.2437
  137ACOH    H2 9971   3.757   9.703   0.820  1.2087 -1.5517  1.0962
  137ACOH    H3 9972   3.596   9.719   0.892 -1.0124  1.2536  3.0465
  138ACOH    H4 9973   3.155   8.805   1.159 -1.5235  0.7598  0.5491
  138ACOH    O2 9974   3.104   8.725   1.180 -0.2411 -0.1872  0.0848
  138ACOH    C2 9975   3.189   8.637   1.236  0.5388 -1.2682  0.8595
  138ACOH    O1 9976   3.308   8.650   1.240 -0.3424  0.1271  0.1356
  138ACOH    C1 9977   3.121   8.511   1.276  0.1941  0.5912  0.0205
  138ACOH    H1 9978   3.023   8.542   1.312  0.0859 -0.4882  0.6718
  138ACOH    H2 9979   3.184   8.468   1.355 -1.4509 -0.4383  0.7971
  138ACOH    H3 9980   3.129   8.439   1.195  1.5706  0.0990  0.5637
  139ACOH    H4 9981   4.021   4.307   1.098  0.5165  1.0412 -1.9680
  139ACOH    O2 9982   4.026   4.389   1.151  0.2368 -0.3420  0.2855
  139ACOH    C2 9983   3.917   4.413   1.221 -0.2940 -0.2073 -0.0073
  139ACOH    O1 9984   3.827   4.334   1.248 -0.0438  0.4493 -0.6164
  139ACOH    C1 9985   3.930   4.547   1.286  0.4103  0.6931 -0.0622
  139ACOH    H1 9986   3.878   4.622   1.227  2.2190  0.6221 -1.7915
  139ACOH    H2 9987   4.035   4.575   1.292  0.7557 -1.0681  2.9984
  139ACOH    H3 9988   3.891   4.539   1.388  1.3939  0.6019  0.3115
  140ACOH    H4 9989   3.797   4.144   0.586 -0.3264 -0.3787  0.3605
  140ACOH    O2 9990   3.706   4.132   0.619 -0.4999 -0.1619 -0.0373
  140ACOH    C2 9991   3.632   4.160   0.515 -0.1426 -0.4635 -0.4738
  140ACOH    O1 9992   3.669   4.181   0.400 -0.1223  0.0684 -0.0182
  140ACOH    C1 9993   3.486   4.158   0.536  0.4996  0.4727  0.1545
  140ACOH    H1 9994   3.475   4.130   0.641  2.4276 -0.8900  0.0112
  140ACOH    H2 9995   3.429   4.083   0.482 -0.5728  0.6916  0.9789
  140ACOH    H3 9996   3.449   4.260   0.525  0.3767  0.3728 -0.3509
  142ACOH    H4 9997   3.251   8.603   0.388  0.7087  0.9419  1.2409
  142ACOH    O2 9998   3.316   8.532   0.400 -0.2315 -0.1420 -0.0274
  142ACOH    C2 9999   3.420   8.570   0.323 -0.6093  0.0915  0.2068
  142ACOH    O110000   3.425   8.674   0.258  0.0185  0.2720  0.0804
  142ACOH    C110001   3.539   8.486   0.337 -0.2136  0.2187  0.0687
  142ACOH    H110002   3.527   8.381   0.310  1.8634 -0.1261  0.4444
  142ACOH    H210003   3.575   8.491   0.440 -1.5464  0.4551  0.5345
  142ACOH    H310004   3.619   8.521   0.273 -0.4924  1.0540  0.1753
  143ACOH    H410005   4.793   2.555   1.857 -0.0137 -0.1659  0.5050
  143ACOH    O210006   4.793   2.500   1.937  0.1997  0.1186  0.7022
  143ACOH    C210007   4.830   2.584   2.039 -0.7358 -0.3056 -0.1848
  143ACOH    O110008   4.862   2.700   2.027  0.6594  0.2031  0.0091
  143ACOH    C110009   4.815   2.511   2.169  0.4294  0.2557  0.1949
  143ACOH    H110010   4.712   2.516   2.204  0.5413 -2.3847  1.0139
  143ACOH    H210011   4.874   2.549   2.252  0.1128  0.3537  0.3743
  143ACOH    H310012   4.837   2.405   2.153  1.8129  0.4117  1.0600
  144ACOH    H410013   2.731   2.154   1.465  0.3347 -0.5443 -0.6602
  144ACOH    O210014   2.650   2.119   1.508  0.3742  0.2446  0.0647
  144ACOH    C210015   2.572   2.083   1.405 -0.6301 -0.8677  0.3619
  144ACOH    O110016   2.613   2.075   1.288  0.5529 -0.4023  0.3964
  144ACOH    C110017   2.439   2.024   1.447 -0.3842  0.3346 -0.4135
  144ACOH    H110018   2.447   1.961   1.535  0.6330 -0.9245 -1.3910
  144ACOH    H210019   2.403   1.965   1.363  0.3600 -2.5088  1.1978
  144ACOH    H310020   2.370   2.108   1.457 -2.4049 -1.5508  1.8065
  145ACOH    H410021   3.793   9.751   1.266 -0.4957 -0.7648 -0.9084
  145ACOH    O210022   3.871   9.764   1.210 -0.0801 -0.5720 -0.2957
  145ACOH    C210023   3.935   9.873   1.250 -0.4542 -0.0329  0.7755
  145ACOH    O110024   3.944   9.908   1.364  0.0326 -0.6118  0.3619
  145ACOH    C110025   4.043   9.908   1.153 -0.0769  0.4096  0.0350
  145ACOH    H110026   4.139   9.877   1.196 -2.0437 -3.9643  1.5940
  145ACOH    H210027   4.038  10.014   1.128 -2.0665  0.0953 -0.9927
  145ACOH    H310028   4.034   9.845   1.064 -0.2676  0.2247  0.1859
  146ACOH    H410029   4.411   1.411   0.816 -0.4046 -0.7593 -0.9736
  146ACOH    O210030   4.488   1.373   0.770  0.5070  0.3429 -0.3949
  146ACOH    C210031   4.494   1.241   0.815  0.3092 -0.4244 -0.0709
  146ACOH    O110032   4.406   1.175   0.863  0.0131  0.3147 -0.3093
  146ACOH    C110033   4.620   1.172   0.775 -0.1065 -1.3489 -0.1591
  146ACOH    H110034   4.673   1.250   0.719  0.5742 -1.4127  0.3813
  146ACOH    H210035   4.607   1.087   0.709  0.2875 -2.8543  1.6821
  146ACOH    H310036   4.683   1.147   0.861  1.4171  0.2128 -0.7847
  147ACOH    H410037   2.377   1.153   0.506 -0.6628 -1.3034 -0.8524
  147ACOH    O210038   2.308   1.220   0.516  0.0067 -0.7545  0.2159
  147ACOH    C210039   2.331   1.292   0.627  0.5700 -0.7023 -0.2347
  147ACOH    O110040   2.410   1.268   0.719 -0.2852 -0.2716 -0.4186
  147ACOH    C110041   2.235   1.406   0.637  0.4190 -1.2248 -0.0349
  147ACOH    H110042   2.267   1.483   0.567  1.4529  0.2364  2.0143
  147ACOH    H210043   2.246   1.446   0.738 -0.8368  3.9697 -1.8391
  147ACOH    H310044   2.133   1.373   0.617  0.0519 -1.4956  2.1466
  148ACOH    H410045   4.246   1.043   2.941 -0.0275 -0.4000  0.7066
  148ACOH    O210046   4.249   0.960   2.891  0.8612  0.0053  0.0560
  148ACOH    C210047   4.172   0.975   2.783 -0.4424  0.3022 -0.2735
  148ACOH    O110048   4.092   1.060   2.766  0.3534 -0.2268  0.2845
  148ACOH    C110049   4.196   0.866   2.684  0.1397  0.0191 -0.4203
  148ACOH    H110050   4.106   0.846   2.625  0.9345 -3.2907 -0.6083
  148ACOH    H210051   4.224   0.776   2.739  0.6126  0.3225 -0.1637
  148ACOH    H310052   4.271   0.890   2.610 -0.5053 -0.4959 -1.2604
  149ACOH    H410053   4.629   3.335   0.951  2.4851 -3.5850  2.8810
  149ACOH    O210054   4.711   3.382   0.930 -0.2266  0.1980 -0.0232
  149ACOH    C210055   4.755   3.465   1.025 -0.1109  0.5054  0.0146
  149ACOH    O110056   4.713   3.485   1.141 -0.1020  0.3357 -0.3132
  149ACOH    C110057   4.873   3.532   0.972  0.0725  0.0090 -0.3325
  149ACOH    H110058   4.867   3.555   0.866  1.1529 -2.1906 -0.8991
  149ACOH    H210059   4.958   3.469   0.997 -0.1761  0.8346  2.8535
  149ACOH    H310060   4.880   3.631   1.019  2.9805 -0.3789  0.1373
  150ACOH    H410061   3.922   0.068   0.861  0.5876 -1.3191  2.5252
  150ACOH    O210062   3.977   0.148   0.872 -0.1803 -0.3738 -0.2116
  150ACOH    C210063   3.945   0.223   0.764  0.5451  0.0087 -0.0597
  150ACOH    O110064   3.845   0.209   0.696 -0.4284 -0.2872  0.8188
  150ACOH    C110065   4.016   0.352   0.762  0.3240  0.0643  0.8654
  150ACOH    H110066   3.958   0.444   0.772 -0.4593 -0.0292 -2.4189
  150ACOH    H210067   4.066   0.355   0.665 -0.3144  4.2006  0.5605
  150ACOH    H310068   4.097   0.356   0.835  0.2480  0.6287  0.9209
  152SOL     OW10069   3.063   0.370   0.837 -0.0758 -0.2360  0.3244
  152SOL    HW110070   3.132   0.416   0.891 -0.3387 -0.3015  0.7173
  152SOL    HW210071   2.999   0.322   0.897 -1.2366  0.9057  0.0314
  156SOL     OW10072   2.918   2.046   0.619  0.5606 -0.4040  0.0854
  156SOL    HW110073   2.849   2.067   0.688  0.0323 -0.1463 -0.5224
  156SOL    HW210074   2.904   2.102   0.538  2.3089  0.6419  0.4758
  157SOL     OW10075   3.554   4.089   1.607  0.4791 -0.1087  0.1793
  157SOL    HW110076   3.490   4.035   1.553  1.6818 -1.0462 -0.3238
  157SOL    HW210077   3.623   4.130   1.547  1.6334 -0.8891  0.9467
  158SOL     OW10078   3.323   9.460   1.345  0.2790  0.0049  0.9675
  158SOL    HW110079   3.315   9.396   1.422 -0.4168  1.0683  1.7908
  158SOL    HW210080   3.353   9.549   1.379 -0.1993  0.5248  0.0302
  159SOL     OW10081   2.586   1.990   1.760 -0.1408  0.1479 -0.3655
  159SOL    HW110082   2.603   2.028   1.669  3.7986  1.7794  0.9305
  159SOL    HW210083   2.527   2.052   1.811 -0.5191  0.3512 -1.0353
  160SOL     OW10084   2.717   0.149   1.020  0.0962 -0.0234 -0.5978
  160SOL    HW110085   2.694   0.217   0.951 -1.1831  0.4910  0.3337
  160SOL    HW210086   2.704   0.187   1.111  1.2034 -0.8972 -0.0600
  161SOL     OW10087   3.901   2.193   0.443  0.1561 -0.0970 -0.5517
  161SOL    HW110088   3.849   2.278   0.451  1.1211  0.4242  0.3839
  161SOL    HW210089   3.845   2.116   0.475 -0.6199  0.2148 -1.1364
  162SOL     OW10090   3.362   9.448   1.068  0.6797  0.1280 -0.0393
  162SOL    HW110091   3.332   9.467   1.161  0.9232 -0.8401  0.2538
  162SOL    HW210092   3.344   9.526   1.010  2.1022  1.4215  1.2015
  163SOL     OW10093   3.148   0.760   0.919 -0.0740 -0.3487  0.0496
  163SOL    HW110094   3.121   0.689   0.853  2.0439 -0.8345 -0.3304
  163SOL    HW210095   3.137   0.850   0.876  0.7075 -0.6351 -0.7903
  166SOL     OW10096   3.410   8.939   1.325  0.1389 -0.3336  0.6738
  166SOL    HW110097   3.487   8.946   1.261 -0.2027 -0.6083  0.2320
  166SOL    HW210098   3.325   8.959   1.277  0.0124  0.7797  1.3525
  167SOL     OW10099   3.555   3.643   1.705 -0.2507 -0.3510  0.2069
  167SOL    HW110100   3.628   3.703   1.735  1.3527 -1.6788 -0.9175
  167SOL    HW210101   3.587   3.548   1.706 -1.0173 -0.7122 -2.8877
  169SOL     OW10102   2.419   1.838   0.470  0.0893 -0.1398 -0.2373
  169SOL    HW110103   2.500   1.852   0.414  0.0002 -0.3810 -0.4265
  169SOL    HW210104   2.358   1.917   0.461  0.5213  0.2538  0.2744
  172SOL     OW10105   2.824   1.074   1.047 -0.2215 -0.5221 -0.0627
  172SOL    HW110106   2.875   1.008   1.103  0.1307 -1.0351 -0.9860
  172SOL    HW210107   2.815   1.160   1.098  1.2900 -0.5294  0.2614
  173SOL     OW10108   3.140   1.186   0.259 -0.4882 -0.4329 -0.2156
  173SOL    HW110109   3.170   1.238   0.178 -0.2930 -0.6233 -0.2666
  173SOL    HW210110   3.113   1.094   0.231 -3.4397  0.4690 -0.5412
  174SOL     OW10111   3.486   9.767   0.656 -0.3506  0.0889  0.4932
  174SOL    HW110112   3.477   9.826   0.736 -0.9564 -1.1190  1.3452
  174SOL    HW210113   3.400   9.718   0.642  0.0343 -0.3405 -0.3984
  175SOL     OW10114   3.087   1.534   1.181 -1.0167  0.2547  0.3924
  175SOL    HW110115   3.168   1.517   1.125 -0.8128  1.0162  0.4445
  175SOL    HW210116   3.076   1.461   1.248 -0.9406 -0.3709 -0.2709
  177SOL     OW10117   3.143   0.382   1.650  0.0946  0.0587  0.0376
  177SOL    HW110118   3.049   0.382   1.616  0.0607 -0.1969  0.1316
  177SOL    HW210119   3.181   0.474   1.642 -0.0481  0.0850 -0.3212
  179SOL     OW10120   5.062   3.969   2.030  0.5414  0.1853  0.3744
  179SOL    HW110121   5.095   3.930   1.944  0.3134  0.0704  0.3393
  179SOL    HW210122   5.062   4.069   2.023 -2.5061  0.1380 -0.9051
  180SOL     OW10123   3.374   0.462   0.938 -0.5662  0.2818 -0.4180
  180SOL    HW110124   3.376   0.525   1.016  0.7237  0.4679 -0.5942
  180SOL    HW210125   3.439   0.388   0.953 -0.7715 -0.0272 -1.0306
  181SOL     OW10126   4.363   2.214   1.210 -0.1435 -0.4021  0.4212
  181SOL    HW110127   4.440   2.221   1.274 -0.0578 -1.3199  0.4273
  181SOL    HW210128   4.329   2.305   1.189  2.4829  0.2012 -1.4454
  183SOL     OW10129   3.717   1.421   1.252 -0.1479 -0.1416  0.3200
  183SOL    HW110130   3.674   1.347   1.201 -1.7760  1.0178 -0.0533
  183SOL    HW210131   3.670   1.433   1.340 -0.7903  1.3239 -0.2096
  184SOL     OW10132   3.465   1.621   0.548 -0.2282  0.1873 -0.8091
  184SOL    HW110133   3.466   1.611   0.647  1.2049 -0.0593 -0.8411
  184SOL    HW210134   3.559   1.631   0.514 -0.7351  0.6918 -2.0935
  185SOL     OW10135   4.361   1.675   1.226  0.1312  0.0791 -0.5375
  185SOL    HW110136   4.414   1.591   1.236 -3.6581 -2.7543 -2.6793
  185SOL    HW210137   4.362   1.705   1.131 -1.6190  0.2583 -0.5230
  186SOL     OW10138   2.431   0.620   1.138  0.0727 -0.1695 -0.2091
  186SOL    HW110139   2.467   0.609   1.045 -0.2509 -1.4954 -0.1800
  186SOL    HW210140   2.379   0.705   1.143  2.3461  1.2977 -0.5227
  187SOL     OW10141   3.600   1.482   1.500 -0.6631  0.2035  0.3424
  187SOL    HW110142   3.623   1.557   1.561 -0.6156  0.0109  0.5608
  187SOL    HW210143   3.549   1.412   1.550 -1.0172  0.2544  0.0526
  188SOL     OW10144   3.656   1.666   1.688 -0.5157 -0.1050  0.1544
  188SOL    HW110145   3.756   1.672   1.695 -0.5255 -0.2702  0.4320
  188SOL    HW210146   3.615   1.680   1.778 -0.6451 -1.9663  0.3904
  189SOL     OW10147   3.332   3.934   0.143 -0.2415  0.2973  0.8075
  189SOL    HW110148   3.421   3.966   0.174 -1.0473  1.8234  1.6185
  189SOL    HW210149   3.318   3.961   0.048  0.3607 -0.4006  0.5142
  190SOL     OW10150   3.318   3.406   0.592 -0.4506 -0.3008 -0.0924
  190SOL    HW110151   3.391   3.401   0.660 -0.2466 -3.0318 -0.4733
  190SOL    HW210152   3.347   3.465   0.517  0.4614  0.4076  0.7950
  191SOL     OW10153   4.020   3.844   2.127 -0.4342 -0.3311 -0.0115
  191SOL    HW110154   3.946   3.887   2.179 -0.8535 -0.4728 -0.4857
  191SOL    HW210155   4.006   3.745   2.124  1.5589 -0.7491  2.7182
  194SOL     OW10156   3.118   2.652   2.012 -0.2896  0.1915  0.0410
  194SOL    HW110157   3.115   2.633   2.111  0.6497 -1.0431 -0.1530
  194SOL    HW210158   3.129   2.566   1.963  0.0769  0.8918 -1.1050
  195SOL     OW10159   3.175  -0.036   1.687  0.2091  0.0879 -1.1536
  195SOL    HW110160   3.249  -0.075   1.633  1.8110  2.8858 -1.1165
  195SOL    HW210161   3.117   0.021   1.628  0.0869  0.5917 -0.5583
  196SOL     OW10162   2.628   2.129   2.123  0.3799 -0.4671  0.1058
  196SOL    HW110163   2.699   2.198   2.139  1.5730 -1.5226 -0.6227
  196SOL    HW210164   2.663   2.038   2.147 -0.7023 -1.0066 -0.3345
  197SOL     OW10165   3.075   1.677   0.814 -0.1407 -0.1252 -0.0935
  197SOL    HW110166   2.983   1.664   0.850 -1.3630  0.4131 -2.8639
  197SOL    HW210167   3.129   1.594   0.830 -2.2393 -1.8311 -1.5369
  198SOL     OW10168   4.451   1.419   2.206  0.6341  0.3900  0.5099
  198SOL    HW110169   4.446   1.332   2.158 -1.1276 -0.4399  2.1537
  198SOL    HW210170   4.405   1.490   2.153  0.9641  0.0452 -0.2322
  199SOL     OW10171   2.292   0.865   1.208 -0.0890 -0.1715  0.1232
  199SOL    HW110172   2.364   0.901   1.266 -1.1499  0.3479  1.1409
  199SOL    HW210173   2.225   0.937   1.189 -0.9162 -0.9388  0.1106
  200SOL     OW10174   3.353   0.886   0.738  0.0183  0.4203  0.0951
  200SOL    HW110175   3.333   0.788   0.727  1.3313  0.1021  0.5136
  200SOL    HW210176   3.272   0.939   0.712 -0.2475 -0.7113 -1.4765
  202SOL     OW10177   3.492   2.768   0.364  0.3132 -0.5961 -0.0658
  202SOL    HW110178   3.495   2.677   0.404  0.4254 -1.7023 -2.5170
  202SOL    HW210179   3.403   2.810   0.382  0.2393 -1.2015  1.0188
  203SOL     OW10180   3.993   2.748   1.499  0.2750 -0.0057 -0.0942
  203SOL    HW110181   4.005   2.674   1.564 -0.5679 -1.6623 -1.7890
  203SOL    HW210182   4.083   2.781   1.469  0.6711 -2.5444 -1.7836
  204SOL     OW10183   3.603   2.880   0.852 -0.0794  0.7807  0.4628
  204SOL    HW110184   3.586   2.950   0.783  0.9841  1.0003  0.4054
  204SOL    HW210185   3.692   2.837   0.834 -0.8245 -0.7373  0.3716
  206SOL     OW10186   2.559   9.375   0.772 -0.3278 -0.2177 -0.2516
  206SOL    HW110187   2.482   9.349   0.714  1.1036 -0.0742 -2.2502
  206SOL    HW210188   2.613   9.446   0.727  0.6627  0.0924  1.3757
  207SOL     OW10189   2.711   0.250   1.327 -0.0751  0.6097  0.2322
  207SOL    HW110190   2.786   0.289   1.381 -1.0088  1.0097  1.2509
  207SOL    HW210191   2.708   0.151   1.342  2.6037 -0.0079 -2.7306
  210SOL     OW10192   3.461   8.898   1.930 -0.2162 -0.1350 -0.6813
  210SOL    HW110193   3.382   8.854   1.887 -1.1128  2.8775 -2.2819
  210SOL    HW210194   3.532   8.913   1.861  0.1858  0.6381 -0.1057
  211SOL     OW10195   2.279   1.498   1.905 -0.7215 -0.1308 -0.6909
  211SOL    HW110196   2.295   1.576   1.845  1.3078 -0.4627 -0.6140
  211SOL    HW210197   2.309   1.519   1.998 -3.6861  0.3160  0.2416
  212SOL     OW10198   2.859   8.906   1.108 -0.6347  0.1352  0.2683
  212SOL    HW110199   2.845   8.908   1.009  2.2769  0.4657 -0.1783
  212SOL    HW210200   2.918   8.830   1.133 -2.2575 -0.6313  1.9196
  213SOL     OW10201   3.211   9.198   1.242  0.3951  0.0786  0.1132
  213SOL    HW110202   3.113   9.193   1.264  0.1402 -0.0399 -1.0420
  213SOL    HW210203   3.248   9.283   1.280  0.0058 -0.1934  1.1406
  215SOL     OW10204   2.258   0.216   1.763 -0.3443  0.0606 -0.3383
  215SOL    HW110205   2.229   0.132   1.716 -0.0441 -0.3875  0.2573
  215SOL    HW210206   2.250   0.203   1.862 -0.6057  0.8564 -0.2548
  216SOL     OW10207   3.138   2.422   1.854  0.2409  0.4038 -0.0183
  216SOL    HW110208   3.129   2.326   1.880  1.4491  0.1043 -0.6801
  216SOL    HW210209   3.110   2.433   1.759  1.9965  0.3539 -0.5464
  217SOL     OW10210   4.041   3.707   0.925 -0.4954 -0.0824 -0.3238
  217SOL    HW110211   4.009   3.745   0.838  0.3146  1.7245  0.1479
  217SOL    HW210212   4.135   3.675   0.914 -0.1069  0.8890  0.0768
  218SOL     OW10213   3.491   3.870   1.951 -0.1040 -0.2479  0.0884
  218SOL    HW110214   3.582   3.855   1.913  0.0428 -3.1458  1.4803
  218SOL    HW210215   3.422   3.850   1.881  0.2711 -0.6463 -0.1664
  219SOL     OW10216   3.633   3.446   1.441 -0.4271  0.4683  0.7489
  219SOL    HW110217   3.543   3.436   1.399 -0.9787 -0.7877  2.2138
  219SOL    HW210218   3.703   3.426   1.372 -1.1879  3.4792 -0.9607
  220SOL     OW10219   3.629   0.501   1.720 -0.6886  0.1627 -0.0705
  220SOL    HW110220   3.563   0.432   1.751 -0.3720 -0.0976  0.0348
  220SOL    HW210221   3.581   0.574   1.672 -0.9727 -0.4111 -0.6705
  222SOL     OW10222   4.126   2.413   1.425  0.1595 -0.3500  0.2081
  222SOL    HW110223   4.195   2.449   1.487 -0.5660  0.2010  0.7060
  222SOL    HW210224   4.129   2.313   1.425  0.6038 -0.3351  0.6290
  223SOL     OW10225   2.959   9.564   0.118  0.4175 -0.2457  0.1196
  223SOL    HW110226   2.988   9.649   0.074  1.6536 -1.5562 -1.7324
  223SOL    HW210227   2.962   9.574   0.217  0.8865  1.7485 -0.0823
  225SOL     OW10228   4.400   1.120   1.349 -0.1053  0.3201 -0.0923
  225SOL    HW110229   4.430   1.190   1.284  2.5179 -0.2733  0.4279
  225SOL    HW210230   4.352   1.165   1.425  0.1949  1.3989 -0.5246
  226SOL     OW10231   3.606   1.953   1.661 -0.1601  0.2659 -0.1627
  226SOL    HW110232   3.616   1.855   1.680 -0.8991  0.3647  0.7680
  226SOL    HW210233   3.616   1.968   1.563  2.6553 -0.3908 -0.0372
  228SOL     OW10234   2.613   9.188   2.189  0.0451  0.5539 -0.2192
  228SOL    HW110235   2.520   9.153   2.204  0.1023  0.2811 -0.4783
  228SOL    HW210236   2.623   9.215   2.093  0.7157 -0.9093 -0.5790
  229SOL     OW10237   3.185   2.053   0.691  0.0942 -0.2035 -0.0300
  229SOL    HW110238   3.098   2.020   0.652  0.5508 -1.1168 -0.3009
  229SOL    HW210239   3.223   2.124   0.632  0.6351 -1.3728 -1.1374
  230SOL     OW10240   3.772   4.163   1.462 -0.7256  0.1327 -0.3382
  230SOL    HW110241   3.789   4.226   1.386 -0.0637  1.3370  0.8117
  230SOL    HW210242   3.858   4.135   1.502 -1.0403 -1.1548 -0.5367
  231SOL     OW10243   3.278   2.768   1.786 -0.5594 -0.0289  0.8947
  231SOL    HW110244   3.229   2.705   1.846  0.7529 -0.0766  1.9434
  231SOL    HW210245   3.375   2.747   1.788 -0.2714  1.1717  0.1997
  232SOL     OW10246   3.888   1.071   1.885  0.1446 -0.4869 -0.1238
  232SOL    HW110247   3.837   1.126   1.951 -0.5187 -0.1653 -0.8974
  232SOL    HW210248   3.835   0.990   1.861 -0.8123  0.7182 -2.2482
  233SOL     OW10249   3.027   9.695   1.451  0.2094 -0.2852  0.2044
  233SOL    HW110250   3.104   9.750   1.417 -0.4598  0.1338 -0.6864
  233SOL    HW210251   3.060   9.627   1.515  1.5964 -1.3565 -1.6009
  234SOL     OW10252   2.565   1.267   1.475  0.1808 -0.5069 -0.2453
  234SOL    HW110253   2.521   1.305   1.556 -1.1044  0.0808 -1.2043
  234SOL    HW210254   2.589   1.341   1.412  2.6164 -0.8026  0.2724
  235SOL     OW10255   2.867   8.939   0.834 -0.5954  0.1197  0.0020
  235SOL    HW110256   2.800   8.896   0.773 -0.9801 -0.9822  1.1709
  235SOL    HW210257   2.955   8.948   0.787 -0.8014 -1.0181 -0.6158
  238SOL     OW10258   3.311   3.660   0.144  1.1024  0.0604 -0.6843
  238SOL    HW110259   3.331   3.758   0.146 -0.0662  0.2953 -0.2199
  238SOL    HW210260   3.281   3.634   0.052 -0.6330  0.5628 -0.2704
  240SOL     OW10261   4.473   3.286   0.979 -0.6108  0.2988  0.3192
  240SOL    HW110262   4.381   3.308   0.946 -0.6045  0.8564  0.6618
  240SOL    HW210263   4.469   3.266   1.076 -0.4488 -0.1973  0.2242
  241SOL     OW10264   3.440   1.653   1.049 -0.1622 -0.3552 -0.1526
  241SOL    HW110265   3.446   1.603   1.136  0.5059 -1.3034 -0.7288
  241SOL    HW210266   3.407   1.746   1.066  1.0484 -0.1654  1.2693
  244SOL     OW10267   3.532   8.867   1.559  0.1914  0.0144  0.2149
  244SOL    HW110268   3.587   8.950   1.567  2.1739 -1.1978 -0.5067
  244SOL    HW210269   3.469   8.875   1.482  0.6755  0.6700 -0.1108
  246SOL     OW10270   3.366   1.300   1.653 -0.5716 -0.0098 -0.3628
  246SOL    HW110271   3.286   1.297   1.713  1.3138 -2.8836  2.1576
  246SOL    HW210272   3.341   1.270   1.561 -2.9252  1.7928 -0.3472
  247SOL     OW10273   2.614   9.722   1.158 -0.2650 -0.3285  0.7182
  247SOL    HW110274   2.618   9.687   1.064  0.0552  0.5509  0.3956
  247SOL    HW210275   2.678   9.671   1.215  0.6188  0.1061  0.1258
  248SOL     OW10276   3.347   0.662   0.292  0.7611 -0.5019  0.2973
  248SOL    HW110277   3.379   0.668   0.387  1.5633 -1.2609  0.0840
  248SOL    HW210278   3.257   0.619   0.290  0.6298 -0.2460  0.7458
  249SOL     OW10279   2.555   0.618   0.905 -0.1057  0.3289  0.2436
  249SOL    HW110280   2.503   0.630   0.821  2.6152  1.2008 -1.3678
  249SOL    HW210281   2.608   0.700   0.924  0.8999 -0.6202  1.6854
  250SOL     OW10282   3.603   0.684   1.116  0.0879 -0.2208  0.2109
  250SOL    HW110283   3.687   0.711   1.162  0.9252 -0.3649 -1.2256
  250SOL    HW210284   3.552   0.766   1.088 -0.5542 -0.1314  1.6045
  252SOL     OW10285   4.180   0.732   0.947  0.0975 -0.4416 -0.1540
  252SOL    HW110286   4.227   0.693   1.026  0.1206  1.0964  0.6246
  252SOL    HW210287   4.103   0.674   0.921 -1.5782  0.4036  2.7263
  254SOL     OW10288   3.710   2.384   0.462  0.2404  0.1042  0.4060
  254SOL    HW110289   3.682   2.479   0.473 -0.1465  0.2194 -1.5194
  254SOL    HW210290   3.664   2.344   0.383  1.6379 -1.2164  0.2299
  255SOL     OW10291   2.685   9.558   0.576 -0.3918 -0.1020  0.4294
  255SOL    HW110292   2.741   9.600   0.648  2.6547 -2.6561 -0.3323
  255SOL    HW210293   2.699   9.608   0.490 -1.5292  0.9754  0.8507
  256SOL     OW10294   3.357   1.020   2.216 -0.1971  0.3957 -0.4219
  256SOL    HW110295   3.334   1.049   2.123 -1.2327  1.0177  0.0230
  256SOL    HW210296   3.399   0.929   2.213 -0.1563  0.4451 -1.5017
  258SOL     OW10297   3.800   0.989   1.189  0.1088 -0.3320 -0.6226
  258SOL    HW110298   3.787   0.891   1.200 -0.7487 -0.0999  0.4008
  258SOL    HW210299   3.859   1.023   1.262 -1.0481  0.2201  0.0656
  259SOL     OW10300   2.797   0.922   0.239  0.3244 -0.1349  0.1886
  259SOL    HW110301   2.784   0.924   0.338  0.2858  1.1454  0.1705
  259SOL    HW210302   2.709   0.906   0.194  0.1824  0.2130  0.3385
  261SOL     OW10303   3.125   0.495   1.263  0.2616 -0.2465 -0.5347
  261SOL    HW110304   3.159   0.405   1.234 -1.4609 -0.9033 -0.5766
  261SOL    HW210305   3.195   0.564   1.246  1.2248 -1.4283 -1.4703
  262SOL     OW10306   2.578   9.800   2.042 -0.2631 -0.5906 -0.3865
  262SOL    HW110307   2.648   9.867   2.066 -0.2378 -0.9556  0.5994
  262SOL    HW210308   2.496   9.847   2.008 -0.4593 -0.0304  0.8409
  263SOL     OW10309   2.890   2.680   0.219  0.0877 -0.5125 -0.1193
  263SOL    HW110310   2.825   2.705   0.147  0.1626  0.8630  0.2805
  263SOL    HW210311   2.863   2.724   0.305  1.3049 -0.2651  0.1458
  264SOL     OW10312   2.914   9.437   1.063  0.1733  0.2369  0.5753
  264SOL    HW110313   2.993   9.382   1.088 -1.1653 -1.4288  1.2256
  264SOL    HW210314   2.851   9.382   1.008  0.8900  2.4568 -2.6329
  265SOL     OW10315   3.205   0.247   1.172  0.2007  0.5143 -0.3205
  265SOL    HW110316   3.130   0.219   1.112  0.4902 -0.1469 -0.3729
  265SOL    HW210317   3.197   0.201   1.260  0.3341  0.7286 -0.1957
  269SOL     OW10318   4.441   1.317   1.138 -0.1613 -0.0765  0.1937
  269SOL    HW110319   4.500   1.258   1.083  0.1470 -0.0506  0.4895
  269SOL    HW210320   4.345   1.296   1.119 -0.0542 -0.5219  0.1372
  270SOL     OW10321   4.068   2.506   2.186  0.2858 -0.3715 -0.2492
  270SOL    HW110322   4.118   2.561   2.253  1.7078 -2.8648  0.8429
  270SOL    HW210323   3.976   2.488   2.220  1.0424 -1.7419  1.1882
  271SOL     OW10324   3.367   3.215   1.810  0.4600 -0.2433 -0.3570
  271SOL    HW110325   3.271   3.215   1.839  1.2145  0.5797  2.2279
  271SOL    HW210326   3.420   3.155   1.870  2.5270  3.4511  1.6893
  274SOL     OW10327   2.854   2.858   0.451  0.0229 -0.6965 -0.8445
  274SOL    HW110328   2.778   2.809   0.495  0.3048 -0.9942 -0.6894
  274SOL    HW210329   2.915   2.895   0.521  0.7540 -1.6123 -0.9840
  276SOL     OW10330   2.777   9.238   0.929  0.8721 -0.3219 -0.0111
  276SOL    HW110331   2.817   9.148   0.915  1.0013 -0.3759  0.6986
  276SOL    HW210332   2.696   9.248   0.871  0.9519 -0.8315 -0.2121
  277SOL     OW10333   2.594   9.284   1.896  0.2328 -0.0843 -0.1894
  277SOL    HW110334   2.577   9.285   1.797  1.9104  1.9527 -0.4857
  277SOL    HW210335   2.588   9.378   1.931 -2.1506 -0.9992  1.9948
  278SOL     OW10336   3.929   2.617   1.878  0.3293 -0.2929  0.3339
  278SOL    HW110337   3.932   2.529   1.926 -2.3566 -1.2233 -1.1071
  278SOL    HW210338   3.942   2.602   1.780  0.4020  0.9842  0.1444
  280SOL     OW10339   2.725   2.328   1.199  0.1411 -0.4664 -0.0434
  280SOL    HW110340   2.737   2.393   1.275  0.9558 -2.2147  1.3747
  280SOL    HW210341   2.718   2.235   1.236  1.1275 -1.4147 -2.1477
  281SOL     OW10342   2.355   1.043   1.689 -0.2350  0.4157  0.0680
  281SOL    HW110343   2.266   0.996   1.693 -0.0987 -0.0802 -1.9422
  281SOL    HW210344   2.383   1.051   1.593  2.5423 -0.6914  0.7478
  285SOL     OW10345   2.998   0.143   1.022 -0.2495 -0.1342 -0.2244
  285SOL    HW110346   3.051   0.080   0.965 -0.7929  2.3774 -3.7101
  285SOL    HW210347   2.902   0.115   1.022 -0.3854  0.3226 -1.2380
  287SOL     OW10348   3.900   1.125   0.978  0.1585 -0.1370  0.3891
  287SOL    HW110349   3.862   1.067   1.050 -0.8040  0.3717  0.2971
  287SOL    HW210350   3.996   1.102   0.965  0.3439 -0.2634  1.8145
  289SOL     OW10351   4.242   2.388   1.890 -0.2612  0.1569  0.0604
  289SOL    HW110352   4.336   2.361   1.869 -0.0168  0.6200  0.5523
  289SOL    HW210353   4.234   2.410   1.987  0.2055  4.3929 -0.7672
  290SOL     OW10354   2.807   9.850   1.566  0.4649 -0.2404  0.2961
  290SOL    HW110355   2.898   9.814   1.546  0.5583 -0.3556  0.9360
  290SOL    HW210356   2.758   9.787   1.625 -0.6342 -0.9729 -1.3462
  291SOL     OW10357   4.042   2.213   1.817 -0.0169 -0.5499  0.1352
  291SOL    HW110358   4.016   2.235   1.723 -1.3097 -0.0633  0.6000
  291SOL    HW210359   4.114   2.275   1.848 -1.1092  0.6934  0.2038
  292SOL     OW10360   3.664   2.022   0.881 -0.6378 -0.5609 -0.1518
  292SOL    HW110361   3.651   2.066   0.792 -0.9384 -0.0011  0.1706
  292SOL    HW210362   3.579   2.026   0.933 -0.6765 -1.5450 -0.1231
  293SOL     OW10363   3.127   3.085   1.820 -0.0565  0.6360  0.6190
  293SOL    HW110364   3.138   3.017   1.748 -1.5252  0.6654  0.3476
  293SOL    HW210365   3.102   3.040   1.906  1.1549  0.6503  0.9957
  294SOL     OW10366   2.881   0.656   0.805  0.8257 -0.5875 -0.4029
  294SOL    HW110367   2.862   0.754   0.810 -1.4770 -1.0385  0.2588
  294SOL    HW210368   2.910   0.623   0.895 -2.4988 -1.2842  0.4557
  295SOL     OW10369   3.416   0.327   1.765 -0.6279 -0.3904  0.0801
  295SOL    HW110370   3.342   0.322   1.698 -0.9547  0.5646  0.3623
  295SOL    HW210371   3.377   0.327   1.857 -0.3931  1.7460  0.2110
  296SOL     OW10372   2.333   1.840   2.050 -0.3494 -0.4156 -0.0633
  296SOL    HW110373   2.289   1.789   2.123  0.7555  0.5106  1.2814
  296SOL    HW210374   2.331   1.786   1.966 -2.4659 -1.1022  0.3958
  298SOL     OW10375   2.699   0.466   1.177  0.4066  0.0114 -0.2791
  298SOL    HW110376   2.610   0.488   1.136  0.4901 -0.4396 -0.7113
  298SOL    HW210377   2.698   0.371   1.208 -0.0371  0.6605  1.7813
  299SOL     OW10378   2.804   0.245   1.808 -0.5345 -0.1402  0.5344
  299SOL    HW110379   2.788   0.233   1.906 -1.9749  0.8437  0.4359
  299SOL    HW210380   2.746   0.319   1.774 -0.3062 -0.7213 -1.1397
  301SOL     OW10381   3.995   1.256   1.397  0.1462  0.2851 -0.2368
  301SOL    HW110382   3.927   1.269   1.469  1.3006 -1.5149  1.2501
  301SOL    HW210383   4.008   1.341   1.346 -1.6602  1.2129  0.8237
  302SOL     OW10384   3.199   9.015   1.963  0.3815 -0.1122 -0.8769
  302SOL    HW110385   3.288   8.989   1.926 -0.4220 -1.3051 -2.0095
  302SOL    HW210386   3.164   9.095   1.914 -0.4892 -1.4326 -2.4618
  304SOL     OW10387   2.508   0.054   1.559  0.6748  0.0402 -0.3203
  304SOL    HW110388   2.500   0.153   1.553 -1.6276 -0.0547  0.9476
  304SOL    HW210389   2.580   0.023   1.496  1.6638  2.5118 -0.4688
  305SOL     OW10390   3.523   3.575   1.989 -0.0322 -1.2666 -0.1345
  305SOL    HW110391   3.546   3.533   1.901  2.2083 -1.6408  0.5854
  305SOL    HW210392   3.484   3.665   1.974  1.7972 -0.6686 -1.4896
  307SOL     OW10393   2.820  -0.007   1.946  0.2368 -0.3490  0.3115
  307SOL    HW110394   2.894   0.048   1.909 -0.0064  0.9910  1.7695
  307SOL    HW210395   2.857  -0.095   1.977  0.9591 -0.2652 -0.3000
  308SOL     OW10396   2.846   0.927   0.538  0.5755 -0.1315 -0.0051
  308SOL    HW110397   2.919   0.861   0.521 -1.1976 -2.0514 -0.3658
  308SOL    HW210398   2.826   0.930   0.636  1.2163  0.5069  0.1123
  309SOL     OW10399   3.437   2.145   2.031 -0.1493 -0.8711 -0.8973
  309SOL    HW110400   3.524   2.182   2.063 -0.4322 -0.7785 -0.2065
  309SOL    HW210401   3.410   2.069   2.091 -0.9324 -0.3794 -0.6200
  310SOL     OW10402   3.701   0.576   0.879  0.2936  0.2094  0.4342
  310SOL    HW110403   3.670   0.618   0.964 -2.3613  1.4285 -1.0828
  310SOL    HW210404   3.668   0.482   0.874  0.7429  0.0230  0.8803
  311SOL     OW10405   2.993   0.862   1.154  0.3809 -0.5318 -0.9917
  311SOL    HW110406   2.964   0.801   1.228 -1.4951 -0.7212 -1.8686
  311SOL    HW210407   3.025   0.807   1.077  2.0414 -0.3368 -0.4595
  313SOL     OW10408   3.048   2.994   0.605 -0.6062  0.0573 -0.6733
  313SOL    HW110409   3.033   2.992   0.704  1.6446 -1.7539 -0.3512
  313SOL    HW210410   3.073   3.087   0.577 -1.2422  0.5741  0.4451
  314SOL     OW10411   2.960   9.400   0.583  0.1679  0.6448 -0.6084
  314SOL    HW110412   2.941   9.304   0.562 -3.7524  0.9773  1.1458
  314SOL    HW210413   2.944   9.418   0.680  1.2892  3.0082 -0.8118
  315SOL     OW10414   3.013   0.537   0.598 -0.0928 -0.1497 -0.4121
  315SOL    HW110415   3.035   0.449   0.639  0.8837  0.4991  0.4801
  315SOL    HW210416   2.974   0.597   0.668  1.0867  0.7889 -0.5410
  316SOL     OW10417   3.484   3.377   2.203 -0.2030  0.2820 -0.1866
  316SOL    HW110418   3.487   3.451   2.136  0.5115  0.0486 -0.4124
  316SOL    HW210419   3.563   3.318   2.191 -2.2632 -2.2231 -1.9214
  317SOL     OW10420   3.280   3.215   0.908 -0.4026  0.4397 -0.0835
  317SOL    HW110421   3.272   3.271   0.991  0.0520 -0.3205  0.4718
  317SOL    HW210422   3.199   3.229   0.851  0.0543  2.2559 -0.3175
  319SOL     OW10423   2.791   1.320   1.167 -0.4194 -0.3987  0.0236
  319SOL    HW110424   2.876   1.319   1.220 -0.3921  1.8961  0.0916
  319SOL    HW210425   2.718   1.357   1.224 -1.0768 -0.7419 -0.5960
  320SOL     OW10426   4.805   3.648   1.998 -0.9659  0.2330  0.2911
  320SOL    HW110427   4.853   3.656   1.910  0.2668 -0.5981  0.8672
  320SOL    HW210428   4.840   3.717   2.061 -1.3501  0.3701  0.3544
  321SOL     OW10429   3.877   1.435   1.025 -0.8760  0.2805 -0.1779
  321SOL    HW110430   3.865   1.347   0.979 -0.5148  0.3378 -0.3786
  321SOL    HW210431   3.821   1.436   1.108  0.3364 -0.7497  0.6691
  322SOL     OW10432   3.210   2.913   1.529 -0.0161  0.3636 -0.6340
  322SOL    HW110433   3.276   2.987   1.534 -1.7228  1.8139  0.7735
  322SOL    HW210434   3.227   2.848   1.603  1.0162 -0.3159 -1.4364
  323SOL     OW10435   2.862   0.574   1.750  0.4589 -0.1736 -0.2047
  323SOL    HW110436   2.776   0.525   1.737  1.5685 -2.0331 -0.7066
  323SOL    HW210437   2.904   0.545   1.836  0.3602  1.0652  0.2628
  325SOL     OW10438   2.979   0.472   1.956 -0.2036 -0.2271  0.0786
  325SOL    HW110439   2.993   0.557   2.005  1.5853 -0.3639 -0.1833
  325SOL    HW210440   2.957   0.399   2.021 -0.3109  0.1202  0.4321
  326SOL     OW10441   3.248   0.100   0.475 -0.4076 -0.1184 -0.4404
  326SOL    HW110442   3.256   0.013   0.426 -1.0477 -0.1118 -0.5645
  326SOL    HW210443   3.174   0.155   0.434 -0.1676  0.3799 -0.2115
  327SOL     OW10444   3.534   0.520   1.341 -0.4014 -0.5730 -0.0236
  327SOL    HW110445   3.565   0.585   1.271 -2.2190  0.0348 -0.2905
  327SOL    HW210446   3.530   0.428   1.302  1.2842 -0.7200  0.0944
  328SOL     OW10447   3.962   2.872   0.362  0.2764  0.2722 -0.1652
  328SOL    HW110448   4.022   2.845   0.438  0.1908 -0.0831 -0.2257
  328SOL    HW210449   3.953   2.796   0.298 -0.6588  0.1525  0.1065
  329SOL     OW10450   3.012   3.027   1.371  0.1656 -0.3205  0.1612
  329SOL    HW110451   3.091   2.989   1.419 -0.2117 -1.0711  0.1850
  329SOL    HW210452   2.934   3.033   1.434  0.1174  0.1675  0.0631
  330SOL     OW10453   2.461   1.586   1.157  0.5290  0.3033  0.5547
  330SOL    HW110454   2.423   1.506   1.109 -1.2745  1.7656 -0.5307
  330SOL    HW210455   2.488   1.655   1.090  0.6142  1.2388  1.5408
  332SOL     OW10456   2.830   0.207   0.326  0.1981  0.1151 -0.3151
  332SOL    HW110457   2.807   0.279   0.391  1.2959 -0.2318  0.4731
  332SOL    HW210458   2.796   0.231   0.236  0.3521  1.5133 -0.0091
  333SOL     OW10459   2.405   0.158   1.276  0.5934  0.0580 -0.2316
  333SOL    HW110460   2.417   0.067   1.314 -0.4531 -0.0680 -0.2025
  333SOL    HW210461   2.477   0.218   1.310  1.4824 -0.8315 -0.5157
  334SOL     OW10462   3.527   0.659   0.486  0.0146 -0.5094 -0.6045
  334SOL    HW110463   3.626   0.662   0.494  0.1282  2.2645 -2.2582
  334SOL    HW210464   3.486   0.647   0.576  1.7579  2.8978  0.7192
  335SOL     OW10465   3.528   9.808   1.880  0.9595 -0.0427 -0.3029
  335SOL    HW110466   3.523   9.799   1.980  1.2112  1.7226 -0.1134
  335SOL    HW210467   3.624   9.818   1.853  0.7486  1.7247 -0.4820
  336SOL     OW10468   3.139   0.153   1.432 -0.2046  0.0846  0.2170
  336SOL    HW110469   3.195   0.196   1.504  0.6074  0.6538 -0.7415
  336SOL    HW210470   3.043   0.164   1.454  0.0324  0.7181  0.9600
  338SOL     OW10471   3.636   0.333   0.930 -0.3822 -0.4785 -0.4494
  338SOL    HW110472   3.721   0.308   0.886 -0.8886 -1.3563 -0.9416
  338SOL    HW210473   3.613   0.265   1.000 -0.8640 -0.4355 -0.5638
  340SOL     OW10474   4.356   2.761   1.714  0.3994  0.0356  0.0433
  340SOL    HW110475   4.340   2.852   1.676 -0.4142 -0.3581 -0.5841
  340SOL    HW210476   4.400   2.769   1.803 -0.2017  1.0580  0.2559
  341SOL     OW10477   3.191   9.185   0.562 -0.0531  0.1656  0.4127
  341SOL    HW110478   3.290   9.199   0.570 -0.6253  4.1662  1.9244
  341SOL    HW210479   3.158   9.230   0.479 -0.7293 -0.2317  0.4646
  342SOL     OW10480   3.450   1.499   0.294  0.4066 -0.0139 -0.4775
  342SOL    HW110481   3.435   1.510   0.392 -0.6729  1.2882 -0.7757
  342SOL    HW210482   3.522   1.561   0.264  1.1299 -0.8106 -0.4248
  343SOL     OW10483   2.549   1.169   0.126 -0.4365 -0.0007 -0.3181
  343SOL    HW110484   2.530   1.257   0.170 -0.3930  0.5985 -1.4923
  343SOL    HW210485   2.645   1.166   0.098 -1.0638  0.6752 -2.6841
  345SOL     OW10486   3.786   1.860   1.079  0.3421  0.2407  0.3848
  345SOL    HW110487   3.713   1.819   1.133 -0.5448  0.5011 -0.5998
  345SOL    HW210488   3.748   1.929   1.018  1.5499  1.0665  0.5522
  346SOL     OW10489   2.666   1.209   1.815  0.0564  0.4227 -0.4597
  346SOL    HW110490   2.655   1.143   1.889 -1.9307  1.1339 -0.1113
  346SOL    HW210491   2.763   1.233   1.806  0.2413  0.7365  2.2284
  347SOL     OW10492   3.652   2.376   1.567  0.2787 -0.1098  0.0604
  347SOL    HW110493   3.661   2.340   1.474 -0.2239 -1.5078  0.5315
  347SOL    HW210494   3.594   2.456   1.567  2.2079  1.3329 -1.1721
  348SOL     OW10495   3.008   0.686   2.142 -0.3749 -0.5015 -0.0783
  348SOL    HW110496   3.078   0.740   2.095 -0.4975 -1.2758 -1.1776
  348SOL    HW210497   3.053   0.620   2.202 -0.2033  0.2095  0.5751
  350SOL     OW10498   4.290   2.504   1.177  0.1551 -0.3057 -0.0461
  350SOL    HW110499   4.191   2.498   1.175  0.2135 -1.0332 -1.7816
  350SOL    HW210500   4.327   2.484   1.086  1.8387  0.8504  0.3404
  351SOL     OW10501   3.023   9.827   0.626 -0.2675 -0.3170 -0.1000
  351SOL    HW110502   3.079   9.751   0.591 -0.4499 -0.2004 -0.6506
  351SOL    HW210503   2.946   9.790   0.678  0.5760 -0.4687  1.0564
  352SOL     OW10504   4.475   2.029   1.910  0.0193 -0.1228 -0.3779
  352SOL    HW110505   4.416   2.054   1.987 -0.0300  0.3558 -0.5718
  352SOL    HW210506   4.523   1.944   1.932 -0.0171 -0.0065  0.1729
  353SOL     OW10507   3.107   0.807   0.490  0.0059 -0.3235 -0.4312
  353SOL    HW110508   3.189   0.853   0.456  0.4179  0.6307  1.7453
  353SOL    HW210509   3.133   0.726   0.543 -0.4776 -0.3831 -0.2817
  355SOL     OW10510   3.857   1.813   1.398  0.5695  0.0125 -0.1150
  355SOL    HW110511   3.844   1.764   1.485 -1.3512 -1.1573 -1.0219
  355SOL    HW210512   3.941   1.783   1.355  0.3265 -1.1822  0.2155
  356SOL     OW10513   3.447   1.313   0.985  0.0102  0.1852 -0.0883
  356SOL    HW110514   3.499   1.273   1.061 -1.4640  1.3002  1.5486
  356SOL    HW210515   3.510   1.350   0.917  1.3822  0.5045  1.3292
  357SOL     OW10516   3.126   1.223   1.809  0.3421  0.1955 -0.5700
  357SOL    HW110517   3.095   1.173   1.728 -0.9447 -0.7426  0.4802
  357SOL    HW210518   3.047   1.252   1.863  1.1036  2.6789 -0.7324
  358SOL     OW10519   3.695   0.873   1.600 -0.0706  0.8238 -0.0858
  358SOL    HW110520   3.696   0.926   1.685 -0.3215 -0.0440  0.4633
  358SOL    HW210521   3.638   0.792   1.612  0.5954  0.2425 -0.8068
  359SOL     OW10522   4.418   3.638   1.613  0.5948 -0.1489 -0.1434
  359SOL    HW110523   4.421   3.580   1.694  0.8772 -1.3112 -0.9822
  359SOL    HW210524   4.332   3.690   1.612 -0.5429 -2.0047 -0.3811
  360SOL     OW10525   3.067   1.278   2.204  0.0723 -0.7189 -0.0114
  360SOL    HW110526   3.117   1.354   2.162  0.1775 -0.7517  0.0536
  360SOL    HW210527   2.987   1.313   2.252  0.1140 -0.6499  0.0087
  361SOL     OW10528   4.522   2.448   1.573 -0.1377 -0.4658  0.1775
  361SOL    HW110529   4.557   2.525   1.520 -0.2670 -1.5511 -1.5072
  361SOL    HW210530   4.424   2.459   1.588  0.0774  0.3278  1.0430
  362SOL     OW10531   4.108   1.494   2.026 -0.0315 -0.1394  0.2520
  362SOL    HW110532   4.139   1.573   2.079 -0.6117  0.4350 -0.2400
  362SOL    HW210533   4.116   1.515   1.928  0.6791 -1.0415  0.1158
  363SOL     OW10534   2.575   9.704   1.677  0.4865 -0.1993 -0.1346
  363SOL    HW110535   2.507   9.766   1.715 -0.2056  0.3131 -2.1341
  363SOL    HW210536   2.536   9.612   1.671 -0.3947  0.2744 -2.1276
  365SOL     OW10537   3.298   0.620   0.708  0.2066 -0.5694 -0.5804
  365SOL    HW110538   3.299   0.550   0.636  2.4342 -0.1417 -0.9985
  365SOL    HW210539   3.339   0.582   0.791  0.2876 -0.1387 -0.4263
  366SOL     OW10540   2.745   1.308   0.370  0.1294  0.1118 -0.4382
  366SOL    HW110541   2.813   1.235   0.380 -0.7644 -0.4571  1.9038
  366SOL    HW210542   2.730   1.352   0.458 -0.9940  1.6463 -1.3687
  367SOL     OW10543   3.778   0.982   0.767  0.4686 -0.1950 -0.1703
  367SOL    HW110544   3.821   1.063   0.808  0.9339 -1.5497  2.1187
  367SOL    HW210545   3.689   1.008   0.729  0.2663  1.2403  1.2119
  368SOL     OW10546   2.929   0.091   1.616  0.3230  0.0126 -0.1299
  368SOL    HW110547   2.893   0.159   1.680  0.3084 -1.6271  1.6163
  368SOL    HW210548   2.871   0.010   1.617  1.0470 -0.5401 -1.3082
  369SOL     OW10549   3.660   3.039   0.624  0.2245  0.3341 -0.0723
  369SOL    HW110550   3.629   3.023   0.530  1.0641 -0.4774 -0.2097
  369SOL    HW210551   3.688   3.134   0.634 -1.9395  1.0069 -0.0521
  370SOL     OW10552   2.733   9.371   0.362  0.8663  0.0347 -0.2098
  370SOL    HW110553   2.767   9.290   0.409  0.2799 -0.2321 -0.2539
  370SOL    HW210554   2.724   9.446   0.428 -1.2329 -0.7127  0.3729
  371SOL     OW10555   2.936   0.393   1.448 -0.2169 -0.1474 -0.1483
  371SOL    HW110556   2.886   0.475   1.477 -0.4557 -0.0586 -0.8104
  371SOL    HW210557   3.014   0.420   1.392 -1.9346 -0.4974 -2.7995
  372SOL     OW10558   2.366   1.746   1.782 -0.1296  0.0293  0.0856
  372SOL    HW110559   2.456   1.789   1.780  0.1460 -0.5075  0.5624
  372SOL    HW210560   2.324   1.753   1.691 -1.1380  3.4182  0.7468
  373SOL     OW10561   3.544   2.666   1.758  0.6120  0.0513 -0.0900
  373SOL    HW110562   3.548   2.644   1.661 -1.7029 -0.6345 -0.0714
  373SOL    HW210563   3.517   2.585   1.810 -3.6136  1.6966  0.4730
  374SOL     OW10564   4.156   1.019   0.957  0.2597 -0.4634 -0.0991
  374SOL    HW110565   4.167   0.922   0.936 -0.7803 -0.4814 -0.5715
  374SOL    HW210566   4.225   1.072   0.907 -0.7299 -0.7275 -1.7758
  375SOL     OW10567   3.164   0.839   1.992  0.5707 -0.9886  0.0877
  375SOL    HW110568   3.208   0.929   1.994 -0.5354 -0.4496  0.7630
  375SOL    HW210569   3.211   0.780   1.926 -0.1630  0.8364 -2.1302
  376SOL     OW10570   2.460   0.540   1.405 -0.4414 -0.7304  0.4156
  376SOL    HW110571   2.450   0.526   1.307  0.2523 -0.5524  0.3229
  376SOL    HW210572   2.540   0.491   1.439 -1.4817 -1.9756  1.1475
  377SOL     OW10573   2.784   0.928   0.807  0.0773  0.2167 -0.5470
  377SOL    HW110574   2.821   0.985   0.880  0.5160  1.4599 -1.7190
  377SOL    HW210575   2.686   0.948   0.797  0.0076  0.0172 -0.2915
  378SOL     OW10576   3.307   0.419   0.543 -0.2090 -0.0172 -0.2589
  378SOL    HW110577   3.359   0.342   0.581  1.8959  1.6969  0.3900
  378SOL    HW210578   3.300   0.408   0.444  1.7366 -0.0800 -0.4098
  379SOL     OW10579   2.903   9.760   2.060  0.2652 -0.0694  0.3830
  379SOL    HW110580   2.818   9.709   2.074  0.6816 -1.3223 -1.5377
  379SOL    HW210581   2.976   9.717   2.114  0.5853 -1.4460 -1.1285
  380SOL     OW10582   3.035   1.990   1.209 -0.0904  0.3772 -0.6894
  380SOL    HW110583   2.987   1.905   1.228  1.2140 -0.2210 -0.0859
  380SOL    HW210584   3.051   1.998   1.110 -2.3293  1.0806 -1.0399
  382SOL     OW10585   2.401   9.869   1.283  0.6968 -0.2042 -0.3618
  382SOL    HW110586   2.490   9.823   1.286  0.2733 -1.1043 -1.2922
  382SOL    HW210587   2.360   9.857   1.193  0.0171  0.9526 -0.2186
  383SOL     OW10588   4.146   2.132   1.331 -0.5236  0.5454  0.1584
  383SOL    HW110589   4.096   2.090   1.255 -0.1871  0.4624 -0.0172
  383SOL    HW210590   4.243   2.137   1.308 -0.3267 -0.0757  0.8487
  384SOL     OW10591   3.438   2.996   1.031 -0.5867  0.5126  0.0371
  384SOL    HW110592   3.506   2.939   0.985  0.3456  0.6712  1.1919
  384SOL    HW210593   3.391   3.053   0.963 -0.4963 -0.5524 -0.9337
  386SOL     OW10594   2.532   0.812   1.709  0.2589 -0.1394 -0.0095
  386SOL    HW110595   2.589   0.800   1.791 -0.2845 -0.5975  0.3145
  386SOL    HW210596   2.470   0.889   1.723 -0.9372 -1.2008  0.6706
  387SOL     OW10597   3.950   0.938   1.535 -0.0513 -1.2078 -0.0480
  387SOL    HW110598   3.951   1.038   1.530  0.3436 -0.9772  3.3651
  387SOL    HW210599   3.856   0.906   1.549 -0.0716 -1.2569 -0.2968
  389SOL     OW10600   3.155   9.581   1.653 -0.1159  0.5127 -0.3312
  389SOL    HW110601   3.188   9.617   1.740  0.2818  1.1517 -0.7336
  389SOL    HW210602   3.179   9.484   1.645  2.1880  1.0900 -0.8368
  390SOL     OW10603   3.693   9.836   0.433  0.1993  0.3987  0.5932
  390SOL    HW110604   3.638   9.852   0.515  0.3497 -0.3244  0.8376
  390SOL    HW210605   3.732   9.923   0.402 -1.7125  1.0538 -0.0562
  392SOL     OW10606   3.481   9.410   1.793  0.2090 -0.5164  0.2753
  392SOL    HW110607   3.569   9.455   1.776  0.9259 -2.1674 -0.4973
  392SOL    HW210608   3.465   9.401   1.891  0.5670  0.4283  0.4194
  393SOL     OW10609   4.410   3.448   1.424  0.8711 -0.4359  0.1667
  393SOL    HW110610   4.472   3.430   1.348  2.2852  0.7901  0.9978
  393SOL    HW210611   4.444   3.525   1.477 -2.2495  1.3357 -0.2913
  394SOL     OW10612   2.904  -0.059   0.355 -0.0637 -0.2385 -0.1967
  394SOL    HW110613   2.965  -0.069   0.434 -0.8954 -1.2180  0.3263
  394SOL    HW210614   2.872   0.036   0.349  1.6834  0.3563 -0.6185
  396SOL     OW10615   3.585   2.951   1.883  0.4409 -0.2176 -0.4577
  396SOL    HW110616   3.519   2.894   1.834  0.5234  0.1765 -1.0301
  396SOL    HW210617   3.632   2.896   1.952 -0.7337 -0.4235  0.2011
  397SOL     OW10618   2.534   0.402   0.655  0.1229  0.5387 -0.7294
  397SOL    HW110619   2.565   0.378   0.747  0.1771  2.6106 -0.1766
  397SOL    HW210620   2.609   0.392   0.590  0.2408 -0.3639 -0.4599
  398SOL     OW10621   2.599   9.530   2.049  0.8401  0.2376 -0.2891
  398SOL    HW110622   2.606   9.628   2.033 -1.2306  0.5345  0.5060
  398SOL    HW210623   2.564   9.513   2.141  0.5579 -1.2287 -0.6484
  399SOL     OW10624   3.173   2.737   0.734 -0.2514  0.2067  0.2554
  399SOL    HW110625   3.160   2.836   0.735 -0.2231  0.2549 -1.3671
  399SOL    HW210626   3.145   2.702   0.644  2.3771 -0.8794 -0.1754
  400SOL     OW10627   2.940   0.528   1.034  0.1852 -0.0033  0.8695
  400SOL    HW110628   2.848   0.523   1.072  0.0353 -0.3140  0.4549
  400SOL    HW210629   3.005   0.488   1.099  0.3236  2.2071  2.1618
  401SOL     OW10630   3.455   2.511   0.486 -0.0698 -0.0733  0.1828
  401SOL    HW110631   3.444   2.546   0.579  0.2976 -1.2366  0.6656
  401SOL    HW210632   3.394   2.433   0.472  0.7209 -0.6306 -0.1683
  402SOL     OW10633   3.960   2.181   1.553 -0.3085  0.5300  0.4583
  402SOL    HW110634   4.034   2.167   1.487 -0.3995  1.5522  0.1266
  402SOL    HW210635   3.872   2.163   1.508 -0.4037  1.7801  0.1349
  403SOL     OW10636   3.761   9.430   0.192 -0.5759  0.4686 -0.2119
  403SOL    HW110637   3.835   9.488   0.159  0.1890  0.0195  0.6588
  403SOL    HW210638   3.699   9.407   0.117  1.0498 -0.4255 -1.3077
  404SOL     OW10639   3.441   9.446   2.087  0.0744 -0.0600 -0.2599
  404SOL    HW110640   3.457   9.349   2.105  2.3247  0.1217 -1.2009
  404SOL    HW210641   3.344   9.460   2.067 -0.1048 -2.2629 -1.0766
  405SOL     OW10642   3.093   0.526   0.335  0.5301 -0.2837 -0.2357
  405SOL    HW110643   3.057   0.534   0.428  2.7651  2.0617  0.4766
  405SOL    HW210644   3.144   0.441   0.326  0.4053 -0.4655  0.7349
  406SOL     OW10645   3.980   3.091   0.904  0.9095 -0.0796  0.4850
  406SOL    HW110646   3.933   3.066   0.989  2.3251 -0.4129  1.1795
  406SOL    HW210647   3.937   3.173   0.866  1.4878  1.1949  2.5418
  408SOL     OW10648   3.277   1.464   2.057 -0.2397 -0.1254 -0.6198
  408SOL    HW110649   3.312   1.496   2.144 -0.5336 -0.1384 -0.4950
  408SOL    HW210650   3.346   1.407   2.012  0.1061  0.3097 -0.6356
  409SOL     OW10651   2.642   0.573   0.245  0.4343 -0.3594  0.2724
  409SOL    HW110652   2.553   0.603   0.211  0.6228  0.8925  0.8579
  409SOL    HW210653   2.709   0.576   0.171  0.5187  0.9707  0.4023
  411SOL     OW10654   3.134   8.980   0.236 -0.3298  0.3656 -0.1769
  411SOL    HW110655   3.179   8.991   0.147  0.2887  0.3385  0.1280
  411SOL    HW210656   3.152   9.060   0.292  1.9208 -0.9562  1.0608
  412SOL     OW10657   4.101   1.762   1.269 -0.2012  0.6298 -0.1114
  412SOL    HW110658   4.196   1.736   1.253  0.1882  0.2369  2.5863
  412SOL    HW210659   4.080   1.846   1.219  1.7950  1.1696 -0.0725
  414SOL     OW10660   2.701   1.334   0.903  0.8425 -0.0494 -0.4066
  414SOL    HW110661   2.753   1.311   0.986  0.4818 -0.8217 -0.3881
  414SOL    HW210662   2.606   1.353   0.928  0.9024  0.4421 -0.5548
  415SOL     OW10663   4.829   3.903   2.136 -0.7199 -0.1905  0.6148
  415SOL    HW110664   4.758   3.932   2.072 -0.4214 -0.2371  0.2624
  415SOL    HW210665   4.915   3.951   2.115 -0.0246 -1.8598 -0.4347
  416SOL     OW10666   2.745   1.093   1.577 -0.4984  0.2558 -0.4114
  416SOL    HW110667   2.684   1.166   1.547  0.2411  0.8838 -0.3978
  416SOL    HW210668   2.713   1.056   1.665  0.2258  1.9009  0.5696
  417SOL     OW10669   2.751   2.375   0.641 -0.4757  0.1275  0.6874
  417SOL    HW110670   2.745   2.336   0.549  0.4239  0.1320  0.6289
  417SOL    HW210671   2.681   2.333   0.699 -0.3911 -0.5988  0.2727
  418SOL     OW10672   3.097   2.925   2.070 -0.3013  0.3123  0.2885
  418SOL    HW110673   3.140   2.838   2.048 -1.7326 -0.3645  0.1169
  418SOL    HW210674   3.086   2.933   2.170 -0.9767 -0.1120  0.2543
  419SOL     OW10675   3.581   8.878   1.110 -0.0520  0.3764 -0.2471
  419SOL    HW110676   3.572   8.782   1.136 -0.7426  0.5306  0.0894
  419SOL    HW210677   3.526   8.896   1.029  0.3641  0.4080 -0.5255
  420SOL     OW10678   2.815   2.194   0.410  0.5714 -0.3105 -0.1635
  420SOL    HW110679   2.827   2.116   0.348  1.0785  0.4801 -1.0724
  420SOL    HW210680   2.763   2.266   0.364 -0.5235 -0.3884  0.9226
  421SOL     OW10681   3.694   1.293   0.824  0.2280  1.0731 -0.1250
  421SOL    HW110682   3.625   1.238   0.776  1.1567  0.2589 -0.5576
  421SOL    HW210683   3.775   1.301   0.766  1.5453 -0.3152  1.4707
  422SOL     OW10684   2.683   2.078   0.996  0.1971  0.0213  0.1567
  422SOL    HW110685   2.778   2.102   0.974  1.1070 -1.3992  2.3866
  422SOL    HW210686   2.673   2.068   1.095 -2.2165 -0.2002 -0.0839
  423SOL     OW10687   4.200   1.849   0.371  0.5907  0.2247 -0.0740
  423SOL    HW110688   4.222   1.793   0.291  2.2142 -0.5184  0.8696
  423SOL    HW210689   4.216   1.796   0.454  2.3920  2.1386  0.8605
  425SOL     OW10690   3.970   1.567   0.231 -0.1091 -0.0734 -0.1696
  425SOL    HW110691   3.942   1.654   0.272  1.2333  0.3741 -0.1591
  425SOL    HW210692   3.956   1.493   0.297  0.1845  0.3627  0.3839
  426SOL     OW10693   4.607   3.140   1.723  0.4075  0.4529 -0.1956
  426SOL    HW110694   4.640   3.175   1.810  2.6678 -0.4751 -0.6505
  426SOL    HW210695   4.589   3.216   1.661  0.2833  1.0408  0.5608
  427SOL     OW10696   3.129   1.047   1.284  0.4237 -0.4749 -0.3416
  427SOL    HW110697   3.057   0.994   1.238  0.3526 -0.0132 -0.7650
  427SOL    HW210698   3.218   1.016   1.252  0.3890 -0.4651 -0.4476
  428SOL     OW10699   2.969   9.576   0.393 -0.2411  0.1406 -0.1453
  428SOL    HW110700   2.964   9.506   0.464 -1.0682 -1.8640 -2.1480
  428SOL    HW210701   2.884   9.630   0.394 -1.0380 -1.0889 -0.8302
  429SOL     OW10702   4.091   0.825   1.201  0.3464  0.3889 -0.2583
  429SOL    HW110703   4.156   0.814   1.277  2.3402  1.0294 -1.8404
  429SOL    HW210704   4.112   0.908   1.151 -1.1033  0.0895 -1.4059
  430SOL     OW10705   2.793   9.142   0.531 -0.6569 -0.0293  0.3167
  430SOL    HW110706   2.711   9.155   0.587 -1.2169 -2.1349  0.0411
  430SOL    HW210707   2.813   9.044   0.524  0.9215  0.3697 -0.9966
  431SOL     OW10708   4.018   1.297   2.164  0.0413  0.0459  0.0320
  431SOL    HW110709   4.053   1.368   2.103  0.3774  2.4153  2.9103
  431SOL    HW210710   3.930   1.325   2.202  0.2724 -0.9885  1.3748
  432SOL     OW10711   3.283   0.643   1.726 -0.1729 -0.2006 -0.2422
  432SOL    HW110712   3.196   0.692   1.739 -0.4203 -0.6293 -0.2788
  432SOL    HW210713   3.319   0.615   1.815 -0.4127 -0.6174 -0.2790
  434SOL     OW10714   2.644   2.390   0.250  0.4555 -0.5489  0.3574
  434SOL    HW110715   2.635   2.487   0.229 -0.4925 -0.6072  0.4443
  434SOL    HW210716   2.633   2.337   0.166  0.7857 -0.5875  0.3394
  435SOL     OW10717   3.783   0.702   0.633 -0.9505  0.0936  0.1214
  435SOL    HW110718   3.764   0.654   0.719  1.0064 -0.0251  0.5221
  435SOL    HW210719   3.808   0.797   0.652 -1.0481  0.2164 -0.3609
  436SOL     OW10720   2.961   2.108   0.922 -0.5927 -0.6870 -0.7555
  436SOL    HW110721   3.027   2.111   0.847 -0.3521  1.4460 -0.4978
  436SOL    HW210722   2.952   2.199   0.962 -2.5175 -1.2918  0.2524
  437SOL     OW10723   3.439   1.969   1.041 -0.2227 -0.3114 -0.2014
  437SOL    HW110724   3.350   1.950   0.998 -0.7888  0.5978  0.5695
  437SOL    HW210725   3.451   2.068   1.051  0.9101 -0.4277 -0.3631
  438SOL     OW10726   2.177   1.684   1.566  0.3232  0.5913 -0.6350
  438SOL    HW110727   2.103   1.637   1.615  0.8343  1.5777  1.1448
  438SOL    HW210728   2.208   1.628   1.491  0.1626 -1.4293  0.7740
  439SOL     OW10729   3.268   9.310   1.648 -0.1704  0.5595 -0.5932
  439SOL    HW110730   3.351   9.345   1.692 -0.3934  1.7853 -1.1344
  439SOL    HW210731   3.196   9.302   1.717 -0.1938  1.4314 -0.5055
  440SOL     OW10732   3.443   9.541   0.325  0.2605 -0.4213  0.2191
  440SOL    HW110733   3.490   9.454   0.340 -0.0831 -0.5839  0.3629
  440SOL    HW210734   3.504   9.605   0.279  0.1228 -1.1441 -0.9962
  441SOL     OW10735   3.494   0.656   1.563 -0.1343 -0.2712  0.3853
  441SOL    HW110736   3.507   0.600   1.482  2.6759  1.1886 -0.2276
  441SOL    HW210737   3.397   0.655   1.589 -0.7611 -2.2434 -1.8643
  443SOL     OW10738   3.689   0.856   1.879 -0.4448 -0.0224  0.3572
  443SOL    HW110739   3.615   0.829   1.941 -0.1166 -1.7440  0.0292
  443SOL    HW210740   3.746   0.777   1.860  0.6754  0.9837 -0.5047
  444SOL     OW10741   3.341   0.870   0.124 -0.3848 -0.2499 -0.7312
  444SOL    HW110742   3.244   0.896   0.121 -0.2529  0.3550 -0.1406
  444SOL    HW210743   3.352   0.791   0.184 -0.5313 -0.4066 -0.9093
  445SOL     OW10744   2.843   2.727   0.903  0.4431  0.3361 -0.1636
  445SOL    HW110745   2.918   2.671   0.941  0.5670  0.5354 -0.1139
  445SOL    HW210746   2.775   2.744   0.975  0.6238  0.6220 -0.0615
  446SOL     OW10747   3.083   1.434   1.577  0.2663 -0.7581  0.3925
  446SOL    HW110748   3.166   1.488   1.570 -0.2635  0.1791  1.2591
  446SOL    HW210749   3.072   1.400   1.670  0.7609 -2.6579 -0.2150
  447SOL     OW10750   2.641   9.885   0.864  0.9109 -0.0461  0.1327
  447SOL    HW110751   2.546   9.902   0.840  0.7034 -1.4491 -0.0585
  447SOL    HW210752   2.676   9.962   0.918  0.3146  1.4673 -1.5885
  448SOL     OW10753   3.115   9.290   1.875  0.4290 -0.0441 -0.6593
  448SOL    HW110754   3.020   9.280   1.907  0.9564 -2.1232  0.3571
  448SOL    HW210755   3.157   9.367   1.923 -0.7768  0.9741 -1.2072
  449SOL     OW10756   2.449   0.323   1.587  0.2810  0.2751  0.2813
  449SOL    HW110757   2.397   0.379   1.523  0.0705 -1.2601 -0.9267
  449SOL    HW210758   2.388   0.290   1.659  0.0958  0.4568  0.2072
  450SOL     OW10759   3.531   1.097   0.685 -0.0302  0.3395  0.1824
  450SOL    HW110760   3.468   1.022   0.704  2.5461 -1.7727  0.5547
  450SOL    HW210761   3.502   1.145   0.603 -2.2025 -0.4871  0.4322
  451SOL     OW10762   4.221   3.327   0.830 -0.1072  0.0546 -0.1100
  451SOL    HW110763   4.242   3.421   0.802 -1.1012  0.3485  0.0981
  451SOL    HW210764   4.175   3.279   0.755 -1.0398  0.2373  0.3446
  453SOL     OW10765   3.082   2.644   0.491  0.4865 -0.4062 -0.3793
  453SOL    HW110766   3.103   2.626   0.395 -0.1196  2.4758 -1.0746
  453SOL    HW210767   2.988   2.677   0.499  0.4108 -1.0008  1.2519
  457SOL     OW10768   3.552   2.553   2.122 -0.1753  0.0099 -0.1113
  457SOL    HW110769   3.499   2.490   2.066 -0.6590 -0.7144  1.1549
  457SOL    HW210770   3.574   2.635   2.068  0.2909 -1.1308 -1.7052
  458SOL     OW10771   3.711   2.236   2.086  0.0936  0.5067 -0.0020
  458SOL    HW110772   3.776   2.172   2.128 -0.3788 -1.6945 -2.4667
  458SOL    HW210773   3.725   2.236   1.987 -3.4492  0.1942 -0.5537
  459SOL     OW10774   2.927   0.325   2.170  0.1002  0.1255  0.3328
  459SOL    HW110775   2.976   0.387   2.231  2.9856 -1.1352 -0.6353
  459SOL    HW210776   2.942   0.231   2.198  0.7089 -0.4272 -1.7258
  461SOL     OW10777   3.567   9.763   2.176  0.2629  0.0847  0.0017
  461SOL    HW110778   3.520   9.756   2.265 -0.7984  0.4619 -0.5245
  461SOL    HW210779   3.607   9.854   2.167 -0.2183  0.2750 -0.2003
  463SOL     OW10780   2.439   1.367   0.998  0.0915  0.0370 -0.1744
  463SOL    HW110781   2.441   1.279   1.046  0.8844 -0.7852 -1.6762
  463SOL    HW210782   2.396   1.355   0.908 -0.6556  1.3863 -0.0053
  464SOL     OW10783   4.012   2.022   0.244 -0.4799 -0.2750  0.1987
  464SOL    HW110784   4.078   1.963   0.292 -0.1895 -1.2574 -1.3629
  464SOL    HW210785   3.978   2.092   0.307  1.0156 -0.6046  1.4108
  465SOL     OW10786   4.228   2.288   0.613  0.1124 -0.9651 -0.3205
  465SOL    HW110787   4.194   2.225   0.683 -2.8816 -1.0786 -1.7954
  465SOL    HW210788   4.238   2.240   0.526 -0.6488  0.2192 -1.0755
  467SOL     OW10789   3.296   8.795   1.738  0.3695  0.1335 -0.4514
  467SOL    HW110790   3.240   8.719   1.706 -1.2538  1.5437 -0.9932
  467SOL    HW210791   3.380   8.800   1.683  0.2442 -0.9287 -0.7480
  468SOL     OW10792   2.727   0.394   0.861 -0.1834  0.7154  0.3263
  468SOL    HW110793   2.804   0.433   0.810 -0.8966  0.3946 -1.0286
  468SOL    HW210794   2.659   0.465   0.879 -0.6758  0.4964 -0.6113
  469SOL     OW10795   2.314   1.537   1.391 -0.1760  0.3900  0.3604
  469SOL    HW110796   2.364   1.485   1.460  1.1727  0.8857 -0.2288
  469SOL    HW210797   2.366   1.538   1.305 -1.5209  0.3396 -0.4830
  472SOL     OW10798   2.710   1.430   0.607 -0.4101 -0.2194  0.5136
  472SOL    HW110799   2.672   1.523   0.600  0.1824 -0.0225 -0.2288
  472SOL    HW210800   2.707   1.400   0.702 -0.1927  0.7461  0.8360
  473SOL     OW10801   2.742   0.443   0.460  0.8226  0.1203  0.1076
  473SOL    HW110802   2.693   0.488   0.386 -0.1497  0.1701  0.7773
  473SOL    HW210803   2.805   0.509   0.503  0.2986  0.5001  0.2919
  474SOL     OW10804   3.912   1.676   0.874 -0.3029 -0.1136 -0.1560
  474SOL    HW110805   3.846   1.723   0.932  1.9323  2.2800  0.5266
  474SOL    HW210806   3.934   1.587   0.914 -0.8563  0.3468  1.1767
  475SOL     OW10807   2.977   3.112   1.092  0.4122  0.6169  0.3248
  475SOL    HW110808   2.974   3.088   1.189 -1.4393  0.3369  0.2062
  475SOL    HW210809   2.972   3.211   1.082  1.8357  0.7305  0.5453
  476SOL     OW10810   2.372  -0.050   1.905 -0.3774 -0.2334 -0.0226
  476SOL    HW110811   2.328  -0.002   1.981  0.5570  1.4980 -0.5287
  476SOL    HW210812   2.308  -0.055   1.828 -0.7023 -0.3496  0.2554
  477SOL     OW10813   2.945   2.352   1.049 -0.2885  0.4764 -0.1703
  477SOL    HW110814   2.856   2.326   1.086 -0.6159 -0.3485 -1.4962
  477SOL    HW210815   2.961   2.449   1.063 -0.6575  0.2822  1.5904
  478SOL     OW10816   3.283   2.263   0.476  0.2060 -0.0205  0.2439
  478SOL    HW110817   3.213   2.307   0.532  1.1698 -0.8826  2.1626
  478SOL    HW210818   3.240   2.219   0.397 -1.1719  1.1671  0.3091
  479SOL     OW10819   3.208   2.856   1.128  0.4296 -0.1634 -0.2210
  479SOL    HW110820   3.131   2.918   1.148  0.2982 -0.7930  1.3163
  479SOL    HW210821   3.283   2.908   1.089  0.0042  0.8361  0.2616
  481SOL     OW10822   2.630   1.682   0.583 -0.3171 -0.1966  0.1545
  481SOL    HW110823   2.544   1.731   0.601 -0.3906  0.2926 -1.4876
  481SOL    HW210824   2.674   1.720   0.502  1.2635 -0.7159  0.7535
  482SOL     OW10825   4.024   2.012   1.098  0.4917  0.3347 -0.2811
  482SOL    HW110826   4.024   2.094   1.041 -2.4579  0.9939  0.5653
  482SOL    HW210827   3.929   1.987   1.120  1.4760 -1.1643  2.4765
  483SOL     OW10828   3.240   9.611   0.528 -0.3777  0.5185  0.1799
  483SOL    HW110829   3.313   9.582   0.466 -0.7689 -1.1143  0.4700
  483SOL    HW210830   3.152   9.609   0.480 -0.4874  0.6895  0.3707
  484SOL     OW10831   3.729   0.176   1.914  0.7951 -0.3090 -0.1383
  484SOL    HW110832   3.644   0.208   1.955  0.7681  0.3465 -0.6997
  484SOL    HW210833   3.806   0.229   1.949  0.6016  1.3648 -2.0972
  485SOL     OW10834   3.401   3.207   0.378  0.3088  0.7747 -0.2231
  485SOL    HW110835   3.364   3.272   0.445  0.0594  2.1859 -1.7018
  485SOL    HW210836   3.381   3.113   0.408 -1.5926  1.4369  0.6525
  486SOL     OW10837   3.452   9.183   1.464  0.6029 -0.2698  0.5960
  486SOL    HW110838   3.384   9.210   1.531 -0.2886 -0.7626 -0.0995
  486SOL    HW210839   3.420   9.102   1.414  1.9818 -0.9022  0.7171
  487SOL     OW10840   2.769   1.915   2.221 -0.7201  0.4497  0.0620
  487SOL    HW110841   2.715   1.859   2.284  1.8014 -2.1896 -0.0310
  487SOL    HW210842   2.811   1.857   2.152  0.9324  2.6286 -0.8308
  488SOL     OW10843   2.490   1.058   1.306 -0.0660 -0.1871  0.1322
  488SOL    HW110844   2.520   0.973   1.348  1.9263  0.4509  0.0429
  488SOL    HW210845   2.527   1.136   1.356 -0.6195  0.6191 -0.6759
  489SOL     OW10846   3.296   1.838   0.494 -0.0988 -0.7211 -0.4466
  489SOL    HW110847   3.358   1.769   0.531 -1.3547 -0.2188  2.7821
  489SOL    HW210848   3.206   1.828   0.538 -0.4895  2.5293 -0.3877
  490SOL     OW10849   3.476   2.045   0.498 -0.3387 -0.1688  0.1631
  490SOL    HW110850   3.410   1.972   0.513  0.9906 -1.6022 -0.9013
  490SOL    HW210851   3.429   2.126   0.462 -1.0198 -2.3839 -4.1538
  491SOL     OW10852   3.060   0.913   0.139  0.2568 -0.2013  0.4227
  491SOL    HW110853   3.025   0.912   0.045  0.8564 -1.3073  0.1995
  491SOL    HW210854   3.004   0.854   0.197 -0.6082  1.1212  0.9601
  492SOL     OW10855   3.303   0.643   1.123  0.2886  0.1096 -0.3029
  492SOL    HW110856   3.247   0.676   1.047  2.3182  0.8259 -1.5249
  492SOL    HW210857   3.355   0.719   1.161 -0.6087 -0.2697  1.7606
  494SOL     OW10858   3.682   8.873   2.088  0.4493 -0.2805 -0.2061
  494SOL    HW110859   3.739   8.923   2.023 -0.0295  0.5991  0.0425
  494SOL    HW210860   3.586   8.881   2.061  0.2948 -0.3348  0.3228
  495SOL     OW10861   3.207   9.505   0.773 -0.5045 -0.2386 -0.3334
  495SOL    HW110862   3.224   9.513   0.674  1.5635 -0.9902 -0.0652
  495SOL    HW210863   3.239   9.415   0.804  1.4097  1.0325  1.5125
  496SOL     OW10864   2.517   2.681   0.163  0.5511  0.5822  0.4028
  496SOL    HW110865   2.563   2.743   0.100 -0.5255  0.0398 -0.9544
  496SOL    HW210866   2.418   2.686   0.149  0.4560 -1.8099 -0.1568
  497SOL     OW10867   4.283   2.338   2.168 -0.6639  0.4646  0.1455
  497SOL    HW110868   4.359   2.401   2.150 -1.2386  0.4894 -2.4404
  497SOL    HW210869   4.201   2.389   2.192 -0.7371  0.6550 -0.4824
  499SOL     OW10870   4.353   3.742   0.421 -0.5046 -0.2044  0.4360
  499SOL    HW110871   4.271   3.768   0.472 -0.8548  0.5104 -0.4905
  499SOL    HW210872   4.386   3.653   0.454 -0.6626  0.2885  1.9888
  501SOL     OW10873   2.777   0.658   1.375 -0.2891  0.3320  0.0915
  501SOL    HW110874   2.753   0.600   1.296  1.4527  2.9014 -2.4382
  501SOL    HW210875   2.693   0.694   1.416 -1.1883  0.5851 -1.8961
  502SOL     OW10876   2.357   2.110   2.197 -0.0791  0.1446 -0.0756
  502SOL    HW110877   2.353   2.028   2.140  0.1266  0.9275 -1.2192
  502SOL    HW210878   2.451   2.143   2.201 -0.1205  0.1792  0.5910
  503SOL     OW10879   4.254   1.710   0.135 -0.4608 -0.2399 -0.3169
  503SOL    HW110880   4.196   1.629   0.126  0.1053 -0.7044  0.2221
  503SOL    HW210881   4.301   1.727   0.049  1.0512 -1.7313  0.1850
  504SOL     OW10882   2.902   0.545   0.120  0.1873  0.0091  0.2619
  504SOL    HW110883   2.968   0.547   0.195  0.0024 -1.1227  0.4682
  504SOL    HW210884   2.866   0.452   0.110 -0.8126  0.4512 -0.3367
  505SOL     OW10885   2.269  -0.079   1.610 -0.7946 -0.3592 -0.4532
  505SOL    HW110886   2.357  -0.031   1.613  0.3439 -2.4259 -0.0889
  505SOL    HW210887   2.256  -0.119   1.519 -0.6503 -1.3519 -0.0392
  507SOL     OW10888   2.283   1.065   2.209 -0.5372  0.2815 -0.5882
  507SOL    HW110889   2.201   1.034   2.259  0.1590  0.0901  0.4495
  507SOL    HW210890   2.256   1.129   2.138 -1.5416  0.6312  0.0967
  508SOL     OW10891   3.168   1.116   0.525 -0.3968  0.3105 -0.5650
  508SOL    HW110892   3.086   1.139   0.578  0.9422  1.6333  0.9486
  508SOL    HW210893   3.162   1.159   0.435 -0.7608  1.5084  0.0198
  510SOL     OW10894   2.441   1.403   0.268 -0.4505 -0.0409  0.1552
  510SOL    HW110895   2.524   1.382   0.319  0.5303  2.9083 -0.1792
  510SOL    HW210896   2.362   1.361   0.314  1.1068 -2.4368  0.7450
  511SOL     OW10897   2.300   1.215   1.939 -0.2594 -0.0799  0.1118
  511SOL    HW110898   2.347   1.178   1.858  0.9054 -1.8826  1.5888
  511SOL    HW210899   2.289   1.314   1.928  2.7872  0.2048 -0.8272
  512SOL     OW10900   2.913   2.418   0.147  0.2562 -0.3987 -1.1980
  512SOL    HW110901   2.866   2.495   0.190 -0.9015 -1.1036 -1.1872
  512SOL    HW210902   2.990   2.390   0.205 -0.2747 -0.2612 -0.4204
  513SOL     OW10903   3.029   1.586   0.138 -0.0822  0.1516  0.3778
  513SOL    HW110904   2.965   1.514   0.110  0.2923  0.4006 -1.1292
  513SOL    HW210905   3.121   1.563   0.105  0.0605  1.2648 -0.0033
  514SOL     OW10906   2.653   0.988   1.998  0.0736 -0.4791 -0.4168
  514SOL    HW110907   2.733   0.936   1.967  0.4127  0.5725 -1.3594
  514SOL    HW210908   2.575   0.927   2.009  0.5548 -1.2362 -1.1803
  515SOL     OW10909   3.627   9.416   1.019 -0.3458 -0.1152 -0.1899
  515SOL    HW110910   3.654   9.467   0.937 -1.4309  1.2936  0.3139
  515SOL    HW210911   3.528   9.423   1.031 -0.2569 -0.7472  0.9653
  517SOL     OW10912   4.522   2.317   1.860 -0.0820  0.0245  0.3599
  517SOL    HW110913   4.511   2.218   1.855  1.7979 -0.2720  1.4253
  517SOL    HW210914   4.579   2.349   1.784 -0.9525  0.3281 -0.1639
  518SOL     OW10915   2.949   9.152   1.211 -0.4318  0.1808 -0.1091
  518SOL    HW110916   2.932   9.063   1.170 -0.3525 -0.0935  0.4572
  518SOL    HW210917   2.863   9.203   1.219 -0.3313  0.5889 -1.4221
  519SOL     OW10918   4.147   2.080   0.791 -0.0970  0.1635  0.0417
  519SOL    HW110919   4.207   2.050   0.865  0.0138 -0.6329 -0.3657
  519SOL    HW210920   4.105   2.001   0.748 -0.8362  0.6759 -0.1851
  520SOL     OW10921   4.155   1.351   1.097  0.0704  0.1238  0.5374
  520SOL    HW110922   4.079   1.296   1.064 -1.0629  2.2482 -0.4677
  520SOL    HW210923   4.122   1.413   1.168  0.6940  1.5752 -0.4266
  521SOL     OW10924   3.990   1.500   1.289 -0.2614  0.1337  0.0726
  521SOL    HW110925   4.018   1.590   1.256  0.6277  1.5077  4.2602
  521SOL    HW210926   3.890   1.492   1.282 -0.2334  0.9216 -1.5158
  523SOL     OW10927   2.831   9.616   1.291 -0.5505 -0.6287 -0.2155
  523SOL    HW110928   2.879   9.558   1.224  0.2908 -1.3695  1.0096
  523SOL    HW210929   2.896   9.650   1.358 -1.8628 -2.4645  2.0685
  525SOL     OW10930   2.808   1.522   2.106 -0.2580 -0.0112 -0.4019
  525SOL    HW110931   2.728   1.537   2.163  0.0518 -1.1520  0.3547
  525SOL    HW210932   2.839   1.609   2.067 -0.2051  0.8497  1.5356
  526SOL     OW10933   2.494   1.112   1.042 -0.1878 -0.3745  0.0183
  526SOL    HW110934   2.592   1.101   1.025 -0.3462 -0.7083 -0.6803
  526SOL    HW210935   2.472   1.077   1.133  0.3054 -0.4940  0.0931
  527SOL     OW10936   2.873   1.721   0.329  0.0242  0.2320 -0.1206
  527SOL    HW110937   2.921   1.670   0.258  0.9932  0.2387  0.5285
  527SOL    HW210938   2.918   1.708   0.417  0.5240  2.4925  0.0032
  529SOL     OW10939   3.523   8.951   0.631 -0.4563 -0.7215  0.0956
  529SOL    HW110940   3.593   8.916   0.568  0.6899  0.9713  0.3952
  529SOL    HW210941   3.486   9.036   0.595 -0.4061 -0.1919  1.2958
  530SOL     OW10942   3.014   2.965   0.858 -0.5052  0.1773 -0.0685
  530SOL    HW110943   3.017   3.012   0.946  1.2689  0.5251 -0.3146
  530SOL    HW210944   2.942   2.895   0.861  0.0357 -0.3282  1.9117
  531SOL     OW10945   4.264   2.540   1.629  0.0985  0.4520 -0.0946
  531SOL    HW110946   4.297   2.632   1.646 -1.2684  1.1941 -1.3833
  531SOL    HW210947   4.232   2.499   1.715  1.9323  0.6653  0.7088
  533SOL     OW10948   3.407   3.541   0.359  0.2979 -0.0019 -0.1497
  533SOL    HW110949   3.371   3.593   0.281  0.1512  1.4355  0.8607
  533SOL    HW210950   3.500   3.510   0.339  0.6505  1.2489 -0.5039
  535SOL     OW10951   3.503   0.915   0.973 -0.0615  0.0718  0.3966
  535SOL    HW110952   3.436   0.916   0.899  0.6205 -1.8273 -0.2845
  535SOL    HW210953   3.594   0.936   0.936 -0.1244  1.9008  1.1924
  536SOL     OW10954   3.043   9.636   0.939  0.2868  0.2177  0.2232
  536SOL    HW110955   2.977   9.571   0.978 -0.0775  0.6387  0.3098
  536SOL    HW210956   3.096   9.590   0.869  1.0399 -0.5934  1.3032
  537SOL     OW10957   2.501   0.829   1.430  0.4390 -0.6017 -0.1921
  537SOL    HW110958   2.535   0.830   1.524  0.2345 -0.8890 -0.1125
  537SOL    HW210959   2.467   0.737   1.409  1.1273 -0.7226 -0.7769
  538SOL     OW10960   2.551   2.266   0.830  0.2172  0.3003 -0.3280
  538SOL    HW110961   2.477   2.315   0.876  0.1203 -0.7849  0.6920
  538SOL    HW210962   2.603   2.214   0.897  1.7952  0.8989 -1.0697
  539SOL     OW10963   3.057   1.302   1.326  0.0761  0.2113  0.1743
  539SOL    HW110964   3.084   1.206   1.332 -3.2797 -0.7992  0.1647
  539SOL    HW210965   3.061   1.344   1.417 -0.7450 -0.6250  0.6059
  540SOL     OW10966   3.568   3.936   0.274 -0.1933 -0.0627 -0.6098
  540SOL    HW110967   3.571   4.032   0.302 -1.2270  0.0647 -0.9375
  540SOL    HW210968   3.543   3.879   0.353 -0.3141  0.0026 -0.6022
  541SOL     OW10969   3.907   0.341   2.047  0.1743  0.0908  0.8586
  541SOL    HW110970   3.983   0.403   2.029 -0.2040  0.0892 -0.8568
  541SOL    HW210971   3.938   0.267   2.107  1.1062  0.9266  1.4245
  542SOL     OW10972   2.691  -0.020   1.344 -0.2629  0.3609 -0.4086
  542SOL    HW110973   2.732  -0.091   1.402 -0.3262  0.9510  0.3671
  542SOL    HW210974   2.675  -0.057   1.253 -0.7573 -0.7818  0.1298
  543SOL     OW10975   2.930   1.300   1.977  0.2752  0.3005 -0.0545
  543SOL    HW110976   3.000   1.277   2.046  0.7626  2.0923  0.0744
  543SOL    HW210977   2.874   1.375   2.011  0.4283  1.1109 -1.5429
  544SOL     OW10978   3.086   3.265   0.530  0.2670 -0.0685 -0.0278
  544SOL    HW110979   3.144   3.322   0.588 -2.6381  2.1896  0.7298
  544SOL    HW210980   3.086   3.301   0.437 -2.2580  1.7558  0.6438
  545SOL     OW10981   4.355   0.826   1.397  0.3682  0.4062 -0.1255
  545SOL    HW110982   4.373   0.822   1.495 -1.2139  1.0393  0.2015
  545SOL    HW210983   4.387   0.914   1.361 -1.5014  1.3064  0.3528
  546SOL     OW10984   3.434   1.600   1.309 -0.4597 -0.0121  0.6671
  546SOL    HW110985   3.354   1.581   1.366 -0.5406 -0.1786  0.5011
  546SOL    HW210986   3.514   1.556   1.350 -0.3844  0.4589  1.0263
  547SOL     OW10987   3.465   3.660   1.219 -0.2110  0.0743  0.0138
  547SOL    HW110988   3.536   3.594   1.194  0.2651  1.0999 -1.3999
  547SOL    HW210989   3.475   3.685   1.316 -0.0963 -1.5448  0.4237
  548SOL     OW10990   3.742   3.292   0.716 -0.1341  0.5074  0.6142
  548SOL    HW110991   3.651   3.325   0.741  0.0301  2.9462 -1.8313
  548SOL    HW210992   3.810   3.364   0.733  1.1673 -0.8136  1.1306
  549SOL     OW10993   3.972   3.866   0.675 -0.3558 -0.0500 -0.0404
  549SOL    HW110994   3.881   3.864   0.716  0.1673  0.4677  1.1799
  549SOL    HW210995   3.978   3.944   0.612 -0.1919  0.9985  1.2488
  550SOL     OW10996   3.532   0.032   1.703  0.0303  0.4710 -0.4983
  550SOL    HW110997   3.496  -0.020   1.780 -1.6799  1.6413 -0.5023
  550SOL    HW210998   3.596   0.102   1.736 -0.4483  0.7508 -0.1670
  551SOL     OW10999   2.581   0.110   1.985  0.2172  0.4589 -0.2109
  551SOL    HW111000   2.670   0.067   1.972  0.1580  0.5382 -0.9143
  551SOL    HW211001   2.518   0.078   1.914 -0.5363 -0.1891  0.7530
  552SOL     OW11002   4.294   1.991   1.017  0.4099 -0.4523  0.2579
  552SOL    HW111003   4.333   2.077   1.052  0.3412  0.2366 -1.3162
  552SOL    HW211004   4.198   1.985   1.043  0.2276  0.2923 -0.2125
  553SOL     OW11005   2.820   9.696   0.769 -0.0712  0.3986 -0.7557
  553SOL    HW111006   2.765   9.768   0.811  1.3198  1.0675 -0.0576
  553SOL    HW211007   2.901   9.679   0.825  0.9098  0.0688 -2.2545
  554SOL     OW11008   4.014   3.116   1.878  0.0289 -0.5607 -0.0853
  554SOL    HW111009   4.056   3.037   1.924 -2.1637 -0.3325  2.4559
  554SOL    HW211010   3.936   3.086   1.823  0.8185 -0.4660 -1.2714
  555SOL     OW11011   4.282   3.924   2.151 -0.5452  0.2890  0.5804
  555SOL    HW111012   4.330   3.852   2.101  1.4722  1.0892  1.3098
  555SOL    HW211013   4.186   3.898   2.164 -0.2164 -1.5319 -0.5325
  556SOL     OW11014   4.656   3.392   1.615 -0.2903 -0.0067  0.1418
  556SOL    HW111015   4.652   3.437   1.526  1.0434  0.2442  0.2046
  556SOL    HW211016   4.720   3.441   1.674 -1.2687 -0.0831  1.2923
  557SOL     OW11017   3.237   9.712   1.884  0.2840 -0.5940  0.2583
  557SOL    HW111018   3.187   9.795   1.860  0.2514 -0.4011  0.9871
  557SOL    HW211019   3.334   9.725   1.865  0.2604 -0.4415  0.2420
  558SOL     OW11020   3.696   2.019   1.365 -0.1672 -0.1765  0.5683
  558SOL    HW111021   3.756   1.939   1.378  0.8512  0.4884  0.0191
  558SOL    HW211022   3.604   1.987   1.342  0.4839 -1.2073 -0.7645
  559SOL     OW11023   3.690   2.210   1.814  0.3084 -0.3860  0.3518
  559SOL    HW111024   3.703   2.285   1.750 -3.1227 -0.1068 -0.1343
  559SOL    HW211025   3.685   2.123   1.763  0.2501 -0.4627  0.4876
  560SOL     OW11026   3.156   9.352   0.328 -0.0802  0.2691 -0.0448
  560SOL    HW111027   3.112   9.441   0.323 -0.5909  0.0148 -0.1161
  560SOL    HW211028   3.191   9.327   0.237  0.4264  0.5749  0.0624
  561SOL     OW11029   3.414   1.949   1.861 -0.7306 -0.0269 -0.2666
  561SOL    HW111030   3.481   1.962   1.788  0.5876 -2.1239  0.5280
  561SOL    HW211031   3.416   2.027   1.922  0.6489  0.1530 -0.5218
  564SOL     OW11032   3.520   1.545   0.808 -0.3418 -0.5093  0.0479
  564SOL    HW111033   3.485   1.602   0.883 -0.4155  1.3070 -1.3351
  564SOL    HW211034   3.596   1.490   0.842  0.0364  0.7476  1.3160
  565SOL     OW11035   2.990   1.774   0.570 -0.4060 -0.5918  0.3929
  565SOL    HW111036   3.017   1.741   0.660  0.2946  0.7432  0.6963
  565SOL    HW211037   2.956   1.868   0.578 -0.2929 -0.4482 -0.7387
  566SOL     OW11038   3.050   2.708   1.368 -0.0898 -0.4746 -0.3098
  566SOL    HW111039   3.100   2.786   1.405  1.0389 -0.2784 -2.1865
  566SOL    HW211040   3.066   2.701   1.270 -2.6902 -1.2091 -0.7299
  568SOL     OW11041   4.973   4.224   2.003 -0.0871  0.1704 -0.1644
  568SOL    HW111042   4.992   4.273   1.918 -0.0009  0.5444  0.0714
  568SOL    HW211043   4.878   4.192   2.003  0.4171 -1.3646 -1.1730
  569SOL     OW11044   3.190   1.916   0.923  0.0776  0.5930 -0.2375
  569SOL    HW111045   3.159   1.826   0.892 -0.7248  1.2016 -1.2640
  569SOL    HW211046   3.187   1.980   0.846  1.8093  1.2059  0.1961
  570SOL     OW11047   2.341   0.243   2.030 -0.4714  0.5533  0.7520
  570SOL    HW111048   2.348   0.337   2.065  0.5827  0.5082  0.6897
  570SOL    HW211049   2.433   0.206   2.017 -0.8759 -0.1526 -0.1357
  572SOL     OW11050   2.468   1.365   1.707 -0.4526  0.0534 -0.3254
  572SOL    HW111051   2.410   1.424   1.763  0.6603  1.8501 -1.0357
  572SOL    HW211052   2.532   1.315   1.765  0.2320  1.3765  0.0618
  573SOL     OW11053   3.080   2.328   0.664  0.2857 -0.2431 -0.3899
  573SOL    HW111054   3.000   2.385   0.648 -0.1997 -0.6351  0.5654
  573SOL    HW211055   3.141   2.373   0.729  0.6228 -0.1464 -0.7730
  574SOL     OW11056   3.260   0.314   0.276  0.4063 -0.3261  0.4804
  574SOL    HW111057   3.340   0.268   0.313  0.8079 -0.9327 -1.0814
  574SOL    HW211058   3.241   0.278   0.184 -0.9757  0.6140  0.3845
  576SOL     OW11059   3.425   2.423   1.866  0.0791 -0.0890  0.3188
  576SOL    HW111060   3.326   2.433   1.874 -0.1984 -1.3294 -1.3224
  576SOL    HW211061   3.447   2.338   1.819  1.9113  0.6143 -0.1731
  577SOL     OW11062   3.825   2.821   0.663  0.4490 -0.4942 -0.0871
  577SOL    HW111063   3.763   2.888   0.623 -2.0417 -2.4295  0.3906
  577SOL    HW211064   3.916   2.861   0.672 -0.4553  2.0843 -1.7533
  578SOL     OW11065   3.218   3.688   1.096  0.1202 -0.6892 -0.0015
  578SOL    HW111066   3.226   3.776   1.049 -1.0904  0.4443  1.8293
  578SOL    HW211067   3.303   3.670   1.145 -0.5261  0.7362  1.7033
  579SOL     OW11068   4.676   3.562   1.407 -0.3140 -0.1515 -0.2280
  579SOL    HW111069   4.700   3.556   1.311 -1.4763 -0.5245 -0.5077
  579SOL    HW211070   4.689   3.655   1.440  1.1689 -0.2770 -0.4445
  580SOL     OW11071   4.333   2.359   0.899  0.2948 -0.1045  0.4826
  580SOL    HW111072   4.370   2.339   0.808  2.1498 -0.2242  1.2581
  580SOL    HW211073   4.233   2.362   0.893  0.3767 -0.2824 -1.5257
  581SOL     OW11074   3.632   2.620   0.155 -0.4412  0.1318  0.7927
  581SOL    HW111075   3.571   2.662   0.223 -0.6830 -0.6446  1.0566
  581SOL    HW211076   3.580   2.596   0.073 -0.4958 -0.5170  1.0120
  582SOL     OW11077   2.866   9.351   1.959 -0.0801  0.4895 -0.2841
  582SOL    HW111078   2.821   9.391   2.038  0.3839 -3.0512  1.8679
  582SOL    HW211079   2.797   9.317   1.895 -0.4525  0.1261  0.3147
  583SOL     OW11080   3.262   2.226   1.187  0.0661 -0.2542 -0.0558
  583SOL    HW111081   3.278   2.253   1.282  2.6248 -0.1234 -0.4757
  583SOL    HW211082   3.194   2.153   1.184  0.0220 -0.3307  1.8708
  584SOL     OW11083   3.476   1.868   1.299  0.4606  0.2605 -0.4312
  584SOL    HW111084   3.440   1.777   1.316 -1.4073  1.3698  1.6851
  584SOL    HW211085   3.448   1.899   1.208  0.0849 -0.7689 -0.6677
  585SOL     OW11086   2.405   0.640   0.118 -0.0743  0.0076  0.2279
  585SOL    HW111087   2.381   0.685   0.032 -0.0375 -0.8936 -0.2667
  585SOL    HW211088   2.322   0.607   0.163 -0.1637  1.1948  0.9483
  586SOL     OW11089   3.593   4.099   2.134 -0.7852  0.1642 -0.3589
  586SOL    HW111090   3.616   4.192   2.106 -0.8805  0.0275 -0.8907
  586SOL    HW211091   3.533   4.058   2.065 -2.1899  0.3358  0.7278
  587SOL     OW11092   2.450   2.199   1.900 -0.1588 -0.2938 -0.0238
  587SOL    HW111093   2.352   2.187   1.916 -0.3127  1.0855  0.1391
  587SOL    HW211094   2.501   2.168   1.981 -0.4074 -1.6636 -0.3777
  589SOL     OW11095   2.803   2.655   0.622  0.4041 -0.2132  0.3099
  589SOL    HW111096   2.796   2.693   0.715  4.0085 -1.1021  1.0115
  589SOL    HW211097   2.768   2.562   0.622 -0.9445  0.2859  0.4386
  590SOL     OW11098   3.927   2.514   1.607  0.3315 -0.3152  0.1699
  590SOL    HW111099   3.991   2.473   1.542  0.3101 -0.0589 -0.0100
  590SOL    HW211100   3.843   2.460   1.610  0.2195 -0.1657 -0.2257
  591SOL     OW11101   3.634   2.203   0.667  0.4170 -0.1871  0.1385
  591SOL    HW111102   3.554   2.198   0.606 -0.2662 -0.4881  1.0338
  591SOL    HW211103   3.682   2.289   0.652 -1.6626  1.2797  1.5039
  593SOL     OW11104   3.255   2.881   0.413 -0.3868  0.0639 -0.7697
  593SOL    HW111105   3.208   2.795   0.395  0.3909 -0.3509 -0.8346
  593SOL    HW211106   3.210   2.929   0.488 -0.9261 -0.3131 -0.8492
  594SOL     OW11107   3.170   3.389   1.112  0.2867 -0.0314  0.4075
  594SOL    HW111108   3.243   3.409   1.178  1.3378  0.0789 -0.7530
  594SOL    HW211109   3.133   3.475   1.077  0.7712 -0.0791 -0.2439
  597SOL     OW11110   3.190   9.492   2.031  0.3406  0.2559 -0.1100
  597SOL    HW111111   3.176   9.565   1.964 -0.1841  0.7848  0.5605
  597SOL    HW211112   3.129   9.507   2.109  0.5716 -0.6419  0.2441
  598SOL     OW11113   3.071   2.618   1.032  0.2733  0.6786 -0.0040
  598SOL    HW111114   3.117   2.551   0.975  0.4030  0.5509  0.2534
  598SOL    HW211115   3.116   2.707   1.022  0.1317  0.7176 -0.3060
  600SOL     OW11116   2.741   9.708   0.347  0.0578  0.3140 -0.4044
  600SOL    HW111117   2.764   9.805   0.343 -1.5003  0.7592  0.7430
  600SOL    HW211118   2.664   9.689   0.287 -0.5737  0.0743  0.4775
  10.00000  10.00000   2.87600
