chitosan Film  in water:acetic acid 2%
13542
    1CHTO  H203    1   5.215   6.959   1.867 -3.3639 -0.5002 -1.7997
    1CHTO   O82    2   5.230   6.867   1.863 -0.2567 -0.1648  0.2124
    1CHTO  C123    3   5.347   6.848   1.935  0.2265  0.0259 -0.3191
    1CHTO  H227    4   5.338   6.909   2.027  2.1183 -2.0348  1.2959
    1CHTO   O77    5   5.339   6.709   1.973  0.5805  0.3082  0.2875
    1CHTO  C118    6   5.434   6.658   2.070 -0.5469 -0.0424  0.8008
    1CHTO  H222    7   5.443   6.718   2.161  0.5556 -1.4039  1.6273
    1CHTO  C125    8   5.416   6.508   2.115  0.1332  0.2941  0.1755
    1CHTO   O84    9   5.490   6.462   2.227  0.7028 -0.2025 -0.0527
    1CHTO  H205   10   5.429   6.433   2.292  0.0862  0.1391 -0.4705
    1CHTO  C114   11   5.571   6.664   1.988 -0.0293 -0.5988  0.2715
    1CHTO  H218   12   5.564   6.607   1.895  1.2136 -0.0794 -0.1440
    1CHTO  C116   13   5.607   6.809   1.945  0.7436 -0.2082 -0.2036
    1CHTO  H220   14   5.630   6.863   2.039 -0.4980  0.3434 -0.1959
    1CHTO   O79   15   5.723   6.802   1.863  0.9331 -0.3816 -0.3481
    1CHTO  H201   16   5.792   6.843   1.910  1.9809  1.1321 -3.0725
    1CHTO  C120   17   5.487   6.876   1.865 -0.1394 -0.3299  0.6316
    1CHTO  H224   18   5.494   6.827   1.766  3.3178  1.5453 -0.1162
    1CHTO   N21   19   5.499   7.024   1.836 -0.1946 -0.3067 -0.4173
    1CHTO  H211   20   5.457   7.074   1.921  0.3765  1.2156 -1.0228
    1CHTO  H212   21   5.605   7.040   1.820  0.2331 -1.8741  0.6970
    1CHTO   O75   22   5.678   6.616   2.080 -0.4675  0.3247  0.2299
    1CHTO  C112   23   5.758   6.488   2.020 -0.0735 -0.4270  0.0087
    1CHTO  H216   24   5.747   6.487   1.911  2.4079  1.6326 -0.3001
    1CHTO   O73   25   5.700   6.371   2.082 -0.3635  0.3288 -0.2747
    1CHTO  C113   26   5.770   6.251   2.068 -0.3918  0.2581 -0.1951
    1CHTO  H217   27   5.789   6.222   1.962  1.3629  1.3789 -0.2208
    1CHTO  C124   28   5.688   6.130   2.131  0.6446 -0.2938 -0.1416
    1CHTO   O83   29   5.560   6.109   2.071 -0.0902 -0.3748  0.5717
    1CHTO  H204   30   5.518   6.192   2.061 -0.4307 -0.4687  1.1592
    1CHTO  C109   31   5.916   6.241   2.120 -0.0439  0.5779 -0.3754
    1CHTO  H213   32   5.907   6.243   2.229 -0.4705  1.8557 -0.4222
    1CHTO  C110   33   5.988   6.370   2.060  0.2042 -0.0554 -0.9731
    1CHTO  H214   34   6.010   6.354   1.954 -1.7973  0.8675 -1.5448
    1CHTO   O78   35   6.112   6.388   2.131  0.3689 -0.2237  0.0871
    1CHTO  H200   36   6.170   6.329   2.088 -0.4320  0.0846 -1.4707
    1CHTO  C111   37   5.910   6.504   2.063 -0.4009  0.4487  0.4905
    1CHTO  H215   38   5.901   6.535   2.168 -0.0538 -0.2397  0.7250
    1CHTO   N19   39   5.973   6.620   1.991 -0.0235  0.3103  0.2612
    1CHTO  H207   40   6.019   6.593   1.897 -1.4549 -0.0953 -0.3317
    1CHTO  H208   41   6.041   6.663   2.064  0.2525 -0.8525  0.7021
    1CHTO   O74   42   5.979   6.115   2.078 -0.1206 -0.2021  0.2252
    1CHTO  C115   43   6.033   6.031   2.189 -0.4173 -0.5907 -0.0608
    1CHTO  H219   44   6.007   6.077   2.285 -1.2453  2.8443 -1.8511
    1CHTO   O76   45   5.968   5.884   2.191 -0.6822 -0.1181  0.1430
    1CHTO  C122   46   5.971   5.829   2.061  0.0921  0.5894  0.1319
    1CHTO  H226   47   5.914   5.894   1.995 -0.4020 -1.1400 -1.1860
    1CHTO  C126   48   5.902   5.683   2.062 -0.5639  0.0683 -0.4422
    1CHTO   O85   49   5.858   5.637   1.932  0.4745  0.4731  0.6858
    1CHTO  H206   50   5.831   5.548   1.926  0.4117  0.4231  1.5513
    1CHTO  C121   51   6.123   5.819   2.002 -0.4574  0.2918  0.0492
    1CHTO  H225   52   6.147   5.711   1.993 -0.8551  0.3755 -2.3954
    1CHTO   O81   53   6.120   5.861   1.863  0.2681  0.2376 -0.0082
    1CHTO  H202   54   6.044   5.833   1.815 -0.7137 -0.2368  1.7821
    1CHTO  C119   55   6.239   5.899   2.089 -0.1884  0.0801 -0.0184
    1CHTO  H223   56   6.268   5.833   2.171  0.9534  1.1305  0.4274
    1CHTO  C117   57   6.186   6.034   2.155 -0.1072 -0.2651 -0.3236
    1CHTO  H221   58   6.209   6.121   2.093 -0.4407  0.1292  0.1037
    1CHTO   N20   59   6.265   6.061   2.279  0.0889 -0.3000  0.8510
    1CHTO  H209   60   6.368   6.039   2.259  0.2399  0.7874  0.3838
    1CHTO  H210   61   6.240   5.987   2.353 -2.5548  0.6917  1.0173
    1CHTO   O80   62   6.384   5.918   2.008 -0.0900 -0.1303 -0.7486
    1CHTO  C103   63   6.491   5.790   2.002 -0.5088 -0.6109 -0.0346
    1CHTO  H190   64   6.494   5.735   2.095 -0.1589 -1.4649 -0.5468
    1CHTO  C101   65   6.476   5.683   1.890  0.1699  0.4184  0.4326
    1CHTO  H188   66   6.481   5.728   1.791  2.7631  0.1934  0.4174
    1CHTO   O68   67   6.358   5.616   1.918 -0.3350 -0.0004  0.5821
    1CHTO  H168   68   6.381   5.526   1.930 -1.3223 -0.6460 -1.9649
    1CHTO   C99   69   6.599   5.585   1.901  0.0842 -0.2716 -0.7098
    1CHTO  H186   70   6.586   5.526   1.994  1.5013  0.6809  0.0921
    1CHTO   N17   71   6.599   5.482   1.789  0.4875  0.3668 -0.2780
    1CHTO  H174   72   6.511   5.496   1.729 -0.0692  2.6587  1.0154
    1CHTO  H175   73   6.607   5.386   1.839  0.7936  0.7869  0.4774
    1CHTO   C97   74   6.736   5.665   1.917 -0.1544 -0.4409 -0.4433
    1CHTO  H184   75   6.754   5.703   1.815 -0.3983 -0.3945 -0.4691
    1CHTO   O64   76   6.719   5.767   2.012  0.0091  0.3217  1.0080
    1CHTO  C104   77   6.627   5.868   1.985  0.0900 -0.0851  0.4247
    1CHTO  H191   78   6.631   5.909   1.884 -2.3694 -1.6356 -0.3446
    1CHTO  C108   79   6.644   5.985   2.084 -0.1916 -0.1509 -0.1099
    1CHTO   O71   80   6.741   6.084   2.043 -0.1079 -0.4029  0.1331
    1CHTO  H171   81   6.770   6.135   2.116 -0.4543 -1.6460  1.1651
    1CHTO   O62   82   6.843   5.581   1.959 -0.2903 -0.1398  0.1742
    1CHTO   C91   83   6.962   5.572   1.879 -0.8120 -0.5698  0.1941
    1CHTO  H178   84   6.931   5.566   1.774 -0.0781 -0.0346 -0.0558
    1CHTO   C92   85   7.022   5.431   1.918 -0.0925  1.1100 -0.8862
    1CHTO  H179   86   7.009   5.425   2.027  0.7549  1.4519 -0.7665
    1CHTO   O66   87   6.947   5.320   1.864 -0.2875  0.2494 -0.2954
    1CHTO  H166   88   7.001   5.243   1.865 -1.5055 -0.5989  0.9823
    1CHTO   C93   89   7.171   5.428   1.874  0.4085  0.0064  0.0744
    1CHTO  H180   90   7.172   5.422   1.764  1.0150  2.2742 -0.0651
    1CHTO   N16   91   7.238   5.294   1.910 -0.2391 -0.5411 -0.2003
    1CHTO  H172   92   7.308   5.309   1.991 -0.3722 -0.0827 -0.1722
    1CHTO  H173   93   7.291   5.250   1.826  0.4634 -0.7423  0.3380
    1CHTO   C94   94   7.255   5.552   1.921  0.0404  0.2679  0.1806
    1CHTO  H181   95   7.260   5.556   2.029 -1.1022  1.8761  0.1980
    1CHTO   O61   96   7.193   5.670   1.865 -0.2752  0.4331 -0.1804
    1CHTO   C95   97   7.061   5.690   1.913  0.5230  0.1257  0.3481
    1CHTO  H182   98   7.071   5.707   2.020  1.1878  0.8810  0.1753
    1CHTO  C106   99   7.009   5.830   1.853 -0.3645  0.1373 -0.0674
    1CHTO   O69  100   7.004   5.827   1.710 -0.0621 -0.2528 -0.0295
    1CHTO  H169  101   6.919   5.864   1.692 -0.0739 -0.0032  0.5207
    1CHTO   O63  102   7.398   5.542   1.854 -0.2111 -0.0985 -0.2649
    1CHTO   C96  103   7.506   5.628   1.926  0.2615 -1.6141 -0.2215
    1CHTO  H183  104   7.464   5.700   1.996  1.4423  0.8604 -1.9771
    1CHTO   C98  105   7.606   5.703   1.837  0.0030  0.6885 -0.3160
    1CHTO  H185  106   7.550   5.769   1.769  2.2714  2.2540 -0.7510
    1CHTO   O67  107   7.692   5.789   1.907  0.1393 -0.6627  0.7535
    1CHTO  H167  108   7.676   5.877   1.879  2.4575 -0.8510 -1.3765
    1CHTO  C102  109   7.699   5.607   1.751  0.0927  0.0494  0.0703
    1CHTO  H189  110   7.793   5.665   1.747  0.1358  0.1115  1.6150
    1CHTO   N18  111   7.654   5.585   1.610 -0.0785 -0.2285 -0.7221
    1CHTO  H176  112   7.550   5.614   1.607  0.3893  1.3885 -2.0006
    1CHTO  H177  113   7.660   5.481   1.583 -1.2366 -0.3118 -0.6745
    1CHTO  C105  114   7.736   5.477   1.836  0.2575  0.0715  0.2128
    1CHTO  H192  115   7.674   5.392   1.806 -0.3029  0.3626  0.5398
    1CHTO   O65  116   7.715   5.485   1.977 -0.1833  0.3483  0.0031
    1CHTO  C100  117   7.582   5.515   2.015  0.0008 -0.2869 -0.5793
    1CHTO  H187  118   7.527   5.420   2.009 -0.5981  0.1140 -1.4516
    1CHTO  C107  119   7.579   5.559   2.163 -0.4609  0.0200 -0.4866
    1CHTO   O70  120   7.656   5.678   2.183 -0.2322  0.4320 -0.1527
    1CHTO  H170  121   7.603   5.752   2.159  2.3396  2.4514  0.1468
    1CHTO   O57  122   7.898   5.447   1.816 -0.4807  0.1645  0.1956
    1CHTO   C85  123   7.925   5.347   1.712 -0.0303 -0.4054 -0.3104
    1CHTO  H157  124   7.852   5.365   1.630  0.4234 -0.8174 -0.8171
    1CHTO   C83  125   7.892   5.203   1.764  0.1792  0.1475 -0.3373
    1CHTO  H155  126   7.787   5.207   1.794 -0.2841 -3.5560 -1.2578
    1CHTO   O56  127   7.962   5.181   1.889  0.0868 -0.1621  0.0905
    1CHTO  H135  128   8.054   5.194   1.879  0.2803  0.5316  2.5075
    1CHTO   C81  129   7.918   5.081   1.659 -0.2851 -0.2656 -0.3318
    1CHTO  H153  130   7.847   5.094   1.576 -0.9344  1.5839  0.4887
    1CHTO   N14  131   7.876   4.954   1.716 -0.0112  0.2904  0.0806
    1CHTO  H141  132   7.907   4.939   1.817 -1.0034 -2.5757  0.0010
    1CHTO  H142  133   7.928   4.882   1.657 -0.9245 -0.8896  0.7109
    1CHTO   C79  134   8.062   5.094   1.598  0.0174 -0.1937 -0.3021
    1CHTO  H151  135   8.061   5.045   1.501  0.7474 -0.8317  0.0057
    1CHTO   O52  136   8.084   5.235   1.554 -0.6291  0.7686 -0.1462
    1CHTO   C86  137   8.074   5.336   1.651  0.2998 -0.1623  0.2645
    1CHTO  H158  138   8.147   5.309   1.730  0.8183  0.2072 -0.0910
    1CHTO   C90  139   8.124   5.472   1.588  0.0411  0.2840 -0.1812
    1CHTO   O60  140   8.032   5.518   1.486 -0.2609  0.5997  0.4610
    1CHTO  H138  141   8.065   5.598   1.450  1.8979 -0.3303  0.3250
    1CHTO   O50  142   8.167   5.032   1.676  0.1279  0.3442 -0.1713
    1CHTO   C73  143   8.296   4.978   1.667  0.2296 -0.0172 -0.4700
    1CHTO  H145  144   8.318   4.945   1.564 -1.4177  0.8337 -1.1124
    1CHTO   C74  145   8.300   4.842   1.747  0.6724 -0.2135 -0.3324
    1CHTO  H146  146   8.210   4.787   1.714 -1.5068  3.2966 -0.5485
    1CHTO   O54  147   8.424   4.762   1.717  0.1274  0.4205 -0.2253
    1CHTO  H133  148   8.414   4.723   1.632  2.1769  1.0505 -0.7846
    1CHTO   C75  149   8.291   4.873   1.898  0.2359  0.8236  0.8680
    1CHTO  H147  150   8.193   4.919   1.915 -0.8316 -1.0313 -0.0287
    1CHTO   N13  151   8.301   4.749   1.982 -0.0755 -0.5822  0.3207
    1CHTO  H139  152   8.259   4.663   1.931 -0.5031  0.3990 -0.9997
    1CHTO  H140  153   8.403   4.722   2.005  0.0853 -0.9589 -0.8129
    1CHTO   C76  154   8.402   4.980   1.942  0.1419  0.5097  0.5332
    1CHTO  H148  155   8.496   4.932   1.914 -0.4606  0.6249 -1.7689
    1CHTO   O49  156   8.396   5.095   1.855 -0.1141 -0.5075  0.2070
    1CHTO   C77  157   8.408   5.072   1.713 -0.1338  0.8138  0.5939
    1CHTO  H149  158   8.508   5.031   1.704  0.1799  1.6511  0.2520
    1CHTO   C88  159   8.403   5.205   1.639  0.2568  0.1841 -0.1400
    1CHTO   O58  160   8.492   5.290   1.678  0.3843  0.3064  0.1780
    1CHTO  H136  161   8.568   5.285   1.623  1.6390  0.9027  1.8228
    1CHTO   O51  162   8.379   5.018   2.096 -0.4861 -0.4762 -0.4719
    1CHTO   C78  163   8.344   5.168   2.124 -0.2388  0.3409  0.2465
    1CHTO  H150  164   8.309   5.221   2.033  1.1708  0.4167 -0.2511
    1CHTO   C80  165   8.468   5.240   2.190  0.8882 -0.2024  0.0148
    1CHTO  H152  166   8.507   5.177   2.273 -1.4744  0.2093  1.5088
    1CHTO   O55  167   8.572   5.254   2.089 -0.1290  0.0337 -0.0887
    1CHTO  H134  168   8.641   5.306   2.125 -0.7236 -0.1969  1.4160
    1CHTO   C84  169   8.425   5.379   2.249 -0.5994  0.6388 -0.4410
    1CHTO  H156  170   8.387   5.436   2.165 -1.2079 -0.4409 -0.9107
    1CHTO   N15  171   8.539   5.450   2.312  0.3277 -0.4469 -0.3346
    1CHTO  H143  172   8.530   5.451   2.418 -1.2693 -1.1729 -0.4450
    1CHTO  H144  173   8.539   5.551   2.276  1.5337  0.7513  2.8877
    1CHTO   C87  174   8.293   5.360   2.335 -1.2874  0.5098  0.3440
    1CHTO  H159  175   8.311   5.303   2.426 -2.6700  0.5038  0.6304
    1CHTO   O53  176   8.182   5.302   2.258 -0.0415  0.0879 -0.1780
    1CHTO   C82  177   8.215   5.167   2.210 -0.4257 -0.1072 -0.0332
    1CHTO  H154  178   8.239   5.098   2.291 -1.4336 -0.3021  0.1014
    1CHTO   C89  179   8.100   5.104   2.135 -0.2972 -0.5231  0.6808
    1CHTO   O59  180   7.973   5.123   2.202  0.0586  0.9212  0.3961
    1CHTO  H137  181   7.958   5.043   2.249  2.1641 -0.9515 -2.0165
    1CHTO   O45  182   8.229   5.497   2.406 -0.2461  0.0030  0.0536
    1CHTO   C67  183   8.148   5.585   2.329  0.0781 -0.6817  1.0141
    1CHTO  H124  184   8.186   5.585   2.226 -0.0910  0.8485  0.9339
    1CHTO   C65  185   7.998   5.536   2.323 -0.1383  0.5074 -0.0867
    1CHTO  H122  186   7.999   5.428   2.341 -1.0353  0.5923  0.5263
    1CHTO   O44  187   7.940   5.543   2.191 -0.3194  0.7193  0.2176
    1CHTO  H102  188   8.005   5.508   2.133 -0.8192 -0.1358  0.1595
    1CHTO   C63  189   7.917   5.591   2.445 -0.0291  0.7457  0.3902
    1CHTO  H120  190   7.982   5.584   2.532 -2.5594  2.7069  2.5584
    1CHTO   N11  191   7.785   5.531   2.492  0.2017  0.2014  0.0329
    1CHTO  H108  192   7.776   5.496   2.592 -2.5487  0.6394 -0.0377
    1CHTO  H109  193   7.754   5.453   2.425  1.6102  0.0979 -0.5221
    1CHTO   C61  194   7.909   5.746   2.434  0.0058  0.0046  0.2297
    1CHTO  H118  195   7.900   5.774   2.540 -1.6859 -1.5016  0.4960
    1CHTO   O40  196   8.030   5.809   2.377 -0.6636 -0.5854 -0.6106
    1CHTO   C68  197   8.153   5.736   2.377  0.3613 -0.3014 -0.5949
    1CHTO  H125  198   8.188   5.728   2.483 -0.0635 -3.3046 -0.6274
    1CHTO   C72  199   8.242   5.829   2.308 -0.3917 -0.7588 -0.0884
    1CHTO   O48  200   8.381   5.803   2.324  0.1697 -0.0909 -0.0159
    1CHTO  H105  201   8.397   5.765   2.409  1.7051 -0.0807 -0.2966
    1CHTO   O38  202   7.803   5.803   2.357  0.1507 -0.2918 -0.1435
    1CHTO   C55  203   7.736   5.925   2.382 -0.5227 -0.2019 -0.1753
    1CHTO  H112  204   7.789   5.995   2.449  0.7609  0.2332 -1.6239
    1CHTO   C56  205   7.587   5.893   2.436 -0.1751 -0.2823 -0.8275
    1CHTO  H113  206   7.525   5.837   2.364 -1.6284  0.5166 -0.2343
    1CHTO   O42  207   7.600   5.810   2.548 -0.0315 -0.1082 -0.2645
    1CHTO  H100  208   7.587   5.719   2.531  1.0286 -0.8168  2.4540
    1CHTO   C57  209   7.521   6.033   2.467 -0.0286 -0.2194 -0.5047
    1CHTO  H114  210   7.575   6.078   2.550 -0.7186 -0.0140 -0.1661
    1CHTO   N10  211   7.381   6.023   2.514 -0.2304 -0.4767 -0.3309
    1CHTO  H106  212   7.325   5.955   2.452 -1.8732 -0.8072  1.4518
    1CHTO  H107  213   7.368   5.990   2.616 -0.5891  2.3220  0.5787
    1CHTO   C58  214   7.525   6.122   2.340 -0.4090 -0.1194 -0.4932
    1CHTO  H115  215   7.458   6.076   2.264  2.1206 -3.9657 -0.4979
    1CHTO   O37  216   7.651   6.132   2.276  0.6962 -0.0570 -0.1100
    1CHTO   C59  217   7.722   6.013   2.250  0.0070 -0.7280  0.7629
    1CHTO  H116  218   7.667   5.962   2.171 -0.0266 -1.1631  1.0728
    1CHTO   C70  219   7.864   6.060   2.202 -0.3349  0.3328 -0.5958
    1CHTO   O46  220   7.875   6.167   2.110  0.1600  0.1091  0.1255
    1CHTO  H103  221   7.845   6.141   2.025  3.8568  1.9556 -1.8779
    1CHTO   O39  222   7.488   6.264   2.365  0.3017 -0.0379 -0.3095
    1CHTO   C60  223   7.433   6.334   2.258 -0.5187  0.6243  0.2830
    1CHTO  H117  224   7.460   6.282   2.167 -0.2456  2.2146 -0.5622
    1CHTO   C62  225   7.279   6.329   2.262  0.5252  0.2709  0.0864
    1CHTO  H119  226   7.246   6.224   2.257  2.3603 -0.2166 -2.4486
    1CHTO   O43  227   7.241   6.371   2.399 -0.1001  0.4626  0.2478
    1CHTO  H101  228   7.259   6.462   2.411  1.5071  0.1701  0.1506
    1CHTO   C66  229   7.216   6.413   2.143  1.6075 -0.0591 -0.2460
    1CHTO  H123  230   7.248   6.374   2.046  0.3999  0.3861 -0.8255
    1CHTO   N12  231   7.074   6.408   2.139  0.4744 -0.4894 -0.8569
    1CHTO  H110  232   7.044   6.483   2.067 -0.6994 -0.5844 -0.4689
    1CHTO  H111  233   7.032   6.309   2.132  0.7953 -0.8954  2.2484
    1CHTO   C69  234   7.269   6.559   2.139 -0.3730  0.0997  0.6796
    1CHTO  H126  235   7.243   6.613   2.232 -1.4154 -1.4355  1.3051
    1CHTO   O41  236   7.425   6.549   2.127 -0.2373  0.2545 -0.0963
    1CHTO   C64  237   7.489   6.481   2.231 -0.1212 -0.4628 -0.1455
    1CHTO  H121  238   7.481   6.541   2.323 -0.8442 -1.5318  0.4967
    1CHTO   C71  239   7.642   6.473   2.205  0.3286 -0.3151  0.3200
    1CHTO   O47  240   7.693   6.601   2.165  0.3543  0.2674 -0.0669
    1CHTO  H104  241   7.718   6.653   2.239 -1.6016  0.0238  0.8139
    1CHTO   O34  242   7.209   6.644   2.019 -0.0421 -0.3825 -0.4105
    1CHTO   C49  243   7.132   6.792   2.028  0.3171 -0.3855 -0.1959
    1CHTO   H91  244   7.046   6.786   1.961 -0.8027  1.1827  1.0342
    1CHTO   C47  245   7.219   6.906   1.971 -0.4707  0.0696 -0.6252
    1CHTO   H89  246   7.153   6.995   1.966 -0.1703  0.2625 -1.2374
    1CHTO   O33  247   7.268   6.872   1.838 -0.3868 -0.4293 -0.2166
    1CHTO   H70  248   7.280   6.949   1.786 -1.0514  1.0119  1.7000
    1CHTO   C45  249   7.335   6.939   2.081  0.0399  0.4969  0.1479
    1CHTO   H87  250   7.397   6.850   2.094  0.3583  0.7517  0.4024
    1CHTO    N8  251   7.427   7.042   2.032 -0.1990 -0.5324  0.4985
    1CHTO   H75  252   7.446   7.128   2.095 -2.2888  0.5539 -0.2722
    1CHTO   H76  253   7.402   7.083   1.936 -0.7620  1.3392  1.4224
    1CHTO   C43  254   7.278   6.961   2.226 -0.0577  0.1745 -0.4165
    1CHTO   H85  255   7.362   6.967   2.295  1.2604 -0.6448 -1.9432
    1CHTO   O29  256   7.185   6.856   2.261  0.1237  0.0091  0.2244
    1CHTO   C50  257   7.082   6.817   2.168  0.7078  0.0637  0.1297
    1CHTO   H92  258   7.032   6.722   2.194 -0.1425 -0.1492 -2.1472
    1CHTO   C54  259   6.967   6.920   2.181  0.0630 -0.0333  0.3502
    1CHTO   O36  260   6.847   6.874   2.114  0.0150 -0.1501 -0.1017
    1CHTO   H72  261   6.806   6.936   2.057 -0.9928 -1.2607 -0.6125
    1CHTO   O27  262   7.206   7.090   2.231 -0.2441 -0.4080 -0.1103
    1CHTO   C37  263   7.217   7.201   2.324  0.0899 -0.0291  0.0664
    1CHTO   H79  264   7.244   7.163   2.424  1.9515  0.5371 -0.2075
    1CHTO   C38  265   7.335   7.291   2.281  0.1271  0.8108 -0.3913
    1CHTO   H80  266   7.339   7.288   2.171 -1.4933 -2.8591 -0.4273
    1CHTO   O31  267   7.461   7.233   2.325 -1.2128  0.3724 -0.7602
    1CHTO   H68  268   7.536   7.265   2.278 -0.8436  1.4000  0.4838
    1CHTO   C39  269   7.325   7.445   2.329  0.0860  0.0927  0.1250
    1CHTO   H81  270   7.337   7.438   2.437  0.2674 -3.2479 -0.0697
    1CHTO    N7  271   7.430   7.542   2.280  0.2092  0.2825 -0.3379
    1CHTO   H73  272   7.526   7.499   2.304  1.7316  2.5895 -2.1303
    1CHTO   H74  273   7.416   7.637   2.329 -0.8418  0.2984 -0.6624
    1CHTO   C40  274   7.179   7.501   2.303 -0.0872 -0.0016  0.1385
    1CHTO   H82  275   7.165   7.504   2.195  1.1574 -0.4242 -0.0512
    1CHTO   O26  276   7.087   7.412   2.372  0.4119  0.4312  0.1445
    1CHTO   C41  277   7.080   7.273   2.336  0.1634  0.3177 -0.2645
    1CHTO   H83  278   7.021   7.273   2.244  0.1637  1.8656 -0.2810
    1CHTO   C52  279   6.990   7.205   2.442 -0.7112 -0.3507 -0.2845
    1CHTO   O35  280   7.063   7.201   2.594 -0.4046  0.0215  0.3979
    1CHTO   H71  281   7.146   7.244   2.600  0.1349 -0.9523  0.0606
    1CHTO   O28  282   7.149   7.623   2.372 -0.0747 -0.0707  0.5684
    1CHTO   C42  283   7.081   7.733   2.299 -0.0276  0.3428  1.2507
    1CHTO   H84  284   7.094   7.722   2.191 -0.1346  0.7194  1.1995
    1CHTO   C44  285   7.150   7.868   2.334 -0.2157  0.2597 -0.0542
    1CHTO   H86  286   7.143   7.883   2.442 -0.3331 -0.5853  0.0613
    1CHTO   O32  287   7.287   7.847   2.308  0.2768  0.3590  0.2574
    1CHTO   H69  288   7.337   7.908   2.357 -0.0037 -0.4189  1.5220
    1CHTO   C48  289   7.085   7.990   2.261  0.0909 -0.0490 -0.5362
    1CHTO   H90  290   7.103   7.971   2.155  0.4125 -3.0713  0.0164
    1CHTO    N9  291   7.157   8.121   2.299 -0.1050  0.0978 -0.5936
    1CHTO   H77  292   7.136   8.203   2.232 -0.2396 -0.6968 -1.5271
    1CHTO   H78  293   7.139   8.151   2.402 -1.1479 -0.1580 -0.6981
    1CHTO   C51  294   6.931   8.003   2.289 -0.2184  0.4381 -0.0443
    1CHTO   H93  295   6.918   8.017   2.396  2.4183  1.3506  0.1976
    1CHTO   O30  296   6.876   7.877   2.245 -0.1764  0.2416 -0.7763
    1CHTO   C46  297   6.922   7.745   2.326 -0.0348  0.0043 -0.0229
    1CHTO   H88  298   6.895   7.767   2.430 -1.3964  4.1927 -1.1485
    1CHTO   C53  299   6.835   7.637   2.256 -0.1165 -0.3085  0.4440
    1CHTO   O72  300   6.838   7.517   2.328  0.1136 -0.1067 -0.2095
    1CHTO  H199  301   6.750   7.486   2.337  0.2213 -1.3853 -2.8878
    1CHTO   O22  302   6.864   8.112   2.220  0.5643 -0.2422 -0.0297
    1CHTO   C31  303   6.820   8.117   2.075 -0.5959  0.4531 -0.5576
    1CHTO   H59  304   6.765   8.213   2.064 -0.7759  0.3760 -0.3280
    1CHTO   C29  305   6.934   8.125   1.969 -0.0939  0.2131  0.1371
    1CHTO   H57  306   6.974   8.023   1.967 -0.1123  0.2152 -0.5517
    1CHTO   O21  307   7.035   8.217   2.007  0.1045 -0.0656  0.9634
    1CHTO   H37  308   7.003   8.304   2.024  0.8307  0.4796 -0.3670
    1CHTO   C27  309   6.867   8.150   1.827  0.1427 -0.1547  0.9156
    1CHTO   H55  310   6.809   8.243   1.829 -0.1361 -0.3012  0.0743
    1CHTO    N5  311   6.969   8.151   1.714  0.0738  0.3103  0.2799
    1CHTO   H43  312   7.056   8.094   1.743  0.4331 -0.0015 -1.3674
    1CHTO   H44  313   7.004   8.253   1.700  0.6046  0.1632  0.5069
    1CHTO   C25  314   6.771   8.036   1.803 -0.0404  0.1045 -0.2748
    1CHTO   H53  315   6.823   7.939   1.806  0.6357  0.3053 -3.3477
    1CHTO   O17  316   6.672   8.022   1.903  0.8180 -0.3457  0.2501
    1CHTO   C32  317   6.724   8.002   2.031 -0.8261  0.0672 -0.0874
    1CHTO   H60  318   6.777   7.907   2.029  0.7203  0.9238 -0.1594
    1CHTO   C36  319   6.607   7.989   2.127 -0.3780 -0.7086  0.3838
    1CHTO   O25  320   6.528   7.871   2.114  0.3612  0.1693  0.2366
    1CHTO   H40  321   6.490   7.852   2.197 -1.1463 -2.9980 -1.0773
    1CHTO   O15  322   6.686   8.047   1.665 -0.1422 -0.6520 -0.1348
    1CHTO   C19  323   6.621   7.999   1.544 -0.0308  0.2592 -0.1117
    1CHTO   H47  324   6.516   8.030   1.553 -0.7943 -2.1706 -0.1941
    1CHTO   C20  325   6.685   8.053   1.417  0.6539 -0.0235  0.5291
    1CHTO   H48  326   6.793   8.036   1.412  1.1125  2.7291 -0.0923
    1CHTO   O19  327   6.663   8.195   1.419  0.5187 -0.1088 -0.1451
    1CHTO   H35  328   6.570   8.211   1.421  0.1442 -1.7004 -2.3928
    1CHTO   C21  329   6.628   7.980   1.289  0.7399  0.4819 -0.6403
    1CHTO   H49  330   6.521   7.999   1.277 -0.1172 -3.5009 -0.0265
    1CHTO    N4  331   6.693   8.038   1.165 -0.2083  0.3727 -0.3072
    1CHTO   H41  332   6.636   7.989   1.088 -1.7469 -0.5036  1.3581
    1CHTO   H42  333   6.677   8.145   1.167  2.7733  0.8624 -0.5114
    1CHTO   C22  334   6.632   7.822   1.315  0.7528 -0.1840  0.3163
    1CHTO   H50  335   6.736   7.794   1.328  0.7327  0.2670  1.5168
    1CHTO   O14  336   6.547   7.789   1.428  0.4977  0.1609  0.0806
    1CHTO   C23  337   6.613   7.845   1.544  0.6128 -0.8148  0.2227
    1CHTO   H51  338   6.712   7.797   1.554  0.1910 -1.5748  0.7922
    1CHTO   C34  339   6.532   7.783   1.660  0.2131 -0.3677 -0.3941
    1CHTO   O23  340   6.591   7.794   1.790  0.5631 -0.7904 -0.3173
    1CHTO   H38  341   6.658   7.729   1.803 -0.9475 -2.1816  0.6979
    1CHTO   O16  342   6.559   7.768   1.203 -0.1668 -0.0902  0.3498
    1CHTO   C24  343   6.615   7.644   1.120 -0.4673 -0.0269 -0.7531
    1CHTO   H52  344   6.723   7.643   1.113 -0.4904 -1.6931 -1.0425
    1CHTO   C26  345   6.557   7.659   0.975  0.7579  0.4671 -0.1284
    1CHTO   H54  346   6.449   7.634   0.985  0.7105  0.9233  0.5214
    1CHTO   O20  347   6.569   7.791   0.926  0.4180  0.5614  0.0727
    1CHTO   H36  348   6.570   7.804   0.833 -0.8554 -0.5306 -0.1097
    1CHTO   C30  349   6.622   7.544   0.891 -0.3259 -0.3657  0.0266
    1CHTO   H58  350   6.730   7.555   0.905  0.0746 -2.2270 -1.3564
    1CHTO    N6  351   6.577   7.546   0.755 -0.2733  0.1347  0.5227
    1CHTO   H45  352   6.470   7.538   0.746 -0.3715  1.3016  0.5770
    1CHTO   H46  353   6.629   7.472   0.695 -0.6582  1.1233 -1.0714
    1CHTO   C33  354   6.601   7.402   0.953  0.0650 -0.7175 -0.1865
    1CHTO   H61  355   6.493   7.381   0.953  0.2126 -1.4901  0.1592
    1CHTO   O18  356   6.641   7.411   1.087  0.5444  0.5531 -0.1767
    1CHTO   C28  357   6.570   7.504   1.175  0.5283 -0.3629  0.2035
    1CHTO   H56  358   6.463   7.488   1.165  0.7052 -1.0287 -0.6852
    1CHTO   C35  359   6.607   7.484   1.322 -0.3002 -0.7090  0.0130
    1CHTO   O24  360   6.554   7.365   1.375 -0.4932  0.4680  0.4672
    1CHTO   H39  361   6.619   7.321   1.427  0.4756  0.8771 -0.3762
    1CHTO    O9  362   6.666   7.290   0.886 -0.0448  0.2706 -0.3766
    1CHTO   C13  363   6.645   7.124   0.928 -0.4545 -0.9873 -0.4350
    1CHTO   H26  364   6.537   7.101   0.938 -0.7546  0.9441  1.0441
    1CHTO   C11  365   6.721   7.087   1.059 -0.3806 -0.3488 -0.1586
    1CHTO   H24  366   6.674   7.133   1.147 -1.8976 -2.0032 -0.0793
    1CHTO    O8  367   6.857   7.136   1.046  0.8399 -0.3539  0.5337
    1CHTO    H3  368   6.864   7.230   1.048  1.4955 -0.3588 -0.7522
    1CHTO    C9  369   6.699   6.930   1.084  0.1034 -0.1673  1.3102
    1CHTO   H22  370   6.591   6.908   1.085 -0.0725  0.4326 -0.6998
    1CHTO    N2  371   6.753   6.886   1.215  0.2217 -0.3617 -0.0830
    1CHTO   H10  372   6.762   6.779   1.211 -0.1454 -0.4021  0.1773
    1CHTO   H11  373   6.680   6.917   1.289  1.0950  0.4053  0.4605
    1CHTO    C7  374   6.756   6.852   0.963  0.2894  0.4109  0.6833
    1CHTO   H20  375   6.735   6.746   0.987  0.0919  0.0455 -1.0336
    1CHTO    O4  376   6.701   6.887   0.837 -0.4563 -0.5042  0.5649
    1CHTO   C14  377   6.688   7.033   0.808  0.5429  0.4113 -0.0274
    1CHTO   H27  378   6.605   7.049   0.736 -1.1971  1.0352  2.0477
    1CHTO   C18  379   6.817   7.087   0.744 -0.0825  0.0603  0.0193
    1CHTO   O13  380   6.815   7.071   0.604  0.8135  0.1396  0.5753
    1CHTO    H7  381   6.903   7.069   0.570 -0.6245  0.7086 -3.4413
    1CHTO    O2  382   6.913   6.866   0.951  0.4267  0.4920  0.0434
    1CHTO    C1  383   6.991   6.742   0.929  0.0570 -0.7556 -0.0388
    1CHTO   H14  384   6.934   6.660   0.881 -1.0560  0.8645 -1.5657
    1CHTO    C2  385   7.065   6.690   1.062 -0.5648  0.1714  0.6471
    1CHTO   H15  386   7.118   6.778   1.102  1.5801 -0.9156  0.2980
    1CHTO    O6  387   6.960   6.652   1.153  0.4071  0.7106 -0.1707
    1CHTO    H1  388   6.901   6.723   1.169 -0.1454  0.0371  0.8445
    1CHTO    C3  389   7.175   6.571   1.039 -0.3524 -0.8046 -0.2037
    1CHTO   H16  390   7.118   6.482   1.008 -2.3115  0.2429  0.2841
    1CHTO    N1  391   7.243   6.541   1.159 -0.1048  0.1121 -0.2332
    1CHTO    H8  392   7.251   6.625   1.226 -0.1635  0.7153 -0.9789
    1CHTO    H9  393   7.344   6.513   1.135 -0.5445 -1.0005 -0.8360
    1CHTO    C4  394   7.260   6.612   0.915 -0.0528 -0.0957  0.4165
    1CHTO   H17  395   7.331   6.690   0.943  1.5482 -1.7612  1.1308
    1CHTO    O1  396   7.181   6.659   0.807 -0.4140  0.1106  0.5851
    1CHTO    C5  397   7.105   6.776   0.830 -0.6628  0.4978 -0.0316
    1CHTO   H18  398   7.173   6.854   0.866  1.5060 -0.8617 -1.0401
    1CHTO   C16  399   7.034   6.808   0.698 -0.4865  0.1835 -0.4049
    1CHTO   O11  400   7.122   6.829   0.592  0.3727 -0.3066  0.4868
    1CHTO    H5  401   7.140   6.919   0.573 -0.2234 -0.1256  0.7773
    1CHTO    O3  402   7.336   6.495   0.865 -0.3431 -0.0700  0.1711
    1CHTO    C6  403   7.438   6.526   0.768  0.2405 -0.3383  0.3798
    1CHTO   H19  404   7.425   6.626   0.726  2.7650 -1.2531 -2.7431
    1CHTO    C8  405   7.580   6.516   0.830  0.0325  0.9128  0.7406
    1CHTO   H21  406   7.579   6.425   0.890 -2.5733  0.8515  0.6476
    1CHTO    O7  407   7.592   6.628   0.921  0.1366  0.1929 -0.1968
    1CHTO    H2  408   7.617   6.605   1.009 -0.2362  0.8226  0.0838
    1CHTO   C12  409   7.693   6.510   0.718  0.0334  0.2598 -0.4762
    1CHTO   H25  410   7.696   6.608   0.666  0.5957  0.2367 -0.4922
    1CHTO    N3  411   7.831   6.489   0.776  0.1044 -0.0340 -0.3044
    1CHTO   H12  412   7.892   6.427   0.713  1.5720  1.0426  0.0191
    1CHTO   H13  413   7.877   6.586   0.790 -0.2589  0.6116 -3.4377
    1CHTO   C15  414   7.644   6.404   0.611  0.5234  0.0780  0.2874
    1CHTO   H28  415   7.637   6.309   0.663 -2.5275 -0.7051 -1.4413
    1CHTO   O10  416   7.729   6.412   0.485 -0.6410 -0.6683  0.5950
    1CHTO    H4  417   7.737   6.321   0.463 -0.7617 -0.4804 -0.2273
    1CHTO    O5  418   7.521   6.439   0.557 -0.9735 -0.0735  0.3541
    1CHTO   C10  419   7.418   6.427   0.648 -0.2368  0.1106 -0.4248
    1CHTO   H23  420   7.417   6.326   0.689 -1.3443 -0.7502 -2.5141
    1CHTO   C17  421   7.298   6.430   0.554  0.2454 -0.2938  0.0027
    1CHTO   O12  422   7.182   6.386   0.618 -0.0515 -0.6692  0.9713
    1CHTO    H6  423   7.125   6.377   0.544 -0.4989 -2.1426  1.4697
    2CHTO  H203  424   6.521   4.586   1.958  0.6501  0.7072  0.3343
    2CHTO   O82  425   6.517   4.569   2.050 -0.1797 -0.5830  0.0764
    2CHTO  C123  426   6.421   4.660   2.117  0.3927  0.7037 -0.8136
    2CHTO  H227  427   6.476   4.751   2.148 -0.8277  2.6276 -4.0687
    2CHTO   O77  428   6.322   4.687   2.021  0.0982  0.1126  0.7615
    2CHTO  C118  429   6.216   4.777   2.053 -0.0575 -0.0797  0.3104
    2CHTO  H222  430   6.256   4.871   2.094  0.9541 -0.3106 -0.1328
    2CHTO  C125  431   6.135   4.810   1.920  0.2463 -0.1494 -0.2896
    2CHTO   O84  432   6.218   4.889   1.836 -0.5128 -0.5752  0.3152
    2CHTO  H205  433   6.307   4.859   1.833  0.3176  1.7121  1.4707
    2CHTO  C114  434   6.133   4.703   2.157 -0.0963 -0.2918  0.4549
    2CHTO  H218  435   6.111   4.603   2.121 -0.1461  0.0757 -0.5363
    2CHTO  C116  436   6.218   4.683   2.283  0.3905  0.7634 -0.9470
    2CHTO  H220  437   6.239   4.781   2.331  1.5741 -0.0836  0.3088
    2CHTO   O79  438   6.132   4.611   2.375 -0.8535  0.0502 -0.3181
    2CHTO  H201  439   6.064   4.670   2.404 -0.0595  1.1266 -0.6239
    2CHTO  C120  440   6.345   4.596   2.240 -0.1371  0.2771  0.2814
    2CHTO  H224  441   6.302   4.497   2.217  0.4207  0.0920  0.0358
    2CHTO   N21  442   6.433   4.580   2.360 -0.0373 -0.3188 -0.4921
    2CHTO  H211  443   6.405   4.494   2.420 -1.7870  0.0546 -0.7636
    2CHTO  H212  444   6.539   4.582   2.340 -0.3383 -0.5102 -2.2334
    2CHTO   O75  445   6.011   4.775   2.189  0.0234 -0.5973 -0.1158
    2CHTO  C112  446   5.870   4.674   2.209 -0.1261 -0.0196 -0.2569
    2CHTO  H216  447   5.896   4.581   2.262  0.3275 -0.2888 -0.9456
    2CHTO   O73  448   5.813   4.642   2.076 -0.4092 -0.0915  0.0459
    2CHTO  C113  449   5.698   4.556   2.079  0.2550  0.1465 -0.4129
    2CHTO  H217  450   5.728   4.467   2.138 -1.7410 -0.6762 -0.5844
    2CHTO  C124  451   5.672   4.507   1.931  0.3110 -0.4680 -0.2645
    2CHTO   O83  452   5.770   4.414   1.877 -0.1451  0.0571 -0.2342
    2CHTO  H204  453   5.740   4.334   1.916  1.0404 -0.7458 -0.9484
    2CHTO  C109  454   5.575   4.621   2.154 -0.6023 -0.6087  0.4451
    2CHTO  H213  455   5.541   4.708   2.096  0.6549  0.3920  1.2008
    2CHTO  C110  456   5.625   4.668   2.293 -0.1308  0.3240 -0.2513
    2CHTO  H214  457   5.646   4.580   2.354  0.7855  0.6993 -0.0139
    2CHTO   O78  458   5.521   4.753   2.349 -0.3529  0.0534 -0.1107
    2CHTO  H200  459   5.454   4.695   2.380  0.3469 -0.0618  1.1934
    2CHTO  C111  460   5.763   4.751   2.296  0.0269 -0.2445  0.3182
    2CHTO  H215  461   5.741   4.849   2.252 -2.4849 -0.6873  0.5131
    2CHTO   N19  462   5.809   4.782   2.436  0.4493 -0.2378  0.1452
    2CHTO  H207  463   5.800   4.695   2.500 -0.0203 -0.6208 -0.4349
    2CHTO  H208  464   5.911   4.817   2.440  1.4951 -2.9524 -1.4643
    2CHTO   O74  465   5.464   4.522   2.164  0.0630  0.7095  0.1187
    2CHTO  C115  466   5.333   4.563   2.086 -0.0521  0.2521  0.3787
    2CHTO  H219  467   5.335   4.666   2.049  2.0791  0.2425  0.4049
    2CHTO   O76  468   5.317   4.480   1.954  0.1260  0.2927 -0.3737
    2CHTO  C122  469   5.236   4.360   1.964 -0.7101 -0.0985  0.3300
    2CHTO  H226  470   5.284   4.292   2.034 -2.6829 -0.5885  1.2568
    2CHTO  C126  471   5.246   4.292   1.823  0.3448  0.2147  0.7865
    2CHTO   O85  472   5.206   4.148   1.817 -0.0437  0.5048 -0.1906
    2CHTO  H206  473   5.267   4.104   1.872 -0.3306 -0.0102 -0.2861
    2CHTO  C121  474   5.087   4.400   2.017 -0.3266 -0.4093  0.1928
    2CHTO  H225  475   5.010   4.400   1.938 -2.6865 -1.5035  2.4015
    2CHTO   O81  476   5.056   4.286   2.095  0.0875 -0.6352  0.0820
    2CHTO  H202  477   5.117   4.265   2.163 -0.3282 -2.2094 -0.0057
    2CHTO  C119  478   5.083   4.532   2.101 -0.7764  0.4018  0.2280
    2CHTO  H223  479   5.085   4.615   2.031 -0.4182  1.1354  1.1019
    2CHTO  C117  480   5.215   4.539   2.189 -0.5335 -0.5656  0.7105
    2CHTO  H221  481   5.245   4.449   2.242 -1.1553 -1.2692 -0.1240
    2CHTO   N20  482   5.203   4.652   2.291  0.2450  0.1155  0.2707
    2CHTO  H209  483   5.267   4.738   2.274  1.0835 -1.1679 -3.3429
    2CHTO  H210  484   5.214   4.624   2.395  1.8416 -2.9323 -0.6452
    2CHTO   O80  485   4.933   4.558   2.181  0.3096 -0.2105  0.0008
    2CHTO  C103  486   4.834   4.685   2.133 -0.0558  0.1820  0.1627
    2CHTO  H190  487   4.873   4.782   2.164  0.5509  0.0326 -0.1330
    2CHTO  C101  488   4.814   4.695   1.979  0.4831 -0.1432  0.1903
    2CHTO  H188  489   4.789   4.592   1.955 -0.3077 -0.2069  1.2361
    2CHTO   O68  490   4.935   4.732   1.915  0.3633  0.3463 -0.4615
    2CHTO  H168  491   5.000   4.668   1.935  0.6588  0.4122 -1.2010
    2CHTO   C99  492   4.691   4.794   1.936  0.4464 -0.2434 -0.1105
    2CHTO  H186  493   4.725   4.898   1.956 -0.6656  0.0882  0.0792
    2CHTO   N17  494   4.655   4.785   1.792  0.8246 -0.7509 -0.1419
    2CHTO  H174  495   4.590   4.863   1.754 -1.7640 -2.2836  0.9904
    2CHTO  H175  496   4.741   4.782   1.727  0.9314 -0.6818 -0.0024
    2CHTO   C97  497   4.563   4.773   2.021 -0.1307 -0.3945  0.6210
    2CHTO  H184  498   4.494   4.693   1.991 -0.6108 -0.7804  2.7128
    2CHTO   O64  499   4.598   4.762   2.160 -0.6347  0.5379 -0.4561
    2CHTO  C104  500   4.689   4.666   2.203  0.4020 -0.1279  1.2246
    2CHTO  H191  501   4.649   4.566   2.184  0.3737 -0.2329  1.8223
    2CHTO  C108  502   4.708   4.668   2.350 -0.3451 -0.4319 -0.0973
    2CHTO   O71  503   4.592   4.637   2.430 -0.3120 -0.1922  0.3216
    2CHTO  H171  504   4.595   4.681   2.513  2.3119  0.5027 -0.0993
    2CHTO   O62  505   4.486   4.896   2.022 -0.2310  0.0487 -0.4187
    2CHTO   C91  506   4.349   4.894   2.061  0.2458 -0.7195 -0.9398
    2CHTO  H178  507   4.323   4.803   2.115  0.4009 -0.6752 -0.7871
    2CHTO   C92  508   4.271   4.892   1.925 -0.3263  0.3335 -0.4078
    2CHTO  H179  509   4.310   4.820   1.852 -1.0857  0.4282 -0.9145
    2CHTO   O66  510   4.131   4.839   1.957 -0.0042 -0.9902  0.4184
    2CHTO  H166  511   4.078   4.907   1.995  0.8281 -1.0141  1.6603
    2CHTO   C93  512   4.258   5.022   1.850 -0.3841  0.3770 -1.0090
    2CHTO  H180  513   4.186   5.011   1.768 -1.2771 -1.8026  0.0425
    2CHTO   N16  514   4.377   5.065   1.767  0.6769 -0.3289 -0.1110
    2CHTO  H172  515   4.338   5.121   1.684  1.7214 -0.7586 -0.9057
    2CHTO  H173  516   4.438   4.983   1.733 -1.0458 -1.8857  0.4526
    2CHTO   C94  517   4.214   5.139   1.952  0.1981 -0.0305  0.1465
    2CHTO  H181  518   4.277   5.228   1.948 -2.3267  1.6953 -2.8460
    2CHTO   O61  519   4.207   5.093   2.088  0.7864  0.0397  0.0792
    2CHTO   C95  520   4.312   5.016   2.149  0.1516 -0.0909  0.9397
    2CHTO  H182  521   4.400   5.079   2.162  1.4924 -1.2764 -2.0402
    2CHTO  C106  522   4.265   4.985   2.298  0.6067  0.4137 -0.5972
    2CHTO   O69  523   4.375   4.935   2.371  0.2178 -0.0634  0.2360
    2CHTO  H169  524   4.420   4.868   2.323  0.0536 -0.6906  0.9529
    2CHTO   O63  525   4.078   5.181   1.918  0.2975  0.8987  0.0888
    2CHTO   C96  526   4.061   5.346   1.930 -0.6079  0.2353 -0.3038
    2CHTO  H183  527   4.161   5.386   1.915 -1.1551  0.7374 -2.8703
    2CHTO   C98  528   4.010   5.389   2.065 -0.0678 -0.1623 -0.5425
    2CHTO  H185  529   3.909   5.347   2.074  0.5361 -1.9677 -1.9720
    2CHTO   O67  530   4.086   5.328   2.172  0.1740  0.2582  0.9422
    2CHTO  H167  531   4.036   5.269   2.226  0.9629 -0.6256  0.7311
    2CHTO  C102  532   4.013   5.544   2.088  0.0476  0.3862  0.8921
    2CHTO  H189  533   4.120   5.565   2.107  0.9010  0.2411 -3.1914
    2CHTO   N18  534   3.939   5.580   2.212 -0.0685  0.0043  0.0921
    2CHTO  H176  535   3.990   5.531   2.294 -1.1143 -0.6798  0.3340
    2CHTO  H177  536   3.928   5.684   2.240 -1.4664 -0.1714  0.2302
    2CHTO  C105  537   3.954   5.619   1.964 -0.0225 -0.1701 -0.9249
    2CHTO  H192  538   3.850   5.648   1.979 -0.2060 -1.3136  0.0538
    2CHTO   O65  539   3.978   5.557   1.830 -0.3445 -0.1879 -0.3724
    2CHTO  C100  540   3.961   5.413   1.828 -0.0270  0.1593 -0.6988
    2CHTO  H187  541   3.861   5.393   1.871  0.8212 -0.2741  1.1323
    2CHTO  C107  542   3.969   5.357   1.687  0.1067 -0.5578  0.5592
    2CHTO   O70  543   3.860   5.263   1.662  0.2055  0.3408 -0.9087
    2CHTO  H170  544   3.795   5.307   1.611 -0.1479  1.5322  0.5541
    2CHTO   O57  545   4.053   5.748   1.971  0.1522  0.1222  0.1465
    2CHTO   C85  546   3.991   5.876   1.947  0.5927  0.2232 -0.3620
    2CHTO  H157  547   3.894   5.870   2.000  0.1003 -0.6674 -1.3415
    2CHTO   C83  548   3.964   5.888   1.795  0.6581 -0.6365 -0.0346
    2CHTO  H155  549   3.897   5.808   1.764  0.3655  0.3647 -2.0966
    2CHTO   O56  550   4.089   5.857   1.733  0.0914  0.3584  0.6243
    2CHTO  H135  551   4.148   5.928   1.743  0.1405  0.5051 -0.6441
    2CHTO   C81  552   3.905   6.025   1.753  0.2161  0.0519  0.3298
    2CHTO  H153  553   3.812   6.047   1.805  0.6100  2.8531 -0.0750
    2CHTO   N14  554   3.866   6.022   1.612  0.0782  0.0241 -0.2880
    2CHTO  H141  555   3.831   6.119   1.585  1.1944  0.5093 -0.0191
    2CHTO  H142  556   3.782   5.956   1.609 -0.2828  0.4994 -0.7886
    2CHTO   C79  557   4.007   6.140   1.791 -0.4249 -0.4390 -0.4159
    2CHTO  H151  558   3.959   6.232   1.756 -1.2457 -0.2274  1.2264
    2CHTO   O52  559   4.029   6.138   1.934  0.4211  0.0480  0.6682
    2CHTO   C86  560   4.070   6.005   1.983 -0.2999 -0.5412 -0.2369
    2CHTO  H158  561   4.173   5.996   1.943 -0.5691 -1.7557 -0.6635
    2CHTO   C90  562   4.084   6.016   2.136 -0.4702 -0.4108 -0.7539
    2CHTO   O60  563   4.160   5.918   2.208 -0.6349 -0.2751 -0.1668
    2CHTO  H138  564   4.098   5.859   2.246 -0.8177  0.0293  0.0177
    2CHTO   O50  565   4.124   6.147   1.709  0.1978 -0.0335  0.0699
    2CHTO   C73  566   4.226   6.241   1.670  0.4966  0.4250 -0.6917
    2CHTO  H145  567   4.183   6.341   1.687  0.5539 -0.0199  2.4183
    2CHTO   C74  568   4.264   6.220   1.526  0.6119 -0.2636 -0.1188
    2CHTO  H146  569   4.172   6.220   1.467  0.2023  2.0935  0.4997
    2CHTO   O54  570   4.334   6.339   1.480 -0.7568 -0.0560 -0.1008
    2CHTO  H133  571   4.288   6.385   1.412  2.2618  0.0169 -2.2076
    2CHTO   C75  572   4.344   6.091   1.499  0.0151  0.4277 -0.2318
    2CHTO  H147  573   4.273   6.008   1.510 -0.7057  1.0789  0.0815
    2CHTO   N13  574   4.401   6.076   1.359  0.5340 -0.2728  0.5903
    2CHTO  H139  575   4.505   6.045   1.357  0.9301  1.0949 -0.5664
    2CHTO  H140  576   4.344   6.006   1.301 -0.1421  1.3024 -0.6735
    2CHTO   C76  577   4.460   6.077   1.608  0.2152  0.2819  0.7994
    2CHTO  H148  578   4.539   6.148   1.585  0.9724 -0.3724  1.3502
    2CHTO   O49  579   4.421   6.105   1.739 -0.1245  0.1768  0.1254
    2CHTO   C77  580   4.360   6.230   1.755 -0.1952  0.0071  0.0866
    2CHTO  H149  581   4.428   6.312   1.732  0.7562 -0.0524  2.6173
    2CHTO   C88  582   4.319   6.249   1.897  0.4480 -0.3809  0.1443
    2CHTO   O58  583   4.268   6.366   1.921 -0.5133  0.3632  0.0010
    2CHTO  H136  584   4.179   6.370   1.892 -0.4996  0.5701 -0.0064
    2CHTO   O51  585   4.502   5.917   1.613  0.2656 -0.1620  0.1502
    2CHTO   C78  586   4.587   5.884   1.736 -0.2799 -0.2437 -0.4101
    2CHTO  H150  587   4.574   5.952   1.823  2.3325 -1.2378  0.7917
    2CHTO   C80  588   4.737   5.878   1.698  0.1586  0.0289 -0.3124
    2CHTO  H152  589   4.744   5.821   1.604  0.3885 -0.6648  0.1198
    2CHTO   O55  590   4.769   6.020   1.660 -0.6588  0.6112  0.1822
    2CHTO  H134  591   4.781   6.067   1.740 -0.4863 -0.2010  0.6394
    2CHTO   C84  592   4.827   5.815   1.814  0.4327 -0.2226 -0.4707
    2CHTO  H156  593   4.821   5.890   1.894 -3.0555  0.8976 -1.6610
    2CHTO   N15  594   4.964   5.798   1.765 -0.2352  1.1042 -0.4901
    2CHTO  H143  595   5.002   5.897   1.753 -0.8367  1.4066  0.0408
    2CHTO  H144  596   5.016   5.744   1.841 -0.3001  1.5289 -0.1408
    2CHTO   C87  597   4.765   5.676   1.839 -0.1774  1.1095 -0.4654
    2CHTO  H159  598   4.777   5.614   1.750  1.6114  2.3795 -1.1364
    2CHTO   O53  599   4.628   5.695   1.877 -0.1203 -0.4117  0.1582
    2CHTO   C82  600   4.539   5.747   1.775  0.2057  0.3364  0.1308
    2CHTO  H154  601   4.543   5.680   1.689 -0.5167 -1.0382  1.1453
    2CHTO   C89  602   4.399   5.730   1.846 -0.1609 -0.4963 -0.3267
    2CHTO   O59  603   4.342   5.601   1.859 -0.6437  0.0222 -0.4260
    2CHTO  H137  604   4.280   5.612   1.929 -1.9181 -0.8099 -1.3851
    2CHTO   O45  605   4.841   5.601   1.978 -0.5658  0.0095 -0.2639
    2CHTO   C67  606   4.763   5.529   2.078 -0.5740  0.1819  0.0528
    2CHTO  H124  607   4.659   5.562   2.090 -1.2506 -2.5367  2.3319
    2CHTO   C65  608   4.765   5.372   2.052  0.1100  0.1950  0.5521
    2CHTO  H122  609   4.868   5.345   2.029  0.1693 -0.2262  1.2782
    2CHTO   O44  610   4.673   5.340   1.947 -0.1736  0.3229  0.3865
    2CHTO  H102  611   4.591   5.372   1.981  0.2404  2.5941 -0.6455
    2CHTO   C63  612   4.756   5.282   2.175  0.0088 -0.2282  0.0721
    2CHTO  H120  613   4.858   5.274   2.213  0.0761  2.4909  0.5157
    2CHTO   N11  614   4.709   5.140   2.155 -0.0257 -0.2294  0.3891
    2CHTO  H108  615   4.602   5.146   2.152  0.0804  2.5925  1.1215
    2CHTO  H109  616   4.713   5.087   2.248 -2.2001  1.1811  1.3223
    2CHTO   C61  617   4.679   5.367   2.287 -0.0820  0.2182  0.4194
    2CHTO  H118  618   4.685   5.304   2.378 -0.4095 -0.4463 -0.0121
    2CHTO   O40  619   4.740   5.497   2.318 -0.2120 -0.1148  0.3555
    2CHTO   C68  620   4.821   5.562   2.215 -0.4934  0.7261 -0.2496
    2CHTO  H125  621   4.923   5.519   2.209 -0.3382  1.1308 -0.5358
    2CHTO   C72  622   4.832   5.715   2.244  0.0381  0.2121 -0.3200
    2CHTO   O48  623   4.919   5.783   2.155 -0.4492  0.2530 -0.4182
    2CHTO  H105  624   4.915   5.876   2.170 -1.1780 -0.2336  2.8083
    2CHTO   O38  625   4.539   5.392   2.262  0.0854  0.4739  0.3071
    2CHTO   C55  626   4.465   5.440   2.373  0.4374  0.8119 -0.0672
    2CHTO  H112  627   4.521   5.502   2.445 -0.7032  1.9838 -0.1834
    2CHTO   C56  628   4.389   5.316   2.447 -0.1820  0.1956  0.3817
    2CHTO  H113  629   4.328   5.281   2.363  1.8622  0.1439 -1.1156
    2CHTO   O42  630   4.479   5.204   2.471 -0.4548  0.2016 -0.4069
    2CHTO  H100  631   4.447   5.134   2.525  1.7530  1.0296  2.1260
    2CHTO   C57  632   4.307   5.361   2.568  0.1172 -0.3234  0.5232
    2CHTO  H114  633   4.378   5.400   2.640  0.1072  0.5966  0.0418
    2CHTO   N10  634   4.233   5.245   2.632 -0.2354  0.0709  0.3892
    2CHTO  H106  635   4.284   5.176   2.698  3.0294  1.4328 -0.6012
    2CHTO  H107  636   4.173   5.190   2.562  0.6279  0.0807 -0.3699
    2CHTO   C58  637   4.218   5.474   2.517 -0.1668  0.2450 -0.6959
    2CHTO  H115  638   4.151   5.439   2.436 -0.0302 -0.9577 -0.2984
    2CHTO   O37  639   4.298   5.580   2.458  0.0371  0.0820 -0.0400
    2CHTO   C59  640   4.353   5.538   2.337 -0.4810 -0.0952  0.2353
    2CHTO  H116  641   4.282   5.486   2.272  1.9154 -0.6775 -2.0192
    2CHTO   C70  642   4.409   5.667   2.271  0.9900 -0.7103 -0.5004
    2CHTO   O46  643   4.508   5.740   2.347 -0.3730 -0.6438 -0.5249
    2CHTO  H103  644   4.493   5.830   2.327 -1.2196 -0.5292  0.5732
    2CHTO   O39  645   4.126   5.550   2.642  0.0958  0.0388 -0.1157
    2CHTO   C60  646   4.012   5.611   2.584 -0.2302 -0.7851  0.5570
    2CHTO  H117  647   4.014   5.610   2.475  0.0244  0.5416  0.5386
    2CHTO   C62  648   3.881   5.530   2.628  0.6533  0.1686  0.2882
    2CHTO  H119  649   3.898   5.428   2.588  0.9778  0.3834 -0.1300
    2CHTO   O43  650   3.859   5.511   2.767 -0.3335  0.2779  0.9821
    2CHTO  H101  651   3.851   5.593   2.812 -0.8045  1.3454 -0.9869
    2CHTO   C66  652   3.755   5.592   2.564  0.5636  0.1076  0.5020
    2CHTO  H123  653   3.765   5.595   2.456 -1.3880 -3.2022  0.1622
    2CHTO   N12  654   3.624   5.513   2.575 -1.1023 -0.0452  0.5954
    2CHTO  H110  655   3.648   5.408   2.566 -0.9718 -0.0927  1.4792
    2CHTO  H111  656   3.579   5.542   2.668  1.4674  2.2752  1.1720
    2CHTO   C69  657   3.736   5.739   2.605 -0.4477  0.1194  0.6769
    2CHTO  H126  658   3.722   5.739   2.715  2.3970 -0.5631  1.0912
    2CHTO   O41  659   3.876   5.820   2.566  0.7723  0.0164  0.2417
    2CHTO   C64  660   4.001   5.762   2.619 -0.0172  0.2283  0.3530
    2CHTO  H121  661   3.995   5.764   2.730  1.3092  1.3484  0.4094
    2CHTO   C71  662   4.116   5.849   2.567 -0.0044  0.6853  0.4386
    2CHTO   O47  663   4.252   5.827   2.612 -0.0346  0.1534  0.0586
    2CHTO  H104  664   4.312   5.879   2.562 -0.3703 -1.0254 -1.6298
    2CHTO   O34  665   3.625   5.812   2.528 -0.1818 -0.3014 -0.4418
    2CHTO   C49  666   3.546   5.944   2.540  0.2433  0.1578 -0.2799
    2CHTO   H91  667   3.449   5.932   2.588  0.1774  1.1685 -0.1443
    2CHTO   C47  668   3.527   5.997   2.398  0.4582 -0.5111 -0.2100
    2CHTO   H89  669   3.456   6.082   2.409 -0.3314 -1.0264 -1.2558
    2CHTO   O33  670   3.464   5.897   2.315  0.0695  0.9700 -0.3123
    2CHTO   H70  671   3.371   5.913   2.319 -0.2378 -0.9145  0.9825
    2CHTO   C45  672   3.665   6.041   2.331 -0.3071 -0.1146 -0.6508
    2CHTO   H87  673   3.725   5.949   2.342 -2.3556 -1.6092 -1.7456
    2CHTO    N8  674   3.670   6.082   2.191 -0.4229  0.4746 -0.1951
    2CHTO   H75  675   3.767   6.118   2.161  0.8572 -3.3553 -0.9945
    2CHTO   H76  676   3.644   6.007   2.117 -0.9727  1.7208 -1.2671
    2CHTO   C43  677   3.727   6.158   2.425  0.5928  0.2185 -0.0904
    2CHTO   H85  678   3.828   6.178   2.390  0.6528 -0.4663 -0.3118
    2CHTO   O29  679   3.728   6.111   2.564 -0.5484  0.2388 -0.0611
    2CHTO   C50  680   3.613   6.057   2.624 -0.0027  0.0280  0.1032
    2CHTO   H92  681   3.645   6.017   2.722 -0.9516  1.0103  0.8284
    2CHTO   C54  682   3.517   6.167   2.675 -0.1662  0.0021 -0.6696
    2CHTO   O36  683   3.573   6.222   2.793 -0.0818 -0.5735 -0.0483
    2CHTO   H72  684   3.534   6.194   2.874  0.9426 -1.3871  0.1766
    2CHTO   O27  685   3.647   6.276   2.414  0.2396  0.0029 -0.8364
    2CHTO   C37  686   3.588   6.407   2.398 -0.1623 -0.3936 -0.1851
    2CHTO   H79  687   3.638   6.465   2.319 -1.8742 -0.1930 -1.1333
    2CHTO   C38  688   3.440   6.399   2.348 -0.3878  0.1154  0.2109
    2CHTO   H80  689   3.380   6.345   2.422 -0.3848 -3.4093 -2.2368
    2CHTO   O31  690   3.433   6.319   2.230 -0.4743 -0.1253  0.6879
    2CHTO   H68  691   3.349   6.277   2.228 -1.6688  2.1354  0.8030
    2CHTO   C39  692   3.375   6.548   2.324 -0.3325 -0.1171  0.4469
    2CHTO   H81  693   3.435   6.601   2.250 -1.2999  0.2542 -0.0715
    2CHTO    N7  694   3.238   6.547   2.266 -0.8683  0.2657  0.0730
    2CHTO   H73  695   3.171   6.488   2.328 -1.9323  1.5320  0.1500
    2CHTO   H74  696   3.239   6.491   2.173  1.6299  1.6040 -0.7364
    2CHTO   C40  697   3.389   6.636   2.452 -0.6024 -0.1613  0.0047
    2CHTO   H82  698   3.322   6.609   2.534 -1.6102  0.5541 -0.5800
    2CHTO   O26  699   3.533   6.633   2.491 -0.5937  0.4374  0.3411
    2CHTO   C41  700   3.591   6.497   2.530  0.1096 -0.0433  0.6558
    2CHTO   H83  701   3.534   6.452   2.613 -0.7171  1.9971  1.2078
    2CHTO   C52  702   3.740   6.500   2.574  0.2323 -0.1608  0.0452
    2CHTO   O35  703   3.784   6.622   2.622  0.1114 -0.2667 -0.1212
    2CHTO   H71  704   3.865   6.617   2.669 -0.6059 -1.5298  1.0048
    2CHTO   O28  705   3.364   6.778   2.429  0.0973 -0.0453 -0.0180
    2CHTO   C42  706   3.394   6.889   2.521 -0.1043  0.0711 -0.3343
    2CHTO   H84  707   3.324   6.966   2.490 -0.9496  0.1347  1.6719
    2CHTO   C44  708   3.537   6.942   2.501  0.2433 -0.2576 -0.1136
    2CHTO   H86  709   3.606   6.859   2.512  0.2333 -0.6235 -2.6319
    2CHTO   O32  710   3.562   7.002   2.369  0.2746  0.6946  0.6961
    2CHTO   H69  711   3.537   6.953   2.293 -0.7119 -0.0358  1.4577
    2CHTO   C48  712   3.579   7.048   2.609  0.5186 -0.2800  0.3925
    2CHTO   H90  713   3.526   7.141   2.589 -0.9760 -0.7144  2.2559
    2CHTO    N9  714   3.725   7.089   2.616  0.2426  0.3066 -0.4985
    2CHTO   H77  715   3.775   7.020   2.550 -1.2666 -2.1638  0.8934
    2CHTO   H78  716   3.727   7.190   2.577 -1.9505 -0.4161 -2.5815
    2CHTO   C51  717   3.539   7.001   2.752  0.3897  0.2634  0.1190
    2CHTO   H93  718   3.598   6.915   2.784  2.6969  2.2819  1.4885
    2CHTO   O30  719   3.401   6.969   2.744  0.0159 -0.1221  0.2881
    2CHTO   C46  720   3.366   6.859   2.667 -0.9455 -0.4338 -0.0794
    2CHTO   H88  721   3.431   6.780   2.704  0.2717 -0.1601 -1.5796
    2CHTO   C53  722   3.221   6.829   2.694  0.1264  0.3489 -0.2706
    2CHTO   O72  723   3.210   6.765   2.824  0.2965 -0.4329 -0.0363
    2CHTO  H199  724   3.119   6.753   2.845  0.6535  0.9328  2.3978
    2CHTO   O22  725   3.551   7.117   2.840  0.1255  0.2112 -0.5178
    2CHTO   C31  726   3.550   7.096   2.986  0.3706  0.4123 -0.7355
    2CHTO   H59  727   3.563   7.197   3.030 -0.1261  0.8827 -1.6470
    2CHTO   C29  728   3.414   7.039   3.044  0.3780 -0.3593 -0.5162
    2CHTO   H57  729   3.414   6.935   3.011  0.0693 -0.4704 -0.1728
    2CHTO   O21  730   3.301   7.108   2.983 -0.5744  0.0809 -0.0707
    2CHTO   H37  731   3.294   7.192   3.025 -0.8835 -0.2069  0.4607
    2CHTO   C27  732   3.415   7.038   3.205  0.8993 -0.0327  0.1707
    2CHTO   H55  733   3.423   7.142   3.239  0.3617 -0.5163  1.8280
    2CHTO    N5  734   3.296   6.983   3.277 -0.0752  0.0354 -0.8989
    2CHTO   H43  735   3.308   7.001   3.383  1.1404  1.7792 -1.3035
    2CHTO   H44  736   3.298   6.876   3.266  0.1014 -0.1081  0.4860
    2CHTO   C25  737   3.547   6.972   3.256 -0.7645  0.0471 -0.1852
    2CHTO   H53  738   3.545   6.864   3.232  3.1179 -0.7390  2.5003
    2CHTO   O17  739   3.667   7.017   3.187 -0.1133  0.0626  0.2367
    2CHTO   C32  740   3.666   7.006   3.043  0.2160 -0.1099 -0.9777
    2CHTO   H60  741   3.645   6.900   3.029 -2.0596  0.2817 -0.6562
    2CHTO   C36  742   3.808   7.053   2.991 -0.0339 -0.0826  0.3200
    2CHTO   O25  743   3.919   6.985   3.048 -0.6850 -0.0898 -0.2912
    2CHTO   H40  744   3.920   6.896   3.018  0.3369 -0.0678 -0.3320
    2CHTO   O15  745   3.572   6.995   3.387  0.3742 -0.1105  0.5922
    2CHTO   C19  746   3.553   6.938   3.515 -0.2006  0.1201 -0.2092
    2CHTO   H47  747   3.444   6.924   3.522 -0.3044  1.3361  0.5619
    2CHTO   C20  748   3.630   6.800   3.534  0.2176  0.5308  0.0687
    2CHTO   H48  749   3.739   6.814   3.538  0.2773 -0.3725  1.8876
    2CHTO   O19  750   3.591   6.713   3.427  0.0024  0.2162  0.6436
    2CHTO   H35  751   3.646   6.730   3.353 -1.7009 -1.3755 -1.0549
    2CHTO   C21  752   3.588   6.742   3.675  0.0149 -0.3460  0.0644
    2CHTO   H49  753   3.480   6.728   3.663 -0.0589  1.1716 -1.1980
    2CHTO    N4  754   3.655   6.618   3.704  0.4606 -0.3002 -0.5071
    2CHTO   H41  755   3.634   6.554   3.619  1.7131 -2.9629  1.1045
    2CHTO   H42  756   3.617   6.571   3.794  0.3939  5.3690  2.6205
    2CHTO   C22  757   3.611   6.842   3.795 -0.4897  0.9154  0.1815
    2CHTO   H50  758   3.719   6.854   3.810 -0.2058 -0.7706 -0.3768
    2CHTO   O14  759   3.550   6.967   3.760  0.1127 -0.3359 -0.0323
    2CHTO   C23  760   3.590   7.025   3.632  0.7483 -0.1009 -0.3846
    2CHTO   H51  761   3.698   7.045   3.640  0.4403  1.3961  0.1818
    2CHTO   C34  762   3.521   7.159   3.632  0.2646  0.2260 -0.2341
    2CHTO   O23  763   3.377   7.145   3.633 -0.1288  0.4212  0.1071
    2CHTO   H38  764   3.337   7.118   3.552 -0.6955  0.3590  0.4034
    2CHTO   O16  765   3.550   6.804   3.916 -0.3196  0.4678 -0.5967
    2CHTO   C24  766   3.568   6.913   4.041  0.1259  0.4223  1.1063
    2CHTO   H52  767   3.600   7.011   4.006  0.2252  0.1277  0.3636
    2CHTO   C26  768   3.673   6.862   4.143  0.1634  0.8499 -0.1588
    2CHTO   H54  769   3.637   6.763   4.178  0.3279  0.6173 -0.6481
    2CHTO   O20  770   3.807   6.843   4.091  0.0112  0.0741  0.4358
    2CHTO   H36  771   3.845   6.766   4.128 -0.7692 -0.4710  0.1226
    2CHTO   C30  772   3.680   6.957   4.262 -0.3957 -0.2790  1.4657
    2CHTO   H58  773   3.696   7.061   4.232  1.2153 -0.8700  0.2039
    2CHTO    N6  774   3.784   6.923   4.367 -0.5190  0.2490  0.3870
    2CHTO   H45  775   3.860   6.998   4.353 -1.3767  1.2569  1.0680
    2CHTO   H46  776   3.820   6.828   4.331 -1.9657 -0.2097  0.1345
    2CHTO   C33  777   3.536   6.963   4.323 -0.3646 -0.4275  0.8712
    2CHTO   H61  778   3.507   6.864   4.360 -0.9008  0.1575  2.0690
    2CHTO   O18  779   3.442   7.003   4.225 -0.1802  0.4977 -0.3824
    2CHTO   C28  780   3.426   6.934   4.102  0.7661 -0.3971  0.2621
    2CHTO   H56  781   3.383   6.835   4.115  1.0337 -0.9445 -2.6054
    2CHTO   C35  782   3.334   7.020   4.021 -0.4880  0.2138  0.4370
    2CHTO   O24  783   3.389   7.141   3.986  0.0119 -0.2674 -0.6364
    2CHTO   H39  784   3.314   7.196   3.973  0.3364 -0.1478 -2.1467
    2CHTO    O9  785   3.537   7.050   4.436  0.3430  0.0916  0.5374
    2CHTO   C13  786   3.440   7.168   4.444 -0.6243  0.5983 -0.8540
    2CHTO   H26  787   3.345   7.134   4.398 -0.2777 -1.5217 -0.0673
    2CHTO   C11  788   3.504   7.288   4.374  0.1205  0.5173 -0.3065
    2CHTO   H24  789   3.519   7.265   4.267  0.9018  0.1883 -0.1240
    2CHTO    O8  790   3.636   7.317   4.432  0.1827 -0.9822 -0.6297
    2CHTO    H3  791   3.691   7.355   4.366  0.7489 -1.7337 -0.5946
    2CHTO    C9  792   3.400   7.410   4.381 -0.6839  0.5029  0.4452
    2CHTO   H22  793   3.306   7.375   4.336 -2.4499  4.0043  1.2341
    2CHTO    N2  794   3.438   7.525   4.289  0.2434  0.0812 -0.2243
    2CHTO   H10  795   3.446   7.622   4.338  0.9048 -0.2707  0.3741
    2CHTO   H11  796   3.529   7.505   4.234  0.9043  0.2512  0.7839
    2CHTO    C7  797   3.363   7.434   4.536  0.1225 -0.1162  0.3515
    2CHTO   H20  798   3.269   7.493   4.527 -0.0087 -0.3048  0.4927
    2CHTO    O4  799   3.324   7.319   4.613  0.2121 -0.1473 -0.2466
    2CHTO   C14  800   3.394   7.198   4.591  0.6394  0.4265  0.6792
    2CHTO   H27  801   3.312   7.125   4.606  0.1995  0.7420 -0.1706
    2CHTO   C18  802   3.509   7.167   4.697  0.2007 -0.0747  0.4941
    2CHTO   O13  803   3.450   7.144   4.825  0.4032  0.0672  0.1331
    2CHTO    H7  804   3.496   7.074   4.867  2.4847  0.8268 -0.8185
    2CHTO    O2  805   3.479   7.524   4.622  0.2221  0.0007  0.3710
    2CHTO    C1  806   3.434   7.627   4.704  0.3840 -0.1729 -0.2882
    2CHTO   H14  807   3.326   7.610   4.724  0.6608 -0.4277  1.0694
    2CHTO    C2  808   3.459   7.767   4.640  0.3428 -0.2611 -0.0828
    2CHTO   H15  809   3.538   7.766   4.563  1.2797  1.4211  0.8274
    2CHTO    O6  810   3.338   7.783   4.554  0.1317 -0.0908  0.3226
    2CHTO    H1  811   3.271   7.824   4.605  0.3213  1.2950 -0.5053
    2CHTO    C3  812   3.462   7.896   4.734 -0.2534  0.7193 -0.6686
    2CHTO   H16  813   3.356   7.911   4.762  0.0206 -0.8319  1.3174
    2CHTO    N1  814   3.513   8.017   4.660  0.6821  0.1181  0.4557
    2CHTO    H8  815   3.609   7.986   4.622 -0.0124 -0.7924 -0.5748
    2CHTO    H9  816   3.539   8.099   4.725 -1.3884  1.6442 -0.5729
    2CHTO    C4  817   3.542   7.861   4.867  0.6559 -0.4851 -0.3475
    2CHTO   H17  818   3.649   7.869   4.848  0.7542 -1.4750 -0.2437
    2CHTO    O1  819   3.489   7.739   4.922  0.1081  0.5006  0.5582
    2CHTO    C5  820   3.514   7.627   4.832 -0.4864  0.0577  0.0775
    2CHTO   H18  821   3.612   7.650   4.792  0.2034 -2.3563  0.2848
    2CHTO   C16  822   3.521   7.490   4.912 -0.0539  0.0966  0.4194
    2CHTO   O11  823   3.625   7.511   5.012 -0.5193  0.8079  0.5821
    2CHTO    H5  824   3.611   7.449   5.082  0.1191 -0.7665 -0.6548
    2CHTO    O3  825   3.516   7.955   4.972  0.2483  0.0607  0.2436
    2CHTO    C6  826   3.612   7.956   5.081  0.0062 -0.4148  0.3561
    2CHTO   H19  827   3.681   7.874   5.062  4.4305  2.9806  0.9657
    2CHTO    C8  828   3.692   8.094   5.076  0.3939 -0.0331 -0.2607
    2CHTO   H21  829   3.621   8.176   5.081  1.7225  1.1153 -0.0116
    2CHTO    O7  830   3.754   8.092   4.942  0.8970 -0.3561 -0.3146
    2CHTO    H2  831   3.715   8.155   4.885  1.9118  0.5149 -0.0677
    2CHTO   C12  832   3.794   8.101   5.191  0.3036  0.6167  0.2425
    2CHTO   H25  833   3.858   8.011   5.182 -0.6916  0.1494 -3.0249
    2CHTO    N3  834   3.884   8.222   5.176  0.1855 -0.0291 -0.3758
    2CHTO   H12  835   3.835   8.318   5.190 -1.5893 -0.8191 -1.0631
    2CHTO   H13  836   3.960   8.207   5.252  0.2330 -1.7698 -0.7475
    2CHTO   C15  837   3.716   8.080   5.325 -0.4328  0.3681 -0.0307
    2CHTO   H28  838   3.648   8.165   5.337 -0.1649  0.3636  1.5673
    2CHTO   O10  839   3.806   8.062   5.444 -0.5208  0.0120  0.1326
    2CHTO    H4  840   3.769   8.106   5.519  2.3649  0.8122  1.1720
    2CHTO    O5  841   3.644   7.953   5.323 -0.4133  0.4304  0.2457
    2CHTO   C10  842   3.543   7.933   5.223  0.7697 -0.6902 -0.1247
    2CHTO   H23  843   3.461   8.004   5.233  0.6195 -0.8948  0.0833
    2CHTO   C17  844   3.478   7.796   5.225  0.0781  0.2830  0.6345
    2CHTO   O12  845   3.395   7.781   5.342  0.4471  0.5952 -0.1851
    2CHTO    H6  846   3.310   7.746   5.321  0.4821 -0.7759  1.7677
    3CHTO  H203  847   7.801   1.472   1.022 -0.0642 -1.8091 -0.0897
    3CHTO   O82  848   7.826   1.455   1.111  0.1628 -0.2897  0.1579
    3CHTO  C123  849   7.733   1.383   1.181  0.0906  0.5875  0.1288
    3CHTO  H227  850   7.783   1.339   1.268  1.1344 -2.1714 -1.8048
    3CHTO   O77  851   7.624   1.475   1.219  0.3637  0.0753 -0.0259
    3CHTO  C118  852   7.530   1.413   1.303  0.7340 -0.2375  0.9621
    3CHTO  H222  853   7.582   1.384   1.395  2.4609  1.5262  0.5672
    3CHTO  C125  854   7.421   1.516   1.332  0.0607 -0.1786  0.0766
    3CHTO   O84  855   7.373   1.586   1.213  0.6438  0.7169  0.3819
    3CHTO  H205  856   7.308   1.645   1.246  0.9962  1.9091 -1.0060
    3CHTO  C114  857   7.465   1.294   1.224 -0.0447 -0.4294  0.7834
    3CHTO  H218  858   7.419   1.335   1.133 -1.3429 -2.0915  0.6527
    3CHTO  C116  859   7.567   1.186   1.181 -1.0117 -0.3795 -0.1482
    3CHTO  H220  860   7.609   1.146   1.275  2.2168  0.3034 -1.2313
    3CHTO   O79  861   7.508   1.075   1.117 -0.4080  0.7588 -0.5931
    3CHTO  H201  862   7.566   1.016   1.071 -0.6789 -0.0157  0.0467
    3CHTO  C120  863   7.679   1.262   1.097 -0.4936 -0.4259  0.0420
    3CHTO  H224  864   7.621   1.301   1.011 -1.9779  0.3065  1.3346
    3CHTO   N21  865   7.788   1.177   1.049  0.2692 -0.2249 -0.2114
    3CHTO  H211  866   7.869   1.163   1.119  1.7758  0.3304 -1.8149
    3CHTO  H212  867   7.749   1.080   1.023 -0.1874 -0.4763  1.3316
    3CHTO   O75  868   7.370   1.239   1.315  0.3385 -0.0490 -0.0343
    3CHTO  C112  869   7.211   1.221   1.247 -0.5700  0.3055  0.1098
    3CHTO  H216  870   7.229   1.164   1.154  0.6843  0.6599  0.1228
    3CHTO   O73  871   7.152   1.354   1.223 -0.3597 -0.4287  0.1607
    3CHTO  C113  872   7.038   1.333   1.146  0.4106 -0.0778 -0.5849
    3CHTO  H217  873   7.072   1.266   1.064  2.1963 -1.1278  0.9767
    3CHTO  C124  874   6.996   1.475   1.094  0.3842  0.3135 -0.2266
    3CHTO   O83  875   6.896   1.469   0.999  1.1491  0.0559 -0.5402
    3CHTO  H204  876   6.930   1.462   0.912  1.2229  0.4192 -0.5427
    3CHTO  C109  877   6.928   1.270   1.229  0.8525 -0.2935  0.1389
    3CHTO  H213  878   6.908   1.333   1.317 -1.1712 -2.0620  0.9869
    3CHTO  C110  879   6.971   1.139   1.267 -0.7790 -0.2625 -0.1158
    3CHTO  H214  880   6.982   1.074   1.179  3.7130 -1.1372  0.9468
    3CHTO   O78  881   6.876   1.065   1.351 -0.0786 -0.2832  0.0641
    3CHTO  H200  882   6.803   1.032   1.303 -1.4240 -1.4499  2.7928
    3CHTO  C111  883   7.108   1.155   1.343  0.6539  0.8271 -0.1202
    3CHTO  H215  884   7.095   1.207   1.439 -0.4126  0.4928 -0.0764
    3CHTO   N19  885   7.174   1.023   1.374  1.1942  0.0695 -0.5069
    3CHTO  H207  886   7.164   0.986   1.475 -0.9770  2.1334  0.0881
    3CHTO  H208  887   7.155   0.947   1.300  1.0233 -0.6643  0.2866
    3CHTO   O74  888   6.806   1.251   1.153  0.4845  0.2050 -0.2814
    3CHTO  C115  889   6.675   1.303   1.232  0.3555  0.6458  0.3462
    3CHTO  H219  890   6.679   1.279   1.339  2.6940 -0.1823  0.1149
    3CHTO   O76  891   6.664   1.470   1.213  0.4362 -0.3034  0.6498
    3CHTO  C122  892   6.552   1.527   1.278 -0.4708  0.2971  0.1447
    3CHTO  H226  893   6.544   1.626   1.232 -0.4892  0.5872  0.7669
    3CHTO  C126  894   6.582   1.548   1.429  0.0635  0.7839  0.0536
    3CHTO   O85  895   6.671   1.651   1.457  0.1909  0.1059 -0.0304
    3CHTO  H206  896   6.709   1.692   1.382 -1.1950  0.8607 -0.3539
    3CHTO  C121  897   6.412   1.460   1.238  0.2709  0.3373 -0.1524
    3CHTO  H225  898   6.336   1.487   1.314 -0.7824 -0.1132 -1.0381
    3CHTO   O81  899   6.372   1.518   1.109  0.1385 -0.5502  0.2741
    3CHTO  H202  900   6.308   1.469   1.060  0.1455  0.1333 -0.4238
    3CHTO  C119  901   6.419   1.300   1.227 -0.6162 -0.3111 -0.8727
    3CHTO  H223  902   6.412   1.263   1.329 -0.8032  0.1909 -0.7038
    3CHTO  C117  903   6.551   1.235   1.165  0.5925  0.2144  0.6264
    3CHTO  H221  904   6.568   1.259   1.060  0.5576  0.3522  0.6524
    3CHTO   N20  905   6.559   1.090   1.179 -0.1966  0.4395  0.1660
    3CHTO  H209  906   6.594   1.047   1.271 -1.1430  0.0973  0.3709
    3CHTO  H210  907   6.614   1.051   1.095 -0.3405  0.6351 -0.0205
    3CHTO   O80  908   6.285   1.247   1.164  0.1576 -0.1184 -0.3096
    3CHTO  C103  909   6.139   1.235   1.256  0.5607  0.4009  0.2840
    3CHTO  H190  910   6.163   1.264   1.358  1.4111  1.5254 -0.2314
    3CHTO  C101  911   6.010   1.305   1.191  0.5094 -0.1263 -0.7135
    3CHTO  H188  912   6.010   1.284   1.084 -0.3687 -0.3028 -0.6853
    3CHTO   O68  913   6.025   1.451   1.210 -0.5846 -0.3142  0.4122
    3CHTO  H168  914   5.983   1.490   1.136 -1.7798 -1.7144  0.3486
    3CHTO   C99  915   5.872   1.246   1.249  0.6708  0.0748 -0.3596
    3CHTO  H186  916   5.868   1.266   1.358 -0.4173  0.6261 -0.4849
    3CHTO   N17  917   5.747   1.300   1.184 -0.6886  0.8056  0.4026
    3CHTO  H174  918   5.673   1.222   1.173  2.1914 -1.8938 -0.3936
    3CHTO  H175  919   5.772   1.346   1.090 -0.6205 -1.7292 -0.8545
    3CHTO   C97  920   5.874   1.087   1.230 -0.0470 -0.4237  0.8100
    3CHTO  H184  921   5.879   1.067   1.122  0.2170  2.0942  0.3365
    3CHTO   O64  922   5.993   1.044   1.301 -0.2010 -0.2070 -0.5301
    3CHTO  C104  923   6.121   1.083   1.252 -0.1373 -0.1054 -0.2491
    3CHTO  H191  924   6.146   1.049   1.151 -0.5054 -1.5190  0.1202
    3CHTO  C108  925   6.226   1.020   1.348  0.6208 -0.8820 -0.6697
    3CHTO   O71  926   6.229   1.058   1.481  0.5682  0.2893 -0.1419
    3CHTO  H171  927   6.307   1.102   1.509  1.3923 -0.3507 -1.3727
    3CHTO   O62  928   5.767   1.015   1.291 -0.5489  0.1659 -0.1031
    3CHTO   C91  929   5.699   0.899   1.241  0.0464  0.5203 -0.3745
    3CHTO  H178  930   5.737   0.867   1.145 -1.2787 -0.0333 -0.7254
    3CHTO   C92  931   5.554   0.925   1.219  0.6861  0.2628  0.0843
    3CHTO  H179  932   5.508   0.970   1.308  4.4657  3.6892  0.4519
    3CHTO   O66  933   5.555   1.025   1.117  0.3311 -0.2679  0.3626
    3CHTO  H166  934   5.597   1.101   1.153 -0.5204  0.4559 -0.1215
    3CHTO   C93  935   5.472   0.806   1.168 -0.2367  0.2388 -0.5531
    3CHTO  H180  936   5.520   0.789   1.070  1.2449 -1.8361  0.5182
    3CHTO   N16  937   5.333   0.836   1.135 -0.0493 -0.4808 -0.1644
    3CHTO  H172  938   5.300   0.934   1.164  0.4594 -0.1147 -0.7969
    3CHTO  H173  939   5.289   0.816   1.038 -1.4672 -1.5366  0.6776
    3CHTO   C94  940   5.488   0.676   1.255 -0.0474 -0.0814 -0.5095
    3CHTO  H181  941   5.395   0.655   1.307 -1.2053  4.4456 -0.5813
    3CHTO   O61  942   5.593   0.691   1.353  0.2342  0.0104 -0.3375
    3CHTO   C95  943   5.714   0.768   1.330  0.2102  0.0019  0.4916
    3CHTO  H182  944   5.764   0.794   1.423  0.6662 -0.5415  0.4042
    3CHTO  C106  945   5.831   0.678   1.271 -0.1552 -0.1856 -0.2342
    3CHTO   O69  946   5.955   0.754   1.278 -0.1605  0.2890  0.1604
    3CHTO  H169  947   5.957   0.838   1.321  0.2593  0.3507  0.0253
    3CHTO   O63  948   5.529   0.556   1.158  0.0178 -0.3196  0.0087
    3CHTO   C96  949   5.455   0.408   1.173 -0.4870 -0.3044  0.1247
    3CHTO  H183  950   5.483   0.333   1.099 -0.1529 -0.6871  0.6432
    3CHTO   C98  951   5.297   0.430   1.155  0.1602  0.3174  0.5529
    3CHTO  H185  952   5.256   0.512   1.216 -0.3236  0.4795  0.0027
    3CHTO   O67  953   5.259   0.472   1.019 -0.0494 -0.0811 -0.6072
    3CHTO  H167  954   5.278   0.563   1.006  1.9999 -0.1497  1.4517
    3CHTO  C102  955   5.210   0.297   1.190  0.1791  0.4881 -0.4977
    3CHTO  H189  956   5.231   0.224   1.110  1.4924  0.6985 -0.3536
    3CHTO   N18  957   5.062   0.314   1.194  0.1618 -0.5586  0.0891
    3CHTO  H176  958   5.004   0.245   1.135 -1.1808  0.6515 -0.0465
    3CHTO  H177  959   5.033   0.417   1.177  1.2052  0.2624  2.9695
    3CHTO  C105  960   5.268   0.236   1.321  0.5229 -0.4976 -0.0080
    3CHTO  H192  961   5.240   0.295   1.409 -3.7803 -2.2395 -0.1028
    3CHTO   O65  962   5.413   0.224   1.322 -0.1207  0.6247 -0.2630
    3CHTO  C100  963   5.482   0.355   1.313  0.0242 -0.0996 -0.2902
    3CHTO  H187  964   5.440   0.419   1.393 -2.7958 -1.6323 -0.5060
    3CHTO  C107  965   5.632   0.342   1.343 -0.0567  0.0335 -0.2228
    3CHTO   O70  966   5.646   0.328   1.486  0.3566 -0.0963  0.2181
    3CHTO  H170  967   5.733   0.297   1.501  1.1255  2.0308  0.3397
    3CHTO   O57  968   5.186   0.072   1.325  0.2636  0.2381  0.2852
    3CHTO   C85  969   5.153   0.012   1.453 -0.1875  0.1183  0.9531
    3CHTO  H157  970   5.152  -0.093   1.417 -1.6965  0.7704 -0.9610
    3CHTO   C83  971   5.011   0.049   1.497  0.8943  0.0700 -0.0922
    3CHTO  H155  972   4.936   0.005   1.430  1.0274  0.2590 -0.3649
    3CHTO   O56  973   5.000   0.189   1.482  0.4188  0.2405  0.0170
    3CHTO  H135  974   4.916   0.211   1.516 -0.1197  0.6534 -1.5826
    3CHTO   C81  975   4.989  -0.011   1.643  0.1908  0.4649 -0.0561
    3CHTO  H153  976   4.982  -0.120   1.638 -0.8282  0.4933  0.5921
    3CHTO   N14  977   4.853   0.020   1.689 -0.6211 -0.1159  0.1023
    3CHTO  H141  978   4.852   0.127   1.685  0.5056 -0.0570  1.3203
    3CHTO  H142  979   4.778  -0.023   1.625 -0.0869 -2.0070  0.7338
    3CHTO   C79  980   5.099   0.031   1.746 -0.0296 -0.0917  0.2542
    3CHTO  H151  981   5.073  -0.014   1.841 -2.8484  0.0404 -0.4034
    3CHTO   O52  982   5.224  -0.012   1.696  0.5463 -0.0894  0.3128
    3CHTO   C86  983   5.258   0.033   1.563  0.4947 -0.4692 -0.1247
    3CHTO  H158  984   5.284   0.140   1.579  2.8227 -0.9329 -0.7009
    3CHTO   C90  985   5.397  -0.033   1.515 -0.0209  0.3085  0.5420
    3CHTO   O60  986   5.508   0.009   1.594  0.4825 -0.5356  0.2351
    3CHTO  H138  987   5.509  -0.044   1.672 -0.5674  0.9128  1.2747
    3CHTO   O50  988   5.108   0.168   1.766 -0.6318  0.3634  0.4248
    3CHTO   C73  989   5.130   0.272   1.863  0.0472 -0.0072  0.6061
    3CHTO  H145  990   5.210   0.244   1.933  1.9456 -0.1566 -1.5450
    3CHTO   C74  991   5.002   0.298   1.962 -0.3891 -0.5009 -0.8076
    3CHTO  H146  992   4.966   0.202   2.001 -1.0076  0.1782  0.2841
    3CHTO   O54  993   5.035   0.363   2.088  0.6293 -0.1178  0.3169
    3CHTO  H133  994   5.117   0.408   2.085 -0.8305  2.7036  1.4127
    3CHTO   C75  995   4.889   0.374   1.873  0.0755  0.1453 -0.9988
    3CHTO  H147  996   4.862   0.311   1.786 -1.7728 -3.3764  1.9871
    3CHTO   N13  997   4.761   0.402   1.943  0.2911  0.1369  0.4142
    3CHTO  H139  998   4.781   0.372   2.045 -1.2067 -1.6412  0.2094
    3CHTO  H140  999   4.672   0.354   1.906  0.0093 -1.3750  2.9055
    3CHTO   C76 1000   4.944   0.514   1.816  0.3988  0.3671 -0.3700
    3CHTO  H148 1001   4.971   0.576   1.901  0.4753  1.6962 -1.3571
    3CHTO   O49 1002   5.064   0.482   1.739  0.1629 -0.0656  0.5290
    3CHTO   C77 1003   5.165   0.409   1.803  0.0751  0.1549 -0.3663
    3CHTO  H149 1004   5.211   0.469   1.882 -0.1627  0.3002 -0.3377
    3CHTO   C88 1005   5.284   0.399   1.713 -0.4836  0.7338  0.3549
    3CHTO   O58 1006   5.396   0.352   1.787  0.3942  0.3313  0.0851
    3CHTO  H136 1007   5.452   0.424   1.809 -1.0231  1.1966  0.9222
    3CHTO   O51 1008   4.845   0.587   1.705 -0.0228  0.2283 -0.4598
    3CHTO   C78 1009   4.890   0.738   1.681  0.8372  0.0639 -0.2724
    3CHTO  H150 1010   4.989   0.766   1.724  0.0929 -0.4965  1.8787
    3CHTO   C80 1011   4.788   0.835   1.743 -0.3685 -0.0729 -0.2414
    3CHTO  H152 1012   4.692   0.811   1.693  1.0205  1.1274 -3.5729
    3CHTO   O55 1013   4.788   0.812   1.885  0.4542  0.1608 -0.1343
    3CHTO  H134 1014   4.762   0.724   1.906  0.8748 -0.3982 -1.8827
    3CHTO   C84 1015   4.818   0.989   1.708  0.3131 -0.4733  1.0016
    3CHTO  H156 1016   4.918   1.008   1.746  1.9929 -1.3320 -2.8165
    3CHTO   N15 1017   4.719   1.080   1.789 -0.2657 -0.0658 -0.8865
    3CHTO  H143 1018   4.730   1.048   1.891 -0.1422 -0.0554 -0.8968
    3CHTO  H144 1019   4.615   1.078   1.765 -0.0568 -0.3448 -1.8074
    3CHTO   C87 1020   4.824   1.013   1.558 -0.5243  0.1684 -0.2506
    3CHTO  H159 1021   4.723   1.013   1.517 -0.1337 -1.9905 -1.2904
    3CHTO   O53 1022   4.918   0.888   1.484  0.2036  0.7920 -0.4997
    3CHTO   C82 1023   4.899   0.752   1.527 -0.3710  0.0549 -0.1451
    3CHTO  H154 1024   4.808   0.709   1.486  0.0079  2.3779 -3.6820
    3CHTO   C89 1025   5.015   0.668   1.463  0.4133  0.2787 -0.3104
    3CHTO   O59 1026   4.983   0.638   1.322 -0.0283 -0.0209 -0.9480
    3CHTO  H137 1027   5.041   0.573   1.287  0.4861 -0.1246  0.0910
    3CHTO   O45 1028   4.881   1.162   1.533 -0.4450 -0.1517 -0.1857
    3CHTO   C67 1029   5.023   1.168   1.528  0.3838 -0.0548  0.1191
    3CHTO  H124 1030   5.061   1.076   1.572 -0.7715  0.0603  1.3948
    3CHTO   C65 1031   5.079   1.181   1.375  0.3387  0.4542  0.3147
    3CHTO  H122 1032   5.006   1.228   1.309 -0.6290 -0.5563  0.6517
    3CHTO   O44 1033   5.095   1.044   1.336  0.4727  0.4385  0.5008
    3CHTO  H102 1034   5.015   1.022   1.292  1.0267 -2.4408  0.7914
    3CHTO   C63 1035   5.205   1.271   1.353  0.0738 -0.0953  0.0799
    3CHTO  H120 1036   5.175   1.375   1.344  0.7513  0.0837 -0.0740
    3CHTO   N11 1037   5.276   1.252   1.226 -0.2546 -0.1682  0.9656
    3CHTO  H108 1038   5.347   1.332   1.220  1.4975 -1.6912  1.0059
    3CHTO  H109 1039   5.208   1.255   1.143 -0.8589 -2.6083  1.3541
    3CHTO   C61 1040   5.305   1.251   1.476  0.2016  0.7037 -0.8264
    3CHTO  H118 1041   5.384   1.325   1.463  1.7011 -0.4009  1.5917
    3CHTO   O40 1042   5.235   1.276   1.605 -0.2843  0.0115 -0.1953
    3CHTO   C68 1043   5.088   1.293   1.610  0.6801  0.1800 -0.2938
    3CHTO  H125 1044   5.057   1.391   1.570  1.0780 -0.2837 -1.7763
    3CHTO   C72 1045   5.040   1.282   1.753  0.0674  0.3124  0.1613
    3CHTO   O48 1046   5.094   1.378   1.832 -1.1507  0.0008 -0.4760
    3CHTO  H105 1047   5.050   1.410   1.909  3.0270  3.8427  0.5299
    3CHTO   O38 1048   5.367   1.120   1.479  0.3982  0.2891 -0.2636
    3CHTO   C55 1049   5.444   1.091   1.591 -0.5626 -0.3943  0.2647
    3CHTO  H112 1050   5.404   1.136   1.683  1.0058 -0.6310  1.0772
    3CHTO   C56 1051   5.596   1.135   1.565 -0.1683  0.9040 -0.0241
    3CHTO  H113 1052   5.639   1.094   1.473  0.0629 -1.7855  1.2142
    3CHTO   O42 1053   5.604   1.275   1.547 -0.2503 -0.3403  0.2643
    3CHTO  H100 1054   5.637   1.308   1.628  2.3751 -2.4487  0.1242
    3CHTO   C57 1055   5.690   1.078   1.678 -0.2271 -0.3967  0.0309
    3CHTO  H114 1056   5.644   1.126   1.764 -0.0034  0.6546 -0.4317
    3CHTO   N10 1057   5.830   1.125   1.662  0.1263 -0.0893 -0.0698
    3CHTO  H106 1058   5.902   1.052   1.698 -0.4716 -0.3464  0.6125
    3CHTO  H107 1059   5.850   1.221   1.706  2.7487 -0.7030  0.1745
    3CHTO   C58 1060   5.668   0.923   1.691  0.2462  0.1764  0.1543
    3CHTO  H115 1061   5.700   0.872   1.598 -0.5909  0.1993 -0.1503
    3CHTO   O37 1062   5.531   0.893   1.718 -0.1900  1.0873 -0.2564
    3CHTO   C59 1063   5.448   0.932   1.613  0.0833 -0.2536 -0.2514
    3CHTO  H116 1064   5.482   0.878   1.525 -0.7122 -2.2860  0.6546
    3CHTO   C70 1065   5.307   0.883   1.647 -0.6250  0.5823 -0.2948
    3CHTO   O46 1066   5.293   0.737   1.644 -0.0386 -0.4109  0.3142
    3CHTO  H103 1067   5.212   0.706   1.679 -0.4174  1.2878  0.9955
    3CHTO   O39 1068   5.754   0.859   1.810  0.1074 -0.1302  0.3714
    3CHTO   C60 1069   5.778   0.722   1.779 -0.1885 -0.0949  0.3633
    3CHTO  H117 1070   5.714   0.680   1.702  1.1095 -0.1491 -0.7060
    3CHTO   C62 1071   5.915   0.693   1.719  0.0231  0.0439 -0.4356
    3CHTO  H119 1072   5.920   0.756   1.629  2.4014  0.4156 -0.0699
    3CHTO   O43 1073   6.024   0.751   1.796 -0.0591 -0.1422 -0.0429
    3CHTO  H101 1074   6.038   0.709   1.879 -0.0387 -0.3674 -0.1596
    3CHTO   C66 1075   5.944   0.539   1.677  0.8377  1.2048  0.4158
    3CHTO  H123 1076   5.865   0.502   1.611  2.5417 -1.9384  0.0707
    3CHTO   N12 1077   6.072   0.521   1.606 -0.3586  0.6400  0.2429
    3CHTO  H110 1078   6.085   0.416   1.582 -5.0149 -0.0550  0.2497
    3CHTO  H111 1079   6.058   0.578   1.516 -1.8313 -2.5062 -1.6172
    3CHTO   C69 1080   5.928   0.449   1.801  0.2889 -0.4940 -0.1320
    3CHTO  H126 1081   6.002   0.463   1.882 -0.2573  0.7829  0.1554
    3CHTO   O41 1082   5.778   0.478   1.862 -0.2472 -0.1020  0.5423
    3CHTO   C64 1083   5.748   0.629   1.906  0.0033  0.8919  0.2240
    3CHTO  H121 1084   5.815   0.660   1.989 -0.9353 -1.7298  2.0343
    3CHTO   C71 1085   5.601   0.641   1.954  0.0308 -0.0366 -0.1059
    3CHTO   O47 1086   5.505   0.609   1.860  0.3332 -0.1361 -0.6960
    3CHTO  H104 1087   5.478   0.689   1.819 -1.4227 -0.9869 -1.2598
    3CHTO   O34 1088   5.935   0.280   1.765 -0.6158 -0.2739  0.6900
    3CHTO   C49 1089   5.997   0.148   1.731  0.2742 -0.3566 -0.7565
    3CHTO   H91 1090   6.075   0.178   1.661 -1.1035  1.0810 -1.6979
    3CHTO   C47 1091   5.895   0.052   1.676 -0.0313  0.1029  0.2242
    3CHTO   H89 1092   5.871   0.099   1.578 -0.1135 -0.1194  0.1397
    3CHTO   O33 1093   5.777   0.041   1.753 -0.1146  0.6169  0.0892
    3CHTO   H70 1094   5.800  -0.014   1.825 -1.7988  0.6284  0.6516
    3CHTO   C45 1095   5.964  -0.092   1.657 -0.5552  0.4094 -0.5201
    3CHTO   H87 1096   5.913  -0.156   1.731 -1.4066  1.1226 -0.4753
    3CHTO    N8 1097   5.941  -0.153   1.525 -0.1152 -0.5492  0.0663
    3CHTO   H75 1098   5.846  -0.203   1.518 -0.0586 -0.4220 -1.8413
    3CHTO   H76 1099   5.959  -0.094   1.436  2.9677 -1.7673 -0.1825
    3CHTO   C43 1100   6.124  -0.097   1.690 -0.5174 -0.2057  0.5739
    3CHTO   H85 1101   6.158  -0.201   1.691  0.5772  0.0057 -3.7787
    3CHTO   O29 1102   6.148  -0.030   1.815 -0.0426 -0.3210 -0.9043
    3CHTO   C50 1103   6.067   0.083   1.855 -0.4713 -0.1618 -0.4009
    3CHTO   H92 1104   5.994   0.046   1.929  0.0116 -1.0619 -0.3761
    3CHTO   C54 1105   6.160   0.185   1.933  0.1555  0.1096  0.3674
    3CHTO   O36 1106   6.255   0.122   2.023 -0.1268 -0.4404  0.2901
    3CHTO   H72 1107   6.244   0.167   2.104 -1.4118  0.3937 -0.3240
    3CHTO   O27 1108   6.202  -0.035   1.585  0.1030  0.0923  0.3409
    3CHTO   C37 1109   6.314   0.057   1.559 -0.0476  0.1199 -0.2535
    3CHTO   H79 1110   6.292   0.158   1.595 -0.9443  1.1117 -3.3862
    3CHTO   C38 1111   6.455   0.012   1.609  0.8022  0.9190 -0.4989
    3CHTO   H80 1112   6.467  -0.091   1.573  0.7919  0.8347 -0.2645
    3CHTO   O31 1113   6.434   0.010   1.748 -0.2056  0.0731  0.5075
    3CHTO   H68 1114   6.495  -0.047   1.790  0.7293  0.7696  0.1164
    3CHTO   C39 1115   6.577   0.101   1.555 -0.4591 -0.3115 -0.0123
    3CHTO   H81 1116   6.566   0.198   1.603 -1.6992 -0.9417  1.0259
    3CHTO    N7 1117   6.711   0.043   1.606 -0.2092 -0.1340 -0.4335
    3CHTO   H73 1118   6.723   0.065   1.711  0.0167 -1.8509 -0.0884
    3CHTO   H74 1119   6.797   0.082   1.555 -0.8438  0.6074 -0.9420
    3CHTO   C40 1120   6.562   0.124   1.397  0.3726 -0.0462 -0.6792
    3CHTO   H82 1121   6.585   0.037   1.336  1.2219  0.5835 -1.2701
    3CHTO   O26 1122   6.428   0.170   1.373  0.1123 -0.1210 -0.2901
    3CHTO   C41 1123   6.326   0.072   1.405 -0.2042 -0.6308 -0.1646
    3CHTO   H83 1124   6.341  -0.022   1.351  1.1343 -1.6337  1.8843
    3CHTO   C52 1125   6.201   0.143   1.340  0.7590  0.5196 -0.0754
    3CHTO   O35 1126   6.211   0.147   1.196  0.0822  0.2518  0.6531
    3CHTO   H71 1127   6.135   0.104   1.162  0.1286  3.1853 -3.5142
    3CHTO   O28 1128   6.663   0.212   1.342  0.0167  0.0559 -0.0090
    3CHTO   C42 1129   6.633   0.348   1.284 -0.0193 -0.0639 -0.2712
    3CHTO   H84 1130   6.734   0.384   1.263 -0.5296  1.1223 -0.7309
    3CHTO   C44 1131   6.569   0.452   1.377  0.2752  0.7394 -0.4220
    3CHTO   H86 1132   6.471   0.412   1.402  0.7231 -0.5608 -0.7136
    3CHTO   O32 1133   6.651   0.453   1.496 -0.1580 -0.1144 -0.0914
    3CHTO   H69 1134   6.613   0.516   1.555  0.8129  1.2336 -0.8893
    3CHTO   C48 1135   6.556   0.597   1.312  0.4136 -0.6948 -0.6249
    3CHTO   H90 1136   6.658   0.632   1.292  1.3729 -3.4707 -0.8775
    3CHTO    N9 1137   6.500   0.688   1.415 -0.5240  0.4552 -0.0445
    3CHTO   H77 1138   6.400   0.722   1.393  0.2384  3.0793  0.3941
    3CHTO   H78 1139   6.571   0.762   1.449  0.5032 -0.7716  0.5115
    3CHTO   C51 1140   6.477   0.586   1.180  0.3140  0.1506  0.5351
    3CHTO   H93 1141   6.373   0.555   1.193 -0.0585  0.2849 -1.8543
    3CHTO   O30 1142   6.555   0.490   1.096  0.7657 -0.5058  0.5862
    3CHTO   C46 1143   6.561   0.350   1.146  1.2543 -0.1011 -0.4162
    3CHTO   H88 1144   6.463   0.303   1.153  2.7998 -3.3868 -0.1395
    3CHTO   C53 1145   6.654   0.262   1.052  0.0976 -0.9401  0.1394
    3CHTO   O72 1146   6.588   0.233   0.931  0.5064  0.0017  0.2667
    3CHTO  H199 1147   6.558   0.308   0.882 -0.2506 -0.8856 -0.6636
    3CHTO   O22 1148   6.481   0.709   1.105 -0.4375  0.4444  0.1396
    3CHTO   C31 1149   6.393   0.712   0.985  0.3393 -0.4504 -1.1509
    3CHTO   H59 1150   6.373   0.606   0.957  1.6498 -0.2426 -2.9488
    3CHTO   C29 1151   6.253   0.778   1.015  0.6714 -0.0452 -0.6752
    3CHTO   H57 1152   6.283   0.875   1.058 -1.1987  0.4280 -0.4024
    3CHTO   O21 1153   6.182   0.706   1.115  0.4975 -0.1278  0.7012
    3CHTO   H37 1154   6.232   0.710   1.194 -1.5864 -2.0259  2.1864
    3CHTO   C27 1155   6.155   0.793   0.885 -0.1271  0.0050 -0.6193
    3CHTO   H55 1156   6.115   0.695   0.857 -0.1926 -0.1997  0.1805
    3CHTO    N5 1157   6.043   0.886   0.898 -0.4140  0.3406  0.3896
    3CHTO   H43 1158   5.944   0.856   0.865  0.5299 -1.5555 -0.7893
    3CHTO   H44 1159   6.042   0.933   0.995 -1.3714  0.6296  0.2505
    3CHTO   C25 1160   6.243   0.846   0.767 -0.2383 -0.0486 -0.0413
    3CHTO   H53 1161   6.285   0.942   0.802 -0.4246  0.0796 -0.1642
    3CHTO   O17 1162   6.356   0.765   0.753  0.6957  0.6402  0.4795
    3CHTO   C32 1163   6.451   0.780   0.852  0.6335 -0.2905 -0.3880
    3CHTO   H60 1164   6.485   0.881   0.871 -2.9497  1.1947 -1.5611
    3CHTO   C36 1165   6.582   0.700   0.801  0.3929  0.0093  0.1489
    3CHTO   O25 1166   6.626   0.760   0.680 -0.1304 -0.5930 -0.2855
    3CHTO   H40 1167   6.653   0.849   0.690 -2.8333  0.2984 -0.5507
    3CHTO   O15 1168   6.165   0.843   0.621 -0.0208 -0.5456  0.4445
    3CHTO   C19 1169   6.156   0.939   0.511 -0.1990  0.7172 -1.1527
    3CHTO   H47 1170   6.099   0.899   0.427 -1.1042  1.4119 -0.8704
    3CHTO   C20 1171   6.093   1.072   0.544  0.3357 -0.4779  1.1886
    3CHTO   H48 1172   6.133   1.114   0.638  1.6960 -0.6448  0.6899
    3CHTO   O19 1173   5.951   1.044   0.554  0.0856 -0.1643  0.1564
    3CHTO   H35 1174   5.914   1.085   0.630  0.5675  1.0890 -0.2729
    3CHTO   C21 1175   6.109   1.180   0.426 -0.4746 -0.1009 -0.6674
    3CHTO   H49 1176   6.035   1.163   0.348  1.0510  0.0149 -2.1521
    3CHTO    N4 1177   6.081   1.317   0.488 -0.1450 -0.6740  0.0812
    3CHTO   H41 1178   6.108   1.403   0.429  2.5907 -1.3474  0.2603
    3CHTO   H42 1179   5.983   1.331   0.530 -0.1616 -0.9966  0.1488
    3CHTO   C22 1180   6.246   1.175   0.358  0.2956 -1.2399  0.0272
    3CHTO   H50 1181   6.318   1.231   0.417 -0.7144 -2.4539  2.4805
    3CHTO   O14 1182   6.286   1.042   0.345  0.1175  0.2546  0.2365
    3CHTO   C23 1183   6.300   0.961   0.457 -0.0167  0.2598  0.4250
    3CHTO   H51 1184   6.362   1.017   0.529 -0.5236  0.1182  0.9664
    3CHTO   C34 1185   6.384   0.844   0.408 -0.1877  0.6044 -0.3427
    3CHTO   O23 1186   6.301   0.738   0.358  0.1724 -0.1217 -0.2618
    3CHTO   H38 1187   6.239   0.697   0.416 -0.8044  1.1795 -0.3537
    3CHTO   O16 1188   6.236   1.219   0.221  0.1730 -0.3250  0.0320
    3CHTO   C24 1189   6.329   1.341   0.191 -0.4187  0.0307  0.2289
    3CHTO   H52 1190   6.368   1.387   0.282 -0.0358  0.1254  0.0193
    3CHTO   C26 1191   6.238   1.453   0.131 -0.2031  0.5494 -0.9081
    3CHTO   H54 1192   6.184   1.414   0.042  1.0485  0.0291 -1.4530
    3CHTO   O20 1193   6.135   1.491   0.230  0.1848  0.0078 -0.1535
    3CHTO   H36 1194   6.064   1.539   0.193 -0.4674 -0.1352  0.8967
    3CHTO   C30 1195   6.326   1.581   0.104  0.0031  0.3855 -0.0092
    3CHTO   H58 1196   6.367   1.632   0.193  0.2580  2.0157 -1.0400
    3CHTO    N6 1197   6.239   1.682   0.037 -0.1846  0.2026 -0.6195
    3CHTO   H45 1198   6.137   1.653   0.057  0.6410 -0.0379  3.6735
    3CHTO   H46 1199   6.254   1.694  -0.069 -0.7880  1.3779 -0.5789
    3CHTO   C33 1200   6.452   1.544   0.022  0.1984 -0.4577 -0.1414
    3CHTO   H61 1201   6.424   1.527  -0.083 -0.5035 -1.4940  0.2074
    3CHTO   O18 1202   6.520   1.431   0.074  0.2358  0.3908  0.2744
    3CHTO   C28 1203   6.451   1.310   0.102  0.9504 -0.1552 -0.3652
    3CHTO   H56 1204   6.418   1.268   0.007 -0.3746 -1.4342  0.6452
    3CHTO   C35 1205   6.552   1.204   0.153  0.6110  0.4289 -0.6186
    3CHTO   O24 1206   6.657   1.186   0.058 -0.1512  1.1540 -0.2721
    3CHTO   H39 1207   6.725   1.124   0.075  0.6132  2.1296  0.2684
    3CHTO    O9 1208   6.543   1.655   0.006 -0.0426 -0.0196 -0.2156
    3CHTO   C13 1209   6.638   1.685   0.142  0.3691  0.4094  0.3129
    3CHTO   H26 1210   6.598   1.653   0.241  1.7574 -1.7226  0.2184
    3CHTO   C11 1211   6.662   1.840   0.134  0.3697  0.3442  0.1203
    3CHTO   H24 1212   6.565   1.886   0.156 -0.4025  0.0382 -2.4336
    3CHTO    O8 1213   6.702   1.884   0.001 -0.3312  0.4710  0.1355
    3CHTO    H3 1214   6.792   1.868  -0.022 -0.5802 -0.2575 -0.3411
    3CHTO    C9 1215   6.765   1.876   0.246  0.2090 -0.7558  0.1252
    3CHTO   H22 1216   6.719   1.837   0.338 -1.0207  1.7007  0.5977
    3CHTO    N2 1217   6.773   2.025   0.262  0.4969  0.0745  0.6756
    3CHTO   H10 1218   6.718   2.075   0.183  0.5481 -0.2717  0.4199
    3CHTO   H11 1219   6.867   2.077   0.274  1.8557 -2.0932 -0.2931
    3CHTO    C7 1220   6.900   1.801   0.231  0.4910  0.5243 -0.0033
    3CHTO   H20 1221   6.952   1.827   0.326  0.3847  0.4931  0.0630
    3CHTO    O4 1222   6.881   1.659   0.220  0.1758  0.6492  0.0872
    3CHTO   C14 1223   6.777   1.600   0.141 -0.2692 -0.0672 -0.1577
    3CHTO   H27 1224   6.761   1.503   0.193  1.2064  0.0116  0.4802
    3CHTO   C18 1225   6.822   1.559  -0.008  0.2963 -0.7556 -0.6383
    3CHTO   O13 1226   6.915   1.456  -0.006  0.0316 -0.3605 -0.2191
    3CHTO    H7 1227   6.988   1.461  -0.065  1.5217  0.3494  1.6351
    3CHTO    O2 1228   6.989   1.860   0.110 -0.3562 -0.0512 -0.5367
    3CHTO    C1 1229   7.124   1.800   0.085  0.6557  0.5185  0.4828
    3CHTO   H14 1230   7.120   1.689   0.080  1.2741  0.5391 -0.4870
    3CHTO    C2 1231   7.236   1.836   0.190  0.4841  0.6066 -0.9247
    3CHTO   H15 1232   7.231   1.945   0.198 -3.6749  0.6111 -2.4640
    3CHTO    O6 1233   7.199   1.757   0.308  0.4903  0.1820  0.1761
    3CHTO    H1 1234   7.138   1.797   0.367 -0.9829  0.4747 -1.5090
    3CHTO    C3 1235   7.375   1.788   0.137  0.2077  0.3008  0.2894
    3CHTO   H16 1236   7.361   1.679   0.126  0.1128  0.0855  2.4358
    3CHTO    N1 1237   7.499   1.814   0.223 -0.2706 -0.7943 -0.2805
    3CHTO    H8 1238   7.535   1.914   0.238  2.1568 -1.7059  0.3377
    3CHTO    H9 1239   7.581   1.743   0.228  0.5591  0.0413 -1.6025
    3CHTO    C4 1240   7.406   1.842  -0.011 -0.6638  0.3309  0.0213
    3CHTO   H17 1241   7.431   1.948  -0.002 -1.0178  0.5585 -1.6056
    3CHTO    O1 1242   7.295   1.821  -0.097 -0.1365  0.0258 -0.0179
    3CHTO    C5 1243   7.162   1.860  -0.050  0.4688  0.4469 -0.1013
    3CHTO   H18 1244   7.134   1.965  -0.058 -1.0789  0.0930  0.5464
    3CHTO   C16 1245   7.079   1.792  -0.156 -0.2702  0.2864  0.1538
    3CHTO   O11 1246   6.949   1.845  -0.170  0.0940 -0.2593  0.2711
    3CHTO    H5 1247   6.947   1.937  -0.152 -1.2982 -0.4875  1.4496
    3CHTO    O3 1248   7.513   1.765  -0.076  0.2056  0.0424  0.0650
    3CHTO    C6 1249   7.580   1.842  -0.177  0.5301 -0.5542 -0.1499
    3CHTO   H19 1250   7.513   1.917  -0.220 -0.8167 -2.5431 -1.6504
    3CHTO    C8 1251   7.709   1.916  -0.126 -0.3117 -0.2929 -0.1854
    3CHTO   H21 1252   7.776   1.839  -0.086 -0.0928 -0.4962 -0.9315
    3CHTO    O7 1253   7.676   2.026  -0.033 -0.3077  0.5192  0.0179
    3CHTO    H2 1254   7.752   2.040   0.020  1.1087  1.3204 -2.1821
    3CHTO   C12 1255   7.789   1.978  -0.250 -0.4103 -0.9269  0.7515
    3CHTO   H25 1256   7.729   2.068  -0.275  0.4101 -0.4112  0.6249
    3CHTO    N3 1257   7.920   2.022  -0.209  0.3277  0.0923  0.9106
    3CHTO   H12 1258   7.917   2.081  -0.119 -0.0800 -1.1370  1.7122
    3CHTO   H13 1259   7.989   1.940  -0.216 -0.2131 -0.2037 -1.6316
    3CHTO   C15 1260   7.799   1.882  -0.376  0.7086  0.5723  0.2642
    3CHTO   H28 1261   7.862   1.796  -0.354  0.8902  0.6199 -0.0688
    3CHTO   O10 1262   7.832   1.952  -0.514  0.4989  0.0006  0.5052
    3CHTO    H4 1263   7.855   2.042  -0.503 -1.6421  0.9930 -2.6175
    3CHTO    O5 1264   7.672   1.823  -0.399  0.3737  0.1498  0.4209
    3CHTO   C10 1265   7.607   1.747  -0.296 -0.1718 -0.2871  0.0550
    3CHTO   H23 1266   7.678   1.676  -0.254 -0.3101  0.4807  1.6290
    3CHTO   C17 1267   7.482   1.691  -0.360 -0.7112 -0.1854  0.0526
    3CHTO   O12 1268   7.508   1.562  -0.420 -0.2672 -0.0538 -0.3940
    3CHTO    H6 1269   7.458   1.492  -0.380 -1.0241 -0.3816 -1.8933
    4CHTO  H203 1270   5.897   7.080   1.812 -0.9764  2.3978  1.9194
    4CHTO   O82 1271   5.967   7.131   1.777 -0.3082  0.1772 -0.1131
    4CHTO  C123 1272   5.921   7.266   1.770 -0.1452 -0.0862  0.1189
    4CHTO  H227 1273   5.819   7.272   1.811  0.3345  2.3205  1.0134
    4CHTO   O77 1274   6.007   7.346   1.859 -0.6500  0.0134 -0.3293
    4CHTO  C118 1275   5.951   7.469   1.894  0.7209 -0.3914 -1.0948
    4CHTO  H222 1276   5.851   7.462   1.938  1.3435  2.1006  0.8337
    4CHTO  C125 1277   6.045   7.522   2.006 -0.3305 -0.3527 -0.1098
    4CHTO   O84 1278   5.989   7.643   2.059 -0.4422  0.4635  0.0289
    4CHTO  H205 1279   5.931   7.605   2.122 -1.7506 -0.8111 -1.9014
    4CHTO  C114 1280   5.952   7.560   1.766  0.3588 -0.5501  0.3622
    4CHTO  H218 1281   6.057   7.579   1.743 -0.2304  1.2148 -0.9534
    4CHTO  C116 1282   5.880   7.488   1.644 -0.7806 -0.6271  0.4765
    4CHTO  H220 1283   5.772   7.488   1.667 -0.5867  1.5940  1.5372
    4CHTO   O79 1284   5.899   7.562   1.523  0.1732  0.1950 -0.2365
    4CHTO  H201 1285   5.993   7.565   1.512  0.1398  0.0570 -0.5737
    4CHTO  C120 1286   5.932   7.340   1.630  0.2752  0.1464 -0.3394
    4CHTO  H224 1287   6.036   7.345   1.592  0.0134  1.9994 -0.8282
    4CHTO   N21 1288   5.847   7.270   1.533 -0.1416  0.2396 -0.1804
    4CHTO  H211 1289   5.762   7.224   1.582  1.4603 -2.6181 -0.0159
    4CHTO  H212 1290   5.909   7.198   1.482  1.0931  3.0041 -2.7497
    4CHTO   O75 1291   5.880   7.684   1.795  0.1472 -0.1440 -0.4634
    4CHTO  C112 1292   5.945   7.814   1.763  0.0204 -0.7104  0.4574
    4CHTO  H216 1293   5.979   7.819   1.658  0.2869 -1.3174  0.5154
    4CHTO   O73 1294   6.050   7.835   1.857  0.4425 -0.3683  0.3024
    4CHTO  C113 1295   6.121   7.956   1.827 -0.7538 -0.2150 -0.1896
    4CHTO  H217 1296   6.159   7.931   1.726 -1.9179 -0.8638 -0.4693
    4CHTO  C124 1297   6.239   7.965   1.929 -0.2841 -1.0611  0.2056
    4CHTO   O83 1298   6.327   7.858   1.918  0.1119 -0.2155  0.5377
    4CHTO  H204 1299   6.384   7.854   1.993  0.3677 -0.0443  0.3549
    4CHTO  C109 1300   6.036   8.079   1.833 -0.2230  0.6673  0.1094
    4CHTO  H213 1301   6.016   8.100   1.939  0.1254 -1.6229  0.6436
    4CHTO  C110 1302   5.914   8.060   1.739 -0.3725 -0.2578  0.0795
    4CHTO  H214 1303   5.959   8.052   1.641  0.2885  0.5594  0.3138
    4CHTO   O78 1304   5.838   8.182   1.752  0.2065 -0.0138  0.2332
    4CHTO  H200 1305   5.872   8.250   1.698 -0.3875  0.5418  0.5546
    4CHTO  C111 1306   5.837   7.929   1.781 -0.4799 -0.6580  0.0226
    4CHTO  H215 1307   5.806   7.938   1.886  1.0019  2.2724  0.2575
    4CHTO   N19 1308   5.712   7.906   1.707 -0.1172  0.1706  0.2285
    4CHTO  H207 1309   5.732   7.915   1.601  0.6339 -2.7498  0.0999
    4CHTO  H208 1310   5.658   7.819   1.740 -0.6111 -0.7148 -2.7437
    4CHTO   O74 1311   6.118   8.195   1.785  0.5212 -0.0904 -1.2745
    4CHTO  C115 1312   6.116   8.321   1.872  0.3536  0.0245  0.1588
    4CHTO  H219 1313   6.020   8.332   1.924  0.1179  3.4251 -0.8896
    4CHTO   O76 1314   6.219   8.312   1.986 -0.0408  0.2490 -0.3377
    4CHTO  C122 1315   6.358   8.338   1.950  0.1504 -0.2394 -0.3127
    4CHTO  H226 1316   6.404   8.241   1.933  2.7243  0.9659 -0.4570
    4CHTO  C126 1317   6.420   8.395   2.077 -0.0657  0.2364 -0.3435
    4CHTO   O85 1318   6.554   8.429   2.061  0.7608  0.6099  0.0723
    4CHTO  H206 1319   6.581   8.491   2.127 -2.6550  1.5593  0.6843
    4CHTO  C121 1320   6.374   8.439   1.828  0.2346  1.3802 -1.0656
    4CHTO  H225 1321   6.464   8.499   1.853  0.6724 -0.5934  2.4541
    4CHTO   O81 1322   6.401   8.362   1.704 -0.4190  0.3261  0.3353
    4CHTO  H202 1323   6.486   8.375   1.667  0.1590 -1.8100  0.8245
    4CHTO  C119 1324   6.256   8.532   1.811  0.1688 -0.1540 -0.4872
    4CHTO  H223 1325   6.231   8.572   1.909  1.0461 -0.9900  0.0951
    4CHTO  C117 1326   6.126   8.451   1.779 -1.2122  0.6577 -0.5494
    4CHTO  H221 1327   6.124   8.414   1.677  0.6905  1.5494 -0.9243
    4CHTO   N20 1328   5.994   8.531   1.790 -0.1345 -0.8178  0.0131
    4CHTO  H209 1329   5.962   8.520   1.892 -0.8747  0.2146 -0.1009
    4CHTO  H210 1330   6.007   8.635   1.765  0.6860 -1.1882 -1.1485
    4CHTO   O80 1331   6.276   8.668   1.723  0.5200  0.1438  0.6432
    4CHTO  C103 1332   6.258   8.810   1.784 -0.9709 -0.9983  0.0377
    4CHTO  H190 1333   6.163   8.819   1.837 -1.4948  0.4180 -1.1210
    4CHTO  C101 1334   6.366   8.840   1.883 -0.3192 -0.2317  0.9540
    4CHTO  H188 1335   6.462   8.807   1.843 -0.4751 -1.0519  1.2467
    4CHTO   O68 1336   6.336   8.751   2.015 -0.4780 -0.1789  0.8180
    4CHTO  H168 1337   6.242   8.754   2.017 -0.5681 -1.3377 -0.4469
    4CHTO   C99 1338   6.372   9.004   1.909 -0.1431  0.0973  0.4738
    4CHTO  H186 1339   6.282   9.027   1.970 -0.0530 -0.7588  0.9506
    4CHTO   N17 1340   6.483   9.046   1.997 -0.2890  0.4375 -0.6541
    4CHTO  H174 1341   6.515   9.147   1.979  0.0321  0.1959 -1.4608
    4CHTO  H175 1342   6.444   9.048   2.098 -1.4909  1.4639 -1.1100
    4CHTO   C97 1343   6.353   9.088   1.781 -0.0776  0.5415 -0.2894
    4CHTO  H184 1344   6.450   9.082   1.729  0.4020  0.4698  0.6076
    4CHTO   O64 1345   6.247   9.038   1.704  0.4664  0.1208 -0.1342
    4CHTO  C104 1346   6.256   8.903   1.664  0.4501 -0.5082 -0.6477
    4CHTO  H191 1347   6.348   8.891   1.607  0.4779 -2.6967 -0.1797
    4CHTO  C108 1348   6.144   8.885   1.569 -0.2700  0.0394 -0.2030
    4CHTO   O71 1349   6.156   8.968   1.458  0.4827  0.7744 -0.8615
    4CHTO  H171 1350   6.172   8.909   1.387  0.0419  0.1061 -0.4042
    4CHTO   O62 1351   6.336   9.226   1.814  0.0221 -0.2589  0.7552
    4CHTO   C91 1352   6.333   9.326   1.712  0.2063 -0.2887  0.2173
    4CHTO  H178 1353   6.347   9.272   1.619 -3.2574 -0.8207 -0.0867
    4CHTO   C92 1354   6.456   9.420   1.709  0.3841 -0.0238  0.6437
    4CHTO  H179 1355   6.453   9.485   1.798  1.0355 -1.3338  1.6358
    4CHTO   O66 1356   6.572   9.340   1.721 -0.0506  0.2718 -0.2078
    4CHTO  H166 1357   6.636   9.354   1.653 -0.2833  1.1737 -0.2426
    4CHTO   C93 1358   6.455   9.515   1.585  0.2369  0.3957 -0.6911
    4CHTO  H180 1359   6.493   9.457   1.499  1.5284  2.1898 -1.3733
    4CHTO   N16 1360   6.551   9.624   1.584  0.6182 -0.3371  0.5349
    4CHTO  H172 1361   6.488   9.701   1.625 -1.2528 -0.2226 -2.3783
    4CHTO  H173 1362   6.624   9.607   1.662  0.8853 -1.8380 -0.0229
    4CHTO   C94 1363   6.303   9.563   1.549 -0.0717 -0.4066 -0.5133
    4CHTO  H181 1364   6.304   9.670   1.528  0.8389 -0.2739  0.1966
    4CHTO   O61 1365   6.212   9.541   1.658 -0.2446 -0.3617  0.3116
    4CHTO   C95 1366   6.198   9.408   1.720 -0.2331 -0.5085  0.4598
    4CHTO  H182 1367   6.169   9.417   1.825 -1.8511 -0.8558  0.0570
    4CHTO  C106 1368   6.081   9.316   1.659 -0.4973  0.0845  0.4442
    4CHTO   O69 1369   5.962   9.396   1.655  0.1718  0.5222  0.3615
    4CHTO  H169 1370   5.893   9.348   1.614 -0.2969  1.0712  0.4986
    4CHTO   O63 1371   6.249   9.499   1.434 -0.4125  0.7101 -0.6569
    4CHTO   C96 1372   6.318   9.509   1.291  0.6592  0.0606 -0.4618
    4CHTO  H183 1373   6.427   9.502   1.296  0.7300  0.0090 -1.8200
    4CHTO   C98 1374   6.290   9.643   1.222  0.0529  0.1321 -0.3416
    4CHTO  H185 1375   6.182   9.662   1.238 -0.0821 -1.8367  1.2920
    4CHTO   O67 1376   6.359   9.740   1.289  0.0895 -0.0756  0.2228
    4CHTO  H167 1377   6.300   9.814   1.293  0.7614  0.4553  0.3930
    4CHTO  C102 1378   6.323   9.644   1.068  0.1798  0.0075 -0.4783
    4CHTO  H189 1379   6.431   9.659   1.064  0.3412 -1.0205 -0.1730
    4CHTO   N18 1380   6.268   9.756   0.989  0.4671  0.2076  0.6625
    4CHTO  H176 1381   6.354   9.793   0.936 -1.2485  0.9594 -1.6536
    4CHTO  H177 1382   6.227   9.835   1.051 -0.5757 -0.4987  0.8803
    4CHTO  C105 1383   6.307   9.502   1.006  0.1414  0.4210  0.3256
    4CHTO  H192 1384   6.205   9.491   0.971  0.1662  2.6075 -0.4583
    4CHTO   O65 1385   6.348   9.390   1.085 -0.5420 -1.2283 -0.4440
    4CHTO  C100 1386   6.281   9.382   1.213  0.8004  0.9801 -0.2394
    4CHTO  H187 1387   6.174   9.367   1.193  0.0335  0.8196  3.6292
    4CHTO  C107 1388   6.326   9.255   1.281  0.4083  0.4703  0.6879
    4CHTO   O70 1389   6.285   9.145   1.203  0.3158  0.1843  0.3090
    4CHTO  H170 1390   6.311   9.066   1.245 -2.0328 -0.5038  0.4826
    4CHTO   O57 1391   6.417   9.500   0.876 -0.8133 -0.2121  0.6288
    4CHTO   C85 1392   6.367   9.429   0.762  0.3955  0.8801 -0.2900
    4CHTO  H157 1393   6.257   9.422   0.773 -0.0230  1.8406 -3.3398
    4CHTO   C83 1394   6.411   9.282   0.757  0.2237  0.5757 -0.4998
    4CHTO  H155 1395   6.361   9.223   0.834  1.2747  1.6982  1.0612
    4CHTO   O56 1396   6.555   9.281   0.781  0.2968  0.3955  0.2539
    4CHTO  H135 1397   6.597   9.302   0.700  0.6291 -1.5692 -0.1244
    4CHTO   C81 1398   6.389   9.219   0.617  0.5484 -0.0160  0.4136
    4CHTO  H153 1399   6.282   9.218   0.596  0.9579 -1.2057 -1.7663
    4CHTO   N14 1400   6.419   9.071   0.601 -0.0915 -0.1893  0.2779
    4CHTO  H141 1401   6.399   9.044   0.499 -1.4001 -1.3426  0.8279
    4CHTO  H142 1402   6.360   9.011   0.667 -0.8628  1.3233  0.9791
    4CHTO   C79 1403   6.453   9.306   0.504  0.8192 -0.4467 -0.7402
    4CHTO  H151 1404   6.422   9.260   0.410 -2.3315 -1.3632  0.6817
    4CHTO   O52 1405   6.398   9.444   0.507  0.3336 -0.5835  0.2976
    4CHTO   C86 1406   6.409   9.511   0.635  0.6589  0.5771  0.6338
    4CHTO  H158 1407   6.514   9.546   0.638  0.5531  1.1144 -1.2792
    4CHTO   C90 1408   6.325   9.644   0.630  0.0986  0.0843  0.1606
    4CHTO   O60 1409   6.191   9.611   0.593  0.4861 -0.2138  0.7392
    4CHTO  H138 1410   6.168   9.664   0.519  1.8640 -0.3476  0.1924
    4CHTO   O50 1411   6.596   9.316   0.492  0.2632 -0.4751  0.4204
    4CHTO   C73 1412   6.704   9.355   0.402 -0.6701 -0.3422 -0.1118
    4CHTO  H145 1413   6.701   9.463   0.381 -0.0205 -0.0178  1.3408
    4CHTO   C74 1414   6.700   9.264   0.270  0.3028 -0.9347  0.2619
    4CHTO  H146 1415   6.609   9.280   0.211  2.2011 -0.3647 -2.6423
    4CHTO   O54 1416   6.806   9.298   0.176  0.2108 -0.0858 -0.4213
    4CHTO  H133 1417   6.801   9.388   0.152 -2.5219 -0.5527 -1.8529
    4CHTO   C75 1418   6.717   9.114   0.317 -0.9210  0.3654  0.5678
    4CHTO  H147 1419   6.641   9.081   0.389 -1.5831 -1.7430 -1.0545
    4CHTO   N13 1420   6.704   9.013   0.208  0.0881  0.4903 -0.3193
    4CHTO  H139 1421   6.775   9.019   0.127  0.1423  0.6490 -0.2590
    4CHTO  H140 1422   6.601   9.005   0.175 -0.1219  0.7880  0.2497
    4CHTO   C76 1423   6.855   9.097   0.386  0.6099 -0.2861 -0.3953
    4CHTO  H148 1424   6.934   9.110   0.313  1.9007 -5.6027 -0.1969
    4CHTO   O49 1425   6.861   9.189   0.506 -0.1224  0.0778 -0.0239
    4CHTO   C77 1426   6.835   9.329   0.478 -0.0490 -0.1412  0.1589
    4CHTO  H149 1427   6.915   9.369   0.416 -1.5990  1.8623 -0.5949
    4CHTO   C88 1428   6.845   9.409   0.603  0.6597  0.4667 -0.5157
    4CHTO   O58 1429   6.836   9.559   0.583  0.4314 -0.1708 -0.4490
    4CHTO  H136 1430   6.801   9.594   0.663  0.8907  2.3006 -1.2653
    4CHTO   O51 1431   6.866   8.961   0.441  0.4624  0.4016  0.1267
    4CHTO   C78 1432   6.986   8.907   0.477 -0.1491  0.5548  0.7200
    4CHTO  H150 1433   7.057   8.980   0.522  0.4103 -0.1759  1.0326
    4CHTO   C80 1434   7.053   8.832   0.360  0.6007 -0.8274  0.0542
    4CHTO  H152 1435   6.974   8.770   0.311  1.1186 -1.4316 -0.0205
    4CHTO   O55 1436   7.087   8.938   0.267 -0.2220  0.4976  0.7548
    4CHTO  H134 1437   7.177   8.940   0.241  0.2501  0.3881  2.3400
    4CHTO   C84 1438   7.180   8.742   0.400 -0.3398  0.5903  0.0813
    4CHTO  H156 1439   7.264   8.808   0.424  1.2901 -0.1957 -3.1990
    4CHTO   N15 1440   7.222   8.659   0.285  0.5080 -0.0953  0.4015
    4CHTO  H143 1441   7.139   8.623   0.226  0.2948 -0.2070  0.7712
    4CHTO  H144 1442   7.289   8.709   0.218 -0.0147  2.8790  2.0065
    4CHTO   C87 1443   7.145   8.654   0.525  0.1361  1.3208 -0.1896
    4CHTO  H159 1444   7.082   8.569   0.500  1.9457 -0.4326  1.0651
    4CHTO   O53 1445   7.080   8.747   0.640  0.1656  0.8172  0.0290
    4CHTO   C82 1446   6.958   8.811   0.592  0.0692  0.2041 -0.5278
    4CHTO  H154 1447   6.881   8.739   0.567  0.7530 -0.9655  0.6544
    4CHTO   C89 1448   6.891   8.886   0.714  0.9318 -0.0380 -0.4991
    4CHTO   O59 1449   6.987   8.976   0.772  0.6451 -0.3841  0.2073
    4CHTO  H137 1450   7.002   9.031   0.698 -1.0342 -0.2635 -0.0698
    4CHTO   O45 1451   7.266   8.575   0.591 -0.6254  0.3833  0.5608
    4CHTO   C67 1452   7.294   8.443   0.533  0.7455  0.4567 -0.7897
    4CHTO  H124 1453   7.250   8.433   0.433 -0.2946 -0.7364 -0.2276
    4CHTO   C65 1454   7.448   8.411   0.525  0.3820 -1.0759 -0.0656
    4CHTO  H122 1455   7.498   8.499   0.564 -1.5467 -1.0812  2.5900
    4CHTO   O44 1456   7.493   8.383   0.387  0.1241 -0.3235 -0.3085
    4CHTO  H102 1457   7.586   8.373   0.381  0.4053  1.0358  1.2720
    4CHTO   C63 1458   7.502   8.298   0.624  0.2548  0.5503 -0.8196
    4CHTO  H120 1459   7.477   8.330   0.725  0.3087 -1.2279 -0.2376
    4CHTO   N11 1460   7.654   8.282   0.641  0.4405  0.4528 -0.0865
    4CHTO  H108 1461   7.667   8.235   0.736 -1.1585  1.6263  0.7584
    4CHTO  H109 1462   7.694   8.200   0.585 -0.3660  1.8892 -2.8868
    4CHTO   C61 1463   7.415   8.169   0.594  0.0500  0.1603 -0.2850
    4CHTO  H118 1464   7.423   8.108   0.685  2.6471  0.4072 -0.3249
    4CHTO   O40 1465   7.275   8.194   0.581 -0.2636 -0.0596  0.5853
    4CHTO   C68 1466   7.239   8.324   0.624  0.7121  0.4888 -0.9665
    4CHTO  H125 1467   7.270   8.336   0.730 -1.2562  0.5562 -0.3805
    4CHTO   C72 1468   7.087   8.316   0.628  0.3079  0.4395 -0.5472
    4CHTO   O48 1469   7.040   8.247   0.744  0.2581  0.6238 -0.0861
    4CHTO  H105 1470   6.952   8.219   0.726  0.7803 -1.7578  0.9662
    4CHTO   O38 1471   7.460   8.110   0.473 -0.1671 -0.0092  0.7845
    4CHTO   C55 1472   7.416   7.975   0.457  0.4031  0.1101  0.0250
    4CHTO  H112 1473   7.326   7.956   0.517 -0.4404 -2.0224 -1.8203
    4CHTO   C56 1474   7.534   7.876   0.491  0.1111 -0.3909 -0.9545
    4CHTO  H113 1475   7.622   7.900   0.429  1.1671  2.4898  1.5137
    4CHTO   O42 1476   7.570   7.893   0.632  0.3672 -0.3808 -0.1214
    4CHTO  H100 1477   7.568   7.987   0.641  1.0575 -0.4751  1.0707
    4CHTO   C57 1478   7.485   7.729   0.474 -0.0283  0.2737 -0.1980
    4CHTO  H114 1479   7.408   7.711   0.549  1.1408 -0.2184  0.8816
    4CHTO   N10 1480   7.594   7.629   0.493  0.2549  0.2772  0.5729
    4CHTO  H106 1481   7.680   7.663   0.437 -0.9959  2.7460  0.0635
    4CHTO  H107 1482   7.573   7.527   0.468  2.4814 -0.0388 -0.1330
    4CHTO   C58 1483   7.418   7.714   0.336  0.2118  0.3597 -0.0017
    4CHTO  H115 1484   7.492   7.711   0.254  0.4016  0.0254  0.1798
    4CHTO   O37 1485   7.317   7.815   0.313  0.4013 -0.0720 -0.5570
    4CHTO   C59 1486   7.361   7.949   0.313  0.6494 -0.1944  0.0112
    4CHTO  H116 1487   7.438   7.976   0.241  0.6371 -0.0358  0.0577
    4CHTO   C70 1488   7.237   8.035   0.280  0.0044  0.2408 -0.1753
    4CHTO   O46 1489   7.268   8.175   0.264  0.1000 -0.5349  0.2524
    4CHTO  H103 1490   7.290   8.228   0.338  0.0185  0.7566 -0.6429
    4CHTO   O39 1491   7.320   7.587   0.336 -0.3902  0.1802 -0.1221
    4CHTO   C60 1492   7.372   7.465   0.266 -0.0407 -0.8140  0.5801
    4CHTO  H117 1493   7.471   7.488   0.229 -0.8570  0.7561 -0.6914
    4CHTO   C62 1494   7.386   7.341   0.356  0.5950  0.9435 -0.8317
    4CHTO  H119 1495   7.437   7.364   0.451 -0.5896  0.1322  0.0215
    4CHTO   O43 1496   7.262   7.286   0.403  0.6564  0.2993 -0.0386
    4CHTO  H101 1497   7.244   7.205   0.359 -1.5737  1.5471 -1.5005
    4CHTO   C66 1498   7.479   7.243   0.267  0.7879 -0.1952  0.5724
    4CHTO  H123 1499   7.560   7.298   0.217  1.3400  1.4134  3.1582
    4CHTO   N12 1500   7.536   7.133   0.341  0.1624 -0.0749  0.2467
    4CHTO  H110 1501   7.500   7.139   0.443 -0.7578  0.1652 -0.0796
    4CHTO  H111 1502   7.643   7.139   0.327  0.2361 -0.1523  0.7954
    4CHTO   C69 1503   7.398   7.195   0.144 -0.9218  0.3723  0.4742
    4CHTO  H126 1504   7.305   7.143   0.172 -1.1193  1.8848  2.7838
    4CHTO   O41 1505   7.345   7.331   0.053 -1.1276  0.7634  0.8143
    4CHTO   C64 1506   7.281   7.440   0.135  0.1071  0.0060  0.1208
    4CHTO  H121 1507   7.181   7.403   0.167  1.1322 -2.1273  0.9398
    4CHTO   C71 1508   7.260   7.566   0.039 -0.1805  0.1997  0.6425
    4CHTO   O47 1509   7.148   7.533  -0.047 -0.5409  0.0355 -0.1910
    4CHTO  H104 1510   7.120   7.608  -0.098 -0.6844 -0.0111 -0.1816
    4CHTO   O34 1511   7.488   7.109   0.044  0.0094  0.3467  0.0163
    4CHTO   C49 1512   7.479   6.997  -0.063 -0.1666  0.4307  0.5755
    4CHTO   H91 1513   7.467   7.047  -0.160  1.2937  0.4954  0.4219
    4CHTO   C47 1514   7.368   6.898  -0.033 -0.1359  0.5077 -0.6241
    4CHTO   H89 1515   7.360   6.831  -0.122 -1.2001  0.3162 -0.3854
    4CHTO   O33 1516   7.244   6.960  -0.020 -0.0372 -0.2278  0.9915
    4CHTO   H70 1517   7.172   6.902  -0.003  0.1193 -0.7077  0.0136
    4CHTO   C45 1518   7.407   6.809   0.092  0.0755  0.7474 -0.1836
    4CHTO   H87 1519   7.414   6.879   0.176  0.0116 -0.2896  0.6883
    4CHTO    N8 1520   7.305   6.711   0.135  0.1883 -0.2301 -0.0991
    4CHTO   H75 1521   7.287   6.715   0.242  0.2696  0.5012 -0.1092
    4CHTO   H76 1522   7.213   6.703   0.079  1.1582  1.2110 -1.9706
    4CHTO   C43 1523   7.549   6.732   0.078 -0.0094 -0.1688 -0.2905
    4CHTO   H85 1524   7.567   6.695   0.179 -4.3394  0.2916  0.7704
    4CHTO   O29 1525   7.647   6.826   0.031  0.5302  0.4771 -1.2364
    4CHTO   C50 1526   7.621   6.927  -0.067  0.2485  0.4126  0.1945
    4CHTO   H92 1527   7.691   7.011  -0.077  1.5690 -0.7614 -0.6199
    4CHTO   C54 1528   7.648   6.852  -0.205  0.3576 -0.0792 -0.8266
    4CHTO   O36 1529   7.583   6.916  -0.314  0.3544  0.6474 -0.0021
    4CHTO   H72 1530   7.569   6.850  -0.379  1.1466 -1.1717  1.6443
    4CHTO   O27 1531   7.543   6.611  -0.002  0.2010 -0.1649  0.3895
    4CHTO   C37 1532   7.585   6.475  -0.016  0.2096 -0.2159  0.7830
    4CHTO   H79 1533   7.538   6.443  -0.110  0.7194  2.1455 -0.3006
    4CHTO   C38 1534   7.736   6.467  -0.035  0.1136 -0.1611 -0.0307
    4CHTO   H80 1535   7.782   6.523   0.048  3.5921 -0.2733 -1.7987
    4CHTO   O31 1536   7.760   6.525  -0.165 -0.2559 -0.6037 -0.0792
    4CHTO   H68 1537   7.849   6.507  -0.188 -0.5014  1.2213 -2.7182
    4CHTO   C39 1538   7.787   6.318  -0.037 -0.3786 -0.8039 -0.1764
    4CHTO   H81 1539   7.736   6.263  -0.117 -2.4011 -0.2218  0.6677
    4CHTO    N7 1540   7.936   6.308  -0.051 -0.2912 -0.2848  0.6561
    4CHTO   H73 1541   7.971   6.247  -0.134 -0.8445 -0.7217  0.7425
    4CHTO   H74 1542   7.984   6.267   0.036 -1.4951 -2.5777  0.2852
    4CHTO   C40 1543   7.726   6.244   0.086  0.4485  0.7182  0.1629
    4CHTO   H82 1544   7.770   6.273   0.181 -1.6131  0.8518  1.0944
    4CHTO   O26 1545   7.581   6.250   0.094 -0.3749 -1.1889  1.0278
    4CHTO   C41 1546   7.530   6.390   0.102  0.2233  0.0242 -0.5575
    4CHTO   H83 1547   7.571   6.424   0.198 -1.3551 -0.7559  0.4192
    4CHTO   C52 1548   7.373   6.373   0.113 -0.5719  0.0367 -0.1491
    4CHTO   O35 1549   7.327   6.311   0.235  0.3813 -0.2082  0.3602
    4CHTO   H71 1550   7.236   6.295   0.218  0.8716 -0.3479 -2.4372
    4CHTO   O28 1551   7.744   6.102   0.081 -0.0895  0.5916 -0.4131
    4CHTO   C42 1552   7.832   6.019   0.170 -0.1089  0.3360  0.5911
    4CHTO   H84 1553   7.900   6.094   0.210 -1.3743  2.0228 -0.3370
    4CHTO   C44 1554   7.920   5.912   0.097  0.5008 -0.1485 -0.1504
    4CHTO   H86 1555   7.850   5.838   0.056 -0.5206  0.3897  0.6004
    4CHTO   O32 1556   7.996   5.976  -0.006  0.0100 -0.3150  0.0686
    4CHTO   H69 1557   7.986   6.067  -0.025  1.0050 -0.0042  1.0322
    4CHTO   C48 1558   8.008   5.823   0.200  0.3927 -0.7130  0.4627
    4CHTO   H90 1559   8.085   5.879   0.253 -1.1334  0.1246  1.8663
    4CHTO    N9 1560   8.076   5.711   0.129  0.4024  0.2754  0.2694
    4CHTO   H77 1561   8.011   5.633   0.094 -0.1061 -0.0794  1.9345
    4CHTO   H78 1562   8.134   5.664   0.207  1.6214  0.1229 -0.7050
    4CHTO   C51 1563   7.911   5.766   0.319 -0.5148 -0.7876 -0.0012
    4CHTO   H93 1564   7.839   5.702   0.267  1.1246 -2.2680 -0.5179
    4CHTO   O30 1565   7.847   5.886   0.375  0.5456 -0.8244 -0.4142
    4CHTO   C46 1566   7.754   5.948   0.288  0.3521  0.4193 -0.5941
    4CHTO   H88 1567   7.684   5.876   0.247 -0.0698  0.5265 -0.0734
    4CHTO   C53 1568   7.668   6.040   0.363  0.0375  0.1208  0.2271
    4CHTO   O72 1569   7.750   6.133   0.447  0.3434  0.6983 -0.2271
    4CHTO  H199 1570   7.815   6.084   0.494 -1.7540  0.5531  2.6630
    4CHTO   O22 1571   7.979   5.689   0.418 -0.0489 -0.4708  0.3930
    4CHTO   C31 1572   7.961   5.708   0.566 -0.3037 -0.6493 -0.3914
    4CHTO   H59 1573   7.924   5.812   0.579 -0.7153 -1.0378  1.6108
    4CHTO   C29 1574   7.852   5.614   0.620  0.2265 -0.0535 -0.4062
    4CHTO   H57 1575   7.903   5.517   0.623 -0.5163 -0.3868  2.6389
    4CHTO   O21 1576   7.745   5.595   0.528  0.5069 -0.3304  0.1116
    4CHTO   H37 1577   7.724   5.679   0.494 -0.6736 -0.4947  0.4171
    4CHTO   C27 1578   7.813   5.654   0.773  0.0185 -0.1398  0.0350
    4CHTO   H55 1579   7.764   5.753   0.770  0.3517 -0.0178 -3.3022
    4CHTO    N5 1580   7.724   5.559   0.845 -0.0619  0.3493  0.5370
    4CHTO   H43 1581   7.705   5.613   0.936 -1.2466 -0.5190  0.8153
    4CHTO   H44 1582   7.782   5.477   0.884  1.2838  1.3280  0.6258
    4CHTO   C25 1583   7.949   5.662   0.853 -0.4247 -0.3972  0.4359
    4CHTO   H53 1584   8.001   5.566   0.866  0.5355  0.1197  0.5170
    4CHTO   O17 1585   8.060   5.738   0.787 -0.6753 -0.0797 -0.0763
    4CHTO   C32 1586   8.091   5.696   0.650 -0.3112 -0.3488 -0.0959
    4CHTO   H60 1587   8.125   5.593   0.644 -0.3307 -0.3356 -0.4323
    4CHTO   C36 1588   8.205   5.770   0.584  0.4891  0.3648  0.4070
    4CHTO   O25 1589   8.180   5.907   0.582 -0.2232 -0.7431  0.2946
    4CHTO   H40 1590   8.169   5.950   0.665 -1.6492  0.5769 -0.5575
    4CHTO   O15 1591   7.922   5.729   0.993  0.2590 -0.0028 -0.5647
    4CHTO   C19 1592   7.863   5.815   1.087 -0.1010 -0.0110 -0.2848
    4CHTO   H47 1593   7.754   5.800   1.080 -0.2375  0.8442 -0.1506
    4CHTO   C20 1594   7.908   5.786   1.230 -0.3162  0.5807 -0.3542
    4CHTO   H48 1595   8.014   5.812   1.247 -0.7110  0.2819  2.7285
    4CHTO   O19 1596   7.881   5.648   1.241 -0.0761 -0.5738  0.0332
    4CHTO   H35 1597   7.849   5.633   1.328 -0.6916  1.6408  0.2177
    4CHTO   C21 1598   7.830   5.882   1.325  0.4147  0.0277 -0.0948
    4CHTO   H49 1599   7.724   5.855   1.321 -0.0435  2.0219 -2.8630
    4CHTO    N4 1600   7.873   5.862   1.463  0.4792  0.2106  0.0640
    4CHTO   H41 1601   7.810   5.935   1.513  0.3190  1.5804 -2.1007
    4CHTO   H42 1602   7.871   5.765   1.510  0.0835  0.2105  0.0473
    4CHTO   C22 1603   7.847   6.027   1.279 -0.0819 -0.1763  0.3904
    4CHTO   H50 1604   7.953   6.045   1.298  0.1695 -3.3539  2.4182
    4CHTO   O14 1605   7.806   6.042   1.146 -0.2513 -0.0578  0.0941
    4CHTO   C23 1606   7.885   5.962   1.059  0.0130 -0.3277  0.1135
    4CHTO   H51 1607   7.990   5.993   1.068 -0.5923  1.4680  1.4445
    4CHTO   C34 1608   7.847   6.003   0.914 -0.1538  0.1153 -0.4331
    4CHTO   O23 1609   7.890   6.130   0.857  0.1045 -0.7135  0.2398
    4CHTO   H38 1610   7.967   6.115   0.807  0.0858  1.1308 -0.3698
    4CHTO   O16 1611   7.771   6.123   1.358 -0.4190 -0.3258 -0.2149
    4CHTO   C24 1612   7.765   6.271   1.292  0.1533  0.0862  0.5991
    4CHTO   H52 1613   7.808   6.271   1.192 -1.3336  0.6254 -0.0560
    4CHTO   C26 1614   7.834   6.377   1.379 -0.2099  0.0353 -0.0040
    4CHTO   H54 1615   7.797   6.364   1.482  0.4716  0.7277  0.3336
    4CHTO   O20 1616   7.970   6.345   1.385 -0.0261 -0.2376  0.4459
    4CHTO   H36 1617   8.018   6.416   1.424  1.5592 -0.7449 -0.5622
    4CHTO   C30 1618   7.821   6.528   1.331  0.9061  0.8671 -1.2364
    4CHTO   H58 1619   7.864   6.533   1.229 -0.7396  1.3034 -1.9168
    4CHTO    N6 1620   7.874   6.630   1.428 -0.2880 -0.1304 -0.6208
    4CHTO   H45 1621   7.935   6.582   1.503 -2.8002 -0.7075  1.1166
    4CHTO   H46 1622   7.929   6.706   1.374 -0.7048  1.4571  1.1183
    4CHTO   C33 1623   7.670   6.557   1.300 -0.7942  0.3298 -0.1064
    4CHTO   H61 1624   7.616   6.563   1.395 -0.2274  0.7049  0.1893
    4CHTO   O18 1625   7.613   6.452   1.217  0.3175  0.8316  0.1878
    4CHTO   C28 1626   7.620   6.323   1.278  1.4005 -0.2022  0.8374
    4CHTO   H56 1627   7.569   6.328   1.373  0.1944  0.2923  0.1751
    4CHTO   C35 1628   7.541   6.218   1.192 -0.3781  0.0687 -0.5074
    4CHTO   O24 1629   7.578   6.198   1.052 -0.6267  0.0094  0.1082
    4CHTO   H39 1630   7.513   6.142   1.015  1.2073  0.0477 -3.3932
    4CHTO    O9 1631   7.659   6.688   1.242  0.2326  0.0606  0.4079
    4CHTO   C13 1632   7.513   6.767   1.266  0.1124 -0.0613  0.3404
    4CHTO   H26 1633   7.428   6.696   1.268  1.2947 -1.4882  2.0846
    4CHTO   C11 1634   7.498   6.886   1.154 -1.1256  0.3707  0.7872
    4CHTO   H24 1635   7.508   6.838   1.056  1.9034 -0.1751  1.3057
    4CHTO    O8 1636   7.610   6.979   1.171 -0.0076  0.0402  0.0178
    4CHTO    H3 1637   7.590   7.067   1.145 -0.2803  0.0623  0.3002
    4CHTO    C9 1638   7.364   6.959   1.160  0.1075  0.1623  0.3970
    4CHTO   H22 1639   7.288   6.880   1.147  1.6700 -1.3362  0.1223
    4CHTO    N2 1640   7.351   7.064   1.057  0.0734 -0.0616 -0.3973
    4CHTO   H10 1641   7.250   7.099   1.044  0.2228  0.8006  0.7116
    4CHTO   H11 1642   7.417   7.148   1.066 -1.6189  1.1608  0.9035
    4CHTO    C7 1643   7.354   7.012   1.307 -0.2984  0.5212 -0.1328
    4CHTO   H20 1644   7.246   7.025   1.328 -0.3338  1.0495 -0.6269
    4CHTO    O4 1645   7.384   6.915   1.409  0.5987  0.2860  0.0488
    4CHTO   C14 1646   7.495   6.832   1.412  0.1947 -0.1580  0.2094
    4CHTO   H27 1647   7.467   6.751   1.483 -1.8325 -1.0428 -1.5486
    4CHTO   C18 1648   7.615   6.908   1.471  0.3206  0.3618  0.0348
    4CHTO   O13 1649   7.574   6.966   1.594  0.3307  0.1446  0.5241
    4CHTO    H7 1650   7.650   6.994   1.641  2.5439 -2.4247 -1.3684
    4CHTO    O2 1651   7.447   7.133   1.337  0.1511 -0.1117  0.1651
    4CHTO    C1 1652   7.384   7.253   1.379 -0.1150 -0.3677 -0.0434
    4CHTO   H14 1653   7.279   7.258   1.341 -0.0337  0.0929 -0.2012
    4CHTO    C2 1654   7.468   7.376   1.316 -0.6403 -0.1950  0.6981
    4CHTO   H15 1655   7.573   7.368   1.348  0.3316  1.9903 -1.7713
    4CHTO    O6 1656   7.457   7.361   1.171 -0.1055 -0.0940  0.5042
    4CHTO    H1 1657   7.510   7.425   1.128 -3.2147  0.9288 -1.9749
    4CHTO    C3 1658   7.410   7.515   1.373  0.1867  0.2025 -0.6502
    4CHTO   H16 1659   7.304   7.522   1.345  0.0550  0.5844 -0.0499
    4CHTO    N1 1660   7.489   7.636   1.319  1.1530  0.2735  0.0575
    4CHTO    H8 1661   7.559   7.617   1.239  0.4665 -0.9159 -0.2693
    4CHTO    H9 1662   7.536   7.687   1.402  3.2388 -0.7678 -0.4463
    4CHTO    C4 1663   7.416   7.506   1.530  0.6430 -0.8081  0.4081
    4CHTO   H17 1664   7.518   7.521   1.566 -0.2758  0.8385  2.3937
    4CHTO    O1 1665   7.345   7.395   1.580  0.1838  0.0603 -0.6898
    4CHTO    C5 1666   7.395   7.266   1.534 -0.3744 -0.5739 -0.0298
    4CHTO   H18 1667   7.498   7.253   1.568  0.0223 -1.8516 -1.6997
    4CHTO   C16 1668   7.301   7.154   1.603 -0.4024 -0.4005 -0.1686
    4CHTO   O11 1669   7.166   7.191   1.572 -0.1137 -0.2865  0.5233
    4CHTO    H5 1670   7.096   7.129   1.581 -0.5095 -0.2463 -1.8300
    4CHTO    O3 1671   7.332   7.610   1.587 -0.2790  0.1510 -0.3128
    4CHTO    C6 1672   7.381   7.700   1.694  0.3077  0.5465  0.3367
    4CHTO   H19 1673   7.478   7.669   1.732  0.9181  0.8285 -0.9805
    4CHTO    C8 1674   7.385   7.853   1.652  0.1191 -0.8823 -0.3824
    4CHTO   H21 1675   7.292   7.883   1.604  0.7312 -0.1441 -1.1148
    4CHTO    O7 1676   7.484   7.861   1.558  0.3067 -0.6439 -0.1143
    4CHTO    H2 1677   7.464   7.926   1.494  1.0254  0.4180  0.7073
    4CHTO   C12 1678   7.407   7.957   1.769  0.0821  0.0780  0.3133
    4CHTO   H25 1679   7.510   7.946   1.809  0.3468  0.0586 -0.3674
    4CHTO    N3 1680   7.408   8.102   1.737  0.1868 -0.0178  0.2397
    4CHTO   H12 1681   7.416   8.149   1.834  0.6862 -2.0003  1.1900
    4CHTO   H13 1682   7.497   8.120   1.679  0.9617  0.6367  1.5989
    4CHTO   C15 1683   7.304   7.929   1.878 -0.5389  0.0963 -0.6534
    4CHTO   H28 1684   7.205   7.961   1.848 -1.9870 -0.6399  3.1149
    4CHTO   O10 1685   7.322   8.010   2.027  0.1857 -0.1751 -0.1539
    4CHTO    H4 1686   7.312   8.100   2.005 -0.2274 -0.1349  0.2009
    4CHTO    O5 1687   7.310   7.790   1.918  0.0075 -0.0445 -0.0418
    4CHTO   C10 1688   7.285   7.691   1.816  0.5104  0.1195 -0.0627
    4CHTO   H23 1689   7.180   7.693   1.784  0.8517 -2.6387 -1.4223
    4CHTO   C17 1690   7.287   7.550   1.888  0.4981 -0.0133  0.5922
    4CHTO   O12 1691   7.422   7.509   1.925  0.7366 -0.0969 -0.2179
    4CHTO    H6 1692   7.463   7.578   1.973  0.5868 -0.2732  0.1654
    5CHTO  H203 1693   8.247   3.384   0.531 -1.1812 -0.7459 -1.2108
    5CHTO   O82 1694   8.171   3.360   0.579 -0.9354  0.1453 -0.3664
    5CHTO  C123 1695   8.199   3.272   0.688 -0.7605  0.2416  0.1025
    5CHTO  H227 1696   8.298   3.228   0.675 -0.3669  1.0608  0.2873
    5CHTO   O77 1697   8.215   3.375   0.795 -0.6544  0.4418  0.5174
    5CHTO  C118 1698   8.242   3.326   0.923 -0.0050 -0.0199  0.0030
    5CHTO  H222 1699   8.334   3.267   0.913  0.7594  1.3367 -1.0784
    5CHTO  C125 1700   8.278   3.453   1.005  0.0119  0.5032 -0.1540
    5CHTO   O84 1701   8.162   3.535   1.021  0.6646 -0.4830 -0.4291
    5CHTO  H205 1702   8.187   3.595   1.090  0.1148 -1.5052  0.6787
    5CHTO  C114 1703   8.120   3.247   0.971 -0.0486  0.7707 -0.2592
    5CHTO  H218 1704   8.030   3.307   0.955 -0.0360  1.2755  1.4606
    5CHTO  C116 1705   8.095   3.125   0.871 -1.0090 -0.0209  0.1302
    5CHTO  H220 1706   8.185   3.059   0.868  1.4170  3.2097 -1.7648
    5CHTO   O79 1707   7.991   3.039   0.916  0.1289  0.5120  0.1004
    5CHTO  H201 1708   7.989   3.028   1.009 -1.0044  0.1487  0.0442
    5CHTO  C120 1709   8.075   3.173   0.723  0.4296  0.1661  0.2031
    5CHTO  H224 1710   7.985   3.237   0.730  0.0914 -0.4963  2.6104
    5CHTO   N21 1711   8.066   3.072   0.618  0.1506 -0.4705 -0.2722
    5CHTO  H211 1712   7.996   3.090   0.538 -2.7534  0.1469  2.3204
    5CHTO  H212 1713   8.165   3.048   0.583  1.2057  1.2197  1.4395
    5CHTO   O75 1714   8.150   3.210   1.110  0.1308  0.4959 -0.0141
    5CHTO  C112 1715   8.025   3.210   1.207  0.1812 -0.7685 -0.3414
    5CHTO  H216 1716   7.938   3.184   1.145  0.4656  0.7473 -1.4117
    5CHTO   O73 1717   8.005   3.344   1.257  0.1984 -0.3888  0.3842
    5CHTO  C113 1718   7.896   3.367   1.339  0.2471 -0.1470 -0.6763
    5CHTO  H217 1719   7.803   3.363   1.279 -0.5577 -0.3259  0.5716
    5CHTO  C124 1720   7.897   3.502   1.403  0.0996 -0.1666 -0.1727
    5CHTO   O83 1721   7.895   3.618   1.316 -0.1174 -0.4909 -0.2341
    5CHTO  H204 1722   7.829   3.607   1.250 -0.5520 -1.1537  0.3008
    5CHTO  C109 1723   7.883   3.264   1.460  0.1515  0.7463  0.9635
    5CHTO  H213 1724   7.964   3.290   1.530  1.1952  1.8237 -0.6078
    5CHTO  C110 1725   7.901   3.112   1.413 -0.3080 -0.5289 -0.5241
    5CHTO  H214 1726   7.811   3.095   1.355  0.4740  1.5699 -2.4373
    5CHTO   O78 1727   7.899   3.035   1.529 -0.4690 -0.3844 -0.5438
    5CHTO  H200 1728   7.890   2.944   1.508 -2.0181 -0.4503  0.3582
    5CHTO  C111 1729   8.032   3.099   1.328  0.1546 -0.2487  0.4982
    5CHTO  H215 1730   8.120   3.126   1.389  0.4779 -0.5704  0.1771
    5CHTO   N19 1731   8.063   2.966   1.271  0.4731  0.2175  0.2636
    5CHTO  H207 1732   8.169   2.946   1.263  0.4672  0.6618 -1.0897
    5CHTO  H208 1733   7.994   2.894   1.312 -0.7810  1.1424 -0.1689
    5CHTO   O74 1734   7.756   3.288   1.524  0.1362  0.1736 -0.6091
    5CHTO  C115 1735   7.760   3.287   1.688  0.5009 -0.1925  0.5434
    5CHTO  H219 1736   7.836   3.221   1.728  0.5236  0.3514  1.4114
    5CHTO   O76 1737   7.792   3.429   1.748  0.0279  0.1980  0.6133
    5CHTO  C122 1738   7.709   3.538   1.710 -0.5205 -0.0712 -0.2771
    5CHTO  H226 1739   7.752   3.578   1.618  1.4843 -0.8659  0.3133
    5CHTO  C126 1740   7.732   3.659   1.818 -0.1068 -0.4679 -0.4031
    5CHTO   O85 1741   7.866   3.706   1.819  0.2452 -0.7667  0.2068
    5CHTO  H206 1742   7.878   3.799   1.823  1.8626 -1.0185  2.3279
    5CHTO  C121 1743   7.555   3.506   1.692 -0.5015 -0.1726  0.3421
    5CHTO  H225 1744   7.492   3.582   1.741 -1.3646 -0.3376 -0.4952
    5CHTO   O81 1745   7.531   3.491   1.552  0.1208 -0.4550 -0.3714
    5CHTO  H202 1746   7.540   3.577   1.516 -2.7459  0.2222  0.3837
    5CHTO  C119 1747   7.532   3.372   1.774  0.1789  0.4742  0.1632
    5CHTO  H223 1748   7.559   3.409   1.873  3.9094 -0.7976 -0.3024
    5CHTO  C117 1749   7.616   3.243   1.731 -0.0891  0.2015 -0.6058
    5CHTO  H221 1750   7.582   3.177   1.652  0.5851 -1.0490  0.1397
    5CHTO   N20 1751   7.631   3.151   1.847 -0.1864  0.2814  0.2527
    5CHTO  H209 1752   7.619   3.045   1.834  1.5058 -0.0124  0.9690
    5CHTO  H210 1753   7.569   3.191   1.926 -0.0056 -1.2305  1.1835
    5CHTO   O80 1754   7.380   3.345   1.790 -0.3342  0.1321  0.1244
    5CHTO  C103 1755   7.278   3.343   1.647  0.1340  0.0508  0.3106
    5CHTO  H190 1756   7.291   3.432   1.585  1.4065  0.0991  0.6184
    5CHTO  C101 1757   7.285   3.218   1.566 -0.2949 -0.2280 -0.3573
    5CHTO  H188 1758   7.297   3.132   1.632  0.8469 -0.3409 -0.6901
    5CHTO   O68 1759   7.415   3.221   1.468 -0.4442 -0.0914  0.2275
    5CHTO  H168 1760   7.464   3.141   1.463 -0.1300  0.0549  0.9439
    5CHTO   C99 1761   7.149   3.196   1.478 -0.4888  0.7692 -0.0057
    5CHTO  H186 1762   7.156   3.267   1.394  1.4089 -0.5322 -0.9989
    5CHTO   N17 1763   7.152   3.066   1.395 -0.0643  0.1643 -0.4793
    5CHTO  H174 1764   7.070   3.064   1.324 -0.3843  0.1912 -0.1158
    5CHTO  H175 1765   7.162   2.972   1.448 -0.2274 -1.0665 -2.5838
    5CHTO   C97 1766   7.021   3.222   1.555  0.4910  0.0658 -0.6516
    5CHTO  H184 1767   7.005   3.137   1.623  2.8079 -1.1765 -1.6003
    5CHTO   O64 1768   7.027   3.347   1.624  0.2050  0.0762 -0.5161
    5CHTO  C104 1769   7.138   3.349   1.714 -0.0574 -0.2503 -0.1595
    5CHTO  H191 1770   7.133   3.266   1.785  2.3317 -0.5072 -0.2446
    5CHTO  C108 1771   7.142   3.479   1.802  0.0046  0.7072  0.5966
    5CHTO   O71 1772   7.122   3.600   1.733 -0.6165 -0.1992  0.0737
    5CHTO  H171 1773   7.171   3.598   1.653  0.3079 -0.5907  0.6483
    5CHTO   O62 1774   6.906   3.236   1.466 -0.3988 -0.1196 -0.8251
    5CHTO   C91 1775   6.766   3.241   1.506  0.2180  0.8148  0.3200
    5CHTO  H178 1776   6.768   3.263   1.613 -0.1804 -1.1077  0.7443
    5CHTO   C92 1777   6.697   3.100   1.486  0.5222 -0.1092  0.3895
    5CHTO  H179 1778   6.707   3.086   1.377  0.9948 -1.5061  0.6060
    5CHTO   O66 1779   6.769   2.995   1.561 -0.0603  0.1394  0.2134
    5CHTO  H166 1780   6.815   2.940   1.501 -1.6319  0.1741 -1.0797
    5CHTO   C93 1781   6.544   3.098   1.526  0.8413 -0.0956  0.3615
    5CHTO  H180 1782   6.538   3.110   1.635 -0.5038 -0.2841  0.3101
    5CHTO   N16 1783   6.471   2.967   1.508 -0.1937  0.4364  0.3081
    5CHTO  H172 1784   6.422   2.942   1.415 -1.8249  4.6619 -0.0793
    5CHTO  H173 1785   6.410   2.945   1.594 -2.0875  0.9219 -0.8917
    5CHTO   C94 1786   6.467   3.223   1.459  0.4503  0.3591  0.0021
    5CHTO  H181 1787   6.455   3.210   1.351  0.5462 -0.0342  0.0357
    5CHTO   O61 1788   6.533   3.344   1.485 -0.1209  0.1151 -0.3323
    5CHTO   C95 1789   6.668   3.346   1.439  0.3660  0.8140 -0.6750
    5CHTO  H182 1790   6.677   3.324   1.332  0.3801  1.5838 -0.8376
    5CHTO  C106 1791   6.721   3.490   1.452  0.1608  0.2308 -0.0001
    5CHTO   O69 1792   6.717   3.546   1.583 -0.1564 -0.0191 -0.2140
    5CHTO  H169 1793   6.799   3.576   1.617 -1.4977  0.7481  2.4793
    5CHTO   O63 1794   6.289   3.236   1.540 -0.0982  0.4013 -0.1452
    5CHTO   C96 1795   6.178   3.208   1.448  0.3323 -0.4288 -0.3047
    5CHTO  H183 1796   6.223   3.154   1.364 -1.4758  0.0069 -1.5756
    5CHTO   C98 1797   6.105   3.343   1.409 -0.6376 -0.0330  0.1257
    5CHTO  H185 1798   6.058   3.387   1.498 -0.8042  1.5664 -0.7453
    5CHTO   O67 1799   6.197   3.443   1.360 -0.0212 -0.0272 -0.2983
    5CHTO  H167 1800   6.266   3.398   1.316  1.3760  1.3807  0.3797
    5CHTO  C102 1801   5.990   3.315   1.294 -0.0460  0.0600  0.0626
    5CHTO  H189 1802   6.042   3.287   1.201 -1.8611 -4.1086  0.1840
    5CHTO   N18 1803   5.904   3.427   1.256 -0.0188 -0.1651 -0.0989
    5CHTO  H176 1804   5.877   3.417   1.152 -1.1224  2.2729 -0.0847
    5CHTO  H177 1805   5.944   3.527   1.258  1.2921 -0.5283 -3.7676
    5CHTO  C105 1806   5.904   3.191   1.334 -0.1821 -0.2928  0.3065
    5CHTO  H192 1807   5.832   3.224   1.409  0.8957 -2.7977  2.5294
    5CHTO   O65 1808   5.984   3.082   1.397  0.5318  0.9216  0.0003
    5CHTO  C100 1809   6.071   3.107   1.511 -0.8243 -0.6133 -0.4224
    5CHTO  H187 1810   6.016   3.167   1.585  0.1883  1.0015 -0.9396
    5CHTO  C107 1811   6.127   2.975   1.562 -0.3845  0.0879  0.1147
    5CHTO   O70 1812   6.039   2.872   1.603 -0.3044  0.0020  0.4802
    5CHTO  H170 1813   6.079   2.787   1.599  0.0294  0.2246 -1.9127
    5CHTO   O57 1814   5.839   3.134   1.189 -0.1248 -0.6628  0.3071
    5CHTO   C85 1815   5.715   3.059   1.182  0.3464  0.7475  0.7208
    5CHTO  H157 1816   5.635   3.119   1.230  0.8004  0.1959  2.2046
    5CHTO   C83 1817   5.732   2.935   1.273 -0.3630  0.6942  0.5094
    5CHTO  H155 1818   5.726   2.958   1.379  0.1027 -0.3341  0.7530
    5CHTO   O56 1819   5.858   2.866   1.250  0.5720 -0.2500 -0.3377
    5CHTO  H135 1820   5.927   2.927   1.266  0.5619 -0.6916  1.5001
    5CHTO   C81 1821   5.604   2.849   1.238 -0.1070 -0.0343 -0.0206
    5CHTO  H153 1822   5.521   2.918   1.249  1.3409  1.9310 -1.2353
    5CHTO   N14 1823   5.586   2.739   1.338  0.3088  0.5093  0.4469
    5CHTO  H141 1824   5.588   2.770   1.440 -1.9513  1.2387  0.2798
    5CHTO  H142 1825   5.502   2.676   1.319  0.3194  0.3512  0.9231
    5CHTO   C79 1826   5.606   2.797   1.092  0.2245  0.1941  0.1904
    5CHTO  H151 1827   5.514   2.742   1.075  0.4261  0.7850 -3.0426
    5CHTO   O52 1828   5.587   2.915   1.014  0.2557 -0.3265  0.5585
    5CHTO   C86 1829   5.685   3.022   1.033  0.7861 -0.2069 -0.5771
    5CHTO  H158 1830   5.776   2.981   0.984  0.1724 -0.1229 -1.8054
    5CHTO   C90 1831   5.640   3.147   0.963 -0.2593 -0.0898 -0.2289
    5CHTO   O60 1832   5.644   3.131   0.822 -0.2744 -0.0906 -0.6149
    5CHTO  H138 1833   5.641   3.213   0.775 -0.3197  0.4848  0.3643
    5CHTO   O50 1834   5.722   2.725   1.043  0.1234 -0.0662 -0.1876
    5CHTO   C73 1835   5.717   2.647   0.924 -0.1080 -0.6593 -0.1395
    5CHTO  H145 1836   5.646   2.685   0.849 -1.1421 -1.3296  0.4834
    5CHTO   C74 1837   5.684   2.494   0.959  0.3784 -0.6441  0.1889
    5CHTO  H146 1838   5.584   2.494   1.004 -0.1068  0.2904 -0.8486
    5CHTO   O54 1839   5.682   2.422   0.836 -0.0651 -0.2787 -0.1387
    5CHTO  H133 1840   5.611   2.361   0.828  0.9663 -1.3363 -1.4567
    5CHTO   C75 1841   5.795   2.440   1.060 -0.7883  0.1626  0.1436
    5CHTO  H147 1842   5.788   2.503   1.150 -3.0594  0.6848 -0.3725
    5CHTO   N13 1843   5.762   2.305   1.117 -0.5846 -0.0502 -0.0811
    5CHTO  H139 1844   5.688   2.286   1.194  0.2465  0.0562  0.7557
    5CHTO  H140 1845   5.751   2.240   1.032  0.8777  0.6201 -0.7930
    5CHTO   C76 1846   5.943   2.462   1.005 -0.7735  0.5142  0.4166
    5CHTO  H148 1847   5.948   2.409   0.910 -0.0212 -0.0788  0.7806
    5CHTO   O49 1848   5.962   2.601   0.960  0.1744 -0.1775  0.0793
    5CHTO   C77 1849   5.864   2.648   0.863 -0.7886  0.0338 -0.6121
    5CHTO  H149 1850   5.862   2.596   0.768 -1.7725  0.2716 -0.7231
    5CHTO   C88 1851   5.898   2.791   0.822 -0.0227  0.5480  0.5315
    5CHTO   O58 1852   5.806   2.841   0.739 -0.1666  0.3071 -0.0888
    5CHTO  H136 1853   5.734   2.852   0.798 -0.2289  2.5440 -0.5160
    5CHTO   O51 1854   6.054   2.417   1.122 -0.2017 -0.4170 -0.0722
    5CHTO   C78 1855   6.190   2.440   1.088 -0.0223 -0.1171 -0.6874
    5CHTO  H150 1856   6.194   2.487   0.987 -1.4036 -0.3886 -0.8754
    5CHTO   C80 1857   6.278   2.308   1.081 -0.0106 -0.3536  0.9962
    5CHTO  H152 1858   6.263   2.254   1.176 -1.0650 -2.1358 -0.1421
    5CHTO   O55 1859   6.228   2.224   0.980 -0.1823 -0.7198 -0.2768
    5CHTO  H134 1860   6.291   2.168   0.939 -2.0068 -0.5501 -3.4687
    5CHTO   C84 1861   6.429   2.340   1.063 -0.0152  0.1166 -0.3413
    5CHTO  H156 1862   6.432   2.372   0.958  0.1653  0.2219 -0.3042
    5CHTO   N15 1863   6.514   2.224   1.083  0.0432 -0.2922  0.1086
    5CHTO  H143 1864   6.618   2.245   1.079  0.0812 -0.3211  0.9127
    5CHTO  H144 1865   6.483   2.141   1.022 -2.4098 -0.5852  1.6530
    5CHTO   C87 1866   6.474   2.447   1.167 -0.1253  0.3147 -0.0232
    5CHTO  H159 1867   6.468   2.418   1.272 -0.4603  1.1404  0.1874
    5CHTO   O53 1868   6.391   2.571   1.153  0.3322  0.7141 -0.0649
    5CHTO   C82 1869   6.253   2.540   1.194  0.4953  0.1240 -0.5031
    5CHTO  H154 1870   6.262   2.505   1.297  0.4397 -1.6080 -1.0717
    5CHTO   C89 1871   6.176   2.668   1.206  0.2925 -0.1192  0.6143
    5CHTO   O59 1872   6.234   2.766   1.297 -0.0778  0.7324  0.0961
    5CHTO  H137 1873   6.304   2.729   1.348 -0.9593  0.1555  0.9086
    5CHTO   O45 1874   6.632   2.504   1.117  0.0260 -0.0316 -0.1051
    5CHTO   C67 1875   6.709   2.541   1.228  0.1602  1.2406 -0.1432
    5CHTO  H124 1876   6.637   2.557   1.309 -1.1406 -1.5212 -0.6928
    5CHTO   C65 1877   6.809   2.419   1.276  0.1706 -0.1366  0.3451
    5CHTO  H122 1878   6.821   2.348   1.194  0.1915 -0.0216  0.2483
    5CHTO   O44 1879   6.737   2.347   1.378  0.4230 -0.0057 -0.1647
    5CHTO  H102 1880   6.790   2.288   1.427  0.1137 -0.1251  0.0305
    5CHTO   C63 1881   6.956   2.466   1.302  0.6031 -0.0612 -0.0683
    5CHTO  H120 1882   7.008   2.493   1.210  1.5107  1.6871  0.9207
    5CHTO   N11 1883   7.047   2.359   1.346  0.5176 -0.0040 -0.3463
    5CHTO  H108 1884   7.043   2.359   1.453  1.7765  4.8642 -0.1951
    5CHTO  H109 1885   7.026   2.268   1.294 -2.1236  0.3061  0.1132
    5CHTO   C61 1886   6.952   2.601   1.387 -0.3011 -0.1234  0.2650
    5CHTO  H118 1887   7.053   2.644   1.388 -1.1663  1.9669 -0.3290
    5CHTO   O40 1888   6.866   2.697   1.334  0.2144 -0.6720  0.2392
    5CHTO   C68 1889   6.792   2.666   1.215 -0.1502  0.2912  0.6130
    5CHTO  H125 1890   6.853   2.652   1.123  1.3131 -0.1304  1.6324
    5CHTO   C72 1891   6.706   2.796   1.191  0.4020  0.1213 -0.1921
    5CHTO   O48 1892   6.795   2.906   1.185 -0.1272  0.2963 -0.3290
    5CHTO  H105 1893   6.874   2.897   1.233  0.8592 -1.7600 -2.2248
    5CHTO   O38 1894   6.904   2.563   1.521  0.1227  0.2728 -0.5232
    5CHTO   C55 1895   6.856   2.675   1.607  0.2149  0.5415 -0.2511
    5CHTO  H112 1896   6.789   2.745   1.554  2.0851  2.5153 -0.0522
    5CHTO   C56 1897   6.980   2.746   1.666 -0.3026 -0.3263  0.1073
    5CHTO  H113 1898   7.041   2.660   1.697  0.3110 -0.8631 -2.4806
    5CHTO   O42 1899   7.053   2.809   1.563 -0.3220 -0.1975  0.5674
    5CHTO  H100 1900   7.008   2.867   1.504  0.2832 -1.6898 -1.4051
    5CHTO   C57 1901   6.950   2.832   1.792  0.1423 -0.4123 -0.2867
    5CHTO  H114 1902   6.903   2.922   1.752 -0.1902 -0.5912 -0.2979
    5CHTO   N10 1903   7.068   2.869   1.868  0.5190 -0.0271 -0.2350
    5CHTO  H106 1904   7.044   2.894   1.971  0.0475  0.5938 -0.4896
    5CHTO  H107 1905   7.144   2.793   1.870  0.9734  0.4401  2.3109
    5CHTO   C58 1906   6.846   2.759   1.886 -0.1378 -0.1480  0.4464
    5CHTO  H115 1907   6.900   2.682   1.945  0.3789  0.0253  0.2095
    5CHTO   O37 1908   6.738   2.701   1.822 -0.1733  0.1452  0.3233
    5CHTO   C59 1909   6.767   2.613   1.712 -0.4909 -0.2135 -0.2691
    5CHTO  H116 1910   6.820   2.522   1.741 -1.0655 -0.5128 -0.1345
    5CHTO   C70 1911   6.630   2.565   1.647  0.3107 -0.0084 -0.7587
    5CHTO   O46 1912   6.541   2.664   1.597 -0.0360  0.3199 -0.2424
    5CHTO  H103 1913   6.571   2.695   1.513 -1.8404 -1.0997 -1.4173
    5CHTO   O39 1914   6.771   2.875   1.989 -0.4968  0.2314 -0.4626
    5CHTO   C60 1915   6.668   2.950   1.925  0.3156 -0.7870 -0.1226
    5CHTO  H117 1916   6.681   2.937   1.817  1.3694 -0.7596 -0.0087
    5CHTO   C62 1917   6.520   2.911   1.982 -0.4213  0.0683 -0.0256
    5CHTO  H119 1918   6.492   2.808   1.953 -0.3846 -0.2801  1.1765
    5CHTO   O43 1919   6.523   2.924   2.125  0.2153  0.9035 -0.2755
    5CHTO  H101 1920   6.446   2.893   2.167  0.0883 -2.3445 -2.7572
    5CHTO   C66 1921   6.416   3.010   1.922  0.0806 -0.3188 -0.3915
    5CHTO  H123 1922   6.413   2.988   1.815 -2.0277 -1.7434 -0.0733
    5CHTO   N12 1923   6.285   2.981   1.984 -0.2766  0.4001 -0.0052
    5CHTO  H110 1924   6.290   2.950   2.087 -0.4906  1.4974  0.3477
    5CHTO  H111 1925   6.224   3.070   1.975 -1.3167 -0.4269 -1.3337
    5CHTO   C69 1926   6.459   3.157   1.948  0.0547 -0.3010  0.3575
    5CHTO  H126 1927   6.456   3.188   2.055  1.1232 -0.2403  0.3774
    5CHTO   O41 1928   6.597   3.182   1.888 -0.3797 -0.5758  0.3955
    5CHTO   C64 1929   6.701   3.107   1.947 -0.1465 -0.4288 -0.3659
    5CHTO  H121 1930   6.701   3.127   2.056 -1.6306 -1.5405 -0.1543
    5CHTO   C71 1931   6.837   3.157   1.888 -0.2311 -0.5854  0.2499
    5CHTO   O47 1932   6.865   3.294   1.916 -0.2687  0.1031  0.1272
    5CHTO  H104 1933   6.885   3.302   2.008 -1.3885  1.6021  0.2559
    5CHTO   O34 1934   6.359   3.254   1.874 -0.2436 -0.1139  0.0492
    5CHTO   C49 1935   6.304   3.401   1.875 -0.0819 -0.2090 -0.0528
    5CHTO   H91 1936   6.334   3.446   1.780  0.1950 -2.4201 -1.0628
    5CHTO   C47 1937   6.371   3.470   1.996  1.0757  0.2900  0.3513
    5CHTO   H89 1938   6.346   3.576   1.975  1.4398  0.2387 -0.3553
    5CHTO   O33 1939   6.517   3.457   1.986  0.0539 -0.3682 -0.0988
    5CHTO   H70 1940   6.556   3.375   1.961  0.2892 -0.6380  1.1294
    5CHTO   C45 1941   6.312   3.421   2.136 -0.1459  0.1412 -0.6519
    5CHTO   H87 1942   6.323   3.312   2.142  1.3180  0.2490 -1.2195
    5CHTO    N8 1943   6.368   3.484   2.256 -0.3979 -0.1990  0.2523
    5CHTO   H75 1944   6.475   3.476   2.249 -0.5151 -0.3333 -1.7398
    5CHTO   H76 1945   6.335   3.441   2.349  3.1507 -0.2005  1.5669
    5CHTO   C43 1946   6.152   3.430   2.142  0.9617 -0.3430 -0.0926
    5CHTO   H85 1947   6.132   3.369   2.231 -1.4801  0.7101  0.1260
    5CHTO   O29 1948   6.095   3.370   2.026 -0.4595 -0.3726  0.5078
    5CHTO   C50 1949   6.152   3.406   1.894  0.1573 -0.1386  0.0835
    5CHTO   H92 1950   6.105   3.321   1.843 -1.1037 -1.7527  3.7583
    5CHTO   C54 1951   6.087   3.535   1.827  0.1069  0.3139  0.5683
    5CHTO   O36 1952   6.145   3.572   1.700  0.4838  0.2595 -0.2410
    5CHTO   H72 1953   6.150   3.497   1.644  1.5253  0.7105 -0.7549
    5CHTO   O27 1954   6.101   3.565   2.158  0.3522  0.5878 -0.0574
    5CHTO   C37 1955   5.998   3.658   2.199  0.2585 -0.1292 -0.0836
    5CHTO   H79 1956   6.003   3.740   2.126  2.5703  0.0402  0.2398
    5CHTO   C38 1957   5.856   3.595   2.201 -0.1336 -0.2494 -0.3027
    5CHTO   H80 1958   5.862   3.494   2.246 -0.3036 -0.5155 -0.8679
    5CHTO   O31 1959   5.797   3.575   2.073 -0.2105 -0.2059 -0.2294
    5CHTO   H68 1960   5.817   3.488   2.045 -1.8987 -1.2273  1.6403
    5CHTO   C39 1961   5.751   3.686   2.282 -0.6084 -0.2456  0.3600
    5CHTO   H81 1962   5.731   3.770   2.215 -0.6388  0.0833  0.7796
    5CHTO    N7 1963   5.620   3.614   2.315 -0.2142 -0.0095  0.0833
    5CHTO   H73 1964   5.552   3.625   2.232 -0.7785 -1.6983  0.3087
    5CHTO   H74 1965   5.635   3.508   2.331 -0.0938  0.1079  0.7853
    5CHTO   C40 1966   5.812   3.757   2.407 -0.0903  0.4572 -0.5155
    5CHTO   H82 1967   5.807   3.698   2.498  0.2037  0.7090 -0.3327
    5CHTO   O26 1968   5.943   3.808   2.392 -0.2881  0.1985 -0.0313
    5CHTO   C41 1969   6.038   3.717   2.343  0.0266  0.1073 -1.0884
    5CHTO   H83 1970   6.058   3.636   2.414  1.3588 -0.9561 -2.6532
    5CHTO   C52 1971   6.171   3.808   2.336  0.0684 -0.2193 -0.7230
    5CHTO   O35 1972   6.220   3.859   2.466 -0.1273  0.7322 -0.0803
    5CHTO   H71 1973   6.214   3.795   2.534 -5.2437 -0.5508 -1.5233
    5CHTO   O28 1974   5.733   3.874   2.446 -0.7639 -0.1582  0.1675
    5CHTO   C42 1975   5.725   3.941   2.582  0.0965 -0.5076  0.1350
    5CHTO   H84 1976   5.660   4.025   2.559  0.1437 -0.5862 -0.2893
    5CHTO   C44 1977   5.858   4.000   2.643 -0.8384 -0.3832 -0.0597
    5CHTO   H86 1978   5.930   4.009   2.563 -1.4293  0.4022 -0.5073
    5CHTO   O32 1979   5.816   4.131   2.685  0.1576 -0.0195  0.1818
    5CHTO   H69 1980   5.785   4.183   2.614 -0.6069  0.4614  0.8512
    5CHTO   C48 1981   5.934   3.921   2.756  0.0795 -1.0391 -0.1214
    5CHTO   H90 1982   5.908   3.964   2.853  1.7955  0.2435 -0.2064
    5CHTO    N9 1983   6.083   3.954   2.766 -0.8703  0.1767 -0.0325
    5CHTO   H77 1984   6.133   3.884   2.831 -1.3528 -0.0154  0.1326
    5CHTO   H78 1985   6.096   4.051   2.811 -1.3934 -0.3212  1.2008
    5CHTO   C51 1986   5.896   3.777   2.747 -0.1287  0.3134 -0.0246
    5CHTO   H93 1987   5.925   3.739   2.649 -1.8298  2.0440 -1.2366
    5CHTO   O30 1988   5.754   3.760   2.774 -0.4314  0.1873  0.3914
    5CHTO   C46 1989   5.653   3.856   2.690  0.1698 -0.0623  0.3127
    5CHTO   H88 1990   5.582   3.795   2.634  2.2641 -0.2138 -2.2649
    5CHTO   C53 1991   5.570   3.940   2.793 -0.2764 -0.2025  0.8519
    5CHTO   O72 1992   5.472   4.024   2.729 -0.4888 -0.1980 -0.0087
    5CHTO  H199 1993   5.393   3.972   2.724 -0.2902 -0.7576  2.2604
    5CHTO   O22 1994   5.958   3.686   2.840  0.2013 -0.4838 -0.0671
    5CHTO   C31 1995   5.977   3.545   2.804 -0.4689 -0.1448  0.5751
    5CHTO   H59 1996   6.016   3.498   2.897  0.3590 -0.3426  0.1351
    5CHTO   C29 1997   5.847   3.475   2.769  0.0901 -0.1421 -0.5637
    5CHTO   H57 1998   5.799   3.533   2.688  0.7176  1.1056 -0.0525
    5CHTO   O21 1999   5.755   3.494   2.878 -0.2402  0.0141 -0.2922
    5CHTO   H37 2000   5.688   3.553   2.847 -0.5844  0.6306  1.5840
    5CHTO   C27 2001   5.868   3.322   2.724  0.6152 -0.0652 -0.7250
    5CHTO   H55 2002   5.908   3.263   2.808 -0.4462  0.1991 -0.0220
    5CHTO    N5 2003   5.741   3.255   2.673 -0.3721  0.2230  0.4787
    5CHTO   H43 2004   5.685   3.211   2.753 -1.1277  1.9534  0.9163
    5CHTO   H44 2005   5.782   3.176   2.611 -0.2046  0.1534  0.6761
    5CHTO   C25 2006   5.982   3.324   2.611 -0.7178  0.8829 -0.1708
    5CHTO   H53 2007   5.926   3.382   2.536  1.2600 -0.5864 -2.9111
    5CHTO   O17 2008   6.109   3.391   2.640 -0.4789  0.1602 -0.4470
    5CHTO   C32 2009   6.088   3.529   2.690  0.3769  0.1719 -0.7861
    5CHTO   H60 2010   6.063   3.590   2.603 -0.5679 -1.5477 -1.7684
    5CHTO   C36 2011   6.220   3.577   2.747  0.5656  0.3244  0.3462
    5CHTO   O25 2012   6.284   3.651   2.647  0.3914  0.0755 -0.0649
    5CHTO   H40 2013   6.370   3.673   2.674  1.1157 -1.6353 -0.8833
    5CHTO   O15 2014   6.005   3.173   2.559 -0.5780 -0.0171  0.2577
    5CHTO   C19 2015   6.098   3.066   2.609 -0.2034  0.5257 -0.1791
    5CHTO   H47 2016   6.157   3.105   2.694  2.6354  0.0983 -1.8630
    5CHTO   C20 2017   6.020   2.941   2.658 -0.1078  0.0151 -0.4166
    5CHTO   H48 2018   5.957   2.900   2.577  0.7408 -0.0121 -1.0645
    5CHTO   O19 2019   5.924   2.970   2.755 -0.1452 -0.1112 -0.3368
    5CHTO   H35 2020   5.884   3.054   2.744 -1.5934 -0.7131  0.3382
    5CHTO   C21 2021   6.118   2.828   2.711 -0.1005  0.3453 -0.0898
    5CHTO   H49 2022   6.164   2.860   2.804  0.4489 -0.6784 -0.0015
    5CHTO    N4 2023   6.054   2.696   2.744 -0.2900  0.1515  0.1197
    5CHTO   H41 2024   5.971   2.717   2.810  0.8468  0.4815  1.4600
    5CHTO   H42 2025   6.123   2.630   2.795 -1.7993 -1.6615 -0.1014
    5CHTO   C22 2026   6.236   2.807   2.609 -0.2149 -0.3136 -0.2720
    5CHTO   H50 2027   6.204   2.755   2.518  1.2117 -0.2039 -0.8613
    5CHTO   O14 2028   6.289   2.937   2.572  0.1716 -0.1789  0.0961
    5CHTO   C23 2029   6.207   3.030   2.493  0.1788  0.1870  0.1569
    5CHTO   H51 2030   6.158   2.981   2.408 -1.7460 -1.0334  1.9296
    5CHTO   C34 2031   6.279   3.153   2.458  0.3982  0.5813  0.1663
    5CHTO   O23 2032   6.387   3.137   2.366 -0.1321  0.4662  0.2285
    5CHTO   H38 2033   6.345   3.111   2.286 -2.4776  1.0892  1.2183
    5CHTO   O16 2034   6.353   2.741   2.668 -0.3185 -0.4706 -0.1029
    5CHTO   C24 2035   6.426   2.630   2.581  0.4587  0.3822 -0.3500
    5CHTO   H52 2036   6.363   2.591   2.501 -0.1927  1.3076 -0.2885
    5CHTO   C26 2037   6.467   2.515   2.667 -0.6224  0.0387  0.6356
    5CHTO   H54 2038   6.531   2.547   2.751 -0.1503 -0.3360  0.4186
    5CHTO   O20 2039   6.350   2.455   2.729  0.0700 -0.3326 -0.1075
    5CHTO   H36 2040   6.297   2.515   2.778  0.6984  1.9970 -2.1601
    5CHTO   C30 2041   6.554   2.414   2.592  0.4084 -0.5440  0.1202
    5CHTO   H58 2042   6.497   2.360   2.515  0.7233 -2.8465  1.4451
    5CHTO    N6 2043   6.601   2.301   2.675 -0.0883  0.0303  0.1640
    5CHTO   H45 2044   6.513   2.260   2.721 -1.2775  0.8473 -1.3023
    5CHTO   H46 2045   6.655   2.221   2.625  1.3324 -0.3605  2.2626
    5CHTO   C33 2046   6.672   2.492   2.522 -0.0043  0.2615  0.0749
    5CHTO   H61 2047   6.733   2.542   2.599  2.5643 -1.4059 -0.8123
    5CHTO   O18 2048   6.614   2.596   2.438 -0.0284  0.1731 -0.2633
    5CHTO   C28 2049   6.544   2.699   2.513 -0.1239  0.1533  0.2293
    5CHTO   H56 2050   6.609   2.745   2.588  1.2224 -1.6080  0.1685
    5CHTO   C35 2051   6.500   2.803   2.409 -0.2486  0.4421 -0.4432
    5CHTO   O24 2052   6.402   2.758   2.316  0.0535 -0.3507  0.4498
    5CHTO   H39 2053   6.407   2.809   2.238 -1.5905 -3.9939 -2.1911
    5CHTO    O9 2054   6.763   2.410   2.447 -0.1151 -0.7674 -0.0610
    5CHTO   C13 2055   6.732   2.384   2.279 -0.2549 -0.2714 -0.4718
    5CHTO   H26 2056   6.625   2.394   2.252  0.0600  1.5697 -1.1056
    5CHTO   C11 2057   6.789   2.241   2.231  0.0396 -0.1357  0.5756
    5CHTO   H24 2058   6.717   2.175   2.282 -2.1982  0.8194 -1.2902
    5CHTO    O8 2059   6.925   2.217   2.283  0.5557 -0.3517  0.0659
    5CHTO    H3 2060   6.953   2.131   2.256 -1.3603 -1.0569  0.2047
    5CHTO    C9 2061   6.766   2.221   2.081 -0.6599  0.5191 -0.0068
    5CHTO   H22 2062   6.658   2.234   2.062 -0.3661  0.1087 -1.9754
    5CHTO    N2 2063   6.787   2.079   2.029  0.2340 -0.2924  0.9255
    5CHTO   H10 2064   6.742   2.079   1.931  1.2822 -0.6812  0.4360
    5CHTO   H11 2065   6.738   2.010   2.096 -2.1750 -0.5178 -1.0154
    5CHTO    C7 2066   6.846   2.334   2.003 -0.6749 -0.2470  0.4160
    5CHTO   H20 2067   6.820   2.320   1.897 -0.8844 -0.7953  0.5396
    5CHTO    O4 2068   6.819   2.471   2.045 -0.1582  0.4857 -0.0658
    5CHTO   C14 2069   6.798   2.497   2.187  0.2059  0.5248  1.1835
    5CHTO   H27 2070   6.719   2.573   2.174 -0.0247  0.0012 -0.6254
    5CHTO   C18 2071   6.920   2.568   2.258  0.6188  0.0458  0.2679
    5CHTO   O13 2072   6.955   2.697   2.201 -0.1420  0.1564 -0.4531
    5CHTO    H7 2073   6.892   2.766   2.205 -1.4383 -1.0947  1.5257
    5CHTO    O2 2074   7.014   2.312   2.010 -0.3280 -0.5724  0.0194
    5CHTO    C1 2075   7.093   2.343   1.899 -0.1292 -0.1309 -0.3367
    5CHTO   H14 2076   7.044   2.429   1.848  3.5599  1.3816 -1.4975
    5CHTO    C2 2077   7.120   2.236   1.797  0.3922 -0.9957  0.3068
    5CHTO   H15 2078   7.146   2.150   1.860 -0.8726 -1.1591  0.6192
    5CHTO    O6 2079   6.997   2.204   1.725 -0.1879  0.6475  0.1988
    5CHTO    H1 2080   6.940   2.155   1.781 -0.1980  0.4467  0.0136
    5CHTO    C3 2081   7.231   2.294   1.698  0.5313 -0.2547 -0.1429
    5CHTO   H16 2082   7.189   2.381   1.645  1.9185  1.0523  0.8478
    5CHTO    N1 2083   7.270   2.190   1.594 -0.2199 -0.4887  0.4248
    5CHTO    H8 2084   7.329   2.228   1.512 -2.0530 -0.7976 -1.0802
    5CHTO    H9 2085   7.177   2.155   1.552 -1.7670  3.1455  0.5715
    5CHTO    C4 2086   7.362   2.347   1.760  0.3497 -0.1699 -0.5011
    5CHTO   H17 2087   7.416   2.264   1.805 -0.4274  0.2733  1.2768
    5CHTO    O1 2088   7.325   2.449   1.851 -0.1706 -0.3166  0.5973
    5CHTO    C5 2089   7.232   2.403   1.955  0.1536  0.4772  0.1233
    5CHTO   H18 2090   7.269   2.324   2.020 -1.1116  0.7842  1.2494
    5CHTO   C16 2091   7.200   2.520   2.049 -0.5630  0.7972 -0.2173
    5CHTO   O11 2092   7.328   2.565   2.105  0.6532  0.2153  0.6615
    5CHTO    H5 2093   7.389   2.589   2.038 -0.3214  1.0790  0.0767
    5CHTO    O3 2094   7.450   2.414   1.664 -0.2936 -0.5692  0.0576
    5CHTO    C6 2095   7.590   2.440   1.698  0.0627  0.2878 -0.4508
    5CHTO   H19 2096   7.616   2.398   1.795 -2.5254  1.5347  0.8158
    5CHTO    C8 2097   7.673   2.367   1.593  0.4388 -0.2229 -0.0501
    5CHTO   H21 2098   7.640   2.401   1.495  1.2716 -0.0652 -0.2793
    5CHTO    O7 2099   7.643   2.225   1.606  0.0729 -0.1915  0.1282
    5CHTO    H2 2100   7.685   2.176   1.538  0.5485  1.7759 -1.0554
    5CHTO   C12 2101   7.826   2.385   1.615 -0.2652 -0.4030 -0.5941
    5CHTO   H25 2102   7.842   2.338   1.714  1.4970  0.4155 -0.4627
    5CHTO    N3 2103   7.911   2.329   1.499  0.3298  0.0348 -0.5319
    5CHTO   H12 2104   7.918   2.223   1.517 -0.7543  0.3068  1.6735
    5CHTO   H13 2105   8.015   2.354   1.508  0.7769 -1.6217 -0.9541
    5CHTO   C15 2106   7.852   2.540   1.625  0.0638 -0.1547 -0.3874
    5CHTO   H28 2107   7.835   2.582   1.526  1.8439  2.4088  0.3416
    5CHTO   O10 2108   8.005   2.590   1.671 -0.4367  0.1571  0.0951
    5CHTO    H4 2109   8.019   2.618   1.760  1.5173 -0.2767 -0.0489
    5CHTO    O5 2110   7.775   2.595   1.727  0.8320 -0.1499 -0.2071
    5CHTO   C10 2111   7.635   2.591   1.699  0.2535 -0.4131 -0.0440
    5CHTO   H23 2112   7.613   2.632   1.601  2.0013 -1.3964 -0.8638
    5CHTO   C17 2113   7.564   2.672   1.804 -0.5543 -0.4132  0.0877
    5CHTO   O12 2114   7.434   2.691   1.769  0.4932  0.6557  0.3071
    5CHTO    H6 2115   7.388   2.738   1.836  1.6314  0.1337  1.4719
    6CHTO  H203 2116   6.781   4.563   2.353 -2.2084  0.2743  0.5591
    6CHTO   O82 2117   6.815   4.641   2.312  0.6265 -0.8399  0.6596
    6CHTO  C123 2118   6.788   4.760   2.385 -0.6302  0.5232  0.9939
    6CHTO  H227 2119   6.858   4.836   2.347  0.7621 -1.7531 -1.2037
    6CHTO   O77 2120   6.655   4.793   2.359 -0.1923  0.1742 -0.1657
    6CHTO  C118 2121   6.620   4.924   2.414 -0.0804  0.1543  0.1926
    6CHTO  H222 2122   6.694   4.997   2.380  1.7110 -1.8104 -0.1888
    6CHTO  C125 2123   6.479   4.974   2.372 -0.1325 -0.2642 -0.1584
    6CHTO   O84 2124   6.476   4.994   2.233 -0.1582 -0.0283 -0.0787
    6CHTO  H205 2125   6.390   4.974   2.201  0.5445  0.0486 -2.0929
    6CHTO  C114 2126   6.624   4.911   2.569  0.0280  0.3321 -0.3190
    6CHTO  H218 2127   6.559   4.829   2.600  4.0046 -3.0522 -0.4908
    6CHTO  C116 2128   6.772   4.877   2.606 -0.5011  0.1844  0.2369
    6CHTO  H220 2129   6.848   4.956   2.589  0.5979 -0.3766  2.4226
    6CHTO   O79 2130   6.768   4.870   2.755 -0.3975 -0.0625 -0.0291
    6CHTO  H201 2131   6.846   4.829   2.787 -0.4860 -0.3677 -0.2016
    6CHTO  C120 2132   6.815   4.743   2.541 -0.4772 -0.1423  0.5560
    6CHTO  H224 2133   6.749   4.661   2.577 -2.4729  1.8117  1.4835
    6CHTO   N21 2134   6.958   4.710   2.573  0.3056 -0.3982  0.4404
    6CHTO  H211 2135   7.016   4.770   2.504  2.9428 -1.3855  1.7315
    6CHTO  H212 2136   6.970   4.603   2.560 -1.7240 -0.8583  2.1069
    6CHTO   O75 2137   6.602   5.048   2.610  0.1176 -0.1843 -0.0352
    6CHTO  C112 2138   6.501   5.075   2.736  0.0517  0.3693  0.7493
    6CHTO  H216 2139   6.552   5.036   2.825 -1.8033 -0.6636  1.3801
    6CHTO   O73 2140   6.384   4.999   2.712 -0.0036 -0.3363  0.0854
    6CHTO  C113 2141   6.268   5.013   2.800 -0.4486  0.6472 -0.4852
    6CHTO  H217 2142   6.312   4.987   2.899 -0.7699  0.3335 -0.4248
    6CHTO  C124 2143   6.157   4.913   2.761  0.1981 -0.0209 -0.2480
    6CHTO   O83 2144   6.137   4.905   2.617  0.2332 -0.0904  0.3399
    6CHTO  H204 2145   6.198   4.839   2.591 -1.4319 -1.2714 -0.7089
    6CHTO  C109 2146   6.214   5.161   2.787 -0.4701 -0.3568  0.0407
    6CHTO  H213 2147   6.191   5.169   2.679  0.0732 -0.2567 -0.0688
    6CHTO  C110 2148   6.333   5.253   2.825  0.2262  0.6810  0.3806
    6CHTO  H214 2149   6.356   5.241   2.931  2.7084 -0.3786 -0.2375
    6CHTO   O78 2150   6.296   5.392   2.811  0.1839 -0.0177  0.2186
    6CHTO  H200 2151   6.214   5.399   2.857 -0.0632 -0.7833 -0.1018
    6CHTO  C111 2152   6.462   5.225   2.740 -0.1220 -0.2823 -0.0666
    6CHTO  H215 2153   6.437   5.248   2.636  0.4139 -2.1988 -0.6416
    6CHTO   N19 2154   6.581   5.307   2.778 -0.4389  0.4259  0.0276
    6CHTO  H207 2155   6.543   5.398   2.823  0.5753  0.6271  0.4834
    6CHTO  H208 2156   6.642   5.250   2.846 -0.9075  1.2283  1.1369
    6CHTO   O74 2157   6.093   5.188   2.875 -0.0600 -0.3899 -0.1118
    6CHTO  C115 2158   6.113   5.199   3.053 -0.2482 -0.3141  0.5302
    6CHTO  H219 2159   6.217   5.220   3.081  0.0329  1.4646 -1.7807
    6CHTO   O76 2160   6.027   5.326   3.118  0.3210 -0.3482  0.2362
    6CHTO  C122 2161   5.891   5.314   3.063 -0.4903 -0.4940 -0.0459
    6CHTO  H226 2162   5.893   5.311   2.954  0.6732  0.5355 -0.0639
    6CHTO  C126 2163   5.821   5.446   3.107  0.4408 -0.6201 -0.7017
    6CHTO   O85 2164   5.693   5.461   3.043 -0.6529 -0.2967 -0.4094
    6CHTO  H206 2165   5.647   5.535   3.078 -0.8263 -0.2470 -0.7348
    6CHTO  C121 2166   5.824   5.188   3.123  0.7819 -0.1838 -0.0702
    6CHTO  H225 2167   5.747   5.225   3.194  1.3137  1.8927 -0.5329
    6CHTO   O81 2168   5.753   5.125   3.011  0.4362 -0.0829 -0.3991
    6CHTO  H202 2169   5.695   5.061   3.050  1.9455 -0.5464  1.1468
    6CHTO  C119 2170   5.919   5.088   3.192 -0.0985  0.2834 -0.4933
    6CHTO  H223 2171   5.946   5.143   3.282  2.4422  0.7755 -1.5018
    6CHTO  C117 2172   6.061   5.064   3.120 -0.5306  0.7313 -0.6727
    6CHTO  H221 2173   6.048   4.988   3.044 -1.0870 -0.5102  0.6527
    6CHTO   N20 2174   6.168   5.012   3.213  0.2188  0.2528  0.3150
    6CHTO  H209 2175   6.252   4.969   3.161  0.4795  1.4664 -0.2892
    6CHTO  H210 2176   6.202   5.077   3.292 -0.3865 -0.0612  0.8407
    6CHTO   O80 2177   5.845   4.966   3.258  0.5080 -0.4689 -0.1842
    6CHTO  C103 2178   5.757   4.976   3.393  0.6304  0.3061 -0.6913
    6CHTO  H190 2179   5.809   4.927   3.475  0.2738 -0.7652 -1.0917
    6CHTO  C101 2180   5.695   5.112   3.437  0.4850  0.2157  1.0383
    6CHTO  H188 2181   5.634   5.151   3.355  0.0531 -1.1702  0.6956
    6CHTO   O68 2182   5.820   5.220   3.461 -0.1573 -0.4266  0.4588
    6CHTO  H168 2183   5.794   5.305   3.431 -0.6741 -1.2534 -1.5036
    6CHTO   C99 2184   5.599   5.093   3.557 -0.5109  0.1567 -0.3309
    6CHTO  H186 2185   5.659   5.059   3.645 -3.1310 -1.3981  0.9092
    6CHTO   N17 2186   5.532   5.225   3.595  0.6581 -0.3873 -0.3429
    6CHTO  H174 2187   5.458   5.254   3.521 -0.5364  0.9748  1.3354
    6CHTO  H175 2188   5.492   5.219   3.695  1.3604 -1.1751 -0.1055
    6CHTO   C97 2189   5.485   4.988   3.537  0.6775  0.0995 -0.1446
    6CHTO  H184 2190   5.409   5.035   3.473  0.5222 -0.7838 -0.6285
    6CHTO   O64 2191   5.546   4.876   3.469  1.0215 -0.5062 -0.2664
    6CHTO  C104 2192   5.632   4.885   3.360  0.2752 -0.5148  0.4095
    6CHTO  H191 2193   5.578   4.923   3.274  1.3744  0.8164  0.3012
    6CHTO  C108 2194   5.669   4.739   3.343 -0.8163 -0.2083 -0.3348
    6CHTO   O71 2195   5.577   4.663   3.274  0.2579 -0.8051  0.3826
    6CHTO  H171 2196   5.623   4.601   3.220  0.2710 -0.6387  0.2047
    6CHTO   O62 2197   5.428   4.947   3.663 -0.2026 -0.2738  0.2191
    6CHTO   C91 2198   5.449   4.816   3.717 -0.7032  0.6460  0.4476
    6CHTO  H178 2199   5.391   4.819   3.810 -1.3001 -1.5072  0.1565
    6CHTO   C92 2200   5.601   4.797   3.756  0.0343  0.0072 -0.2432
    6CHTO  H179 2201   5.666   4.828   3.673 -0.4710  0.2284 -0.5616
    6CHTO   O66 2202   5.643   4.888   3.864 -0.2278  0.4570 -0.4974
    6CHTO  H166 2203   5.575   4.912   3.924 -0.5859  1.4365 -1.2681
    6CHTO   C93 2204   5.630   4.646   3.800  0.4049  0.4174 -0.1899
    6CHTO  H180 2205   5.589   4.625   3.900 -1.8137 -0.5575 -1.2722
    6CHTO   N16 2206   5.773   4.612   3.805 -0.4749 -0.0948 -0.3370
    6CHTO  H172 2207   5.831   4.700   3.781  1.4827 -1.1735  0.2789
    6CHTO  H173 2208   5.801   4.584   3.906  0.7764 -0.4066 -0.7607
    6CHTO   C94 2209   5.561   4.538   3.705  0.1747  0.3286 -0.4558
    6CHTO  H181 2210   5.600   4.542   3.603  0.1223 -0.9938 -0.5344
    6CHTO   O61 2211   5.419   4.562   3.691 -0.2810 -0.2193  0.3198
    6CHTO   C95 2212   5.393   4.692   3.631  0.3176  0.0535 -0.0181
    6CHTO  H182 2213   5.429   4.690   3.529 -0.3571  0.0980 -0.2578
    6CHTO  C106 2214   5.240   4.703   3.621 -0.4257  0.2849 -0.1957
    6CHTO   O69 2215   5.177   4.611   3.532  0.2759  0.1713 -0.6071
    6CHTO  H169 2216   5.203   4.525   3.560  1.2093  1.0821  1.4606
    6CHTO   O63 2217   5.575   4.391   3.770  0.2379  0.0501 -0.4944
    6CHTO   C96 2218   5.538   4.288   3.662 -0.1697  0.9007 -0.1242
    6CHTO  H183 2219   5.493   4.333   3.574  0.3973 -1.8253 -1.8819
    6CHTO   C98 2220   5.432   4.189   3.721  0.4127  0.3650  0.4612
    6CHTO  H185 2221   5.456   4.164   3.825  0.2751  0.9978  0.6490
    6CHTO   O67 2222   5.300   4.253   3.727 -0.0149 -0.4046  0.6328
    6CHTO  H167 2223   5.273   4.264   3.638 -1.6590 -1.6279  0.9665
    6CHTO  C102 2224   5.415   4.054   3.637  0.3821  0.6682  0.2707
    6CHTO  H189 2225   5.352   4.075   3.549 -0.6597  2.0562  1.3409
    6CHTO   N18 2226   5.334   3.954   3.724  0.0119  0.7373 -0.4815
    6CHTO  H176 2227   5.303   3.873   3.661  0.9084  0.8965 -1.1370
    6CHTO  H177 2228   5.253   4.000   3.779 -2.3777 -2.5186 -1.1800
    6CHTO  C105 2229   5.547   4.004   3.593 -0.0492  0.4525  0.4308
    6CHTO  H192 2230   5.601   3.957   3.675  0.4594  1.1031  0.4721
    6CHTO   O65 2231   5.618   4.105   3.522 -0.6771  0.3988  0.0502
    6CHTO  C100 2232   5.660   4.207   3.614  1.1124 -0.2142  0.8264
    6CHTO  H187 2233   5.702   4.154   3.701  0.0718  0.2991  1.6469
    6CHTO  C107 2234   5.773   4.290   3.544  0.3681  0.0032 -0.0153
    6CHTO   O70 2235   5.733   4.375   3.439 -0.0327 -0.1677  0.1087
    6CHTO  H170 2236   5.668   4.434   3.473  0.2754 -0.4607  1.2118
    6CHTO   O57 2237   5.507   3.884   3.470  0.0371 -0.1127  0.4681
    6CHTO   C85 2238   5.590   3.858   3.350  0.0549 -0.3382 -0.0408
    6CHTO  H157 2239   5.526   3.778   3.308  0.8726 -2.0414  1.8606
    6CHTO   C83 2240   5.724   3.791   3.389 -0.3892  0.4341  0.1288
    6CHTO  H155 2241   5.709   3.692   3.433  2.0902 -1.6132 -3.3223
    6CHTO   O56 2242   5.783   3.869   3.494  0.1532  0.0344 -0.0786
    6CHTO  H135 2243   5.864   3.831   3.521  1.7853  2.5873 -1.1683
    6CHTO   C81 2244   5.805   3.766   3.261 -0.5699  0.4086  0.2089
    6CHTO  H153 2245   5.763   3.688   3.197  0.6065  2.4430 -3.1823
    6CHTO   N14 2246   5.944   3.724   3.291 -0.6108 -0.4008  0.5519
    6CHTO  H141 2247   6.001   3.798   3.342  1.7151 -0.0428 -2.4566
    6CHTO  H142 2248   5.938   3.631   3.345 -1.7208  0.6523  2.3206
    6CHTO   C79 2249   5.825   3.896   3.166  0.1738  0.3491 -0.3252
    6CHTO  H151 2250   5.867   3.859   3.072 -0.0739 -1.1026  0.1126
    6CHTO   O52 2251   5.693   3.938   3.139 -0.7763 -0.6418  0.0765
    6CHTO   C86 2252   5.609   3.981   3.249  0.0477  0.6984 -0.1233
    6CHTO  H158 2253   5.664   4.065   3.297  1.6851 -1.7512  2.4348
    6CHTO   C90 2254   5.470   4.037   3.198 -0.1760  0.0844 -0.7555
    6CHTO   O60 2255   5.403   3.948   3.109 -0.1683  0.7162 -0.2738
    6CHTO  H138 2256   5.317   3.980   3.091 -1.1717 -0.7621  1.6883
    6CHTO   O50 2257   5.905   4.004   3.208 -0.1591 -0.0769  0.2770
    6CHTO   C73 2258   6.009   4.082   3.140 -0.0468 -0.3599 -0.2519
    6CHTO  H145 2259   5.995   4.074   3.031  1.3426 -0.8534 -0.4132
    6CHTO   C74 2260   6.157   4.032   3.179 -0.0484 -0.1435 -0.2542
    6CHTO  H146 2261   6.159   3.923   3.164 -2.0584 -0.0493 -1.3071
    6CHTO   O54 2262   6.247   4.094   3.084  0.0575 -0.5737  0.5561
    6CHTO  H133 2263   6.256   4.040   3.008  0.5273  0.5136 -0.1739
    6CHTO   C75 2264   6.182   4.068   3.326 -0.2006  0.1058  0.1478
    6CHTO  H147 2265   6.113   4.009   3.389  0.8627 -0.3299  0.9340
    6CHTO   N13 2266   6.314   4.028   3.385 -0.2496 -0.3412 -0.0936
    6CHTO  H139 2267   6.391   4.098   3.355  0.8202 -1.7693 -0.7429
    6CHTO  H140 2268   6.311   4.047   3.491 -0.8593  0.2620 -0.2142
    6CHTO   C76 2269   6.154   4.218   3.360  0.0136  0.2008  0.4359
    6CHTO  H148 2270   6.215   4.273   3.289 -1.0989  0.2889 -0.4803
    6CHTO   O49 2271   6.015   4.251   3.321  0.5462  0.0514 -0.5916
    6CHTO   C77 2272   5.992   4.236   3.181  0.3272  0.1759  0.2899
    6CHTO  H149 2273   6.057   4.299   3.120  0.6163 -0.1166  0.2951
    6CHTO   C88 2274   5.852   4.286   3.150  0.2797  0.3164 -0.5603
    6CHTO   O58 2275   5.827   4.314   3.021  0.1398 -0.1263  0.0587
    6CHTO  H136 2276   5.855   4.401   2.997  0.1252  0.0762  0.7424
    6CHTO   O51 2277   6.169   4.261   3.517 -0.0604 -0.1921  0.3358
    6CHTO   C78 2278   6.220   4.413   3.540  0.0874 -0.0271  0.0769
    6CHTO  H150 2279   6.256   4.418   3.645  2.2118  2.2710 -0.7156
    6CHTO   C80 2280   6.106   4.520   3.520  0.0708  0.6808 -0.6214
    6CHTO  H152 2281   6.081   4.515   3.412 -0.4284  1.4107 -0.5432
    6CHTO   O55 2282   5.998   4.479   3.603  0.2483 -0.4715 -0.4752
    6CHTO  H134 2283   5.944   4.555   3.610 -0.8470 -1.3632  0.9134
    6CHTO   C84 2284   6.159   4.665   3.555 -0.2768 -0.4454  0.8223
    6CHTO  H156 2285   6.180   4.671   3.662  0.2202 -0.6479  0.7362
    6CHTO   N15 2286   6.052   4.774   3.529  0.2199  0.2129 -0.2920
    6CHTO  H143 2287   6.026   4.795   3.428 -1.5774  0.1223  0.1419
    6CHTO  H144 2288   5.964   4.761   3.589  0.9881 -2.0934  0.3848
    6CHTO   C87 2289   6.286   4.693   3.470 -0.0693 -0.4285 -0.3081
    6CHTO  H159 2290   6.265   4.688   3.363  0.0773 -2.6604 -0.2495
    6CHTO   O53 2291   6.387   4.586   3.498  0.2798  0.3515 -0.1770
    6CHTO   C82 2292   6.338   4.458   3.457 -0.2093  0.7286  0.7225
    6CHTO  H154 2293   6.310   4.453   3.352 -0.1679 -0.1715  0.7560
    6CHTO   C89 2294   6.463   4.372   3.478 -0.3586  0.2764  0.0436
    6CHTO   O59 2295   6.576   4.417   3.399 -0.1678  0.4499 -0.2898
    6CHTO  H137 2296   6.644   4.442   3.459 -0.1239  3.6579 -1.5475
    6CHTO   O45 2297   6.361   4.837   3.516 -0.2475  0.5308 -0.5466
    6CHTO   C67 2298   6.504   4.842   3.496  0.4053 -0.3677 -0.3425
    6CHTO  H124 2299   6.557   4.772   3.560  0.2898  0.0928  0.2741
    6CHTO   C65 2300   6.539   4.827   3.346  0.2391  0.3420  0.5908
    6CHTO  H122 2301   6.451   4.780   3.301  0.5174 -0.5957  1.0187
    6CHTO   O44 2302   6.651   4.733   3.338  0.3831  0.2041  0.5980
    6CHTO  H102 2303   6.715   4.768   3.397  0.6008  0.3219  0.2917
    6CHTO   C63 2304   6.560   4.972   3.273 -0.0789  1.1207  0.0842
    6CHTO  H120 2305   6.472   5.032   3.297  1.1368  2.1450  2.0909
    6CHTO   N11 2306   6.571   4.976   3.124 -0.9014  0.4425  0.1425
    6CHTO  H108 2307   6.651   4.922   3.077 -1.3137  1.1020 -1.3443
    6CHTO  H109 2308   6.545   5.065   3.071 -0.7052 -0.3724 -1.3448
    6CHTO   C61 2309   6.680   5.047   3.354 -0.5485 -0.3379  0.1823
    6CHTO  H118 2310   6.665   5.155   3.335 -1.6909  0.1629  3.4717
    6CHTO   O40 2311   6.673   5.033   3.499 -0.3054  0.3705 -0.6238
    6CHTO   C68 2312   6.542   4.989   3.550 -0.5178 -0.5101 -0.0428
    6CHTO  H125 2313   6.465   5.066   3.527 -1.4975 -1.2556  0.7008
    6CHTO   C72 2314   6.563   4.995   3.696  0.1065 -0.0817  0.0673
    6CHTO   O48 2315   6.434   5.003   3.759 -0.4210 -0.0016 -0.8342
    6CHTO  H105 2316   6.434   5.060   3.834  0.6211 -1.1529  0.0842
    6CHTO   O38 2317   6.808   5.004   3.316 -0.3007 -0.1051 -0.7074
    6CHTO   C55 2318   6.919   5.098   3.335  0.2012 -0.7552 -0.2854
    6CHTO  H112 2319   6.896   5.173   3.412 -0.5589  0.1530 -1.3932
    6CHTO   C56 2320   6.951   5.165   3.193  0.7967  0.0296  0.4797
    6CHTO  H113 2321   6.949   5.084   3.119  0.8386 -0.4875  1.0474
    6CHTO   O42 2322   6.850   5.263   3.165 -0.2474  0.4886  0.2799
    6CHTO  H100 2323   6.866   5.303   3.082  0.2248  0.0645  0.1649
    6CHTO   C57 2324   7.093   5.233   3.191  0.1381 -0.6639 -0.3627
    6CHTO  H114 2325   7.073   5.326   3.244  0.9080 -0.5395 -0.2858
    6CHTO   N10 2326   7.147   5.262   3.058 -0.2701  0.0807 -0.5791
    6CHTO  H106 2327   7.114   5.362   3.031  0.0223 -0.4143 -2.8982
    6CHTO  H107 2328   7.255   5.260   3.052 -0.1888 -0.2040  0.8938
    6CHTO   C58 2329   7.199   5.149   3.267 -0.4529 -0.2177 -0.0653
    6CHTO  H115 2330   7.225   5.055   3.212  1.5442 -0.0514  0.5455
    6CHTO   O37 2331   7.148   5.117   3.398 -0.2429 -0.2948 -0.5856
    6CHTO   C59 2332   7.042   5.022   3.387 -0.9406 -0.5981 -0.1377
    6CHTO  H116 2333   7.073   4.941   3.320  2.5255  0.1187  0.5029
    6CHTO   C70 2334   7.026   4.961   3.531  0.8043  0.1584  0.1506
    6CHTO   O46 2335   6.913   4.874   3.546  0.1017  0.2840 -0.2304
    6CHTO  H103 2336   6.917   4.847   3.635 -0.8171  3.5629  0.8676
    6CHTO   O39 2337   7.323   5.244   3.311 -0.5814  0.3925 -0.1005
    6CHTO   C60 2338   7.446   5.181   3.332 -0.8995  0.1332  0.4243
    6CHTO  H117 2339   7.441   5.072   3.327 -0.0377  0.1457 -1.0855
    6CHTO   C62 2340   7.529   5.207   3.199  0.1448  0.3403  0.5586
    6CHTO  H119 2341   7.473   5.170   3.110  1.5782  0.4770 -0.4118
    6CHTO   O43 2342   7.554   5.351   3.195 -0.5843  0.5935  0.2167
    6CHTO  H101 2343   7.568   5.367   3.104  0.4382 -1.9265 -0.0845
    6CHTO   C66 2344   7.675   5.127   3.221  0.5190 -0.4681  0.1907
    6CHTO  H123 2345   7.658   5.021   3.242 -2.1361 -0.4838 -1.8754
    6CHTO   N12 2346   7.746   5.111   3.094 -0.4363 -0.3392 -0.0208
    6CHTO  H110 2347   7.671   5.128   3.019  2.6112  1.0087 -2.9301
    6CHTO  H111 2348   7.829   5.181   3.098 -0.3506 -0.4057 -0.5993
    6CHTO   C69 2349   7.744   5.196   3.337  0.1435  0.1466  0.3703
    6CHTO  H126 2350   7.751   5.305   3.318 -1.2194 -0.1492 -1.9626
    6CHTO   O41 2351   7.675   5.162   3.460 -0.2841  0.0978 -0.4779
    6CHTO   C64 2352   7.524   5.222   3.464  0.3863  1.2698  0.7348
    6CHTO  H121 2353   7.530   5.333   3.470 -0.2551  1.4149 -0.9629
    6CHTO   C71 2354   7.444   5.179   3.592 -0.7778 -0.2159 -0.3378
    6CHTO   O47 2355   7.476   5.048   3.640  0.3861 -0.1423 -0.0670
    6CHTO  H104 2356   7.405   5.028   3.698 -1.9145  2.5772 -1.8140
    6CHTO   O34 2357   7.891   5.157   3.370  0.2827  0.4372  0.1687
    6CHTO   C49 2358   8.023   5.146   3.305 -0.5115 -0.3156 -0.6083
    6CHTO   H91 2359   8.010   5.098   3.207 -0.9351  1.2513 -1.3252
    6CHTO   C47 2360   8.116   5.064   3.397 -0.2016  0.1605  0.5421
    6CHTO   H89 2361   8.208   5.051   3.337 -0.7413 -0.8942 -0.0655
    6CHTO   O33 2362   8.051   4.933   3.420 -0.1190 -0.4729 -0.4131
    6CHTO   H70 2363   8.096   4.858   3.386 -1.1479 -1.8567  1.2328
    6CHTO   C45 2364   8.138   5.135   3.542 -0.1811  0.3286  0.2265
    6CHTO   H87 2365   8.054   5.116   3.610  0.0639  0.6505  0.6223
    6CHTO    N8 2366   8.263   5.083   3.601  0.1976  0.5530  0.4859
    6CHTO   H75 2367   8.325   5.168   3.622  0.3804 -0.1090  2.7980
    6CHTO   H76 2368   8.248   5.030   3.694  0.7065  1.2858  0.9812
    6CHTO   C43 2369   8.131   5.297   3.519  0.0619  0.2178  0.0506
    6CHTO   H85 2370   8.028   5.328   3.532 -0.2290 -0.5280 -0.4180
    6CHTO   O29 2371   8.179   5.338   3.394  0.3019  0.7740  0.2280
    6CHTO   C50 2372   8.096   5.286   3.289  0.0237 -0.2331  0.3377
    6CHTO   H92 2373   8.013   5.355   3.265 -1.4912 -2.0775  0.2082
    6CHTO   C54 2374   8.176   5.294   3.160 -0.0329 -0.2031  0.0243
    6CHTO   O36 2375   8.212   5.436   3.136 -0.3488  0.3001 -0.6804
    6CHTO   H72 2376   8.253   5.466   3.215 -0.7893 -0.6572 -0.0855
    6CHTO   O27 2377   8.188   5.368   3.625 -0.3899 -0.1177  0.0908
    6CHTO   C37 2378   8.284   5.448   3.695 -0.2502 -0.0325 -0.3887
    6CHTO   H79 2379   8.383   5.400   3.697  0.5953  1.4979 -2.2474
    6CHTO   C38 2380   8.305   5.584   3.621  0.0483 -0.1605 -0.3757
    6CHTO   H80 2381   8.205   5.625   3.600  0.0195 -0.4470 -0.8043
    6CHTO   O31 2382   8.360   5.559   3.489 -0.6276  0.2942  0.0001
    6CHTO   H68 2383   8.437   5.508   3.477  1.3393  2.6752  1.9799
    6CHTO   C39 2384   8.398   5.682   3.701  0.2808 -0.1813 -0.5386
    6CHTO   H81 2385   8.494   5.631   3.708 -0.3574 -1.3037  0.3219
    6CHTO    N7 2386   8.411   5.815   3.632  0.4870 -0.1089 -0.1048
    6CHTO   H73 2387   8.314   5.861   3.629  1.2574  1.6708  1.5189
    6CHTO   H74 2388   8.448   5.802   3.531  1.0024  1.3998 -0.1197
    6CHTO   C40 2389   8.345   5.692   3.856 -0.6021 -0.1525 -0.7943
    6CHTO   H82 2390   8.254   5.752   3.864  0.7988  1.8107  0.7768
    6CHTO   O26 2391   8.328   5.562   3.913  0.1987  0.3385  0.0310
    6CHTO   C41 2392   8.236   5.475   3.843 -0.1316 -0.1646 -0.0426
    6CHTO   H83 2393   8.137   5.522   3.843  0.0141  0.1697  1.3424
    6CHTO   C52 2394   8.227   5.349   3.941 -0.3899  0.5571  0.3657
    6CHTO   O35 2395   8.353   5.284   3.951 -0.3024  0.3183 -0.1172
    6CHTO   H71 2396   8.370   5.222   3.883  0.9089 -0.7101  1.1179
    6CHTO   O28 2397   8.451   5.742   3.936 -0.1915  0.1114 -0.1359
    6CHTO   C42 2398   8.436   5.803   4.067  0.0443 -0.1201  0.6590
    6CHTO   H84 2399   8.524   5.868   4.071 -0.8419  1.0221  1.8048
    6CHTO   C44 2400   8.448   5.696   4.183  0.0149  0.4558  0.4306
    6CHTO   H86 2401   8.370   5.622   4.172 -0.1951  0.8665 -0.8392
    6CHTO   O32 2402   8.576   5.633   4.156 -0.1712  0.0859 -0.0762
    6CHTO   H69 2403   8.573   5.554   4.207  2.5082  0.3510  0.5688
    6CHTO   C48 2404   8.427   5.754   4.333 -0.0484  0.7378  0.7115
    6CHTO   H90 2405   8.508   5.823   4.359  0.1607  1.2701 -1.2873
    6CHTO    N9 2406   8.433   5.640   4.431 -0.4533  0.4994 -0.3663
    6CHTO   H77 2407   8.365   5.562   4.400 -0.9345  0.0938  1.6408
    6CHTO   H78 2408   8.533   5.603   4.447 -0.4182  0.5877 -0.3785
    6CHTO   C51 2409   8.293   5.844   4.331  0.1917 -0.1999 -0.2831
    6CHTO   H93 2410   8.213   5.771   4.320  1.4384 -2.4907  4.4335
    6CHTO   O30 2411   8.296   5.944   4.229 -0.2881  0.3438 -0.4027
    6CHTO   C46 2412   8.308   5.899   4.086  0.3804 -0.0506  0.4701
    6CHTO   H88 2413   8.213   5.862   4.049 -0.9617  2.1654  1.6257
    6CHTO   C53 2414   8.326   6.031   4.014  0.1937  0.2106 -0.2687
    6CHTO   O72 2415   8.206   6.103   4.024  1.0422  0.2076  0.2800
    6CHTO  H199 2416   8.156   6.078   4.100  1.0591  0.5335  0.3999
    6CHTO   O22 2417   8.280   5.911   4.460  0.5432  0.1239 -0.1122
    6CHTO   C31 2418   8.144   5.980   4.494  0.5280 -0.7863  0.6010
    6CHTO   H59 2419   8.159   6.013   4.598  0.3191 -0.2144  0.4505
    6CHTO   C29 2420   8.126   6.108   4.407 -0.0335  0.7311 -1.1199
    6CHTO   H57 2421   8.121   6.088   4.299 -0.5241  1.3358 -1.2171
    6CHTO   O21 2422   8.244   6.183   4.428  0.0246  0.3887  0.1725
    6CHTO   H37 2423   8.307   6.185   4.360  0.5634 -0.4157  0.6438
    6CHTO   C27 2424   8.000   6.184   4.450  0.6437 -0.5185  0.2448
    6CHTO   H55 2425   8.016   6.212   4.555  0.3926  1.2030 -0.1731
    6CHTO    N5 2426   7.993   6.314   4.375  0.3673  0.2386  0.5618
    6CHTO   H43 2427   8.016   6.403   4.431  1.2630  0.3512  0.0091
    6CHTO   H44 2428   8.056   6.303   4.289 -2.0208 -1.6762 -1.0188
    6CHTO   C25 2429   7.875   6.087   4.444 -0.3841 -0.2093 -0.3938
    6CHTO   H53 2430   7.847   6.067   4.340 -1.1051 -2.4585  0.2028
    6CHTO   O17 2431   7.903   5.967   4.522  0.2869  0.3512 -0.2354
    6CHTO   C32 2432   8.020   5.891   4.487  0.0478 -0.0148 -0.1102
    6CHTO   H60 2433   8.013   5.834   4.394  0.7291 -0.3881  0.0572
    6CHTO   C36 2434   8.019   5.779   4.592 -0.6124 -0.1023  0.7880
    6CHTO   O25 2435   8.110   5.679   4.571 -0.2631  0.2379 -0.5213
    6CHTO   H40 2436   8.074   5.599   4.537 -0.7221  0.5453 -0.7677
    6CHTO   O15 2437   7.747   6.165   4.505  0.5480 -0.3031  0.1130
    6CHTO   C19 2438   7.626   6.254   4.493 -0.1122  0.7675  0.7081
    6CHTO   H47 2439   7.589   6.246   4.596  0.4976  2.5518  1.0920
    6CHTO   C20 2440   7.656   6.404   4.460 -0.1656  0.4495 -0.1358
    6CHTO   H48 2441   7.677   6.426   4.355  3.6818  0.4657  0.5477
    6CHTO   O19 2442   7.759   6.444   4.549  0.2208  0.3919 -0.9087
    6CHTO   H35 2443   7.772   6.537   4.548 -1.0764  0.5797 -1.2078
    6CHTO   C21 2444   7.514   6.476   4.487 -0.2944  0.1676 -0.0385
    6CHTO   H49 2445   7.495   6.456   4.592 -1.4531 -1.3141 -0.5142
    6CHTO    N4 2446   7.534   6.625   4.470 -0.3497 -0.2209  0.1622
    6CHTO   H41 2447   7.543   6.669   4.372  2.2840 -1.0874 -0.0088
    6CHTO   H42 2448   7.622   6.653   4.526 -0.9461 -0.4663  1.2402
    6CHTO   C22 2449   7.401   6.415   4.408  0.2908 -0.6705  0.3197
    6CHTO   H50 2450   7.412   6.444   4.304  0.0959  0.2718  0.5550
    6CHTO   O14 2451   7.389   6.273   4.406  0.0210 -0.2230 -0.3729
    6CHTO   C23 2452   7.515   6.204   4.396 -0.7617 -0.1701  0.2423
    6CHTO   H51 2453   7.544   6.212   4.290 -0.0688 -0.2286  0.4258
    6CHTO   C34 2454   7.484   6.060   4.428  0.2298 -0.1096  0.2493
    6CHTO   O23 2455   7.392   6.002   4.331 -0.0733 -0.1673  0.3049
    6CHTO   H38 2456   7.419   5.912   4.320  0.7727 -0.0753  1.4700
    6CHTO   O16 2457   7.271   6.461   4.447  0.0845 -0.1514  0.0022
    6CHTO   C24 2458   7.149   6.479   4.333 -0.7359 -0.0856 -0.5503
    6CHTO   H52 2459   7.166   6.422   4.242 -0.6823 -1.7387  0.4633
    6CHTO   C26 2460   7.142   6.626   4.302 -0.5083 -0.0279 -0.1575
    6CHTO   H54 2461   7.127   6.684   4.395  0.6723 -1.2760  0.8447
    6CHTO   O20 2462   7.264   6.669   4.239  0.0854  0.3474 -0.1552
    6CHTO   H36 2463   7.257   6.762   4.227  0.6305  0.3939 -0.1018
    6CHTO   C30 2464   7.016   6.653   4.218 -0.3992 -0.3116 -0.6152
    6CHTO   H58 2465   7.014   6.603   4.120  0.3849  2.1914 -1.9455
    6CHTO    N6 2466   6.991   6.793   4.179 -0.0364  0.0598 -0.5895
    6CHTO   H45 2467   6.986   6.861   4.262  2.3563  0.6001 -0.8496
    6CHTO   H46 2468   6.902   6.797   4.117 -0.8637 -0.6266  0.5349
    6CHTO   C33 2469   6.891   6.590   4.282  0.6873  0.7561  0.1732
    6CHTO   H61 2470   6.867   6.638   4.378  2.2764 -0.1939  1.0696
    6CHTO   O18 2471   6.912   6.446   4.307  0.9114 -0.8650 -0.5044
    6CHTO   C28 2472   7.020   6.417   4.400  0.1690  1.0045 -0.0042
    6CHTO   H56 2473   6.985   6.464   4.493  0.3811  3.3250 -1.0615
    6CHTO   C35 2474   7.018   6.259   4.421  0.0256 -0.3838  0.6184
    6CHTO   O24 2475   7.109   6.220   4.521 -0.1042  0.7146  0.5835
    6CHTO   H39 2476   7.061   6.217   4.601  1.9115 -0.8875  1.7860
    6CHTO    O9 2477   6.767   6.608   4.206  0.1964  0.2885 -0.2205
    6CHTO   C13 2478   6.635   6.637   4.294 -0.3566  0.0393  0.1307
    6CHTO   H26 2479   6.642   6.736   4.344  1.0578  0.4438 -0.8560
    6CHTO   C11 2480   6.601   6.513   4.395 -0.5689 -0.1089  0.6743
    6CHTO   H24 2481   6.685   6.506   4.465  0.4963 -3.3689 -0.8769
    6CHTO    O8 2482   6.597   6.384   4.327  0.0953  0.0347  0.7351
    6CHTO    H3 2483   6.684   6.350   4.319  0.4189  1.0182 -0.0429
    6CHTO    C9 2484   6.473   6.548   4.462 -0.3045  0.7047 -0.3377
    6CHTO   H22 2485   6.491   6.653   4.492  0.4475  0.5617 -0.2679
    6CHTO    N2 2486   6.443   6.478   4.586  0.5146 -0.3836  0.4713
    6CHTO   H10 2487   6.513   6.396   4.594  0.8023 -0.0715  1.1989
    6CHTO   H11 2488   6.339   6.449   4.587  0.5239 -0.3902  1.1500
    6CHTO    C7 2489   6.361   6.545   4.353 -0.0625 -0.1411 -0.3753
    6CHTO   H20 2490   6.266   6.579   4.399  1.0361  2.1299  0.3188
    6CHTO    O4 2491   6.381   6.642   4.248  0.0311 -0.7274 -0.4547
    6CHTO   C14 2492   6.511   6.669   4.196 -0.7368 -0.2366  0.4515
    6CHTO   H27 2493   6.516   6.776   4.168  0.8366 -0.7247 -1.2408
    6CHTO   C18 2494   6.524   6.599   4.059  0.6092  0.7097 -0.4534
    6CHTO   O13 2495   6.463   6.683   3.956  0.4840 -0.2400  0.1568
    6CHTO    H7 2496   6.492   6.646   3.875 -0.4162 -0.1004 -0.2330
    6CHTO    O2 2497   6.340   6.386   4.280 -0.2321 -0.8501  0.2827
    6CHTO    C1 2498   6.209   6.355   4.249 -0.1451 -0.2829  0.2143
    6CHTO   H14 2499   6.228   6.262   4.192 -0.8227 -0.8462  0.9032
    6CHTO    C2 2500   6.118   6.459   4.165 -0.5358 -0.1815 -0.1798
    6CHTO   H15 2501   6.104   6.552   4.223 -1.5125  0.0600 -0.7917
    6CHTO    O6 2502   6.174   6.492   4.042 -0.0570  0.1599 -0.8390
    6CHTO    H1 2503   6.260   6.529   4.046 -0.8120  1.8920 -0.1540
    6CHTO    C3 2504   5.965   6.402   4.141 -0.8657 -0.4327 -0.2551
    6CHTO   H16 2505   5.962   6.316   4.073  1.2182 -1.9663  1.4832
    6CHTO    N1 2506   5.870   6.501   4.076 -0.0638 -0.2713  0.3730
    6CHTO    H8 2507   5.769   6.478   4.106 -0.2400 -0.4804 -0.3683
    6CHTO    H9 2508   5.898   6.600   4.108 -0.0504 -0.6761  1.6383
    6CHTO    C4 2509   5.911   6.348   4.280 -0.0960  0.2744 -0.3949
    6CHTO   H17 2510   5.896   6.430   4.350  0.5817  0.0535  0.0170
    6CHTO    O1 2511   6.002   6.251   4.335  0.0456 -0.1407 -0.0733
    6CHTO    C5 2512   6.132   6.296   4.370 -0.5583 -0.1409 -0.2621
    6CHTO   H18 2513   6.122   6.374   4.445 -0.8442  0.4900 -0.9565
    6CHTO   C16 2514   6.200   6.175   4.439  0.3262  0.0969 -0.5021
    6CHTO   O11 2515   6.329   6.193   4.495 -0.5244 -0.2427  0.4458
    6CHTO    H5 2516   6.326   6.262   4.559 -4.3819 -0.4882  0.6441
    6CHTO    O3 2517   5.788   6.276   4.250  0.0193 -0.6624 -0.0181
    6CHTO    C6 2518   5.691   6.268   4.362  0.2839  0.2513 -0.1110
    6CHTO   H19 2519   5.735   6.303   4.456  0.5708 -3.1150  1.0825
    6CHTO    C8 2520   5.573   6.366   4.338 -0.0291 -0.2252  0.5407
    6CHTO   H21 2521   5.530   6.350   4.239 -1.0641 -1.1018  1.1122
    6CHTO    O7 2522   5.628   6.501   4.347  0.1514 -0.3206 -0.6624
    6CHTO    H2 2523   5.645   6.539   4.262  0.6859  1.6795  0.2973
    6CHTO   C12 2524   5.456   6.343   4.440  0.9255  0.0590  0.3226
    6CHTO   H25 2525   5.502   6.367   4.538  2.0258  1.2806 -0.4744
    6CHTO    N3 2526   5.337   6.435   4.417  0.2976  0.4578 -0.9555
    6CHTO   H12 2527   5.245   6.379   4.407  1.0677 -0.5442 -2.6755
    6CHTO   H13 2528   5.335   6.507   4.497  2.3160 -1.1672  0.6050
    6CHTO   C15 2529   5.419   6.191   4.430  0.2819  0.0819 -0.4443
    6CHTO   H28 2530   5.372   6.157   4.337  1.2521  1.6536 -1.5347
    6CHTO   O10 2531   5.344   6.139   4.536  0.0227  0.3493 -0.1861
    6CHTO    H4 2532   5.287   6.077   4.496  1.7060 -0.3105 -1.6159
    6CHTO    O5 2533   5.534   6.117   4.473  0.8929 -0.4834 -0.1374
    6CHTO   C10 2534   5.647   6.123   4.385  0.1111 -0.4408  0.0869
    6CHTO   H23 2535   5.606   6.098   4.286  2.9796 -0.9277 -1.0139
    6CHTO   C17 2536   5.761   6.034   4.421  0.3490 -0.2361 -0.5089
    6CHTO   O12 2537   5.718   5.896   4.424 -0.0596 -0.1226 -0.2195
    6CHTO    H6 2538   5.673   5.878   4.504  0.4893  0.2283  0.1755
    7CHTO  H203 2539   4.937   2.646   1.910  0.6748  1.1062 -0.8463
    7CHTO   O82 2540   4.995   2.632   1.838  0.5663 -0.6669 -0.6129
    7CHTO  C123 2541   5.118   2.698   1.866 -0.6581  0.1617 -0.0374
    7CHTO  H227 2542   5.095   2.802   1.895  1.0667  0.5865 -0.1411
    7CHTO   O77 2543   5.177   2.613   1.973  0.0581  0.3324  0.3613
    7CHTO  C118 2544   5.316   2.642   2.011 -0.5983  0.1588  0.3262
    7CHTO  H222 2545   5.320   2.746   2.046  1.6635  0.3691 -0.5050
    7CHTO  C125 2546   5.344   2.551   2.130 -0.2215  0.3846  0.3723
    7CHTO   O84 2547   5.287   2.610   2.248  0.4805 -0.3705 -0.4287
    7CHTO  H205 2548   5.355   2.646   2.303 -0.0146  0.3041 -0.2482
    7CHTO  C114 2549   5.403   2.618   1.891 -0.5839 -0.3941  0.1149
    7CHTO  H218 2550   5.397   2.512   1.867  0.6133 -0.2610 -0.8056
    7CHTO  C116 2551   5.361   2.695   1.768  1.0092 -0.2197  0.3156
    7CHTO  H220 2552   5.392   2.801   1.784 -0.5960  0.4779 -0.9746
    7CHTO   O79 2553   5.437   2.647   1.653  0.1193 -0.3968  0.2230
    7CHTO  H201 2554   5.402   2.684   1.575 -0.9419  1.7087  1.6452
    7CHTO  C120 2555   5.207   2.689   1.736  0.3144  0.2036  0.8765
    7CHTO  H224 2556   5.197   2.587   1.692  2.2284  1.1196 -1.8003
    7CHTO   N21 2557   5.176   2.793   1.629  0.0072  0.5962  0.2836
    7CHTO  H211 2558   5.251   2.804   1.552  0.5839 -1.3073  0.5480
    7CHTO  H212 2559   5.086   2.758   1.582  0.2151  1.6022 -0.8864
    7CHTO   O75 2560   5.533   2.664   1.946 -0.0020  0.4743 -0.2932
    7CHTO  C112 2561   5.655   2.579   1.890 -0.0189 -0.0167  0.1222
    7CHTO  H216 2562   5.624   2.532   1.795 -0.5715  0.5999 -0.0091
    7CHTO   O73 2563   5.683   2.484   1.990  0.0045 -0.5594  0.4817
    7CHTO  C113 2564   5.812   2.422   1.989  1.0359  0.2346  0.2323
    7CHTO  H217 2565   5.802   2.343   1.911  1.5586 -0.4376  0.8459
    7CHTO  C124 2566   5.825   2.355   2.126  0.3963  0.2410  1.0447
    7CHTO   O83 2567   5.739   2.242   2.138  0.1437  0.0138  0.0312
    7CHTO  H204 2568   5.784   2.165   2.109  1.3597  0.3464  0.9992
    7CHTO  C109 2569   5.937   2.511   1.969 -0.1770  0.4587  0.0426
    7CHTO  H213 2570   5.948   2.580   2.054 -1.2106 -0.4511  0.9317
    7CHTO  C110 2571   5.912   2.607   1.855  0.0066  0.3998 -0.4174
    7CHTO  H214 2572   5.919   2.546   1.765 -1.4865  2.5067 -2.0315
    7CHTO   O78 2573   6.020   2.701   1.855  0.1604 -0.0637  0.0696
    7CHTO  H200 2574   6.058   2.724   1.772 -0.4570  1.1409  0.1057
    7CHTO  C111 2575   5.774   2.675   1.856  0.2623 -0.2814 -1.0259
    7CHTO  H215 2576   5.776   2.753   1.933  0.1103 -1.1936 -0.0716
    7CHTO   N19 2577   5.742   2.745   1.727 -0.1873 -0.4702 -1.1667
    7CHTO  H207 2578   5.647   2.793   1.742 -0.5997 -1.1022 -1.7458
    7CHTO  H208 2579   5.817   2.820   1.705 -0.1695 -0.6174 -1.5928
    7CHTO   O74 2580   6.059   2.435   1.952 -0.1173  1.0508 -0.4145
    7CHTO  C115 2581   6.181   2.497   2.022  0.1131  0.7169 -0.5077
    7CHTO  H219 2582   6.183   2.605   2.005 -0.5227  0.6364 -1.1122
    7CHTO   O76 2583   6.168   2.480   2.201  0.0012  0.1705  0.3099
    7CHTO  C122 2584   6.212   2.356   2.260 -0.0128  0.4099  0.1202
    7CHTO  H226 2585   6.132   2.285   2.238 -1.5093  2.3339 -0.9075
    7CHTO  C126 2586   6.221   2.371   2.419  0.9488 -0.1013 -1.1582
    7CHTO   O85 2587   6.241   2.242   2.481 -0.0506 -0.1219  0.2397
    7CHTO  H206 2588   6.181   2.184   2.438  0.8723 -1.8370  1.1881
    7CHTO  C121 2589   6.357   2.323   2.198 -0.4494  0.2360  0.6156
    7CHTO  H225 2590   6.431   2.405   2.213  0.3282 -0.5072  0.9032
    7CHTO   O81 2591   6.417   2.199   2.251 -0.8279  0.0982 -0.0208
    7CHTO  H202 2592   6.451   2.211   2.337 -0.0624 -2.2216  0.0296
    7CHTO  C119 2593   6.343   2.288   2.041  0.1036 -0.6516  0.1501
    7CHTO  H223 2594   6.436   2.245   2.002 -1.1684 -2.4626 -0.9733
    7CHTO  C117 2595   6.308   2.424   1.962  0.4853  0.0515  0.1509
    7CHTO  H221 2596   6.280   2.418   1.857  0.8104  0.2961  0.0501
    7CHTO   N20 2597   6.420   2.527   1.967  0.0908  0.0172  0.9356
    7CHTO  H209 2598   6.494   2.494   2.039  1.0256 -1.9641 -0.8557
    7CHTO  H210 2599   6.383   2.626   1.989 -3.3772 -1.3773  1.6837
    7CHTO   O80 2600   6.244   2.170   2.018 -0.2995 -0.2063  0.0368
    7CHTO  C103 2601   6.250   2.090   1.888 -0.3630 -0.4231 -0.0853
    7CHTO  H190 2602   6.246   2.153   1.799  0.3126  0.0709  0.2310
    7CHTO  C101 2603   6.369   1.981   1.882 -0.3156  0.0390 -0.2120
    7CHTO  H188 2604   6.375   1.936   1.981 -0.2594  0.2790 -0.1038
    7CHTO   O68 2605   6.497   2.060   1.869  0.1230 -0.2549  0.2111
    7CHTO  H168 2606   6.564   2.003   1.836 -0.3623 -0.2380 -0.7900
    7CHTO   C99 2607   6.350   1.872   1.767  0.3388 -0.5893 -0.0805
    7CHTO  H186 2608   6.356   1.922   1.668 -2.3278  1.2422  0.6251
    7CHTO   N17 2609   6.456   1.764   1.777 -0.5405 -0.3182  0.1341
    7CHTO  H174 2610   6.539   1.812   1.825  0.4715 -0.4512 -1.4281
    7CHTO  H175 2611   6.425   1.670   1.820 -0.7915 -0.9668 -1.4179
    7CHTO   C97 2612   6.207   1.814   1.774  0.3570 -0.1007 -0.7056
    7CHTO  H184 2613   6.196   1.763   1.871 -2.0070 -1.0658 -1.4400
    7CHTO   O64 2614   6.108   1.923   1.763 -0.0712  0.4650  0.1080
    7CHTO  C104 2615   6.117   2.000   1.886 -0.2485  0.0945 -0.3975
    7CHTO  H191 2616   6.114   1.931   1.971 -0.5478 -1.0969 -1.3629
    7CHTO  C108 2617   5.995   2.087   1.915  0.1721 -0.1823  0.1282
    7CHTO   O71 2618   5.894   2.003   1.961 -0.2498 -0.3272 -0.3126
    7CHTO  H171 2619   5.843   1.971   1.889  0.3504  0.2838 -1.0242
    7CHTO   O62 2620   6.186   1.732   1.658 -0.5022  0.5701  0.4718
    7CHTO   C91 2621   6.079   1.641   1.632  0.0591 -0.1134  0.1439
    7CHTO  H178 2622   6.124   1.559   1.574 -0.5529  0.9913 -1.9602
    7CHTO   C92 2623   5.968   1.710   1.556 -0.1392  1.4483 -1.0819
    7CHTO  H179 2624   5.929   1.801   1.605 -0.9932  0.9034 -0.7432
    7CHTO   O66 2625   6.023   1.756   1.430  0.3791 -0.2239 -0.0935
    7CHTO  H166 2626   6.023   1.685   1.369  1.2862 -0.6737  0.4305
    7CHTO   C93 2627   5.841   1.613   1.540 -0.3000  0.4398  0.9409
    7CHTO  H180 2628   5.874   1.520   1.492  0.9083  0.9938  0.6913
    7CHTO   N16 2629   5.733   1.670   1.451  0.2735 -0.0720 -0.5423
    7CHTO  H172 2630   5.635   1.646   1.487 -0.4412  1.6186 -1.2976
    7CHTO  H173 2631   5.760   1.636   1.353  2.2937  1.8611 -0.7102
    7CHTO   C94 2632   5.797   1.573   1.680 -0.0040 -0.5959  0.1698
    7CHTO  H181 2633   5.799   1.661   1.745  0.3919 -0.8245  0.4733
    7CHTO   O61 2634   5.902   1.493   1.733 -0.6404 -0.4780  0.6125
    7CHTO   C95 2635   6.026   1.561   1.760 -0.3050 -0.2106 -0.0810
    7CHTO  H182 2636   6.006   1.633   1.840  0.3216 -0.5097  0.3489
    7CHTO  C106 2637   6.126   1.445   1.797 -0.6900 -0.2273  0.2482
    7CHTO   O69 2638   6.074   1.369   1.908 -0.0020  0.2790 -0.3850
    7CHTO  H169 2639   6.118   1.399   1.985  0.6572  1.8434 -1.3439
    7CHTO   O63 2640   5.674   1.498   1.689  0.0531 -0.4368 -0.0597
    7CHTO   C96 2641   5.571   1.572   1.778  0.4363  0.0217  0.0319
    7CHTO  H183 2642   5.556   1.667   1.725  2.2576  1.2953  1.7107
    7CHTO   C98 2643   5.608   1.596   1.930 -0.2760  0.4797 -0.1251
    7CHTO  H185 2644   5.707   1.642   1.944  0.7355 -1.2946 -1.2382
    7CHTO   O67 2645   5.510   1.692   1.971  0.3285 -0.4688 -0.2985
    7CHTO  H167 2646   5.427   1.653   1.989  0.6450 -1.8163 -1.6151
    7CHTO  C102 2647   5.596   1.458   2.017 -0.0837 -0.8628 -0.4214
    7CHTO  H189 2648   5.548   1.487   2.112  0.3539 -4.4456  0.9634
    7CHTO   N18 2649   5.718   1.393   2.054 -0.4778  0.4750 -0.6236
    7CHTO  H176 2650   5.762   1.448   2.135 -2.8990  1.6728 -0.0879
    7CHTO  H177 2651   5.785   1.389   1.969  1.5120 -0.3444  0.9438
    7CHTO  C105 2652   5.492   1.362   1.946 -0.0957  0.0433 -0.0721
    7CHTO  H192 2653   5.546   1.299   1.876  1.2879  0.6014  0.4732
    7CHTO   O65 2654   5.379   1.425   1.882  0.2441 -0.9024  0.1572
    7CHTO  C100 2655   5.426   1.494   1.766  0.3879 -0.5301  0.1272
    7CHTO  H187 2656   5.439   1.414   1.692 -0.4910 -0.9337  0.4001
    7CHTO  C107 2657   5.309   1.584   1.714  0.3094  0.4872  0.2066
    7CHTO   O70 2658   5.351   1.677   1.610 -0.0285 -0.6872  0.0386
    7CHTO  H170 2659   5.301   1.754   1.625  2.0788  0.6730  0.2135
    7CHTO   O57 2660   5.428   1.268   2.060 -0.1562 -0.0808 -0.2837
    7CHTO   C85 2661   5.416   1.128   2.037  0.1332  0.8764 -0.1328
    7CHTO  H157 2662   5.464   1.115   1.938  0.8544  0.9600  0.2040
    7CHTO   C83 2663   5.268   1.080   2.027 -0.2435 -0.4139  0.2448
    7CHTO  H155 2664   5.230   1.132   1.939  1.6365  3.0917  1.4251
    7CHTO   O56 2665   5.202   1.122   2.143  0.4259  0.2828 -0.1227
    7CHTO  H135 2666   5.113   1.091   2.142  0.6759 -0.6055  1.8397
    7CHTO   C81 2667   5.267   0.925   1.993  0.0971  0.7366 -0.0588
    7CHTO  H153 2668   5.331   0.913   1.905 -1.1173 -2.1208 -0.6275
    7CHTO   N14 2669   5.126   0.881   1.959  0.2732  0.0929  0.4435
    7CHTO  H141 2670   5.061   0.964   1.975 -0.8692 -1.3279  3.5657
    7CHTO  H142 2671   5.113   0.849   1.858  0.3319  0.9391  0.1678
    7CHTO   C79 2672   5.330   0.840   2.113 -0.1775 -0.3696 -0.0188
    7CHTO  H151 2673   5.337   0.736   2.081 -1.4311 -0.2377 -0.7515
    7CHTO   O52 2674   5.469   0.892   2.123  0.2193  0.4401 -0.1557
    7CHTO   C86 2675   5.489   1.040   2.148 -0.8041 -0.3370 -0.5759
    7CHTO  H158 2676   5.444   1.054   2.249 -1.4431 -1.1916 -0.7299
    7CHTO   C90 2677   5.645   1.061   2.167 -0.2316  0.4941 -0.1137
    7CHTO   O60 2678   5.705   1.030   2.043 -0.0916 -0.5166  0.3749
    7CHTO  H138 2679   5.700   0.937   2.030 -0.6259 -0.5873  1.1060
    7CHTO   O50 2680   5.258   0.841   2.243 -0.2450  0.9280  0.1460
    7CHTO   C73 2681   5.229   0.722   2.315  0.0587  0.6437  0.3475
    7CHTO  H145 2682   5.319   0.659   2.313 -0.0739  0.4825 -0.4423
    7CHTO   C74 2683   5.111   0.641   2.259 -0.3024  0.6396  0.1405
    7CHTO  H146 2684   5.123   0.617   2.152 -1.3215  1.3368 -0.1324
    7CHTO   O54 2685   5.118   0.513   2.329  0.0704 -0.1591 -0.3207
    7CHTO  H133 2686   5.126   0.433   2.282 -0.0620 -0.9653  0.9917
    7CHTO   C75 2687   4.977   0.725   2.281  0.1849 -0.6574  0.1431
    7CHTO  H147 2688   4.983   0.822   2.231 -0.0652 -1.3608 -1.2889
    7CHTO   N13 2689   4.857   0.660   2.225  0.0823 -0.3663  0.5674
    7CHTO  H139 2690   4.864   0.634   2.120 -0.7472  1.1999  0.1110
    7CHTO  H140 2691   4.823   0.575   2.283  0.0330 -1.3236 -0.8276
    7CHTO   C76 2692   4.950   0.748   2.438 -0.5439 -0.5082  0.5509
    7CHTO  H148 2693   4.948   0.651   2.488  1.9315 -2.0372 -2.0991
    7CHTO   O49 2694   5.068   0.813   2.488  0.0520 -0.4200 -0.3452
    7CHTO   C77 2695   5.196   0.748   2.465 -0.7617  0.1182  0.1659
    7CHTO  H149 2696   5.192   0.650   2.514 -0.9855 -0.1888 -0.4574
    7CHTO   C88 2697   5.302   0.835   2.536 -0.5395  0.1320  0.1779
    7CHTO   O58 2698   5.296   0.808   2.697 -0.2162 -0.5393  0.4090
    7CHTO  H136 2699   5.359   0.739   2.711  1.5866  1.1445  0.7995
    7CHTO   O51 2700   4.825   0.841   2.462 -0.2944 -0.2637 -0.3139
    7CHTO   C78 2701   4.798   0.860   2.608 -0.2103  0.2639 -0.0766
    7CHTO  H150 2702   4.871   0.820   2.680 -1.2806  1.7675  1.8723
    7CHTO   C80 2703   4.662   0.802   2.630 -0.5815  0.9106  0.1017
    7CHTO  H152 2704   4.591   0.845   2.556 -0.8009 -0.8990 -0.7676
    7CHTO   O55 2705   4.660   0.661   2.594  0.7098  0.0756 -0.2741
    7CHTO  H134 2706   4.707   0.621   2.664 -0.4253 -1.4694 -0.3768
    7CHTO   C84 2707   4.607   0.826   2.774  0.2027  0.4822 -0.2676
    7CHTO  H156 2708   4.679   0.770   2.834 -1.5767 -1.6871 -0.0744
    7CHTO   N15 2709   4.477   0.770   2.820 -0.0089  0.0939 -0.3434
    7CHTO  H143 2710   4.392   0.821   2.780  1.3453  1.2943 -1.7266
    7CHTO  H144 2711   4.468   0.772   2.927  1.9430 -0.9625 -0.1276
    7CHTO   C87 2712   4.620   0.974   2.815 -0.1491 -0.2603 -0.0249
    7CHTO  H159 2713   4.550   1.034   2.757 -0.7012  0.3643  1.2672
    7CHTO   O53 2714   4.769   1.008   2.787 -0.0112 -0.4303 -0.0645
    7CHTO   C82 2715   4.795   1.005   2.650 -0.0471 -0.8156 -0.3306
    7CHTO  H154 2716   4.716   1.062   2.602  0.8950 -0.1897 -1.1320
    7CHTO   C89 2717   4.931   1.083   2.629  0.6203 -0.1102  0.2685
    7CHTO   O59 2718   4.968   1.117   2.490 -0.2510 -0.4341  0.3206
    7CHTO  H137 2719   4.998   1.039   2.446  2.5742  0.7117  0.1203
    7CHTO   O45 2720   4.586   1.003   2.987 -0.0388 -0.6310 -0.4697
    7CHTO   C67 2721   4.659   1.113   3.044 -0.6404  0.0262  0.3604
    7CHTO  H124 2722   4.764   1.102   3.016 -0.2858  0.8386  1.3484
    7CHTO   C65 2723   4.604   1.254   2.988  0.0570  0.3849  0.3085
    7CHTO  H122 2724   4.500   1.234   2.965  0.3238  0.7245 -1.2165
    7CHTO   O44 2725   4.671   1.286   2.862  0.3703 -0.4081  0.4048
    7CHTO  H102 2726   4.760   1.304   2.885  0.7881 -1.4712 -0.3364
    7CHTO   C63 2727   4.597   1.363   3.102  1.0981 -0.6103  0.4588
    7CHTO  H120 2728   4.512   1.340   3.167  1.0783 -2.4855 -0.1968
    7CHTO   N11 2729   4.552   1.500   3.057 -0.3888 -0.1368  0.1334
    7CHTO  H108 2730   4.543   1.578   3.130  0.8603  2.0166 -1.9315
    7CHTO  H109 2731   4.611   1.525   2.971  0.5813  0.0824  0.8448
    7CHTO   C61 2732   4.722   1.349   3.193 -0.3718  0.3092 -0.0314
    7CHTO  H118 2733   4.714   1.419   3.278  1.1153  0.2237  0.1791
    7CHTO   O40 2734   4.741   1.214   3.251 -0.1595  0.2855  0.0128
    7CHTO   C68 2735   4.657   1.109   3.198 -0.1009  0.1929  0.1285
    7CHTO  H125 2736   4.555   1.119   3.239 -0.0684 -1.1271  0.5514
    7CHTO   C72 2737   4.708   0.973   3.247 -0.3302 -0.3733  0.7978
    7CHTO   O48 2738   4.687   0.968   3.391 -0.0650  0.2362 -1.0565
    7CHTO  H105 2739   4.642   0.888   3.410  0.0585  0.2353 -0.7596
    7CHTO   O38 2740   4.841   1.386   3.117  0.3405  0.0227  0.4451
    7CHTO   C55 2741   4.969   1.377   3.180 -0.4055 -0.3022  0.5332
    7CHTO  H112 2742   4.972   1.302   3.259  1.4840  0.9201  1.6721
    7CHTO   C56 2743   5.015   1.517   3.232 -0.3060 -0.3718  0.2833
    7CHTO  H113 2744   5.005   1.591   3.151  2.1973 -0.2958  0.0148
    7CHTO   O42 2745   4.922   1.559   3.331  0.4006  0.5138 -0.0578
    7CHTO  H100 2746   4.867   1.627   3.298 -0.2927  0.1235  0.2926
    7CHTO   C57 2747   5.164   1.527   3.281 -0.7860 -0.2507  0.4125
    7CHTO  H114 2748   5.162   1.471   3.375 -0.3716 -3.5456 -1.4683
    7CHTO   N10 2749   5.208   1.657   3.307 -0.2757  0.1359  0.0207
    7CHTO  H106 2750   5.260   1.714   3.231 -2.0915  1.5289 -0.2046
    7CHTO  H107 2751   5.256   1.664   3.404 -0.4503  0.0394  0.1154
    7CHTO   C58 2752   5.257   1.463   3.169 -1.3396  0.1049  0.1019
    7CHTO  H115 2753   5.251   1.518   3.073  0.2804 -2.0499 -1.3025
    7CHTO   O37 2754   5.198   1.336   3.128  0.4029  0.1502  0.2233
    7CHTO   C59 2755   5.068   1.342   3.074  0.2904  0.2814 -0.4846
    7CHTO  H116 2756   5.056   1.407   2.987 -4.0235  1.3682  0.7930
    7CHTO   C70 2757   5.031   1.216   2.996 -0.0306 -0.1479  0.0478
    7CHTO   O46 2758   5.013   1.110   3.082  0.4702 -0.0751 -0.1623
    7CHTO  H103 2759   4.946   1.056   3.044  0.1095  0.7807 -0.7519
    7CHTO   O39 2760   5.425   1.408   3.218  0.2641  0.4141  0.2310
    7CHTO   C60 2761   5.501   1.305   3.148  0.4410  0.1117 -0.1816
    7CHTO  H117 2762   5.456   1.206   3.151  1.2867 -0.2517  0.5204
    7CHTO   C62 2763   5.498   1.340   2.995  0.2639 -0.3167 -0.4634
    7CHTO  H119 2764   5.388   1.334   2.977  0.1217  1.2710 -0.2625
    7CHTO   O43 2765   5.561   1.463   2.973 -0.2397 -0.3568 -0.1764
    7CHTO  H101 2766   5.529   1.492   2.889 -0.4739  1.6105  0.5706
    7CHTO   C66 2767   5.561   1.223   2.911  0.7969  0.1596  0.6977
    7CHTO  H123 2768   5.506   1.131   2.932  0.4174 -0.0648 -1.1891
    7CHTO   N12 2769   5.548   1.244   2.767  0.4020 -0.0797  0.3219
    7CHTO  H110 2770   5.592   1.151   2.734 -1.2604 -0.2460 -1.5123
    7CHTO  H111 2771   5.596   1.335   2.737 -1.7211  0.4259 -1.6923
    7CHTO   C69 2772   5.710   1.206   2.968 -0.2300  0.1942 -0.4450
    7CHTO  H126 2773   5.764   1.302   2.952 -0.8540  0.6915  0.4029
    7CHTO   O41 2774   5.716   1.182   3.105  0.2115  0.2672 -0.3259
    7CHTO   C64 2775   5.647   1.287   3.194  0.5887  0.1917  0.7795
    7CHTO  H121 2776   5.709   1.379   3.187  0.7762  0.1594  1.8423
    7CHTO   C71 2777   5.671   1.246   3.342  0.2851 -0.1265 -0.4592
    7CHTO   O47 2778   5.799   1.279   3.396  0.1784  0.4964 -0.2685
    7CHTO  H104 2779   5.786   1.356   3.447 -1.2719  0.2931 -0.3089
    7CHTO   O34 2780   5.789   1.076   2.900 -0.1738 -0.3775  0.2079
    7CHTO   C49 2781   5.846   1.010   2.770  0.3704 -0.7027  0.7127
    7CHTO   H91 2782   5.917   0.937   2.809 -0.6747 -0.9035  2.2976
    7CHTO   C47 2783   5.930   1.110   2.686  0.7381  1.1440 -0.6651
    7CHTO   H89 2784   6.021   1.113   2.750  1.1403 -0.2031 -1.1501
    7CHTO   O33 2785   5.882   1.241   2.692  0.0721  0.2976 -0.1610
    7CHTO   H70 2786   5.800   1.254   2.648  0.5235 -1.2039 -1.5053
    7CHTO   C45 2787   5.952   1.050   2.538  0.5780  0.9221  0.1420
    7CHTO   H87 2788   5.872   1.084   2.471 -0.5205 -0.6979  0.6105
    7CHTO    N8 2789   6.081   1.102   2.488  0.0782 -0.2257 -0.1720
    7CHTO   H75 2790   6.091   1.209   2.498  0.2232 -0.4727  2.7482
    7CHTO   H76 2791   6.088   1.075   2.383  0.9856  0.6706 -0.3513
    7CHTO   C43 2792   5.949   0.893   2.540  0.0255  0.1369  0.4184
    7CHTO   H85 2793   5.976   0.861   2.439 -1.6499 -0.6837  0.2043
    7CHTO   O29 2794   5.819   0.849   2.582  0.3346  0.8587 -0.3608
    7CHTO   C50 2795   5.752   0.930   2.678 -0.2632  0.1194 -0.2565
    7CHTO   H92 2796   5.682   0.999   2.629 -0.7383 -0.4109 -0.3346
    7CHTO   C54 2797   5.654   0.844   2.760 -0.2481  0.4313  0.0102
    7CHTO   O36 2798   5.736   0.749   2.838 -0.4770  0.3765  0.2656
    7CHTO   H72 2799   5.680   0.680   2.870  1.4565 -2.1421 -1.6481
    7CHTO   O27 2800   6.040   0.840   2.633 -0.2990  0.0587 -0.4317
    7CHTO   C37 2801   6.094   0.731   2.705 -0.4023 -0.5153 -0.6179
    7CHTO   H79 2802   6.069   0.740   2.812 -0.1728  3.1030 -0.8075
    7CHTO   C38 2803   6.025   0.594   2.661  0.1461  0.3394  0.6528
    7CHTO   H80 2804   6.039   0.585   2.553 -0.5479  0.0302  0.5906
    7CHTO   O31 2805   5.885   0.596   2.694  0.2270 -0.2250  0.1662
    7CHTO   H68 2806   5.869   0.537   2.765 -0.5665 -0.0995  0.1029
    7CHTO   C39 2807   6.107   0.477   2.734  0.1244  0.7512 -0.2215
    7CHTO   H81 2808   6.086   0.482   2.840  0.9491 -5.5541  0.3912
    7CHTO    N7 2809   6.060   0.347   2.688 -0.3400  1.2478  0.3034
    7CHTO   H73 2810   6.004   0.311   2.773  0.1976  1.2542  0.6691
    7CHTO   H74 2811   6.013   0.336   2.592 -0.4720  0.6446  0.4359
    7CHTO   C40 2812   6.270   0.483   2.729  0.3302  0.7312 -0.1611
    7CHTO   H82 2813   6.300   0.462   2.627 -0.8519 -0.4952 -0.2719
    7CHTO   O26 2814   6.311   0.614   2.762  0.1673  0.0864 -0.3701
    7CHTO   C41 2815   6.250   0.717   2.680 -0.3452 -0.1506  0.3838
    7CHTO   H83 2816   6.260   0.696   2.573 -1.1255  1.1489  0.0411
    7CHTO   C52 2817   6.319   0.846   2.716  0.4540 -0.4882 -0.3728
    7CHTO   O35 2818   6.485   0.843   2.680 -0.8435 -0.2364  0.4086
    7CHTO   H71 2819   6.495   0.820   2.590 -0.1096  1.1139  0.1379
    7CHTO   O28 2820   6.341   0.389   2.815  0.4845  0.1742 -0.3026
    7CHTO   C42 2821   6.473   0.335   2.771  0.3065  1.3741  1.0483
    7CHTO   H84 2822   6.502   0.268   2.852 -1.1500 -0.5130  0.0261
    7CHTO   C44 2823   6.584   0.442   2.757 -0.7362  0.1112 -0.3848
    7CHTO   H86 2824   6.540   0.525   2.702 -0.4285 -1.6726 -3.4356
    7CHTO   O32 2825   6.620   0.482   2.890 -0.2123  0.4052 -0.3240
    7CHTO   H69 2826   6.693   0.541   2.900  0.5675 -0.7116  0.6177
    7CHTO   C48 2827   6.708   0.390   2.677 -0.1601  0.8369 -0.1846
    7CHTO   H90 2828   6.776   0.336   2.743 -0.2883  0.4892 -0.3313
    7CHTO    N9 2829   6.794   0.515   2.635  0.3711 -0.5100 -0.7470
    7CHTO   H77 2830   6.896   0.481   2.618 -0.7476 -2.9187 -3.0328
    7CHTO   H78 2831   6.787   0.591   2.711  1.0807  0.9578 -2.1225
    7CHTO   C51 2832   6.677   0.309   2.545  0.2286  0.0614 -0.4300
    7CHTO   H93 2833   6.630   0.376   2.472 -2.2413  0.2426  1.2339
    7CHTO   O30 2834   6.591   0.203   2.583 -0.1271 -0.4220 -0.5179
    7CHTO   C46 2835   6.458   0.241   2.638 -0.2168  0.0007  1.3787
    7CHTO   H88 2836   6.413   0.295   2.554  0.0139 -3.5232 -1.1135
    7CHTO   C53 2837   6.385   0.110   2.668 -0.0109 -0.0010  0.8009
    7CHTO   O72 2838   6.348   0.049   2.541 -0.2869 -0.1470 -0.3107
    7CHTO  H199 2839   6.296   0.104   2.486 -0.8080 -0.6686 -0.3529
    7CHTO   O22 2840   6.787   0.233   2.502 -0.5785 -0.1574 -0.3058
    7CHTO   C31 2841   6.800   0.205   2.358 -0.5106 -0.1248 -0.7509
    7CHTO   H59 2842   6.889   0.140   2.350 -0.9891 -0.9592  0.4986
    7CHTO   C29 2843   6.687   0.125   2.294  0.0935  0.6296  0.0598
    7CHTO   H57 2844   6.587   0.161   2.324  0.1619 -1.0192  2.4531
    7CHTO   O21 2845   6.686  -0.012   2.351  0.6980 -0.0690 -0.4862
    7CHTO   H37 2846   6.760  -0.018   2.408  1.7924  1.0159 -1.7495
    7CHTO   C27 2847   6.691   0.110   2.135  0.3296 -0.4339  0.0492
    7CHTO   H55 2848   6.780   0.052   2.107  0.8741  0.3434  0.1556
    7CHTO    N5 2849   6.570   0.048   2.074 -0.0451 -0.5625 -0.3212
    7CHTO   H43 2850   6.475   0.087   2.106  0.0874  2.0607 -2.8967
    7CHTO   H44 2851   6.562  -0.057   2.098 -1.2579 -1.0354 -2.6913
    7CHTO   C25 2852   6.708   0.258   2.084  0.0518 -0.6861 -0.0928
    7CHTO   H53 2853   6.627   0.318   2.129  1.6989  3.2478 -2.1372
    7CHTO   O17 2854   6.833   0.317   2.141  0.4836 -0.0907  0.2674
    7CHTO   C32 2855   6.835   0.334   2.279 -0.5775 -0.5312 -0.3817
    7CHTO   H60 2856   6.753   0.404   2.300  0.8998  0.7007  1.4949
    7CHTO   C36 2857   6.968   0.402   2.318 -0.1264  0.8536 -0.7320
    7CHTO   O25 2858   7.085   0.310   2.327  0.7891  0.6016 -0.2663
    7CHTO   H40 2859   7.130   0.331   2.406 -3.4774  0.2757  2.3881
    7CHTO   O15 2860   6.709   0.273   1.925 -0.0207  0.3443  0.2949
    7CHTO   C19 2861   6.678   0.397   1.844 -0.0139  0.0456 -0.5344
    7CHTO   H47 2862   6.664   0.358   1.742  1.5037  1.1110 -1.1616
    7CHTO   C20 2863   6.549   0.469   1.896  0.0025 -0.1595 -0.5808
    7CHTO   H48 2864   6.555   0.497   2.002 -0.1294 -0.6754 -0.4335
    7CHTO   O19 2865   6.441   0.376   1.886 -0.7179  0.4535  0.0761
    7CHTO   H35 2866   6.408   0.334   1.963 -0.9878 -1.0702 -0.8640
    7CHTO   C21 2867   6.523   0.598   1.819 -0.0773 -0.7052 -0.2550
    7CHTO   H49 2868   6.487   0.575   1.719  0.3402 -1.3951 -0.2464
    7CHTO    N4 2869   6.413   0.675   1.878  0.9743 -0.1167 -0.0630
    7CHTO   H41 2870   6.413   0.660   1.985 -0.0871  1.3222  0.1515
    7CHTO   H42 2871   6.432   0.779   1.857  1.2954 -0.0936  0.3311
    7CHTO   C22 2872   6.659   0.680   1.805 -0.7251 -0.7279  0.0417
    7CHTO   H50 2873   6.680   0.737   1.895  2.0535 -1.7861  0.1129
    7CHTO   O14 2874   6.774   0.610   1.759  0.2595 -0.1079 -0.5426
    7CHTO   C23 2875   6.798   0.493   1.837 -0.0505  0.0216 -0.3048
    7CHTO   H51 2876   6.829   0.527   1.937  0.7805 -0.6985 -0.3032
    7CHTO   C34 2877   6.920   0.419   1.779  0.4549  0.0964  0.0214
    7CHTO   O23 2878   6.902   0.399   1.636  1.0884 -0.3409  0.2720
    7CHTO   H38 2879   6.970   0.437   1.584  0.5263 -0.7067 -0.7390
    7CHTO   O16 2880   6.657   0.773   1.691  0.3981 -0.2567 -0.4183
    7CHTO   C24 2881   6.691   0.915   1.729  0.7336  0.1989  0.1454
    7CHTO   H52 2882   6.679   0.929   1.837  0.0267 -0.2656  0.1278
    7CHTO   C26 2883   6.587   1.003   1.656  0.2059  0.2173 -0.2423
    7CHTO   H54 2884   6.581   0.972   1.550 -1.7888  1.6363 -0.5664
    7CHTO   O20 2885   6.455   0.965   1.696 -0.1823 -0.7325  0.0035
    7CHTO   H36 2886   6.388   1.023   1.664 -0.0117  0.0106  1.0015
    7CHTO   C30 2887   6.624   1.156   1.674 -0.1019 -0.1325  0.3365
    7CHTO   H58 2888   6.609   1.180   1.781 -1.4650 -1.0867  0.3662
    7CHTO    N6 2889   6.532   1.237   1.590 -0.2487  0.3204 -0.1063
    7CHTO   H45 2890   6.541   1.343   1.607  0.7716  0.5803 -2.0294
    7CHTO   H46 2891   6.541   1.215   1.484  0.0442  2.0067 -0.4417
    7CHTO   C33 2892   6.772   1.195   1.640 -0.0463 -0.2393  0.1243
    7CHTO   H61 2893   6.786   1.189   1.531  1.1688 -2.3681  0.3502
    7CHTO   O18 2894   6.862   1.103   1.709 -0.5183 -0.5539  0.4871
    7CHTO   C28 2895   6.838   0.957   1.694  0.3844 -0.4071 -0.1100
    7CHTO   H56 2896   6.856   0.926   1.591  2.5992  1.2490 -0.2573
    7CHTO   C35 2897   6.938   0.879   1.781 -0.3147 -0.2320  0.3078
    7CHTO   O24 2898   7.069   0.912   1.758 -0.0728 -0.4670 -0.0055
    7CHTO   H39 2899   7.124   0.848   1.800  1.4515  0.7512 -0.0979
    7CHTO    O9 2900   6.804   1.339   1.672  0.0721  0.3381 -0.4326
    7CHTO   C13 2901   6.974   1.398   1.624  0.4242  0.8125 -0.4102
    7CHTO   H26 2902   6.979   1.364   1.518 -0.0342 -0.6293  0.0164
    7CHTO   C11 2903   7.094   1.336   1.710  0.5798  0.2882  0.0645
    7CHTO   H24 2904   7.090   1.227   1.695  1.5614  0.6645 -3.3733
    7CHTO    O8 2905   7.077   1.357   1.851 -0.1879  0.1086 -0.1672
    7CHTO    H3 2906   7.003   1.312   1.885 -0.7587  1.4884  0.4728
    7CHTO    C9 2907   7.221   1.394   1.644 -0.2482  0.0143  0.2958
    7CHTO   H22 2908   7.216   1.364   1.539 -1.7680  1.7486 -0.1443
    7CHTO    N2 2909   7.347   1.331   1.692 -0.1928 -0.2142 -0.0684
    7CHTO   H10 2910   7.423   1.400   1.658 -0.5629  1.6213  2.6917
    7CHTO   H11 2911   7.367   1.237   1.643 -0.4290 -0.4757  0.3402
    7CHTO    C7 2912   7.214   1.552   1.660  0.3858 -0.0283 -0.7353
    7CHTO   H20 2913   7.305   1.580   1.603  1.2511 -1.5920 -0.1574
    7CHTO    O4 2914   7.096   1.611   1.600 -0.0946 -0.1052 -0.1786
    7CHTO   C14 2915   6.969   1.560   1.624  0.0740 -0.3274  0.3823
    7CHTO   H27 2916   6.893   1.585   1.547  0.7911 -2.1142 -0.9418
    7CHTO   C18 2917   6.918   1.615   1.756  0.0059 -0.0381 -0.9795
    7CHTO   O13 2918   6.876   1.758   1.756  0.1411 -0.0474 -0.1763
    7CHTO    H7 2919   6.831   1.787   1.833  0.3050  0.5732 -0.3077
    7CHTO    O2 2920   7.209   1.596   1.819  0.4597 -0.2912 -0.4989
    7CHTO    C1 2921   7.243   1.735   1.847  0.6731  0.2813 -0.3776
    7CHTO   H14 2922   7.161   1.791   1.798 -0.7157 -0.6402  0.8582
    7CHTO    C2 2923   7.386   1.775   1.783 -0.1719 -0.5433 -0.1712
    7CHTO   H15 2924   7.451   1.689   1.805 -2.7457 -2.6307 -0.4594
    7CHTO    O6 2925   7.377   1.798   1.640 -0.8137  0.0020  0.2376
    7CHTO    H1 2926   7.371   1.718   1.592  1.2035  0.7380 -1.3131
    7CHTO    C3 2927   7.447   1.915   1.845 -0.4902  0.3545 -0.5460
    7CHTO   H16 2928   7.403   1.998   1.787 -1.6541  0.0177 -0.1403
    7CHTO    N1 2929   7.597   1.923   1.817  0.8216 -0.0310  0.0055
    7CHTO    H8 2930   7.658   1.963   1.897  0.0541  1.0909  0.0398
    7CHTO    H9 2931   7.629   1.834   1.764 -2.5193 -1.0200 -0.4529
    7CHTO    C4 2932   7.416   1.937   1.996  0.5980  0.0770  0.1021
    7CHTO   H17 2933   7.488   1.878   2.053 -0.9828 -4.8149 -2.6647
    7CHTO    O1 2934   7.286   1.897   2.030  0.2981  0.8233 -0.1620
    7CHTO    C5 2935   7.247   1.761   2.002 -0.6833  0.4868  0.2661
    7CHTO   H18 2936   7.319   1.690   2.044 -0.6158  0.4210  0.0419
    7CHTO   C16 2937   7.112   1.722   2.062  0.0132 -0.6427  0.2160
    7CHTO   O11 2938   7.121   1.646   2.182  0.0479 -0.1709 -0.1743
    7CHTO    H5 2939   7.122   1.703   2.256 -0.1608 -2.1413  1.3842
    7CHTO    O3 2940   7.411   2.076   2.036  0.2952 -0.3005  0.2069
    7CHTO    C6 2941   7.504   2.124   2.140 -0.2095 -0.0077  0.1037
    7CHTO   H19 2942   7.548   2.033   2.180  0.0283 -0.3152 -0.8299
    7CHTO    C8 2943   7.609   2.226   2.081  0.2810 -0.8753 -0.7833
    7CHTO   H21 2944   7.558   2.300   2.020  4.1961  1.0053 -1.9268
    7CHTO    O7 2945   7.697   2.147   1.993 -0.4502 -0.1656 -0.1582
    7CHTO    H2 2946   7.743   2.195   1.926  1.3371  0.1394  1.2488
    7CHTO   C12 2947   7.702   2.295   2.193 -0.6873  0.0503 -0.2767
    7CHTO   H25 2948   7.770   2.219   2.236 -2.0602 -0.8824  0.2772
    7CHTO    N3 2949   7.783   2.406   2.139 -0.4723  0.2389 -0.2789
    7CHTO   H12 2950   7.728   2.462   2.065  0.3131  1.7070  0.2187
    7CHTO   H13 2951   7.813   2.473   2.219 -0.2987 -0.7332  0.4749
    7CHTO   C15 2952   7.609   2.342   2.309  0.0314  0.0335 -0.0837
    7CHTO   H28 2953   7.552   2.427   2.272  0.9204  0.4099 -0.6076
    7CHTO   O10 2954   7.680   2.370   2.437 -0.0550 -0.4111  0.0837
    7CHTO    H4 2955   7.726   2.448   2.414  1.7918 -2.2180 -2.6313
    7CHTO    O5 2956   7.524   2.229   2.355 -0.4348  0.0557  0.5145
    7CHTO   C10 2957   7.423   2.187   2.258 -0.1917 -0.0792  0.1655
    7CHTO   H23 2958   7.362   2.272   2.227  0.1475 -0.0875 -0.5148
    7CHTO   C17 2959   7.337   2.086   2.329 -0.2288 -0.6531 -0.0077
    7CHTO   O12 2960   7.207   2.065   2.274 -0.0989 -0.2382  0.1574
    7CHTO    H6 2961   7.170   2.149   2.256 -0.6878 -0.4312  0.4477
    8CHTO  H203 2962   7.332   8.575   0.972  2.3967 -0.0877  1.8783
    8CHTO   O82 2963   7.307   8.662   0.997  0.9217  0.3242 -0.8307
    8CHTO  C123 2964   7.217   8.635   1.104 -0.9884 -1.2544 -0.2391
    8CHTO  H227 2965   7.271   8.617   1.199  0.5451  0.7977 -0.6889
    8CHTO   O77 2966   7.148   8.764   1.123 -0.2101 -0.0588 -0.4745
    8CHTO  C118 2967   7.046   8.768   1.232  0.9497 -0.0144 -0.0241
    8CHTO  H222 2968   7.090   8.741   1.329  0.6954  0.7384  0.3066
    8CHTO  C125 2969   7.005   8.922   1.233 -0.1940  1.1355 -0.2991
    8CHTO   O84 2970   6.922   8.938   1.345  0.3379 -0.5097  0.0042
    8CHTO  H205 2971   6.846   8.986   1.320 -1.2944 -2.1858  1.5372
    8CHTO  C114 2972   6.933   8.673   1.194  0.4229  0.1131  0.4575
    8CHTO  H218 2973   6.899   8.704   1.095  1.0475  0.7048  0.4252
    8CHTO  C116 2974   6.992   8.526   1.184  0.0123  1.2621 -0.1894
    8CHTO  H220 2975   7.035   8.499   1.282  2.2620  3.2889 -0.5781
    8CHTO   O79 2976   6.883   8.436   1.159  0.0238 -0.6044 -0.4159
    8CHTO  H201 2977   6.815   8.462   1.219  2.0047  1.8992  0.8218
    8CHTO  C120 2978   7.110   8.521   1.079 -0.3152  0.1290 -0.2422
    8CHTO  H224 2979   7.056   8.530   0.983 -1.3860  1.6202  0.4795
    8CHTO   N21 2980   7.176   8.384   1.073  0.2847 -0.3187 -0.5915
    8CHTO  H211 2981   7.256   8.389   1.001  0.8972  2.1668  0.2139
    8CHTO  H212 2982   7.106   8.303   1.056 -0.8257  0.1326  1.6706
    8CHTO   O75 2983   6.830   8.683   1.285  0.2135  0.4254  0.1022
    8CHTO  C112 2984   6.695   8.680   1.228 -0.2644 -0.3615  0.4381
    8CHTO  H216 2985   6.676   8.602   1.152 -0.7806 -0.0129  0.2084
    8CHTO   O73 2986   6.669   8.809   1.174  0.0919  0.3574 -0.3452
    8CHTO  C113 2987   6.536   8.840   1.115  0.4093 -0.4148  0.2074
    8CHTO  H217 2988   6.510   8.767   1.036 -2.3746 -1.6613  2.1942
    8CHTO  C124 2989   6.548   8.981   1.057  0.2794  0.2376 -0.3051
    8CHTO   O83 2990   6.593   9.084   1.139 -0.4365  0.0242 -0.0352
    8CHTO  H204 2991   6.683   9.099   1.115 -0.3149 -0.3252  0.1957
    8CHTO  C109 2992   6.423   8.822   1.218  0.0174  0.1637 -0.3407
    8CHTO  H213 2993   6.449   8.891   1.299 -2.7268 -0.1150  0.8029
    8CHTO  C110 2994   6.431   8.679   1.277 -0.4549  0.1156  0.3578
    8CHTO  H214 2995   6.406   8.596   1.210 -0.2348  1.5644 -1.5405
    8CHTO   O78 2996   6.337   8.658   1.378  0.2509 -0.1283 -0.4899
    8CHTO  H200 2997   6.254   8.692   1.351  0.2733 -0.5454 -1.1131
    8CHTO  C111 2998   6.573   8.656   1.336  0.0990 -0.5152  1.0116
    8CHTO  H215 2999   6.584   8.728   1.418 -0.2064  1.0636 -0.3017
    8CHTO   N19 3000   6.589   8.522   1.401 -0.0918  0.2171 -0.2178
    8CHTO  H207 3001   6.646   8.525   1.493 -0.1585 -2.5462 -0.0546
    8CHTO  H208 3002   6.491   8.488   1.430 -0.7684  3.3959  1.4279
    8CHTO   O74 3003   6.290   8.866   1.160 -0.5713  0.1331 -0.8522
    8CHTO  C115 3004   6.225   8.775   1.072  0.5000  0.3182  0.1122
    8CHTO  H219 3005   6.295   8.707   1.024 -1.3411  0.1118 -2.4012
    8CHTO   O76 3006   6.122   8.670   1.159  0.3761 -0.6202 -0.1758
    8CHTO  C122 3007   6.007   8.744   1.212 -0.1107 -0.0764  0.5509
    8CHTO  H226 3008   6.046   8.816   1.284  1.8792 -1.6488  1.0630
    8CHTO  C126 3009   5.915   8.649   1.289  0.6160 -0.2292 -0.4469
    8CHTO   O85 3010   5.980   8.589   1.401  0.1553 -0.1944 -0.0698
    8CHTO  H206 3011   5.921   8.522   1.432 -0.0009  1.5985  3.7547
    8CHTO  C121 3012   5.921   8.801   1.086  0.2007 -0.3558 -0.1548
    8CHTO  H225 3013   5.896   8.715   1.021 -1.1838 -1.0227  1.2236
    8CHTO   O81 3014   5.798   8.866   1.124 -0.4326  0.5039 -0.9637
    8CHTO  H202 3015   5.739   8.812   1.172 -0.0983  1.4757  0.5608
    8CHTO  C119 3016   6.015   8.907   1.010 -0.5194  0.8010 -0.1369
    8CHTO  H223 3017   5.957   8.939   0.923 -1.0489 -1.2775 -0.5789
    8CHTO  C117 3018   6.142   8.844   0.956  0.0324 -0.1738  0.7834
    8CHTO  H221 3019   6.210   8.918   0.913 -0.8970  0.4570  0.3758
    8CHTO   N20 3020   6.113   8.750   0.848 -0.0844 -0.0295 -0.0038
    8CHTO  H209 3021   6.206   8.699   0.825 -0.9420 -2.7177  2.1956
    8CHTO  H210 3022   6.059   8.672   0.899 -0.3232  0.7804  0.9955
    8CHTO   O80 3023   6.042   9.023   1.083  0.2608 -0.0957 -0.1846
    8CHTO  C103 3024   5.942   9.139   1.071 -0.1338 -0.7165  0.3910
    8CHTO  H190 3025   5.855   9.105   1.015  1.5539 -1.7278 -1.6712
    8CHTO  C101 3026   5.910   9.210   1.208 -0.4817 -0.9902 -0.2752
    8CHTO  H188 3027   6.003   9.235   1.260 -1.8852  1.4089  1.1965
    8CHTO   O68 3028   5.816   9.110   1.307  0.0031 -0.2581  0.6338
    8CHTO  H168 3029   5.868   9.062   1.368  0.4723 -2.2706 -1.2675
    8CHTO   C99 3030   5.825   9.352   1.184  0.6273 -0.1599 -0.0697
    8CHTO  H186 3031   5.731   9.330   1.129  0.1541  1.8566 -0.1194
    8CHTO   N17 3032   5.794   9.428   1.313  0.2187 -0.2420 -0.3711
    8CHTO  H174 3033   5.793   9.535   1.301 -1.5116 -0.2168 -0.1616
    8CHTO  H175 3034   5.698   9.396   1.351 -0.6206  0.5008 -1.7745
    8CHTO   C97 3035   5.904   9.436   1.079  0.2884 -0.1164 -0.2155
    8CHTO  H184 3036   5.991   9.489   1.122  0.8726 -0.6520 -0.7247
    8CHTO   O64 3037   5.940   9.356   0.965 -0.5216  0.2705 -0.3238
    8CHTO  C104 3038   6.014   9.234   0.977 -0.2255  0.5135  0.2135
    8CHTO  H191 3039   6.114   9.256   1.016  0.7184 -2.4887 -0.3578
    8CHTO  C108 3040   6.032   9.175   0.838  0.2403 -0.0024  0.1140
    8CHTO   O71 3041   5.902   9.146   0.779 -0.3587  0.1118  0.7373
    8CHTO  H171 3042   5.893   9.052   0.781  0.7866 -0.0783 -1.5555
    8CHTO   O62 3043   5.818   9.531   1.010 -0.2117 -0.0235 -0.6802
    8CHTO   C91 3044   5.882   9.645   0.945  0.6839 -0.6358 -0.0061
    8CHTO  H178 3045   5.989   9.625   0.936  0.9003  0.1491  0.7034
    8CHTO   C92 3046   5.865   9.773   1.029  0.2158 -0.6131  0.0314
    8CHTO  H179 3047   5.760   9.799   1.050  0.9452  1.7992  0.8120
    8CHTO   O66 3048   5.929   9.754   1.153  0.5427 -0.6802  0.4369
    8CHTO  H166 3049   6.009   9.706   1.148 -0.4057 -2.3189  0.6185
    8CHTO   C93 3050   5.929   9.895   0.945  0.2820 -0.4162 -0.6353
    8CHTO  H180 3051   6.039   9.884   0.937  0.3979  0.5309 -0.3967
    8CHTO   N16 3052   5.899  10.030   1.005  0.0318 -0.0650 -0.0737
    8CHTO  H172 3053   5.841  10.028   1.095  0.3033 -0.7059  0.0934
    8CHTO  H173 3054   5.991  10.086   1.012  0.1426  0.0450 -1.9851
    8CHTO   C94 3055   5.873   9.899   0.802  0.2454  0.5873  0.4959
    8CHTO  H181 3056   5.766   9.921   0.796  0.5787  1.5128 -2.5122
    8CHTO   O61 3057   5.902   9.775   0.735  0.0608 -0.1480  0.2384
    8CHTO   C95 3058   5.832   9.670   0.797 -0.2379 -0.1437 -0.2316
    8CHTO  H182 3059   5.724   9.685   0.804 -0.8576 -4.3529  1.0133
    8CHTO  C106 3060   5.836   9.546   0.692  0.0838 -0.7386  0.3646
    8CHTO   O69 3061   5.752   9.576   0.579  0.6158  0.2472 -0.1735
    8CHTO  H169 3062   5.682   9.515   0.566  0.0198  1.2208 -1.5775
    8CHTO   O63 3063   5.943  10.010   0.713  0.1206  0.4988 -0.0229
    8CHTO   C96 3064   5.893  10.015   0.572 -0.2756  0.2658  0.2435
    8CHTO  H183 3065   5.816   9.940   0.550 -0.7755  1.0961 -0.8839
    8CHTO   C98 3066   6.008  10.006   0.471 -0.2767 -0.0483  0.2837
    8CHTO  H185 3067   6.090  10.077   0.486  0.6786 -1.3093  1.1433
    8CHTO   O67 3068   6.068   9.879   0.495 -0.4951  0.8236 -0.2167
    8CHTO  H167 3069   6.146   9.872   0.443 -0.7898  2.0576 -0.8708
    8CHTO  C102 3070   5.943  10.017   0.316  0.0376 -0.3339  0.5107
    8CHTO  H189 3071   5.886   9.924   0.296 -1.8626  1.5789 -3.5633
    8CHTO   N18 3072   6.050  10.021   0.213  0.2101 -0.2025 -0.2071
    8CHTO  H176 3073   6.095   9.924   0.200 -3.5144 -1.9957 -0.3488
    8CHTO  H177 3074   6.008  10.061   0.122 -1.0780 -0.5365  0.2296
    8CHTO  C105 3075   5.845  10.140   0.303 -0.4762 -0.3328  0.1624
    8CHTO  H192 3076   5.901  10.228   0.272  0.3180  0.7975  4.4628
    8CHTO   O65 3077   5.770  10.166   0.421 -0.4656  0.4259  0.6850
    8CHTO  C100 3078   5.814  10.151   0.549  0.9033  0.2939 -0.2962
    8CHTO  H187 3079   5.884  10.234   0.567  0.1983  0.8076  0.0964
    8CHTO  C107 3080   5.690  10.169   0.638  0.7712 -0.4279  0.0519
    8CHTO   O70 3081   5.570  10.096   0.605 -0.4012 -0.8227  0.1800
    8CHTO  H170 3082   5.496  10.133   0.649  0.6686  0.7119  0.7126
    8CHTO   O57 3083   5.745  10.111   0.197  0.9616 -0.3023  0.5426
    8CHTO   C85 3084   5.702  10.208   0.111  0.5760  0.0410  0.2510
    8CHTO  H157 3085   5.790  10.270   0.085 -0.7404  1.4318 -0.9697
    8CHTO   C83 3086   5.597  10.291   0.192  0.2115  0.1653  0.4397
    8CHTO  H155 3087   5.646  10.330   0.281  2.0158 -0.1856 -0.3794
    8CHTO   O56 3088   5.493  10.198   0.239  0.5439 -0.1107  0.0518
    8CHTO  H135 3089   5.523  10.145   0.310  1.4797  2.6386  1.7723
    8CHTO   C81 3090   5.545  10.401   0.097 -0.4637 -0.2728  0.1012
    8CHTO  H153 3091   5.633  10.452   0.055 -0.6262 -0.5395 -0.5722
    8CHTO   N14 3092   5.472  10.504   0.176 -0.3930 -0.7790  0.1868
    8CHTO  H141 3093   5.499  10.495   0.279  2.0970 -2.0631 -0.5519
    8CHTO  H142 3094   5.367  10.486   0.167 -0.5010  0.5938 -1.6663
    8CHTO   C79 3095   5.463  10.347  -0.026 -0.6612  0.1007  0.9710
    8CHTO  H151 3096   5.441  10.429  -0.094 -0.3710 -0.1476  0.5747
    8CHTO   O52 3097   5.547  10.255  -0.094 -0.9833 -0.0026  0.5666
    8CHTO   C86 3098   5.630  10.153  -0.023  0.7884 -0.2612  0.2251
    8CHTO  H158 3099   5.564  10.064  -0.008  2.0059 -1.2434 -0.2090
    8CHTO   C90 3100   5.734  10.104  -0.124  0.4474  0.3026 -1.0280
    8CHTO   O60 3101   5.817  10.003  -0.065 -0.1481 -0.0951  0.1253
    8CHTO  H138 3102   5.847  10.035   0.018  0.1542 -0.8198  0.2976
    8CHTO   O50 3103   5.339  10.281   0.013  0.2458 -0.0349  0.1099
    8CHTO   C73 3104   5.207  10.257  -0.039 -0.5201 -0.6432 -0.2648
    8CHTO  H145 3105   5.204  10.222  -0.144 -1.2982  0.3072 -0.5655
    8CHTO   C74 3106   5.117  10.386  -0.039 -0.2072  0.0965  0.6638
    8CHTO  H146 3107   5.165  10.464  -0.100  1.8886 -0.2912  1.7628
    8CHTO   O54 3108   4.992  10.344  -0.103 -0.0308  0.5730  0.2530
    8CHTO  H133 3109   5.008  10.325  -0.193  1.7584  0.2071  0.6375
    8CHTO   C75 3110   5.092  10.429   0.111 -0.4397 -0.1493  0.4301
    8CHTO  H147 3111   5.187  10.453   0.160  0.3811 -1.5852 -0.4352
    8CHTO   N13 3112   5.002  10.547   0.128  0.5415 -0.1267  0.2865
    8CHTO  H139 3113   4.987  10.563   0.234  0.2479  2.0153 -0.0509
    8CHTO  H140 3114   5.046  10.636   0.085  1.4659 -0.1334  1.1964
    8CHTO   C76 3115   5.032  10.304   0.185  0.1278 -0.2526  0.3412
    8CHTO  H148 3116   4.936  10.278   0.140 -0.4888  1.2975  0.7109
    8CHTO   O49 3117   5.115  10.192   0.182 -0.7220 -0.5916 -0.6350
    8CHTO   C77 3118   5.129  10.147   0.047 -0.4562 -0.4845 -0.0536
    8CHTO  H149 3119   5.035  10.121  -0.002  0.0526 -1.9575 -0.2739
    8CHTO   C88 3120   5.208  10.026   0.051  0.0254  0.2678 -0.5285
    8CHTO   O58 3121   5.197   9.963  -0.103  0.5408 -0.2337  0.5449
    8CHTO  H136 3122   5.137   9.891  -0.107 -0.7027  0.7748  0.7558
    8CHTO   O51 3123   5.013  10.341   0.352 -0.9755 -0.5372 -0.1148
    8CHTO   C78 3124   5.033  10.236   0.474 -0.3877  0.1183 -0.2209
    8CHTO  H150 3125   5.049  10.136   0.428 -0.5498  0.0914 -0.2186
    8CHTO   C80 3126   4.905  10.231   0.566  0.4248  0.2485 -0.1527
    8CHTO  H152 3127   4.871  10.333   0.591 -2.9895 -1.3505  2.0390
    8CHTO   O55 3128   4.802  10.167   0.490 -0.3619  0.4593  0.1466
    8CHTO  H134 3129   4.720  10.180   0.535  0.1361  1.4615  0.8138
    8CHTO   C84 3130   4.924  10.157   0.704  0.1710  0.0525  0.5695
    8CHTO  H156 3131   4.947  10.052   0.687  0.7557  0.4414 -1.0510
    8CHTO   N15 3132   4.809  10.170   0.791  0.0517 -0.0402  0.2839
    8CHTO  H143 3133   4.774  10.076   0.828 -0.5231  0.1086  0.1225
    8CHTO  H144 3134   4.835  10.233   0.874  1.6342  0.7804 -0.8070
    8CHTO   C87 3135   5.054  10.216   0.768  0.4704 -0.2421  0.2464
    8CHTO  H159 3136   5.054  10.322   0.796  1.3012 -0.0143 -0.5702
    8CHTO   O53 3137   5.171  10.193   0.675  0.0072  0.1278  0.2848
    8CHTO   C82 3138   5.158  10.276   0.560 -0.1242  0.0815 -0.0520
    8CHTO  H154 3139   5.154  10.378   0.600 -0.2115 -0.2951  0.9168
    8CHTO   C89 3140   5.291  10.257   0.480  0.0725  0.1068  0.4753
    8CHTO   O59 3141   5.404  10.312   0.544  1.1821  0.8679 -0.2718
    8CHTO  H137 3142   5.469  10.246   0.556  2.6052  2.5088  1.3926
    8CHTO   O45 3143   5.083  10.138   0.902 -0.2567 -0.0814 -0.1251
    8CHTO   C67 3144   5.144  10.008   0.893 -0.3790 -0.1950 -0.2160
    8CHTO  H124 3145   5.106   9.958   0.804  3.5987 -0.2272 -2.0024
    8CHTO   C65 3146   5.303  10.013   0.889  1.1335 -0.0196  1.0491
    8CHTO  H122 3147   5.320  10.119   0.904  2.7581  0.3594 -2.7490
    8CHTO   O44 3148   5.341   9.985   0.750  0.7098 -0.3845 -0.0123
    8CHTO  H102 3149   5.342   9.893   0.737 -0.2476 -0.4499  0.3534
    8CHTO   C63 3150   5.372   9.930   1.003 -1.0658 -0.5357  0.3339
    8CHTO  H120 3151   5.346   9.977   1.098  0.9215 -1.0533  1.1472
    8CHTO   N11 3152   5.521   9.940   1.022  0.0774  0.0324 -0.2359
    8CHTO  H108 3153   5.571   9.975   0.935  1.2990 -0.6415  0.1725
    8CHTO  H109 3154   5.551   9.997   1.108  0.6687  0.4411 -0.7085
    8CHTO   C61 3155   5.314   9.790   1.012 -0.0053 -0.5951  0.1881
    8CHTO  H118 3156   5.348   9.740   1.105  0.2477 -0.4955  0.1484
    8CHTO   O40 3157   5.170   9.794   1.018 -0.2163 -0.1125 -0.6319
    8CHTO   C68 3158   5.096   9.919   1.012  0.3020  0.0947  0.0153
    8CHTO  H125 3159   5.116   9.980   1.103 -0.3961 -0.8269  0.8018
    8CHTO   C72 3160   4.943   9.890   1.013  0.2503 -0.2496  0.3028
    8CHTO   O48 3161   4.887   9.805   0.917  0.1369 -0.2140  0.7053
    8CHTO  H105 3162   4.907   9.714   0.931  0.5431 -0.1609  0.4632
    8CHTO   O38 3163   5.351   9.710   0.899  0.0794  0.5537 -0.4806
    8CHTO   C55 3164   5.319   9.571   0.917  0.8903 -0.8097 -0.8304
    8CHTO  H112 3165   5.257   9.553   1.006  0.0945 -0.0540 -1.2325
    8CHTO   C56 3166   5.461   9.496   0.926 -0.9115 -0.4488  0.3315
    8CHTO  H113 3167   5.527   9.534   0.847 -0.3342  1.3802  1.6558
    8CHTO   O42 3168   5.551   9.544   1.030 -0.2038 -0.5863 -0.1213
    8CHTO  H100 3169   5.509   9.567   1.111 -0.9922 -0.6410 -0.5080
    8CHTO   C57 3170   5.452   9.332   0.929  0.0213  0.2074 -0.1197
    8CHTO  H114 3171   5.411   9.308   1.027  0.0051  2.3976  0.4351
    8CHTO   N10 3172   5.585   9.258   0.909  0.7601  0.3639 -0.5681
    8CHTO  H106 3173   5.558   9.174   0.845 -1.7513  0.9645 -0.3213
    8CHTO  H107 3174   5.621   9.221   1.004 -1.2195  0.5556  0.2770
    8CHTO   C58 3175   5.341   9.293   0.828  0.1325  0.0662  0.5022
    8CHTO  H115 3176   5.393   9.282   0.730  0.7829 -0.9148  0.9497
    8CHTO   O37 3177   5.223   9.379   0.815  0.3109  0.1397  0.5215
    8CHTO   C59 3178   5.243   9.518   0.789 -0.4027 -0.0824 -0.2498
    8CHTO  H116 3179   5.301   9.547   0.701 -1.2904  0.6527 -0.6070
    8CHTO   C70 3180   5.108   9.577   0.761  0.1371 -0.2740  0.0147
    8CHTO   O46 3181   5.053   9.523   0.644 -0.3176  0.3271  0.3419
    8CHTO  H103 3182   4.960   9.535   0.648 -0.7043 -0.9990 -2.9907
    8CHTO   O39 3183   5.290   9.150   0.880  0.2674 -0.5121 -0.1085
    8CHTO   C60 3184   5.153   9.139   0.907 -0.1158  0.7783 -0.3858
    8CHTO  H117 3185   5.121   9.235   0.948 -1.4257 -0.1695  0.8971
    8CHTO   C62 3186   5.063   9.100   0.784  0.3484 -0.0989  0.3489
    8CHTO  H119 3187   5.084   9.184   0.715  1.6875  0.5443  1.5143
    8CHTO   O43 3188   5.107   8.976   0.734 -0.1862  0.1196 -0.9548
    8CHTO  H101 3189   5.184   8.989   0.682  0.8596 -1.2873  0.1992
    8CHTO   C66 3190   4.903   9.109   0.825  0.0413 -0.4156 -0.2005
    8CHTO  H123 3191   4.880   9.209   0.863 -0.2833 -0.3923 -0.4502
    8CHTO   N12 3192   4.823   9.102   0.698 -0.1707 -0.2817 -0.5726
    8CHTO  H110 3193   4.719   9.124   0.720  0.5283  2.5005  0.1526
    8CHTO  H111 3194   4.850   9.014   0.641  0.2367 -0.8215  0.4435
    8CHTO   C69 3195   4.869   8.998   0.925  0.1363  0.0265 -0.2800
    8CHTO  H126 3196   4.889   8.900   0.877 -1.6319  1.2339 -3.6172
    8CHTO   O41 3197   4.959   9.013   1.048 -0.0352  0.8071 -0.0875
    8CHTO   C64 3198   5.122   9.034   1.021  0.8098  0.4743  0.6647
    8CHTO  H121 3199   5.171   8.939   0.991  1.3975  1.2537 -0.8841
    8CHTO   C71 3200   5.187   9.069   1.156 -1.0459  0.2395 -0.0167
    8CHTO   O47 3201   5.330   9.064   1.138 -0.5179  0.2069 -0.3942
    8CHTO  H104 3202   5.366   9.005   1.075 -2.8094 -0.5858 -1.0205
    8CHTO   O34 3203   4.719   9.001   0.957  0.0188 -0.0691  0.0041
    8CHTO   C49 3204   4.644   9.075   1.073 -0.4160 -1.0032  0.1525
    8CHTO   H91 3205   4.640   8.999   1.151 -3.8287 -0.0565  1.0153
    8CHTO   C47 3206   4.502   9.122   1.028 -0.7302 -0.1680  0.4011
    8CHTO   H89 3207   4.463   9.176   1.117 -0.0566  0.8867  0.0594
    8CHTO   O33 3208   4.423   9.006   1.008  0.3911 -0.0601 -0.4754
    8CHTO   H70 3209   4.355   8.986   1.069 -0.9139  1.7156 -1.3124
    8CHTO   C45 3210   4.519   9.223   0.907 -0.4964 -0.4584  0.4592
    8CHTO   H87 3211   4.594   9.174   0.843 -0.1979 -0.1384  0.5641
    8CHTO    N8 3212   4.400   9.237   0.819 -0.2658  1.0455  0.7265
    8CHTO   H75 3213   4.384   9.135   0.790  0.0689  1.5402 -1.2362
    8CHTO   H76 3214   4.432   9.293   0.733 -1.7251  1.2635  0.3085
    8CHTO   C43 3215   4.588   9.356   0.963 -0.1584 -0.2004  0.3089
    8CHTO   H85 3216   4.619   9.419   0.880 -1.1375 -1.2674 -0.8769
    8CHTO   O29 3217   4.696   9.322   1.048  0.4336  0.7503 -0.9559
    8CHTO   C50 3218   4.722   9.206   1.120  0.3381 -0.4212 -0.1082
    8CHTO   H92 3219   4.831   9.189   1.126  0.4398  0.1906 -0.2241
    8CHTO   C54 3220   4.694   9.224   1.268  0.1423 -0.3318  0.1230
    8CHTO   O36 3221   4.796   9.307   1.331 -0.1967  0.1849 -0.0869
    8CHTO   H72 3222   4.839   9.248   1.389 -1.6535 -0.5684  0.2588
    8CHTO   O27 3223   4.497   9.439   1.037 -0.4365 -0.0648 -0.5050
    8CHTO   C37 3224   4.445   9.563   1.094 -0.8172  0.6664  0.3648
    8CHTO   H79 3225   4.383   9.544   1.183 -3.6681  0.5939 -1.5598
    8CHTO   C38 3226   4.550   9.667   1.146  0.0015 -0.0659  0.1478
    8CHTO   H80 3227   4.631   9.681   1.073  1.5126  0.2842  1.8604
    8CHTO   O31 3228   4.605   9.613   1.265  0.3375  0.3293  0.0131
    8CHTO   H68 3229   4.682   9.565   1.241  0.6142  1.2342 -0.9624
    8CHTO   C39 3230   4.492   9.807   1.175 -0.4608 -0.0005 -1.0848
    8CHTO   H81 3231   4.426   9.777   1.257 -0.9120 -2.4121 -2.2683
    8CHTO    N7 3232   4.590   9.912   1.228 -0.0338  0.4083  0.7322
    8CHTO   H73 3233   4.537  10.006   1.229 -0.1679  0.3372  0.1654
    8CHTO   H74 3234   4.647   9.883   1.315  0.6403 -2.7699 -0.6779
    8CHTO   C40 3235   4.410   9.859   1.052 -0.5772  0.7574 -0.2761
    8CHTO   H82 3236   4.477   9.866   0.966  0.6456  0.6213  0.6434
    8CHTO   O26 3237   4.306   9.762   1.025 -1.1339  0.2552 -0.5643
    8CHTO   C41 3238   4.353   9.632   0.981 -0.1159 -0.0728 -0.0093
    8CHTO   H83 3239   4.418   9.640   0.893 -1.3213  0.0383 -0.9104
    8CHTO   C52 3240   4.229   9.546   0.938 -0.1153 -0.5105  0.2544
    8CHTO   O35 3241   4.149   9.595   0.834 -0.0585 -0.5901  0.0267
    8CHTO   H71 3242   4.170   9.686   0.821  0.4570 -0.9264 -1.6752
    8CHTO   O28 3243   4.335   9.982   1.078  0.1664 -0.0621  0.2359
    8CHTO   C42 3244   4.274  10.068   0.976 -0.7032  0.2699 -0.1600
    8CHTO   H84 3245   4.210  10.140   1.027  0.7263  0.7696  0.9665
    8CHTO   C44 3246   4.178  10.000   0.875 -0.4047 -0.6450  0.0903
    8CHTO   H86 3247   4.226   9.925   0.812 -1.8582 -0.6454 -1.0540
    8CHTO   O32 3248   4.079   9.937   0.952 -0.1060 -1.0874 -0.2406
    8CHTO   H69 3249   4.030   9.867   0.914  0.9213 -1.7985 -0.2866
    8CHTO   C48 3250   4.114  10.091   0.765  0.5131 -0.3004  0.5621
    8CHTO   H90 3251   4.051  10.172   0.801 -1.3120 -2.3333  2.0393
    8CHTO    N9 3252   4.033  10.010   0.662  0.1690 -0.3258 -0.4694
    8CHTO   H77 3253   4.084   9.941   0.596 -0.3106 -1.6034  0.4751
    8CHTO   H78 3254   3.958   9.965   0.726 -0.0792  0.6765 -0.0500
    8CHTO   C51 3255   4.228  10.172   0.687 -0.6887  0.6928  0.6603
    8CHTO   H93 3256   4.302  10.100   0.651  1.7380  1.7264  3.4073
    8CHTO   O30 3257   4.289  10.255   0.785  0.4577 -0.0164 -0.1239
    8CHTO   C46 3258   4.373  10.154   0.892 -0.5999 -0.0054 -0.2831
    8CHTO   H88 3259   4.434  10.087   0.832 -0.9509 -1.1486  0.6419
    8CHTO   C53 3260   4.457  10.252   0.982  0.6279  1.0949 -0.0034
    8CHTO   O72 3261   4.558  10.317   0.905 -0.3534  0.3647 -0.2045
    8CHTO  H199 3262   4.604  10.389   0.943  2.4124 -1.1349 -0.5600
    8CHTO   O22 3263   4.196  10.266   0.582 -0.3427 -0.0715 -0.2403
    8CHTO   C31 3264   4.266  10.292   0.455  0.4232 -0.3710 -0.3905
    8CHTO   H59 3265   4.193  10.346   0.391  0.0058 -0.6245 -0.1335
    8CHTO   C29 3266   4.380  10.393   0.476 -0.6993 -0.3348 -0.3419
    8CHTO   H57 3267   4.435  10.355   0.563  0.2777 -0.8196 -1.1567
    8CHTO   O21 3268   4.318  10.516   0.515  0.2861 -0.0179  0.0173
    8CHTO   H37 3269   4.315  10.579   0.445  2.3638  2.1680  1.8026
    8CHTO   C27 3270   4.487  10.409   0.360 -0.9176 -0.5932 -0.2291
    8CHTO   H55 3271   4.442  10.467   0.279 -2.1220 -1.6442 -0.3317
    8CHTO    N5 3272   4.616  10.476   0.399  0.7379 -0.0823  0.3489
    8CHTO   H43 3273   4.654  10.540   0.321  0.9798 -1.1589 -0.4266
    8CHTO   H44 3274   4.597  10.538   0.485  0.3924  0.1357  0.1161
    8CHTO   C25 3275   4.514  10.267   0.296 -0.1944  0.0006 -0.0764
    8CHTO   H53 3276   4.575  10.205   0.363  0.8851  0.1931 -0.8555
    8CHTO   O17 3277   4.387  10.202   0.262 -0.6152 -0.5674 -0.3310
    8CHTO   C32 3278   4.305  10.168   0.374  0.1421 -0.5879  0.1646
    8CHTO   H60 3279   4.360  10.100   0.439  0.6624 -0.8069 -0.4966
    8CHTO   C36 3280   4.187  10.104   0.310 -0.1149  0.6695  0.0724
    8CHTO   O25 3281   4.212   9.974   0.264  0.0900  0.1355  0.5010
    8CHTO   H40 3282   4.172   9.957   0.181  2.0795 -0.6507 -0.3193
    8CHTO   O15 3283   4.597  10.256   0.161  0.0404  0.0124 -0.2192
    8CHTO   C19 3284   4.591  10.190   0.033 -0.1529 -0.8055  0.2159
    8CHTO   H47 3285   4.492  10.143   0.029 -0.1357 -0.8793  0.6415
    8CHTO   C20 3286   4.609  10.286  -0.090  0.1269 -0.5524  0.2327
    8CHTO   H48 3287   4.693  10.355  -0.076  1.2570 -1.5761 -1.1996
    8CHTO   O19 3288   4.485  10.360  -0.102 -0.2057  0.3182  0.3270
    8CHTO   H35 3289   4.503  10.429  -0.162  0.8860 -1.8979 -2.0072
    8CHTO   C21 3290   4.640  10.206  -0.224  0.5444 -0.3585 -0.7061
    8CHTO   H49 3291   4.545  10.157  -0.249  1.0984 -1.4785 -0.6009
    8CHTO    N4 3292   4.675  10.302  -0.332 -0.2268 -0.1528 -0.6828
    8CHTO   H41 3293   4.756  10.366  -0.299 -0.0700 -0.8340  0.2485
    8CHTO   H42 3294   4.596  10.365  -0.370  0.3596  0.5547 -0.7510
    8CHTO   C22 3295   4.746  10.097  -0.197  0.0032  0.1240 -0.6827
    8CHTO   H50 3296   4.843  10.139  -0.171  0.5933 -0.0118 -2.5800
    8CHTO   O14 3297   4.699  10.007  -0.093 -0.4775  0.6175 -0.4193
    8CHTO   C23 3298   4.693  10.071   0.034  0.2396 -0.1566 -0.2953
    8CHTO   H51 3299   4.795  10.106   0.058 -0.1849 -0.1070  1.5001
    8CHTO   C34 3300   4.660   9.969   0.141  0.3438  0.2502  0.4406
    8CHTO   O23 3301   4.560   9.878   0.100 -0.0018 -0.0190  0.0904
    8CHTO   H38 3302   4.599   9.792   0.100 -0.4484 -0.2301 -1.0521
    8CHTO   O16 3303   4.763  10.006  -0.308  0.5018 -0.2924  0.8187
    8CHTO   C24 3304   4.898   9.917  -0.317 -0.7844 -0.1811  0.0937
    8CHTO   H52 3305   4.940   9.895  -0.219 -2.4473  0.5797  0.9941
    8CHTO   C26 3306   5.004   9.990  -0.398  0.2994  0.7619 -0.1704
    8CHTO   H54 3307   4.961  10.034  -0.490 -1.2100  0.5167  0.3921
    8CHTO   O20 3308   5.047  10.103  -0.321  0.2554 -0.7990 -0.7412
    8CHTO   H36 3309   5.060  10.178  -0.374  1.5966 -0.1507  0.4639
    8CHTO   C30 3310   5.123   9.902  -0.438  0.7253  0.8765 -0.2409
    8CHTO   H58 3311   5.166   9.871  -0.342 -1.8651 -0.5411  0.4834
    8CHTO    N6 3312   5.218   9.971  -0.524  0.1389  0.1946  0.1335
    8CHTO   H45 3313   5.298   9.903  -0.549  0.6075  1.2766 -1.3740
    8CHTO   H46 3314   5.173   9.991  -0.620  4.4036 -0.2397 -2.0802
    8CHTO   C33 3315   5.063   9.775  -0.503  0.5168 -0.4649  0.0904
    8CHTO   H61 3316   5.021   9.800  -0.601 -0.4594  2.8867  1.2892
    8CHTO   O18 3317   4.967   9.709  -0.422  0.2849 -0.4059  0.0476
    8CHTO   C28 3318   4.852   9.788  -0.385 -0.1507 -0.7066 -0.6711
    8CHTO   H56 3319   4.780   9.807  -0.463 -2.2058  1.2932  1.6159
    8CHTO   C35 3320   4.779   9.713  -0.278 -0.3201 -0.2802  0.1522
    8CHTO   O24 3321   4.660   9.770  -0.220  0.6904 -0.3709  0.2733
    8CHTO   H39 3322   4.637   9.741  -0.135  1.0169  0.9900  0.8477
    8CHTO    O9 3323   5.174   9.685  -0.543 -0.2043 -0.5680  0.2238
    8CHTO   C13 3324   5.109   9.542  -0.655  0.3744  0.6764  0.8565
    8CHTO   H26 3325   5.012   9.574  -0.699 -0.7244 -1.2236  1.8234
    8CHTO   C11 3326   5.087   9.412  -0.556  0.3928  0.1577 -0.4933
    8CHTO   H24 3327   4.979   9.408  -0.534  0.6476 -2.3667  0.3686
    8CHTO    O8 3328   5.170   9.411  -0.436 -0.6547  0.4142  0.3957
    8CHTO    H3 3329   5.118   9.454  -0.372  1.1231  1.1485  1.3714
    8CHTO    C9 3330   5.105   9.282  -0.636  0.7498  0.3937  1.1288
    8CHTO   H22 3331   5.045   9.295  -0.727  1.1492 -0.6743  0.7036
    8CHTO    N2 3332   5.043   9.165  -0.573 -0.4593 -0.1540 -0.5118
    8CHTO   H10 3333   4.953   9.137  -0.627 -1.1704 -1.3476  1.2393
    8CHTO   H11 3334   5.023   9.190  -0.470  1.5405  0.3521 -0.2214
    8CHTO    C7 3335   5.247   9.263  -0.691  0.1893  0.5094  0.6551
    8CHTO   H20 3336   5.242   9.196  -0.780 -0.2923  1.6440 -0.1792
    8CHTO    O4 3337   5.301   9.393  -0.720 -0.2016 -0.0115 -0.3831
    8CHTO   C14 3338   5.217   9.505  -0.767 -0.3442  0.6265  0.7704
    8CHTO   H27 3339   5.159   9.474  -0.856  0.7622  1.2682 -0.1922
    8CHTO   C18 3340   5.311   9.625  -0.809  0.1621 -0.3509  0.7642
    8CHTO   O13 3341   5.395   9.596  -0.920  0.5518 -0.2332  0.1287
    8CHTO    H7 3342   5.483   9.619  -0.898  0.4709 -0.9571  1.2464
    8CHTO    O2 3343   5.342   9.199  -0.592  0.2050  0.5146  0.8934
    8CHTO    C1 3344   5.484   9.202  -0.626 -0.8411 -0.1307 -0.0804
    8CHTO   H14 3345   5.522   9.299  -0.664  2.3579 -0.8803  1.0081
    8CHTO    C2 3346   5.528   9.094  -0.731  0.6280  0.4602  0.1182
    8CHTO   H15 3347   5.487   9.003  -0.686 -1.5225  1.1784 -0.3327
    8CHTO    O6 3348   5.476   9.106  -0.868  0.6919 -0.3183 -0.3977
    8CHTO    H1 3349   5.534   9.080  -0.937  1.4452  1.1283 -0.3244
    8CHTO    C3 3350   5.684   9.081  -0.737 -0.2139  0.2276 -0.6285
    8CHTO   H16 3351   5.733   9.164  -0.789  2.6328  0.4264  2.1629
    8CHTO    N1 3352   5.734   8.964  -0.812 -0.4785  0.4662  1.0081
    8CHTO    H8 3353   5.665   8.882  -0.812  0.1649 -0.2051 -3.1919
    8CHTO    H9 3354   5.832   8.941  -0.772  0.5947  1.1282 -1.1287
    8CHTO    C4 3355   5.740   9.083  -0.588  0.2831 -0.3472 -0.5397
    8CHTO   H17 3356   5.698   8.996  -0.537  0.3916 -0.8199 -1.2495
    8CHTO    O1 3357   5.701   9.194  -0.517  0.1823 -0.7199  0.5370
    8CHTO    C5 3358   5.559   9.193  -0.492  0.1937  0.5854 -0.7497
    8CHTO   H18 3359   5.521   9.101  -0.447  2.9884 -0.6504 -0.7818
    8CHTO   C16 3360   5.530   9.312  -0.397 -0.5618  0.1949 -0.1349
    8CHTO   O11 3361   5.595   9.296  -0.270  0.6597 -0.0100  0.4803
    8CHTO    H5 3362   5.687   9.289  -0.282  0.4494  0.3854 -1.4820
    8CHTO    O3 3363   5.885   9.092  -0.588 -0.1617 -0.1521  0.4621
    8CHTO    C6 3364   5.952   9.042  -0.467  0.1580  0.6292 -0.0429
    8CHTO   H19 3365   5.882   9.045  -0.384  0.4096  0.0846  0.1879
    8CHTO    C8 3366   6.004   8.901  -0.484  0.1912  0.2684 -0.0288
    8CHTO   H21 3367   6.077   8.900  -0.565 -0.7038  0.3039 -0.8498
    8CHTO    O7 3368   5.892   8.810  -0.515  0.7142 -0.4964  0.1821
    8CHTO    H2 3369   5.848   8.799  -0.433 -0.5411  1.7423 -0.1526
    8CHTO   C12 3370   6.079   8.856  -0.353 -0.2000 -0.6735 -0.5657
    8CHTO   H25 3371   5.989   8.845  -0.289 -1.2925 -1.7220 -2.2647
    8CHTO    N3 3372   6.134   8.714  -0.371  0.8788  0.7336 -0.0335
    8CHTO   H12 3373   6.199   8.695  -0.288 -0.6840  0.2723  1.1124
    8CHTO   H13 3374   6.042   8.657  -0.363  1.8370 -0.5651  2.0384
    8CHTO   C15 3375   6.178   8.962  -0.298  0.1997 -0.4071 -0.0098
    8CHTO   H28 3376   6.268   8.963  -0.360 -0.3429  0.5265 -0.8051
    8CHTO   O10 3377   6.220   8.918  -0.147  0.4431  0.1019  0.0791
    8CHTO    H4 3378   6.301   8.959  -0.122 -0.0514  0.6118  0.8329
    8CHTO    O5 3379   6.116   9.091  -0.293  0.0732  0.4152 -0.1206
    8CHTO   C10 3380   6.076   9.129  -0.428 -0.1399 -0.4876 -0.5391
    8CHTO   H23 3381   6.155   9.119  -0.502  0.2662  0.6179 -0.2633
    8CHTO   C17 3382   6.048   9.277  -0.421 -0.5549 -0.0730 -0.0154
    8CHTO   O12 3383   5.935   9.310  -0.337  0.0678  0.4606  0.0390
    8CHTO    H6 3384   5.917   9.401  -0.325 -0.7147  0.0677  2.1532
    9CHTO  H203 3385   7.882   3.819   1.039  0.5248  4.4825  2.0363
    9CHTO   O82 3386   7.973   3.801   1.027 -0.4636 -0.0546  0.2546
    9CHTO  C123 3387   8.039   3.914   0.967 -0.2416  0.1838 -0.1656
    9CHTO  H227 3388   8.045   4.001   1.033  0.6480 -0.6926  0.9182
    9CHTO   O77 3389   8.179   3.871   0.953  0.0523  0.1923  0.7314
    9CHTO  C118 3390   8.259   3.983   0.919  0.0124  0.4695 -1.2532
    9CHTO  H222 3391   8.236   4.062   0.991  0.2686 -1.0438  0.5173
    9CHTO  C125 3392   8.408   3.955   0.929  0.3687 -0.2149 -0.4036
    9CHTO   O84 3393   8.455   3.960   1.065  0.7605  0.3196 -0.4285
    9CHTO  H205 3394   8.465   3.872   1.096  0.4789  0.8450  1.1765
    9CHTO  C114 3395   8.225   4.027   0.774 -0.8419  0.6022 -1.0651
    9CHTO  H218 3396   8.239   3.937   0.713  1.2230  0.7370 -0.8341
    9CHTO  C116 3397   8.076   4.072   0.771 -0.3674  0.6039 -0.2820
    9CHTO  H220 3398   8.079   4.166   0.829  1.7714  0.5436 -0.2519
    9CHTO   O79 3399   8.040   4.099   0.631  0.1375  0.6690 -0.5166
    9CHTO  H201 3400   8.081   4.034   0.578  0.3408 -0.2352  0.7356
    9CHTO  C120 3401   7.984   3.956   0.829  0.1176  1.0389  0.6934
    9CHTO  H224 3402   7.987   3.865   0.766  2.0869 -0.5982  3.0689
    9CHTO   N21 3403   7.853   4.017   0.850 -0.3585  0.7210  0.5858
    9CHTO  H211 3404   7.833   4.097   0.781  0.5998  1.6828  1.4064
    9CHTO  H212 3405   7.776   3.941   0.849  1.1181 -0.7886  0.0733
    9CHTO   O75 3406   8.316   4.126   0.723  0.7965  0.3732 -0.3388
    9CHTO  C112 3407   8.351   4.094   0.540 -0.4525  0.6892  0.4410
    9CHTO  H216 3408   8.261   4.118   0.480  0.0920  0.3997 -0.5012
    9CHTO   O73 3409   8.384   3.955   0.527 -0.1573  0.0288 -0.7010
    9CHTO  C113 3410   8.431   3.901   0.404 -0.0599 -0.7806  0.7102
    9CHTO  H217 3411   8.349   3.902   0.329 -0.1939 -0.5639  0.8610
    9CHTO  C124 3412   8.479   3.757   0.423 -0.2307  0.2820 -0.1316
    9CHTO   O83 3413   8.600   3.750   0.496  0.1037 -0.0262 -0.0632
    9CHTO  H204 3414   8.628   3.661   0.510 -5.3772 -1.4648  3.2594
    9CHTO  C109 3415   8.540   3.987   0.339  0.1455  0.2330 -0.0783
    9CHTO  H213 3416   8.631   3.978   0.399  1.0580  1.8759 -1.1555
    9CHTO  C110 3417   8.495   4.139   0.332  0.2160  0.0305  0.5369
    9CHTO  H214 3418   8.404   4.156   0.274  0.9326 -0.5666 -0.7850
    9CHTO   O78 3419   8.601   4.216   0.267  0.1368  0.2420  0.1217
    9CHTO  H200 3420   8.629   4.285   0.324 -0.8333 -0.5121  1.5486
    9CHTO  C111 3421   8.466   4.180   0.474  0.5167 -0.1510 -0.0119
    9CHTO  H215 3422   8.559   4.167   0.532  0.9832  0.0196 -0.7205
    9CHTO   N19 3423   8.435   4.325   0.483  0.6548 -0.2390  0.4789
    9CHTO  H207 3424   8.486   4.388   0.555  2.4180 -0.4735 -0.5454
    9CHTO  H208 3425   8.333   4.333   0.517  1.2904  2.7575  1.8486
    9CHTO   O74 3426   8.563   3.938   0.201  0.1406  0.1448  0.0955
    9CHTO  C115 3427   8.697   3.876   0.160 -0.1757 -0.2881 -0.0392
    9CHTO  H219 3428   8.784   3.925   0.203  1.0577 -1.3308 -1.2746
    9CHTO   O76 3429   8.709   3.722   0.200  0.5384 -0.6977 -0.1535
    9CHTO  C122 3430   8.632   3.634   0.115 -0.4265 -0.6093 -0.2361
    9CHTO  H226 3431   8.525   3.653   0.121 -0.1902  1.2457 -1.6011
    9CHTO  C126 3432   8.651   3.488   0.171  0.5719 -0.4887 -0.4609
    9CHTO   O85 3433   8.616   3.456   0.305 -0.2431  0.1900 -0.3872
    9CHTO  H206 3434   8.692   3.465   0.360  0.1258 -2.2367 -0.4377
    9CHTO  C121 3435   8.668   3.648  -0.040  0.1484 -0.0973  0.0025
    9CHTO  H225 3436   8.777   3.636  -0.053  0.7040  2.0732  2.1293
    9CHTO   O81 3437   8.594   3.552  -0.121  0.0994 -0.3282 -0.0549
    9CHTO  H202 3438   8.524   3.596  -0.166  1.2818  1.4602 -0.2153
    9CHTO  C119 3439   8.630   3.798  -0.075  0.0823  0.4191  0.5801
    9CHTO  H223 3440   8.643   3.810  -0.182  1.4113  0.7888  0.7787
    9CHTO  C117 3441   8.721   3.900   0.005  0.1771  0.2918 -0.2889
    9CHTO  H221 3442   8.703   4.007   0.015 -1.6772 -0.0075 -0.1568
    9CHTO   N20 3443   8.866   3.894  -0.045 -0.1376 -0.2592  0.0055
    9CHTO  H209 3444   8.887   3.804  -0.101 -2.7389  0.1801 -1.7176
    9CHTO  H210 3445   8.899   3.993  -0.071 -2.0703  0.5448  0.5121
    9CHTO   O80 3446   8.487   3.837  -0.064  0.0909 -0.1770 -0.3151
    9CHTO  C103 3447   8.421   3.933  -0.181 -0.5708  0.7986 -0.6895
    9CHTO  H190 3448   8.319   3.962  -0.157 -1.5701 -1.9818 -1.3603
    9CHTO  C101 3449   8.508   4.061  -0.223 -0.6292 -0.2937  0.6059
    9CHTO  H188 3450   8.611   4.031  -0.240 -0.4947  0.0301  0.8287
    9CHTO   O68 3451   8.511   4.146  -0.108  0.4358 -0.6234 -0.6068
    9CHTO  H168 3452   8.587   4.128  -0.056  0.4182 -0.4929 -0.5370
    9CHTO   C99 3453   8.459   4.133  -0.361  0.7133  0.4000  1.2488
    9CHTO  H186 3454   8.369   4.196  -0.346  0.0467 -0.8291  2.5003
    9CHTO   N17 3455   8.563   4.223  -0.418  0.1003  0.1152  0.4186
    9CHTO  H174 3456   8.553   4.317  -0.366  1.8824 -0.9727  2.8552
    9CHTO  H175 3457   8.660   4.178  -0.402 -0.3193 -0.9137  0.1439
    9CHTO   C97 3458   8.424   4.024  -0.467  0.1415 -0.5163 -0.1403
    9CHTO  H184 3459   8.515   3.983  -0.513 -0.0385 -0.6377 -0.3836
    9CHTO   O64 3460   8.341   3.925  -0.417  0.1363 -0.0769  0.3330
    9CHTO  C104 3461   8.403   3.842  -0.314 -0.1197 -0.2211  0.2984
    9CHTO  H191 3462   8.500   3.799  -0.339  1.2795  2.0517  1.5900
    9CHTO  C108 3463   8.312   3.722  -0.288  0.0178 -0.0852  0.4728
    9CHTO   O71 3464   8.185   3.756  -0.227 -0.6569 -0.4795  0.5128
    9CHTO  H171 3465   8.121   3.712  -0.279 -0.8347 -0.3340  0.6075
    9CHTO   O62 3466   8.347   4.089  -0.571  0.0938  0.0724 -0.2938
    9CHTO   C91 3467   8.337   4.028  -0.702 -0.8351 -0.6216  0.3095
    9CHTO  H178 3468   8.404   3.942  -0.705  1.4640  1.1356 -0.9461
    9CHTO   C92 3469   8.385   4.124  -0.815 -0.0790 -0.9815 -0.0172
    9CHTO  H179 3470   8.484   4.157  -0.779 -0.6137  1.4677 -0.7273
    9CHTO   O66 3471   8.418   4.046  -0.933 -0.5861  0.7136  0.3165
    9CHTO  H166 3472   8.499   3.999  -0.929 -1.3368 -0.3748  3.1532
    9CHTO   C93 3473   8.290   4.238  -0.845  0.2712  0.2373  0.2658
    9CHTO  H180 3474   8.302   4.262  -0.951  0.0997  2.7942  0.7965
    9CHTO   N16 3475   8.320   4.361  -0.775  0.1891 -0.4884  0.0124
    9CHTO  H172 3476   8.413   4.409  -0.801  1.0503 -1.7808  0.6851
    9CHTO  H173 3477   8.236   4.425  -0.798 -0.6603 -0.3507  3.3004
    9CHTO   C94 3478   8.144   4.197  -0.821 -0.2338 -0.3375 -0.6541
    9CHTO  H181 3479   8.111   4.222  -0.720 -0.3983  1.8285 -1.2157
    9CHTO   O61 3480   8.126   4.063  -0.835 -0.2482 -0.2061 -0.6042
    9CHTO   C95 3481   8.189   3.986  -0.731 -0.3262 -0.2179 -0.2754
    9CHTO  H182 3482   8.128   3.983  -0.641  1.2635 -1.8223  0.7835
    9CHTO  C106 3483   8.171   3.843  -0.787 -0.2592  1.1428  0.8131
    9CHTO   O69 3484   8.192   3.745  -0.686  0.3647 -0.5394 -0.8695
    9CHTO  H169 3485   8.275   3.702  -0.692  0.3667 -0.4294 -1.6209
    9CHTO   O63 3486   8.063   4.267  -0.923 -0.7407 -0.0750 -1.0125
    9CHTO   C96 3487   7.905   4.315  -0.884 -0.4488  0.3678 -0.3203
    9CHTO  H183 3488   7.909   4.339  -0.777 -1.1648 -0.1662 -0.1698
    9CHTO   C98 3489   7.790   4.214  -0.915 -0.5483  0.0527 -0.2308
    9CHTO  H185 3490   7.805   4.171  -1.015 -0.3239 -0.0612 -0.1476
    9CHTO   O67 3491   7.814   4.099  -0.830 -0.1615  0.2686  0.1934
    9CHTO  H167 3492   7.819   4.126  -0.740 -0.9601  0.2276  0.2578
    9CHTO  C102 3493   7.638   4.274  -0.890 -0.0531 -0.4162 -0.3042
    9CHTO  H189 3494   7.617   4.268  -0.782 -0.3080  0.3388 -0.3065
    9CHTO   N18 3495   7.528   4.190  -0.963 -0.0534  0.2523  0.5930
    9CHTO  H176 3496   7.430   4.231  -0.940 -0.2238 -0.4450  1.1304
    9CHTO  H177 3497   7.546   4.193  -1.069  0.6074  1.1868  0.7287
    9CHTO  C105 3498   7.635   4.422  -0.921 -0.1644  0.3544  0.0300
    9CHTO  H192 3499   7.601   4.438  -1.023 -3.0473 -1.0032  0.7308
    9CHTO   O65 3500   7.752   4.501  -0.901 -0.5275 -0.0100  0.0301
    9CHTO  C100 3501   7.880   4.446  -0.950  0.2455  0.8869 -0.3673
    9CHTO  H187 3502   7.880   4.410  -1.054 -0.6705  0.1274 -0.1079
    9CHTO  C107 3503   7.991   4.556  -0.939  0.0145 -0.3514  0.3860
    9CHTO   O70 3504   8.101   4.520  -1.024 -0.0661 -0.0997  0.4054
    9CHTO  H170 3505   8.146   4.598  -1.052 -1.4362  0.1109 -1.3108
    9CHTO   O57 3506   7.532   4.477  -0.823  0.5983  0.2214 -0.3576
    9CHTO   C85 3507   7.477   4.607  -0.831 -0.6561 -0.3509 -0.4686
    9CHTO  H157 3508   7.477   4.631  -0.939 -3.0957 -1.6070 -0.7776
    9CHTO   C83 3509   7.572   4.711  -0.757 -0.1276  0.2150 -0.0116
    9CHTO  H155 3510   7.671   4.713  -0.801 -0.4764  1.5703 -0.7635
    9CHTO   O56 3511   7.595   4.662  -0.623 -0.1658 -0.3133 -0.7025
    9CHTO  H135 3512   7.644   4.718  -0.566 -1.1935  1.1721 -1.2753
    9CHTO   C81 3513   7.512   4.853  -0.763  0.0190 -0.6294  0.0429
    9CHTO  H153 3514   7.504   4.881  -0.868 -1.4246 -0.5705  0.1580
    9CHTO   N14 3515   7.609   4.954  -0.704  0.4066 -0.3642 -0.0588
    9CHTO  H141 3516   7.568   5.007  -0.620 -3.3042 -0.5892 -1.6314
    9CHTO  H142 3517   7.633   5.023  -0.783  0.9053 -1.0638 -0.5198
    9CHTO   C79 3518   7.366   4.852  -0.697  1.0025  0.3369  0.2050
    9CHTO  H151 3519   7.321   4.951  -0.710 -0.2675 -0.2457  0.1251
    9CHTO   O52 3520   7.275   4.753  -0.761  0.2384 -0.3239 -0.0361
    9CHTO   C86 3521   7.336   4.611  -0.769  0.0018  0.1820  0.1640
    9CHTO  H158 3522   7.351   4.574  -0.666  1.3739  1.9833  0.6164
    9CHTO   C90 3523   7.240   4.510  -0.834  0.7731 -0.2385  0.4802
    9CHTO   O60 3524   7.213   4.548  -0.971  0.0140  0.2794 -0.0569
    9CHTO  H138 3525   7.277   4.514  -1.031 -0.5355  0.1064 -0.5596
    9CHTO   O50 3526   7.371   4.835  -0.558 -0.2281  0.4691 -0.3806
    9CHTO   C73 3527   7.303   4.861  -0.428 -0.1712  0.0157 -0.2924
    9CHTO  H145 3528   7.199   4.825  -0.435 -0.9860  2.0967  0.6827
    9CHTO   C74 3529   7.297   5.008  -0.398  0.7428 -0.0347 -1.0004
    9CHTO  H146 3530   7.244   5.061  -0.478 -1.3001  0.1945  0.4848
    9CHTO   O54 3531   7.215   5.037  -0.281  0.0643 -0.6663  0.0124
    9CHTO  H133 3532   7.123   5.040  -0.298  0.1179  1.0869 -0.0600
    9CHTO   C75 3533   7.447   5.056  -0.383 -0.3522  0.7282  0.1739
    9CHTO  H147 3534   7.498   5.036  -0.479 -0.2798 -1.0545  0.5550
    9CHTO   N13 3535   7.467   5.200  -0.360 -0.1550  0.0749  0.6946
    9CHTO  H139 3536   7.416   5.266  -0.429 -1.8545 -1.3741  0.5106
    9CHTO  H140 3537   7.455   5.235  -0.259 -2.5825  3.1846 -0.5928
    9CHTO   C76 3538   7.531   4.963  -0.284 -0.4613 -0.7920  0.3412
    9CHTO  H148 3539   7.500   4.986  -0.182 -1.3440 -1.4458  0.2235
    9CHTO   O49 3540   7.510   4.823  -0.301 -0.1245 -0.1451  0.0520
    9CHTO   C77 3541   7.373   4.782  -0.314 -0.3844  0.1930 -0.4606
    9CHTO  H149 3542   7.314   4.792  -0.223 -0.9509 -1.8817 -0.5775
    9CHTO   C88 3543   7.382   4.631  -0.345  0.5651  0.2432  0.3055
    9CHTO   O58 3544   7.274   4.565  -0.293 -0.3225  0.1170 -0.1011
    9CHTO  H136 3545   7.295   4.481  -0.258 -0.5242  1.4258  3.2906
    9CHTO   O51 3546   7.698   4.997  -0.303  0.1287  0.3345 -0.2092
    9CHTO   C78 3547   7.806   4.942  -0.181 -0.0089  0.1871 -0.3629
    9CHTO  H150 3548   7.752   4.892  -0.099 -0.3229 -0.1762 -0.7906
    9CHTO   C80 3549   7.889   5.072  -0.133  0.6665 -0.3745 -0.2896
    9CHTO  H152 3550   7.934   5.117  -0.224  2.2674 -3.2045 -0.9827
    9CHTO   O55 3551   7.804   5.159  -0.061 -0.0473  0.3679 -0.0923
    9CHTO  H134 3552   7.848   5.238  -0.038  2.8727 -0.9399 -0.8689
    9CHTO   C84 3553   8.000   5.030  -0.032  0.4258  0.0152 -0.7060
    9CHTO  H156 3554   7.962   5.010   0.069 -0.4734 -1.6407 -1.3524
    9CHTO   N15 3555   8.104   5.134  -0.011  0.3060  1.2151  0.5259
    9CHTO  H143 3556   8.064   5.214   0.048 -1.3403  1.4303 -0.8580
    9CHTO  H144 3557   8.149   5.169  -0.101  1.2671  0.7066  0.8055
    9CHTO   C87 3558   8.077   4.899  -0.073 -0.2439  0.0357 -0.3949
    9CHTO  H159 3559   8.148   4.920  -0.153 -0.5107 -1.1589 -0.9577
    9CHTO   O53 3560   7.984   4.791  -0.126  0.3018 -0.0262 -0.4066
    9CHTO   C82 3561   7.909   4.843  -0.238 -0.6071  0.3696  0.1730
    9CHTO  H154 3562   7.976   4.899  -0.304  1.4571  0.8210  2.5810
    9CHTO   C89 3563   7.851   4.719  -0.324  0.1964  0.3313  0.2257
    9CHTO   O59 3564   7.787   4.625  -0.238  0.6307 -0.0795  0.8244
    9CHTO  H137 3565   7.716   4.582  -0.282  0.6092 -0.6691  1.4113
    9CHTO   O45 3566   8.155   4.833   0.043  0.0433  0.4451  0.3612
    9CHTO   C67 3567   8.196   4.693   0.032 -0.3646  0.3759  0.2642
    9CHTO  H124 3568   8.135   4.641  -0.043  0.5262 -0.3195  0.0199
    9CHTO   C65 3569   8.345   4.688  -0.013  0.5274 -0.3075  0.5601
    9CHTO  H122 3570   8.398   4.779   0.015  0.9921 -0.9210  1.7055
    9CHTO   O44 3571   8.333   4.684  -0.155  0.0539  0.3094 -0.5659
    9CHTO  H102 3572   8.408   4.728  -0.187 -1.0782  2.3044 -0.5309
    9CHTO   C63 3573   8.420   4.568   0.058  0.6689 -0.4476  0.5318
    9CHTO  H120 3574   8.449   4.601   0.158  1.1400  0.1906  0.1935
    9CHTO   N11 3575   8.549   4.526  -0.007  0.1297  0.1732 -0.3396
    9CHTO  H108 3576   8.636   4.581   0.023  0.3114  1.1381 -2.5155
    9CHTO  H109 3577   8.560   4.420   0.000 -2.8559 -0.1605 -0.1965
    9CHTO   C61 3578   8.321   4.445   0.075 -0.5819  0.1697  0.2821
    9CHTO  H118 3579   8.382   4.364   0.119  1.4138  1.0058 -0.9000
    9CHTO   O40 3580   8.228   4.490   0.179 -0.1901 -0.0885 -0.4326
    9CHTO   C68 3581   8.171   4.624   0.176 -0.4181  0.7784 -0.0821
    9CHTO  H125 3582   8.222   4.688   0.252  0.1163  1.4037 -0.9605
    9CHTO   C72 3583   8.018   4.621   0.211  0.4374 -0.2294 -0.1286
    9CHTO   O48 3584   7.965   4.752   0.218  0.6570 -0.0406 -0.1719
    9CHTO  H105 3585   7.971   4.784   0.305 -0.2966  1.4057 -0.6195
    9CHTO   O38 3586   8.258   4.390  -0.041 -0.3203  0.0082  0.3423
    9CHTO   C55 3587   8.140   4.305  -0.043  0.1814  0.3445 -0.2766
    9CHTO  H112 3588   8.047   4.355  -0.015  0.1617 -0.3340  0.9128
    9CHTO   C56 3589   8.165   4.176   0.046  0.4012  0.0592 -0.5343
    9CHTO  H113 3590   8.260   4.130   0.014  0.1449 -0.3775 -0.6771
    9CHTO   O42 3591   8.170   4.213   0.182 -0.1262 -0.3704  0.4494
    9CHTO  H100 3592   8.156   4.136   0.234 -0.5354 -0.6619 -0.0774
    9CHTO   C57 3593   8.054   4.062   0.026 -0.3183 -0.3393  0.1129
    9CHTO  H114 3594   7.966   4.104   0.076  0.1931  1.3282 -0.3533
    9CHTO   N10 3595   8.086   3.935   0.089  0.0091  0.0808 -0.3110
    9CHTO  H106 3596   8.111   3.960   0.191 -0.9239 -2.3911  0.5471
    9CHTO  H107 3597   8.003   3.866   0.091 -0.2633  0.4256  0.6717
    9CHTO   C58 3598   8.022   4.044  -0.125 -0.3850  0.6840 -0.0116
    9CHTO  H115 3599   8.095   3.973  -0.169 -1.6062  0.4360 -1.6827
    9CHTO   O37 3600   8.021   4.163  -0.204  0.0634  0.0686  0.3718
    9CHTO   C59 3601   8.128   4.255  -0.191  0.5231 -0.0092  0.4088
    9CHTO  H116 3602   8.223   4.209  -0.218  0.0644  0.1276 -1.4776
    9CHTO   C70 3603   8.085   4.371  -0.278  0.0073  0.1027  0.8517
    9CHTO   O46 3604   8.181   4.470  -0.314  0.0339 -0.2886  0.2714
    9CHTO  H103 3605   8.177   4.542  -0.254 -1.4180  1.6368 -2.0521
    9CHTO   O39 3606   7.865   3.988  -0.143 -1.0669  0.0313 -0.4111
    9CHTO   C60 3607   7.850   3.847  -0.163  0.0819  0.5958  0.7526
    9CHTO  H117 3608   7.945   3.797  -0.144  0.9258  1.6796 -0.5924
    9CHTO   C62 3609   7.739   3.798  -0.062  0.4927 -1.0067 -0.2736
    9CHTO  H119 3610   7.782   3.812   0.040  1.3571 -1.2967 -0.5993
    9CHTO   O43 3611   7.614   3.878  -0.073 -0.0364  0.7800  0.2020
    9CHTO  H101 3612   7.545   3.829  -0.032 -0.1092  2.0642  1.6704
    9CHTO   C66 3613   7.723   3.643  -0.085 -0.6457  1.0184  0.2875
    9CHTO  H123 3614   7.824   3.602  -0.086 -0.6620  0.9416  1.8376
    9CHTO   N12 3615   7.656   3.572   0.022 -0.6551 -0.1613 -0.0120
    9CHTO  H110 3616   7.700   3.574   0.121  0.2517  1.4137 -0.4334
    9CHTO  H111 3617   7.549   3.589   0.019 -1.0684 -2.8601 -2.6429
    9CHTO   C69 3618   7.660   3.617  -0.227  0.0916 -0.1713  0.8912
    9CHTO  H126 3619   7.573   3.684  -0.241 -0.4732 -1.4693 -2.3657
    9CHTO   O41 3620   7.769   3.661  -0.338  0.1663 -0.0771 -0.2653
    9CHTO   C64 3621   7.811   3.819  -0.314 -0.1996 -0.3373  0.5142
    9CHTO  H121 3622   7.729   3.889  -0.340  1.1830  1.3812  0.6767
    9CHTO   C71 3623   7.931   3.844  -0.408  0.5880 -0.2585  0.3871
    9CHTO   O47 3624   7.899   3.818  -0.543  0.2523 -0.2074 -0.4433
    9CHTO  H104 3625   7.917   3.727  -0.556 -0.3992 -0.2390 -1.1512
    9CHTO   O34 3626   7.636   3.445  -0.252  0.0389  0.0423  0.0671
    9CHTO   C49 3627   7.638   3.363  -0.344  0.5060 -0.2370 -0.0903
    9CHTO   H91 3628   7.583   3.396  -0.433  0.9122 -0.4552 -0.4227
    9CHTO   C47 3629   7.587   3.227  -0.289  0.0345 -0.1613 -1.4632
    9CHTO   H89 3630   7.580   3.170  -0.384  0.5121  0.1356 -1.6763
    9CHTO   O33 3631   7.456   3.226  -0.230  0.0409 -0.3945  0.1812
    9CHTO   H70 3632   7.412   3.143  -0.237 -0.8280 -0.0241  1.1466
    9CHTO   C45 3633   7.688   3.151  -0.182  0.4119  0.5059 -0.0737
    9CHTO   H87 3634   7.637   3.157  -0.084  2.1668  0.5341  0.8607
    9CHTO    N8 3635   7.692   3.004  -0.217  0.1890  0.4319  0.0573
    9CHTO   H75 3636   7.759   2.950  -0.152  1.8134  1.7559 -0.4786
    9CHTO   H76 3637   7.594   2.960  -0.201  1.3862 -2.7680 -1.1453
    9CHTO   C43 3638   7.831   3.230  -0.179  0.0452  0.0929  0.2866
    9CHTO   H85 3639   7.820   3.327  -0.130 -0.6296  0.6992 -1.0564
    9CHTO   O29 3640   7.868   3.240  -0.316  0.3510 -0.2952  0.3106
    9CHTO   C50 3641   7.793   3.341  -0.384  0.0886 -0.2637 -0.6701
    9CHTO   H92 3642   7.834   3.443  -0.373 -1.2980  0.5146 -2.4689
    9CHTO   C54 3643   7.822   3.327  -0.537 -0.2901  0.4312 -0.5662
    9CHTO   O36 3644   7.746   3.428  -0.611 -0.6464 -0.4783 -0.0436
    9CHTO   H72 3645   7.733   3.409  -0.702  2.4737 -0.6358 -0.4922
    9CHTO   O27 3646   7.934   3.169  -0.100  0.2550 -0.1495 -0.1497
    9CHTO   C37 3647   7.993   3.197   0.022  0.6572  0.0041  0.3204
    9CHTO   H79 3648   8.051   3.107   0.049  0.7476  0.2365  0.9106
    9CHTO   C38 3649   8.076   3.330   0.007 -0.1449 -0.1246 -0.3181
    9CHTO   H80 3650   8.019   3.411  -0.039 -0.9734  0.4001  1.5722
    9CHTO   O31 3651   8.183   3.298  -0.087  0.5366  0.1436 -0.3649
    9CHTO   H68 3652   8.233   3.376  -0.101  0.5255  0.3027  0.4753
    9CHTO   C39 3653   8.113   3.394   0.144  0.2909 -0.0910 -0.3170
    9CHTO   H81 3654   8.186   3.330   0.195 -0.8557  0.2026  1.7322
    9CHTO    N7 3655   8.184   3.518   0.121 -0.1132  0.0069 -0.1655
    9CHTO   H73 3656   8.217   3.569   0.210  4.1192 -1.8308 -0.5607
    9CHTO   H74 3657   8.147   3.590   0.049  0.0685 -0.7726 -1.0569
    9CHTO   C40 3658   7.985   3.412   0.239 -0.8266  0.3362 -0.2596
    9CHTO   H82 3659   7.923   3.488   0.192  0.9376  2.2473  0.4258
    9CHTO   O26 3660   7.920   3.284   0.257 -0.4380 -0.3939 -0.0122
    9CHTO   C41 3661   7.881   3.223   0.135 -0.8308 -0.1171 -0.1578
    9CHTO   H83 3662   7.801   3.284   0.091  0.4593  1.4834 -0.3427
    9CHTO   C52 3663   7.805   3.096   0.188 -0.1981 -0.2878 -0.9171
    9CHTO   O35 3664   7.671   3.146   0.249  0.2040 -0.3655  0.7599
    9CHTO   H71 3665   7.677   3.179   0.336 -2.4895 -0.3300  0.9442
    9CHTO   O28 3666   8.011   3.459   0.367  0.3949  0.5535 -0.1141
    9CHTO   C42 3667   7.901   3.542   0.423 -0.4106 -0.2170 -0.5971
    9CHTO   H84 3668   7.930   3.531   0.528 -0.9590 -2.8158 -0.6822
    9CHTO   C44 3669   7.753   3.489   0.420  0.0367 -0.3393  0.9087
    9CHTO   H86 3670   7.730   3.450   0.321 -1.4160 -1.1107  1.5228
    9CHTO   O32 3671   7.757   3.367   0.499 -0.6587  0.7428 -0.2636
    9CHTO   H69 3672   7.802   3.382   0.580  1.7036 -0.0578 -1.3867
    9CHTO   C48 3673   7.640   3.588   0.460 -0.4199 -0.4372 -0.0161
    9CHTO   H90 3674   7.643   3.588   0.569  0.0767  1.6290  0.0010
    9CHTO    N9 3675   7.504   3.531   0.426  0.1127 -0.2776 -0.0522
    9CHTO   H77 3676   7.494   3.440   0.482  0.9257  0.5488  1.4590
    9CHTO   H78 3677   7.501   3.515   0.319 -1.2283  0.6344 -0.1646
    9CHTO   C51 3678   7.662   3.733   0.406  0.5220  0.5745  0.0814
    9CHTO   H93 3679   7.657   3.719   0.298  1.6906 -1.4578  0.2600
    9CHTO   O30 3680   7.791   3.772   0.446  0.5706 -0.2618 -0.2809
    9CHTO   C46 3681   7.908   3.697   0.386 -0.0311  0.1536 -0.3245
    9CHTO   H88 3682   7.894   3.699   0.278  0.5075 -0.9271 -0.4190
    9CHTO   C53 3683   8.041   3.752   0.437  0.2629  0.2022 -0.1346
    9CHTO   O72 3684   8.058   3.758   0.581 -1.0452  0.2017  0.2241
    9CHTO  H199 3685   8.003   3.826   0.614 -1.4658 -0.5213  1.0515
    9CHTO   O22 3686   7.584   3.846   0.451 -0.2016  0.0526  0.2010
    9CHTO   C31 3687   7.570   3.970   0.374 -0.1289 -0.7341 -0.0072
    9CHTO   H59 3688   7.491   4.034   0.418  1.6777  2.1630 -0.8350
    9CHTO   C29 3689   7.699   4.053   0.379 -0.3046  0.6858  0.1858
    9CHTO   H57 3690   7.789   4.001   0.342  1.0521 -0.0263  4.1611
    9CHTO   O21 3691   7.738   4.080   0.517 -0.2017 -0.1366  0.0961
    9CHTO   H37 3692   7.827   4.107   0.532 -0.8335  2.1715 -0.0848
    9CHTO   C27 3693   7.686   4.189   0.295 -0.3902  0.0583 -0.1827
    9CHTO   H55 3694   7.602   4.251   0.331 -0.1673  0.9631 -1.2048
    9CHTO    N5 3695   7.813   4.273   0.307 -0.0403 -0.0053 -0.3586
    9CHTO   H43 3696   7.796   4.358   0.372  2.8475 -0.6712  1.3645
    9CHTO   H44 3697   7.902   4.212   0.312 -0.5585 -0.8978 -1.9508
    9CHTO   C25 3698   7.654   4.150   0.149  0.1479 -0.2077 -0.4250
    9CHTO   H53 3699   7.742   4.103   0.103  0.8790  0.5473  0.1843
    9CHTO   O17 3700   7.532   4.071   0.147  0.4382 -0.1139  0.0320
    9CHTO   C32 3701   7.538   3.947   0.219 -0.1834  0.1492  0.6307
    9CHTO   H60 3702   7.615   3.886   0.171  0.7026  1.8499 -0.1810
    9CHTO   C36 3703   7.396   3.876   0.211 -0.2596  0.4311 -0.0007
    9CHTO   O25 3704   7.376   3.816   0.084 -0.0729 -0.9045  0.5037
    9CHTO   H40 3705   7.443   3.759   0.052  1.8153  2.2401 -1.5262
    9CHTO   O15 3706   7.620   4.289   0.065  0.4594 -0.7424 -0.3323
    9CHTO   C19 3707   7.571   4.302  -0.070  0.2268 -0.0490  0.0591
    9CHTO   H47 3708   7.573   4.411  -0.085 -1.1895 -0.1677 -1.0584
    9CHTO   C20 3709   7.666   4.241  -0.179 -0.3965 -0.2913 -0.4420
    9CHTO   H48 3710   7.694   4.137  -0.157 -0.2681 -0.0036  0.7784
    9CHTO   O19 3711   7.780   4.328  -0.156  0.4839 -0.6047  0.4396
    9CHTO   H35 3712   7.857   4.279  -0.135  1.1784  0.0361 -0.5235
    9CHTO   C21 3713   7.622   4.262  -0.328  0.2446 -0.2336 -0.2980
    9CHTO   H49 3714   7.617   4.369  -0.350  1.3556 -0.2528 -0.6698
    9CHTO    N4 3715   7.715   4.202  -0.423 -0.3973  0.0380  0.0592
    9CHTO   H41 3716   7.721   4.095  -0.409  2.4323 -0.1272 -1.9894
    9CHTO   H42 3717   7.811   4.244  -0.398  0.9934 -0.7776 -3.6340
    9CHTO   C22 3718   7.473   4.213  -0.327  0.6639 -0.9537 -0.2399
    9CHTO   H50 3719   7.477   4.106  -0.305 -0.7418 -0.8282  0.6903
    9CHTO   O14 3720   7.388   4.282  -0.236  0.6994 -0.1035  0.4859
    9CHTO   C23 3721   7.424   4.263  -0.099  0.1817 -0.3015 -0.2310
    9CHTO   H51 3722   7.402   4.161  -0.067  1.3117 -0.3321  0.4856
    9CHTO   C34 3723   7.322   4.321  -0.007  0.4634  0.0089 -0.7349
    9CHTO   O23 3724   7.293   4.460  -0.024  0.0769  0.5834  0.4516
    9CHTO   H38 3725   7.370   4.512  -0.028  0.1414  0.3538 -1.6008
    9CHTO   O16 3726   7.416   4.238  -0.458 -0.2626  0.4777  0.2363
    9CHTO   C24 3727   7.307   4.124  -0.504  0.8428 -0.5773  0.7191
    9CHTO   H52 3728   7.271   4.063  -0.421  0.3813 -2.1133 -0.6031
    9CHTO   C26 3729   7.374   4.023  -0.607 -0.4179  0.1255 -0.2530
    9CHTO   H54 3730   7.430   4.084  -0.681  0.3619  0.6230  0.7404
    9CHTO   O20 3731   7.474   3.942  -0.543  0.4821  0.2186  0.0253
    9CHTO   H36 3732   7.545   3.994  -0.508 -0.2238  0.8307  0.5545
    9CHTO   C30 3733   7.273   3.931  -0.682 -0.0394 -0.0864  0.2237
    9CHTO   H58 3734   7.255   3.845  -0.616 -2.0263  0.7956  0.8609
    9CHTO    N6 3735   7.328   3.881  -0.810  0.2970 -0.5220 -0.3643
    9CHTO   H45 3736   7.270   3.797  -0.844  0.4524 -1.3356  1.3464
    9CHTO   H46 3737   7.432   3.855  -0.821 -0.0327 -1.0135 -2.4766
    9CHTO   C33 3738   7.134   4.003  -0.709 -0.2380 -0.0436 -0.3214
    9CHTO   H61 3739   7.142   4.071  -0.795 -0.6161 -1.9076 -1.8569
    9CHTO   O18 3740   7.092   4.084  -0.597 -0.6177 -0.2719 -0.6600
    9CHTO   C28 3741   7.183   4.189  -0.578 -0.5903 -0.3859 -0.5136
    9CHTO   H56 3742   7.214   4.220  -0.678 -0.2172 -0.0988 -0.3071
    9CHTO   C35 3743   7.134   4.305  -0.488  0.3555 -1.0872  0.6056
    9CHTO   O24 3744   7.023   4.379  -0.541  0.4762  0.2060 -0.0668
    9CHTO   H39 3745   7.063   4.452  -0.584 -0.0462  0.4439 -0.1609
    9CHTO    O9 3746   7.029   3.916  -0.748  0.2567  0.8670 -0.4114
    9CHTO   C13 3747   6.902   3.997  -0.835 -0.1669  0.0163 -0.3021
    9CHTO   H26 3748   6.937   4.048  -0.927  0.3093 -1.0156 -0.6994
    9CHTO   C11 3749   6.839   4.102  -0.726 -0.1799 -0.2657 -0.2292
    9CHTO   H24 3750   6.910   4.185  -0.712  1.8786 -1.7220 -1.8372
    9CHTO    O8 3751   6.810   4.044  -0.602  0.5568  0.0584 -0.4277
    9CHTO    H3 3752   6.755   3.970  -0.619  0.7030 -0.0431 -0.4559
    9CHTO    C9 3753   6.713   4.169  -0.796 -0.1871  0.3091  0.3878
    9CHTO   H22 3754   6.748   4.202  -0.895 -3.7208 -2.0356 -1.7725
    9CHTO    N2 3755   6.661   4.288  -0.719  0.3463  0.2904  0.3498
    9CHTO   H10 3756   6.630   4.361  -0.793  0.2507 -0.1198 -0.0181
    9CHTO   H11 3757   6.714   4.335  -0.637 -0.8777 -1.9664  2.4809
    9CHTO    C7 3758   6.611   4.060  -0.821  0.6441 -0.1663  0.0742
    9CHTO   H20 3759   6.519   4.108  -0.860  0.3572 -0.7511  0.0187
    9CHTO    O4 3760   6.655   3.955  -0.904 -0.4850 -0.1602 -0.5436
    9CHTO   C14 3761   6.785   3.896  -0.888 -0.6434 -0.0217 -0.1583
    9CHTO   H27 3762   6.816   3.864  -0.990  0.5395 -2.6884  0.9721
    9CHTO   C18 3763   6.775   3.768  -0.808  0.6302  0.0000 -0.4446
    9CHTO   O13 3764   6.685   3.680  -0.867 -0.5351 -0.4301  0.0899
    9CHTO    H7 3765   6.594   3.699  -0.854 -0.1683  0.6703  1.0822
    9CHTO    O2 3766   6.559   3.996  -0.686 -0.0991 -0.2961  0.1431
    9CHTO    C1 3767   6.418   3.981  -0.659 -0.1762 -0.1655 -1.1100
    9CHTO   H14 3768   6.403   3.897  -0.587  0.0329 -1.6832 -2.7967
    9CHTO    C2 3769   6.322   3.945  -0.780 -0.4224 -0.0291  0.5003
    9CHTO   H15 3770   6.320   4.018  -0.862  0.9621 -1.6057 -0.9777
    9CHTO    O6 3771   6.362   3.818  -0.837  0.2840  0.3488 -0.2876
    9CHTO    H1 3772   6.318   3.817  -0.920 -1.4089  0.3906  0.5987
    9CHTO    C3 3773   6.181   3.930  -0.716  0.6139  0.4642 -0.1229
    9CHTO   H16 3774   6.199   3.851  -0.643 -1.3623 -0.3798 -0.5299
    9CHTO    N1 3775   6.071   3.891  -0.803 -0.0101 -0.0181  0.1067
    9CHTO    H8 3776   5.999   3.819  -0.766  1.5957 -1.3230  0.7705
    9CHTO    H9 3777   6.031   3.963  -0.872  2.0521 -1.0908 -2.2886
    9CHTO    C4 3778   6.132   4.059  -0.633  0.0031  0.1961  0.1104
    9CHTO   H17 3779   6.104   4.139  -0.701 -1.4694 -0.2029  0.2461
    9CHTO    O1 3780   6.234   4.099  -0.545 -0.0794 -0.7238  0.4308
    9CHTO    C5 3781   6.369   4.108  -0.593 -0.6513 -0.4092 -0.4452
    9CHTO   H18 3782   6.373   4.190  -0.664  0.0991  0.2559  0.3571
    9CHTO   C16 3783   6.452   4.143  -0.468  0.2742 -0.3105  0.2249
    9CHTO   O11 3784   6.430   4.284  -0.434  0.5064  0.0734 -0.3534
    9CHTO    H5 3785   6.508   4.320  -0.395  0.4619  1.7229 -1.7062
    9CHTO    O3 3786   6.014   4.023  -0.546 -0.3808 -0.1069 -1.0510
    9CHTO    C6 3787   5.912   4.123  -0.537  0.2002 -0.2412  0.0389
    9CHTO   H19 3788   5.921   4.199  -0.614  2.2518 -0.8711 -0.3758
    9CHTO    C8 3789   5.766   4.078  -0.580 -1.0969  0.0601  0.0183
    9CHTO   H21 3790   5.747   3.983  -0.531  1.2705 -0.6548 -0.3498
    9CHTO    O7 3791   5.769   4.067  -0.723 -0.1890  0.0241  0.1800
    9CHTO    H2 3792   5.683   4.044  -0.754 -1.0450  1.8273  1.1200
    9CHTO   C12 3793   5.663   4.180  -0.528 -0.2767  0.2098 -0.7082
    9CHTO   H25 3794   5.677   4.272  -0.588  1.0850  1.7207  1.8506
    9CHTO    N3 3795   5.528   4.136  -0.566 -0.0847 -0.2299  0.2195
    9CHTO   H12 3796   5.509   4.030  -0.573 -0.6862 -0.0582 -0.8394
    9CHTO   H13 3797   5.500   4.192  -0.654  0.1967 -0.8494 -0.2679
    9CHTO   C15 3798   5.684   4.216  -0.377 -0.0926  0.3886 -0.5441
    9CHTO   H28 3799   5.687   4.124  -0.318  1.2265  0.7750  0.0019
    9CHTO   O10 3800   5.590   4.335  -0.330  0.4458 -0.6974 -0.2420
    9CHTO    H4 3801   5.533   4.313  -0.258 -0.5689 -2.1198 -1.4499
    9CHTO    O5 3802   5.813   4.270  -0.363  0.2444  0.0832 -0.3639
    9CHTO   C10 3803   5.926   4.190  -0.398 -0.3499 -0.0823  0.3263
    9CHTO   H23 3804   5.928   4.109  -0.325  0.8586 -1.4393 -1.1822
    9CHTO   C17 3805   6.055   4.272  -0.386 -0.5604 -0.1399 -0.3570
    9CHTO   O12 3806   6.077   4.345  -0.258  0.0632  0.6149  0.3430
    9CHTO    H6 3807   6.053   4.433  -0.280 -0.7520  0.1724 -0.6328
   10CHTO  H203 3808   5.000   6.164   1.895  4.4443  2.5322 -0.4254
   10CHTO   O82 3809   4.970   6.252   1.904 -0.8392  0.8472  0.2769
   10CHTO  C123 3810   4.830   6.268   1.917  0.2751 -0.6033  0.1420
   10CHTO  H227 3811   4.777   6.231   1.828 -0.9855  0.0877  0.5949
   10CHTO   O77 3812   4.808   6.192   2.047 -0.2468 -0.3025 -0.5589
   10CHTO  C118 3813   4.667   6.200   2.082  0.0098  0.0509 -0.5759
   10CHTO  H222 3814   4.603   6.165   1.999 -0.3541  2.8127 -1.5293
   10CHTO  C125 3815   4.643   6.103   2.204 -0.0113 -0.4133  0.3509
   10CHTO   O84 3816   4.635   5.969   2.155 -0.9573  0.0189 -0.4982
   10CHTO  H205 3817   4.613   5.910   2.225 -1.2637 -0.4163 -0.9620
   10CHTO  C114 3818   4.634   6.342   2.124 -0.2132  0.0191 -0.4878
   10CHTO  H218 3819   4.700   6.372   2.205 -2.2101  0.8640  0.8637
   10CHTO  C116 3820   4.658   6.445   2.011 -0.4233  0.0423 -0.1032
   10CHTO  H220 3821   4.571   6.447   1.942 -1.2789 -2.9804  0.7894
   10CHTO   O79 3822   4.657   6.578   2.071 -0.2395  0.6213  0.3912
   10CHTO  H201 3823   4.569   6.608   2.085 -1.2476 -2.1622  0.4669
   10CHTO  C120 3824   4.798   6.420   1.944  0.3323  0.3645 -0.1812
   10CHTO  H224 3825   4.864   6.445   2.029  0.0407 -0.4984  0.2963
   10CHTO   N21 3826   4.817   6.506   1.823  0.4930 -0.3230 -0.0072
   10CHTO  H211 3827   4.723   6.537   1.780  0.3414  0.1581  0.6590
   10CHTO  H212 3828   4.868   6.598   1.849 -0.8187 -0.1720  2.1523
   10CHTO   O75 3829   4.500   6.332   2.175 -0.3567  0.6993  0.8836
   10CHTO  C112 3830   4.468   6.393   2.323  0.3072  0.2109 -0.1727
   10CHTO  H216 3831   4.559   6.448   2.354  1.4012 -0.1684 -2.5918
   10CHTO   O73 3832   4.447   6.286   2.409  0.2343 -0.5076 -0.0385
   10CHTO  C113 3833   4.411   6.314   2.542  0.4099 -0.8761 -0.8431
   10CHTO  H217 3834   4.492   6.366   2.597 -0.4008  0.0452 -0.5031
   10CHTO  C124 3835   4.373   6.183   2.608  0.3692 -0.3824 -0.0746
   10CHTO   O83 3836   4.460   6.070   2.593  0.4588 -0.0092  0.3623
   10CHTO  H204 3837   4.418   5.988   2.613 -0.1577 -0.1478 -1.4333
   10CHTO  C109 3838   4.286   6.408   2.551 -0.3714  0.2402  0.1683
   10CHTO  H213 3839   4.201   6.355   2.506 -1.0114 -0.7371  2.4414
   10CHTO  C110 3840   4.316   6.534   2.467  0.2005  0.3539  0.4727
   10CHTO  H214 3841   4.399   6.584   2.517 -0.8042 -0.1339  2.6937
   10CHTO   O78 3842   4.194   6.617   2.474  0.3260 -0.9652 -0.7088
   10CHTO  H200 3843   4.195   6.648   2.563  0.6650  0.8186 -1.3119
   10CHTO  C111 3844   4.348   6.489   2.319 -0.2261 -0.5150  0.2024
   10CHTO  H215 3845   4.265   6.429   2.280 -0.3454  0.2891 -0.8201
   10CHTO   N19 3846   4.364   6.612   2.231 -0.2298 -0.5851  0.1595
   10CHTO  H207 3847   4.465   6.609   2.194  0.0369 -0.4279  0.8660
   10CHTO  H208 3848   4.302   6.613   2.143 -2.1618 -0.2346  1.4966
   10CHTO   O74 3849   4.258   6.437   2.688  0.3145 -0.1467 -0.6545
   10CHTO  C115 3850   4.092   6.435   2.723 -0.2066  0.1251  0.0051
   10CHTO  H219 3851   4.036   6.483   2.642 -1.0687 -0.7001  0.1116
   10CHTO   O76 3852   4.031   6.287   2.734  0.3556 -0.1678 -0.1092
   10CHTO  C122 3853   4.027   6.238   2.868 -0.1519  0.1012  0.6592
   10CHTO  H226 3854   4.133   6.224   2.888  0.5655  3.0582 -0.8182
   10CHTO  C126 3855   3.965   6.096   2.883 -0.7424  0.1504 -0.4735
   10CHTO   O85 3856   3.955   6.039   3.017 -0.3091  0.0110 -0.1755
   10CHTO  H206 3857   4.039   6.019   3.054  0.3246  0.7643 -1.1740
   10CHTO  C121 3858   3.979   6.327   2.985  0.5541 -0.0257  0.5841
   10CHTO  H225 3859   3.884   6.284   3.024  1.5132 -2.0282  0.8153
   10CHTO   O81 3860   4.066   6.338   3.097 -0.0600 -0.3181 -0.1703
   10CHTO  H202 3861   4.030   6.390   3.166 -1.5321 -0.5280 -0.7707
   10CHTO  C119 3862   3.954   6.474   2.934  0.2467 -0.6248 -0.1622
   10CHTO  H223 3863   3.868   6.478   2.866  1.0681  0.1626 -1.1758
   10CHTO  C117 3864   4.075   6.533   2.850 -0.4567 -0.6286  0.2279
   10CHTO  H221 3865   4.174   6.525   2.896  0.3996 -0.5412 -1.5420
   10CHTO   N20 3866   4.063   6.679   2.820 -0.4697  0.1250 -0.1612
   10CHTO  H209 3867   4.145   6.723   2.874  0.4183 -2.4510  0.6615
   10CHTO  H210 3868   4.068   6.690   2.713 -2.3266 -0.7670 -0.3628
   10CHTO   O80 3869   3.897   6.582   3.049 -0.2998 -0.3546  0.0342
   10CHTO  C103 3870   3.744   6.584   3.095  0.7326  0.1938 -0.4690
   10CHTO  H190 3871   3.720   6.674   3.151  0.6824 -0.0272 -0.1381
   10CHTO  C101 3872   3.635   6.567   2.990 -0.4156  0.9885 -0.2374
   10CHTO  H188 3873   3.667   6.477   2.937 -0.6753  0.8239 -0.1162
   10CHTO   O68 3874   3.631   6.690   2.886  0.2394  1.0776  0.2088
   10CHTO  H168 3875   3.716   6.693   2.845 -0.4040  1.4904 -1.1199
   10CHTO   C99 3876   3.494   6.553   3.060 -0.5781 -0.4737  0.1321
   10CHTO  H186 3877   3.472   6.647   3.114  1.8136 -1.2043  2.4645
   10CHTO   N17 3878   3.386   6.507   2.962 -0.0730 -0.8055  0.0277
   10CHTO  H174 3879   3.412   6.415   2.912 -1.2823 -0.5419 -1.0959
   10CHTO  H175 3880   3.359   6.585   2.892 -0.8707  0.1590  1.3943
   10CHTO   C97 3881   3.495   6.449   3.176 -0.0593  0.1397 -0.4830
   10CHTO  H184 3882   3.479   6.344   3.147 -0.7019 -0.4209  1.7616
   10CHTO   O64 3883   3.606   6.469   3.267 -0.2463  0.0455 -0.0811
   10CHTO  C104 3884   3.736   6.468   3.200  0.7797 -0.0260 -0.1677
   10CHTO  H191 3885   3.759   6.375   3.148 -0.8571  0.2921 -1.4920
   10CHTO  C108 3886   3.849   6.483   3.309 -0.1974  0.3382 -0.0298
   10CHTO   O71 3887   3.832   6.605   3.386 -0.3717  0.2237  0.4825
   10CHTO  H171 3888   3.860   6.598   3.475  1.0652  1.0413  0.1038
   10CHTO   O62 3889   3.391   6.482   3.270 -0.5325 -0.1033  0.0235
   10CHTO   C91 3890   3.287   6.393   3.305 -0.2074 -0.0878 -0.6013
   10CHTO  H178 3891   3.258   6.343   3.212 -2.2327 -0.7653  0.3561
   10CHTO   C92 3892   3.175   6.477   3.356  0.1311 -0.6530  0.1139
   10CHTO  H179 3893   3.163   6.558   3.284  0.8297 -1.8334 -1.3565
   10CHTO   O66 3894   3.062   6.392   3.346 -0.0585  0.2820  0.1543
   10CHTO  H166 3895   3.004   6.410   3.276 -0.9439  1.2809  1.1272
   10CHTO   C93 3896   3.190   6.527   3.499 -0.3536  0.5625 -0.5431
   10CHTO  H180 3897   3.087   6.531   3.538  0.5245 -0.2405  1.9444
   10CHTO   N16 3898   3.246   6.661   3.518 -0.8276 -0.3847 -0.1795
   10CHTO  H172 3899   3.335   6.695   3.468 -1.2813 -1.0277 -1.4379
   10CHTO  H173 3900   3.269   6.679   3.622  1.3758 -2.5214 -0.2662
   10CHTO   C94 3901   3.277   6.423   3.593 -0.0412  0.2060 -0.7553
   10CHTO  H181 3902   3.382   6.455   3.598  0.1008 -0.4154  0.4389
   10CHTO   O61 3903   3.276   6.293   3.533  0.2327 -0.2190  0.2241
   10CHTO   C95 3904   3.342   6.282   3.409 -0.1846 -1.0075 -0.6562
   10CHTO  H182 3905   3.450   6.286   3.427 -0.3335  0.5684 -0.0270
   10CHTO  C106 3906   3.316   6.136   3.367 -0.1430 -0.8565  0.2590
   10CHTO   O69 3907   3.387   6.107   3.245  0.4476 -0.1444  0.2308
   10CHTO  H169 3908   3.341   6.039   3.199 -0.8899  1.9825 -1.6923
   10CHTO   O63 3909   3.223   6.422   3.756 -0.2770 -0.5700  0.0157
   10CHTO   C96 3910   3.345   6.437   3.861 -0.1788  0.2552  0.2021
   10CHTO  H183 3911   3.425   6.501   3.822  0.5333  0.5455  2.0771
   10CHTO   C98 3912   3.417   6.306   3.891  0.5490 -0.8906 -0.3813
   10CHTO  H185 3913   3.339   6.233   3.915 -0.2647 -0.6317 -2.1734
   10CHTO   O67 3914   3.491   6.250   3.775 -0.1805 -0.3063  0.2226
   10CHTO  H167 3915   3.555   6.313   3.749 -0.3769 -0.0582  0.3367
   10CHTO  C102 3916   3.521   6.326   4.016 -0.6417  0.3547  0.2671
   10CHTO  H189 3917   3.594   6.402   3.986 -1.7403  1.3210 -0.0043
   10CHTO   N18 3918   3.603   6.211   4.054 -0.5856  0.1073  0.1319
   10CHTO  H176 3919   3.658   6.188   3.964 -0.4337 -1.6669  0.6503
   10CHTO  H177 3920   3.547   6.133   4.103 -0.1642 -0.2773  0.0060
   10CHTO  C105 3921   3.444   6.387   4.138  0.2745  0.0545 -0.0361
   10CHTO  H192 3922   3.367   6.317   4.170  0.5760 -1.1811 -1.9427
   10CHTO   O65 3923   3.373   6.510   4.100  0.3111 -0.0652 -0.2811
   10CHTO  C100 3924   3.277   6.499   3.992 -0.1841 -0.6280 -0.6613
   10CHTO  H187 3925   3.205   6.424   4.027  0.9995 -0.8847  1.3200
   10CHTO  C107 3926   3.216   6.645   3.958 -0.3509 -0.2386 -0.5289
   10CHTO   O70 3927   3.175   6.717   4.075 -0.1309  0.1117  0.3365
   10CHTO  H170 3928   3.088   6.749   4.068  0.2859  1.0228 -0.7779
   10CHTO   O57 3929   3.547   6.424   4.268  0.6287  0.4452 -0.3463
   10CHTO   C85 3930   3.510   6.451   4.406 -0.5934  0.0106  0.4238
   10CHTO  H157 3931   3.402   6.428   4.400 -0.1988 -1.9884  0.5607
   10CHTO   C83 3932   3.530   6.601   4.446 -0.4071  0.3124  0.3683
   10CHTO  H155 3933   3.450   6.649   4.389  0.6328  0.8529 -0.6474
   10CHTO   O56 3934   3.657   6.649   4.395 -0.3319 -0.7347  0.4997
   10CHTO  H135 3935   3.654   6.664   4.302  1.1767 -0.5474  0.4790
   10CHTO   C81 3936   3.515   6.618   4.599 -0.2458  0.0187  0.0105
   10CHTO  H153 3937   3.417   6.580   4.630 -0.7616 -0.0097 -1.6051
   10CHTO   N14 3938   3.512   6.757   4.646  0.1514  0.1072 -0.1045
   10CHTO  H141 3939   3.611   6.790   4.669  0.1804 -0.4041  0.4864
   10CHTO  H142 3940   3.444   6.776   4.726 -2.7697 -1.9221 -1.9762
   10CHTO   C79 3941   3.628   6.525   4.673 -0.5027  0.0654 -0.6331
   10CHTO  H151 3942   3.626   6.546   4.780  0.1391 -2.0664 -0.1841
   10CHTO   O52 3943   3.588   6.390   4.642  0.1259 -0.4337  0.1560
   10CHTO   C86 3944   3.587   6.348   4.505 -0.5342 -1.0392  0.2401
   10CHTO  H158 3945   3.693   6.333   4.478 -0.1727  2.2559 -0.4183
   10CHTO   C90 3946   3.526   6.208   4.514 -0.2621  0.5307  0.1774
   10CHTO   O60 3947   3.562   6.128   4.396 -0.0527  0.0966  0.1125
   10CHTO  H138 3948   3.592   6.043   4.422  0.0351 -0.2485 -1.0928
   10CHTO   O50 3949   3.766   6.547   4.632 -0.5167  0.4300 -0.0349
   10CHTO   C73 3950   3.893   6.507   4.679 -0.3520 -0.0095  0.2562
   10CHTO  H145 3951   3.909   6.398   4.683 -2.2636 -0.3587 -0.9411
   10CHTO   C74 3952   3.925   6.568   4.825 -0.4134  0.5361 -0.1984
   10CHTO  H146 3953   3.842   6.530   4.886 -1.4416 -0.0436 -1.9114
   10CHTO   O54 3954   4.047   6.505   4.871 -0.1227  0.2523 -0.0215
   10CHTO  H133 3955   4.076   6.544   4.951 -0.8709 -0.8815  0.8184
   10CHTO   C75 3956   3.922   6.722   4.818  0.2916 -0.0968 -0.9423
   10CHTO  H147 3957   3.821   6.754   4.787 -0.2896 -0.9609  0.0116
   10CHTO   N13 3958   3.936   6.788   4.948  0.0376  0.1391 -0.4800
   10CHTO  H139 3959   3.852   6.849   4.979  0.0528 -0.1361  0.0994
   10CHTO  H140 3960   3.945   6.718   5.030 -0.8972  1.7716  1.0396
   10CHTO   C76 3961   4.023   6.770   4.711 -0.5486 -0.0849  0.2458
   10CHTO  H148 3962   4.123   6.738   4.739 -1.0222 -1.0421  0.8975
   10CHTO   O49 3963   3.988   6.707   4.582  0.1759  0.0278 -0.4846
   10CHTO   C77 3964   3.997   6.564   4.585 -0.9197 -0.7954  0.2075
   10CHTO  H149 3965   4.095   6.547   4.630  0.2075  1.9231 -1.1127
   10CHTO   C88 3966   3.988   6.517   4.443 -0.1001 -0.3486 -0.3287
   10CHTO   O58 3967   4.100   6.602   4.362 -0.4668 -0.0652 -0.1170
   10CHTO  H136 3968   4.077   6.612   4.272 -0.9536 -0.4264 -0.0343
   10CHTO   O51 3969   4.004   6.948   4.687 -0.3716  0.0925  0.1916
   10CHTO   C78 3970   4.118   7.036   4.717 -0.1126  0.6269  0.2634
   10CHTO  H150 3971   4.202   6.982   4.765 -0.0946  0.7934  0.4202
   10CHTO   C80 3972   4.075   7.149   4.811 -0.6000  0.1634 -0.2475
   10CHTO  H152 3973   3.979   7.188   4.770  0.4332 -0.2879 -3.2608
   10CHTO   O55 3974   4.047   7.094   4.942 -0.4621 -0.4874  0.0670
   10CHTO  H134 3975   3.992   7.019   4.938  1.6177 -1.9750 -4.2493
   10CHTO   C84 3976   4.187   7.264   4.813  0.2516 -0.0993 -0.1901
   10CHTO  H156 3977   4.275   7.215   4.854  0.4342 -0.2585 -0.7578
   10CHTO   N15 3978   4.143   7.392   4.886  0.3945  0.3419  0.3179
   10CHTO  H143 3979   4.038   7.384   4.905  0.4129  0.0482  0.3156
   10CHTO  H144 3980   4.162   7.484   4.836  0.4585 -0.6341 -1.4929
   10CHTO   C87 3981   4.233   7.295   4.671  0.1059 -0.2907  0.1601
   10CHTO  H159 3982   4.143   7.340   4.629 -0.5981 -0.7151  1.1797
   10CHTO   O53 3983   4.279   7.165   4.610  1.0372  0.1698  0.4202
   10CHTO   C82 3984   4.170   7.083   4.578 -0.5498 -0.1285  0.5679
   10CHTO  H154 3985   4.092   7.125   4.513 -1.1427 -0.0668  1.3164
   10CHTO   C89 3986   4.239   6.973   4.488  1.3055  0.1397  0.7073
   10CHTO   O59 3987   4.152   6.938   4.385  0.2877  1.0043 -0.1786
   10CHTO  H137 3988   4.183   6.873   4.325 -0.9196  1.9618 -1.8953
   10CHTO   O45 3989   4.356   7.388   4.652 -0.1514 -0.1136  0.1272
   10CHTO   C67 3990   4.399   7.416   4.517  0.3097  0.1672  0.0200
   10CHTO  H124 3991   4.326   7.374   4.448  1.5209 -0.9007 -0.6545
   10CHTO   C65 3992   4.406   7.571   4.497  0.0587  0.2743 -0.0226
   10CHTO  H122 3993   4.308   7.607   4.531  0.0250  0.3409 -0.1904
   10CHTO   O44 3994   4.424   7.604   4.356 -0.7316  0.2698 -0.3568
   10CHTO  H102 3995   4.346   7.647   4.327 -0.4106 -0.0647 -1.7598
   10CHTO   C63 3996   4.510   7.641   4.588  0.4483  0.4493 -0.3999
   10CHTO  H120 3997   4.495   7.609   4.691 -0.2469 -0.1867 -0.6896
   10CHTO   N11 3998   4.493   7.787   4.609  0.6894  0.0350 -0.3937
   10CHTO  H108 3999   4.583   7.842   4.628  0.3756  0.6412 -0.6170
   10CHTO  H109 4000   4.442   7.835   4.528 -1.2147 -1.4360 -0.0814
   10CHTO   C61 4001   4.649   7.576   4.551 -0.6244  0.0344 -0.2812
   10CHTO  H118 4002   4.716   7.610   4.631 -2.8349  1.6971  0.9293
   10CHTO   O40 4003   4.643   7.430   4.557  0.2200  0.0194  0.6232
   10CHTO   C68 4004   4.537   7.347   4.497 -0.5160  0.1018  0.1797
   10CHTO  H125 4005   4.541   7.248   4.546 -2.1397 -0.6498 -1.1296
   10CHTO   C72 4006   4.583   7.328   4.349  0.2496 -0.2449  0.0113
   10CHTO   O48 4007   4.491   7.248   4.277 -0.0083 -0.1302  0.9138
   10CHTO  H105 4008   4.523   7.245   4.189 -0.6183  0.5479  0.6587
   10CHTO   O38 4009   4.704   7.618   4.428 -0.7413  0.0204  0.2563
   10CHTO   C55 4010   4.792   7.730   4.404 -0.2787 -0.5905 -0.0235
   10CHTO  H112 4011   4.870   7.685   4.341  0.9483  1.0188  0.2933
   10CHTO   C56 4012   4.857   7.810   4.532  0.0071  0.3618 -0.6902
   10CHTO  H113 4013   4.773   7.831   4.600  1.0393  1.2562  0.3180
   10CHTO   O42 4014   4.955   7.726   4.588  0.2019 -0.4154  0.2333
   10CHTO  H100 4015   5.005   7.681   4.523 -0.3537  1.4023 -1.5185
   10CHTO   C57 4016   4.914   7.952   4.490  0.3406  0.4150 -0.5118
   10CHTO  H114 4017   5.011   7.942   4.442  1.2048 -0.5451  1.3573
   10CHTO   N10 4018   4.936   8.040   4.609  0.1724  0.1927  0.1429
   10CHTO  H106 4019   5.027   8.013   4.661 -0.0624  0.7471  0.8412
   10CHTO  H107 4020   4.851   8.037   4.675 -1.1145  0.3654 -1.4516
   10CHTO   C58 4021   4.816   8.021   4.394  0.2049  0.5648 -0.6155
   10CHTO  H115 4022   4.729   8.049   4.456  1.5848 -0.1589  1.7508
   10CHTO   O37 4023   4.776   7.942   4.274  0.2113  0.0122  0.0661
   10CHTO   C59 4024   4.710   7.817   4.312 -0.2310  0.6416 -0.8612
   10CHTO  H116 4025   4.612   7.842   4.351 -0.1376  1.0612 -0.8939
   10CHTO   C70 4026   4.671   7.747   4.179  0.1114  0.5815 -0.4960
   10CHTO   O46 4027   4.784   7.686   4.115 -0.2411  0.6648  0.4060
   10CHTO  H103 4028   4.753   7.599   4.100 -1.1922  1.1435 -0.4306
   10CHTO   O39 4029   4.885   8.158   4.347 -0.3023 -0.2286 -0.1744
   10CHTO   C60 4030   4.782   8.257   4.338 -0.5381 -0.0927 -0.1159
   10CHTO  H117 4031   4.678   8.225   4.349 -0.6996 -0.0310 -1.3736
   10CHTO   C62 4032   4.793   8.354   4.459 -0.1761  0.5806  1.1365
   10CHTO  H119 4033   4.766   8.289   4.545 -0.0789  0.0427  0.7637
   10CHTO   O43 4034   4.928   8.395   4.472 -0.0526  0.5454  0.3893
   10CHTO  H101 4035   4.979   8.319   4.496 -0.3327 -0.2547 -1.4756
   10CHTO   C66 4036   4.672   8.471   4.453 -0.5617 -0.2499  0.4914
   10CHTO  H123 4037   4.574   8.431   4.431 -1.4093  2.3379 -0.6963
   10CHTO   N12 4038   4.663   8.534   4.587 -0.1195 -0.3094 -0.1823
   10CHTO  H110 4039   4.738   8.510   4.661  1.7757  2.0651 -1.2883
   10CHTO  H111 4040   4.560   8.528   4.618  0.2846 -0.8489  1.0646
   10CHTO   C69 4041   4.685   8.563   4.332  0.0485 -0.3749  0.5734
   10CHTO  H126 4042   4.778   8.624   4.329 -2.2975  3.3375  0.2293
   10CHTO   O41 4043   4.673   8.483   4.213  0.7044  0.4267 -0.0842
   10CHTO   C64 4044   4.786   8.343   4.200 -0.1666 -0.0088 -0.1820
   10CHTO  H121 4045   4.888   8.384   4.184 -0.1571  0.3407  0.7582
   10CHTO   C71 4046   4.737   8.261   4.076  0.5742  0.0563 -0.0138
   10CHTO   O47 4047   4.623   8.177   4.103 -0.1185 -0.1171  0.4296
   10CHTO  H104 4048   4.638   8.087   4.084  0.2185 -0.2613  1.3401
   10CHTO   O34 4049   4.554   8.662   4.339 -0.0646  0.3208  0.3041
   10CHTO   C49 4050   4.425   8.698   4.265 -0.5666  0.0644  0.0345
   10CHTO   H91 4051   4.413   8.804   4.284 -0.8613 -0.2317  1.5223
   10CHTO   C47 4052   4.312   8.605   4.307 -0.0642  0.0084 -0.6792
   10CHTO   H89 4053   4.298   8.628   4.415  0.6897  2.7721 -1.1426
   10CHTO   O33 4054   4.355   8.465   4.292 -0.3325  0.2164 -0.4023
   10CHTO   H70 4055   4.444   8.470   4.320 -2.0759  1.0530  5.7390
   10CHTO   C45 4056   4.173   8.636   4.217 -0.7226 -0.4493  0.0328
   10CHTO   H87 4057   4.163   8.549   4.150 -1.7609 -0.6541  0.4424
   10CHTO    N8 4058   4.048   8.650   4.297  0.6330  0.1791  0.5631
   10CHTO   H75 4059   3.955   8.624   4.247  1.8030 -1.5317 -0.7906
   10CHTO   H76 4060   4.038   8.745   4.347 -1.0347  0.9724 -1.2077
   10CHTO   C43 4061   4.202   8.756   4.112  0.8570 -0.5789  0.6723
   10CHTO   H85 4062   4.114   8.774   4.051  0.5602  2.4843  1.9204
   10CHTO   O29 4063   4.320   8.723   4.030 -0.6038 -0.3895  0.4728
   10CHTO   C50 4064   4.437   8.696   4.107  0.3708 -0.4297 -0.8014
   10CHTO   H92 4065   4.471   8.598   4.071 -1.8308 -2.3362  2.1391
   10CHTO   C54 4066   4.542   8.799   4.060 -0.3209 -0.4888 -0.0601
   10CHTO   O36 4067   4.603   8.746   3.940 -0.2146 -0.0001 -0.0535
   10CHTO   H72 4068   4.693   8.721   3.949  0.2989  0.9750 -2.0436
   10CHTO   O27 4069   4.219   8.884   4.174 -0.5494 -0.1802  0.1573
   10CHTO   C37 4070   4.259   9.007   4.113  0.2622 -0.7228 -0.2141
   10CHTO   H79 4071   4.367   8.993   4.097  0.4105 -0.2889  0.3976
   10CHTO   C38 4072   4.177   9.050   3.989 -0.0905 -0.1195 -0.7948
   10CHTO   H80 4073   4.069   9.041   4.005  0.1650  0.6723  1.6412
   10CHTO   O31 4074   4.218   8.958   3.885  0.2805 -0.4129 -0.6838
   10CHTO   H68 4075   4.170   8.975   3.806  0.1166 -1.9620 -0.9500
   10CHTO   C39 4076   4.207   9.196   3.939 -0.3249  0.4402 -0.2527
   10CHTO   H81 4077   4.315   9.201   3.925 -0.7299  4.1059 -2.7650
   10CHTO    N7 4078   4.133   9.248   3.821  1.1418 -0.1881 -0.8916
   10CHTO   H73 4079   4.050   9.180   3.805  1.5190 -1.3209  1.7037
   10CHTO   H74 4080   4.198   9.261   3.736  1.4430 -1.0773 -0.7997
   10CHTO   C40 4081   4.189   9.287   4.061 -0.1426 -0.0924  0.2265
   10CHTO   H82 4082   4.082   9.283   4.078 -0.9305 -1.1558 -4.3033
   10CHTO   O26 4083   4.270   9.249   4.177  0.8845  0.3809 -0.1159
   10CHTO   C41 4084   4.237   9.115   4.227 -0.5297  0.7046 -0.5656
   10CHTO   H83 4085   4.136   9.103   4.269 -0.4316 -0.8249 -0.7426
   10CHTO   C52 4086   4.337   9.086   4.341  0.5068  0.2728 -0.4291
   10CHTO   O35 4087   4.329   9.181   4.451  0.2479 -0.0548  0.2332
   10CHTO   H71 4088   4.330   9.268   4.418 -0.3432  0.1113  0.6433
   10CHTO   O28 4089   4.247   9.417   4.034  0.1328 -0.1524  0.2070
   10CHTO   C42 4090   4.180   9.532   4.090 -1.0079 -0.2608 -0.4834
   10CHTO   H84 4091   4.131   9.499   4.181  3.1607 -2.9431  0.9073
   10CHTO   C44 4092   4.065   9.586   4.002 -0.3395 -0.1475  0.5888
   10CHTO   H86 4093   4.097   9.588   3.898  0.9702 -2.5111  0.9222
   10CHTO   O32 4094   3.951   9.492   4.012 -0.2352 -0.2001  0.3110
   10CHTO   H69 4095   3.890   9.514   3.944  1.4301  2.7352 -0.3063
   10CHTO   C48 4096   4.020   9.735   4.037  0.0154 -0.4567  0.2482
   10CHTO   H90 4097   3.944   9.737   4.115 -0.8028  1.7765 -0.5495
   10CHTO    N9 4098   3.938   9.803   3.934 -0.1902 -0.1111  0.0696
   10CHTO   H77 4099   3.914   9.902   3.970 -1.5714  0.2502 -1.7712
   10CHTO   H78 4100   3.855   9.749   3.892 -0.5962 -1.0764  2.0415
   10CHTO   C51 4101   4.140   9.820   4.091 -0.2623  0.2240  0.0355
   10CHTO   H93 4102   4.202   9.856   4.009 -1.5951  2.7520  0.0925
   10CHTO   O30 4103   4.214   9.760   4.197  0.0164  0.0302  0.3100
   10CHTO   C46 4104   4.286   9.643   4.131  0.4679  0.0556  0.1224
   10CHTO   H88 4105   4.330   9.683   4.040 -0.5578 -0.5340 -0.6349
   10CHTO   C53 4106   4.402   9.598   4.221 -0.1805  0.7305 -0.7706
   10CHTO   O72 4107   4.359   9.541   4.346 -0.2075  0.6141 -0.3384
   10CHTO  H199 4108   4.416   9.574   4.413 -1.3757  1.3338  0.3227
   10CHTO   O22 4109   4.090   9.939   4.158  0.1180 -0.2411  0.5491
   10CHTO   C31 4110   4.160  10.058   4.175  0.1804  0.7712 -0.2720
   10CHTO   H59 4111   4.096  10.120   4.241 -2.9382 -2.9410  0.3026
   10CHTO   C29 4112   4.294  10.037   4.256  0.4698  0.4855  0.2971
   10CHTO   H57 4113   4.354   9.954   4.218 -0.3713 -1.0202  2.1811
   10CHTO   O21 4114   4.264   9.992   4.392  0.2497  0.0635  0.6947
   10CHTO   H37 4115   4.251  10.062   4.453 -0.0903  1.3942 -0.8824
   10CHTO   C27 4116   4.374  10.172   4.261 -0.1422 -0.4168  0.7864
   10CHTO   H55 4117   4.319  10.244   4.323 -1.8126 -2.3898  1.6583
   10CHTO    N5 4118   4.508  10.157   4.329  0.0873 -0.6960 -0.7195
   10CHTO   H43 4119   4.495  10.112   4.426 -2.8351  0.5023 -0.4907
   10CHTO   H44 4120   4.568  10.246   4.329  0.8070 -1.1757 -0.6906
   10CHTO   C25 4121   4.385  10.241   4.120 -1.0504  0.0695  0.1568
   10CHTO   H53 4122   4.449  10.182   4.053  0.4529  1.3510  0.4591
   10CHTO   O17 4123   4.249  10.257   4.063  0.0682 -0.2617 -0.5535
   10CHTO   C32 4124   4.184  10.133   4.034  0.0146 -0.1700  0.5292
   10CHTO   H60 4125   4.237  10.068   3.964  0.2943 -0.1830  0.7524
   10CHTO   C36 4126   4.050  10.157   3.963 -0.0888  0.2202  0.6869
   10CHTO   O25 4127   3.972  10.258   4.029 -0.6906  0.2196 -0.6096
   10CHTO   H40 4128   3.884  10.251   3.997 -0.5554 -0.5527 -0.8394
   10CHTO   O15 4129   4.438  10.382   4.134  0.1226  0.2859  0.2160
   10CHTO   C19 4130   4.497  10.478   4.046  0.4903 -0.1615  0.3533
   10CHTO   H47 4131   4.458  10.442   3.949  0.4631  0.0388  0.2887
   10CHTO   C20 4132   4.457  10.627   4.070  0.4756 -0.1866 -0.1961
   10CHTO   H48 4133   4.501  10.668   4.163 -2.6292  1.0734  0.7550
   10CHTO   O19 4134   4.310  10.622   4.088  0.0035 -0.6665  0.0457
   10CHTO   H35 4135   4.276  10.688   4.145 -1.3869  0.8270 -2.4328
   10CHTO   C21 4136   4.505  10.697   3.938  0.3567 -0.0519  0.6411
   10CHTO   H49 4137   4.455  10.655   3.851 -0.7362  2.3514  0.0720
   10CHTO    N4 4138   4.465  10.842   3.924 -0.3728  0.7022 -0.8976
   10CHTO   H41 4139   4.410  10.864   3.833  0.1411 -0.1428 -1.4175
   10CHTO   H42 4140   4.549  10.909   3.932  0.4620 -0.4722  0.2658
   10CHTO   C22 4141   4.655  10.684   3.910  0.2201  0.4128  0.1272
   10CHTO   H50 4142   4.712  10.752   3.973 -0.4128  2.3369 -1.3219
   10CHTO   O14 4143   4.699  10.548   3.924 -0.9133 -0.1971  0.2364
   10CHTO   C23 4144   4.656  10.466   4.035 -0.0469  0.3045  0.1468
   10CHTO   H51 4145   4.706  10.502   4.126  0.1818 -2.1634  1.0388
   10CHTO   C34 4146   4.707  10.326   3.991  0.3203  0.4639 -0.8534
   10CHTO   O23 4147   4.680  10.289   3.863  0.5653  0.2553  0.5300
   10CHTO   H38 4148   4.735  10.219   3.834  1.0320  0.9202 -0.2520
   10CHTO   O16 4149   4.678  10.712   3.768  0.5180 -0.2587 -0.0442
   10CHTO   C24 4150   4.815  10.762   3.726 -0.1128 -0.0581  0.1071
   10CHTO   H52 4151   4.896  10.727   3.790  0.8511  3.0268  0.6808
   10CHTO   C26 4152   4.806  10.916   3.728  0.8142 -0.1265 -1.0114
   10CHTO   H54 4153   4.721  10.949   3.665 -1.4684  0.3540  2.1789
   10CHTO   O20 4154   4.774  10.971   3.860  0.2243 -0.0925  0.1616
   10CHTO   H36 4155   4.724  10.909   3.909  2.6206 -0.7975  1.8246
   10CHTO   C30 4156   4.937  10.984   3.670 -0.6288 -0.3602 -0.5993
   10CHTO   H58 4157   5.019  10.968   3.742 -2.2915  0.7335  1.6038
   10CHTO    N6 4158   4.934  11.131   3.663 -0.2825 -0.1675  0.2151
   10CHTO   H45 4159   5.006  11.174   3.595 -2.5896  0.5441 -1.8740
   10CHTO   H46 4160   4.944  11.179   3.759  1.1923 -1.5016  0.7413
   10CHTO   C33 4161   4.978  10.910   3.541 -0.6845  0.0254  0.2984
   10CHTO   H61 4162   4.919  10.931   3.451 -0.4542 -1.2672 -0.1710
   10CHTO   O18 4163   4.981  10.768   3.559  0.0035  0.4702 -0.5301
   10CHTO   C28 4164   4.849  10.716   3.583 -0.1806  0.1948 -0.4884
   10CHTO   H56 4165   4.776  10.762   3.516 -0.9765 -0.5831 -0.1692
   10CHTO   C35 4166   4.850  10.571   3.550  0.5779 -0.6732  0.0270
   10CHTO   O24 4167   4.887  10.558   3.414 -0.2505  0.0130 -0.2099
   10CHTO   H39 4168   4.951  10.491   3.401 -1.1913 -1.8082  3.7129
   10CHTO    O9 4169   5.109  10.960   3.507 -0.4694 -0.3823  0.2082
   10CHTO   C13 4170   5.154  11.003   3.362  0.7396  0.3121 -0.2846
   10CHTO   H26 4171   5.089  11.087   3.326 -1.5662 -0.6503  1.5044
   10CHTO   C11 4172   5.149  10.880   3.260  0.3710 -0.1473  0.0833
   10CHTO   H24 4173   5.052  10.880   3.209  0.2197  1.9717  0.3459
   10CHTO    O8 4174   5.170  10.755   3.330  0.1306  1.1764  0.4070
   10CHTO    H3 4175   5.132  10.684   3.282  0.1975  0.7080  1.0348
   10CHTO    C9 4176   5.257  10.889   3.151 -0.0065 -0.2528 -0.0880
   10CHTO   H22 4177   5.236  10.986   3.103  0.6576 -0.4699 -0.8363
   10CHTO    N2 4178   5.239  10.791   3.047  0.1354  0.2062  0.9621
   10CHTO   H10 4179   5.303  10.705   3.063  2.3972  2.1395  2.5046
   10CHTO   H11 4180   5.259  10.824   2.946  0.0986 -0.6405  0.6715
   10CHTO    C7 4181   5.401  10.898   3.213 -1.0655  0.3339 -0.0842
   10CHTO   H20 4182   5.460  10.958   3.140 -1.3906  1.9781  0.9980
   10CHTO    O4 4183   5.402  10.964   3.341 -0.1719  0.0272 -0.0563
   10CHTO   C14 4184   5.299  11.060   3.360  0.1681 -0.6268  0.6547
   10CHTO   H27 4185   5.292  11.125   3.271 -0.8186 -1.1391  0.3601
   10CHTO   C18 4186   5.308  11.153   3.485  0.0352  0.5218  0.2795
   10CHTO   O13 4187   5.201  11.253   3.468  0.6032 -0.2022 -0.0898
   10CHTO    H7 4188   5.231  11.330   3.513 -0.1356  1.1898 -1.9486
   10CHTO    O2 4189   5.474  10.744   3.234  0.1425  0.2824  0.9093
   10CHTO    C1 4190   5.605  10.736   3.285  0.3714 -0.3341 -0.3781
   10CHTO   H14 4191   5.632  10.811   3.362 -0.6657 -2.0455  1.7154
   10CHTO    C2 4192   5.700  10.747   3.161  0.3329 -0.6237  0.0240
   10CHTO   H15 4193   5.669  10.671   3.087 -2.0731  0.0669  0.2916
   10CHTO    O6 4194   5.700  10.879   3.102 -0.4671  0.4452 -0.4170
   10CHTO    H1 4195   5.779  10.899   3.056 -0.2661 -0.2841 -0.3953
   10CHTO    C3 4196   5.859  10.715   3.205  0.6064  0.3019  0.3268
   10CHTO   H16 4197   5.901  10.796   3.267 -0.9612  1.2456  0.1740
   10CHTO    N1 4198   5.943  10.693   3.083  0.7401  0.1421 -0.0895
   10CHTO    H8 4199   5.892  10.738   2.999 -0.9220  0.0194  0.8281
   10CHTO    H9 4200   6.044  10.731   3.093  0.8973  0.0108 -1.0880
   10CHTO    C4 4201   5.858  10.584   3.293  1.1277 -0.1375 -0.3207
   10CHTO   H17 4202   5.842  10.501   3.225  1.5005  0.0587 -0.6519
   10CHTO    O1 4203   5.767  10.589   3.403  0.3151  0.1229  0.2373
   10CHTO    C5 4204   5.630  10.600   3.356  0.6344 -0.4565 -0.3440
   10CHTO   H18 4205   5.617  10.533   3.271 -0.5375 -0.1720 -0.3986
   10CHTO   C16 4206   5.523  10.571   3.467  0.1196  0.1237  0.5218
   10CHTO   O11 4207   5.558  10.468   3.555  0.0474  0.4865  0.0405
   10CHTO    H5 4208   5.594  10.397   3.504  1.6897  0.3324  1.3648
   10CHTO    O3 4209   5.993  10.573   3.361 -0.4203 -0.1847 -0.0044
   10CHTO    C6 4210   6.037  10.434   3.390  0.3395  0.6370  0.1481
   10CHTO   H19 4211   5.954  10.365   3.371  0.0515  0.4740  1.9576
   10CHTO    C8 4212   6.168  10.399   3.303  0.3172  0.1357 -0.2183
   10CHTO   H21 4213   6.228  10.490   3.305 -0.7399  0.8341  2.7407
   10CHTO    O7 4214   6.118  10.381   3.168  0.0389  0.0329 -0.2313
   10CHTO    H2 4215   6.068  10.303   3.156 -1.7378  1.5291 -2.9876
   10CHTO   C12 4216   6.257  10.271   3.353  1.1486  0.2668 -0.1308
   10CHTO   H25 4217   6.195  10.185   3.319 -1.1434  0.9591  2.1291
   10CHTO    N3 4218   6.392  10.261   3.291 -0.8567 -0.2888 -0.6203
   10CHTO   H12 4219   6.431  10.166   3.325 -0.9492  0.9447  3.1528
   10CHTO   H13 4220   6.370  10.258   3.185 -2.1839  0.8912 -0.3934
   10CHTO   C15 4221   6.257  10.271   3.515 -0.3068  0.2738  0.4087
   10CHTO   H28 4222   6.313  10.354   3.558  1.4562 -1.4414  1.4981
   10CHTO   O10 4223   6.301  10.140   3.579  0.5986  0.1830  0.0673
   10CHTO    H4 4224   6.268  10.071   3.525 -1.0645 -0.1757  1.5025
   10CHTO    O5 4225   6.121  10.288   3.554  0.2827  0.1929  0.2785
   10CHTO   C10 4226   6.073  10.418   3.544 -0.0936  0.0436 -1.0485
   10CHTO   H23 4227   6.143  10.497   3.572  0.8434 -0.9776 -0.4561
   10CHTO   C17 4228   5.955  10.412   3.634 -0.3098 -0.2302  0.7486
   10CHTO   O12 4229   5.973  10.408   3.774 -0.5294  0.6217 -0.0984
   10CHTO    H6 4230   5.888  10.411   3.814 -1.6521  0.6242 -2.4240
   11CHTO  H203 4231   7.624   5.179   0.000  0.5837  1.7449  1.1543
   11CHTO   O82 4232   7.534   5.196   0.018  0.0209 -0.2810  0.4038
   11CHTO  C123 4233   7.502   5.338   0.024  0.8177 -0.1624 -0.4541
   11CHTO  H227 4234   7.538   5.390  -0.066  0.7670  1.2901  0.3502
   11CHTO   O77 4235   7.354   5.334   0.010  0.6961 -0.0351 -0.2136
   11CHTO  C118 4236   7.301   5.468  -0.002 -0.1426  0.2430 -0.2438
   11CHTO  H222 4237   7.345   5.517  -0.091 -0.1616  1.7197  0.5374
   11CHTO  C125 4238   7.145   5.458  -0.040  0.1472  0.1244 -0.0795
   11CHTO   O84 4239   7.079   5.373   0.055  0.1595 -0.1286 -0.4622
   11CHTO  H205 4240   7.062   5.292   0.012  4.5743 -1.1998 -0.4360
   11CHTO  C114 4241   7.324   5.548   0.131 -0.0481 -0.8266  0.0161
   11CHTO  H218 4242   7.262   5.498   0.206  1.6608 -2.5919  0.2829
   11CHTO  C116 4243   7.480   5.548   0.167  0.6003 -0.1621  0.0356
   11CHTO  H220 4244   7.537   5.610   0.094  0.0582  0.3499  0.0413
   11CHTO   O79 4245   7.498   5.616   0.293  0.4276  0.1312 -0.1376
   11CHTO  H201 4246   7.550   5.694   0.296  0.5324  0.0621 -0.1849
   11CHTO  C120 4247   7.538   5.399   0.166 -0.2076  0.0513 -0.0630
   11CHTO  H224 4248   7.485   5.353   0.251 -1.0620 -1.1030 -1.2113
   11CHTO   N21 4249   7.685   5.404   0.186  0.4465 -0.2958 -0.8006
   11CHTO  H211 4250   7.720   5.480   0.254 -0.3626 -0.7542  0.1430
   11CHTO  H212 4251   7.712   5.310   0.231 -1.4946 -0.9892 -1.0471
   11CHTO   O75 4252   7.267   5.671   0.116  0.1276  0.3468 -0.0227
   11CHTO  C112 4253   7.151   5.712   0.235  0.2559  0.5302  0.2714
   11CHTO  H216 4254   7.183   5.672   0.333 -0.6552  0.9013  0.7282
   11CHTO   O73 4255   7.029   5.654   0.189  0.3758  0.5863  0.4407
   11CHTO  C113 4256   6.911   5.699   0.256  0.2999  0.4657 -1.1959
   11CHTO  H217 4257   6.925   5.688   0.365 -2.0857 -0.0158 -0.9300
   11CHTO  C124 4258   6.792   5.609   0.226 -0.0595 -0.2109  0.0439
   11CHTO   O83 4259   6.807   5.478   0.271 -0.0083 -0.5670  0.1707
   11CHTO  H204 4260   6.779   5.472   0.360 -1.7683  0.8258 -0.2618
   11CHTO  C109 4261   6.884   5.848   0.245  0.2038 -0.0207  0.4745
   11CHTO  H213 4262   6.881   5.871   0.137  1.4936  2.0344  0.8421
   11CHTO  C110 4263   7.012   5.923   0.301 -0.1515 -0.1797 -0.4844
   11CHTO  H214 4264   7.019   5.898   0.407 -0.2385 -1.9595 -0.8763
   11CHTO   O78 4265   7.000   6.068   0.278 -0.2295  0.1940 -0.2188
   11CHTO  H200 4266   6.986   6.109   0.361 -1.8441 -1.1304  0.1926
   11CHTO  C111 4267   7.141   5.870   0.226  1.1378 -0.1473 -0.1893
   11CHTO  H215 4268   7.130   5.895   0.119  2.6313  1.4800  0.0122
   11CHTO   N19 4269   7.270   5.928   0.273  0.1141  0.3926 -0.1606
   11CHTO  H207 4270   7.293   5.884   0.368 -2.2756 -1.1841 -0.2563
   11CHTO  H208 4271   7.342   5.897   0.199  1.2097  0.1706  0.9948
   11CHTO   O74 4272   6.763   5.902   0.309  0.2747 -0.5310  0.5274
   11CHTO  C115 4273   6.673   5.993   0.209  0.4355  0.0981  0.8517
   11CHTO  H219 4274   6.727   6.017   0.117 -2.7235 -0.1180 -1.1216
   11CHTO   O76 4275   6.545   5.913   0.164 -0.6375 -0.6028  0.7180
   11CHTO  C122 4276   6.466   5.869   0.273  0.3459  0.4950 -0.1009
   11CHTO  H226 4277   6.527   5.789   0.315  1.8355  2.0615  0.7958
   11CHTO  C126 4278   6.340   5.804   0.216 -0.4403  0.0182 -0.4794
   11CHTO   O85 4279   6.351   5.664   0.178 -0.1143 -0.2718  0.6338
   11CHTO  H206 4280   6.417   5.618   0.227  0.1908 -1.6744 -1.0181
   11CHTO  C121 4281   6.425   5.988   0.377  0.0748  0.1546  0.2266
   11CHTO  H225 4282   6.315   5.990   0.387  0.1733 -0.1587  1.5282
   11CHTO   O81 4283   6.476   5.955   0.507 -0.0719 -0.1906 -0.4602
   11CHTO  H202 4284   6.444   5.878   0.550 -0.8729  1.2663  1.6597
   11CHTO  C119 4285   6.476   6.125   0.314  0.0840  0.2927 -0.0651
   11CHTO  H223 4286   6.421   6.135   0.221 -2.4070 -1.7334  1.1267
   11CHTO  C117 4287   6.628   6.124   0.277 -0.5092  0.8811  0.0789
   11CHTO  H221 4288   6.695   6.128   0.363 -0.6929  0.9189  0.2206
   11CHTO   N20 4289   6.669   6.249   0.187  0.4470 -0.3293  0.0750
   11CHTO  H209 4290   6.587   6.318   0.172 -0.2545 -1.8135 -3.4322
   11CHTO  H210 4291   6.752   6.304   0.229 -0.1102  1.3557 -0.9755
   11CHTO   O80 4292   6.423   6.245   0.387 -0.0461  0.2062 -0.0374
   11CHTO  C103 4293   6.471   6.279   0.556  0.4772  0.0432 -0.0227
   11CHTO  H190 4294   6.498   6.187   0.607  1.7216  0.7425  0.6141
   11CHTO  C101 4295   6.589   6.389   0.572  0.3796 -0.6561  0.1476
   11CHTO  H188 4296   6.600   6.449   0.481 -0.8116 -2.5028 -1.2680
   11CHTO   O68 4297   6.725   6.311   0.573  0.9249 -0.3910  0.4107
   11CHTO  H168 4298   6.790   6.350   0.519 -0.7589 -0.2929 -1.5882
   11CHTO   C99 4299   6.575   6.485   0.695  0.1667  0.4022 -0.3593
   11CHTO  H186 4300   6.612   6.432   0.785  1.4865  0.5432 -0.8100
   11CHTO   N17 4301   6.661   6.610   0.673 -0.2583  0.1143  0.0356
   11CHTO  H174 4302   6.686   6.626   0.569 -1.0548 -1.4400 -0.4139
   11CHTO  H175 4303   6.624   6.695   0.729  2.9546  0.3127  2.0088
   11CHTO   C97 4304   6.428   6.514   0.727 -0.4043  0.7046 -0.0568
   11CHTO  H184 4305   6.376   6.577   0.653  0.5989  1.2709 -0.2893
   11CHTO   O64 4306   6.358   6.393   0.744  0.2322  0.2716  0.3178
   11CHTO  C104 4307   6.338   6.331   0.615  0.7670  0.6888 -0.3545
   11CHTO  H191 4308   6.291   6.399   0.544 -1.0820 -1.2860 -1.0637
   11CHTO  C108 4309   6.244   6.213   0.634 -0.1668 -0.2498  0.3237
   11CHTO   O71 4310   6.114   6.244   0.688 -0.1329 -0.3526  0.3965
   11CHTO  H171 4311   6.072   6.166   0.717  1.4692 -1.7403 -0.8578
   11CHTO   O62 4312   6.411   6.588   0.858 -0.4312  0.6350 -0.0500
   11CHTO   C91 4313   6.296   6.669   0.875 -0.5760  0.1658 -0.5642
   11CHTO  H178 4314   6.220   6.645   0.801 -0.4047  0.6550 -0.9042
   11CHTO   C92 4315   6.339   6.818   0.861  0.7077  0.3677 -0.2258
   11CHTO  H179 4316   6.437   6.825   0.911  2.2926  0.1273 -3.1967
   11CHTO   O66 4317   6.363   6.841   0.717  0.0993 -0.1325 -0.4491
   11CHTO  H166 4318   6.449   6.820   0.687  0.2352  1.8127 -1.4592
   11CHTO   C93 4319   6.234   6.919   0.919 -0.3301  0.0723  0.2706
   11CHTO  H180 4320   6.142   6.893   0.864 -0.3630 -1.3348  0.9762
   11CHTO   N16 4321   6.267   7.063   0.893 -0.6318  0.5732 -0.3500
   11CHTO  H172 4322   6.300   7.097   0.990  1.9655 -0.0617 -0.9610
   11CHTO  H173 4323   6.182   7.121   0.860  1.9768  3.7918 -1.6611
   11CHTO   C94 4324   6.211   6.879   1.064 -0.2607 -0.0482  0.3849
   11CHTO  H181 4325   6.307   6.857   1.110 -0.4612 -0.6714  0.5086
   11CHTO   O61 4326   6.133   6.761   1.053 -0.1466 -0.0828  0.2210
   11CHTO   C95 4327   6.215   6.641   1.014  0.0866 -0.2325  0.6685
   11CHTO  H182 4328   6.278   6.613   1.099  0.5480  2.2520  1.1839
   11CHTO  C106 4329   6.119   6.518   0.994  0.0605 -0.0149 -0.4646
   11CHTO   O69 4330   6.050   6.489   1.112 -0.4910  0.0334  0.2790
   11CHTO  H169 4331   6.046   6.395   1.113 -0.1909  0.0163  0.0413
   11CHTO   O63 4332   6.137   7.005   1.150  0.7439 -0.5535  0.8043
   11CHTO   C96 4333   6.185   6.995   1.301  0.4929 -0.5713  1.0580
   11CHTO  H183 4334   6.284   6.949   1.296 -0.3055 -2.5186  2.5979
   11CHTO   C98 4335   6.102   6.906   1.405  0.7001  0.0808  0.5058
   11CHTO  H185 4336   5.998   6.936   1.421  0.7666  0.8865 -0.4849
   11CHTO   O67 4337   6.091   6.774   1.346  0.3971  0.1084 -0.5233
   11CHTO  H167 4338   6.174   6.735   1.325 -1.3670 -2.3838 -3.2227
   11CHTO  C102 4339   6.175   6.907   1.538 -0.1280  0.2985 -0.4099
   11CHTO  H189 4340   6.267   6.849   1.526 -0.6564 -0.8932  1.0944
   11CHTO   N18 4341   6.105   6.840   1.651 -0.3398  0.0136 -0.7570
   11CHTO  H176 4342   6.092   6.910   1.733  1.3014 -0.2571 -0.2656
   11CHTO  H177 4343   6.008   6.813   1.610 -0.3612  1.4112 -1.6624
   11CHTO  C105 4344   6.229   7.045   1.582 -0.1550 -0.2317 -0.5143
   11CHTO  H192 4345   6.150   7.100   1.635 -1.6225 -2.0700 -0.7468
   11CHTO   O65 4346   6.282   7.122   1.477 -0.2684 -0.5081  0.4107
   11CHTO  C100 4347   6.204   7.140   1.358 -0.3426  0.5897 -0.3569
   11CHTO  H187 4348   6.103   7.179   1.382  0.7009  1.4057  2.9525
   11CHTO  C107 4349   6.276   7.252   1.266  0.1314  0.1013 -0.1610
   11CHTO   O70 4350   6.376   7.194   1.191 -0.5182 -0.2808 -0.1478
   11CHTO  H170 4351   6.419   7.244   1.124  0.1812  0.4523  0.8358
   11CHTO   O57 4352   6.352   7.016   1.679 -0.0191  0.3490 -0.1950
   11CHTO   C85 4353   6.374   7.093   1.794 -0.7867 -0.7379 -0.0503
   11CHTO  H157 4354   6.279   7.080   1.850 -0.6209 -1.3862  0.0832
   11CHTO   C83 4355   6.387   7.247   1.755 -0.4075 -0.5131  0.0067
   11CHTO  H155 4356   6.293   7.280   1.711 -1.2075  0.8957  2.6633
   11CHTO   O56 4357   6.479   7.262   1.646 -0.0183 -0.6502  0.5711
   11CHTO  H135 4358   6.536   7.187   1.648  1.9799  0.7151 -1.7461
   11CHTO   C81 4359   6.424   7.329   1.886  0.3958 -0.1848  0.0379
   11CHTO  H153 4360   6.347   7.312   1.961  0.6259 -1.5935 -0.0380
   11CHTO   N14 4361   6.416   7.476   1.868  0.2414  0.5613  0.6497
   11CHTO  H141 4362   6.408   7.501   1.764 -1.3670  1.0781  0.8884
   11CHTO  H142 4363   6.331   7.516   1.919  0.9088  3.1177 -0.1477
   11CHTO   C79 4364   6.556   7.269   1.938 -0.0059 -0.7372 -0.1141
   11CHTO  H151 4365   6.582   7.324   2.028 -1.7410 -0.1227  0.0127
   11CHTO   O52 4366   6.533   7.125   1.983 -0.5604  0.0965 -0.1194
   11CHTO   C86 4367   6.492   7.035   1.880 -0.4079 -0.4438  0.1563
   11CHTO  H158 4368   6.575   7.013   1.810  1.3011  0.3578  1.8912
   11CHTO   C90 4369   6.453   6.889   1.940 -0.1434  0.1347  0.1126
   11CHTO   O60 4370   6.567   6.836   2.007  0.8433  0.0834 -0.0106
   11CHTO  H138 4371   6.543   6.803   2.091  0.8395  0.2524  0.0558
   11CHTO   O50 4372   6.662   7.273   1.842 -0.2747  0.4707  0.2727
   11CHTO   C73 4373   6.806   7.267   1.869 -0.0037 -0.2795  1.0574
   11CHTO  H145 4374   6.827   7.185   1.941 -0.3207 -0.3754  1.0422
   11CHTO   C74 4375   6.865   7.394   1.933  0.7039 -0.0525 -0.2143
   11CHTO  H146 4376   6.811   7.416   2.026 -2.0783  0.1585 -1.8310
   11CHTO   O54 4377   7.001   7.363   1.969  0.2604 -0.2824  0.3795
   11CHTO  H133 4378   7.009   7.315   2.049  0.6211 -0.1076  0.4463
   11CHTO   C75 4379   6.851   7.505   1.829  0.0411  0.3176 -0.2233
   11CHTO  H147 4380   6.744   7.526   1.811 -0.0816 -1.0120 -1.0649
   11CHTO   N13 4381   6.915   7.631   1.887 -0.1045  0.1681 -0.6546
   11CHTO  H139 4382   6.861   7.682   1.965  1.4848  2.8814 -1.2719
   11CHTO  H140 4383   6.945   7.695   1.806 -0.2442 -0.0418 -0.8734
   11CHTO   C76 4384   6.919   7.467   1.687  0.9485  0.6441 -1.0441
   11CHTO  H148 4385   7.028   7.468   1.695  0.9573  1.4240 -1.2752
   11CHTO   O49 4386   6.874   7.341   1.633  0.4106  0.0911  0.4926
   11CHTO   C77 4387   6.887   7.236   1.733  0.8068 -0.2522 -0.6797
   11CHTO  H149 4388   6.993   7.219   1.756 -0.0237 -3.5079  1.0373
   11CHTO   C88 4389   6.845   7.101   1.674 -0.0232 -0.4071  0.4091
   11CHTO   O58 4390   6.852   7.007   1.777 -0.1795 -0.1106  0.6323
   11CHTO  H136 4391   6.807   6.929   1.750  0.9561 -0.5263 -0.1323
   11CHTO   O51 4392   6.879   7.570   1.586 -0.1029 -0.3869 -0.0006
   11CHTO   C78 4393   7.013   7.639   1.497 -0.6284  0.2983 -0.3865
   11CHTO  H150 4394   7.112   7.614   1.540 -0.8582 -0.7781 -0.4612
   11CHTO   C80 4395   7.009   7.794   1.496 -0.2008  0.0024  0.5019
   11CHTO  H152 4396   6.907   7.822   1.463 -0.3813  0.9028  1.8098
   11CHTO   O55 4397   7.023   7.826   1.634 -0.5451  0.2471 -0.3154
   11CHTO  H134 4398   7.105   7.868   1.651 -0.5828  0.2233 -0.0605
   11CHTO   C84 4399   7.120   7.853   1.386  0.1213 -0.6416  0.2746
   11CHTO  H156 4400   7.217   7.819   1.421  0.6464 -0.7234 -1.2369
   11CHTO   N15 4401   7.125   8.003   1.380  0.3990  0.4063  0.0242
   11CHTO  H143 4402   7.036   8.037   1.332  0.8747  0.7614 -0.6244
   11CHTO  H144 4403   7.123   8.045   1.478 -3.1148 -0.1601  0.2483
   11CHTO   C87 4404   7.082   7.787   1.252 -0.3067 -0.1774 -0.5786
   11CHTO  H159 4405   6.977   7.804   1.230 -0.1931  1.4193  0.0244
   11CHTO   O53 4406   7.105   7.637   1.270 -0.2627 -0.5831  0.1075
   11CHTO   C82 4407   7.004   7.582   1.354 -0.5493  0.4217  0.4117
   11CHTO  H154 4408   6.905   7.603   1.313 -1.2835  1.5107  2.6659
   11CHTO   C89 4409   7.015   7.429   1.356 -0.3370 -0.2248 -0.2253
   11CHTO   O59 4410   6.961   7.359   1.241 -0.2276  0.5941 -0.7510
   11CHTO  H137 4411   6.959   7.265   1.244 -2.9598  0.6379  1.8869
   11CHTO   O45 4412   7.170   7.831   1.142  0.1132  0.1379  0.6491
   11CHTO   C67 4413   7.138   7.785   1.005 -0.0058  0.1940  0.1338
   11CHTO  H124 4414   7.132   7.676   1.006 -1.6120  0.1941  4.4322
   11CHTO   C65 4415   6.993   7.843   0.954 -0.4910 -1.1002  0.2644
   11CHTO  H122 4416   6.963   7.926   1.018  0.3913 -1.4072  1.0876
   11CHTO   O44 4417   6.902   7.737   0.978 -0.4661  0.0876 -0.2016
   11CHTO  H102 4418   6.896   7.723   1.071  1.0411  0.0547 -0.0851
   11CHTO   C63 4419   6.994   7.905   0.806 -0.5312 -0.6602 -0.0285
   11CHTO  H120 4420   7.047   8.001   0.813 -0.8164 -0.6231  1.6889
   11CHTO   N11 4421   6.873   7.955   0.736  0.0934  0.4135 -0.1462
   11CHTO  H108 4422   6.846   7.900   0.648  0.5077  1.2305 -0.7899
   11CHTO  H109 4423   6.803   8.000   0.802  1.6421  0.9860  1.1474
   11CHTO   C61 4424   7.079   7.804   0.720 -0.5060 -0.6620  0.3574
   11CHTO  H118 4425   7.115   7.855   0.630  2.1288 -1.5157  0.8607
   11CHTO   O40 4426   7.198   7.764   0.783  0.8159 -0.5568  0.1281
   11CHTO   C68 4427   7.238   7.825   0.901  0.3447  0.0085  0.4299
   11CHTO  H125 4428   7.241   7.935   0.890  2.7705 -0.1616 -1.0078
   11CHTO   C72 4429   7.378   7.780   0.936  0.3114 -0.0803 -0.2772
   11CHTO   O48 4430   7.399   7.640   0.928  0.2921  0.2486  0.1746
   11CHTO  H105 4431   7.489   7.623   0.909 -0.3616 -0.9735 -1.9717
   11CHTO   O38 4432   6.998   7.691   0.686  0.0131  0.2700 -0.0785
   11CHTO   C55 4433   7.012   7.621   0.561  0.1273 -0.1791  0.5686
   11CHTO  H112 4434   7.117   7.632   0.528 -0.4910 -1.1288 -1.7507
   11CHTO   C56 4435   6.911   7.667   0.452 -0.0741  1.1774  0.5073
   11CHTO  H113 4436   6.811   7.673   0.498 -0.2753 -0.9041  0.3769
   11CHTO   O42 4437   6.952   7.803   0.414 -0.0590 -0.0573  0.4833
   11CHTO  H100 4438   6.885   7.846   0.366 -0.2416  0.1840  0.9452
   11CHTO   C57 4439   6.904   7.568   0.328 -0.6421 -0.5964 -0.5301
   11CHTO  H114 4440   7.002   7.582   0.282 -0.9530 -1.5816 -1.5150
   11CHTO   N10 4441   6.785   7.601   0.238  0.3916 -0.8218 -0.7291
   11CHTO  H106 4442   6.699   7.550   0.279  0.3073  0.3062  0.5120
   11CHTO  H107 4443   6.769   7.707   0.245  0.6065 -0.8851  0.9055
   11CHTO   C58 4444   6.897   7.424   0.375  0.0621  0.4822 -0.5352
   11CHTO  H115 4445   6.795   7.415   0.419  0.5194 -0.8068  0.3160
   11CHTO   O37 4446   6.995   7.394   0.472 -0.1331  0.0995  0.2732
   11CHTO   C59 4447   6.982   7.473   0.593 -0.1098 -0.6481  0.3817
   11CHTO  H116 4448   6.882   7.474   0.635 -0.2742 -1.7787  0.0238
   11CHTO   C70 4449   7.088   7.420   0.694 -0.5807  0.0798 -0.7220
   11CHTO   O46 4450   7.046   7.298   0.753  0.1762 -0.2370  0.8488
   11CHTO  H103 4451   7.100   7.228   0.719 -0.2777  0.3951 -1.1887
   11CHTO   O39 4452   6.925   7.317   0.261 -0.5284 -0.7621  0.1618
   11CHTO   C60 4453   6.828   7.214   0.254 -0.0930  0.2647  0.3101
   11CHTO  H117 4454   6.787   7.190   0.352  0.7102 -0.2500  0.5284
   11CHTO   C62 4455   6.714   7.250   0.153 -0.4015 -0.3424 -0.7970
   11CHTO  H119 4456   6.666   7.342   0.192 -0.2975 -1.2248  1.4702
   11CHTO   O43 4457   6.775   7.279   0.024 -0.6487 -0.4785 -0.1385
   11CHTO  H101 4458   6.860   7.318   0.020 -2.0057  2.4664 -1.2566
   11CHTO   C66 4459   6.602   7.123   0.146  0.0132  0.2512  0.1408
   11CHTO  H123 4460   6.569   7.112   0.249  1.9522  0.4781  0.8111
   11CHTO   N12 4461   6.493   7.156   0.053  0.5040 -0.2223 -0.3915
   11CHTO  H110 4462   6.407   7.146   0.118  2.8238 -0.0800  2.8165
   11CHTO  H111 4463   6.492   7.094  -0.035 -0.0192  0.0056 -0.5476
   11CHTO   C69 4464   6.678   6.994   0.110  0.3570 -0.1076  0.7104
   11CHTO  H126 4465   6.722   7.017   0.011  2.0686  0.2142  1.5193
   11CHTO   O41 4466   6.797   6.980   0.210  0.1329  0.4747 -0.0386
   11CHTO   C64 4467   6.896   7.085   0.215 -0.8925 -0.3628  0.5288
   11CHTO  H121 4468   6.952   7.098   0.120 -2.2053  3.3208  0.2144
   11CHTO   C71 4469   7.004   7.045   0.323 -0.2351 -0.5532 -0.4025
   11CHTO   O47 4470   7.078   6.927   0.298  0.1980 -0.2141  0.4111
   11CHTO  H104 4471   7.163   6.925   0.338 -0.3541 -2.3775  1.5593
   11CHTO   O34 4472   6.590   6.874   0.126  0.3600 -0.6963  0.0422
   11CHTO   C49 4473   6.504   6.793   0.227 -0.2559  0.2501  0.8119
   11CHTO   H91 4474   6.560   6.792   0.320  0.6586 -2.4456  0.2589
   11CHTO   C47 4475   6.489   6.642   0.188 -0.3707  0.6207  0.1443
   11CHTO   H89 4476   6.455   6.586   0.278 -2.2192  0.0249 -0.9106
   11CHTO   O33 4477   6.622   6.601   0.161 -0.2846  0.5081 -0.5423
   11CHTO   H70 4478   6.651   6.637   0.079 -0.4734  1.6548 -0.1213
   11CHTO   C45 4479   6.388   6.634   0.063 -0.3426  0.0789  0.6517
   11CHTO   H87 4480   6.426   6.703  -0.013 -0.5677 -1.6154 -1.0349
   11CHTO    N8 4481   6.380   6.497  -0.001 -0.5861 -0.6678  0.3485
   11CHTO   H75 4482   6.321   6.502  -0.091 -0.7010  2.3398  0.5171
   11CHTO   H76 4483   6.481   6.462  -0.016 -0.1751  0.8796 -0.6788
   11CHTO   C43 4484   6.244   6.692   0.098 -0.2013 -0.2049  0.4249
   11CHTO   H85 4485   6.190   6.690   0.003 -2.3975  0.2169  1.6246
   11CHTO   O29 4486   6.252   6.825   0.152  0.6845 -0.0399 -0.1697
   11CHTO   C50 4487   6.355   6.853   0.248  0.1031 -0.5822  0.3839
   11CHTO   H92 4488   6.378   6.959   0.264 -0.1779 -0.1224 -2.0456
   11CHTO   C54 4489   6.309   6.811   0.391 -0.4385 -0.2541 -0.3179
   11CHTO   O36 4490   6.191   6.886   0.428 -0.4212  0.4072 -0.7748
   11CHTO   H72 4491   6.112   6.861   0.384 -1.3088 -2.1681  2.1603
   11CHTO   O27 4492   6.150   6.611   0.175  0.1262  0.0264 -0.1216
   11CHTO   C37 4493   6.051   6.582   0.277 -0.2169 -0.7253  0.6089
   11CHTO   H79 4494   6.088   6.595   0.379 -0.2498 -2.0623  0.8066
   11CHTO   C38 4495   5.933   6.673   0.242 -0.1648  0.4967 -1.0125
   11CHTO   H80 4496   5.909   6.657   0.136  0.1377 -1.3543 -0.8246
   11CHTO   O31 4497   5.974   6.811   0.269  0.2145  0.0146  0.2122
   11CHTO   H68 4498   5.924   6.866   0.212 -0.0020 -0.3264  0.0721
   11CHTO   C39 4499   5.809   6.633   0.333  0.7157  0.3670  0.0338
   11CHTO   H81 4500   5.840   6.642   0.437  1.8563 -0.8355 -0.1940
   11CHTO    N7 4501   5.689   6.719   0.318 -0.0040 -0.0887 -0.2885
   11CHTO   H73 4502   5.594   6.671   0.338  0.1047 -0.3868 -0.4804
   11CHTO   H74 4503   5.710   6.813   0.367  0.2945  0.6358 -1.7984
   11CHTO   C40 4504   5.767   6.480   0.323 -0.7486 -0.1831  0.1089
   11CHTO   H82 4505   5.720   6.457   0.228 -1.0274  0.5253  0.0748
   11CHTO   O26 4506   5.888   6.401   0.349 -0.1043  0.3800  0.1274
   11CHTO   C41 4507   5.996   6.431   0.257 -0.5336 -0.1838  0.2121
   11CHTO   H83 4508   5.961   6.419   0.153  0.0537  0.1434 -0.0215
   11CHTO   C52 4509   6.111   6.329   0.278  0.5174  0.0779 -0.6874
   11CHTO   O35 4510   6.057   6.192   0.295 -0.2427 -0.4772 -0.1983
   11CHTO   H71 4511   6.058   6.169   0.386 -0.4485  0.0129 -0.0755
   11CHTO   O28 4512   5.673   6.435   0.426  0.1430  0.2732 -0.3755
   11CHTO   C42 4513   5.599   6.311   0.399  0.8439 -0.5014  0.5887
   11CHTO   H84 4514   5.652   6.262   0.318 -0.5927  0.7328 -1.1473
   11CHTO   C44 4515   5.456   6.342   0.335  0.0026 -0.1223  0.1581
   11CHTO   H86 4516   5.404   6.416   0.397 -0.3089 -0.3861  0.2121
   11CHTO   O32 4517   5.471   6.400   0.203 -0.0559 -0.2845  0.2534
   11CHTO   H69 4518   5.553   6.387   0.159 -0.3022 -0.5295 -0.1389
   11CHTO   C48 4519   5.370   6.209   0.322 -0.4076  0.1707 -0.1073
   11CHTO   H90 4520   5.414   6.155   0.239  0.7943  1.0681 -0.0765
   11CHTO    N9 4521   5.231   6.224   0.276 -0.8067  0.0369 -0.1040
   11CHTO   H77 4522   5.225   6.268   0.178  0.2482 -1.7404 -0.9857
   11CHTO   H78 4523   5.160   6.145   0.298 -0.0468 -0.5128  0.4077
   11CHTO   C51 4524   5.383   6.115   0.445  0.1713  0.0948 -0.2003
   11CHTO   H93 4525   5.328   6.163   0.526  0.5005  1.7486 -0.9289
   11CHTO   O30 4526   5.519   6.099   0.480  0.0380 -0.1302  0.0718
   11CHTO   C46 4527   5.586   6.212   0.517 -0.0279 -0.0139  0.3161
   11CHTO   H88 4528   5.522   6.261   0.590  1.8046  1.9842  0.6371
   11CHTO   C53 4529   5.735   6.169   0.557 -0.3536 -0.1576 -0.0958
   11CHTO   O72 4530   5.799   6.253   0.654  0.3356 -0.1944 -0.8452
   11CHTO  H199 4531   5.887   6.261   0.624  1.0767 -0.7794  1.1472
   11CHTO   O22 4532   5.331   5.981   0.422 -0.7261  0.3168  0.7405
   11CHTO   C31 4533   5.308   5.872   0.521  0.2018  0.3488  0.0287
   11CHTO   H59 4534   5.357   5.906   0.615  0.8286 -0.4220 -0.0178
   11CHTO   C29 4535   5.157   5.848   0.546  0.1680 -0.1154 -0.4620
   11CHTO   H57 4536   5.100   5.827   0.454 -0.1956  0.1467 -0.2944
   11CHTO   O21 4537   5.094   5.969   0.599 -0.1698  0.2005 -0.2155
   11CHTO   H37 4538   5.129   5.982   0.685 -0.7764  0.9577 -0.0739
   11CHTO   C27 4539   5.134   5.730   0.644 -0.1463  0.2712  0.4665
   11CHTO   H55 4540   5.173   5.758   0.743 -0.6589 -0.5157  0.8948
   11CHTO    N5 4541   4.990   5.694   0.662 -0.6505 -0.8879  0.3518
   11CHTO   H43 4542   4.976   5.683   0.768 -2.4511  1.6890  0.4511
   11CHTO   H44 4543   4.933   5.777   0.622 -0.9839 -1.8086 -1.1172
   11CHTO   C25 4544   5.227   5.605   0.615 -0.5286 -0.2875  0.8294
   11CHTO   H53 4545   5.188   5.557   0.523 -0.7680 -0.8097  1.2001
   11CHTO   O17 4546   5.365   5.650   0.590 -0.3003  0.7110  0.2760
   11CHTO   C32 4547   5.375   5.740   0.483  0.7969 -0.0731 -0.1402
   11CHTO   H60 4548   5.324   5.706   0.393  0.5456 -1.4819  0.5226
   11CHTO   C36 4549   5.532   5.744   0.452 -0.3230  0.1762 -0.3809
   11CHTO   O25 4550   5.562   5.787   0.318  0.5105 -0.1238  0.3123
   11CHTO   H40 4551   5.645   5.753   0.293  1.0812  0.0298  1.9140
   11CHTO   O15 4552   5.236   5.505   0.732 -0.0392  0.6195 -0.1428
   11CHTO   C19 4553   5.207   5.360   0.737  0.3873 -0.4457  0.4362
   11CHTO   H47 4554   5.291   5.327   0.799 -0.0448  0.0569  1.2903
   11CHTO   C20 4555   5.063   5.339   0.811  0.3318 -0.6447  0.7215
   11CHTO   H48 4556   4.981   5.390   0.758  1.4493 -2.0313 -2.4993
   11CHTO   O19 4557   5.081   5.403   0.943 -0.1756 -0.0981 -0.3977
   11CHTO   H35 4558   5.000   5.396   0.991 -0.5987 -0.2018 -1.1245
   11CHTO   C21 4559   5.034   5.186   0.820 -1.2766  0.2338 -0.3987
   11CHTO   H49 4560   5.102   5.139   0.891 -1.7722  0.4477  0.2199
   11CHTO    N4 4561   4.904   5.155   0.873  0.5623  0.3571 -0.7607
   11CHTO   H41 4562   4.873   5.231   0.943  1.0940 -1.2716  1.2895
   11CHTO   H42 4563   4.828   5.145   0.797  0.5204  1.8202 -0.9336
   11CHTO   C22 4564   5.044   5.116   0.681 -0.1441  0.4939  0.0012
   11CHTO   H50 4565   4.964   5.138   0.610  1.0161  1.1203 -1.1417
   11CHTO   O14 4566   5.175   5.150   0.632  0.2356 -0.4539 -0.3333
   11CHTO   C23 4567   5.215   5.285   0.602  0.1233  0.0005  0.8769
   11CHTO   H51 4568   5.145   5.328   0.528 -0.4436 -0.3101  1.2280
   11CHTO   C34 4569   5.357   5.266   0.552 -0.2449  0.3209  0.0697
   11CHTO   O23 4570   5.402   5.376   0.476  0.2025  0.0792 -0.6788
   11CHTO   H38 4571   5.424   5.357   0.387 -3.3383 -0.3303 -1.5405
   11CHTO   O16 4572   5.050   4.975   0.706  0.3611  0.1907  0.7130
   11CHTO   C24 4573   4.991   4.897   0.567  0.5282 -0.1530  0.3393
   11CHTO   H52 4574   4.983   4.965   0.482 -1.3140 -2.9891 -1.8532
   11CHTO   C26 4575   4.852   4.834   0.595  0.5695 -0.2691 -0.3507
   11CHTO   H54 4576   4.860   4.744   0.660  2.0896  1.5497  2.0924
   11CHTO   O20 4577   4.765   4.927   0.670  0.1052  0.3568  0.0217
   11CHTO   H36 4578   4.813   4.951   0.748 -2.2561 -0.5163  1.7873
   11CHTO   C30 4579   4.782   4.791   0.456  0.7656  0.2205  0.6059
   11CHTO   H58 4580   4.774   4.878   0.389  0.3936  0.3258  0.7866
   11CHTO    N6 4581   4.641   4.737   0.475  0.2595 -0.2171  0.2180
   11CHTO   H45 4582   4.650   4.632   0.500  0.5030  0.1531  1.7072
   11CHTO   H46 4583   4.577   4.789   0.544 -0.3649 -0.1390 -0.4133
   11CHTO   C33 4584   4.885   4.698   0.383 -0.0287  0.3494  0.6527
   11CHTO   H61 4585   4.873   4.595   0.421  2.3920 -0.5717 -0.9827
   11CHTO   O18 4586   5.026   4.738   0.392 -0.7107 -0.0636 -0.4356
   11CHTO   C28 4587   5.085   4.780   0.520  0.0496  0.6044  0.2310
   11CHTO   H56 4588   5.079   4.697   0.591  2.8114 -1.3890 -1.7497
   11CHTO   C35 4589   5.239   4.817   0.494 -0.5438  0.3657 -0.5357
   11CHTO   O24 4590   5.290   4.859   0.617  0.0969 -0.3453  0.0382
   11CHTO   H39 4591   5.289   4.953   0.622  1.1197 -0.3265  0.0501
   11CHTO    O9 4592   4.835   4.687   0.245  0.1356  0.8651  0.1191
   11CHTO   C13 4593   4.886   4.812   0.145 -0.7456 -0.3242  0.8764
   11CHTO   H26 4594   4.925   4.894   0.210  1.3649 -0.8565  0.3299
   11CHTO   C11 4595   4.768   4.861   0.051 -0.6974 -0.3653  0.0861
   11CHTO   H24 4596   4.686   4.899   0.113  0.5922 -1.2165  2.3948
   11CHTO    O8 4597   4.729   4.746  -0.031  0.8170  0.4903 -0.1332
   11CHTO    H3 4598   4.722   4.671   0.025  1.4828  0.3301 -0.2534
   11CHTO    C9 4599   4.824   4.985  -0.027  0.3256 -0.5852  0.9874
   11CHTO   H22 4600   4.826   5.070   0.043 -0.3878  1.1976 -1.0919
   11CHTO    N2 4601   4.728   5.027  -0.134 -0.2019 -0.2085 -0.5816
   11CHTO   H10 4602   4.718   4.956  -0.215  1.2019  1.1512 -1.9594
   11CHTO   H11 4603   4.630   5.062  -0.106  0.0003 -0.6566  0.7133
   11CHTO    C7 4604   4.974   4.968  -0.065 -0.1453 -0.4853 -0.0325
   11CHTO   H20 4605   5.027   5.018   0.018  0.8214  0.6123 -1.2819
   11CHTO    O4 4606   5.009   4.829  -0.072 -0.4783  0.9702 -0.0735
   11CHTO   C14 4607   5.013   4.766   0.055 -0.2107  0.4340  0.0233
   11CHTO   H27 4608   5.108   4.793   0.106 -0.8340  0.6928  1.0639
   11CHTO   C18 4609   5.022   4.613   0.029 -0.3353  0.0460  0.6924
   11CHTO   O13 4610   5.074   4.542   0.139 -0.2165 -0.3781 -0.1379
   11CHTO    H7 4611   5.131   4.473   0.111 -0.1445 -0.4873  0.2811
   11CHTO    O2 4612   5.022   5.039  -0.217  0.1179 -0.3171 -0.3974
   11CHTO    C1 4613   5.102   5.152  -0.192 -0.3344  0.0853  0.4008
   11CHTO   H14 4614   5.161   5.146  -0.098  2.1437  0.8193 -1.0842
   11CHTO    C2 4615   5.022   5.292  -0.193 -0.4064 -0.4361 -0.3141
   11CHTO   H15 4616   4.977   5.305  -0.292  0.5805  1.6262 -0.5056
   11CHTO    O6 4617   4.925   5.295  -0.086  0.2177  0.0601 -0.2846
   11CHTO    H1 4618   4.860   5.362  -0.099  0.6123  0.8982  1.8178
   11CHTO    C3 4619   5.128   5.410  -0.182 -0.4215 -0.0948  0.1460
   11CHTO   H16 4620   5.198   5.401  -0.098 -0.4842  0.3870  0.2545
   11CHTO    N1 4621   5.063   5.549  -0.178  0.3325  0.4243  0.1917
   11CHTO    H8 4622   5.132   5.610  -0.121  0.0478  1.1448 -0.2218
   11CHTO    H9 4623   5.055   5.574  -0.283  0.0158  0.1549  0.1535
   11CHTO    C4 4624   5.228   5.392  -0.300 -0.2561 -0.2889  0.1888
   11CHTO   H17 4625   5.173   5.405  -0.394 -1.6891  0.1826  1.0809
   11CHTO    O1 4626   5.304   5.271  -0.283  0.2572  0.2480 -0.3311
   11CHTO    C5 4627   5.218   5.156  -0.298 -0.4630 -0.2280  0.7526
   11CHTO   H18 4628   5.167   5.161  -0.395 -0.6194 -3.4589  0.6240
   11CHTO   C16 4629   5.307   5.030  -0.293 -0.1367 -0.5287 -0.5243
   11CHTO   O11 4630   5.397   5.034  -0.405 -0.5200 -0.0556 -1.2485
   11CHTO    H5 4631   5.472   4.979  -0.390 -0.3562  0.5793  0.2857
   11CHTO    O3 4632   5.331   5.494  -0.307  0.4375  0.5973 -0.1474
   11CHTO    C6 4633   5.369   5.548  -0.435  0.1142  0.0777 -0.4531
   11CHTO   H19 4634   5.333   5.488  -0.519  0.0731  0.0754 -0.4341
   11CHTO    C8 4635   5.316   5.686  -0.453  0.8002  0.6188  0.6460
   11CHTO   H21 4636   5.365   5.754  -0.384 -1.4496  1.8012  1.1193
   11CHTO    O7 4637   5.173   5.679  -0.441 -0.2068 -0.1642  0.3714
   11CHTO    H2 4638   5.137   5.766  -0.434  3.9011  1.6434  0.6406
   11CHTO   C12 4639   5.362   5.738  -0.597 -0.4712 -0.3905  0.0747
   11CHTO   H25 4640   5.313   5.674  -0.674 -1.7128  1.6001 -0.8434
   11CHTO    N3 4641   5.304   5.876  -0.623 -0.6751  0.6390  0.3869
   11CHTO   H12 4642   5.196   5.879  -0.610 -0.6507  2.2496  0.3435
   11CHTO   H13 4643   5.354   5.954  -0.568  1.1908  0.0342 -0.4188
   11CHTO   C15 4644   5.517   5.734  -0.607 -0.2063 -0.3985  0.6173
   11CHTO   H28 4645   5.569   5.803  -0.541  2.3614  0.1913 -1.8776
   11CHTO   O10 4646   5.578   5.762  -0.736 -0.1060 -0.4130  0.0948
   11CHTO    H4 4647   5.567   5.701  -0.806  0.6022  0.2809 -0.6357
   11CHTO    O5 4648   5.555   5.601  -0.586  0.3706  0.1397 -0.4647
   11CHTO   C10 4649   5.524   5.554  -0.448  0.3174 -1.0338 -0.5939
   11CHTO   H23 4650   5.549   5.638  -0.383 -0.7180  0.5866 -2.2101
   11CHTO   C17 4651   5.594   5.426  -0.402  0.1598 -0.2154 -0.0524
   11CHTO   O12 4652   5.736   5.441  -0.386 -0.2589  0.0209  0.9307
   11CHTO    H6 4653   5.765   5.482  -0.307  0.8377  0.7537  0.1743
   12CHTO  H203 4654   5.061   2.382   1.741  1.6928 -3.4378 -0.4274
   12CHTO   O82 4655   4.978   2.362   1.780  0.5151  0.7415 -0.5261
   12CHTO  C123 4656   5.009   2.253   1.866  0.1775 -0.6844 -0.0978
   12CHTO  H227 4657   5.032   2.294   1.966 -1.4444 -1.2702  0.5429
   12CHTO   O77 4658   4.880   2.186   1.876 -0.5402 -0.5806 -0.3058
   12CHTO  C118 4659   4.887   2.085   1.979 -0.2990  0.2441 -0.0580
   12CHTO  H222 4660   4.937   2.118   2.072  1.3959  2.4671 -1.7155
   12CHTO  C125 4661   4.740   2.040   2.019 -0.4575 -0.2499  0.3149
   12CHTO   O84 4662   4.680   2.130   2.119  0.3701 -0.5679 -0.1709
   12CHTO  H205 4663   4.616   2.089   2.174 -0.7738  1.6951  0.2329
   12CHTO  C114 4664   4.975   1.977   1.922 -0.2424 -0.2972  0.2326
   12CHTO  H218 4665   4.937   1.950   1.824 -0.3624  0.5489  0.0419
   12CHTO  C116 4666   5.119   2.028   1.907  0.0782  0.1588 -0.5164
   12CHTO  H220 4667   5.146   2.059   2.011 -2.0252 -1.7279  0.6366
   12CHTO   O79 4668   5.215   1.926   1.870  0.9611 -0.9673 -0.3321
   12CHTO  H201 4669   5.191   1.841   1.901 -2.7279  0.6159  1.4680
   12CHTO  C120 4670   5.119   2.159   1.819 -0.5393 -0.2505  0.9020
   12CHTO  H224 4671   5.093   2.140   1.713 -1.4124 -0.7102  1.1939
   12CHTO   N21 4672   5.253   2.224   1.822 -0.1274  0.8930  0.2099
   12CHTO  H211 4673   5.326   2.148   1.843 -0.7928 -0.5869 -2.6135
   12CHTO  H212 4674   5.274   2.280   1.732  1.5235 -0.7821 -0.4723
   12CHTO   O75 4675   4.974   1.871   2.024 -0.5375  0.6221  0.1263
   12CHTO  C112 4676   4.954   1.719   1.977 -0.0511  1.0389 -0.5225
   12CHTO  H216 4677   5.012   1.705   1.885  0.0714 -0.7243 -0.1893
   12CHTO   O73 4678   4.815   1.705   1.959 -0.1245  0.1360  0.5635
   12CHTO  C113 4679   4.770   1.566   1.950  0.3260 -0.0925  0.5688
   12CHTO  H217 4680   4.819   1.509   1.868 -2.4833 -2.7872  0.6697
   12CHTO  C124 4681   4.620   1.584   1.914 -0.0190  0.3946  0.6545
   12CHTO   O83 4682   4.566   1.461   1.861 -0.4867 -0.4741  0.1914
   12CHTO  H204 4683   4.476   1.457   1.837 -1.1598 -0.8392  2.5596
   12CHTO  C109 4684   4.792   1.492   2.080  0.2021 -0.0465 -0.3944
   12CHTO  H213 4685   4.737   1.545   2.159  1.1010 -2.4190  1.8984
   12CHTO  C110 4686   4.946   1.490   2.101  0.4410  0.8262  0.9538
   12CHTO  H214 4687   4.984   1.439   2.013 -0.6874  2.2391 -0.3670
   12CHTO   O78 4688   4.972   1.429   2.227  0.7419  0.0881  0.1830
   12CHTO  H200 4689   5.062   1.433   2.250  0.5638 -1.1439  1.1504
   12CHTO  C111 4690   5.010   1.635   2.101  0.6120 -0.4352  0.4284
   12CHTO  H215 4691   4.976   1.686   2.192 -0.2546 -0.4766  0.1312
   12CHTO   N19 4692   5.159   1.633   2.109  0.1118 -0.8244 -0.6533
   12CHTO  H207 4693   5.196   1.734   2.119 -1.0806 -0.3004 -1.4447
   12CHTO  H208 4694   5.197   1.567   2.186 -0.3203 -2.7207 -2.0443
   12CHTO   O74 4695   4.732   1.355   2.071  0.0620 -0.4593 -0.6060
   12CHTO  C115 4696   4.678   1.297   2.196  0.3748  0.4376  0.2267
   12CHTO  H219 4697   4.753   1.301   2.275  1.7892  0.7793 -1.1129
   12CHTO   O76 4698   4.556   1.366   2.242 -0.0439  0.0565  0.1247
   12CHTO  C122 4699   4.483   1.312   2.346  0.6924  0.4248  0.3638
   12CHTO  H226 4700   4.387   1.363   2.343  0.1345 -0.6452 -0.6483
   12CHTO  C126 4701   4.555   1.340   2.483 -0.6672  0.4486  0.1420
   12CHTO   O85 4702   4.497   1.281   2.604 -0.6701  0.3273  0.8456
   12CHTO  H206 4703   4.510   1.337   2.678  0.2571  1.0052  0.1733
   12CHTO  C121 4704   4.457   1.155   2.319  0.2025  0.8023  0.3270
   12CHTO  H225 4705   4.402   1.111   2.406  0.3142 -1.0627 -0.5189
   12CHTO   O81 4706   4.365   1.146   2.209  0.8706 -0.0339  0.5751
   12CHTO  H202 4707   4.390   1.090   2.138  0.7263  0.7115 -0.0668
   12CHTO  C119 4708   4.584   1.081   2.295 -0.2601  0.8440 -0.0901
   12CHTO  H223 4709   4.652   1.098   2.378  0.8598 -0.8710 -0.6255
   12CHTO  C117 4710   4.660   1.141   2.168 -0.1098  0.5785 -0.0499
   12CHTO  H221 4711   4.605   1.127   2.075 -0.7702  0.9318  0.2831
   12CHTO   N20 4712   4.792   1.069   2.140  0.4230  0.2283 -0.2921
   12CHTO  H209 4713   4.790   0.980   2.079  0.3766 -1.7256  2.4890
   12CHTO  H210 4714   4.856   1.046   2.224  1.9426  0.1139 -1.4667
   12CHTO   O80 4715   4.573   0.923   2.305  0.1238 -1.2164 -0.1060
   12CHTO  C103 4716   4.468   0.829   2.205  0.5734 -0.0544  0.7465
   12CHTO  H190 4717   4.376   0.885   2.189  2.5654  2.7544 -1.6914
   12CHTO  C101 4718   4.518   0.780   2.063 -0.6031 -0.8623  0.2230
   12CHTO  H188 4719   4.619   0.739   2.063  0.4646  1.6848  0.0503
   12CHTO   O68 4720   4.515   0.914   1.967  0.5413 -0.1359  0.0134
   12CHTO  H168 4721   4.541   0.889   1.880  0.9423 -1.6000  0.5263
   12CHTO   C99 4722   4.408   0.676   2.001 -0.0524 -0.9236 -0.1071
   12CHTO  H186 4723   4.308   0.725   2.000 -0.2905 -1.4080  0.1427
   12CHTO   N17 4724   4.438   0.630   1.859  0.2955  0.2263 -0.4249
   12CHTO  H174 4725   4.432   0.718   1.796  0.6413  0.1305 -0.5939
   12CHTO  H175 4726   4.537   0.587   1.853  1.3866  2.6444 -0.5903
   12CHTO   C97 4727   4.394   0.559   2.100 -0.6594 -0.2009  0.2238
   12CHTO  H184 4728   4.497   0.520   2.106 -0.1697  1.1129  0.5678
   12CHTO   O64 4729   4.350   0.610   2.223  0.0781  0.3270  0.0438
   12CHTO  C104 4730   4.439   0.701   2.293  0.7124  0.2624  0.3122
   12CHTO  H191 4731   4.534   0.652   2.315 -0.0640 -0.8342  1.2444
   12CHTO  C108 4732   4.374   0.729   2.426  0.1469  0.1358 -0.3532
   12CHTO   O71 4733   4.385   0.617   2.517 -0.0387 -0.4153 -0.1687
   12CHTO  H171 4734   4.384   0.534   2.472  0.0968 -1.2390  1.2983
   12CHTO   O62 4735   4.304   0.450   2.066  0.6883 -0.1033 -0.3879
   12CHTO   C91 4736   4.305   0.334   2.148  0.8622 -0.1021  0.1852
   12CHTO  H178 4737   4.360   0.369   2.235 -1.9507  2.1277  1.1526
   12CHTO   C92 4738   4.363   0.215   2.057  0.2201  0.0913  0.3708
   12CHTO  H179 4739   4.295   0.221   1.971 -1.5497  3.1492  1.8716
   12CHTO   O66 4740   4.495   0.257   2.013  0.3739  0.4471 -0.2153
   12CHTO  H166 4741   4.540   0.295   2.086  0.7726  0.4980 -0.4880
   12CHTO   C93 4742   4.353   0.077   2.135 -0.4053 -0.7227 -0.3200
   12CHTO  H180 4743   4.411   0.094   2.227 -1.6829 -2.4968  0.8679
   12CHTO   N16 4744   4.422  -0.036   2.068 -0.3398  0.4617 -0.9906
   12CHTO  H172 4745   4.390  -0.055   1.967 -1.8775  1.7250 -0.7532
   12CHTO  H173 4746   4.411  -0.123   2.131 -1.7721  0.1414 -1.6669
   12CHTO   C94 4747   4.199   0.034   2.171 -0.3298  0.2498 -0.5814
   12CHTO  H181 4748   4.158  -0.042   2.104 -2.5112  1.3098 -0.5066
   12CHTO   O61 4749   4.112   0.152   2.164 -0.3338 -0.0335  0.2739
   12CHTO   C95 4750   4.159   0.286   2.192 -0.1427  0.2231 -0.7920
   12CHTO  H182 4751   4.092   0.357   2.143  0.6471  1.1764 -0.5273
   12CHTO  C106 4752   4.139   0.306   2.346 -0.1414  0.0459  0.1519
   12CHTO   O69 4753   4.170   0.431   2.397  0.2005 -0.5101 -0.1551
   12CHTO  H169 4754   4.260   0.425   2.422  0.2680 -0.0223 -0.2750
   12CHTO   O63 4755   4.174  -0.026   2.328  0.3654 -0.0399 -0.0703
   12CHTO   C96 4756   4.258  -0.151   2.390  0.4014 -0.2058  0.0321
   12CHTO  H183 4757   4.365  -0.140   2.373  0.3934  1.5060  1.0501
   12CHTO   C98 4758   4.220  -0.293   2.342  0.5335  0.0003  0.0101
   12CHTO  H185 4759   4.112  -0.307   2.361  0.6724 -0.2503  0.6305
   12CHTO   O67 4760   4.240  -0.307   2.199  0.1365  0.4182 -0.0691
   12CHTO  H167 4761   4.278  -0.227   2.167 -1.5287  1.0986 -0.4166
   12CHTO  C102 4762   4.314  -0.408   2.423  0.5099 -0.3409 -0.1015
   12CHTO  H189 4763   4.419  -0.387   2.399  0.3537 -0.3676 -0.8276
   12CHTO   N18 4764   4.292  -0.550   2.381 -0.2526  0.0645  0.1230
   12CHTO  H176 4765   4.337  -0.561   2.283 -2.1341 -1.0878 -0.6486
   12CHTO  H177 4766   4.185  -0.562   2.372 -0.0795 -3.4634  1.8719
   12CHTO  C105 4767   4.296  -0.381   2.573  0.6843 -0.1309 -0.2228
   12CHTO  H192 4768   4.192  -0.406   2.594  1.0099 -0.8823  0.5453
   12CHTO   O65 4769   4.322  -0.245   2.615  0.0759 -0.1667 -0.6755
   12CHTO  C100 4770   4.248  -0.153   2.545  0.1248 -0.4761  0.5546
   12CHTO  H187 4771   4.140  -0.168   2.559  0.2782 -3.4285 -1.1566
   12CHTO  C107 4772   4.289  -0.021   2.597  0.3240  0.5093 -0.3191
   12CHTO   O70 4773   4.188   0.080   2.581 -0.5033  0.1061 -0.2255
   12CHTO  H170 4774   4.227   0.159   2.613  0.8208 -0.9475  0.8261
   12CHTO   O57 4775   4.377  -0.477   2.662 -0.1647  0.0676 -0.1810
   12CHTO   C85 4776   4.307  -0.541   2.770  0.6769  0.3249  0.5207
   12CHTO  H157 4777   4.209  -0.576   2.734  0.2651  0.3271  1.6134
   12CHTO   C83 4778   4.272  -0.425   2.871 -0.3869  0.0721 -0.9620
   12CHTO  H155 4779   4.202  -0.349   2.835  0.3696  1.5651  0.6765
   12CHTO   O56 4780   4.391  -0.353   2.894  0.1211  0.0962  0.0465
   12CHTO  H135 4781   4.371  -0.272   2.937  0.6907  0.2982 -0.0599
   12CHTO   C81 4782   4.213  -0.488   3.007 -0.2181 -0.4503 -0.1742
   12CHTO  H153 4783   4.123  -0.543   2.982 -1.6854  2.0625 -0.5465
   12CHTO   N14 4784   4.165  -0.383   3.104 -0.1571 -0.5174  0.1603
   12CHTO  H141 4785   4.245  -0.320   3.134 -1.3603  1.9440 -1.6604
   12CHTO  H142 4786   4.083  -0.322   3.072  1.3207  1.2839 -0.2503
   12CHTO   C79 4787   4.318  -0.590   3.069 -0.1350 -0.0382 -0.4088
   12CHTO  H151 4788   4.273  -0.629   3.160  0.2930 -2.1882 -1.0828
   12CHTO   O52 4789   4.345  -0.698   2.971  0.0608  0.1424  0.6983
   12CHTO   C86 4790   4.398  -0.659   2.836 -0.1424 -0.0610  0.3269
   12CHTO  H158 4791   4.500  -0.627   2.862 -0.0798 -0.2288  0.2934
   12CHTO   C90 4792   4.411  -0.784   2.751 -0.1542  0.8181 -0.7965
   12CHTO   O60 4793   4.395  -0.777   2.608  0.3397  0.4845  0.6324
   12CHTO  H138 4794   4.431  -0.848   2.558 -0.2391 -1.1122  2.4184
   12CHTO   O50 4795   4.439  -0.524   3.109  0.4298 -0.0163  0.1657
   12CHTO   C73 4796   4.529  -0.526   3.220  0.5285 -0.2949  0.2045
   12CHTO  H145 4797   4.498  -0.600   3.295  1.6900  0.3473  1.3340
   12CHTO   C74 4798   4.537  -0.388   3.289  0.5062  0.3034  0.8270
   12CHTO  H146 4799   4.436  -0.362   3.324 -0.3579  0.2932 -1.5422
   12CHTO   O54 4800   4.618  -0.407   3.407 -0.5800  0.3417  0.0808
   12CHTO  H133 4801   4.563  -0.450   3.470  1.3900  0.1620  1.7242
   12CHTO   C75 4802   4.601  -0.283   3.195  0.3166 -0.0446  0.0129
   12CHTO  H147 4803   4.529  -0.274   3.113 -0.4879  0.0200  0.7142
   12CHTO   N13 4804   4.631  -0.153   3.260 -0.2363 -0.6065 -0.1890
   12CHTO  H139 4805   4.554  -0.080   3.239  2.0801  1.9602 -0.0136
   12CHTO  H140 4806   4.731  -0.117   3.244 -1.0956  1.1676 -1.7894
   12CHTO   C76 4807   4.731  -0.346   3.132 -0.7454 -0.0254 -0.3605
   12CHTO  H148 4808   4.790  -0.371   3.220  0.3182 -0.3977 -1.1658
   12CHTO   O49 4809   4.710  -0.476   3.067 -0.3347 -0.4938  0.3507
   12CHTO   C77 4810   4.661  -0.578   3.161 -0.6236 -0.2551  0.0122
   12CHTO  H149 4811   4.740  -0.583   3.237 -1.0965 -3.7090  0.4005
   12CHTO   C88 4812   4.659  -0.708   3.083  0.5207 -0.4082 -0.2103
   12CHTO   O58 4813   4.607  -0.819   3.161 -0.3336 -0.5658 -0.4208
   12CHTO  H136 4814   4.545  -0.780   3.220 -0.5224  1.7272 -2.0963
   12CHTO   O51 4815   4.790  -0.261   3.020  0.1413  0.9949  1.1006
   12CHTO   C78 4816   4.941  -0.303   3.012  0.2117 -0.0999  0.6290
   12CHTO  H150 4817   4.964  -0.402   3.056 -2.4220 -1.2952 -0.5813
   12CHTO   C80 4818   5.025  -0.198   3.081  0.4309  0.0259  0.3625
   12CHTO  H152 4819   5.008  -0.103   3.025 -2.7259  0.1459  1.4655
   12CHTO   O55 4820   4.973  -0.183   3.214  0.0642 -0.0551  0.4493
   12CHTO  H134 4821   4.973  -0.090   3.228  3.6580  0.1294 -0.3074
   12CHTO   C84 4822   5.174  -0.242   3.080 -0.6807 -0.3698  0.2186
   12CHTO  H156 4823   5.178  -0.329   3.146 -1.9238  0.0094  0.8137
   12CHTO   N15 4824   5.278  -0.155   3.145  1.2019 -0.2306 -0.7028
   12CHTO  H143 4825   5.239  -0.152   3.245  0.1058 -0.9858 -1.0960
   12CHTO  H144 4826   5.369  -0.210   3.154  2.0830  1.3215  0.0876
   12CHTO   C87 4827   5.227  -0.280   2.934  0.1940  0.3921 -0.0870
   12CHTO  H159 4828   5.241  -0.191   2.874 -0.0826  0.3808 -0.1688
   12CHTO   O53 4829   5.106  -0.374   2.852 -0.2478  0.9391  0.4148
   12CHTO   C82 4830   4.980  -0.321   2.859 -0.6963 -0.6330 -0.2191
   12CHTO  H154 4831   4.970  -0.226   2.808  1.2078  0.7214  1.8287
   12CHTO   C89 4832   4.888  -0.419   2.793  0.0327  0.1913  0.3839
   12CHTO   O59 4833   4.751  -0.368   2.776 -0.6196 -0.0647  0.1930
   12CHTO  H137 4834   4.747  -0.281   2.810  0.0834 -0.8576  2.3961
   12CHTO   O45 4835   5.368  -0.366   2.942  0.3287  0.6011 -0.0861
   12CHTO   C67 4836   5.453  -0.378   2.826 -0.0243  0.3942 -0.1530
   12CHTO  H124 4837   5.533  -0.443   2.861  0.1798  1.5356  1.5545
   12CHTO   C65 4838   5.373  -0.448   2.701 -0.4157  0.9678  0.4211
   12CHTO  H122 4839   5.284  -0.503   2.731  0.0752 -0.1663 -0.1752
   12CHTO   O44 4840   5.466  -0.546   2.649  0.0841  0.3253  0.7595
   12CHTO  H102 4841   5.514  -0.527   2.570  1.8096  1.0847  1.9483
   12CHTO   C63 4842   5.320  -0.339   2.602  0.6780 -0.2465  0.4787
   12CHTO  H120 4843   5.251  -0.273   2.655  0.7256  1.3438 -1.4185
   12CHTO   N11 4844   5.221  -0.396   2.499  0.5989 -0.5826 -0.7666
   12CHTO  H108 4845   5.145  -0.456   2.543  2.6931 -1.7647  1.3356
   12CHTO  H109 4846   5.256  -0.443   2.409  1.4366  0.7800 -1.1615
   12CHTO   C61 4847   5.445  -0.268   2.540 -0.2953 -0.2073 -0.8219
   12CHTO  H118 4848   5.405  -0.194   2.469 -2.9976 -0.4258  0.4207
   12CHTO   O40 4849   5.528  -0.198   2.639  0.7633 -0.4496 -0.6184
   12CHTO   C68 4850   5.516  -0.231   2.788  0.6084 -0.8154 -0.8685
   12CHTO  H125 4851   5.461  -0.151   2.841 -2.2084 -1.8185 -2.1836
   12CHTO   C72 4852   5.657  -0.227   2.845  0.0607 -0.3704  0.6209
   12CHTO   O48 4853   5.668  -0.262   2.982 -0.6712 -0.5091 -0.5157
   12CHTO  H105 4854   5.755  -0.271   3.016 -0.5885  2.3473  0.1247
   12CHTO   O38 4855   5.527  -0.356   2.459 -0.0690 -0.4424 -0.3604
   12CHTO   C55 4856   5.629  -0.308   2.378 -0.0435 -0.0506 -0.4491
   12CHTO  H112 4857   5.659  -0.205   2.401 -1.8459  0.7859 -1.7726
   12CHTO   C56 4858   5.593  -0.329   2.225 -0.5861  0.3181 -0.7423
   12CHTO  H113 4859   5.560  -0.434   2.228  1.5339 -0.3274  1.7501
   12CHTO   O42 4860   5.478  -0.251   2.199 -0.1150 -0.2351 -0.6598
   12CHTO  H100 4861   5.440  -0.204   2.270  0.3226  0.7066 -1.0438
   12CHTO   C57 4862   5.713  -0.297   2.126  0.0772 -0.7671  0.4742
   12CHTO  H114 4863   5.719  -0.188   2.126 -1.0288 -0.6867 -1.4128
   12CHTO   N10 4864   5.695  -0.339   1.986 -0.0424 -0.0461 -0.3097
   12CHTO  H106 4865   5.598  -0.357   1.942 -0.3916 -0.1006  0.4783
   12CHTO  H107 4866   5.757  -0.426   1.969  2.8114  1.4980  1.7879
   12CHTO   C58 4867   5.854  -0.354   2.180 -0.0513  0.7561  0.9228
   12CHTO  H115 4868   5.852  -0.465   2.171 -1.8522  0.7803  0.8045
   12CHTO   O37 4869   5.860  -0.328   2.318 -0.3456  0.7200 -0.0589
   12CHTO   C59 4870   5.754  -0.391   2.395  0.2243 -0.2227 -0.6369
   12CHTO  H116 4871   5.741  -0.489   2.350  0.7772  0.2065 -1.7553
   12CHTO   C70 4872   5.811  -0.396   2.538 -0.0741  0.4569  0.0147
   12CHTO   O46 4873   5.742  -0.491   2.627  0.6476 -0.6471 -0.1795
   12CHTO  H103 4874   5.665  -0.443   2.651  1.9507  1.2504  0.2895
   12CHTO   O39 4875   5.993  -0.277   2.106 -0.6202  0.1686 -0.0115
   12CHTO   C60 4876   6.120  -0.316   2.166 -0.5257  0.0923 -0.4320
   12CHTO  H117 4877   6.103  -0.378   2.254 -0.5611  1.0345  0.2330
   12CHTO   C62 4878   6.204  -0.400   2.075 -0.0991  0.1374 -0.7893
   12CHTO  H119 4879   6.140  -0.489   2.056 -2.6336  1.3753  1.5591
   12CHTO   O43 4880   6.231  -0.329   1.955  0.3380 -0.1512 -0.0329
   12CHTO  H101 4881   6.285  -0.377   1.896 -2.3735 -1.6423 -1.4117
   12CHTO   C66 4882   6.337  -0.446   2.154 -0.0864 -0.5295  0.0679
   12CHTO  H123 4883   6.307  -0.486   2.251  2.5237  0.9827  1.5554
   12CHTO   N12 4884   6.417  -0.556   2.093  0.3750  0.5615 -0.4477
   12CHTO  H110 4885   6.497  -0.568   2.166  1.6207  1.6055 -1.6035
   12CHTO  H111 4886   6.455  -0.538   1.994 -0.6216  1.8223 -0.6104
   12CHTO   C69 4887   6.433  -0.325   2.175  0.0759  0.8336  0.3499
   12CHTO  H126 4888   6.468  -0.289   2.076  1.6421 -2.8189 -0.5307
   12CHTO   O41 4889   6.353  -0.212   2.235 -0.3043 -0.2912 -0.0985
   12CHTO   C64 4890   6.195  -0.184   2.209  0.5903  0.2937  0.3475
   12CHTO  H121 4891   6.169  -0.109   2.132  0.1222 -0.7202 -0.5090
   12CHTO   C71 4892   6.148  -0.150   2.354 -0.4599 -0.0464  0.2317
   12CHTO   O47 4893   6.026  -0.080   2.354  0.0845 -0.4110 -0.4319
   12CHTO  H104 4894   5.966  -0.120   2.414  2.2533 -0.7371  1.5963
   12CHTO   O34 4895   6.555  -0.349   2.258 -0.0699 -0.2677 -0.4773
   12CHTO   C49 4896   6.605  -0.366   2.404  0.1129 -0.3908  0.2540
   12CHTO   H91 4897   6.691  -0.299   2.409  0.4548 -0.8300  0.2713
   12CHTO   C47 4898   6.661  -0.503   2.435  0.5689 -0.6224 -0.2025
   12CHTO   H89 4899   6.687  -0.496   2.543 -0.7084 -2.6303  0.2811
   12CHTO   O33 4900   6.773  -0.541   2.354 -0.5279  0.2094 -0.2897
   12CHTO   H70 4901   6.844  -0.570   2.409 -1.3135  1.6012  1.4872
   12CHTO   C45 4902   6.540  -0.613   2.440 -0.3662 -1.1155 -0.2294
   12CHTO   H87 4903   6.499  -0.607   2.338 -1.2988  0.5341  0.2220
   12CHTO    N8 4904   6.586  -0.752   2.467  0.5611  0.2571 -0.3112
   12CHTO   H75 4905   6.662  -0.777   2.395 -0.0270 -2.3284 -0.0682
   12CHTO   H76 4906   6.621  -0.754   2.569 -0.8622  1.7561  0.2447
   12CHTO   C43 4907   6.416  -0.563   2.528 -0.1666  0.2426 -0.3907
   12CHTO   H85 4908   6.330  -0.621   2.493 -0.5227  0.7569 -0.3715
   12CHTO   O29 4909   6.388  -0.423   2.513  1.2402  0.0019 -0.2137
   12CHTO   C50 4910   6.494  -0.326   2.505  0.3973  0.0565  0.1158
   12CHTO   H92 4911   6.443  -0.238   2.466 -0.4887 -0.2365  0.5894
   12CHTO   C54 4912   6.548  -0.283   2.642  0.7338 -0.4897 -0.1754
   12CHTO   O36 4913   6.662  -0.208   2.624  0.0751 -0.1892 -0.0621
   12CHTO   H72 4914   6.708  -0.205   2.705 -1.3167  0.8209  0.7070
   12CHTO   O27 4915   6.435  -0.587   2.668 -0.3222  0.4513  0.1165
   12CHTO   C37 4916   6.325  -0.597   2.764 -0.3916 -0.5896  0.1048
   12CHTO   H79 4917   6.365  -0.601   2.866 -0.0891  2.6740  0.1626
   12CHTO   C38 4918   6.226  -0.479   2.775  0.2541  0.0373 -0.0939
   12CHTO   H80 4919   6.183  -0.459   2.676  0.2894 -0.4915 -0.2159
   12CHTO   O31 4920   6.289  -0.361   2.831 -0.8659 -0.0898  0.6047
   12CHTO   H68 4921   6.276  -0.288   2.773  1.4559  0.7204  1.0451
   12CHTO   C39 4922   6.102  -0.516   2.870 -0.2768 -0.0992 -0.6883
   12CHTO   H81 4923   6.127  -0.530   2.975  0.5600  1.9594 -0.6012
   12CHTO    N7 4924   5.993  -0.408   2.872  0.0066  1.0182  0.2199
   12CHTO   H73 4925   5.920  -0.429   2.950 -1.6839  2.9557 -0.7874
   12CHTO   H74 4926   6.028  -0.307   2.886  1.3842  0.2523  2.6609
   12CHTO   C40 4927   6.043  -0.647   2.825 -0.0584  0.1483 -0.4748
   12CHTO   H82 4928   5.994  -0.632   2.729 -0.8083  1.9613  0.1591
   12CHTO   O26 4929   6.139  -0.749   2.827 -0.3436  0.8845 -0.0841
   12CHTO   C41 4930   6.248  -0.729   2.734  0.0201  0.3038 -0.4247
   12CHTO   H83 4931   6.210  -0.723   2.631  1.0033 -0.4791 -0.8407
   12CHTO   C52 4932   6.338  -0.854   2.739  0.1208  0.0223 -0.3222
   12CHTO   O35 4933   6.383  -0.899   2.868  0.1588 -0.0336 -0.1387
   12CHTO   H71 4934   6.472  -0.931   2.873  0.2197  0.4204  2.1477
   12CHTO   O28 4935   5.951  -0.696   2.920  0.5451  0.0514 -0.3868
   12CHTO   C42 4936   5.846  -0.792   2.895  0.4483 -0.0489 -0.6118
   12CHTO   H84 4937   5.866  -0.871   2.967 -0.5065  0.3376  0.0922
   12CHTO   C44 4938   5.840  -0.864   2.762  0.5288  0.2822 -0.6917
   12CHTO   H86 4939   5.853  -0.788   2.685 -0.2905 -0.0682 -1.1850
   12CHTO   O32 4940   5.957  -0.951   2.743  0.3996  0.3432 -0.6446
   12CHTO   H69 4941   6.036  -0.902   2.732  0.0586  0.7476 -1.3724
   12CHTO   C48 4942   5.704  -0.950   2.730 -0.1178 -0.3421 -0.0151
   12CHTO   H90 4943   5.720  -1.042   2.786  1.4506  0.0660  0.2171
   12CHTO    N9 4944   5.692  -0.983   2.586  0.3881  0.5598  0.3116
   12CHTO   H77 4945   5.674  -0.891   2.533 -0.8985  1.1771  1.7977
   12CHTO   H78 4946   5.786  -1.023   2.551 -0.9515 -0.7475 -1.9238
   12CHTO   C51 4947   5.573  -0.884   2.782  0.0812  0.6642 -0.2428
   12CHTO   H93 4948   5.552  -0.801   2.714  2.0359  0.7863 -0.7408
   12CHTO   O30 4949   5.590  -0.843   2.915 -0.4728  0.3034 -0.4050
   12CHTO   C46 4950   5.712  -0.731   2.931  0.7471  0.4433  0.4139
   12CHTO   H88 4951   5.691  -0.649   2.863 -1.0397 -0.1696  0.2026
   12CHTO   C53 4952   5.709  -0.680   3.080  0.8359  0.1054 -0.7273
   12CHTO   O72 4953   5.576  -0.629   3.111  0.0231 -0.8699  0.0147
   12CHTO  H199 4954   5.505  -0.668   3.063  1.9074 -1.7289 -2.1787
   12CHTO   O22 4955   5.469  -0.983   2.786  0.2331  0.3889  0.7078
   12CHTO   C31 4956   5.322  -0.948   2.779  0.4754 -0.0888  0.5568
   12CHTO   H59 4957   5.268  -1.039   2.812  0.7044 -0.0580  1.0228
   12CHTO   C29 4958   5.287  -0.836   2.880  0.0553  0.2055  0.2234
   12CHTO   H57 4959   5.331  -0.741   2.847 -0.7555  0.1097 -1.1408
   12CHTO   O21 4960   5.349  -0.868   3.007 -0.1479  0.2318 -0.3718
   12CHTO   H37 4961   5.356  -0.790   3.059  0.1947 -0.0665  0.0362
   12CHTO   C27 4962   5.132  -0.817   2.893  1.1290 -0.6964  0.1355
   12CHTO   H55 4963   5.093  -0.911   2.935 -0.1228 -0.8416 -1.3369
   12CHTO    N5 4964   5.097  -0.702   2.984  0.4180 -0.0324 -0.0248
   12CHTO   H43 4965   4.992  -0.695   3.010 -0.2384 -1.0535 -2.2640
   12CHTO   H44 4966   5.105  -0.615   2.920  2.0072 -0.7737 -0.8618
   12CHTO   C25 4967   5.076  -0.789   2.746  0.5316 -0.0479  0.2330
   12CHTO   H53 4968   5.114  -0.692   2.712 -1.5639  0.3753 -1.0033
   12CHTO   O17 4969   5.123  -0.883   2.648 -0.1591 -0.0213  0.5386
   12CHTO   C32 4970   5.264  -0.907   2.645 -0.8550  0.3235 -0.0692
   12CHTO   H60 4971   5.317  -0.819   2.609  0.7633 -0.7219 -0.2699
   12CHTO   C36 4972   5.287  -1.006   2.530 -0.3672  0.2668  0.6231
   12CHTO   O25 4973   5.266  -0.958   2.398 -0.4394 -0.6002  0.5830
   12CHTO   H40 4974   5.189  -0.904   2.399 -0.9180 -1.2043 -1.2697
   12CHTO   O15 4975   4.938  -0.792   2.742 -0.0177  0.2872 -0.3305
   12CHTO   C19 4976   4.824  -0.830   2.649  0.0385 -0.6532  0.0716
   12CHTO   H47 4977   4.736  -0.776   2.686 -0.2929 -1.2287  0.1256
   12CHTO   C20 4978   4.845  -0.770   2.507 -0.1153  0.5111 -0.0404
   12CHTO   H48 4979   4.924  -0.822   2.450 -0.7873  0.9410 -1.3763
   12CHTO   O19 4980   4.872  -0.630   2.528 -0.0738 -0.7658 -0.9993
   12CHTO   H35 4981   4.959  -0.622   2.563  0.3633  1.1532 -2.4445
   12CHTO   C21 4982   4.713  -0.803   2.424 -0.1480  0.2151 -0.6193
   12CHTO   H49 4983   4.632  -0.751   2.475  0.8056  1.7375 -0.6028
   12CHTO    N4 4984   4.714  -0.739   2.291  0.4700 -0.6017 -0.6308
   12CHTO   H41 4985   4.729  -0.811   2.212  1.3910 -0.9880 -0.1199
   12CHTO   H42 4986   4.625  -0.680   2.275 -0.2405 -0.6133  2.9087
   12CHTO   C22 4987   4.674  -0.949   2.425 -0.4068 -0.3057  0.4282
   12CHTO   H50 4988   4.744  -1.009   2.366 -1.8199 -2.8725  1.3224
   12CHTO   O14 4989   4.660  -0.999   2.559  0.0201  0.6427  0.0023
   12CHTO   C23 4990   4.780  -0.979   2.645 -0.0764  0.2365  1.1688
   12CHTO   H51 4991   4.858  -1.040   2.597 -0.3714  0.3043  0.5926
   12CHTO   C34 4992   4.735  -1.049   2.774 -0.0575 -0.0917  0.3578
   12CHTO   O23 4993   4.831  -1.038   2.882  0.1349  0.4136  0.0660
   12CHTO   H38 4994   4.915  -1.003   2.859 -0.4056  1.4485 -0.3661
   12CHTO   O16 4995   4.540  -0.969   2.379  0.1323 -0.0556 -0.2943
   12CHTO   C24 4996   4.507  -1.112   2.306  0.6069  0.6190 -0.2801
   12CHTO   H52 4997   4.590  -1.183   2.312  0.2650  0.3537  1.4632
   12CHTO   C26 4998   4.469  -1.083   2.159  0.1827  0.4229 -0.0107
   12CHTO   H54 4999   4.401  -0.995   2.161  0.8929  0.9749 -0.1444
   12CHTO   O20 5000   4.594  -1.040   2.103 -0.1645  0.2009 -0.3839
   12CHTO   H36 5001   4.635  -0.968   2.148  0.3915  0.9678 -2.0617
   12CHTO   C30 5002   4.415  -1.207   2.085 -0.2887 -0.4674  0.0501
   12CHTO   H58 5003   4.493  -1.284   2.077 -0.0203  0.0095 -2.1976
   12CHTO    N6 5004   4.376  -1.169   1.947  0.3357 -0.1512  0.5533
   12CHTO   H45 5005   4.450  -1.206   1.877 -0.8032 -0.9180 -0.2839
   12CHTO   H46 5006   4.278  -1.198   1.910  0.8901 -1.5294  0.1097
   12CHTO   C33 5007   4.305  -1.272   2.170  0.0495  0.0362 -0.4366
   12CHTO   H61 5008   4.225  -1.197   2.169  0.3544  0.3884  0.7559
   12CHTO   O18 5009   4.342  -1.298   2.306 -0.1618 -0.4185 -0.3346
   12CHTO   C28 5010   4.385  -1.183   2.375 -0.8853  0.1976 -0.3406
   12CHTO   H56 5011   4.302  -1.112   2.366 -0.1508  0.8706 -1.9467
   12CHTO   C35 5012   4.414  -1.217   2.522 -0.3109  0.1761  0.3541
   12CHTO   O24 5013   4.305  -1.273   2.601 -0.2752 -0.0053  0.9165
   12CHTO   H39 5014   4.224  -1.275   2.554  1.3296  1.8307 -2.0291
   12CHTO    O9 5015   4.256  -1.391   2.110 -0.0697 -0.8526  0.5938
   12CHTO   C13 5016   4.338  -1.515   2.112  0.4512  0.0313 -0.5847
   12CHTO   H26 5017   4.445  -1.490   2.096  0.7634 -1.2919 -0.6415
   12CHTO   C11 5018   4.282  -1.606   2.001 -1.2759  0.2434  0.3108
   12CHTO   H24 5019   4.299  -1.559   1.902 -0.2663 -1.7405 -0.4831
   12CHTO    O8 5020   4.136  -1.638   2.016 -0.0080  0.4098  0.3529
   12CHTO    H3 5021   4.117  -1.696   2.086  0.3424 -0.4182 -0.2302
   12CHTO    C9 5022   4.363  -1.736   1.999 -0.0470  0.3392 -0.2782
   12CHTO   H22 5023   4.467  -1.706   1.978  0.4294 -0.9182  0.2678
   12CHTO    N2 5024   4.323  -1.820   1.881 -1.0757 -0.7471 -0.2547
   12CHTO   H10 5025   4.379  -1.912   1.889  1.0967  0.3945 -1.8312
   12CHTO   H11 5026   4.216  -1.837   1.879 -0.6991 -3.3527  0.5309
   12CHTO    C7 5027   4.367  -1.809   2.138  0.4083 -0.4888  0.8571
   12CHTO   H20 5028   4.450  -1.882   2.134  0.7491 -0.0431 -0.0883
   12CHTO    O4 5029   4.395  -1.714   2.242 -0.0212  0.5236 -0.2598
   12CHTO   C14 5030   4.335  -1.588   2.254  0.8973  0.2786 -0.9800
   12CHTO   H27 5031   4.399  -1.531   2.324 -0.9101 -0.0424  1.0061
   12CHTO   C18 5032   4.196  -1.597   2.321 -0.0679 -0.0211 -0.5116
   12CHTO   O13 5033   4.184  -1.661   2.452 -0.0873  0.3224 -0.2646
   12CHTO    H7 5034   4.099  -1.699   2.462  1.8635 -3.8309  2.2097
   12CHTO    O2 5035   4.216  -1.882   2.168 -0.0571  0.0667  0.3353
   12CHTO    C1 5036   4.205  -2.016   2.214 -0.1550 -0.6518  0.3314
   12CHTO   H14 5037   4.290  -2.076   2.176  1.8663  1.8401  0.7864
   12CHTO    C2 5038   4.065  -2.064   2.157  0.3851 -0.0027 -0.1592
   12CHTO   H15 5039   3.988  -1.995   2.194  1.0575  0.7548 -0.1545
   12CHTO    O6 5040   4.070  -2.048   2.017  0.0079  0.2894 -0.5788
   12CHTO    H1 5041   4.075  -1.958   1.992  0.1744  0.9277  1.6946
   12CHTO    C3 5042   4.039  -2.211   2.218 -0.2081 -0.4924 -0.3310
   12CHTO   H16 5043   4.111  -2.281   2.174 -0.5907 -1.0136 -0.1255
   12CHTO    N1 5044   3.902  -2.259   2.182 -0.9342 -0.6611 -0.3419
   12CHTO    H8 5045   3.850  -2.184   2.123  1.3467  1.0582 -0.1948
   12CHTO    H9 5046   3.843  -2.260   2.273 -1.3816  0.4876 -0.6174
   12CHTO    C4 5047   4.063  -2.217   2.376  0.1989  0.7349 -0.1389
   12CHTO   H17 5048   3.979  -2.174   2.430 -0.3885  1.2171 -1.4014
   12CHTO    O1 5049   4.191  -2.160   2.407 -0.5293 -0.3895  0.2110
   12CHTO    C5 5050   4.208  -2.026   2.372  0.2928  0.7938  0.5988
   12CHTO   H18 5051   4.121  -1.971   2.409  0.1100  0.7828  0.1947
   12CHTO   C16 5052   4.342  -1.976   2.429 -0.0280  0.0182 -0.8206
   12CHTO   O11 5053   4.310  -1.941   2.565 -0.0551  0.0447 -0.0150
   12CHTO    H5 5054   4.387  -1.918   2.613 -1.0903  0.2088  1.6100
   12CHTO    O3 5055   4.082  -2.353   2.418  0.0414  0.9746 -0.2743
   12CHTO    C6 5056   4.019  -2.383   2.547  0.5478  0.5026 -0.0769
   12CHTO   H19 5057   4.001  -2.298   2.614 -1.0865  0.5976 -0.6049
   12CHTO    C8 5058   3.875  -2.438   2.535  0.4885  0.6630 -0.5585
   12CHTO   H21 5059   3.878  -2.528   2.474  0.4625 -0.5789  1.2439
   12CHTO    O7 5060   3.793  -2.331   2.490 -0.2284 -0.0681 -0.1591
   12CHTO    H2 5061   3.748  -2.341   2.408 -0.1611 -0.9745 -0.0830
   12CHTO   C12 5062   3.822  -2.481   2.682 -0.2330 -0.1509  0.7717
   12CHTO   H25 5063   3.834  -2.393   2.749  2.3921  0.2346 -0.1567
   12CHTO    N3 5064   3.677  -2.529   2.682 -1.0826  0.3903 -0.1189
   12CHTO   H12 5065   3.592  -2.464   2.666 -0.0510  1.2613 -2.3017
   12CHTO   H13 5066   3.657  -2.629   2.647 -0.2622 -0.4393  1.7478
   12CHTO   C15 5067   3.924  -2.587   2.734  0.3213  0.1188  0.4441
   12CHTO   H28 5068   3.925  -2.681   2.680 -0.5312 -0.0985  0.7987
   12CHTO   O10 5069   3.902  -2.622   2.905  0.3086 -0.3355 -0.4512
   12CHTO    H4 5070   3.812  -2.616   2.933  0.0971  1.5209 -1.4395
   12CHTO    O5 5071   4.053  -2.526   2.750  0.1407 -0.2927  0.0380
   12CHTO   C10 5072   4.112  -2.481   2.625  0.9764 -0.3516 -0.2600
   12CHTO   H23 5073   4.131  -2.571   2.566  0.2390  0.3563 -1.6273
   12CHTO   C17 5074   4.251  -2.419   2.647  0.7774 -0.0150 -0.3296
   12CHTO   O12 5075   4.340  -2.518   2.690 -0.0231  0.2306 -0.1081
   12CHTO    H6 5076   4.367  -2.552   2.607  0.3481  0.9914 -0.3039
   13CHTO  H203 5077   8.198   4.497   1.425 -0.2156 -0.6838 -1.8753
   13CHTO   O82 5078   8.236   4.575   1.388 -0.0613  0.3680  0.3734
   13CHTO  C123 5079   8.157   4.667   1.304 -1.2167 -0.6768  0.8809
   13CHTO  H227 5080   8.156   4.629   1.201  1.4839 -2.1329  1.3374
   13CHTO   O77 5081   8.020   4.649   1.361 -0.0717 -0.5581 -0.0714
   13CHTO  C118 5082   7.928   4.730   1.291  0.3521  0.7185  0.1525
   13CHTO  H222 5083   7.941   4.700   1.186 -0.3543  0.6083  0.0991
   13CHTO  C125 5084   7.779   4.700   1.336  0.4921  0.3432  0.5825
   13CHTO   O84 5085   7.751   4.739   1.476  0.0409  0.8226 -0.1370
   13CHTO  H205 5086   7.659   4.741   1.492 -0.1672  0.5349 -1.2651
   13CHTO  C114 5087   7.957   4.884   1.296 -0.5501  0.0428  0.5155
   13CHTO  H218 5088   7.955   4.912   1.402  0.6561 -2.1019  1.1462
   13CHTO  C116 5089   8.105   4.906   1.246 -0.0094  1.1934  0.5496
   13CHTO  H220 5090   8.116   4.888   1.137  3.2745 -0.2502  1.0362
   13CHTO   O79 5091   8.133   5.045   1.277 -0.6171 -0.2773  0.0494
   13CHTO  H201 5092   8.126   5.076   1.366  0.1554  0.5180 -0.1559
   13CHTO  C120 5093   8.209   4.811   1.321  0.1361 -0.1131 -0.5403
   13CHTO  H224 5094   8.207   4.843   1.428  3.0284 -3.4462  0.6018
   13CHTO   N21 5095   8.348   4.821   1.265 -0.1785 -0.8400  0.0042
   13CHTO  H211 5096   8.373   4.919   1.225 -0.0825 -0.9650 -0.2453
   13CHTO  H212 5097   8.420   4.780   1.334 -0.0631 -0.1121  0.3259
   13CHTO   O75 5098   7.855   4.942   1.211 -1.2577 -0.0605 -0.0221
   13CHTO  C112 5099   7.786   5.091   1.290 -0.1943  0.1075 -0.8076
   13CHTO  H216 5100   7.862   5.132   1.358 -2.6412  1.9155  0.9468
   13CHTO   O73 5101   7.671   5.049   1.361 -0.1981 -0.5420  0.1058
   13CHTO  C113 5102   7.614   5.159   1.435 -0.3461 -0.7391  0.3718
   13CHTO  H217 5103   7.698   5.205   1.491 -1.9904  2.2573  0.4605
   13CHTO  C124 5104   7.522   5.094   1.527  0.1879 -0.2031  0.0683
   13CHTO   O83 5105   7.517   5.166   1.652  0.5005 -0.3220 -0.7243
   13CHTO  H204 5106   7.493   5.254   1.632 -1.7399 -0.6011  0.5887
   13CHTO  C109 5107   7.553   5.262   1.339 -0.1898  0.2093 -0.0210
   13CHTO  H213 5108   7.482   5.205   1.276  1.1304  0.0468 -1.3889
   13CHTO  C110 5109   7.673   5.313   1.250  0.3902 -0.3746 -0.1529
   13CHTO  H214 5110   7.746   5.365   1.311 -0.4674  0.2468  0.3633
   13CHTO   O78 5111   7.630   5.401   1.152 -0.3020  0.6645 -0.0172
   13CHTO  H200 5112   7.705   5.429   1.102  0.3936 -2.0259 -0.5558
   13CHTO  C111 5113   7.747   5.198   1.185 -0.2064 -0.3867 -0.0568
   13CHTO  H215 5114   7.683   5.157   1.106  0.5527  0.3938 -1.1043
   13CHTO   N19 5115   7.872   5.238   1.109 -0.1725  0.1252  0.4919
   13CHTO  H207 5116   7.887   5.340   1.077  2.7339 -0.0935  1.0588
   13CHTO  H208 5117   7.961   5.214   1.165 -0.5567 -0.7436  0.7280
   13CHTO   O74 5118   7.482   5.364   1.415  0.2533 -0.4126 -0.2591
   13CHTO  C115 5119   7.375   5.442   1.345  0.2520  0.8317  0.1969
   13CHTO  H219 5120   7.416   5.520   1.281 -2.2595  1.3660 -0.8078
   13CHTO   O76 5121   7.292   5.343   1.248  0.7325 -0.3498 -0.3494
   13CHTO  C122 5122   7.219   5.240   1.316  0.3097  0.2326 -0.4124
   13CHTO  H226 5123   7.287   5.164   1.354 -0.8079 -0.5513  0.0478
   13CHTO  C126 5124   7.136   5.161   1.214  0.5452 -0.6926  0.1361
   13CHTO   O85 5125   7.053   5.237   1.127 -0.1579 -0.0532 -0.1284
   13CHTO  H206 5126   6.971   5.192   1.119  0.2546 -0.4594 -2.4738
   13CHTO  C121 5127   7.131   5.299   1.428 -0.1086  0.4973  0.6321
   13CHTO  H225 5128   7.030   5.266   1.397  0.9877 -0.6350 -1.8632
   13CHTO   O81 5129   7.164   5.236   1.548 -0.2774 -0.3315  0.1121
   13CHTO  H202 5130   7.258   5.239   1.552 -0.2707  0.5783 -0.4836
   13CHTO  C119 5131   7.135   5.455   1.429 -0.4441 -0.3374 -0.4353
   13CHTO  H223 5132   7.101   5.492   1.332 -2.1583  0.5384  0.4596
   13CHTO  C117 5133   7.282   5.509   1.452 -0.8566  0.2971 -0.4388
   13CHTO  H221 5134   7.341   5.486   1.541 -1.1620 -1.1798 -0.6111
   13CHTO   N20 5135   7.291   5.655   1.456  0.3897 -0.4564  0.0166
   13CHTO  H209 5136   7.192   5.699   1.458  0.8525  0.5870  0.7652
   13CHTO  H210 5137   7.358   5.694   1.531  0.3518  1.2619 -0.8288
   13CHTO   O80 5138   7.014   5.517   1.524  0.0590  0.0507 -0.2708
   13CHTO  C103 5139   6.867   5.571   1.442 -0.4479 -0.3525  0.6575
   13CHTO  H190 5140   6.802   5.625   1.510 -2.3971 -0.1050 -1.3625
   13CHTO  C101 5141   6.873   5.663   1.314 -0.1300  0.4751 -0.1241
   13CHTO  H188 5142   6.937   5.612   1.242  0.9253 -0.7403  1.6371
   13CHTO   O68 5143   6.950   5.807   1.340 -0.3690  0.0627 -0.3720
   13CHTO  H168 5144   7.038   5.796   1.369 -0.9494  0.0097  1.4309
   13CHTO   C99 5145   6.725   5.679   1.258 -0.3577  0.5140 -0.0043
   13CHTO  H186 5146   6.660   5.741   1.324 -1.4716  1.1724 -1.6843
   13CHTO   N17 5147   6.713   5.749   1.130 -0.7533 -0.5609  0.0963
   13CHTO  H174 5148   6.647   5.835   1.137 -0.7072 -0.6653  1.9093
   13CHTO  H175 5149   6.810   5.785   1.097 -0.6163 -1.5960 -0.6392
   13CHTO   C97 5150   6.653   5.546   1.243  0.2161  0.1259  0.0088
   13CHTO  H184 5151   6.699   5.486   1.162  0.2964 -2.5408  1.9547
   13CHTO   O64 5152   6.659   5.475   1.366 -0.3616  0.2571 -0.1614
   13CHTO  C104 5153   6.790   5.438   1.406 -0.4657 -0.3751  0.6407
   13CHTO  H191 5154   6.842   5.388   1.324 -2.1604 -0.6103 -0.3137
   13CHTO  C108 5155   6.790   5.342   1.523 -0.2648 -0.5314  0.2811
   13CHTO   O71 5156   6.705   5.231   1.496  0.1503 -0.0544  0.1885
   13CHTO  H171 5157   6.753   5.178   1.436  0.5560  0.1566  0.3301
   13CHTO   O62 5158   6.511   5.553   1.226 -0.3979 -0.2555  0.4027
   13CHTO   C91 5159   6.428   5.436   1.193 -0.5887  0.5965 -0.0108
   13CHTO  H178 5160   6.495   5.352   1.207 -0.7331  0.4979  0.0817
   13CHTO   C92 5161   6.381   5.442   1.045 -0.0674 -0.1141 -0.2957
   13CHTO  H179 5162   6.331   5.539   1.032  0.8039  0.6939  2.2203
   13CHTO   O66 5163   6.502   5.423   0.968  0.2233  0.4144 -0.0916
   13CHTO  H166 5164   6.542   5.346   1.003  1.2862  2.1931  2.7754
   13CHTO   C93 5165   6.269   5.340   1.005 -0.1462  0.0009  0.5283
   13CHTO  H180 5166   6.308   5.240   1.024 -0.9266 -0.2392  0.8859
   13CHTO   N16 5167   6.226   5.339   0.868  0.0393 -0.5378 -0.1335
   13CHTO  H172 5168   6.160   5.256   0.850 -0.1972 -0.4074  0.1202
   13CHTO  H173 5169   6.166   5.426   0.843  0.0420 -0.8022 -1.0939
   13CHTO   C94 5170   6.152   5.358   1.104  0.8061  0.3511  0.6077
   13CHTO  H181 5171   6.110   5.458   1.104  0.9435  0.4270 -1.4301
   13CHTO   O61 5172   6.204   5.326   1.232 -0.1214 -0.3300 -0.3825
   13CHTO   C95 5173   6.301   5.415   1.283 -0.1233 -0.6059  0.6556
   13CHTO  H182 5174   6.257   5.514   1.296 -0.3788 -0.4572 -1.2005
   13CHTO  C106 5175   6.335   5.372   1.436 -0.7682 -0.1785 -0.6137
   13CHTO   O69 5176   6.314   5.235   1.468  0.1031  0.1669  0.3643
   13CHTO  H169 5177   6.357   5.182   1.403 -0.1175 -1.2228  1.3311
   13CHTO   O63 5178   6.042   5.253   1.074 -0.4570  0.0220 -0.0142
   13CHTO   C96 5179   5.902   5.239   1.153 -0.5037 -1.1130 -0.4201
   13CHTO  H183 5180   5.824   5.179   1.106 -0.9260  0.0649 -1.2582
   13CHTO   C98 5181   5.832   5.374   1.178 -0.6034  0.0096 -0.1964
   13CHTO  H185 5182   5.899   5.450   1.223  0.5411 -1.3266  0.3891
   13CHTO   O67 5183   5.796   5.428   1.051  0.0892 -0.2827  0.4326
   13CHTO  H167 5184   5.752   5.511   1.046  0.4669 -0.0448  0.8921
   13CHTO  C102 5185   5.702   5.359   1.266  0.0328  0.8008 -1.3177
   13CHTO  H189 5186   5.628   5.302   1.208  0.0179 -1.1485  0.5816
   13CHTO   N18 5187   5.638   5.488   1.305  0.1316  0.7135 -0.3834
   13CHTO  H176 5188   5.544   5.476   1.355 -0.0665  0.5744 -0.7862
   13CHTO  H177 5189   5.618   5.533   1.209  0.1620 -0.2964 -0.8712
   13CHTO  C105 5190   5.726   5.276   1.393 -0.0802  0.1335 -0.0625
   13CHTO  H192 5191   5.757   5.342   1.473  2.1144 -0.6688 -0.2038
   13CHTO   O65 5192   5.815   5.165   1.371  0.6191  0.0022  0.2366
   13CHTO  C100 5193   5.931   5.184   1.292 -0.0627  0.0837 -0.4991
   13CHTO  H187 5194   5.981   5.270   1.338  1.3976 -0.9027 -0.2284
   13CHTO  C107 5195   6.010   5.051   1.305  0.3444 -0.2887  0.3586
   13CHTO   O70 5196   6.140   5.059   1.244  0.0119 -0.2522  0.0139
   13CHTO  H170 5197   6.187   5.138   1.261  0.0849  0.0758 -1.6255
   13CHTO   O57 5198   5.568   5.216   1.447 -0.4321  0.4240 -0.0374
   13CHTO   C85 5199   5.486   5.126   1.376  0.1641  0.0413  0.2910
   13CHTO  H157 5200   5.546   5.101   1.286  2.8656  0.5406  1.8932
   13CHTO   C83 5201   5.346   5.191   1.342  0.3263  0.0971  0.2150
   13CHTO  H155 5202   5.366   5.278   1.279  2.5640 -1.3887 -1.2279
   13CHTO   O56 5203   5.278   5.234   1.461  0.0308  0.6989  0.7691
   13CHTO  H135 5204   5.271   5.326   1.448  2.2571  0.7431 -0.4031
   13CHTO   C81 5205   5.264   5.093   1.253  0.7576 -0.0501 -0.2078
   13CHTO  H153 5206   5.323   5.064   1.166  0.7387 -0.3949 -0.1058
   13CHTO   N14 5207   5.140   5.147   1.198 -0.5008  0.1201 -0.4153
   13CHTO  H141 5208   5.125   5.241   1.247 -1.3355 -1.7915  3.1719
   13CHTO  H142 5209   5.148   5.160   1.092  1.4560  1.8348 -0.0783
   13CHTO   C79 5210   5.242   4.960   1.337 -0.1114 -0.8101 -0.4142
   13CHTO  H151 5211   5.195   4.888   1.272  1.1576 -1.3399 -0.7513
   13CHTO   O52 5212   5.374   4.908   1.379  0.2529 -0.1800  0.0040
   13CHTO   C86 5213   5.453   4.996   1.457  0.2634 -0.2334  0.0064
   13CHTO  H158 5214   5.385   5.013   1.543 -0.5838 -2.8169 -0.1175
   13CHTO   C90 5215   5.576   4.933   1.510 -0.1269 -0.3106  0.7200
   13CHTO   O60 5216   5.556   4.844   1.618  0.3799 -0.3535  0.0652
   13CHTO  H138 5217   5.528   4.908   1.681  0.1511 -0.2121 -0.1774
   13CHTO   O50 5218   5.159   4.965   1.448 -0.2306 -0.5536  0.4521
   13CHTO   C73 5219   5.030   4.917   1.490 -1.1408 -0.0597 -0.0639
   13CHTO  H145 5220   5.006   4.840   1.415 -0.1403 -1.6445  1.2176
   13CHTO   C74 5221   4.927   5.035   1.503 -0.0021  0.1891 -0.3602
   13CHTO  H146 5222   4.914   5.085   1.406  0.4282  0.5147 -0.2524
   13CHTO   O54 5223   4.803   4.962   1.538 -0.5864 -0.2247 -0.7831
   13CHTO  H133 5224   4.736   5.020   1.508  0.4445  0.9411 -0.8394
   13CHTO   C75 5225   4.979   5.135   1.615 -0.8890  0.6979  0.4235
   13CHTO  H147 5226   5.075   5.179   1.583 -0.1373  0.0546  1.7669
   13CHTO   N13 5227   4.886   5.250   1.634 -0.2714 -0.0251  0.5146
   13CHTO  H139 5228   4.944   5.327   1.684  1.3670  0.9369 -2.7451
   13CHTO  H140 5229   4.854   5.288   1.538 -0.2144 -0.9058  0.1390
   13CHTO   C76 5230   5.005   5.051   1.752  0.1958  0.6797 -0.6339
   13CHTO  H148 5231   4.908   5.012   1.785  1.2727  1.1577  3.3014
   13CHTO   O49 5232   5.093   4.941   1.728  0.1929 -0.7696  0.2032
   13CHTO   C77 5233   5.048   4.846   1.631 -0.6076 -0.0903  0.2487
   13CHTO  H149 5234   4.955   4.800   1.665  0.9109 -2.1854  1.6507
   13CHTO   C88 5235   5.151   4.734   1.626  0.2279  0.7434 -0.4859
   13CHTO   O58 5236   5.165   4.645   1.753 -0.2585  0.0531  0.4148
   13CHTO  H136 5237   5.180   4.703   1.825  0.5846 -0.0969  0.3558
   13CHTO   O51 5238   5.059   5.149   1.886 -0.2078  0.0043  0.0375
   13CHTO   C78 5239   5.208   5.202   1.899 -0.5272 -0.2458 -0.3031
   13CHTO  H150 5240   5.225   5.238   2.003  3.2128 -0.0983 -0.8792
   13CHTO   C80 5241   5.232   5.323   1.804  0.2215 -0.3963  0.3546
   13CHTO  H152 5242   5.202   5.297   1.701  2.3694 -0.3617 -0.3174
   13CHTO   O55 5243   5.134   5.422   1.858 -0.5608 -0.6149  0.2919
   13CHTO  H134 5244   5.084   5.454   1.785 -1.1976  0.6202  1.2560
   13CHTO   C84 5245   5.385   5.367   1.798 -0.0140  0.1153 -0.2474
   13CHTO  H156 5246   5.417   5.393   1.899 -0.1881 -0.4698 -0.0351
   13CHTO   N15 5247   5.407   5.485   1.709  0.2531  0.8506 -0.3409
   13CHTO  H143 5248   5.459   5.465   1.618  2.8773  3.3707  0.5179
   13CHTO  H144 5249   5.462   5.559   1.763  1.4582 -0.8263  0.8003
   13CHTO   C87 5250   5.481   5.245   1.778 -0.3140  0.3446 -0.0064
   13CHTO  H159 5251   5.468   5.202   1.679  1.2054 -0.7696  0.2628
   13CHTO   O53 5252   5.444   5.144   1.873 -0.4075 -0.5837  0.5476
   13CHTO   C82 5253   5.313   5.091   1.866  0.5310 -0.0405 -0.2388
   13CHTO  H154 5254   5.291   5.046   1.769 -0.6210  1.3130 -0.6213
   13CHTO   C89 5255   5.311   4.979   1.975  0.2660  0.2240  0.3110
   13CHTO   O59 5256   5.193   4.899   1.981  0.0178  0.5670  0.3262
   13CHTO  H137 5257   5.188   4.837   2.051 -0.4320 -0.2651 -0.4331
   13CHTO   O45 5258   5.630   5.291   1.784 -0.0672 -0.1731  0.1864
   13CHTO   C67 5259   5.722   5.179   1.811  0.0314 -0.1070  0.0565
   13CHTO  H124 5260   5.678   5.084   1.784 -0.4001 -0.0199  0.4437
   13CHTO   C65 5261   5.855   5.197   1.736 -0.3074 -0.1608 -0.5271
   13CHTO  H122 5262   5.839   5.217   1.630 -1.0147 -0.1571 -0.4226
   13CHTO   O44 5263   5.927   5.070   1.732  0.4823 -1.1858 -0.0489
   13CHTO  H102 5264   5.960   5.041   1.814 -1.5707 -0.3300  1.1171
   13CHTO   C63 5265   5.939   5.320   1.803  0.3770 -0.3109 -0.3646
   13CHTO  H120 5266   5.883   5.411   1.782 -1.1061 -1.3888 -1.2229
   13CHTO   N11 5267   6.057   5.350   1.730  0.5577 -0.2237 -0.2236
   13CHTO  H108 5268   6.120   5.264   1.742  0.0446 -1.1058 -3.3985
   13CHTO  H109 5269   6.023   5.353   1.628 -2.3963  1.0424  0.7326
   13CHTO   C61 5270   5.964   5.299   1.948  0.2935  0.4662 -0.3407
   13CHTO  H118 5271   6.006   5.388   1.998 -1.4922  2.1895 -1.8337
   13CHTO   O40 5272   5.841   5.266   2.017 -0.4789  0.8352  0.9211
   13CHTO   C68 5273   5.743   5.177   1.971 -0.3703 -0.1147  0.0843
   13CHTO  H125 5274   5.645   5.210   2.012 -0.7081 -0.2327 -0.6163
   13CHTO   C72 5275   5.771   5.024   2.020  0.7283 -0.3022 -0.2132
   13CHTO   O48 5276   5.656   4.944   2.002 -0.2080 -0.3827 -0.0126
   13CHTO  H105 5277   5.675   4.862   1.961  0.2413 -1.3673  2.1351
   13CHTO   O38 5278   6.046   5.184   1.980  0.3702 -0.0747  0.2421
   13CHTO   C55 5279   6.136   5.204   2.094  0.1327 -0.0568 -0.6255
   13CHTO  H112 5280   6.167   5.100   2.116  1.9587  0.3911 -1.0248
   13CHTO   C56 5281   6.073   5.275   2.214 -0.8527  0.3628 -0.4932
   13CHTO  H113 5282   6.036   5.373   2.180  0.8494  0.6489 -1.5584
   13CHTO   O42 5283   5.961   5.194   2.270 -0.0918  0.3456 -0.2769
   13CHTO  H100 5284   5.922   5.129   2.214 -0.6737 -0.0574  0.5966
   13CHTO   C57 5285   6.173   5.309   2.329  0.0831  0.5264 -0.3832
   13CHTO  H114 5286   6.201   5.213   2.373  3.2939  0.7754 -1.7277
   13CHTO   N10 5287   6.119   5.392   2.436  0.2024  0.0031  0.1147
   13CHTO  H106 5288   6.182   5.398   2.524 -0.1971 -2.6562  0.6292
   13CHTO  H107 5289   6.107   5.488   2.389 -0.5444  0.4034  1.1055
   13CHTO   C58 5290   6.297   5.366   2.263 -0.1749  0.3323 -0.2589
   13CHTO  H115 5291   6.267   5.463   2.219 -1.0748 -1.3937 -3.6091
   13CHTO   O37 5292   6.351   5.281   2.159 -0.1511 -0.0174  0.2381
   13CHTO   C59 5293   6.267   5.273   2.042 -0.5253  0.1888  0.1104
   13CHTO  H116 5294   6.249   5.368   1.993  2.2205  1.0533  0.6579
   13CHTO   C70 5295   6.324   5.172   1.939  0.5565 -0.0223  0.4313
   13CHTO   O46 5296   6.460   5.197   1.907 -0.5685 -0.7882  0.8285
   13CHTO  H103 5297   6.485   5.277   1.865  2.0273 -1.9480  0.0238
   13CHTO   O39 5298   6.430   5.384   2.362  0.4089  0.2972 -0.0374
   13CHTO   C60 5299   6.513   5.496   2.328 -0.1181  0.5918  0.8008
   13CHTO  H117 5300   6.485   5.534   2.229  0.5177 -0.4894  0.1859
   13CHTO   C62 5301   6.484   5.601   2.440 -0.0245 -0.2372 -0.1282
   13CHTO  H119 5302   6.376   5.618   2.421 -0.2316 -3.0522 -1.7924
   13CHTO   O43 5303   6.511   5.550   2.572 -0.2821 -0.3715 -0.0286
   13CHTO  H101 5304   6.499   5.458   2.561  2.3715 -0.6434 -0.8255
   13CHTO   C66 5305   6.575   5.729   2.406  0.2922  0.0976 -0.9030
   13CHTO  H123 5306   6.547   5.772   2.309  1.3274  2.6194 -0.1383
   13CHTO   N12 5307   6.555   5.843   2.493 -0.4984 -0.0944 -0.3743
   13CHTO  H110 5308   6.631   5.919   2.480 -0.4622 -0.3840 -1.9131
   13CHTO  H111 5309   6.458   5.885   2.470 -0.9238 -0.0907  1.3577
   13CHTO   C69 5310   6.721   5.691   2.380 -0.5205 -0.4024 -0.3589
   13CHTO  H126 5311   6.765   5.653   2.475 -2.2036  1.6589  1.3033
   13CHTO   O41 5312   6.724   5.574   2.271 -0.5068 -0.1569  0.5654
   13CHTO   C64 5313   6.659   5.463   2.316 -0.3149 -0.0357 -0.3182
   13CHTO  H121 5314   6.696   5.415   2.409  1.2765  1.2454 -0.2692
   13CHTO   C71 5315   6.681   5.355   2.209  0.3629  0.3720  0.1847
   13CHTO   O47 5316   6.821   5.335   2.185  0.4247  0.2745  0.4620
   13CHTO  H104 5317   6.836   5.292   2.103 -0.2589  0.3437  0.2968
   13CHTO   O34 5318   6.801   5.810   2.327 -0.0048 -0.0427  0.0161
   13CHTO   C49 5319   6.954   5.816   2.341 -0.5047 -0.4621  0.2428
   13CHTO   H91 5320   6.996   5.717   2.325  1.0797  0.1936  0.1659
   13CHTO   C47 5321   6.992   5.861   2.486  0.0080 -0.6011 -0.3715
   13CHTO   H89 5322   7.102   5.851   2.487 -0.0923 -1.8622 -0.6919
   13CHTO   O33 5323   6.941   5.772   2.586 -0.5068 -0.4553  0.7709
   13CHTO   H70 5324   6.989   5.693   2.595 -1.8562 -1.2253  1.3094
   13CHTO   C45 5325   6.930   6.014   2.516 -0.6878 -0.3262 -0.3199
   13CHTO   H87 5326   6.833   6.003   2.567 -0.6852 -0.3766 -0.3268
   13CHTO    N8 5327   7.021   6.083   2.611 -0.1828 -0.1134 -0.6504
   13CHTO   H75 5328   7.036   6.023   2.699  0.3926 -1.6489 -1.7715
   13CHTO   H76 5329   7.120   6.092   2.569  0.3279  3.2911  1.0331
   13CHTO   C43 5330   6.904   6.089   2.381 -0.0383 -0.4723  0.1695
   13CHTO   H85 5331   6.807   6.064   2.339 -0.0030  2.2711 -1.6297
   13CHTO   O29 5332   7.006   6.065   2.287 -0.3534 -0.4228  0.0740
   13CHTO   C50 5333   7.017   5.924   2.243 -0.1530  0.5184  0.0132
   13CHTO   H92 5334   6.959   5.921   2.150  1.8637 -0.3185 -1.2545
   13CHTO   C54 5335   7.168   5.896   2.197 -0.1455  0.2803 -0.0779
   13CHTO   O36 5336   7.201   5.964   2.077 -0.0531 -0.5225 -0.3134
   13CHTO   H72 5337   7.148   5.927   2.009  0.3415 -1.4003 -0.1511
   13CHTO   O27 5338   6.887   6.233   2.396  0.5079  0.0189 -0.1419
   13CHTO   C37 5339   6.815   6.349   2.435  0.5473  0.7732  0.1741
   13CHTO   H79 5340   6.748   6.319   2.517 -0.1553  0.8835 -0.3600
   13CHTO   C38 5341   6.910   6.464   2.495 -0.4985 -0.5463  1.0111
   13CHTO   H80 5342   6.989   6.480   2.421 -1.1393 -2.3633 -0.0975
   13CHTO   O31 5343   6.958   6.412   2.621 -0.2417 -0.7459 -0.1319
   13CHTO   H68 5344   6.892   6.419   2.687 -1.4861 -1.0967 -1.3353
   13CHTO   C39 5345   6.824   6.599   2.518  0.2051  0.0176  0.0237
   13CHTO   H81 5346   6.757   6.586   2.604  2.3641  0.9769  1.9069
   13CHTO    N7 5347   6.905   6.720   2.566 -1.0233  0.3192  0.2263
   13CHTO   H73 5348   7.009   6.693   2.579 -0.7730  0.8938 -0.5761
   13CHTO   H74 5349   6.863   6.761   2.656  0.2591 -0.9487  1.4196
   13CHTO   C40 5350   6.738   6.637   2.396 -0.4870 -0.4705  0.0837
   13CHTO   H82 5351   6.795   6.677   2.313 -0.0018  2.5412  1.7536
   13CHTO   O26 5352   6.660   6.525   2.362  0.6217  0.2934 -0.7927
   13CHTO   C41 5353   6.730   6.408   2.317  0.1430  0.1258  0.0951
   13CHTO   H83 5354   6.800   6.440   2.239 -0.0809 -1.0950 -0.6140
   13CHTO   C52 5355   6.622   6.305   2.273  0.2010 -0.2206  0.0732
   13CHTO   O35 5356   6.510   6.278   2.378  0.5661 -0.0287 -0.2347
   13CHTO   H71 5357   6.437   6.226   2.348 -0.4860  0.0709  2.0237
   13CHTO   O28 5358   6.627   6.723   2.440  0.1519  0.0886  0.1117
   13CHTO   C42 5359   6.581   6.834   2.364 -0.6711  1.1106 -0.4084
   13CHTO   H84 5360   6.616   6.817   2.263 -0.4144  2.5979 -0.5785
   13CHTO   C44 5361   6.631   6.977   2.413 -0.1889  0.0446 -0.4864
   13CHTO   H86 5362   6.587   7.003   2.509 -1.2289 -1.8265 -0.4171
   13CHTO   O32 5363   6.773   6.971   2.422  0.2081  0.1227 -0.2899
   13CHTO   H69 5364   6.798   7.032   2.488 -0.0384  2.0420 -1.9432
   13CHTO   C48 5365   6.587   7.080   2.307  0.3563 -0.5224  0.5273
   13CHTO   H90 5366   6.626   7.035   2.215 -1.1900 -2.6002  0.8590
   13CHTO    N9 5367   6.635   7.219   2.327  0.1561  0.4571 -0.2501
   13CHTO   H77 5368   6.741   7.228   2.311  0.2598 -0.9932 -0.4181
   13CHTO   H78 5369   6.601   7.249   2.425 -1.8886  0.8926 -1.0737
   13CHTO   C51 5370   6.430   7.072   2.289  0.1201  0.3253 -0.1639
   13CHTO   H93 5371   6.379   7.100   2.382  0.0414 -0.6365  0.0835
   13CHTO   O30 5372   6.402   6.934   2.253 -0.3733  0.3830 -0.4584
   13CHTO   C46 5373   6.426   6.844   2.352 -0.0741  0.0400  0.2901
   13CHTO   H88 5374   6.389   6.877   2.449 -1.6536 -0.9230  0.0219
   13CHTO   C53 5375   6.360   6.702   2.313 -0.2413  0.6800 -0.3873
   13CHTO   O72 5376   6.224   6.693   2.345  0.1669 -0.0455 -0.0745
   13CHTO  H199 5377   6.208   6.762   2.406  2.4539  1.1082 -0.7231
   13CHTO   O22 5378   6.366   7.152   2.182 -0.7523  0.1928 -0.2124
   13CHTO   C31 5379   6.226   7.187   2.191  0.2204 -0.0374 -0.6634
   13CHTO   H59 5380   6.204   7.249   2.102 -0.7539  2.5471  1.3361
   13CHTO   C29 5381   6.124   7.069   2.193 -0.0870  0.3211  0.0420
   13CHTO   H57 5382   6.145   7.024   2.291  0.4566  0.0964 -0.1724
   13CHTO   O21 5383   6.164   6.976   2.087  0.5841 -0.3081 -0.3477
   13CHTO   H37 5384   6.258   6.975   2.079  0.6891 -0.3149  0.8010
   13CHTO   C27 5385   5.976   7.115   2.191 -0.2987 -1.0082 -0.0612
   13CHTO   H55 5386   5.964   7.166   2.094 -0.2088  0.3050  0.6099
   13CHTO    N5 5387   5.880   7.004   2.195 -0.2454 -0.1544  0.7330
   13CHTO   H43 5388   5.835   6.991   2.097 -2.1561  0.9190  1.4333
   13CHTO   H44 5389   5.906   6.913   2.246  1.4626  0.5268  1.1189
   13CHTO   C25 5390   5.953   7.199   2.315  0.3632  0.6278  0.0657
   13CHTO   H53 5391   5.959   7.133   2.403 -0.4495  0.1843 -0.2099
   13CHTO   O17 5392   6.049   7.316   2.324  0.2122 -0.1166  0.0182
   13CHTO   C32 5393   6.188   7.289   2.307 -0.9943  0.0029 -0.0632
   13CHTO   H60 5394   6.221   7.244   2.401  0.9620 -1.0226 -1.2075
   13CHTO   C36 5395   6.267   7.427   2.291 -1.0200  0.7522  0.0879
   13CHTO   O25 5396   6.395   7.426   2.356  0.2554  0.0065 -0.0598
   13CHTO   H40 5397   6.377   7.405   2.446 -1.8849 -0.3408 -0.5447
   13CHTO   O15 5398   5.826   7.254   2.326  0.3066 -0.1648 -0.4173
   13CHTO   C19 5399   5.702   7.321   2.306 -0.1494 -0.6297  0.2982
   13CHTO   H47 5400   5.667   7.346   2.408  0.7134 -2.7398  1.1447
   13CHTO   C20 5401   5.717   7.448   2.218  0.1210 -0.3072  0.1227
   13CHTO   H48 5402   5.784   7.431   2.132  0.3835 -0.9831  0.4493
   13CHTO   O19 5403   5.796   7.531   2.312 -0.0004 -0.3271 -0.3521
   13CHTO   H35 5404   5.884   7.501   2.312  0.4520  0.9209 -1.9094
   13CHTO   C21 5405   5.589   7.516   2.171 -0.7893  0.3192 -0.2235
   13CHTO   H49 5406   5.541   7.564   2.257  0.6310 -0.3840  0.9854
   13CHTO    N4 5407   5.606   7.634   2.085 -0.3736  0.1108  0.0920
   13CHTO   H41 5408   5.533   7.633   2.006 -0.0678 -0.3720 -0.1967
   13CHTO   H42 5409   5.703   7.645   2.037  0.5752 -4.3003  0.6955
   13CHTO   C22 5410   5.485   7.415   2.115 -0.4682  0.6860 -0.2468
   13CHTO   H50 5411   5.520   7.362   2.027 -1.7441  0.1823 -0.4725
   13CHTO   O14 5412   5.466   7.318   2.219 -0.6353  0.8046 -0.3337
   13CHTO   C23 5413   5.590   7.239   2.238  0.1704  0.2376 -0.3677
   13CHTO   H51 5414   5.621   7.201   2.139 -0.2503  0.9740 -0.7923
   13CHTO   C34 5415   5.559   7.118   2.329 -0.4663  0.4086  0.1917
   13CHTO   O23 5416   5.473   7.022   2.264  0.0926 -0.4082 -1.1643
   13CHTO   H38 5417   5.401   7.067   2.224  2.0553  2.6573 -1.4371
   13CHTO   O16 5418   5.356   7.482   2.079 -0.4448  0.0629  0.3112
   13CHTO   C24 5419   5.229   7.421   2.124  0.3593 -0.8450  0.0805
   13CHTO   H52 5420   5.239   7.356   2.211 -0.0412  0.2076  0.9332
   13CHTO   C26 5421   5.175   7.338   2.011  0.5028  0.4201  0.5193
   13CHTO   H54 5422   5.148   7.404   1.927 -0.7012 -1.6474 -0.7573
   13CHTO   O20 5423   5.266   7.238   1.974 -0.1032 -0.0573 -0.0781
   13CHTO   H36 5424   5.220   7.177   1.920 -0.3608  0.8011 -0.8342
   13CHTO   C30 5425   5.034   7.285   2.055 -0.2549  0.1061 -0.9025
   13CHTO   H58 5426   5.047   7.230   2.150  2.0252 -0.5951 -1.5883
   13CHTO    N6 5427   4.980   7.188   1.956  0.0957  0.2036  0.3591
   13CHTO   H45 5428   5.034   7.153   1.869  0.8338 -0.6233  1.1467
   13CHTO   H46 5429   4.940   7.105   2.012 -0.1157 -0.7687 -1.2083
   13CHTO   C33 5430   4.934   7.402   2.075 -0.1676  0.6848  0.1412
   13CHTO   H61 5431   4.941   7.470   1.988  0.6871  2.3125  1.4582
   13CHTO   O18 5432   4.990   7.475   2.190 -0.3141  0.2151 -0.2635
   13CHTO   C28 5433   5.124   7.535   2.165  1.0893  0.3261 -0.7855
   13CHTO   H56 5434   5.133   7.615   2.092 -1.1522  0.8837 -0.4848
   13CHTO   C35 5435   5.170   7.601   2.296  0.2190 -0.6360  0.3608
   13CHTO   O24 5436   5.081   7.704   2.340 -0.8632 -0.2220 -0.5681
   13CHTO   H39 5437   5.123   7.788   2.344  0.1595 -0.7434  0.2800
   13CHTO    O9 5438   4.793   7.367   2.095  0.3232 -0.3631  0.1137
   13CHTO   C13 5439   4.772   7.272   2.210  0.3457 -0.0186 -0.0465
   13CHTO   H26 5440   4.871   7.243   2.251 -0.8210 -1.3671  1.8642
   13CHTO   C11 5441   4.694   7.144   2.151 -0.4733  0.0367  0.3564
   13CHTO   H24 5442   4.760   7.104   2.072 -2.0182  0.3540 -1.1196
   13CHTO    O8 5443   4.562   7.171   2.103  0.0958 -1.0349 -0.0100
   13CHTO    H3 5444   4.518   7.231   2.160 -3.1935 -2.4574 -0.9482
   13CHTO    C9 5445   4.701   7.029   2.259 -0.5960  0.1939 -0.1491
   13CHTO   H22 5446   4.808   7.014   2.278 -0.5088  0.3935 -0.4706
   13CHTO    N2 5447   4.661   6.898   2.217  0.2359 -0.5266  0.2225
   13CHTO   H10 5448   4.565   6.898   2.166  0.2701 -1.4662  0.1568
   13CHTO   H11 5449   4.660   6.831   2.301 -1.8323  2.1157  2.4356
   13CHTO    C7 5450   4.634   7.085   2.394 -0.2910  0.4716 -0.2794
   13CHTO   H20 5451   4.712   7.063   2.470  0.6047  1.3422 -0.9376
   13CHTO    O4 5452   4.610   7.224   2.392  0.3679 -0.0825  0.5696
   13CHTO   C14 5453   4.682   7.326   2.325  0.2748  0.5734  0.7664
   13CHTO   H27 5454   4.752   7.370   2.399 -0.9400  0.5746  1.9365
   13CHTO   C18 5455   4.576   7.433   2.288 -0.2320 -0.8873 -0.1952
   13CHTO   O13 5456   4.532   7.510   2.405  0.3967  0.1189  0.4520
   13CHTO    H7 5457   4.475   7.577   2.373  0.3690 -0.3782 -0.5782
   13CHTO    O2 5458   4.488   7.011   2.437  0.1172  0.0712 -0.2095
   13CHTO    C1 5459   4.484   6.994   2.574  0.6719 -0.2204  0.1805
   13CHTO   H14 5460   4.538   7.069   2.635 -0.6846 -0.9870  2.3879
   13CHTO    C2 5461   4.538   6.849   2.614 -0.0088  0.7811  0.7158
   13CHTO   H15 5462   4.463   6.781   2.573  0.5192  1.5491 -1.5922
   13CHTO    O6 5463   4.669   6.824   2.564 -0.2334 -0.0661  0.1154
   13CHTO    H1 5464   4.699   6.892   2.507  0.8529  0.3918  1.2155
   13CHTO    C3 5465   4.524   6.841   2.769  0.1635  0.2271  0.0678
   13CHTO   H16 5466   4.598   6.917   2.797  1.3808  0.3939 -3.4333
   13CHTO    N1 5467   4.562   6.705   2.827 -0.4904 -0.1398 -0.8007
   13CHTO    H8 5468   4.494   6.678   2.907 -2.1955  3.3351 -1.0088
   13CHTO    H9 5469   4.659   6.726   2.871 -0.9077  0.0805  0.0172
   13CHTO    C4 5470   4.386   6.893   2.838  0.3684 -0.0789  0.6014
   13CHTO   H17 5471   4.311   6.815   2.846 -0.3677  0.2848 -2.1461
   13CHTO    O1 5472   4.330   7.003   2.767 -0.7908  0.0699 -0.3309
   13CHTO    C5 5473   4.339   7.001   2.623 -0.2465  0.1113  0.2398
   13CHTO   H18 5474   4.282   6.916   2.583 -1.5072  1.8905 -1.8641
   13CHTO   C16 5475   4.272   7.137   2.579 -0.5816 -0.4822  0.0285
   13CHTO   O11 5476   4.127   7.135   2.573  0.0567 -0.0376  0.3032
   13CHTO    H5 5477   4.099   7.133   2.662  1.7751 -1.0833  0.8404
   13CHTO    O3 5478   4.410   6.940   2.972 -0.3305  0.2046  0.3184
   13CHTO    C6 5479   4.290   6.921   3.060  0.3616 -0.8852  0.4096
   13CHTO   H19 5480   4.200   6.906   3.000 -0.2231 -0.3054  1.1184
   13CHTO    C8 5481   4.302   6.800   3.148  0.8168  0.2204 -0.3769
   13CHTO   H21 5482   4.393   6.809   3.206 -0.7371 -2.6610  2.6402
   13CHTO    O7 5483   4.303   6.687   3.065  0.7650 -0.2517 -0.7111
   13CHTO    H2 5484   4.315   6.609   3.115  3.7375  0.8192  0.3535
   13CHTO   C12 5485   4.172   6.791   3.241  0.1949  0.1978 -0.3181
   13CHTO   H25 5486   4.087   6.763   3.175 -1.1306 -1.2272  1.9172
   13CHTO    N3 5487   4.181   6.683   3.346  0.4363  0.0788  0.7645
   13CHTO   H12 5488   4.096   6.706   3.409 -1.6184 -2.5444 -0.9858
   13CHTO   H13 5489   4.166   6.590   3.294 -1.0480 -0.5249  2.2231
   13CHTO   C15 5490   4.139   6.940   3.308 -0.1916 -0.2853 -0.2595
   13CHTO   H28 5491   4.210   6.964   3.387  1.0422  0.8424 -1.6753
   13CHTO   O10 5492   3.986   6.950   3.358  0.1676  0.2252 -0.0534
   13CHTO    H4 5493   3.927   6.939   3.286  0.8242 -1.6660 -0.3317
   13CHTO    O5 5494   4.147   7.051   3.215 -0.2004  0.2286  0.4275
   13CHTO   C10 5495   4.266   7.052   3.142 -0.0947 -0.3519  0.4390
   13CHTO   H23 5496   4.357   7.063   3.201  1.4281 -0.3914 -1.8380
   13CHTO   C17 5497   4.262   7.180   3.049 -0.1027 -0.0056  0.1560
   13CHTO   O12 5498   4.393   7.206   3.006 -0.3870 -0.2956  0.5211
   13CHTO    H6 5499   4.416   7.138   2.946 -1.7231 -0.6445  0.4044
   14CHTO  H203 5500   6.922   4.778   2.109 -0.5278  0.8420 -0.4285
   14CHTO   O82 5501   6.970   4.799   2.031  0.4336  0.0530 -0.0654
   14CHTO  C123 5502   6.892   4.818   1.919  0.6243 -0.1969 -0.4813
   14CHTO  H227 5503   6.957   4.869   1.847  0.7604 -1.8597 -1.5759
   14CHTO   O77 5504   6.861   4.686   1.868 -0.0458 -0.1889  0.4650
   14CHTO  C118 5505   6.792   4.687   1.738 -0.4289  0.2270  0.0392
   14CHTO  H222 5506   6.860   4.749   1.678  0.7874 -1.2721 -0.1681
   14CHTO  C125 5507   6.791   4.531   1.682 -0.3796 -0.3731 -0.2821
   14CHTO   O84 5508   6.779   4.532   1.544  0.5922  0.2639  0.9763
   14CHTO  H205 5509   6.778   4.443   1.512 -3.1258  0.4847  0.2029
   14CHTO  C114 5510   6.654   4.747   1.762 -0.0619 -0.0209  0.4570
   14CHTO  H218 5511   6.603   4.686   1.837  1.8811 -3.3177 -0.7797
   14CHTO  C116 5512   6.666   4.890   1.812  0.4082 -0.7176  0.6329
   14CHTO  H220 5513   6.710   4.955   1.733  0.0727 -0.3172  0.7725
   14CHTO   O79 5514   6.532   4.939   1.837 -0.5985 -0.4779 -0.5627
   14CHTO  H201 5515   6.505   4.902   1.919  1.5623  0.8842  0.8125
   14CHTO  C120 5516   6.754   4.895   1.939 -0.2481  0.0416  0.0916
   14CHTO  H224 5517   6.696   4.853   2.024 -2.5330  1.4273 -0.7307
   14CHTO   N21 5518   6.779   5.036   1.981  0.1985 -0.0866 -0.3861
   14CHTO  H211 5519   6.874   5.038   2.034  0.6249  0.6218 -1.1664
   14CHTO  H212 5520   6.707   5.092   2.039  1.2929  0.8098  0.1419
   14CHTO   O75 5521   6.588   4.724   1.637 -0.0856  0.0189  0.0226
   14CHTO  C112 5522   6.426   4.695   1.630  0.1786  0.0602  0.0233
   14CHTO  H216 5523   6.377   4.764   1.700 -1.3731 -0.9503 -0.0602
   14CHTO   O73 5524   6.410   4.559   1.669 -0.1038 -0.1849  0.5074
   14CHTO  C113 5525   6.272   4.518   1.695  0.2189  0.0857  0.1060
   14CHTO  H217 5526   6.237   4.607   1.751  2.3206  0.4161  0.9675
   14CHTO  C124 5527   6.268   4.392   1.785 -0.1195 -0.2684 -0.4602
   14CHTO   O83 5528   6.333   4.407   1.908  0.0177  0.1260  0.1964
   14CHTO  H204 5529   6.423   4.384   1.894  0.0165  0.3381 -0.1538
   14CHTO  C109 5530   6.193   4.514   1.564  0.6582 -0.0420  0.1381
   14CHTO  H213 5531   6.227   4.426   1.506  0.0653 -0.3770  0.2947
   14CHTO  C110 5532   6.214   4.651   1.482  0.5613  0.0033  0.5569
   14CHTO  H214 5533   6.147   4.724   1.527  2.4149  0.3458  2.8735
   14CHTO   O78 5534   6.179   4.651   1.340 -0.4256  0.4664 -0.2978
   14CHTO  H200 5535   6.086   4.640   1.331 -0.3484  0.7260 -1.5619
   14CHTO  C111 5536   6.358   4.712   1.492  0.2398 -0.1227  0.0540
   14CHTO  H215 5537   6.420   4.659   1.418 -0.1101  0.0303 -0.3544
   14CHTO   N19 5538   6.371   4.854   1.459  0.5138  0.2334 -0.1298
   14CHTO  H207 5539   6.279   4.901   1.427  0.9245  0.2197 -1.3421
   14CHTO  H208 5540   6.445   4.867   1.382 -0.4159  0.5060 -0.9902
   14CHTO   O74 5541   6.053   4.503   1.595 -0.0652 -0.5694 -0.1240
   14CHTO  C115 5542   5.969   4.438   1.499 -0.2601  0.6091  0.6309
   14CHTO  H219 5543   5.949   4.499   1.411  1.2006 -0.8264 -0.7473
   14CHTO   O76 5544   6.032   4.297   1.440  0.2184 -0.5776 -1.0833
   14CHTO  C122 5545   5.943   4.216   1.363 -0.4370 -0.1237 -0.0267
   14CHTO  H226 5546   5.989   4.118   1.363 -0.0223  0.0489 -2.1041
   14CHTO  C126 5547   5.947   4.260   1.213 -0.3810  0.2240 -0.1569
   14CHTO   O85 5548   6.077   4.299   1.172  0.1803 -0.1769  0.2452
   14CHTO  H206 5549   6.107   4.256   1.094  1.0244  0.5087  0.1829
   14CHTO  C121 5550   5.803   4.201   1.425  0.5138 -0.7820 -0.0153
   14CHTO  H225 5551   5.746   4.167   1.336 -2.4951  1.0663  1.1369
   14CHTO   O81 5552   5.797   4.102   1.524  0.2031 -0.2170 -0.3349
   14CHTO  H202 5553   5.714   4.058   1.532  0.2392 -0.7091 -2.4791
   14CHTO  C119 5554   5.734   4.336   1.476 -0.3162 -0.1408 -0.1615
   14CHTO  H223 5555   5.724   4.399   1.387 -0.8026 -0.9716 -0.7057
   14CHTO  C117 5556   5.828   4.424   1.568  0.2916  0.1720  0.3202
   14CHTO  H221 5557   5.851   4.388   1.669  1.3750  1.8579  0.6852
   14CHTO   N20 5558   5.765   4.560   1.582  0.2319 -0.2527  0.6908
   14CHTO  H209 5559   5.834   4.639   1.556 -0.8393 -0.0273 -1.5551
   14CHTO  H210 5560   5.726   4.578   1.681  1.0329 -0.3801  1.0334
   14CHTO   O80 5561   5.588   4.325   1.523  0.2419  1.2073  0.0835
   14CHTO  C103 5562   5.478   4.276   1.438 -0.3356 -0.5180 -0.1279
   14CHTO  H190 5563   5.517   4.278   1.336 -2.0927  1.4571 -0.8130
   14CHTO  C101 5564   5.427   4.128   1.475  0.1830  0.3828 -0.2846
   14CHTO  H188 5565   5.408   4.125   1.582  1.3627  0.5308 -0.0630
   14CHTO   O68 5566   5.523   4.011   1.438  0.1405 -0.4691  0.0914
   14CHTO  H168 5567   5.560   4.028   1.353 -0.6311 -0.3951 -0.2313
   14CHTO   C99 5568   5.282   4.104   1.407  0.3559  0.3181  0.3480
   14CHTO  H186 5569   5.299   4.097   1.297  0.8012 -2.4665  0.5666
   14CHTO   N17 5570   5.207   3.987   1.457 -0.1588 -0.2181 -0.6137
   14CHTO  H174 5571   5.224   3.962   1.561  1.3221  2.4314 -0.1728
   14CHTO  H175 5572   5.238   3.903   1.396  0.7962 -2.3284  2.6269
   14CHTO   C97 5573   5.185   4.221   1.425 -0.2895  0.2448  0.2266
   14CHTO  H184 5574   5.159   4.243   1.530  3.1181 -0.6042  1.3098
   14CHTO   O64 5575   5.250   4.338   1.366 -0.2367 -0.3795  0.3420
   14CHTO  C104 5576   5.355   4.383   1.447  0.0110 -0.0462  0.2595
   14CHTO  H191 5577   5.326   4.388   1.552 -0.7905  0.1220  0.0321
   14CHTO  C108 5578   5.410   4.519   1.411  0.1854  0.3727 -1.1324
   14CHTO   O71 5579   5.305   4.592   1.359  0.2814 -1.0542 -0.2582
   14CHTO  H171 5580   5.342   4.631   1.281 -0.4768 -3.5056 -1.9024
   14CHTO   O62 5581   5.068   4.212   1.340  0.1440 -0.1389  0.0877
   14CHTO   C91 5582   4.934   4.224   1.402 -0.7477  0.0506  0.0546
   14CHTO  H178 5583   4.907   4.134   1.456 -0.3595  0.2678  0.6075
   14CHTO   C92 5584   4.830   4.221   1.280 -1.1811 -0.0072  0.3031
   14CHTO  H179 5585   4.856   4.138   1.213  1.6596  0.9430  0.1654
   14CHTO   O66 5586   4.693   4.203   1.328  0.3849  0.0691  0.2150
   14CHTO  H166 5587   4.679   4.114   1.353  1.4523 -0.2184 -0.1885
   14CHTO   C93 5588   4.829   4.359   1.206  0.3159 -1.0871 -0.2521
   14CHTO  H180 5589   4.736   4.365   1.148  0.3959  1.4257 -0.1608
   14CHTO   N16 5590   4.936   4.363   1.097 -0.6182  0.1345  0.0794
   14CHTO  H172 5591   4.927   4.284   1.023 -0.2347  0.5630 -0.4229
   14CHTO  H173 5592   4.938   4.458   1.046 -0.0236  1.0837  1.8226
   14CHTO   C94 5593   4.838   4.480   1.295  0.2792 -0.2086 -1.1162
   14CHTO  H181 5594   4.935   4.530   1.295  0.5465 -0.4428  3.5130
   14CHTO   O61 5595   4.816   4.459   1.436 -0.1921 -0.1129 -0.3930
   14CHTO   C95 5596   4.900   4.356   1.495 -0.2944  0.1544  0.2121
   14CHTO  H182 5597   5.000   4.394   1.515  0.4739 -2.5892  1.8025
   14CHTO  C106 5598   4.850   4.305   1.628  0.6225 -0.0105  0.0397
   14CHTO   O69 5599   4.834   4.411   1.728 -0.5298  0.8805 -1.1410
   14CHTO  H169 5600   4.904   4.473   1.725  0.7304 -0.4631  0.2048
   14CHTO   O63 5601   4.727   4.583   1.244  0.0929 -0.1426  0.8182
   14CHTO   C96 5602   4.726   4.727   1.286  0.4050  0.3257 -0.4273
   14CHTO  H183 5603   4.791   4.738   1.373 -1.5568  1.8419  0.9214
   14CHTO   C98 5604   4.575   4.755   1.326  0.1647  0.0055 -0.6056
   14CHTO  H185 5605   4.501   4.713   1.256 -1.5004  2.5894 -0.4757
   14CHTO   O67 5606   4.557   4.672   1.444  0.2145  0.1271  0.3780
   14CHTO  H167 5607   4.575   4.725   1.518 -0.0484 -0.8126  1.1285
   14CHTO  C102 5608   4.550   4.910   1.355 -0.2649 -0.0444  0.5333
   14CHTO  H189 5609   4.598   4.928   1.452  0.7338 -0.1740  0.0731
   14CHTO   N18 5610   4.405   4.944   1.381 -0.2593  0.1587  0.5738
   14CHTO  H176 5611   4.351   4.895   1.462 -0.8746  0.1674  0.1745
   14CHTO  H177 5612   4.353   4.944   1.286 -2.2177  0.6060  1.5981
   14CHTO  C105 5613   4.615   4.999   1.250  0.4999  0.0576  0.2985
   14CHTO  H192 5614   4.544   5.018   1.168  0.4924 -0.2854  0.2239
   14CHTO   O65 5615   4.747   4.956   1.195  0.4210  0.5023  0.2074
   14CHTO  C100 5616   4.760   4.817   1.163 -0.4711  0.2516 -0.1965
   14CHTO  H187 5617   4.685   4.806   1.084  0.9729 -2.8061 -1.2111
   14CHTO  C107 5618   4.899   4.788   1.108 -0.0771  0.0765 -0.2984
   14CHTO   O70 5619   4.915   4.803   0.968 -0.4812  0.1077 -0.0239
   14CHTO  H170 5620   5.006   4.811   0.947 -0.2368 -0.8844  0.6278
   14CHTO   O57 5621   4.647   5.143   1.335 -0.2929 -0.1772 -0.0508
   14CHTO   C85 5622   4.591   5.260   1.275 -0.1175 -0.6705 -0.0140
   14CHTO  H157 5623   4.489   5.229   1.247  0.2371 -1.7630 -0.1354
   14CHTO   C83 5624   4.665   5.302   1.144 -0.2849 -0.4434  0.1656
   14CHTO  H155 5625   4.648   5.232   1.062  0.5290 -1.1037  0.5472
   14CHTO   O56 5626   4.808   5.299   1.177  0.0286 -0.4772 -0.3161
   14CHTO  H135 5627   4.852   5.352   1.113 -1.6696 -0.5097 -1.5272
   14CHTO   C81 5628   4.613   5.435   1.099 -0.3838  0.2267  0.5821
   14CHTO  H153 5629   4.507   5.419   1.080  0.2839 -1.7534 -1.7550
   14CHTO   N14 5630   4.671   5.477   0.965  0.8615  0.1136  0.2638
   14CHTO  H141 5631   4.602   5.463   0.884  1.1285  1.6658 -0.2526
   14CHTO  H142 5632   4.757   5.417   0.946  1.1155  0.5007  0.2027
   14CHTO   C79 5633   4.631   5.546   1.206 -0.5199  0.8250  0.7435
   14CHTO  H151 5634   4.578   5.635   1.169 -0.8537  0.2377 -0.2001
   14CHTO   O52 5635   4.545   5.504   1.311  0.2640  0.6004 -0.0692
   14CHTO   C86 5636   4.589   5.382   1.371  0.1515 -0.1822 -0.2201
   14CHTO  H158 5637   4.689   5.408   1.413 -0.7017 -0.2916  1.9764
   14CHTO   C90 5638   4.505   5.350   1.495 -0.8653  0.1080 -0.2866
   14CHTO   O60 5639   4.478   5.451   1.597  0.2010 -0.4384  0.5546
   14CHTO  H138 5640   4.435   5.519   1.550 -0.4119 -1.4057 -0.3056
   14CHTO   O50 5641   4.762   5.587   1.245  0.2693  0.1862  0.1901
   14CHTO   C73 5642   4.822   5.692   1.333 -0.1299  0.6122 -0.1397
   14CHTO  H145 5643   4.770   5.684   1.430  1.9261  0.7695  0.9922
   14CHTO   C74 5644   4.800   5.837   1.276 -0.0634  0.2989 -0.3014
   14CHTO  H146 5645   4.692   5.842   1.254 -0.0042 -0.9024 -0.9108
   14CHTO   O54 5646   4.834   5.931   1.380  0.5209 -0.0681  0.2882
   14CHTO  H133 5647   4.803   6.018   1.365  0.3472 -0.2089 -0.1817
   14CHTO   C75 5648   4.889   5.850   1.146 -0.6571  0.2834  0.2963
   14CHTO  H147 5649   4.843   5.795   1.062  0.5813  0.4459 -0.5095
   14CHTO   N13 5650   4.890   5.988   1.099  0.3231  0.7361 -0.4409
   14CHTO  H139 5651   4.904   6.055   1.183 -0.0672 -0.0480  0.2546
   14CHTO  H140 5652   4.802   6.013   1.042 -0.7611 -1.7321  0.0953
   14CHTO   C76 5653   5.036   5.798   1.165  1.1322 -0.2455  0.4512
   14CHTO  H148 5654   5.090   5.866   1.231  0.1646 -0.6968  1.7133
   14CHTO   O49 5655   5.033   5.663   1.220  0.2674 -0.0529 -0.0617
   14CHTO   C77 5656   4.964   5.653   1.350 -0.1324 -0.1685 -0.1043
   14CHTO  H149 5657   5.009   5.729   1.415 -2.6877  1.3758 -0.0874
   14CHTO   C88 5658   4.993   5.510   1.403  0.3370 -0.2445 -0.1330
   14CHTO   O58 5659   5.129   5.502   1.460  0.2017  0.4651  0.5247
   14CHTO  H136 5660   5.140   5.440   1.530  0.0975 -0.9378 -0.6906
   14CHTO   O51 5661   5.101   5.772   1.045  0.3030  0.1954 -0.1050
   14CHTO   C78 5662   5.264   5.808   1.047  0.1398  0.3597  0.9539
   14CHTO  H150 5663   5.299   5.837   1.149  0.9083 -1.3915  1.2082
   14CHTO   C80 5664   5.285   5.927   0.948 -0.5636 -0.3461  0.0096
   14CHTO  H152 5665   5.247   5.893   0.850 -1.0280 -1.8778  0.7014
   14CHTO   O55 5666   5.208   6.044   0.994 -0.3718  0.6309  0.2068
   14CHTO  H134 5667   5.194   6.106   0.924  1.0393  0.6748 -0.0528
   14CHTO   C84 5668   5.435   5.970   0.930  0.0531  0.4680  0.3182
   14CHTO  H156 5669   5.467   6.022   1.020  1.8381 -0.2491  0.1128
   14CHTO   N15 5670   5.453   6.078   0.830 -1.1155 -0.0564  0.1528
   14CHTO  H143 5671   5.367   6.093   0.768 -1.7634 -1.0009  0.8165
   14CHTO  H144 5672   5.535   6.048   0.767 -1.4136 -0.7558  0.1002
   14CHTO   C87 5673   5.523   5.840   0.899 -0.7435 -0.1349  0.3107
   14CHTO  H159 5674   5.488   5.806   0.802  1.5245  1.7884 -1.2501
   14CHTO   O53 5675   5.492   5.734   0.996  0.1688  0.2832 -0.5107
   14CHTO   C82 5676   5.354   5.695   1.000  0.8481  0.3896  0.0629
   14CHTO  H154 5677   5.324   5.669   0.898 -0.1395  2.6073 -0.2310
   14CHTO   C89 5678   5.331   5.570   1.081 -0.6893 -0.1591 -0.3224
   14CHTO   O59 5679   5.353   5.588   1.223 -0.8749  0.0041 -0.0333
   14CHTO  H137 5680   5.277   5.571   1.274  0.1726 -0.1073  1.5327
   14CHTO   O45 5681   5.685   5.871   0.917  0.3846  0.3562 -0.2011
   14CHTO   C67 5682   5.785   5.770   0.909 -0.4979  0.2830 -0.3216
   14CHTO  H124 5683   5.753   5.681   0.964 -2.6285 -0.5317 -2.7745
   14CHTO   C65 5684   5.820   5.723   0.768 -0.5157  0.4534  0.0978
   14CHTO  H122 5685   5.727   5.690   0.721 -1.4217  0.6792  1.7049
   14CHTO   O44 5686   5.888   5.597   0.778 -0.1956 -0.1078  0.5058
   14CHTO  H102 5687   5.843   5.530   0.827 -0.8256 -0.1454 -0.1303
   14CHTO   C63 5688   5.887   5.854   0.698 -0.2902  0.1866  0.5938
   14CHTO  H120 5689   5.820   5.939   0.712 -1.3423 -0.6123  0.4965
   14CHTO   N11 5690   5.905   5.840   0.547  0.2538  0.2395  0.4092
   14CHTO  H108 5691   5.934   5.744   0.510  0.3676  0.3267  0.2703
   14CHTO  H109 5692   5.960   5.920   0.502 -0.6650  0.9940  0.6028
   14CHTO   C61 5693   6.023   5.874   0.763 -0.5670 -1.2103 -0.7156
   14CHTO  H118 5694   6.074   5.964   0.725  1.2522 -2.4930 -1.3708
   14CHTO   O40 5695   5.999   5.903   0.901  0.0024  0.1421 -0.0011
   14CHTO   C68 5696   5.915   5.816   0.985 -1.0407 -0.1633 -0.3210
   14CHTO  H125 5697   5.883   5.884   1.067 -1.1078 -0.9901  0.3356
   14CHTO   C72 5698   6.003   5.705   1.053 -0.5663  0.3418 -0.1911
   14CHTO   O48 5699   6.132   5.741   1.101 -0.1287  0.0153  0.2862
   14CHTO  H105 5700   6.163   5.659   1.134 -0.6704 -0.5558 -0.5920
   14CHTO   O38 5701   6.110   5.762   0.770 -0.5087  0.5974 -0.6033
   14CHTO   C55 5702   6.242   5.782   0.705  0.3793 -0.1065 -0.6739
   14CHTO  H112 5703   6.237   5.860   0.627 -0.4790 -0.1280 -0.6460
   14CHTO   C56 5704   6.280   5.638   0.648 -0.6585  0.5655 -0.1672
   14CHTO  H113 5705   6.275   5.565   0.730 -1.7921  0.5304 -0.2647
   14CHTO   O42 5706   6.182   5.592   0.553 -0.0274  0.6938 -0.3406
   14CHTO  H100 5707   6.182   5.498   0.560 -2.7307  0.6678 -0.2535
   14CHTO   C57 5708   6.420   5.638   0.580  0.4347 -0.1264  0.2439
   14CHTO  H114 5709   6.408   5.709   0.497  0.3538  0.5213  0.8033
   14CHTO   N10 5710   6.466   5.510   0.517 -0.3959 -0.2566  0.2902
   14CHTO  H106 5711   6.397   5.462   0.448 -0.1167  0.0810 -0.2256
   14CHTO  H107 5712   6.560   5.521   0.465 -0.5414 -0.4627 -0.0207
   14CHTO   C58 5713   6.523   5.700   0.680  0.6985  0.3838 -0.3539
   14CHTO  H115 5714   6.534   5.627   0.763  0.6181  1.2517  0.4364
   14CHTO   O37 5715   6.478   5.822   0.722 -0.4016 -0.3367 -0.2333
   14CHTO   C59 5716   6.356   5.818   0.805 -0.6776  0.2082 -0.7153
   14CHTO  H116 5717   6.368   5.739   0.878 -0.2038  1.1272  0.2101
   14CHTO   C70 5718   6.339   5.956   0.871  0.0195  0.6160 -0.1888
   14CHTO   O46 5719   6.415   5.972   0.997  0.5230  0.3276 -0.1093
   14CHTO  H103 5720   6.357   5.969   1.071 -0.1052 -3.5765 -0.6411
   14CHTO   O39 5721   6.653   5.727   0.617 -0.1108  0.7078  0.8730
   14CHTO   C60 5722   6.763   5.710   0.710 -0.1541  0.7172  0.0065
   14CHTO  H117 5723   6.729   5.722   0.813  1.6071 -0.4655  0.7482
   14CHTO   C62 5724   6.833   5.572   0.708 -0.2612 -0.8786 -0.8372
   14CHTO  H119 5725   6.748   5.502   0.726 -1.9265  1.4579  0.5838
   14CHTO   O43 5726   6.883   5.550   0.574  0.0414  0.2298  0.6789
   14CHTO  H101 5727   6.928   5.468   0.580 -2.0021 -1.0960 -1.5608
   14CHTO   C66 5728   6.946   5.572   0.823  0.2690  0.3962  0.1794
   14CHTO  H123 5729   6.896   5.597   0.917 -0.5169 -0.3555 -0.0261
   14CHTO   N12 5730   6.997   5.432   0.842  0.1780  0.3139 -0.0037
   14CHTO  H110 5731   7.104   5.426   0.856  0.0958 -1.9746 -0.0871
   14CHTO  H111 5732   6.932   5.372   0.905 -0.5172  0.8195 -0.2345
   14CHTO   C69 5733   7.061   5.670   0.787  0.6581 -0.2206  0.2458
   14CHTO  H126 5734   7.098   5.633   0.689  0.1315 -0.4044  0.1152
   14CHTO   O41 5735   7.004   5.806   0.776  0.3499  0.0199  0.3638
   14CHTO   C64 5736   6.869   5.822   0.678 -0.0467 -0.6203 -0.1494
   14CHTO  H121 5737   6.905   5.814   0.573  2.6703  0.1286  0.6821
   14CHTO   C71 5738   6.805   5.960   0.703 -0.0798  0.0782  0.0795
   14CHTO   O47 5739   6.728   6.002   0.595 -0.1757 -0.2790  0.2770
   14CHTO  H104 5740   6.755   5.973   0.510  1.7343 -0.7260  0.9972
   14CHTO   O34 5741   7.178   5.655   0.882 -0.2530  0.2344 -0.2421
   14CHTO   C49 5742   7.321   5.707   0.844  0.3724  0.6421 -0.0467
   14CHTO   H91 5743   7.364   5.635   0.774  1.0610  1.2390 -0.2433
   14CHTO   C47 5744   7.400   5.706   0.972  0.3413  0.6756  0.2707
   14CHTO   H89 5745   7.503   5.737   0.944  1.1263 -0.9381  1.3186
   14CHTO   O33 5746   7.402   5.580   1.039 -0.0252  0.2064 -0.2830
   14CHTO   H70 5747   7.490   5.548   1.045 -0.8052 -2.1204 -0.4832
   14CHTO   C45 5748   7.340   5.814   1.076  0.2129  0.3976 -0.7528
   14CHTO   H87 5749   7.260   5.764   1.133  0.3171  0.6953 -0.3470
   14CHTO    N8 5750   7.449   5.860   1.170 -0.0945  0.0356  0.1767
   14CHTO   H75 5751   7.432   5.825   1.270  0.8389  0.0581  0.3469
   14CHTO   H76 5752   7.466   5.966   1.164  1.8239 -0.3158 -0.6990
   14CHTO   C43 5753   7.257   5.931   0.998 -0.4308  0.4727  0.5282
   14CHTO   H85 5754   7.154   5.896   0.988 -0.4318  0.8751 -1.1443
   14CHTO   O29 5755   7.320   5.958   0.871 -0.6235  0.1014  0.4473
   14CHTO   C50 5756   7.331   5.850   0.782 -0.0280 -0.2482 -0.0700
   14CHTO   H92 5757   7.251   5.865   0.708 -0.0745 -1.0288 -0.1837
   14CHTO   C54 5758   7.470   5.871   0.705  0.0742 -0.0420  0.7111
   14CHTO   O36 5759   7.504   5.756   0.624 -0.3715  0.3277 -0.3884
   14CHTO   H72 5760   7.433   5.750   0.561  0.1799 -0.2163 -0.9704
   14CHTO   O27 5761   7.249   6.055   1.078  0.0231 -0.3073  0.1353
   14CHTO   C37 5762   7.150   6.148   1.116 -0.4256 -0.2639  0.0824
   14CHTO   H79 5763   7.202   6.243   1.137  0.3634 -0.8503  0.8073
   14CHTO   C38 5764   7.052   6.179   0.995  0.3766 -0.9629 -0.5021
   14CHTO   H80 5765   7.004   6.085   0.961 -1.8805  0.5124 -1.5436
   14CHTO   O31 5766   7.128   6.232   0.888 -0.4274  0.1371  0.6992
   14CHTO   H68 5767   7.154   6.322   0.897  1.3922 -0.4445  1.4093
   14CHTO   C39 5768   6.934   6.268   1.040 -0.3091 -0.3926 -0.5920
   14CHTO   H81 5769   6.976   6.365   1.066  0.7363 -0.9578 -0.1306
   14CHTO    N7 5770   6.824   6.301   0.931 -0.7229  0.2624  0.4594
   14CHTO   H73 5771   6.810   6.401   0.893 -3.5701  0.1978  1.2167
   14CHTO   H74 5772   6.725   6.264   0.953 -0.6182  0.1041  0.6712
   14CHTO   C40 5773   6.864   6.205   1.173  0.1677 -0.3016 -0.3152
   14CHTO   H82 5774   6.813   6.110   1.153  0.2676 -0.3566 -0.3061
   14CHTO   O26 5775   6.965   6.188   1.276  0.4829 -0.0859  0.3187
   14CHTO   C41 5776   7.080   6.105   1.243  0.8993 -0.2110 -0.6066
   14CHTO   H83 5777   7.043   6.003   1.224 -0.3136  0.2503 -0.7906
   14CHTO   C52 5778   7.178   6.097   1.373  0.0957  0.3423  0.0364
   14CHTO   O35 5779   7.215   6.231   1.424 -0.5789 -0.2118 -0.4914
   14CHTO   H71 5780   7.138   6.266   1.466  0.1324  1.1945 -0.3214
   14CHTO   O28 5781   6.763   6.293   1.235  0.1475  0.2171  0.6073
   14CHTO   C42 5782   6.649   6.246   1.318  0.2346  0.0336 -0.2118
   14CHTO   H84 5783   6.622   6.328   1.384 -0.4271  1.2741 -1.9935
   14CHTO   C44 5784   6.689   6.126   1.411  0.3262  0.1170 -0.1145
   14CHTO   H86 5785   6.728   6.044   1.350 -0.0383  0.6648 -1.0973
   14CHTO   O32 5786   6.784   6.173   1.507 -0.1598 -0.4989  0.3110
   14CHTO   H69 5787   6.859   6.208   1.463  1.8357 -1.6071  2.7288
   14CHTO   C48 5788   6.554   6.076   1.476 -0.3239  0.6027  0.3651
   14CHTO   H90 5789   6.525   6.158   1.543  2.0170  1.2468  0.6430
   14CHTO    N9 5790   6.583   5.953   1.561 -0.2719  0.4578  0.1484
   14CHTO   H77 5791   6.487   5.911   1.589 -0.6937  0.6646 -0.9435
   14CHTO   H78 5792   6.655   5.976   1.638  1.0250 -1.0267 -0.6012
   14CHTO   C51 5793   6.440   6.061   1.366 -0.9472  0.8304  0.9491
   14CHTO   H93 5794   6.455   5.976   1.300 -1.8458  1.8659 -0.6243
   14CHTO   O30 5795   6.428   6.182   1.293 -0.0727  0.2263 -0.0410
   14CHTO   C46 5796   6.534   6.217   1.225 -0.5946 -0.3206 -0.2487
   14CHTO   H88 5797   6.564   6.142   1.152 -0.8685 -1.0741  0.4080
   14CHTO   C53 5798   6.482   6.343   1.152  0.0567  0.1951  0.9339
   14CHTO   O72 5799   6.360   6.317   1.071  0.0739  0.3943 -0.5280
   14CHTO  H199 5800   6.384   6.293   0.984  0.6041  0.4279 -0.3948
   14CHTO   O22 5801   6.312   6.052   1.427 -0.3171  0.0290 -0.4340
   14CHTO   C31 5802   6.198   5.967   1.385  0.0586  0.3404 -0.5201
   14CHTO   H59 5803   6.224   5.918   1.289 -1.0233 -1.5873  0.1158
   14CHTO   C29 5804   6.162   5.856   1.488  0.2494 -0.0502 -0.0940
   14CHTO   H57 5805   6.146   5.910   1.582 -0.2505 -0.2389 -0.0709
   14CHTO   O21 5806   6.281   5.776   1.510  0.4387  0.6018  0.4445
   14CHTO   H37 5807   6.305   5.718   1.440  0.0794 -0.0044  0.8209
   14CHTO   C27 5808   6.026   5.786   1.447  0.0636  0.7608 -0.0166
   14CHTO   H55 5809   6.046   5.731   1.353 -1.7810 -0.2557  0.1760
   14CHTO    N5 5810   5.979   5.688   1.548 -0.3215  0.0178 -0.1705
   14CHTO   H43 5811   6.043   5.601   1.540  1.6407  1.4610 -0.5555
   14CHTO   H44 5812   5.989   5.747   1.638 -0.5046  0.5533 -0.4985
   14CHTO   C25 5813   5.918   5.901   1.410  0.3086  0.3950  0.0208
   14CHTO   H53 5814   5.890   5.954   1.503  1.9592  1.9442 -0.3345
   14CHTO   O17 5815   5.967   5.998   1.313  0.2418 -0.1556 -0.0886
   14CHTO   C32 5816   6.080   6.059   1.352  0.0205 -0.0926 -0.1279
   14CHTO   H60 5817   6.049   6.108   1.444 -0.4364 -1.0704  0.2515
   14CHTO   C36 5818   6.108   6.155   1.235  0.3163  0.2072 -0.1585
   14CHTO   O25 5819   6.163   6.076   1.127 -0.1595 -0.4334  0.0393
   14CHTO   H40 5820   6.117   6.083   1.046 -0.0096 -1.9112 -0.1922
   14CHTO   O15 5821   5.784   5.846   1.347 -0.1044  0.0582  0.1242
   14CHTO   C19 5822   5.646   5.876   1.329  0.3481  0.9235  0.7976
   14CHTO   H47 5823   5.608   5.815   1.246 -1.0262 -0.6648  2.5537
   14CHTO   C20 5824   5.557   5.851   1.460 -0.1253 -0.9160 -0.5093
   14CHTO   H48 5825   5.589   5.924   1.537  0.1169  0.5527 -1.9758
   14CHTO   O19 5826   5.566   5.721   1.515  0.4953  0.3338 -0.4670
   14CHTO   H35 5827   5.526   5.664   1.452 -1.0712  0.5731  0.3068
   14CHTO   C21 5828   5.404   5.896   1.430 -0.4431  0.0399 -0.1875
   14CHTO   H49 5829   5.360   5.823   1.361  0.7110  0.5785 -1.4886
   14CHTO    N4 5830   5.322   5.896   1.555  0.0771 -0.1974 -0.1490
   14CHTO   H41 5831   5.230   5.949   1.534  0.1768  0.1036  0.1741
   14CHTO   H42 5832   5.297   5.792   1.567 -0.2177 -0.1624 -0.4549
   14CHTO   C22 5833   5.396   6.036   1.367 -0.0483  0.2985  0.3150
   14CHTO   H50 5834   5.417   6.115   1.438 -1.5082 -1.7590  3.1114
   14CHTO   O14 5835   5.490   6.047   1.264 -0.0161 -0.5702  0.5555
   14CHTO   C23 5836   5.626   6.030   1.300  0.2871 -0.2978  0.2012
   14CHTO   H51 5837   5.646   6.095   1.387  1.0338 -0.1832 -0.0567
   14CHTO   C34 5838   5.698   6.094   1.193  0.4285 -0.0221  0.3311
   14CHTO   O23 5839   5.667   6.238   1.189  0.4662  0.5031  0.4991
   14CHTO   H38 5840   5.735   6.285   1.234  0.2161 -0.7829  2.2444
   14CHTO   O16 5841   5.275   6.068   1.309  0.2542 -0.3677  0.1551
   14CHTO   C24 5842   5.238   6.243   1.274 -0.2507 -0.5567  0.5906
   14CHTO   H52 5843   5.156   6.257   1.204  2.0515  0.4202 -1.9850
   14CHTO   C26 5844   5.353   6.330   1.210  0.0010 -0.2467 -0.0805
   14CHTO   H54 5845   5.446   6.307   1.266 -0.1225 -0.5098  0.0179
   14CHTO   O20 5846   5.369   6.269   1.080 -0.0899  0.2667 -0.1275
   14CHTO   H36 5847   5.456   6.235   1.072  0.1966  1.2900 -1.4657
   14CHTO   C30 5848   5.329   6.486   1.208  0.3239  0.9373 -0.0870
   14CHTO   H58 5849   5.258   6.507   1.127  1.7369  0.4241 -1.4702
   14CHTO    N6 5850   5.446   6.567   1.180 -0.1835 -0.7269 -0.5397
   14CHTO   H45 5851   5.417   6.658   1.129 -2.2577 -0.2686  1.3624
   14CHTO   H46 5852   5.536   6.527   1.136  0.1526  0.3762 -0.8692
   14CHTO   C33 5853   5.255   6.538   1.335  0.2017  0.1811  0.1689
   14CHTO   H61 5854   5.332   6.551   1.412 -0.6110 -0.3390  1.0886
   14CHTO   O18 5855   5.155   6.443   1.385 -0.4027 -0.5280  0.3694
   14CHTO   C28 5856   5.196   6.305   1.407  0.6088 -0.2488 -0.3072
   14CHTO   H56 5857   5.280   6.307   1.476 -0.1761 -0.7640  0.6641
   14CHTO   C35 5858   5.080   6.222   1.468  0.0989 -0.1967  0.5469
   14CHTO   O24 5859   5.034   6.281   1.592  0.0086  0.2308 -0.3920
   14CHTO   H39 5860   5.004   6.212   1.647  1.1438 -1.2077 -1.5335
   14CHTO    O9 5861   5.196   6.671   1.315 -0.0919 -0.4726 -0.0316
   14CHTO   C13 5862   5.147   6.745   1.462  0.2564 -0.2613 -0.4184
   14CHTO   H26 5863   5.125   6.667   1.538 -2.7172  0.4519 -0.4927
   14CHTO   C11 5864   5.019   6.834   1.437 -0.3109  0.3632  0.5631
   14CHTO   H24 5865   4.929   6.772   1.425 -0.1243 -0.0148  1.0980
   14CHTO    O8 5866   5.049   6.899   1.312 -0.5470 -0.1355  0.6590
   14CHTO    H3 5867   4.963   6.908   1.276 -0.7956 -0.6582  1.1098
   14CHTO    C9 5868   4.986   6.921   1.562  0.1355 -0.4729 -0.2086
   14CHTO   H22 5869   4.975   6.851   1.646  1.1321  0.8066  1.0117
   14CHTO    N2 5870   4.849   6.977   1.561  0.2414  0.4250  0.1077
   14CHTO   H10 5871   4.829   7.014   1.660 -1.9867  1.0002 -0.5275
   14CHTO   H11 5872   4.848   7.055   1.486  0.8959  0.8226  0.4998
   14CHTO    C7 5873   5.112   7.020   1.578 -0.4421  0.2727 -0.1119
   14CHTO   H20 5874   5.090   7.079   1.669 -0.2863  0.7499 -0.3832
   14CHTO    O4 5875   5.242   6.955   1.592 -0.2597 -0.6507  0.0618
   14CHTO   C14 5876   5.277   6.830   1.529  0.5225 -0.4877 -0.4746
   14CHTO   H27 5877   5.320   6.770   1.612 -0.0491  0.5080  0.5778
   14CHTO   C18 5878   5.397   6.869   1.425 -0.5075 -0.2423 -0.7520
   14CHTO   O13 5879   5.511   6.927   1.499 -0.2650 -0.2118 -0.4593
   14CHTO    H7 5880   5.531   6.860   1.562 -1.2135 -0.8565 -0.8340
   14CHTO    O2 5881   5.123   7.143   1.466 -0.0759  0.2687 -0.4357
   14CHTO    C1 5882   5.186   7.269   1.502  0.0612  0.1620 -1.2798
   14CHTO   H14 5883   5.208   7.321   1.406  1.6442  0.7821 -0.5946
   14CHTO    C2 5884   5.326   7.264   1.584 -0.6098 -0.3443  0.5987
   14CHTO   H15 5885   5.321   7.196   1.671 -0.3620 -0.8460  0.2233
   14CHTO    O6 5886   5.427   7.213   1.502 -0.4810 -0.1431  0.2316
   14CHTO    H1 5887   5.488   7.177   1.563  0.2510 -0.1459 -0.4833
   14CHTO    C3 5888   5.378   7.414   1.630  0.1510 -0.1599  0.7808
   14CHTO   H16 5889   5.414   7.466   1.540 -0.0671  0.4530  1.0397
   14CHTO    N1 5890   5.488   7.416   1.732  0.6897  0.1551 -0.2379
   14CHTO    H8 5891   5.451   7.381   1.827  1.3119  0.4278  0.1051
   14CHTO    H9 5892   5.571   7.355   1.699 -0.5209 -0.8515 -1.5192
   14CHTO    C4 5893   5.258   7.508   1.676  0.3707  0.4625  0.7117
   14CHTO   H17 5894   5.247   7.505   1.784 -1.6600 -1.7083  0.4826
   14CHTO    O1 5895   5.139   7.488   1.600  0.1035 -0.9439 -0.1713
   14CHTO    C5 5896   5.091   7.357   1.585  0.1197  0.5526  0.3649
   14CHTO   H18 5897   5.067   7.325   1.686 -1.2761 -3.3352 -1.0986
   14CHTO   C16 5898   4.964   7.379   1.510  0.1869 -0.3793 -0.2534
   14CHTO   O11 5899   4.850   7.416   1.594  0.3534 -0.4752  0.3087
   14CHTO    H5 5900   4.804   7.480   1.543 -1.4825 -0.7515  1.5523
   14CHTO    O3 5901   5.300   7.641   1.635  0.1727  0.4195 -0.1765
   14CHTO    C6 5902   5.240   7.755   1.696  0.4222 -0.5089 -0.4717
   14CHTO   H19 5903   5.138   7.738   1.730 -0.6502  0.8136 -2.8925
   14CHTO    C8 5904   5.333   7.785   1.817 -0.2481 -0.4101  0.4719
   14CHTO   H21 5905   5.438   7.785   1.786 -0.1117  0.4577  0.9057
   14CHTO    O7 5906   5.316   7.671   1.903  0.2589 -0.2388 -0.5520
   14CHTO    H2 5907   5.288   7.693   1.990  0.1716 -3.0586  0.1864
   14CHTO   C12 5908   5.308   7.930   1.879 -0.7745 -0.0283  0.3896
   14CHTO   H25 5909   5.209   7.911   1.925 -1.9492  0.6316 -1.7520
   14CHTO    N3 5910   5.406   7.975   1.986  0.0363  0.2252  0.1572
   14CHTO   H12 5911   5.346   7.983   2.075  1.3661  1.9817  0.9071
   14CHTO   H13 5912   5.484   7.901   1.994  1.5157  1.8011  0.4821
   14CHTO   C15 5913   5.296   8.033   1.763 -0.0163  0.6113  0.3911
   14CHTO   H28 5914   5.394   8.052   1.719 -0.6035  1.8063 -0.4428
   14CHTO   O10 5915   5.229   8.169   1.821  0.4053  0.1200 -0.1897
   14CHTO    H4 5916   5.293   8.204   1.879  0.6533  0.3809 -0.6258
   14CHTO    O5 5917   5.200   7.995   1.664 -0.7464 -0.1410 -0.4858
   14CHTO   C10 5918   5.238   7.874   1.600 -0.3451  0.4436  0.8694
   14CHTO   H23 5919   5.332   7.892   1.548  1.0448  1.4670  3.6246
   14CHTO   C17 5920   5.137   7.843   1.492 -0.2751 -0.0935  0.6350
   14CHTO   O12 5921   5.187   7.746   1.403 -0.6583  0.1069  1.1271
   14CHTO    H6 5922   5.196   7.660   1.440 -1.8225  0.5814  2.6017
   15CHTO  H203 5923   7.233   4.848   1.708 -1.5638 -0.8920  0.4529
   15CHTO   O82 5924   7.214   4.903   1.634  0.6822 -0.0817  0.4635
   15CHTO  C123 5925   7.175   4.821   1.520  0.1376  0.1883 -0.2042
   15CHTO  H227 5926   7.132   4.729   1.562 -0.6579  0.9250  0.6356
   15CHTO   O77 5927   7.076   4.900   1.454  0.3033 -0.7819 -1.0277
   15CHTO  C118 5928   6.987   4.821   1.368  0.1614  0.2807  0.6431
   15CHTO  H222 5929   6.954   4.727   1.414  0.1113  0.9298  1.9545
   15CHTO  C125 5930   6.862   4.900   1.319  0.3151 -0.2349  0.1110
   15CHTO   O84 5931   6.775   4.924   1.428 -0.1554 -0.0384 -0.5818
   15CHTO  H205 5932   6.753   5.015   1.418  2.3620  0.9608  2.1987
   15CHTO  C114 5933   7.076   4.779   1.250 -0.2458  0.5260 -0.1113
   15CHTO  H218 5934   7.104   4.867   1.192 -0.0871  0.9401  0.5867
   15CHTO  C116 5935   7.214   4.710   1.287  0.7749  0.3268  0.6091
   15CHTO  H220 5936   7.194   4.603   1.307  2.4237 -0.8035 -3.4547
   15CHTO   O79 5937   7.306   4.704   1.171 -0.2693 -0.2573  0.1644
   15CHTO  H201 5938   7.291   4.779   1.115  1.9345  0.6629  0.7778
   15CHTO  C120 5939   7.280   4.787   1.413 -0.3832 -0.0707 -0.1373
   15CHTO  H224 5940   7.327   4.877   1.369 -0.3562 -0.2638 -0.5048
   15CHTO   N21 5941   7.394   4.708   1.469  0.0691 -0.1030 -0.8599
   15CHTO  H211 5942   7.448   4.648   1.398 -1.5114 -4.1687  1.2093
   15CHTO  H212 5943   7.460   4.773   1.523 -0.9072 -1.0059  1.4996
   15CHTO   O75 5944   6.992   4.709   1.156 -1.0801 -0.2201  0.5734
   15CHTO  C112 5945   6.983   4.542   1.148  0.2902 -0.6417  0.6225
   15CHTO  H216 5946   6.965   4.522   1.254 -1.3237  1.0074  0.6948
   15CHTO   O73 5947   7.101   4.479   1.092 -0.1597 -0.1227  0.5436
   15CHTO  C113 5948   7.091   4.333   1.088 -0.4707  0.8656 -0.3519
   15CHTO  H217 5949   7.085   4.289   1.190 -0.3729 -1.6329 -1.3757
   15CHTO  C124 5950   7.219   4.274   1.028 -0.2115  0.5103 -0.1411
   15CHTO   O83 5951   7.333   4.277   1.120 -0.3907 -0.7220  0.0020
   15CHTO  H204 5952   7.326   4.196   1.166  2.2769 -1.2862 -0.5657
   15CHTO  C109 5953   6.974   4.289   0.996 -0.2614 -0.4741 -0.2379
   15CHTO  H213 5954   6.995   4.328   0.896  0.6070  1.5053  0.6892
   15CHTO  C110 5955   6.843   4.350   1.045  0.0428 -0.4069  0.0085
   15CHTO  H214 5956   6.821   4.314   1.146  1.2776  1.1276  0.8607
   15CHTO   O78 5957   6.737   4.310   0.960  0.2439  0.3290  0.4719
   15CHTO  H200 5958   6.748   4.229   0.914 -1.9626 -0.7603  1.7763
   15CHTO  C111 5959   6.856   4.506   1.058 -0.3274 -0.2371  0.0936
   15CHTO  H215 5960   6.862   4.547   0.956  1.1859  0.9858  0.6673
   15CHTO   N19 5961   6.730   4.557   1.118  0.2117 -0.2133  0.0382
   15CHTO  H207 5962   6.679   4.637   1.066  1.5503  0.8420  0.3338
   15CHTO  H208 5963   6.745   4.593   1.218  1.9525 -0.6298 -0.0672
   15CHTO   O74 5964   6.972   4.147   0.993  0.1440  0.6382 -0.3131
   15CHTO  C115 5965   6.896   4.068   0.848  0.5563  0.1598  0.0497
   15CHTO  H219 5966   6.839   4.141   0.791 -0.7082  0.6139  1.8761
   15CHTO   O76 5967   7.018   4.018   0.745  0.3527 -0.3133 -0.5490
   15CHTO  C122 5968   7.106   3.927   0.809  0.6362 -0.0053  0.2634
   15CHTO  H226 5969   7.130   3.961   0.910  1.2866  0.1066  0.0695
   15CHTO  C126 5970   7.234   3.912   0.730 -0.3156 -0.3945  0.0504
   15CHTO   O85 5971   7.290   4.046   0.713 -0.1424 -0.5726 -0.1169
   15CHTO  H206 5972   7.357   4.050   0.647  0.0214  0.7049  0.1248
   15CHTO  C121 5973   7.019   3.795   0.827 -0.0171  0.3270 -0.2655
   15CHTO  H225 5974   7.055   3.728   0.746  0.0030 -1.0036  0.8235
   15CHTO   O81 5975   7.038   3.726   0.952 -0.2644 -0.0071  0.6090
   15CHTO  H202 5976   7.129   3.702   0.954 -0.4520 -0.8192 -0.2585
   15CHTO  C119 5977   6.858   3.815   0.823 -0.1211  0.3153 -0.1742
   15CHTO  H223 5978   6.822   3.835   0.722  0.2541  2.1026  0.0358
   15CHTO  C117 5979   6.814   3.941   0.900  0.2583 -0.9206  0.3044
   15CHTO  H221 5980   6.837   3.937   1.006  1.9208 -1.8405 -0.0811
   15CHTO   N20 5981   6.663   3.972   0.888  0.5847  0.1093  0.5885
   15CHTO  H209 5982   6.603   3.882   0.891  0.1246  0.4532  2.4075
   15CHTO  H210 5983   6.632   4.053   0.952  1.7689  0.8244  0.2730
   15CHTO   O80 5984   6.777   3.684   0.858 -0.3440 -0.0046  0.1476
   15CHTO  C103 5985   6.675   3.594   0.737  0.1283  0.2211 -0.3233
   15CHTO  H190 5986   6.627   3.508   0.785  0.4671  0.0293 -0.3262
   15CHTO  C101 5987   6.559   3.673   0.668  0.8941  0.6010  0.5869
   15CHTO  H188 5988   6.598   3.761   0.617  0.2875 -1.6194 -3.9816
   15CHTO   O68 5989   6.445   3.712   0.765 -0.2654  0.0492  0.1200
   15CHTO  H168 5990   6.471   3.785   0.818 -2.3003 -0.3601  1.7570
   15CHTO   C99 5991   6.484   3.585   0.555  0.1508 -0.7623 -0.0387
   15CHTO  H186 5992   6.430   3.504   0.609 -0.0124 -0.1383  0.7412
   15CHTO   N17 5993   6.388   3.655   0.463  0.3879 -0.5006 -0.0541
   15CHTO  H174 5994   6.289   3.611   0.464  0.0744  0.0632 -2.5294
   15CHTO  H175 5995   6.429   3.670   0.364 -0.0533 -0.8206 -0.2902
   15CHTO   C97 5996   6.603   3.515   0.474  0.1656 -0.7507  0.1946
   15CHTO  H184 5997   6.638   3.585   0.397  0.2661 -0.3526  0.5953
   15CHTO   O64 5998   6.710   3.451   0.545 -0.9612  0.1115 -0.1439
   15CHTO  C104 5999   6.780   3.538   0.632  0.0729 -0.2384  0.4106
   15CHTO  H191 6000   6.849   3.615   0.599 -0.3583 -0.9876 -2.3405
   15CHTO  C108 6001   6.873   3.437   0.700 -0.2769  0.4612 -0.1094
   15CHTO   O71 6002   6.967   3.500   0.791 -0.3458  0.6877 -0.1354
   15CHTO  H171 6003   7.037   3.543   0.746  2.0065 -0.8987  1.8672
   15CHTO   O62 6004   6.535   3.399   0.414 -0.3748  0.7812  0.6930
   15CHTO   C91 6005   6.590   3.336   0.299  0.4815  0.1164  0.2687
   15CHTO  H178 6006   6.666   3.401   0.259  1.5233 -0.9300  0.5110
   15CHTO   C92 6007   6.478   3.299   0.195 -0.6491 -0.2119 -0.4666
   15CHTO  H179 6008   6.417   3.390   0.183 -2.6661 -1.4641 -0.0624
   15CHTO   O66 6009   6.543   3.280   0.068 -0.8835 -0.3644 -0.4729
   15CHTO  H166 6010   6.632   3.308   0.070 -0.4053 -1.7940 -1.0481
   15CHTO   C93 6011   6.387   3.174   0.234  0.4405  0.0126 -0.5402
   15CHTO  H180 6012   6.345   3.134   0.141 -2.3261 -1.2137  1.1612
   15CHTO   N16 6013   6.273   3.215   0.324  0.3513 -0.3630  0.5052
   15CHTO  H172 6014   6.197   3.141   0.304 -0.6320  0.6764  0.3616
   15CHTO  H173 6015   6.246   3.317   0.298  0.2125  0.2286  2.8006
   15CHTO   C94 6016   6.476   3.059   0.302  0.0454  0.0240 -0.0661
   15CHTO  H181 6017   6.466   3.055   0.410  2.4389 -1.0300  0.1459
   15CHTO   O61 6018   6.611   3.084   0.271  0.3609 -0.2967 -0.0514
   15CHTO   C95 6019   6.662   3.204   0.339 -0.0931  0.2607  0.5294
   15CHTO  H182 6020   6.659   3.184   0.446 -2.4558  0.3631  0.5163
   15CHTO  C106 6021   6.814   3.207   0.307 -0.9219  0.3197 -0.4882
   15CHTO   O69 6022   6.836   3.227   0.166  0.6115  0.1541 -0.7141
   15CHTO  H169 6023   6.770   3.284   0.131  0.9382  0.6850 -0.4556
   15CHTO   O63 6024   6.437   2.913   0.227  0.0358  0.2517 -0.3629
   15CHTO   C96 6025   6.481   2.800   0.330 -0.0795 -0.1325 -0.1653
   15CHTO  H183 6026   6.479   2.849   0.427 -1.2610  0.0649 -0.2753
   15CHTO   C98 6027   6.615   2.730   0.304 -0.8878 -0.4269  0.9492
   15CHTO  H185 6028   6.628   2.715   0.195  1.9367  1.6568  0.9713
   15CHTO   O67 6029   6.710   2.831   0.339  0.5793  0.5693 -0.5964
   15CHTO  H167 6030   6.701   2.843   0.432 -0.2466  2.2822 -0.8973
   15CHTO  C102 6031   6.634   2.599   0.387 -0.2523 -0.4184  0.3300
   15CHTO  H189 6032   6.640   2.627   0.493 -1.3401  1.9713 -0.2231
   15CHTO   N18 6033   6.754   2.515   0.348  0.1285  0.9315 -0.2138
   15CHTO  H176 6034   6.818   2.566   0.277 -1.5078  1.6296 -1.2247
   15CHTO  H177 6035   6.810   2.477   0.432  0.1931 -0.1990 -0.7572
   15CHTO  C105 6036   6.513   2.505   0.382  0.1947  0.8121 -0.5478
   15CHTO  H192 6037   6.503   2.463   0.282 -0.0816  0.1904 -0.2643
   15CHTO   O65 6038   6.391   2.576   0.419  0.2604 -0.3895 -0.1027
   15CHTO  C100 6039   6.367   2.684   0.332 -0.1910  0.1597  0.2645
   15CHTO  H187 6040   6.365   2.640   0.231  2.8194 -0.3893  0.3899
   15CHTO  C107 6041   6.227   2.740   0.368 -0.1083  0.1465  0.5219
   15CHTO   O70 6042   6.206   2.787   0.504  0.3671  0.5013  0.2258
   15CHTO  H170 6043   6.233   2.877   0.503  1.8750  0.0698  0.1743
   15CHTO   O57 6044   6.544   2.378   0.495 -0.4203 -0.4509 -0.4569
   15CHTO   C85 6045   6.437   2.322   0.573 -0.1316 -0.3845  0.5902
   15CHTO  H157 6046   6.438   2.372   0.672 -0.8541 -1.0396  0.9362
   15CHTO   C83 6047   6.489   2.177   0.608 -0.4036  0.2291  0.5086
   15CHTO  H155 6048   6.580   2.194   0.665  0.0552 -0.5227  0.0125
   15CHTO   O56 6049   6.528   2.097   0.482 -0.2947 -0.5931  0.4123
   15CHTO  H135 6050   6.451   2.064   0.439 -0.7766 -0.3452  1.0730
   15CHTO   C81 6051   6.388   2.111   0.702 -0.7178  0.1780  0.0960
   15CHTO  H153 6052   6.375   2.176   0.789  3.6477  0.2872  0.7849
   15CHTO   N14 6053   6.449   1.984   0.762 -0.9586  0.2847  0.4135
   15CHTO  H141 6054   6.388   1.901   0.732  1.7144 -2.4455  2.2100
   15CHTO  H142 6055   6.552   1.966   0.741 -0.7907 -0.5749  1.8869
   15CHTO   C79 6056   6.249   2.088   0.634 -0.4759  0.0147 -0.3191
   15CHTO  H151 6057   6.178   2.108   0.714 -0.5502 -0.3817 -0.2863
   15CHTO   O52 6058   6.232   2.174   0.512 -0.2150 -0.8705  0.0730
   15CHTO   C86 6059   6.285   2.316   0.506 -0.2585 -0.1695  0.1880
   15CHTO  H158 6060   6.281   2.336   0.397 -0.2844 -0.7712  0.0747
   15CHTO   C90 6061   6.178   2.407   0.572 -0.0486 -0.6307 -0.4563
   15CHTO   O60 6062   6.163   2.384   0.713 -0.0857 -0.4164 -0.4757
   15CHTO  H138 6063   6.206   2.459   0.750 -0.9886 -0.1634  0.0805
   15CHTO   O50 6064   6.223   1.957   0.581  0.1187 -0.1841 -0.3833
   15CHTO   C73 6065   6.159   1.856   0.502  0.0736  0.1227 -0.8585
   15CHTO  H145 6066   6.091   1.893   0.425 -3.0664  1.8393  2.5629
   15CHTO   C74 6067   6.084   1.754   0.592 -0.5179 -0.0540 -0.3570
   15CHTO  H146 6068   6.010   1.812   0.650  0.4876 -1.3530  2.3119
   15CHTO   O54 6069   6.017   1.671   0.500 -0.0111  0.2848  0.1784
   15CHTO  H133 6070   5.933   1.710   0.489  0.2870  1.7394  2.8548
   15CHTO   C75 6071   6.187   1.676   0.681  0.4781  0.2379 -0.0379
   15CHTO  H147 6072   6.249   1.748   0.738  0.4331  0.0743  0.2169
   15CHTO   N13 6073   6.126   1.574   0.774 -0.2482  0.3107 -1.0742
   15CHTO  H139 6074   6.103   1.625   0.866 -0.6222  0.5048 -1.2740
   15CHTO  H140 6075   6.176   1.481   0.794  1.6548  1.4184 -0.5775
   15CHTO   C76 6076   6.314   1.608   0.590 -0.2448  0.8916 -0.6493
   15CHTO  H148 6077   6.280   1.525   0.527 -1.1100 -1.3866  2.6895
   15CHTO   O49 6078   6.378   1.710   0.514  0.0234  0.5122  0.5836
   15CHTO   C77 6079   6.280   1.780   0.430  0.2256  0.7388  0.1401
   15CHTO  H149 6080   6.239   1.707   0.360  2.2817 -1.7115  1.3703
   15CHTO   C88 6081   6.365   1.874   0.341  0.8538  0.1317 -0.2951
   15CHTO   O58 6082   6.311   1.970   0.246  0.0956 -0.7342  0.0468
   15CHTO  H136 6083   6.366   2.045   0.232 -0.6996 -0.2246 -0.3615
   15CHTO   O51 6084   6.435   1.545   0.695 -0.3923  0.2958 -0.0814
   15CHTO   C78 6085   6.542   1.472   0.620 -0.6879 -0.3185 -0.0350
   15CHTO  H150 6086   6.516   1.482   0.512  0.9873  3.2802 -0.1954
   15CHTO   C80 6087   6.546   1.328   0.664 -0.7047  0.5401 -0.7761
   15CHTO  H152 6088   6.578   1.327   0.770  0.8162 -2.1086 -1.2108
   15CHTO   O55 6089   6.421   1.261   0.649 -0.2025  0.3287  0.4421
   15CHTO  H134 6090   6.364   1.276   0.722  0.7014  0.7836  1.0477
   15CHTO   C84 6091   6.670   1.257   0.581 -0.0767 -0.1664 -0.6427
   15CHTO  H156 6092   6.640   1.265   0.476 -1.5334  1.5591 -0.1197
   15CHTO   N15 6093   6.682   1.105   0.608 -0.2348 -0.3197  0.2508
   15CHTO  H143 6094   6.597   1.047   0.576 -0.7255  0.5476 -0.0305
   15CHTO  H144 6095   6.769   1.079   0.551  0.1915  1.9221 -0.1795
   15CHTO   C87 6096   6.808   1.330   0.599 -0.2059  0.3175 -0.2327
   15CHTO  H159 6097   6.833   1.332   0.706 -2.4439 -1.0657  0.3432
   15CHTO   O53 6098   6.780   1.485   0.554  0.3140  0.6123 -0.4239
   15CHTO   C82 6099   6.677   1.545   0.638 -0.4070  1.0021  0.2950
   15CHTO  H154 6100   6.718   1.550   0.739  0.8665  2.6335 -0.2784
   15CHTO   C89 6101   6.672   1.687   0.582 -0.5262 -0.7896  0.3797
   15CHTO   O59 6102   6.794   1.762   0.588  0.1270  0.2225  0.1859
   15CHTO  H137 6103   6.809   1.770   0.680 -0.9296  1.0931  0.2986
   15CHTO   O45 6104   6.925   1.282   0.511 -0.8031  0.5605 -0.0675
   15CHTO   C67 6105   7.059   1.313   0.567 -0.7246 -0.5673 -0.7944
   15CHTO  H124 6106   7.043   1.414   0.606 -0.1304 -0.4910 -0.7448
   15CHTO   C65 6107   7.115   1.216   0.674  0.2336 -0.3034 -0.3032
   15CHTO  H122 6108   7.082   1.115   0.649  0.6818 -0.6562  0.4925
   15CHTO   O44 6109   7.058   1.265   0.804  0.3048 -0.1319  0.1391
   15CHTO  H102 6110   7.073   1.357   0.813  0.5201 -0.0662 -0.8536
   15CHTO   C63 6111   7.267   1.194   0.671 -0.0967  0.4039  0.0405
   15CHTO  H120 6112   7.301   1.146   0.579  1.6774  1.8592 -0.0891
   15CHTO   N11 6113   7.329   1.110   0.776  0.7528 -0.6110 -0.0182
   15CHTO  H108 6114   7.262   1.027   0.783 -0.4740  0.3107 -0.7905
   15CHTO  H109 6115   7.322   1.161   0.870  0.8910  1.0843 -0.9048
   15CHTO   C61 6116   7.336   1.331   0.644 -0.6444  0.2840  0.6125
   15CHTO  H118 6117   7.442   1.304   0.629 -0.5173  1.1563 -0.1420
   15CHTO   O40 6118   7.288   1.385   0.519  0.3543  0.1572  0.1969
   15CHTO   C68 6119   7.169   1.326   0.457  0.1521 -0.2978 -0.3442
   15CHTO  H125 6120   7.197   1.225   0.423 -0.5313 -0.1580 -1.3324
   15CHTO   C72 6121   7.124   1.413   0.332 -0.5295 -0.2725  0.3785
   15CHTO   O48 6122   7.222   1.414   0.229  0.3875  0.8004 -0.1370
   15CHTO  H105 6123   7.195   1.453   0.148  0.0337  0.4213 -0.2038
   15CHTO   O38 6124   7.324   1.423   0.751  0.3384  0.0491  0.1083
   15CHTO   C55 6125   7.387   1.554   0.736  0.1260 -0.2458  0.2226
   15CHTO  H112 6126   7.407   1.570   0.629 -0.8845  1.2583  0.2420
   15CHTO   C56 6127   7.514   1.573   0.828 -0.7337 -0.0106 -0.7910
   15CHTO  H113 6128   7.486   1.537   0.928  3.1199  2.2976  1.2371
   15CHTO   O42 6129   7.616   1.482   0.774  0.1753  0.2286 -0.4828
   15CHTO  H100 6130   7.689   1.481   0.832 -0.2969  0.1287  0.1255
   15CHTO   C57 6131   7.568   1.724   0.823 -0.2118 -0.5139 -1.2835
   15CHTO  H114 6132   7.618   1.732   0.726  2.7881 -2.9631 -0.0147
   15CHTO   N10 6133   7.672   1.752   0.930  0.4166 -0.3750  0.0859
   15CHTO  H106 6134   7.685   1.857   0.954  0.8113 -0.5226  0.5343
   15CHTO  H107 6135   7.646   1.705   1.023 -0.8404 -1.5798 -0.8626
   15CHTO   C58 6136   7.453   1.826   0.834  0.0317 -0.1646 -0.0542
   15CHTO  H115 6137   7.414   1.837   0.937 -2.0964  4.0810 -1.1962
   15CHTO   O37 6138   7.335   1.792   0.753 -0.4020 -0.3683  0.7962
   15CHTO   C59 6139   7.287   1.661   0.774 -0.9792  0.2752  0.0950
   15CHTO  H116 6140   7.264   1.648   0.879  4.0668 -0.6801  1.1692
   15CHTO   C70 6141   7.167   1.655   0.681 -0.1393 -0.1776  0.2698
   15CHTO   O46 6142   7.071   1.740   0.750  0.8482  0.4407 -0.1784
   15CHTO  H103 6143   7.030   1.697   0.823 -1.4025  1.6804 -0.6723
   15CHTO   O39 6144   7.511   1.979   0.783  0.0090  0.2786 -0.0315
   15CHTO   C60 6145   7.469   2.006   0.647 -0.2644  0.5514 -0.8733
   15CHTO  H117 6146   7.451   1.915   0.591  0.2601 -0.2756  0.2673
   15CHTO   C62 6147   7.330   2.090   0.662  0.1195  0.4521 -0.0491
   15CHTO  H119 6148   7.262   2.022   0.717  2.4506 -0.7470  1.4131
   15CHTO   O43 6149   7.365   2.210   0.729  0.1565 -0.0978 -0.2229
   15CHTO  H101 6150   7.386   2.277   0.667  0.1916  0.1985  0.1030
   15CHTO   C66 6151   7.270   2.115   0.515 -0.8140  0.2235 -0.4592
   15CHTO  H123 6152   7.241   2.020   0.469 -0.9235 -0.5368  1.1488
   15CHTO   N12 6153   7.145   2.192   0.514  0.1130 -0.0301 -0.0484
   15CHTO  H110 6154   7.063   2.127   0.545  0.5195  0.0069  1.1283
   15CHTO  H111 6155   7.152   2.276   0.581 -1.5985  0.7342 -0.7832
   15CHTO   C69 6156   7.372   2.179   0.419 -0.0187  0.2832 -0.8863
   15CHTO  H126 6157   7.390   2.283   0.452  0.6841 -0.2680  0.4810
   15CHTO   O41 6158   7.527   2.100   0.420 -0.1154  0.5393  0.1273
   15CHTO   C64 6159   7.579   2.084   0.568 -0.3599  0.6296  0.8239
   15CHTO  H121 6160   7.602   2.183   0.613  0.1012  0.5288  0.8165
   15CHTO   C71 6161   7.714   2.005   0.559 -0.5254  0.0222 -0.6136
   15CHTO   O47 6162   7.770   1.988   0.687 -0.2921  0.0614 -0.0959
   15CHTO  H104 6163   7.779   2.069   0.734 -0.0593  0.4811 -0.8676
   15CHTO   O34 6164   7.334   2.176   0.271 -0.0283  0.5266  0.3241
   15CHTO   C49 6165   7.287   2.211   0.128  0.1754 -0.1256  0.2088
   15CHTO   H91 6166   7.273   2.114   0.079 -1.3788  0.0069  0.3673
   15CHTO   C47 6167   7.389   2.310   0.071  0.6514 -0.0364  0.2770
   15CHTO   H89 6168   7.352   2.330  -0.032 -0.0856  0.9022  0.7097
   15CHTO   O33 6169   7.513   2.243   0.065  0.0992 -0.1842 -0.8651
   15CHTO   H70 6170   7.582   2.306   0.074  0.6406 -1.0155  0.9723
   15CHTO   C45 6171   7.392   2.454   0.149 -0.6910 -0.3594  0.5095
   15CHTO   H87 6172   7.411   2.437   0.256  0.1529  0.7572  0.5474
   15CHTO    N8 6173   7.501   2.544   0.098  0.1596  0.1449 -0.2380
   15CHTO   H75 6174   7.597   2.497   0.112  0.8573  1.1910 -1.4125
   15CHTO   H76 6175   7.493   2.648   0.127 -1.1671 -0.1337  0.4463
   15CHTO   C43 6176   7.251   2.509   0.148 -0.0491 -0.2199 -0.3994
   15CHTO   H85 6177   7.249   2.596   0.215 -0.3813 -0.3050 -0.3017
   15CHTO   O29 6178   7.156   2.414   0.188  0.1024  0.9114 -0.3329
   15CHTO   C50 6179   7.154   2.280   0.130  0.9247 -0.3340  0.3044
   15CHTO   H92 6180   7.081   2.225   0.191  0.4835 -1.1443 -0.9257
   15CHTO   C54 6181   7.084   2.284   0.000  0.1415 -0.2898  0.4197
   15CHTO   O36 6182   6.944   2.327   0.007  0.2173 -0.1446  0.0107
   15CHTO   H72 6183   6.893   2.259   0.047 -0.2930 -0.4881 -1.1886
   15CHTO   O27 6184   7.218   2.561   0.015 -0.2802  0.0708 -0.0733
   15CHTO   C37 6185   7.134   2.640  -0.067 -0.3303 -0.3218 -0.4506
   15CHTO   H79 6186   7.074   2.579  -0.137 -0.8535 -0.1324 -0.1686
   15CHTO   C38 6187   7.037   2.727   0.012  0.3288 -0.3602  0.4424
   15CHTO   H80 6188   7.096   2.787   0.083  0.9443  1.2765 -1.3995
   15CHTO   O31 6189   6.950   2.640   0.088  0.3304 -0.8666 -0.2928
   15CHTO   H68 6190   6.873   2.686   0.116 -1.3159 -1.3838 -3.6226
   15CHTO   C39 6191   6.945   2.815  -0.078  1.0801  0.0593  0.3139
   15CHTO   H81 6192   6.875   2.745  -0.124 -0.8910  1.3901  1.2084
   15CHTO    N7 6193   6.857   2.912  -0.004 -0.5513 -0.3501 -0.0962
   15CHTO   H73 6194   6.903   2.946   0.088  1.1033  0.1470 -1.0898
   15CHTO   H74 6195   6.763   2.865   0.021 -1.1628  1.2219  0.5966
   15CHTO   C40 6196   7.032   2.888  -0.187 -0.1137 -0.3856 -0.3278
   15CHTO   H82 6197   7.082   2.970  -0.137 -1.2896 -0.1930  0.5602
   15CHTO   O26 6198   7.126   2.795  -0.245  0.3925  0.2246  0.4704
   15CHTO   C41 6199   7.216   2.734  -0.152  0.1439  0.3740  0.0177
   15CHTO   H83 6200   7.253   2.812  -0.084  1.1584 -1.7568  1.9724
   15CHTO   C52 6201   7.336   2.667  -0.228 -0.1019  0.2775 -0.1371
   15CHTO   O35 6202   7.413   2.779  -0.318 -0.9199 -0.1997  0.7040
   15CHTO   H71 6203   7.355   2.836  -0.363  1.3048 -0.8466 -3.2910
   15CHTO   O28 6204   6.947   2.923  -0.297 -0.0006 -0.3610  0.1039
   15CHTO   C42 6205   6.977   3.050  -0.374 -0.7488 -0.1943 -0.3021
   15CHTO   H84 6206   6.916   3.037  -0.464  1.4867 -1.6953 -1.6435
   15CHTO   C44 6207   7.122   3.077  -0.420  0.6783  0.8681 -0.0040
   15CHTO   H86 6208   7.181   3.101  -0.331  3.0087  0.1586 -1.3356
   15CHTO   O32 6209   7.176   2.960  -0.488  0.4965 -0.6067  0.6793
   15CHTO   H69 6210   7.116   2.899  -0.527  0.6608  1.7128 -3.5350
   15CHTO   C48 6211   7.128   3.204  -0.510 -0.3004  0.3574 -0.0999
   15CHTO   H90 6212   7.077   3.178  -0.603 -0.8230 -0.4552  0.4087
   15CHTO    N9 6213   7.270   3.240  -0.554 -0.0207 -0.0458  0.4129
   15CHTO   H77 6214   7.282   3.211  -0.658  1.2897  2.1564 -0.0922
   15CHTO   H78 6215   7.331   3.180  -0.488  2.2159  1.6786 -0.0442
   15CHTO   C51 6216   7.060   3.326  -0.433 -0.4663 -0.0218  0.0900
   15CHTO   H93 6217   7.121   3.355  -0.348 -1.1823 -0.5567  0.7990
   15CHTO   O30 6218   6.929   3.284  -0.391  0.1328  0.1553  0.7795
   15CHTO   C46 6219   6.923   3.174  -0.304  0.3660 -0.6092 -0.0256
   15CHTO   H88 6220   6.986   3.196  -0.218  1.7915 -1.6082 -0.7927
   15CHTO   C53 6221   6.777   3.160  -0.263  0.4780 -0.4829 -0.2527
   15CHTO   O72 6222   6.679   3.175  -0.366  0.2363  0.2845  0.1443
   15CHTO  H199 6223   6.594   3.192  -0.331 -0.4639 -0.5074 -1.1411
   15CHTO   O22 6224   7.046   3.435  -0.528  0.7351 -0.3051 -0.1686
   15CHTO   C31 6225   6.995   3.572  -0.490 -0.7641 -0.3391  0.5272
   15CHTO   H59 6226   7.011   3.641  -0.576 -1.4343  0.8745  1.3448
   15CHTO   C29 6227   6.840   3.579  -0.462 -0.5172  0.4110  0.6063
   15CHTO   H57 6228   6.827   3.521  -0.369 -0.6597  1.8137  1.4631
   15CHTO   O21 6229   6.773   3.514  -0.571  0.5508 -0.2567 -0.2262
   15CHTO   H37 6230   6.802   3.425  -0.576  0.7878 -0.3002  1.7983
   15CHTO   C27 6231   6.801   3.727  -0.432 -0.0495  0.2465  0.1603
   15CHTO   H55 6232   6.816   3.787  -0.523  1.7124 -1.6429 -0.8485
   15CHTO    N5 6233   6.661   3.734  -0.387 -0.0588  0.0595  0.2599
   15CHTO   H43 6234   6.628   3.837  -0.387 -1.0898 -0.2579 -1.2761
   15CHTO   H44 6235   6.603   3.688  -0.465  1.4249 -0.3541 -0.6224
   15CHTO   C25 6236   6.899   3.794  -0.329  0.3973  0.4535 -0.3811
   15CHTO   H53 6237   6.891   3.744  -0.231 -2.4646 -0.8469 -1.2497
   15CHTO   O17 6238   7.034   3.777  -0.366 -0.5536  0.4233  0.0944
   15CHTO   C32 6239   7.073   3.639  -0.372  0.4380 -0.1593 -0.0639
   15CHTO   H60 6240   7.048   3.589  -0.279  0.7730 -0.7017 -0.2662
   15CHTO   C36 6241   7.225   3.641  -0.393  0.7524  0.0536  0.4946
   15CHTO   O25 6242   7.304   3.686  -0.278 -0.6330 -0.1355  0.3361
   15CHTO   H40 6243   7.352   3.761  -0.307  0.2907 -1.2763 -1.1519
   15CHTO   O15 6244   6.878   3.955  -0.303 -0.1203  0.5859  0.4033
   15CHTO   C19 6245   6.908   4.078  -0.222  0.1292 -0.1007  0.3912
   15CHTO   H47 6246   6.988   4.127  -0.279 -0.2556  0.6390  0.4740
   15CHTO   C20 6247   6.791   4.176  -0.206 -0.8255  0.4163  0.3099
   15CHTO   H48 6248   6.698   4.123  -0.180  0.6212 -1.7121  1.2788
   15CHTO   O19 6249   6.766   4.239  -0.333  0.2299  0.6004 -0.3387
   15CHTO   H35 6250   6.758   4.178  -0.404  1.1025 -0.0635  0.1195
   15CHTO   C21 6251   6.812   4.290  -0.099  0.0422 -0.0790 -0.2822
   15CHTO   H49 6252   6.855   4.375  -0.151 -1.0965  1.0798  0.6276
   15CHTO    N4 6253   6.684   4.352  -0.056 -0.4582  0.8463  0.2102
   15CHTO   H41 6254   6.688   4.458  -0.073  1.8404  1.1265  2.2285
   15CHTO   H42 6255   6.606   4.313  -0.120 -0.1266 -0.9048  0.8257
   15CHTO   C22 6256   6.904   4.251   0.025  0.4566  0.3717  1.1658
   15CHTO   H50 6257   6.843   4.213   0.107 -0.3965 -0.2102  0.2753
   15CHTO   O14 6258   7.008   4.166  -0.017  0.0185 -0.2292  0.1251
   15CHTO   C23 6259   6.965   4.039  -0.080 -0.2313  0.0234 -0.2490
   15CHTO   H51 6260   6.890   3.989  -0.017  0.5735  0.0702  0.7530
   15CHTO   C34 6261   7.084   3.948  -0.089  0.0762 -0.3265 -0.3212
   15CHTO   O23 6262   7.196   3.972  -0.174  0.4004  0.5543  0.2969
   15CHTO   H38 6263   7.230   3.885  -0.183 -2.4644 -0.3048 -3.3813
   15CHTO   O16 6264   6.969   4.374   0.069  0.1486 -0.3531  0.2572
   15CHTO   C24 6265   6.952   4.410   0.224  0.0971  0.0256  0.2807
   15CHTO   H52 6266   6.882   4.342   0.272 -0.3487 -0.6893 -1.3303
   15CHTO   C26 6267   6.898   4.558   0.233  0.3254 -0.9149  0.3798
   15CHTO   H54 6268   6.963   4.624   0.172 -1.5339  0.9579  0.4052
   15CHTO   O20 6269   6.767   4.550   0.180  0.5093 -0.0645 -0.2632
   15CHTO   H36 6270   6.772   4.542   0.086 -0.7522 -1.2155 -0.2562
   15CHTO   C30 6271   6.912   4.608   0.374  0.1821  0.4982  0.3613
   15CHTO   H58 6272   6.855   4.550   0.448  0.9232  1.2232  1.5176
   15CHTO    N6 6273   6.851   4.742   0.391  0.3185 -0.2456 -0.1753
   15CHTO   H45 6274   6.909   4.826   0.355  0.4701 -0.9041 -1.5065
   15CHTO   H46 6275   6.823   4.758   0.494  0.5386 -2.2229  0.2172
   15CHTO   C33 6276   7.064   4.597   0.412 -0.1520  0.5494  0.0469
   15CHTO   H61 6277   7.124   4.639   0.331  0.6339 -2.7224 -1.1450
   15CHTO   O18 6278   7.083   4.456   0.421  0.0812 -0.5265 -0.0905
   15CHTO   C28 6279   7.093   4.393   0.288  0.2994 -0.4597 -0.4364
   15CHTO   H56 6280   7.172   4.442   0.231  3.5692 -1.9077  2.7117
   15CHTO   C35 6281   7.131   4.243   0.305  0.0330  0.1439 -0.4230
   15CHTO   O24 6282   7.250   4.216   0.382  0.0459  0.0465  0.1006
   15CHTO   H39 6283   7.235   4.213   0.474  0.4603  2.1983  0.2656
   15CHTO    O9 6284   7.113   4.660   0.530 -0.4289 -0.2569  0.1762
   15CHTO   C13 6285   7.291   4.715   0.512  0.2057  0.2226  0.2356
   15CHTO   H26 6286   7.290   4.811   0.455 -0.3393  0.3292  0.4143
   15CHTO   C11 6287   7.380   4.606   0.440 -0.3935 -0.3564 -0.2435
   15CHTO   H24 6288   7.347   4.594   0.336 -0.5243 -0.3801 -0.1996
   15CHTO    O8 6289   7.369   4.484   0.514 -0.0675 -0.0669  0.3090
   15CHTO    H3 6290   7.281   4.450   0.513  0.4300 -1.6781  4.3556
   15CHTO    C9 6291   7.528   4.656   0.438 -0.1392  0.1189  0.8698
   15CHTO   H22 6292   7.524   4.755   0.390 -0.9915 -0.1784  0.3206
   15CHTO    N2 6293   7.615   4.568   0.358 -0.1000  0.2998 -0.2011
   15CHTO   H10 6294   7.714   4.609   0.341  1.6382 -3.6792 -0.3836
   15CHTO   H11 6295   7.563   4.543   0.266 -2.0717  1.8765  0.4377
   15CHTO    C7 6296   7.589   4.673   0.580  0.5524  0.3986  0.4099
   15CHTO   H20 6297   7.682   4.730   0.560  1.2343 -0.6972  0.3874
   15CHTO    O4 6298   7.497   4.757   0.661 -0.2772  0.2946 -0.1499
   15CHTO   C14 6299   7.354   4.745   0.665 -0.0800 -0.2785  0.1103
   15CHTO   H27 6300   7.325   4.845   0.703 -2.3605 -1.3352  1.2684
   15CHTO   C18 6301   7.314   4.642   0.766 -0.0753 -0.0466  0.0276
   15CHTO   O13 6302   7.171   4.652   0.784 -0.2882  0.3003 -0.4169
   15CHTO    H7 6303   7.142   4.584   0.841  1.4519 -0.0107  0.1171
   15CHTO    O2 6304   7.632   4.533   0.675 -0.2305  0.0486  0.5177
   15CHTO    C1 6305   7.708   4.540   0.793  0.2456  0.7307  0.9722
   15CHTO   H14 6306   7.659   4.607   0.867 -0.7659 -0.5463  1.4809
   15CHTO    C2 6307   7.855   4.592   0.771  0.0124  0.5845  0.1618
   15CHTO   H15 6308   7.893   4.527   0.691  0.2882  0.2867  0.5374
   15CHTO    O6 6309   7.847   4.733   0.729  0.9027 -0.0209  0.2781
   15CHTO    H1 6310   7.906   4.736   0.656 -1.5539 -0.6718 -1.8333
   15CHTO    C3 6311   7.949   4.581   0.908  0.4809 -0.5448  0.2245
   15CHTO   H16 6312   7.921   4.660   0.980 -0.7045 -0.5689 -0.1867
   15CHTO    N1 6313   8.092   4.612   0.884  0.0725  0.0544 -0.2502
   15CHTO    H8 6314   8.141   4.540   0.821  0.6433  1.0797 -0.9940
   15CHTO    H9 6315   8.083   4.703   0.825  0.0783  0.7453  0.8036
   15CHTO    C4 6316   7.926   4.446   0.985  0.0290 -0.3658  0.1496
   15CHTO   H17 6317   7.972   4.368   0.924 -0.4485 -0.6494  0.1521
   15CHTO    O1 6318   7.786   4.428   0.989  0.0123 -0.0913  0.4335
   15CHTO    C5 6319   7.722   4.404   0.861 -0.3258 -0.6417  0.6684
   15CHTO   H18 6320   7.782   4.339   0.798  1.2417  0.5481  0.9043
   15CHTO   C16 6321   7.588   4.332   0.878 -0.0141  0.5418 -0.8883
   15CHTO   O11 6322   7.504   4.411   0.959 -0.4062  0.1669 -0.6503
   15CHTO    H5 6323   7.422   4.367   0.945 -0.9469  1.1224 -0.5084
   15CHTO    O3 6324   7.971   4.443   1.119  0.2329 -0.1224 -0.5924
   15CHTO    C6 6325   8.000   4.311   1.180 -0.3799  0.2917 -1.0316
   15CHTO   H19 6326   7.981   4.230   1.110  0.9779  0.5855 -1.7635
   15CHTO    C8 6327   8.153   4.300   1.207  0.1035 -0.8751  0.7519
   15CHTO   H21 6328   8.184   4.392   1.256 -0.4664  0.3781 -1.1976
   15CHTO    O7 6329   8.225   4.292   1.079 -0.1975 -0.1584 -0.0823
   15CHTO    H2 6330   8.227   4.372   1.030 -0.0013  0.2446  0.5732
   15CHTO   C12 6331   8.183   4.179   1.303 -0.8918  0.6249  0.0153
   15CHTO   H25 6332   8.148   4.098   1.236 -1.0473  1.3424 -0.7712
   15CHTO    N3 6333   8.325   4.164   1.342  0.4602  0.3592 -0.2252
   15CHTO   H12 6334   8.380   4.078   1.305 -0.5836 -0.5405  0.3014
   15CHTO   H13 6335   8.340   4.189   1.446 -0.5963 -1.2598  0.3317
   15CHTO   C15 6336   8.086   4.189   1.424 -0.4819  0.4953 -0.4674
   15CHTO   H28 6337   8.094   4.286   1.474 -0.5852  0.1231  0.2813
   15CHTO   O10 6338   8.091   4.064   1.524 -1.3498 -0.2371  0.3987
   15CHTO    H4 6339   8.177   4.031   1.509 -0.1348  2.3722  1.1721
   15CHTO    O5 6340   7.950   4.185   1.378  0.2797 -0.0533  0.1734
   15CHTO   C10 6341   7.906   4.293   1.305  0.5615 -0.0881  0.3284
   15CHTO   H23 6342   7.906   4.385   1.363  0.5841  0.1944 -0.1170
   15CHTO   C17 6343   7.762   4.265   1.270  0.0842 -0.1786  0.5445
   15CHTO   O12 6344   7.669   4.266   1.379 -0.3976  0.3343  0.3626
   15CHTO    H6 6345   7.668   4.185   1.426 -2.2996 -0.9216 -1.7698
   16CHTO  H203 6346   6.083   4.683   0.157  1.7514  0.5337 -0.9258
   16CHTO   O82 6347   6.091   4.607   0.102  0.3329 -0.5063  0.2803
   16CHTO  C123 6348   6.154   4.508   0.182 -0.3089  0.0052 -0.5966
   16CHTO  H227 6349   6.075   4.447   0.228 -0.7207  1.9285  1.3455
   16CHTO   O77 6350   6.234   4.439   0.090  0.6476  0.3944 -0.0544
   16CHTO  C118 6351   6.291   4.317   0.138  0.5224 -0.3889 -0.3424
   16CHTO  H222 6352   6.216   4.251   0.183  1.3386 -1.5575 -0.6869
   16CHTO  C125 6353   6.348   4.258   0.007  0.3685 -0.4191  0.1284
   16CHTO   O84 6354   6.262   4.208  -0.096 -0.0505 -0.1543 -0.1132
   16CHTO  H205 6355   6.310   4.172  -0.168  3.1285  0.7828  1.4206
   16CHTO  C114 6356   6.397   4.358   0.240  0.1215 -0.5506  0.0503
   16CHTO  H218 6357   6.473   4.414   0.184  1.2255  0.3714  2.4095
   16CHTO  C116 6358   6.339   4.444   0.360 -0.8001  0.9752 -0.3360
   16CHTO  H220 6359   6.267   4.379   0.414  1.4568  0.4531  2.1629
   16CHTO   O79 6360   6.449   4.478   0.451  0.0643  0.5079  0.1635
   16CHTO  H201 6361   6.458   4.408   0.513 -0.3303  0.8971  0.6576
   16CHTO  C120 6362   6.246   4.562   0.299  0.0535 -0.2444 -0.8810
   16CHTO  H224 6363   6.308   4.639   0.249 -1.1386  1.9212  0.8910
   16CHTO   N21 6364   6.174   4.622   0.419 -0.8167 -0.2426 -0.5513
   16CHTO  H211 6365   6.189   4.729   0.419  0.2282 -0.3828  0.9042
   16CHTO  H212 6366   6.071   4.589   0.409 -0.9359 -0.1005  0.1769
   16CHTO   O75 6367   6.445   4.230   0.291 -0.3970 -0.0079 -0.4522
   16CHTO  C112 6368   6.579   4.161   0.248 -0.1685 -0.7000 -0.2828
   16CHTO  H216 6369   6.651   4.227   0.198 -0.8374 -1.3965 -2.2076
   16CHTO   O73 6370   6.538   4.050   0.162 -0.2120 -0.4351 -0.2532
   16CHTO  C113 6371   6.647   3.977   0.109 -0.7001 -0.3447  0.5421
   16CHTO  H217 6372   6.720   4.036   0.050 -0.4589 -3.4581 -2.4437
   16CHTO  C124 6373   6.589   3.878   0.006  0.7059 -0.0630 -0.4384
   16CHTO   O83 6374   6.528   3.940  -0.106  0.1684  0.9292  0.2621
   16CHTO  H204 6375   6.480   3.874  -0.151  1.0489  0.3761  0.1083
   16CHTO  C109 6376   6.715   3.904   0.223  0.1814 -0.7655  0.2736
   16CHTO  H213 6377   6.644   3.831   0.263 -0.3181  0.3159  1.3975
   16CHTO  C110 6378   6.763   4.005   0.338 -0.3283  0.5298 -0.0011
   16CHTO  H214 6379   6.845   4.060   0.292 -0.2324 -0.7551 -1.4322
   16CHTO   O78 6380   6.816   3.933   0.454  0.6500 -0.0751  0.7932
   16CHTO  H200 6381   6.851   4.000   0.508 -0.7915 -0.2758  2.0085
   16CHTO  C111 6382   6.647   4.098   0.376  0.2464  1.0044 -0.4095
   16CHTO  H215 6383   6.574   4.039   0.432  0.9677  0.4575 -0.0403
   16CHTO   N19 6384   6.686   4.202   0.469 -0.4174 -0.0781 -0.6286
   16CHTO  H207 6385   6.794   4.201   0.479 -0.5311 -0.5949  0.6602
   16CHTO  H208 6386   6.645   4.186   0.567  1.9518  1.8990  0.7464
   16CHTO   O74 6387   6.835   3.837   0.174 -1.0647  0.4571  0.0416
   16CHTO  C115 6388   6.845   3.688   0.236 -0.9854  1.0329 -0.1897
   16CHTO  H219 6389   6.787   3.680   0.328  0.8313  0.5671  0.9387
   16CHTO   O76 6390   6.781   3.584   0.143  0.4361 -0.9921 -0.1031
   16CHTO  C122 6391   6.861   3.573   0.022 -0.5437 -0.4898  0.0856
   16CHTO  H226 6392   6.877   3.671  -0.023  0.7617 -1.1768 -0.9973
   16CHTO  C126 6393   6.779   3.493  -0.086 -0.3488  0.2036 -0.3784
   16CHTO   O85 6394   6.651   3.552  -0.105  0.1962  0.0543 -0.6841
   16CHTO  H206 6395   6.658   3.614  -0.175  0.0393  0.2007 -0.5716
   16CHTO  C121 6396   7.000   3.500   0.056  0.9076  0.3146 -0.6657
   16CHTO  H225 6397   6.988   3.393   0.030  1.4366 -0.4752  2.2201
   16CHTO   O81 6398   7.110   3.535  -0.026  0.2458 -0.0512  0.7965
   16CHTO  H202 6399   7.138   3.463  -0.079  1.4278 -0.0139  1.3548
   16CHTO  C119 6400   7.035   3.522   0.212  0.2816 -0.3057 -0.5995
   16CHTO  H223 6401   6.962   3.461   0.265  0.3339 -0.7332 -1.0110
   16CHTO  C117 6402   7.000   3.667   0.258 -0.0915  0.3217 -0.2205
   16CHTO  H221 6403   7.054   3.744   0.203  1.2152 -1.9155 -2.1723
   16CHTO   N20 6404   7.037   3.680   0.402  0.0899 -0.4306 -0.3452
   16CHTO  H209 6405   7.089   3.591   0.434 -0.0108  0.0761  1.2607
   16CHTO  H210 6406   6.947   3.694   0.460 -1.1024 -0.4207 -2.1577
   16CHTO   O80 6407   7.195   3.440   0.248  0.6863  0.6731  0.5692
   16CHTO  C103 6408   7.202   3.287   0.232  0.1289  0.6347 -0.5872
   16CHTO  H190 6409   7.112   3.234   0.202  0.7898 -2.0256  1.8283
   16CHTO  C101 6410   7.308   3.220   0.137 -0.3669 -0.5419  0.2221
   16CHTO  H188 6411   7.402   3.274   0.151 -0.2014 -1.0286  0.9989
   16CHTO   O68 6412   7.246   3.252  -0.023 -0.0286 -0.4686  0.0577
   16CHTO  H168 6413   7.324   3.272  -0.071 -0.3314 -0.5265 -0.4648
   16CHTO   C99 6414   7.323   3.060   0.150 -0.3094 -0.2377  0.3190
   16CHTO  H186 6415   7.230   3.005   0.125  0.1085 -0.8629  0.1206
   16CHTO   N17 6416   7.422   3.000   0.056  0.1034 -0.0025  0.0323
   16CHTO  H174 6417   7.522   3.038   0.046  0.5846 -1.9821 -4.2047
   16CHTO  H175 6418   7.381   2.976  -0.041 -1.1900 -0.7683  0.7583
   16CHTO   C97 6419   7.352   3.017   0.296  0.1045 -0.4904 -0.0708
   16CHTO  H184 6420   7.452   3.053   0.326 -0.2403  0.1444  0.3353
   16CHTO   O64 6421   7.243   3.089   0.365  0.3302 -0.0714 -0.2056
   16CHTO  C104 6422   7.242   3.234   0.376 -0.7144 -0.2373  0.0999
   16CHTO  H191 6423   7.339   3.274   0.405 -0.3783 -1.6709  1.0168
   16CHTO  C108 6424   7.135   3.279   0.473  0.2332 -0.4704 -0.0458
   16CHTO   O71 6425   7.165   3.415   0.512  0.0888  0.0311  0.5927
   16CHTO  H171 6426   7.128   3.428   0.597 -1.1620 -0.6108  0.1601
   16CHTO   O62 6427   7.338   2.875   0.312 -1.0345  0.0060 -0.6731
   16CHTO   C91 6428   7.333   2.824   0.446 -0.3188 -0.9248  0.0847
   16CHTO  H178 6429   7.337   2.905   0.519  0.3622  0.0819 -1.0456
   16CHTO   C92 6430   7.460   2.730   0.478  1.1683  0.4608 -0.1743
   16CHTO  H179 6431   7.472   2.661   0.393 -2.9174  1.0853 -1.3499
   16CHTO   O66 6432   7.576   2.818   0.479 -0.9146 -0.2943 -0.3088
   16CHTO  H166 6433   7.622   2.821   0.397 -1.9059  0.8980 -0.8389
   16CHTO   C93 6434   7.443   2.665   0.620 -0.4782  0.7351 -0.0369
   16CHTO  H180 6435   7.453   2.746   0.694 -0.2248  1.4625 -0.8708
   16CHTO   N16 6436   7.557   2.568   0.648  0.4362  0.5879  0.5253
   16CHTO  H172 6437   7.538   2.521   0.744 -0.3382  1.3310  0.7350
   16CHTO  H173 6438   7.553   2.498   0.566 -2.1479  0.5000  0.6818
   16CHTO   C94 6439   7.307   2.596   0.642  0.4241 -0.5007 -0.2006
   16CHTO  H181 6440   7.295   2.506   0.581 -1.7466  0.8210 -1.7679
   16CHTO   O61 6441   7.201   2.687   0.612 -0.2018  0.2946 -0.2156
   16CHTO   C95 6442   7.204   2.732   0.476 -0.2006 -0.6133  0.1421
   16CHTO  H182 6443   7.195   2.646   0.409 -2.0602 -0.3590  0.0323
   16CHTO  C106 6444   7.061   2.812   0.450 -0.0539  0.5691  0.3207
   16CHTO   O69 6445   7.042   2.946   0.507 -0.2666  0.2921 -0.7770
   16CHTO  H169 6446   6.970   2.985   0.462 -3.1478 -1.7266  1.8820
   16CHTO   O63 6447   7.285   2.572   0.815  0.0654  0.4325  0.1257
   16CHTO   C96 6448   7.126   2.569   0.871  0.4054  0.3600  0.3354
   16CHTO  H183 6449   7.132   2.519   0.967  0.0725  1.3283  0.8743
   16CHTO   C98 6450   7.016   2.498   0.782 -0.2707 -0.1992 -0.0682
   16CHTO  H185 6451   7.031   2.536   0.680  1.5552  1.1088  0.6674
   16CHTO   O67 6452   7.032   2.356   0.772 -0.1056 -0.2249  0.6267
   16CHTO  H167 6453   7.103   2.333   0.716  0.9768  1.8117  1.0925
   16CHTO  C102 6454   6.868   2.539   0.832 -0.8678  0.1404 -0.5361
   16CHTO  H189 6455   6.867   2.515   0.939  1.2823 -1.2837 -0.7952
   16CHTO   N18 6456   6.749   2.476   0.769  0.5920  0.1508  0.3246
   16CHTO  H176 6457   6.744   2.500   0.664  2.2920  2.6983  0.7867
   16CHTO  H177 6458   6.733   2.370   0.780  1.8142 -0.1984 -1.0960
   16CHTO  C105 6459   6.864   2.693   0.812 -0.1124 -0.3120  0.3759
   16CHTO  H192 6460   6.880   2.705   0.704 -0.5412  0.4109  0.3873
   16CHTO   O65 6461   6.956   2.762   0.896  0.2219 -0.3192 -0.2166
   16CHTO  C100 6462   7.091   2.723   0.894 -0.8063  0.0230  0.2567
   16CHTO  H187 6463   7.139   2.778   0.812  0.3453  1.2616  1.7462
   16CHTO  C107 6464   7.175   2.768   1.016  0.9000  0.1083  0.5062
   16CHTO   O70 6465   7.202   2.906   1.022 -0.5828 -0.3009  0.1385
   16CHTO  H170 6466   7.124   2.958   1.016  1.1274  2.2118 -0.8529
   16CHTO   O57 6467   6.709   2.744   0.861  0.6890  0.0423 -0.8097
   16CHTO   C85 6468   6.634   2.815   0.765 -0.1309  0.0241 -0.4599
   16CHTO  H157 6469   6.665   2.780   0.665 -0.7728 -1.6336 -0.0992
   16CHTO   C83 6470   6.657   2.968   0.784  0.7011 -0.0662  0.0706
   16CHTO  H155 6471   6.763   2.985   0.768  0.4591  0.8881 -0.5426
   16CHTO   O56 6472   6.625   2.991   0.925 -0.3516 -0.2243 -0.2606
   16CHTO  H135 6473   6.658   2.927   0.986 -1.0495  0.8500  1.2934
   16CHTO   C81 6474   6.570   3.056   0.690 -0.1422 -0.0905 -0.3783
   16CHTO  H153 6475   6.602   3.037   0.588 -2.0835  0.7812 -1.1681
   16CHTO   N14 6476   6.590   3.202   0.717 -0.2188 -0.0883 -0.2862
   16CHTO  H141 6477   6.606   3.253   0.624  3.5151 -0.1249  0.2715
   16CHTO  H142 6478   6.529   3.262   0.782  0.7683  2.7287 -1.8654
   16CHTO   C79 6479   6.416   3.022   0.700 -0.1055 -0.2012 -0.0826
   16CHTO  H151 6480   6.364   3.070   0.617 -1.3831  0.2053  0.9411
   16CHTO   O52 6481   6.394   2.877   0.696  0.3817  0.2558  0.6328
   16CHTO   C86 6482   6.479   2.794   0.790 -0.6079 -0.0486 -0.3922
   16CHTO  H158 6483   6.449   2.817   0.894  1.2464  0.9122 -0.0566
   16CHTO   C90 6484   6.438   2.646   0.766  0.6526  0.4201  0.2209
   16CHTO   O60 6485   6.304   2.616   0.793  0.0192  0.2931  0.3278
   16CHTO  H138 6486   6.288   2.606   0.885  0.7190 -0.4157  0.3748
   16CHTO   O50 6487   6.350   3.066   0.822 -0.4877  0.4473  0.3122
   16CHTO   C73 6488   6.216   3.068   0.859  0.3075  0.0899  0.5098
   16CHTO  H145 6489   6.179   2.965   0.863  1.9418 -0.5931 -1.3146
   16CHTO   C74 6490   6.128   3.154   0.760  0.0723  0.3913  0.3785
   16CHTO  H146 6491   6.137   3.096   0.666 -2.6678  1.1472 -0.4097
   16CHTO   O54 6492   5.995   3.156   0.801 -0.2859 -0.0476  0.3021
   16CHTO  H133 6493   5.954   3.230   0.762 -2.3192 -2.0854 -1.5987
   16CHTO   C75 6494   6.193   3.301   0.747 -0.5410  0.3044 -0.1810
   16CHTO  H147 6495   6.301   3.289   0.732 -0.4187 -0.2218  1.0669
   16CHTO   N13 6496   6.137   3.387   0.643  0.3399 -0.6977  0.2588
   16CHTO  H139 6497   6.213   3.452   0.603 -0.2710  0.0847  0.3799
   16CHTO  H140 6498   6.097   3.323   0.566  1.8344 -1.7339  0.3125
   16CHTO   C76 6499   6.189   3.363   0.899  0.4575 -0.2149  0.0840
   16CHTO  H148 6500   6.087   3.391   0.925  0.2960 -3.1279  2.9608
   16CHTO   O49 6501   6.248   3.274   0.998 -0.0418 -0.0433 -0.3076
   16CHTO   C77 6502   6.196   3.139   0.995 -1.0808 -0.6705 -0.1895
   16CHTO  H149 6503   6.092   3.131   1.025 -1.1862 -2.6687 -1.0195
   16CHTO   C88 6504   6.279   3.060   1.104 -0.2306  0.3599  0.2540
   16CHTO   O58 6505   6.423   3.078   1.102 -0.3143 -0.2412  0.5908
   16CHTO  H136 6506   6.442   3.038   1.185  1.4043 -0.2936  0.1875
   16CHTO   O51 6507   6.281   3.482   0.902  0.1962 -0.1022 -0.4350
   16CHTO   C78 6508   6.245   3.575   1.025  0.3701  0.8527 -0.6768
   16CHTO  H150 6509   6.194   3.513   1.101  2.8214  0.0619  0.3473
   16CHTO   C80 6510   6.149   3.691   0.986  0.6876 -0.3145 -0.4379
   16CHTO  H152 6511   6.190   3.748   0.900 -0.8013 -0.5403 -1.3019
   16CHTO   O55 6512   6.022   3.628   0.940  0.2418  0.6446 -0.5424
   16CHTO  H134 6513   5.954   3.693   0.931 -0.1078  0.4048  0.3141
   16CHTO   C84 6514   6.130   3.789   1.099  0.9388  0.1537  0.1999
   16CHTO  H156 6515   6.084   3.738   1.183  1.3463 -0.6517 -0.0668
   16CHTO   N15 6516   6.055   3.909   1.053 -0.4915 -0.0771  0.6855
   16CHTO  H143 6517   5.958   3.900   1.097 -0.4232 -2.8305  0.3461
   16CHTO  H144 6518   6.105   3.996   1.090  0.6207 -1.2919  2.0746
   16CHTO   C87 6519   6.276   3.823   1.153  0.5725 -0.0421  0.2613
   16CHTO  H159 6520   6.333   3.879   1.079 -1.7664  0.5065 -1.1561
   16CHTO   O53 6521   6.336   3.711   1.197  0.0268  0.0291  0.0552
   16CHTO   C82 6522   6.377   3.625   1.088 -0.9408  0.1143 -0.1408
   16CHTO  H154 6523   6.440   3.685   1.022  0.4292  0.8247  1.7519
   16CHTO   C89 6524   6.457   3.509   1.126 -0.6407 -0.7485 -1.0326
   16CHTO   O59 6525   6.596   3.547   1.123 -0.1911  0.3173 -0.2899
   16CHTO  H137 6526   6.632   3.494   1.055  0.2724  0.4885 -0.1770
   16CHTO   O45 6527   6.272   3.919   1.289  0.3422 -0.2042 -0.4513
   16CHTO   C67 6528   6.402   3.972   1.319 -0.4068  0.2076 -0.7252
   16CHTO  H124 6529   6.480   3.926   1.258  0.3028  0.6349 -0.1461
   16CHTO   C65 6530   6.407   4.123   1.283  0.3801  0.1229  0.4681
   16CHTO  H122 6531   6.304   4.154   1.271  1.0301  1.6721 -1.3769
   16CHTO   O44 6532   6.468   4.131   1.151 -0.0084 -0.2549  0.0882
   16CHTO  H102 6533   6.558   4.159   1.152 -0.3376  1.4680 -5.3487
   16CHTO   C63 6534   6.467   4.213   1.399 -0.3469 -0.0379  0.4466
   16CHTO  H120 6535   6.393   4.218   1.479 -0.3309  0.1259  0.4496
   16CHTO   N11 6536   6.494   4.355   1.370  0.3132  0.2395 -0.1323
   16CHTO  H108 6537   6.503   4.370   1.264  0.5845 -0.3377 -0.1945
   16CHTO  H109 6538   6.422   4.418   1.418 -0.2429  0.1582 -0.8472
   16CHTO   C61 6539   6.598   4.143   1.459  0.0662  0.6075 -0.1071
   16CHTO  H118 6540   6.616   4.200   1.551 -0.3708  1.5301 -0.5916
   16CHTO   O40 6541   6.572   4.005   1.506  0.4126 -0.3736  0.1103
   16CHTO   C68 6542   6.444   3.942   1.472 -0.4160 -0.6037  0.2677
   16CHTO  H125 6543   6.374   3.987   1.545 -0.9527 -1.5893  0.3769
   16CHTO   C72 6544   6.450   3.789   1.498  0.0923 -0.1088 -0.1879
   16CHTO   O48 6545   6.326   3.717   1.484 -0.2062  0.0901  0.1139
   16CHTO  H105 6546   6.308   3.669   1.563 -2.4364 -2.4365 -1.8074
   16CHTO   O38 6547   6.707   4.137   1.368 -0.3599 -0.3693  0.3425
   16CHTO   C55 6548   6.833   4.078   1.410  0.3297 -0.0339 -0.0681
   16CHTO  H112 6549   6.808   4.010   1.493  3.5289 -0.2608  0.7768
   16CHTO   C56 6550   6.940   4.187   1.451 -0.6674 -0.4162  0.3347
   16CHTO  H113 6551   6.937   4.257   1.366 -1.8386  2.3309  2.5358
   16CHTO   O42 6552   6.883   4.253   1.568 -0.3188  0.0712  1.1451
   16CHTO  H100 6553   6.825   4.325   1.550  0.0491  0.8057  2.7237
   16CHTO   C57 6554   7.093   4.146   1.468 -0.1817  0.5011  0.5186
   16CHTO  H114 6555   7.111   4.100   1.565  0.5336 -2.2619 -0.8975
   16CHTO   N10 6556   7.187   4.256   1.472  0.1818  0.7055  0.3187
   16CHTO  H106 6557   7.142   4.333   1.410 -1.1727  0.6515  1.2014
   16CHTO  H107 6558   7.281   4.226   1.429 -0.1077 -0.4669  0.4924
   16CHTO   C58 6559   7.121   4.029   1.371 -0.3159 -0.2147 -0.3156
   16CHTO  H115 6560   7.161   4.069   1.276 -2.5995 -1.8077 -1.9988
   16CHTO   O37 6561   7.017   3.932   1.342  0.0199 -0.2274 -0.4713
   16CHTO   C59 6562   6.892   3.986   1.299 -0.0709  0.1549  0.1005
   16CHTO  H116 6563   6.909   4.037   1.204 -0.2130  0.3630  0.1869
   16CHTO   C70 6564   6.804   3.865   1.272  0.7903 -0.0027  0.4508
   16CHTO   O46 6565   6.865   3.761   1.186  0.3561 -0.3545 -0.1086
   16CHTO  H103 6566   6.937   3.710   1.217  1.1583 -0.5629 -2.2029
   16CHTO   O39 6567   7.250   3.949   1.443 -0.2777  0.1292 -0.3821
   16CHTO   C60 6568   7.325   3.875   1.349 -0.6983  0.0907 -0.0867
   16CHTO  H117 6569   7.268   3.876   1.256  1.6658  0.8760 -1.5640
   16CHTO   C62 6570   7.464   3.938   1.336 -0.6054 -0.0916 -0.2033
   16CHTO  H119 6571   7.446   4.045   1.313  1.3858  0.1842 -0.5078
   16CHTO   O43 6572   7.528   3.928   1.465 -0.0055  0.0585  0.2021
   16CHTO  H101 6573   7.550   4.013   1.497 -1.0640  0.5135 -0.2847
   16CHTO   C66 6574   7.543   3.869   1.221 -0.1840  0.1396 -0.5721
   16CHTO  H123 6575   7.490   3.877   1.126  0.6590  0.2359 -1.0436
   16CHTO   N12 6576   7.674   3.929   1.194 -0.1772  0.3566  0.3773
   16CHTO  H110 6577   7.694   3.923   1.088  1.4138  0.2058  0.6741
   16CHTO  H111 6578   7.749   3.879   1.253  0.0560 -0.8265 -0.8813
   16CHTO   C69 6579   7.557   3.718   1.261 -0.3963  0.3198 -0.7053
   16CHTO  H126 6580   7.624   3.715   1.349 -0.5090  0.6495 -0.6079
   16CHTO   O41 6581   7.420   3.644   1.292 -0.0734  1.0243 -0.1893
   16CHTO   C64 6582   7.332   3.729   1.399 -0.2520  0.0167  0.4633
   16CHTO  H121 6583   7.380   3.726   1.499 -0.0233  2.0217  0.4483
   16CHTO   C71 6584   7.199   3.659   1.425 -0.4118 -0.0506 -0.3743
   16CHTO   O47 6585   7.128   3.639   1.303 -0.1600  0.4092 -0.0454
   16CHTO  H104 6586   7.163   3.572   1.247 -2.6130  1.1608 -2.5826
   16CHTO   O34 6587   7.627   3.629   1.146 -0.1176 -0.2022 -0.6836
   16CHTO   C49 6588   7.629   3.618   0.995 -0.7110  0.0779 -0.4346
   16CHTO   H91 6589   7.655   3.720   0.969 -1.8666  0.6146  0.4552
   16CHTO   C47 6590   7.490   3.594   0.922 -0.2428 -0.2664 -0.1312
   16CHTO   H89 6591   7.514   3.623   0.817  1.4180 -0.9996  0.0225
   16CHTO   O33 6592   7.397   3.685   0.979 -0.8934  0.0851 -0.0287
   16CHTO   H70 6593   7.318   3.694   0.929 -2.2103 -2.6973  1.4004
   16CHTO   C45 6594   7.438   3.443   0.939  0.1813 -0.2117  0.3236
   16CHTO   H87 6595   7.368   3.447   1.024  0.6694  1.1806  0.6589
   16CHTO    N8 6596   7.361   3.399   0.816  0.7876 -0.1951 -0.0534
   16CHTO   H75 6597   7.393   3.302   0.779  1.3187 -0.0290 -0.0384
   16CHTO   H76 6598   7.255   3.395   0.837  1.0952 -3.1121  1.2378
   16CHTO   C43 6599   7.556   3.344   0.979  0.1922 -0.0993  0.5603
   16CHTO   H85 6600   7.564   3.378   1.083  0.4995  0.8610  0.2311
   16CHTO   O29 6601   7.666   3.382   0.903 -0.5190  0.9989  0.2412
   16CHTO   C50 6602   7.727   3.503   0.939 -0.0065  0.3614 -0.1690
   16CHTO   H92 6603   7.802   3.470   1.013 -0.7868  1.2149  1.0135
   16CHTO   C54 6604   7.814   3.555   0.822  0.7452  0.3765  0.5266
   16CHTO   O36 6605   7.899   3.462   0.757  0.1707  0.8017 -0.1300
   16CHTO   H72 6606   7.962   3.428   0.819  0.0487 -0.3852 -0.6351
   16CHTO   O27 6607   7.527   3.203   0.966 -0.0312  0.0210 -0.5052
   16CHTO   C37 6608   7.600   3.098   1.033  0.3381 -0.0790 -0.2969
   16CHTO   H79 6609   7.709   3.114   1.035  0.4927 -0.9584 -1.1743
   16CHTO   C38 6610   7.553   3.088   1.178  0.6735  0.0274 -0.8989
   16CHTO   H80 6611   7.443   3.080   1.179  0.7093 -0.6044  1.6742
   16CHTO   O31 6612   7.597   3.208   1.243  0.0116  0.2537 -0.3867
   16CHTO   H68 6613   7.563   3.225   1.329  2.5202 -0.3416  0.7711
   16CHTO   C39 6614   7.610   2.959   1.250  0.2314  0.3249 -0.4784
   16CHTO   H81 6615   7.719   2.966   1.246  0.4164 -0.6876  1.6935
   16CHTO    N7 6616   7.573   2.937   1.394 -0.0254  0.1349  0.3103
   16CHTO   H73 6617   7.495   3.001   1.432  0.1100  0.7442 -0.4214
   16CHTO   H74 6618   7.565   2.832   1.416 -1.6600  0.1757 -0.0220
   16CHTO   C40 6619   7.576   2.827   1.165  0.8752  0.2630 -0.6127
   16CHTO   H82 6620   7.469   2.813   1.177  1.0351 -0.5860 -0.1045
   16CHTO   O26 6621   7.616   2.848   1.027 -0.2117  0.0893 -0.0541
   16CHTO   C41 6622   7.570   2.965   0.953 -0.3980 -0.5720 -0.0899
   16CHTO   H83 6623   7.463   2.962   0.927 -0.1340 -0.8679 -1.1628
   16CHTO   C52 6624   7.640   2.955   0.808 -0.3616 -0.2341 -0.0889
   16CHTO   O35 6625   7.637   3.093   0.719 -0.4638  0.6343  0.4626
   16CHTO   H71 6626   7.607   3.071   0.633  1.2452 -0.0961  0.0355
   16CHTO   O28 6627   7.644   2.710   1.211  1.1047  0.1484 -0.4376
   16CHTO   C42 6628   7.601   2.572   1.184  0.0389 -1.0427 -0.8667
   16CHTO   H84 6629   7.666   2.521   1.255 -0.2445  0.3154  0.3978
   16CHTO   C44 6630   7.636   2.513   1.047  0.2533  0.4288 -0.0355
   16CHTO   H86 6631   7.573   2.563   0.972  0.5603  2.3731  0.9608
   16CHTO   O32 6632   7.774   2.546   1.018 -0.4143  0.8685 -0.2133
   16CHTO   H69 6633   7.786   2.531   0.926  0.4624  0.0023  0.0322
   16CHTO   C48 6634   7.623   2.356   1.053  1.0040  0.1465 -0.2274
   16CHTO   H90 6635   7.685   2.306   1.127  0.2989  0.8108  0.8245
   16CHTO    N9 6636   7.665   2.283   0.926 -0.1145  0.2191  0.1543
   16CHTO   H77 6637   7.626   2.182   0.924 -1.6091  0.8016 -1.9734
   16CHTO   H78 6638   7.772   2.273   0.938 -0.1215 -0.0567  0.0078
   16CHTO   C51 6639   7.470   2.323   1.092 -0.1768 -0.5599 -0.3231
   16CHTO   H93 6640   7.411   2.364   1.010 -0.1703 -0.4934 -0.2949
   16CHTO   O30 6641   7.431   2.388   1.218 -0.5645  0.1033  0.0183
   16CHTO   C46 6642   7.455   2.534   1.225  0.0746 -0.2244  0.6278
   16CHTO   H88 6643   7.386   2.581   1.155  0.2792  0.3405  0.7996
   16CHTO   C53 6644   7.415   2.580   1.371 -0.2627 -0.1306  0.0901
   16CHTO   O72 6645   7.272   2.585   1.384  0.0624 -0.7531 -0.2473
   16CHTO  H199 6646   7.234   2.525   1.323 -0.4489 -1.5681  0.8520
   16CHTO   O22 6647   7.453   2.184   1.120  0.6695 -0.4363 -0.4208
   16CHTO   C31 6648   7.325   2.120   1.166 -0.0037 -0.5419 -0.0321
   16CHTO   H59 6649   7.282   2.178   1.250  1.1748 -0.3837  0.4700
   16CHTO   C29 6650   7.228   2.111   1.046 -0.1443  0.0572 -0.1745
   16CHTO   H57 6651   7.274   2.056   0.963 -2.8632 -1.4046 -0.7661
   16CHTO   O21 6652   7.198   2.248   1.007  0.4427 -0.2742 -0.6306
   16CHTO   H37 6653   7.129   2.249   0.945 -1.0324  2.2907  0.9471
   16CHTO   C27 6654   7.094   2.037   1.088 -0.1876  0.8635 -0.7863
   16CHTO   H55 6655   7.036   2.104   1.154  0.4030 -0.5764  1.2232
   16CHTO    N5 6656   7.015   2.015   0.969  0.2172 -0.4347  0.1054
   16CHTO   H43 6657   7.001   1.911   0.944  0.2993  0.0832 -2.2263
   16CHTO   H44 6658   6.931   2.082   0.971  1.1190  0.7214  0.0124
   16CHTO   C25 6659   7.125   1.900   1.162  0.2527 -0.3203  0.1410
   16CHTO   H53 6660   7.157   1.821   1.093 -2.4903 -1.5515  0.1952
   16CHTO   O17 6661   7.220   1.923   1.263 -0.1994  0.4781 -0.1778
   16CHTO   C32 6662   7.349   1.978   1.225  0.4533  0.4321 -0.0966
   16CHTO   H60 6663   7.403   1.923   1.147  1.1063  0.4531  0.3464
   16CHTO   C36 6664   7.434   1.979   1.346 -0.1353  0.3007 -0.4485
   16CHTO   O25 6665   7.505   1.853   1.359 -0.6766 -0.2381  0.6149
   16CHTO   H40 6666   7.543   1.855   1.444 -1.7655  3.3407  1.1010
   16CHTO   O15 6667   7.000   1.848   1.224 -0.0141 -0.3881 -0.0650
   16CHTO   C19 6668   6.878   1.865   1.298 -0.2960  0.3072 -0.6558
   16CHTO   H47 6669   6.861   1.768   1.347  3.7281 -0.0714  0.2215
   16CHTO   C20 6670   6.883   1.964   1.417  0.0568  0.1376  0.2759
   16CHTO   H48 6671   6.902   2.068   1.384 -1.1807  0.1120 -0.5628
   16CHTO   O19 6672   6.983   1.921   1.507  0.3921  0.5123 -0.0900
   16CHTO   H35 6673   6.979   1.835   1.544 -0.4820  1.6815  2.6356
   16CHTO   C21 6674   6.746   1.972   1.483  0.3233  0.5402 -0.5038
   16CHTO   H49 6675   6.715   1.874   1.519  1.4669  0.8312  1.3425
   16CHTO    N4 6676   6.743   2.066   1.596 -0.2376 -0.4200  1.0251
   16CHTO   H41 6677   6.644   2.081   1.636 -0.4646 -0.3993  0.4524
   16CHTO   H42 6678   6.803   2.020   1.673 -0.2024 -1.1959  0.5327
   16CHTO   C22 6679   6.631   1.989   1.377 -0.3604  0.2527 -0.6629
   16CHTO   H50 6680   6.642   2.090   1.336  2.5972  1.4832  2.8123
   16CHTO   O14 6681   6.629   1.886   1.278 -0.1028 -0.7536 -0.0121
   16CHTO   C23 6682   6.748   1.894   1.203 -0.5899 -0.3700  0.3094
   16CHTO   H51 6683   6.753   1.994   1.158 -0.4913 -1.1483 -1.4603
   16CHTO   C34 6684   6.730   1.789   1.099 -0.5779  0.0846  0.1292
   16CHTO   O23 6685   6.625   1.823   1.011  0.9602  0.9581  0.3644
   16CHTO   H38 6686   6.548   1.799   1.060 -0.3576  3.8126 -0.2412
   16CHTO   O16 6687   6.497   1.969   1.437 -0.3740  0.1126 -0.5817
   16CHTO   C24 6688   6.376   2.074   1.391 -0.0874 -0.0643  0.6031
   16CHTO   H52 6689   6.400   2.127   1.299 -0.0063 -1.1471  0.0041
   16CHTO   C26 6690   6.367   2.179   1.501  0.7635 -0.3849 -0.4004
   16CHTO   H54 6691   6.354   2.138   1.603 -0.6549  0.0477 -0.3947
   16CHTO   O20 6692   6.490   2.248   1.500  0.0966 -0.0233  0.2525
   16CHTO   H36 6693   6.542   2.234   1.423  1.5938  1.9408  0.8525
   16CHTO   C30 6694   6.244   2.272   1.472 -0.0036  0.4552  0.9065
   16CHTO   H58 6695   6.264   2.323   1.377  2.6647 -0.3432  1.0012
   16CHTO    N6 6696   6.236   2.384   1.574 -0.2760  0.5075  0.2264
   16CHTO   H45 6697   6.133   2.401   1.598 -0.3750  1.3919 -0.8226
   16CHTO   H46 6698   6.278   2.477   1.541 -0.6583  0.2055 -1.1638
   16CHTO   C33 6699   6.114   2.181   1.461  0.1127 -0.7045  0.3389
   16CHTO   H61 6700   6.104   2.120   1.552 -2.0846 -0.2211  0.4439
   16CHTO   O18 6701   6.134   2.093   1.347  0.2916  0.0151  0.3170
   16CHTO   C28 6702   6.242   2.001   1.371 -0.3537 -0.4799  0.5875
   16CHTO   H56 6703   6.225   1.941   1.460  2.9160  0.3488  1.8187
   16CHTO   C35 6704   6.249   1.907   1.245 -0.0617  0.0725 -0.1790
   16CHTO   O24 6705   6.329   1.799   1.265 -0.6630 -0.2245  0.6333
   16CHTO   H39 6706   6.412   1.819   1.226 -0.6525 -0.7975  0.3622
   16CHTO    O9 6707   5.994   2.259   1.445  0.5267  0.8059 -0.2523
   16CHTO   C13 6708   5.867   2.247   1.555  0.6369  0.3462 -0.3055
   16CHTO   H26 6709   5.906   2.270   1.657 -0.2429 -1.1036  0.3782
   16CHTO   C11 6710   5.786   2.114   1.550  0.1447 -0.7579 -0.1862
   16CHTO   H24 6711   5.846   2.046   1.612 -0.6402 -0.8890  0.4386
   16CHTO    O8 6712   5.777   2.065   1.420 -0.1797  1.0872 -0.4048
   16CHTO    H3 6713   5.777   2.134   1.356  0.1202  2.1119  0.6787
   16CHTO    C9 6714   5.643   2.134   1.615  0.1864  0.6798  0.0491
   16CHTO   H22 6715   5.664   2.183   1.711 -0.9537 -0.1002  0.7032
   16CHTO    N2 6716   5.571   2.008   1.646  0.2647  0.2922  0.3372
   16CHTO   H10 6717   5.484   2.033   1.705 -0.6592  1.7598 -1.6270
   16CHTO   H11 6718   5.629   1.932   1.696  2.6640  0.8241 -1.5510
   16CHTO    C7 6719   5.568   2.228   1.522 -0.5472 -0.2277  0.2118
   16CHTO   H20 6720   5.500   2.278   1.594  0.9582  0.6795  1.0158
   16CHTO    O4 6721   5.643   2.333   1.464 -0.8347  0.3049 -0.3957
   16CHTO   C14 6722   5.768   2.375   1.525  0.2599 -0.8072  0.2479
   16CHTO   H27 6723   5.748   2.423   1.623  1.2093  1.6484 -0.7204
   16CHTO   C18 6724   5.843   2.483   1.433 -0.5935 -0.1970  0.7636
   16CHTO   O13 6725   5.960   2.530   1.488 -0.2710 -0.0804  0.0550
   16CHTO    H7 6726   5.995   2.603   1.440  1.1054 -1.1869 -0.6563
   16CHTO    O2 6727   5.507   2.141   1.390 -0.5490  0.5291  0.4828
   16CHTO    C1 6728   5.380   2.193   1.336  0.1910 -0.1777  0.5107
   16CHTO   H14 6729   5.350   2.147   1.240 -1.9018  1.3476  0.3931
   16CHTO    C2 6730   5.362   2.348   1.325 -0.0834  0.9063  0.4837
   16CHTO   H15 6731   5.367   2.389   1.426 -0.6801  1.1116  0.4348
   16CHTO    O6 6732   5.464   2.394   1.241 -0.3217  0.0609 -0.4039
   16CHTO    H1 6733   5.538   2.429   1.287 -0.8583 -1.0442  1.3910
   16CHTO    C3 6734   5.216   2.387   1.264 -0.1280  0.0245  0.1118
   16CHTO   H16 6735   5.205   2.335   1.167 -0.1881  0.4313 -0.1004
   16CHTO    N1 6736   5.189   2.535   1.243 -0.4119 -0.2090 -0.1428
   16CHTO    H8 6737   5.087   2.553   1.214  0.6539  2.0133 -2.7315
   16CHTO    H9 6738   5.254   2.583   1.171  1.6147 -0.9973  1.0982
   16CHTO    C4 6739   5.099   2.324   1.353 -0.0331  0.9466 -0.1978
   16CHTO   H17 6740   5.091   2.387   1.442  0.3641  0.0402  0.4911
   16CHTO    O1 6741   5.129   2.186   1.381 -0.2154 -0.2930  0.3577
   16CHTO    C5 6742   5.258   2.146   1.432  0.8253  0.5489  0.1159
   16CHTO   H18 6743   5.272   2.194   1.529  3.5996 -0.6805  0.3761
   16CHTO   C16 6744   5.247   1.988   1.445  0.0374  0.4225  1.2992
   16CHTO   O11 6745   5.141   1.934   1.522 -0.9480 -0.3531 -0.3520
   16CHTO    H5 6746   5.154   1.842   1.530  1.2000  0.0649  1.3654
   16CHTO    O3 6747   4.968   2.315   1.291 -0.4202  0.8487  0.6465
   16CHTO    C6 6748   4.849   2.328   1.374  0.0268 -0.2155  0.2924
   16CHTO   H19 6749   4.866   2.325   1.481  1.1307 -0.4649  0.1169
   16CHTO    C8 6750   4.777   2.465   1.356  0.0230  0.1660 -0.0451
   16CHTO   H21 6751   4.762   2.473   1.248  1.0334 -0.0110 -0.2105
   16CHTO    O7 6752   4.851   2.582   1.398  0.6875  0.2296  0.1994
   16CHTO    H2 6753   4.931   2.587   1.350  0.1868 -0.2171 -0.6902
   16CHTO   C12 6754   4.639   2.461   1.434  0.0471 -0.4220  0.0724
   16CHTO   H25 6755   4.660   2.458   1.543 -0.7575  2.0389  0.3234
   16CHTO    N3 6756   4.553   2.584   1.413  0.5206 -0.3031 -0.3731
   16CHTO   H12 6757   4.614   2.664   1.452  1.1931 -0.7016 -0.6103
   16CHTO   H13 6758   4.528   2.599   1.309  0.7546  0.2095 -0.3601
   16CHTO   C15 6759   4.560   2.333   1.394 -0.1668 -0.2299 -0.4649
   16CHTO   H28 6760   4.524   2.329   1.291  0.3493 -0.7936 -0.6252
   16CHTO   O10 6761   4.444   2.316   1.479 -0.4719  0.0589  0.2872
   16CHTO    H4 6762   4.367   2.297   1.429 -0.8541  0.0390  0.8666
   16CHTO    O5 6763   4.636   2.212   1.414 -0.3556  0.1303 -0.5014
   16CHTO   C10 6764   4.753   2.217   1.335  0.0591  0.2667  0.3799
   16CHTO   H23 6765   4.743   2.224   1.227  4.4927 -0.6284 -0.1904
   16CHTO   C17 6766   4.812   2.082   1.367  0.5420 -0.0397  0.6281
   16CHTO   O12 6767   4.758   1.972   1.307 -0.2855  0.2052 -0.6014
   16CHTO    H6 6768   4.801   1.962   1.224 -1.4231 -1.3151 -1.0151
   17CHTO  H203 6769   5.688   4.351   2.575  0.4413 -0.1474 -0.0895
   17CHTO   O82 6770   5.734   4.425   2.609  0.3635 -0.1371 -0.0069
   17CHTO  C123 6771   5.656   4.494   2.704  0.6569  0.3521  0.2907
   17CHTO  H227 6772   5.645   4.425   2.789  0.5589 -1.1124 -0.8917
   17CHTO   O77 6773   5.743   4.608   2.745 -0.8853  0.0676  0.3152
   17CHTO  C118 6774   5.690   4.699   2.841  0.1700 -0.0887  0.1535
   17CHTO  H222 6775   5.634   4.646   2.919 -1.4459  1.2744 -0.0456
   17CHTO  C125 6776   5.799   4.786   2.900 -0.5621 -0.2516  0.8997
   17CHTO   O84 6777   5.847   4.726   3.021  0.1230  0.1805 -0.4238
   17CHTO  H205 6778   5.887   4.795   3.069  1.2725  0.4298 -1.7099
   17CHTO  C114 6779   5.586   4.775   2.756  0.5830 -0.9095 -0.1730
   17CHTO  H218 6780   5.632   4.808   2.663  3.1951 -1.1682  0.9873
   17CHTO  C116 6781   5.468   4.676   2.725  0.1477 -0.4422 -0.5715
   17CHTO  H220 6782   5.413   4.642   2.815  1.3679 -4.0823 -1.1363
   17CHTO   O79 6783   5.372   4.753   2.648  0.5818 -0.2772  0.0745
   17CHTO  H201 6784   5.412   4.801   2.579 -2.8897 -0.2188 -1.9956
   17CHTO  C120 6785   5.519   4.554   2.649  0.1231  0.0841 -0.3945
   17CHTO  H224 6786   5.541   4.590   2.547  2.2341  1.6199  0.5685
   17CHTO   N21 6787   5.416   4.444   2.640  0.0947 -0.2019  0.6109
   17CHTO  H211 6788   5.338   4.470   2.570  0.7542  0.9038  0.2788
   17CHTO  H212 6789   5.386   4.402   2.735 -0.4013  2.8359  1.8793
   17CHTO   O75 6790   5.539   4.882   2.834  0.0861 -0.0783 -0.1376
   17CHTO  C112 6791   5.541   5.025   2.757 -0.9316  0.5148  0.6296
   17CHTO  H216 6792   5.491   5.010   2.661 -1.9258  1.6548  0.9649
   17CHTO   O73 6793   5.675   5.074   2.751  0.5565  0.0930  0.0395
   17CHTO  C113 6794   5.683   5.193   2.666  0.3600 -0.4153 -0.4080
   17CHTO  H217 6795   5.645   5.167   2.564 -3.4146 -0.0689  0.8455
   17CHTO  C124 6796   5.831   5.228   2.640  0.3515 -0.4264  0.4108
   17CHTO   O83 6797   5.891   5.137   2.545  0.3091  0.0241 -0.3521
   17CHTO  H204 6798   5.897   5.181   2.462  2.5039 -1.1430 -0.8452
   17CHTO  C109 6799   5.611   5.312   2.733  0.2661 -0.1364 -0.7505
   17CHTO  H213 6800   5.668   5.338   2.823  0.6606 -1.0700 -0.7314
   17CHTO  C110 6801   5.464   5.269   2.768 -0.0932  0.1046 -0.0175
   17CHTO  H214 6802   5.404   5.260   2.678  0.3892 -2.1842 -0.1479
   17CHTO   O78 6803   5.398   5.372   2.849  0.5552 -0.3105 -0.1973
   17CHTO  H200 6804   5.418   5.360   2.939 -1.5096  1.9773  0.6240
   17CHTO  C111 6805   5.464   5.131   2.840 -0.3678  0.6623 -0.1445
   17CHTO  H215 6806   5.521   5.142   2.934  1.8174 -0.2621 -1.3113
   17CHTO   N19 6807   5.327   5.086   2.870 -0.1557  0.4091  0.2879
   17CHTO  H207 6808   5.326   4.992   2.924  0.7692  0.2817  0.0888
   17CHTO  H208 6809   5.282   5.164   2.929 -0.0835 -0.1941  1.1495
   17CHTO   O74 6810   5.618   5.430   2.642  0.1532 -0.4495  0.7158
   17CHTO  C115 6811   5.634   5.573   2.713  0.4930  0.2135  0.1987
   17CHTO  H219 6812   5.556   5.594   2.786 -1.7523  1.8266 -2.5652
   17CHTO   O76 6813   5.770   5.579   2.794  0.5314 -0.2249  0.2386
   17CHTO  C122 6814   5.875   5.617   2.710  0.2659  0.0892  0.0221
   17CHTO  H226 6815   5.881   5.542   2.631 -1.3627 -2.0752  1.8685
   17CHTO  C126 6816   5.999   5.607   2.804  0.2818 -0.0846 -0.0233
   17CHTO   O85 6817   6.001   5.696   2.912 -0.5373 -0.1023  0.1797
   17CHTO  H206 6818   5.952   5.663   2.985 -0.8798  0.4787  0.2100
   17CHTO  C121 6819   5.860   5.765   2.655 -0.0676  0.3248  0.3830
   17CHTO  H225 6820   5.912   5.837   2.721 -1.2248 -1.1441  2.9650
   17CHTO   O81 6821   5.908   5.760   2.521 -0.6798  0.1798  0.0911
   17CHTO  H202 6822   5.997   5.732   2.512 -1.3735 -1.9888 -0.2649
   17CHTO  C119 6823   5.711   5.798   2.644  0.1337  0.0433 -0.2098
   17CHTO  H223 6824   5.678   5.835   2.741  1.9134  1.9978 -0.3313
   17CHTO  C117 6825   5.621   5.678   2.599  0.1573  0.7350 -0.4609
   17CHTO  H221 6826   5.644   5.625   2.506  0.8384  0.8657 -0.3667
   17CHTO   N20 6827   5.480   5.724   2.584  0.0734 -0.0690 -0.3154
   17CHTO  H209 6828   5.450   5.795   2.660 -2.2936 -0.9419 -0.3859
   17CHTO  H210 6829   5.472   5.783   2.494  0.3948  0.5384  0.0508
   17CHTO   O80 6830   5.680   5.939   2.543  0.1146  0.1742 -0.2727
   17CHTO  C103 6831   5.716   6.090   2.595  0.1498  0.0948 -0.1784
   17CHTO  H190 6832   5.723   6.092   2.703  0.8552 -2.3357 -0.1613
   17CHTO  C101 6833   5.845   6.160   2.536 -0.2199 -0.2276 -0.4205
   17CHTO  H188 6834   5.844   6.151   2.427  0.0162  4.0439 -0.8535
   17CHTO   O68 6835   5.969   6.087   2.583 -0.5738  0.2264 -0.4384
   17CHTO  H168 6836   6.048   6.115   2.541  0.2269  0.5423  1.2059
   17CHTO   C99 6837   5.863   6.311   2.569  0.2057  0.5597 -0.2119
   17CHTO  H186 6838   5.873   6.333   2.678  3.5580 -0.3919 -0.2804
   17CHTO   N17 6839   5.981   6.389   2.505 -0.4216 -0.4187  0.0900
   17CHTO  H174 6840   6.076   6.338   2.512  0.5784  1.1107 -1.7619
   17CHTO  H175 6841   5.990   6.481   2.560 -3.2447 -0.9580  1.5589
   17CHTO   C97 6842   5.732   6.379   2.527 -0.0792  0.1225  0.8669
   17CHTO  H184 6843   5.725   6.397   2.419 -0.0059  1.9242  1.1383
   17CHTO   O64 6844   5.614   6.309   2.577  0.2228 -0.2760  0.0389
   17CHTO  C104 6845   5.586   6.173   2.551 -0.8529 -1.0596  0.1495
   17CHTO  H191 6846   5.569   6.157   2.445 -0.4515 -0.0026 -0.0725
   17CHTO  C108 6847   5.464   6.123   2.621  0.2977  0.2269 -0.6492
   17CHTO   O71 6848   5.347   6.206   2.596  0.2038  0.0337  0.8649
   17CHTO  H171 6849   5.365   6.292   2.628 -1.2234  0.7626 -0.2366
   17CHTO   O62 6850   5.724   6.506   2.595  0.0829 -0.9640  0.3356
   17CHTO   C91 6851   5.623   6.595   2.538  0.3463  0.3702 -0.3752
   17CHTO  H178 6852   5.552   6.531   2.486  2.5048 -1.9572 -0.5733
   17CHTO   C92 6853   5.690   6.691   2.428  0.1587 -0.7638 -0.1080
   17CHTO  H179 6854   5.749   6.628   2.360  2.9095 -2.7336  3.9305
   17CHTO   O66 6855   5.581   6.745   2.342 -0.2534  0.2015  0.4535
   17CHTO  H166 6856   5.598   6.836   2.329  0.3581  0.1505  0.9272
   17CHTO   C93 6857   5.775   6.806   2.497  0.2142  0.3912  0.0476
   17CHTO  H180 6858   5.783   6.885   2.420 -1.7548  2.2362  1.6530
   17CHTO   N16 6859   5.918   6.772   2.531  0.1313  0.0863  0.5233
   17CHTO  H172 6860   5.947   6.792   2.633 -1.8494 -2.2433  1.5927
   17CHTO  H173 6861   5.937   6.666   2.518 -1.2915 -0.2319  0.8947
   17CHTO   C94 6862   5.702   6.867   2.623 -0.4732  0.5473  0.2010
   17CHTO  H181 6863   5.746   6.833   2.717 -1.4465 -1.4201 -0.0181
   17CHTO   O61 6864   5.562   6.830   2.625 -0.0335 -0.4403 -0.3659
   17CHTO   C95 6865   5.546   6.688   2.644  0.4320  0.3615 -0.3312
   17CHTO  H182 6866   5.583   6.661   2.742  1.2214 -1.2376 -1.0523
   17CHTO  C106 6867   5.396   6.654   2.651 -0.1519 -0.0383  1.2133
   17CHTO   O69 6868   5.334   6.675   2.779  0.2802  0.1317  0.5800
   17CHTO  H169 6869   5.307   6.765   2.781 -1.2827 -0.2599 -1.3703
   17CHTO   O63 6870   5.725   7.013   2.611  0.4731  0.0675  0.3583
   17CHTO   C96 6871   5.693   7.107   2.746 -0.0956  0.0041 -0.1266
   17CHTO  H183 6872   5.687   7.049   2.838  0.1557 -0.0733 -0.1583
   17CHTO   C98 6873   5.552   7.175   2.749 -0.0271  0.6812 -0.4533
   17CHTO  H185 6874   5.537   7.221   2.651 -1.4550  1.1183 -0.0383
   17CHTO   O67 6875   5.454   7.068   2.754 -0.5840  0.0289 -0.0495
   17CHTO  H167 6876   5.452   7.031   2.668  3.1210  0.4869 -0.4402
   17CHTO  C102 6877   5.539   7.287   2.867  0.0561  0.2379  0.5401
   17CHTO  H189 6878   5.546   7.235   2.964  0.3321 -1.0106 -0.1377
   17CHTO   N18 6879   5.412   7.369   2.875 -0.0095  0.3329 -1.2799
   17CHTO  H176 6880   5.422   7.434   2.961 -1.3862 -0.0875 -0.7852
   17CHTO  H177 6881   5.416   7.434   2.790 -1.9079  0.0751 -1.5875
   17CHTO  C105 6882   5.661   7.382   2.865  0.3946 -0.6022 -1.0971
   17CHTO  H192 6883   5.656   7.441   2.773  1.5002  1.4830  0.1248
   17CHTO   O65 6884   5.786   7.311   2.865  0.1289 -0.4246  0.5119
   17CHTO  C100 6885   5.809   7.215   2.760 -0.3409 -0.5169  0.4941
   17CHTO  H187 6886   5.807   7.276   2.669 -1.2417 -1.7229 -0.3171
   17CHTO  C107 6887   5.946   7.144   2.781  0.1382 -0.4616  1.0701
   17CHTO   O70 6888   6.051   7.238   2.750 -0.3174  0.0875 -0.8274
   17CHTO  H170 6889   6.079   7.279   2.829  2.0692 -1.1066 -1.0211
   17CHTO   O57 6890   5.658   7.477   3.013  0.2975 -0.5529 -0.3292
   17CHTO   C85 6891   5.759   7.574   3.045 -0.1120 -0.7505  0.3247
   17CHTO  H157 6892   5.794   7.611   2.946  0.6206 -1.9426  0.1349
   17CHTO   C83 6893   5.875   7.498   3.121  0.1578  0.3969  0.2127
   17CHTO  H155 6894   5.927   7.438   3.046 -0.5065 -1.2881  1.0615
   17CHTO   O56 6895   5.824   7.401   3.218 -0.4149 -0.9453  0.0661
   17CHTO  H135 6896   5.781   7.446   3.288 -1.2643 -0.7826 -0.5493
   17CHTO   C81 6897   5.967   7.602   3.181  0.7044 -0.3865 -0.0874
   17CHTO  H153 6898   5.999   7.672   3.103  1.2369  0.2704  0.7034
   17CHTO   N14 6899   6.090   7.551   3.239 -0.4885 -0.4160  0.3852
   17CHTO  H141 6900   6.177   7.574   3.182  0.1332 -0.2436  1.3882
   17CHTO  H142 6901   6.089   7.446   3.258  0.3443 -0.2080  1.6628
   17CHTO   C79 6902   5.887   7.691   3.284  0.6944 -0.6213  0.4265
   17CHTO  H151 6903   5.952   7.771   3.317 -0.6016  1.5069 -1.9653
   17CHTO   O52 6904   5.786   7.771   3.212 -1.1098  0.0229  0.2883
   17CHTO   C86 6905   5.699   7.686   3.130  1.1606 -0.2240 -0.0344
   17CHTO  H158 6906   5.632   7.645   3.208  0.5864  0.4913 -0.1454
   17CHTO   C90 6907   5.617   7.774   3.046 -0.0647 -0.0419  0.6511
   17CHTO   O60 6908   5.527   7.863   3.111  0.2998 -0.2793  0.2586
   17CHTO  H138 6909   5.491   7.925   3.051  1.2118 -2.1548 -2.2805
   17CHTO   O50 6910   5.820   7.628   3.383 -0.3138 -0.5269 -0.3141
   17CHTO   C73 6911   5.785   7.623   3.522  0.4261  0.5734  0.5894
   17CHTO  H145 6912   5.735   7.716   3.553 -0.5474  0.8084 -1.6448
   17CHTO   C74 6913   5.911   7.597   3.616  0.3114  0.2087  0.3916
   17CHTO  H146 6914   5.983   7.679   3.607 -0.2064  0.6154 -0.0341
   17CHTO   O54 6915   5.870   7.596   3.755 -0.0697 -0.0265  0.2517
   17CHTO  H133 6916   5.822   7.523   3.787 -3.5881  1.9299 -0.3347
   17CHTO   C75 6917   5.972   7.455   3.579 -0.9020 -0.3168 -0.1187
   17CHTO  H147 6918   6.023   7.462   3.482  1.8972 -0.6798  1.2847
   17CHTO   N13 6919   6.089   7.413   3.659  0.7046 -0.3670  0.2231
   17CHTO  H139 6920   6.167   7.368   3.599 -0.2674  0.4181 -1.6662
   17CHTO  H140 6921   6.131   7.501   3.704  0.0843  1.4061 -2.5508
   17CHTO   C76 6922   5.858   7.335   3.557 -0.4284 -0.3389  0.5729
   17CHTO  H148 6923   5.815   7.313   3.655 -1.9184 -1.6877 -0.3666
   17CHTO   O49 6924   5.739   7.388   3.485  0.4239 -0.0234  0.3498
   17CHTO   C77 6925   5.684   7.507   3.536  0.1492  0.0169 -0.0645
   17CHTO  H149 6926   5.649   7.491   3.638  1.5520  0.9460  0.5800
   17CHTO   C88 6927   5.546   7.542   3.466 -0.9220 -0.4564 -0.2277
   17CHTO   O58 6928   5.489   7.681   3.509 -0.2859 -0.3682 -0.0748
   17CHTO  H136 6929   5.554   7.742   3.537 -0.3276 -0.0823 -0.5918
   17CHTO   O51 6930   5.901   7.236   3.483  0.6250 -0.1987  0.2101
   17CHTO   C78 6931   5.810   7.094   3.484  0.2617  0.1190  0.5020
   17CHTO  H150 6932   5.701   7.108   3.466 -0.0701 -1.4627  1.2712
   17CHTO   C80 6933   5.830   7.012   3.622  0.6143 -1.0418  0.3225
   17CHTO  H152 6934   5.940   7.007   3.637  0.4728 -2.3368  0.9523
   17CHTO   O55 6935   5.776   7.095   3.721 -0.2410 -0.2554 -0.7059
   17CHTO  H134 6936   5.824   7.093   3.801 -2.9226 -3.1544  0.9467
   17CHTO   C84 6937   5.759   6.867   3.609  0.0878  0.1525  0.4955
   17CHTO  H156 6938   5.653   6.884   3.588  0.4569  0.7413 -0.9694
   17CHTO   N15 6939   5.771   6.796   3.734  0.4688  0.1573  0.5299
   17CHTO  H143 6940   5.677   6.760   3.769 -0.4265  2.3048  0.4475
   17CHTO  H144 6941   5.814   6.860   3.809  0.3640 -3.1077  3.4662
   17CHTO   C87 6942   5.821   6.800   3.485  0.5247 -0.2939 -0.7796
   17CHTO  H159 6943   5.921   6.764   3.508  0.3315 -0.0640  0.4129
   17CHTO   O53 6944   5.806   6.888   3.354 -0.0453 -0.7577  0.1473
   17CHTO   C82 6945   5.866   7.020   3.361  0.3707 -0.4123 -0.1242
   17CHTO  H154 6946   5.974   7.005   3.364  0.3712 -0.4619 -0.3723
   17CHTO   C89 6947   5.830   7.095   3.229  0.0476 -0.6882  0.7315
   17CHTO   O59 6948   5.901   7.046   3.115 -0.2392  0.1200  0.0631
   17CHTO  H137 6949   5.986   7.087   3.119  0.2820 -0.9829  0.7169
   17CHTO   O45 6950   5.747   6.648   3.451  0.5971 -0.7415 -0.0549
   17CHTO   C67 6951   5.604   6.630   3.461 -1.6491  0.1872 -0.1087
   17CHTO  H124 6952   5.580   6.663   3.562 -0.7451 -1.0783  0.5440
   17CHTO   C65 6953   5.518   6.716   3.364  0.2512 -0.5347  0.0263
   17CHTO  H122 6954   5.586   6.762   3.292 -1.3203  0.4574 -0.8537
   17CHTO   O44 6955   5.447   6.815   3.434 -0.0205  0.1114  0.4519
   17CHTO  H102 6956   5.509   6.863   3.487  0.6256  0.0739 -0.2660
   17CHTO   C63 6957   5.426   6.634   3.274  0.0591  0.1220 -0.2881
   17CHTO  H120 6958   5.486   6.579   3.201  1.8344  0.3162  0.9950
   17CHTO   N11 6959   5.348   6.717   3.172  0.1579 -0.6459  0.1889
   17CHTO  H108 6960   5.364   6.823   3.169  1.2271 -0.8303 -0.9433
   17CHTO  H109 6961   5.242   6.709   3.180 -0.3148  3.3649 -0.6502
   17CHTO   C61 6962   5.346   6.527   3.351  0.5756 -0.2602 -0.0162
   17CHTO  H118 6963   5.313   6.457   3.272  1.1760 -0.3570 -0.1854
   17CHTO   O40 6964   5.424   6.448   3.448  0.7086  0.4845  0.1634
   17CHTO   C68 6965   5.567   6.474   3.450 -0.9369  0.0762  0.0164
   17CHTO  H125 6966   5.607   6.430   3.356  2.0314  0.8423  0.8572
   17CHTO   C72 6967   5.639   6.399   3.565 -0.0942  0.3173 -0.5328
   17CHTO   O48 6968   5.785   6.409   3.561  0.3738  0.1552 -0.2273
   17CHTO  H105 6969   5.833   6.329   3.553  0.5968  0.2862 -0.2078
   17CHTO   O38 6970   5.229   6.584   3.416 -0.2795 -0.3598  0.0850
   17CHTO   C55 6971   5.145   6.501   3.496 -0.2831  0.1697  0.1424
   17CHTO  H112 6972   5.205   6.467   3.581 -1.3793 -1.7609  0.1789
   17CHTO   C56 6973   5.082   6.375   3.419  0.2857 -0.1599 -0.5685
   17CHTO  H113 6974   5.044   6.413   3.323 -1.7432  2.6974  1.2947
   17CHTO   O42 6975   5.181   6.284   3.374  0.3562  0.0342 -0.0245
   17CHTO  H100 6976   5.240   6.318   3.309  2.6582 -2.0661  0.8945
   17CHTO   C57 6977   4.969   6.296   3.499 -0.0285  0.3599 -0.1143
   17CHTO  H114 6978   5.010   6.233   3.577 -0.1777  1.5421  0.9365
   17CHTO   N10 6979   4.896   6.191   3.428 -0.6119  0.5592  0.9035
   17CHTO  H106 6980   4.799   6.179   3.473 -0.7834  1.8694  0.8878
   17CHTO  H107 6981   4.944   6.094   3.418  3.2179  2.3522  1.0338
   17CHTO   C58 6982   4.875   6.398   3.560 -1.1261 -0.1750  0.0485
   17CHTO  H115 6983   4.811   6.433   3.476 -1.1270  0.1377  0.1790
   17CHTO   O37 6984   4.951   6.499   3.636 -0.1834  0.5202  0.7007
   17CHTO   C59 6985   5.028   6.589   3.555  1.0416  0.4075 -0.0938
   17CHTO  H116 6986   4.974   6.637   3.473  0.3444  0.0677  0.1625
   17CHTO   C70 6987   5.076   6.699   3.650 -0.4272 -0.2449 -0.4464
   17CHTO   O46 6988   5.124   6.816   3.589  0.8620  0.3160 -0.3191
   17CHTO  H103 6989   5.213   6.825   3.616  0.9567  0.6742 -0.7441
   17CHTO   O39 6990   4.785   6.320   3.667 -0.3846  0.0105 -0.2196
   17CHTO   C60 6991   4.668   6.396   3.701  0.1762 -0.1229 -0.3503
   17CHTO  H117 6992   4.698   6.500   3.695 -0.4584  0.1416  0.9365
   17CHTO   C62 6993   4.549   6.363   3.613  0.0211 -0.2390  0.6822
   17CHTO  H119 6994   4.589   6.391   3.513  1.9374 -0.0983  1.4763
   17CHTO   O43 6995   4.515   6.223   3.619 -0.1164  0.0361 -0.1018
   17CHTO  H101 6996   4.474   6.200   3.538  0.9701  0.8308 -0.8962
   17CHTO   C66 6997   4.429   6.458   3.658  0.3963 -0.2688 -0.1994
   17CHTO  H123 6998   4.460   6.562   3.642 -0.1760  0.0524  0.7504
   17CHTO   N12 6999   4.321   6.430   3.560 -0.0359 -0.1992 -0.3787
   17CHTO  H110 7000   4.287   6.328   3.544  1.2347 -0.9448  1.4833
   17CHTO  H111 7001   4.233   6.493   3.568 -2.5259 -3.1037 -3.1785
   17CHTO   C69 7002   4.384   6.435   3.804  0.3744  0.3154  0.2722
   17CHTO  H126 7003   4.337   6.339   3.831 -0.8863  1.1762  1.2078
   17CHTO   O41 7004   4.529   6.455   3.898 -0.6040 -0.2432 -0.1376
   17CHTO   C64 7005   4.639   6.377   3.857 -0.0062  0.8940 -0.4985
   17CHTO  H121 7006   4.599   6.276   3.880  2.6333  0.5677  3.0759
   17CHTO   C71 7007   4.761   6.408   3.954 -0.3897  0.8241 -0.4568
   17CHTO   O47 7008   4.753   6.360   4.086 -0.3903 -0.2468 -0.2857
   17CHTO  H104 7009   4.765   6.267   4.083  2.3665  0.0477  0.0118
   17CHTO   O34 7010   4.276   6.536   3.844 -0.7161  0.2505 -0.4946
   17CHTO   C49 7011   4.193   6.653   3.858  0.3004  0.6189 -0.0883
   17CHTO   H91 7012   4.262   6.737   3.868  0.1649  0.6097  0.9872
   17CHTO   C47 7013   4.111   6.633   3.987 -0.1746  0.3231 -0.2251
   17CHTO   H89 7014   4.033   6.711   3.990  0.6362  1.2307 -2.0540
   17CHTO   O33 7015   4.197   6.651   4.098  0.2218 -0.0931  0.2966
   17CHTO   H70 7016   4.158   6.708   4.161 -2.3197 -3.2913  1.8179
   17CHTO   C45 7017   4.040   6.485   3.973 -0.0415  0.3444  0.5837
   17CHTO   H87 7018   4.113   6.408   4.001  1.1657  0.8216 -1.1768
   17CHTO    N8 7019   3.930   6.480   4.081  0.7435  0.1154  0.0820
   17CHTO   H75 7020   3.885   6.383   4.093 -2.0769  1.2795 -0.5955
   17CHTO   H76 7021   3.963   6.517   4.177 -1.6257  0.5218  0.7670
   17CHTO   C43 7022   3.994   6.456   3.821  0.1564  0.0152  0.0803
   17CHTO   H85 7023   4.081   6.403   3.782  1.2291  1.1559  0.8771
   17CHTO   O29 7024   3.972   6.583   3.751  0.4884  0.8193 -0.3671
   17CHTO   C50 7025   4.091   6.669   3.746 -0.4317 -0.0605 -0.9587
   17CHTO   H92 7026   4.148   6.672   3.652 -0.2996 -0.1053 -0.8791
   17CHTO   C54 7027   4.051   6.818   3.740 -0.1501 -0.8397 -0.0019
   17CHTO   O36 7028   3.961   6.842   3.633  0.0308 -0.5088 -0.1745
   17CHTO   H72 7029   3.901   6.770   3.631  0.3135 -0.7792  0.8328
   17CHTO   O27 7030   3.891   6.358   3.796 -0.5194 -0.2212 -0.6330
   17CHTO   C37 7031   3.851   6.231   3.749 -0.0820  0.2479 -0.0656
   17CHTO   H79 7032   3.762   6.202   3.808 -0.1839  1.9563  0.6459
   17CHTO   C38 7033   3.807   6.237   3.602  0.3363 -0.2215 -0.7577
   17CHTO   H80 7034   3.885   6.290   3.545  0.9249  1.3231  1.4309
   17CHTO   O31 7035   3.691   6.315   3.601  0.1113 -0.4609  0.4191
   17CHTO   H68 7036   3.678   6.337   3.511 -1.4679  1.3742  1.0735
   17CHTO   C39 7037   3.773   6.091   3.543 -0.1485  0.0872 -0.0396
   17CHTO   H81 7038   3.680   6.061   3.593 -0.5715  0.3388 -0.6657
   17CHTO    N7 7039   3.732   6.092   3.396  0.3029 -0.0577 -0.0525
   17CHTO   H73 7040   3.657   6.019   3.371  1.3540 -1.3832  0.6374
   17CHTO   H74 7041   3.816   6.080   3.329  0.9170 -2.0296  1.0320
   17CHTO   C40 7042   3.890   5.998   3.577  0.9454 -0.0387  0.4318
   17CHTO   H82 7043   3.981   6.030   3.527  0.0486  1.6686 -0.1455
   17CHTO   O26 7044   3.905   6.001   3.715  0.2852  0.4541 -0.9253
   17CHTO   C41 7045   3.956   6.127   3.773 -0.3952  0.8201  0.4227
   17CHTO   H83 7046   4.043   6.155   3.713 -0.9168  0.2223 -0.6324
   17CHTO   C52 7047   3.982   6.112   3.924 -0.1991 -0.4209 -0.1365
   17CHTO   O35 7048   4.079   5.997   3.931 -0.0697 -0.0594 -0.1679
   17CHTO   H71 7049   4.164   6.038   3.924  0.3031 -0.4864  1.7056
   17CHTO   O28 7050   3.862   5.859   3.556  0.1877 -0.4710  0.3249
   17CHTO   C42 7051   3.974   5.768   3.557 -0.0194 -0.7993  0.5035
   17CHTO   H84 7052   3.929   5.668   3.552  2.5321 -1.9539  0.0601
   17CHTO   C44 7053   4.067   5.772   3.687  0.7412  0.1476  0.2790
   17CHTO   H86 7054   4.113   5.871   3.691 -0.5743  0.7932 -0.4970
   17CHTO   O32 7055   3.990   5.748   3.806 -0.0064  0.3222  0.5563
   17CHTO   H69 7056   4.033   5.698   3.873  2.2698 -1.2995 -1.9964
   17CHTO   C48 7057   4.189   5.670   3.663 -0.8720  0.0161  0.1506
   17CHTO   H90 7058   4.156   5.566   3.659  2.0827 -1.0384  1.8515
   17CHTO    N9 7059   4.282   5.673   3.777 -0.0756 -0.2538 -0.0478
   17CHTO   H77 7060   4.374   5.628   3.745  0.4691  0.5640  0.3360
   17CHTO   H78 7061   4.285   5.777   3.808 -0.6484 -0.1553 -0.3271
   17CHTO   C51 7062   4.252   5.711   3.526 -0.6758 -0.1815 -0.0264
   17CHTO   H93 7063   4.283   5.815   3.534 -0.1024 -0.1939 -1.9373
   17CHTO   O30 7064   4.159   5.692   3.424 -0.3921  0.4329 -0.1940
   17CHTO   C46 7065   4.057   5.781   3.420  0.5776 -0.0100 -0.6551
   17CHTO   H88 7066   4.094   5.884   3.417 -1.4011  0.7966  1.3072
   17CHTO   C53 7067   3.966   5.752   3.297  0.4015  0.3570 -0.8845
   17CHTO   O72 7068   4.020   5.781   3.165  0.1271  0.3112 -0.0509
   17CHTO  H199 7069   4.061   5.704   3.130 -1.2895  0.1952 -1.4880
   17CHTO   O22 7070   4.363   5.637   3.494  0.3178 -0.2872 -0.0824
   17CHTO   C31 7071   4.452   5.663   3.378 -0.4490  0.1662  0.0245
   17CHTO   H59 7072   4.544   5.608   3.406 -0.6556  0.8171  2.0959
   17CHTO   C29 7073   4.400   5.601   3.243 -0.4060  0.1992 -0.5791
   17CHTO   H57 7074   4.290   5.607   3.245 -0.3926  0.3514 -0.2649
   17CHTO   O21 7075   4.419   5.461   3.250 -0.1677 -0.5801 -0.1205
   17CHTO   H37 7076   4.501   5.440   3.208  1.8505  3.0683  1.7766
   17CHTO   C27 7077   4.450   5.652   3.096 -0.4642  0.4733 -0.0928
   17CHTO   H55 7078   4.549   5.610   3.074 -1.1996 -0.7779 -1.0535
   17CHTO    N5 7079   4.353   5.623   2.986 -0.3556  0.3627 -0.4667
   17CHTO   H43 7080   4.338   5.517   2.974 -0.0672  0.2196  0.3605
   17CHTO   H44 7081   4.402   5.661   2.898  0.6670  0.4617  0.1310
   17CHTO   C25 7082   4.495   5.800   3.114 -0.6221 -0.1017 -0.1197
   17CHTO   H53 7083   4.404   5.860   3.124 -0.5072  0.0217  0.1849
   17CHTO   O17 7084   4.576   5.819   3.234  0.1072 -0.0129  0.1196
   17CHTO   C32 7085   4.496   5.810   3.347  0.3098 -0.1249  0.1988
   17CHTO   H60 7086   4.405   5.871   3.339 -0.0016 -0.6714 -0.4403
   17CHTO   C36 7087   4.564   5.868   3.469 -0.1116  0.1983 -0.3334
   17CHTO   O25 7088   4.615   6.000   3.444 -0.2784  1.0833  0.8836
   17CHTO   H40 7089   4.679   6.021   3.509 -1.3539 -0.2489  2.4317
   17CHTO   O15 7090   4.566   5.866   2.981 -0.0506  0.2467 -0.2143
   17CHTO   C19 7091   4.593   6.010   2.983 -0.2731  0.3971  0.2379
   17CHTO   H47 7092   4.627   6.030   2.880 -1.5108 -2.4947 -0.8092
   17CHTO   C20 7093   4.465   6.097   2.991  0.0141 -0.5166  0.2754
   17CHTO   H48 7094   4.414   6.088   3.088 -0.8856  0.3341 -0.1060
   17CHTO   O19 7095   4.368   6.052   2.888  0.4778 -0.1074 -0.7743
   17CHTO   H35 7096   4.305   6.002   2.936 -1.4708  1.7696 -1.2905
   17CHTO   C21 7097   4.500   6.251   2.978  0.5452  0.2786  0.2328
   17CHTO   H49 7098   4.539   6.267   2.878  1.8368  0.0167  0.6784
   17CHTO    N4 7099   4.382   6.345   2.995  0.0367  0.4010  0.1020
   17CHTO   H41 7100   4.395   6.402   3.086  0.6965  2.7389 -1.4157
   17CHTO   H42 7101   4.368   6.415   2.913 -2.2846  0.2916  0.3719
   17CHTO   C22 7102   4.617   6.277   3.073 -0.0274 -0.5196  0.4712
   17CHTO   H50 7103   4.580   6.262   3.175  0.0272 -2.0647  0.2681
   17CHTO   O14 7104   4.733   6.201   3.053 -0.5151  0.2042  0.8097
   17CHTO   C23 7105   4.701   6.063   3.087  0.3307  0.1107 -0.3658
   17CHTO   H51 7106   4.666   6.057   3.191  2.6472  2.8451  0.6405
   17CHTO   C34 7107   4.837   5.992   3.074  0.5784  0.0911 -0.7403
   17CHTO   O23 7108   4.835   5.847   3.085  0.3117 -0.1190  0.1359
   17CHTO   H38 7109   4.797   5.818   3.004 -0.9861  0.1787  0.6192
   17CHTO   O16 7110   4.666   6.413   3.044  0.3047  0.0045  0.3124
   17CHTO   C24 7111   4.747   6.500   3.160 -0.3499 -0.2979  0.1747
   17CHTO   H52 7112   4.794   6.433   3.232  0.0492 -0.0402  0.1580
   17CHTO   C26 7113   4.656   6.605   3.227 -0.3847  0.0125 -0.1143
   17CHTO   H54 7114   4.602   6.646   3.139  1.3602  0.4116 -1.0277
   17CHTO   O20 7115   4.566   6.525   3.306  0.2670  0.2372  0.1234
   17CHTO   H36 7116   4.514   6.473   3.248  0.6531 -1.7983  1.5740
   17CHTO   C30 7117   4.727   6.720   3.302 -0.0499 -0.2181  0.4531
   17CHTO   H58 7118   4.767   6.684   3.398  0.7151  1.3296  0.7370
   17CHTO    N6 7119   4.633   6.834   3.346  0.1247  0.1096  0.1917
   17CHTO   H45 7120   4.530   6.803   3.337 -0.5033  1.8976  0.8744
   17CHTO   H46 7121   4.657   6.916   3.280  0.7799 -1.0450 -1.0202
   17CHTO   C33 7122   4.846   6.778   3.216  0.9628  0.2877 -0.0845
   17CHTO   H61 7123   4.805   6.822   3.124  0.8807  0.9512  0.2593
   17CHTO   O18 7124   4.930   6.670   3.173 -0.1294  0.3941  0.0065
   17CHTO   C28 7125   4.861   6.576   3.086 -0.7104 -1.0854 -0.4769
   17CHTO   H56 7126   4.819   6.625   2.998 -0.3534 -2.3212 -1.3546
   17CHTO   C35 7127   4.969   6.476   3.028 -0.1813  0.2327  0.6282
   17CHTO   O24 7128   5.071   6.524   2.942  0.3421  0.0002 -0.0031
   17CHTO   H39 7129   5.130   6.452   2.928  1.3955  0.6460  0.9801
   17CHTO    O9 7130   4.922   6.884   3.278 -0.4935 -0.1118  0.0244
   17CHTO   C13 7131   5.015   6.979   3.184 -0.6321  0.3074  0.1516
   17CHTO   H26 7132   5.062   6.920   3.102 -1.9034 -0.5836  0.0529
   17CHTO   C11 7133   5.129   7.046   3.274  0.0520  0.0482 -0.0082
   17CHTO   H24 7134   5.208   6.974   3.303  1.2451  1.3611  0.0896
   17CHTO    O8 7135   5.079   7.117   3.389 -0.6332  0.3622 -0.2657
   17CHTO    H3 7136   5.019   7.184   3.361  0.3441  2.0467  1.5568
   17CHTO    C9 7137   5.207   7.142   3.181  0.3690 -0.4014 -0.1751
   17CHTO   H22 7138   5.239   7.082   3.095  0.3773 -0.7373  0.0605
   17CHTO    N2 7139   5.335   7.193   3.237 -0.1915  0.3438 -0.5150
   17CHTO   H10 7140   5.305   7.260   3.316  1.0348 -0.0779  0.3209
   17CHTO   H11 7141   5.380   7.247   3.155  2.5465 -1.9169 -0.5675
   17CHTO    C7 7142   5.109   7.262   3.129  0.6978 -0.0144  0.3599
   17CHTO   H20 7143   5.175   7.318   3.060  0.9657 -0.6898  0.0702
   17CHTO    O4 7144   4.996   7.209   3.058 -0.3667 -0.5930  1.0221
   17CHTO   C14 7145   4.931   7.095   3.112  0.2240 -0.6014  0.4375
   17CHTO   H27 7146   4.889   7.050   3.020 -1.0335  0.6582  0.3786
   17CHTO   C18 7147   4.809   7.146   3.194  0.4237  0.8175  0.1393
   17CHTO   O13 7148   4.696   7.159   3.109 -0.0239  0.2333  0.4735
   17CHTO    H7 7149   4.614   7.140   3.152  0.7056 -0.8526  1.3981
   17CHTO    O2 7150   5.046   7.361   3.264  0.1549  0.6366 -0.3704
   17CHTO    C1 7151   4.990   7.485   3.231  0.0005  0.1560  0.1991
   17CHTO   H14 7152   4.911   7.469   3.155 -1.4823  2.4319  1.1900
   17CHTO    C2 7153   5.081   7.594   3.164  0.7343  0.1624 -0.6937
   17CHTO   H15 7154   5.169   7.579   3.229 -0.6581 -0.5802  1.0686
   17CHTO    O6 7155   5.102   7.569   3.022  0.4213  0.0465  0.6651
   17CHTO    H1 7156   5.037   7.620   2.977 -1.4941  0.4661  3.7796
   17CHTO    C3 7157   5.031   7.747   3.181 -0.0343  0.2903 -0.0533
   17CHTO   H16 7158   4.953   7.770   3.106 -1.0094 -0.0930  0.8232
   17CHTO    N1 7159   5.135   7.856   3.156 -0.1857  0.0877 -0.2801
   17CHTO    H8 7160   5.190   7.822   3.070 -0.6749 -0.6677 -0.2940
   17CHTO    H9 7161   5.086   7.951   3.139  1.3423  0.6053 -1.9879
   17CHTO    C4 7162   4.967   7.769   3.327  0.6966 -0.4367 -0.3912
   17CHTO   H17 7163   5.044   7.766   3.404 -1.8786 -1.6484  2.2377
   17CHTO    O1 7164   4.869   7.666   3.348 -0.2183  0.6459  0.0179
   17CHTO    C5 7165   4.918   7.535   3.362 -1.0681  0.0120  0.8429
   17CHTO   H18 7166   4.989   7.523   3.445  0.1341 -1.2219 -0.3461
   17CHTO   C16 7167   4.791   7.448   3.392  0.2155 -0.1509  0.4084
   17CHTO   O11 7168   4.747   7.475   3.526 -0.0143  0.6354 -0.1660
   17CHTO    H5 7169   4.668   7.427   3.541  0.9087 -0.2758  1.9146
   17CHTO    O3 7170   4.883   7.885   3.326 -0.3744  0.5636  0.2107
   17CHTO    C6 7171   4.868   7.971   3.449  0.0011 -0.9575  0.0662
   17CHTO   H19 7172   4.771   8.021   3.445  0.7713  0.4737 -1.7446
   17CHTO    C8 7173   4.850   7.897   3.576  0.1335  0.0267 -0.2526
   17CHTO   H21 7174   4.932   7.826   3.584  0.8778  0.8334 -0.7557
   17CHTO    O7 7175   4.725   7.813   3.576 -0.0569  0.0424  0.5058
   17CHTO    H2 7176   4.728   7.738   3.519  0.9564 -0.1180  0.7552
   17CHTO   C12 7177   4.855   7.999   3.698 -1.3033 -0.5823 -0.3576
   17CHTO   H25 7178   4.761   8.056   3.691 -1.1670 -0.3360 -0.1873
   17CHTO    N3 7179   4.855   7.913   3.828 -0.2634 -0.4439 -0.3383
   17CHTO   H12 7180   4.825   7.984   3.903 -2.5033 -1.9197  0.2194
   17CHTO   H13 7181   4.783   7.834   3.815 -1.4829  1.1477 -3.7914
   17CHTO   C15 7182   4.969   8.106   3.690  0.3018  0.8983  0.2503
   17CHTO   H28 7183   5.064   8.055   3.703 -0.2092 -0.3441 -0.7865
   17CHTO   O10 7184   4.952   8.230   3.776 -0.3233  0.7234 -0.2215
   17CHTO    H4 7185   4.921   8.210   3.862  0.8056  1.2894  0.3173
   17CHTO    O5 7186   4.955   8.171   3.566 -0.4332  0.9087 -0.0608
   17CHTO   C10 7187   4.971   8.084   3.458 -0.6774  0.8521 -0.4331
   17CHTO   H23 7188   5.070   8.039   3.465 -0.6980  0.9632  0.5420
   17CHTO   C17 7189   4.960   8.162   3.325  0.5362 -0.5074  0.2038
   17CHTO   O12 7190   5.075   8.232   3.279 -0.5611 -0.4765  0.2929
   17CHTO    H6 7191   5.061   8.267   3.194 -2.8950  0.5702  1.0692
   18CHTO  H203 7192   6.232   7.852   1.545  1.9503 -0.3381  0.5395
   18CHTO   O82 7193   6.257   7.938   1.517  0.3703 -0.2120 -0.5547
   18CHTO  C123 7194   6.207   7.958   1.387 -0.0726 -0.1344 -0.8244
   18CHTO  H227 7195   6.101   7.987   1.398  0.2576  0.9685 -0.4929
   18CHTO   O77 7196   6.283   8.066   1.348 -0.8827 -0.0073 -0.0105
   18CHTO  C118 7197   6.245   8.129   1.232  0.5557  0.8872 -0.2515
   18CHTO  H222 7198   6.138   8.155   1.242  0.2708 -0.7389  1.2203
   18CHTO  C125 7199   6.325   8.262   1.221  0.2016 -0.0871  0.2867
   18CHTO   O84 7200   6.277   8.364   1.307  0.1000 -0.0930 -0.4947
   18CHTO  H205 7201   6.349   8.408   1.347  0.0779 -1.1734  0.7509
   18CHTO  C114 7202   6.260   8.030   1.117 -0.2252  0.0662  0.5294
   18CHTO  H218 7203   6.362   7.991   1.125 -0.5734 -1.2048 -0.9520
   18CHTO  C116 7204   6.181   7.893   1.137  0.0577 -0.0343  0.1351
   18CHTO  H220 7205   6.071   7.909   1.140  0.0940  0.8156 -2.0499
   18CHTO   O79 7206   6.200   7.794   1.030  0.1021 -0.2496 -0.1566
   18CHTO  H201 7207   6.142   7.799   0.956 -0.4365 -1.4601  0.1634
   18CHTO  C120 7208   6.222   7.841   1.280  0.6165 -0.6144 -0.3462
   18CHTO  H224 7209   6.331   7.821   1.278  0.5840 -0.8700  0.2933
   18CHTO   N21 7210   6.145   7.728   1.332 -0.1428  0.2620 -0.1964
   18CHTO  H211 7211   6.192   7.676   1.414 -0.6138 -1.2821 -0.8793
   18CHTO  H212 7212   6.114   7.653   1.260  0.3184  1.4386 -1.6570
   18CHTO   O75 7213   6.234   8.103   1.000  0.2667  0.3377  0.1691
   18CHTO  C112 7214   6.368   8.093   0.903  0.1026  0.3270  0.8194
   18CHTO  H216 7215   6.427   8.008   0.939 -1.6358 -1.8139 -1.2067
   18CHTO   O73 7216   6.440   8.221   0.913 -0.0773 -0.3856  0.5812
   18CHTO  C113 7217   6.561   8.217   0.836 -0.4654  0.6867 -0.4900
   18CHTO  H217 7218   6.625   8.133   0.870  0.5770  0.9224 -1.8398
   18CHTO  C124 7219   6.646   8.341   0.863 -0.4016 -0.6193 -0.8395
   18CHTO   O83 7220   6.658   8.366   1.006  0.9172  0.4354 -0.3976
   18CHTO  H204 7221   6.708   8.298   1.047 -0.3835  1.2327  2.6274
   18CHTO  C109 7222   6.541   8.200   0.682  0.0543 -0.5130 -1.3993
   18CHTO  H213 7223   6.483   8.285   0.644 -1.4436 -2.0518 -2.6636
   18CHTO  C110 7224   6.452   8.067   0.661  0.1040 -0.0621 -0.5778
   18CHTO  H214 7225   6.506   7.976   0.686  0.4126 -0.4755 -2.6716
   18CHTO   O78 7226   6.421   8.046   0.526  0.0163 -0.2701  0.0788
   18CHTO  H200 7227   6.418   7.955   0.504 -0.4594 -0.5324  1.2351
   18CHTO  C111 7228   6.327   8.070   0.754 -0.6835  0.1359 -0.4400
   18CHTO  H215 7229   6.257   8.151   0.729 -0.5329  0.1266 -0.8926
   18CHTO   N19 7230   6.249   7.942   0.750 -0.6290 -0.1380 -0.1995
   18CHTO  H207 7231   6.196   7.930   0.843  3.5913 -1.3214  2.1425
   18CHTO  H208 7232   6.189   7.948   0.660 -0.4814  0.0056 -0.2867
   18CHTO   O74 7233   6.671   8.185   0.620  0.1234 -0.1153  0.0605
   18CHTO  C115 7234   6.683   8.269   0.474  0.4306  0.5950  1.0434
   18CHTO  H219 7235   6.588   8.279   0.422  0.5094 -0.7763  0.6104
   18CHTO   O76 7236   6.722   8.421   0.503  0.0252 -0.5914 -0.3326
   18CHTO  C122 7237   6.761   8.499   0.386 -0.0300 -0.0491  0.0183
   18CHTO  H226 7238   6.820   8.585   0.416 -2.5183  1.0670  1.8810
   18CHTO  C126 7239   6.635   8.561   0.315 -0.0344  0.2249 -0.3568
   18CHTO   O85 7240   6.557   8.644   0.401 -0.0038 -0.0273 -0.3791
   18CHTO  H206 7241   6.615   8.699   0.449 -0.8642  0.2144  0.3865
   18CHTO  C121 7242   6.851   8.428   0.272 -0.6654  0.5157 -0.0116
   18CHTO  H225 7243   6.860   8.487   0.179  3.1077 -0.4064 -0.3402
   18CHTO   O81 7244   6.986   8.417   0.321 -0.0635  0.1625  0.3628
   18CHTO  H202 7245   7.041   8.352   0.280  1.1379  1.5435 -0.2437
   18CHTO  C119 7246   6.802   8.280   0.238 -0.0084  0.3257  0.5674
   18CHTO  H223 7247   6.703   8.284   0.194  0.5025  2.7209 -0.4291
   18CHTO  C117 7248   6.788   8.199   0.375  0.8123 -0.5111  0.3250
   18CHTO  H221 7249   6.876   8.191   0.439  0.3097 -0.6872  0.9989
   18CHTO   N20 7250   6.736   8.059   0.348 -0.3642 -0.5152 -0.6410
   18CHTO  H209 7251   6.638   8.056   0.303 -1.8469 -0.3679  2.4408
   18CHTO  H210 7252   6.773   7.973   0.402 -0.9395 -1.0443 -1.0850
   18CHTO   O80 7253   6.895   8.211   0.117 -0.5845  0.4281  0.2698
   18CHTO  C103 7254   6.821   8.147  -0.023 -1.2698 -0.5789 -0.0560
   18CHTO  H190 7255   6.896   8.140  -0.102  0.6327  2.9874  1.3625
   18CHTO  C101 7256   6.743   8.019  -0.001 -0.2883 -0.8019  0.1701
   18CHTO  H188 7257   6.671   8.036   0.080 -0.0402 -0.9554  0.4235
   18CHTO   O68 7258   6.846   7.908   0.054 -0.0690  0.2898  0.4070
   18CHTO  H168 7259   6.818   7.821   0.031 -2.0298  1.0656 -0.2585
   18CHTO   C99 7260   6.653   7.975  -0.124 -0.4554  0.5461 -0.3328
   18CHTO  H186 7261   6.716   7.951  -0.211 -0.8226 -2.3977  0.1546
   18CHTO   N17 7262   6.577   7.846  -0.091 -0.2353  0.1488  0.1079
   18CHTO  H174 7263   6.470   7.858  -0.095 -0.2560 -0.0414  0.0931
   18CHTO  H175 7264   6.611   7.760  -0.147  0.3743 -0.8141  1.9182
   18CHTO   C97 7265   6.563   8.096  -0.156 -0.4188 -0.2516  0.6134
   18CHTO  H184 7266   6.508   8.116  -0.063 -1.2631  0.3058 -0.0028
   18CHTO   O64 7267   6.645   8.207  -0.198 -0.2247 -0.5831  0.2785
   18CHTO  C104 7268   6.718   8.255  -0.078 -0.5751 -0.4048 -0.5211
   18CHTO  H191 7269   6.646   8.281   0.000 -0.5590 -2.7426  0.2902
   18CHTO  C108 7270   6.794   8.383  -0.103 -0.0129 -0.3750  0.6046
   18CHTO   O71 7271   6.892   8.375  -0.203 -0.0213 -0.5854  0.5324
   18CHTO  H171 7272   6.862   8.348  -0.288  1.6754 -0.9678  0.0197
   18CHTO   O62 7273   6.477   8.071  -0.267 -0.8040  0.0939 -0.1875
   18CHTO   C91 7274   6.338   8.078  -0.245  0.6390  0.0080 -0.1950
   18CHTO  H178 7275   6.327   8.059  -0.138 -1.8946 -1.1407 -0.6294
   18CHTO   C92 7276   6.264   7.964  -0.326  0.8916  0.4609  0.5635
   18CHTO  H179 7277   6.302   7.966  -0.429 -1.3707 -2.0768 -0.3655
   18CHTO   O66 7278   6.321   7.847  -0.263  0.6854 -0.2739  0.4455
   18CHTO  H166 7279   6.298   7.834  -0.173  1.5374  0.6426  0.8058
   18CHTO   C93 7280   6.106   7.966  -0.317 -0.3365 -0.5614  0.6657
   18CHTO  H180 7281   6.075   7.954  -0.213 -0.6419 -0.1691  0.6196
   18CHTO   N16 7282   6.048   7.857  -0.402 -0.7778 -0.5165 -0.9988
   18CHTO  H172 7283   6.057   7.879  -0.507  1.1124  2.1298 -0.3161
   18CHTO  H173 7284   5.943   7.843  -0.379 -0.7793  0.1312 -0.6239
   18CHTO   C94 7285   6.060   8.112  -0.364  0.5206 -0.7605 -0.3614
   18CHTO  H181 7286   6.079   8.132  -0.470  1.8909 -0.5587 -0.0892
   18CHTO   O61 7287   6.132   8.212  -0.292 -0.0822 -0.0422  0.0560
   18CHTO   C95 7288   6.273   8.216  -0.289 -0.5144  0.1750  0.5097
   18CHTO  H182 7289   6.310   8.241  -0.388  0.6468  2.6100  1.5145
   18CHTO  C106 7290   6.324   8.333  -0.197  0.3659  0.1190 -0.1903
   18CHTO   O69 7291   6.263   8.324  -0.071 -0.4189  0.1854 -0.4317
   18CHTO  H169 7292   6.298   8.401  -0.032  1.6749 -0.0419 -1.8295
   18CHTO   O63 7293   5.904   8.140  -0.323 -0.4780 -0.0422 -0.8722
   18CHTO   C96 7294   5.837   8.264  -0.415 -0.8539  0.2294 -0.0783
   18CHTO  H183 7295   5.910   8.292  -0.492 -1.0349 -0.9528 -0.6814
   18CHTO   C98 7296   5.805   8.393  -0.337  0.2140  0.1723  0.5173
   18CHTO  H185 7297   5.742   8.366  -0.251  2.3924  0.8099  2.3517
   18CHTO   O67 7298   5.924   8.451  -0.275  0.4487 -0.2946  0.4358
   18CHTO  H167 7299   5.915   8.441  -0.182 -1.8847  0.5852  0.3356
   18CHTO  C102 7300   5.737   8.505  -0.419 -0.0110 -0.4975  0.1442
   18CHTO  H189 7301   5.814   8.536  -0.491 -2.0028  2.0127 -0.9572
   18CHTO   N18 7302   5.695   8.631  -0.350 -0.1005  0.5514  0.1401
   18CHTO  H176 7303   5.711   8.611  -0.245 -1.0108 -3.1311 -0.3295
   18CHTO  H177 7304   5.737   8.723  -0.387 -0.2412  0.6941  0.3338
   18CHTO  C105 7305   5.628   8.437  -0.516 -0.2119  0.1598  0.6573
   18CHTO  H192 7306   5.536   8.409  -0.465  0.3307 -0.5427  1.2647
   18CHTO   O65 7307   5.683   8.323  -0.585  0.3461 -0.2283 -0.0900
   18CHTO  C100 7308   5.713   8.210  -0.494 -0.0611  0.3988  0.3962
   18CHTO  H187 7309   5.620   8.195  -0.437 -1.3064  1.9515 -1.1565
   18CHTO  C107 7310   5.734   8.090  -0.574  0.7542  0.8090  0.1306
   18CHTO   O70 7311   5.749   7.976  -0.492  0.1539  0.2887 -0.4769
   18CHTO  H170 7312   5.836   7.958  -0.460  0.2141  0.6870 -0.4167
   18CHTO   O57 7313   5.603   8.569  -0.635  0.0547  0.1297 -0.0798
   18CHTO   C85 7314   5.479   8.593  -0.701  0.5981  0.7586  0.0034
   18CHTO  H157 7315   5.509   8.655  -0.788  1.4238  0.0744 -0.1986
   18CHTO   C83 7316   5.380   8.689  -0.621 -0.0321  0.7161 -0.1566
   18CHTO  H155 7317   5.432   8.785  -0.615  2.6832 -0.7666  1.1774
   18CHTO   O56 7318   5.357   8.642  -0.490  0.4421  0.0681 -0.4437
   18CHTO  H135 7319   5.439   8.625  -0.448  2.0663  0.7700 -3.2014
   18CHTO   C81 7320   5.250   8.711  -0.704 -0.1757  0.6037  0.1674
   18CHTO  H153 7321   5.275   8.748  -0.803  0.8640 -0.8860 -0.1595
   18CHTO   N14 7322   5.159   8.814  -0.649 -0.3529 -0.0462 -0.0304
   18CHTO  H141 7323   5.211   8.904  -0.625 -0.1184 -0.8515  2.7103
   18CHTO  H142 7324   5.070   8.834  -0.706 -2.3398 -0.2893  2.8714
   18CHTO   C79 7325   5.187   8.566  -0.716 -0.5795 -1.0323 -0.7466
   18CHTO  H151 7326   5.094   8.582  -0.770 -1.1059  1.7036  0.8518
   18CHTO   O52 7327   5.270   8.480  -0.795 -0.3968 -0.1442  0.0818
   18CHTO   C86 7328   5.410   8.458  -0.755  0.8717  0.3794  0.4469
   18CHTO  H158 7329   5.403   8.371  -0.687 -1.4363 -0.4958 -0.8368
   18CHTO   C90 7330   5.492   8.407  -0.881  0.2510  0.0233 -0.8582
   18CHTO   O60 7331   5.629   8.378  -0.848 -0.2787 -0.1477 -0.4071
   18CHTO  H138 7332   5.624   8.304  -0.790  2.3185  0.8267  1.1530
   18CHTO   O50 7333   5.160   8.504  -0.592 -0.5321 -0.0505 -0.1530
   18CHTO   C73 7334   5.070   8.412  -0.529  0.1739  1.2694  0.6610
   18CHTO  H145 7335   5.045   8.330  -0.597  0.7153  1.6744 -0.0309
   18CHTO   C74 7336   4.927   8.481  -0.505  0.0603  0.6380 -0.1902
   18CHTO  H146 7337   4.903   8.532  -0.599  1.0584  1.6528  0.1000
   18CHTO   O54 7338   4.827   8.379  -0.474  0.4716 -0.5668  0.3100
   18CHTO  H133 7339   4.744   8.420  -0.456  0.9551 -0.2227  1.8243
   18CHTO   C75 7340   4.944   8.584  -0.384  0.1300 -0.4758  0.3549
   18CHTO  H147 7341   5.007   8.668  -0.418 -1.7013  1.8799  2.5710
   18CHTO   N13 7342   4.822   8.661  -0.360 -0.0686  0.3936  0.6425
   18CHTO  H139 7343   4.796   8.649  -0.256 -1.1046  0.1436  0.3635
   18CHTO  H140 7344   4.833   8.763  -0.394  0.7331  0.3092  0.6583
   18CHTO   C76 7345   5.010   8.522  -0.267  0.1491 -0.1419 -0.3045
   18CHTO  H148 7346   4.946   8.450  -0.215  2.0584 -1.4653  0.3203
   18CHTO   O49 7347   5.141   8.464  -0.303  0.1275  0.0056 -0.4674
   18CHTO   C77 7348   5.123   8.355  -0.397  0.5247 -0.1031 -0.0652
   18CHTO  H149 7349   5.045   8.287  -0.360 -0.6862 -0.3043 -2.8669
   18CHTO   C88 7350   5.253   8.280  -0.407 -0.1381  0.8971 -0.5901
   18CHTO   O58 7351   5.249   8.172  -0.487  0.2959  0.4713 -0.0664
   18CHTO  H136 7352   5.312   8.196  -0.553  1.7053 -1.2097  0.6259
   18CHTO   O51 7353   5.053   8.622  -0.169 -0.5780  0.0909  0.0191
   18CHTO   C78 7354   5.088   8.569  -0.028  0.3127 -0.7786 -0.5249
   18CHTO  H150 7355   5.105   8.460  -0.017 -2.3846 -1.2144 -0.3490
   18CHTO   C80 7356   4.965   8.608   0.050 -0.3587  0.5985  0.2250
   18CHTO  H152 7357   4.947   8.715   0.029 -0.2407  0.3035 -1.4416
   18CHTO   O55 7358   4.847   8.531   0.008 -0.6434  0.0010 -0.0184
   18CHTO  H134 7359   4.859   8.438   0.004  0.1544  0.1143 -0.2393
   18CHTO   C84 7360   4.997   8.580   0.204  0.1613  0.1296 -0.0817
   18CHTO  H156 7361   5.004   8.473   0.224  0.4507  0.2486  0.4450
   18CHTO   N15 7362   4.883   8.627   0.287  0.2811  0.2422 -0.0433
   18CHTO  H143 7363   4.913   8.689   0.368  1.0450  2.6643 -2.1084
   18CHTO  H144 7364   4.823   8.689   0.223 -0.6513 -0.6428 -0.0502
   18CHTO   C87 7365   5.131   8.640   0.251 -0.5372  0.4180 -0.3361
   18CHTO  H159 7366   5.121   8.749   0.254 -0.6635  0.3576  2.1205
   18CHTO   O53 7367   5.247   8.593   0.143  0.4195  0.9028 -0.1702
   18CHTO   C82 7368   5.220   8.637   0.010  0.0547 -0.3033  0.5087
   18CHTO  H154 7369   5.214   8.746   0.009 -2.0967 -0.3710  2.2465
   18CHTO   C89 7370   5.343   8.586  -0.075  0.0397 -0.5187 -0.7640
   18CHTO   O59 7371   5.471   8.652  -0.058  0.4475 -0.9649  0.0266
   18CHTO  H137 7372   5.490   8.676   0.031 -2.1849 -0.6973  0.5426
   18CHTO   O45 7373   5.176   8.596   0.385 -0.6664 -0.3973 -0.7095
   18CHTO   C67 7374   5.309   8.641   0.420  0.3850  0.1269  0.2455
   18CHTO  H124 7375   5.370   8.645   0.331  1.1205 -0.2207  0.7302
   18CHTO   C65 7376   5.313   8.786   0.486 -0.1422 -0.0102 -0.0792
   18CHTO  H122 7377   5.229   8.791   0.555  0.9140 -0.5100  1.2706
   18CHTO   O44 7378   5.294   8.870   0.370 -0.0894 -0.3172  0.2038
   18CHTO  H102 7379   5.293   8.962   0.386 -0.5406 -0.2849 -0.0086
   18CHTO   C63 7380   5.442   8.814   0.579  0.2449  0.3171 -0.2462
   18CHTO  H120 7381   5.416   8.779   0.679  0.7338 -1.8203 -0.8363
   18CHTO   N11 7382   5.468   8.959   0.601  0.0272 -0.4571  0.3969
   18CHTO  H108 7383   5.573   8.979   0.607  0.2566 -1.4706 -0.1602
   18CHTO  H109 7384   5.427   9.019   0.522 -0.2349 -0.1327  0.7741
   18CHTO   C61 7385   5.563   8.721   0.544  1.0136  0.2005  0.6144
   18CHTO  H118 7386   5.643   8.732   0.619  1.6768 -2.1650  0.3237
   18CHTO   O40 7387   5.519   8.582   0.552 -0.3448 -0.2635  0.1002
   18CHTO   C68 7388   5.387   8.537   0.508 -0.5070  0.2743 -0.2454
   18CHTO  H125 7389   5.321   8.515   0.594 -1.2562  1.6844 -0.4449
   18CHTO   C72 7390   5.403   8.409   0.432  0.1439  0.6059  0.3817
   18CHTO   O48 7391   5.453   8.307   0.516  0.1974  0.0877  0.0314
   18CHTO  H105 7392   5.432   8.220   0.486 -2.2558  0.3259  0.9682
   18CHTO   O38 7393   5.610   8.752   0.408 -0.8586 -0.0365 -0.1589
   18CHTO   C55 7394   5.750   8.720   0.384 -0.2682 -0.6086 -0.1430
   18CHTO  H112 7395   5.778   8.645   0.459  0.2398  0.2194  0.5167
   18CHTO   C56 7396   5.845   8.848   0.391  0.0102 -0.4414 -0.3687
   18CHTO  H113 7397   5.830   8.915   0.304 -0.4601 -1.7874 -1.3342
   18CHTO   O42 7398   5.811   8.929   0.513  0.4257  0.6101 -0.0724
   18CHTO  H100 7399   5.778   9.015   0.493 -1.5390 -0.2938 -0.9082
   18CHTO   C57 7400   5.996   8.805   0.387 -0.1698  0.2282  0.1015
   18CHTO  H114 7401   6.028   8.757   0.479  0.9776  2.2308  0.8051
   18CHTO   N10 7402   6.090   8.920   0.397  0.1437 -0.3316 -0.2306
   18CHTO  H106 7403   6.088   8.957   0.295  1.2313  2.5132  0.7308
   18CHTO  H107 7404   6.039   8.990   0.461 -0.3203 -2.3650  1.6568
   18CHTO   C58 7405   6.029   8.715   0.262  0.0351 -0.0233  0.3999
   18CHTO  H115 7406   6.057   8.779   0.175 -1.7371 -0.9534 -0.8861
   18CHTO   O37 7407   5.914   8.636   0.217  0.2198 -0.1589 -0.2918
   18CHTO   C59 7408   5.772   8.662   0.242 -0.7876  0.4185  0.0194
   18CHTO  H116 7409   5.743   8.735   0.166  2.3631  0.4889 -1.2021
   18CHTO   C70 7410   5.679   8.545   0.218  0.6709  0.1601 -0.4056
   18CHTO   O46 7411   5.679   8.481   0.092 -0.2244 -0.2722  0.6095
   18CHTO  H103 7412   5.658   8.390   0.095 -1.5316  0.0310  1.0568
   18CHTO   O39 7413   6.149   8.596   0.302  0.0275  0.6396  0.4538
   18CHTO   C60 7414   6.107   8.504   0.409 -0.0311 -0.2439 -0.2735
   18CHTO  H117 7415   6.029   8.550   0.469 -0.0692 -0.2630 -0.3094
   18CHTO   C62 7416   6.036   8.380   0.351 -0.0191  0.1709 -0.9685
   18CHTO  H119 7417   5.961   8.407   0.274 -1.7149 -2.7244 -0.4251
   18CHTO   O43 7418   6.136   8.308   0.272 -0.7762  0.4357 -0.8801
   18CHTO  H101 7419   6.093   8.293   0.191 -0.9233 -1.5804 -0.4446
   18CHTO   C66 7420   5.967   8.291   0.463  0.0122 -0.8326  0.4654
   18CHTO  H123 7421   5.885   8.342   0.514  0.1846  0.1867 -0.2477
   18CHTO   N12 7422   5.896   8.170   0.412 -0.6201 -0.1300  0.0748
   18CHTO  H110 7423   5.940   8.129   0.322 -2.1319 -0.5530 -0.4892
   18CHTO  H111 7424   5.879   8.103   0.495 -0.9982 -0.6505 -0.4196
   18CHTO   C69 7425   6.081   8.249   0.566  0.0719  0.1540 -0.6343
   18CHTO  H126 7426   6.154   8.177   0.525  0.1710 -0.2948  0.3132
   18CHTO   O41 7427   6.170   8.377   0.627  0.3653 -0.6285  0.1246
   18CHTO   C64 7428   6.216   8.465   0.507  0.5282  0.2493 -0.0550
   18CHTO  H121 7429   6.292   8.408   0.450  1.5080  0.0796  1.3961
   18CHTO   C71 7430   6.292   8.591   0.563  0.1827  0.4080  0.9290
   18CHTO   O47 7431   6.392   8.572   0.661 -0.4571  0.8001 -0.0503
   18CHTO  H104 7432   6.355   8.504   0.713 -0.1722 -0.7845 -1.8301
   18CHTO   O34 7433   6.011   8.186   0.688  0.7364  0.1354  0.1134
   18CHTO   C49 7434   5.968   8.225   0.838  0.1580 -0.7185 -0.1551
   18CHTO   H91 7435   6.055   8.237   0.901  1.2175 -0.5471 -1.6304
   18CHTO   C47 7436   5.881   8.115   0.903  0.7191  0.0245  0.2301
   18CHTO   H89 7437   5.869   8.148   1.008 -0.5358 -0.8621  0.3844
   18CHTO   O33 7438   5.966   7.997   0.902  0.4368  0.4860 -0.1443
   18CHTO   H70 7439   5.922   7.915   0.918  1.6624 -0.2253 -0.3869
   18CHTO   C45 7440   5.748   8.101   0.817  0.6185  0.2745  0.1656
   18CHTO   H87 7441   5.781   8.086   0.714 -0.5345 -1.2837 -0.0016
   18CHTO    N8 7442   5.663   7.987   0.857  0.0231 -0.1168  0.5094
   18CHTO   H75 7443   5.679   7.912   0.781  0.1940 -0.7123  1.1294
   18CHTO   H76 7444   5.683   7.940   0.951  2.0642  1.5667  0.9688
   18CHTO   C43 7445   5.674   8.245   0.809  0.0926 -0.0447  0.3386
   18CHTO   H85 7446   5.600   8.233   0.730  1.2305 -0.4356 -0.6956
   18CHTO   O29 7447   5.767   8.348   0.777 -0.9754  0.0230 -0.1360
   18CHTO   C50 7448   5.894   8.354   0.838 -1.0740 -0.2584 -0.2817
   18CHTO   H92 7449   5.958   8.429   0.788  2.5403 -2.8837  0.2563
   18CHTO   C54 7450   5.880   8.414   0.974  0.1578  0.5776 -0.1256
   18CHTO   O36 7451   5.999   8.416   1.054  0.0306  0.3959  0.7697
   18CHTO   H72 7452   6.007   8.326   1.081 -0.7034  0.1510  0.1743
   18CHTO   O27 7453   5.595   8.262   0.932 -0.4756 -0.0057  0.1298
   18CHTO   C37 7454   5.495   8.353   0.984  0.2419 -0.8063  0.5830
   18CHTO   H79 7455   5.452   8.308   1.074 -0.7480 -0.8522  0.0929
   18CHTO   C38 7456   5.555   8.499   1.005  0.8390  0.1885  0.3303
   18CHTO   H80 7457   5.630   8.517   0.927  2.4338 -0.7563  1.6370
   18CHTO   O31 7458   5.630   8.495   1.127  0.2024  0.1151 -0.3075
   18CHTO   H68 7459   5.583   8.447   1.193  0.2588  0.2976 -0.1364
   18CHTO   C39 7460   5.444   8.613   1.007  0.2918  0.6151 -0.2361
   18CHTO   H81 7461   5.386   8.605   1.099  0.2581 -0.8277 -0.3637
   18CHTO    N7 7462   5.509   8.745   0.987 -0.0408  0.1939  0.5110
   18CHTO   H73 7463   5.601   8.755   1.041 -0.0459 -1.4003  0.8317
   18CHTO   H74 7464   5.525   8.771   0.883 -0.8930  0.4737  0.4452
   18CHTO   C40 7465   5.347   8.590   0.885  0.5141 -0.2919 -0.0505
   18CHTO   H82 7466   5.375   8.610   0.782 -0.2300  3.7230  0.4619
   18CHTO   O26 7467   5.283   8.458   0.905  0.0450 -0.0405  0.5274
   18CHTO   C41 7468   5.381   8.354   0.878 -0.4063 -0.6765  0.9207
   18CHTO   H83 7469   5.429   8.370   0.780 -1.1313 -1.0176  0.5110
   18CHTO   C52 7470   5.298   8.221   0.873 -0.9700 -0.1653 -0.1676
   18CHTO   O35 7471   5.372   8.122   0.815  0.2071 -0.1911  0.2326
   18CHTO   H71 7472   5.354   8.124   0.723  0.6599 -1.4170  0.1141
   18CHTO   O28 7473   5.237   8.688   0.892 -0.6955 -0.1431 -0.1666
   18CHTO   C42 7474   5.092   8.682   0.925  0.6292  0.2981 -0.4571
   18CHTO   H84 7475   5.050   8.781   0.911 -3.3219 -1.0561  1.0610
   18CHTO   C44 7476   5.050   8.649   1.071  0.2950  0.6033  0.1714
   18CHTO   H86 7477   5.099   8.555   1.098 -1.3579 -0.4150 -0.2735
   18CHTO   O32 7478   5.106   8.754   1.152 -0.3517 -0.5433  0.3519
   18CHTO   H69 7479   5.055   8.828   1.180 -1.2224 -0.3145 -1.7177
   18CHTO   C48 7480   4.892   8.642   1.095  0.1359 -0.2621  0.1857
   18CHTO   H90 7481   4.852   8.743   1.094 -1.3045 -0.7901  1.8352
   18CHTO    N9 7482   4.858   8.576   1.226  0.5456  0.0156 -0.0041
   18CHTO   H77 7483   4.897   8.477   1.207  0.3874 -0.1436  0.4784
   18CHTO   H78 7484   4.750   8.575   1.239  0.4415 -0.4666 -0.8505
   18CHTO   C51 7485   4.821   8.570   0.978  0.2486 -0.6958  0.4986
   18CHTO   H93 7486   4.841   8.464   0.994 -0.5600 -0.6695  1.8019
   18CHTO   O30 7487   4.875   8.617   0.850 -0.3850 -0.3804  0.2855
   18CHTO   C46 7488   5.017   8.585   0.826  0.0561  0.9771 -0.0704
   18CHTO   H88 7489   5.051   8.483   0.843 -0.7296  0.8169  0.5813
   18CHTO   C53 7490   5.031   8.628   0.677  0.6385  0.2346 -0.1084
   18CHTO   O72 7491   4.968   8.529   0.591 -0.3039 -0.3802 -0.2212
   18CHTO  H199 7492   5.044   8.474   0.586  1.0141  1.5293 -2.1670
   18CHTO   O22 7493   4.676   8.603   0.984 -0.4217 -0.2714 -0.0772
   18CHTO   C31 7494   4.582   8.575   0.866  0.4469 -0.2746  0.2195
   18CHTO   H59 7495   4.481   8.578   0.910 -0.6073 -2.2073 -1.9508
   18CHTO   C29 7496   4.589   8.686   0.758  0.3015 -0.0785 -0.0278
   18CHTO   H57 7497   4.694   8.696   0.725 -0.0258  1.3283 -0.7069
   18CHTO   O21 7498   4.552   8.816   0.811 -0.3403 -0.5389 -0.1365
   18CHTO   H37 7499   4.609   8.840   0.881  0.0817  2.6527 -1.4562
   18CHTO   C27 7500   4.495   8.643   0.633  0.5602  0.2830 -0.3752
   18CHTO   H55 7501   4.389   8.647   0.660  0.2657  0.8736 -1.5790
   18CHTO    N5 7502   4.503   8.727   0.512 -0.6442 -0.7331 -0.1083
   18CHTO   H43 7503   4.573   8.686   0.441  0.7199 -1.0267  1.3744
   18CHTO   H44 7504   4.404   8.746   0.472 -0.1652  1.3743 -0.3302
   18CHTO   C25 7505   4.516   8.489   0.594  0.2811 -1.0071  0.1159
   18CHTO   H53 7506   4.616   8.483   0.548  0.2680  2.2773 -0.4802
   18CHTO   O17 7507   4.502   8.400   0.708 -0.5737 -0.1644 -0.4527
   18CHTO   C32 7508   4.601   8.424   0.807  0.8316  0.9153  0.4096
   18CHTO   H60 7509   4.702   8.412   0.768  1.1817  0.8770  1.3221
   18CHTO   C36 7510   4.586   8.315   0.912  0.0519  0.0056 -0.2138
   18CHTO   O25 7511   4.585   8.188   0.862 -0.3336 -0.5715 -0.5242
   18CHTO   H40 7512   4.578   8.128   0.934  2.0570 -0.4752 -0.1697
   18CHTO   O15 7513   4.396   8.451   0.484  0.1377 -0.5149 -0.7458
   18CHTO   C19 7514   4.423   8.353   0.375 -0.2067 -0.4823 -0.0037
   18CHTO   H47 7515   4.328   8.297   0.372  0.3729 -1.4723 -0.0674
   18CHTO   C20 7516   4.434   8.424   0.244  0.2487  0.0382 -0.2855
   18CHTO   H48 7517   4.509   8.504   0.245 -0.2023  0.4531  1.6230
   18CHTO   O19 7518   4.309   8.503   0.222 -0.0979 -0.5223  0.1330
   18CHTO   H35 7519   4.326   8.580   0.171 -0.4781 -0.4539  0.1112
   18CHTO   C21 7520   4.477   8.324   0.127 -0.1125  0.2471 -0.5213
   18CHTO   H49 7521   4.401   8.247   0.117  0.9832 -0.8151 -0.7384
   18CHTO    N4 7522   4.511   8.382  -0.004  0.5114 -0.1487  0.1892
   18CHTO   H41 7523   4.532   8.300  -0.071  1.2552 -0.4161  0.7527
   18CHTO   H42 7524   4.596   8.448  -0.003  1.7071 -1.6408 -0.8603
   18CHTO   C22 7525   4.587   8.223   0.178 -0.6522  1.0176  0.8684
   18CHTO   H50 7526   4.686   8.258   0.207 -0.3988  0.9425  0.1104
   18CHTO   O14 7527   4.540   8.156   0.295  0.4278  0.2354 -0.7304
   18CHTO   C23 7528   4.534   8.245   0.402 -0.2630  0.0990  0.4188
   18CHTO   H51 7529   4.633   8.292   0.412 -1.3141  2.6758 -0.6039
   18CHTO   C34 7530   4.510   8.152   0.525  0.2764 -0.0264 -0.0065
   18CHTO   O23 7531   4.614   8.064   0.559 -0.0793 -0.3083 -0.1025
   18CHTO   H38 7532   4.692   8.115   0.576  0.0960 -0.7213  0.3733
   18CHTO   O16 7533   4.603   8.119   0.078 -0.2719  0.1200  0.1575
   18CHTO   C24 7534   4.755   8.138  -0.013 -0.0915  0.6307 -0.0077
   18CHTO   H52 7535   4.784   8.243  -0.023 -0.8959  1.1101  2.3020
   18CHTO   C26 7536   4.738   8.068  -0.146 -0.5790 -0.5785 -0.5062
   18CHTO   H54 7537   4.695   7.967  -0.129  2.4479 -1.9849 -0.8654
   18CHTO   O20 7538   4.641   8.140  -0.222  0.3221  0.2831 -0.2474
   18CHTO   H36 7539   4.557   8.128  -0.182 -0.0222 -3.1966 -1.7672
   18CHTO   C30 7540   4.874   8.054  -0.228  0.2372 -0.0390  0.3905
   18CHTO   H58 7541   4.906   8.154  -0.261  4.0285 -1.1806  0.3888
   18CHTO    N6 7542   4.865   7.967  -0.350 -0.6232  0.1069 -0.5690
   18CHTO   H45 7543   4.775   7.978  -0.409 -0.9864  3.3366  0.5104
   18CHTO   H46 7544   4.954   7.964  -0.412  2.1376 -0.5474  3.2639
   18CHTO   C33 7545   4.988   8.005  -0.139 -0.5949  0.0463 -0.3575
   18CHTO   H61 7546   4.976   7.899  -0.112  0.2592  0.2238  0.7450
   18CHTO   O18 7547   4.984   8.087  -0.024 -0.1263  0.6760  0.4313
   18CHTO   C28 7548   4.871   8.064   0.061  0.0025  0.0496  0.2458
   18CHTO   H56 7549   4.841   7.960   0.075 -0.2054 -0.0592 -0.9508
   18CHTO   C35 7550   4.891   8.121   0.201 -0.1081 -0.2554 -0.1386
   18CHTO   O24 7551   5.004   8.070   0.273 -0.1124  0.1693  0.3171
   18CHTO   H39 7552   4.982   7.981   0.293 -1.1181  0.9224  2.8353
   18CHTO    O9 7553   5.116   8.013  -0.201  0.0431  0.1507  0.1884
   18CHTO   C13 7554   5.231   7.963  -0.084 -0.1073  0.5889 -0.4879
   18CHTO   H26 7555   5.174   7.899  -0.014 -1.5459  1.1832 -1.0783
   18CHTO   C11 7556   5.297   8.089  -0.013  0.4026 -0.5325  0.0977
   18CHTO   H24 7557   5.215   8.144   0.035  0.1729 -0.9231  0.1530
   18CHTO    O8 7558   5.348   8.175  -0.112  0.0579 -0.9842  0.5900
   18CHTO    H3 7559   5.440   8.160  -0.121  0.0508 -1.1272  0.7347
   18CHTO    C9 7560   5.391   8.033   0.095  0.4748 -0.0971 -0.0454
   18CHTO   H22 7561   5.325   7.973   0.160  0.1412  0.0007 -0.2953
   18CHTO    N2 7562   5.446   8.139   0.190  0.5255 -0.3328  0.6236
   18CHTO   H10 7563   5.452   8.094   0.288  1.5842  1.2006  1.2861
   18CHTO   H11 7564   5.399   8.235   0.178 -0.7591 -1.0190  0.1242
   18CHTO    C7 7565   5.503   7.951   0.020 -0.3030  0.0290 -0.0084
   18CHTO   H20 7566   5.546   7.898   0.108  2.2207  0.5977 -0.8819
   18CHTO    O4 7567   5.436   7.840  -0.048  0.2002 -0.0785  0.6601
   18CHTO   C14 7568   5.338   7.865  -0.148  0.2359  0.3000  0.5733
   18CHTO   H27 7569   5.297   7.765  -0.174 -0.0081  1.1821 -2.6643
   18CHTO   C18 7570   5.404   7.922  -0.283 -0.2810 -0.4485 -0.0821
   18CHTO   O13 7571   5.457   7.810  -0.356  0.1290  0.2340 -0.1451
   18CHTO    H7 7572   5.520   7.841  -0.419 -0.9819 -0.8104 -1.7973
   18CHTO    O2 7573   5.603   8.025  -0.060 -0.1816 -0.0478 -0.2897
   18CHTO    C1 7574   5.740   7.966  -0.067 -0.0711  0.0814  0.2894
   18CHTO   H14 7575   5.785   7.995  -0.164 -0.9889 -3.0337 -1.1191
   18CHTO    C2 7576   5.744   7.805  -0.053 -1.1774 -0.0559 -0.5008
   18CHTO   H15 7577   5.688   7.766   0.032  1.1198 -2.1942  0.0883
   18CHTO    O6 7578   5.686   7.761  -0.171  0.5974  0.0969  0.3217
   18CHTO    H1 7579   5.594   7.783  -0.173  0.5944  0.1678  1.0808
   18CHTO    C3 7580   5.895   7.754  -0.049  0.3278  0.0384  0.0383
   18CHTO   H16 7581   5.941   7.767  -0.148 -0.9556 -1.3256 -0.7445
   18CHTO    N1 7582   5.900   7.608  -0.012 -0.1276  0.4387 -0.4031
   18CHTO    H8 7583   5.808   7.588   0.041 -0.4573 -1.2831 -1.5828
   18CHTO    H9 7584   5.985   7.593   0.052 -0.6384  0.3226  0.2591
   18CHTO    C4 7585   5.980   7.842   0.056  0.0145 -0.4407 -0.4336
   18CHTO   H17 7586   5.943   7.828   0.157  1.2122 -0.6953 -0.0281
   18CHTO    O1 7587   5.962   7.982   0.020  0.2781  0.0341  0.4269
   18CHTO    C5 7588   5.831   8.036   0.038 -0.5333 -0.4479  0.4841
   18CHTO   H18 7589   5.800   8.027   0.142  1.4272  1.2692  1.2491
   18CHTO   C16 7590   5.826   8.186   0.004 -0.4937 -0.2712  0.4480
   18CHTO   O11 7591   5.943   8.272   0.033 -0.3581 -0.1992  0.1784
   18CHTO    H5 7592   5.991   8.290  -0.046 -0.5715 -1.8622 -0.3685
   18CHTO    O3 7593   6.121   7.816   0.057  0.2509 -0.9576  0.3116
   18CHTO    C6 7594   6.186   7.797   0.186  0.3421 -0.0633  0.0820
   18CHTO   H19 7595   6.129   7.816   0.277  0.1562 -2.0630  0.4159
   18CHTO    C8 7596   6.235   7.652   0.209  0.7508  0.3874  0.2483
   18CHTO   H21 7597   6.261   7.609   0.112 -1.3432  1.1942 -0.6938
   18CHTO    O7 7598   6.121   7.565   0.238  0.3320  0.1004  0.1942
   18CHTO    H2 7599   6.156   7.479   0.243 -0.1408  0.0120  2.8592
   18CHTO   C12 7600   6.355   7.636   0.318 -0.4772  1.2922 -0.2994
   18CHTO   H25 7601   6.306   7.631   0.418 -0.9109 -0.1075 -0.5674
   18CHTO    N3 7602   6.419   7.500   0.306 -0.2872 -0.5963  0.0651
   18CHTO   H12 7603   6.496   7.511   0.231 -1.0040 -0.3923 -0.6488
   18CHTO   H13 7604   6.365   7.411   0.276  3.1782 -2.9635  0.5171
   18CHTO   C15 7605   6.460   7.753   0.316  0.6550 -0.6710  0.1673
   18CHTO   H28 7606   6.535   7.742   0.237  0.8479  0.5404  0.1775
   18CHTO   O10 7607   6.531   7.765   0.448  0.3239 -0.2873  0.4266
   18CHTO    H4 7608   6.620   7.736   0.445  0.0625 -1.1464  0.7357
   18CHTO    O5 7609   6.380   7.878   0.317 -0.0845 -0.0330  0.5032
   18CHTO   C10 7610   6.301   7.892   0.196  0.6854  0.7258  0.0650
   18CHTO   H23 7611   6.371   7.884   0.112 -0.0774 -1.0441 -0.4351
   18CHTO   C17 7612   6.248   8.037   0.196 -0.3519 -0.3605  0.1000
   18CHTO   O12 7613   6.347   8.125   0.150 -0.8539 -0.2829  0.0202
   18CHTO    H6 7614   6.425   8.107   0.199  0.0529  0.3084 -1.1725
   19CHTO  H203 7615   4.761   9.805   2.058 -0.0661 -1.7056 -0.1829
   19CHTO   O82 7616   4.769   9.812   1.965 -0.4447 -0.2355 -0.1057
   19CHTO  C123 7617   4.717   9.696   1.889 -0.5292  0.1918  0.4046
   19CHTO  H227 7618   4.621   9.714   1.838 -0.0822  0.3346 -0.4053
   19CHTO   O77 7619   4.819   9.692   1.777  0.6326 -0.0516 -0.1238
   19CHTO  C118 7620   4.796   9.588   1.683 -0.6521  0.4874  0.8250
   19CHTO  H222 7621   4.693   9.607   1.649 -0.5266  0.7120  0.5718
   19CHTO  C125 7622   4.897   9.609   1.561  0.4854 -0.0542 -0.1448
   19CHTO   O84 7623   4.832   9.679   1.457  0.4477  0.1278 -0.4004
   19CHTO  H205 7624   4.798   9.754   1.502  1.2316  0.5604 -0.5321
   19CHTO  C114 7625   4.801   9.449   1.756  0.0786  0.0194 -0.0167
   19CHTO  H218 7626   4.901   9.433   1.798 -0.2455 -3.4395 -0.4284
   19CHTO  C116 7627   4.701   9.436   1.875 -0.1698 -0.8254 -0.7134
   19CHTO  H220 7628   4.600   9.427   1.829 -0.2667  0.3872 -0.7536
   19CHTO   O79 7629   4.723   9.316   1.938 -0.3406  0.5390  0.3800
   19CHTO  H201 7630   4.657   9.305   2.003  0.8093 -0.9376  1.3328
   19CHTO  C120 7631   4.718   9.561   1.968 -0.7928 -0.4241  0.1966
   19CHTO  H224 7632   4.815   9.538   2.017  0.0854  0.7173 -0.9866
   19CHTO   N21 7633   4.615   9.567   2.076 -0.9184  0.0840  0.1400
   19CHTO  H211 7634   4.584   9.472   2.119 -0.4600  0.5383  1.5007
   19CHTO  H212 7635   4.643   9.638   2.152  0.8190  0.1576 -0.5588
   19CHTO   O75 7636   4.781   9.342   1.657 -0.7294  0.3298  0.1861
   19CHTO  C112 7637   4.876   9.204   1.679 -0.2255  0.6827  0.2685
   19CHTO  H216 7638   4.894   9.187   1.787 -0.8830 -1.2416  0.1084
   19CHTO   O73 7639   4.997   9.232   1.610 -0.0487 -0.3136 -0.4084
   19CHTO  C113 7640   5.102   9.140   1.635 -0.6726  0.6087  0.2581
   19CHTO  H217 7641   5.112   9.116   1.743  0.6934 -0.7657 -0.1499
   19CHTO  C124 7642   5.231   9.199   1.576 -0.1623 -0.7184  0.3066
   19CHTO   O83 7643   5.232   9.239   1.438  0.7061 -0.2559 -0.1828
   19CHTO  H204 7644   5.320   9.230   1.407  0.1138 -2.1145 -1.4365
   19CHTO  C109 7645   5.064   9.004   1.567 -0.0614 -0.1412 -0.3229
   19CHTO  H213 7646   5.065   9.019   1.458 -0.4850 -1.0004 -0.4470
   19CHTO  C110 7647   4.924   8.965   1.610 -0.2800 -0.3695  0.1037
   19CHTO  H214 7648   4.937   8.920   1.709  0.1217  0.6713  0.5370
   19CHTO   O78 7649   4.883   8.859   1.521 -0.4391  0.0933 -0.2545
   19CHTO  H200 7650   4.792   8.856   1.497 -0.8971 -3.0854  1.5981
   19CHTO  C111 7651   4.818   9.074   1.617  1.1105 -0.6037 -0.4726
   19CHTO  H215 7652   4.790   9.107   1.516  0.2074 -1.2662 -0.4360
   19CHTO   N19 7653   4.694   9.049   1.687 -0.1716  0.0539 -0.7746
   19CHTO  H207 7654   4.636   8.971   1.640 -0.0653  0.6709 -1.9442
   19CHTO  H208 7655   4.628   9.134   1.690 -1.0795 -0.6764  1.6813
   19CHTO   O74 7656   5.169   8.903   1.597 -0.2069  0.3785 -0.1765
   19CHTO  C115 7657   5.212   8.805   1.486  0.6170  0.6938  0.5543
   19CHTO  H219 7658   5.132   8.785   1.415  1.9421 -2.5698 -0.1054
   19CHTO   O76 7659   5.327   8.862   1.393  1.0684  0.2377  0.2511
   19CHTO  C122 7660   5.453   8.833   1.448  0.1308 -0.4140  0.0899
   19CHTO  H226 7661   5.462   8.866   1.552 -0.7601 -0.5101  0.2019
   19CHTO  C126 7662   5.558   8.926   1.379 -0.6125 -0.2813 -0.3914
   19CHTO   O85 7663   5.535   9.060   1.435  0.0460 -0.8487 -0.0117
   19CHTO  H206 7664   5.528   9.126   1.369 -2.4886 -2.3034 -1.2327
   19CHTO  C121 7665   5.489   8.685   1.448 -0.4698  0.2935  0.0624
   19CHTO  H225 7666   5.538   8.672   1.349  1.7037 -1.5555  1.3320
   19CHTO   O81 7667   5.587   8.641   1.542  0.3367 -0.8238  0.2543
   19CHTO  H202 7668   5.598   8.549   1.533  1.8571 -0.4219 -2.3635
   19CHTO  C119 7669   5.364   8.590   1.459 -0.3542  0.0002 -0.1032
   19CHTO  H223 7670   5.328   8.581   1.357 -1.2587  0.2165  0.1921
   19CHTO  C117 7671   5.257   8.666   1.549 -0.0644  0.1086 -0.2707
   19CHTO  H221 7672   5.292   8.669   1.652 -0.3401 -1.2644 -0.1337
   19CHTO   N20 7673   5.136   8.578   1.557  0.0925  0.5355  0.4150
   19CHTO  H209 7674   5.058   8.618   1.494 -0.1014  0.6228  0.7099
   19CHTO  H210 7675   5.111   8.553   1.659 -3.5125 -0.0057 -0.5315
   19CHTO   O80 7676   5.399   8.417   1.496 -0.1291  0.2094 -0.3431
   19CHTO  C103 7677   5.462   8.334   1.385 -0.4646  0.3627  0.3815
   19CHTO  H190 7678   5.468   8.388   1.290 -1.9142  0.8106  0.5327
   19CHTO  C101 7679   5.604   8.265   1.420 -0.0787  0.1963  0.5543
   19CHTO  H188 7680   5.585   8.215   1.515 -1.8101 -1.7047 -0.7485
   19CHTO   O68 7681   5.725   8.389   1.448  0.0673  0.3834  0.0299
   19CHTO  H168 7682   5.696   8.473   1.417 -0.2251  0.2977  0.0638
   19CHTO   C99 7683   5.658   8.165   1.303  0.5979 -0.0534  0.9854
   19CHTO  H186 7684   5.660   8.211   1.202 -1.9242  0.6289  1.2052
   19CHTO   N17 7685   5.791   8.103   1.334  0.6791 -0.6289 -0.2080
   19CHTO  H174 7686   5.851   8.169   1.395  0.9602 -0.7053 -0.4026
   19CHTO  H175 7687   5.798   7.997   1.355 -1.7997 -0.2370  3.0126
   19CHTO   C97 7688   5.544   8.061   1.301  0.1131 -0.0867  0.3504
   19CHTO  H184 7689   5.544   8.012   1.400  0.7994  0.2125  0.5008
   19CHTO   O64 7690   5.419   8.125   1.265 -0.2243 -0.1098 -0.2671
   19CHTO  C104 7691   5.366   8.219   1.365 -0.6734  0.2886  0.0960
   19CHTO  H191 7692   5.357   8.165   1.459  1.4548 -2.1584 -1.0341
   19CHTO  C108 7693   5.225   8.248   1.317 -0.0560  0.1295 -0.4292
   19CHTO   O71 7694   5.226   8.318   1.194 -0.6631 -0.3140 -0.0890
   19CHTO  H171 7695   5.138   8.343   1.174 -0.8094 -2.0013 -1.6108
   19CHTO   O62 7696   5.558   7.956   1.206  0.1149  0.0786  0.3303
   19CHTO   C91 7697   5.488   7.830   1.235  0.2150 -0.0478 -0.0449
   19CHTO  H178 7698   5.426   7.838   1.325  0.3115 -0.1008  0.0270
   19CHTO   C92 7699   5.586   7.716   1.248  0.2311 -0.3485  0.6423
   19CHTO  H179 7700   5.642   7.705   1.154  0.7711 -0.3546  0.9611
   19CHTO   O66 7701   5.679   7.752   1.351 -0.5942 -0.6144  0.1473
   19CHTO  H166 7702   5.751   7.802   1.320 -1.4091 -1.1684 -2.7624
   19CHTO   C93 7703   5.516   7.584   1.290  0.1859 -0.3153 -0.4651
   19CHTO  H180 7704   5.457   7.607   1.380  0.8068  2.8677 -0.8264
   19CHTO   N16 7705   5.605   7.473   1.324 -0.4670 -0.4335  0.0782
   19CHTO  H172 7706   5.671   7.442   1.244  0.0697  1.0467 -0.0676
   19CHTO  H173 7707   5.541   7.395   1.361  0.6650 -1.1384  0.5647
   19CHTO   C94 7708   5.425   7.552   1.168  0.0897 -0.5444 -0.6294
   19CHTO  H181 7709   5.483   7.541   1.077  0.6999  0.2257 -0.3396
   19CHTO   O61 7710   5.326   7.655   1.147  0.2359 -0.4685  0.2503
   19CHTO   C95 7711   5.381   7.782   1.131  0.3617  0.1259  0.7119
   19CHTO  H182 7712   5.438   7.778   1.038  0.4654  1.7835  0.6961
   19CHTO  C106 7713   5.269   7.884   1.105  0.1120  0.4505 -0.4546
   19CHTO   O69 7714   5.188   7.853   0.992 -0.1253 -1.0133 -0.0721
   19CHTO  H169 7715   5.108   7.901   0.983 -0.5368 -1.5838  0.4684
   19CHTO   O63 7716   5.342   7.417   1.189 -0.9400 -0.2332 -0.3132
   19CHTO   C96 7717   5.312   7.346   1.067 -0.0909  0.2321  0.1799
   19CHTO  H183 7718   5.403   7.339   1.007 -0.4052  0.2243 -0.2980
   19CHTO   C98 7719   5.211   7.411   0.964  0.6604 -0.8106 -0.6071
   19CHTO  H185 7720   5.238   7.510   0.926  0.6568 -0.4036  0.4459
   19CHTO   O67 7721   5.208   7.331   0.847 -0.5496 -0.4730 -0.2781
   19CHTO  H167 7722   5.146   7.369   0.787  1.2323 -0.7002 -2.3268
   19CHTO  C102 7723   5.064   7.413   1.027  0.3270  0.3500  0.0543
   19CHTO  H189 7724   4.998   7.407   0.940  0.4081 -2.9425  0.1705
   19CHTO   N18 7725   5.036   7.534   1.098 -0.2079 -0.9949 -0.1724
   19CHTO  H176 7726   5.036   7.620   1.033  1.2047  0.0250  1.1319
   19CHTO  H177 7727   4.941   7.530   1.150 -0.4992 -1.8824 -0.7559
   19CHTO  C105 7728   5.035   7.271   1.090  0.5264  0.0559  0.6099
   19CHTO  H192 7729   5.017   7.283   1.197  2.4158  2.2464  0.7344
   19CHTO   O65 7730   5.134   7.173   1.061  0.1499  0.0072 -0.1900
   19CHTO  C100 7731   5.268   7.198   1.104  0.5930 -0.4334 -0.4963
   19CHTO  H187 7732   5.259   7.186   1.213  0.6430 -1.5950 -0.6223
   19CHTO  C107 7733   5.377   7.091   1.060 -0.3606  0.1963 -0.5481
   19CHTO   O70 7734   5.385   7.086   0.915  0.1027  0.5306 -0.4654
   19CHTO  H170 7735   5.473   7.102   0.888 -0.8107  1.3060 -3.0742
   19CHTO   O57 7736   4.877   7.220   1.028  0.1601  0.2762 -0.6300
   19CHTO   C85 7737   4.806   7.135   1.111 -0.4688  0.3750  0.1747
   19CHTO  H157 7738   4.871   7.094   1.191  0.1804 -1.0233 -1.0515
   19CHTO   C83 7739   4.760   7.019   1.026  0.6513 -0.5071 -0.7688
   19CHTO  H155 7740   4.854   6.972   0.997  2.5390  1.8832  1.2185
   19CHTO   O56 7741   4.699   7.069   0.903  0.3410  0.8621 -0.0578
   19CHTO  H135 7742   4.608   7.046   0.902  0.0323  2.0617 -0.3690
   19CHTO   C81 7743   4.677   6.919   1.114 -0.7588  0.2088 -0.4470
   19CHTO  H153 7744   4.745   6.874   1.186  0.3772  0.0757 -1.5911
   19CHTO   N14 7745   4.644   6.793   1.044  0.3839 -0.0583  0.3266
   19CHTO  H141 7746   4.568   6.819   0.973 -1.3531  1.1530  2.5642
   19CHTO  H142 7747   4.735   6.766   0.995 -1.1768  0.1085 -2.7830
   19CHTO   C79 7748   4.559   7.003   1.186  0.3885  0.1074  0.3401
   19CHTO  H151 7749   4.517   6.938   1.263  0.2301  0.4671  0.5627
   19CHTO   O52 7750   4.598   7.128   1.251 -0.0419 -0.0434  0.4047
   19CHTO   C86 7751   4.678   7.210   1.167 -0.3451  0.0742  0.0545
   19CHTO  H158 7752   4.618   7.246   1.080 -0.1882  1.1254  0.3844
   19CHTO   C90 7753   4.720   7.337   1.244 -0.0157 -0.0543  0.0668
   19CHTO   O60 7754   4.613   7.428   1.263  0.2447  0.0722  0.5168
   19CHTO  H138 7755   4.608   7.460   1.351 -1.3928  1.9582 -0.2153
   19CHTO   O50 7756   4.449   7.042   1.107 -0.0672  0.0758  0.6818
   19CHTO   C73 7757   4.317   7.069   1.061  0.3491  0.4567  0.1135
   19CHTO  H145 7758   4.259   6.976   1.060  0.8902  0.0612  2.1599
   19CHTO   C74 7759   4.309   7.124   0.914 -0.3252  0.2753  0.4864
   19CHTO  H146 7760   4.352   7.055   0.839 -0.2041  0.2783  0.5537
   19CHTO   O54 7761   4.165   7.133   0.878  0.3378  0.1175  0.7292
   19CHTO  H133 7762   4.152   7.194   0.809 -0.3651 -1.0906 -0.2209
   19CHTO   C75 7763   4.380   7.263   0.913  0.0947  0.5251  0.1948
   19CHTO  H147 7764   4.485   7.240   0.934 -0.6246 -3.9319 -0.5185
   19CHTO   N13 7765   4.372   7.327   0.780 -0.3583 -0.4138  0.0739
   19CHTO  H139 7766   4.420   7.261   0.708  1.7382  2.6492 -1.4320
   19CHTO  H140 7767   4.268   7.335   0.752 -0.5758 -0.7451  0.7706
   19CHTO   C76 7768   4.317   7.354   1.022  0.3554  0.4627 -0.2766
   19CHTO  H148 7769   4.210   7.364   1.006  0.7163 -0.5344 -3.8054
   19CHTO   O49 7770   4.326   7.294   1.149  0.0953 -0.6648 -0.0907
   19CHTO   C77 7771   4.261   7.172   1.159 -0.1097 -0.5748  0.3679
   19CHTO  H149 7772   4.153   7.177   1.145 -0.1304 -2.5445 -0.2968
   19CHTO   C88 7773   4.272   7.152   1.307  0.9316  0.2287  0.0628
   19CHTO   O58 7774   4.175   7.014   1.345  0.3881  0.4292  0.3266
   19CHTO  H136 7775   4.190   6.994   1.435 -1.1063  2.4377  1.0647
   19CHTO   O51 7776   4.407   7.499   1.027  0.1645 -0.2993  0.4768
   19CHTO   C78 7777   4.304   7.626   0.987 -0.1040  0.7544  0.6998
   19CHTO  H150 7778   4.210   7.581   0.949  0.1320  0.1547  0.8224
   19CHTO   C80 7779   4.363   7.722   0.886 -0.4859  0.5605 -0.2363
   19CHTO  H152 7780   4.463   7.756   0.922  0.3202 -1.5112 -0.4391
   19CHTO   O55 7781   4.372   7.649   0.765  0.4520  0.1230  0.7228
   19CHTO  H134 7782   4.457   7.661   0.727  0.9132 -1.2539  1.2922
   19CHTO   C84 7783   4.270   7.850   0.861  0.6065  0.4425 -0.1529
   19CHTO  H156 7784   4.179   7.816   0.812  0.6892 -0.1516  0.0917
   19CHTO   N15 7785   4.334   7.949   0.776 -0.5607  0.4339 -0.1000
   19CHTO  H143 7786   4.307   7.929   0.674 -0.0424  1.7814 -0.5144
   19CHTO  H144 7787   4.441   7.949   0.785 -0.3725  2.6808 -2.0586
   19CHTO   C87 7788   4.222   7.909   1.001 -0.2805  0.9530  0.0494
   19CHTO  H159 7789   4.309   7.955   1.049 -0.1128 -0.2115  0.8635
   19CHTO   O53 7790   4.163   7.802   1.076  0.3394  0.5751 -0.4230
   19CHTO   C82 7791   4.263   7.709   1.115 -0.3339  0.4484 -0.2350
   19CHTO  H154 7792   4.350   7.754   1.164  1.0504 -2.2332 -0.1099
   19CHTO   C89 7793   4.193   7.609   1.216  0.0367 -0.3536 -0.4180
   19CHTO   O59 7794   4.289   7.530   1.285 -0.1014  0.2249  0.2872
   19CHTO  H137 7795   4.251   7.494   1.363  1.1497 -0.8966  0.3893
   19CHTO   O45 7796   4.113   8.011   0.983  0.5159  0.0677 -0.1416
   19CHTO   C67 7797   4.084   8.111   1.083  0.8925 -0.8966  0.5733
   19CHTO  H124 7798   4.118   8.085   1.183 -0.6421 -1.2324  1.0186
   19CHTO   C65 7799   4.154   8.245   1.042 -0.7819  0.8248 -0.5031
   19CHTO  H122 7800   4.154   8.244   0.933  0.8080  1.7334 -0.5189
   19CHTO   O44 7801   4.290   8.243   1.089  0.1136  0.3918 -0.3417
   19CHTO  H102 7802   4.327   8.325   1.117  0.4442 -0.1334  0.7722
   19CHTO   C63 7803   4.066   8.369   1.088 -0.4432  0.4284  0.0266
   19CHTO  H120 7804   3.991   8.388   1.011  0.1765  3.3514  0.1097
   19CHTO   N11 7805   4.137   8.505   1.069  0.2754 -0.1790  0.1194
   19CHTO  H108 7806   4.072   8.586   1.095  1.0864  0.1635  1.1566
   19CHTO  H109 7807   4.220   8.507   1.137  0.1277 -0.7886  0.3149
   19CHTO   C61 7808   3.990   8.343   1.219 -0.0556  0.1929 -0.3214
   19CHTO  H118 7809   3.934   8.437   1.232  1.0017  1.0883 -2.1126
   19CHTO   O40 7810   3.894   8.234   1.194 -0.1310 -0.1349  0.0652
   19CHTO   C68 7811   3.926   8.134   1.093  0.1156  0.4342 -0.2542
   19CHTO  H125 7812   3.889   8.173   0.996  2.3151 -0.7561 -1.6319
   19CHTO   C72 7813   3.847   8.008   1.120 -0.0968  0.0540 -0.7335
   19CHTO   O48 7814   3.878   7.968   1.255 -0.2732  0.1406 -0.0671
   19CHTO  H105 7815   3.961   7.925   1.246 -0.0365  0.2942  1.2186
   19CHTO   O38 7816   4.068   8.331   1.340 -0.4911 -0.3408  0.0664
   19CHTO   C55 7817   4.012   8.242   1.438 -0.2853  0.6945 -0.3995
   19CHTO  H112 7818   3.981   8.146   1.393  0.3931 -0.2895  1.2000
   19CHTO   C56 7819   3.901   8.305   1.538 -0.0605 -0.7702  0.0847
   19CHTO  H113 7820   3.955   8.385   1.592 -2.1340  0.3782  0.5315
   19CHTO   O42 7821   3.791   8.361   1.463 -0.1701  0.7499 -0.1120
   19CHTO  H100 7822   3.721   8.366   1.525  1.5169 -0.2470  1.9316
   19CHTO   C57 7823   3.861   8.198   1.644 -0.4826  0.0141 -0.4201
   19CHTO  H114 7824   3.796   8.141   1.577  0.9105 -0.2001 -1.5990
   19CHTO   N10 7825   3.787   8.256   1.757 -0.2983  0.3903  0.1802
   19CHTO  H106 7826   3.726   8.180   1.804 -2.0949  0.5494 -1.7967
   19CHTO  H107 7827   3.727   8.336   1.716 -0.7447 -0.3748 -0.6678
   19CHTO   C58 7828   3.975   8.112   1.698 -0.6627 -0.6030  0.8663
   19CHTO  H115 7829   4.029   8.163   1.780  0.2062  0.1623 -0.1544
   19CHTO   O37 7830   4.074   8.081   1.599 -0.1303  0.3431  1.1404
   19CHTO   C59 7831   4.124   8.196   1.531  0.1839  0.1763 -0.6607
   19CHTO  H116 7832   4.143   8.270   1.609 -2.6917 -0.8494  1.0930
   19CHTO   C70 7833   4.252   8.146   1.457  0.6001  0.1105  0.2750
   19CHTO   O46 7834   4.370   8.141   1.540 -0.4756  0.1015 -0.6562
   19CHTO  H103 7835   4.367   8.205   1.609  2.4286 -0.1472 -0.2086
   19CHTO   O39 7836   3.910   7.960   1.753  0.1122 -0.1037 -0.0381
   19CHTO   C60 7837   3.900   7.848   1.662  0.0038 -0.2056 -0.0781
   19CHTO  H117 7838   3.891   7.893   1.563  1.3451 -2.1138 -1.0807
   19CHTO   C62 7839   4.019   7.755   1.679 -0.3007 -0.4379  0.2319
   19CHTO  H119 7840   4.113   7.807   1.655 -0.4123  0.0580  0.8847
   19CHTO   O43 7841   4.020   7.697   1.810 -0.1902 -0.1630  0.0464
   19CHTO  H101 7842   4.101   7.724   1.850 -1.0047  1.5334  0.6025
   19CHTO   C66 7843   4.007   7.637   1.564 -0.1011 -0.4027 -0.8690
   19CHTO  H123 7844   3.996   7.686   1.468 -0.6789  0.0060 -0.5898
   19CHTO   N12 7845   4.128   7.551   1.556  0.1606  0.4866 -0.0429
   19CHTO  H110 7846   4.144   7.513   1.656  0.5884 -0.4076 -0.4475
   19CHTO  H111 7847   4.109   7.482   1.475  0.6826 -0.4452  0.6128
   19CHTO   C69 7848   3.882   7.551   1.598 -0.2990 -0.2155  0.0497
   19CHTO  H126 7849   3.901   7.507   1.698 -0.7149  1.0278  0.6925
   19CHTO   O41 7850   3.750   7.639   1.606 -0.2325 -0.0483  0.0388
   19CHTO   C64 7851   3.765   7.777   1.688  0.6441 -0.1278 -0.3920
   19CHTO  H121 7852   3.744   7.763   1.796  0.0685  0.3451 -0.4396
   19CHTO   C71 7853   3.647   7.883   1.653  0.2097 -0.4537 -0.6266
   19CHTO   O47 7854   3.626   7.892   1.513  0.8078  0.2498 -0.0527
   19CHTO  H104 7855   3.536   7.920   1.505  0.5242  0.4590  3.1989
   19CHTO   O34 7856   3.868   7.437   1.483  0.0552  0.0718  0.0906
   19CHTO   C49 7857   3.740   7.403   1.375 -0.0143 -0.0962  0.3594
   19CHTO   H91 7858   3.663   7.365   1.442 -0.2720 -0.1097  0.0570
   19CHTO   C47 7859   3.781   7.287   1.286  0.5119 -0.1879 -0.3608
   19CHTO   H89 7860   3.692   7.251   1.229 -0.8963  1.0234  0.9964
   19CHTO   O33 7861   3.832   7.180   1.366 -0.6527  0.1060  0.2757
   19CHTO   H70 7862   3.811   7.092   1.340 -1.3960  0.4471 -0.2822
   19CHTO   C45 7863   3.886   7.334   1.171  0.3746 -0.0530  0.5642
   19CHTO   H87 7864   3.979   7.355   1.227  1.7926  0.3874 -1.9040
   19CHTO    N8 7865   3.907   7.219   1.078 -0.6247 -0.7176 -0.0139
   19CHTO   H75 7866   3.829   7.202   1.006 -0.8260  0.2951 -0.0476
   19CHTO   H76 7867   3.994   7.245   1.019 -0.7193  0.9542  0.5460
   19CHTO   C43 7868   3.844   7.475   1.098 -0.0367  0.5554 -0.8412
   19CHTO   H85 7869   3.936   7.515   1.057  1.3736 -3.0000 -1.2948
   19CHTO   O29 7870   3.785   7.560   1.195 -0.4961  0.1561  0.0479
   19CHTO   C50 7871   3.689   7.521   1.290 -0.0581  0.4134 -0.1774
   19CHTO   H92 7872   3.667   7.598   1.366 -2.0934  1.3734 -1.7204
   19CHTO   C54 7873   3.555   7.494   1.219  0.4832  0.1758  0.1026
   19CHTO   O36 7874   3.445   7.469   1.305  0.0041 -0.0472  0.3945
   19CHTO   H72 7875   3.456   7.387   1.350  1.1853 -0.7568 -1.1361
   19CHTO   O27 7876   3.756   7.459   0.983 -0.1269  0.3809 -0.1694
   19CHTO   C37 7877   3.747   7.536   0.856 -0.0424 -0.6957  0.7231
   19CHTO   H79 7878   3.644   7.538   0.818  0.8110  1.8897 -1.6608
   19CHTO   C38 7879   3.785   7.682   0.870  0.2097  0.2070 -0.5573
   19CHTO   H80 7880   3.878   7.690   0.928 -1.4919  0.2188  2.2312
   19CHTO   O31 7881   3.684   7.745   0.952  0.1407  0.2976 -0.0699
   19CHTO   H68 7882   3.701   7.741   1.044 -0.5671 -2.0467 -0.0162
   19CHTO   C39 7883   3.808   7.752   0.722 -0.0225  0.2433 -0.5219
   19CHTO   H81 7884   3.716   7.743   0.665 -0.1373  1.3740 -0.5156
   19CHTO    N7 7885   3.844   7.901   0.732 -0.2299  0.0162  0.5804
   19CHTO   H73 7886   3.862   7.913   0.838  2.7309 -1.1938  0.2641
   19CHTO   H74 7887   3.755   7.960   0.715  0.8434  1.4031 -0.3820
   19CHTO   C40 7888   3.914   7.671   0.648 -0.4766  0.2273 -0.3500
   19CHTO   H82 7889   4.011   7.665   0.696 -0.5120  0.1958 -0.2825
   19CHTO   O26 7890   3.853   7.543   0.632  0.4213 -0.5849 -0.0414
   19CHTO   C41 7891   3.840   7.466   0.750 -0.3414 -0.4647 -0.1139
   19CHTO   H83 7892   3.940   7.444   0.792 -0.2977 -0.0896 -0.0156
   19CHTO   C52 7893   3.779   7.324   0.713 -0.1032 -0.1572 -0.6224
   19CHTO   O35 7894   3.873   7.251   0.619 -0.8621 -0.4849 -0.1347
   19CHTO   H71 7895   3.964   7.247   0.643 -0.5262 -0.8638 -1.4034
   19CHTO   O28 7896   3.936   7.726   0.512 -0.0588 -0.1506 -0.3019
   19CHTO   C42 7897   4.066   7.759   0.463  0.1395 -0.2369  0.2918
   19CHTO   H84 7898   4.125   7.763   0.555  0.2774 -1.4492  0.2689
   19CHTO   C44 7899   4.075   7.896   0.388  0.2949 -0.4066  0.0466
   19CHTO   H86 7900   3.990   7.900   0.319  1.5233 -1.0974 -1.5185
   19CHTO   O32 7901   4.040   7.998   0.487  0.1435  0.0261 -0.0845
   19CHTO   H69 7902   4.094   7.984   0.562 -0.0971  0.5036  0.1740
   19CHTO   C48 7903   4.213   7.929   0.321  0.2897 -0.2673  0.2466
   19CHTO   H90 7904   4.274   7.958   0.406  0.0078  2.5533 -0.4833
   19CHTO    N9 7905   4.205   8.050   0.230  0.5137  0.6899  0.1493
   19CHTO   H77 7906   4.297   8.068   0.176  0.2694 -1.7075 -1.1655
   19CHTO   H78 7907   4.134   8.021   0.154  2.3568  0.9681 -1.7318
   19CHTO   C51 7908   4.281   7.804   0.258  0.0834 -0.0653 -0.0595
   19CHTO   H93 7909   4.244   7.784   0.158  2.3248  0.0057 -0.9227
   19CHTO   O30 7910   4.265   7.696   0.348 -0.0558 -0.2106 -0.0580
   19CHTO   C46 7911   4.130   7.652   0.376 -0.1846 -0.8990 -0.4906
   19CHTO   H88 7912   4.069   7.655   0.285  1.1599  0.5938 -1.3739
   19CHTO   C53 7913   4.129   7.518   0.437  0.5569 -0.6733 -0.2617
   19CHTO   O72 7914   4.193   7.505   0.570  0.7054 -0.1471  0.2434
   19CHTO  H199 7915   4.131   7.494   0.641 -1.4948  1.3679 -1.3778
   19CHTO   O22 7916   4.421   7.827   0.246  0.2310 -0.2393 -0.4058
   19CHTO   C31 7917   4.515   7.726   0.190  0.7561  0.3153 -0.5202
   19CHTO   H59 7918   4.448   7.644   0.158 -1.2926  2.3467 -1.6510
   19CHTO   C29 7919   4.593   7.771   0.062  0.9989  0.4319 -0.8562
   19CHTO   H57 7920   4.654   7.859   0.086  0.7981  0.2590  0.2919
   19CHTO   O21 7921   4.494   7.810  -0.039  0.2318  0.4779 -0.0102
   19CHTO   H37 7922   4.531   7.881  -0.088 -0.7987  0.4945 -0.7785
   19CHTO   C27 7923   4.680   7.652   0.016  0.3715  0.1482  0.5889
   19CHTO   H55 7924   4.618   7.561   0.010  1.6650 -0.9080  2.7125
   19CHTO    N5 7925   4.753   7.681  -0.115 -0.2427 -0.5965  0.1867
   19CHTO   H43 7926   4.682   7.678  -0.196  0.7950 -4.0278 -0.6624
   19CHTO   H44 7927   4.824   7.603  -0.138 -0.5096 -0.4440 -1.2234
   19CHTO   C25 7928   4.782   7.624   0.131  0.0115 -0.3135  0.2965
   19CHTO   H53 7929   4.832   7.718   0.158  0.1426 -0.6617  1.2705
   19CHTO   O17 7930   4.713   7.584   0.247  0.3084 -0.2539 -0.1825
   19CHTO   C32 7931   4.618   7.678   0.303 -0.2010 -0.3348  0.3553
   19CHTO   H60 7932   4.676   7.764   0.336 -0.1025  0.2364 -1.2731
   19CHTO   C36 7933   4.558   7.614   0.430  0.4665  0.4471 -0.6232
   19CHTO   O25 7934   4.505   7.494   0.398  0.1190  0.3212  0.3274
   19CHTO   H40 7935   4.497   7.439   0.474 -3.1017 -1.1461 -0.9381
   19CHTO   O15 7936   4.889   7.504   0.100  0.5362 -0.3288  0.0426
   19CHTO   C19 7937   4.928   7.396   0.010  0.4205 -0.1490  0.4026
   19CHTO   H47 7938   4.854   7.422  -0.068  1.6788  2.6142  0.0666
   19CHTO   C20 7939   5.076   7.395  -0.031  0.4732 -0.2403 -0.1127
   19CHTO   H48 7940   5.138   7.364   0.055 -0.7933 -0.7776  0.6131
   19CHTO   O19 7941   5.113   7.531  -0.057 -0.2591  0.1386  0.4777
   19CHTO   H35 7942   5.195   7.549  -0.016  0.0431 -0.5889  0.1895
   19CHTO   C21 7943   5.099   7.289  -0.146  0.8753  0.7279 -0.8158
   19CHTO   H49 7944   5.046   7.313  -0.238 -2.0783 -2.0570  0.1042
   19CHTO    N4 7945   5.245   7.273  -0.181  0.1861  0.1451  0.1381
   19CHTO   H41 7946   5.285   7.373  -0.190  0.3379  0.2133  1.4495
   19CHTO   H42 7947   5.305   7.217  -0.110  0.5996 -0.5662 -0.7670
   19CHTO   C22 7948   5.028   7.152  -0.105 -0.4968 -0.1399  0.5799
   19CHTO   H50 7949   5.090   7.105  -0.029  1.2252  1.0038 -0.0724
   19CHTO   O14 7950   4.900   7.170  -0.049 -0.4124  0.1799 -0.3647
   19CHTO   C23 7951   4.890   7.259   0.062  0.7407  0.4905  0.1008
   19CHTO   H51 7952   4.961   7.225   0.139  2.3094  1.9969 -0.6434
   19CHTO   C34 7953   4.734   7.251   0.112 -0.1641 -0.1991 -0.1213
   19CHTO   O23 7954   4.639   7.299   0.017 -0.2940 -0.0290 -0.6467
   19CHTO   H38 7955   4.693   7.355  -0.036  2.7603 -1.1971  1.0712
   19CHTO   O16 7956   5.013   7.059  -0.217  0.5940 -0.6349 -0.4745
   19CHTO   C24 7957   5.088   6.913  -0.226 -0.3244  0.4236 -0.1711
   19CHTO   H52 7958   5.192   6.915  -0.191 -0.1924  0.7409 -0.5878
   19CHTO   C26 7959   5.087   6.865  -0.372 -0.2600 -0.1186  0.7484
   19CHTO   H54 7960   4.983   6.882  -0.408  0.3946  0.4890 -0.8920
   19CHTO   O20 7961   5.159   6.958  -0.456 -0.2567  0.2603 -0.0643
   19CHTO   H36 7962   5.126   6.948  -0.543 -0.3650 -0.0909  0.0174
   19CHTO   C30 7963   5.120   6.715  -0.405  0.6179  0.1225  0.1002
   19CHTO   H58 7964   5.226   6.690  -0.415  0.0927 -2.0717 -0.4244
   19CHTO    N6 7965   5.068   6.670  -0.535 -0.4625  0.1640 -0.0280
   19CHTO   H45 7966   5.083   6.565  -0.554  0.6260 -0.0320  1.7640
   19CHTO   H46 7967   5.116   6.724  -0.616  0.7500 -2.2085 -0.9446
   19CHTO   C33 7968   5.057   6.622  -0.298 -0.1385  0.1097  0.3759
   19CHTO   H61 7969   4.950   6.607  -0.320 -0.1308  1.7625 -0.9303
   19CHTO   O18 7970   5.070   6.675  -0.165  0.4714 -0.2471  0.4001
   19CHTO   C28 7971   5.018   6.804  -0.142 -0.1718 -0.3964 -0.7155
   19CHTO   H56 7972   4.910   6.809  -0.156 -0.5387 -2.9739  0.8354
   19CHTO   C35 7973   5.023   6.822   0.012  0.1865 -0.7456  1.1960
   19CHTO   O24 7974   4.957   6.713   0.076  0.0422  0.1491  0.1423
   19CHTO   H39 7975   4.909   6.740   0.153 -0.7418  4.1351 -1.6052
   19CHTO    O9 7976   5.117   6.488  -0.309 -0.4117 -0.1318 -0.0084
   19CHTO   C13 7977   4.993   6.380  -0.285 -0.3575  0.3321  1.0648
   19CHTO   H26 7978   4.909   6.409  -0.352  0.9110 -0.7414 -1.0317
   19CHTO   C11 7979   4.945   6.384  -0.135  0.5059  0.4022  0.5301
   19CHTO   H24 7980   4.894   6.479  -0.115  0.1586  0.6809 -1.6074
   19CHTO    O8 7981   5.056   6.382  -0.044 -0.2201 -0.1700 -0.5966
   19CHTO    H3 7982   5.065   6.306   0.010 -2.4366  0.6668  1.0373
   19CHTO    C9 7983   4.843   6.265  -0.122  0.1789 -0.7466 -0.1872
   19CHTO   H22 7984   4.774   6.278  -0.207 -1.2984  0.5581  1.1633
   19CHTO    N2 7985   4.766   6.267   0.007  0.6034 -0.0326  0.5909
   19CHTO   H10 7986   4.661   6.286  -0.007  0.2646 -3.0369 -1.5705
   19CHTO   H11 7987   4.770   6.167   0.049 -0.8717 -1.4593 -2.5155
   19CHTO    C7 7988   4.909   6.127  -0.153 -0.2771 -0.3142 -0.5728
   19CHTO   H20 7989   4.845   6.072  -0.226 -0.5263 -0.5732 -0.1640
   19CHTO    O4 7990   5.038   6.143  -0.216  1.0498 -0.2815  0.4946
   19CHTO   C14 7991   5.030   6.229  -0.326 -0.3083  0.1894  0.3623
   19CHTO   H27 7992   4.958   6.192  -0.402 -1.5228 -1.9411  2.4785
   19CHTO   C18 7993   5.173   6.214  -0.389  0.2951 -0.0108  0.6281
   19CHTO   O13 7994   5.172   6.294  -0.504 -0.2887 -0.3069  0.0619
   19CHTO    H7 7995   5.108   6.264  -0.565 -1.8438  1.0393  0.9887
   19CHTO    O2 7996   4.931   6.022  -0.008  0.2255  0.0297 -0.0337
   19CHTO    C1 7997   4.908   5.885  -0.023 -0.0568 -0.3035 -0.0623
   19CHTO   H14 7998   4.951   5.840  -0.115 -1.6748  1.2078 -1.5984
   19CHTO    C2 7999   4.752   5.845  -0.017  0.1741  0.2969  0.0624
   19CHTO   H15 8000   4.712   5.903   0.067  0.6101  1.2613 -0.3797
   19CHTO    O6 8001   4.686   5.903  -0.128  0.1095  0.0418  0.0577
   19CHTO    H1 8002   4.710   5.993  -0.137 -0.0575 -0.0447 -1.3031
   19CHTO    C3 8003   4.725   5.688  -0.008 -0.6021 -0.4194 -0.0847
   19CHTO   H16 8004   4.758   5.652  -0.107  0.5916 -0.5120  0.3487
   19CHTO    N1 8005   4.585   5.654   0.019 -0.2636 -0.6417 -0.1946
   19CHTO    H8 8006   4.566   5.599   0.110 -3.0522  0.2981 -0.1745
   19CHTO    H9 8007   4.536   5.597  -0.059  0.7186 -1.0409 -0.5286
   19CHTO    C4 8008   4.817   5.626   0.102  0.2169 -0.1174 -0.4156
   19CHTO   H17 8009   4.783   5.659   0.200 -2.4301 -3.2200 -0.2005
   19CHTO    O1 8010   4.956   5.667   0.085  0.2825  0.1457 -0.6023
   19CHTO    C5 8011   4.982   5.810   0.087  0.4201  0.0588  0.1754
   19CHTO   H18 8012   4.945   5.844   0.183 -0.6764 -0.4618 -0.0494
   19CHTO   C16 8013   5.134   5.829   0.079  0.1934  0.3077  0.3568
   19CHTO   O11 8014   5.209   5.766   0.181 -0.1496 -0.0499  0.4468
   19CHTO    H5 8015   5.250   5.831   0.235  4.2893 -2.9530  0.7950
   19CHTO    O3 8016   4.814   5.481   0.094  0.6205 -0.5954 -0.0094
   19CHTO    C6 8017   4.787   5.407   0.214  0.1794 -0.1215 -0.1043
   19CHTO   H19 8018   4.751   5.474   0.293 -0.5160 -1.1751  0.4799
   19CHTO    C8 8019   4.682   5.295   0.203  0.2382 -0.5835  0.3655
   19CHTO   H21 8020   4.728   5.207   0.157 -0.8389 -0.3151 -1.2528
   19CHTO    O7 8021   4.577   5.342   0.118  0.5176  0.5905  0.1805
   19CHTO    H2 8022   4.597   5.335   0.026 -0.4742 -0.8065  0.0468
   19CHTO   C12 8023   4.634   5.246   0.346 -0.5779  0.3991  0.4478
   19CHTO   H25 8024   4.590   5.340   0.385  1.6034  1.1300  1.1929
   19CHTO    N3 8025   4.544   5.131   0.337  0.2878  0.5983  0.1499
   19CHTO   H12 8026   4.596   5.036   0.339 -0.0554  0.3571 -1.8808
   19CHTO   H13 8027   4.469   5.124   0.415 -1.0544  3.3195 -0.8356
   19CHTO   C15 8028   4.768   5.211   0.427 -0.0238  0.1318  0.4377
   19CHTO   H28 8029   4.808   5.110   0.414  0.6737  0.7131 -2.3715
   19CHTO   O10 8030   4.737   5.238   0.578 -0.4017  0.8244 -0.0945
   19CHTO    H4 8031   4.661   5.190   0.608  0.2395 -0.6114 -0.7098
   19CHTO    O5 8032   4.872   5.309   0.410 -0.4697 -0.3010 -0.0217
   19CHTO   C10 8033   4.910   5.337   0.271 -0.7220  0.4110  0.3348
   19CHTO   H23 8034   4.947   5.251   0.215 -0.1129  1.5372 -1.0149
   19CHTO   C17 8035   5.030   5.433   0.276 -0.2752 -0.4013  0.6673
   19CHTO   O12 8036   5.106   5.432   0.162  0.3663 -0.3827  0.1519
   19CHTO    H6 8037   5.062   5.447   0.080  2.0821 -2.6237 -1.2648
   20CHTO  H203 8038   4.593   1.297   1.679 -0.1636  0.0120 -0.4794
   20CHTO   O82 8039   4.599   1.269   1.589 -0.0599  0.1280 -0.5089
   20CHTO  C123 8040   4.608   1.375   1.494  0.4666  0.9759  0.1366
   20CHTO  H227 8041   4.504   1.409   1.480 -0.6017 -1.5134  1.6412
   20CHTO   O77 8042   4.698   1.482   1.564 -0.5601  0.1211 -0.3916
   20CHTO  C118 8043   4.725   1.597   1.488 -0.7708  0.4255  0.4192
   20CHTO  H222 8044   4.627   1.644   1.471  0.0753  1.6671 -1.1840
   20CHTO  C125 8045   4.815   1.691   1.585 -0.1437 -0.0287  0.7574
   20CHTO   O84 8046   4.938   1.623   1.625  0.8168 -0.2659  0.0653
   20CHTO  H205 8047   4.930   1.544   1.674 -2.5640 -1.2921 -1.9508
   20CHTO  C114 8048   4.798   1.552   1.362 -0.3355  0.5049 -0.4314
   20CHTO  H218 8049   4.883   1.491   1.390 -0.5100  0.2328 -0.4873
   20CHTO  C116 8050   4.722   1.447   1.267  0.1575 -0.4437 -0.1797
   20CHTO  H220 8051   4.643   1.495   1.207 -0.9040 -1.7167  0.1877
   20CHTO   O79 8052   4.803   1.391   1.164  0.0178  0.4091 -0.2944
   20CHTO  H201 8053   4.788   1.299   1.154  0.3248  0.2441  0.6824
   20CHTO  C120 8054   4.669   1.327   1.357 -0.1045 -0.3391  0.1573
   20CHTO  H224 8055   4.750   1.251   1.365 -1.3573 -1.6440  0.7159
   20CHTO   N21 8056   4.565   1.245   1.287  0.1917 -0.3048  0.2044
   20CHTO  H211 8057   4.483   1.227   1.356  1.6433  1.8631  2.5569
   20CHTO  H212 8058   4.537   1.298   1.197  0.1802 -0.9172 -0.1547
   20CHTO   O75 8059   4.833   1.674   1.292  0.4018  0.2528  0.2138
   20CHTO  C112 8060   4.961   1.657   1.187 -0.6017 -0.2343  0.1359
   20CHTO  H216 8061   4.942   1.561   1.136 -0.8642  0.0101 -0.2278
   20CHTO   O73 8062   5.081   1.657   1.270  0.2665  0.1306 -0.2173
   20CHTO  C113 8063   5.204   1.655   1.202 -0.1499  0.5259 -0.2331
   20CHTO  H217 8064   5.212   1.562   1.142  2.8716  1.5993 -1.6016
   20CHTO  C124 8065   5.308   1.647   1.311 -0.3927  0.2616 -0.5763
   20CHTO   O83 8066   5.441   1.622   1.257 -0.5627  0.4283 -1.1395
   20CHTO  H204 8067   5.438   1.552   1.195  1.3978 -0.9963  0.3317
   20CHTO  C109 8068   5.220   1.776   1.109  0.1868 -0.3962  0.1699
   20CHTO  H213 8069   5.209   1.864   1.174 -0.1250  0.1484 -0.6137
   20CHTO  C110 8070   5.103   1.780   1.002  0.9409 -0.2417 -0.5332
   20CHTO  H214 8071   5.108   1.697   0.931  0.3249 -0.6604 -0.0891
   20CHTO   O78 8072   5.115   1.900   0.921  0.0991  0.0245 -0.2007
   20CHTO  H200 8073   5.186   1.902   0.858  0.2143  0.5947 -0.0569
   20CHTO  C111 8074   4.969   1.777   1.088 -0.4953 -0.1367 -0.1718
   20CHTO  H215 8075   4.968   1.861   1.158 -1.5875 -0.6915  0.4873
   20CHTO   N19 8076   4.844   1.785   1.011 -0.1694  0.2686  0.5116
   20CHTO  H207 8077   4.830   1.706   0.938 -0.0406  2.2049 -1.6833
   20CHTO  H208 8078   4.769   1.803   1.086  1.9328  2.7445  2.0773
   20CHTO   O74 8079   5.348   1.774   1.046  0.6398 -0.0208  0.3141
   20CHTO  C115 8080   5.452   1.899   1.060  0.5165  0.1677  0.0078
   20CHTO  H219 8081   5.422   1.970   1.137 -1.2551  1.5651 -1.9467
   20CHTO   O76 8082   5.597   1.852   1.104 -0.1795  0.0776  0.2460
   20CHTO  C122 8083   5.657   1.749   1.023 -0.2692 -0.2358 -0.5152
   20CHTO  H226 8084   5.623   1.654   1.064  0.0845  0.6268  1.8558
   20CHTO  C126 8085   5.813   1.741   1.043  0.5715 -0.1169 -0.0659
   20CHTO   O85 8086   5.879   1.865   0.994 -0.1225  0.1516 -0.2977
   20CHTO  H206 8087   5.868   1.936   1.054 -0.1800 -0.1731  0.0825
   20CHTO  C121 8088   5.626   1.774   0.866  0.6017  0.0190 -0.2314
   20CHTO  H225 8089   5.720   1.748   0.813  0.7424 -0.0298  0.0390
   20CHTO   O81 8090   5.533   1.686   0.815 -0.4692  0.3963 -0.4777
   20CHTO  H202 8091   5.518   1.711   0.725  1.4128 -2.6250 -1.7252
   20CHTO  C119 8092   5.587   1.925   0.840 -0.5841  0.3349  0.0765
   20CHTO  H223 8093   5.668   1.989   0.876 -2.0021  1.3465  1.6177
   20CHTO  C117 8094   5.459   1.968   0.920  0.0468  0.2708 -0.6610
   20CHTO  H221 8095   5.371   1.928   0.871  0.0115 -0.4137 -0.0430
   20CHTO   N20 8096   5.443   2.120   0.915  0.2485  0.4259 -0.2450
   20CHTO  H209 8097   5.366   2.158   0.981  1.5314  2.3429  0.1887
   20CHTO  H210 8098   5.399   2.157   0.823 -0.5727  0.1891  0.0494
   20CHTO   O80 8099   5.571   1.958   0.685 -0.8430  0.2195  0.0172
   20CHTO  C103 8100   5.699   1.936   0.590  0.2704  0.6920  0.0317
   20CHTO  H190 8101   5.792   1.911   0.641 -0.7736 -0.7071  1.3137
   20CHTO  C101 8102   5.678   1.823   0.487 -0.3953 -0.4998  0.2781
   20CHTO  H188 8103   5.574   1.837   0.459 -0.9185 -0.8579  1.9828
   20CHTO   O68 8104   5.688   1.670   0.558  0.4419 -0.4689  0.4935
   20CHTO  H168 8105   5.677   1.610   0.487 -0.1029  1.1662 -0.8576
   20CHTO   C99 8106   5.770   1.842   0.358  0.4031 -0.6033 -0.6398
   20CHTO  H186 8107   5.879   1.835   0.372  0.5834  1.6335 -0.7747
   20CHTO   N17 8108   5.741   1.729   0.262 -0.4931  0.0155  0.1362
   20CHTO  H174 8109   5.786   1.635   0.292 -2.1457 -1.8210 -2.8584
   20CHTO  H175 8110   5.769   1.764   0.163  0.4722  1.0319  0.7615
   20CHTO   C97 8111   5.751   1.986   0.306 -0.1471  0.3954  0.8377
   20CHTO  H184 8112   5.645   2.008   0.289 -0.4135 -2.1920 -1.3093
   20CHTO   O64 8113   5.806   2.078   0.400 -0.5009  0.2489 -0.4409
   20CHTO  C104 8114   5.723   2.082   0.520 -0.3134  0.4701 -1.2797
   20CHTO  H191 8115   5.623   2.124   0.507 -1.3457 -1.3391  0.4172
   20CHTO  C108 8116   5.787   2.173   0.624  0.8160  0.0625  0.2522
   20CHTO   O71 8117   5.826   2.298   0.564  0.2659  0.5420 -0.2416
   20CHTO  H171 8118   5.914   2.282   0.533 -0.3128 -0.6084 -1.3216
   20CHTO   O62 8119   5.815   2.003   0.174  0.3740  0.9523 -0.2512
   20CHTO   C91 8120   5.798   2.128   0.111 -0.6725 -0.0801  0.3008
   20CHTO  H178 8121   5.722   2.185   0.165  0.2849  2.4660 -0.9355
   20CHTO   C92 8122   5.733   2.123  -0.030  0.3511 -0.3246  0.5233
   20CHTO  H179 8123   5.806   2.089  -0.105 -0.4627  2.3504 -1.5831
   20CHTO   O66 8124   5.615   2.041  -0.030  0.5628 -0.7081 -0.3449
   20CHTO  H166 8125   5.637   1.955  -0.058  0.0833 -0.9243 -0.0611
   20CHTO   C93 8126   5.693   2.266  -0.074  0.3630  0.0386  0.4925
   20CHTO  H180 8127   5.607   2.294  -0.011  0.0663 -0.4079  0.2909
   20CHTO   N16 8128   5.652   2.269  -0.213  0.1634 -0.3554  0.4673
   20CHTO  H172 8129   5.656   2.366  -0.261 -0.0727 -1.4332 -1.7931
   20CHTO  H173 8130   5.554   2.223  -0.221  0.1762 -0.2568 -0.2879
   20CHTO   C94 8131   5.808   2.371  -0.042 -0.1675 -0.4385  0.5410
   20CHTO  H181 8132   5.889   2.365  -0.114  1.4411 -0.1369  2.2784
   20CHTO   O61 8133   5.871   2.354   0.084  0.5852  0.1294  0.0076
   20CHTO   C95 8134   5.926   2.224   0.096 -0.2008  1.6872  0.0445
   20CHTO  H182 8135   5.987   2.206   0.007 -0.1801 -1.1617  0.5873
   20CHTO  C106 8136   6.030   2.224   0.225 -0.2943  0.4956  0.0627
   20CHTO   O69 8137   6.144   2.305   0.183  0.5704  0.6554  0.0360
   20CHTO  H169 8138   6.203   2.245   0.142 -0.5067 -0.4610  0.0574
   20CHTO   O63 8139   5.750   2.518  -0.036  0.2625 -0.6564 -0.0501
   20CHTO   C96 8140   5.715   2.611  -0.161 -0.0169 -0.6860 -0.2552
   20CHTO  H183 8141   5.635   2.563  -0.219 -0.2704 -1.7046  0.8953
   20CHTO   C98 8142   5.843   2.645  -0.245  0.3832  0.0161  0.1823
   20CHTO  H185 8143   5.918   2.683  -0.174  1.5226 -0.9376 -0.4977
   20CHTO   O67 8144   5.902   2.519  -0.298 -0.3842 -0.1993 -0.6700
   20CHTO  H167 8145   5.976   2.489  -0.248  0.0637  1.5717 -0.2182
   20CHTO  C102 8146   5.816   2.755  -0.361 -0.0549 -0.1196  0.3405
   20CHTO  H189 8147   5.761   2.701  -0.440 -0.3030 -1.4538  1.4029
   20CHTO   N18 8148   5.940   2.802  -0.428  0.0386  0.4992 -0.2182
   20CHTO  H176 8149   5.923   2.836  -0.529  0.5206  1.7286  0.1084
   20CHTO  H177 8150   5.995   2.869  -0.363 -0.1314  1.4099 -0.9980
   20CHTO  C105 8151   5.730   2.870  -0.300  0.1087 -0.1553 -1.0317
   20CHTO  H192 8152   5.790   2.931  -0.233 -1.0111  1.6002 -1.6013
   20CHTO   O65 8153   5.614   2.821  -0.232  0.2680  0.6738 -0.0402
   20CHTO  C100 8154   5.653   2.740  -0.122 -0.5566  0.0681 -0.3025
   20CHTO  H187 8155   5.729   2.796  -0.065 -0.6849 -0.9380  0.8695
   20CHTO  C107 8156   5.527   2.720  -0.033 -0.5925  0.0924 -0.2071
   20CHTO   O70 8157   5.483   2.838   0.039 -0.9394  0.8552  0.7036
   20CHTO  H170 8158   5.405   2.822   0.088 -1.4512 -0.5487 -0.5132
   20CHTO   O57 8159   5.669   2.945  -0.432  0.3156  0.3988 -0.0154
   20CHTO   C85 8160   5.641   3.082  -0.454  0.3468  0.0328  0.3811
   20CHTO  H157 8161   5.635   3.131  -0.355  2.9204  0.7949  0.2104
   20CHTO   C83 8162   5.499   3.100  -0.516  0.0653 -0.3623 -0.2402
   20CHTO  H155 8163   5.424   3.056  -0.451 -0.0583 -2.2332 -1.6100
   20CHTO   O56 8164   5.486   3.021  -0.636 -0.0587  0.1061  0.0322
   20CHTO  H135 8165   5.531   3.065  -0.704  0.7259 -1.0644 -0.2309
   20CHTO   C81 8166   5.466   3.251  -0.522 -0.2973 -0.6947  0.6588
   20CHTO  H153 8167   5.477   3.293  -0.421 -2.5375 -1.1795  1.1177
   20CHTO   N14 8168   5.325   3.290  -0.561 -0.0274  0.4501  0.1158
   20CHTO  H141 8169   5.299   3.283  -0.664 -4.4546 -3.2137  1.3142
   20CHTO  H142 8170   5.252   3.249  -0.494 -0.1063  2.2390  1.1646
   20CHTO   C79 8171   5.571   3.320  -0.618  0.3707  1.0438 -0.7204
   20CHTO  H151 8172   5.559   3.428  -0.615  1.9089  1.2098  0.0384
   20CHTO   O52 8173   5.702   3.301  -0.566  0.2281 -0.2329  0.7119
   20CHTO   C86 8174   5.748   3.159  -0.549 -0.9773 -0.0046  0.1302
   20CHTO  H158 8175   5.746   3.119  -0.653 -1.3486  1.5968 -0.4867
   20CHTO   C90 8176   5.900   3.161  -0.512  0.0809  0.2204 -0.3351
   20CHTO   O60 8177   5.921   3.192  -0.374  0.2092  0.7772 -1.0785
   20CHTO  H138 8178   5.991   3.132  -0.353 -2.4601 -2.0559  0.0237
   20CHTO   O50 8179   5.565   3.281  -0.753  0.1112  1.2158  0.0429
   20CHTO   C73 8180   5.644   3.253  -0.870  0.2002 -0.3042  0.8867
   20CHTO  H145 8181   5.708   3.163  -0.863  1.9474  0.8687  0.3485
   20CHTO   C74 8182   5.744   3.373  -0.896 -0.1830 -0.6669 -0.3960
   20CHTO  H146 8183   5.808   3.390  -0.808 -1.6210 -2.8038  1.1247
   20CHTO   O54 8184   5.835   3.329  -1.001  0.1798 -0.0041  0.2602
   20CHTO  H133 8185   5.891   3.400  -1.024  0.0734 -0.6565 -2.1353
   20CHTO   C75 8186   5.658   3.505  -0.928 -0.3303  0.2601  0.1936
   20CHTO  H147 8187   5.607   3.532  -0.835 -1.8462 -0.8772 -0.2826
   20CHTO   N13 8188   5.733   3.624  -0.974  0.0545  0.4678  0.3751
   20CHTO  H139 8189   5.834   3.606  -0.942 -0.4838 -0.5672  1.5641
   20CHTO  H140 8190   5.688   3.712  -0.930 -2.1751 -0.4308 -0.0157
   20CHTO   C76 8191   5.555   3.480  -1.047 -0.4997  0.0822  0.2053
   20CHTO  H148 8192   5.610   3.465  -1.140 -0.3128  0.0118  0.3264
   20CHTO   O49 8193   5.479   3.360  -1.013 -0.1262  0.1274  0.0383
   20CHTO   C77 8194   5.550   3.238  -0.988 -0.1770  0.9784  0.0977
   20CHTO  H149 8195   5.608   3.216  -1.078 -0.8742 -2.1204  0.3678
   20CHTO   C88 8196   5.449   3.128  -0.969 -0.2466  0.4109 -0.1356
   20CHTO   O58 8197   5.530   2.988  -0.977 -0.1388  0.1937  0.0763
   20CHTO  H136 8198   5.491   2.917  -0.931 -1.0372  1.2746  1.0270
   20CHTO   O51 8199   5.449   3.627  -1.053  0.1630  0.6061 -0.1915
   20CHTO   C78 8200   5.345   3.638  -0.927  0.5444  0.1491  0.5888
   20CHTO  H150 8201   5.374   3.581  -0.836  2.5366  1.8354  1.0606
   20CHTO   C80 8202   5.205   3.589  -0.973  0.1405  0.1054  0.2771
   20CHTO  H152 8203   5.177   3.642  -1.066  0.0884 -0.0395  0.2105
   20CHTO   O55 8204   5.219   3.455  -1.008 -0.3994  0.1726  0.2351
   20CHTO  H134 8205   5.135   3.413  -1.015  0.0923 -0.5240 -2.1799
   20CHTO   C84 8206   5.099   3.612  -0.856 -0.1217 -0.2938  0.2047
   20CHTO  H156 8207   5.137   3.554  -0.772  0.7903  1.5573  1.1021
   20CHTO   N15 8208   4.959   3.566  -0.882 -0.1963 -0.4017  0.1066
   20CHTO  H143 8209   4.913   3.640  -0.943 -2.8253 -1.0274  1.2650
   20CHTO  H144 8210   4.910   3.572  -0.787  0.2611 -2.4076  0.4794
   20CHTO   C87 8211   5.103   3.760  -0.805  0.2354  0.1469  0.6655
   20CHTO  H159 8212   5.055   3.826  -0.878  0.2165 -0.3230  0.2499
   20CHTO   O53 8213   5.246   3.806  -0.778 -0.4182 -0.1343  0.3543
   20CHTO   C82 8214   5.326   3.787  -0.890  0.9065 -0.0990 -0.0451
   20CHTO  H154 8215   5.284   3.841  -0.975  0.8653  0.6862  0.4727
   20CHTO   C89 8216   5.463   3.848  -0.862 -0.8838 -0.3201 -0.4201
   20CHTO   O59 8217   5.526   3.779  -0.748  0.9550 -0.4026 -0.3164
   20CHTO  H137 8218   5.620   3.786  -0.755  0.9966  2.0625  1.8307
   20CHTO   O45 8219   5.012   3.776  -0.647 -0.9091 -0.4789  0.3512
   20CHTO   C67 8220   5.079   3.707  -0.536  0.0742 -0.2888  0.7199
   20CHTO  H124 8221   5.116   3.610  -0.569 -1.4979 -0.6102 -0.1027
   20CHTO   C65 8222   5.200   3.788  -0.480  0.8070  0.2109  0.1644
   20CHTO  H122 8223   5.216   3.874  -0.545 -0.5341 -1.9883 -3.2069
   20CHTO   O44 8224   5.318   3.707  -0.498  0.1313  0.3378 -0.2387
   20CHTO  H102 8225   5.401   3.750  -0.495 -0.2887  1.1193  0.2890
   20CHTO   C63 8226   5.171   3.857  -0.335 -0.4291 -0.0659  0.0816
   20CHTO  H120 8227   5.084   3.922  -0.349 -1.6536 -2.0408 -2.0108
   20CHTO   N11 8228   5.273   3.948  -0.277 -0.0759 -0.2095 -0.0341
   20CHTO  H108 8229   5.281   3.923  -0.173 -1.7871  2.5493  0.8419
   20CHTO  H109 8230   5.371   3.924  -0.313 -0.1965 -1.3702  0.3957
   20CHTO   C61 8231   5.126   3.744  -0.247  0.1464  0.3410  0.2861
   20CHTO  H118 8232   5.095   3.779  -0.147 -0.3364 -0.5351  0.4494
   20CHTO   O40 8233   5.024   3.650  -0.299 -0.1073  0.1012  0.0312
   20CHTO   C68 8234   4.973   3.679  -0.432  0.3420  0.5433 -0.6119
   20CHTO  H125 8235   4.916   3.772  -0.415  0.2712  0.5221 -0.7362
   20CHTO   C72 8236   4.878   3.559  -0.481  0.0298 -0.0961  0.3458
   20CHTO   O48 8237   4.956   3.440  -0.485 -0.5666 -0.2179  0.0937
   20CHTO  H105 8238   4.905   3.376  -0.530  1.0005 -2.1012  0.9634
   20CHTO   O38 8239   5.238   3.662  -0.211 -0.2870 -0.2182  0.0375
   20CHTO   C55 8240   5.231   3.599  -0.079  0.7365  0.0090  0.8903
   20CHTO  H112 8241   5.122   3.586  -0.065  0.4070  2.0055  0.2484
   20CHTO   C56 8242   5.297   3.677   0.032 -0.5246  0.4527  0.5645
   20CHTO  H113 8243   5.394   3.703  -0.012 -1.2907  2.4303 -0.0186
   20CHTO   O42 8244   5.229   3.791   0.072 -0.2605  0.5582  0.2398
   20CHTO  H100 8245   5.295   3.855   0.091  1.0286 -0.2380 -1.5331
   20CHTO   C57 8246   5.317   3.589   0.157  0.0497  0.5180  0.2445
   20CHTO  H114 8247   5.230   3.579   0.223  1.4120 -2.7241  1.6874
   20CHTO   N10 8248   5.408   3.643   0.261 -0.3113 -0.5400 -0.5788
   20CHTO  H106 8249   5.378   3.741   0.295  1.8075  0.7397 -2.2903
   20CHTO  H107 8250   5.422   3.577   0.345  0.5904  0.3120 -0.0551
   20CHTO   C58 8251   5.366   3.446   0.123 -0.0536  0.8921 -0.6921
   20CHTO  H115 8252   5.468   3.448   0.079  0.5357 -0.7381  0.5542
   20CHTO   O37 8253   5.280   3.382   0.029  0.6300  0.2435 -0.5095
   20CHTO   C59 8254   5.286   3.447  -0.098 -0.5018  0.3960 -0.4174
   20CHTO  H116 8255   5.391   3.445  -0.127 -0.0056 -0.4352  1.4024
   20CHTO   C70 8256   5.207   3.367  -0.208 -0.2776 -0.9872 -0.1090
   20CHTO   O46 8257   5.067   3.362  -0.188  0.2045  0.4994 -0.5258
   20CHTO  H103 8258   5.029   3.299  -0.247 -1.5743  1.2972 -0.2512
   20CHTO   O39 8259   5.360   3.355   0.274  0.1689  0.1618 -0.4606
   20CHTO   C60 8260   5.446   3.245   0.273  0.0796  0.0328 -0.0420
   20CHTO  H117 8261   5.488   3.227   0.174 -1.0975 -1.1661 -0.3388
   20CHTO   C62 8262   5.558   3.261   0.384  0.0866 -0.0168 -0.2666
   20CHTO  H119 8263   5.628   3.342   0.355  0.7748 -0.2967  0.6117
   20CHTO   O43 8264   5.490   3.287   0.506 -0.6237 -0.1472 -0.4913
   20CHTO  H101 8265   5.547   3.335   0.564 -1.0902  0.8688 -0.8666
   20CHTO   C66 8266   5.640   3.124   0.388 -0.6756 -0.0396 -0.1296
   20CHTO  H123 8267   5.673   3.110   0.284  0.4903  0.2572  0.1882
   20CHTO   N12 8268   5.758   3.135   0.479  0.7465  0.7207  0.5090
   20CHTO  H110 8269   5.825   3.050   0.485 -1.2265 -1.1326 -2.3886
   20CHTO  H111 8270   5.810   3.227   0.457  1.8869  0.3776  1.6694
   20CHTO   C69 8271   5.540   3.009   0.430 -0.0541  0.0762  0.5283
   20CHTO  H126 8272   5.491   3.034   0.527 -1.6857  1.0688 -0.5427
   20CHTO   O41 8273   5.433   2.991   0.330 -0.3684 -0.4381 -0.2244
   20CHTO   C64 8274   5.358   3.121   0.303  0.3260 -0.1203 -0.0258
   20CHTO  H121 8275   5.309   3.142   0.400  1.3921  1.5338  0.1712
   20CHTO   C71 8276   5.245   3.101   0.192 -0.5589  0.6390 -0.3282
   20CHTO   O47 8277   5.145   3.013   0.243  0.1204  0.4431  0.0455
   20CHTO  H104 8278   5.155   2.928   0.205 -1.4032  0.6915 -0.9473
   20CHTO   O34 8279   5.603   2.875   0.469  0.2044  0.6885  0.2548
   20CHTO   C49 8280   5.542   2.738   0.451  0.0093  0.3177 -0.6313
   20CHTO   H91 8281   5.493   2.725   0.355 -2.2061 -0.7414  0.5875
   20CHTO   C47 8282   5.434   2.706   0.558  0.3042 -0.0707 -0.1421
   20CHTO   H89 8283   5.338   2.732   0.510 -0.9277  0.0819  2.3279
   20CHTO   O33 8284   5.451   2.790   0.675 -0.0098 -0.3375 -0.6508
   20CHTO   H70 8285   5.403   2.869   0.663 -1.2748 -1.2037 -1.3956
   20CHTO   C45 8286   5.441   2.547   0.613 -0.3962 -0.3804  0.4300
   20CHTO   H87 8287   5.518   2.532   0.691  0.2929 -1.2701 -0.4082
   20CHTO    N8 8288   5.309   2.508   0.677 -0.1155 -0.5186  0.0195
   20CHTO   H75 8289   5.315   2.425   0.746 -1.3348 -0.0232  0.7349
   20CHTO   H76 8290   5.229   2.501   0.604  0.7429 -0.6609 -0.9135
   20CHTO   C43 8291   5.488   2.453   0.493 -0.0943 -0.3351  0.1668
   20CHTO   H85 8292   5.498   2.354   0.538 -1.5988 -0.4711  0.2222
   20CHTO   O29 8293   5.609   2.495   0.416 -0.0612  0.5073 -0.1959
   20CHTO   C50 8294   5.652   2.630   0.445  0.3254 -0.6276 -1.0052
   20CHTO   H92 8295   5.702   2.625   0.543 -2.0063  0.2832  0.2638
   20CHTO   C54 8296   5.764   2.651   0.344 -0.0689 -0.2598  0.2546
   20CHTO   O36 8297   5.875   2.568   0.384 -0.2955  0.0501  0.2524
   20CHTO   H72 8298   5.879   2.500   0.319  0.0382  0.3132 -0.0057
   20CHTO   O27 8299   5.385   2.431   0.396 -0.0356  0.0994  0.2697
   20CHTO   C37 8300   5.317   2.373   0.283 -0.2911  0.0274  0.4427
   20CHTO   H79 8301   5.210   2.367   0.311 -0.8251 -1.5712 -1.7744
   20CHTO   C38 8302   5.326   2.455   0.151 -0.1119  0.0683 -0.4524
   20CHTO   H80 8303   5.431   2.456   0.117  0.6753  0.2256  1.9157
   20CHTO   O31 8304   5.283   2.586   0.179 -0.3248  0.1812  0.1443
   20CHTO   H68 8305   5.335   2.625   0.246 -0.3883 -0.9987  0.8871
   20CHTO   C39 8306   5.245   2.393   0.037 -0.6375  0.5196  0.8867
   20CHTO   H81 8307   5.144   2.390   0.079 -0.9426  2.9943  0.4264
   20CHTO    N7 8308   5.255   2.467  -0.099 -0.4967  0.1543 -0.7339
   20CHTO   H73 8309   5.187   2.417  -0.166 -1.2812  0.6492 -0.3243
   20CHTO   H74 8310   5.213   2.566  -0.083 -1.4699 -0.4793  0.7229
   20CHTO   C40 8311   5.289   2.238   0.022 -0.1016  0.3573 -0.6689
   20CHTO   H82 8312   5.388   2.237  -0.024  0.3009  0.5678  0.1859
   20CHTO   O26 8313   5.286   2.163   0.145 -0.2714 -0.3988 -0.0015
   20CHTO   C41 8314   5.366   2.225   0.255  0.4583 -0.1384  0.0503
   20CHTO   H83 8315   5.473   2.226   0.229 -0.0126  0.3563 -2.0026
   20CHTO   C52 8316   5.338   2.138   0.380 -0.0005 -0.8541 -0.3117
   20CHTO   O35 8317   5.361   1.994   0.346 -0.4534  0.0580  0.0986
   20CHTO   H71 8318   5.315   1.941   0.408 -2.0177  3.0155  1.5560
   20CHTO   O28 8319   5.201   2.165  -0.066  0.2040  0.5743  0.1895
   20CHTO   C42 8320   5.236   2.044  -0.144 -0.7979  0.2466  0.6283
   20CHTO   H84 8321   5.136   2.019  -0.181  0.2359 -2.0393 -0.7358
   20CHTO   C44 8322   5.294   1.926  -0.066 -0.3362 -0.3152  0.5751
   20CHTO   H86 8323   5.376   1.963  -0.005 -0.3204 -0.4522  0.6369
   20CHTO   O32 8324   5.193   1.885   0.023 -0.1975 -0.1640  0.5589
   20CHTO   H69 8325   5.229   1.838   0.096  0.2436  0.3048  0.6397
   20CHTO   C48 8326   5.342   1.791  -0.151 -0.5385  0.1130  0.3099
   20CHTO   H90 8327   5.256   1.765  -0.213  0.9278 -0.8592 -1.3603
   20CHTO    N9 8328   5.380   1.669  -0.068  0.1947 -0.1241 -0.0719
   20CHTO   H77 8329   5.446   1.610  -0.129  0.1732 -1.9607  1.6414
   20CHTO   H78 8330   5.439   1.720   0.007  0.1133  1.7992 -1.2655
   20CHTO   C51 8331   5.452   1.848  -0.249 -0.9866  0.3468 -0.5526
   20CHTO   H93 8332   5.535   1.896  -0.196  1.6777 -3.4073 -1.1715
   20CHTO   O30 8333   5.381   1.936  -0.339 -0.0337 -0.2797 -0.2106
   20CHTO   C46 8334   5.329   2.076  -0.273  0.2501 -0.2384 -0.0678
   20CHTO   H88 8335   5.418   2.132  -0.244  0.2211  0.0323 -0.5167
   20CHTO   C53 8336   5.254   2.151  -0.381 -1.2433 -0.3925  0.7395
   20CHTO   O72 8337   5.132   2.080  -0.415 -0.3117 -0.3791 -0.0405
   20CHTO  H199 8338   5.049   2.121  -0.403 -0.4816 -0.0712 -2.1156
   20CHTO   O22 8339   5.516   1.753  -0.341 -0.5361 -1.0107 -0.3969
   20CHTO   C31 8340   5.669   1.750  -0.356  0.7585  0.0475  0.1257
   20CHTO   H59 8341   5.681   1.695  -0.452 -0.0399 -1.3755  0.8247
   20CHTO   C29 8342   5.742   1.890  -0.381  0.1694  0.2053 -0.3551
   20CHTO   H57 8343   5.712   1.954  -0.296 -1.9727 -0.9889 -0.1657
   20CHTO   O21 8344   5.689   1.946  -0.499  0.1604  0.0856  0.1282
   20CHTO   H37 8345   5.627   2.013  -0.477  1.3853  0.9470  1.0684
   20CHTO   C27 8346   5.895   1.882  -0.385  0.2609  0.0881  0.2939
   20CHTO   H55 8347   5.924   1.843  -0.484  2.0548  0.2481  0.7325
   20CHTO    N5 8348   5.968   2.012  -0.369  0.2486  1.0861  0.6761
   20CHTO   H43 8349   5.894   2.086  -0.341 -0.1477  0.3449  1.6392
   20CHTO   H44 8350   6.012   2.042  -0.463  2.6801  0.7742  1.6945
   20CHTO   C25 8351   5.956   1.771  -0.300 -0.7552  0.6522 -0.3929
   20CHTO   H53 8352   5.976   1.808  -0.198 -1.1880 -1.0171  0.3164
   20CHTO   O17 8353   5.881   1.649  -0.296 -0.1133 -0.4104  0.2137
   20CHTO   C32 8354   5.749   1.670  -0.250 -0.3701  0.3121  0.3107
   20CHTO   H60 8355   5.750   1.718  -0.152 -0.1668 -0.4395  0.6858
   20CHTO   C36 8356   5.692   1.521  -0.242  0.9406  0.0991  0.5259
   20CHTO   O25 8357   5.730   1.470  -0.115 -0.3553 -0.0898  0.0975
   20CHTO   H40 8358   5.661   1.448  -0.056 -0.8407  0.5170 -0.2405
   20CHTO   O15 8359   6.098   1.746  -0.346  0.5169 -0.1039  0.2315
   20CHTO   C19 8360   6.227   1.725  -0.407  0.9437 -0.2994 -0.4725
   20CHTO   H47 8361   6.203   1.745  -0.512 -1.9753  2.8422  0.7029
   20CHTO   C20 8362   6.336   1.827  -0.350 -0.3758  0.3957  0.2237
   20CHTO   H48 8363   6.344   1.823  -0.241 -0.3853 -1.1097  0.1790
   20CHTO   O19 8364   6.285   1.959  -0.382  0.3093 -0.1773  0.3348
   20CHTO   H35 8365   6.345   2.026  -0.359 -0.8524  1.0727 -0.1643
   20CHTO   C21 8366   6.480   1.808  -0.420 -0.0811  0.3535  0.2185
   20CHTO   H49 8367   6.475   1.840  -0.524 -0.3369  0.1200  0.1578
   20CHTO    N4 8368   6.593   1.891  -0.369  0.1607  0.2517 -0.0173
   20CHTO   H41 8369   6.557   1.977  -0.315 -0.6658  0.0746 -0.2807
   20CHTO   H42 8370   6.653   1.834  -0.300  1.5447  0.5751 -0.9410
   20CHTO   C22 8371   6.518   1.657  -0.422  1.3193  0.1484 -0.6851
   20CHTO   H50 8372   6.536   1.630  -0.318  0.5791 -0.8675 -0.8076
   20CHTO   O14 8373   6.407   1.572  -0.475  0.1012 -0.3762  0.3057
   20CHTO   C23 8374   6.285   1.579  -0.401 -0.0566  0.3625 -0.0382
   20CHTO   H51 8375   6.315   1.543  -0.301  0.4450 -2.2787 -1.0751
   20CHTO   C34 8376   6.205   1.461  -0.465 -0.6479 -0.7841  0.4369
   20CHTO   O23 8377   6.113   1.410  -0.359 -0.2996 -0.4267 -0.3411
   20CHTO   H38 8378   6.035   1.462  -0.348 -0.5103 -0.9192  0.5511
   20CHTO   O16 8379   6.636   1.634  -0.505  0.0005  0.2220 -0.0199
   20CHTO   C24 8380   6.692   1.483  -0.504  0.0519 -0.3557 -0.2364
   20CHTO   H52 8381   6.623   1.415  -0.454  0.3066 -0.4494 -0.0122
   20CHTO   C26 8382   6.826   1.471  -0.427 -0.3124 -0.3693  0.2522
   20CHTO   H54 8383   6.904   1.519  -0.489  0.9575 -1.9955  0.5537
   20CHTO   O20 8384   6.813   1.554  -0.310  0.2135  0.6148  0.1407
   20CHTO   H36 8385   6.818   1.646  -0.328  1.5343  0.6479  0.6434
   20CHTO   C30 8386   6.869   1.324  -0.402  0.0252 -0.7613  0.6059
   20CHTO   H58 8387   6.847   1.294  -0.298 -0.4508  0.6098  0.9163
   20CHTO    N6 8388   7.014   1.302  -0.405 -0.6090 -0.0040  0.1550
   20CHTO   H45 8389   7.050   1.253  -0.493 -0.2371  0.3998  0.0836
   20CHTO   H46 8390   7.037   1.243  -0.318 -0.8364 -0.1684  0.1035
   20CHTO   C33 8391   6.791   1.227  -0.503 -0.2879  0.5615  0.6991
   20CHTO   H61 8392   6.842   1.131  -0.522 -2.0497 -0.1350 -0.7088
   20CHTO   O18 8393   6.779   1.293  -0.632  0.0499  0.0075 -0.3212
   20CHTO   C28 8394   6.721   1.425  -0.642  0.3107  0.2746 -0.0178
   20CHTO   H56 8395   6.787   1.491  -0.698 -1.0461  0.4432 -1.4765
   20CHTO   C35 8396   6.588   1.412  -0.729  0.0063  0.1708 -0.7537
   20CHTO   O24 8397   6.479   1.340  -0.674  0.0138  0.3247  0.1114
   20CHTO   H39 8398   6.418   1.397  -0.632 -1.2292 -2.1094  1.6855
   20CHTO    O9 8399   6.663   1.190  -0.453 -0.1934  0.0607 -0.7844
   20CHTO   C13 8400   6.653   1.058  -0.391  0.8435 -0.1347  0.2936
   20CHTO   H26 8401   6.740   1.052  -0.322  1.0397 -0.9706 -0.0199
   20CHTO   C11 8402   6.657   0.944  -0.498  0.4159  0.3240  0.0952
   20CHTO   H24 8403   6.759   0.935  -0.538  0.1846 -3.9881  0.2642
   20CHTO    O8 8404   6.560   0.974  -0.600  0.2263 -0.2473 -0.0689
   20CHTO    H3 8405   6.472   0.947  -0.582 -0.5735  0.2710 -2.8968
   20CHTO    C9 8406   6.625   0.816  -0.417  0.5765  0.0546  0.1775
   20CHTO   H22 8407   6.685   0.821  -0.325  4.8675  0.5121 -2.5599
   20CHTO    N2 8408   6.669   0.692  -0.490  0.2955  0.1537 -0.0147
   20CHTO   H10 8409   6.611   0.605  -0.465  1.2220 -1.3264 -2.7860
   20CHTO   H11 8410   6.665   0.713  -0.596  0.8803  2.3123  0.3688
   20CHTO    C7 8411   6.474   0.814  -0.370 -0.2621 -0.1434 -0.3984
   20CHTO   H20 8412   6.470   0.740  -0.288 -0.3871  0.1642 -0.1271
   20CHTO    O4 8413   6.428   0.950  -0.343 -0.4099 -0.3406 -0.0228
   20CHTO   C14 8414   6.521   1.047  -0.291 -0.3877 -0.3381  0.2248
   20CHTO   H27 8415   6.556   1.015  -0.191 -1.8758 -0.9512  0.5656
   20CHTO   C18 8416   6.449   1.184  -0.272  0.1598 -0.2433  0.0902
   20CHTO   O13 8417   6.535   1.291  -0.238 -0.2334 -0.0479 -0.3584
   20CHTO    H7 8418   6.615   1.272  -0.284  0.4034 -1.0664  1.1133
   20CHTO    O2 8419   6.378   0.747  -0.489 -0.5741 -0.3364 -0.4724
   20CHTO    C1 8420   6.271   0.670  -0.429  0.5733 -0.1631  0.7112
   20CHTO   H14 8421   6.254   0.699  -0.323  0.2234 -1.0534  0.9050
   20CHTO    C2 8422   6.294   0.517  -0.427  0.5756 -0.6983  0.5706
   20CHTO   H15 8423   6.290   0.476  -0.529  0.3186 -2.0968  1.1402
   20CHTO    O6 8424   6.414   0.499  -0.355 -0.1373 -0.5517 -0.6185
   20CHTO    H1 8425   6.486   0.476  -0.410  0.3788 -2.5246  0.8353
   20CHTO    C3 8426   6.175   0.443  -0.359  0.0770 -0.6016  0.9075
   20CHTO   H16 8427   6.166   0.490  -0.259  0.3279  2.3373 -0.4014
   20CHTO    N1 8428   6.201   0.297  -0.345  0.0963 -0.4271  0.3335
   20CHTO    H8 8429   6.112   0.238  -0.323 -0.1766 -0.5362 -1.0580
   20CHTO    H9 8430   6.285   0.274  -0.282  2.1566  0.2635 -2.1201
   20CHTO    C4 8431   6.036   0.481  -0.429  0.1301 -1.0833 -0.5601
   20CHTO   H17 8432   6.043   0.453  -0.535  0.4655  1.0311 -1.1116
   20CHTO    O1 8433   6.024   0.624  -0.434 -0.3331 -0.7893  0.0926
   20CHTO    C5 8434   6.135   0.695  -0.497  0.5302 -0.2640  0.0340
   20CHTO   H18 8435   6.142   0.662  -0.600 -3.6738  1.2146 -0.8171
   20CHTO   C16 8436   6.117   0.850  -0.498 -0.1747 -0.1684  0.2612
   20CHTO   O11 8437   6.024   0.893  -0.599 -0.2437  0.3017  0.5683
   20CHTO    H5 8438   5.940   0.882  -0.560 -1.3990  1.3748 -1.4962
   20CHTO    O3 8439   5.912   0.435  -0.365 -0.3415  0.2048  0.3167
   20CHTO    C6 8440   5.790   0.424  -0.442  0.1855  0.3676  0.9284
   20CHTO   H19 8441   5.799   0.489  -0.530 -0.1948 -1.1916 -0.2965
   20CHTO    C8 8442   5.755   0.282  -0.487  0.6343  0.6469  0.7088
   20CHTO   H21 8443   5.747   0.214  -0.403  2.3788 -1.4133 -0.7568
   20CHTO    O7 8444   5.863   0.224  -0.569  1.0349 -0.2311  0.3383
   20CHTO    H2 8445   5.942   0.232  -0.520  0.9550  4.3598 -0.0534
   20CHTO   C12 8446   5.611   0.274  -0.562 -0.4876 -0.1741  0.6117
   20CHTO   H25 8447   5.629   0.316  -0.663 -0.4306 -0.0079  0.6916
   20CHTO    N3 8448   5.568   0.134  -0.590  0.3792 -0.4882  0.4125
   20CHTO   H12 8449   5.468   0.124  -0.630  0.3540  1.3343 -0.0299
   20CHTO   H13 8450   5.584   0.065  -0.509 -1.4245  0.0596  1.2402
   20CHTO   C15 8451   5.507   0.357  -0.486  0.3676  0.5248 -0.2683
   20CHTO   H28 8452   5.465   0.311  -0.397  1.4949  0.8227  0.4257
   20CHTO   O10 8453   5.378   0.403  -0.572  0.5360 -0.4797 -0.6711
   20CHTO    H4 8454   5.330   0.325  -0.591 -0.4203 -0.3307  1.0681
   20CHTO    O5 8455   5.552   0.482  -0.442  0.0985  0.2540  0.4301
   20CHTO   C10 8456   5.673   0.480  -0.362 -0.0974 -0.5757 -0.0174
   20CHTO   H23 8457   5.663   0.414  -0.276  2.1312 -1.3050 -0.2976
   20CHTO   C17 8458   5.704   0.619  -0.306  0.1253  0.3424  0.4720
   20CHTO   O12 8459   5.600   0.677  -0.232  0.4882  0.1751  0.8535
   20CHTO    H6 8460   5.594   0.767  -0.255 -0.6276  0.2992  1.6030
   21GLOH   H03 8461   3.348   8.522   2.276 -0.9053  2.1518 -0.5211
   21GLOH    O1 8462   3.412   8.551   2.208  0.0616  0.0226 -0.5658
   21GLOH    C1 8463   3.351   8.522   2.081 -0.3768 -0.5274 -0.1996
   21GLOH   H02 8464   3.246   8.551   2.085  0.4344  2.2475  3.1329
   21GLOH   H08 8465   3.364   8.416   2.057 -0.4411 -0.7441  0.6984
   21GLOH    C2 8466   3.416   8.606   1.970  0.1704  0.6443 -0.0244
   21GLOH   H04 8467   3.356   8.591   1.879  0.3211 -1.3034  0.1829
   21GLOH    O2 8468   3.400   8.750   1.996  0.1952 -0.5504  0.0560
   21GLOH   H05 8469   3.306   8.770   1.988  0.5173  1.3197  0.6545
   21GLOH    C3 8470   3.569   8.583   1.963 -0.3017  0.3917 -0.2515
   21GLOH   H06 8471   3.604   8.597   2.065  0.8856  1.7537 -0.8104
   21GLOH   H07 8472   3.618   8.661   1.904  0.2564  1.7498  1.9391
   21GLOH    O3 8473   3.608   8.453   1.924  0.3354 -0.2554 -0.6325
   21GLOH   H01 8474   3.655   8.409   1.998 -1.8803 -2.5523 -0.5224
   22GLOH   H03 8475   2.548   9.222   0.327 -0.3026 -1.3374 -3.8600
   22GLOH    O1 8476   2.640   9.191   0.337 -0.3320 -0.4204  0.0146
   22GLOH    C1 8477   2.703   9.223   0.463  0.0391  0.1513  0.6871
   22GLOH   H02 8478   2.672   9.149   0.537  2.6836 -1.9700 -0.1974
   22GLOH   H08 8479   2.682   9.325   0.493 -2.4062  0.5327 -2.1610
   22GLOH    C2 8480   2.855   9.201   0.452 -1.6295  0.5253 -0.5090
   22GLOH   H04 8481   2.896   9.229   0.550  0.3570  1.6950 -1.6462
   22GLOH    O2 8482   2.888   9.060   0.448  0.5312 -0.0164  0.3913
   22GLOH   H05 8483   2.817   9.010   0.493  0.7766 -1.3660 -0.6869
   22GLOH    C3 8484   2.924   9.283   0.342  0.8904 -0.1203  0.0217
   22GLOH   H06 8485   2.886   9.266   0.242  0.3068 -0.3239  0.2780
   22GLOH   H07 8486   3.031   9.264   0.333  1.2420  1.9502 -0.4769
   22GLOH    O3 8487   2.903   9.421   0.366  0.2190 -0.0314 -0.1066
   22GLOH   H01 8488   2.895   9.448   0.273 -1.1743  0.2768  0.0953
   23GLOH   H03 8489   3.085   5.789   0.129 -0.0703  1.8619 -1.0477
   23GLOH    O1 8490   3.006   5.760   0.079  0.0987 -0.2094 -0.1853
   23GLOH    C1 8491   3.047   5.683  -0.041  0.6897 -0.5818 -0.2405
   23GLOH   H02 8492   2.955   5.628  -0.065 -0.0394  0.1324  0.8526
   23GLOH   H08 8493   3.116   5.600  -0.026 -0.4833 -1.6033 -0.3759
   23GLOH    C2 8494   3.080   5.761  -0.170 -0.0691  0.0841  0.6370
   23GLOH   H04 8495   2.998   5.830  -0.192  0.8812  0.5419 -1.5840
   23GLOH    O2 8496   3.194   5.844  -0.149  0.3169 -0.2463 -0.2771
   23GLOH   H05 8497   3.258   5.793  -0.097 -1.4625 -0.3269  1.9143
   23GLOH    C3 8498   3.109   5.665  -0.292  0.4815 -0.3029 -0.2545
   23GLOH   H06 8499   3.029   5.592  -0.306 -0.4090  0.7845 -0.8713
   23GLOH   H07 8500   3.197   5.609  -0.261  0.3350  0.4068  1.5355
   23GLOH    O3 8501   3.132   5.721  -0.423  0.5440  0.4377 -0.1815
   23GLOH   H01 8502   3.221   5.694  -0.451  0.8594  1.2714  0.0149
   24GLOH   H03 8503   4.523   1.659   0.858  0.7142 -1.3830  0.4963
   24GLOH    O1 8504   4.513   1.629   0.766  0.0019 -0.2456  0.1984
   24GLOH    C1 8505   4.560   1.734   0.675  0.6506 -0.2521 -0.0323
   24GLOH   H02 8506   4.614   1.689   0.591 -2.2063 -1.7599 -1.1029
   24GLOH   H08 8507   4.635   1.792   0.728 -1.3892  1.8128  0.6728
   24GLOH    C2 8508   4.454   1.842   0.630  0.4755 -0.3564 -0.0285
   24GLOH   H04 8509   4.358   1.797   0.600 -1.0534  0.3089  3.5726
   24GLOH    O2 8510   4.418   1.934   0.742  0.4616  0.0509  0.1045
   24GLOH   H05 8511   4.494   1.966   0.793  1.2668 -2.3198  0.4315
   24GLOH    C3 8512   4.505   1.923   0.510  0.0651  0.1962 -0.8353
   24GLOH   H06 8513   4.435   1.999   0.475 -0.5832  0.0846  0.2157
   24GLOH   H07 8514   4.529   1.859   0.425 -2.1638 -3.2339  0.9633
   24GLOH    O3 8515   4.627   1.990   0.545 -0.2045 -0.1238  0.9694
   24GLOH   H01 8516   4.603   2.070   0.596 -0.3881  0.6114 -0.2475
   25GLOH   H03 8517   4.387   1.999   1.555  0.1466 -0.8058 -1.1494
   25GLOH    O1 8518   4.326   2.029   1.485 -0.0325  0.5233 -0.4422
   25GLOH    C1 8519   4.323   1.944   1.366  0.3878  0.6854  0.3253
   25GLOH   H02 8520   4.230   1.890   1.352  0.4808 -0.0928  2.5526
   25GLOH   H08 8521   4.402   1.870   1.370  0.6834  1.0423  1.3969
   25GLOH    C2 8522   4.338   2.036   1.240 -0.0107 -0.5506  0.0113
   25GLOH   H04 8523   4.429   2.097   1.243  0.1021 -0.7102 -0.1544
   25GLOH    O2 8524   4.349   1.943   1.133 -0.0790  0.3134 -0.3744
   25GLOH   H05 8525   4.279   1.963   1.069  0.8543 -1.8096 -2.1144
   25GLOH    C3 8526   4.217   2.134   1.233 -0.0065 -0.2493  0.4946
   25GLOH   H06 8527   4.129   2.074   1.211  1.0744 -1.7934  0.3067
   25GLOH   H07 8528   4.223   2.193   1.142 -1.0525  0.5040  0.8968
   25GLOH    O3 8529   4.197   2.207   1.355  0.1006  0.1295  0.2685
   25GLOH   H01 8530   4.222   2.150   1.430 -1.0320 -2.1245 -1.0433
   26GLOH   H03 8531   4.553   3.824   1.884  0.7953  0.6329  0.3558
   26GLOH    O1 8532   4.552   3.880   1.963  0.1014  0.0900  0.7473
   26GLOH    C1 8533   4.433   3.865   2.032 -0.7203  1.4031 -0.6003
   26GLOH   H02 8534   4.421   3.934   2.115  2.5899  0.1588  1.0009
   26GLOH   H08 8535   4.424   3.763   2.069 -0.8265  2.5168  2.6133
   26GLOH    C2 8536   4.317   3.888   1.936 -0.5757  0.0996  0.1043
   26GLOH   H04 8537   4.329   3.813   1.856  1.8852  2.6856 -2.0716
   26GLOH    O2 8538   4.194   3.869   2.016  0.2552 -0.0758 -0.3192
   26GLOH   H05 8539   4.119   3.846   1.959 -0.4481 -2.5058  1.4614
   26GLOH    C3 8540   4.328   4.014   1.850  0.1259  0.7635 -0.1334
   26GLOH   H06 8541   4.418   4.000   1.790  0.2544 -0.9481  0.4274
   26GLOH   H07 8542   4.354   4.092   1.921 -1.7863  0.3559  1.0474
   26GLOH    O3 8543   4.217   4.044   1.762  0.0813 -0.3135 -0.2296
   26GLOH   H01 8544   4.185   3.964   1.717 -1.6346  1.0942 -1.5666
   27GLOH   H03 8545   4.727   3.944   2.374  1.1375  0.5075 -1.2375
   27GLOH    O1 8546   4.745   4.006   2.446 -0.2770 -0.2778 -0.1782
   27GLOH    C1 8547   4.870   3.981   2.506  0.1759  0.1765  0.2845
   27GLOH   H02 8548   4.953   3.993   2.438  0.0225 -2.1787 -0.3691
   27GLOH   H08 8549   4.871   3.878   2.542  0.5099 -0.6189 -1.9224
   27GLOH    C2 8550   4.903   4.075   2.622 -0.1611 -0.2676  0.3123
   27GLOH   H04 8551   4.826   4.059   2.699 -0.0293 -0.3532  0.4268
   27GLOH    O2 8552   5.036   4.048   2.675 -0.4025  0.5210  0.0476
   27GLOH   H05 8553   5.054   4.095   2.758  1.1338 -1.0672  0.6394
   27GLOH    C3 8554   4.910   4.224   2.585  0.2406  0.2797 -0.3478
   27GLOH   H06 8555   4.996   4.232   2.518 -0.4606  1.4820 -1.1252
   27GLOH   H07 8556   4.920   4.281   2.677  0.8449  1.8625 -1.3530
   27GLOH    O3 8557   4.778   4.255   2.530 -0.4034  0.4332  0.2422
   27GLOH   H01 8558   4.750   4.174   2.483  1.2246  0.0414 -0.0745
   28GLOH   H03 8559   4.468   1.685   1.127 -0.2771 -0.3586 -1.5665
   28GLOH    O1 8560   4.424   1.620   1.185  0.2071  0.5388 -0.1624
   28GLOH    C1 8561   4.297   1.577   1.132 -0.3136 -0.3719  0.4392
   28GLOH   H02 8562   4.308   1.475   1.094  0.1127  0.3557 -1.4603
   28GLOH   H08 8563   4.260   1.638   1.050  1.4223 -0.0166 -0.1026
   28GLOH    C2 8564   4.188   1.585   1.248  0.6011 -0.0782  0.4655
   28GLOH   H04 8565   4.165   1.690   1.272 -0.5663 -0.3624  0.6457
   28GLOH    O2 8566   4.062   1.516   1.208 -0.1276 -0.0271 -0.2276
   28GLOH   H05 8567   4.008   1.495   1.286 -0.1905  1.6908  0.2325
   28GLOH    C3 8568   4.245   1.536   1.383 -0.2045  0.0675 -0.5487
   28GLOH   H06 8569   4.259   1.429   1.367 -0.5782  0.1457 -1.4592
   28GLOH   H07 8570   4.167   1.542   1.459 -0.7625 -2.2130 -0.9034
   28GLOH    O3 8571   4.363   1.605   1.435  0.0378 -0.1606  0.0070
   28GLOH   H01 8572   4.404   1.632   1.351 -0.9197  2.3365  0.2997
   29GLOH   H03 8573   3.570   2.387   2.574 -0.8475  0.9948 -1.8692
   29GLOH    O1 8574   3.637   2.338   2.523  0.2483  0.2455  0.2567
   29GLOH    C1 8575   3.575   2.286   2.405 -0.3339  0.1045 -0.0496
   29GLOH   H02 8576   3.624   2.329   2.317 -1.0176  0.7067 -0.1372
   29GLOH   H08 8577   3.475   2.329   2.403  0.2377  1.4797 -0.1631
   29GLOH    C2 8578   3.559   2.130   2.407 -0.2566  0.5809 -0.1875
   29GLOH   H04 8579   3.496   2.112   2.495  0.4579  1.0398  0.4321
   29GLOH    O2 8580   3.500   2.084   2.285  0.8630 -0.3571  0.4435
   29GLOH   H05 8581   3.412   2.048   2.306  0.7918 -1.3375 -1.3996
   29GLOH    C3 8582   3.694   2.055   2.437 -0.3856  0.3162  0.4786
   29GLOH   H06 8583   3.763   2.088   2.360 -0.2702 -1.4026 -0.1776
   29GLOH   H07 8584   3.671   1.951   2.413  2.6436 -0.2728 -0.1855
   29GLOH    O3 8585   3.752   2.063   2.566 -0.2710 -0.1796  0.2986
   29GLOH   H01 8586   3.836   2.014   2.566  0.7650  1.5496  2.2106
   30GLOH   H03 8587   4.451   3.684   0.384 -1.0830 -1.6247 -1.4656
   30GLOH    O1 8588   4.517   3.701   0.315 -0.0950  0.4200 -0.0781
   30GLOH    C1 8589   4.492   3.816   0.225 -0.0112 -0.3360 -0.5487
   30GLOH   H02 8590   4.508   3.911   0.276 -0.3029 -0.3505 -0.4323
   30GLOH   H08 8591   4.392   3.807   0.185 -0.3919 -0.4696  0.4238
   30GLOH    C2 8592   4.578   3.835   0.100  0.2427 -0.2916 -0.1458
   30GLOH   H04 8593   4.545   3.934   0.066 -0.6648 -0.2119  0.9291
   30GLOH    O2 8594   4.720   3.836   0.112  0.3188  0.2514  0.4295
   30GLOH   H05 8595   4.739   3.760   0.168 -2.1204 -1.4062 -0.8976
   30GLOH    C3 8596   4.551   3.722   0.003 -0.0288  0.7346 -0.5247
   30GLOH   H06 8597   4.579   3.629   0.051  1.2053  0.7731 -1.1496
   30GLOH   H07 8598   4.618   3.741  -0.082  2.4097 -1.2058  0.8783
   30GLOH    O3 8599   4.411   3.724  -0.036  0.4372  0.7398  0.3780
   30GLOH   H01 8600   4.357   3.680   0.032 -0.5295 -1.5045 -1.7607
   31GLOH   H03 8601   3.019   2.230   1.320 -0.8031 -0.3998 -1.5938
   31GLOH    O1 8602   3.073   2.239   1.239  0.8799  0.5811 -0.3990
   31GLOH    C1 8603   3.140   2.110   1.210 -0.6851 -0.3044 -0.4238
   31GLOH   H02 8604   3.222   2.135   1.142  0.3262  0.3823  1.0254
   31GLOH   H08 8605   3.082   2.036   1.155 -1.1104  0.1911 -0.6491
   31GLOH    C2 8606   3.203   2.040   1.335 -0.1474 -0.3437 -0.6330
   31GLOH   H04 8607   3.128   2.019   1.412 -0.8312 -1.0070 -1.4821
   31GLOH    O2 8608   3.255   1.916   1.287  0.2869  0.1652 -0.7820
   31GLOH   H05 8609   3.351   1.922   1.298  0.2461 -0.0314 -0.3201
   31GLOH    C3 8610   3.319   2.115   1.409 -0.1487  0.1356  0.3177
   31GLOH   H06 8611   3.284   2.211   1.447  0.3014  0.3441  0.2110
   31GLOH   H07 8612   3.391   2.129   1.328 -1.0820 -2.3135 -0.9654
   31GLOH    O3 8613   3.379   2.036   1.510  0.1782  0.7593  0.0297
   31GLOH   H01 8614   3.335   2.060   1.594  0.9413  1.6356  0.1780
   32GLOH   H03 8615   3.465   9.845   2.226 -0.2024 -1.3288  2.0404
   32GLOH    O1 8616   3.384   9.891   2.254 -0.3068 -0.0854 -0.1787
   32GLOH    C1 8617   3.379  10.011   2.170 -0.2664  0.2961 -0.4557
   32GLOH   H02 8618   3.471  10.069   2.173 -0.0335 -0.0019 -1.6974
   32GLOH   H08 8619   3.300  10.074   2.212 -2.8432 -1.8690 -1.8803
   32GLOH    C2 8620   3.355   9.984   2.022  0.6067 -0.2961 -0.1676
   32GLOH   H04 8621   3.252   9.946   2.022  0.1924  0.7868 -0.8071
   32GLOH    O2 8622   3.353  10.109   1.952  0.6068  0.3553  0.3067
   32GLOH   H05 8623   3.445  10.140   1.944  0.4129  1.2186  1.1546
   32GLOH    C3 8624   3.437   9.880   1.945  0.4969  0.3825 -0.2504
   32GLOH   H06 8625   3.394   9.867   1.846  1.0280  0.5839 -0.5106
   32GLOH   H07 8626   3.428   9.783   1.994 -0.5118  1.4809  1.7881
   32GLOH    O3 8627   3.571   9.917   1.932  0.7437  0.8636  0.7396
   32GLOH   H01 8628   3.569   9.978   1.856  0.0118 -2.0042 -1.6089
   33GLOH   H03 8629   3.223   7.163   2.491  0.7758 -0.2855  2.5017
   33GLOH    O1 8630   3.290   7.230   2.466 -0.0433 -0.4843 -0.3913
   33GLOH    C1 8631   3.315   7.320   2.580 -0.4921 -0.0796  0.1524
   33GLOH   H02 8632   3.418   7.353   2.586 -0.5420  0.4430 -1.6499
   33GLOH   H08 8633   3.305   7.261   2.671 -2.2008 -3.2100 -1.9582
   33GLOH    C2 8634   3.207   7.424   2.576  1.0230 -0.2265  0.8923
   33GLOH   H04 8635   3.114   7.365   2.573 -1.1275  3.0938 -0.4291
   33GLOH    O2 8636   3.211   7.505   2.698 -0.4342  0.4363 -0.7731
   33GLOH   H05 8637   3.159   7.587   2.695 -3.0036 -1.0438  1.3079
   33GLOH    C3 8638   3.209   7.511   2.441  0.1478  0.9362  0.0839
   33GLOH   H06 8639   3.304   7.565   2.439  0.6929  0.0220  0.5752
   33GLOH   H07 8640   3.135   7.590   2.445  1.8442  2.5000  1.0029
   33GLOH    O3 8641   3.196   7.429   2.318  0.0331  0.1381  0.3471
   33GLOH   H01 8642   3.232   7.341   2.335 -0.5207 -0.5029 -1.7144
   34GLOH   H03 8643   2.987   4.801   0.618  1.0755 -0.4358  0.4369
   34GLOH    O1 8644   2.951   4.791   0.708 -0.0494 -0.2597  0.0045
   34GLOH    C1 8645   2.889   4.665   0.697  0.5257  0.6998 -0.3086
   34GLOH   H02 8646   2.962   4.602   0.646 -2.3946 -1.4127 -1.9607
   34GLOH   H08 8647   2.804   4.671   0.630  1.8127 -0.4336 -2.0826
   34GLOH    C2 8648   2.852   4.598   0.829  0.8792  0.0493  0.0537
   34GLOH   H04 8649   2.782   4.662   0.885 -0.0208  1.5092 -2.6375
   34GLOH    O2 8650   2.776   4.480   0.807  0.1367  0.0438  0.1150
   34GLOH   H05 8651   2.799   4.427   0.728 -2.3046 -0.7703 -0.0957
   34GLOH    C3 8652   2.977   4.579   0.911 -0.2617  0.2762 -0.3658
   34GLOH   H06 8653   3.042   4.520   0.847 -1.8346 -1.9385  0.0061
   34GLOH   H07 8654   2.952   4.521   1.000 -0.2742 -0.6118 -0.9538
   34GLOH    O3 8655   3.043   4.699   0.958  0.1564  0.6019 -0.0770
   34GLOH   H01 8656   2.975   4.750   1.006  0.0967  1.7831 -1.4007
   35GLOH   H03 8657   2.652   6.545   0.815 -0.2423 -1.1062  0.3603
   35GLOH    O1 8658   2.654   6.518   0.721  0.7662  0.8612 -0.2265
   35GLOH    C1 8659   2.785   6.544   0.669  0.2466  0.7868 -0.7001
   35GLOH   H02 8660   2.806   6.505   0.570 -0.8824 -1.0356 -0.2455
   35GLOH   H08 8661   2.860   6.495   0.732  0.2301 -1.2821 -2.2530
   35GLOH    C2 8662   2.822   6.694   0.685 -0.5383  0.3900  0.2680
   35GLOH   H04 8663   2.825   6.710   0.794 -1.5291  1.2098  0.1737
   35GLOH    O2 8664   2.950   6.731   0.628  0.2933 -0.3604  0.0944
   35GLOH   H05 8665   2.965   6.697   0.539  0.0466 -0.2384  0.0077
   35GLOH    C3 8666   2.703   6.773   0.629 -0.4462  0.0417  0.3278
   35GLOH   H06 8667   2.691   6.749   0.523 -0.8687  0.0831  0.3661
   35GLOH   H07 8668   2.731   6.878   0.631 -3.7457  1.0008 -0.7701
   35GLOH    O3 8669   2.575   6.758   0.693  0.2545  0.3932  0.3727
   35GLOH   H01 8670   2.561   6.662   0.681  1.1893  0.5070 -1.8663
   36GLOH   H03 8671   2.690   5.607   0.466  0.7685 -1.3120  0.2717
   36GLOH    O1 8672   2.660   5.620   0.558  0.4755 -0.4112  0.0448
   36GLOH    C1 8673   2.738   5.723   0.622 -0.3061  0.3102  0.0560
   36GLOH   H02 8674   2.732   5.720   0.730 -0.9175  0.3788  0.0247
   36GLOH   H08 8675   2.699   5.822   0.597  1.5694  1.1150  0.1712
   36GLOH    C2 8676   2.890   5.726   0.589  0.2599  0.2780  0.1638
   36GLOH   H04 8677   2.893   5.750   0.482  0.1566  2.1319  0.5612
   36GLOH    O2 8678   2.955   5.837   0.648 -0.0116 -0.9246  0.4838
   36GLOH   H05 8679   3.014   5.813   0.721  0.3563  0.3523  0.6224
   36GLOH    C3 8680   2.949   5.585   0.631 -0.2569  0.0847  0.4293
   36GLOH   H06 8681   2.930   5.577   0.738  1.6950  0.3343  0.8125
   36GLOH   H07 8682   3.057   5.583   0.613 -0.4837  1.0120 -1.1368
   36GLOH    O3 8683   2.891   5.474   0.560 -0.3252 -0.6269 -0.4859
   36GLOH   H01 8684   2.932   5.470   0.472  0.6483  0.5702 -0.1026
   37GLOH   H03 8685   3.267   4.403   1.994 -0.2064  0.0189  0.6055
   37GLOH    O1 8686   3.345   4.358   1.956 -0.8052 -0.5215  0.0057
   37GLOH    C1 8687   3.352   4.419   1.826  0.2386 -0.1176 -0.7581
   37GLOH   H02 8688   3.336   4.527   1.829  2.0547  0.1622 -0.4593
   37GLOH   H08 8689   3.267   4.382   1.769 -0.0573  0.9469 -1.0183
   37GLOH    C2 8690   3.480   4.370   1.751  0.6599  0.6692  0.4178
   37GLOH   H04 8691   3.570   4.376   1.813  0.9946  0.3161 -0.0313
   37GLOH    O2 8692   3.476   4.232   1.720  0.6414 -0.0318 -0.1736
   37GLOH   H05 8693   3.408   4.220   1.651  1.9295  0.3641 -1.5399
   37GLOH    C3 8694   3.508   4.449   1.622  0.0122 -0.0552 -0.4612
   37GLOH   H06 8695   3.418   4.447   1.560 -1.9807 -0.1432  2.3423
   37GLOH   H07 8696   3.599   4.409   1.578  0.9989  0.8350  0.7567
   37GLOH    O3 8697   3.528   4.587   1.655  0.1049  0.8049 -0.0931
   37GLOH   H01 8698   3.617   4.616   1.630  1.3160 -3.0253 -0.4703
   38GLOH   H03 8699   2.574   6.286   1.196  1.3949 -0.3498 -0.8109
   38GLOH    O1 8700   2.557   6.365   1.141  0.4242  0.0320  0.0191
   38GLOH    C1 8701   2.419   6.348   1.101 -0.3264 -0.1965  0.2979
   38GLOH   H02 8702   2.349   6.375   1.180 -1.6109  1.9197 -1.5291
   38GLOH   H08 8703   2.399   6.242   1.086 -1.0011  0.0198 -0.3483
   38GLOH    C2 8704   2.383   6.412   0.964  0.8554  0.3078  0.2755
   38GLOH   H04 8705   2.406   6.336   0.889 -0.4101  1.2000 -1.0400
   38GLOH    O2 8706   2.240   6.418   0.953 -0.2324  1.1345  0.1915
   38GLOH   H05 8707   2.220   6.450   0.863 -1.1485 -0.7140 -0.2852
   38GLOH    C3 8708   2.446   6.551   0.946 -0.8069  0.7480  0.2750
   38GLOH   H06 8709   2.410   6.615   1.026 -1.8961  1.3268 -0.6716
   38GLOH   H07 8710   2.415   6.590   0.849 -2.3186 -0.3490  0.3022
   38GLOH    O3 8711   2.589   6.541   0.953  0.1467 -0.0305  0.5282
   38GLOH   H01 8712   2.612   6.494   1.036  0.0653 -0.4475  0.3176
   39GLOH   H03 8713   3.649   2.617   2.432 -0.8363 -0.7440 -0.2693
   39GLOH    O1 8714   3.580   2.685   2.422  0.2482  0.4132  0.0543
   39GLOH    C1 8715   3.449   2.623   2.407 -0.4285 -0.5559 -0.0948
   39GLOH   H02 8716   3.411   2.577   2.498 -1.4410  0.4901  0.0125
   39GLOH   H08 8717   3.463   2.545   2.332 -1.5929 -0.6096 -0.2638
   39GLOH    C2 8718   3.342   2.713   2.344  0.1970  0.4563  0.4002
   39GLOH   H04 8719   3.270   2.646   2.294  0.8646  1.1344 -1.5165
   39GLOH    O2 8720   3.273   2.785   2.454  0.5501  0.0224  0.0184
   39GLOH   H05 8721   3.199   2.835   2.416  0.8500 -0.8890 -1.8000
   39GLOH    C3 8722   3.396   2.814   2.240 -0.2218 -0.8464  0.5258
   39GLOH   H06 8723   3.457   2.892   2.286  0.4512  0.0148 -1.7290
   39GLOH   H07 8724   3.311   2.874   2.206  1.1744  0.2135 -1.1903
   39GLOH    O3 8725   3.475   2.755   2.136 -0.2979 -0.1291  0.5664
   39GLOH   H01 8726   3.565   2.738   2.170  0.7191  0.7164 -1.6042
   40GLOH   H03 8727   3.456   9.003   0.489 -0.0176 -2.3219  0.9958
   40GLOH    O1 8728   3.362   9.027   0.498  0.5336  0.2720  0.3960
   40GLOH    C1 8729   3.299   8.944   0.600 -0.1157 -0.7481  0.1718
   40GLOH   H02 8730   3.223   9.001   0.653 -1.0801 -0.4650 -1.4789
   40GLOH   H08 8731   3.375   8.913   0.672  0.3971 -2.0109 -0.8889
   40GLOH    C2 8732   3.228   8.824   0.538  0.6992 -0.8429 -0.1363
   40GLOH   H04 8733   3.292   8.770   0.467 -1.3998 -1.3301 -1.7165
   40GLOH    O2 8734   3.184   8.734   0.641 -0.0272 -0.0507  0.2497
   40GLOH   H05 8735   3.138   8.660   0.599  0.3974 -0.9454  1.3243
   40GLOH    C3 8736   3.115   8.870   0.444  0.7895  0.1429 -0.1230
   40GLOH   H06 8737   3.140   8.967   0.402 -1.4494  0.8418  0.0632
   40GLOH   H07 8738   3.023   8.876   0.503  0.3964 -0.3790 -0.6747
   40GLOH    O3 8739   3.096   8.776   0.348  0.4920  0.4671  0.3503
   40GLOH   H01 8740   3.156   8.785   0.272  1.4643 -2.9549  0.6300
   41GLOH   H03 8741   3.725   0.755   0.539  1.5095 -0.0702 -0.2838
   41GLOH    O1 8742   3.641   0.706   0.549  0.8044  1.0848 -0.3805
   41GLOH    C1 8743   3.608   0.647   0.420  0.4830 -0.4449 -0.2318
   41GLOH   H02 8744   3.641   0.706   0.334  0.6001  0.2339  0.2786
   41GLOH   H08 8745   3.501   0.630   0.416  0.2073  1.2620 -0.6066
   41GLOH    C2 8746   3.664   0.501   0.412 -0.0097 -0.1350 -0.3557
   41GLOH   H04 8747   3.609   0.437   0.483 -0.5012 -1.5841 -1.9973
   41GLOH    O2 8748   3.631   0.433   0.290  0.6968 -0.5649 -0.2710
   41GLOH   H05 8749   3.666   0.343   0.304  4.2757  0.9175  0.7876
   41GLOH    C3 8750   3.816   0.488   0.443 -0.4620 -0.1815  0.2759
   41GLOH   H06 8751   3.834   0.535   0.540 -1.7178  0.9462 -0.0248
   41GLOH   H07 8752   3.870   0.534   0.361  1.0277 -2.3465 -0.0034
   41GLOH    O3 8753   3.869   0.354   0.448 -0.7238  0.3732  0.0953
   41GLOH   H01 8754   3.817   0.311   0.519  0.3658 -1.1584 -0.0076
   42GLOH   H03 8755   2.976   4.286   1.074  0.8656 -1.0349  1.6848
   42GLOH    O1 8756   3.039   4.235   1.020  0.9950  0.3038  0.5441
   42GLOH    C1 8757   3.169   4.294   1.022  0.0194  0.6735 -0.6524
   42GLOH   H02 8758   3.186   4.341   1.119  0.3427 -0.5368 -0.1129
   42GLOH   H08 8759   3.178   4.373   0.946 -3.6688  1.1634 -0.6977
   42GLOH    C2 8760   3.289   4.201   0.996 -0.0029 -0.1601  0.2981
   42GLOH   H04 8761   3.281   4.173   0.890 -0.1478 -0.7440  0.4599
   42GLOH    O2 8762   3.404   4.282   1.011  0.0699  0.0461  0.2263
   42GLOH   H05 8763   3.405   4.312   1.104 -0.4287  0.3653  0.1263
   42GLOH    C3 8764   3.296   4.077   1.086  0.1342 -0.4984  0.4609
   42GLOH   H06 8765   3.211   4.012   1.065 -0.8510  0.8859  0.1621
   42GLOH   H07 8766   3.299   4.113   1.189  2.0327  1.0470 -0.0867
   42GLOH    O3 8767   3.415   4.002   1.066  0.2023  0.1952 -0.1596
   42GLOH   H01 8768   3.403   3.922   1.012  0.5724 -0.4161  0.6442
   43GLOH   H03 8769   4.260   1.105   0.216  2.8089  0.4761  1.0732
   43GLOH    O1 8770   4.264   1.011   0.242  0.0777  0.0769  0.1801
   43GLOH    C1 8771   4.144   0.951   0.186  0.1792 -0.2494 -0.4558
   43GLOH   H02 8772   4.058   1.018   0.190 -0.2359 -0.8006 -0.0270
   43GLOH   H08 8773   4.112   0.865   0.245 -0.7516  0.1718 -0.3320
   43GLOH    C2 8774   4.151   0.913   0.035 -0.1000 -0.3547 -0.2724
   43GLOH   H04 8775   4.217   0.826   0.023 -1.1059 -1.1064 -0.4952
   43GLOH    O2 8776   4.021   0.875  -0.017 -0.4152 -0.5633  0.4908
   43GLOH   H05 8777   4.009   0.880  -0.113 -2.6783 -0.8355  0.7346
   43GLOH    C3 8778   4.206   1.028  -0.050 -1.0428  0.2753  0.8016
   43GLOH   H06 8779   4.170   1.016  -0.153  0.3204 -0.4309  0.3981
   43GLOH   H07 8780   4.314   1.019  -0.061 -0.9366  1.4792  0.8281
   43GLOH    O3 8781   4.164   1.159  -0.006 -0.1175 -0.9732  0.4310
   43GLOH   H01 8782   4.077   1.172  -0.046 -0.2053 -2.5129  0.1242
   44GLOH   H03 8783   2.675   5.442   1.145 -2.2875  0.2691  2.1986
   44GLOH    O1 8784   2.625   5.364   1.116 -0.3867 -0.0784 -0.3515
   44GLOH    C1 8785   2.591   5.374   0.980 -0.0915 -0.1269 -0.2945
   44GLOH   H02 8786   2.592   5.480   0.955  2.6080 -0.5258 -2.0847
   44GLOH   H08 8787   2.494   5.330   0.958 -0.2927  0.4296 -0.5334
   44GLOH    C2 8788   2.698   5.301   0.895 -0.1036 -0.1455 -0.3438
   44GLOH   H04 8789   2.797   5.343   0.919 -0.3799 -1.3615  3.1835
   44GLOH    O2 8790   2.687   5.156   0.923 -0.7534  0.0540  0.1876
   44GLOH   H05 8791   2.758   5.099   0.890 -2.4260 -1.5764 -0.7329
   44GLOH    C3 8792   2.664   5.336   0.747 -0.2319 -0.0365 -0.0118
   44GLOH   H06 8793   2.741   5.290   0.685 -0.2194 -3.3097  2.3133
   44GLOH   H07 8794   2.672   5.444   0.746 -0.5301 -0.0135 -2.2276
   44GLOH    O3 8795   2.531   5.303   0.701 -0.0941 -0.7033  0.1418
   44GLOH   H01 8796   2.531   5.211   0.668  1.7540 -1.0558  1.0077
   45GLOH   H03 8797   3.877   0.399   2.526  0.6161 -1.5100 -1.5625
   45GLOH    O1 8798   3.896   0.318   2.578 -0.1436 -1.1425 -0.6950
   45GLOH    C1 8799   3.993   0.340   2.680  0.0553 -0.4569 -0.4408
   45GLOH   H02 8800   4.086   0.366   2.629  0.5196 -0.8308  0.2064
   45GLOH   H08 8801   4.017   0.250   2.736  1.3157  1.3211  1.9507
   45GLOH    C2 8802   3.956   0.452   2.776 -0.0217 -0.4487  0.2762
   45GLOH   H04 8803   3.849   0.455   2.800 -0.2975  0.9541 -1.0553
   45GLOH    O2 8804   4.046   0.455   2.891 -0.2927  0.1411 -0.1284
   45GLOH   H05 8805   3.997   0.409   2.960 -0.0364  0.1881  0.0849
   45GLOH    C3 8806   3.978   0.585   2.701  0.8988  0.9005  0.2508
   45GLOH   H06 8807   4.081   0.595   2.668  0.6710  1.1477 -0.3840
   45GLOH   H07 8808   3.940   0.664   2.765  0.3932  0.0362  1.0284
   45GLOH    O3 8809   3.900   0.587   2.576  0.0325  0.3428 -0.1215
   45GLOH   H01 8810   3.899   0.677   2.539 -1.8995  0.5570  0.4203
   46GLOH   H03 8811   2.866   8.290   1.370  0.3671 -0.5063  1.3277
   46GLOH    O1 8812   2.887   8.220   1.305  0.5037  1.0208 -0.3070
   46GLOH    C1 8813   2.831   8.098   1.350  0.2322 -0.3699 -0.5300
   46GLOH   H02 8814   2.740   8.105   1.410  0.8756  0.6107  0.3496
   46GLOH   H08 8815   2.895   8.047   1.422 -3.0496 -1.2955  1.8455
   46GLOH    C2 8816   2.798   8.006   1.230 -0.4404 -0.3001  0.4520
   46GLOH   H04 8817   2.741   7.921   1.270 -1.8829  0.6640  0.4862
   46GLOH    O2 8818   2.717   8.064   1.129  0.5435  0.2687  0.0330
   46GLOH   H05 8819   2.654   8.129   1.163  0.8007  1.0222 -0.9314
   46GLOH    C3 8820   2.928   7.944   1.174  0.3322 -0.1726 -0.2499
   46GLOH   H06 8821   3.009   8.017   1.178  0.2774 -0.0775 -0.8339
   46GLOH   H07 8822   2.910   7.918   1.070 -0.7470 -0.3549 -0.0261
   46GLOH    O3 8823   2.979   7.848   1.263  0.1972  0.0439 -0.0853
   46GLOH   H01 8824   3.061   7.802   1.238  0.2771 -1.4218  2.5796
   47GLOH   H03 8825   3.078   7.065   2.000 -0.9175 -0.0120  0.2619
   47GLOH    O1 8826   3.107   7.018   2.080  0.0265  0.4956  0.2122
   47GLOH    C1 8827   3.050   7.070   2.197  0.2818  0.0757 -0.9092
   47GLOH   H02 8828   2.942   7.087   2.196  0.2061  0.1701  2.1942
   47GLOH   H08 8829   3.091   7.170   2.211  0.4377  0.0052 -0.8606
   47GLOH    C2 8830   3.095   6.998   2.321  0.5473  0.1034 -0.0158
   47GLOH   H04 8831   3.204   6.986   2.321  0.7667  1.7268 -1.8381
   47GLOH    O2 8832   3.066   7.084   2.442  0.2445  0.3007  0.1296
   47GLOH   H05 8833   2.985   7.134   2.427  0.0119  0.0878  0.6859
   47GLOH    C3 8834   3.019   6.864   2.324  0.7385  0.0395  0.3986
   47GLOH   H06 8835   3.033   6.823   2.424 -1.4372  0.2138  0.7889
   47GLOH   H07 8836   3.061   6.792   2.253 -0.1211  0.4969 -0.5768
   47GLOH    O3 8837   2.882   6.890   2.298 -0.2272  0.1947  0.7990
   47GLOH   H01 8838   2.840   6.838   2.369 -1.2716 -0.4197 -0.2490
   48GLOH   H03 8839   2.751   6.994   0.994 -1.9537  1.2951  0.1167
   48GLOH    O1 8840   2.809   7.072   0.995 -0.0551 -0.0783  0.4184
   48GLOH    C1 8841   2.801   7.121   1.133 -0.0704 -0.0521  0.0232
   48GLOH   H02 8842   2.710   7.082   1.178 -0.4888 -2.1482 -2.4900
   48GLOH   H08 8843   2.808   7.230   1.141 -2.4208  0.3306 -2.1756
   48GLOH    C2 8844   2.927   7.074   1.215  0.2543 -0.1076  0.2911
   48GLOH   H04 8845   3.013   7.119   1.163 -1.3397  2.3939 -0.2539
   48GLOH    O2 8846   2.920   7.113   1.357  0.7806 -0.3498 -0.0338
   48GLOH   H05 8847   2.878   7.200   1.366  1.7046  0.0391  0.5851
   48GLOH    C3 8848   2.949   6.924   1.209 -0.1533  0.9594 -0.2571
   48GLOH   H06 8849   3.037   6.898   1.269 -0.6947  1.2784  0.6862
   48GLOH   H07 8850   2.990   6.902   1.110  1.4386 -1.4315  0.8709
   48GLOH    O3 8851   2.831   6.845   1.241 -0.1994 -0.8796  0.5428
   48GLOH   H01 8852   2.816   6.848   1.337  2.4576 -0.4943  0.9632
   49GLOH   H03 8853   3.578   4.178   1.422  0.0570  0.4271 -0.6365
   49GLOH    O1 8854   3.482   4.159   1.422  0.1935 -0.2791  0.0461
   49GLOH    C1 8855   3.474   4.022   1.458  0.4975 -0.8641 -0.6142
   49GLOH   H02 8856   3.527   3.996   1.549  0.4364  0.7912 -0.0873
   49GLOH   H08 8857   3.526   3.955   1.389 -0.1178 -1.6259 -0.3430
   49GLOH    C2 8858   3.331   3.975   1.481  0.2642  0.2712  0.8270
   49GLOH   H04 8859   3.271   4.002   1.393  0.3701  2.2060  1.3294
   49GLOH    O2 8860   3.307   3.832   1.507 -0.2457 -0.0948 -0.6107
   49GLOH   H05 8861   3.349   3.782   1.435  2.0690 -0.7318  1.1321
   49GLOH    C3 8862   3.273   4.061   1.591 -0.5747  0.0468 -0.1242
   49GLOH   H06 8863   3.323   4.049   1.687 -0.5978  0.6375 -0.0348
   49GLOH   H07 8864   3.174   4.017   1.598 -0.5716  0.1559  0.6117
   49GLOH    O3 8865   3.274   4.204   1.573  0.1712 -0.0051 -0.2809
   49GLOH   H01 8866   3.186   4.245   1.564 -0.4596 -1.5231 -1.3361
   50GLOH   H03 8867   3.047   5.275   1.543  0.0782 -0.2150  0.1972
   50GLOH    O1 8868   3.120   5.215   1.565 -0.0192 -0.4627 -0.1501
   50GLOH    C1 8869   3.105   5.096   1.482  0.0667  0.3345  0.0797
   50GLOH   H02 8870   3.009   5.047   1.501  0.2190  0.6576  1.7844
   50GLOH   H08 8871   3.171   5.019   1.522 -0.7923 -0.3938  0.1329
   50GLOH    C2 8872   3.141   5.115   1.331  0.0434 -0.1924  0.1125
   50GLOH   H04 8873   3.100   5.213   1.304  2.3209  0.4320 -1.2658
   50GLOH    O2 8874   3.287   5.127   1.321  0.4752 -0.3486 -0.2244
   50GLOH   H05 8875   3.330   5.042   1.339  2.4827  1.1088  2.2258
   50GLOH    C3 8876   3.077   4.996   1.254 -0.4150 -0.0442  0.0033
   50GLOH   H06 8877   3.120   4.902   1.287  0.8372  1.3982  2.5603
   50GLOH   H07 8878   3.092   5.007   1.146  0.2365  4.3710  0.4534
   50GLOH    O3 8879   2.929   4.994   1.274 -0.0540 -0.0628 -0.2562
   50GLOH   H01 8880   2.897   5.086   1.261 -1.7870 -0.6098  0.0295
   51GLOH   H03 8881   2.743   7.283   2.110 -0.4192  1.4036 -1.4043
   51GLOH    O1 8882   2.729   7.227   2.032  0.8329 -0.6511 -0.1903
   51GLOH    C1 8883   2.802   7.284   1.928 -0.2672 -0.0861  0.3998
   51GLOH   H02 8884   2.798   7.393   1.928 -4.0687 -0.1661  0.6787
   51GLOH   H08 8885   2.749   7.247   1.841 -0.0572 -1.6647  0.9398
   51GLOH    C2 8886   2.951   7.247   1.910 -0.0307 -1.2389  0.6567
   51GLOH   H04 8887   2.997   7.251   2.010 -2.5321 -0.2504  1.7973
   51GLOH    O2 8888   2.965   7.107   1.877 -0.2738  0.2284  0.5369
   51GLOH   H05 8889   3.006   7.107   1.789  0.2767  2.2140  0.7535
   51GLOH    C3 8890   3.032   7.346   1.819 -0.3484 -0.1868 -0.0997
   51GLOH   H06 8891   3.135   7.311   1.827 -0.5570 -0.0893  3.8185
   51GLOH   H07 8892   3.027   7.441   1.873  1.3363 -0.5165  0.6781
   51GLOH    O3 8893   2.974   7.352   1.683  0.4350  0.6973 -0.8778
   51GLOH   H01 8894   2.998   7.265   1.645 -0.8312 -0.9058  1.8575
   52GLOH   H03 8895   3.729   2.471   1.181  0.8195  0.5339 -0.2475
   52GLOH    O1 8896   3.654   2.531   1.198  0.2302 -0.2691  0.0529
   52GLOH    C1 8897   3.715   2.658   1.231 -0.8282  0.6948 -0.2834
   52GLOH   H02 8898   3.644   2.739   1.243  0.7595  2.0066  0.5178
   52GLOH   H08 8899   3.788   2.680   1.153  0.4884  0.2103  0.7806
   52GLOH    C2 8900   3.797   2.656   1.357  0.0819 -0.4640 -0.4993
   52GLOH   H04 8901   3.880   2.588   1.333  0.7732  0.7835 -1.6666
   52GLOH    O2 8902   3.844   2.786   1.394  0.4901 -0.0989  0.4582
   52GLOH   H05 8903   3.785   2.829   1.458 -1.3691 -2.2916  0.2973
   52GLOH    C3 8904   3.724   2.584   1.472 -0.2305 -0.2102 -0.0155
   52GLOH   H06 8905   3.768   2.631   1.560 -2.4484  2.6315 -0.3600
   52GLOH   H07 8906   3.744   2.478   1.464 -1.2301 -0.4116  0.0891
   52GLOH    O3 8907   3.590   2.617   1.462 -0.1520  0.6200  0.3648
   52GLOH   H01 8908   3.555   2.619   1.371 -1.3218  2.7579  0.8137
   53GLOH   H03 8909   2.859   0.324   0.057  2.0127 -1.1005 -0.6673
   53GLOH    O1 8910   2.818   0.238   0.036 -0.7887 -0.0054  0.0049
   53GLOH    C1 8911   2.804   0.244  -0.106 -0.6705  0.0735 -0.1325
   53GLOH   H02 8912   2.843   0.337  -0.146 -1.4618  0.0597 -0.9507
   53GLOH   H08 8913   2.701   0.234  -0.139 -1.1054  2.3518  0.4896
   53GLOH    C2 8914   2.874   0.121  -0.171  0.2922  0.7051 -1.0026
   53GLOH   H04 8915   2.849   0.114  -0.277  1.3700 -0.9352 -1.1701
   53GLOH    O2 8916   3.015   0.136  -0.144  0.2130  0.0367 -0.1642
   53GLOH   H05 8917   3.035   0.133  -0.049  1.1733  0.6699 -0.3409
   53GLOH    C3 8918   2.826  -0.011  -0.115 -0.3961 -0.1438 -0.2620
   53GLOH   H06 8919   2.857  -0.018  -0.010  1.9745  1.0824 -0.8401
   53GLOH   H07 8920   2.889  -0.074  -0.178 -0.5920  0.1407 -0.7440
   53GLOH    O3 8921   2.691  -0.045  -0.159  0.2463  0.3593 -0.5230
   53GLOH   H01 8922   2.685  -0.141  -0.170  3.8942  0.0820 -0.8261
   54GLOH   H03 8923   5.050   2.744   0.967 -0.1551  0.1920 -0.1162
   54GLOH    O1 8924   4.984   2.673   0.955 -0.1098  0.0160  0.6279
   54GLOH    C1 8925   4.885   2.694   1.059 -0.3858  0.2382  0.2714
   54GLOH   H02 8926   4.897   2.613   1.131  0.2370  0.0399 -0.0537
   54GLOH   H08 8927   4.787   2.681   1.013 -0.6273  2.3112  0.1365
   54GLOH    C2 8928   4.898   2.830   1.114  0.1727  0.0448  0.3442
   54GLOH   H04 8929   4.846   2.891   1.038  1.4597  0.3427 -0.3208
   54GLOH    O2 8930   4.826   2.848   1.234 -0.4249  0.1497 -0.1916
   54GLOH   H05 8931   4.740   2.887   1.213 -0.3045  0.7164  0.3709
   54GLOH    C3 8932   5.038   2.894   1.123  0.0867 -0.4740 -0.4471
   54GLOH   H06 8933   5.075   2.860   1.220  0.3351  2.0263  0.3718
   54GLOH   H07 8934   5.021   3.002   1.117  1.3388 -0.2357  0.1971
   54GLOH    O3 8935   5.126   2.857   1.023 -0.4683  0.5353 -0.0719
   54GLOH   H01 8936   5.200   2.920   1.032  0.8214 -0.9515  0.1062
   55GLOH   H03 8937   2.192   7.392   1.860 -4.5861  0.1163 -1.4176
   55GLOH    O1 8938   2.223   7.439   1.781 -0.1592  0.0542  0.0965
   55GLOH    C1 8939   2.193   7.358   1.663 -0.2023 -0.1287 -0.7588
   55GLOH   H02 8940   2.085   7.354   1.650 -0.3068 -1.7508  0.4880
   55GLOH   H08 8941   2.226   7.255   1.677  1.5352  0.2890 -1.6420
   55GLOH    C2 8942   2.255   7.411   1.533  0.1573 -0.4493  0.2521
   55GLOH   H04 8943   2.365   7.411   1.529  0.1891  4.3018 -1.2864
   55GLOH    O2 8944   2.206   7.333   1.420  0.2959 -0.6502 -0.4251
   55GLOH   H05 8945   2.256   7.354   1.340 -0.8578  0.1580 -0.9508
   55GLOH    C3 8946   2.205   7.553   1.523  0.6758 -0.9543  0.4212
   55GLOH   H06 8947   2.097   7.549   1.520  0.7207 -2.4195  0.4043
   55GLOH   H07 8948   2.246   7.598   1.432  1.2628 -1.5406  0.3870
   55GLOH    O3 8949   2.248   7.641   1.631  0.2024 -0.0317 -0.1825
   55GLOH   H01 8950   2.252   7.581   1.708  3.5476 -1.1219 -1.1324
   56GLOH   H03 8951   4.339   3.269   2.535  0.0952 -0.6491  0.1516
   56GLOH    O1 8952   4.264   3.307   2.584  0.3931 -0.3050  0.3421
   56GLOH    C1 8953   4.186   3.387   2.500 -0.0892  0.0453  0.3039
   56GLOH   H02 8954   4.147   3.328   2.418  0.3539  1.2195 -0.7644
   56GLOH   H08 8955   4.262   3.452   2.458 -1.1353  0.6984 -0.5962
   56GLOH    C2 8956   4.075   3.471   2.568 -0.3368  0.2475 -0.4558
   56GLOH   H04 8957   4.125   3.541   2.636  0.0320 -1.4613  1.0639
   56GLOH    O2 8958   4.012   3.544   2.461  0.7503 -0.6203  0.6991
   56GLOH   H05 8959   4.016   3.638   2.485  1.1371 -1.1754  2.9216
   56GLOH    C3 8960   3.985   3.376   2.645  0.6214 -0.4523 -0.2942
   56GLOH   H06 8961   4.051   3.297   2.682  0.5119 -0.4752 -0.1477
   56GLOH   H07 8962   3.917   3.323   2.579  0.6067 -2.5331  1.3383
   56GLOH    O3 8963   3.912   3.451   2.740 -0.4866 -0.6054 -0.0042
   56GLOH   H01 8964   3.890   3.539   2.704  0.7872 -1.4726 -3.0561
   57GLOH   H03 8965   3.039   6.359   2.629 -0.5410  0.7153  0.1697
   57GLOH    O1 8966   3.094   6.281   2.648 -0.8200  0.2938 -0.7075
   57GLOH    C1 8967   3.156   6.240   2.526  0.4513 -0.3787 -0.1401
   57GLOH   H02 8968   3.254   6.195   2.543  1.3051  1.0726 -1.1147
   57GLOH   H08 8969   3.186   6.327   2.467 -1.4658 -0.2743 -0.9902
   57GLOH    C2 8970   3.068   6.157   2.435  0.4897 -0.8218 -0.6539
   57GLOH   H04 8971   3.021   6.214   2.354 -0.4582 -0.6380  0.0076
   57GLOH    O2 8972   3.156   6.056   2.377  0.0906  0.5999 -0.5726
   57GLOH   H05 8973   3.173   5.977   2.432  1.1977  1.0247 -0.2944
   57GLOH    C3 8974   2.947   6.089   2.511 -0.6615 -0.0563 -0.0436
   57GLOH   H06 8975   2.904   6.169   2.571  1.9908  1.1603  0.3037
   57GLOH   H07 8976   2.969   6.011   2.584 -2.0663 -0.0700  0.3850
   57GLOH    O3 8977   2.847   6.040   2.418 -0.7201 -0.3957 -0.5693
   57GLOH   H01 8978   2.883   5.985   2.346 -1.3403  1.6016 -2.4565
   58GLOH   H03 8979   2.883   6.962   0.230 -0.0360 -0.9011  0.5127
   58GLOH    O1 8980   2.892   7.058   0.244  0.1678 -0.7198 -0.7939
   58GLOH    C1 8981   2.811   7.108   0.355  0.0497  0.3674  0.8476
   58GLOH   H02 8982   2.836   7.056   0.447  3.5948  2.8519  1.3737
   58GLOH   H08 8983   2.707   7.088   0.329  0.6774 -0.1542 -1.3609
   58GLOH    C2 8984   2.829   7.260   0.380 -0.0975  0.1953  0.0165
   58GLOH   H04 8985   2.752   7.287   0.453 -0.7617  2.0590 -1.3430
   58GLOH    O2 8986   2.959   7.300   0.430  0.3896 -0.0666  0.1083
   58GLOH   H05 8987   3.009   7.295   0.347 -3.2807 -0.6135 -2.1895
   58GLOH    C3 8988   2.781   7.337   0.251 -0.1696  0.0901 -0.3813
   58GLOH   H06 8989   2.840   7.305   0.165 -0.3059 -4.1537  0.9710
   58GLOH   H07 8990   2.805   7.441   0.268  0.9726 -0.0515 -1.0918
   58GLOH    O3 8991   2.638   7.317   0.235  0.2781  0.0120  0.2778
   58GLOH   H01 8992   2.611   7.386   0.172  2.2677  1.5678  1.0626
   59GLOH   H03 8993   3.518   5.539   0.425  1.4406  0.2626 -2.8456
   59GLOH    O1 8994   3.604   5.562   0.465  0.4063 -0.2561 -0.2521
   59GLOH    C1 8995   3.674   5.440   0.510 -0.2360 -0.1587 -0.1810
   59GLOH   H02 8996   3.782   5.450   0.521 -0.0606 -2.7852  0.6956
   59GLOH   H08 8997   3.646   5.364   0.436 -0.1884  0.1102 -0.4768
   59GLOH    C2 8998   3.622   5.387   0.641 -0.7778 -0.1528 -0.1289
   59GLOH   H04 8999   3.512   5.379   0.636 -0.8921  1.7478 -1.0713
   59GLOH    O2 9000   3.694   5.269   0.651  0.0447 -0.2995 -0.1152
   59GLOH   H05 9001   3.671   5.203   0.584 -1.0726 -0.6605  0.6048
   59GLOH    C3 9002   3.638   5.499   0.748 -0.0532  0.3381  0.2362
   59GLOH   H06 9003   3.646   5.594   0.694 -2.5091 -0.3401 -1.3897
   59GLOH   H07 9004   3.730   5.486   0.803 -0.3563  2.3777  1.2741
   59GLOH    O3 9005   3.528   5.489   0.838  0.1382 -0.4169 -0.0879
   59GLOH   H01 9006   3.541   5.555   0.908 -1.6896 -0.3378  0.2012
   60GLOH   H03 9007   3.141   4.745   0.835 -1.2341 -0.7210 -2.0773
   60GLOH    O1 9008   3.221   4.768   0.786 -0.2854  0.3226 -0.0949
   60GLOH    C1 9009   3.269   4.639   0.736  0.3486  0.7293  0.2327
   60GLOH   H02 9010   3.330   4.661   0.648 -0.2815 -0.9394 -0.6454
   60GLOH   H08 9011   3.184   4.587   0.692  1.3493 -0.1301 -0.7164
   60GLOH    C2 9012   3.347   4.549   0.835  0.0260  0.2557  0.2209
   60GLOH   H04 9013   3.288   4.547   0.927  1.1534 -0.6632  0.9437
   60GLOH    O2 9014   3.373   4.416   0.781  0.4015 -0.4395 -0.0014
   60GLOH   H05 9015   3.448   4.375   0.827 -0.1134 -0.6443  0.6696
   60GLOH    C3 9016   3.493   4.601   0.849  0.4584 -0.8566 -0.5783
   60GLOH   H06 9017   3.537   4.598   0.749 -0.2456 -0.2705 -0.9117
   60GLOH   H07 9018   3.552   4.531   0.907 -0.2162 -0.3238  0.7719
   60GLOH    O3 9019   3.501   4.732   0.904  0.0875  0.1410 -0.3799
   60GLOH   H01 9020   3.595   4.747   0.926  0.3292 -2.5607  0.5196
   61GLOH   H03 9021   4.044   5.349   1.097 -0.6312 -0.6085  0.7297
   61GLOH    O1 9022   4.084   5.308   1.018  0.4279  0.7601  0.5306
   61GLOH    C1 9023   4.229   5.298   1.028  0.7323 -0.4383 -0.5932
   61GLOH   H02 9024   4.238   5.215   1.098 -0.0847 -0.0496 -0.0225
   61GLOH   H08 9025   4.270   5.383   1.081 -0.7402 -1.1716  1.7981
   61GLOH    C2 9026   4.304   5.290   0.895 -0.3308 -0.0848 -0.3479
   61GLOH   H04 9027   4.349   5.390   0.880 -0.0419  0.0154  1.0903
   61GLOH    O2 9028   4.409   5.190   0.907 -0.2804 -0.1103 -0.0261
   61GLOH   H05 9029   4.384   5.106   0.948  0.7895  0.0145  0.9069
   61GLOH    C3 9030   4.212   5.254   0.781  0.2312 -1.2222  0.0162
   61GLOH   H06 9031   4.170   5.157   0.809 -1.7661  0.5083  3.2975
   61GLOH   H07 9032   4.263   5.246   0.685 -1.5925 -3.4065 -0.8210
   61GLOH    O3 9033   4.104   5.345   0.779 -0.3850 -0.3232  0.2903
   61GLOH   H01 9034   4.080   5.366   0.871  1.1182  1.0178  0.4003
   62GLOH   H03 9035   4.197   4.221   1.128 -0.6664  1.4872  0.4424
   62GLOH    O1 9036   4.281   4.248   1.087 -0.4867  0.0838 -0.1273
   62GLOH    C1 9037   4.301   4.145   0.985 -0.3897 -0.5513  0.4765
   62GLOH   H02 9038   4.216   4.143   0.916  2.5880  0.4358 -3.3972
   62GLOH   H08 9039   4.302   4.044   1.027  1.9146 -0.0752  1.5944
   62GLOH    C2 9040   4.426   4.174   0.894 -0.4212 -0.1941  0.0905
   62GLOH   H04 9041   4.441   4.087   0.828  0.5687 -0.8603  1.1723
   62GLOH    O2 9042   4.401   4.290   0.818  0.0483 -0.4530  0.3026
   62GLOH   H05 9043   4.334   4.286   0.747  1.7590  1.1938 -1.4472
   62GLOH    C3 9044   4.554   4.195   0.979  0.0287  0.0680  0.2927
   62GLOH   H06 9045   4.532   4.247   1.073 -0.4281  0.1150  0.1577
   62GLOH   H07 9046   4.625   4.255   0.923  0.4366 -1.4541 -0.8707
   62GLOH    O3 9047   4.609   4.068   1.004  0.8595 -0.0062  0.4096
   62GLOH   H01 9048   4.561   4.027   1.078 -1.2922  3.1555  0.8787
   63GLOH   H03 9049   4.747   3.364   0.757 -0.8278  3.1023  1.8305
   63GLOH    O1 9050   4.754   3.324   0.845 -0.3442  0.1383  0.4935
   63GLOH    C1 9051   4.806   3.188   0.842 -0.0459 -0.4928  0.1116
   63GLOH   H02 9052   4.767   3.143   0.751 -1.5126  0.5174  0.2340
   63GLOH   H08 9053   4.764   3.132   0.926 -0.8716 -0.2848 -0.1618
   63GLOH    C2 9054   4.962   3.168   0.848 -0.7315 -0.1325 -0.3586
   63GLOH   H04 9055   4.998   3.223   0.936 -1.7301 -1.3977  0.8607
   63GLOH    O2 9056   5.007   3.029   0.852  0.0230 -0.1930  0.7447
   63GLOH   H05 9057   5.092   3.026   0.900  1.8050  1.4164 -2.1848
   63GLOH    C3 9058   5.022   3.241   0.727  0.3737 -1.0530  0.4666
   63GLOH   H06 9059   4.949   3.242   0.646  1.1719 -1.1211 -0.2693
   63GLOH   H07 9060   5.100   3.181   0.679  1.4934  1.6689 -1.2534
   63GLOH    O3 9061   5.069   3.374   0.749 -0.0450 -0.0878  0.9796
   63GLOH   H01 9062   5.113   3.409   0.670 -1.9657  0.5536  0.1558
   64GLOH   H03 9063   4.883   3.708   0.424 -0.1593 -0.5254 -0.2504
   64GLOH    O1 9064   4.968   3.715   0.377  0.0711 -0.1787  0.2092
   64GLOH    C1 9065   5.071   3.758   0.466  0.2755 -0.5824 -0.0352
   64GLOH   H02 9066   5.050   3.859   0.503  1.7267 -0.2382 -0.1038
   64GLOH   H08 9067   5.157   3.762   0.399  1.5845 -0.9562  1.5700
   64GLOH    C2 9068   5.105   3.673   0.593  0.2220  0.6486  0.0839
   64GLOH   H04 9069   5.008   3.657   0.642  0.1959 -2.2062 -0.7782
   64GLOH    O2 9070   5.148   3.540   0.561 -0.8821 -0.1443  0.1621
   64GLOH   H05 9071   5.076   3.511   0.503  0.9173 -1.4704 -1.4604
   64GLOH    C3 9072   5.211   3.747   0.677  0.5793  0.3545  0.3947
   64GLOH   H06 9073   5.289   3.772   0.605 -0.2817  1.5985 -0.1115
   64GLOH   H07 9074   5.254   3.677   0.750  1.7252 -0.1533 -0.7390
   64GLOH    O3 9075   5.160   3.861   0.742 -0.1010 -0.0155  0.3751
   64GLOH   H01 9076   5.134   3.839   0.834 -1.0267  1.4877  0.4808
   65GLOH   H03 9077   3.210   9.705   0.872 -2.2241 -1.5842  0.7102
   65GLOH    O1 9078   3.255   9.630   0.828  0.0661 -0.1871  0.5492
   65GLOH    C1 9079   3.269   9.646   0.677  0.3075  0.0310 -0.0705
   65GLOH   H02 9080   3.348   9.716   0.649  0.2062  0.6403  1.1209
   65GLOH   H08 9081   3.173   9.676   0.635 -1.5806 -1.5786  2.9153
   65GLOH    C2 9082   3.304   9.512   0.614  0.5674 -0.4583  0.3926
   65GLOH   H04 9083   3.227   9.435   0.632  0.3658 -1.2282 -3.3102
   65GLOH    O2 9084   3.316   9.525   0.471  0.8152 -0.5413 -0.0560
   65GLOH   H05 9085   3.349   9.440   0.437 -0.3335 -1.0868  0.1808
   65GLOH    C3 9086   3.444   9.462   0.655 -0.2004 -0.1143  0.3889
   65GLOH   H06 9087   3.527   9.527   0.624  0.2365 -1.2552 -0.9057
   65GLOH   H07 9088   3.466   9.370   0.602  0.4011  0.2532 -0.0175
   65GLOH    O3 9089   3.439   9.442   0.800  0.5189 -0.2869 -0.0017
   65GLOH   H01 9090   3.383   9.514   0.833  1.5765  0.5913 -0.0713
   66GLOH   H03 9091   3.162   7.986   1.534  2.4482  0.7307  1.2338
   66GLOH    O1 9092   3.109   8.015   1.611 -0.1951  0.6454 -0.4744
   66GLOH    C1 9093   3.186   8.104   1.693  0.5681 -0.5349 -0.1935
   66GLOH   H02 9094   3.218   8.192   1.637  0.2411  0.6956  1.5245
   66GLOH   H08 9095   3.283   8.062   1.720  0.8544 -0.5329 -1.1906
   66GLOH    C2 9096   3.119   8.144   1.824  0.4392  0.6329  0.7039
   66GLOH   H04 9097   3.099   8.058   1.891 -1.5925  1.5345  1.2872
   66GLOH    O2 9098   3.210   8.228   1.900 -0.5109 -0.3048  0.6161
   66GLOH   H05 9099   3.188   8.216   1.994 -3.0036 -0.8533 -0.0099
   66GLOH    C3 9100   2.987   8.214   1.796 -0.6011  0.2515  0.7942
   66GLOH   H06 9101   2.938   8.170   1.710  1.8206 -0.1330 -0.4492
   66GLOH   H07 9102   3.013   8.314   1.760 -0.5410 -0.6334 -1.7229
   66GLOH    O3 9103   2.903   8.212   1.912  0.1447  0.6060  0.0915
   66GLOH   H01 9104   2.870   8.304   1.920  1.5521  1.0599  0.7641
   67GLOH   H03 9105   4.669   4.081   0.447  1.2193  1.4516  1.6740
   67GLOH    O1 9106   4.647   4.007   0.507  0.4355  0.4475  0.1558
   67GLOH    C1 9107   4.701   4.044   0.637  0.7861 -0.1122 -0.1638
   67GLOH   H02 9108   4.652   3.978   0.709 -2.0886  0.4225 -1.5289
   67GLOH   H08 9109   4.675   4.146   0.666  0.3301 -0.1846 -0.3189
   67GLOH    C2 9110   4.852   4.032   0.657 -0.0198  0.2433 -0.1869
   67GLOH   H04 9111   4.871   3.924   0.656  2.9118  0.7194  0.7869
   67GLOH    O2 9112   4.919   4.106   0.561 -0.2080 -0.2090 -0.1043
   67GLOH   H05 9113   4.944   4.054   0.483 -2.1966 -2.3228  0.6299
   67GLOH    C3 9114   4.888   4.065   0.800 -0.4495  0.3561  0.4296
   67GLOH   H06 9115   4.873   4.172   0.811  1.8663  0.7689 -0.2680
   67GLOH   H07 9116   4.997   4.057   0.806 -0.7575 -3.2786  2.5644
   67GLOH    O3 9117   4.841   3.989   0.917  0.5983  1.0626  0.5462
   67GLOH   H01 9118   4.756   4.017   0.955 -0.5228 -0.1716 -0.9781
   68GLOH   H03 9119   2.871   6.196   0.426 -0.3472  0.5327  1.4654
   68GLOH    O1 9120   2.890   6.284   0.389  0.1017 -0.1862 -0.0725
   68GLOH    C1 9121   2.998   6.283   0.288  0.0243 -0.4398  0.6865
   68GLOH   H02 9122   3.078   6.351   0.315  0.3356 -0.8606  0.8270
   68GLOH   H08 9123   2.958   6.312   0.191  1.6548 -3.3311 -0.9137
   68GLOH    C2 9124   3.062   6.145   0.271  0.7263  0.1732  1.2858
   68GLOH   H04 9125   2.993   6.078   0.219  0.1780  0.2470  1.9096
   68GLOH    O2 9126   3.188   6.159   0.204 -0.1231 -0.1789  0.3967
   68GLOH   H05 9127   3.180   6.202   0.117 -0.0717 -0.5536  0.2056
   68GLOH    C3 9128   3.078   6.075   0.410  0.5755 -0.3316 -0.1414
   68GLOH   H06 9129   3.129   6.142   0.478 -0.0756 -0.8647  0.8844
   68GLOH   H07 9130   3.140   5.986   0.404  0.3221 -0.4802 -0.5972
   68GLOH    O3 9131   2.946   6.045   0.467 -0.5820 -0.0080 -0.0744
   68GLOH   H01 9132   2.950   5.978   0.538 -0.3582 -1.1051 -1.0887
   69GLOH   H03 9133   3.499   3.337   1.636 -0.4017 -1.2938  1.0238
   69GLOH    O1 9134   3.591   3.305   1.644  0.3932  0.5185 -0.3325
   69GLOH    C1 9135   3.569   3.194   1.726  0.1296  1.0241  0.3599
   69GLOH   H02 9136   3.639   3.112   1.713 -0.8272  0.3775 -0.8165
   69GLOH   H08 9137   3.471   3.148   1.711  1.6430 -1.5068 -2.4340
   69GLOH    C2 9138   3.576   3.233   1.872  0.5252  0.0741 -0.6241
   69GLOH   H04 9139   3.494   3.304   1.889 -1.4805 -2.5722  1.1810
   69GLOH    O2 9140   3.556   3.116   1.953 -0.2926 -0.2492  0.0578
   69GLOH   H05 9141   3.513   3.134   2.039  0.1525  1.4618 -0.0628
   69GLOH    C3 9142   3.709   3.299   1.908  0.4233 -1.2096  0.1763
   69GLOH   H06 9143   3.784   3.222   1.893  2.1233  0.3999  0.1840
   69GLOH   H07 9144   3.703   3.319   2.015 -1.1943  2.4966 -0.5448
   69GLOH    O3 9145   3.732   3.421   1.840  0.2651  0.3330  0.5751
   69GLOH   H01 9146   3.663   3.433   1.773  2.2312 -0.2425 -1.6429
   70GLOH   H03 9147   2.992   6.565   1.603 -0.4072  0.9973 -2.4828
   70GLOH    O1 9148   3.021   6.652   1.636  0.3277 -0.1033 -0.0826
   70GLOH    C1 9149   3.000   6.651   1.781  0.5197  0.6209  0.3584
   70GLOH   H02 9150   3.052   6.568   1.828  0.0794  0.6011  0.8090
   70GLOH   H08 9151   2.894   6.631   1.799  0.4730  1.3055  0.8760
   70GLOH    C2 9152   3.038   6.783   1.856  0.7035 -0.2702 -0.2971
   70GLOH   H04 9153   2.952   6.848   1.835  1.4928  0.3613 -1.6680
   70GLOH    O2 9154   3.053   6.767   1.999  0.0598  0.2794 -0.0132
   70GLOH   H05 9155   3.064   6.856   2.037 -1.2547  0.4768 -0.0835
   70GLOH    C3 9156   3.170   6.832   1.796  0.2399 -0.5988  0.1382
   70GLOH   H06 9157   3.256   6.768   1.816 -1.3619 -2.4425  1.3900
   70GLOH   H07 9158   3.193   6.927   1.843 -1.1917  1.0466 -2.4028
   70GLOH    O3 9159   3.158   6.863   1.657  0.6266  0.3072 -0.2197
   70GLOH   H01 9160   3.120   6.781   1.619  1.7242 -1.3685  2.1179
   71GLOH   H03 9161   4.054   2.761   0.947 -0.6076  1.2893 -1.4381
   71GLOH    O1 9162   4.009   2.692   0.895  0.5393 -0.4801 -0.1392
   71GLOH    C1 9163   3.999   2.579   0.985 -0.1017  0.3420  0.0876
   71GLOH   H02 9164   3.951   2.610   1.078 -1.5107  0.2336 -0.5830
   71GLOH   H08 9165   4.099   2.551   1.015 -1.2028 -2.2784  1.5008
   71GLOH    C2 9166   3.926   2.456   0.929 -0.7805  0.1348 -0.1419
   71GLOH   H04 9167   3.824   2.491   0.904 -0.4833  0.7188 -0.5538
   71GLOH    O2 9168   3.992   2.403   0.812  0.2802 -0.0870  0.7979
   71GLOH   H05 9169   3.996   2.474   0.747  1.6378 -1.8184 -1.0819
   71GLOH    C3 9170   3.908   2.352   1.039 -0.3367  0.1196  0.2122
   71GLOH   H06 9171   4.010   2.318   1.052 -0.7203 -1.9444 -1.7747
   71GLOH   H07 9172   3.855   2.264   1.002  1.4567 -1.8229  2.2145
   71GLOH    O3 9173   3.845   2.382   1.160 -0.2334 -0.4326  0.1054
   71GLOH   H01 9174   3.867   2.316   1.229  0.3084 -1.8336 -1.3872
   72GLOH   H03 9175   3.959   8.903   2.625 -2.6874 -0.8430 -1.5304
   72GLOH    O1 9176   3.944   8.842   2.699 -0.2637  0.8285  0.4320
   72GLOH    C1 9177   4.060   8.835   2.781  0.1212  1.1921  0.1081
   72GLOH   H02 9178   4.144   8.860   2.716 -0.7579  2.1925 -0.6584
   72GLOH   H08 9179   4.071   8.734   2.821 -0.5515  0.6916 -0.9490
   72GLOH    C2 9180   4.070   8.921   2.906  0.1501 -0.7782  0.3520
   72GLOH   H04 9181   3.987   8.899   2.975  1.0229  2.2392  2.5120
   72GLOH    O2 9182   4.187   8.885   2.984  0.2955 -0.0824 -0.2456
   72GLOH   H05 9183   4.186   8.797   3.025  0.7070  0.6630  1.3990
   72GLOH    C3 9184   4.078   9.074   2.884  0.3865  0.6930 -0.2181
   72GLOH   H06 9185   4.163   9.092   2.819  1.2564 -0.4941  0.5792
   72GLOH   H07 9186   4.099   9.114   2.984 -0.7267  0.5461  0.0906
   72GLOH    O3 9187   3.952   9.123   2.831  0.3006 -0.1329 -0.2497
   72GLOH   H01 9188   3.982   9.174   2.754 -0.0015  0.0432 -0.2496
   73GLOH   H03 9189   3.860   8.874   1.209  0.9657  0.0096  0.4847
   73GLOH    O1 9190   3.869   8.818   1.130  0.1269  0.6624 -0.0753
   73GLOH    C1 9191   3.892   8.886   1.004 -0.8907  0.5556  0.5719
   73GLOH   H02 9192   3.997   8.909   0.988 -0.8192 -0.2711 -0.2273
   73GLOH   H08 9193   3.856   8.989   1.011 -0.3003  0.8433 -0.4472
   73GLOH    C2 9194   3.842   8.814   0.878  0.4726  0.5651 -0.6041
   73GLOH   H04 9195   3.733   8.816   0.894  0.6074 -1.9561  0.9826
   73GLOH    O2 9196   3.878   8.883   0.758  0.1223  0.4824  0.0103
   73GLOH   H05 9197   3.851   8.976   0.764 -0.4841  0.2051  1.9407
   73GLOH    C3 9198   3.886   8.667   0.862 -0.0865 -0.1111  0.1475
   73GLOH   H06 9199   3.881   8.620   0.961  0.8415 -0.5932 -0.0292
   73GLOH   H07 9200   3.991   8.673   0.833  0.2368  1.5386  1.5562
   73GLOH    O3 9201   3.824   8.593   0.754  0.0636 -0.0665  0.0001
   73GLOH   H01 9202   3.746   8.641   0.723 -0.2439 -0.2027  0.5593
   74GLOH   H03 9203   4.744   1.852   2.440  0.4955  0.4073 -1.5897
   74GLOH    O1 9204   4.670   1.793   2.417 -0.2566  0.6389  0.1363
   74GLOH    C1 9205   4.553   1.876   2.402 -0.2500  0.1713 -0.0027
   74GLOH   H02 9206   4.573   1.968   2.348  1.3457  0.6722  1.3872
   74GLOH   H08 9207   4.500   1.894   2.496 -1.7808  0.9835 -1.0015
   74GLOH    C2 9208   4.442   1.809   2.326 -0.0500  0.4598  0.3138
   74GLOH   H04 9209   4.402   1.732   2.393 -0.7552  0.8447  0.3453
   74GLOH    O2 9210   4.343   1.915   2.295 -0.0126  0.2578  0.2482
   74GLOH   H05 9211   4.257   1.877   2.269  0.0345  0.9188 -0.9221
   74GLOH    C3 9212   4.483   1.728   2.196 -0.5835  0.2481 -0.6288
   74GLOH   H06 9213   4.538   1.641   2.233  0.5958  1.3231  0.2091
   74GLOH   H07 9214   4.556   1.788   2.141 -1.5514  0.6084 -1.5191
   74GLOH    O3 9215   4.374   1.679   2.113 -0.2502  0.4256  0.4672
   74GLOH   H01 9216   4.309   1.631   2.168 -0.8631 -0.5019 -1.0401
   75GLOH   H03 9217   2.929   5.325   0.589  0.7639 -0.4251 -2.0190
   75GLOH    O1 9218   2.983   5.246   0.609  0.3169 -0.1606  0.4242
   75GLOH    C1 9219   3.080   5.274   0.715  0.5773  0.4098  0.2429
   75GLOH   H02 9220   3.025   5.310   0.801  0.9112  1.3538  0.0646
   75GLOH   H08 9221   3.149   5.352   0.682  0.0596  0.7673 -0.0076
   75GLOH    C2 9222   3.157   5.151   0.762 -0.1015 -0.6342 -0.7941
   75GLOH   H04 9223   3.164   5.075   0.684 -0.7584  1.1809 -2.6571
   75GLOH    O2 9224   3.290   5.176   0.812  0.3235  0.0856  0.2324
   75GLOH   H05 9225   3.350   5.105   0.782  0.4305 -0.5147  1.8024
   75GLOH    C3 9226   3.070   5.081   0.873 -0.2576  0.0450 -0.2752
   75GLOH   H06 9227   3.060   5.147   0.959  0.4952 -0.3256  0.1054
   75GLOH   H07 9228   3.130   4.998   0.912  0.9958  1.2636  0.4276
   75GLOH    O3 9229   2.942   5.043   0.827  0.6033  0.3920  0.1490
   75GLOH   H01 9230   2.948   4.961   0.774  1.4678  0.5880 -0.0672
   76GLOH   H03 9231   3.975   1.363   2.224  0.1247  1.0946  1.6360
   76GLOH    O1 9232   4.063   1.381   2.186 -0.3295 -0.1138 -0.0344
   76GLOH    C1 9233   4.039   1.406   2.048  0.1475  0.6278  0.2359
   76GLOH   H02 9234   4.040   1.313   1.991  1.1939 -0.5593  2.1455
   76GLOH   H08 9235   4.118   1.464   2.001 -0.1157  0.5877 -0.2638
   76GLOH    C2 9236   3.905   1.481   2.021  0.0679  0.9314 -0.2325
   76GLOH   H04 9237   3.904   1.573   2.080  1.7697  1.5318 -1.1162
   76GLOH    O2 9238   3.890   1.525   1.886 -0.2127  0.0379 -0.3971
   76GLOH   H05 9239   3.799   1.520   1.852  0.3125 -1.3122 -1.6833
   76GLOH    C3 9240   3.793   1.400   2.077 -0.2614  0.2730  0.1767
   76GLOH   H06 9241   3.790   1.300   2.033 -1.5472  1.1446 -1.8343
   76GLOH   H07 9242   3.698   1.438   2.040 -0.0426 -0.0987 -0.8037
   76GLOH    O3 9243   3.802   1.388   2.215  0.1158 -0.0943  0.0036
   76GLOH   H01 9244   3.737   1.447   2.257  3.3590  2.0403  2.2814
   77GLOH   H03 9245   3.501   8.038   0.928 -0.5087  2.6425  1.5804
   77GLOH    O1 9246   3.430   7.999   0.984 -0.2176  0.0330  0.1984
   77GLOH    C1 9247   3.351   8.110   1.025  0.4074  0.0670 -0.2490
   77GLOH   H02 9248   3.263   8.088   1.086  0.1715  0.5537 -0.4061
   77GLOH   H08 9249   3.306   8.160   0.939  0.1258  1.7144  0.8204
   77GLOH    C2 9250   3.433   8.208   1.106  0.3100 -0.1428  0.0305
   77GLOH   H04 9251   3.513   8.242   1.038 -0.6330 -1.2982 -1.6863
   77GLOH    O2 9252   3.357   8.328   1.135  0.7380  0.4546  0.0762
   77GLOH   H05 9253   3.412   8.385   1.191 -2.2704  1.5616  2.0596
   77GLOH    C3 9254   3.503   8.139   1.225 -0.4674 -0.2736 -0.4411
   77GLOH   H06 9255   3.568   8.217   1.266 -1.1103  0.3046 -0.5121
   77GLOH   H07 9256   3.568   8.058   1.190 -0.4002 -0.1555 -0.5915
   77GLOH    O3 9257   3.421   8.101   1.335 -0.1313  0.0371  0.4614
   77GLOH   H01 9258   3.459   8.137   1.416  0.9321  0.5621 -0.2674
   78GLOH   H03 9259   4.221   4.939   1.021  0.3827 -2.1863 -0.5851
   78GLOH    O1 9260   4.312   4.964   0.996  0.1277 -0.1122  0.4717
   78GLOH    C1 9261   4.404   4.867   0.956  0.0379 -0.0183  0.1094
   78GLOH   H02 9262   4.451   4.817   1.040  0.9082 -0.5255 -0.6661
   78GLOH   H08 9263   4.484   4.919   0.902 -1.7285 -0.2006 -2.7765
   78GLOH    C2 9264   4.350   4.757   0.857 -0.3644 -0.0828 -0.9056
   78GLOH   H04 9265   4.288   4.684   0.911  1.4783 -0.5062  0.6783
   78GLOH    O2 9266   4.288   4.824   0.746  0.0802  0.5096 -0.0863
   78GLOH   H05 9267   4.329   4.906   0.716  2.9319 -0.4619  1.0299
   78GLOH    C3 9268   4.473   4.675   0.809 -0.0666  0.0062 -0.1058
   78GLOH   H06 9269   4.543   4.726   0.743  1.8767 -0.7360  1.3213
   78GLOH   H07 9270   4.425   4.594   0.755 -1.0909  1.0073 -0.7018
   78GLOH    O3 9271   4.551   4.613   0.915 -0.4950  0.3047  0.7247
   78GLOH   H01 9272   4.496   4.569   0.982  2.1243 -0.7702  2.2271
   79GLOH   H03 9273   4.092   1.577   0.316  3.3500  0.7443 -1.8854
   79GLOH    O1 9274   4.118   1.487   0.343 -0.2548  0.1955  0.0766
   79GLOH    C1 9275   4.072   1.474   0.478 -0.0231 -0.1048 -0.4697
   79GLOH   H02 9276   3.967   1.443   0.469  0.0344 -0.7572  1.0200
   79GLOH   H08 9277   4.072   1.565   0.537 -0.1897 -0.5355  0.1992
   79GLOH    C2 9278   4.136   1.357   0.562 -0.1456 -0.1469 -0.3142
   79GLOH   H04 9279   4.067   1.345   0.647 -1.8202  0.8057 -1.5037
   79GLOH    O2 9280   4.159   1.236   0.492 -0.4402 -0.4368  0.0196
   79GLOH   H05 9281   4.208   1.255   0.410 -0.2359 -1.4656 -0.1056
   79GLOH    C3 9282   4.264   1.408   0.630 -0.2811 -0.1078  0.2783
   79GLOH   H06 9283   4.331   1.426   0.546 -0.3526 -3.1272 -0.4566
   79GLOH   H07 9284   4.307   1.325   0.687 -0.5318 -0.4405 -0.0169
   79GLOH    O3 9285   4.249   1.523   0.715 -0.2694 -0.2998 -0.0776
   79GLOH   H01 9286   4.337   1.549   0.749  0.0239  0.0242 -1.0450
   80GLOH   H03 9287   3.781   9.247   1.483  1.2729  1.0223 -0.3256
   80GLOH    O1 9288   3.848   9.186   1.518  0.3651 -0.0297 -0.3802
   80GLOH    C1 9289   3.797   9.121   1.638  0.5558 -0.0417  0.0808
   80GLOH   H02 9290   3.865   9.042   1.670  1.6038  1.9805  2.9713
   80GLOH   H08 9291   3.703   9.073   1.612  1.3372 -1.6434  0.1265
   80GLOH    C2 9292   3.761   9.225   1.751  0.0220  0.3635 -0.7389
   80GLOH   H04 9293   3.691   9.303   1.718 -1.0618  0.8693  2.6104
   80GLOH    O2 9294   3.709   9.150   1.863  0.4194 -0.3753  0.1123
   80GLOH   H05 9295   3.698   9.193   1.949  0.1436  1.2149 -0.7016
   80GLOH    C3 9296   3.891   9.288   1.791  0.6759 -0.4584 -0.3964
   80GLOH   H06 9297   3.942   9.201   1.831 -0.1783 -0.7945 -0.0202
   80GLOH   H07 9298   3.869   9.360   1.869 -0.0353 -0.5288 -0.5223
   80GLOH    O3 9299   3.963   9.350   1.681  0.7147 -0.2952 -0.3346
   80GLOH   H01 9300   3.946   9.287   1.608  0.0189  0.7490 -1.1021
   81GLOH   H03 9301   3.012   3.835   2.389 -2.5437  2.1083 -0.0338
   81GLOH    O1 9302   3.003   3.835   2.292 -0.2109  0.0924 -0.3047
   81GLOH    C1 9303   3.104   3.740   2.255 -0.0579 -0.7544 -0.2898
   81GLOH   H02 9304   3.196   3.797   2.242 -0.9120  0.3681 -1.6098
   81GLOH   H08 9305   3.066   3.705   2.159 -0.1079  0.8835 -0.8851
   81GLOH    C2 9306   3.128   3.619   2.342  0.1937  0.0047 -0.6634
   81GLOH   H04 9307   3.224   3.574   2.310  1.0374  2.6507 -1.9549
   81GLOH    O2 9308   3.139   3.659   2.480 -0.4827 -0.1487 -0.6872
   81GLOH   H05 9309   3.226   3.642   2.520 -0.4367 -1.3818 -1.2874
   81GLOH    C3 9310   3.021   3.512   2.320 -0.2247  0.0093 -0.2114
   81GLOH   H06 9311   2.926   3.563   2.303  0.9097  1.9141 -0.9156
   81GLOH   H07 9312   3.012   3.441   2.402  1.2273 -0.0623 -0.1006
   81GLOH    O3 9313   3.043   3.431   2.202  0.5659 -0.0058 -0.1176
   81GLOH   H01 9314   3.013   3.343   2.230  2.5475 -1.0607 -1.1900
   82GLOH   H03 9315   3.044   1.067   1.863  0.5541  1.5322  0.6026
   82GLOH    O1 9316   3.116   1.025   1.914 -0.2418 -0.3491  0.2117
   82GLOH    C1 9317   3.071   0.891   1.958  0.1545  0.8700  0.3871
   82GLOH   H02 9318   3.129   0.841   2.035 -0.6602  0.2832  0.6197
   82GLOH   H08 9319   3.076   0.824   1.872  0.4889  0.0718  1.0243
   82GLOH    C2 9320   2.933   0.898   2.017  0.5168 -0.2907  0.3255
   82GLOH   H04 9321   2.931   0.977   2.094  1.1130 -1.6871  1.7853
   82GLOH    O2 9322   2.826   0.920   1.919  0.4316 -0.1742 -0.2215
   82GLOH   H05 9323   2.830   1.012   1.887  0.2902  0.1966  0.8059
   82GLOH    C3 9324   2.907   0.770   2.094 -0.5996  0.2841 -0.2590
   82GLOH   H06 9325   2.930   0.683   2.032 -3.6455 -0.1825 -0.8432
   82GLOH   H07 9326   2.801   0.760   2.119 -0.6621 -0.1191 -0.6823
   82GLOH    O3 9327   2.991   0.765   2.206  0.4714 -0.0677  0.2944
   82GLOH   H01 9328   3.009   0.671   2.223  1.8788 -0.1556 -1.5954
   83GLOH   H03 9329   4.164   2.446  -0.006 -0.2695 -0.8639 -0.4666
   83GLOH    O1 9330   4.245   2.394  -0.018 -0.0790 -0.6213 -0.2239
   83GLOH    C1 9331   4.191   2.272  -0.065  0.5797 -0.1451  0.5695
   83GLOH   H02 9332   4.103   2.285  -0.127  0.6825  3.0428  1.0258
   83GLOH   H08 9333   4.164   2.213   0.023 -0.4726  0.5592  0.7234
   83GLOH    C2 9334   4.292   2.192  -0.148  0.7178  0.0801  0.4529
   83GLOH   H04 9335   4.388   2.188  -0.094  1.0958  1.1083 -0.1359
   83GLOH    O2 9336   4.244   2.064  -0.183 -0.6677  1.2034  0.5920
   83GLOH   H05 9337   4.311   2.015  -0.234 -1.2588 -1.4590  2.2843
   83GLOH    C3 9338   4.324   2.274  -0.275  0.0377 -0.0899  0.3259
   83GLOH   H06 9339   4.231   2.313  -0.315  0.5278  1.7269  0.9094
   83GLOH   H07 9340   4.363   2.209  -0.354 -1.5894 -0.4484 -0.1906
   83GLOH    O3 9341   4.410   2.383  -0.246 -0.3404 -0.6839 -0.2476
   83GLOH   H01 9342   4.391   2.420  -0.157 -1.0807  0.9216 -1.0563
   84GLOH   H03 9343   3.040   3.358   0.022  1.5711  0.5142  0.3682
   84GLOH    O1 9344   3.093   3.291  -0.024  0.3403 -0.4474  0.3316
   84GLOH    C1 9345   3.226   3.330  -0.017 -0.5812 -0.1438 -0.5891
   84GLOH   H02 9346   3.244   3.383   0.077  3.2207  1.4509 -2.1205
   84GLOH   H08 9347   3.248   3.402  -0.095  0.9419 -0.8490 -0.8422
   84GLOH    C2 9348   3.324   3.214  -0.032  0.2569  0.1413 -0.4759
   84GLOH   H04 9349   3.417   3.251   0.014 -0.6525 -0.8624  2.3220
   84GLOH    O2 9350   3.285   3.096   0.048 -0.5591 -0.5400  0.3812
   84GLOH   H05 9351   3.193   3.104   0.078 -1.2481 -1.3776 -1.3969
   84GLOH    C3 9352   3.346   3.188  -0.181 -0.1637 -0.4741  0.1726
   84GLOH   H06 9353   3.365   3.280  -0.236 -1.5638 -0.3459 -0.1124
   84GLOH   H07 9354   3.258   3.146  -0.230 -1.2065 -0.2378  1.8319
   84GLOH    O3 9355   3.454   3.098  -0.212  0.0370 -0.3897  0.2122
   84GLOH   H01 9356   3.470   3.044  -0.133 -0.8387  0.1112  0.7290
   85GLOH   H03 9357   4.907   2.313   0.249  1.6754 -0.4782  0.8619
   85GLOH    O1 9358   4.845   2.264   0.306 -0.2343 -0.0428 -0.7908
   85GLOH    C1 9359   4.878   2.126   0.293 -0.4134  0.4601  0.2841
   85GLOH   H02 9360   4.835   2.074   0.379  0.1060  1.0908  0.9375
   85GLOH   H08 9361   4.986   2.130   0.309 -0.5055  2.0802  0.5995
   85GLOH    C2 9362   4.838   2.059   0.161 -0.1588  1.2095 -0.0958
   85GLOH   H04 9363   4.729   2.050   0.148 -0.0158 -1.1156  0.1045
   85GLOH    O2 9364   4.891   2.123   0.042  0.0495 -0.4107 -0.7681
   85GLOH   H05 9365   4.875   2.219   0.044 -0.0165 -0.3759 -2.4894
   85GLOH    C3 9366   4.888   1.912   0.170 -0.5987 -0.3450 -0.5696
   85GLOH   H06 9367   4.996   1.918   0.183 -0.7054  3.0090 -0.8706
   85GLOH   H07 9368   4.862   1.858   0.079 -0.2544 -0.0327 -0.8577
   85GLOH    O3 9369   4.828   1.846   0.279 -0.2186  0.1951  0.3389
   85GLOH   H01 9370   4.733   1.860   0.262 -0.0361  0.6706 -0.3035
   86GLOH   H03 9371   4.021   4.618   1.834 -0.0275 -2.7808  1.4841
   86GLOH    O1 9372   3.923   4.614   1.838 -0.2896  0.2960 -0.0215
   86GLOH    C1 9373   3.891   4.644   1.979  0.2684 -0.0598  0.1293
   86GLOH   H02 9374   3.887   4.751   1.996  0.2398 -0.3458  1.9982
   86GLOH   H08 9375   3.974   4.613   2.042 -1.6612  1.0864  3.3312
   86GLOH    C2 9376   3.766   4.561   2.019  0.1810  0.5415 -0.7141
   86GLOH   H04 9377   3.687   4.584   1.947 -0.2103 -0.3215 -0.5695
   86GLOH    O2 9378   3.795   4.424   2.040 -0.8838  0.1880  0.0084
   86GLOH   H05 9379   3.717   4.377   2.074 -1.5526  2.2110  1.4233
   86GLOH    C3 9380   3.713   4.629   2.150  0.3340  0.0953  0.3841
   86GLOH   H06 9381   3.796   4.628   2.221  1.3659 -1.5458 -0.7937
   86GLOH   H07 9382   3.639   4.570   2.205 -1.1516  0.7154 -0.9139
   86GLOH    O3 9383   3.666   4.760   2.127  0.0010 -0.0736  0.3843
   86GLOH   H01 9384   3.618   4.780   2.210  0.4536  0.7488  0.4545
   87GLOH   H03 9385   4.734   4.340  -0.016 -0.4882  0.4954 -1.2498
   87GLOH    O1 9386   4.694   4.410   0.038  0.1824  0.1739 -0.3298
   87GLOH    C1 9387   4.716   4.392   0.181 -0.6121  0.0935 -0.4282
   87GLOH   H02 9388   4.675   4.471   0.243  1.4655 -0.3067  1.5153
   87GLOH   H08 9389   4.824   4.396   0.195 -0.6349  0.1637 -0.2746
   87GLOH    C2 9390   4.671   4.254   0.229  0.4185  0.4822  0.1758
   87GLOH   H04 9391   4.735   4.186   0.171 -1.0071 -1.0333  0.3290
   87GLOH    O2 9392   4.691   4.241   0.369  0.6463 -0.3278  0.3015
   87GLOH   H05 9393   4.614   4.280   0.414 -0.4801 -0.6309 -1.3317
   87GLOH    C3 9394   4.528   4.230   0.179  0.3720 -0.6590  0.0385
   87GLOH   H06 9395   4.507   4.128   0.211  1.1204 -0.5394  0.9054
   87GLOH   H07 9396   4.516   4.224   0.070  0.4011 -2.2135  0.1096
   87GLOH    O3 9397   4.430   4.319   0.222  0.4276  0.2136 -0.3895
   87GLOH   H01 9398   4.436   4.314   0.319 -0.3308 -0.0684 -0.3527
   88GLOH   H03 9399   4.976   3.122   1.500  2.5882 -1.3978 -2.6544
   88GLOH    O1 9400   5.028   3.198   1.532 -0.2623 -0.2843 -0.4097
   88GLOH    C1 9401   4.983   3.313   1.455  0.6323  0.4796  0.0327
   88GLOH   H02 9402   5.004   3.411   1.499  0.7338  0.0895  0.8477
   88GLOH   H08 9403   4.877   3.302   1.432  0.6882  0.0964 -0.0402
   88GLOH    C2 9404   5.047   3.324   1.324  0.1652  0.2128  0.0846
   88GLOH   H04 9405   5.001   3.244   1.263 -2.4373  1.1009  0.8124
   88GLOH    O2 9406   5.036   3.455   1.259 -0.1331  0.5250 -0.0987
   88GLOH   H05 9407   5.052   3.443   1.164 -0.6927 -0.8339 -0.0407
   88GLOH    C3 9408   5.197   3.288   1.333 -0.0406 -0.1354  0.0903
   88GLOH   H06 9409   5.203   3.191   1.382 -1.8389  0.3284  1.2847
   88GLOH   H07 9410   5.244   3.359   1.401  0.7252  0.2782 -0.8644
   88GLOH    O3 9411   5.263   3.290   1.202  0.0419 -0.5153 -0.0215
   88GLOH   H01 9412   5.293   3.378   1.175  0.5591 -0.5105  0.5469
   89GLOH   H03 9413   2.447   8.174   1.939  1.0885 -0.6158  0.8880
   89GLOH    O1 9414   2.483   8.190   1.850 -0.4025 -0.0578  0.3726
   89GLOH    C1 9415   2.507   8.076   1.779 -0.1045 -0.9766  1.0313
   89GLOH   H02 9416   2.415   8.033   1.738 -2.2200  4.7816 -0.6956
   89GLOH   H08 9417   2.565   8.008   1.841  0.0690  0.3940  2.3908
   89GLOH    C2 9418   2.595   8.093   1.649  0.1560 -0.0452  0.0621
   89GLOH   H04 9419   2.698   8.083   1.685 -0.0524  1.2023  1.0706
   89GLOH    O2 9420   2.570   7.990   1.555  0.5860  0.0347 -0.1270
   89GLOH   H05 9421   2.632   7.920   1.578 -1.5112 -2.2562 -1.1696
   89GLOH    C3 9422   2.574   8.237   1.592 -1.3984 -0.0964 -0.2348
   89GLOH   H06 9423   2.470   8.261   1.568 -1.0960 -1.5350 -3.2684
   89GLOH   H07 9424   2.627   8.237   1.497  0.3003 -1.7281  0.6976
   89GLOH    O3 9425   2.632   8.329   1.691 -0.4013 -0.0512 -1.5785
   89GLOH   H01 9426   2.587   8.306   1.774  2.2193  0.9316  0.1670
   90GLOH   H03 9427   2.744   8.518   1.902  0.8965 -0.7171 -2.7330
   90GLOH    O1 9428   2.795   8.455   1.957 -0.4202  0.5272 -0.0185
   90GLOH    C1 9429   2.911   8.531   1.990 -0.0415 -0.1503  0.1059
   90GLOH   H02 9430   2.961   8.547   1.894 -0.9322 -0.3178 -0.3948
   90GLOH   H08 9431   2.979   8.478   2.057 -1.0226  0.5831  1.7061
   90GLOH    C2 9432   2.889   8.667   2.057  0.4264 -0.3706  0.2198
   90GLOH   H04 9433   2.835   8.736   1.991  0.0001 -1.4164 -0.5487
   90GLOH    O2 9434   2.796   8.651   2.171  0.3712 -0.0633  0.0675
   90GLOH   H05 9435   2.847   8.599   2.236 -0.4917 -1.6900 -0.5196
   90GLOH    C3 9436   3.016   8.730   2.103 -0.9747  0.0458  0.0556
   90GLOH   H06 9437   3.065   8.652   2.160 -0.9121  0.7104  0.9280
   90GLOH   H07 9438   2.989   8.813   2.168  1.4294  0.1328  0.9945
   90GLOH    O3 9439   3.107   8.762   1.996  0.6134 -0.3847  0.1745
   90GLOH   H01 9440   3.057   8.767   1.912  0.4183  0.3403  0.3289
   91GLOH   H03 9441   2.554  10.191   2.303 -0.2889  0.9233  0.7139
   91GLOH    O1 9442   2.585  10.255   2.237  0.2738 -0.2429 -0.1702
   91GLOH    C1 9443   2.578  10.208   2.108  0.4359 -0.2441  0.2901
   91GLOH   H02 9444   2.599  10.287   2.036 -1.6371  0.4469  0.4251
   91GLOH   H08 9445   2.477  10.177   2.083  0.9287 -2.1153  0.5235
   91GLOH    C2 9446   2.675  10.091   2.089 -0.3853 -0.4241  0.0855
   91GLOH   H04 9447   2.686  10.036   2.183  2.5049 -0.5949 -0.3063
   91GLOH    O2 9448   2.618  10.004   1.989  0.3088  0.1320 -0.6090
   91GLOH   H05 9449   2.557   9.936   2.022 -0.5664  0.8071 -0.8260
   91GLOH    C3 9450   2.816  10.130   2.044 -0.0818  0.3780  0.2079
   91GLOH   H06 9451   2.799  10.186   1.952  2.9333 -0.1942 -0.7649
   91GLOH   H07 9452   2.882  10.044   2.028 -1.6399 -0.8921  0.4412
   91GLOH    O3 9453   2.878  10.205   2.141  0.4458  0.1831 -0.2917
   91GLOH   H01 9454   2.908  10.290   2.104 -3.2691  0.7750 -2.1519
   92GLOH   H03 9455   3.156   7.634   1.199 -3.4420  3.3194 -0.9222
   92GLOH    O1 9456   3.204   7.710   1.235  0.6811  0.3920  0.2482
   92GLOH    C1 9457   3.290   7.761   1.131 -0.1490 -0.6805 -0.1420
   92GLOH   H02 9458   3.393   7.729   1.145 -0.0073 -0.1749 -0.0039
   92GLOH   H08 9459   3.274   7.869   1.125 -1.0776 -0.7928  0.1505
   92GLOH    C2 9460   3.247   7.722   0.988 -0.4769 -0.3095 -0.2033
   92GLOH   H04 9461   3.144   7.759   0.973  0.1447  2.2857  1.5786
   92GLOH    O2 9462   3.333   7.794   0.893 -0.0451  0.4381 -0.2622
   92GLOH   H05 9463   3.363   7.876   0.936 -2.6590  0.0491  2.4460
   92GLOH    C3 9464   3.253   7.572   0.961  0.3097  0.4703  0.1618
   92GLOH   H06 9465   3.352   7.526   0.972  0.6355  1.3992  1.2638
   92GLOH   H07 9466   3.227   7.565   0.856  0.5820  1.5645  0.0178
   92GLOH    O3 9467   3.170   7.505   1.052 -0.0811  0.2401 -0.0868
   92GLOH   H01 9468   3.156   7.417   1.012 -1.2199 -0.0518  0.9094
   93GLOH   H03 9469   2.811   6.649   1.172  2.4059 -0.3011 -0.4963
   93GLOH    O1 9470   2.799   6.552   1.180  0.2978  0.0026  0.0669
   93GLOH    C1 9471   2.888   6.472   1.099  0.1490  0.0093  0.7425
   93GLOH   H02 9472   2.991   6.500   1.123  1.5595 -1.7191 -2.8964
   93GLOH   H08 9473   2.870   6.491   0.994  0.7678  0.9124  0.7885
   93GLOH    C2 9474   2.880   6.319   1.121  0.4303 -0.2230  0.3837
   93GLOH   H04 9475   2.778   6.286   1.094  0.9227 -1.5165  0.1014
   93GLOH    O2 9476   2.963   6.261   1.021 -0.1505  0.0619 -0.4950
   93GLOH   H05 9477   2.921   6.204   0.954 -3.3410 -0.9970  2.3148
   93GLOH    C3 9478   2.904   6.280   1.263  0.0205  0.2211  0.4521
   93GLOH   H06 9479   2.997   6.323   1.301 -0.3859  2.5708 -1.0783
   93GLOH   H07 9480   2.918   6.173   1.274  0.8850  0.3555  0.7107
   93GLOH    O3 9481   2.803   6.337   1.342  0.6235  0.7337 -0.2015
   93GLOH   H01 9482   2.764   6.408   1.289 -0.9791 -0.9552 -1.3573
   94GLOH   H03 9483   3.002   7.539   1.039  0.4665 -0.5875  1.3104
   94GLOH    O1 9484   2.909   7.515   1.057  0.0504 -0.0893 -0.0692
   94GLOH    C1 9485   2.806   7.617   1.051  0.1582  0.1160 -0.2686
   94GLOH   H02 9486   2.828   7.693   0.977 -0.2293  1.0203  0.5352
   94GLOH   H08 9487   2.820   7.672   1.144  1.0424 -1.5158  0.5821
   94GLOH    C2 9488   2.666   7.570   1.021  0.1350 -0.6272  1.0575
   94GLOH   H04 9489   2.647   7.481   1.083 -0.9177 -0.9889  0.2239
   94GLOH    O2 9490   2.561   7.668   1.035 -0.5442 -0.3677  0.3098
   94GLOH   H05 9491   2.589   7.748   0.988 -1.2081 -0.5102 -0.3399
   94GLOH    C3 9492   2.659   7.505   0.882  0.1613  0.1980 -0.4595
   94GLOH   H06 9493   2.685   7.579   0.806  0.0545  1.1587  0.4304
   94GLOH   H07 9494   2.560   7.460   0.870  0.5238 -0.4883 -0.9752
   94GLOH    O3 9495   2.755   7.399   0.871 -0.2520  0.2514 -0.5534
   94GLOH   H01 9496   2.834   7.431   0.919  0.9727 -0.7753 -1.8282
   95GLOH   H03 9497   4.383   4.479   2.377  1.4450  2.3102 -1.1426
   95GLOH    O1 9498   4.327   4.492   2.298 -0.2908 -0.2037 -0.3739
   95GLOH    C1 9499   4.396   4.463   2.178  0.0394  0.0308  0.0674
   95GLOH   H02 9500   4.489   4.405   2.184 -0.3985 -1.0064 -2.5271
   95GLOH   H08 9501   4.417   4.556   2.126 -0.4500 -1.0746 -2.1814
   95GLOH    C2 9502   4.310   4.382   2.082  0.1533 -0.1082 -0.4186
   95GLOH   H04 9503   4.215   4.437   2.082 -0.0111 -0.3403 -2.4883
   95GLOH    O2 9504   4.366   4.381   1.945  0.1123  0.2052  0.5720
   95GLOH   H05 9505   4.461   4.368   1.955  0.1519 -0.3859 -0.4805
   95GLOH    C3 9506   4.290   4.242   2.133 -0.1768  0.5830 -0.1029
   95GLOH   H06 9507   4.389   4.201   2.157 -0.9149 -1.6974 -0.8146
   95GLOH   H07 9508   4.259   4.177   2.051  0.4223 -1.9777  1.6496
   95GLOH    O3 9509   4.204   4.234   2.244 -0.5371 -0.3277  0.3932
   95GLOH   H01 9510   4.224   4.305   2.307 -0.1243 -1.0291  1.0545
   96GLOH   H03 9511   2.789   4.607   0.067 -1.3920  1.9198 -1.4175
   96GLOH    O1 9512   2.835   4.677   0.116 -0.0023  0.3138 -0.3446
   96GLOH    C1 9513   2.972   4.644   0.094  0.8171 -1.1377  0.7068
   96GLOH   H02 9514   2.997   4.537   0.093  2.6218 -0.7523  1.8148
   96GLOH   H08 9515   3.034   4.676   0.177  1.4746  1.2919 -0.6872
   96GLOH    C2 9516   3.030   4.724  -0.030 -0.0107  0.2514  0.0000
   96GLOH   H04 9517   3.042   4.827   0.007  1.7596  0.0725 -0.0444
   96GLOH    O2 9518   3.152   4.675  -0.076  0.3718 -0.3125  0.0392
   96GLOH   H05 9519   3.147   4.581  -0.100 -0.6783 -0.5334  1.0676
   96GLOH    C3 9520   2.926   4.716  -0.148 -0.3472  0.7503  0.2477
   96GLOH   H06 9521   2.839   4.771  -0.112 -2.6636 -2.5339 -0.1436
   96GLOH   H07 9522   2.888   4.615  -0.162  0.5617  0.2613  1.2113
   96GLOH    O3 9523   2.962   4.787  -0.271 -0.0931  0.2852  0.1070
   96GLOH   H01 9524   3.058   4.803  -0.282  0.5025 -1.6775  2.1511
   97GLOH   H03 9525   3.748   2.991   0.065  0.3000  0.5640  1.1662
   97GLOH    O1 9526   3.790   2.903   0.072  0.0409  0.3558  0.1844
   97GLOH    C1 9527   3.843   2.852  -0.053 -0.3131  0.4647  0.3906
   97GLOH   H02 9528   3.766   2.821  -0.123  1.7781 -1.8514 -0.9573
   97GLOH   H08 9529   3.905   2.765  -0.032 -0.9756  0.0971  0.8119
   97GLOH    C2 9530   3.934   2.959  -0.120 -0.2108 -0.2811 -0.1925
   97GLOH   H04 9531   3.937   3.049  -0.058  0.0693  0.1980 -0.8924
   97GLOH    O2 9532   4.069   2.902  -0.138 -0.2262  0.5883 -0.6014
   97GLOH   H05 9533   4.101   2.914  -0.047 -0.6069  0.8849 -0.5039
   97GLOH    C3 9534   3.881   3.008  -0.256 -0.0221 -0.3670  0.5936
   97GLOH   H06 9535   3.889   2.926  -0.327 -0.6929 -1.0060  1.2476
   97GLOH   H07 9536   3.946   3.089  -0.290  0.4391 -0.2497  1.7283
   97GLOH    O3 9537   3.746   3.055  -0.249  0.0167 -0.1556  0.3856
   97GLOH   H01 9538   3.710   3.058  -0.340  1.1820  0.6491 -0.0519
   98GLOH   H03 9539   3.935   3.228   0.322  0.5052 -0.4230 -0.2397
   98GLOH    O1 9540   4.008   3.168   0.348  0.7722 -0.0664 -0.1760
   98GLOH    C1 9541   4.051   3.092   0.226  0.3695  0.5856  0.2201
   98GLOH   H02 9542   4.121   3.152   0.168 -0.3505 -0.4888 -1.7992
   98GLOH   H08 9543   3.969   3.084   0.155  1.5104  3.8333 -1.5807
   98GLOH    C2 9544   4.110   2.956   0.261 -0.4767 -0.3467 -0.9781
   98GLOH   H04 9545   4.029   2.901   0.312 -1.1933  1.7291  0.1817
   98GLOH    O2 9546   4.134   2.888   0.136 -0.0768 -0.1054  0.0902
   98GLOH   H05 9547   4.161   2.795   0.149 -3.9169 -1.5562 -1.4341
   98GLOH    C3 9548   4.232   2.975   0.351 -0.4908  0.0861 -0.1490
   98GLOH   H06 9549   4.272   2.873   0.351  1.8295  0.9687 -1.4544
   98GLOH   H07 9550   4.202   3.005   0.452 -2.0181  1.2742 -0.9375
   98GLOH    O3 9551   4.336   3.065   0.301  0.1681  0.1213 -0.0733
   98GLOH   H01 9552   4.293   3.145   0.264  0.3946  0.2043 -0.1549
   99GLOH   H03 9553   3.768   0.870   2.444 -0.6641 -1.0731 -1.9425
   99GLOH    O1 9554   3.852   0.823   2.457 -0.4184 -0.0969  0.3200
   99GLOH    C1 9555   3.923   0.788   2.334  0.0751  0.5591 -0.4130
   99GLOH   H02 9556   3.999   0.712   2.352 -0.5022 -0.0763 -0.6460
   99GLOH   H08 9557   3.969   0.880   2.297 -1.7722  1.8277  0.3343
   99GLOH    C2 9558   3.833   0.715   2.234 -0.3226  1.1448  0.0655
   99GLOH   H04 9559   3.746   0.781   2.220 -0.9605  0.2224 -0.4071
   99GLOH    O2 9560   3.902   0.701   2.104  0.7067  0.2162  0.7586
   99GLOH   H05 9561   3.879   0.782   2.056  1.9645 -0.0871 -0.4024
   99GLOH    C3 9562   3.783   0.572   2.278 -0.5295  0.1808 -0.5377
   99GLOH   H06 9563   3.868   0.524   2.326 -0.6880  1.3792  1.0217
   99GLOH   H07 9564   3.760   0.520   2.185  0.1791  0.3450 -0.8013
   99GLOH    O3 9565   3.670   0.581   2.373 -0.0025 -0.0854 -0.8214
   99GLOH   H01 9566   3.603   0.651   2.362 -0.4184 -0.2363  0.6640
  100GLOH   H03 9567   2.866   8.190   2.454  0.1045  1.8017 -0.0927
  100GLOH    O1 9568   2.943   8.212   2.399  0.4472  0.0591 -0.3233
  100GLOH    C1 9569   2.970   8.103   2.312  0.0920 -0.2286  0.2495
  100GLOH   H02 9570   2.891   8.088   2.238 -0.8793  1.6108  0.8983
  100GLOH   H08 9571   2.959   8.007   2.363  0.9467  0.1483  1.1533
  100GLOH    C2 9572   3.106   8.095   2.238 -0.3261 -0.5323  0.1694
  100GLOH   H04 9573   3.100   8.015   2.163 -0.0930 -0.5704  0.1917
  100GLOH    O2 9574   3.158   8.214   2.171 -0.1784 -0.2281  0.7745
  100GLOH   H05 9575   3.190   8.284   2.231 -0.6009  1.3176 -0.7634
  100GLOH    C3 9576   3.217   8.057   2.336  0.1814  0.1864 -0.3484
  100GLOH   H06 9577   3.210   8.127   2.419 -0.1984 -0.5536  0.2508
  100GLOH   H07 9578   3.314   8.069   2.288  0.5505 -1.5697 -0.0904
  100GLOH    O3 9579   3.214   7.916   2.376 -0.0426  0.1443 -0.6282
  100GLOH   H01 9580   3.133   7.873   2.342 -0.3992 -0.3679  0.8451
  101GLOH   H03 9581   2.349   6.648   1.350 -0.0303 -0.6362 -1.1362
  101GLOH    O1 9582   2.445   6.663   1.357 -0.2183 -0.0485  0.2640
  101GLOH    C1 9583   2.538   6.583   1.442 -0.1014 -0.2285 -0.0923
  101GLOH   H02 9584   2.641   6.621   1.439  0.1149 -0.6423  1.3732
  101GLOH   H08 9585   2.538   6.481   1.402 -1.7249 -0.2406 -0.0784
  101GLOH    C2 9586   2.499   6.564   1.597  0.5589 -0.4830  0.1650
  101GLOH   H04 9587   2.478   6.660   1.646 -0.5503 -1.5542  1.8274
  101GLOH    O2 9588   2.375   6.492   1.598  0.3918 -0.4044 -0.3401
  101GLOH   H05 9589   2.337   6.503   1.686  0.5933  0.6889 -0.3880
  101GLOH    C3 9590   2.608   6.490   1.677 -0.5639 -0.3942 -0.7204
  101GLOH   H06 9591   2.709   6.529   1.662 -0.6511 -0.1110 -0.5821
  101GLOH   H07 9592   2.614   6.390   1.635 -0.2683 -0.2506 -1.0231
  101GLOH    O3 9593   2.585   6.486   1.819 -0.0112 -0.0006  0.2013
  101GLOH   H01 9594   2.593   6.578   1.850 -0.3167  1.1525 -2.9937
  102GLOH   H03 9595   3.257   5.981   2.239 -2.4990 -3.3153 -0.0106
  102GLOH    O1 9596   3.267   5.976   2.142 -0.4991 -0.4975 -0.0154
  102GLOH    C1 9597   3.243   6.099   2.076 -0.4145 -0.4465 -0.5950
  102GLOH   H02 9598   3.305   6.115   1.987  1.1385  2.3003  0.8920
  102GLOH   H08 9599   3.267   6.187   2.137 -0.5093 -0.4396 -0.5687
  102GLOH    C2 9600   3.098   6.114   2.036 -0.1916 -0.4979  0.1115
  102GLOH   H04 9601   3.038   6.106   2.128 -1.7134 -1.1558 -0.9143
  102GLOH    O2 9602   3.066   6.247   1.988 -0.1535 -0.5808  0.3115
  102GLOH   H05 9603   3.030   6.296   2.064  1.5833  4.6131 -1.9369
  102GLOH    C3 9604   3.057   6.005   1.931 -0.1201  0.4304  0.2472
  102GLOH   H06 9605   3.106   6.034   1.839 -0.5445 -1.3824 -0.5743
  102GLOH   H07 9606   2.949   5.994   1.916  0.1780 -0.7594 -1.1276
  102GLOH    O3 9607   3.101   5.874   1.963 -0.2489 -0.3238  0.0089
  102GLOH   H01 9608   3.170   5.876   2.032  1.1132  0.6592 -1.3535
  103GLOH   H03 9609   2.842   9.306   2.020 -0.6863 -0.2132  0.3016
  103GLOH    O1 9610   2.870   9.252   1.944 -0.5243  0.0831  0.1528
  103GLOH    C1 9611   2.937   9.346   1.857  0.1259  0.1344 -0.1850
  103GLOH   H02 9612   2.866   9.374   1.780 -1.9515  2.6700  2.5464
  103GLOH   H08 9613   3.025   9.298   1.813 -0.6386 -2.2454  0.7862
  103GLOH    C2 9614   2.997   9.470   1.929 -0.1486  0.6418 -0.0054
  103GLOH   H04 9615   3.065   9.438   2.010 -2.8020  0.2313  2.1142
  103GLOH    O2 9616   3.071   9.551   1.831  0.4565  0.2998 -0.1521
  103GLOH   H05 9617   3.101   9.636   1.868 -0.9951  0.8376 -0.1691
  103GLOH    C3 9618   2.871   9.536   1.996 -0.0228  0.6046  0.3019
  103GLOH   H06 9619   2.784   9.537   1.932 -0.3032  1.3629  0.6786
  103GLOH   H07 9620   2.896   9.641   2.015  0.0464  0.4510  1.0870
  103GLOH    O3 9621   2.839   9.463   2.113  0.1530 -0.2222  0.2601
  103GLOH   H01 9622   2.832   9.530   2.183  0.6254  0.2182 -0.1054
  104GLOH   H03 9623   4.908   3.157   0.195 -1.1020  0.0140  3.4963
  104GLOH    O1 9624   4.941   3.249   0.196  0.2796 -0.3678  0.0605
  104GLOH    C1 9625   4.848   3.322   0.106  0.2097 -0.0600  0.0004
  104GLOH   H02 9626   4.839   3.269   0.010 -3.1918 -1.3447  0.9701
  104GLOH   H08 9627   4.886   3.422   0.086 -1.4037  0.5332 -0.1430
  104GLOH    C2 9628   4.696   3.335   0.147 -0.1922  0.8450 -0.0383
  104GLOH   H04 9629   4.647   3.387   0.063 -2.9467 -0.1074  0.9362
  104GLOH    O2 9630   4.642   3.204   0.163 -0.1376  0.9384 -0.5028
  104GLOH   H05 9631   4.713   3.145   0.193 -0.2048  0.8637 -0.4897
  104GLOH    C3 9632   4.680   3.412   0.272 -0.7055  0.4415  0.1909
  104GLOH   H06 9633   4.744   3.369   0.348  1.8641  0.4390 -1.8916
  104GLOH   H07 9634   4.575   3.411   0.303 -1.0179  1.6485 -0.7969
  104GLOH    O3 9635   4.721   3.545   0.263  0.8267 -0.6584 -0.1800
  104GLOH   H01 9636   4.647   3.603   0.289 -0.2265 -1.2234 -1.8007
  105GLOH   H03 9637   4.005   4.126   1.950  0.9820 -0.2530 -0.1093
  105GLOH    O1 9638   3.951   4.051   1.980 -0.1329  0.4441 -0.3409
  105GLOH    C1 9639   3.865   4.011   1.871  0.2273  0.4577 -0.2201
  105GLOH   H02 9640   3.815   3.920   1.905 -0.5501  1.0959  0.3836
  105GLOH   H08 9641   3.928   3.994   1.784 -0.8821 -2.3058 -0.5507
  105GLOH    C2 9642   3.755   4.113   1.841 -0.2011 -0.0264 -0.2973
  105GLOH   H04 9643   3.796   4.214   1.855  0.3230 -0.4479  1.2797
  105GLOH    O2 9644   3.711   4.106   1.701 -0.2446  0.3248  0.2316
  105GLOH   H05 9645   3.631   4.161   1.700 -0.1746  0.4375  0.6580
  105GLOH    C3 9646   3.639   4.085   1.931  0.0022  0.1486  0.0691
  105GLOH   H06 9647   3.576   4.008   1.887  0.4899 -0.6968  0.8503
  105GLOH   H07 9648   3.586   4.180   1.924 -1.9253 -0.8209  1.2592
  105GLOH    O3 9649   3.670   4.061   2.070  0.5942  0.1120  0.2879
  105GLOH   H01 9650   3.701   4.144   2.111  0.3064  1.2108 -1.6424
  106GLOH   H03 9651   3.528   1.036   1.612  1.2603  0.9802  0.3828
  106GLOH    O1 9652   3.593   0.987   1.558  0.0371 -0.2555  0.0212
  106GLOH    C1 9653   3.522   0.915   1.451 -0.4872  0.0290 -0.1004
  106GLOH   H02 9654   3.568   0.941   1.356  1.3930  0.5141  0.9110
  106GLOH   H08 9655   3.416   0.937   1.447 -0.0555  1.9952 -1.3593
  106GLOH    C2 9656   3.552   0.764   1.481  0.9925  0.7102  0.4386
  106GLOH   H04 9657   3.503   0.711   1.398 -0.9701  0.5267  1.6619
  106GLOH    O2 9658   3.695   0.733   1.501 -0.3241 -0.2520  0.2032
  106GLOH   H05 9659   3.716   0.646   1.540 -0.0324 -0.9264 -1.4032
  106GLOH    C3 9660   3.472   0.719   1.607  0.8919 -0.6887  0.1921
  106GLOH   H06 9661   3.504   0.769   1.698 -0.6097  0.4077  0.1375
  106GLOH   H07 9662   3.492   0.614   1.625 -0.9195 -1.1967 -0.6327
  106GLOH    O3 9663   3.333   0.746   1.587 -0.2703  0.1754  0.3770
  106GLOH   H01 9664   3.266   0.676   1.601 -0.6863  0.1984 -1.3242
  107GLOH   H03 9665   2.994   4.841   0.388  0.8547  3.2039  1.2682
  107GLOH    O1 9666   3.030   4.794   0.465  0.0491 -0.0879 -0.2479
  107GLOH    C1 9667   3.168   4.789   0.455  0.1053  0.2790  0.0770
  107GLOH   H02 9668   3.208   4.688   0.443  2.0097  1.1882 -1.6299
  107GLOH   H08 9669   3.215   4.827   0.546  0.8661  1.9648 -0.9784
  107GLOH    C2 9670   3.237   4.868   0.339 -0.2298  0.2397  0.1966
  107GLOH   H04 9671   3.197   4.837   0.241 -0.7075  2.6943 -0.4092
  107GLOH    O2 9672   3.206   5.008   0.355 -0.0440  0.1934 -0.5549
  107GLOH   H05 9673   3.121   5.015   0.403  0.7720  4.2707  0.5241
  107GLOH    C3 9674   3.385   4.847   0.345 -0.4081  0.3204  0.1179
  107GLOH   H06 9675   3.424   4.855   0.447 -0.9836 -3.7552  0.7351
  107GLOH   H07 9676   3.436   4.922   0.285 -1.4935 -0.1269 -1.4127
  107GLOH    O3 9677   3.426   4.714   0.312  0.2612 -0.4436 -0.0737
  107GLOH   H01 9678   3.514   4.715   0.268  0.1818  1.6012 -0.2324
  108GLOH   H03 9679   4.040   4.891   1.604  1.9447  1.0702  0.3826
  108GLOH    O1 9680   4.108   4.823   1.586  0.5012 -0.1266 -0.6620
  108GLOH    C1 9681   4.053   4.738   1.483  0.3929  0.6296 -0.2340
  108GLOH   H02 9682   4.090   4.760   1.383  0.4215 -2.4561 -0.9520
  108GLOH   H08 9683   3.945   4.746   1.472  0.4517  0.5337 -0.9361
  108GLOH    C2 9684   4.097   4.588   1.500  0.5008  0.2087  0.0846
  108GLOH   H04 9685   4.052   4.555   1.594 -1.5915 -2.8144 -1.9084
  108GLOH    O2 9686   4.048   4.511   1.387  0.1570 -0.0165 -0.2792
  108GLOH   H05 9687   4.111   4.526   1.315 -0.3442 -0.1663 -0.7481
  108GLOH    C3 9688   4.251   4.583   1.514  0.2722 -0.2291 -0.2796
  108GLOH   H06 9689   4.296   4.632   1.427  1.3995  1.5858  1.2925
  108GLOH   H07 9690   4.285   4.480   1.508 -0.6010 -0.8048  3.3113
  108GLOH    O3 9691   4.301   4.647   1.631  0.6341  0.6546  0.2105
  108GLOH   H01 9692   4.265   4.738   1.633  1.2854  1.0348 -2.8908
  109GLOH   H03 9693   3.596   5.284   2.084 -1.3930 -2.6885  0.5661
  109GLOH    O1 9694   3.637   5.257   2.000  0.2699 -0.1604  0.5136
  109GLOH    C1 9695   3.549   5.282   1.882 -0.4153  0.2185 -0.5219
  109GLOH   H02 9696   3.495   5.192   1.853  3.2496 -2.0531 -0.5747
  109GLOH   H08 9697   3.615   5.318   1.802  1.0992 -1.2784  0.0171
  109GLOH    C2 9698   3.446   5.394   1.915  0.5480  0.7509 -0.7738
  109GLOH   H04 9699   3.501   5.487   1.939 -2.4918  2.2581  0.6537
  109GLOH    O2 9700   3.347   5.416   1.812  0.5674 -0.4712 -0.6919
  109GLOH   H05 9701   3.391   5.431   1.727 -0.4904  1.2309 -0.9597
  109GLOH    C3 9702   3.367   5.370   2.049 -0.0252  0.0671 -0.3074
  109GLOH   H06 9703   3.334   5.266   2.058 -0.3031  0.2836  1.3154
  109GLOH   H07 9704   3.275   5.428   2.057  0.3176  0.7720 -1.3710
  109GLOH    O3 9705   3.444   5.403   2.168 -1.0511 -0.4050  0.0994
  109GLOH   H01 9706   3.423   5.495   2.190  0.0338 -0.2205  0.4082
  110GLOH   H03 9707   3.972   0.844   1.761 -1.0975 -1.6539 -1.8674
  110GLOH    O1 9708   4.055   0.797   1.783 -0.4329  0.3073  0.0014
  110GLOH    C1 9709   4.053   0.666   1.714 -0.2708 -0.4031 -0.2752
  110GLOH   H02 9710   4.137   0.655   1.644  1.0131 -2.7207  1.5493
  110GLOH   H08 9711   3.965   0.650   1.652 -1.7214  2.8694  0.8960
  110GLOH    C2 9712   4.060   0.549   1.817  0.3284 -0.8258  0.6436
  110GLOH   H04 9713   4.140   0.572   1.888  3.5805 -1.8578 -2.5861
  110GLOH    O2 9714   3.936   0.538   1.889  0.4320  0.4305  0.0849
  110GLOH   H05 9715   3.932   0.601   1.963  2.8972  1.1868 -0.3924
  110GLOH    C3 9716   4.084   0.418   1.744 -0.1335  0.5515 -0.1891
  110GLOH   H06 9717   4.077   0.336   1.816  1.0812  0.2443 -0.4055
  110GLOH   H07 9718   4.183   0.410   1.701 -1.1679 -1.1372 -2.3143
  110GLOH    O3 9719   3.991   0.391   1.637  0.4993  0.1579  0.0806
  110GLOH   H01 9720   4.015   0.450   1.564 -0.2125  0.9257  0.4690
  111GLOH   H03 9721   2.497   5.155   0.455  0.3713  1.7312  2.0010
  111GLOH    O1 9722   2.549   5.203   0.388 -0.4748  0.3275  0.3044
  111GLOH    C1 9723   2.689   5.187   0.407  0.6253  0.1674 -0.8217
  111GLOH   H02 9724   2.718   5.263   0.479  0.4813 -0.3946 -0.1715
  111GLOH   H08 9725   2.747   5.207   0.316  3.3021 -0.3287  0.7227
  111GLOH    C2 9726   2.738   5.054   0.456 -0.4306 -0.5219 -0.0668
  111GLOH   H04 9727   2.708   4.976   0.384  2.2254  0.6896 -2.5986
  111GLOH    O2 9728   2.876   5.055   0.472 -0.2688 -0.1136 -0.2743
  111GLOH   H05 9729   2.907   5.127   0.529 -0.3510 -1.6896  1.8213
  111GLOH    C3 9730   2.661   5.013   0.580 -0.0106 -0.1187 -0.5216
  111GLOH   H06 9731   2.696   5.057   0.673  2.0253  1.4080 -1.9596
  111GLOH   H07 9732   2.691   4.908   0.589  0.6164 -0.0307 -1.5157
  111GLOH    O3 9733   2.522   5.031   0.581 -0.3023 -0.0191  0.6209
  111GLOH   H01 9734   2.484   4.969   0.646 -0.6073 -1.0133 -0.4853
  112GLOH   H03 9735   3.733   9.180   0.815 -0.2171  0.4452 -1.7257
  112GLOH    O1 9736   3.815   9.136   0.784  0.8273  0.4312  0.8940
  112GLOH    C1 9737   3.919   9.225   0.801  0.2026  0.3412  0.1942
  112GLOH   H02 9738   4.008   9.166   0.825  1.9107  3.1273  0.9209
  112GLOH   H08 9739   3.897   9.281   0.892 -0.4730 -2.7733  2.0346
  112GLOH    C2 9740   3.948   9.314   0.679  0.3460 -0.3419 -0.3953
  112GLOH   H04 9741   4.036   9.374   0.707  0.2568 -0.4811  0.1987
  112GLOH    O2 9742   3.984   9.246   0.557 -0.2357  0.4399 -0.0129
  112GLOH   H05 9743   4.014   9.156   0.579 -1.2284 -0.4277 -2.0213
  112GLOH    C3 9744   3.841   9.417   0.643  0.9352 -0.0423  0.0203
  112GLOH   H06 9745   3.757   9.375   0.588  0.0198  2.0392 -0.1896
  112GLOH   H07 9746   3.896   9.478   0.570 -0.1976  1.3773  0.3314
  112GLOH    O3 9747   3.798   9.496   0.751 -0.2677  0.0720 -0.1979
  112GLOH   H01 9748   3.768   9.441   0.825 -1.2726 -0.2574 -0.8510
  113GLOH   H03 9749   2.985   7.699   2.341  0.3483 -0.6320  0.5780
  113GLOH    O1 9750   3.037   7.769   2.297 -0.3709 -0.2449  0.3361
  113GLOH    C1 9751   3.119   7.713   2.194  0.1387 -0.3421 -0.2279
  113GLOH   H02 9752   3.205   7.658   2.232 -0.0707 -1.9837 -2.0638
  113GLOH   H08 9753   3.155   7.804   2.146  2.2510 -0.6509  0.7406
  113GLOH    C2 9754   3.053   7.620   2.096 -0.3242 -0.4242 -0.6052
  113GLOH   H04 9755   3.130   7.594   2.021  0.5658 -0.2085  0.2257
  113GLOH    O2 9756   3.022   7.496   2.160 -0.2996 -0.1799  0.4426
  113GLOH   H05 9757   3.088   7.477   2.229 -0.9725 -1.7941  0.6807
  113GLOH    C3 9758   2.932   7.692   2.039 -0.1230 -0.3607  0.2012
  113GLOH   H06 9759   2.860   7.714   2.118 -0.7506 -0.3182 -0.3766
  113GLOH   H07 9760   2.878   7.623   1.974  0.4811  0.1036 -0.7999
  113GLOH    O3 9761   2.966   7.816   1.982 -0.0223  0.2509  0.2331
  113GLOH   H01 9762   3.007   7.799   1.895  0.5869 -1.7259  0.8783
  114GLOH   H03 9763   3.955   3.025   1.893  0.4637  0.9288  0.6085
  114GLOH    O1 9764   3.990   3.020   1.803  0.2423  0.1106  0.5672
  114GLOH    C1 9765   3.884   3.005   1.713 -0.3562  0.0604 -0.7188
  114GLOH   H02 9766   3.925   2.972   1.618 -0.2729  0.2312 -0.7435
  114GLOH   H08 9767   3.843   3.103   1.689 -1.1404 -0.2503 -0.6460
  114GLOH    C2 9768   3.775   2.903   1.743 -0.3033  0.1256 -0.9610
  114GLOH   H04 9769   3.715   2.930   1.831 -1.3175 -0.4597 -1.4624
  114GLOH    O2 9770   3.682   2.884   1.631  0.2603 -0.3330 -0.0617
  114GLOH   H05 9771   3.610   2.825   1.657  1.8646 -2.2207  0.2429
  114GLOH    C3 9772   3.840   2.770   1.791  0.3367  0.4991  0.0590
  114GLOH   H06 9773   3.902   2.797   1.877  0.0479  0.0504  0.4113
  114GLOH   H07 9774   3.911   2.732   1.717 -1.3906 -1.2331 -0.7600
  114GLOH    O3 9775   3.747   2.667   1.825  0.0555  0.1605  0.1183
  114GLOH   H01 9776   3.796   2.584   1.812  1.5652  0.8044  1.4096
  115GLOH   H03 9777   4.726   4.298   2.309 -0.7964 -1.7437 -0.0995
  115GLOH    O1 9778   4.734   4.300   2.212  0.6594  0.1724  0.0300
  115GLOH    C1 9779   4.752   4.165   2.152  0.1659 -0.4526 -0.1329
  115GLOH   H02 9780   4.662   4.106   2.171  0.2841  0.1037  2.2758
  115GLOH   H08 9781   4.839   4.108   2.183  1.4091 -0.4185 -3.3765
  115GLOH    C2 9782   4.775   4.170   1.994 -0.4134 -0.2211  0.4323
  115GLOH   H04 9783   4.857   4.236   1.963 -2.7566  1.4500 -2.4654
  115GLOH    O2 9784   4.807   4.036   1.951  0.6334  0.2750  0.1167
  115GLOH   H05 9785   4.748   3.972   1.994  0.3428 -0.6486 -1.6187
  115GLOH    C3 9786   4.648   4.228   1.933 -0.1749  0.2076  0.2605
  115GLOH   H06 9787   4.562   4.163   1.923 -0.0727 -0.0415  1.0006
  115GLOH   H07 9788   4.666   4.245   1.827 -0.3758  2.2158  0.5257
  115GLOH    O3 9789   4.602   4.345   1.994 -0.0302 -0.1500 -0.2998
  115GLOH   H01 9790   4.653   4.355   2.077 -1.4860 -1.3268  0.7472
  116GLOH   H03 9791   3.697   0.671   0.709 -0.6623 -0.3580  0.4131
  116GLOH    O1 9792   3.737   0.613   0.776 -0.0791  0.0257  0.4033
  116GLOH    C1 9793   3.688   0.478   0.767  0.5618  0.7384  0.7396
  116GLOH   H02 9794   3.648   0.456   0.668  1.6165  0.8030  0.2912
  116GLOH   H08 9795   3.604   0.471   0.835  0.0494  0.8472  0.1252
  116GLOH    C2 9796   3.798   0.376   0.804  0.4272 -0.0856  0.3393
  116GLOH   H04 9797   3.896   0.381   0.755  1.1882 -0.1904  1.8332
  116GLOH    O2 9798   3.828   0.354   0.941  0.1820 -0.2792  0.0369
  116GLOH   H05 9799   3.837   0.437   0.990  0.0302 -0.4892  0.4226
  116GLOH    C3 9800   3.758   0.241   0.749  0.4677 -0.1311  0.0349
  116GLOH   H06 9801   3.668   0.215   0.805  0.8725  2.7013  2.1103
  116GLOH   H07 9802   3.832   0.165   0.773  1.0310 -0.3287 -2.2252
  116GLOH    O3 9803   3.737   0.220   0.608 -0.4047  0.0600  0.1890
  116GLOH   H01 9804   3.719   0.126   0.588 -3.3306  0.2454  1.6761
  117GLOH   H03 9805   3.918   0.883   0.849  0.1764  0.7652  1.7640
  117GLOH    O1 9806   3.977   0.954   0.817 -0.2985  0.1401 -0.5875
  117GLOH    C1 9807   4.098   0.952   0.894 -0.4578  0.2460 -0.3635
  117GLOH   H02 9808   4.179   0.984   0.829  0.2673 -1.9799 -0.6090
  117GLOH   H08 9809   4.126   0.848   0.910 -0.1825  0.3851  0.0726
  117GLOH    C2 9810   4.093   1.014   1.031  0.0009 -0.5161 -0.1757
  117GLOH   H04 9811   4.009   0.963   1.080 -0.5854 -1.0975 -1.7326
  117GLOH    O2 9812   4.210   0.992   1.114 -0.7797 -0.0748 -0.2780
  117GLOH   H05 9813   4.297   1.013   1.075 -0.3087  1.5672  1.5242
  117GLOH    C3 9814   4.046   1.157   1.019  0.5214 -0.4437 -0.5013
  117GLOH   H06 9815   4.019   1.201   1.115 -0.5173  0.9672 -1.4131
  117GLOH   H07 9816   3.955   1.148   0.959 -0.1558 -1.7940  0.7038
  117GLOH    O3 9817   4.132   1.251   0.957  0.4013  0.3602 -0.2115
  117GLOH   H01 9818   4.086   1.337   0.963  0.7277  0.4453  1.1615
  118GLOH   H03 9819   2.397   9.403   1.706 -0.9301  0.8782 -0.9886
  118GLOH    O1 9820   2.487   9.409   1.670 -0.2146  0.1386  0.6538
  118GLOH    C1 9821   2.552   9.297   1.719  0.2197 -0.2204 -0.4753
  118GLOH   H02 9822   2.481   9.218   1.742  0.1402  0.0015  0.0383
  118GLOH   H08 9823   2.578   9.331   1.820  1.2024 -2.5059  0.0923
  118GLOH    C2 9824   2.678   9.248   1.638  0.6028  0.8168  0.4372
  118GLOH   H04 9825   2.736   9.340   1.620  0.9454  0.3689 -0.7681
  118GLOH    O2 9826   2.746   9.152   1.716 -0.3675  0.3623 -0.0999
  118GLOH   H05 9827   2.775   9.181   1.804 -0.4853  0.1510  0.0083
  118GLOH    C3 9828   2.645   9.188   1.503  0.0597 -0.4876 -0.4598
  118GLOH   H06 9829   2.571   9.251   1.454 -1.5155 -2.8644 -1.2374
  118GLOH   H07 9830   2.593   9.094   1.521  0.8242 -0.7891  0.2021
  118GLOH    O3 9831   2.760   9.159   1.421  0.0215 -0.4538 -0.2416
  118GLOH   H01 9832   2.733   9.182   1.330 -0.0439 -0.7337 -0.2909
  119GLOH   H03 9833   4.691   2.042   0.792 -0.6445 -0.1563 -0.5207
  119GLOH    O1 9834   4.646   1.996   0.865 -0.0296  0.2382  0.1221
  119GLOH    C1 9835   4.646   2.096   0.965 -0.3329 -0.0747  0.1060
  119GLOH   H02 9836   4.748   2.118   0.999  0.8498 -0.1165 -3.1995
  119GLOH   H08 9837   4.601   2.052   1.053 -0.1599  1.6383  1.0761
  119GLOH    C2 9838   4.564   2.222   0.932  0.6516  0.1312  0.4291
  119GLOH   H04 9839   4.456   2.205   0.928  0.8112 -0.7587 -0.3452
  119GLOH    O2 9840   4.577   2.316   1.038 -0.3141  0.0267  0.0969
  119GLOH   H05 9841   4.671   2.339   1.036 -0.3470  0.1311 -0.5634
  119GLOH    C3 9842   4.606   2.284   0.795  0.0273 -0.3507  0.2727
  119GLOH   H06 9843   4.714   2.274   0.798  0.2473  1.9851  1.8891
  119GLOH   H07 9844   4.580   2.390   0.796 -0.1279 -0.3491 -1.9144
  119GLOH    O3 9845   4.551   2.215   0.685 -0.4875 -0.7452  0.0330
  119GLOH   H01 9846   4.454   2.213   0.698 -0.5828  1.8813  0.0964
  120GLOH   H03 9847   4.469   2.984   1.523 -0.5838  0.2203  0.8442
  120GLOH    O1 9848   4.537   2.998   1.592  0.1930 -0.0927  0.1560
  120GLOH    C1 9849   4.652   3.058   1.532  0.1965 -0.2969 -0.2237
  120GLOH   H02 9850   4.700   3.125   1.603 -1.4874  0.8887 -0.1975
  120GLOH   H08 9851   4.620   3.100   1.436 -0.2541 -3.3055 -1.4526
  120GLOH    C2 9852   4.764   2.949   1.510 -0.0725 -0.5892  0.4155
  120GLOH   H04 9853   4.713   2.863   1.464 -1.3952 -0.0056  0.7610
  120GLOH    O2 9854   4.862   3.013   1.426  0.0522  0.3063  0.0742
  120GLOH   H05 9855   4.863   2.954   1.349 -1.7944 -0.6285  0.7460
  120GLOH    C3 9856   4.825   2.898   1.637 -0.1371  0.1449  0.5444
  120GLOH   H06 9857   4.882   2.980   1.682 -0.6434  1.3098 -0.9178
  120GLOH   H07 9858   4.897   2.821   1.610  1.9169  1.6847  1.4936
  120GLOH    O3 9859   4.717   2.838   1.710  0.3330 -0.1382 -0.2029
  120GLOH   H01 9860   4.632   2.870   1.675  0.2932  0.8264  0.7567
  121ACOH    H4 9861   3.686   9.965   1.066 -2.0338  0.3027 -4.0642
  121ACOH    O2 9862   3.663   9.871   1.077 -0.6524  0.3975  0.6472
  121ACOH    C2 9863   3.621   9.833   0.953 -0.0774 -0.3073 -0.9672
  121ACOH    O1 9864   3.583   9.912   0.871  0.3589 -0.1524  0.1332
  121ACOH    C1 9865   3.582   9.694   0.934 -0.6136  0.2789 -0.1923
  121ACOH    H1 9866   3.627   9.632   1.011  1.9648  1.7708 -0.4307
  121ACOH    H2 9867   3.608   9.653   0.837 -1.3259  1.0798 -0.7356
  121ACOH    H3 9868   3.474   9.689   0.946 -0.6580  1.6415  0.0903
  122ACOH    H4 9869   4.993   3.010   2.252  0.4514  0.1762  0.2103
  122ACOH    O2 9870   4.998   3.031   2.346  0.2183  0.7784  0.0903
  122ACOH    C2 9871   5.082   2.947   2.397  0.0107  0.2048 -0.4295
  122ACOH    O1 9872   5.126   2.845   2.346 -0.1423 -0.2478 -0.4170
  122ACOH    C1 9873   5.081   2.982   2.543 -0.2774 -0.1462 -0.1056
  122ACOH    H1 9874   5.031   3.075   2.570  0.7520  1.2423 -2.8099
  122ACOH    H2 9875   5.183   2.983   2.580 -0.2093  0.6359 -0.3068
  122ACOH    H3 9876   5.025   2.905   2.596  2.1908  0.2302  3.2070
  123ACOH    H4 9877   3.494   7.726   0.559  1.0116 -1.5518  0.6057
  123ACOH    O2 9878   3.549   7.780   0.500 -0.3726 -0.7934 -0.0175
  123ACOH    C2 9879   3.608   7.694   0.416 -0.6071 -0.8289 -0.0499
  123ACOH    O1 9880   3.623   7.574   0.435 -0.3390  0.4499  0.8893
  123ACOH    C1 9881   3.660   7.771   0.301  0.7734  0.1421  0.3387
  123ACOH    H1 9882   3.764   7.743   0.284  0.4851 -1.5559  1.2714
  123ACOH    H2 9883   3.651   7.876   0.329  0.0847  0.7510 -2.0331
  123ACOH    H3 9884   3.605   7.752   0.209  0.5344  3.3179 -0.2424
  124ACOH    H4 9885   3.959   1.157   1.352  0.1573 -1.1684 -0.7418
  124ACOH    O2 9886   4.054   1.181   1.354 -0.0822 -0.2163 -0.3640
  124ACOH    C2 9887   4.116   1.103   1.446  0.2674 -0.1441 -0.0719
  124ACOH    O1 9888   4.079   1.012   1.517 -0.2830 -0.3376 -0.3853
  124ACOH    C1 9889   4.251   1.156   1.452  0.6274 -0.2349  0.2642
  124ACOH    H1 9890   4.317   1.090   1.508  0.3037  0.6034  1.6667
  124ACOH    H2 9891   4.246   1.248   1.511 -0.2991  1.4506 -2.3600
  124ACOH    H3 9892   4.292   1.181   1.354 -2.1718  1.0567 -0.6253
  125ACOH    H4 9893   4.409   3.101   2.470 -1.8006 -0.6067  1.0427
  125ACOH    O2 9894   4.364   3.147   2.397  0.0604  0.0962  0.3301
  125ACOH    C2 9895   4.361   3.067   2.290  0.3947 -0.0268  0.8075
  125ACOH    O1 9896   4.433   2.970   2.265 -0.0978 -0.1857 -0.4463
  125ACOH    C1 9897   4.274   3.136   2.190 -0.0426 -0.1667 -0.5322
  125ACOH    H1 9898   4.341   3.151   2.106  0.5045 -0.6513 -0.1829
  125ACOH    H2 9899   4.230   3.231   2.221  1.3209  0.0671  0.7500
  125ACOH    H3 9900   4.197   3.070   2.150 -0.6786  0.9788 -1.2541
  126ACOH    H4 9901   5.235   9.397   1.243  0.1890  1.9280  0.2331
  126ACOH    O2 9902   5.146   9.388   1.205  0.6257 -0.2800 -0.3761
  126ACOH    C2 9903   5.101   9.513   1.219 -0.5364 -1.3687  1.1836
  126ACOH    O1 9904   5.154   9.603   1.285  0.1074  0.2687 -0.4704
  126ACOH    C1 9905   4.974   9.524   1.143  0.4406 -0.1060  0.3827
  126ACOH    H1 9906   4.959   9.623   1.101  1.2303 -0.5020 -0.8352
  126ACOH    H2 9907   4.896   9.496   1.214  1.5648 -1.2988  1.1698
  126ACOH    H3 9908   4.975   9.459   1.056  2.2631 -0.8556  0.9391
  127ACOH    H4 9909   4.293   1.275   0.950 -0.2630 -0.2827 -0.1545
  127ACOH    O2 9910   4.384   1.307   0.943 -0.2166 -0.3009  0.3637
  127ACOH    C2 9911   4.460   1.196   0.921 -0.4856 -0.2252 -0.3318
  127ACOH    O1 9912   4.431   1.083   0.941 -0.9035  0.2550  0.0734
  127ACOH    C1 9913   4.595   1.245   0.897  0.6629  1.1877 -0.3521
  127ACOH    H1 9914   4.631   1.209   0.801 -1.7905 -1.0003 -0.5338
  127ACOH    H2 9915   4.656   1.210   0.980 -0.8180  1.0701  0.7218
  127ACOH    H3 9916   4.602   1.353   0.887  0.2704  1.2163 -0.3449
  128ACOH    H4 9917   2.756   3.474   2.598  2.2883 -2.1619 -3.4311
  128ACOH    O2 9918   2.734   3.558   2.554  0.3636 -0.5215  0.3577
  128ACOH    C2 9919   2.615   3.583   2.600 -0.1997  0.4437 -0.5454
  128ACOH    O1 9920   2.543   3.518   2.674  0.1357  0.2940  0.1307
  128ACOH    C1 9921   2.569   3.713   2.554 -0.1051 -0.0804 -0.4742
  128ACOH    H1 9922   2.619   3.789   2.613  2.2436 -0.6742 -1.6546
  128ACOH    H2 9923   2.460   3.720   2.556  0.0043  2.2963 -0.7390
  128ACOH    H3 9924   2.609   3.725   2.454 -0.9210  0.8472 -0.6978
  129ACOH    H4 9925   2.297   5.669   0.670  0.2129 -0.0739 -1.2387
  129ACOH    O2 9926   2.225   5.733   0.673  0.1912 -0.1712  0.6598
  129ACOH    C2 9927   2.282   5.856   0.666  0.3852  0.7073 -0.0509
  129ACOH    O1 9928   2.395   5.877   0.706 -0.4302  0.3298  0.0128
  129ACOH    C1 9929   2.177   5.958   0.691 -0.0782 -0.5408  0.4641
  129ACOH    H1 9930   2.229   6.049   0.718  2.0869 -0.5358 -3.3724
  129ACOH    H2 9931   2.102   5.920   0.761 -1.0616 -0.1454 -0.3617
  129ACOH    H3 9932   2.134   5.974   0.592 -2.7810 -1.0710  1.4811
  130ACOH    H4 9933   3.981   9.303   2.201 -1.0431 -0.3603  0.5267
  130ACOH    O2 9934   3.980   9.239   2.128 -0.4041  0.1302  0.0820
  130ACOH    C2 9935   4.049   9.136   2.166 -0.7016  1.0322 -0.4781
  130ACOH    O1 9936   4.108   9.116   2.272  0.6129  0.2279 -0.0440
  130ACOH    C1 9937   4.056   9.033   2.054 -0.1846 -0.7413  0.0826
  130ACOH    H1 9938   4.092   8.935   2.087 -0.3513 -0.9157 -0.2446
  130ACOH    H2 9939   4.125   9.072   1.980 -0.6958  0.1707  0.0864
  130ACOH    H3 9940   3.959   9.022   2.005  0.4421 -1.4211 -1.0171
  131ACOH    H4 9941   4.070   5.375   0.623 -1.3287  0.6831  1.2104
  131ACOH    O2 9942   4.037   5.401   0.536 -0.0534 -0.1128  0.4739
  131ACOH    C2 9943   4.071   5.306   0.447  0.5483  0.2422  0.9082
  131ACOH    O1 9944   4.079   5.191   0.481  0.3040  0.2414 -0.2965
  131ACOH    C1 9945   4.089   5.353   0.304  0.3789  0.3821 -0.4072
  131ACOH    H1 9946   3.993   5.387   0.265  0.9851  1.2264 -1.1699
  131ACOH    H2 9947   4.127   5.279   0.234  1.8205  0.3647  0.3592
  131ACOH    H3 9948   4.150   5.443   0.304 -0.0609  0.6888  0.2740
  132ACOH    H4 9949   5.449   3.572   1.146  0.4536 -0.9951  0.9099
  132ACOH    O2 9950   5.398   3.503   1.101 -0.4645 -0.1740  0.6768
  132ACOH    C2 9951   5.455   3.487   0.978  0.1262  0.1111 -0.2613
  132ACOH    O1 9952   5.548   3.557   0.939  0.4328 -1.0185 -0.0599
  132ACOH    C1 9953   5.383   3.407   0.881  0.5111 -0.3348 -0.0908
  132ACOH    H1 9954   5.277   3.425   0.898  0.5151 -0.7898  0.4628
  132ACOH    H2 9955   5.406   3.300   0.890 -0.4968 -0.7904 -2.5862
  132ACOH    H3 9956   5.409   3.421   0.777 -1.3883 -0.5436 -0.6098
  133ACOH    H4 9957   4.984   2.926   0.722  0.6216  0.1837 -0.5290
  133ACOH    O2 9958   4.949   2.866   0.654  0.3193 -0.1532 -0.0831
  133ACOH    C2 9959   5.057   2.852   0.574  0.2078 -0.3220 -0.0079
  133ACOH    O1 9960   5.157   2.924   0.574  0.8124  0.1572 -0.5276
  133ACOH    C1 9961   5.038   2.738   0.476  0.4396  0.4533 -0.4179
  133ACOH    H1 9962   5.126   2.675   0.466 -1.2021 -1.8517 -0.8373
  133ACOH    H2 9963   5.023   2.786   0.379  0.1263 -1.9314 -1.5797
  133ACOH    H3 9964   4.955   2.669   0.491  0.3978  0.8733  1.4760
  134ACOH    H4 9965   3.744   3.537   1.939 -1.0636 -0.4599  0.8255
  134ACOH    O2 9966   3.738   3.625   1.979 -0.5173  0.0135 -0.1102
  134ACOH    C2 9967   3.613   3.640   2.029  0.5847 -0.7425  0.0859
  134ACOH    O1 9968   3.523   3.563   2.028 -0.0301 -0.4977 -0.0644
  134ACOH    C1 9969   3.604   3.772   2.099  0.5265 -0.2637 -0.8036
  134ACOH    H1 9970   3.563   3.759   2.200  0.7478  0.5856 -0.6013
  134ACOH    H2 9971   3.539   3.835   2.038  0.0518 -0.6539 -0.7026
  134ACOH    H3 9972   3.700   3.823   2.101 -0.4929  1.6820 -0.4410
  135ACOH    H4 9973   5.214   4.299   0.599  0.2781 -0.9707 -1.9351
  135ACOH    O2 9974   5.271   4.372   0.567 -0.1156  0.3316  0.2647
  135ACOH    C2 9975   5.209   4.429   0.458 -0.2314 -0.5206 -0.1667
  135ACOH    O1 9976   5.102   4.390   0.418  0.0601  0.5082 -0.0944
  135ACOH    C1 9977   5.301   4.500   0.373  0.3713 -0.2258  0.4782
  135ACOH    H1 9978   5.383   4.538   0.434  0.2114 -2.1941  1.9399
  135ACOH    H2 9979   5.251   4.582   0.320  2.1297 -0.7086 -1.9680
  135ACOH    H3 9980   5.351   4.428   0.309  2.1728  0.1330  1.4565
  136ACOH    H4 9981   3.531   5.567   1.245  0.5537 -0.2945 -0.0436
  136ACOH    O2 9982   3.563   5.659   1.256  0.1812 -0.2011  0.2587
  136ACOH    C2 9983   3.615   5.691   1.134  0.0471  0.3987 -1.0267
  136ACOH    O1 9984   3.659   5.618   1.049 -0.4723 -0.1024  0.7151
  136ACOH    C1 9985   3.622   5.839   1.137 -0.3381  0.3003  0.0289
  136ACOH    H1 9986   3.676   5.873   1.049  0.9330 -1.0923  0.2678
  136ACOH    H2 9987   3.680   5.867   1.225 -0.4489  0.2366  0.1212
  136ACOH    H3 9988   3.526   5.891   1.133 -0.9744 -0.9911 -2.4207
  137ACOH    H4 9989   2.756   4.623   0.404 -1.0245 -1.5768  1.1532
  137ACOH    O2 9990   2.677   4.672   0.435 -0.2011  0.8148 -0.3651
  137ACOH    C2 9991   2.578   4.634   0.354  0.4373 -0.2413  0.7363
  137ACOH    O1 9992   2.557   4.514   0.322  0.9568 -0.3801 -0.1312
  137ACOH    C1 9993   2.471   4.731   0.352  0.6957 -0.3893  0.3376
  137ACOH    H1 9994   2.382   4.672   0.330  1.3169 -1.3438  0.3562
  137ACOH    H2 9995   2.476   4.803   0.271  0.5075  0.9853  1.5276
  137ACOH    H3 9996   2.465   4.790   0.443  1.0181 -1.7574  1.2622
  138ACOH    H4 9997   3.465   0.782   0.780  1.3583 -0.0351  1.3433
  138ACOH    O2 9998   3.445   0.687   0.776  0.5885  0.1741  0.0226
  138ACOH    C2 9999   3.340   0.664   0.690 -0.4167  0.6623  0.1426
  138ACOH    O110000   3.312   0.550   0.658  0.1313  0.1705 -0.8749
  138ACOH    C110001   3.296   0.776   0.605 -0.1485 -0.0411 -0.0875
  138ACOH    H110002   3.362   0.776   0.519 -0.8965  3.2486 -0.7381
  138ACOH    H210003   3.291   0.871   0.659  0.0669 -0.7703  1.2465
  138ACOH    H310004   3.196   0.753   0.567  0.9076 -2.7787 -1.3257
  139ACOH    H410005   3.915   3.449   2.380 -2.5032  2.9082 -0.2741
  139ACOH    O210006   3.857   3.378   2.349  0.0820  0.3189  0.6455
  139ACOH    C210007   3.734   3.423   2.355  0.4321  0.2105 -0.0626
  139ACOH    O110008   3.705   3.541   2.338 -0.2567  0.4540 -0.2448
  139ACOH    C110009   3.639   3.316   2.336  0.2474 -0.3035  0.5936
  139ACOH    H110010   3.612   3.274   2.432 -0.7107  0.6222  0.7401
  139ACOH    H210011   3.681   3.237   2.274  0.4359  0.1540  0.1244
  139ACOH    H310012   3.553   3.361   2.285  0.6384 -0.1549  0.0519
  140ACOH    H410013   2.571   3.817   1.174 -2.9570 -1.1380  0.2634
  140ACOH    O210014   2.530   3.895   1.214 -0.3194  0.2441  0.4214
  140ACOH    C210015   2.444   3.956   1.133  0.3737 -0.4843 -0.5043
  140ACOH    O110016   2.424   3.923   1.021  0.2289  0.7690 -0.1450
  140ACOH    C110017   2.354   4.047   1.204 -0.3429 -0.2231  0.2810
  140ACOH    H110018   2.384   4.151   1.196 -3.6846  1.0437  2.7930
  140ACOH    H210019   2.359   4.028   1.311 -2.2388  0.2302  0.4824
  140ACOH    H310020   2.246   4.034   1.188 -1.2546  5.1447  1.1378
  141ACOH    H410021   4.966   1.954   0.570  0.3074 -0.1401 -1.0878
  141ACOH    O210022   5.013   2.037   0.548 -0.3453  0.7619  0.8277
  141ACOH    C210023   4.962   2.128   0.629  0.0918  0.3311  0.1700
  141ACOH    O110024   4.869   2.113   0.705 -0.0124 -0.3832  0.1763
  141ACOH    C110025   5.035   2.255   0.606 -0.3932 -0.1027  0.7395
  141ACOH    H110026   5.016   2.321   0.690 -4.8021  0.1394 -0.3511
  141ACOH    H210027   4.989   2.293   0.514  1.4648 -3.4369 -1.6753
  141ACOH    H310028   5.141   2.236   0.587 -0.8656 -1.3852 -0.7087
  142ACOH    H410029   3.083   7.726   0.696 -0.3507 -0.2125 -0.9340
  142ACOH    O210030   3.101   7.821   0.693  0.5814 -0.3120  0.5136
  142ACOH    C210031   3.004   7.888   0.762 -0.3910  0.9819  0.4899
  142ACOH    O110032   2.894   7.852   0.785 -0.0686  0.1894  0.3880
  142ACOH    C110033   3.049   8.020   0.813 -0.3681 -0.1052 -0.3360
  142ACOH    H110034   3.027   8.094   0.736 -1.5995  0.6163  0.6751
  142ACOH    H210035   3.156   8.017   0.831 -0.3832 -3.0005 -0.5708
  142ACOH    H310036   2.997   8.048   0.904 -2.3079  0.2038 -1.5105
  143ACOH    H410037   2.770   6.089   1.589 -1.4514  1.2629  0.6788
  143ACOH    O210038   2.851   6.141   1.577 -0.6092 -0.1789 -0.0863
  143ACOH    C210039   2.964   6.073   1.603 -0.8454  0.0006  0.0924
  143ACOH    O110040   2.975   5.954   1.632 -0.7520  0.5228  0.1803
  143ACOH    C110041   3.085   6.156   1.588  0.3604  0.4531  0.0642
  143ACOH    H110042   3.120   6.167   1.485  1.5970 -1.0050  0.2981
  143ACOH    H210043   3.171   6.108   1.635  0.5037 -1.1790 -1.7667
  143ACOH    H310044   3.066   6.255   1.629  0.4261  1.0952 -1.4291
  144ACOH    H410045   4.756   1.669   2.447  0.4899  0.0790 -2.1837
  144ACOH    O210046   4.781   1.581   2.481 -0.1109  0.6107 -0.3450
  144ACOH    C210047   4.903   1.579   2.536  0.2425  0.1109 -0.2618
  144ACOH    O110048   4.977   1.673   2.558  0.0197  0.0656  0.7917
  144ACOH    C110049   4.938   1.435   2.563 -0.3481 -0.2857 -0.2639
  144ACOH    H110050   4.871   1.370   2.508  0.0760 -0.3057 -0.7597
  144ACOH    H210051   4.950   1.415   2.670 -1.6411  0.2063 -0.0287
  144ACOH    H310052   5.034   1.413   2.516 -0.6005 -0.2451 -0.8047
  145ACOH    H410053   4.444   0.766   0.572  3.6567 -0.1853 -0.9831
  145ACOH    O210054   4.477   0.718   0.650  0.4524 -0.4507  0.2730
  145ACOH    C210055   4.394   0.729   0.749 -0.8971  0.5026 -0.0761
  145ACOH    O110056   4.275   0.733   0.741  0.6509  0.4266 -0.0575
  145ACOH    C110057   4.475   0.705   0.876  0.1557  0.6119 -0.2739
  145ACOH    H110058   4.531   0.796   0.898  1.2677 -0.0006 -0.5586
  145ACOH    H210059   4.546   0.623   0.869 -1.0888 -0.4484 -0.6339
  145ACOH    H310060   4.414   0.685   0.964  0.9765 -1.3671 -0.1362
  146ACOH    H410061   5.011   2.523   0.940 -0.1499 -1.2085  1.4914
  146ACOH    O210062   5.056   2.439   0.922  0.0612 -0.7289 -0.3628
  146ACOH    C210063   4.974   2.341   0.970 -0.7140  0.4588  0.3399
  146ACOH    O110064   4.862   2.353   1.008 -0.1035 -0.0695 -0.2949
  146ACOH    C110065   5.036   2.207   0.977  0.0535  0.1865  0.0078
  146ACOH    H110066   5.069   2.183   1.078  1.2752  3.4383  0.4534
  146ACOH    H210067   5.127   2.208   0.916 -0.3343 -0.8707 -0.6039
  146ACOH    H310068   4.968   2.131   0.939  1.3790 -1.2024  0.3887
  147ACOH    H410069   3.881   8.814   2.125  1.7866 -0.2459  0.2855
  147ACOH    O210070   3.889   8.817   2.222  0.1384  0.1040  0.4215
  147ACOH    C210071   3.876   8.693   2.270  0.0438  0.2083  0.0946
  147ACOH    O110072   3.845   8.589   2.213 -0.0160 -0.2848 -0.5801
  147ACOH    C110073   3.878   8.696   2.419  0.0992  0.0119 -0.5292
  147ACOH    H110074   3.862   8.596   2.459  0.4522 -1.1743 -3.2366
  147ACOH    H210075   3.800   8.764   2.454  0.4567  1.2278 -2.0008
  147ACOH    H310076   3.977   8.734   2.446  1.0851 -1.9609 -1.2842
  148ACOH    H410077   3.982   9.501   1.673 -0.3109  0.3081 -0.5652
  148ACOH    O210078   3.980   9.598   1.681  0.0476  0.3086 -0.4705
  148ACOH    C210079   3.857   9.650   1.701  1.1181  0.0140  1.2603
  148ACOH    O110080   3.768   9.580   1.732  0.0401  0.1934 -0.0145
  148ACOH    C110081   3.870   9.794   1.733 -0.2789 -0.0052 -0.2369
  148ACOH    H110082   3.888   9.848   1.640 -0.6910 -1.2025 -1.0264
  148ACOH    H210083   3.950   9.814   1.804  1.9584 -1.2336 -2.3450
  148ACOH    H310084   3.781   9.838   1.778 -0.5336 -0.8167  0.0644
  149ACOH    H410085   2.395   7.189   2.109  0.8355 -2.4113  2.4385
  149ACOH    O210086   2.335   7.116   2.088 -0.3979 -0.7358 -0.1367
  149ACOH    C210087   2.215   7.164   2.048 -0.1718 -0.3409 -0.6523
  149ACOH    O110088   2.197   7.278   2.033  0.1879  0.3032 -0.0153
  149ACOH    C110089   2.127   7.064   1.985  0.2057 -0.1027 -0.1895
  149ACOH    H110090   2.124   7.099   1.882  2.5514 -0.4998 -0.4293
  149ACOH    H210091   2.024   7.049   2.018 -0.4773 -1.2773 -2.7308
  149ACOH    H310092   2.174   6.966   1.977  2.5582  0.9179  0.6092
  150ACOH    H410093   4.525   4.348   1.558 -1.0428  0.1530  0.6590
  150ACOH    O210094   4.493   4.290   1.487  0.3101 -0.1387  0.2606
  150ACOH    C210095   4.486   4.168   1.548 -0.4215  0.2877  0.4450
  150ACOH    O110096   4.571   4.135   1.630 -0.0775 -0.7445  0.0100
  150ACOH    C110097   4.394   4.083   1.467 -0.2562  0.3117 -0.6652
  150ACOH    H110098   4.418   4.097   1.362  1.2925  2.7605 -0.0329
  150ACOH    H210099   4.294   4.122   1.485 -0.7802 -0.0520 -2.7126
  150ACOH    H310100   4.399   3.978   1.496 -1.1005  0.2751 -0.6311
  151ACOH    H410101   2.154   6.306   1.011 -0.5363  0.2350  0.8247
  151ACOH    O210102   2.109   6.228   1.047 -0.1608 -0.3951 -0.0322
  151ACOH    C210103   2.062   6.272   1.166 -0.8832 -0.1012 -0.8550
  151ACOH    O110104   2.062   6.387   1.206 -0.5543 -0.3979 -0.1638
  151ACOH    C110105   2.015   6.154   1.240  0.0137 -0.1943  0.4299
  151ACOH    H110106   1.987   6.176   1.343 -0.1658 -1.6932  0.7076
  151ACOH    H210107   2.101   6.088   1.242  1.6549  1.8813  1.1859
  151ACOH    H310108   1.930   6.109   1.189 -0.4029 -0.2039  1.1148
  152ACOH    H410109   3.258   6.028   1.163  0.3242  1.2146  1.5285
  152ACOH    O210110   3.301   5.977   1.234  0.2837 -0.3205  0.4755
  152ACOH    C210111   3.215   5.928   1.322 -0.6498 -1.1956 -0.5627
  152ACOH    O110112   3.094   5.950   1.335  0.3579 -0.2272  0.4119
  152ACOH    C110113   3.284   5.846   1.429  0.2882 -0.2493 -0.1961
  152ACOH    H110114   3.390   5.861   1.410  0.3965 -1.4918 -0.6206
  152ACOH    H210115   3.259   5.743   1.402 -0.5807  0.5100 -2.3626
  152ACOH    H310116   3.251   5.864   1.531 -1.2782 -0.3823 -0.6673
  153ACOH    H410117   3.869   8.710   0.065  1.1056 -2.1227  0.1122
  153ACOH    O210118   3.785   8.662   0.073 -0.1212 -0.1048 -0.4225
  153ACOH    C210119   3.821   8.555   0.152  0.4482  0.2265 -0.1688
  153ACOH    O110120   3.913   8.554   0.233  0.1322 -0.0312  0.2936
  153ACOH    C110121   3.729   8.436   0.125  0.2714 -0.2087  0.1891
  153ACOH    H110122   3.723   8.423   0.016  0.7402  1.4499 -0.0556
  153ACOH    H210123   3.631   8.468   0.162  1.2657  1.0130  1.8308
  153ACOH    H310124   3.762   8.345   0.173 -0.4383 -0.5060  0.1107
  154ACOH    H410125   4.020   5.434   1.282 -1.9198  1.0617  1.8328
  154ACOH    O210126   4.100   5.461   1.331 -0.0276 -0.1009 -0.5253
  154ACOH    C210127   4.055   5.569   1.407  0.0032 -0.2082  0.1315
  154ACOH    O110128   3.939   5.608   1.422  0.1492  0.1739  0.5409
  154ACOH    C110129   4.170   5.632   1.481 -0.2089 -0.1451  0.1808
  154ACOH    H110130   4.245   5.671   1.413 -0.6692  0.2013 -0.1331
  154ACOH    H210131   4.213   5.565   1.555  1.2065 -0.0222 -0.5150
  154ACOH    H310132   4.144   5.723   1.534 -0.8704 -0.3105  0.1396
  155ACOH    H410133   3.482   9.877   0.583  0.9354  1.1002  0.2561
  155ACOH    O210134   3.547   9.804   0.580  0.1076  0.3520  0.2077
  155ACOH    C210135   3.663   9.852   0.539  0.1988  0.3937  0.8298
  155ACOH    O110136   3.696   9.968   0.534  0.2438 -0.6908  0.2786
  155ACOH    C110137   3.755   9.736   0.526  0.0886 -0.6531  0.3783
  155ACOH    H110138   3.839   9.748   0.458  2.2702 -1.2270  2.8858
  155ACOH    H210139   3.692   9.654   0.492 -2.3828  1.0111  0.7616
  155ACOH    H310140   3.801   9.706   0.621 -0.3375 -2.8157 -0.0729
  156ACOH    H410141   5.691   3.671   1.023 -0.5630  1.7869 -0.9312
  156ACOH    O210142   5.748   3.717   1.087 -0.0971 -0.4772  0.3517
  156ACOH    C210143   5.692   3.720   1.211 -0.7608 -0.4215 -0.6525
  156ACOH    O110144   5.582   3.684   1.237  0.6717  0.2133 -0.1687
  156ACOH    C110145   5.755   3.809   1.308  0.0097  0.4052 -0.2901
  156ACOH    H110146   5.781   3.749   1.395 -3.2158  0.1025  0.5341
  156ACOH    H210147   5.687   3.891   1.334  1.8945  1.8008  0.3403
  156ACOH    H310148   5.851   3.852   1.279  0.5043 -0.6977 -0.3069
  157ACOH    H410149   4.695   4.565   0.853 -1.2243 -1.9593  0.3066
  157ACOH    O210150   4.785   4.531   0.839 -0.3392  0.4716  0.0385
  157ACOH    C210151   4.780   4.483   0.716  0.2661  0.0504 -0.6895
  157ACOH    O110152   4.680   4.476   0.647  0.0011 -0.5103 -0.6882
  157ACOH    C110153   4.911   4.423   0.671 -0.3933  0.2985  0.4530
  157ACOH    H110154   4.972   4.512   0.654  0.4336 -0.1735  0.9422
  157ACOH    H210155   4.898   4.356   0.586  0.7820  0.1829  0.3558
  157ACOH    H310156   4.946   4.363   0.755 -0.4955 -1.7442 -0.9258
  158ACOH    H410157   2.910   5.454   2.159 -0.3295 -1.1945 -0.2907
  158ACOH    O210158   2.943   5.409   2.239 -0.3462  0.0331  0.4074
  158ACOH    C210159   3.024   5.308   2.200  0.2851  0.2691  0.7085
  158ACOH    O110160   3.076   5.293   2.089  0.4229  0.0018  0.1723
  158ACOH    C110161   3.056   5.206   2.300  0.3329  0.2571  0.4775
  158ACOH    H110162   2.993   5.117   2.301  1.8580 -0.8639  3.2531
  158ACOH    H210163   3.062   5.254   2.398 -2.7719  2.0681 -0.1328
  158ACOH    H310164   3.161   5.179   2.288  0.8665  3.7029 -3.5582
  159ACOH    H410165   4.763   3.014   2.022 -0.2727 -1.1185 -1.4158
  159ACOH    O210166   4.799   3.087   1.969 -0.2157 -0.4390 -0.4536
  159ACOH    C210167   4.930   3.087   1.983 -0.1534 -0.0929 -0.1208
  159ACOH    O110168   4.985   3.028   2.074 -0.5290 -0.2111 -0.5399
  159ACOH    C110169   4.991   3.195   1.897 -0.1922 -0.8484 -0.1902
  159ACOH    H110170   4.953   3.292   1.932  0.6537 -1.1033  1.4629
  159ACOH    H210171   4.953   3.176   1.796  1.4910 -1.6476 -0.6828
  159ACOH    H310172   5.099   3.191   1.899 -0.1914 -0.8059 -0.1919
  160ACOH    H410173   4.051   4.756   0.411  1.1272 -0.3103  0.6112
  160ACOH    O210174   4.035   4.702   0.331 -0.0241  0.4743  0.3014
  160ACOH    C210175   4.156   4.656   0.285 -0.0370  0.0745  0.7020
  160ACOH    O110176   4.160   4.574   0.195 -0.2631 -0.2499 -0.3763
  160ACOH    C110177   4.273   4.714   0.359 -0.6981  0.0704  0.3135
  160ACOH    H110178   4.356   4.721   0.289  1.8495 -1.8601  3.0521
  160ACOH    H210179   4.304   4.651   0.442  1.4842 -1.3581 -1.5521
  160ACOH    H310180   4.257   4.818   0.390 -1.2023  0.1748 -0.2873
  161ACOH    H410181   2.314   0.398   2.087  1.5088 -0.5782  0.4022
  161ACOH    O210182   2.322   0.371   1.994 -0.1931 -0.4241  0.1973
  161ACOH    C210183   2.402   0.461   1.934  0.0631 -0.0065  0.1324
  161ACOH    O110184   2.488   0.534   1.982 -0.6029  0.1469 -0.2291
  161ACOH    C110185   2.385   0.441   1.785 -0.6435 -0.3482  0.4073
  161ACOH    H110186   2.369   0.536   1.734 -0.0796 -0.6591 -0.3539
  161ACOH    H210187   2.298   0.379   1.763 -0.8155  0.1263 -0.2995
  161ACOH    H310188   2.469   0.392   1.737  0.1478  1.8533 -0.5400
  162ACOH    H410189   2.731   1.201   1.602 -0.3083 -0.1058  1.3791
  162ACOH    O210190   2.693   1.113   1.616  0.0610 -0.4747  0.2063
  162ACOH    C210191   2.574   1.142   1.677 -0.5221 -0.2859  0.2107
  162ACOH    O110192   2.534   1.254   1.706 -0.5175 -0.2008 -0.4098
  162ACOH    C110193   2.503   1.015   1.724  0.0440  0.3018  0.1906
  162ACOH    H110194   2.521   0.927   1.662 -2.3787 -0.4340  0.4645
  162ACOH    H210195   2.396   1.037   1.732  0.1154  0.0606  1.8224
  162ACOH    H310196   2.536   0.992   1.825 -1.1404  0.2392  0.5662
  163ACOH    H410197   4.112   0.714   1.181 -0.8225 -2.0424  0.3679
  163ACOH    O210198   4.155   0.663   1.111  0.4645  0.0135 -0.3833
  163ACOH    C210199   4.073   0.561   1.071  0.1953 -0.1167 -0.3005
  163ACOH    O110200   3.953   0.547   1.094 -0.6857  0.1332 -0.6802
  163ACOH    C110201   4.146   0.467   0.986 -0.2008 -0.2965  0.0470
  163ACOH    H110202   4.200   0.510   0.902 -0.7590 -0.4757 -0.4062
  163ACOH    H210203   4.089   0.381   0.952 -0.4551 -0.5447  1.0754
  163ACOH    H310204   4.227   0.421   1.042  0.4472  0.2876 -0.4004
  164ACOH    H410205   3.334   5.726   1.737 -0.4242  2.6582 -0.1782
  164ACOH    O210206   3.430   5.733   1.723 -0.2579  0.4278 -0.2988
  164ACOH    C210207   3.490   5.780   1.834 -0.1325 -0.6297 -0.5390
  164ACOH    O110208   3.444   5.795   1.948 -0.8190 -0.1067  0.5619
  164ACOH    C110209   3.628   5.816   1.810 -0.5579  0.7153  0.5232
  164ACOH    H110210   3.644   5.804   1.703  1.8773  1.7254  0.7473
  164ACOH    H210211   3.689   5.746   1.867 -0.9343  0.6168  0.8088
  164ACOH    H310212   3.644   5.917   1.849 -0.1151  0.4402  1.0694
  165ACOH    H410213   3.620   8.227   0.853  1.2533 -0.2050 -0.5724
  165ACOH    O210214   3.575   8.143   0.835  0.2844  0.2317 -0.2493
  165ACOH    C210215   3.528   8.160   0.706 -0.2851 -0.3961 -0.5442
  165ACOH    O110216   3.517   8.262   0.639  0.3762 -0.4717 -0.3694
  165ACOH    C110217   3.455   8.038   0.661 -0.7096  0.0570  0.7537
  165ACOH    H110218   3.498   7.955   0.716  3.1097  0.4989 -1.3677
  165ACOH    H210219   3.470   8.036   0.553 -2.2345 -1.3613  0.5456
  165ACOH    H310220   3.347   8.047   0.672 -1.1190 -1.5905 -1.5054
  166ACOH    H410221   4.188   0.866   1.782 -0.9614  0.4149 -0.1600
  166ACOH    O210222   4.242   0.945   1.765  0.3560 -0.3643  0.2523
  166ACOH    C210223   4.249   1.015   1.882  0.1239 -0.4206 -0.6154
  166ACOH    O110224   4.207   0.991   1.993 -0.0350 -0.1671 -1.0055
  166ACOH    C110225   4.327   1.133   1.852 -0.3209 -0.2881  0.4565
  166ACOH    H110226   4.354   1.189   1.942 -1.5677  1.2868 -0.1385
  166ACOH    H210227   4.267   1.197   1.787 -0.2393 -0.9798 -0.3029
  166ACOH    H310228   4.420   1.105   1.803 -1.1230 -0.2320 -1.1341
  167ACOH    H410229   4.199   2.353   1.285  2.6087  0.5435 -1.7179
  167ACOH    O210230   4.180   2.444   1.257 -0.6707  0.3021 -0.4447
  167ACOH    C210231   4.169   2.512   1.373 -0.0291  0.0993 -0.0783
  167ACOH    O110232   4.189   2.473   1.485  0.0279 -0.4114 -0.0322
  167ACOH    C110233   4.139   2.660   1.347 -0.2938 -0.2132 -0.4215
  167ACOH    H110234   4.146   2.674   1.239  0.3060 -0.9700 -0.4902
  167ACOH    H210235   4.217   2.727   1.385 -1.3282 -0.0742  1.5192
  167ACOH    H310236   4.038   2.680   1.382 -0.2625  2.8253 -1.9285
  168ACOH    H410237   3.906   9.818   2.089 -2.2803 -1.2408 -0.6710
  168ACOH    O210238   3.985   9.765   2.069 -0.7382  0.7760 -0.0996
  168ACOH    C210239   3.950   9.637   2.051 -0.2104 -0.7057  0.1915
  168ACOH    O110240   3.851   9.584   2.098  0.3318  0.5507  0.5961
  168ACOH    C110241   4.062   9.553   2.000  0.3651  0.2026 -0.0393
  168ACOH    H110242   4.088   9.487   2.083 -0.0113 -1.4168 -1.1871
  168ACOH    H210243   4.148   9.615   1.973  1.3490 -1.7510 -1.4987
  168ACOH    H310244   4.028   9.496   1.914  0.9305 -2.1390  1.2371
  169ACOH    H410245   3.997   4.733   2.271 -1.1765  1.5274  2.2856
  169ACOH    O210246   3.985   4.799   2.200  0.1883  0.2798  0.8386
  169ACOH    C210247   3.893   4.890   2.244 -0.0118 -0.5921 -0.7748
  169ACOH    O110248   3.855   4.903   2.360 -0.7884 -0.6355 -0.0258
  169ACOH    C110249   3.891   5.003   2.151 -0.3570  0.1510  0.5677
  169ACOH    H110250   3.801   5.060   2.176 -1.1587 -1.6092  1.7941
  169ACOH    H210251   3.891   4.986   2.043  0.2267  0.1319  0.5687
  169ACOH    H310252   3.979   5.063   2.173 -0.3754 -0.0398  1.1607
  170ACOH    H410253   4.455   3.532   2.318 -0.5496 -0.4015 -0.3576
  170ACOH    O210254   4.511   3.471   2.267  0.2116 -0.4328  0.5036
  170ACOH    C210255   4.555   3.375   2.352  0.3914 -0.3910  0.0935
  170ACOH    O110256   4.554   3.376   2.475 -0.6608 -0.1183  0.2978
  170ACOH    C110257   4.650   3.275   2.294  0.1553 -0.0634 -0.5001
  170ACOH    H110258   4.754   3.290   2.321 -0.0268 -0.7739  0.6681
  170ACOH    H210259   4.650   3.289   2.186 -0.6933  0.9375 -0.3798
  170ACOH    H310260   4.617   3.171   2.304 -2.7254  0.9213  0.9419
  171ACOH    H410261   2.232   8.360   1.785  0.7429 -0.4044  0.8222
  171ACOH    O210262   2.194   8.282   1.741  0.4325  0.2318 -0.0418
  171ACOH    C210263   2.167   8.308   1.615  0.2067  0.4240  0.2949
  171ACOH    O110264   2.199   8.415   1.560 -0.0672 -0.1984 -0.0232
  171ACOH    C110265   2.091   8.205   1.534 -0.0771 -0.1533 -0.0385
  171ACOH    H110266   2.170   8.136   1.504  1.3571  1.0066  0.9810
  171ACOH    H210267   2.053   8.242   1.439 -0.5761  0.4477  0.3930
  171ACOH    H310268   2.014   8.161   1.597 -0.9512  1.0748 -0.2283
  172ACOH    H410269   3.634   5.715   0.468 -1.0324 -0.0679 -0.1087
  172ACOH    O210270   3.656   5.809   0.455  0.0953 -0.3086  0.0176
  172ACOH    C210271   3.591   5.850   0.351  0.0345  0.2510  0.1204
  172ACOH    O110272   3.506   5.788   0.287 -0.0396 -0.6273  0.7168
  172ACOH    C110273   3.636   5.987   0.326  0.2829  0.6592  0.2926
  172ACOH    H110274   3.693   5.987   0.233 -0.3172 -0.4657 -0.0861
  172ACOH    H210275   3.700   6.019   0.408  0.4975  1.2466 -0.0960
  172ACOH    H310276   3.553   6.057   0.319 -0.2017  0.0138 -0.6337
  173ACOH    H410277   3.893   8.430   0.686 -0.1481  0.6415  0.8944
  173ACOH    O210278   3.949   8.353   0.666 -0.2362  0.6915  0.4531
  173ACOH    C210279   4.076   8.381   0.663  0.0198  0.1804  0.2853
  173ACOH    O110280   4.120   8.493   0.665 -0.3570  0.6602  1.1168
  173ACOH    C110281   4.160   8.262   0.656  0.5929 -0.2139  0.4271
  173ACOH    H110282   4.130   8.197   0.738 -1.5214 -0.7211 -0.7209
  173ACOH    H210283   4.264   8.286   0.681  0.3362  2.5225 -0.9228
  173ACOH    H310284   4.149   8.216   0.558 -0.0038 -0.6168  0.6799
  174SOL     OW10285   4.455   4.116   2.477 -0.1157 -0.0471  0.3264
  174SOL    HW110286   4.363   4.095   2.511 -0.4414 -0.3797 -0.7227
  174SOL    HW210287   4.514   4.036   2.489  0.1745  0.3266  1.4396
  175SOL     OW10288   2.656   5.918   2.559 -0.0522 -0.3227 -0.3579
  175SOL    HW110289   2.715   5.984   2.511  0.9517 -0.5224  0.5632
  175SOL    HW210290   2.613   5.857   2.493  0.4762  0.0763 -1.0790
  176SOL     OW10291   2.904   1.214   1.919 -0.2705 -0.1910  0.4902
  176SOL    HW110292   2.951   1.218   2.007 -2.2363  1.4201  1.5059
  176SOL    HW210293   2.930   1.293   1.864 -1.5869  0.5989  0.9756
  177SOL     OW10294   3.284   1.956   2.322 -0.0101 -0.7692  0.2995
  177SOL    HW110295   3.234   1.948   2.236 -0.8273  0.0276  0.6897
  177SOL    HW210296   3.256   1.883   2.384 -1.0481 -0.0370  0.6940
  178SOL     OW10297   2.789   5.114   1.531  0.4140 -0.1580 -0.2252
  178SOL    HW110298   2.777   5.142   1.627  0.9177 -1.4723  0.2327
  178SOL    HW210299   2.823   5.191   1.478  1.6430  0.1535  0.9906
  179SOL     OW10300   3.286   2.329   0.514  0.2921 -0.5368  0.1459
  179SOL    HW110301   3.314   2.366   0.426 -1.0024  1.7683  0.6566
  179SOL    HW210302   3.278   2.229   0.508  0.9903 -0.4842 -2.0915
  180SOL     OW10303   3.825   4.394   0.911  0.3056  0.0454  0.5799
  180SOL    HW110304   3.830   4.420   1.007  0.5049 -0.0733  0.6017
  180SOL    HW210305   3.865   4.467   0.855 -0.1460  0.2784  0.5590
  181SOL     OW10306   3.041   2.498   2.483  0.2258  0.1183 -0.3648
  181SOL    HW110307   3.102   2.432   2.526  1.1703  0.7855 -0.6717
  181SOL    HW210308   3.019   2.570   2.548 -0.2015 -0.0955 -0.2705
  182SOL     OW10309   4.958   2.443   2.150  0.3312 -0.4967 -0.1386
  182SOL    HW110310   4.881   2.443   2.087  0.2755 -0.1317 -0.0692
  182SOL    HW210311   5.043   2.458   2.099  0.2358  0.2974 -0.0635
  183SOL     OW10312   2.933  10.035   1.638 -0.7023 -0.6517 -0.0652
  183SOL    HW110313   3.005  10.062   1.701 -0.4805 -0.2324 -0.4979
  183SOL    HW210314   2.891   9.950   1.670 -0.2564 -0.7072  0.3754
  184SOL     OW10315   3.253   4.537   0.209  0.4206  0.5475 -0.1550
  184SOL    HW110316   3.303   4.602   0.267 -1.0539  0.1904  1.5462
  184SOL    HW210317   3.270   4.559   0.113  0.9885  2.6437  0.3957
  185SOL     OW10318   4.223   4.038   0.306 -0.3308  0.3794 -0.3500
  185SOL    HW110319   4.209   4.097   0.226 -1.0748 -1.2606 -1.4708
  185SOL    HW210320   4.148   3.971   0.311  1.4332 -1.6250 -0.1708
  186SOL     OW10321   3.629   0.965   2.425  0.1696 -0.5391 -0.3510
  186SOL    HW110322   3.660   1.055   2.396 -0.7702  0.3642  1.3808
  186SOL    HW210323   3.538   0.947   2.388  0.9468 -1.3863 -1.8768
  187SOL     OW10324   2.532   0.551   0.762  0.4653 -0.3143 -0.0663
  187SOL    HW110325   2.446   0.574   0.807  0.6287  0.0651  0.0561
  187SOL    HW210326   2.575   0.474   0.808  0.3502 -0.2958  0.0703
  188SOL     OW10327   3.543   2.286   1.130 -0.1828  0.5797 -0.3747
  188SOL    HW110328   3.596   2.204   1.105 -0.8525 -0.0036  0.1041
  188SOL    HW210329   3.588   2.332   1.207  0.9090  1.3951 -1.4866
  189SOL     OW10330   4.399   1.545   0.088  0.2180  0.1259  0.1605
  189SOL    HW110331   4.400   1.450   0.121  1.5878 -1.3316 -3.8187
  189SOL    HW210332   4.492   1.573   0.066 -0.3483  1.9613  0.0536
  190SOL     OW10333   2.632   7.862   2.173 -0.6330  0.6358  0.5295
  190SOL    HW110334   2.607   7.919   2.251 -1.7519  0.3143  0.4154
  190SOL    HW210335   2.707   7.905   2.123 -1.6217  2.1208  0.3149
  191SOL     OW10336   2.797   2.868   2.210  0.1283 -0.0929 -0.1630
  191SOL    HW110337   2.714   2.895   2.162  1.1130  1.1423 -1.2293
  191SOL    HW210338   2.841   2.793   2.160 -0.6215 -1.1360  0.7126
  192SOL     OW10339   3.289   4.760   1.081 -0.2597 -0.5085  0.4877
  192SOL    HW110340   3.353   4.771   1.005 -0.7235  1.1825  0.3181
  192SOL    HW210341   3.196   4.754   1.046 -0.4781  0.3081  0.9202
  193SOL     OW10342   3.056   8.584   2.615  0.4452 -0.4677 -0.3752
  193SOL    HW110343   3.103   8.523   2.678 -0.1666  0.6712  1.2196
  193SOL    HW210344   2.957   8.578   2.630  0.3046 -0.0488 -1.0925
  194SOL     OW10345   2.417   8.604   2.015  0.2297  0.1831 -0.0400
  194SOL    HW110346   2.513   8.598   1.988  0.2283  1.2641 -0.3181
  194SOL    HW210347   2.412   8.631   2.111  0.2197 -2.4524  0.7474
  195SOL     OW10348   3.392   2.598   0.577  0.3180 -0.3251  0.1051
  195SOL    HW110349   3.406   2.678   0.519  1.7060 -0.5641  0.0955
  195SOL    HW210350   3.299   2.564   0.566  0.0951  0.5666 -0.7891
  196SOL     OW10351   3.447   5.428   1.239  0.5362 -0.3632  0.3760
  196SOL    HW110352   3.443   5.378   1.325  0.0472 -2.0783 -0.6103
  196SOL    HW210353   3.459   5.363   1.163 -0.2687  1.0030 -0.9476
  197SOL     OW10354   3.473   9.925   0.138  0.6223 -0.2174 -0.6050
  197SOL    HW110355   3.522   9.920   0.051  0.5324  0.1069 -0.6768
  197SOL    HW210356   3.486   9.840   0.189 -1.5491 -1.5211 -2.1122
  198SOL     OW10357   3.172   6.067   1.037 -0.0176  0.3254 -1.1447
  198SOL    HW110358   3.110   6.146   1.036 -0.3562  0.0648 -0.8341
  198SOL    HW210359   3.141   6.000   0.969 -0.0408  0.2189 -1.0281
  199SOL     OW10360   3.277   2.044   2.632  0.1621  0.1025  0.0628
  199SOL    HW110361   3.225   2.022   2.714  0.5719  1.4068  0.6816
  199SOL    HW210362   3.339   1.968   2.611  1.1674  0.3814  1.8621
  200SOL     OW10363   2.601  10.044   0.541  0.1304  0.4060 -0.2542
  200SOL    HW110364   2.656  10.126   0.524  0.3942  0.3273  0.2120
  200SOL    HW210365   2.624   9.975   0.472 -1.1684  1.2355 -1.5577
  201SOL     OW10366   2.313   7.773   2.395 -0.2875  0.3100  0.3977
  201SOL    HW110367   2.279   7.863   2.423  1.8173  0.9549  0.9191
  201SOL    HW210368   2.325   7.772   2.295  0.5830  0.9247  0.4929
  202SOL     OW10369   3.558   8.592   0.718 -0.4129 -0.0684  0.0481
  202SOL    HW110370   3.560   8.600   0.618  0.5636  1.4352  0.1817
  202SOL    HW210371   3.463   8.582   0.748 -0.7838  0.3219 -0.9561
  203SOL     OW10372   3.781   4.827   2.634 -0.1447 -0.2191  0.5957
  203SOL    HW110373   3.789   4.855   2.538 -0.4850  0.1071  0.6602
  203SOL    HW210374   3.870   4.830   2.678  0.7837 -4.1789 -0.7480
  204SOL     OW10375   2.532   4.568   1.657  0.5694  0.1388  0.0569
  204SOL    HW110376   2.595   4.592   1.731  0.9427  1.2896 -0.6164
  204SOL    HW210377   2.444   4.539   1.695  0.7832  0.6583  0.9419
  205SOL     OW10378   3.240   5.446   1.465 -0.3795 -0.6671  0.0378
  205SOL    HW110379   3.314   5.476   1.525  0.2463 -0.8021 -0.6595
  205SOL    HW210380   3.202   5.360   1.499 -0.2924 -0.5398  0.4580
  206SOL     OW10381   2.419   5.967   1.463 -0.5479  0.0003  0.0249
  206SOL    HW110382   2.397   6.065   1.461  0.1300  0.1654 -3.0004
  206SOL    HW210383   2.419   5.932   1.369 -0.1983 -2.7847  1.0295
  207SOL     OW10384   4.701   2.256   2.433 -0.2392  0.4005  0.4633
  207SOL    HW110385   4.772   2.327   2.430 -0.9963  1.1783  0.6479
  207SOL    HW210386   4.656   2.251   2.344  1.5487 -1.6802 -0.3791
  208SOL     OW10387   4.248   3.673   1.007 -0.2536  0.0163  0.1399
  208SOL    HW110388   4.208   3.758   1.042  1.1567 -0.6398  3.5405
  208SOL    HW210389   4.336   3.693   0.965 -0.3225  0.3342  0.1430
  209SOL     OW10390   3.183   9.082   1.069 -0.0474 -0.3549  0.3161
  209SOL    HW110391   3.227   9.128   0.992  0.1863 -0.6110  0.2948
  209SOL    HW210392   3.157   8.989   1.042  1.0746 -0.8478  0.8888
  210SOL     OW10393   2.799   2.725   1.588  0.1047 -0.1223 -0.4190
  210SOL    HW110394   2.711   2.744   1.545 -0.4331 -0.9394  0.3098
  210SOL    HW210395   2.855   2.808   1.587 -0.7624  0.4651 -0.6780
  211SOL     OW10396   4.379   2.962   1.383 -0.4759 -0.2234 -0.0501
  211SOL    HW110397   4.349   2.880   1.334 -0.6136 -0.5128  0.5137
  211SOL    HW210398   4.406   3.032   1.317  2.9729 -1.9042 -0.5406
  212SOL     OW10399   2.460   5.421   0.281  0.2267 -0.1261  0.5309
  212SOL    HW110400   2.472   5.327   0.313 -0.7306  0.1488  1.7278
  212SOL    HW210401   2.410   5.474   0.350 -1.3666  0.6293 -1.1659
  213SOL     OW10402   2.197   9.342   1.516 -0.0899  0.7458  0.1510
  213SOL    HW110403   2.269   9.311   1.454 -1.1093 -0.7029 -0.3327
  213SOL    HW210404   2.139   9.409   1.469 -0.5349  0.0583 -0.2854
  214SOL     OW10405   4.057   1.864   1.946 -0.2987 -0.1741  0.2204
  214SOL    HW110406   3.962   1.893   1.944 -0.2923 -0.1947 -1.4759
  214SOL    HW210407   4.065   1.773   1.907  0.3549 -0.3404  0.7422
  215SOL     OW10408   3.744   8.335   2.089  0.3180  0.5028  0.2746
  215SOL    HW110409   3.790   8.251   2.119 -1.9173 -0.2515  1.7378
  215SOL    HW210410   3.802   8.414   2.108  1.4993 -0.5151  0.9694
  216SOL     OW10411   3.509   3.792   1.742 -0.4690 -0.6004 -0.4071
  216SOL    HW110412   3.492   3.794   1.840  2.4278 -1.2111  0.1436
  216SOL    HW210413   3.454   3.719   1.700 -0.9060 -1.0340  0.9130
  217SOL     OW10414   2.442   1.172   2.373  0.2444  0.1079  0.1913
  217SOL    HW110415   2.511   1.227   2.418 -0.0237  0.4423  0.1963
  217SOL    HW210416   2.357   1.224   2.365 -0.1909 -0.5110  0.7241
  218SOL     OW10417   3.292   3.324   0.403 -0.2691 -0.5111 -0.0653
  218SOL    HW110418   3.193   3.334   0.399 -0.3234 -1.1131 -0.3106
  218SOL    HW210419   3.319   3.290   0.493 -0.1318  1.2698  0.5835
  219SOL     OW10420   2.879   4.786   1.133  0.3878  0.2002 -0.0860
  219SOL    HW110421   2.784   4.781   1.102  0.6747  1.9459 -1.3148
  219SOL    HW210422   2.888   4.858   1.202  0.7598 -0.2031  0.2951
  220SOL     OW10423   2.781   1.157   0.831 -0.1818 -0.0991  0.5865
  220SOL    HW110424   2.727   1.123   0.754  0.7211  0.1137 -0.1512
  220SOL    HW210425   2.859   1.097   0.846 -0.0936  0.1248  1.0414
  221SOL     OW10426   2.980   0.451   0.064 -0.4034  0.1774 -0.6078
  221SOL    HW110427   3.030   0.428   0.147 -0.7051 -1.9429 -0.9841
  221SOL    HW210428   3.035   0.514   0.009 -0.2512  1.6802  1.2322
  222SOL     OW10429   3.849   9.586   2.491  0.5755  0.2367 -0.0191
  222SOL    HW110430   3.834   9.599   2.589 -0.4233 -0.5316 -0.0635
  222SOL    HW210431   3.848   9.675   2.445 -1.3527  0.4240  0.3389
  223SOL     OW10432   3.122   9.441   1.572  0.6765 -0.0495  0.4649
  223SOL    HW110433   3.120   9.470   1.667  1.5784  0.2941  0.3907
  223SOL    HW210434   3.179   9.359   1.564 -0.3912 -0.7938  0.4016
  224SOL     OW10435   2.888   6.365   2.173 -0.1501  0.6400  0.4466
  224SOL    HW110436   2.907   6.456   2.137 -0.0426  0.9091  1.1727
  224SOL    HW210437   2.802   6.367   2.224  0.8333  0.7931  2.1105
  225SOL     OW10438   3.251   1.173   0.481 -0.1093  0.0342  0.2103
  225SOL    HW110439   3.341   1.163   0.439 -0.8010  0.4333 -1.4134
  225SOL    HW210440   3.189   1.103   0.443 -0.4290 -0.3715  1.4632
  226SOL     OW10441   3.551   9.246   2.068 -0.2814 -0.1867  0.1887
  226SOL    HW110442   3.562   9.161   2.118 -0.5107 -0.2665  0.1061
  226SOL    HW210443   3.463   9.245   2.019 -0.0378 -0.1306 -0.2498
  227SOL     OW10444   4.008   1.920   1.595  0.1372  0.4778 -0.2271
  227SOL    HW110445   4.028   1.986   1.667  1.0195  0.1173 -0.1334
  227SOL    HW210446   4.064   1.838   1.608 -1.4847 -0.6114  0.1006
  228SOL     OW10447   3.575   0.765   2.029 -0.1760  0.1830 -0.2742
  228SOL    HW110448   3.579   0.669   2.002  1.7303 -0.3113  1.6112
  228SOL    HW210449   3.505   0.777   2.100 -0.2565  0.1411 -0.3470
  229SOL     OW10450   3.737   5.024   1.875  0.0563 -0.1722  0.7081
  229SOL    HW110451   3.724   5.109   1.927  1.1005  0.3268  0.1794
  229SOL    HW210452   3.688   4.950   1.919  2.9453 -0.3196  3.8464
  230SOL     OW10453   3.611   2.033   0.790  0.1617 -0.0404 -0.4234
  230SOL    HW110454   3.540   2.006   0.856  0.6442 -0.5072 -0.0924
  230SOL    HW210455   3.672   1.956   0.774  1.1689  0.6558  0.0263
  231SOL     OW10456   2.985   8.339   1.086 -0.0667  0.0387  0.1783
  231SOL    HW110457   2.926   8.306   1.159  0.6676 -1.0657  0.2861
  231SOL    HW210458   3.079   8.310   1.104  0.2065  0.2169 -0.9212
  232SOL     OW10459   4.582   2.606   1.816  0.3886 -0.0906 -0.3239
  232SOL    HW110460   4.492   2.592   1.775 -0.0770 -1.0813  0.9870
  232SOL    HW210461   4.626   2.686   1.775 -2.2079  2.0381  0.9104
  233SOL     OW10462   3.691   1.047   0.014  0.6098  0.2921  0.2448
  233SOL    HW110463   3.625   1.016  -0.055 -0.8141  0.9845  1.2621
  233SOL    HW210464   3.705   0.975   0.082  0.9868  0.1086 -0.0247
  234SOL     OW10465   2.819   3.751   0.998  0.0493 -0.3031 -0.2724
  234SOL    HW110466   2.724   3.719   1.008  0.0615 -0.2917 -0.1145
  234SOL    HW210467   2.858   3.768   1.089  0.0743  0.0645 -0.3525
  235SOL     OW10468   4.154   2.094   0.463 -0.2405  0.3239  0.7281
  235SOL    HW110469   4.091   2.025   0.426  1.1745 -0.6499  0.0744
  235SOL    HW210470   4.198   2.143   0.387  0.0573  0.7437  1.1681
  236SOL     OW10471   4.523   3.665   1.011  0.6798 -0.6181 -0.7564
  236SOL    HW110472   4.532   3.754   1.056  2.1875 -0.4330 -1.3686
  236SOL    HW210473   4.584   3.599   1.055 -0.8267 -1.4966  0.0320
  237SOL     OW10474   2.441   8.006   0.078 -0.2153  0.3860 -0.1577
  237SOL    HW110475   2.367   8.074   0.079  0.0390  0.6623  0.1275
  237SOL    HW210476   2.496   8.017   0.160 -1.2941 -1.4148  0.8402
  238SOL     OW10477   3.310  10.004   1.166 -0.1656  0.2210 -0.0290
  238SOL    HW110478   3.387  10.025   1.227 -0.6852  0.1450  0.6691
  238SOL    HW210479   3.280  10.088   1.121 -1.3489  0.7457  1.6955
  239SOL     OW10480   3.838   4.423   1.631 -0.7652 -0.0059  0.1684
  239SOL    HW110481   3.866   4.333   1.663 -0.1179  0.0897 -0.1216
  239SOL    HW210482   3.844   4.489   1.706 -0.4562 -0.0382  0.1724
  240SOL     OW10483   2.942   9.744   0.641 -0.0759 -0.3820  0.3400
  240SOL    HW110484   2.965   9.675   0.709  0.3267 -0.2794  0.3105
  240SOL    HW210485   2.970   9.713   0.550  1.6268  0.5088  0.5322
  241SOL     OW10486   2.476   6.615   0.391 -0.0322  0.6574 -0.0045
  241SOL    HW110487   2.378   6.626   0.408 -0.1104 -0.7685  0.5028
  241SOL    HW210488   2.497   6.519   0.375  1.5242  0.7300  1.4388
  242SOL     OW10489   3.106   4.082   2.199 -0.9560 -0.1755 -0.2446
  242SOL    HW110490   3.058   3.998   2.224  0.3026 -1.5813 -2.4094
  242SOL    HW210491   3.097   4.097   2.101  0.7150  1.0274 -0.2310
  243SOL     OW10492   2.488   7.309   2.092 -0.0087 -0.0938  0.3659
  243SOL    HW110493   2.567   7.252   2.071 -0.2981 -0.3255 -0.1000
  243SOL    HW210494   2.513   7.405   2.083  0.0207 -0.1760 -0.5495
  244SOL     OW10495   2.366   7.393   1.203  0.2914  0.0507 -0.0777
  244SOL    HW110496   2.391   7.490   1.197 -0.7410  0.5071  2.3510
  244SOL    HW210497   2.335   7.361   1.113  2.5561  1.3963 -1.3990
  245SOL     OW10498   3.407   8.332   2.592  0.2811 -0.3042 -0.1146
  245SOL    HW110499   3.464   8.348   2.512  1.0932  1.0626  0.7117
  245SOL    HW210500   3.463   8.292   2.665 -0.1090 -0.1988  0.2463
  246SOL     OW10501   3.967   3.331   2.083  0.1666 -0.2805 -0.3602
  246SOL    HW110502   3.900   3.370   2.147 -1.2391 -0.2848 -1.8112
  246SOL    HW210503   4.047   3.391   2.080 -1.0264  1.3510 -0.8521
  247SOL     OW10504   2.296   1.369   2.224 -0.0817 -0.6005 -0.0143
  247SOL    HW110505   2.333   1.460   2.243 -0.0561 -0.4874 -0.6112
  247SOL    HW210506   2.314   1.344   2.129 -1.4900 -0.5610 -0.3131
  248SOL     OW10507   2.932   8.337   0.812  0.2412  0.2897 -0.0424
  248SOL    HW110508   2.936   8.312   0.909 -0.8474  2.9766  0.7558
  248SOL    HW210509   3.024   8.360   0.780  0.3190  1.3864  0.9353
  249SOL     OW10510   3.747   4.725   1.669 -0.0106 -0.3100  0.2607
  249SOL    HW110511   3.770   4.821   1.651  0.7272 -1.0482 -3.1508
  249SOL    HW210512   3.806   4.690   1.742  0.9314  1.3394  0.3146
  250SOL     OW10513   3.494   1.661   2.045  0.4971  0.0049  0.1003
  250SOL    HW110514   3.546   1.625   1.967  0.5560  1.3564 -0.4896
  250SOL    HW210515   3.553   1.720   2.100 -0.3816  1.4537 -0.5040
  251SOL     OW10516   3.127   4.384   0.396  0.2427  0.2577  0.4242
  251SOL    HW110517   3.185   4.442   0.340  1.9930 -0.1082  1.8051
  251SOL    HW210518   3.180   4.349   0.474 -1.1253 -2.0905  0.3506
  252SOL     OW10519   3.800   3.350   0.286 -0.5488 -0.3279 -0.4681
  252SOL    HW110520   3.839   3.408   0.214 -0.2387  1.6386  1.2175
  252SOL    HW210521   3.701   3.343   0.273 -0.6872  1.1473 -0.3705
  253SOL     OW10522   2.881   6.349   1.833 -0.0053  0.0352 -0.0997
  253SOL    HW110523   2.960   6.309   1.879 -0.6901  0.4458  1.4717
  253SOL    HW210524   2.797   6.317   1.877 -0.7150 -0.1544 -1.5559
  254SOL     OW10525   3.471   5.237   1.454 -0.3874  0.4610  0.0490
  254SOL    HW110526   3.502   5.152   1.498 -0.9686  1.1931  1.9145
  254SOL    HW210527   3.400   5.216   1.388 -1.4065 -0.3868  1.3974
  255SOL     OW10528   3.638  10.224   2.579  0.1823 -0.1451 -0.2471
  255SOL    HW110529   3.734  10.251   2.593  0.1300 -0.0050 -0.1583
  255SOL    HW210530   3.629  10.125   2.590  0.6079 -0.3674 -1.8037
  256SOL     OW10531   2.857   3.735   1.304 -0.3411  0.4882  0.4371
  256SOL    HW110532   2.799   3.654   1.294  1.3413 -0.7210  0.2968
  256SOL    HW210533   2.938   3.711   1.356  0.3661  1.9920  0.0380
  257SOL     OW10534   3.236   3.162   1.552 -0.3122 -0.3609 -0.5781
  257SOL    HW110535   3.211   3.215   1.471  1.2417  1.6034  0.1868
  257SOL    HW210536   3.321   3.113   1.535 -0.5030 -0.7415 -0.4541
  258SOL     OW10537   3.370   0.478   1.232  0.8189  0.0293  0.1170
  258SOL    HW110538   3.286   0.518   1.269  1.9498  1.1683  1.5028
  258SOL    HW210539   3.412   0.419   1.301  1.1563 -0.5715 -0.5873
  259SOL     OW10540   2.943   6.489   2.611  0.7152  0.6737  0.0112
  259SOL    HW110541   2.939   6.536   2.699 -0.7107  0.4255  0.0902
  259SOL    HW210542   2.850   6.480   2.574  1.4778  2.9852 -2.6892
  260SOL     OW10543   2.844   4.355   1.158 -0.4501 -0.0117 -0.1504
  260SOL    HW110544   2.888   4.434   1.201 -1.1302  0.2495  0.0633
  260SOL    HW210545   2.752   4.380   1.128 -0.9337 -0.9250  0.5435
  261SOL     OW10546   4.316   3.309   0.170  0.0014  0.2919  0.7004
  261SOL    HW110547   4.411   3.281   0.182  0.0961  0.5631  0.6003
  261SOL    HW210548   4.292   3.305   0.073 -0.4108 -0.7866  0.8401
  262SOL     OW10549   3.370   0.468   0.203 -0.0013  0.1433 -0.2157
  262SOL    HW110550   3.452   0.484   0.257 -0.0762 -1.8442  0.5554
  262SOL    HW210551   3.396   0.438   0.111  0.1289  0.9337 -0.4386
  263SOL     OW10552   3.079   8.521   0.524 -0.4197  0.5959  0.2755
  263SOL    HW110553   3.163   8.542   0.474  0.2950  2.3310  2.1315
  263SOL    HW210554   3.008   8.491   0.460  1.4293 -0.3491 -1.3729
  264SOL     OW10555   2.230   0.711   2.349 -0.2432 -0.2919 -0.4791
  264SOL    HW110556   2.251   0.684   2.444 -0.7254  0.4174 -0.1676
  264SOL    HW210557   2.258   0.637   2.287  1.3801 -0.1722  0.0806
  265SOL     OW10558   2.228   9.579   0.807  0.3322 -1.3283  0.0685
  265SOL    HW110559   2.195   9.672   0.788  0.9748 -1.1142  0.0062
  265SOL    HW210560   2.249   9.570   0.904 -2.2249 -2.1999  0.5739
  266SOL     OW10561   2.954   1.414   0.329 -0.6307  0.0807 -0.1427
  266SOL    HW110562   3.015   1.423   0.408 -1.3782  1.0725  0.3348
  266SOL    HW210563   3.007   1.424   0.245 -0.1206  0.9000  0.2690
  267SOL     OW10564   3.085   9.969   0.566  0.0021  0.3441 -0.4052
  267SOL    HW110565   3.044   9.889   0.609  0.3269  1.9184  3.0110
  267SOL    HW210566   3.022  10.009   0.500 -0.8404 -1.6902 -0.8411
  268SOL     OW10567   3.688   9.624   0.055  0.1835 -0.1532  0.0746
  268SOL    HW110568   3.684   9.528   0.081  2.1853 -0.4297 -0.5100
  268SOL    HW210569   3.620   9.642  -0.016  0.3218 -1.3265 -0.3651
  269SOL     OW10570   3.505   9.639   1.705  0.2673 -0.6815 -0.3112
  269SOL    HW110571   3.445   9.607   1.778  1.4872 -1.2867  0.4480
  269SOL    HW210572   3.600   9.617   1.728  1.1804  3.2844  0.1465
  270SOL     OW10573   3.765   2.278   0.342  0.2830 -0.7385 -0.3428
  270SOL    HW110574   3.759   2.218   0.422 -0.4269  0.7674  0.7583
  270SOL    HW210575   3.847   2.335   0.350 -0.5065  0.3598 -0.0043
  271SOL     OW10576   2.985   4.146   0.765 -0.1219 -0.1572  0.9356
  271SOL    HW110577   2.917   4.073   0.759 -0.6385  0.1536  2.7167
  271SOL    HW210578   2.983   4.185   0.857  0.0165  2.2393 -0.0589
  272SOL     OW10579   2.895   8.465   0.338  0.1706  0.5221 -0.2438
  272SOL    HW110580   2.833   8.476   0.260  2.0273 -2.4859 -2.2810
  272SOL    HW210581   2.847   8.416   0.411 -0.4085 -0.2776 -1.1276
  273SOL     OW10582   4.339   3.519   1.243 -0.0479 -0.0476  0.2120
  273SOL    HW110583   4.338   3.579   1.163 -0.9794  0.6578  0.7433
  273SOL    HW210584   4.288   3.435   1.222 -0.3611  0.1711  0.0916
  274SOL     OW10585   3.651   2.056   1.450 -0.0573 -0.2121  0.2880
  274SOL    HW110586   3.555   2.040   1.475 -0.0223  0.3222  0.7987
  274SOL    HW210587   3.701   1.970   1.452  0.0037 -0.1618  2.3838
  275SOL     OW10588   3.658   9.404   1.467  0.0651 -0.1316 -0.1071
  275SOL    HW110589   3.614   9.471   1.407 -0.6224 -1.1887 -0.8151
  275SOL    HW210590   3.706   9.451   1.541 -1.1361  1.0963 -0.0930
  276SOL     OW10591   4.395   3.024   1.826 -0.4077 -1.2009  0.5979
  276SOL    HW110592   4.443   3.028   1.738 -1.1982 -1.2585  0.1595
  276SOL    HW210593   4.309   2.974   1.814 -1.4288  0.4411  0.9741
  277SOL     OW10594   3.431   1.232   0.039  0.0438 -0.4899  0.6987
  277SOL    HW110595   3.527   1.237   0.067  0.4839 -0.9566 -0.7105
  277SOL    HW210596   3.376   1.197   0.115  0.6314  1.8584  2.2927
  278SOL     OW10597   2.443   0.789   0.436  0.4748  1.0332 -0.2607
  278SOL    HW110598   2.418   0.704   0.483  2.4000  1.6372  2.0286
  278SOL    HW210599   2.530   0.776   0.388  0.9307  1.7553  0.3457
  279SOL     OW10600   3.214   4.848   2.334 -0.1731  0.5697 -0.4035
  279SOL    HW110601   3.169   4.913   2.273 -0.4871  2.8135  2.1301
  279SOL    HW210602   3.313   4.853   2.321 -0.3099 -0.4001 -2.0600
  280SOL     OW10603   3.567   1.201   1.190 -0.2487 -0.5180  0.3891
  280SOL    HW110604   3.478   1.176   1.151 -0.0836 -0.0677 -0.2917
  280SOL    HW210605   3.628   1.231   1.117 -0.2664  1.3542  1.1071
  281SOL     OW10606   3.518   5.197   0.094  0.9345 -0.2958  0.3094
  281SOL    HW110607   3.472   5.183   0.182  1.5572 -0.0340  0.6813
  281SOL    HW210608   3.609   5.156   0.097  0.2757 -1.8933 -0.8428
  282SOL     OW10609   2.692   2.007   2.508  0.6113  0.1123 -0.3554
  282SOL    HW110610   2.618   2.064   2.541 -2.8063 -3.6710 -1.0755
  282SOL    HW210611   2.772   2.017   2.568 -2.7490 -0.7162  4.5836
  283SOL     OW10612   3.750   4.252   1.316 -0.8680  0.1403  0.4798
  283SOL    HW110613   3.828   4.241   1.378 -0.5385 -0.8679 -0.1092
  283SOL    HW210614   3.730   4.165   1.272 -1.4924  0.7086 -0.3735
  284SOL     OW10615   3.463   1.357   0.578  0.3625 -0.3070 -0.1790
  284SOL    HW110616   3.481   1.436   0.636 -0.0438  0.9168 -1.6922
  284SOL    HW210617   3.382   1.309   0.611 -0.2737  0.7805 -0.1489
  285SOL     OW10618   3.278   1.170   1.124  0.1619  0.2113  0.1793
  285SOL    HW110619   3.246   1.140   1.214 -0.8427  1.2534  0.1706
  285SOL    HW210620   3.214   1.140   1.053 -0.7812  2.1705  0.1521
  286SOL     OW10621   2.982  10.136   1.344  0.5146 -0.9665  0.3375
  286SOL    HW110622   2.917  10.174   1.410 -0.2399  0.1655 -1.0362
  286SOL    HW210623   3.044  10.073   1.391 -0.9084 -1.2644  1.8564
  287SOL     OW10624   4.006   9.014   2.519 -0.4197 -0.6787 -0.1215
  287SOL    HW110625   4.041   9.028   2.426 -0.1347 -1.3658 -0.1214
  287SOL    HW210626   3.966   9.099   2.553 -0.6347 -0.4568 -0.9202
  288SOL     OW10627   2.319   9.904   1.455 -0.5581  0.5817  0.4323
  288SOL    HW110628   2.397   9.846   1.434  0.2339  2.2637 -1.4260
  288SOL    HW210629   2.244   9.884   1.392 -1.7281 -1.1041  2.2780
  289SOL     OW10630   2.310   4.436   1.775  0.2362  0.5513  0.1718
  289SOL    HW110631   2.241   4.436   1.847 -0.6213  1.2435 -0.6373
  289SOL    HW210632   2.320   4.343   1.739  2.0107 -0.1699  2.4263
  290SOL     OW10633   3.131   3.367   1.211 -0.2761 -0.3272  0.8588
  290SOL    HW110634   3.039   3.390   1.243 -0.0485  0.5896  0.8732
  290SOL    HW210635   3.145   3.268   1.216 -1.4930 -0.5387  0.2221
  291SOL     OW10636   4.738   2.899   0.435  0.2082  0.4943 -0.5313
  291SOL    HW110637   4.808   2.910   0.505 -0.6606  2.6368  0.0418
  291SOL    HW210638   4.657   2.952   0.460 -0.7367 -0.0431 -2.3396
  292SOL     OW10639   2.510   9.841   0.988 -0.2198 -0.2609  0.6756
  292SOL    HW110640   2.558   9.776   1.048 -0.2113 -1.0946 -0.2122
  292SOL    HW210641   2.572   9.915   0.963  0.0131 -0.3181  1.0680
  293SOL     OW10642   3.547   0.434   1.921  0.1724 -0.0704 -0.2624
  293SOL    HW110643   3.477   0.399   1.985 -0.3499  0.8311 -0.3374
  293SOL    HW210644   3.631   0.382   1.933  0.6267  1.1941  2.3741
  294SOL     OW10645   5.319   3.115   0.726  0.0483  0.2756  0.5139
  294SOL    HW110646   5.249   3.048   0.698  1.1840 -1.4478  1.7061
  294SOL    HW210647   5.336   3.178   0.650 -1.6719 -0.2485 -0.3408
  295SOL     OW10648   2.993   3.391   1.822 -0.0005  0.0109 -0.2882
  295SOL    HW110649   3.068   3.435   1.872 -0.1504 -0.1153  0.0529
  295SOL    HW210650   3.016   3.295   1.806  0.4049  0.2544 -1.1900
  296SOL     OW10651   3.401   5.659   2.190 -0.4777 -0.5081 -0.5453
  296SOL    HW110652   3.454   5.704   2.262 -0.4616 -2.1783  0.5103
  296SOL    HW210653   3.427   5.698   2.102  0.7132  0.4218  0.1878
  297SOL     OW10654   3.050   8.157   0.367 -0.0136  0.1502  0.2300
  297SOL    HW110655   3.068   8.083   0.302  1.4381 -0.2004  1.0216
  297SOL    HW210656   3.111   8.233   0.349 -2.6539  1.9098 -1.6854
  298SOL     OW10657   3.169   1.502   0.496 -0.2166  0.4281  0.5890
  298SOL    HW110658   3.211   1.412   0.493 -1.4759 -0.1100 -1.4991
  298SOL    HW210659   3.204   1.559   0.421 -1.3347  0.8051  0.3437
  299SOL     OW10660   3.752   9.233   2.572  0.5792 -0.1525  0.0006
  299SOL    HW110661   3.675   9.265   2.516 -0.2261 -1.5552  0.2943
  299SOL    HW210662   3.748   9.134   2.581  1.8402 -0.1336  0.8981
  300SOL     OW10663   3.899   1.442   1.411  0.0786  0.2502 -0.1833
  300SOL    HW110664   3.966   1.440   1.484  2.4260  0.6411 -2.2625
  300SOL    HW210665   3.816   1.395   1.441  0.7878  0.8264  2.8612
  301SOL     OW10666   3.995   2.589   2.232 -0.6869  0.1518 -0.3200
  301SOL    HW110667   3.955   2.560   2.319 -0.3910 -0.2968 -0.3325
  301SOL    HW210668   4.010   2.509   2.174 -1.3332  0.5037 -0.9754
  302SOL     OW10669   3.181   2.913   0.425  0.1696 -0.2596  0.1847
  302SOL    HW110670   3.150   2.938   0.517 -0.1416  0.7658 -0.1837
  302SOL    HW210671   3.250   2.842   0.430 -0.5238 -0.8707  1.1654
  303SOL     OW10672   3.334   1.094   2.075 -0.0044 -0.1635  0.5424
  303SOL    HW110673   3.264   1.046   2.022 -2.3267  2.0321  1.5081
  303SOL    HW210674   3.395   1.142   2.012 -1.6078  0.9011 -0.2421
  304SOL     OW10675   2.915   3.738   0.583 -0.0037 -0.2963  0.6132
  304SOL    HW110676   2.896   3.671   0.655 -2.3475  0.2557  0.5564
  304SOL    HW210677   2.882   3.828   0.611 -0.6275  0.0014 -1.0043
  305SOL     OW10678   3.607   2.510   0.721  0.5113 -0.5875  0.0722
  305SOL    HW110679   3.579   2.537   0.813  0.7302  4.0154 -1.0958
  305SOL    HW210680   3.531   2.526   0.657  1.4626 -0.5189 -1.0496
  306SOL     OW10681   2.520   7.759   1.853 -0.3776 -0.8116 -0.6028
  306SOL    HW110682   2.605   7.811   1.849 -0.4584 -0.5723  0.6541
  306SOL    HW210683   2.463   7.794   1.927 -1.0889 -1.7044 -0.7198
  307SOL     OW10684   2.792   5.062   2.194 -0.1204 -0.1969 -0.3279
  307SOL    HW110685   2.777   5.017   2.282 -0.0939  0.0683 -0.1839
  307SOL    HW210686   2.745   5.151   2.194 -1.0907 -0.6992 -1.0169
  308SOL     OW10687   3.479   1.594   1.083 -0.0881 -0.0157 -0.3026
  308SOL    HW110688   3.384   1.600   1.054 -0.1138  1.9865  0.0805
  308SOL    HW210689   3.488   1.631   1.176  0.7047 -2.2076  0.5158
  309SOL     OW10690   2.808   1.399   2.261 -1.0126  0.2255 -0.6166
  309SOL    HW110691   2.870   1.478   2.267 -1.9860  1.0898 -1.6972
  309SOL    HW210692   2.763   1.399   2.172 -1.9282 -0.8742 -0.1594
  310SOL     OW10693   2.618  10.088   0.803  0.6204 -0.4311  0.6286
  310SOL    HW110694   2.708  10.050   0.826  2.0792  2.2915 -0.3494
  310SOL    HW210695   2.596  10.067   0.708  0.7885 -0.0475  0.5039
  311SOL     OW10696   2.509   1.566   2.078  0.2346  0.2996  0.0878
  311SOL    HW110697   2.590   1.623   2.077  0.1690  0.4053  0.7075
  311SOL    HW210698   2.534   1.472   2.055  0.4257  0.4655 -0.3844
  312SOL     OW10699   2.990   5.096   1.842 -0.0960 -0.3168 -0.3702
  312SOL    HW110700   2.911   5.158   1.846  0.3168  0.1114  1.7666
  312SOL    HW210701   3.072   5.148   1.818  0.3786  0.1470  2.1042
  313SOL     OW10702   4.925   2.766   0.114  0.1272  0.2292 -0.5326
  313SOL    HW110703   4.854   2.719   0.062 -0.8422  0.3380  0.6736
  313SOL    HW210704   4.994   2.699   0.144 -0.5116 -0.2083 -0.0210
  314SOL     OW10705   4.027   0.562   1.431  0.4999  0.0897  0.5186
  314SOL    HW110706   3.952   0.560   1.365  1.3330 -1.2698 -0.4020
  314SOL    HW210707   4.065   0.655   1.434  0.9890 -0.0168 -1.5285
  315SOL     OW10708   2.298   7.438   0.673  1.0091  0.3160  0.1559
  315SOL    HW110709   2.340   7.420   0.584  0.8761 -0.8148  0.3109
  315SOL    HW210710   2.315   7.361   0.734 -3.4353 -1.4292 -0.5809
  316SOL     OW10711   2.738   5.813   0.146 -0.1876  0.4669 -0.7017
  316SOL    HW110712   2.825   5.774   0.115 -0.3651 -0.6404  0.1659
  316SOL    HW210713   2.699   5.869   0.073 -0.4103 -1.7465 -2.3430
  317SOL     OW10714   2.473  10.112   2.432  0.2506 -0.1802 -0.1041
  317SOL    HW110715   2.451  10.191   2.490  0.5635  0.0852 -0.3472
  317SOL    HW210716   2.514  10.040   2.489 -2.1608 -1.0875  0.5526
  318SOL     OW10717   2.315   7.912   0.990 -0.9072 -0.6399  0.6726
  318SOL    HW110718   2.290   7.815   0.983 -0.1035 -0.9329  1.7571
  318SOL    HW210719   2.413   7.922   0.974 -0.7946 -0.1388  1.6581
  319SOL     OW10720   4.528   1.790   1.009  0.2770  0.5337 -0.0007
  319SOL    HW110721   4.464   1.855   1.048  0.2793  0.0314  0.8390
  319SOL    HW210722   4.606   1.840   0.970  1.2501  0.9444  2.4119
  320SOL     OW10723   2.939   1.268   1.084  0.0483  0.0851  0.1640
  320SOL    HW110724   2.898   1.294   0.996 -0.4117  0.1645  0.4013
  320SOL    HW210725   2.940   1.168   1.092  1.4392  0.0199 -0.5684
  321SOL     OW10726   3.293   1.175   0.751 -0.0711 -0.3970 -0.1692
  321SOL    HW110727   3.223   1.146   0.816  0.5154 -0.2777  0.5254
  321SOL    HW210728   3.261   1.159   0.658 -2.9337  3.8114 -0.0900
  322SOL     OW10729   3.319   5.427   0.026 -0.0934 -0.3455 -0.1902
  322SOL    HW110730   3.229   5.396   0.056 -0.4328  1.9507  1.2708
  322SOL    HW210731   3.385   5.353   0.036 -2.1947 -2.8266 -3.4425
  323SOL     OW10732   3.643   8.316   0.386  0.6470  0.2215  0.3379
  323SOL    HW110733   3.666   8.413   0.387 -1.0413  0.6386  0.3658
  323SOL    HW210734   3.617   8.286   0.478  0.0812  0.0336  0.1237
  324SOL     OW10735   3.935   4.987   1.233 -0.1502 -0.5301  0.5260
  324SOL    HW110736   3.906   5.058   1.169  2.9210  1.6965  1.4715
  324SOL    HW210737   3.866   4.976   1.304 -0.6967  1.4720  0.3242
  325SOL     OW10738   3.394   1.396   2.064  0.1429 -0.5727  0.0158
  325SOL    HW110739   3.449   1.335   2.007  0.5816 -1.6331  1.5548
  325SOL    HW210740   3.418   1.491   2.043  2.2254 -1.0012  0.3220
  326SOL     OW10741   3.499   2.580   0.956  0.0884 -0.2679  0.0813
  326SOL    HW110742   3.406   2.565   0.920  0.3084 -2.2484  0.2487
  326SOL    HW210743   3.508   2.533   1.044  1.5207 -0.8672 -0.3748
  327SOL     OW10744   4.010   1.497   1.657 -0.3184  0.5608  0.3080
  327SOL    HW110745   4.078   1.570   1.650 -0.5522  0.7315 -0.2048
  327SOL    HW210746   3.966   1.502   1.747  1.2810 -0.3875  1.1450
  328SOL     OW10747   2.750   8.854   2.510 -0.2201  0.4407  0.0428
  328SOL    HW110748   2.673   8.886   2.455  1.1391 -0.9329 -2.7684
  328SOL    HW210749   2.834   8.856   2.455  0.9739 -2.1508  1.6626
  329SOL     OW10750   2.876   1.678   0.884  0.1622  0.3136  0.5294
  329SOL    HW110751   2.930   1.673   0.968  0.2653 -0.2767  0.4311
  329SOL    HW210752   2.810   1.603   0.882  0.5300 -0.0059 -0.1605
  330SOL     OW10753   3.888   5.396   1.198  0.1287  0.2225  0.1163
  330SOL    HW110754   3.811   5.459   1.185 -0.8165 -1.0449 -0.5947
  330SOL    HW210755   3.854   5.302   1.199  1.4637 -0.2788  1.6045
  331SOL     OW10756   2.949   5.451   0.311 -0.1158 -0.4255  0.0436
  331SOL    HW110757   2.994   5.409   0.232  0.0346 -0.2883  0.0551
  331SOL    HW210758   2.859   5.486   0.284  0.5153  0.8876 -0.4170
  332SOL     OW10759   3.667   3.134   0.003 -0.0840 -0.1516  0.5354
  332SOL    HW110760   3.578   3.175   0.019  0.0485 -0.0238  0.9577
  332SOL    HW210761   3.678   3.114  -0.095  0.1917  1.6069  0.1911
  333SOL     OW10762   3.051   2.441   1.064  0.2377 -0.1509  0.3316
  333SOL    HW110763   3.038   2.363   1.126 -0.6843  0.9601  1.5485
  333SOL    HW210764   2.968   2.455   1.010 -0.8799  2.0505  2.5140
  334SOL     OW10765   4.492   4.381   2.495  0.6102  0.0376  0.8170
  334SOL    HW110766   4.554   4.387   2.573  0.8716  0.4652  0.5771
  334SOL    HW210767   4.478   4.284   2.472  1.1615 -0.0649  0.8942
  335SOL     OW10768   3.459   5.103   2.264  0.0577 -0.2244 -0.1783
  335SOL    HW110769   3.461   5.203   2.268 -0.3449 -0.2234  0.0634
  335SOL    HW210770   3.423   5.074   2.175 -2.2942 -0.1261  0.7192
  336SOL     OW10771   3.496   2.876   2.605  0.4099  0.2695 -0.3886
  336SOL    HW110772   3.396   2.871   2.608  0.3928  0.7183 -0.2647
  336SOL    HW210773   3.530   2.813   2.535 -0.0039  0.7876 -1.0608
  337SOL     OW10774   2.846   0.509   0.589  0.4177  0.2377 -0.1809
  337SOL    HW110775   2.908   0.462   0.651 -0.9297 -1.4583 -0.0826
  337SOL    HW210776   2.752   0.502   0.624 -0.0046  1.6492 -0.9811
  338SOL     OW10777   2.480   7.393   2.384  0.2063  0.0975  0.4392
  338SOL    HW110778   2.474   7.293   2.380 -1.0804  0.2058 -0.6749
  338SOL    HW210779   2.483   7.430   2.291 -1.8073  1.2045  0.7780
  339SOL     OW10780   2.238   6.423   0.683 -0.0257  0.3814  0.0541
  339SOL    HW110781   2.191   6.384   0.604  0.5163  0.5501 -0.3482
  339SOL    HW210782   2.336   6.408   0.675 -0.0662 -0.5381  1.2155
  340SOL     OW10783   2.664   9.630   1.070 -0.3148  0.1362  0.4532
  340SOL    HW110784   2.671   9.559   1.000  1.8877 -0.1194  0.8860
  340SOL    HW210785   2.754   9.646   1.110 -0.9570  2.5786  0.9853
  341SOL     OW10786   4.097   1.709   0.867  0.6808 -0.2043  0.2118
  341SOL    HW110787   4.166   1.639   0.847 -0.5097 -0.2815 -4.0803
  341SOL    HW210788   4.143   1.792   0.901  2.6192 -1.0921 -0.1819
  342SOL     OW10789   3.025   4.722   2.004 -0.7186 -0.0112  0.4433
  342SOL    HW110790   3.041   4.815   2.038 -0.8273  0.2697 -0.2627
  342SOL    HW210791   2.949   4.681   2.054 -1.5016  0.7481 -0.1210
  343SOL     OW10792   5.060   3.493   0.984  0.3565  0.3619  0.0236
  343SOL    HW110793   5.058   3.591   0.967  1.8798  0.4301  0.1769
  343SOL    HW210794   5.074   3.445   0.897 -1.0846  0.2302 -0.1513
  344SOL     OW10795   2.891   2.316   0.039 -0.7427 -0.5837 -0.4458
  344SOL    HW110796   2.960   2.364   0.093 -0.4711 -0.8846 -0.5272
  344SOL    HW210797   2.820   2.381   0.011  0.4809  0.1449 -1.9850
  345SOL     OW10798   3.954   3.943   0.054 -0.0858  0.0757  0.0158
  345SOL    HW110799   4.009   3.874   0.008  0.2774 -0.1454  0.7788
  345SOL    HW210800   3.931   4.016  -0.011 -0.7501 -0.9146 -0.8752
  346SOL     OW10801   2.613   5.730   2.320  0.3694 -0.0450  0.2462
  346SOL    HW110802   2.648   5.787   2.246 -1.3040  2.2012  1.1645
  346SOL    HW210803   2.546   5.665   2.283  0.5969  0.0913 -0.4192
  347SOL     OW10804   3.150   8.834   0.991 -0.8202  0.2445 -0.3308
  347SOL    HW110805   3.082   8.777   0.945  0.4677 -0.9625 -0.7688
  347SOL    HW210806   3.231   8.779   1.013 -0.1393  1.5616  0.5443
  348SOL     OW10807   4.140   3.272   1.173  0.1416  0.2582 -0.5768
  348SOL    HW110808   4.060   3.311   1.128  1.4272  3.0518 -0.5883
  348SOL    HW210809   4.118   3.252   1.269 -1.0549 -0.6206 -1.0367
  349SOL     OW10810   2.370  10.055   0.262 -0.0825 -0.0212  0.3605
  349SOL    HW110811   2.357   9.962   0.229 -3.8874  0.4650  0.3434
  349SOL    HW210812   2.435  10.102   0.202  1.3731 -2.4131 -0.0176
  350SOL     OW10813   2.930   2.056   2.621  0.1018  0.1117 -0.6636
  350SOL    HW110814   2.914   2.138   2.676  0.4449  0.2377 -0.7516
  350SOL    HW210815   2.998   2.076   2.551 -3.3130  1.1916 -3.8702
  351SOL     OW10816   2.329   0.905   2.207  0.5723  0.3585 -0.0149
  351SOL    HW110817   2.319   0.998   2.244  0.5247  0.2052  0.3660
  351SOL    HW210818   2.287   0.840   2.271 -1.7545  0.3159 -1.5163
  352SOL     OW10819   3.797   1.810   1.467  0.2587  0.0642 -0.3239
  352SOL    HW110820   3.813   1.713   1.452  0.6347 -0.0204  0.5624
  352SOL    HW210821   3.875   1.849   1.517 -1.0124  0.2653  1.5574
  353SOL     OW10822   3.560   4.416   0.456 -0.2714 -0.5748 -0.0850
  353SOL    HW110823   3.548   4.385   0.550 -0.0272  1.8291  0.7690
  353SOL    HW210824   3.504   4.360   0.395 -2.6254 -0.3868  1.8188
  354SOL     OW10825   2.640   0.409   0.309 -0.0986 -0.0106  0.3075
  354SOL    HW110826   2.582   0.451   0.379 -1.1539 -0.1382 -0.4883
  354SOL    HW210827   2.647   0.469   0.230  0.1903 -0.3578  0.0683
  355SOL     OW10828   2.759   3.113   1.036  0.0832 -0.0324  0.2392
  355SOL    HW110829   2.715   3.035   0.990 -1.5693  0.5989  0.7123
  355SOL    HW210830   2.812   3.080   1.114 -2.2982 -0.5203  1.6989
  356SOL     OW10831   3.205  10.228   1.063  0.7069 -0.0247 -0.6109
  356SOL    HW110832   3.131  10.269   1.115  2.1697  1.2434  0.5045
  356SOL    HW210833   3.172  10.201   0.973 -1.4127 -0.6400  0.3306
  357SOL     OW10834   3.157   9.846   0.949  0.1845 -0.0338 -0.2888
  357SOL    HW110835   3.118   9.887   1.032 -0.5903 -0.7326 -0.2984
  357SOL    HW210836   3.220   9.911   0.907  1.7050 -0.2020  1.6429
  358SOL     OW10837   4.309   2.746   2.067  0.2338  0.3197  0.0313
  358SOL    HW110838   4.258   2.764   2.151  0.5205 -0.7751  0.4429
  358SOL    HW210839   4.399   2.790   2.072  0.6883 -0.6842  0.7708
  359SOL     OW10840   3.873   1.234   0.389  0.4473 -0.2886 -0.4798
  359SOL    HW110841   3.813   1.155   0.382  0.7035 -0.6715  1.2647
  359SOL    HW210842   3.957   1.208   0.437  0.5891  0.9934  0.0108
  360SOL     OW10843   2.827   3.927   0.789 -0.6017 -0.1135  0.0684
  360SOL    HW110844   2.746   3.915   0.731 -0.6705 -1.7741  0.4843
  360SOL    HW210845   2.826   3.859   0.862  0.4038  0.8310  0.9835
  361SOL     OW10846   2.726   0.692   1.756  0.2752  0.5040 -0.0524
  361SOL    HW110847   2.725   0.595   1.779  0.7421  0.4205 -0.3740
  361SOL    HW210848   2.734   0.746   1.840 -2.6725  0.3669  0.3756
  362SOL     OW10849   3.388   5.178   0.348  0.3083  0.0132 -0.3140
  362SOL    HW110850   3.446   5.142   0.422 -0.3513 -0.7660 -0.1696
  362SOL    HW210851   3.309   5.118   0.335 -0.6845  1.2536 -0.2476
  363SOL     OW10852   2.625   7.189   1.509  0.2322 -0.1469 -0.1262
  363SOL    HW110853   2.584   7.210   1.598  1.3925 -1.8851  0.8275
  363SOL    HW210854   2.552   7.167   1.444 -0.6979  2.2373  0.0572
  364SOL     OW10855   2.210   8.286   2.183 -0.1488 -0.2849  0.0918
  364SOL    HW110856   2.273   8.221   2.140 -0.3004 -1.0567  1.0200
  364SOL    HW210857   2.221   8.376   2.140 -1.3822 -1.3518 -2.6166
  365SOL     OW10858   2.908   4.565   0.395  0.2651  0.2023 -0.5786
  365SOL    HW110859   2.956   4.647   0.426  1.0270 -0.6995  0.6878
  365SOL    HW210860   2.974   4.491   0.382 -0.6931 -0.8589  0.5281
  366SOL     OW10861   3.240   1.422   1.250 -0.3338  0.1103  0.5457
  366SOL    HW110862   3.280   1.337   1.216  1.0255  1.0142 -0.1613
  366SOL    HW210863   3.239   1.490   1.177  0.2180  1.2538  1.5781
  367SOL     OW10864   3.145   0.336   0.274 -0.1819 -0.4266  0.9004
  367SOL    HW110865   3.140   0.280   0.191 -0.0702  0.5822  0.1994
  367SOL    HW210866   3.223   0.398   0.268  0.3695 -0.9939  2.1752
  368SOL     OW10867   3.684   1.007   0.391  0.4716  0.2596 -0.7244
  368SOL    HW110868   3.696   0.941   0.317  1.0635  0.7824 -1.1086
  368SOL    HW210869   3.717   0.968   0.477 -0.0576 -0.2861 -0.7694
  369SOL     OW10870   3.493   0.964   0.798  0.3058  0.3037 -0.4721
  369SOL    HW110871   3.433   1.036   0.765  0.2237  1.1307  1.3785
  369SOL    HW210872   3.585   1.001   0.813  0.6490 -0.3439 -0.9217
  370SOL     OW10873   4.190   3.920   0.692  0.2216  0.2580 -0.2747
  370SOL    HW110874   4.187   3.849   0.621  0.2664  0.1203 -0.1411
  370SOL    HW210875   4.250   3.994   0.663 -1.0301  0.9677 -1.0881
  371SOL     OW10876   2.583  10.068   1.434  0.0849  0.1673 -0.5825
  371SOL    HW110877   2.620   9.996   1.375 -0.0331 -0.8531  0.5556
  371SOL    HW210878   2.484  10.074   1.422  0.1211  0.2679 -0.8223
  372SOL     OW10879   4.754   3.731   0.540 -0.4754 -0.5894 -0.0735
  372SOL    HW110880   4.698   3.666   0.591 -1.0001  0.2576  0.4369
  372SOL    HW210881   4.702   3.814   0.523  0.7953  0.4209  0.8667
  373SOL     OW10882   3.051   7.118   1.620  0.2809  0.0068 -0.3386
  373SOL    HW110883   3.123   7.051   1.637 -0.6561 -0.9960 -0.2608
  373SOL    HW210884   3.022   7.113   1.525  0.5634  0.6739 -0.4665
  374SOL     OW10885   3.472   9.694   2.485 -0.7561  0.4295  0.2974
  374SOL    HW110886   3.486   9.681   2.387  0.7653  2.8061  0.1668
  374SOL    HW210887   3.387   9.649   2.513 -1.2210 -0.2351 -2.1075
  375SOL     OW10888   3.119   7.318   0.220 -0.2511  0.0215 -0.0248
  375SOL    HW110889   3.199   7.288   0.273 -0.6500  0.3638  0.7809
  375SOL    HW210890   3.149   7.377   0.145  0.2414  0.2254  0.3296
  376SOL     OW10891   3.943   9.371   2.355  0.1882  0.0310  0.0605
  376SOL    HW110892   3.909   9.454   2.399 -1.0641 -0.4408 -0.0223
  376SOL    HW210893   3.886   9.293   2.381 -0.5032 -0.2705 -2.3078
  377SOL     OW10894   3.441   2.815   0.428  0.1364  0.2978 -0.2240
  377SOL    HW110895   3.466   2.868   0.346  0.0760 -1.6735 -1.5640
  377SOL    HW210896   3.507   2.832   0.500  2.5986 -1.0332 -2.0718
  378SOL     OW10897   3.372   7.407   0.698 -0.1874  0.2145 -0.3667
  378SOL    HW110898   3.301   7.348   0.658 -0.6924  1.1875 -0.9184
  378SOL    HW210899   3.461   7.365   0.685 -0.3511  0.4606 -2.4550
  379SOL     OW10900   2.414   7.663   1.248 -0.3313 -0.3443 -0.1000
  379SOL    HW110901   2.369   7.742   1.291 -0.1132 -1.2337  1.8104
  379SOL    HW210902   2.469   7.694   1.171 -2.1298  1.0844 -0.8567
  380SOL     OW10903   2.718   9.239   1.182 -0.3743  0.2466  0.1911
  380SOL    HW110904   2.697   9.147   1.151 -1.5133 -0.3234  2.5813
  380SOL    HW210905   2.816   9.256   1.170 -0.6364 -0.2063 -2.9178
  381SOL     OW10906   2.374   6.996   1.734  0.2803 -0.4816  0.1781
  381SOL    HW110907   2.365   6.940   1.651  0.4340 -0.8845  0.4335
  381SOL    HW210908   2.398   7.089   1.708  2.0708 -1.0217 -0.1424
  382SOL     OW10909   3.077   9.046   2.594 -0.3388  0.5226  0.7110
  382SOL    HW110910   3.162   9.098   2.586 -1.5284  2.4683  0.3356
  382SOL    HW210911   3.059   9.027   2.691  0.7453 -0.3019  0.7587
  383SOL     OW10912   2.171   6.620   1.335 -0.1149 -0.1824  0.1340
  383SOL    HW110913   2.131   6.605   1.245 -0.0078  1.1250 -0.1459
  383SOL    HW210914   2.184   6.533   1.381 -2.1314 -0.7168 -0.2638
  384SOL     OW10915   2.495   4.106   0.783 -0.1596  0.9488  0.6001
  384SOL    HW110916   2.580   4.132   0.830 -0.1172  1.1856  0.3942
  384SOL    HW210917   2.431   4.068   0.849  0.8862 -1.1978  0.4271
  385SOL     OW10918   3.599   1.540   1.815  0.2414  0.4030 -0.2154
  385SOL    HW110919   3.572   1.589   1.732 -1.1010 -2.3704 -1.5141
  385SOL    HW210920   3.550   1.453   1.819  3.0296 -1.1581  1.6264
  386SOL     OW10921   3.359   0.985   2.332  0.0076 -0.0117 -0.0806
  386SOL    HW110922   3.260   0.982   2.349  0.3718 -0.2534  2.0884
  386SOL    HW210923   3.375   1.018   2.239 -2.1229 -0.2712 -0.5758
  387SOL     OW10924   2.427   8.687   2.262  0.3991  0.6547 -0.1483
  387SOL    HW110925   2.338   8.676   2.306  0.0078  1.0546 -0.8311
  387SOL    HW210926   2.491   8.620   2.299 -0.0029  0.7960  0.8179
  388SOL     OW10927   3.028   2.881   2.367 -0.1270 -0.6351 -0.2880
  388SOL    HW110928   3.003   2.961   2.423  1.3238  0.4021 -1.0817
  388SOL    HW210929   2.951   2.855   2.310 -0.4100  0.6394 -0.5158
  389SOL     OW10930   3.180   2.019   2.024  0.6080 -0.2583 -0.3922
  389SOL    HW110931   3.157   1.964   1.944 -1.8428  0.5047 -0.2544
  389SOL    HW210932   3.108   2.087   2.040  0.8583 -0.6408  2.6988
  390SOL     OW10933   3.894   1.939   0.375  0.2718  0.1328  0.1002
  390SOL    HW110934   3.861   1.977   0.289 -0.0094  1.2827  0.7029
  390SOL    HW210935   3.893   2.010   0.445 -0.5080 -1.0567  1.3220
  391SOL     OW10936   3.443   0.434   2.612  0.0787 -0.1309  0.7846
  391SOL    HW110937   3.520   0.372   2.594 -0.8223 -1.0123 -0.0350
  391SOL    HW210938   3.380   0.434   2.535 -0.5052  0.9736  1.2409
  392SOL     OW10939   2.732   6.826   2.508  0.0064  0.4791 -0.0547
  392SOL    HW110940   2.766   6.898   2.568  0.7702  1.4089 -1.5785
  392SOL    HW210941   2.653   6.782   2.550  0.7482  0.8560  1.7900
  393SOL     OW10942   3.002   9.288   1.077  0.0349 -0.4454 -0.0331
  393SOL    HW110943   2.988   9.291   0.978 -1.0186 -0.6577  0.1072
  393SOL    HW210944   3.075   9.224   1.099  0.7968  0.1675 -0.7247
  394SOL     OW10945   4.146   3.828   1.642 -0.4169 -0.4862 -0.0110
  394SOL    HW110946   4.090   3.778   1.708  0.0124 -0.0723  0.6647
  394SOL    HW210947   4.201   3.763   1.589 -1.3165 -0.8720 -0.4775
  395SOL     OW10948   2.880   0.576   1.305  0.1026  0.0797 -0.6843
  395SOL    HW110949   2.871   0.569   1.405  1.5340  1.2391 -0.4519
  395SOL    HW210950   2.831   0.657   1.274 -0.8428 -0.6095 -1.0099
  396SOL     OW10951   2.905   5.387   1.500  0.5890 -0.2008 -0.5708
  396SOL    HW110952   2.935   5.435   1.417  1.0239  1.2762  0.4163
  396SOL    HW210953   2.838   5.443   1.549 -0.2322 -1.3958 -0.2978
  397SOL     OW10954   2.650   5.704   1.361  0.5877  0.7267 -0.1182
  397SOL    HW110955   2.633   5.762   1.441  0.8214 -0.5292  0.8496
  397SOL    HW210956   2.572   5.644   1.346 -0.0904  1.9782 -1.7372
  398SOL     OW10957   2.906   9.957   1.120 -0.0490 -0.4076 -0.1014
  398SOL    HW110958   2.909  10.026   1.192  0.0748 -0.1570 -0.3476
  398SOL    HW210959   2.875   9.998   1.035  0.3298 -0.5840 -0.3270
  399SOL     OW10960   3.217   0.390   1.810 -0.0048 -0.2707 -0.0227
  399SOL    HW110961   3.234   0.300   1.770 -0.8499 -0.6172  0.3672
  399SOL    HW210962   3.294   0.415   1.869 -0.8953 -1.9038  1.9000
  400SOL     OW10963   3.442   9.260   0.133 -0.4138 -0.0794 -0.4159
  400SOL    HW110964   3.534   9.296   0.120 -0.6600  0.4279 -0.7492
  400SOL    HW210965   3.409   9.219   0.048  0.1745 -1.8407  0.1652
  401SOL     OW10966   3.916   3.067   2.042 -0.6866  0.1864  0.2222
  401SOL    HW110967   3.861   3.032   2.117  0.5372 -0.1687  0.9755
  401SOL    HW210968   3.957   3.154   2.068  1.7321 -1.1191  0.9292
  402SOL     OW10969   2.499   5.608   1.842  0.2756 -0.2042 -0.0896
  402SOL    HW110970   2.450   5.681   1.794 -0.0605 -3.0558 -4.4121
  402SOL    HW210971   2.597   5.615   1.822  0.4833  0.1496  1.0343
  403SOL     OW10972   3.125   5.611   1.049 -0.0953  0.1682 -0.5175
  403SOL    HW110973   3.151   5.678   0.980 -1.0615 -2.3516 -3.4683
  403SOL    HW210974   3.177   5.527   1.035 -1.7323 -1.0680  0.5721
  404SOL     OW10975   2.799   5.317   1.820 -0.4413 -0.1455 -0.5981
  404SOL    HW110976   2.735   5.331   1.745 -1.1292  2.2555  0.3934
  404SOL    HW210977   2.892   5.338   1.789 -0.7396  0.9557 -0.7454
  405SOL     OW10978   2.594   8.746   1.009 -0.2136  0.7834  0.1169
  405SOL    HW110979   2.688   8.716   0.995  0.0290  1.4797  0.2708
  405SOL    HW210980   2.537   8.666   1.031  0.0710  0.1824 -1.2971
  406SOL     OW10981   3.244   2.423   1.771  0.4823  0.3701 -0.5849
  406SOL    HW110982   3.257   2.453   1.866  0.7345 -0.7010 -0.2766
  406SOL    HW210983   3.322   2.451   1.716  0.9133 -0.0844 -0.2087
  407SOL     OW10984   5.166   4.138   0.638 -0.1095  0.3807 -0.5810
  407SOL    HW110985   5.219   4.056   0.662  0.1199  0.6727 -0.0594
  407SOL    HW210986   5.074   4.112   0.612 -0.8220  0.1298  2.0423
  408SOL     OW10987   3.523   1.690   1.348 -0.0680 -0.4960 -0.1354
  408SOL    HW110988   3.458   1.702   1.423  1.3789 -0.0693  1.0783
  408SOL    HW210989   3.530   1.775   1.296  0.1771 -0.2771  0.2593
  409SOL     OW10990   2.702   6.517   2.304 -0.4801 -0.7226 -0.0183
  409SOL    HW110991   2.607   6.542   2.286 -0.0053  0.1631 -1.3623
  409SOL    HW210992   2.762   6.563   2.239  1.0165 -0.0728  1.7479
  410SOL     OW10993   2.922   9.305   2.627  0.0137 -0.3601 -0.5362
  410SOL    HW110994   2.837   9.327   2.580 -1.2875 -1.2367  1.3697
  410SOL    HW210995   2.946   9.210   2.610 -0.3879 -0.6399  0.4645
  411SOL     OW10996   2.375   5.795   1.670  0.5676 -0.1204 -0.1978
  411SOL    HW110997   2.396   5.864   1.601  0.5985 -0.5278 -0.6068
  411SOL    HW210998   2.289   5.750   1.646  0.5373 -0.2083  0.0755
  412SOL     OW10999   2.824   7.349   1.398  0.2181 -0.0276 -0.0606
  412SOL    HW111000   2.754   7.306   1.455 -0.5783 -0.4838 -1.3431
  412SOL    HW211001   2.838   7.443   1.427 -0.2539 -0.2156  0.8019
  413SOL     OW11002   2.159   7.979   1.816  0.2743  0.1577  0.0792
  413SOL    HW111003   2.179   8.076   1.807  0.6015  0.1511  0.7360
  413SOL    HW211004   2.075   7.957   1.766 -0.4708  1.0101  0.9500
  414SOL     OW11005   4.021   3.706   1.293 -0.0725 -0.1171 -0.6382
  414SOL    HW111006   3.981   3.674   1.207 -1.3560 -0.5853  0.1227
  414SOL    HW211007   3.972   3.665   1.370  1.6965 -0.4776  0.3280
  415SOL     OW11008   4.481   2.623   0.715  0.0492  0.0515  0.1109
  415SOL    HW111009   4.580   2.639   0.709 -0.0627  1.9347  2.2868
  415SOL    HW211010   4.458   2.597   0.809 -1.4706 -0.7846 -0.4887
  416SOL     OW11011   4.785   3.437   0.617 -0.1264 -0.6285 -0.0992
  416SOL    HW111012   4.774   3.527   0.660  0.1718 -1.1537  1.0891
  416SOL    HW211013   4.868   3.437   0.561 -1.3287  0.5423 -1.9603
  417SOL     OW11014   2.825   1.326   1.547  0.3010  0.8299  0.2313
  417SOL    HW111015   2.878   1.343   1.464  0.2475 -0.4755 -0.0947
  417SOL    HW211016   2.879   1.350   1.627  1.6091 -0.9800 -0.0781
  418SOL     OW11017   3.315   2.019   0.333 -0.0040  0.3271 -0.0799
  418SOL    HW111018   3.294   2.010   0.430  0.0161  0.4183 -0.0670
  418SOL    HW211019   3.234   2.048   0.283  0.6434  2.9109  0.3001
  419SOL     OW11020   4.381   2.778   1.153  0.1132 -0.1739  0.0557
  419SOL    HW111021   4.465   2.831   1.140  0.6536 -0.5798  1.7267
  419SOL    HW211022   4.392   2.688   1.112  0.6918 -0.3952  0.6722
  420SOL     OW11023   3.039   1.567   2.244  0.4575 -0.0029 -0.1932
  420SOL    HW111024   3.103   1.491   2.234  0.1780 -0.1887 -0.6199
  420SOL    HW211025   3.041   1.624   2.162 -0.6573 -0.5984 -0.6613
  421SOL     OW11026   2.646   4.209   0.239 -0.6218 -0.5355  0.0511
  421SOL    HW111027   2.607   4.214   0.331 -0.9146 -1.7840  0.0113
  421SOL    HW211028   2.577   4.238   0.172 -0.5058  0.0905  0.2005
  422SOL     OW11029   4.213   3.891   1.203 -0.0373 -0.5326  0.1060
  422SOL    HW111030   4.157   3.973   1.186  1.1031  0.2889  0.2541
  422SOL    HW211031   4.158   3.823   1.251 -0.7330  0.5138  0.8308
  423SOL     OW11032   2.131   7.078   1.342  0.3725 -0.4832  1.1476
  423SOL    HW111033   2.067   7.013   1.383 -1.7966  1.1878  0.5289
  423SOL    HW211034   2.125   7.165   1.391  1.2780  0.0701  0.2908
  424SOL     OW11035   4.334   0.885   0.461  0.1063 -0.0453 -0.5333
  424SOL    HW111036   4.356   0.913   0.367  0.1855  0.9775 -0.2192
  424SOL    HW211037   4.238   0.906   0.480 -0.0533 -0.7421 -0.5581
  425SOL     OW11038   2.386   0.313   2.612 -0.0949 -0.7816 -0.0294
  425SOL    HW111039   2.442   0.267   2.681 -0.0946  0.3877  0.7628
  425SOL    HW211040   2.393   0.412   2.624 -0.5607 -0.5796 -1.3466
  426SOL     OW11041   3.738   1.714   0.530  0.4661  0.6187 -0.6210
  426SOL    HW111042   3.714   1.624   0.494 -0.1222  0.1365  0.9150
  426SOL    HW211043   3.779   1.769   0.458  0.0904 -0.5987 -1.7884
  427SOL     OW11044   3.783   2.727   0.738  0.3333  0.5521  0.0018
  427SOL    HW111045   3.731   2.642   0.724  0.9765  0.5083 -2.3428
  427SOL    HW211046   3.821   2.727   0.831 -1.9471 -0.4381  0.9863
  428SOL     OW11047   4.046   4.538   0.573 -0.0606 -0.3874  0.3820
  428SOL    HW111048   3.954   4.504   0.590 -0.3234  0.8872  1.5297
  428SOL    HW211049   4.112   4.464   0.588 -1.0280 -2.0003 -2.8203
  429SOL     OW11050   3.898   4.993   1.611  0.3321  0.4626  0.7168
  429SOL    HW111051   3.858   5.039   1.690 -1.0438 -0.2083  0.4211
  429SOL    HW211052   3.845   5.015   1.529  2.6283  2.3807 -0.3276
  430SOL     OW11053   2.924   9.524   0.140  0.2589  0.0981 -0.0790
  430SOL    HW111054   2.873   9.609   0.130 -1.3528 -0.9757 -1.1430
  430SOL    HW211055   2.926   9.476   0.052  0.3546 -1.4089  0.7321
  431SOL     OW11056   2.916   6.728   0.112  0.7034 -0.7090 -0.1362
  431SOL    HW111057   2.829   6.679   0.116  0.2354  0.1097 -0.0840
  431SOL    HW211058   2.916   6.789   0.034 -0.0725  1.6894  1.6760
  432SOL     OW11059   3.220   1.468   1.529 -0.4255  0.3927  0.4211
  432SOL    HW111060   3.216   1.443   1.432  1.4066  0.4813  0.3033
  432SOL    HW211061   3.229   1.567   1.537 -2.4396  0.5747  0.7554
  433SOL     OW11062   3.379   2.258   0.924  0.0423 -0.2489  0.0923
  433SOL    HW111063   3.424   2.285   1.009 -0.5208 -1.3178  0.7453
  433SOL    HW211064   3.429   2.295   0.846  2.8492 -2.4849  0.7553
  434SOL     OW11065   2.731   5.899   0.984 -0.3051 -0.1946  0.3668
  434SOL    HW111066   2.648   5.844   0.990 -1.9068  2.3025  1.5307
  434SOL    HW211067   2.748   5.945   1.071  1.9596 -0.1599 -0.0486
  435SOL     OW11068   3.467   4.245   2.382 -0.0653 -0.5256 -0.0706
  435SOL    HW111069   3.387   4.292   2.419  0.3227 -0.0617  0.1763
  435SOL    HW211070   3.437   4.173   2.320 -0.6655 -0.1231 -0.2501
  436SOL     OW11071   2.973   5.674   1.543  0.3516  0.2003 -0.5281
  436SOL    HW111072   2.969   5.771   1.517 -0.0281  0.0224 -1.1599
  436SOL    HW211073   3.010   5.621   1.467 -0.6131 -0.3125 -0.6510
  437SOL     OW11074   3.706   1.726   1.000  0.4721  0.4896  0.0939
  437SOL    HW111075   3.623   1.683   1.034  0.6312  1.3153  1.5535
  437SOL    HW211076   3.708   1.721   0.900  0.0040 -1.9751  0.1796
  438SOL     OW11077   2.685   4.485  -0.007 -0.2869  0.2110 -0.1067
  438SOL    HW111078   2.605   4.442   0.034 -0.6167 -0.1236 -1.0820
  438SOL    HW211079   2.748   4.415  -0.041 -0.0885  0.4806 -0.3091
  439SOL     OW11080   2.717   9.220   0.789 -0.5221 -0.5258 -0.2924
  439SOL    HW111081   2.769   9.143   0.752 -0.5037 -0.2271 -0.9057
  439SOL    HW211082   2.622   9.193   0.803 -0.9132 -0.1768 -2.1363
  440SOL     OW11083   3.657   2.910   0.610  0.1918 -0.4926 -0.6041
  440SOL    HW111084   3.718   2.964   0.552  0.3078  1.5451  1.3491
  440SOL    HW211085   3.707   2.832   0.647  0.5278 -0.9779 -2.0490
  441SOL     OW11086   3.485   2.966   0.206  0.0569 -0.1826  0.0325
  441SOL    HW111087   3.523   2.942   0.117 -1.4308 -0.6647 -0.4741
  441SOL    HW211088   3.390   2.993   0.196 -0.1174 -0.2245  1.4803
  442SOL     OW11089   2.679   6.593   0.083 -0.0313  0.2045  0.0250
  442SOL    HW111090   2.617   6.579   0.160 -1.8683  0.8684 -1.3087
  442SOL    HW211091   2.666   6.519   0.016 -0.1469  0.8971 -0.7340
  443SOL     OW11092   2.980   4.163   0.449  0.2887 -0.5697  0.3407
  443SOL    HW111093   3.022   4.250   0.424 -0.7507 -0.5642 -1.4086
  443SOL    HW211094   3.024   4.128   0.532  2.4580  0.3598 -0.3892
  444SOL     OW11095   2.869   3.234   1.565  0.2015  0.2973  0.8107
  444SOL    HW111096   2.941   3.269   1.625  0.4230  0.0737  0.6751
  444SOL    HW211097   2.781   3.241   1.612  0.1710  1.5171  0.5813
  445SOL     OW11098   3.863   2.513   2.479 -0.0808  0.7773 -0.4620
  445SOL    HW111099   3.805   2.435   2.505 -0.7540  1.7554  1.0854
  445SOL    HW211100   3.933   2.526   2.548  1.9211 -0.2750 -2.2424
  446SOL     OW11101   2.676   0.769   0.310 -0.2801  0.4226 -0.1480
  446SOL    HW111102   2.742   0.840   0.285 -0.1301  0.9818  1.7924
  446SOL    HW211103   2.725   0.683   0.326 -0.1984  0.4629 -0.1767
  447SOL     OW11104   3.797   1.076   1.290 -0.5261 -0.5434  0.0183
  447SOL    HW111105   3.703   1.094   1.261  0.1735  1.7298 -0.9253
  447SOL    HW211106   3.834   1.000   1.237 -1.3453 -0.5281 -0.5839
  448SOL     OW11107   4.319   1.773   0.249 -0.2335 -0.0933 -0.5955
  448SOL    HW111108   4.230   1.793   0.290  0.3791 -2.1273  1.8983
  448SOL    HW211109   4.324   1.676   0.225  1.3298 -0.0404 -0.5600
  449SOL     OW11110   3.206   3.752   1.741  0.0201 -0.0485 -0.1382
  449SOL    HW111111   3.112   3.734   1.713 -0.0347 -0.4365  0.2989
  449SOL    HW211112   3.258   3.788   1.663 -1.0000  2.0556  0.1066
  450SOL     OW11113   2.677   8.853   1.391 -0.0734  0.1023 -0.4011
  450SOL    HW111114   2.696   8.762   1.354 -0.5053  0.1072 -0.6299
  450SOL    HW211115   2.691   8.922   1.320  1.5821  0.3529  0.1270
  451SOL     OW11116   3.747   1.632   2.458 -0.3454 -0.2541  0.1571
  451SOL    HW111117   3.700   1.579   2.387 -0.7690  0.7792 -0.3382
  451SOL    HW211118   3.778   1.719   2.420 -0.1743  0.1079  1.1175
  452SOL     OW11119   3.344   8.561   0.384 -0.4602  0.4235 -0.0275
  452SOL    HW111120   3.397   8.623   0.327 -0.1259 -0.2900 -0.5063
  452SOL    HW211121   3.405   8.510   0.444 -0.5093 -0.9346 -1.1022
  453SOL     OW11122   3.228   8.402   2.327 -0.2169  0.1917 -0.8172
  453SOL    HW111123   3.264   8.378   2.417  0.6955 -0.1244 -1.2616
  453SOL    HW211124   3.137   8.443   2.337 -0.7409 -1.1861  0.1371
  454SOL     OW11125   3.070   7.245   0.667 -0.5576  0.2483 -0.0382
  454SOL    HW111126   3.040   7.154   0.694  0.1332  0.0609  0.1183
  454SOL    HW211127   3.016   7.277   0.589 -0.3228 -0.5851 -0.5437
  455SOL     OW11128   3.004   2.567   1.509  0.1977  0.1375  0.3567
  455SOL    HW111129   2.915   2.586   1.550 -1.4940 -1.6503 -2.2814
  455SOL    HW211130   3.047   2.490   1.557 -1.4328 -1.4622 -0.6573
  456SOL     OW11131   3.030   1.167   0.108  0.4509 -0.3111 -0.5300
  456SOL    HW111132   3.095   1.110   0.058  2.0653  0.6296  0.4329
  456SOL    HW211133   3.044   1.154   0.206 -1.5919 -0.9346 -0.3034
  457SOL     OW11134   4.051   3.208   1.413 -0.0108  0.1900 -0.4282
  457SOL    HW111135   4.119   3.199   1.486 -0.2729  1.9917  0.0587
  457SOL    HW211136   3.970   3.254   1.448 -1.0860 -1.0308 -1.2724
  458SOL     OW11137   3.220   1.597   1.003 -0.2251 -0.2504 -0.3170
  458SOL    HW111138   3.191   1.556   0.917  0.5222 -0.3031 -0.5435
  458SOL    HW211139   3.158   1.672   1.027 -0.9018 -0.7554 -0.4920
  459SOL     OW11140   3.579   3.851   0.513 -0.6046 -0.4164  0.9387
  459SOL    HW111141   3.546   3.776   0.455  0.6576  0.4807 -0.9823
  459SOL    HW211142   3.503   3.912   0.533 -0.8388 -0.1029 -0.7794
  460SOL     OW11143   3.428   8.336   1.768 -0.0917  0.2306  0.1403
  460SOL    HW111144   3.491   8.386   1.828 -1.1661  1.9704 -0.1593
  460SOL    HW211145   3.357   8.292   1.824 -0.1201  0.4562  0.2821
  461SOL     OW11146   2.176   9.494   2.364  0.2810  0.8508  0.0411
  461SOL    HW111147   2.186   9.410   2.311 -1.1299  0.0299  1.0378
  461SOL    HW211148   2.190   9.474   2.461 -2.3856  1.2704  0.5551
  462SOL     OW11149   2.788   7.217   2.444 -0.1146  0.0021 -0.0540
  462SOL    HW111150   2.777   7.271   2.362  0.9184 -0.2652 -0.3719
  462SOL    HW211151   2.698   7.185   2.475 -0.7404  1.9480  0.1979
  463SOL     OW11152   2.992   0.368   1.183  0.0347 -0.0436  0.8115
  463SOL    HW111153   2.931   0.440   1.215  0.1941  0.1838  0.6010
  463SOL    HW211154   2.989   0.291   1.247 -0.5292 -0.0662  0.7623
  464SOL     OW11155   3.857   3.736   0.587  0.1088  0.6527  0.6896
  464SOL    HW111156   3.953   3.709   0.580 -0.4892 -1.2823 -0.3329
  464SOL    HW211157   3.799   3.660   0.559 -1.7253  1.9136  0.9993
  465SOL     OW11158   3.395   3.615   2.535 -0.1738 -0.1353 -0.5784
  465SOL    HW111159   3.456   3.542   2.564 -1.4498 -0.1089  2.3805
  465SOL    HW211160   3.440   3.703   2.550 -0.8038 -0.1237  1.4103
  466SOL     OW11161   3.493   1.220   1.868  0.7725 -0.2078 -0.4698
  466SOL    HW111162   3.459   1.258   1.782  1.0953 -0.9025 -0.9108
  466SOL    HW211163   3.476   1.121   1.869 -0.2734 -0.0277  0.7601
  467SOL     OW11164   3.112   1.540   0.762 -0.1477  0.8676 -0.0540
  467SOL    HW111165   3.128   1.543   0.664  0.1203  0.2923 -0.0279
  467SOL    HW211166   3.021   1.577   0.783 -0.6390 -0.0168 -0.6110
  468SOL     OW11167   3.053   2.355   0.650  0.2716 -0.2191  0.0840
  468SOL    HW111168   3.135   2.337   0.596 -1.0467 -2.5977 -1.2074
  468SOL    HW211169   3.032   2.276   0.708 -2.0256 -0.3618 -0.8716
  469SOL     OW11170   2.670   9.858   1.275 -0.0537  0.1142  0.0261
  469SOL    HW111171   2.638   9.768   1.246  0.7060 -0.4718  0.9986
  469SOL    HW211172   2.765   9.870   1.248 -0.1844  0.6850 -0.2006
  470SOL     OW11173   2.134  10.011   0.042  0.6028  1.3346 -0.6007
  470SOL    HW111174   2.096  10.102   0.058  0.5461  1.1697  0.2237
  470SOL    HW211175   2.194   9.986   0.118 -1.9739 -0.6654  0.8793
  471SOL     OW11176   3.181   8.352   0.701  0.1926  0.3130 -0.3917
  471SOL    HW111177   3.254   8.288   0.677 -0.4678 -0.4497 -0.3945
  471SOL    HW211178   3.127   8.372   0.619  0.8203  1.4282 -0.5434
  472SOL     OW11179   3.053   1.024   0.830 -0.2757  0.0902  0.1425
  472SOL    HW111180   3.079   0.971   0.911 -0.7193  1.7191  1.3940
  472SOL    HW211181   3.006   0.965   0.765 -0.0487 -1.2180  1.1452
  473SOL     OW11182   3.851   3.058   0.527  0.1638 -0.7564 -0.0104
  473SOL    HW111183   3.910   3.093   0.454 -0.4915  0.0199 -0.1640
  473SOL    HW211184   3.908   3.020   0.600  0.8994  0.8245  0.2655
  474SOL     OW11185   3.848   8.801   1.968  0.3181 -0.3155 -0.1672
  474SOL    HW111186   3.788   8.866   1.922 -1.4058 -1.0504  0.9775
  474SOL    HW211187   3.847   8.714   1.917 -2.5455 -1.5254  1.8123
  475SOL     OW11188   4.057   8.681   0.442  0.3453  0.1354  0.0785
  475SOL    HW111189   4.097   8.646   0.526 -0.9172  0.9379  1.0324
  475SOL    HW211190   4.015   8.606   0.391 -0.0768 -0.1381  0.8304
  476SOL     OW11191   3.794   1.992   1.921  0.1922 -0.2497 -0.6572
  476SOL    HW111192   3.712   1.981   1.865  0.8485  0.7142 -1.8406
  476SOL    HW211193   3.791   2.081   1.967  0.4397 -0.3338 -0.4784
  477SOL     OW11194   2.730   1.224   0.402 -0.9347  0.1617 -0.1238
  477SOL    HW111195   2.650   1.263   0.447 -1.2458 -0.6047  0.0057
  477SOL    HW211196   2.796   1.296   0.381 -2.0543  0.9332 -1.0596
  478SOL     OW11197   3.274   9.492   2.194 -0.2178  0.4066 -0.1575
  478SOL    HW111198   3.274   9.479   2.293 -3.1047 -2.3442 -0.4289
  478SOL    HW211199   3.234   9.581   2.171 -1.8259  0.0270  1.0991
  479SOL     OW11200   2.559   4.335   1.047 -0.0069  0.4546 -0.9156
  479SOL    HW111201   2.564   4.398   0.969 -0.6355 -1.0134 -2.1870
  479SOL    HW211202   2.595   4.245   1.019  3.7907  1.0565  1.7776
  480SOL     OW11203   2.904   2.889   0.057 -0.6004  0.1476 -0.0734
  480SOL    HW111204   2.891   2.954  -0.018  3.3824  2.4595  1.0897
  480SOL    HW211205   2.956   2.810   0.024 -1.1295 -0.0865 -0.3486
  481SOL     OW11206   2.130   9.834   0.705  0.2409  0.2372 -0.7428
  481SOL    HW111207   2.031   9.820   0.706  0.2505  0.2064  0.0297
  481SOL    HW211208   2.151   9.919   0.657 -0.1482  0.1517 -1.0627
  482SOL     OW11209   2.198  10.250   2.380 -0.3845 -0.2470  0.1824
  482SOL    HW111210   2.234  10.237   2.472 -0.7241 -1.8228  0.1052
  482SOL    HW211211   2.183  10.161   2.337 -2.5753  0.4127 -0.4916
  483SOL     OW11212   3.058   4.054   0.216 -0.2866  0.3080  0.1315
  483SOL    HW111213   3.051   4.094   0.308 -1.7991 -0.1891  0.2551
  483SOL    HW211214   3.131   3.986   0.214 -0.3458  0.2166  1.0085
  484SOL     OW11215   2.275   6.981   0.428 -0.3243  0.3839  0.0778
  484SOL    HW111216   2.187   7.015   0.395 -0.1277  0.5676 -0.2628
  484SOL    HW211217   2.347   7.047   0.406 -0.0963  0.2190  0.3209
  485SOL     OW11218   4.701   2.877   2.503 -0.3892 -0.3699 -0.0637
  485SOL    HW111219   4.761   2.949   2.468 -0.9321 -0.6938 -1.7061
  485SOL    HW211220   4.614   2.917   2.532  0.0124 -0.1140  0.7772
  486SOL     OW11221   2.419   5.196   1.790 -0.5353 -0.2222 -0.1297
  486SOL    HW111222   2.473   5.125   1.745  0.9355 -0.3764  1.8111
  486SOL    HW211223   2.378   5.159   1.874  0.3407  1.2154  0.9638
  487SOL     OW11224   2.072   9.695   2.154  0.1422  0.2883  0.3257
  487SOL    HW111225   2.083   9.624   2.222 -1.4758  0.2364  0.5611
  487SOL    HW211226   2.071   9.785   2.198  0.8848  0.3794  0.1674
  488SOL     OW11227   3.810   0.815   0.951  0.0339 -0.1986 -0.4053
  488SOL    HW111228   3.787   0.812   1.048  0.7351 -0.5116 -0.2438
  488SOL    HW211229   3.810   0.721   0.914  1.5069 -0.2591 -0.2856
  489SOL     OW11230   3.788   9.913   2.105 -0.3488  0.5473  0.1643
  489SOL    HW111231   3.802  10.007   2.138  0.3059  0.9858 -1.3029
  489SOL    HW211232   3.715   9.914   2.036  1.8080  0.5327 -2.1888
  490SOL     OW11233   4.724   2.638   0.328 -0.3396 -0.3577  0.1755
  490SOL    HW111234   4.705   2.632   0.230  0.2607  1.0244 -0.0398
  490SOL    HW211235   4.712   2.732   0.359  0.1183 -0.6540  1.3006
  491SOL     OW11236   2.695   5.576   0.300 -0.4324  0.2793  0.3723
  491SOL    HW111237   2.620   5.518   0.270  1.1038 -1.2365 -0.6037
  491SOL    HW211238   2.692   5.664   0.253  0.8471 -1.3608 -2.8872
  492SOL     OW11239   2.860   4.595   2.192 -0.4647 -0.0014 -0.0713
  492SOL    HW111240   2.891   4.652   2.268 -0.7975  1.4806 -1.0196
  492SOL    HW211241   2.900   4.504   2.201 -0.4651  0.1620  1.8410
  493SOL     OW11242   2.455   1.680   2.365 -0.1843  0.0610  0.5374
  493SOL    HW111243   2.447   1.682   2.266  0.6384  1.2696  0.4896
  493SOL    HW211244   2.416   1.763   2.404  0.3064  0.0046  1.1666
  494SOL     OW11245   4.071   4.113   1.192  0.9897  0.4001  0.1117
  494SOL    HW111246   3.997   4.106   1.126  2.4188 -2.0348 -1.2920
  494SOL    HW211247   4.042   4.171   1.269 -2.2838 -0.3774 -0.4707
  495SOL     OW11248   2.589   7.575   1.489 -0.7309  0.4846 -0.5488
  495SOL    HW111249   2.538   7.568   1.404 -0.8121 -0.9931 -0.3904
  495SOL    HW211250   2.678   7.618   1.471 -0.4453 -0.4829 -1.5137
  496SOL     OW11251   3.311   9.180   2.560  0.0045 -0.4117  0.1052
  496SOL    HW111252   3.333   9.128   2.478 -0.5948 -0.8517  0.2209
  496SOL    HW211253   3.312   9.278   2.539  1.3487 -0.4596 -0.0557
  497SOL     OW11254   2.483   8.113   2.340 -0.4183 -0.5896  0.1061
  497SOL    HW111255   2.552   8.116   2.414 -0.1497  0.3612 -0.1776
  497SOL    HW211256   2.393   8.096   2.380 -0.4142  0.8911  0.7527
  498SOL     OW11257   4.655   1.615   0.054  0.2591  0.5841  0.2086
  498SOL    HW111258   4.729   1.596   0.119  0.1083  0.0791  0.2379
  498SOL    HW211259   4.684   1.589  -0.038 -0.9489 -2.4698  0.6411
  499SOL     OW11260   2.519   8.332   0.545 -0.4163  0.4058 -0.3659
  499SOL    HW111261   2.450   8.304   0.612  0.0345  0.6601  0.2058
  499SOL    HW211262   2.481   8.401   0.484 -0.3933  1.2023  0.5105
  500SOL     OW11263   3.448   3.162   2.180 -0.2819 -0.1455 -0.5597
  500SOL    HW111264   3.409   3.253   2.168  1.9252  0.6963 -1.5664
  500SOL    HW211265   3.457   3.141   2.278 -1.9252  0.2004 -0.3292
  501SOL     OW11266   3.566   9.708   2.218  0.3306  0.2065 -0.1867
  501SOL    HW111267   3.566   9.622   2.166 -0.7421 -0.8501  1.4919
  501SOL    HW211268   3.659   9.745   2.222  0.7652 -0.7510 -1.1370
  502SOL     OW11269   2.473   7.181   0.432 -0.5175 -0.5508  0.0646
  502SOL    HW111270   2.539   7.227   0.372  0.2886 -1.1119  0.5204
  502SOL    HW211271   2.482   7.217   0.525 -0.2559 -1.2446  0.3097
  503SOL     OW11272   2.867   2.604   2.101  0.7761  0.3388 -0.7296
  503SOL    HW111273   2.934   2.555   2.156  0.2357 -0.6651 -0.9392
  503SOL    HW211274   2.780   2.554   2.103 -0.0333  1.7500 -0.2606
  504SOL     OW11275   3.199   8.547   1.270  0.1729 -0.1078  0.0106
  504SOL    HW111276   3.251   8.557   1.185  1.5682  0.9976  0.9684
  504SOL    HW211277   3.171   8.637   1.303  2.3485 -0.2185  2.3454
  505SOL     OW11278   2.645   9.851   0.291 -0.5840  0.1689 -0.3076
  505SOL    HW111279   2.675   9.778   0.351 -1.0340  1.2289  1.2381
  505SOL    HW211280   2.546   9.862   0.299 -0.6197  0.4670 -1.0793
  506SOL     OW11281   3.480   5.494   1.606 -0.1757  0.1273  0.0339
  506SOL    HW111282   3.527   5.582   1.602 -3.1338  1.7521 -1.0556
  506SOL    HW211283   3.524   5.430   1.544  0.2983  1.7456 -1.3407
  507SOL     OW11284   4.270   3.109   0.999 -0.4835  0.1134 -0.0037
  507SOL    HW111285   4.369   3.099   0.990 -0.4922  0.5963 -0.7143
  507SOL    HW211286   4.250   3.171   1.075 -0.2352  0.2527 -0.0508
  508SOL     OW11287   2.494   1.076   0.392  0.3790 -0.4489  0.3213
  508SOL    HW111288   2.440   0.992   0.401  0.8264 -0.7820 -0.0784
  508SOL    HW211289   2.517   1.090   0.295 -0.0101  0.3360  0.3377
  509SOL     OW11290   2.582   3.654   1.069 -0.0717  0.0186  0.2067
  509SOL    HW111291   2.511   3.661   0.999  0.2751 -1.1808 -0.2787
  509SOL    HW211292   2.610   3.558   1.078 -0.0886  0.1640  1.9596
  510SOL     OW11293   3.908   1.206   2.602  0.9336 -0.1143 -0.0535
  510SOL    HW111294   3.845   1.157   2.663  0.3244  1.9159  0.9714
  510SOL    HW211295   3.876   1.197   2.507  0.2493 -0.7980  0.2304
  511SOL     OW11296   2.636   8.779   0.134 -0.3399  0.0299  0.0672
  511SOL    HW111297   2.687   8.757   0.218  1.1032  0.4868 -0.6665
  511SOL    HW211298   2.698   8.823   0.069 -1.5541  0.0466 -1.0845
  512SOL     OW11299   3.613   0.659   0.009  0.0183 -0.3959 -0.1891
  512SOL    HW111300   3.694   0.644  -0.048  0.0150 -1.1133 -0.0113
  512SOL    HW211301   3.560   0.574   0.014 -0.7485  0.0759 -0.3065
  513SOL     OW11302   2.433   4.346   0.113 -0.0998  0.1113  0.3225
  513SOL    HW111303   2.410   4.381   0.204  1.3570  2.7048 -0.2686
  513SOL    HW211304   2.369   4.384   0.046 -0.4755 -0.8945  0.1146
  514SOL     OW11305   3.335   4.806   1.669  0.4459 -0.6387 -0.0890
  514SOL    HW111306   3.377   4.715   1.673 -0.7411 -1.2397 -1.2958
  514SOL    HW211307   3.255   4.808   1.730  0.6957 -0.2761  0.2307
  515SOL     OW11308   3.961   3.859   2.338  0.7030 -0.7738 -0.3595
  515SOL    HW111309   3.871   3.844   2.379  0.8236 -4.2557 -1.2715
  515SOL    HW211310   3.952   3.927   2.265 -1.2872 -1.4050 -0.7521
  516SOL     OW11311   4.925   2.420   2.427 -0.1739  0.2874 -0.4775
  516SOL    HW111312   4.924   2.510   2.471 -2.8696 -0.4176  1.0268
  516SOL    HW211313   4.951   2.430   2.331 -1.3615  2.7803 -0.5770
  517SOL     OW11314   3.617   4.287   0.714 -0.8628 -0.2859  0.0532
  517SOL    HW111315   3.691   4.305   0.779 -0.5675 -0.1969 -0.3019
  517SOL    HW211316   3.588   4.192   0.723  0.8280 -0.9709 -1.3255
  518SOL     OW11317   3.862   2.308   0.071 -0.2303  0.0997  0.5156
  518SOL    HW111318   3.846   2.288   0.167 -0.6897 -1.0426  0.2109
  518SOL    HW211319   3.784   2.278   0.017  0.5791 -0.4555 -0.3660
  519SOL     OW11320   3.360   3.447   1.669  0.5350  0.0105 -0.0327
  519SOL    HW111321   3.349   3.430   1.571 -0.3084  1.4051 -0.1909
  519SOL    HW211322   3.270   3.459   1.710  0.8235 -1.5418  1.1124
  520SOL     OW11323   3.877   4.088   0.995 -0.1352 -0.0226 -0.0858
  520SOL    HW111324   3.820   4.164   0.964 -2.1044 -1.4470 -0.0869
  520SOL    HW211325   3.897   4.028   0.917  0.9465  0.1853  0.0207
  521SOL     OW11326   2.782   4.828   1.559  0.4455  0.1409  0.1738
  521SOL    HW111327   2.833   4.788   1.636  1.4162 -0.3349 -0.7129
  521SOL    HW211328   2.838   4.899   1.516 -0.1677  0.5187 -0.0073
  522SOL     OW11329   3.423   3.997   2.203 -0.2875 -0.3206 -0.1669
  522SOL    HW111330   3.361   3.960   2.135 -1.1443  1.3249 -0.3127
  522SOL    HW211331   3.515   4.006   2.164 -1.1605  2.2836 -1.7115
  523SOL     OW11332   4.686   2.891   2.149  0.1525 -0.3922  0.2595
  523SOL    HW111333   4.607   2.927   2.199  0.3026  0.3786 -0.0396
  523SOL    HW211334   4.688   2.792   2.155 -0.5070 -0.3732  0.7715
  524SOL     OW11335   4.905   3.873   1.431 -0.2205  0.3267  0.1693
  524SOL    HW111336   5.005   3.879   1.432 -0.2246  0.8057 -1.5691
  524SOL    HW211337   4.868   3.922   1.510  0.8920  0.6411  0.5059
  525SOL     OW11338   2.746   3.318  -0.001  0.1741  0.1069 -0.5039
  525SOL    HW111339   2.649   3.343   0.006 -0.2208 -1.7607  1.1812
  525SOL    HW211340   2.794   3.348   0.081  1.1705  1.5538 -1.6004
  526SOL     OW11341   2.547  10.216   0.131  0.2469  0.5290 -0.3234
  526SOL    HW111342   2.632  10.193   0.083  0.1177 -0.3196 -0.1525
  526SOL    HW211343   2.568  10.273   0.210  0.7172 -0.0703 -0.0042
  527SOL     OW11344   3.705   3.807   2.478  0.1613  0.4211 -0.5298
  527SOL    HW111345   3.609   3.836   2.471 -0.0843 -0.2944 -0.1341
  527SOL    HW211346   3.719   3.723   2.427  0.0548 -0.7281  1.2759
  528SOL     OW11347   2.988   3.592   0.847  0.7291 -0.5549 -0.4270
  528SOL    HW111348   2.925   3.517   0.824  0.7804 -1.1378  1.2560
  528SOL    HW211349   2.936   3.667   0.888  0.8357 -0.1281 -1.0705
  529SOL     OW11350   3.597   9.502   2.024  0.4106  0.4078  0.2579
  529SOL    HW111351   3.695   9.526   2.028  0.5941 -0.1594 -0.8537
  529SOL    HW211352   3.586   9.405   2.046  0.1751  0.2814 -0.4336
  530SOL     OW11353   4.029   4.842   0.069 -0.3593 -0.0716  0.4301
  530SOL    HW111354   4.125   4.829   0.045 -0.4445  1.4931 -0.8372
  530SOL    HW211355   4.022   4.880   0.161  0.1509 -1.8328  1.2136
  531SOL     OW11356   3.655   3.368   1.042  0.0703 -0.2808 -0.8176
  531SOL    HW111357   3.594   3.315   1.100  0.9097 -3.0325 -2.3696
  531SOL    HW211358   3.601   3.428   0.983 -0.8181  1.9222  2.0986
  532SOL     OW11359   2.564   3.868   0.679  0.1772  0.0595  0.1245
  532SOL    HW111360   2.565   3.862   0.579  0.4913  1.1701  0.0590
  532SOL    HW211361   2.510   3.948   0.707  0.9041  0.3041  0.8168
  533SOL     OW11362   2.638   8.856   2.229 -0.5898  0.2660 -0.5696
  533SOL    HW111363   2.715   8.794   2.210 -0.3950  0.9690 -2.2376
  533SOL    HW211364   2.552   8.809   2.209 -0.5146  0.0295 -0.3423
  534SOL     OW11365   2.797   9.755   0.087 -0.1458  0.4064  0.1649
  534SOL    HW111366   2.722   9.734   0.024 -1.4987  1.7238  1.2764
  534SOL    HW211367   2.761   9.810   0.162  2.1989  2.1377  0.0483
  535SOL     OW11368   3.086   0.970   2.361 -0.1246 -0.3871 -0.1286
  535SOL    HW111369   3.024   1.049   2.357 -0.4286 -0.4893  1.9918
  535SOL    HW211370   3.050   0.897   2.304 -0.5144  0.5459 -1.1035
  536SOL     OW11371   2.920   3.139   2.532 -0.0954 -0.0405  0.0835
  536SOL    HW111372   2.997   3.156   2.593 -0.1697 -0.5838  0.3376
  536SOL    HW211373   2.841   3.192   2.561  0.0953  0.2829  0.0056
  537SOL     OW11374   3.337   9.003   2.360 -0.4238  0.3904  0.4947
  537SOL    HW111375   3.334   8.905   2.378  1.5932  0.4438  1.2568
  537SOL    HW211376   3.289   9.022   2.274 -0.6535 -1.2763  0.2252
  538SOL     OW11377   2.408   5.552   0.660  0.0100  0.3250  0.1680
  538SOL    HW111378   2.498   5.582   0.627 -0.4537 -1.1149 -2.5626
  538SOL    HW211379   2.414   5.458   0.693 -0.5178  0.1517 -0.2201
  539SOL     OW11380   4.182   2.820   1.804 -0.6124 -0.3048 -0.1069
  539SOL    HW111381   4.199   2.808   1.902 -0.3524  0.2619 -0.0777
  539SOL    HW211382   4.109   2.887   1.791 -0.7597 -0.5005 -0.2988
  540SOL     OW11383   2.236   9.877   0.963  0.1351 -0.6729 -0.3342
  540SOL    HW111384   2.197   9.856   0.874  0.2779 -0.2455 -0.5008
  540SOL    HW211385   2.335   9.860   0.962 -0.0831 -1.9675  0.1536
  541SOL     OW11386   3.860   5.154   0.831  0.2579  0.2372 -0.5342
  541SOL    HW111387   3.784   5.187   0.775 -0.4384  0.8369  0.7359
  541SOL    HW211388   3.944   5.199   0.804 -0.1480  0.8208 -0.8300
  542SOL     OW11389   2.564   7.485   2.645 -0.0355 -0.0062  0.1030
  542SOL    HW111390   2.568   7.468   2.546  0.4125  0.2087  0.0807
  542SOL    HW211391   2.528   7.577   2.661  1.5366  0.6316  0.0747
  543SOL     OW11392   3.110   2.596   0.538 -0.6673 -0.1426 -0.2188
  543SOL    HW111393   3.086   2.503   0.565 -1.0449  0.4382  1.4610
  543SOL    HW211394   3.047   2.661   0.580  0.2698  0.9544 -0.4905
  544SOL     OW11395   2.460   9.622   1.468  0.2499  0.2703  0.0053
  544SOL    HW111396   2.502   9.588   1.552 -1.3735 -1.2062  0.2636
  544SOL    HW211397   2.497   9.572   1.390  0.9020  0.8335 -0.0565
  545SOL     OW11398   2.871   7.644   1.416  0.1973 -0.1679 -0.3062
  545SOL    HW111399   2.952   7.645   1.475 -0.6627  1.7663  0.8882
  545SOL    HW211400   2.877   7.718   1.350  0.0210 -0.8579 -1.1027
  546SOL     OW11401   2.290  10.051   0.530  0.1747 -0.1779  0.4795
  546SOL    HW111402   2.378  10.039   0.575  0.6643 -1.6685 -0.8482
  546SOL    HW211403   2.300  10.038   0.432 -1.5408 -0.5113  0.3323
  547SOL     OW11404   2.558   8.939   0.397 -0.0914 -0.2867 -0.0278
  547SOL    HW111405   2.569   8.876   0.320 -0.4761 -0.1251 -0.2176
  547SOL    HW211406   2.586   9.031   0.369  2.6315 -0.7939  0.9259
  548SOL     OW11407   3.445   1.709   0.660  0.0993 -0.1880  0.4159
  548SOL    HW111408   3.497   1.634   0.699  0.4566 -0.5732 -0.7667
  548SOL    HW211409   3.500   1.755   0.590 -0.7951  0.0006 -0.1780
  549SOL     OW11410   3.119   4.444   2.077 -0.4493  0.2225  0.4343
  549SOL    HW111411   3.097   4.537   2.050  0.1432  0.9433  2.3330
  549SOL    HW211412   3.035   4.394   2.098 -0.7272  0.4884 -0.0313
  550SOL     OW11413   2.934   8.720   0.882  0.2935  0.3633  0.4851
  550SOL    HW111414   2.881   8.712   0.798 -1.3671  3.1446  1.2088
  550SOL    HW211415   2.908   8.648   0.945 -1.0970  0.4241  0.0043
  551SOL     OW11416   3.352   9.532   1.920 -0.0720  0.1012  0.0956
  551SOL    HW111417   3.283   9.496   1.983 -0.0738 -0.9475 -0.4943
  551SOL    HW211418   3.436   9.552   1.971  0.0158 -0.9974  0.4097
  552SOL     OW11419   2.796   8.849   0.608 -0.3168  0.4032 -0.5656
  552SOL    HW111420   2.802   8.816   0.514  1.9519 -0.7825 -0.0289
  552SOL    HW211421   2.709   8.821   0.648 -0.3457 -1.0103 -1.5919
  553SOL     OW11422   3.210   0.889   1.251  0.9570  0.1298  0.3139
  553SOL    HW111423   3.197   0.793   1.273 -1.1914 -0.0389 -1.5649
  553SOL    HW211424   3.208   0.943   1.336  1.3989 -1.3725  1.3018
  554SOL     OW11425   4.010   3.846   0.297 -0.2591 -0.0894  0.0487
  554SOL    HW111426   3.943   3.782   0.333 -1.7004  0.2861 -1.8755
  554SOL    HW211427   3.978   3.881   0.209  2.8453 -0.4960 -1.2779
  555SOL     OW11428   3.839   2.688   0.192  0.3797  0.5475 -0.8021
  555SOL    HW111429   3.767   2.671   0.260 -1.1000  2.3735 -1.8644
  555SOL    HW211430   3.820   2.774   0.145  2.2779  0.1071 -2.4058
  556SOL     OW11431   2.261   9.802   2.585 -0.4878  0.5987  0.2611
  556SOL    HW111432   2.198   9.868   2.623 -1.0054 -0.3471  1.0711
  556SOL    HW211433   2.279   9.823   2.488 -0.2104  2.2213  0.6588
  557SOL     OW11434   2.793   9.817   1.877 -0.7029  0.4008 -0.0986
  557SOL    HW111435   2.728   9.753   1.837 -1.2487  0.7933  0.1518
  557SOL    HW211436   2.743   9.890   1.925 -0.0531 -0.1172  1.3962
  558SOL     OW11437   4.645   3.850   2.255 -0.4945  0.1023  0.2248
  558SOL    HW111438   4.664   3.825   2.160  0.5050 -0.7101  0.6314
  558SOL    HW211439   4.554   3.820   2.280 -1.0843  1.0466 -0.7251
  559SOL     OW11440   2.929   3.425   0.154  1.0345 -0.2210  0.0585
  559SOL    HW111441   2.953   3.387   0.243 -1.4547 -1.9947  0.0018
  559SOL    HW211442   2.928   3.525   0.161  2.4067 -0.2889  1.5967
  560SOL     OW11443   4.074   1.021   0.573  0.2787  0.1580 -0.3834
  560SOL    HW111444   4.053   1.019   0.671 -1.5633  0.4917 -0.7339
  560SOL    HW211445   4.116   1.109   0.550  2.0061 -0.4678  0.3340
  561SOL     OW11446   3.083   2.109   0.208  0.1232  0.2173  0.1057
  561SOL    HW111447   3.011   2.046   0.178  0.9464 -0.1778 -1.0652
  561SOL    HW211448   3.047   2.202   0.213 -0.7191 -0.1264  0.4578
  562SOL     OW11449   2.618   4.991   1.123 -0.3328 -0.1091  0.1728
  562SOL    HW111450   2.626   5.028   1.216 -1.3697 -0.5645  0.4495
  562SOL    HW211451   2.629   5.064   1.056  1.0161  0.1241  0.6391
  563SOL     OW11452   3.424   2.842   1.709 -0.2042 -0.0101 -0.1946
  563SOL    HW111453   3.344   2.826   1.651 -0.7575  0.7515  0.3530
  563SOL    HW211454   3.442   2.760   1.764  0.6214 -0.9218 -1.7882
  564SOL     OW11455   2.419   6.904   1.483 -0.5775 -0.6237  0.2383
  564SOL    HW111456   2.409   6.987   1.429 -0.0095  0.0955  1.2169
  564SOL    HW211457   2.467   6.835   1.429  2.4565  0.9996  0.7071
  565SOL     OW11458   2.898   3.399   1.349  0.2157 -0.3187  0.9037
  565SOL    HW111459   2.955   3.467   1.397  0.9483 -1.6688  1.9923
  565SOL    HW211460   2.870   3.328   1.414  0.0810 -1.4554 -0.3890
  566SOL     OW11461   3.347   9.181   0.869  0.2756  0.1205 -0.2545
  566SOL    HW111462   3.413   9.239   0.820 -0.3203 -0.8456 -2.2493
  566SOL    HW211463   3.383   9.088   0.874 -0.3065 -0.0942 -0.0917
  567SOL     OW11464   2.726   8.614   1.314 -0.5893  0.0533 -0.0900
  567SOL    HW111465   2.759   8.597   1.221 -0.6046 -0.0055 -0.0846
  567SOL    HW211466   2.760   8.542   1.374 -0.5926  0.0843 -0.0530
  568SOL     OW11467   3.643   3.278   0.663 -0.1775 -0.2249  0.0287
  568SOL    HW111468   3.694   3.212   0.607 -1.1438  0.2536 -1.4609
  568SOL    HW211469   3.656   3.370   0.626 -0.4329  0.1616  0.8934
  569SOL     OW11470   3.026   5.347   0.065 -0.1363 -0.3589  0.1130
  569SOL    HW111471   3.017   5.248   0.070 -0.1631 -0.4479 -1.4708
  569SOL    HW211472   2.980   5.381  -0.018 -1.9296  1.1962  1.6729
  570SOL     OW11473   3.284   9.769   1.316  0.0003  0.2545  0.1701
  570SOL    HW111474   3.355   9.772   1.386 -0.2092  0.1999  0.3841
  570SOL    HW211475   3.282   9.855   1.266 -0.3485  0.5723  0.7205
  571SOL     OW11476   2.177   6.283   0.442 -0.8220  0.0718  0.1786
  571SOL    HW111477   2.258   6.226   0.428 -1.4042 -0.5422 -0.7381
  571SOL    HW211478   2.122   6.284   0.358 -2.2431 -0.2541  1.0978
  572SOL     OW11479   2.669   3.264   1.776  0.0486  0.2583  0.0403
  572SOL    HW111480   2.729   3.198   1.821  1.5522  0.0606 -2.1864
  572SOL    HW211481   2.581   3.221   1.757  0.7447 -0.8826 -0.6787
  573SOL     OW11482   3.572   4.794   1.892 -0.0209 -0.1031 -0.0425
  573SOL    HW111483   3.590   4.720   1.827  0.8608  0.1319 -0.0724
  573SOL    HW211484   3.603   4.767   1.983  0.5938  0.3399 -0.1119
  574SOL     OW11485   2.389   8.420   0.202 -0.3260 -0.4685 -0.4737
  574SOL    HW111486   2.380   8.493   0.270  1.0487 -0.9986  0.2968
  574SOL    HW211487   2.485   8.396   0.191 -0.5961 -0.9123 -2.0764
  575SOL     OW11488   4.806   2.012   2.470 -0.0406  0.3647 -0.0712
  575SOL    HW111489   4.773   2.106   2.464 -0.2234  0.2706 -0.6148
  575SOL    HW211490   4.865   2.002   2.550 -0.7929  0.6999  0.5341
  576SOL     OW11491   2.279   9.108   0.858  0.2987 -0.2334  0.2676
  576SOL    HW111492   2.360   9.063   0.820  0.5936  0.8546 -0.3945
  576SOL    HW211493   2.270   9.199   0.819 -1.3708 -0.4283  0.1664
  577SOL     OW11494   2.782   7.399   2.229  0.3894  0.1350 -0.3205
  577SOL    HW111495   2.870   7.446   2.218 -0.5122  2.6211  2.4770
  577SOL    HW211496   2.707   7.465   2.221 -1.0951 -1.4240  0.3590
  578SOL     OW11497   3.249   3.101   0.889 -0.2498 -0.5185 -0.3695
  578SOL    HW111498   3.293   3.129   0.974 -3.2176 -1.0838  1.4533
  578SOL    HW211499   3.253   3.002   0.880 -2.2311 -0.6996  0.4923
  579SOL     OW11500   2.949   2.213   1.452  1.0441 -0.0235  0.6095
  579SOL    HW111501   2.978   2.266   1.532 -0.7355  2.1415 -0.1318
  579SOL    HW211502   2.869   2.158   1.476  1.0917 -0.1086  0.5743
  580SOL     OW11503   3.306   1.491   2.627 -0.4044 -0.7129  0.1068
  580SOL    HW111504   3.363   1.429   2.683 -2.2708 -0.7996  1.9637
  580SOL    HW211505   3.337   1.487   2.532  2.7227 -0.7363  1.0533
  581SOL     OW11506   2.732   5.796   1.983  0.4247 -0.0310 -0.3435
  581SOL    HW111507   2.671   5.873   1.964  0.4602 -0.0473 -0.5326
  581SOL    HW211508   2.770   5.762   1.896 -0.1332 -0.7092 -0.3240
  582SOL     OW11509   5.045   3.793   0.965  0.4536 -0.6687 -0.5027
  582SOL    HW111510   4.972   3.851   0.930  1.8342  1.5096  0.1568
  582SOL    HW211511   5.032   3.778   1.063  1.3324  0.4305 -0.2067
  583SOL     OW11512   2.832   6.623   2.071  0.1125  0.1258 -0.8308
  583SOL    HW111513   2.915   6.674   2.053  0.5190 -0.5951 -1.0343
  583SOL    HW211514   2.755   6.665   2.024  0.1628  1.3920  0.1979
  584SOL     OW11515   2.929   8.479   2.332 -0.7743 -0.0264 -0.2082
  584SOL    HW111516   2.882   8.506   2.416  0.4386 -2.5670  1.3344
  584SOL    HW211517   2.919   8.381   2.319 -1.3075  0.3958 -3.3035
  585SOL     OW11518   2.657   6.252   1.993  0.2373 -0.2102  0.1503
  585SOL    HW111519   2.715   6.293   2.064 -1.2716  1.2613  0.5853
  585SOL    HW211520   2.600   6.324   1.952 -0.9564 -1.5479 -0.5594
  586SOL     OW11521   4.328   3.415   0.732  0.5129  0.2984  0.0969
  586SOL    HW111522   4.300   3.392   0.639  1.3109  4.2654 -1.2198
  586SOL    HW211523   4.257   3.386   0.796 -1.2814 -0.1186 -2.0120
  587SOL     OW11524   4.066   4.598   2.327 -0.6171 -0.1596 -0.1064
  587SOL    HW111525   4.149   4.552   2.293 -0.5381  1.5280 -2.3125
  587SOL    HW211526   4.070   4.603   2.427  2.3578  0.6504 -0.2171
  588SOL     OW11527   2.384   8.106   2.089  0.3552  0.2587 -0.6790
  588SOL    HW111528   2.346   8.014   2.081  0.7512  0.0744 -0.4340
  588SOL    HW211529   2.438   8.113   2.173 -0.7913  1.1139  0.0040
  589SOL     OW11530   4.667   3.533   1.302  0.0762  0.2135 -0.1139
  589SOL    HW111531   4.620   3.465   1.359  1.1791  0.6345  1.3056
  589SOL    HW211532   4.702   3.488   1.219  1.4219 -1.1224  1.1526
  590SOL     OW11533   2.798   0.661   0.830 -0.1157 -0.5460  0.7281
  590SOL    HW111534   2.822   0.570   0.865  0.0604 -0.4718  0.7956
  590SOL    HW211535   2.701   0.662   0.806 -0.5581 -0.2190  2.4242
  591SOL     OW11536   4.118   3.162   0.776 -0.0200 -0.2394  0.1372
  591SOL    HW111537   4.180   3.138   0.850  0.3529  3.1115  0.9644
  591SOL    HW211538   4.034   3.199   0.814 -0.0908  0.9003 -1.1120
  592SOL     OW11539   3.469   2.451   1.625  0.3504  0.7365  0.5663
  592SOL    HW111540   3.536   2.380   1.647 -0.2531 -0.0394 -0.0535
  592SOL    HW211541   3.512   2.523   1.572  0.3611 -0.5216 -1.1877
  593SOL     OW11542   4.052   0.642   0.619  0.3809  0.0904 -0.1004
  593SOL    HW111543   4.127   0.691   0.662  1.0702 -0.8230 -0.2595
  593SOL    HW211544   4.088   0.574   0.555 -0.5852 -0.0419 -0.5211
  594SOL     OW11545   2.292   9.970   2.297 -0.0493  0.1440  0.3920
  594SOL    HW111546   2.337   9.921   2.223 -0.8632  0.4538 -0.3238
  594SOL    HW211547   2.352  10.044   2.329  0.2194  0.1451 -0.1030
  595SOL     OW11548   4.885   2.681   2.480  0.4191 -0.7013 -0.2885
  595SOL    HW111549   4.945   2.720   2.410  0.8005  2.9671  1.9304
  595SOL    HW211550   4.801   2.735   2.485 -1.0036 -2.8766 -0.0782
  596SOL     OW11551   3.757   4.730   0.983  0.3751  0.3476  0.0889
  596SOL    HW111552   3.812   4.700   1.061  1.7811 -2.1078 -1.7876
  596SOL    HW211553   3.816   4.771   0.914 -0.7689  1.8741 -0.0048
  597SOL     OW11554   3.791   1.151   2.315 -0.1659  0.4081  0.4191
  597SOL    HW111555   3.766   1.245   2.290 -0.9404  0.3118  0.8110
  597SOL    HW211556   3.853   1.114   2.247  1.0678  1.6139  0.8640
  598SOL     OW11557   4.064   8.999   0.564 -0.0650  0.6110  0.0404
  598SOL    HW111558   4.139   8.956   0.513 -0.4543  0.1420 -0.1424
  598SOL    HW211559   4.026   8.934   0.630 -1.2933  0.3378 -0.9056
  599SOL     OW11560   3.647   8.577   1.122 -0.0352  0.1413 -0.6124
  599SOL    HW111561   3.645   8.555   1.219 -0.8963  1.3169 -0.3552
  599SOL    HW211562   3.723   8.640   1.103 -1.2392  1.7173 -0.2945
  600SOL     OW11563   2.923   7.764   0.444  0.2833  0.0632 -0.4971
  600SOL    HW111564   2.875   7.847   0.474 -0.8103 -0.4679 -0.7639
  600SOL    HW211565   3.021   7.776   0.457  0.0478  0.9823  0.5180
  601SOL     OW11566   4.193   4.237   0.135 -0.5300 -0.1633  0.5265
  601SOL    HW111567   4.128   4.306   0.101 -1.0640  0.1176  2.0634
  601SOL    HW211568   4.278   4.282   0.162  0.0904 -0.4530 -0.8986
  602SOL     OW11569   3.925   3.957   0.748  0.5097  0.5664  0.0563
  602SOL    HW111570   4.024   3.949   0.737  0.5110 -0.8922  0.8872
  602SOL    HW211571   3.882   3.872   0.719 -0.5227  1.2592 -0.4576
  603SOL     OW11572   3.164   9.765   2.171  0.1105 -0.4398  0.4968
  603SOL    HW111573   3.237   9.811   2.220 -0.5685  0.1702  0.9451
  603SOL    HW211574   3.093   9.831   2.147 -0.3651 -1.0514  0.2002
  604SOL     OW11575   3.996   1.962   2.569  0.0302 -0.2987  0.1760
  604SOL    HW111576   3.994   1.871   2.609  0.5984  0.5181  2.1775
  604SOL    HW211577   4.091   1.989   2.553 -0.0577  0.4771  0.9208
  605SOL     OW11578   3.749   5.061   0.137 -0.0515  0.0437 -0.5948
  605SOL    HW111579   3.824   5.045   0.201 -0.7098  0.8974  0.4195
  605SOL    HW211580   3.751   4.993   0.064  1.9043  0.2680 -0.7677
  606SOL     OW11581   2.289   7.828   2.022 -0.2850  0.1899 -0.4081
  606SOL    HW111582   2.245   7.867   1.941 -0.9082 -1.0860 -0.6870
  606SOL    HW211583   2.238   7.747   2.052  0.3396  0.2532  0.8499
  607SOL     OW11584   2.622   4.165   0.532 -0.0132  0.0034 -0.1498
  607SOL    HW111585   2.686   4.241   0.540  0.4093 -0.1772 -1.7150
  607SOL    HW211586   2.558   4.167   0.610 -0.0729  2.0158 -0.2260
  608SOL     OW11587   3.471  10.050   1.362 -0.2334 -0.1945  0.3252
  608SOL    HW111588   3.496   9.969   1.416 -1.6314 -1.3003 -0.6411
  608SOL    HW211589   3.544  10.118   1.368  1.3475 -1.8566  0.5318
  609SOL     OW11590   3.197   3.547   1.015 -0.5943  0.7246 -0.1937
  609SOL    HW111591   3.112   3.568   0.966 -0.5736  2.0228  0.3141
  609SOL    HW211592   3.178   3.476   1.084 -0.5874 -1.2276 -2.1344
  610SOL     OW11593   4.545   3.798   1.700 -0.1966  0.4695  0.1836
  610SOL    HW111594   4.495   3.795   1.614  1.1916 -0.0589 -0.6302
  610SOL    HW211595   4.635   3.840   1.685  1.2047 -2.1880  0.7308
  611SOL     OW11596   3.281   9.171   1.758  0.0710  0.3160 -0.7666
  611SOL    HW111597   3.358   9.212   1.710 -0.5124  1.2153 -0.9462
  611SOL    HW211598   3.252   9.231   1.832 -1.0935  0.4657 -1.3308
  612SOL     OW11599   3.643   4.022   0.086 -0.0478  0.3746 -0.0815
  612SOL    HW111600   3.684   4.113   0.080  3.6149 -1.1583  0.5039
  612SOL    HW211601   3.657   3.973   0.000 -0.8712 -0.1211  0.0565
  613SOL     OW11602   4.065   4.323   2.549 -0.6610 -0.5529  0.4386
  613SOL    HW111603   3.982   4.272   2.527 -2.0333  1.5201  0.5859
  613SOL    HW211604   4.046   4.421   2.540  0.6754  0.1063  4.1024
  614SOL     OW11605   3.374   5.006   2.001 -0.1603  0.7024  0.8351
  614SOL    HW111606   3.418   4.930   1.954 -1.2104 -0.0585  1.0515
  614SOL    HW211607   3.341   5.072   1.934 -0.6769  0.1603  0.5466
  615SOL     OW11608   3.598   9.935   2.573  0.8753 -0.0083  0.5781
  615SOL    HW111609   3.690   9.932   2.612  0.9177 -0.0330  0.4755
  615SOL    HW211610   3.582   9.853   2.517  0.5743 -0.2921  1.0829
  616SOL     OW11611   4.328   3.736   1.443 -0.0613 -0.7703  0.0155
  616SOL    HW111612   4.334   3.676   1.363 -2.9668 -2.5781  1.0497
  616SOL    HW211613   4.287   3.823   1.416  0.4722 -0.7514 -0.7523
  617SOL     OW11614   3.565   4.048   0.803 -0.7438  0.0147  0.8770
  617SOL    HW111615   3.504   4.098   0.864  0.2319  0.1860  1.7240
  617SOL    HW211616   3.589   3.960   0.843 -0.5250 -0.1042  0.4941
  618SOL     OW11617   4.918   3.964   0.301  0.0986 -0.2143  0.0287
  618SOL    HW111618   4.840   3.985   0.242 -0.2401 -1.0626  0.1613
  618SOL    HW211619   4.941   3.866   0.292  1.5738  0.1633 -0.5279
  619SOL     OW11620   3.009   5.096   0.091 -0.7962  0.1890 -0.2939
  619SOL    HW111621   2.998   5.019   0.153 -0.2334  0.4028  0.0779
  619SOL    HW211622   3.104   5.100   0.059 -1.3895 -0.7440 -2.2623
  620SOL     OW11623   2.992   1.684   1.956  0.3614  0.0962  0.1931
  620SOL    HW111624   2.965   1.734   1.874  2.2611 -0.6319 -0.9310
  620SOL    HW211625   3.090   1.663   1.950  0.2970 -0.8299  2.1908
  621SOL     OW11626   2.785  10.233   1.528 -0.9730 -0.4067  0.1330
  621SOL    HW111627   2.707  10.193   1.480 -0.8307 -1.2281  0.5766
  621SOL    HW211628   2.837  10.160   1.573 -1.3063  0.3881  1.8371
  622SOL     OW11629   3.218   5.850   0.211  0.2642  0.1925 -0.7016
  622SOL    HW111630   3.290   5.789   0.179  1.2706  0.7309  0.5288
  622SOL    HW211631   3.239   5.944   0.184 -0.3370  0.2583 -0.9496
  623SOL     OW11632   3.867   4.155   2.487  0.1346  0.6731  0.2091
  623SOL    HW111633   3.783   4.203   2.511 -0.7200 -0.7826  0.1523
  623SOL    HW211634   3.882   4.160   2.388  0.1845  1.0255  0.2325
  624SOL     OW11635   4.452   2.467   0.374  0.6234  0.6025  0.1016
  624SOL    HW111636   4.502   2.381   0.382  2.1409  1.5569  1.3837
  624SOL    HW211637   4.512   2.535   0.330  0.4371  1.7354  1.5608
  625SOL     OW11638   3.151   0.641   1.314  0.7881 -0.2796  0.0602
  625SOL    HW111639   3.155   0.599   1.405 -0.8459 -0.6958 -0.0268
  625SOL    HW211640   3.061   0.621   1.273  1.1644  0.6871 -1.2599
  626SOL     OW11641   2.819   5.933   1.231  0.1582 -0.3996  0.0412
  626SOL    HW111642   2.784   5.878   1.307  1.9001 -1.8147 -0.1383
  626SOL    HW211643   2.916   5.955   1.248  0.2037  0.3485 -1.1615
  627SOL     OW11644   3.640   2.563   0.363  0.3562 -0.5398 -0.0724
  627SOL    HW111645   3.610   2.582   0.456  1.3931  1.3318 -0.0950
  627SOL    HW211646   3.680   2.472   0.359 -1.6484 -1.5084  0.8150
  628SOL     OW11647   2.494   0.802   0.086 -0.9091  0.3961 -0.3164
  628SOL    HW111648   2.551   0.766   0.160  2.3796  0.4439 -2.7481
  628SOL    HW211649   2.468   0.897   0.107  0.8199  0.7455  0.3076
  629SOL     OW11650   3.646   4.284   2.589 -1.0230 -0.6699  0.0060
  629SOL    HW111651   3.575   4.250   2.527 -2.0947  1.6969 -0.1239
  629SOL    HW211652   3.632   4.382   2.606  0.7214 -0.7241  2.0246
  630SOL     OW11653   4.596   2.349   0.000 -0.1854 -0.3221 -0.3145
  630SOL    HW111654   4.601   2.326  -0.097 -0.7870 -1.1225 -0.1554
  630SOL    HW211655   4.557   2.272   0.051 -0.4285  0.3226  0.4789
  631SOL     OW11656   3.401   4.600   1.293 -0.4101  0.7032 -0.8529
  631SOL    HW111657   3.367   4.507   1.311 -0.0385  0.5228 -1.0759
  631SOL    HW211658   3.381   4.625   1.199 -1.5165  1.2846 -0.4598
  632SOL     OW11659   3.321   3.426   1.390  0.3886  0.1183  0.1178
  632SOL    HW111660   3.244   3.419   1.326  1.5109  1.3300 -1.3841
  632SOL    HW211661   3.393   3.362   1.363 -0.3619 -1.6073  1.9926
  633SOL     OW11662   2.454   8.427   1.381  0.3905 -0.9901  0.1038
  633SOL    HW111663   2.526   8.495   1.394 -0.5389  0.1021 -0.3480
  633SOL    HW211664   2.392   8.429   1.460 -0.1789 -0.6304 -0.3475
  634SOL     OW11665   2.589   3.772   1.772  0.4347  0.2024  0.5399
  634SOL    HW111666   2.635   3.683   1.771  1.0194  0.5030 -0.3365
  634SOL    HW211667   2.552   3.791   1.681 -2.1909 -0.4128  1.4168
  635SOL     OW11668   3.078   9.242   0.787  0.6516  0.1287 -0.6784
  635SOL    HW111669   3.176   9.221   0.787  0.4378 -0.9219 -1.9679
  635SOL    HW211670   3.026   9.157   0.777 -0.4181  0.6006  0.6550
  636SOL     OW11671   2.800   1.027   0.027  0.0436  0.5276  0.2105
  636SOL    HW111672   2.881   1.078   0.057  0.3627 -0.0932  0.4109
  636SOL    HW211673   2.792   1.033  -0.072  2.7169 -2.8714 -0.2860
  637SOL     OW11674   3.838   4.035   1.493 -0.2367  0.3813  0.0009
  637SOL    HW111675   3.915   4.092   1.465  0.6695 -0.2112  1.2689
  637SOL    HW211676   3.801   4.067   1.580 -0.3202 -0.3761  0.2555
  638SOL     OW11677   2.799   3.959   0.239  0.2929 -0.2651 -0.4459
  638SOL    HW111678   2.892   3.993   0.253 -0.0857  0.4748  0.3887
  638SOL    HW211679   2.734   4.032   0.260 -0.4557 -0.5611 -1.7283
  639SOL     OW11680   3.268   8.582   0.837  0.0926  0.4175  0.8004
  639SOL    HW111681   3.237   8.661   0.783 -0.7361  0.0872  0.7843
  639SOL    HW211682   3.222   8.500   0.804  1.0272 -0.0864  0.7599
  640SOL     OW11683   2.732   1.415   0.900 -0.1134  0.8809 -0.6272
  640SOL    HW111684   2.634   1.424   0.913 -0.1760 -0.2922 -0.2417
  640SOL    HW211685   2.752   1.325   0.860  0.7379  1.4007 -1.3946
  641SOL     OW11686   3.555   1.500   0.813 -0.4281 -0.1963 -0.0675
  641SOL    HW111687   3.534   1.517   0.909  0.4643  0.9156 -0.0625
  641SOL    HW211688   3.630   1.434   0.807 -2.2249 -2.3312 -0.0605
  642SOL     OW11689   3.460   9.859   1.563  0.2964  0.4654  0.7241
  642SOL    HW111690   3.454   9.763   1.591 -0.9839  0.3154 -0.0097
  642SOL    HW211691   3.494   9.914   1.639  0.5331 -0.4980  1.3238
  643SOL     OW11692   3.302   7.963   0.206  0.5054  0.1777  0.3988
  643SOL    HW111693   3.248   7.954   0.122 -0.4365 -0.8463  1.0967
  643SOL    HW211694   3.261   7.906   0.277  0.8518  1.6550  1.7785
  644SOL     OW11695   2.203   8.638   2.422  0.5541 -0.2939  0.0451
  644SOL    HW111696   2.120   8.693   2.434 -0.3036 -1.6682  0.5216
  644SOL    HW211697   2.246   8.623   2.510  0.2293 -1.2288  0.0474
  645SOL     OW11698   4.180   3.238   1.658  0.1412 -0.0604  0.1698
  645SOL    HW111699   4.119   3.186   1.719  0.0263  0.1841  0.2615
  645SOL    HW211700   4.271   3.242   1.698  0.1080 -0.0470  0.2463
  646SOL     OW11701   3.485   2.635   1.890 -0.2256  0.1723 -0.2164
  646SOL    HW111702   3.464   2.678   1.978 -0.2750 -1.5942  0.6473
  646SOL    HW211703   3.580   2.655   1.865 -0.7735  2.2729 -0.7054
  647SOL     OW11704   4.048   4.226   1.708  0.0707 -0.0799 -0.0724
  647SOL    HW111705   4.038   4.283   1.790  0.2069 -0.2703  0.0777
  647SOL    HW211706   4.130   4.169   1.717 -1.0883 -1.6873  0.6405
  648SOL     OW11707   3.696   2.987   2.176  0.0825  0.1935 -0.2312
  648SOL    HW111708   3.625   3.017   2.112 -1.4497 -1.3280  0.7031
  648SOL    HW211709   3.713   2.889   2.165  2.1180  0.5625 -0.4923
  649SOL     OW11710   2.463   9.068   0.645 -0.5897 -0.0205 -0.1203
  649SOL    HW111711   2.410   9.128   0.585 -1.7184  0.0150  0.9147
  649SOL    HW211712   2.522   9.009   0.589 -1.7865 -0.1280 -1.2805
  650SOL     OW11713   3.358   4.864   1.376  0.1484 -0.1266 -0.3453
  650SOL    HW111714   3.361   4.776   1.328 -1.6258  0.2246 -1.1614
  650SOL    HW211715   3.348   4.848   1.475 -1.2969 -0.8656 -0.5897
  651SOL     OW11716   2.796   1.610   0.188  0.7481  0.1617  0.0524
  651SOL    HW111717   2.733   1.561   0.128  0.5388 -0.0753  0.4675
  651SOL    HW211718   2.848   1.545   0.244 -1.7041  0.4821  2.7982
  652SOL     OW11719   2.431   4.400   1.298 -0.4040  0.6770 -0.5065
  652SOL    HW111720   2.452   4.427   1.204 -0.2059 -1.1428 -0.9935
  652SOL    HW211721   2.347   4.445   1.328 -1.2106  0.1834 -2.0160
  653SOL     OW11722   3.985   3.582   0.887  0.3662 -0.2149  0.1147
  653SOL    HW111723   4.071   3.618   0.922 -0.3206  1.8218 -0.2094
  653SOL    HW211724   3.916   3.584   0.960 -0.0085  0.3117 -0.2489
  654SOL     OW11725   4.369   4.081   0.523 -0.3569 -0.0538 -0.4984
  654SOL    HW111726   4.324   4.067   0.435 -0.6685 -1.6190 -0.1037
  654SOL    HW211727   4.453   4.028   0.527 -0.8901 -0.8627  0.5346
  655SOL     OW11728   3.360   0.981   1.747 -0.6717 -0.5705 -0.4913
  655SOL    HW111729   3.367   0.927   1.664  0.7294  0.7514 -1.2535
  655SOL    HW211730   3.263   0.992   1.772 -0.9543 -4.0311  0.1278
  656SOL     OW11731   2.511   8.771   0.657  0.5118 -0.4989 -0.1453
  656SOL    HW111732   2.491   8.839   0.727  1.5761 -0.4357  0.1019
  656SOL    HW211733   2.518   8.680   0.699  2.6329 -0.2510  0.0664
  657SOL     OW11734   2.423   7.151   1.320 -0.5102 -0.0061  1.1253
  657SOL    HW111735   2.444   7.240   1.279  0.8155 -1.3787 -1.3045
  657SOL    HW211736   2.330   7.123   1.294 -1.1819  0.9184  2.4395
  658SOL     OW11737   3.944   1.914   1.148 -0.5274 -0.6658 -0.5418
  658SOL    HW111738   3.907   1.851   1.079 -2.3635 -0.1487 -0.0570
  658SOL    HW211739   3.900   1.895   1.236  1.6160 -1.1567  0.4474
  659SOL     OW11740   3.003   3.324   0.386  0.8630  0.4099  0.5896
  659SOL    HW111741   2.923   3.345   0.443  1.1098 -0.1328  1.1351
  659SOL    HW211742   3.001   3.227   0.360  0.8043  0.6311 -0.2438
  660SOL     OW11743   2.821   7.706   0.207  0.1318 -0.7205  0.2556
  660SOL    HW111744   2.721   7.695   0.209 -0.9828  6.5345 -1.5304
  660SOL    HW211745   2.856   7.710   0.300 -1.8631  0.4043  0.9922
  661SOL     OW11746   3.053   4.809   1.745 -0.3449 -0.5177  0.1322
  661SOL    HW111747   3.024   4.904   1.758 -0.0724 -0.5068  0.7069
  661SOL    HW211748   3.038   4.758   1.830  0.5629 -0.7100  0.1756
  662SOL     OW11749   3.064   7.274   0.928  0.3121 -0.0845 -0.0107
  662SOL    HW111750   3.000   7.198   0.936  1.0587 -0.4813  2.5185
  662SOL    HW211751   3.083   7.291   0.831 -3.0201 -0.4121 -0.7975
  663SOL     OW11752   3.435   4.638   2.531  0.5339 -0.0061 -0.7327
  663SOL    HW111753   3.338   4.660   2.540  1.1445  2.4935  0.0485
  663SOL    HW211754   3.479   4.705   2.471  2.0393 -0.3379 -0.0261
  664SOL     OW11755   2.571   9.711   2.500 -0.3721  0.6215  0.1871
  664SOL    HW111756   2.581   9.643   2.572  1.1062 -0.6924 -1.2106
  664SOL    HW211757   2.507   9.678   2.431  1.6820 -0.1859 -1.3914
  665SOL     OW11758   2.647   7.865   2.502  0.3929 -0.2374 -0.4047
  665SOL    HW111759   2.580   7.794   2.525  1.2917 -0.8864  0.2449
  665SOL    HW211760   2.727   7.823   2.459  0.0631  0.6260 -1.8971
  666SOL     OW11761   3.501   0.298   1.047 -0.8786  0.2127  0.1311
  666SOL    HW111762   3.481   0.311   0.950 -1.1529  1.6091  0.3546
  666SOL    HW211763   3.453   0.368   1.100 -0.7315 -0.5396  1.2733
  667SOL     OW11764   4.041   2.591   0.635  0.0415 -0.4760  0.1137
  667SOL    HW111765   4.107   2.636   0.574  0.6282  0.3525  1.3470
  667SOL    HW211766   3.964   2.653   0.651  0.0412 -0.5676  0.4574
  668SOL     OW11767   2.184   5.324   1.191 -0.1216 -0.2561 -0.4588
  668SOL    HW111768   2.281   5.314   1.211  0.5329  0.6159 -3.0880
  668SOL    HW211769   2.137   5.238   1.213  1.4045 -1.0554 -0.2310
  669SOL     OW11770   3.754   4.604   0.581  0.3204  0.0806  0.0801
  669SOL    HW111771   3.671   4.551   0.566 -1.4889  2.8455  0.2044
  669SOL    HW211772   3.816   4.590   0.503 -0.3103 -1.8313 -0.1033
  670SOL     OW11773   3.201  10.142   0.049 -0.5823  0.0078 -0.0359
  670SOL    HW111774   3.245  10.110  -0.035  0.3694 -2.6632  1.4315
  670SOL    HW211775   3.232  10.087   0.126 -0.0246  3.6215  2.4161
  671SOL     OW11776   3.264   9.066   1.346  0.1914 -0.7159 -0.0788
  671SOL    HW111777   3.184   9.089   1.401  0.4918 -0.6044  0.3154
  671SOL    HW211778   3.253   9.101   1.253  0.1215 -0.0371  0.1878
  672SOL     OW11779   3.015   1.200   2.167 -0.0209 -0.1326 -0.1244
  672SOL    HW111780   2.939   1.205   2.232  0.3189 -0.6527  0.3134
  672SOL    HW211781   3.096   1.244   2.206 -0.1515  0.5871 -0.6665
  673SOL     OW11782   2.568   1.463   0.023 -0.3672 -0.1545  0.9062
  673SOL    HW111783   2.485   1.518   0.031 -0.3010  0.3986 -1.8747
  673SOL    HW211784   2.582   1.437  -0.073  0.9421 -2.9461  1.7927
  674SOL     OW11785   2.764   5.570   1.151  0.1890 -0.2276 -0.1255
  674SOL    HW111786   2.830   5.609   1.087 -0.9768 -0.3788 -1.4587
  674SOL    HW211787   2.732   5.641   1.213  0.3679  0.2360 -0.5541
  675SOL     OW11788   3.601   1.382   1.415  0.0465  0.1172 -0.4519
  675SOL    HW111789   3.581   1.314   1.345  3.5346 -2.2274  0.6526
  675SOL    HW211790   3.607   1.472   1.373 -1.4324 -0.7257 -2.5445
  676SOL     OW11791   3.713   3.513   0.497  0.6542 -0.1030  0.1847
  676SOL    HW111792   3.617   3.509   0.468  0.2344  0.2258  1.5189
  676SOL    HW211793   3.769   3.457   0.434 -0.5085 -0.8809 -0.1724
  677SOL     OW11794   3.320   3.900   1.944  0.1296 -0.3009  0.1061
  677SOL    HW111795   3.285   3.993   1.933  2.5923  0.5856 -0.6085
  677SOL    HW211796   3.285   3.841   1.871 -0.4014  0.3918 -0.1933
  678SOL     OW11797   3.332  10.020   2.501 -0.0360 -0.3639  0.3697
  678SOL    HW111798   3.336   9.953   2.427  0.3230 -1.5374  1.4348
  678SOL    HW211799   3.418  10.018   2.552  0.4575  1.7762 -0.3259
  679SOL     OW11800   4.359   2.474   2.036 -0.5792  0.5128 -0.7989
  679SOL    HW111801   4.326   2.569   2.042 -1.2322  0.2396 -0.0620
  679SOL    HW211802   4.353   2.443   1.941 -0.5232  1.1543 -1.0146
  680SOL     OW11803   2.967   4.001   1.080 -0.2595  1.2750  0.1943
  680SOL    HW111804   3.030   3.934   1.117 -1.1782  0.2492 -0.0660
  680SOL    HW211805   3.018   4.074   1.035  0.7290  0.4944  0.0438
  681SOL     OW11806   3.023   9.720   2.411  0.4249 -0.3715  0.4380
  681SOL    HW111807   3.071   9.748   2.328 -0.0152  1.2318  0.7071
  681SOL    HW211808   3.073   9.752   2.492  0.4923 -1.3352  0.7955
  682SOL     OW11809   3.679   4.733   0.220 -0.0184  0.6220  0.0825
  682SOL    HW111810   3.703   4.756   0.125  1.5074  1.2766  0.5964
  682SOL    HW211811   3.729   4.651   0.248 -2.3321 -0.9988 -0.4390
  683SOL     OW11812   3.567   0.645   1.098 -0.4658  0.1104  0.6463
  683SOL    HW111813   3.490   0.604   1.147 -1.6644  0.9497 -0.4984
  683SOL    HW211814   3.556   0.629   1.000  0.1803  1.3004  0.3757
  684SOL     OW11815   4.631   3.793   1.417  0.2838 -0.2582  0.1055
  684SOL    HW111816   4.728   3.820   1.418  0.4804 -0.9894  0.4954
  684SOL    HW211817   4.623   3.697   1.390 -0.2610 -0.5254  1.2056
  685SOL     OW11818   4.373   2.911   0.685 -0.2977 -0.4252  0.9303
  685SOL    HW111819   4.423   2.834   0.725  0.9933  0.1136  0.3987
  685SOL    HW211820   4.277   2.886   0.672 -0.2679 -1.3388  2.3651
  686SOL     OW11821   3.480   8.217   0.151  0.5483 -0.1750 -0.0223
  686SOL    HW111822   3.403   8.161   0.183  1.1583 -1.6925 -1.1363
  686SOL    HW211823   3.539   8.239   0.229  0.0547 -0.7083  0.5144
  687SOL     OW11824   3.624   9.394   2.358  0.3851  0.5918 -0.6216
  687SOL    HW111825   3.681   9.475   2.369  2.6458 -0.9875 -0.3757
  687SOL    HW211826   3.645   9.350   2.271  0.6747 -0.8631  0.1642
  688SOL     OW11827   3.938   4.193   2.210 -0.3444  0.4992 -0.6228
  688SOL    HW111828   4.031   4.229   2.215  0.0110 -0.0277 -2.7930
  688SOL    HW211829   3.924   4.149   2.121 -2.0203 -1.2288  0.4503
  689SOL     OW11830   3.133   0.980   0.332 -0.4610  0.3206 -0.1933
  689SOL    HW111831   3.177   0.891   0.319  2.4296  1.5649  0.5936
  689SOL    HW211832   3.034   0.968   0.341  0.0155 -2.9149  1.1800
  690SOL     OW11833   2.647   8.627   1.837 -0.5207  0.1952 -0.7140
  690SOL    HW111834   2.601   8.589   1.756 -2.0695  0.3594  0.0722
  690SOL    HW211835   2.693   8.713   1.812 -1.7497  0.7173 -1.2305
  691SOL     OW11836   2.434   7.607   0.431 -0.2275  0.0745  0.7866
  691SOL    HW111837   2.425   7.654   0.518  3.4771  0.9036  0.8054
  691SOL    HW211838   2.478   7.518   0.446  0.2934  0.1576 -0.1938
  692SOL     OW11839   2.577   6.818   1.179  0.2773  0.3166 -0.3724
  692SOL    HW111840   2.663   6.852   1.216  0.5320  0.8483 -1.4309
  692SOL    HW211841   2.534   6.755   1.244  0.7211  1.2238  0.7986
  693SOL     OW11842   3.521   4.479   0.074  0.2992 -0.0249 -0.6538
  693SOL    HW111843   3.502   4.542  -0.002  2.8231 -0.1002 -1.3874
  693SOL    HW211844   3.549   4.532   0.154 -0.4063 -0.0550 -0.3889
  694SOL     OW11845   2.839   1.797   2.355  0.0465  0.3598  0.4902
  694SOL    HW111846   2.797   1.864   2.416  1.3037 -0.6102  2.5065
  694SOL    HW211847   2.929   1.772   2.391  1.1124  0.2297 -2.1443
  695SOL     OW11848   2.856   9.630   1.589 -0.0088  0.4895 -0.3012
  695SOL    HW111849   2.926   9.701   1.596  1.2838 -0.5683 -1.9511
  695SOL    HW211850   2.892   9.553   1.537 -2.0653 -0.5341 -0.2707
  696SOL     OW11851   4.165   2.778   2.289 -0.3778 -0.1687 -0.3904
  696SOL    HW111852   4.102   2.708   2.257 -0.1490 -0.8119  0.5615
  696SOL    HW211853   4.142   2.804   2.383  0.9823 -0.6447  0.0829
  697SOL     OW11854   3.778   9.076   2.287 -0.5774 -0.1232 -0.2687
  697SOL    HW111855   3.705   9.059   2.220 -1.3101 -2.4750  1.0719
  697SOL    HW211856   3.826   8.991   2.307  1.4957  1.1018  0.1006
  698SOL     OW11857   2.913   6.062   0.873  0.3465 -0.5414  0.1449
  698SOL    HW111858   2.870   5.995   0.932 -1.2391  0.5307  0.2233
  698SOL    HW211859   2.856   6.078   0.792  0.9340  0.3535 -0.1065
  699SOL     OW11860   3.300   2.847   0.848 -0.0416  0.3363 -0.2007
  699SOL    HW111861   3.290   2.748   0.853  1.6001  0.1178 -1.0824
  699SOL    HW211862   3.397   2.871   0.850 -0.4475  1.9659  0.6202
  700SOL     OW11863   5.013   3.716   1.218  0.0598  0.2767 -0.2081
  700SOL    HW111864   4.950   3.763   1.281  0.4251  0.4576  0.0232
  700SOL    HW211865   5.031   3.624   1.251  0.6648  0.5499  0.2366
  701SOL     OW11866   3.385   3.681   1.316  0.3846  0.0420 -0.0482
  701SOL    HW111867   3.379   3.587   1.348  1.3972  0.1935  0.6071
  701SOL    HW211868   3.462   3.690   1.252  1.9326  0.9796  1.9130
  702SOL     OW11869   3.938   4.246   0.654 -0.3893 -0.0935  0.0899
  702SOL    HW111870   3.870   4.253   0.581 -0.6612  0.2705  0.3696
  702SOL    HW211871   3.929   4.158   0.700 -1.5563  0.4606  0.9681
  703SOL     OW11872   2.482   5.746   0.971 -0.4375 -0.2803 -0.5509
  703SOL    HW111873   2.423   5.667   0.989 -2.0818  0.4998 -2.3077
  703SOL    HW211874   2.449   5.795   0.890  1.5729  1.2318 -0.5058
  704SOL     OW11875   3.828   1.340   0.759  0.2235 -0.3320 -0.0390
  704SOL    HW111876   3.887   1.399   0.814  1.1581 -1.8271  0.5891
  704SOL    HW211877   3.861   1.337   0.665  1.2029 -1.2097  0.3224
  705SOL     OW11878   2.918   2.748   0.637 -0.2461  0.0886  0.0000
  705SOL    HW111879   2.968   2.833   0.651 -0.2591 -0.1456  1.4939
  705SOL    HW211880   2.848   2.737   0.707 -1.8798  0.0152 -1.6039
  706SOL     OW11881   2.978   1.444   1.766 -0.2940 -0.3385  0.6109
  706SOL    HW111882   3.054   1.499   1.733 -0.3180 -0.8203 -0.2725
  706SOL    HW211883   2.924   1.496   1.832 -1.2617  1.2858 -1.3873
  707SOL     OW11884   2.480   7.255   1.759  0.0535  0.2598 -0.1229
  707SOL    HW111885   2.420   7.230   1.835  0.8423 -0.7493  0.1709
  707SOL    HW211886   2.502   7.352   1.766 -0.1284  0.2448  0.7607
  708SOL     OW11887   3.890   9.764   0.202 -0.7665  0.5691 -0.3730
  708SOL    HW111888   3.976   9.723   0.172 -0.3668  1.1715 -0.0767
  708SOL    HW211889   3.813   9.709   0.170 -0.2362 -0.5105  0.1746
  709SOL     OW11890   2.591   4.204   1.416 -0.2945 -0.3261  0.2520
  709SOL    HW111891   2.649   4.143   1.363 -0.5646  0.6530 -1.1969
  709SOL    HW211892   2.553   4.275   1.357 -0.0877  1.1817  1.8671
  710SOL     OW11893   3.493   4.961   1.113  0.5979 -0.3985 -0.3689
  710SOL    HW111894   3.411   4.902   1.110  1.0072 -0.9176 -1.6870
  710SOL    HW211895   3.519   4.976   1.209 -0.3307 -1.2302  0.0318
  711SOL     OW11896   2.545   7.507   1.760  0.1943  0.0044 -0.1679
  711SOL    HW111897   2.546   7.506   1.660 -0.1508 -0.6433 -0.1651
  711SOL    HW211898   2.530   7.601   1.792  1.7286  0.4455 -0.7028
  712SOL     OW11899   2.730   0.497   2.195  0.0792  0.5169 -0.0336
  712SOL    HW111900   2.685   0.582   2.222 -0.0507  0.0104  1.3523
  712SOL    HW211901   2.686   0.420   2.241  1.7938 -0.0658  0.6532
  713SOL     OW11902   2.832   8.553   1.058 -0.6820  0.0103 -0.0963
  713SOL    HW111903   2.760   8.516   0.999 -1.4168  2.2250 -0.6494
  713SOL    HW211904   2.905   8.486   1.068 -0.5674 -0.4801 -3.4887
  714SOL     OW11905   3.220   0.846   0.971 -0.6531 -0.1836  0.2039
  714SOL    HW111906   3.319   0.853   0.968 -0.7705  2.1077  0.9091
  714SOL    HW211907   3.193   0.800   1.056 -0.2700  1.3197  1.1556
  715SOL     OW11908   3.813   4.490   0.307 -0.1456 -0.5809 -0.2684
  715SOL    HW111909   3.796   4.393   0.293  0.6890 -0.6166 -1.1347
  715SOL    HW211910   3.910   4.509   0.293  0.4124 -0.2232  3.4566
  716SOL     OW11911   3.435   2.092   2.015 -0.3316  0.4721  0.1576
  716SOL    HW111912   3.478   2.149   2.085 -0.5055  0.0688  0.6011
  716SOL    HW211913   3.340   2.075   2.040 -0.9973  2.0274 -1.2264
  717SOL     OW11914   2.909   4.319   2.209 -0.2371  0.1670 -0.5965
  717SOL    HW111915   2.962   4.239   2.237 -2.7317 -1.1466  0.4697
  717SOL    HW211916   2.847   4.293   2.135 -1.4955  0.9696  0.1692
  718SOL     OW11917   3.110   4.664   1.490  0.2406  0.0477  0.0271
  718SOL    HW111918   3.078   4.712   1.571 -0.8505 -0.9272  0.1844
  718SOL    HW211919   3.206   4.684   1.475  0.0357  1.5260  0.6304
  719SOL     OW11920   4.418   4.488   1.084  0.3243 -0.3700 -0.0154
  719SOL    HW111921   4.384   4.396   1.064 -0.4407 -0.0020 -0.4486
  719SOL    HW211922   4.472   4.486   1.168  1.5654 -1.4939 -0.8113
  720SOL     OW11923   4.196   4.074   2.564  0.0964  0.1385  0.3458
  720SOL    HW111924   4.196   4.120   2.653 -0.4566  0.3449  0.2412
  720SOL    HW211925   4.137   4.124   2.501  0.9287  0.3128 -0.3049
  721SOL     OW11926   4.146   1.947   0.990 -0.9240 -0.5653 -0.3877
  721SOL    HW111927   4.104   1.990   0.910 -0.5125  2.2167  0.8098
  721SOL    HW211928   4.084   1.953   1.068 -0.1214 -0.4573  0.2543
  722SOL     OW11929   3.871   1.822   0.725 -0.5764  0.1867  0.4891
  722SOL    HW111930   3.911   1.750   0.781  0.3988  0.1795 -0.1938
  722SOL    HW211931   3.817   1.781   0.651 -1.0861  0.1773  0.8695
  723SOL     OW11932   2.997   2.336   1.690 -0.1939 -0.1786 -0.7846
  723SOL    HW111933   2.980   2.259   1.752 -0.0141  1.3824  1.2605
  723SOL    HW211934   3.090   2.370   1.704 -0.6987  1.2118 -0.7370
  724SOL     OW11935   2.508   7.124   2.426 -0.0070 -0.2627  0.0485
  724SOL    HW111936   2.536   7.095   2.517  0.6383  0.4319  0.0730
  724SOL    HW211937   2.553   7.066   2.358 -0.1780 -0.5239  0.1564
  725SOL     OW11938   3.165   4.430   2.535 -1.3227 -0.2442  0.2596
  725SOL    HW111939   3.111   4.360   2.581  0.1778 -0.9737  0.9542
  725SOL    HW211940   3.186   4.400   2.442  1.2052 -1.7925  1.2654
  726SOL     OW11941   2.407   8.175   0.805  0.1754 -0.5109  0.6542
  726SOL    HW111942   2.421   8.081   0.772  0.5028 -1.1920  2.6791
  726SOL    HW211943   2.323   8.179   0.859 -0.7245  0.7497 -0.8117
  727SOL     OW11944   2.953   4.571   1.276 -0.0082  0.3484 -0.0282
  727SOL    HW111945   2.926   4.646   1.214  1.0304  1.5023  0.8832
  727SOL    HW211946   3.003   4.609   1.354 -0.6823 -1.1675  1.1702
  728SOL     OW11947   3.811   3.615   1.079 -0.2602  0.0164 -0.2311
  728SOL    HW111948   3.784   3.710   1.096 -1.3350 -0.2475 -0.4167
  728SOL    HW211949   3.752   3.554   1.132 -0.0338 -0.5782 -0.6619
  729SOL     OW11950   3.589   0.319   2.326  0.3773 -0.4205 -0.2702
  729SOL    HW111951   3.610   0.416   2.339 -1.5578  0.0551 -0.5389
  729SOL    HW211952   3.584   0.274   2.415 -0.6810  0.1598 -0.0318
  730SOL     OW11953   4.463   1.874   1.937 -0.3079  0.1023 -0.3102
  730SOL    HW111954   4.410   1.940   1.990 -0.0423  0.0432  0.0362
  730SOL    HW211955   4.438   1.781   1.965 -0.2543  0.0685 -0.3727
  731SOL     OW11956   2.602   7.098   0.033 -0.1798  0.1283  0.1830
  731SOL    HW111957   2.596   7.193   0.062 -0.2456 -0.0982  0.9170
  731SOL    HW211958   2.649   7.044   0.103 -0.8318 -0.5328  0.1185
  732SOL     OW11959   3.682  10.229   1.306 -0.5316 -0.7781 -0.3151
  732SOL    HW111960   3.694  10.172   1.224 -1.9303  0.7553 -1.6232
  732SOL    HW211961   3.686  10.325   1.280  1.2812 -0.2492  1.8038
  733SOL     OW11962   4.019   4.328   1.949  0.4594  0.2303 -0.2013
  733SOL    HW111963   4.077   4.404   1.919  0.2574  0.8698  0.9992
  733SOL    HW211964   3.939   4.364   1.997 -0.2189 -0.7011 -0.6231
  734SOL     OW11965   2.954   1.016   1.178  0.1531 -0.1332  0.6612
  734SOL    HW111966   2.913   1.036   1.267  2.2489 -0.5777  1.7620
  734SOL    HW211967   3.029   0.950   1.190 -0.3049 -1.0956 -1.5963
  735SOL     OW11968   4.598   3.538   1.619 -0.5497  0.0117 -0.6074
  735SOL    HW111969   4.558   3.608   1.677  1.5299 -0.1606  1.1257
  735SOL    HW211970   4.639   3.580   1.539  0.7861  0.8391  0.4789
  736SOL     OW11971   2.538   8.216   1.224 -0.8108 -0.5033  0.1014
  736SOL    HW111972   2.470   8.144   1.243 -0.1699 -1.3057 -0.5827
  736SOL    HW211973   2.513   8.299   1.272 -3.4815 -0.1046 -1.8877
  737SOL     OW11974   3.777   0.925   1.927  0.2903  0.0092  0.0018
  737SOL    HW111975   3.692   0.875   1.944 -0.4142  1.5383  1.0900
  737SOL    HW211976   3.800   0.920   1.830 -0.6591 -1.0053 -0.1787
  738SOL     OW11977   3.355   7.536   0.257 -0.1749 -0.0315  0.0284
  738SOL    HW111978   3.318   7.559   0.168  1.8145 -2.1226 -1.4067
  738SOL    HW211979   3.449   7.502   0.246 -0.2324 -1.2065  2.8111
  739SOL     OW11980   3.244   2.522   0.868  1.1723 -0.0048  0.3377
  739SOL    HW111981   3.212   2.472   0.786  1.0064 -1.2904  1.1669
  739SOL    HW211982   3.182   2.503   0.944 -0.2318  3.3781  0.0860
  740SOL     OW11983   4.138   3.814   2.567  0.0722 -0.1305 -0.8112
  740SOL    HW111984   4.141   3.912   2.552  1.2843  0.3566  2.2428
  740SOL    HW211985   4.231   3.776   2.558 -0.2555 -0.8747 -1.1145
  741SOL     OW11986   2.326   7.846   1.463 -0.3790 -0.5815  0.1376
  741SOL    HW111987   2.399   7.898   1.508  0.1210  0.8828 -2.2631
  741SOL    HW211988   2.288   7.779   1.527  0.2678  1.4269  2.7129
  742SOL     OW11989   3.260   8.896   1.791 -0.1271 -0.4408 -0.3674
  742SOL    HW111990   3.160   8.885   1.796 -0.2310  0.1410 -1.0392
  742SOL    HW211991   3.282   8.994   1.793  0.3309 -0.4950 -1.9173
  743SOL     OW11992   3.574  10.085   1.723 -0.1371  0.6624 -0.5012
  743SOL    HW111993   3.494  10.136   1.694 -0.8251 -1.4842 -2.5549
  743SOL    HW211994   3.653  10.113   1.669 -0.5077 -0.4119 -1.6066
  744SOL     OW11995   5.044   4.197   0.230  0.4221  0.0987  0.0719
  744SOL    HW111996   4.999   4.122   0.279 -0.3069  0.9155  0.6616
  744SOL    HW211997   5.047   4.278   0.289  0.6005  0.7400 -0.8146
  745SOL     OW11998   3.708  10.188   0.304  0.6050  0.1780 -0.5336
  745SOL    HW111999   3.647  10.120   0.343  2.0493 -0.8442  0.0058
  745SOL    HW212000   3.775  10.215   0.373 -0.0121  2.2218 -0.7122
  746SOL     OW12001   3.288   5.081   0.003  0.3988  0.5600  0.3683
  746SOL    HW112002   3.294   5.058  -0.094 -1.3463 -1.6352  0.7516
  746SOL    HW212003   3.371   5.129   0.031  2.0032 -0.9765 -1.6354
  747SOL     OW12004   4.548   2.363   2.202  0.2477 -0.2483  0.0270
  747SOL    HW112005   4.489   2.398   2.129 -0.9696  1.1916  1.6512
  747SOL    HW212006   4.494   2.355   2.287  2.3943  1.0981  1.5588
  748SOL     OW12007   3.388   0.850   0.036 -0.3909 -0.3091 -0.2667
  748SOL    HW112008   3.431   0.780  -0.019  0.2902  0.0882 -0.2420
  748SOL    HW212009   3.423   0.846   0.130  0.8294  1.0732 -0.6478
  749SOL     OW12010   2.603   8.995   1.151 -0.1169 -0.2632  0.2187
  749SOL    HW112011   2.614   8.916   1.091  0.0428 -1.7587  2.1420
  749SOL    HW212012   2.509   8.998   1.185  0.1833 -0.3226  1.0701
  750SOL     OW12013   2.250   8.245   0.023 -0.1367  0.2667 -0.0707
  750SOL    HW112014   2.276   8.288   0.110 -1.0286  0.3394  0.1711
  750SOL    HW212015   2.261   8.311  -0.051 -2.2453  1.2063  0.4037
  751SOL     OW12016   3.206  10.004   1.475 -0.3344 -0.4521 -0.0312
  751SOL    HW112017   3.166   9.914   1.491 -1.1479 -0.5921 -2.6676
  751SOL    HW212018   3.288   9.995   1.419  1.0845  0.2518  1.8414
  752SOL     OW12019   3.467   3.916   2.466 -0.1965 -0.7382 -0.0526
  752SOL    HW112020   3.398   3.970   2.515  0.5084 -0.0323  0.1803
  752SOL    HW212021   3.448   3.918   2.368  0.8613  1.4917 -0.2432
  753SOL     OW12022   3.596   8.902   1.800  0.0141 -0.1341 -0.1907
  753SOL    HW112023   3.628   8.997   1.808  0.7500 -0.5084  1.4806
  753SOL    HW212024   3.497   8.902   1.790  0.0585  0.8339 -0.7815
  754SOL     OW12025   2.366   9.109   0.049  0.3293  0.5992 -0.3075
  754SOL    HW112026   2.387   9.170   0.125  1.0629  0.8478 -0.6978
  754SOL    HW212027   2.281   9.138   0.005 -0.3078  0.2141  0.6539
  755SOL     OW12028   4.467   3.311   1.689 -0.0019 -0.2749  0.3204
  755SOL    HW112029   4.539   3.242   1.695  0.3171  0.0955  0.7644
  755SOL    HW212030   4.509   3.402   1.677 -0.4146 -0.1420 -0.1425
  756SOL     OW12031   3.739   0.529   1.639  0.2648 -0.0183  0.2572
  756SOL    HW112032   3.805   0.454   1.631 -1.1740 -1.4134  0.9862
  756SOL    HW212033   3.733   0.558   1.735  0.5861  0.8261  0.0255
  757SOL     OW12034   4.796   3.953   1.683  0.4587  0.0481  0.3376
  757SOL    HW112035   4.721   4.017   1.665  1.1077  0.4829 -0.9284
  757SOL    HW212036   4.832   3.969   1.775 -0.1895  0.6753  0.4893
  758SOL     OW12037   2.796   1.957   2.045 -0.5101 -0.1602 -0.5862
  758SOL    HW112038   2.765   1.913   1.961 -1.0887 -0.6696 -0.1108
  758SOL    HW212039   2.759   1.908   2.124  0.1138  0.2506 -0.0323
  759SOL     OW12040   3.665   4.029   1.172 -0.2531 -0.2021 -0.1117
  759SOL    HW112041   3.580   4.031   1.120  0.9299 -0.6272 -2.1296
  759SOL    HW212042   3.743   4.033   1.109  1.2308  0.3310  1.6981
  760SOL     OW12043   3.881  10.037   2.532  0.1634 -0.1911 -0.2720
  760SOL    HW112044   3.873  10.021   2.630 -0.6646 -1.8429 -0.5731
  760SOL    HW212045   3.922  10.126   2.515 -2.4639  1.4426  1.5774
  761SOL     OW12046   3.323  10.195   1.620  0.3499  0.0450 -0.4207
  761SOL    HW112047   3.379  10.259   1.568 -1.3224  2.7281  0.9519
  761SOL    HW212048   3.269  10.139   1.556  0.6694  1.0905 -1.6380
  762SOL     OW12049   4.489   3.343   1.404 -1.2588 -1.1181 -0.2405
  762SOL    HW112050   4.450   3.424   1.360 -0.5038 -0.9734 -0.6668
  762SOL    HW212051   4.450   3.332   1.495 -2.1871 -0.9116 -0.6056
  763SOL     OW12052   2.620   5.267   2.087 -0.0793  0.2921 -0.0941
  763SOL    HW112053   2.679   5.268   2.006 -0.8201 -0.2369 -0.6455
  763SOL    HW212054   2.577   5.357   2.097  1.0514  0.7838  0.4930
  764SOL     OW12055   2.946   4.155   1.759  0.6647  0.6204 -0.5298
  764SOL    HW112056   2.917   4.249   1.781 -0.5225  0.1465 -0.0294
  764SOL    HW212057   2.872   4.092   1.782  1.9143 -0.5686  0.2545
  765SOL     OW12058   2.425   8.588   1.648 -0.1084  0.1356  0.4388
  765SOL    HW112059   2.332   8.554   1.638 -0.4311  0.9128  0.7450
  765SOL    HW212060   2.436   8.671   1.593  0.9417 -0.9749 -1.0489
  766SOL     OW12061   4.008   2.518   0.057  0.9563 -0.0089 -0.5017
  766SOL    HW112062   3.960   2.430   0.068  0.8486  0.0923 -0.1510
  766SOL    HW212063   3.961   2.588   0.111  1.1751  0.2136 -0.6017
  767SOL     OW12064   3.484   0.361   1.474 -0.5090 -0.2050  0.0560
  767SOL    HW112065   3.521   0.450   1.502 -0.4442 -0.5089  0.9387
  767SOL    HW212066   3.559   0.302   1.443 -0.6073  0.2140 -1.0217
  768SOL     OW12067   2.930   1.024   1.483  0.6621  0.1501  0.2484
  768SOL    HW112068   2.852   1.070   1.524  0.1935  0.5585 -1.0611
  768SOL    HW212069   2.931   0.928   1.509  0.0869  0.2889  0.7868
  769SOL     OW12070   2.252   7.316   0.972 -0.1538  0.2382  0.1534
  769SOL    HW112071   2.287   7.254   0.901 -1.3704  0.1483 -0.3838
  769SOL    HW212072   2.156   7.295   0.990 -0.2057  1.1035  0.9132
  770SOL     OW12073   4.868   2.392   0.031  0.0515  0.0039  0.0334
  770SOL    HW112074   4.896   2.381  -0.064  1.1364  1.0192  0.2302
  770SOL    HW212075   4.770   2.414   0.034 -0.0657 -0.3743 -0.8202
  771SOL     OW12076   3.994   3.445   1.687  0.0588 -0.4962 -0.4088
  771SOL    HW112077   4.076   3.389   1.674 -0.8608 -1.7293 -1.0565
  771SOL    HW212078   3.948   3.417   1.771 -0.2189 -0.4801 -0.5549
  772SOL     OW12079   3.492   2.832   1.070  0.6693 -0.0065  0.6824
  772SOL    HW112080   3.548   2.903   1.028 -2.0555  1.5203 -0.5191
  772SOL    HW212081   3.499   2.748   1.015 -0.6954  1.1451 -1.2988
  773SOL     OW12082   2.641   0.763   2.540 -0.3604 -0.4875  0.4172
  773SOL    HW112083   2.579   0.795   2.612 -0.7293  1.0057 -0.5340
  773SOL    HW212084   2.654   0.836   2.473  1.1363 -1.3623 -0.2639
  774SOL     OW12085   3.944   2.463   1.833 -0.0219  0.4296 -0.2326
  774SOL    HW112086   3.983   2.408   1.759 -0.8376  0.3779 -0.6254
  774SOL    HW212087   3.989   2.439   1.919  3.4243  2.9159 -1.1991
  775SOL     OW12088   3.861   0.839   0.551 -0.6960 -0.0055 -0.2889
  775SOL    HW112089   3.918   0.764   0.583 -1.5557 -0.5152  0.0613
  775SOL    HW212090   3.904   0.926   0.574 -1.0694 -0.3639  1.8482
  776SOL     OW12091   2.444   7.671   0.722  0.2887 -0.8957  0.5866
  776SOL    HW112092   2.402   7.585   0.692 -1.8673  0.0710  0.7581
  776SOL    HW212093   2.424   7.686   0.819 -0.9366  0.6682  0.1268
  777SOL     OW12094   4.293   2.199   0.695 -0.3836 -0.5797  0.0163
  777SOL    HW112095   4.237   2.165   0.620  1.1519 -0.8227 -1.0264
  777SOL    HW212096   4.290   2.133   0.771  1.1456 -2.2281 -1.3141
  778SOL     OW12097   3.055   4.207   2.642  0.0475 -0.6903  0.4060
  778SOL    HW112098   3.041   4.132   2.577 -1.1284  0.9067 -1.2085
  778SOL    HW212099   3.045   4.171   2.735  0.0631 -2.6533 -0.3108
  779SOL     OW12100   3.406   1.991   0.970  0.4508 -0.0398  0.4594
  779SOL    HW112101   3.347   1.949   0.901 -1.0157  0.3158  1.4818
  779SOL    HW212102   3.403   2.091   0.959  0.1146  0.0209  1.1191
  780SOL     OW12103   3.237   3.656   0.679  0.0741  0.4105  0.6026
  780SOL    HW112104   3.189   3.653   0.592  1.8676  2.2945 -0.4723
  780SOL    HW212105   3.188   3.600   0.746 -4.1006  2.9549 -0.1747
  781SOL     OW12106   3.843   0.933   1.683  0.3506  0.0042  0.2414
  781SOL    HW112107   3.917   0.977   1.632 -0.3255  1.1742  0.2492
  781SOL    HW212108   3.759   0.938   1.630 -0.2816  0.9296  1.3018
  782SOL     OW12109   3.525   3.269   0.240  0.2433 -0.1862  0.6593
  782SOL    HW112110   3.431   3.269   0.275  0.1650 -0.2917  0.4495
  782SOL    HW212111   3.553   3.175   0.222  0.3976 -0.1553  0.7467
  783SOL     OW12112   2.498   6.311   0.646  1.2137 -0.2462  0.1674
  783SOL    HW112113   2.568   6.383   0.652  2.6703 -1.5470 -0.6453
  783SOL    HW212114   2.533   6.228   0.690 -0.6699 -0.3057  1.5945
  784SOL     OW12115   2.800   8.337   0.554 -0.5985 -0.4514 -0.1836
  784SOL    HW112116   2.840   8.325   0.644 -1.1766 -0.1258  0.1165
  784SOL    HW212117   2.704   8.310   0.556 -1.2211  1.7390 -0.1377
  785SOL     OW12118   2.433   8.894   2.561 -0.6304  0.1322 -0.4396
  785SOL    HW112119   2.393   8.950   2.633  1.3560  1.7208 -0.4945
  785SOL    HW212120   2.518   8.852   2.594  0.0488  0.4951 -1.6705
  786SOL     OW12121   2.635   6.351   0.308  0.5478  0.0507 -0.2449
  786SOL    HW112122   2.720   6.362   0.359 -0.9700  2.4764  1.8467
  786SOL    HW212123   2.598   6.260   0.325  2.0973 -0.6109 -0.2622
  787SOL     OW12124   2.771   5.723   1.734 -0.3660  0.1905 -0.6842
  787SOL    HW112125   2.742   5.806   1.686  1.3980  0.7221 -0.8319
  787SOL    HW212126   2.849   5.683   1.687 -1.2221 -1.5856 -0.6218
  788SOL     OW12127   4.645   2.614   0.088  0.5377 -0.6987 -0.4246
  788SOL    HW112128   4.610   2.526   0.058  1.6221 -0.6540 -1.9049
  788SOL    HW212129   4.582   2.687   0.058 -0.3967 -0.9619  0.8683
  789SOL     OW12130   4.019   2.968   1.278  0.3089  0.1842 -0.3620
  789SOL    HW112131   4.052   3.040   1.339  1.7344 -0.6295 -0.1417
  789SOL    HW212132   3.973   2.898   1.332 -0.7937  0.7638 -0.5392
  790SOL     OW12133   4.435   3.433   1.993  0.6194 -0.5357  0.7965
  790SOL    HW112134   4.482   3.475   2.071  0.9999 -2.5403  1.6808
  790SOL    HW212135   4.462   3.337   1.986 -0.9403 -0.8899 -0.6227
  791SOL     OW12136   3.594   8.432   2.371 -0.1003  0.3762 -0.3779
  791SOL    HW112137   3.673   8.492   2.353  0.1552 -0.1862 -1.1810
  791SOL    HW212138   3.539   8.424   2.287 -1.4459  1.3738  0.3896
  792SOL     OW12139   4.032   2.133   2.223  0.1845 -1.0249  0.1713
  792SOL    HW112140   4.035   2.067   2.299  1.0685  0.1943  1.1970
  792SOL    HW212141   3.937   2.160   2.207 -0.0241 -1.4057  0.7430
  793SOL     OW12142   3.733   4.513   1.395  0.3806  0.4024 -0.1182
  793SOL    HW112143   3.795   4.514   1.473 -0.6786 -0.6881  0.7699
  793SOL    HW212144   3.717   4.418   1.367 -0.0861  0.7305 -0.9943
  794SOL     OW12145   3.083   7.576   1.592 -0.1679  0.1851  0.4283
  794SOL    HW112146   3.044   7.486   1.613 -0.7706  0.8099  2.1201
  794SOL    HW212147   3.139   7.570   1.510 -1.1695 -1.4722 -0.1606
  795SOL     OW12148   3.517   2.370   2.096  0.4462 -0.6031  0.5098
  795SOL    HW112149   3.501   2.420   2.010  0.3761  0.9443  1.4036
  795SOL    HW212150   3.429   2.346   2.137  0.4610  0.6391  1.2761
  796SOL     OW12151   3.197   0.702   0.266  0.1755 -0.7776  0.7060
  796SOL    HW112152   3.234   0.609   0.264  0.2298 -0.7318 -2.0385
  796SOL    HW212153   3.113   0.704   0.321 -0.9576 -2.9225 -0.8745
  797SOL     OW12154   4.032   1.737   0.300 -0.1734  0.6020  0.4272
  797SOL    HW112155   4.010   1.725   0.203 -0.1916 -0.0277  0.5057
  797SOL    HW212156   3.970   1.805   0.340  0.5718  1.7027 -0.2605
  798SOL     OW12157   3.466   1.178   0.334  0.7673  0.1259 -0.1821
  798SOL    HW112158   3.469   1.250   0.404  1.8878  0.5136 -0.6181
  798SOL    HW212159   3.544   1.117   0.345  1.7989  1.0793 -2.0216
  799SOL     OW12160   2.310   8.588  -0.004 -0.0426 -0.0239 -0.7714
  799SOL    HW112161   2.301   8.515   0.063  0.4148  0.7910  0.1942
  799SOL    HW212162   2.372   8.658   0.031  0.3293  0.3365 -2.1150
  800SOL     OW12163   2.620   3.772   1.499  0.4689 -0.5296 -0.1375
  800SOL    HW112164   2.599   3.854   1.446  0.2053 -0.0124  0.7548
  800SOL    HW212165   2.719   3.760   1.504  0.5576  0.3804  0.6656
  801SOL     OW12166   2.310   5.528   1.017  0.1560  0.2157 -0.2226
  801SOL    HW112167   2.267   5.465   1.080 -0.4950  0.5548 -0.3199
  801SOL    HW212168   2.257   5.532   0.932  1.4884 -0.8894 -1.1338
  802SOL     OW12169   4.077   2.914   0.679 -0.0386 -0.1509 -0.1120
  802SOL    HW112170   4.099   3.007   0.710 -2.8831  1.0226 -1.3817
  802SOL    HW212171   4.077   2.851   0.756  0.2436  1.2544  1.0484
  803SOL     OW12172   2.235   9.170   0.488  0.2155 -0.0959 -0.3950
  803SOL    HW112173   2.158   9.109   0.508  1.2099 -0.8525  1.2332
  803SOL    HW212174   2.224   9.255   0.540  0.2849 -0.0551 -0.4490
  804SOL     OW12175   3.913   4.877   0.820 -0.0644 -0.0611 -0.0335
  804SOL    HW112176   3.910   4.976   0.830 -1.3347 -0.1519  0.6293
  804SOL    HW212177   3.954   4.854   0.732  1.0250  1.0250  0.1759
  805SOL     OW12178   3.265   4.042   2.572 -0.0616 -0.4859 -0.3462
  805SOL    HW112179   3.252   4.134   2.610 -0.3830  0.5428 -2.8431
  805SOL    HW212180   3.187   3.984   2.598 -1.3491  0.8117 -1.2488
  806SOL     OW12181   2.574   6.861   0.285  0.1148 -0.2134  0.8081
  806SOL    HW112182   2.492   6.917   0.284  0.0765 -0.2731  0.0599
  806SOL    HW212183   2.553   6.771   0.322  0.1305  0.1996  1.8202
  807SOL     OW12184   2.276   0.312   0.470 -0.4045 -0.0410  0.2351
  807SOL    HW112185   2.180   0.333   0.485  0.1620  1.7319  1.5464
  807SOL    HW212186   2.293   0.215   0.492 -1.2926  0.3971  3.0898
  808SOL     OW12187   3.026   3.878   2.569 -0.1448 -0.1887 -0.5745
  808SOL    HW112188   2.971   3.855   2.649  0.2838 -1.1609 -0.5522
  808SOL    HW212189   3.071   3.796   2.535  0.4509  0.4043 -1.2319
  809SOL     OW12190   3.010   9.504   0.744 -0.7385 -0.2194 -0.2424
  809SOL    HW112191   3.033   9.407   0.730 -0.7467 -0.3673  0.7483
  809SOL    HW212192   3.086   9.550   0.788 -1.1517 -0.0176  0.2662
  810SOL     OW12193   4.224   4.270   0.617 -0.6286 -0.3075  0.3142
  810SOL    HW112194   4.281   4.200   0.575 -0.4705  0.3107 -0.5190
  810SOL    HW212195   4.137   4.230   0.645 -0.2437 -0.9983  0.5497
  811SOL     OW12196   2.439   6.600   2.297  0.2814 -0.1035  0.1150
  811SOL    HW112197   2.455   6.698   2.310 -1.5343  0.3546 -0.9671
  811SOL    HW212198   2.385   6.564   2.374 -0.7172  0.1762 -0.4446
  812SOL     OW12199   2.589   4.714   1.415 -0.0391 -0.0745  0.0490
  812SOL    HW112200   2.666   4.775   1.435 -0.5691  0.8022 -0.5118
  812SOL    HW212201   2.564   4.663   1.497 -0.8388  1.9087  1.0973
  813SOL     OW12202   2.629  10.165   1.771  0.0519 -0.2375 -0.5249
  813SOL    HW112203   2.583  10.101   1.833 -0.0252 -0.5560 -0.9135
  813SOL    HW212204   2.672  10.115   1.696  1.0475  0.0650 -0.1552
  814SOL     OW12205   2.628   0.956   2.317 -0.1892 -0.6211  0.1437
  814SOL    HW112206   2.589   0.874   2.276 -0.3584  0.3785 -1.7366
  814SOL    HW212207   2.560   1.029   2.317  0.2479 -0.2104  0.9776
  815SOL     OW12208   2.391   9.646   2.306  0.3013  0.1046 -0.5727
  815SOL    HW112209   2.305   9.609   2.341  1.2751 -1.1599  0.4751
  815SOL    HW212210   2.436   9.578   2.249  2.5275 -0.6841  2.0677
  816SOL     OW12211   3.325   8.472   1.553 -0.0965 -0.0203  0.1214
  816SOL    HW112212   3.360   8.401   1.615 -1.0171  0.2722  1.0066
  816SOL    HW212213   3.281   8.428   1.475 -0.1452 -0.4328  0.3734
  817SOL     OW12214   2.685   0.359   0.839  0.3533 -0.5581  0.3618
  817SOL    HW112215   2.649   0.267   0.821  0.3162 -0.9120  2.2035
  817SOL    HW212216   2.781   0.352   0.866  1.0570  0.1657 -1.8224
  818SOL     OW12217   3.123   9.767   1.597  0.0949 -0.2727  0.5861
  818SOL    HW112218   3.122   9.772   1.697  1.7925  1.5234  0.5673
  818SOL    HW212219   3.132   9.672   1.568 -0.5680 -0.8287  2.1411
  819SOL     OW12220   2.723   3.375   1.075  0.2550 -0.1543 -0.6626
  819SOL    HW112221   2.715   3.277   1.062 -0.6770 -0.1479 -0.1575
  819SOL    HW212222   2.786   3.395   1.150 -0.2450 -0.3850 -0.1849
  820SOL     OW12223   2.701   2.046   1.490  0.6504  0.3933  0.8880
  820SOL    HW112224   2.741   1.969   1.441  2.6155  1.1268  1.3044
  820SOL    HW212225   2.650   2.103   1.425 -0.0453 -0.7282  0.4207
  821SOL     OW12226   3.763   0.840   0.156  0.0937  0.2185  0.4432
  821SOL    HW112227   3.708   0.773   0.106  0.3052  1.2713 -1.2552
  821SOL    HW212228   3.848   0.856   0.106 -0.0596  1.9141  0.7054
  822SOL     OW12229   3.074   3.138   1.769  0.4232 -0.2986  0.0358
  822SOL    HW112230   3.120   3.081   1.837 -1.3995 -1.7827  0.0566
  822SOL    HW212231   3.134   3.150   1.690  0.7090 -2.5768 -0.1310
  823SOL     OW12232   2.902   7.013  -0.007 -0.0874  0.1171  0.1318
  823SOL    HW112233   2.979   7.040  -0.065  1.3651  0.8024  2.3239
  823SOL    HW212234   2.903   7.067   0.077 -3.7548  1.0771 -0.3464
  824SOL     OW12235   3.837   3.100   1.124 -0.0997  0.1928 -0.0951
  824SOL    HW112236   3.914   3.041   1.146 -1.1985 -1.5068 -0.6107
  824SOL    HW212237   3.854   3.146   1.037  0.8685  0.8072  0.4176
  825SOL     OW12238   4.605   2.937   1.105 -0.1166 -0.4024  0.2585
  825SOL    HW112239   4.569   3.028   1.126  0.2045 -0.1538 -0.2684
  825SOL    HW212240   4.628   2.932   1.008 -2.1082 -1.7222 -0.1823
  826SOL     OW12241   2.625   9.636   1.744  0.0176  0.2558  0.2501
  826SOL    HW112242   2.714   9.639   1.698 -0.6632  1.0570 -1.0373
  826SOL    HW212243   2.592   9.541   1.746 -0.3207  0.3168 -1.6612
  827SOL     OW12244   4.127   2.854   1.052  0.4508 -0.5735 -0.7207
  827SOL    HW112245   4.098   2.924   1.117  1.5994  0.3391 -1.1624
  827SOL    HW212246   4.219   2.822   1.075  0.1164 -1.6200 -0.7900
  828SOL     OW12247   3.550   1.605   0.260  0.2555  0.1316  0.2058
  828SOL    HW112248   3.595   1.591   0.172  0.6673  0.3619  0.3806
  828SOL    HW212249   3.592   1.545   0.329 -1.4927 -1.6490 -0.2313
  829SOL     OW12250   3.506   8.792   2.296 -0.0249 -0.4445  0.3087
  829SOL    HW112251   3.534   8.767   2.389 -0.0200 -0.0357  0.4151
  829SOL    HW212252   3.468   8.711   2.250  0.7143 -0.8453  0.3918
  830SOL     OW12253   4.381   2.703   2.458 -0.1088 -0.0136  0.2645
  830SOL    HW112254   4.470   2.684   2.416  1.1579  1.3066  2.2819
  830SOL    HW212255   4.321   2.745   2.390  1.4297  0.8070 -0.6129
  831SOL     OW12256   3.723   3.801   1.572  0.2459  0.4497  0.4066
  831SOL    HW112257   3.771   3.885   1.548  1.2049 -0.3808 -0.6144
  831SOL    HW212258   3.652   3.821   1.640  0.1792  2.1435 -0.1514
  832SOL     OW12259   3.183   8.204   0.058  0.1027  0.5016  0.3385
  832SOL    HW112260   3.145   8.278   0.113  1.3374  0.0862  1.7929
  832SOL    HW212261   3.269   8.234   0.016 -0.8254  0.8093 -1.3702
  833SOL     OW12262   3.289   5.396   0.964 -0.7405  0.1037 -0.0146
  833SOL    HW112263   3.377   5.434   0.937 -0.7348  0.4891  0.5478
  833SOL    HW212264   3.273   5.311   0.913  0.0041 -0.0285 -0.0436
  834SOL     OW12265   2.883  10.021   0.859  0.3176  0.0781  0.4276
  834SOL    HW112266   2.925   9.934   0.834  0.0908  0.1053 -0.0541
  834SOL    HW212267   2.943  10.096   0.831 -0.5102  0.1541 -1.1863
  835SOL     OW12268   2.936   8.989   0.796  0.3003 -0.3489  0.1096
  835SOL    HW112269   2.883   8.956   0.718 -1.3540  2.2042  0.1274
  835SOL    HW212270   2.963   8.910   0.852 -0.9814 -1.9522 -1.4416
  836SOL     OW12271   2.611   7.931   0.931 -0.0171  0.5085  0.0613
  836SOL    HW112272   2.634   7.967   0.841  0.6122  0.2714  0.1262
  836SOL    HW212273   2.651   7.990   1.002 -0.7996  0.8902  0.1941
  837SOL     OW12274   2.723   0.433   1.853  0.6404 -0.4804 -0.0727
  837SOL    HW112275   2.688   0.344   1.822  2.4623 -1.1852 -0.1779
  837SOL    HW212276   2.700   0.447   1.949  0.4000 -1.1098 -0.0385
  838SOL     OW12277   2.216   9.518   0.009 -0.0798  0.5857  0.1316
  838SOL    HW112278   2.253   9.605  -0.023 -1.3032  1.8197  1.9920
  838SOL    HW212279   2.208   9.520   0.108  2.6215 -2.7688  0.4918
  839SOL     OW12280   4.120   2.118   1.769  0.4041 -0.2742  0.3563
  839SOL    HW112281   4.207   2.166   1.780  1.9672 -2.5619 -1.4789
  839SOL    HW212282   4.119   2.038   1.829  0.3661 -1.2800 -0.9620
  840SOL     OW12283   2.295   9.060   1.513 -0.2685 -0.5615 -0.2714
  840SOL    HW112284   2.229   9.016   1.573  0.0992  0.2181  0.7127
  840SOL    HW212285   2.271   9.157   1.503  0.4136 -0.4009 -0.3473
  841SOL     OW12286   2.457   6.866   2.202  0.2212 -0.0179  0.2083
  841SOL    HW112287   2.389   6.925   2.160  0.7823  0.7266  0.3395
  841SOL    HW212288   2.549   6.894   2.174  0.6914  1.3682  2.9487
  842SOL     OW12289   3.410   0.745   2.243  0.2264 -0.2679 -0.7952
  842SOL    HW112290   3.377   0.826   2.293  0.2085  0.1159 -1.4267
  842SOL    HW212291   3.359   0.665   2.273  1.1234 -0.2818  0.7853
  843SOL     OW12292   2.584   8.460   2.390  0.2410 -0.3854 -0.4430
  843SOL    HW112293   2.499   8.422   2.425  0.2133 -0.6931 -0.8459
  843SOL    HW212294   2.615   8.408   2.311  0.4088  0.1810 -0.7587
  844SOL     OW12295   2.434   5.081   2.044  0.0436  0.1904  0.1135
  844SOL    HW112296   2.509   5.144   2.062 -0.8430  0.9091  1.3395
  844SOL    HW212297   2.403   5.039   2.129  0.0611 -1.2840 -0.5724
  845SOL     OW12298   3.747   8.636   1.384  0.0306  0.3393 -0.1472
  845SOL    HW112299   3.792   8.712   1.336  0.7201 -0.1160 -0.2359
  845SOL    HW212300   3.726   8.663   1.477 -1.7449  1.3940 -0.8471
  846SOL     OW12301   2.734   9.490   0.748 -0.1084  0.1846 -0.4131
  846SOL    HW112302   2.722   9.391   0.761  1.6955  0.2295  1.9877
  846SOL    HW212303   2.831   9.512   0.740 -0.4920  1.7737 -0.9648
  847SOL     OW12304   3.057  10.017   2.282  0.0622  0.6949 -0.5716
  847SOL    HW112305   3.004  10.087   2.233  0.1377  1.0349 -0.1714
  847SOL    HW212306   3.077  10.050   2.374  2.4376  1.2948 -1.2829
  848SOL     OW12307   3.089   4.976   2.116  0.2927 -0.1028 -0.2920
  848SOL    HW112308   3.007   5.033   2.113  0.4013  0.1231  0.9486
  848SOL    HW212309   3.161   5.019   2.061  0.3018  0.8535  0.4514
  849SOL     OW12310   3.560   8.860   1.188 -0.0555 -0.2386 -0.3920
  849SOL    HW112311   3.542   8.865   1.286 -0.8065  1.7478 -0.6164
  849SOL    HW212312   3.503   8.788   1.147  0.1818 -0.9944  0.6118
  850SOL     OW12313   3.734  10.118   1.065  0.4205  0.2158 -0.1092
  850SOL    HW112314   3.818  10.161   1.033  0.1800 -0.3911 -1.5750
  850SOL    HW212315   3.655  10.167   1.027  0.1466 -1.3691 -1.6473
  851SOL     OW12316   2.778   8.562   2.529  0.1238 -0.0926 -0.5285
  851SOL    HW112317   2.764   8.661   2.518 -0.4933 -0.3302 -1.9599
  851SOL    HW212318   2.700   8.513   2.488 -0.5026 -1.1220  1.8128
  852SOL     OW12319   2.358   8.024   1.255  0.0687  0.1593  0.0983
  852SOL    HW112320   2.321   7.992   1.168 -0.1680  0.4063  0.1069
  852SOL    HW212321   2.354   7.950   1.322 -0.6844  0.2683  0.1814
  853SOL     OW12322   3.823   3.308   1.538 -0.1788 -0.1656 -0.3160
  853SOL    HW112323   3.880   3.364   1.599  0.7622 -0.1360 -1.2039
  853SOL    HW212324   3.726   3.326   1.557  0.1135  1.2869 -0.1474
  854SOL     OW12325   2.580   7.580   2.155  0.2639 -0.0248 -0.0005
  854SOL    HW112326   2.648   7.628   2.210 -1.3305  1.7595  0.4421
  854SOL    HW212327   2.515   7.645   2.117 -0.2753 -1.5349 -1.7610
  855SOL     OW12328   3.077   1.837   0.414 -0.0207  0.1407  0.2574
  855SOL    HW112329   3.145   1.772   0.379 -0.0026  0.2377  0.1149
  855SOL    HW212330   2.999   1.839   0.352  0.0724  0.4159  0.1499
  856SOL     OW12331   2.186   5.622   1.541  0.0060 -0.0421 -0.1747
  856SOL    HW112332   2.092   5.601   1.517  0.0387 -1.2205  0.6551
  856SOL    HW212333   2.232   5.538   1.571 -0.0280  1.2845  3.8834
  857SOL     OW12334   2.934   2.641   0.316  0.5309  0.4490  0.2012
  857SOL    HW112335   2.944   2.695   0.400  0.2453  0.5445  0.1729
  857SOL    HW212336   2.893   2.697   0.244 -1.3018 -0.2525  0.6512
  858SOL     OW12337   3.870   3.597   1.498 -0.0713 -0.4251  0.0521
  858SOL    HW112338   3.915   3.559   1.578 -1.1076 -1.8310 -0.0190
  858SOL    HW212339   3.811   3.673   1.525  0.3720 -0.2292  0.4736
  859SOL     OW12340   3.080   1.793   1.119  0.0607 -0.8786  0.2569
  859SOL    HW112341   3.005   1.858   1.103  2.0761  1.2022 -1.0896
  859SOL    HW212342   3.146   1.833   1.182  2.5670 -0.5340 -2.4920
  860SOL     OW12343   3.511   2.657   0.128 -0.3787  0.3012  0.4626
  860SOL    HW112344   3.566   2.655   0.212  1.1175  0.9806 -0.4936
  860SOL    HW212345   3.535   2.738   0.074 -1.6921  0.1308 -0.3881
  861SOL     OW12346   3.066   8.547   1.619  0.0301 -0.1964 -0.1084
  861SOL    HW112347   3.048   8.617   1.550  0.3167 -0.1842 -0.1730
  861SOL    HW212348   3.162   8.521   1.615 -0.4417 -1.8470 -1.2677
  862SOL     OW12349   2.911   0.865   0.652  0.7750 -0.0066  0.5509
  862SOL    HW112350   2.900   0.786   0.712  1.3407  0.6902  1.5682
  862SOL    HW212351   2.821   0.898   0.624  0.5052 -0.2348  1.1470
  863SOL     OW12352   3.219   4.320   2.285  0.1231 -0.2815  0.5606
  863SOL    HW112353   3.181   4.369   2.207 -0.1523  1.3678  1.6973
  863SOL    HW212354   3.215   4.222   2.268 -2.2016 -0.0392 -0.4622
  864SOL     OW12355   3.331  10.014   0.828 -0.0031 -0.6959  0.3358
  864SOL    HW112356   3.425  10.000   0.859  0.3174  0.9852  0.1677
  864SOL    HW212357   3.329  10.013   0.728 -0.0838 -0.2845  0.3323
  865SOL     OW12358   2.408   9.269   0.297  0.6356 -0.7683 -0.0564
  865SOL    HW112359   2.340   9.240   0.365 -2.0212 -0.5489 -2.5286
  865SOL    HW212360   2.416   9.369   0.299  1.3011 -0.8323  0.6081
  866SOL     OW12361   3.041   2.452   2.229  0.1952  0.1727  0.3151
  866SOL    HW112362   2.999   2.361   2.220 -0.7267  0.6481 -0.3006
  866SOL    HW212363   3.057   2.472   2.326  2.5406 -1.5881  0.3318
  867SOL     OW12364   2.597   9.280   2.569 -0.2472  0.3799 -1.1889
  867SOL    HW112365   2.519   9.243   2.620  0.8225 -1.9863 -1.1882
  867SOL    HW212366   2.574   9.284   2.472 -0.5414  0.1603 -1.1292
  868SOL     OW12367   3.976   2.422   0.404  0.1276 -0.2725 -0.2112
  868SOL    HW112368   4.058   2.375   0.372 -0.5614  0.8338 -3.8371
  868SOL    HW212369   4.003   2.496   0.467  1.7915 -0.7177 -0.3670
  869SOL     OW12370   3.735   1.078   0.792 -0.4124 -0.1738  0.1879
  869SOL    HW112371   3.763   1.174   0.797 -1.4350  0.0837  1.3454
  869SOL    HW212372   3.813   1.021   0.768  1.2092  0.4487  3.7506
  870SOL     OW12373   3.470   8.943   0.916 -0.0255 -0.3734  0.0631
  870SOL    HW112374   3.527   8.968   0.993 -0.3353  0.6640 -0.0422
  870SOL    HW212375   3.442   8.847   0.925 -0.1285 -0.2369  1.2748
  871SOL     OW12376   4.494   1.973   1.688 -0.3118  0.6437 -0.1537
  871SOL    HW112377   4.562   2.043   1.710 -0.0152  0.6147 -0.9438
  871SOL    HW212378   4.478   1.916   1.768 -2.2758  3.0235  1.2430
  872SOL     OW12379   2.564   4.928   1.716 -0.1064  0.2710  0.1685
  872SOL    HW112380   2.625   4.893   1.644  0.1727  0.8611  0.1069
  872SOL    HW212381   2.606   4.914   1.805  0.5614  1.5011  0.0707
  873SOL     OW12382   3.011   7.708   0.022 -0.0265 -0.4220 -0.0585
  873SOL    HW112383   2.946   7.721   0.096 -1.0690  0.5433 -1.1233
  873SOL    HW212384   3.045   7.796  -0.010  0.4556 -0.8229 -0.6795
  874SOL     OW12385   2.649   1.314   2.043 -0.9425  0.9758  0.3844
  874SOL    HW112386   2.587   1.240   2.070  0.0177  0.2237  0.5647
  874SOL    HW212387   2.713   1.280   1.974 -0.2852  1.5484  0.7083
  875SOL     OW12388   2.470   5.500   2.100 -0.6296  0.2926  0.6626
  875SOL    HW112389   2.486   5.544   2.012 -0.7740 -2.1006 -0.5833
  875SOL    HW212390   2.371   5.492   2.116 -0.6205  1.8769  1.6649
  876SOL     OW12391   3.646   8.396   0.905  0.5101  0.3861 -0.4903
  876SOL    HW112392   3.649   8.462   0.830 -2.8113 -0.0554 -1.0724
  876SOL    HW212393   3.645   8.445   0.992 -1.8968  1.1299 -0.9157
  877SOL     OW12394   3.088   1.720   0.033  0.2670  0.1722  0.4114
  877SOL    HW112395   3.048   1.801   0.076 -0.8283 -0.2905  0.2663
  877SOL    HW212396   3.027   1.642   0.045  1.0251 -0.4936  0.0002
  878SOL     OW12397   3.482   2.268   0.258 -0.1134  0.1720 -0.1364
  878SOL    HW112398   3.440   2.178   0.269 -1.2645  0.1398 -4.0673
  878SOL    HW212399   3.573   2.268   0.300 -0.5129 -2.4576  0.8320
  879SOL     OW12400   3.757   2.008   0.159  0.2425 -0.4274  0.4171
  879SOL    HW112401   3.664   1.974   0.174  0.4784 -1.4511 -0.3794
  879SOL    HW212402   3.767   2.035   0.063  0.7464 -0.2098  0.5306
  880SOL     OW12403   3.797   9.175   0.367 -0.0692 -0.0724 -0.2108
  880SOL    HW112404   3.871   9.200   0.430 -0.0537  2.6853 -1.2674
  880SOL    HW212405   3.834   9.161   0.275 -0.1089 -3.9673  0.2982
  881SOL     OW12406   2.359   0.583  -0.022  0.6033  0.4507  0.5421
  881SOL    HW112407   2.303   0.593   0.060  0.6211 -1.9459  0.8761
  881SOL    HW212408   2.429   0.655  -0.023 -0.3737  1.4542  1.8020
  882SOL     OW12409   3.534   1.763   1.629 -0.7590  0.2383  0.4511
  882SOL    HW112410   3.579   1.787   1.543 -1.0880  0.3986  0.3211
  882SOL    HW212411   3.534   1.841   1.691 -1.6638  0.5204  0.0997
  883SOL     OW12412   3.269   2.139   1.722  0.6109 -0.0194  0.0113
  883SOL    HW112413   3.339   2.147   1.793  0.0705 -0.2750  0.5775
  883SOL    HW212414   3.215   2.223   1.717  3.1506  1.5380 -2.7836
  884SOL     OW12415   3.062   9.826   1.845  0.1813 -0.2253  0.2727
  884SOL    HW112416   3.088   9.922   1.854  1.1195 -0.5497  1.0738
  884SOL    HW212417   2.964   9.816   1.866  0.4320  0.3206  1.7576
  885SOL     OW12418   3.274   8.774   2.613 -0.2108  0.1511  0.2916
  885SOL    HW112419   3.246   8.866   2.587  1.4396  0.4429 -0.5244
  885SOL    HW212420   3.193   8.718   2.631 -1.2380  1.5602  0.0942
  886SOL     OW12421   4.611   2.252   1.744 -0.0188 -0.5071  0.1284
  886SOL    HW112422   4.643   2.269   1.651  0.4549 -0.6140  0.2702
  886SOL    HW212423   4.633   2.331   1.802  0.1160 -0.6420  0.2610
  887SOL     OW12424   3.037   7.797   1.747 -0.0502 -0.1740  0.2802
  887SOL    HW112425   3.064   7.722   1.688 -0.8659  0.2818 -0.6827
  887SOL    HW212426   3.076   7.883   1.713  1.3969 -0.2311  1.7275
  888SOL     OW12427   2.763   1.677   2.130  0.3991  0.3573 -0.4826
  888SOL    HW112428   2.842   1.673   2.070 -0.1478 -1.4037 -1.0949
  888SOL    HW212429   2.789   1.721   2.216  1.0407  3.4474 -2.1887
  889SOL     OW12430   4.473   4.595   0.101  0.0709  0.2226 -0.3726
  889SOL    HW112431   4.414   4.529   0.148 -0.3181 -0.6069 -1.9950
  889SOL    HW212432   4.549   4.547   0.058  0.3231  0.9498 -0.7482
  890SOL     OW12433   2.430   8.604   0.433 -0.8142  0.0671  0.2129
  890SOL    HW112434   2.481   8.667   0.492 -0.5801 -0.5826  0.7115
  890SOL    HW212435   2.338   8.590   0.470 -1.0148  0.4649 -0.1408
  891SOL     OW12436   2.527   4.585   0.883  0.1202  0.3238 -0.6068
  891SOL    HW112437   2.609   4.541   0.847  0.9064  0.8791  0.4708
  891SOL    HW212438   2.549   4.630   0.970 -1.6858 -0.8891  0.5170
  892SOL     OW12439   2.863   3.839   2.058 -0.3721  0.2849  0.3405
  892SOL    HW112440   2.900   3.855   2.149 -2.0866 -1.2604  1.3447
  892SOL    HW212441   2.809   3.754   2.058  0.3870 -0.2460 -2.3378
  893SOL     OW12442   4.501   3.065   2.601 -1.0611 -0.6797  0.0182
  893SOL    HW112443   4.480   2.997   2.671  0.0501 -1.9667 -0.8746
  893SOL    HW212444   4.559   3.136   2.640 -1.4513 -0.7377  0.7135
  894SOL     OW12445   3.666   3.776   1.288 -0.1159  0.1293 -0.1169
  894SOL    HW112446   3.650   3.868   1.253 -0.7009  0.2099  0.3568
  894SOL    HW212447   3.717   3.781   1.374 -0.7181  0.0461  0.2481
  895SOL     OW12448   2.220   9.412   0.595  0.2960  0.3745 -0.5816
  895SOL    HW112449   2.216   9.461   0.682  0.6212  0.1639 -0.4503
  895SOL    HW212450   2.253   9.473   0.524  4.3642 -0.6626  0.3042
  896SOL     OW12451   2.598   9.538   0.039 -0.3009 -0.0737 -0.0224
  896SOL    HW112452   2.578   9.459  -0.020 -2.2059  0.8779 -0.7016
  896SOL    HW212453   2.570   9.517   0.133  0.2554 -0.6203  0.0237
  897SOL     OW12454   2.825   3.051   1.870  0.1609 -0.4391  0.2332
  897SOL    HW112455   2.902   3.078   1.813  1.3352 -1.3408  1.3809
  897SOL    HW212456   2.817   2.952   1.872 -1.4819 -0.3472 -0.4417
  898SOL     OW12457   2.704   2.934   0.843  0.0595 -0.7714 -0.2881
  898SOL    HW112458   2.769   2.890   0.905 -0.0406 -0.8266 -0.2213
  898SOL    HW212459   2.622   2.877   0.837 -0.1300 -0.5185 -0.0850
  899SOL     OW12460   2.448   4.872   0.787 -0.2197 -0.5928 -0.7088
  899SOL    HW112461   2.462   4.773   0.797 -2.3308 -0.7137  1.5314
  899SOL    HW212462   2.414   4.909   0.873  1.0828  2.2156 -1.3564
  900SOL     OW12463   2.752   7.825   1.649  0.1922  0.3541  0.1168
  900SOL    HW112464   2.733   7.727   1.651 -0.0473  0.3226 -2.2400
  900SOL    HW212465   2.843   7.842   1.688  1.2036 -1.0743 -1.5458
  901SOL     OW12466   3.153   8.442   0.204  0.2569  0.0808 -0.1780
  901SOL    HW112467   3.073   8.473   0.254  0.2140  1.2720 -0.9735
  901SOL    HW212468   3.235   8.488   0.238  0.3456  0.2593 -0.6231
  902SOL     OW12469   3.128   0.300   0.559  0.2243 -0.4295  0.0484
  902SOL    HW112470   3.167   0.393   0.563  1.7020 -0.9935 -0.6747
  902SOL    HW212471   3.133   0.267   0.465 -0.2038 -1.2884  0.3302
  903SOL     OW12472   2.171   0.289   0.126  0.6859  0.0184  0.1268
  903SOL    HW112473   2.241   0.278   0.056  0.4736 -2.1804  0.2189
  903SOL    HW212474   2.215   0.310   0.214  1.1029  0.4182 -0.1768
  904SOL     OW12475   2.432   5.331   1.328  0.1245 -0.0804 -0.1331
  904SOL    HW112476   2.419   5.245   1.376  0.2629 -0.0294 -0.0017
  904SOL    HW212477   2.516   5.327   1.274  1.2086  0.6845  1.4607
  905SOL     OW12478   4.549   3.199   1.957 -0.7238 -0.4575  0.1741
  905SOL    HW112479   4.480   3.157   1.898 -0.7728 -0.1171 -0.0132
  905SOL    HW212480   4.637   3.154   1.943 -0.8991 -0.8680  0.3861
  906SOL     OW12481   2.804   4.380   1.527 -0.0505 -0.0765 -0.0780
  906SOL    HW112482   2.803   4.454   1.461  2.4179 -0.8537 -1.0390
  906SOL    HW212483   2.711   4.362   1.559 -0.9862  1.7312 -1.7135
  907SOL     OW12484   3.420   8.688   1.042  0.3560  0.6170  0.4247
  907SOL    HW112485   3.365   8.634   0.978 -0.3030  0.6908  0.9265
  907SOL    HW212486   3.504   8.638   1.064 -0.7686 -0.7377  1.7698
  908SOL     OW12487   4.161   3.290   0.529 -0.0422  0.6286  0.1368
  908SOL    HW112488   4.137   3.235   0.609  1.0358 -0.2285 -0.1191
  908SOL    HW212489   4.129   3.243   0.446 -1.8989  1.9081  0.0828
  909SOL     OW12490   3.076   4.350   1.516 -0.7805 -0.2798  0.2940
  909SOL    HW112491   3.115   4.440   1.494 -0.3333 -0.7371 -0.8386
  909SOL    HW212492   2.977   4.356   1.520 -0.7401  0.3090  0.4500
  910SOL     OW12493   2.666   1.561   1.594  0.5246  0.1655  0.7545
  910SOL    HW112494   2.729   1.489   1.563 -0.2329 -0.8113  1.4228
  910SOL    HW212495   2.589   1.519   1.643 -1.0081  1.2691 -0.6169
  911SOL     OW12496   4.469   2.126   0.189  0.3594  0.1133  1.1368
  911SOL    HW112497   4.514   2.167   0.268  0.8636 -0.7662  1.3160
  911SOL    HW212498   4.515   2.040   0.166  0.1370  0.3042 -0.0365
  912SOL     OW12499   4.621   2.617   2.293  0.0622  0.3118 -0.3898
  912SOL    HW112500   4.608   2.518   2.282 -1.6689  0.5147 -0.3849
  912SOL    HW212501   4.706   2.634   2.342  0.0704 -1.2122  0.1757
  913SOL     OW12502   3.978   4.973   0.303  0.6732  0.2539  0.0329
  913SOL    HW112503   4.040   5.035   0.351  0.8265  0.9146 -0.9876
  913SOL    HW212504   3.903   4.947   0.364  0.6000  1.4671  0.4844
  914SOL     OW12505   3.071   2.962   0.684 -0.8956 -0.7480  0.1296
  914SOL    HW112506   3.035   3.042   0.730 -2.1347 -1.0353 -0.3234
  914SOL    HW212507   3.141   2.919   0.741 -0.3156  0.5749  0.4217
  915SOL     OW12508   3.125   0.565   1.608  0.5320 -0.6605  0.2313
  915SOL    HW112509   3.033   0.528   1.598  0.3775  0.0086 -0.9492
  915SOL    HW212510   3.174   0.516   1.680 -0.6672 -1.1733  0.6949
  916SOL     OW12511   3.680   4.782   1.276 -0.6063 -0.0424  0.1900
  916SOL    HW112512   3.672   4.782   1.177 -0.3904 -1.2690  0.1664
  916SOL    HW212513   3.658   4.691   1.312  3.0830 -0.7218  0.9359
  917SOL     OW12514   2.832   1.864   1.331  0.4440 -0.3421  0.2564
  917SOL    HW112515   2.891   1.792   1.370  1.4724  0.5266  0.3237
  917SOL    HW212516   2.785   1.828   1.250  1.6131 -0.8326 -0.2177
  918SOL     OW12517   3.352   8.743   1.580  0.7107 -0.1517  0.7539
  918SOL    HW112518   3.337   8.646   1.564 -1.8942  0.2550  0.6237
  918SOL    HW212519   3.298   8.774   1.658  0.2010  1.5550 -0.2456
  919SOL     OW12520   3.863   2.238   1.377 -0.0788 -0.8234 -0.0060
  919SOL    HW112521   3.912   2.227   1.464  0.7534 -0.1566 -0.3776
  919SOL    HW212522   3.792   2.169   1.370 -0.7212 -0.3513  1.5881
  920SOL     OW12523   3.077   3.560   1.459 -0.6942 -0.2573  0.2820
  920SOL    HW112524   3.045   3.609   1.539 -1.1915 -1.4608  0.8304
  920SOL    HW212525   3.177   3.549   1.464 -0.7123 -0.2321  0.6784
  921SOL     OW12526   2.842   3.286   0.626 -0.1892 -0.0417  0.3895
  921SOL    HW112527   2.869   3.210   0.685  0.0700 -0.0928  0.2051
  921SOL    HW212528   2.782   3.348   0.677 -0.9275 -0.7079  0.3373
  922SOL     OW12529   2.914  10.021   0.325 -0.1249  0.4291  0.4690
  922SOL    HW112530   2.854  10.101   0.335 -1.1643 -0.1379 -1.0870
  922SOL    HW212531   2.866   9.950   0.273  1.5553 -0.3884  0.0157
  923SOL     OW12532   2.596   5.360   1.631  0.0546 -0.0332 -0.0223
  923SOL    HW112533   2.570   5.394   1.540  0.7462  0.1460 -0.1565
  923SOL    HW212534   2.514   5.348   1.687 -0.3145  0.5630 -0.4271
  924SOL     OW12535   2.546   7.715   0.191  0.4039 -0.0059 -0.3060
  924SOL    HW112536   2.488   7.661   0.252  1.7713 -1.2947 -0.1324
  924SOL    HW212537   2.505   7.719   0.100 -0.6858  0.3266  0.1953
  925SOL     OW12538   3.152   3.805   1.148  0.1251 -0.6269 -0.0266
  925SOL    HW112539   3.195   3.787   1.236  0.5781  0.2204 -0.0742
  925SOL    HW212540   3.199   3.753   1.077  0.7946 -0.0428 -0.0139
  926SOL     OW12541   3.402   4.014   0.241 -0.4721  0.5264  0.2630
  926SOL    HW112542   3.482   3.978   0.193  0.0217 -0.2473  1.6550
  926SOL    HW212543   3.402   4.114   0.235  0.8891  0.5659  0.7055
  927SOL     OW12544   4.184   3.508   2.044 -0.4255  0.0716 -0.1218
  927SOL    HW112545   4.276   3.482   2.016 -0.2952  1.1209 -0.6750
  927SOL    HW212546   4.189   3.577   2.117 -0.7742  0.5061 -0.5086
  928SOL     OW12547   2.439   5.862   1.226 -0.7485  0.2365 -0.0595
  928SOL    HW112548   2.477   5.836   1.137 -2.0932  0.7376 -0.7954
  928SOL    HW212549   2.420   5.780   1.279 -2.4260 -0.2306 -1.3088
  929SOL     OW12550   2.305   9.690   0.522  0.6807 -0.4894  0.5894
  929SOL    HW112551   2.363   9.674   0.602  0.3328 -0.4419  0.8524
  929SOL    HW212552   2.233   9.755   0.546  2.5983  2.2160 -0.7066
  930SOL     OW12553   3.228   0.294   2.396 -0.2208 -0.2618 -0.3271
  930SOL    HW112554   3.138   0.285   2.438  0.0295 -1.5182 -0.0399
  930SOL    HW212555   3.280   0.210   2.410  0.9186  0.3744 -0.6838
  931SOL     OW12556   2.988   0.501   2.226 -0.5516  0.9165 -0.9418
  931SOL    HW112557   2.891   0.493   2.206 -0.9649  0.5444  1.1239
  931SOL    HW212558   3.041   0.457   2.154 -1.9053  0.9185 -1.9565
  932SOL     OW12559   3.132   7.945   2.636 -0.0431 -0.0725  0.0218
  932SOL    HW112560   3.183   7.915   2.555  0.2754  0.6177 -0.0313
  932SOL    HW212561   3.118   8.044   2.633 -0.8161 -0.1659  0.3657
  933SOL     OW12562   2.336   9.023   1.243  0.1707  0.4393  0.5050
  933SOL    HW112563   2.301   9.020   1.336  0.5099 -0.6935  0.6003
  933SOL    HW212564   2.286   8.957   1.186  1.7619 -0.8098  0.5194
  934SOL     OW12565   2.951   3.691   0.138 -0.4031 -0.5839 -0.1319
  934SOL    HW112566   2.873   3.744   0.171 -0.2501 -0.4295 -0.0134
  934SOL    HW212567   3.036   3.737   0.166 -0.2737 -0.4096 -0.7898
  935SOL     OW12568   4.242   2.665   0.217  0.6925 -0.0965  0.7986
  935SOL    HW112569   4.235   2.678   0.316  1.3343 -0.1385  0.8473
  935SOL    HW212570   4.243   2.567   0.196  0.0404 -0.0865  0.7142
  936SOL     OW12571   3.162   9.935   0.274 -0.8193 -0.1913  0.4564
  936SOL    HW112572   3.134   9.844   0.304 -1.5465 -0.6739 -1.6203
  936SOL    HW212573   3.086   9.999   0.284 -0.6795 -0.0675  0.7583
  937SOL     OW12574   2.973   2.159   2.156 -0.1894 -0.4884 -0.5528
  937SOL    HW112575   3.005   2.151   2.251  0.7123 -1.3536 -0.9160
  937SOL    HW212576   2.915   2.081   2.134 -1.7016  0.5344 -0.2297
  938SOL     OW12577   3.050   5.523   1.309  0.0287 -0.3548  0.3365
  938SOL    HW112578   3.085   5.562   1.224  0.2169 -0.3512  0.4154
  938SOL    HW212579   3.127   5.493   1.367  0.0147  1.9931  1.6246
  939SOL     OW12580   2.858   1.147   2.388  0.4023 -0.1038 -0.1989
  939SOL    HW112581   2.785   1.084   2.360 -0.7153  1.2674 -0.4085
  939SOL    HW212582   2.829   1.241   2.371  1.7118  0.5126  0.9285
  940SOL     OW12583   3.467   2.417   0.032  0.8269  0.5099  0.3421
  940SOL    HW112584   3.473   2.348   0.103  0.6288  0.8407  0.6803
  940SOL    HW212585   3.481   2.508   0.072  1.6718  0.6230 -0.1907
  941SOL     OW12586   3.225   2.756   1.960 -0.1352  0.3021 -0.5872
  941SOL    HW112587   3.264   2.728   1.872 -0.3091  0.5865 -0.7522
  941SOL    HW212588   3.258   2.847   1.984  1.8868 -0.7455  0.8124
  942SOL     OW12589   2.906   5.615   2.085  0.8479 -0.0888 -0.0987
  942SOL    HW112590   2.830   5.678   2.064  0.1421 -0.3442  1.6110
  942SOL    HW212591   2.982   5.667   2.125  0.2963 -0.2962  1.2379
  943SOL     OW12592   3.288   4.270   0.575  0.0024 -0.7673  0.3326
  943SOL    HW112593   3.313   4.316   0.660 -1.8537 -1.6784  1.4160
  943SOL    HW212594   3.326   4.178   0.574  1.3441 -0.2147 -0.5535
  944SOL     OW12595   3.249   0.571   2.422  0.1105  0.0992 -0.3051
  944SOL    HW112596   3.200   0.601   2.504 -0.8418 -0.7277 -0.5544
  944SOL    HW212597   3.201   0.493   2.381  1.5239 -0.6010 -0.6797
  945SOL     OW12598   4.423   2.537   1.034  0.0477 -0.2261  0.0514
  945SOL    HW112599   4.497   2.473   1.055  0.1972 -0.1572 -0.2640
  945SOL    HW212600   4.360   2.496   0.969 -0.5696 -0.5455  0.8389
  946SOL     OW12601   2.387   6.247   1.439 -0.0536 -0.1010 -0.4717
  946SOL    HW112602   2.326   6.305   1.493  0.1452 -0.4338  0.1165
  946SOL    HW212603   2.471   6.298   1.418 -0.0689 -0.0212 -0.3380
  947SOL     OW12604   2.915   6.432   1.575  0.6904 -0.1983 -0.4420
  947SOL    HW112605   2.913   6.393   1.667 -2.2671  0.2861 -0.2680
  947SOL    HW212606   2.868   6.371   1.511 -0.7785  1.3494 -0.8617
  948SOL     OW12607   2.922   2.795   1.917  0.0282  0.7972 -0.2107
  948SOL    HW112608   2.880   2.720   1.969 -0.5139  0.6660 -0.8267
  948SOL    HW212609   3.021   2.795   1.933  0.0442 -0.1030 -0.2716
  949SOL     OW12610   2.409   5.593   1.390  0.3599 -0.3200  0.0854
  949SOL    HW112611   2.322   5.616   1.433 -0.1031 -0.8868 -0.5408
  949SOL    HW212612   2.409   5.497   1.364  0.7691 -0.0724 -0.8572
  950SOL     OW12613   3.728   3.079   1.364  0.1014  0.4429 -0.2314
  950SOL    HW112614   3.768   3.080   1.273 -0.1819  0.8641 -0.3520
  950SOL    HW212615   3.782   3.138   1.425  1.1569 -0.9746  0.2511
  951SOL     OW12616   4.238   1.286   0.237  0.0902  0.2893 -0.2350
  951SOL    HW112617   4.219   1.275   0.139 -1.6694 -0.7524  0.2072
  951SOL    HW212618   4.201   1.373   0.269 -0.9859 -0.2134 -0.1015
  952SOL     OW12619   3.371   5.454   0.401 -0.4821  0.2406 -0.3874
  952SOL    HW112620   3.364   5.356   0.383 -0.2514  0.5682 -2.3857
  952SOL    HW212621   3.284   5.498   0.378 -0.1228  0.7037 -0.8668
  953SOL     OW12622   5.264   3.077   0.997  0.5618 -0.0650  0.1830
  953SOL    HW112623   5.315   3.098   0.914  2.2123 -0.3838  1.0835
  953SOL    HW212624   5.276   3.152   1.063 -1.7156  0.7455 -0.2933
  954SOL     OW12625   2.365   7.156   0.760  0.3081  0.3815 -0.0956
  954SOL    HW112626   2.350   7.065   0.722  0.8232 -0.1714  0.9872
  954SOL    HW212627   2.464   7.172   0.769  0.1981  0.2963  1.4476
  955SOL     OW12628   3.844  10.021   0.121  0.0834  0.1131 -0.3471
  955SOL    HW112629   3.865   9.936   0.169  0.6445  0.6499  0.3811
  955SOL    HW212630   3.792  10.082   0.182 -3.1472 -0.9675 -1.9374
  956SOL     OW12631   2.591   4.698   1.137 -0.2043  0.0636 -0.0966
  956SOL    HW112632   2.600   4.798   1.137  2.1482 -0.1036 -2.1637
  956SOL    HW212633   2.565   4.667   1.228 -0.3362  2.5071  0.7317
  957SOL     OW12634   4.086   2.387   2.048 -0.2956  0.1072 -0.3498
  957SOL    HW112635   4.181   2.418   2.056 -0.6843  1.2257  0.0372
  957SOL    HW212636   4.076   2.299   2.094  0.4698  0.1659 -0.0595
  958SOL     OW12637   2.658   7.164   0.767  0.1038  0.1878  0.1697
  958SOL    HW112638   2.721   7.238   0.790  0.7584 -0.1037 -0.6442
  958SOL    HW212639   2.668   7.090   0.832  0.4912  0.2135  0.1429
  959SOL     OW12640   2.160   9.157   2.512 -0.8507  1.1254 -0.4533
  959SOL    HW112641   2.202   9.094   2.447  1.0316  0.7708  1.0492
  959SOL    HW212642   2.064   9.173   2.487 -0.6669 -0.4370 -2.2224
  960SOL     OW12643   3.837   8.913   1.357 -0.4240 -0.6848 -0.7230
  960SOL    HW112644   3.874   8.980   1.421  0.0259 -1.6338  0.0164
  960SOL    HW212645   3.741   8.935   1.337 -0.1737  0.3827 -0.7770
  961SOL     OW12646   3.530   3.278   1.299  0.0714 -0.4422 -0.2693
  961SOL    HW112647   3.582   3.193   1.304  1.1002  0.1675 -0.4142
  961SOL    HW212648   3.592   3.356   1.312 -0.8327  0.2919 -0.2903
  962SOL     OW12649   2.853   4.406   1.810  0.2728  0.3128 -1.1389
  962SOL    HW112650   2.826   4.490   1.857  0.8479  0.1853 -0.5746
  962SOL    HW212651   2.816   4.407   1.717  0.2785  1.1883 -1.1400
  963SOL     OW12652   3.561   5.041   1.659 -0.4444  0.3250  0.0064
  963SOL    HW112653   3.620   5.040   1.740 -0.7289  0.3913  0.2160
  963SOL    HW212654   3.484   4.980   1.674 -0.6063  0.4967 -0.1334
  964SOL     OW12655   3.222   1.345   2.254 -0.3065 -0.0070  0.3988
  964SOL    HW112656   3.291   1.342   2.181 -0.0194 -2.3521  0.7360
  964SOL    HW212657   3.259   1.304   2.337 -2.1274 -1.3895  0.5553
  965SOL     OW12658   3.437   3.481   0.902  0.4115 -0.0596  0.0181
  965SOL    HW112659   3.419   3.447   0.810  0.4374  0.6262 -0.2490
  965SOL    HW212660   3.352   3.511   0.944  0.3142 -0.9496  0.4552
  966SOL     OW12661   3.548   8.723   2.539 -0.5580 -0.5695  0.3094
  966SOL    HW112662   3.593   8.640   2.572 -1.1164 -2.3961 -3.2936
  966SOL    HW212663   3.456   8.729   2.578 -0.9009 -2.2294 -0.2028
  967SOL     OW12664   2.310   0.450   2.250 -0.3256  0.1622 -0.1364
  967SOL    HW112665   2.259   0.378   2.299  1.6820 -2.0036 -1.1357
  967SOL    HW212666   2.388   0.479   2.306 -0.6704  1.0013 -0.0875
  968SOL     OW12667   2.264   9.362   1.772  0.0910  0.3614 -0.2281
  968SOL    HW112668   2.223   9.437   1.823 -1.4880 -0.0136 -0.9025
  968SOL    HW212669   2.219   9.354   1.683  0.9376 -0.7330 -0.5723
  969SOL     OW12670   3.538   1.935   1.227 -0.2978 -0.6987  0.1022
  969SOL    HW112671   3.494   1.969   1.144  0.0957  1.8284  0.8728
  969SOL    HW212672   3.638   1.939   1.215 -0.2031  1.6513  1.4065
  970SOL     OW12673   3.226   1.871   0.768 -0.3603 -0.3338  0.0054
  970SOL    HW112674   3.290   1.798   0.742 -1.7323 -1.7635  0.6050
  970SOL    HW212675   3.133   1.836   0.767 -1.4872  2.4714 -3.6112
  971SOL     OW12676   4.007   9.312  -0.020 -0.5274 -0.5771  0.1213
  971SOL    HW112677   4.057   9.369  -0.085 -0.3583 -0.8092  0.0460
  971SOL    HW212678   3.911   9.307  -0.046 -0.1101 -2.2287 -1.2081
  972SOL     OW12679   3.085   9.662   0.358 -0.3154 -0.9989 -0.1791
  972SOL    HW112680   3.169   9.623   0.396 -0.8050 -0.4581  1.5167
  972SOL    HW212681   3.026   9.589   0.326 -0.5854 -1.5826  1.6075
  973SOL     OW12682   2.853   7.639   2.468  0.4099  0.4872  0.0858
  973SOL    HW112683   2.922   7.662   2.536 -0.2314  0.6067  0.7012
  973SOL    HW212684   2.771   7.605   2.514 -0.6374  2.1288 -0.5540
  974SOL     OW12685   3.661   1.863   2.159 -0.2933 -0.1446 -0.0658
  974SOL    HW112686   3.588   1.931   2.167 -2.9182 -2.6485 -1.6534
  974SOL    HW212687   3.731   1.897   2.096 -1.1926  1.3857 -0.2615
  975SOL     OW12688   4.971   3.426   0.393  0.1278  0.7045  0.8477
  975SOL    HW112689   4.958   3.350   0.330 -1.3271  0.0148  1.9547
  975SOL    HW212690   4.933   3.509   0.353  0.7521  0.6406  0.1028
  976SOL     OW12691   2.642   6.152   1.265 -0.1854 -0.2125  0.3509
  976SOL    HW112692   2.720   6.188   1.316  0.5553 -2.1172  0.6249
  976SOL    HW212693   2.645   6.052   1.266 -1.9893 -0.3048 -0.6413
  977SOL     OW12694   3.233   1.751   1.493 -0.2007  0.4624  0.4807
  977SOL    HW112695   3.235   1.824   1.424  0.5428  1.1497  1.2106
  977SOL    HW212696   3.269   1.786   1.579 -1.6369 -0.2286  1.3901
  978SOL     OW12697   2.452   3.640   0.823 -0.6607  0.5056 -0.1032
  978SOL    HW112698   2.370   3.609   0.776 -1.2368  0.9111  0.6350
  978SOL    HW212699   2.495   3.714   0.771  0.0786 -0.7140 -1.2686
  979SOL     OW12700   4.040   2.037   0.738 -0.4318  0.0965  0.0694
  979SOL    HW112701   3.988   1.954   0.719 -0.0570  0.0533 -0.7754
  979SOL    HW212702   4.017   2.107   0.671 -1.6278  1.0887  1.4642
  980SOL     OW12703   2.355   9.715   1.846 -0.1734 -0.1391  0.1941
  980SOL    HW112704   2.351   9.807   1.807 -0.6265  0.5654  1.8367
  980SOL    HW212705   2.418   9.658   1.792 -0.7542  0.7963 -1.4960
  981SOL     OW12706   4.064   4.605   2.589 -0.1550 -0.1381  0.5223
  981SOL    HW112707   4.104   4.569   2.674  2.8007  0.8553 -0.3927
  981SOL    HW212708   4.025   4.695   2.606 -0.3544 -0.3168  1.0253
  982SOL     OW12709   2.584   7.404   0.585 -0.3072  0.4035 -0.0715
  982SOL    HW112710   2.657   7.470   0.570 -1.3820  1.4512 -0.7657
  982SOL    HW212711   2.613   7.338   0.655  0.7149  1.6835  0.7367
  983SOL     OW12712   3.690   9.342   0.139  0.2693  0.0661  0.0692
  983SOL    HW112713   3.732   9.319   0.227  1.3304 -0.6618 -0.6096
  983SOL    HW212714   3.733   9.288   0.067 -0.7490  0.4920 -0.8714
  984SOL     OW12715   4.183   4.597   1.164  0.0580  0.4125  0.7069
  984SOL    HW112716   4.269   4.564   1.124 -0.5463 -1.0801  0.5984
  984SOL    HW212717   4.152   4.678   1.115  0.1032 -0.5147 -0.8988
  985SOL     OW12718   3.693   3.824   0.240  0.1211  0.0094 -0.2334
  985SOL    HW112719   3.677   3.909   0.190 -0.1133  0.1965  0.1618
  985SOL    HW212720   3.693   3.842   0.338 -0.4968 -0.5442 -0.1269
  986SOL     OW12721   3.019   7.545   0.726  0.5016  0.1049  0.1250
  986SOL    HW112722   2.935   7.526   0.676 -0.5124  1.6047  1.2337
  986SOL    HW212723   3.057   7.459   0.761  0.2934 -0.7536 -1.7053
  987SOL     OW12724   3.208   7.723   0.426  0.7571 -0.3848 -0.4303
  987SOL    HW112725   3.251   7.704   0.514 -0.4851  1.0205  0.4918
  987SOL    HW212726   3.242   7.658   0.358  1.8266 -1.3947  1.0411
  988SOL     OW12727   3.750  10.171   2.178  0.3381 -0.5994 -0.1470
  988SOL    HW112728   3.762  10.236   2.103 -0.7962 -0.5159 -0.2681
  988SOL    HW212729   3.679  10.205   2.240  0.0491 -1.5164  0.0289
  989SOL     OW12730   2.553   9.694   0.703  0.7193  0.5540 -0.0610
  989SOL    HW112731   2.605   9.609   0.710 -0.9056 -0.4218  0.4319
  989SOL    HW212732   2.583   9.758   0.773  0.4867 -0.4128  0.9222
  990SOL     OW12733   4.559   1.855   0.176 -0.6668 -0.3400  0.6128
  990SOL    HW112734   4.589   1.809   0.093 -3.3998  0.5422 -0.9352
  990SOL    HW212735   4.470   1.818   0.205 -0.1308 -0.0909  2.7044
  991SOL     OW12736   2.252   8.365   2.451  0.0706 -1.2188 -0.0414
  991SOL    HW112737   2.230   8.462   2.455  0.7044 -1.1017  0.6447
  991SOL    HW212738   2.238   8.331   2.358 -2.0675 -0.9264  0.1495
  992SOL     OW12739   3.736   2.083   1.067  0.2166  0.5578  0.2645
  992SOL    HW112740   3.827   2.044   1.083 -0.4440 -1.9582 -1.6849
  992SOL    HW212741   3.704   2.054   0.977 -1.8776  2.7264  0.2792
  993SOL     OW12742   2.744   4.225   2.001  0.1903 -0.0178  0.6463
  993SOL    HW112743   2.783   4.283   1.929 -2.8059  1.3819  0.0596
  993SOL    HW212744   2.705   4.143   1.959 -1.2649  0.6421  0.7029
  994SOL     OW12745   3.789  10.179   1.578  0.6868 -0.0277 -0.7966
  994SOL    HW112746   3.860  10.248   1.585 -1.4861  2.3341 -1.4240
  994SOL    HW212747   3.761  10.169   1.482  1.1011 -1.9479 -0.7517
  995SOL     OW12748   3.673   1.496   0.036 -0.0057 -0.3501 -0.4173
  995SOL    HW112749   3.690   1.541  -0.052  0.6757  3.1911  1.3946
  995SOL    HW212750   3.756   1.447   0.065  0.5287  0.3472 -0.7459
  996SOL     OW12751   2.980   1.634   1.428 -0.6335 -0.0611 -0.1869
  996SOL    HW112752   3.079   1.643   1.437 -0.5758 -1.6263  1.0015
  996SOL    HW212753   2.959   1.547   1.382 -1.4231  0.9844 -1.8445
  997SOL     OW12754   2.560   9.446   1.242  0.6078  0.6549  0.2244
  997SOL    HW112755   2.595   9.531   1.204 -1.6157  0.4307 -2.5069
  997SOL    HW212756   2.624   9.372   1.222 -0.3086  0.6312 -2.7699
  998SOL     OW12757   2.696   6.979   2.137  0.4234 -0.0367 -0.2517
  998SOL    HW112758   2.766   6.948   2.202 -0.7550  0.8471  1.4790
  998SOL    HW212759   2.731   7.058   2.086  1.1328 -0.3542 -0.2638
  999SOL     OW12760   2.975   3.180   0.832  0.0287  0.3749 -0.0895
  999SOL    HW112761   2.911   3.155   0.905 -0.5495  0.5729 -0.5287
  999SOL    HW212762   3.067   3.189   0.871 -0.1080 -0.4315  0.4458
 1000SOL     OW12763   3.160   5.719   1.755  0.0448 -0.1140  0.3487
 1000SOL    HW112764   3.131   5.795   1.813 -1.4257 -1.1499  0.9862
 1000SOL    HW212765   3.100   5.712   1.675 -0.3032 -1.0825  0.6892
 1001SOL     OW12766   3.696   1.452   0.472 -0.3755 -0.2677 -0.3191
 1001SOL    HW112767   3.758   1.374   0.456 -0.7614 -1.0647  1.9001
 1001SOL    HW212768   3.613   1.419   0.517 -1.1324  1.2579 -0.5820
 1002SOL     OW12769   3.299   3.378   2.148  0.2940  0.1131  0.1286
 1002SOL    HW112770   3.202   3.394   2.166  0.2041 -0.3531  0.0600
 1002SOL    HW212771   3.347   3.466   2.142  0.1058  0.3109  1.4218
 1003SOL     OW12772   4.482   4.355   0.485 -0.1044 -0.0117 -0.2521
 1003SOL    HW112773   4.544   4.408   0.542  0.3766 -0.0163 -0.7671
 1003SOL    HW212774   4.399   4.332   0.538 -0.9728  2.4729 -0.4731
 1004SOL     OW12775   2.929   3.704   1.641  0.0092  0.5703  0.5589
 1004SOL    HW112776   2.842   3.668   1.674  0.0094  1.4674  1.5697
 1004SOL    HW212777   2.915   3.795   1.601  0.1348 -0.1921 -1.2612
 1005SOL     OW12778   3.413   4.940   0.751 -0.0553  0.3443  0.8158
 1005SOL    HW112779   3.339   4.872   0.746  0.1755  0.1734 -0.5051
 1005SOL    HW212780   3.488   4.904   0.806  1.3451 -1.7769 -2.2891
 1006SOL     OW12781   3.407   9.702   0.297 -0.3647 -0.5851  0.2279
 1006SOL    HW112782   3.394   9.801   0.299  0.4995 -0.4427 -0.5847
 1006SOL    HW212783   3.385   9.664   0.387 -1.6563  0.2122  0.2587
 1007SOL     OW12784   3.189   3.824   0.217  0.6219  0.0550  0.3915
 1007SOL    HW112785   3.197   3.751   0.285  0.9023  1.1570  1.5611
 1007SOL    HW212786   3.277   3.869   0.206  0.4043  0.3393 -0.1903
 1008SOL     OW12787   2.353   9.003   2.309  0.1638 -0.4740 -0.4250
 1008SOL    HW112788   2.382   8.942   2.383  2.5877  1.1418  0.0004
 1008SOL    HW212789   2.407   8.983   2.227  0.3592  0.5342 -0.5370
 1009SOL     OW12790   3.054   5.376   1.815 -0.0304 -0.0507 -0.4510
 1009SOL    HW112791   3.130   5.432   1.781  0.1525  0.2895  0.4998
 1009SOL    HW212792   3.066   5.361   1.913 -1.6153  0.6599 -0.1407
 1010SOL     OW12793   3.569   4.337   2.125  0.3552 -0.2896 -0.5682
 1010SOL    HW112794   3.535   4.314   2.216  1.3241  4.1080  1.0350
 1010SOL    HW212795   3.493   4.341   2.061 -0.4656 -2.4282  0.2198
 1011SOL     OW12796   3.275   5.145   1.764 -0.1711 -0.0455  0.0904
 1011SOL    HW112797   3.217   5.109   1.691  0.4902 -1.1459  0.0956
 1011SOL    HW212798   3.284   5.244   1.754 -1.2263 -0.0083 -0.5009
 1012SOL     OW12799   4.639   2.929   0.834  0.0032  0.2194  0.7464
 1012SOL    HW112800   4.668   2.841   0.797  0.4176  0.8133 -0.3948
 1012SOL    HW212801   4.574   2.971   0.771  1.5263  1.7327  0.1372
 1013SOL     OW12802   2.879   2.128   1.827 -0.0353  0.4420  0.1735
 1013SOL    HW112803   2.805   2.097   1.767 -0.0872 -0.7629  0.8419
 1013SOL    HW212804   2.844   2.140   1.920  0.6534 -0.4049  0.5541
 1014SOL     OW12805   3.107   3.604   0.410 -0.1255 -0.2876 -0.2308
 1014SOL    HW112806   3.037   3.639   0.471 -1.0944 -0.5078 -1.1936
 1014SOL    HW212807   3.091   3.507   0.392  0.3007 -0.2933 -0.6114
 1015SOL     OW12808   3.154   9.009   2.130  0.5326  0.8211 -0.2770
 1015SOL    HW112809   3.088   9.006   2.205  1.1800 -1.1036  0.2673
 1015SOL    HW212810   3.142   8.929   2.071  1.9724  0.7494 -0.5010
 1016SOL     OW12811   3.777   5.162   1.103  0.1482 -0.3628  0.0604
 1016SOL    HW112812   3.811   5.143   1.011 -0.9859  0.0646 -0.4646
 1016SOL    HW212813   3.689   5.210   1.097  1.3977  2.2299  1.3247
 1017SOL     OW12814   3.761   0.795   1.236  0.1094  0.4499  0.3059
 1017SOL    HW112815   3.691   0.754   1.177  1.6270  0.4472 -1.5255
 1017SOL    HW212816   3.725   0.802   1.329 -1.2104 -2.4502  0.0917
 1018SOL     OW12817   2.973   0.391   1.975 -0.0895 -0.0691  0.5641
 1018SOL    HW112818   3.059   0.403   1.925  1.1681  1.5316  3.0239
 1018SOL    HW212819   2.897   0.393   1.910  1.4131  2.9450 -1.2107
 1019SOL     OW12820   2.691   8.326   2.184 -0.2919  0.6605 -0.0875
 1019SOL    HW112821   2.732   8.408   2.144 -0.8179 -0.0280 -2.1130
 1019SOL    HW212822   2.697   8.251   2.118  0.3908 -1.0163  1.8091
 1020SOL     OW12823   3.685   8.974   2.623 -0.0694  0.1716 -0.0199
 1020SOL    HW112824   3.757   8.934   2.679 -0.8946  1.9253  2.4341
 1020SOL    HW212825   3.630   8.902   2.581  0.8009 -1.1948  1.1588
 1021SOL     OW12826   2.333   6.903   0.674 -0.2950 -0.1178  0.3529
 1021SOL    HW112827   2.308   6.932   0.581 -1.9479 -0.3007  0.7240
 1021SOL    HW212828   2.410   6.839   0.669 -0.3014 -0.0500 -0.8756
 1022SOL     OW12829   3.252   1.637   0.272 -0.0700 -0.4276  0.2607
 1022SOL    HW112830   3.207   1.633   0.182 -0.6822  1.2995  0.4592
 1022SOL    HW212831   3.350   1.630   0.260 -0.0581  1.0388 -0.7008
 1023SOL     OW12832   4.552   3.606   0.730  0.3893 -0.1786  0.5959
 1023SOL    HW112833   4.560   3.658   0.815 -0.3736  1.4553 -0.3252
 1023SOL    HW212834   4.487   3.531   0.742 -1.6237  1.5641  0.7185
 1024SOL     OW12835   3.334   3.996   0.509 -0.3746  0.0386 -0.2875
 1024SOL    HW112836   3.341   4.025   0.413 -0.4430  1.9108  0.2413
 1024SOL    HW212837   3.238   3.984   0.533 -0.3238 -1.1198 -0.6373
 1025SOL     OW12838   3.857   3.233   0.881  0.6903 -0.1921 -0.4305
 1025SOL    HW112839   3.802   3.251   0.800 -0.2383 -0.0667  0.2271
 1025SOL    HW212840   3.815   3.276   0.961 -0.4050 -3.4045  0.7884
 1026SOL     OW12841   2.779   9.248   2.299  0.5592 -0.7311 -0.5398
 1026SOL    HW112842   2.799   9.286   2.209 -2.8313  1.1187 -0.5914
 1026SOL    HW212843   2.687   9.208   2.298 -0.1591  0.7130  2.4970
 1027SOL     OW12844   4.681   2.489   0.551 -0.1765  0.2156  0.3926
 1027SOL    HW112845   4.583   2.507   0.559  0.3019  3.9832 -1.0831
 1027SOL    HW212846   4.717   2.533   0.469  2.3105 -3.4440 -0.6345
 1028SOL     OW12847   3.073   2.128   0.858 -0.2520 -0.6792  0.2577
 1028SOL    HW112848   3.137   2.081   0.798  0.8733  0.6064  0.4384
 1028SOL    HW212849   3.118   2.207   0.900 -1.0628 -1.4714  2.6836
 1029SOL     OW12850   2.990   9.071   1.495 -0.2921  0.1966  0.1513
 1029SOL    HW112851   2.925   9.111   1.430  0.6702  0.6079 -0.5747
 1029SOL    HW212852   2.985   9.120   1.582 -1.1036  0.0828  0.1758
 1030SOL     OW12853   3.403   4.286   0.261 -0.3182 -0.0072 -0.0243
 1030SOL    HW112854   3.443   4.312   0.173  0.2621 -0.9188 -0.0271
 1030SOL    HW212855   3.326   4.348   0.282 -0.7586 -0.0809 -1.3875
 1031SOL     OW12856   3.327   9.535   0.098 -0.0446  0.0364  0.2783
 1031SOL    HW112857   3.337   9.440   0.126 -2.9189  0.0300  1.5505
 1031SOL    HW212858   3.342   9.595   0.177  0.0666  0.5335 -0.1154
 1032SOL     OW12859   3.348   9.995   0.578  0.3004 -0.0477 -0.0944
 1032SOL    HW112860   3.377  10.019   0.486 -0.4081 -0.8260 -0.5258
 1032SOL    HW212861   3.248   9.985   0.580  0.3958 -0.9425  0.5462
 1033SOL     OW12862   3.633   8.981   0.446 -0.2304  0.2113 -0.1169
 1033SOL    HW112863   3.681   8.898   0.474 -2.1876 -0.7191  0.6517
 1033SOL    HW212864   3.698   9.053   0.423  1.4826 -1.2634  0.0896
 1034SOL     OW12865   2.797   6.911   1.505  0.3154 -0.2499 -0.1397
 1034SOL    HW112866   2.748   6.997   1.499  1.1508  0.2057 -0.5868
 1034SOL    HW212867   2.853   6.910   1.588 -0.4739 -0.7743  0.3808
 1035SOL     OW12868   3.760   3.661   0.028  0.0156 -0.0778  0.0144
 1035SOL    HW112869   3.744   3.694   0.121 -1.4163 -1.6869  0.3662
 1035SOL    HW212870   3.741   3.734  -0.038  0.6880  0.9590  0.9568
 1036SOL     OW12871   2.248   7.649   0.969  0.3272 -0.2139  0.2714
 1036SOL    HW112872   2.215   7.562   0.932  1.3580 -0.8806  0.8943
 1036SOL    HW212873   2.295   7.633   1.056  0.0867  1.0335  0.6444
 1037SOL     OW12874   3.352   3.296   0.683  0.0636  0.1672 -0.1965
 1037SOL    HW112875   3.451   3.289   0.690  0.0632  0.4134  0.0465
 1037SOL    HW212876   3.309   3.219   0.732  0.0844  1.2621  1.5727
 1038SOL     OW12877   3.315   4.322   1.303 -0.1566  0.2066  0.1532
 1038SOL    HW112878   3.233   4.325   1.360  0.3756 -0.7710  0.9930
 1038SOL    HW212879   3.387   4.272   1.351  0.3458 -0.5387 -1.3466
 1039SOL     OW12880   4.031   3.718   1.888 -0.5159 -0.5386 -0.0137
 1039SOL    HW112881   3.941   3.685   1.918  0.1391 -1.4163  1.0160
 1039SOL    HW212882   4.102   3.657   1.923  0.4881  0.1389 -0.8406
 1040SOL     OW12883   2.601   6.093   0.770  0.5305  0.2720  0.0837
 1040SOL    HW112884   2.663   6.055   0.839  2.6455 -0.5367 -2.1813
 1040SOL    HW212885   2.552   6.018   0.725 -1.2121  0.8304  1.0042
 1041SOL     OW12886   3.577   1.479   2.307  0.2887 -0.4841 -0.8650
 1041SOL    HW112887   3.494   1.521   2.269  1.1813  0.4803 -1.7933
 1041SOL    HW212888   3.554   1.391   2.348 -1.3328  0.1459 -0.3799
 1042SOL     OW12889   4.268   2.427   0.847  0.1090 -0.3555  0.0423
 1042SOL    HW112890   4.172   2.454   0.845  0.5025  1.0703 -0.8502
 1042SOL    HW212891   4.284   2.355   0.779  0.3144  1.8116 -2.2863
 1043SOL     OW12892   3.780   2.274   2.029  0.1379 -0.3921 -0.3048
 1043SOL    HW112893   3.689   2.303   2.060  0.3233 -0.0049 -0.1205
 1043SOL    HW212894   3.815   2.339   1.962  1.8602  1.5742  2.3665
 1044SOL     OW12895   2.722   9.646   0.456  0.3265  0.2774 -0.3144
 1044SOL    HW112896   2.787   9.574   0.430  0.4154  0.7611 -1.4686
 1044SOL    HW212897   2.727   9.661   0.555  3.1450  1.3929 -0.5661
 1045SOL     OW12898   3.752   4.847   0.461 -0.0155 -0.6814  0.4382
 1045SOL    HW112899   3.771   4.773   0.525 -0.6929  0.1336  1.5975
 1045SOL    HW212900   3.730   4.809   0.371 -1.6750 -1.9494  1.3474
 1046SOL     OW12901   2.594   3.819   0.406  0.0336 -0.1452 -0.4874
 1046SOL    HW112902   2.674   3.843   0.350 -0.4441 -0.9857 -1.5642
 1046SOL    HW212903   2.512   3.821   0.349 -0.5888 -0.1708  0.3966
 1047SOL     OW12904   2.987   0.681   0.427 -0.6993 -0.0770 -0.5592
 1047SOL    HW112905   2.952   0.589   0.446 -0.5179 -0.2367 -0.9990
 1047SOL    HW212906   2.953   0.744   0.497 -2.4792 -0.0726 -1.4050
 1048SOL     OW12907   3.554   8.989   2.120  0.1226 -0.0340 -0.4704
 1048SOL    HW112908   3.510   8.952   2.039 -0.1148 -0.0806 -0.3195
 1048SOL    HW212909   3.549   8.923   2.195 -1.2868  0.7428  0.1297
 1049SOL     OW12910   3.235   9.476   2.477 -0.0183 -0.1248  0.0670
 1049SOL    HW112911   3.229   9.486   2.577 -0.0823 -0.9686  0.1545
 1049SOL    HW212912   3.151   9.509   2.435  0.0950  0.4379  0.2747
 1050SOL     OW12913   3.190   4.124   1.892 -0.3596  0.0228 -0.5631
 1050SOL    HW112914   3.111   4.140   1.832 -0.2539 -0.5855 -0.8724
 1050SOL    HW212915   3.246   4.207   1.896 -1.0789  0.5001 -0.2409
 1051SOL     OW12916   3.785   0.337   1.957  0.1822 -0.2410 -0.2911
 1051SOL    HW112917   3.838   0.414   1.922 -1.1945  0.1712 -1.5536
 1051SOL    HW212918   3.825   0.251   1.926  1.5008 -0.0256  0.7967
 1052SOL     OW12919   2.318   9.970   1.756  0.0156  0.1799  0.6366
 1052SOL    HW112920   2.257  10.047   1.772 -0.5652 -0.0525 -0.3887
 1052SOL    HW212921   2.323   9.950   1.658 -0.5613 -1.6514  0.9516
 1053SOL     OW12922   2.784   9.665   2.276 -0.1303  0.3022  0.1745
 1053SOL    HW112923   2.704   9.675   2.334  0.0200  3.5754 -0.1178
 1053SOL    HW212924   2.867   9.679   2.330  0.0999  0.8335 -0.3073
 1054SOL     OW12925   2.686   1.817   1.688 -0.9430  0.4337 -0.0904
 1054SOL    HW112926   2.655   1.876   1.613  1.1799 -0.0555 -1.4105
 1054SOL    HW212927   2.666   1.722   1.665 -0.2683  0.2830 -0.0646
 1055SOL     OW12928   2.955   6.619   0.387 -0.2120 -0.4651 -0.4907
 1055SOL    HW112929   2.948   6.520   0.398 -2.8914 -0.2166  0.2604
 1055SOL    HW212930   2.942   6.642   0.290 -0.2936 -0.7937 -0.5591
 1056SOL     OW12931   2.728   4.651   1.935 -0.0240 -0.4447 -0.1319
 1056SOL    HW112932   2.669   4.731   1.942  1.2174  0.5766 -1.1903
 1056SOL    HW212933   2.751   4.619   2.027  0.4660  1.1431  0.3127
 1057SOL     OW12934   2.892   1.947   0.977 -0.2438  0.0263 -0.2915
 1057SOL    HW112935   2.935   2.011   0.912  0.6902 -1.0369 -0.7463
 1057SOL    HW212936   2.863   1.865   0.927 -0.1512 -0.4988  0.5208
 1058SOL     OW12937   2.496   7.934   0.677  0.1205 -1.0701  0.1509
 1058SOL    HW112938   2.455   7.849   0.709  2.0339 -2.3682 -0.7834
 1058SOL    HW212939   2.556   7.915   0.599 -0.0917  1.2542 -0.6183
 1059SOL     OW12940   2.585   1.423   2.401  0.0068  0.1756  0.2669
 1059SOL    HW112941   2.544   1.513   2.390  1.5525  0.9364  0.5739
 1059SOL    HW212942   2.667   1.416   2.344 -0.5710 -1.3465 -0.4168
 1060SOL     OW12943   3.211   2.760   1.533 -0.6015  0.2243  0.3143
 1060SOL    HW112944   3.165   2.671   1.530 -1.2185  0.5271  0.8897
 1060SOL    HW212945   3.246   2.782   1.442  1.4579 -1.6074  0.6331
 1061SOL     OW12946   3.660   5.675   1.511 -0.1387  0.4190 -0.8691
 1061SOL    HW112947   3.748   5.660   1.465 -0.6494 -1.0413 -1.3798
 1061SOL    HW212948   3.589   5.692   1.442 -0.1088  2.5337 -0.4295
 1062SOL     OW12949   2.564   7.958   0.323 -0.1123 -0.2887  0.0267
 1062SOL    HW112950   2.543   7.861   0.306  0.5136 -0.5261  0.5463
 1062SOL    HW212951   2.662   7.966   0.345 -0.1064  0.5012 -0.3016
 1063SOL     OW12952   2.401   8.859   1.821  0.3479  0.2777  0.6824
 1063SOL    HW112953   2.399   8.767   1.861  0.2472 -0.1106 -0.2060
 1063SOL    HW212954   2.434   8.854   1.727 -1.6233  0.8842 -0.0771
 1064SOL     OW12955   4.206   1.605   2.569  0.1302  0.0266  0.0830
 1064SOL    HW112956   4.274   1.598   2.643 -0.2536 -0.4918  0.3868
 1064SOL    HW212957   4.123   1.647   2.604  0.6463  1.5940 -0.5370
 1065SOL     OW12958   3.572   5.046   0.545 -0.2059 -1.4095 -0.0040
 1065SOL    HW112959   3.524   4.996   0.618 -2.6024  0.8893  0.0602
 1065SOL    HW212960   3.641   4.986   0.505 -0.6897 -3.6533  2.3046
 1066SOL     OW12961   2.983   9.015   2.340 -0.6429  0.5875 -0.3148
 1066SOL    HW112962   3.007   9.019   2.437  1.2135  0.2939 -0.7400
 1066SOL    HW212963   2.926   9.093   2.316 -1.3763  0.4862  1.0802
 1067SOL     OW12964   2.481   9.243   2.324 -0.1818  0.3053 -0.0417
 1067SOL    HW112965   2.446   9.150   2.319  2.5942 -0.7207 -1.3586
 1067SOL    HW212966   2.438   9.299   2.253  1.9039 -1.3474 -2.6985
 1068SOL     OW12967   4.519   3.066   0.492 -0.3445 -0.2745  0.0854
 1068SOL    HW112968   4.463   3.067   0.409 -1.6370  2.8917  0.9641
 1068SOL    HW212969   4.465   3.031   0.569  0.3076 -1.4906  0.0120
 1069SOL     OW12970   2.750   4.947   2.434  0.2138  0.2543  0.0721
 1069SOL    HW112971   2.813   4.875   2.407 -2.3860 -2.0944  0.0670
 1069SOL    HW212972   2.754   4.960   2.533  0.5752 -0.0108  0.0913
 1070SOL     OW12973   3.236   3.529   1.903 -0.1333 -0.3206  0.8856
 1070SOL    HW112974   3.331   3.500   1.916  0.1422  0.2328  0.1700
 1070SOL    HW212975   3.234   3.623   1.868 -0.9448 -0.2995  0.9756
 1071SOL     OW12976   3.425   1.809   2.640  0.8263 -0.0792  0.5343
 1071SOL    HW112977   3.394   1.714   2.647 -0.7148  0.3462 -0.1172
 1071SOL    HW212978   3.459   1.839   2.729 -2.9711  0.1622  2.0300
 1072SOL     OW12979   2.636   6.898   0.935 -0.1677 -0.1716 -0.8812
 1072SOL    HW112980   2.595   6.853   1.014  1.6742  0.0919  0.2300
 1072SOL    HW212981   2.615   6.845   0.853 -2.1127 -0.4263 -0.2539
 1073SOL     OW12982   2.656   6.389   2.545 -0.2195 -0.0616 -0.0821
 1073SOL    HW112983   2.639   6.291   2.533  0.5059 -0.3266  0.9795
 1073SOL    HW212984   2.663   6.433   2.455  0.4267 -1.1487 -0.5733
 1074SOL     OW12985   3.542   1.870   0.252  0.4182 -0.1400  0.3695
 1074SOL    HW112986   3.461   1.927   0.270 -0.1800 -0.3651 -1.4726
 1074SOL    HW212987   3.515   1.774   0.250  1.4645 -0.5693  3.6740
 1075SOL     OW12988   3.552   3.043   0.819  0.0239 -0.2548  0.4589
 1075SOL    HW112989   3.584   2.992   0.739 -1.7737 -0.7907  0.0627
 1075SOL    HW212990   3.590   3.136   0.816  0.3551 -0.4164 -0.7667
 1076SOL     OW12991   2.869   8.405   1.513 -0.4015  0.0458 -0.3083
 1076SOL    HW112992   2.783   8.399   1.564 -0.9087  0.6218 -1.0870
 1076SOL    HW212993   2.934   8.463   1.563 -0.4824 -0.3559  0.2607
 1077SOL     OW12994   3.144   1.742   2.448 -0.2630  0.2864  0.1853
 1077SOL    HW112995   3.134   1.730   2.547 -1.4099 -1.2896 -0.0946
 1077SOL    HW212996   3.106   1.662   2.401  2.1860  0.0374 -1.4675
 1078SOL     OW12997   3.100   2.130   2.409 -0.0730  0.1080 -0.0863
 1078SOL    HW112998   3.152   2.049   2.379 -0.4666  0.2866 -1.2914
 1078SOL    HW212999   3.163   2.207   2.422 -0.0971  0.5324 -2.2935
 1079SOL     OW13000   4.002   4.262   1.447 -0.0194  0.4692  0.9636
 1079SOL    HW113001   3.993   4.361   1.453  1.7284  0.5899  1.7816
 1079SOL    HW213002   4.029   4.225   1.536  0.9440 -0.5627  0.2587
 1080SOL     OW13003   2.454   6.151   0.414 -0.0722 -0.3179  0.0372
 1080SOL    HW113004   2.520   6.077   0.421  0.5254  0.1954 -0.1037
 1080SOL    HW213005   2.463   6.212   0.493 -1.9812 -1.5328  1.2239
 1081SOL     OW13006   3.988   1.469   0.951  0.1869  0.3006 -0.3907
 1081SOL    HW113007   4.021   1.548   0.899 -0.9491  0.4731 -0.8769
 1081SOL    HW213008   4.000   1.486   1.049 -0.5575  1.3200 -0.4655
 1082SOL     OW13009   2.998   8.781   1.763  0.1100 -0.8416 -0.3590
 1082SOL    HW113010   2.924   8.829   1.714 -0.3285 -1.6675 -0.5060
 1082SOL    HW213011   3.015   8.693   1.720  2.2280 -0.0296 -1.2481
 1083SOL     OW13012   4.059   4.812   0.611  0.4481 -0.0135 -0.0220
 1083SOL    HW113013   4.140   4.818   0.669  0.1172  0.2093  0.4152
 1083SOL    HW213014   4.035   4.716   0.596  0.0280 -0.0482  0.9027
 1084SOL     OW13015   2.749   3.544   1.746 -0.3998  0.0108  0.3178
 1084SOL    HW113016   2.691   3.465   1.729  0.1277 -0.4182  0.5044
 1084SOL    HW213017   2.829   3.517   1.800 -0.6576  0.8327  1.1470
 1085SOL     OW13018   2.727   4.135   0.986  0.2249  0.0324 -0.5743
 1085SOL    HW113019   2.775   4.066   0.932  2.4729  1.5425 -0.5831
 1085SOL    HW213020   2.764   4.136   1.079 -1.7482 -0.6868  0.2388
 1086SOL     OW13021   2.586   8.351   0.967  0.1670  0.1658  0.1905
 1086SOL    HW113022   2.541   8.310   0.887  1.9675  0.4458 -0.9728
 1086SOL    HW213023   2.592   8.283   1.039 -1.3480 -0.1366  0.0546
 1087SOL     OW13024   2.864   0.988   0.296 -0.1215  1.1229 -0.1818
 1087SOL    HW113025   2.828   1.050   0.365 -2.6025 -1.3871  0.8615
 1087SOL    HW213026   2.841   1.023   0.205 -2.0858  1.3927  0.4010
 1088SOL     OW13027   2.952   2.960   1.538  0.2840  0.0416 -0.6214
 1088SOL    HW113028   3.037   2.908   1.541  0.6077  0.6425  1.4081
 1088SOL    HW213029   2.973   3.058   1.540 -0.4455  0.2043 -0.7202
 1089SOL     OW13030   2.912   5.879   2.216  0.2249  0.0448 -0.5200
 1089SOL    HW113031   2.890   5.864   2.119 -0.4628 -1.0497 -0.2068
 1089SOL    HW213032   2.984   5.816   2.244 -0.5234 -0.5859  0.0189
 1090SOL     OW13033   2.927   1.741   1.680 -0.1075 -0.5196  0.6456
 1090SOL    HW113034   2.955   1.704   1.592  0.0773  1.3020 -0.0928
 1090SOL    HW213035   2.838   1.786   1.670  1.0484  1.8558  0.7799
 1091SOL     OW13036   3.328   2.870   1.314 -0.5607  0.6741 -0.1560
 1091SOL    HW113037   3.381   2.930   1.374 -0.1546  0.4753 -0.3160
 1091SOL    HW213038   3.379   2.854   1.230  0.5667 -2.0884  1.0006
 1092SOL     OW13039   2.716   0.546   0.057 -0.3689  0.8611  0.1950
 1092SOL    HW113040   2.679   0.621   0.003  1.6783  1.1798 -0.7862
 1092SOL    HW213041   2.816   0.553   0.060 -0.3638  0.0980  2.9081
 1093SOL     OW13042   2.790  10.241   0.474  0.4469  0.0813  0.2963
 1093SOL    HW113043   2.762  10.322   0.423  2.9595  1.1779  0.5871
 1093SOL    HW213044   2.864  10.265   0.537 -0.4831 -1.9163  2.2003
 1094SOL     OW13045   3.197   2.059   0.579 -0.5144 -0.5131 -0.4209
 1094SOL    HW113046   3.142   2.020   0.506 -1.6551  0.4467 -0.0927
 1094SOL    HW213047   3.205   1.992   0.654 -1.2288 -0.6657 -0.4773
 1095SOL     OW13048   4.287   3.580   0.142 -0.1649  0.0556  0.4396
 1095SOL    HW113049   4.298   3.481   0.149  0.0206  0.1582  1.7194
 1095SOL    HW213050   4.198   3.606   0.178 -0.1979  0.3586  0.1387
 1096SOL     OW13051   2.252   9.536   1.086  0.0317  0.3715 -0.5593
 1096SOL    HW113052   2.240   9.444   1.124 -2.8558  0.5072 -1.0706
 1096SOL    HW213053   2.226   9.604   1.153 -0.2185  0.7603 -1.0495
 1097SOL     OW13054   2.764   2.700   2.433 -0.4537  0.9633  0.2460
 1097SOL    HW113055   2.779   2.772   2.366  0.8089  0.9638  0.5197
 1097SOL    HW213056   2.824   2.622   2.413 -0.7593  0.5741  0.8115
 1098SOL     OW13057   2.347   9.286   1.295 -0.2424 -0.9170  0.0731
 1098SOL    HW113058   2.419   9.340   1.252 -0.4127 -1.3943 -0.8312
 1098SOL    HW213059   2.343   9.195   1.253 -2.0173 -0.5595 -0.5863
 1099SOL     OW13060   4.502   4.488   1.669  0.0882 -0.1867 -0.5843
 1099SOL    HW113061   4.440   4.563   1.647  0.3322  0.2840  0.3316
 1099SOL    HW213062   4.582   4.523   1.718 -1.6705 -1.4990  3.4505
 1100SOL     OW13063   2.626   5.325   0.032 -0.7251  0.3047 -0.0951
 1100SOL    HW113064   2.608   5.295   0.126  1.5662 -0.4731  0.1397
 1100SOL    HW213065   2.580   5.412   0.015 -0.1491  1.0814  2.1629
 1101SOL     OW13066   2.661   5.972   1.628  0.4404 -0.0979 -0.1844
 1101SOL    HW113067   2.636   5.980   1.725  1.5104 -1.6913  0.2365
 1101SOL    HW213068   2.578   5.977   1.572 -0.6568 -3.3944  1.0692
 1102SOL     OW13069   3.609   8.677   1.648 -0.1293  0.0600 -0.2973
 1102SOL    HW113070   3.610   8.745   1.721 -1.9412 -0.2476  0.0570
 1102SOL    HW213071   3.523   8.686   1.596  0.8557 -0.1336 -1.9904
 1103SOL     OW13072   2.965   2.670   1.236  0.0286 -1.1100  0.4850
 1103SOL    HW113073   2.986   2.646   1.331  0.2401  0.1218  0.7619
 1103SOL    HW213074   3.008   2.604   1.175  0.7721 -1.3084  1.2105
 1104SOL     OW13075   2.175   9.315   2.140  0.3110  0.5078 -0.3371
 1104SOL    HW113076   2.105   9.344   2.075 -0.1297 -0.1259 -0.1491
 1104SOL    HW213077   2.251   9.272   2.090  0.1236  0.3172 -0.4578
 1105SOL     OW13078   2.834   5.386   2.531  0.2441 -0.6592 -0.2210
 1105SOL    HW113079   2.811   5.363   2.436 -1.7379 -2.6878  0.7066
 1105SOL    HW213080   2.751   5.386   2.586  1.2512  1.4047  1.3720
 1106SOL     OW13081   2.240   7.583   2.174 -0.0803 -0.2127  0.9640
 1106SOL    HW113082   2.252   7.587   2.273  0.5591  0.8122  0.8536
 1106SOL    HW213083   2.231   7.488   2.145 -2.8005 -0.3855  2.2857
 1107SOL     OW13084   2.969   3.194   2.270 -0.6790 -0.4233  0.0209
 1107SOL    HW113085   2.956   3.182   2.369 -1.3281  0.7517  0.0876
 1107SOL    HW213086   2.902   3.137   2.221 -1.2198 -0.0171  0.2791
 1108SOL     OW13087   4.074   4.860   1.043  0.3853  0.7937 -0.3773
 1108SOL    HW113088   4.034   4.899   1.126  2.0385  0.3326  0.6865
 1108SOL    HW213089   4.012   4.872   0.966 -3.0184 -2.2791  1.6823
 1109SOL     OW13090   4.521   3.187   1.158 -0.4223  0.3705  0.5770
 1109SOL    HW113091   4.514   3.232   1.069 -0.9542 -1.2802 -0.2416
 1109SOL    HW213092   4.571   3.246   1.222  1.2698  0.9584 -1.2483
 1110SOL     OW13093   2.853   5.232   1.199  0.2026 -0.1393 -0.0336
 1110SOL    HW113094   2.906   5.313   1.226 -1.4831  0.5530  1.3489
 1110SOL    HW213095   2.778   5.260   1.138  0.0802 -0.7619 -0.1682
 1111SOL     OW13096   2.398   7.732   2.648 -0.5017  0.1621  0.6848
 1111SOL    HW113097   2.369   7.735   2.552 -0.5889  0.5728  0.7203
 1111SOL    HW213098   2.389   7.823   2.687  0.0143  0.1016  0.9431
 1112SOL     OW13099   2.411   9.815   0.153  0.4511 -0.4686 -0.1958
 1112SOL    HW113100   2.362   9.798   0.067 -0.1786 -0.1673  0.0930
 1112SOL    HW213101   2.506   9.787   0.144  0.4021 -0.3807 -1.0126
 1113SOL     OW13102   2.835   8.757   0.324 -0.7133  0.0107 -0.6570
 1113SOL    HW113103   2.905   8.690   0.348 -1.0374  0.0161  0.3253
 1113SOL    HW213104   2.872   8.823   0.259  0.7687  1.1397  1.2852
 1114SOL     OW13105   3.367   5.699   0.021  0.0743  0.5143  0.4103
 1114SOL    HW113106   3.455   5.723   0.061  0.2761  0.0412  0.2535
 1114SOL    HW213107   3.355   5.600   0.024 -1.0576  0.6839  1.6791
 1115SOL     OW13108   2.816   4.357   0.562 -0.0280 -0.0714 -0.5364
 1115SOL    HW113109   2.809   4.414   0.481 -0.7154 -1.0093 -1.1469
 1115SOL    HW213110   2.873   4.277   0.542  0.8292  0.3286  0.2751
 1116SOL     OW13111   4.882   1.587   0.212  0.2792  0.1180  0.2714
 1116SOL    HW113112   4.956   1.557   0.273 -0.0720 -0.7155  0.2912
 1116SOL    HW213113   4.853   1.679   0.238  1.2424  0.4199  0.3261
 1117SOL     OW13114   4.759   3.470   1.074 -0.0120  0.4088 -0.2862
 1117SOL    HW113115   4.842   3.524   1.091 -0.3691  1.4381 -1.7002
 1117SOL    HW213116   4.769   3.420   0.988 -0.2422 -0.6988  0.3289
 1118SOL     OW13117   2.402   4.150   1.612  0.1417  0.0117  0.0265
 1118SOL    HW113118   2.457   4.198   1.544  0.0561 -0.3983 -0.3351
 1118SOL    HW213119   2.453   4.071   1.647  0.1108  0.1113  0.2991
 1119SOL     OW13120   4.195   1.583   2.279 -0.0194 -0.2237 -0.6048
 1119SOL    HW113121   4.219   1.586   2.376 -1.8791 -0.5613 -0.1169
 1119SOL    HW213122   4.145   1.498   2.260 -1.4201  0.7857 -1.4432
 1120SOL     OW13123   2.134   9.572   1.933  0.0209  0.6796  0.0728
 1120SOL    HW113124   2.206   9.640   1.922 -1.8900  2.6042 -0.7033
 1120SOL    HW213125   2.072   9.600   2.006 -1.7458  0.6559 -1.3740
 1121SOL     OW13126   2.701   5.960   0.379  0.7083 -1.5807 -0.5897
 1121SOL    HW113127   2.707   5.906   0.295 -0.3253 -0.9237 -1.0934
 1121SOL    HW213128   2.788   6.006   0.396  0.2970 -0.0374 -2.4600
 1122SOL     OW13129   3.669   3.500   1.362 -0.0824  0.1153 -0.3067
 1122SOL    HW113130   3.629   3.591   1.353 -0.9406 -0.2597 -0.2888
 1122SOL    HW213131   3.758   3.508   1.408 -1.1755  0.7288  1.8104
 1123SOL     OW13132   3.802   2.182   0.639 -0.5211 -0.3744 -0.0707
 1123SOL    HW113133   3.716   2.146   0.678 -0.0912 -1.0803  0.2408
 1123SOL    HW213134   3.828   2.265   0.688 -1.1421 -0.0319 -0.3113
 1124SOL     OW13135   2.836   2.418   0.875  0.3119  0.4842 -0.0248
 1124SOL    HW113136   2.805   2.323   0.874 -0.4712  0.7307 -1.4170
 1124SOL    HW213137   2.869   2.443   0.784  0.4540  1.5588  0.3148
 1125SOL     OW13138   3.438   1.237   2.454 -0.6591  0.0486  0.1028
 1125SOL    HW113139   3.430   1.241   2.553  1.8597  0.1178  0.3321
 1125SOL    HW213140   3.421   1.144   2.422  0.7176 -0.4509  0.8263
 1126SOL     OW13141   3.182   1.873   1.752  0.2664  0.3336 -0.1992
 1126SOL    HW113142   3.101   1.847   1.698 -0.6703  1.3911  0.6638
 1126SOL    HW213143   3.199   1.971   1.742  0.2117  0.5067  1.2389
 1127SOL     OW13144   3.474   3.030   1.477 -0.9236 -0.5416  0.1902
 1127SOL    HW113145   3.569   3.030   1.446 -0.8201  0.0627  0.4980
 1127SOL    HW213146   3.468   2.988   1.567 -0.8938 -0.2704  0.3205
 1128SOL     OW13147   2.663   5.613   2.572 -0.1048 -0.0603 -0.0810
 1128SOL    HW113148   2.676   5.654   2.482  0.9818 -0.7591 -0.2467
 1128SOL    HW213149   2.681   5.682   2.643  0.2156  0.1634 -0.3787
 1129SOL     OW13150   2.536   1.133   0.085 -0.6793 -0.0864 -0.2384
 1129SOL    HW113151   2.550   1.227   0.116  0.4773 -0.7227  1.2142
 1129SOL    HW213152   2.624   1.091   0.062 -1.0197 -1.3517  0.7087
 1130SOL     OW13153   3.096   9.580   1.329 -0.1002 -0.7281  0.5813
 1130SOL    HW113154   3.111   9.529   1.414  2.7076 -1.6078 -0.3774
 1130SOL    HW213155   3.161   9.656   1.324 -1.4001  0.3781 -0.0197
 1131SOL     OW13156   4.593   2.239   0.404 -0.4641 -0.4668 -0.1113
 1131SOL    HW113157   4.591   2.271   0.499 -1.5502 -1.3517  0.1673
 1131SOL    HW213158   4.687   2.241   0.371 -0.1666  0.4952  0.7651
 1132SOL     OW13159   2.642   4.922   1.968 -0.1665  0.5139 -0.3433
 1132SOL    HW113160   2.712   4.938   2.037  0.9362 -0.4221 -1.2252
 1132SOL    HW213161   2.564   4.984   1.984 -0.2139 -0.1315  2.1017
 1133SOL     OW13162   2.721   8.528   0.792 -0.1580  0.0093 -0.1228
 1133SOL    HW113163   2.815   8.494   0.784  0.7794  1.8358  2.6396
 1133SOL    HW213164   2.668   8.467   0.851 -0.5604 -0.6854 -1.1868
 1134SOL     OW13165   3.466   9.219   1.570  0.5586 -0.3442 -0.0563
 1134SOL    HW113166   3.470   9.149   1.499  0.3002 -1.6219  1.1807
 1134SOL    HW213167   3.525   9.296   1.544  1.0501 -1.1257 -1.2975
 1135SOL     OW13168   2.974   1.378   1.311  0.3936  0.1262 -0.1416
 1135SOL    HW113169   3.068   1.412   1.314  0.7076 -0.7007 -0.6246
 1135SOL    HW213170   2.953   1.345   1.219 -0.7881  1.4786 -0.3817
 1136SOL     OW13171   4.847   1.837   0.536  0.2623  0.3202 -0.1654
 1136SOL    HW113172   4.855   1.855   0.438  0.2264  1.1505 -0.0173
 1136SOL    HW213173   4.764   1.878   0.572  0.7457  0.8145  0.3973
 1137SOL     OW13174   3.531   9.585   1.278 -0.2920 -0.0455 -0.1838
 1137SOL    HW113175   3.456   9.527   1.246 -0.9994 -0.2473  1.7897
 1137SOL    HW213176   3.511   9.681   1.258 -0.1101 -0.2671 -1.5024
 1138SOL     OW13177   2.508   9.468   2.143 -0.1755 -0.3730 -0.0080
 1138SOL    HW113178   2.605   9.467   2.117  0.2727 -1.5017  1.6267
 1138SOL    HW213179   2.457   9.407   2.082  0.3178 -0.5478 -0.2521
 1139SOL     OW13180   2.245   8.051   2.472  0.0824  0.0576 -0.1428
 1139SOL    HW113181   2.187   8.118   2.425 -0.0371 -0.0106 -0.0905
 1139SOL    HW213182   2.241   8.066   2.571 -0.7322 -0.6718 -0.0636
 1140SOL     OW13183   3.961   1.053   2.114 -0.0251 -0.0148  0.2454
 1140SOL    HW113184   4.052   1.048   2.075  0.5985 -0.5255  1.7367
 1140SOL    HW213185   3.893   1.028   2.045  1.1065 -1.6102 -0.3062
 1141SOL     OW13186   4.487   3.905   1.176 -0.3377 -0.3307  0.0801
 1141SOL    HW113187   4.390   3.885   1.185 -0.5822  0.8668  0.2193
 1141SOL    HW213188   4.534   3.886   1.262 -0.4893 -0.6598  0.0899
 1142SOL     OW13189   3.105   7.429   1.326 -0.6187 -0.3705 -0.2477
 1142SOL    HW113190   3.015   7.385   1.323 -0.1081 -1.4651  0.4127
 1142SOL    HW213191   3.146   7.426   1.235 -1.8105  1.3465 -0.8783
 1143SOL     OW13192   4.829   3.011   0.209 -0.4643  0.6158 -0.1480
 1143SOL    HW113193   4.875   2.940   0.155 -0.1354  1.7251 -1.3519
 1143SOL    HW213194   4.800   2.972   0.297  1.3694 -0.4985 -0.0132
 1144SOL     OW13195   4.297   4.809   0.047 -0.0174  0.5976  0.2425
 1144SOL    HW113196   4.344   4.723   0.031 -1.8695  0.3484 -4.7144
 1144SOL    HW213197   4.364   4.884   0.047  1.1845 -0.4568  0.9730
 1145SOL     OW13198   2.908   2.948   1.232 -0.0953 -0.2177  0.0987
 1145SOL    HW113199   2.905   2.966   1.331  1.0686  0.9719 -0.0665
 1145SOL    HW213200   2.938   2.854   1.216  1.6838  0.1966  0.8645
 1146SOL     OW13201   3.876   4.508   1.161  0.0094 -0.1687  0.8475
 1146SOL    HW113202   3.976   4.516   1.168  0.2589 -1.8804 -0.4116
 1146SOL    HW213203   3.836   4.512   1.253  1.0499  2.5292  1.2214
 1147SOL     OW13204   2.524   5.040   2.318  0.6215  0.7757  0.1400
 1147SOL    HW113205   2.601   4.987   2.355  1.6076  2.3134  0.3311
 1147SOL    HW213206   2.517   5.127   2.366 -1.4566  0.5263  0.3287
 1148SOL     OW13207   2.305   5.428   1.686  0.1460  0.2158 -0.2725
 1148SOL    HW113208   2.357   5.506   1.720 -0.5467  0.1776  0.8731
 1148SOL    HW213209   2.324   5.348   1.742  0.4880 -0.3355 -1.1556
 1149SOL     OW13210   3.671   9.379   0.928 -0.0112 -0.6048 -0.1051
 1149SOL    HW113211   3.593   9.396   0.867 -0.2289 -0.9842  0.0666
 1149SOL    HW213212   3.637   9.356   1.019  0.2783 -2.4043 -0.4386
 1150SOL     OW13213   3.087   8.760   1.453  0.0371  0.1251 -0.8983
 1150SOL    HW113214   3.184   8.780   1.459 -0.1914  0.8620  0.3104
 1150SOL    HW213215   3.034   8.844   1.460 -0.7662 -0.4714  0.4554
 1151SOL     OW13216   4.353   3.684   0.550  0.4324 -0.0935  0.3208
 1151SOL    HW113217   4.283   3.615   0.569  1.3920 -1.2040 -0.1101
 1151SOL    HW213218   4.427   3.676   0.617 -0.4404  1.9120  1.5500
 1152SOL     OW13219   2.667   0.987   0.609 -0.3095 -0.1309  0.8758
 1152SOL    HW113220   2.591   0.924   0.596 -0.9722  0.7294  0.5641
 1152SOL    HW213221   2.652   1.070   0.555  1.3870 -0.4201 -0.0564
 1153SOL     OW13222   4.214   2.314   0.274  0.7111  0.1139 -0.2246
 1153SOL    HW113223   4.228   2.330   0.176  1.4672 -0.6567 -0.2429
 1153SOL    HW213224   4.301   2.316   0.322  0.3493  0.4215  0.4331
 1154SOL     OW13225   2.945   8.975   0.169 -0.4982  0.3185 -0.1852
 1154SOL    HW113226   2.950   9.004   0.264  0.5896 -0.0658 -0.1137
 1154SOL    HW213227   2.856   9.000   0.130 -1.6976 -1.2437  1.4862
 1155SOL     OW13228   3.256   1.649   1.918  0.8946  0.6195  0.7494
 1155SOL    HW113229   3.256   1.725   1.854  0.7913  0.7392  0.8912
 1155SOL    HW213230   3.338   1.652   1.974  1.2150  0.2474  0.3081
 1156SOL     OW13231   3.759   2.726   2.124 -0.2685  0.0809 -0.3294
 1156SOL    HW113232   3.758   2.700   2.028 -0.3670 -0.4456 -0.1895
 1156SOL    HW213233   3.846   2.699   2.165 -0.4425 -0.1938 -0.1388
 1157SOL     OW13234   2.466   0.501   0.498  0.1493  0.0367  0.0610
 1157SOL    HW113235   2.404   0.424   0.484 -0.1842  0.1949  0.6323
 1157SOL    HW213236   2.487   0.510   0.596  0.9287  0.0978 -0.1080
 1158SOL     OW13237   2.154   9.769   1.187 -0.9352 -0.0869 -0.1483
 1158SOL    HW113238   2.101   9.830   1.247  0.4106  2.2601 -1.2634
 1158SOL    HW213239   2.185   9.821   1.107  0.7888 -2.1187 -0.8162
 1159SOL     OW13240   2.757   3.991   1.828 -0.5201 -0.2275 -0.1986
 1159SOL    HW113241   2.680   3.931   1.806  0.2355 -1.0622 -0.6191
 1159SOL    HW213242   2.815   3.946   1.895 -0.3774  0.3842  0.0885
 1160SOL     OW13243   2.808   4.075   1.291  0.1940  0.8057  0.2419
 1160SOL    HW113244   2.854   4.163   1.286 -0.8500  1.2530 -2.3588
 1160SOL    HW213245   2.844   4.014   1.220 -0.2392 -0.3010  0.9559
 1161SOL     OW13246   4.314   2.587   1.732 -0.0702 -0.1960 -0.4678
 1161SOL    HW113247   4.270   2.676   1.721 -0.1228 -0.2266 -0.5050
 1161SOL    HW213248   4.277   2.523   1.665 -0.5674 -0.4497  0.0476
 1162SOL     OW13249   4.732   2.447   1.992 -0.1057  0.1027  0.0867
 1162SOL    HW113250   4.700   2.527   1.942  1.7238  0.2512 -0.8788
 1162SOL    HW213251   4.659   2.413   2.052 -1.6852  1.0396 -1.2857
 1163SOL     OW13252   3.105   2.706  -0.010 -0.5263 -0.3124  0.2215
 1163SOL    HW113253   3.131   2.654   0.071 -0.6479 -0.6904  0.0175
 1163SOL    HW213254   3.186   2.752  -0.047  0.1059 -2.4223 -1.0924
 1164SOL     OW13255   4.517   3.267   0.911 -0.1729  0.0200 -0.9525
 1164SOL    HW113256   4.607   3.303   0.889  0.3121  0.7596  2.0700
 1164SOL    HW213257   4.449   3.307   0.848  1.2517  1.2166 -1.7596
 1165SOL     OW13258   3.164   5.740   0.784 -0.0340 -0.3333  0.2527
 1165SOL    HW113259   3.217   5.796   0.720 -1.7104 -1.3599 -2.1239
 1165SOL    HW213260   3.204   5.649   0.791 -0.6065 -0.6398 -0.3874
 1166SOL     OW13261   4.104   3.572   0.595  0.5197 -0.8018 -0.4712
 1166SOL    HW113262   4.072   3.577   0.689  1.7388  0.1569 -0.0998
 1166SOL    HW213263   4.099   3.477   0.563  0.5963 -1.2118  0.7322
 1167SOL     OW13264   3.346   7.670   0.649 -0.1661 -0.4030 -0.0745
 1167SOL    HW113265   3.339   7.570   0.652 -1.3396 -0.3602 -0.9258
 1167SOL    HW213266   3.320   7.708   0.738 -0.8714 -0.7994 -0.1102
 1168SOL     OW13267   3.573   1.987   1.770  0.4888  0.0219 -0.2981
 1168SOL    HW113268   3.605   2.060   1.710  0.4737  0.2745 -0.0001
 1168SOL    HW213269   3.525   2.026   1.848 -1.3797 -0.3898 -1.2136
 1169SOL     OW13270   3.635   8.614   0.401  0.8377 -0.6017 -0.2306
 1169SOL    HW113271   3.714   8.669   0.430  0.0020  0.8057 -0.5503
 1169SOL    HW213272   3.590   8.658   0.323 -1.7648  0.0235  1.5391
 1170SOL     OW13273   3.484   8.956   1.455  0.6019 -0.4997 -0.1413
 1170SOL    HW113274   3.404   8.996   1.411  0.9939 -0.6020 -0.9495
 1170SOL    HW213275   3.455   8.880   1.513  0.0694 -0.2870 -0.1294
 1171SOL     OW13276   4.427   3.721   2.359 -0.1041  0.5776  0.0173
 1171SOL    HW113277   4.340   3.725   2.310 -0.5279  0.0322  0.7318
 1171SOL    HW213278   4.412   3.740   2.456  0.3559 -1.0698  0.4188
 1172SOL     OW13279   4.299   2.049   2.064 -0.0727 -0.5916  0.5023
 1172SOL    HW113280   4.348   2.009   2.142 -1.3051  1.7553  2.5440
 1172SOL    HW213281   4.206   2.070   2.091 -1.1528 -1.5822 -2.2698
 1173SOL     OW13282   3.033   1.440   0.036  0.0382  0.5335  0.5030
 1173SOL    HW113283   3.126   1.469   0.013 -0.3371  1.0940 -0.3470
 1173SOL    HW213284   3.031   1.340   0.046  0.6182  0.4633 -0.0360
 1174SOL     OW13285   2.809   7.532   0.516 -0.2764 -0.2401  0.1289
 1174SOL    HW113286   2.864   7.453   0.489 -0.3542 -0.3795  0.3789
 1174SOL    HW213287   2.850   7.615   0.477  1.1591 -0.1281  1.8014
 1175SOL     OW13288   3.745   0.504   1.294 -0.5526 -0.3994  0.5069
 1175SOL    HW113289   3.812   0.471   1.227 -0.4610  1.6107 -0.4406
 1175SOL    HW213290   3.743   0.604   1.291 -1.7435 -0.3582  2.3655
 1176SOL     OW13291   2.733   5.078   0.029 -0.1473 -0.1627  0.5565
 1176SOL    HW113292   2.697   5.170   0.013 -0.6090 -0.3422  0.5369
 1176SOL    HW213293   2.830   5.083   0.052 -0.2960  0.3649  1.0642
 1177SOL     OW13294   3.679   2.245   1.641 -0.0729 -0.2126 -0.3810
 1177SOL    HW113295   3.676   2.180   1.565  0.9272 -0.9015  0.1677
 1177SOL    HW213296   3.772   2.276   1.656 -0.4539  0.8842 -0.2406
 1178SOL     OW13297   3.525   5.230   1.067  0.0415  0.7650  0.2874
 1178SOL    HW113298   3.481   5.143   1.089  2.3797 -0.0517  1.9246
 1178SOL    HW213299   3.517   5.248   0.969 -0.7061 -1.1313 -0.0174
 1179SOL     OW13300   2.506   6.827   0.011  0.1395 -0.2585  0.9088
 1179SOL    HW113301   2.547   6.811   0.101  0.1631 -0.2305  0.9028
 1179SOL    HW213302   2.484   6.924   0.001  0.5382 -0.1883  0.7107
 1180SOL     OW13303   2.950   0.378   0.905  0.7604 -0.1414 -0.5849
 1180SOL    HW113304   2.974   0.374   1.002  1.4293  1.4512 -0.6789
 1180SOL    HW213305   3.001   0.308   0.855  1.9195  0.3450 -0.0938
 1181SOL     OW13306   3.453   3.545   0.460  0.3717 -0.1623  0.1189
 1181SOL    HW113307   3.411   3.605   0.528  1.1088  0.7441 -0.2116
 1181SOL    HW213308   3.383   3.485   0.421 -0.1772 -0.2298  1.1957
 1182SOL     OW13309   4.196   3.730   2.230 -0.2481 -0.1777  0.0709
 1182SOL    HW113310   4.200   3.786   2.148  1.2920 -0.0195  0.2424
 1182SOL    HW213311   4.109   3.746   2.277  0.1970  2.1531  0.1761
 1183SOL     OW13312   3.428   0.317   0.801  0.9799 -0.4285  0.3364
 1183SOL    HW113313   3.396   0.223   0.813  2.2317 -0.7217  1.3809
 1183SOL    HW213314   3.383   0.356   0.720 -1.5627 -1.0269  1.3929
 1184SOL     OW13315   2.393   9.264   1.998  0.0526 -0.2883  0.0001
 1184SOL    HW113316   2.332   9.274   1.920  0.0165  0.0614  0.0708
 1184SOL    HW213317   2.431   9.171   2.000 -1.9744 -1.1342  1.0263
 1185SOL     OW13318   3.119  10.184   0.804 -0.0412  0.1355  0.1158
 1185SOL    HW113319   3.196  10.121   0.795 -2.0034 -2.0885 -1.7651
 1185SOL    HW213320   3.130  10.259   0.739  0.5199 -0.1994 -0.1837
 1186SOL     OW13321   3.350   5.576   0.681  0.0141 -0.1837 -0.2798
 1186SOL    HW113322   3.418   5.534   0.740  0.9364  1.4834 -0.1188
 1186SOL    HW213323   3.366   5.547   0.586 -0.9605 -2.2076  0.1705
 1187SOL     OW13324   3.262   9.432   1.166 -0.0185  0.4123 -0.0561
 1187SOL    HW113325   3.196   9.490   1.212  0.5754  1.3677 -0.3993
 1187SOL    HW213326   3.250   9.440   1.067  1.2789  1.3736 -0.1425
 1188SOL     OW13327   2.892   3.947   1.556  0.2048 -0.0916  0.1346
 1188SOL    HW113328   2.867   3.989   1.469  1.7252  1.2843  0.3364
 1188SOL    HW213329   2.922   4.017   1.620 -0.1022 -1.1806  1.5135
 1189SOL     OW13330   3.252   2.511   2.070 -0.2817  0.1441  0.7561
 1189SOL    HW113331   3.252   2.605   2.035  0.6703 -0.0914  0.1197
 1189SOL    HW213332   3.173   2.499   2.130 -1.8792  0.5969 -1.1796
 1190SOL     OW13333   2.427   9.831   2.093 -0.0795 -0.2828 -0.1985
 1190SOL    HW113334   2.423   9.752   2.154  1.5679 -2.2135 -2.4750
 1190SOL    HW213335   2.409   9.802   1.999  0.9012  1.9926 -1.1386
 1191SOL     OW13336   3.258   2.310   2.551  0.1191 -0.1930 -0.7539
 1191SOL    HW113337   3.281   2.213   2.560  0.4106 -0.0393  0.2201
 1191SOL    HW213338   3.312   2.363   2.616  0.3343  0.6832 -1.6328
 1192SOL     OW13339   3.422   1.350   1.636  0.0557  0.2421  0.1614
 1192SOL    HW113340   3.344   1.400   1.600 -0.4417 -1.3426 -1.0535
 1192SOL    HW213341   3.494   1.346   1.567  0.2665 -0.3182  0.4057
 1193SOL     OW13342   3.531   8.464   1.388  0.2563 -0.1800  0.0670
 1193SOL    HW113343   3.463   8.505   1.448 -2.1300  0.9043 -3.2708
 1193SOL    HW213344   3.614   8.521   1.387 -0.1632  0.4667  1.2967
 1194SOL     OW13345   2.705   9.095   0.099 -0.2046  0.1370 -0.3513
 1194SOL    HW113346   2.699   9.145   0.185  1.4242  2.1399 -1.3374
 1194SOL    HW213347   2.701   9.160   0.023  1.0859 -1.3310 -1.7038
 1195SOL     OW13348   3.809   8.779   0.531 -0.0634 -0.5520  0.3402
 1195SOL    HW113349   3.898   8.758   0.491  0.3622 -1.0118  1.5129
 1195SOL    HW213350   3.820   8.804   0.627 -1.2129 -0.7490  0.5331
 1196SOL     OW13351   2.843   8.042   0.492 -0.0421  0.0978 -0.0599
 1196SOL    HW113352   2.775   8.110   0.520 -0.4671 -0.7946  1.0982
 1196SOL    HW213353   2.922   8.088   0.451  0.0121  1.3222  1.4119
 1197SOL     OW13354   3.360   9.279   0.384 -0.2285 -0.0452 -0.3693
 1197SOL    HW113355   3.391   9.251   0.293  0.6063 -0.4507  0.0301
 1197SOL    HW213356   3.337   9.198   0.437  0.4175  0.1203  0.1694
 1198SOL     OW13357   3.714   4.995   1.433  0.1845 -0.6552  0.1943
 1198SOL    HW113358   3.694   4.912   1.381 -0.3667 -0.4218  0.0265
 1198SOL    HW213359   3.659   4.995   1.517  0.5700 -0.7054  0.4508
 1199SOL     OW13360   3.953   1.647   0.012  0.0551  0.6180  0.0400
 1199SOL    HW113361   3.935   1.561   0.059 -0.7226  1.5189  1.4128
 1199SOL    HW213362   3.899   1.652  -0.072  0.5349 -0.4645 -0.3397
 1200SOL     OW13363   2.683   8.498   0.103  0.0820 -0.2541 -0.1719
 1200SOL    HW113364   2.633   8.584   0.119 -0.4650 -0.4419 -0.8521
 1200SOL    HW213365   2.718   8.497   0.010  2.7033  0.5485  0.7544
 1201SOL     OW13366   3.586   3.445   0.009  0.3209  0.0005  0.2159
 1201SOL    HW113367   3.595   3.377   0.081 -0.6133 -0.0957  0.2499
 1201SOL    HW213368   3.649   3.520   0.026  1.0752 -0.6585  0.3958
 1202SOL     OW13369   3.150   3.106   1.293 -0.0307  0.1431 -0.1953
 1202SOL    HW113370   3.216   3.031   1.301 -0.4374 -0.3516 -1.2961
 1202SOL    HW213371   3.063   3.070   1.259  0.7992  1.5897 -4.0907
 1203SOL     OW13372   2.726   8.900   1.664 -0.1782  0.1783  0.0173
 1203SOL    HW113373   2.722   8.996   1.689  2.0733  0.5058 -0.7918
 1203SOL    HW213374   2.703   8.889   1.568 -0.2452 -0.0893  0.0625
 1204SOL     OW13375   3.430  10.097   0.321  0.5843 -0.0353 -0.0493
 1204SOL    HW113376   3.440  10.040   0.240 -1.2439 -0.3776 -0.0699
 1204SOL    HW213377   3.426  10.193   0.294 -0.4442 -0.1779 -0.4128
 1205SOL     OW13378   4.201   1.713   1.625 -0.8686  0.2102 -0.6024
 1205SOL    HW113379   4.285   1.683   1.579 -0.1597  1.3057 -0.0535
 1205SOL    HW213380   4.216   1.719   1.723 -1.4981  0.7090 -0.5286
 1206SOL     OW13381   4.177   4.510   1.825 -0.2270  0.3127 -0.6200
 1206SOL    HW113382   4.250   4.450   1.856 -1.0038  0.2173  1.0759
 1206SOL    HW213383   4.212   4.573   1.755  2.0505  1.8144  1.7923
 1207SOL     OW13384   3.284   3.008   1.960 -0.6884  0.0298 -0.5271
 1207SOL    HW113385   3.304   3.054   2.046 -1.4758  0.2425 -0.4502
 1207SOL    HW213386   3.368   2.999   1.906  0.1419 -1.7144  1.0140
 1208SOL     OW13387   3.793   4.220   0.302  0.4168 -0.2366  0.1440
 1208SOL    HW113388   3.784   4.168   0.387  0.4416 -0.3330  0.0877
 1208SOL    HW213389   3.842   4.165   0.234  0.2286 -0.2337  0.0058
 1209SOL     OW13390   4.765   2.673   0.750  0.4094  0.5174  0.0445
 1209SOL    HW113391   4.777   2.599   0.685  1.7819  0.1199  0.7286
 1209SOL    HW213392   4.854   2.715   0.770  0.4099 -0.8571  3.3557
 1210SOL     OW13393   4.233   1.648   1.888  0.2758  0.2703  0.6913
 1210SOL    HW113394   4.295   1.570   1.885 -0.4493 -0.3419  1.3194
 1210SOL    HW213395   4.252   1.704   1.968  0.3780  0.3857  0.5866
 1211SOL     OW13396   3.488   9.255   1.163 -0.7774 -0.2439 -0.5113
 1211SOL    HW113397   3.394   9.287   1.170 -0.6769  0.6837 -2.9158
 1211SOL    HW213398   3.508   9.192   1.238 -2.7508  0.9123  1.0161
 1212SOL     OW13399   4.395   5.059   0.661 -0.6129  0.8156  0.4107
 1212SOL    HW113400   4.397   5.122   0.739 -1.7213 -1.2308  2.1277
 1212SOL    HW213401   4.469   5.083   0.598  0.8904  1.9516  2.5332
 1213SOL     OW13402   2.928   4.902   0.257  0.1085 -0.1483  1.0344
 1213SOL    HW113403   2.875   4.970   0.307 -0.1064 -1.3939  2.5003
 1213SOL    HW213404   2.867   4.846   0.202  0.3256  1.0879 -0.5105
 1214SOL     OW13405   3.097   0.676  -0.015 -0.4827  0.2787 -0.5705
 1214SOL    HW113406   3.053   0.758  -0.051 -0.9329  0.5079  0.4585
 1214SOL    HW213407   3.150   0.700   0.067 -0.8984 -0.5045 -0.0608
 1215SOL     OW13408   3.359   3.794   0.900 -0.6750  0.0268 -0.2689
 1215SOL    HW113409   3.440   3.742   0.929 -1.3114 -1.3566 -0.9333
 1215SOL    HW213410   3.313   3.746   0.826 -1.6809  1.1977 -0.4195
 1216SOL     OW13411   2.490   9.012   2.038 -0.0500 -0.1272 -0.0940
 1216SOL    HW113412   2.461   8.949   1.966  0.6195  0.8134 -1.2117
 1216SOL    HW213413   2.582   8.988   2.069  0.3865  0.5583 -0.8385
 1217SOL     OW13414   2.937   0.803   1.640  0.4656  0.1499  0.1155
 1217SOL    HW113415   3.007   0.736   1.664 -0.1163 -0.8359 -0.9050
 1217SOL    HW213416   2.849   0.775   1.676  0.4188  0.9293  0.6223
 1218SOL     OW13417   3.144   5.639   0.359 -0.7602  0.0691  0.4705
 1218SOL    HW113418   3.147   5.732   0.321  0.2722 -0.4393 -0.7274
 1218SOL    HW213419   3.061   5.593   0.325  0.3454 -0.5101 -1.5455
 1219SOL     OW13420   4.447   2.817   0.022  0.3887  0.0412 -0.4886
 1219SOL    HW113421   4.426   2.771  -0.065  0.4869 -1.6481  0.3581
 1219SOL    HW213422   4.365   2.819   0.079  0.6493  0.0037 -0.1120
 1220SOL     OW13423   3.820   9.828   2.380  0.3076 -0.6524  0.2386
 1220SOL    HW113424   3.838   9.841   2.283 -0.7145 -0.4682  0.0672
 1220SOL    HW213425   3.850   9.909   2.431 -1.2097  0.2039 -0.1988
 1221SOL     OW13426   2.927   1.889   0.163 -0.1955 -0.4819 -0.0372
 1221SOL    HW113427   2.909   1.948   0.084 -2.1478  0.4530  1.0736
 1221SOL    HW213428   2.851   1.824   0.174  0.3046 -0.9356  0.7940
 1222SOL     OW13429   3.054   3.048   0.227 -0.4288 -0.0183 -0.3379
 1222SOL    HW113430   2.997   2.979   0.183 -0.6917  0.2386 -0.3984
 1222SOL    HW213431   3.115   3.004   0.293 -2.4408 -0.0186  1.5557
 1223SOL     OW13432   4.289   2.636   0.491 -0.0412 -0.1396 -0.1553
 1223SOL    HW113433   4.313   2.634   0.588 -2.9474  1.7524  0.6673
 1223SOL    HW213434   4.340   2.566   0.442  0.1651 -2.2994  3.0414
 1224SOL     OW13435   3.660   3.801   0.913 -0.4022 -0.0487 -0.0807
 1224SOL    HW113436   3.677   3.791   0.815  1.2291  0.9673  0.0745
 1224SOL    HW213437   3.694   3.720   0.962  2.6845  1.2716  0.0556
 1225SOL     OW13438   4.117   1.819   2.197  0.7224  0.5037  0.3771
 1225SOL    HW113439   4.106   1.721   2.214 -2.5111  0.8175  0.2825
 1225SOL    HW213440   4.092   1.840   2.102 -0.4931  1.6822  0.9410
 1226SOL     OW13441   3.093  10.099   1.845 -0.6794  0.2959 -0.4933
 1226SOL    HW113442   3.036  10.163   1.897 -0.0083 -0.5291  1.3276
 1226SOL    HW213443   3.189  10.120   1.862 -0.3817 -2.9496  2.5187
 1227SOL     OW13444   3.986   2.293   1.613 -0.7012 -0.2817  0.1478
 1227SOL    HW113445   4.033   2.227   1.670  0.1428  0.1882  0.0075
 1227SOL    HW213446   4.049   2.329   1.544 -1.4183 -0.0621 -0.4021
 1228SOL     OW13447   3.901   1.401   0.138 -0.2439 -0.1443 -0.5841
 1228SOL    HW113448   3.944   1.344   0.067  0.6476  0.8243 -0.8435
 1228SOL    HW213449   3.925   1.364   0.228  0.6439  0.0295 -0.7406
 1229SOL     OW13450   3.200   1.077   1.438 -0.0387 -0.4517 -0.7711
 1229SOL    HW113451   3.245   1.150   1.490 -0.3330 -1.2832  0.6753
 1229SOL    HW213452   3.101   1.087   1.446 -0.0814 -1.7578  0.5215
 1230SOL     OW13453   2.865   0.505   1.574 -0.3285 -0.3575  0.3846
 1230SOL    HW113454   2.834   0.413   1.551  1.4461 -0.8048 -0.2873
 1230SOL    HW213455   2.804   0.545   1.643 -1.3055 -1.8940  0.4195
 1231SOL     OW13456   2.761   2.698   0.984  0.5849 -0.3467  0.3863
 1231SOL    HW113457   2.778   2.699   1.082  0.3991  0.3682  0.4178
 1231SOL    HW213458   2.776   2.606   0.948 -0.7273 -0.9419  1.3156
 1232SOL     OW13459   2.898   9.678   1.177 -0.0436 -0.2534 -0.3630
 1232SOL    HW113460   2.932   9.771   1.166 -0.2364 -0.2727 -1.2105
 1232SOL    HW213461   2.944   9.634   1.254  1.5702 -0.1533 -1.2397
 1233SOL     OW13462   2.407   6.575   2.584 -0.0509 -0.8834  0.5920
 1233SOL    HW113463   2.432   6.662   2.625 -1.4910  0.9984 -2.2873
 1233SOL    HW213464   2.489   6.520   2.569  1.5637  2.0474 -1.9526
 1234SOL     OW13465   3.275   9.238   2.035 -0.0257  0.0836  0.2578
 1234SOL    HW113466   3.266   9.299   2.114  1.1130 -1.4919  1.6531
 1234SOL    HW213467   3.232   9.150   2.056 -0.4879 -0.0502 -1.2285
 1235SOL     OW13468   3.536   8.216   1.537  0.0248  0.2182 -0.3583
 1235SOL    HW113469   3.550   8.305   1.493  0.9845  0.4739  0.4273
 1235SOL    HW213470   3.507   8.230   1.632  0.9177 -0.2872  0.0003
 1236SOL     OW13471   2.521   5.052   1.388  0.2522  0.5239 -0.0007
 1236SOL    HW113472   2.586   5.043   1.463 -0.7515 -1.1969  0.7022
 1236SOL    HW213473   2.491   4.961   1.359 -0.4661  1.2276 -1.5261
 1237SOL     OW13474   3.228   2.618   0.211 -0.1075  0.7852  0.1717
 1237SOL    HW113475   3.179   2.664   0.285  0.1819  2.5259 -0.6862
 1237SOL    HW213476   3.326   2.622   0.228 -0.1261 -0.3537  0.5616
 1238SOL     OW13477   2.975   7.002   0.727 -0.3681  0.2681 -0.0844
 1238SOL    HW113478   2.965   6.911   0.687  2.2268 -0.2958  0.4861
 1238SOL    HW213479   2.898   7.020   0.788 -0.9209 -1.5244 -0.2279
 1239SOL     OW13480   3.764   4.059   0.531  0.3595 -0.4267 -0.5321
 1239SOL    HW113481   3.680   4.006   0.546 -0.3427  0.9592  0.5085
 1239SOL    HW213482   3.833   4.030   0.597  0.4519 -1.0291 -0.8868
 1240SOL     OW13483   4.124   0.828   1.313 -0.1747  0.4494 -0.5253
 1240SOL    HW113484   4.097   0.870   1.400  1.0328 -1.0662  0.6053
 1240SOL    HW213485   4.153   0.900   1.249  0.7586  1.4559  0.9995
 1241SOL     OW13486   2.589   5.997   1.911 -0.1870 -0.5418 -0.9429
 1241SOL    HW113487   2.611   6.082   1.958 -0.2327 -0.3589 -1.2553
 1241SOL    HW213488   2.490   5.990   1.900 -0.2908 -1.2666  0.2789
 1242SOL     OW13489   2.753   8.113   2.557 -0.0254  0.0386 -0.0981
 1242SOL    HW113490   2.705   8.027   2.539  1.2591 -0.8332  0.5537
 1242SOL    HW213491   2.714   8.157   2.638 -1.5655  0.7476 -1.2169
 1243SOL     OW13492   3.070   2.410   0.240  0.0880  0.2418 -0.1251
 1243SOL    HW113493   3.000   2.451   0.298 -0.3049  1.4012 -1.3749
 1243SOL    HW213494   3.147   2.474   0.229  0.5268 -0.2934 -0.2110
 1244SOL     OW13495   3.181   9.740   2.643 -0.1952  0.0502 -0.1669
 1244SOL    HW113496   3.225   9.667   2.694 -0.8752 -0.3295 -0.1145
 1244SOL    HW213497   3.164   9.818   2.704 -1.5825 -0.6459  0.3559
 1245SOL     OW13498   3.226   7.945   1.399 -0.4514 -0.7098  0.2652
 1245SOL    HW113499   3.209   7.860   1.350  0.0068 -1.8305  2.0097
 1245SOL    HW213500   3.307   7.990   1.362 -0.4968 -1.2124 -0.4361
 1246SOL     OW13501   2.201   8.514   1.879 -0.1977  0.3878  0.4081
 1246SOL    HW113502   2.291   8.534   1.918 -0.6594 -0.5998  2.0808
 1246SOL    HW213503   2.132   8.567   1.927 -0.6506  0.1380  0.0355
 1247SOL     OW13504   2.713   3.478   0.810  0.2198 -0.3427  0.0687
 1247SOL    HW113505   2.621   3.515   0.804  0.9629  1.8964  1.9565
 1247SOL    HW213506   2.724   3.429   0.896  0.2922 -2.0922 -0.9125
 1248SOL     OW13507   2.797   8.008   2.003 -0.5686 -0.0507  0.0378
 1248SOL    HW113508   2.854   7.925   2.002  0.0069  0.3452 -0.6781
 1248SOL    HW213509   2.851   8.086   1.974 -1.1473  0.5650  0.6032
 1249SOL     OW13510   2.533   0.740   2.176 -0.8748 -0.0660  0.7932
 1249SOL    HW113511   2.537   0.690   2.090 -1.3354 -0.6346  1.0975
 1249SOL    HW213512   2.467   0.815   2.168 -1.8920 -0.9249  1.0638
 1250SOL     OW13513   2.614   6.720   1.912  0.1802  0.2447 -0.0886
 1250SOL    HW113514   2.565   6.745   1.995  2.4575  1.2959  0.9762
 1250SOL    HW213515   2.644   6.802   1.864 -1.0865 -0.3529 -1.9559
 1251SOL     OW13516   3.203   1.022   2.629  0.3082 -0.2701  0.8294
 1251SOL    HW113517   3.175   0.997   2.536 -0.0285  1.6891  0.3873
 1251SOL    HW213518   3.286   0.971   2.653  0.3474 -0.8658 -0.5039
 1252SOL     OW13519   3.393   0.320   2.124 -0.1976  0.2311  0.4257
 1252SOL    HW113520   3.323   0.358   2.185 -0.3500  0.2874  0.2185
 1252SOL    HW213521   3.475   0.299   2.177  0.2072  1.6694  0.3993
 1253SOL     OW13522   3.486   8.808   0.265 -0.4807  0.1437 -0.1081
 1253SOL    HW113523   3.487   8.854   0.176 -3.9546  2.5374  0.9689
 1253SOL    HW213524   3.551   8.854   0.326 -0.6436  0.7541 -0.3870
 1254SOL     OW13525   2.428   8.817   1.519  0.2113 -0.3479 -0.5713
 1254SOL    HW113526   2.506   8.817   1.456  0.6644  0.9290 -0.0324
 1254SOL    HW213527   2.395   8.911   1.532  1.4750 -0.2869  2.7380
 1255SOL     OW13528   2.463   9.529   0.305 -0.2518  0.7222  0.0235
 1255SOL    HW113529   2.554   9.559   0.337  0.6142  0.1272 -1.8315
 1255SOL    HW213530   2.393   9.585   0.349  1.1207  2.5469 -0.0255
 1256SOL     OW13531   2.747   2.620   0.028 -0.4695 -0.4042  0.6737
 1256SOL    HW113532   2.747   2.705   0.080  2.6592 -1.3914  2.4067
 1256SOL    HW213533   2.748   2.640  -0.070 -3.9049  1.4690  0.9471
 1257SOL     OW13534   3.520   4.858   2.362 -0.0239 -0.2880 -0.6722
 1257SOL    HW113535   3.590   4.875   2.431  0.4575  0.3902 -1.3155
 1257SOL    HW213536   3.497   4.944   2.316 -1.6247 -0.4321 -0.1367
 1258SOL     OW13537   2.709   6.953   1.828  0.8017 -0.1709  0.8595
 1258SOL    HW113538   2.616   6.987   1.818  1.0915  0.6408  0.8863
 1258SOL    HW213539   2.772   7.030   1.837  1.4931 -0.7089  0.6848
 1259SOL     OW13540   4.334   2.251   1.866 -0.1230  0.7183  0.4759
 1259SOL    HW113541   4.332   2.192   1.947  1.1258  1.0019  0.7287
 1259SOL    HW213542   4.423   2.242   1.821 -0.9633  0.2184 -1.1359
  10.00000  10.00000   2.86000
