chitosan Film  in water:acetic acid 2%
32655
    1CHTO  H203    1   5.919   6.026   2.930 -0.4203 -2.7108 -1.4569
    1CHTO   O82    2   5.917   5.980   3.012 -0.5064 -0.1905  0.0074
    1CHTO  C123    3   6.045   5.969   3.065  0.0573 -0.3001  0.4553
    1CHTO  H227    4   6.069   6.056   3.127  2.2838  1.0129 -2.1607
    1CHTO   O77    5   6.028   5.850   3.153 -0.0151 -0.0433  0.4322
    1CHTO  C118    6   6.144   5.821   3.241  0.3067  0.2517  0.1667
    1CHTO  H222    7   6.183   5.906   3.297  0.3051 -0.7142  1.6567
    1CHTO  C125    8   6.088   5.721   3.348  0.1048 -0.1280  0.4369
    1CHTO   O84    9   5.957   5.765   3.403 -0.4407  0.3376 -0.2158
    1CHTO  H205   10   5.908   5.688   3.426 -0.1025 -0.8515 -3.1158
    1CHTO  C114   11   6.250   5.768   3.143 -0.3872  0.4621  0.5077
    1CHTO  H218   12   6.207   5.690   3.081  1.4019 -0.4099  0.3290
    1CHTO  C116   13   6.289   5.879   3.041 -0.0028  0.6151  0.2518
    1CHTO  H220   14   6.342   5.967   3.084 -0.2289  0.9542 -0.1567
    1CHTO   O79   15   6.377   5.827   2.943 -0.0589 -0.2720 -0.2208
    1CHTO  H201   16   6.436   5.897   2.923  0.0228 -0.2293  0.1643
    1CHTO  C120   17   6.164   5.939   2.962  0.2471 -0.1300  0.5683
    1CHTO  H224   18   6.133   5.870   2.882  3.6168  0.1918 -1.1140
    1CHTO   N21   19   6.193   6.072   2.896 -0.6605 -0.1387  0.2109
    1CHTO  H211   20   6.294   6.067   2.858 -0.7847  0.5563 -0.2214
    1CHTO  H212   21   6.122   6.089   2.817  0.8236  0.2379 -1.0756
    1CHTO   O75   22   6.361   5.726   3.217  0.1809  0.1700 -0.2707
    1CHTO  C112   23   6.420   5.583   3.185 -0.4922 -0.1938  0.5646
    1CHTO  H216   24   6.403   5.562   3.078  1.1530  1.3141 -0.0110
    1CHTO   O73   25   6.357   5.488   3.270  0.0919  0.0063 -0.1292
    1CHTO  C113   26   6.392   5.353   3.236  0.3572 -0.4155  0.5249
    1CHTO  H217   27   6.368   5.339   3.129  2.4956 -0.3936  0.0239
    1CHTO  C124   28   6.299   5.255   3.309 -0.1650  0.6523 -0.7094
    1CHTO   O83   29   6.326   5.229   3.447 -0.3061 -0.0413 -0.0069
    1CHTO  H204   30   6.417   5.227   3.469  0.0478 -3.1959 -1.4985
    1CHTO  C109   31   6.543   5.331   3.259 -0.5849  0.2290  0.1274
    1CHTO  H213   32   6.564   5.345   3.366  0.5635 -0.8237  0.0447
    1CHTO  C110   33   6.627   5.434   3.175 -0.0258 -0.0956  0.4508
    1CHTO  H214   34   6.625   5.420   3.067 -2.3941  1.0927  0.3115
    1CHTO   O78   35   6.766   5.407   3.210  0.2283 -0.3477 -0.2707
    1CHTO  H200   36   6.827   5.463   3.165 -1.9180  2.2113 -0.1270
    1CHTO  C111   37   6.574   5.575   3.208  0.0841  0.2742  0.0880
    1CHTO  H215   38   6.596   5.595   3.314  3.0216  1.8419 -0.7640
    1CHTO   N19   39   6.648   5.679   3.130  0.2525  0.0323  0.4463
    1CHTO  H207   40   6.696   5.742   3.203  1.9304 -0.1238 -0.5064
    1CHTO  H208   41   6.734   5.636   3.080 -0.2443 -0.4637  0.0049
    1CHTO   O74   42   6.565   5.194   3.223  0.2508 -0.2769  0.0579
    1CHTO  C115   43   6.659   5.102   3.331  0.1899 -0.3712  0.6222
    1CHTO  H219   44   6.703   5.169   3.405 -0.2867  0.1357  0.4529
    1CHTO   O76   45   6.567   5.006   3.415 -0.5028 -0.2305 -0.0131
    1CHTO  C122   46   6.490   4.912   3.337 -0.2093 -0.5341  0.1214
    1CHTO  H226   47   6.401   4.963   3.300 -0.2070 -0.3761  0.3283
    1CHTO  C126   48   6.430   4.798   3.434 -0.2097 -0.6156 -0.1721
    1CHTO   O85   49   6.354   4.697   3.370 -0.2665  0.2216 -0.1595
    1CHTO  H206   50   6.409   4.621   3.362  1.1124  1.0942  0.7802
    1CHTO  C121   51   6.572   4.845   3.225  1.3714 -0.1883 -0.1876
    1CHTO  H225   52   6.553   4.736   3.233 -0.4346  0.1120 -0.0669
    1CHTO   O81   53   6.516   4.879   3.100  0.0791 -0.2023 -0.5026
    1CHTO  H202   54   6.533   4.968   3.077 -2.2986  0.6233  0.7477
    1CHTO  C119   55   6.720   4.877   3.232 -0.0936 -0.2505  0.6643
    1CHTO  H223   56   6.753   4.827   3.323  0.9069 -1.3497 -0.2972
    1CHTO  C117   57   6.771   5.023   3.252  0.2877 -0.5374 -0.2366
    1CHTO  H221   58   6.776   5.080   3.159  1.4038  0.8013  0.6168
    1CHTO   N20   59   6.911   5.034   3.309 -0.1253  0.2223 -0.0726
    1CHTO  H209   60   6.971   4.958   3.261 -1.4248  0.4711 -2.1526
    1CHTO  H210   61   6.951   5.131   3.282 -0.7495  0.2621 -0.8527
    1CHTO   O80   62   6.796   4.812   3.129 -0.4350  0.1626  0.2583
    1CHTO  C103   63   6.806   4.650   3.110 -0.2839 -0.0350 -0.1257
    1CHTO  H190   64   6.807   4.598   3.206 -1.7391 -1.3335 -0.7940
    1CHTO  C101   65   6.708   4.574   3.015 -0.4212  0.2440  0.0163
    1CHTO  H188   66   6.679   4.632   2.927  0.0420  1.0261  0.3775
    1CHTO   O68   67   6.588   4.547   3.083  0.0962 -0.0166 -0.2985
    1CHTO  H168   68   6.547   4.629   3.105  0.4735 -0.2310  1.2902
    1CHTO   C99   69   6.776   4.434   2.963  0.3992 -0.2135 -0.0877
    1CHTO  H186   70   6.788   4.376   3.057 -1.1357 -0.4797 -0.0423
    1CHTO   N17   71   6.679   4.356   2.877 -0.2411 -0.0732  0.8060
    1CHTO  H174   72   6.710   4.253   2.883  0.3558  0.1441  1.5048
    1CHTO  H175   73   6.682   4.390   2.774 -0.0461 -0.5977  0.6382
    1CHTO   C97   74   6.918   4.459   2.908  0.2853 -0.6002 -0.2244
    1CHTO  H184   75   6.920   4.524   2.819 -0.1747 -1.1056 -0.6036
    1CHTO   O64   76   6.994   4.516   3.016  0.1425  0.1431  0.2092
    1CHTO  C104   77   6.955   4.647   3.055 -0.2807  0.2973 -1.0315
    1CHTO  H191   78   6.965   4.722   2.976 -0.7475  0.7202 -0.6928
    1CHTO  C108   79   7.050   4.686   3.167 -0.0442  0.4636 -0.1981
    1CHTO   O71   80   7.035   4.615   3.290 -0.1195  0.3886  0.3376
    1CHTO  H171   81   7.103   4.636   3.351 -0.2088 -2.8273  1.6401
    1CHTO   O62   82   6.988   4.332   2.890 -0.1735  0.4033  0.1038
    1CHTO   C91   83   7.115   4.328   2.824 -0.3272 -0.1348 -0.2039
    1CHTO  H178   84   7.141   4.428   2.788 -0.0754  0.0886  0.5906
    1CHTO   C92   85   7.111   4.237   2.695  0.1253 -0.3045 -0.7240
    1CHTO  H179   86   7.027   4.267   2.630 -0.0211  3.4122  1.0660
    1CHTO   O66   87   7.225   4.262   2.608 -0.6303  0.0132 -0.3098
    1CHTO  H166   88   7.214   4.351   2.581  2.1543  0.6466  0.3948
    1CHTO   C93   89   7.104   4.090   2.727 -0.1308  1.0828 -0.0386
    1CHTO  H180   90   7.132   4.034   2.637  1.3710  1.2498  0.3186
    1CHTO   N16   91   6.969   4.045   2.754 -0.4445  0.1565 -0.3197
    1CHTO  H172   92   6.903   4.124   2.788 -0.1744  0.3902 -0.3368
    1CHTO  H173   93   6.971   3.963   2.824 -1.0685 -0.1938 -0.7070
    1CHTO   C94   94   7.204   4.052   2.843  0.0773  0.0593  0.0256
    1CHTO  H181   95   7.150   4.029   2.935 -2.2224 -0.1604 -1.3521
    1CHTO   O61   96   7.296   4.162   2.869  0.2692 -0.0908 -0.0350
    1CHTO   C95   97   7.229   4.280   2.923 -0.4187  0.2097 -0.9453
    1CHTO  H182   98   7.181   4.252   3.017 -0.4198  3.5062  0.0893
    1CHTO  C106   99   7.338   4.395   2.949 -0.1191 -0.0305 -0.3917
    1CHTO   O69  100   7.457   4.342   3.008  0.0213  0.3326 -0.1772
    1CHTO  H169  101   7.500   4.410   3.056  2.9642  0.5456 -2.9414
    1CHTO   O63  102   7.285   3.919   2.804  0.5874  0.2433 -0.1561
    1CHTO   C96  103   7.438   3.904   2.869  0.1934  0.2170  0.2695
    1CHTO  H183  104   7.433   3.923   2.976  0.5785  1.4883  0.0578
    1CHTO   C98  105   7.549   3.995   2.816  0.0054  0.4196  0.3695
    1CHTO  H185  106   7.516   4.100   2.811 -0.8752  0.1214 -0.1887
    1CHTO   O67  107   7.663   3.993   2.907 -0.4993  0.1224 -0.1914
    1CHTO  H167  108   7.639   3.998   2.997 -0.5669 -0.5072 -0.1713
    1CHTO  C102  109   7.597   3.957   2.674  0.3626  0.5233 -0.4801
    1CHTO  H189  110   7.693   4.007   2.654  0.7147  0.3909  0.8374
    1CHTO   N18  111   7.508   4.003   2.561  0.3776  0.3738 -0.0059
    1CHTO  H176  112   7.511   4.111   2.555 -2.4027  0.4983 -0.1132
    1CHTO  H177  113   7.540   3.964   2.465 -0.9883 -0.6637 -0.0483
    1CHTO  C105  114   7.626   3.805   2.661  0.3005 -0.7670  0.5056
    1CHTO  H192  115   7.655   3.773   2.561  1.8034 -0.2660  0.7831
    1CHTO   O65  116   7.524   3.713   2.711  0.0265  0.0991 -0.3345
    1CHTO  C100  117   7.471   3.748   2.844 -0.6774 -0.1321 -0.6583
    1CHTO  H187  118   7.376   3.693   2.854 -1.2788  0.6923 -1.7952
    1CHTO  C107  119   7.564   3.688   2.953  0.0925  0.3847  0.8011
    1CHTO   O70  120   7.525   3.558   2.989 -0.2619  0.2485 -0.1583
    1CHTO  H170  121   7.564   3.541   3.072 -2.5394 -0.9843  0.7220
    1CHTO   O57  122   7.773   3.788   2.752  0.3134 -0.6394 -0.6288
    1CHTO   C85  123   7.883   3.726   2.686 -0.6070 -0.0050 -0.0363
    1CHTO  H157  124   7.885   3.766   2.583 -1.2839 -0.3458 -0.1809
    1CHTO   C83  125   7.854   3.574   2.658  0.1566  0.0209 -0.1175
    1CHTO  H155  126   7.783   3.572   2.576 -0.7164 -0.9963  0.6461
    1CHTO   O56  127   7.780   3.517   2.771 -0.0190 -0.4860 -0.0043
    1CHTO  H135  128   7.768   3.424   2.770 -2.0041 -0.2576 -0.3147
    1CHTO   C81  129   7.979   3.493   2.619  0.7464  0.8683 -0.3048
    1CHTO  H153  130   8.025   3.541   2.533  0.1493  1.4314 -0.3177
    1CHTO   N14  131   7.951   3.352   2.583  0.1854  0.2073  0.6477
    1CHTO  H141  132   8.034   3.309   2.531 -0.5226 -0.5467  0.1179
    1CHTO  H142  133   7.865   3.359   2.519  1.0390  0.0337 -0.5399
    1CHTO   C79  134   8.084   3.508   2.736 -0.4056 -0.2718 -0.6536
    1CHTO  H151  135   8.169   3.447   2.708  2.2248  1.7909  2.5145
    1CHTO   O52  136   8.123   3.646   2.757 -0.3142 -0.2647  0.0949
    1CHTO   C86  137   8.019   3.749   2.759  0.4216 -0.3877  0.2293
    1CHTO  H158  138   8.004   3.755   2.869  0.9042 -0.4472  0.2974
    1CHTO   C90  139   8.086   3.884   2.712  0.2197  0.3056 -0.4633
    1CHTO   O60  140   8.198   3.927   2.799  0.2349  0.0701 -0.5185
    1CHTO  H138  141   8.204   4.020   2.800  2.4515 -0.0339  1.5919
    1CHTO   O50  142   8.032   3.467   2.865 -0.3679  0.4559 -0.2491
    1CHTO   C73  143   8.081   3.397   2.979 -0.5752  0.7700 -0.0160
    1CHTO  H145  144   8.167   3.331   2.961 -0.7150  0.4820  0.3674
    1CHTO   C74  145   7.957   3.310   3.029  0.2377 -0.5496  0.5403
    1CHTO  H146  146   7.925   3.234   2.955  0.2012  1.0847 -1.1651
    1CHTO   O54  147   8.013   3.230   3.140 -0.3471 -0.0664  0.0017
    1CHTO  H133  148   7.946   3.167   3.158 -0.3692 -0.6771 -2.0635
    1CHTO   C75  149   7.837   3.400   3.080  0.5308  0.1245  0.4160
    1CHTO  H147  150   7.796   3.451   2.992 -1.3124 -0.6387  0.8026
    1CHTO   N13  151   7.724   3.321   3.130 -0.1267 -0.8928  0.1404
    1CHTO  H139  152   7.695   3.337   3.232  0.5463  0.7343  0.0845
    1CHTO  H140  153   7.633   3.336   3.074  0.6068 -2.4408 -1.5150
    1CHTO   C76  154   7.884   3.506   3.181 -0.7066 -0.5304  0.0044
    1CHTO  H148  155   7.905   3.457   3.276  0.0162  1.4495  0.8889
    1CHTO   O49  156   8.002   3.589   3.126 -0.4039  0.1884  0.1811
    1CHTO   C77  157   8.111   3.502   3.090  0.2801 -0.0335 -0.9063
    1CHTO  H149  158   8.129   3.446   3.181 -0.2207 -0.1228 -0.8626
    1CHTO   C88  159   8.239   3.582   3.074 -0.2051  0.2644  0.0742
    1CHTO   O58  160   8.262   3.651   3.191 -0.3395 -0.2040 -0.2423
    1CHTO  H136  161   8.340   3.626   3.236 -0.4950 -0.0090  0.1407
    1CHTO   O51  162   7.773   3.598   3.192  0.2269 -0.3640  0.2917
    1CHTO   C78  163   7.764   3.670   3.334  0.9951  0.4282  0.0483
    1CHTO  H150  164   7.861   3.664   3.388 -0.5160 -0.1120  2.7443
    1CHTO   C80  165   7.657   3.609   3.423 -0.0959 -0.1559 -0.2726
    1CHTO  H152  166   7.570   3.593   3.355  1.2205 -0.4229 -1.9422
    1CHTO   O55  167   7.707   3.480   3.467  0.0924 -0.4808 -0.0585
    1CHTO  H134  168   7.639   3.430   3.509  2.8117 -3.7328  0.6446
    1CHTO   C84  169   7.616   3.703   3.548 -0.0965 -0.0384  0.0214
    1CHTO  H156  170   7.698   3.695   3.619  0.3184 -3.2388 -0.7116
    1CHTO   N15  171   7.492   3.660   3.616  0.6432  0.3294 -0.2331
    1CHTO  H143  172   7.458   3.567   3.574  0.3286 -0.0615  0.8673
    1CHTO  H144  173   7.509   3.646   3.721 -0.9678 -1.9707 -0.2352
    1CHTO   C87  174   7.594   3.847   3.507  0.0857  0.6775  0.1116
    1CHTO  H159  175   7.498   3.867   3.459 -0.2921  1.0871  1.0043
    1CHTO   O53  176   7.712   3.883   3.429  0.5268  0.7844 -0.0000
    1CHTO   C82  177   7.727   3.818   3.303 -0.0376  0.2375  0.1314
    1CHTO  H154  178   7.640   3.822   3.238 -0.1269 -1.3282  0.1343
    1CHTO   C89  179   7.844   3.902   3.233 -0.0392  0.2396 -0.4325
    1CHTO   O59  180   7.861   3.883   3.092  0.6730 -0.6079  0.2779
    1CHTO  H137  181   7.784   3.888   3.038 -0.6437  0.9257  2.2425
    1CHTO   O45  182   7.604   3.961   3.653  0.3572  0.1357  0.1574
    1CHTO   C67  183   7.533   4.079   3.641  0.1314 -0.3860  0.9423
    1CHTO  H124  184   7.532   4.111   3.537 -0.9210  2.8612  1.9017
    1CHTO   C65  185   7.384   4.081   3.687  0.0560  0.0079 -0.1225
    1CHTO  H122  186   7.351   3.977   3.683  0.7328 -0.2506  0.7863
    1CHTO   O44  187   7.302   4.151   3.595  0.0366 -0.1511  0.2097
    1CHTO  H102  188   7.319   4.243   3.598 -1.4266  0.1458 -0.0105
    1CHTO   C63  189   7.368   4.131   3.833 -0.0201  0.2257  0.7253
    1CHTO  H120  190   7.433   4.072   3.898  0.9966  0.9360  0.3744
    1CHTO   N11  191   7.236   4.106   3.897 -0.1327  0.2139 -0.0240
    1CHTO  H108  192   7.167   4.143   3.825 -0.2226 -0.5597 -0.3378
    1CHTO  H109  193   7.216   4.008   3.936 -1.1755 -0.1679 -1.5063
    1CHTO   C61  194   7.413   4.284   3.832 -0.5192 -0.7095  0.4673
    1CHTO  H118  195   7.440   4.312   3.935  0.4665  1.7440 -0.4342
    1CHTO   O40  196   7.532   4.311   3.746  0.5191 -0.1494  0.3169
    1CHTO   C68  197   7.618   4.192   3.707 -0.0347  0.0290 -0.2906
    1CHTO  H125  198   7.660   4.152   3.802 -0.8415 -0.0165  0.0519
    1CHTO   C72  199   7.735   4.249   3.621 -0.9150  0.1852  0.1412
    1CHTO   O48  200   7.827   4.329   3.697  0.4677  0.5175 -0.5240
    1CHTO  H105  201   7.843   4.284   3.777 -0.8842 -0.3216 -0.7205
    1CHTO   O38  202   7.307   4.371   3.774  0.0218  0.5306 -0.0825
    1CHTO   C55  203   7.292   4.507   3.820  0.1806  0.6797 -0.5712
    1CHTO  H112  204   7.388   4.554   3.845  0.0287  0.2906  0.7873
    1CHTO   C56  205   7.198   4.510   3.948  0.0003  0.4332  0.1419
    1CHTO  H113  206   7.110   4.450   3.920  0.4926 -0.6462  0.8880
    1CHTO   O42  207   7.266   4.443   4.052 -0.5803 -0.1465 -0.2548
    1CHTO  H100  208   7.203   4.404   4.110  0.1974 -1.3780 -0.2126
    1CHTO   C57  209   7.167   4.660   3.982  0.2883  0.2494  0.7592
    1CHTO  H114  210   7.263   4.695   4.020 -0.0592 -0.5018  2.3534
    1CHTO   N10  211   7.070   4.667   4.095  0.5104 -0.1267 -0.5567
    1CHTO  H106  212   7.130   4.676   4.184 -0.3120  0.0390 -0.0147
    1CHTO  H107  213   7.007   4.580   4.107 -0.0156  0.1873 -1.0056
    1CHTO   C58  214   7.126   4.746   3.859 -0.5725  0.0051 -0.1746
    1CHTO  H115  215   7.030   4.705   3.821 -0.6779 -1.7671  1.9003
    1CHTO   O37  216   7.227   4.728   3.759  0.1321  0.2553 -0.2298
    1CHTO   C59  217   7.234   4.591   3.700  0.6685 -0.5848 -0.2655
    1CHTO  H116  218   7.136   4.562   3.663  0.1999 -1.8788  1.9234
    1CHTO   C70  219   7.328   4.601   3.579 -0.0906  0.0686 -0.1495
    1CHTO   O46  220   7.345   4.479   3.508  0.0719 -0.5439 -0.9949
    1CHTO  H103  221   7.332   4.503   3.419 -1.9486  0.6870 -0.4041
    1CHTO   O39  222   7.121   4.901   3.909  0.0585 -0.1928 -0.2824
    1CHTO   C60  223   7.084   4.997   3.809 -0.6170  0.6786 -0.4934
    1CHTO  H117  224   7.102   4.966   3.706  0.5636 -2.3658  0.5739
    1CHTO   C62  225   6.928   5.038   3.813 -0.3868 -0.4645 -0.3678
    1CHTO  H119  226   6.875   4.947   3.778  1.5670 -2.6143  2.0358
    1CHTO   O43  227   6.887   5.081   3.943  0.4066 -0.1008  0.1701
    1CHTO  H101  228   6.795   5.066   3.954  0.3797 -0.1567 -0.1203
    1CHTO   C66  229   6.892   5.155   3.700 -0.2290 -0.4713  0.0171
    1CHTO  H123  230   6.910   5.113   3.601 -1.7689 -0.2322 -0.3787
    1CHTO   N12  231   6.749   5.197   3.703  0.7360 -0.3616  0.0760
    1CHTO  H110  232   6.703   5.161   3.794 -0.7447  1.7725  0.2218
    1CHTO  H111  233   6.694   5.153   3.622 -0.1035 -0.4360  0.6749
    1CHTO   C69  234   6.990   5.273   3.727  0.8814  0.1495 -0.4210
    1CHTO  H126  235   6.970   5.319   3.826 -1.1470 -0.5425 -0.4852
    1CHTO   O41  236   7.126   5.228   3.732 -0.0922  0.4007  0.5320
    1CHTO   C64  237   7.164   5.132   3.833  0.3967  0.4234  0.4517
    1CHTO  H121  238   7.144   5.166   3.937 -0.0697 -0.4420  0.6526
    1CHTO   C71  239   7.315   5.107   3.819 -0.5072  0.2304  0.4190
    1CHTO   O47  240   7.361   5.008   3.918  0.2262 -0.0091  0.2725
    1CHTO  H104  241   7.325   4.927   3.888 -1.0663  0.3935  0.7121
    1CHTO   O34  242   6.975   5.383   3.614 -0.0847  0.2132 -0.0884
    1CHTO   C49  243   7.016   5.517   3.566 -0.1902  0.4313 -0.5556
    1CHTO   H91  244   7.123   5.503   3.555 -0.1289 -1.1702  1.6769
    1CHTO   C47  245   6.992   5.616   3.679  0.3333  0.2347 -0.0562
    1CHTO   H89  246   7.022   5.716   3.641  0.3591  0.0967 -0.3950
    1CHTO   O33  247   7.070   5.590   3.798  0.0677  0.4485 -0.0530
    1CHTO   H70  248   7.158   5.587   3.765  0.8914 -0.4005  2.1598
    1CHTO   C45  249   6.832   5.632   3.704  0.6475 -0.3553 -0.4923
    1CHTO   H87  250   6.789   5.531   3.711  0.0475 -0.1039 -0.4536
    1CHTO    N8  251   6.799   5.711   3.827 -0.2151 -0.0201  0.7412
    1CHTO   H75  252   6.696   5.708   3.858 -0.5331 -0.0195 -0.2991
    1CHTO   H76  253   6.833   5.811   3.804  0.7934 -0.0283  2.1475
    1CHTO   C43  254   6.768   5.691   3.573  0.2807 -0.7132  0.0570
    1CHTO   H85  255   6.661   5.693   3.592  0.7273  1.0802  2.5294
    1CHTO   O29  256   6.800   5.607   3.459  0.0672  0.1192  0.1517
    1CHTO   C50  257   6.941   5.571   3.440 -0.3019  0.4865  0.1269
    1CHTO   H92  258   6.945   5.481   3.377 -1.8307 -1.4035  2.6421
    1CHTO   C54  259   7.011   5.677   3.358 -0.1975 -0.7770 -0.3230
    1CHTO   O36  260   7.135   5.626   3.301 -0.1359  0.0471 -0.1361
    1CHTO   H72  261   7.199   5.619   3.370  0.6097  1.3941 -0.6679
    1CHTO   O27  262   6.811   5.828   3.550 -0.0648 -0.0508 -0.1722
    1CHTO   C37  263   6.781   5.933   3.452 -0.1804 -0.4683 -0.1368
    1CHTO   H79  264   6.800   5.904   3.348  1.2125  0.7151 -0.2356
    1CHTO   C38  265   6.627   5.965   3.449  0.3375  0.2746 -0.1176
    1CHTO   H80  266   6.592   5.997   3.549 -0.5313 -3.2110  0.7718
    1CHTO   O31  267   6.568   5.841   3.421 -0.0673 -0.2516  0.3653
    1CHTO   H68  268   6.529   5.810   3.501 -0.5011  0.7339  0.5423
    1CHTO   C39  269   6.595   6.070   3.341 -0.4650 -0.2341 -0.4755
    1CHTO   H81  270   6.617   6.016   3.249  1.2606  0.3181 -0.4203
    1CHTO    N7  271   6.450   6.121   3.337  0.7793 -0.3456 -0.1853
    1CHTO   H73  272   6.406   6.112   3.239 -1.1260 -1.9152  0.7862
    1CHTO   H74  273   6.437   6.211   3.395  1.6342 -0.4740  0.2178
    1CHTO   C40  274   6.690   6.191   3.342  0.5833 -0.1971  0.0097
    1CHTO   H82  275   6.651   6.258   3.418  3.9943 -0.7800  2.4232
    1CHTO   O26  276   6.829   6.157   3.372  0.7395 -0.0736  0.5533
    1CHTO   C41  277   6.857   6.070   3.483  0.3329 -0.0590 -0.4283
    1CHTO   H83  278   6.811   6.121   3.569 -1.2580 -2.7314  0.3786
    1CHTO   C52  279   7.003   6.062   3.514  0.0416 -0.1689  0.0441
    1CHTO   O35  280   7.036   5.980   3.634 -0.2942  0.2768 -0.6359
    1CHTO   H71  281   7.001   6.021   3.710  1.4840  0.3560  0.1731
    1CHTO   O28  282   6.695   6.255   3.211 -0.2290 -0.7735  0.2787
    1CHTO   C42  283   6.805   6.274   3.124 -0.0439 -0.0053 -1.0841
    1CHTO   H84  284   6.864   6.182   3.131  1.0105  0.7901  0.7900
    1CHTO   C44  285   6.912   6.392   3.154  0.7619 -0.0804  0.1231
    1CHTO   H86  286   6.853   6.483   3.150 -0.5200 -0.9356 -0.8093
    1CHTO   O32  287   6.977   6.364   3.277  0.3790 -0.7177 -0.8466
    1CHTO   H69  288   7.004   6.274   3.287 -1.5914 -1.0994  1.6946
    1CHTO   C48  289   7.029   6.409   3.045  0.4656  0.3312 -0.1284
    1CHTO   H90  290   7.106   6.336   3.066  0.2784  0.4866  1.1401
    1CHTO    N9  291   7.111   6.531   3.061  0.1030 -0.2303 -0.0754
    1CHTO   H77  292   7.137   6.548   3.164  0.8636  2.2582 -0.6278
    1CHTO   H78  293   7.060   6.618   3.021 -2.1630 -2.0523 -1.2632
    1CHTO   C51  294   6.962   6.390   2.896 -0.3643 -0.5961 -0.7994
    1CHTO   H93  295   6.916   6.486   2.874  2.8974  1.1874 -0.0779
    1CHTO   O30  296   6.875   6.278   2.893  1.2434  0.1468  0.0421
    1CHTO   C46  297   6.759   6.292   2.981 -0.4630  0.0462 -0.2391
    1CHTO   H88  298   6.712   6.389   2.964  0.3241  0.2687 -1.2104
    1CHTO   C53  299   6.654   6.185   2.945  0.1583  0.1684 -0.0512
    1CHTO   O72  300   6.697   6.051   2.957  0.1676 -0.5941 -0.9001
    1CHTO  H199  301   6.763   6.046   3.024 -1.0240  0.9045  0.4421
    1CHTO   O22  302   7.063   6.372   2.795  0.1533 -0.0062 -0.3261
    1CHTO   C31  303   7.053   6.418   2.662 -0.5747 -0.6512 -0.3634
    1CHTO   H59  304   6.945   6.430   2.641 -0.6623 -1.0326 -0.1409
    1CHTO   C29  305   7.121   6.558   2.633 -0.4933 -0.1648 -0.2914
    1CHTO   H57  306   7.220   6.551   2.681 -0.3426  0.2942 -0.5356
    1CHTO   O21  307   7.043   6.653   2.707  0.1741  0.1059  0.1995
    1CHTO   H37  308   7.091   6.718   2.755  0.4219 -0.5582  0.8684
    1CHTO   C27  309   7.134   6.587   2.477  0.3346 -0.2133 -0.4745
    1CHTO   H55  310   7.042   6.639   2.446  1.3394  2.2333  0.5248
    1CHTO    N5  311   7.243   6.682   2.457  0.3936 -0.5265 -0.3432
    1CHTO   H43  312   7.205   6.778   2.486  0.6438 -0.8985  1.2737
    1CHTO   H44  313   7.272   6.682   2.353  0.9770 -3.4917 -0.2245
    1CHTO   C25  314   7.158   6.460   2.379  0.7095  0.1977 -0.2894
    1CHTO   H53  315   7.259   6.417   2.392  0.3387 -1.3917 -2.4030
    1CHTO   O17  316   7.074   6.357   2.432 -0.1873  0.3455  0.4632
    1CHTO   C32  317   7.099   6.312   2.564  0.0379  0.4818  0.5378
    1CHTO   H60  318   7.205   6.292   2.574  0.3929  1.5816 -0.6975
    1CHTO   C36  319   7.030   6.178   2.584  0.2415  0.3674 -0.8934
    1CHTO   O25  320   7.089   6.074   2.504  0.1518 -0.3578  0.3709
    1CHTO   H40  321   7.134   6.015   2.560  0.8195 -0.4768 -0.2796
    1CHTO   O15  322   7.123   6.482   2.233 -0.0915 -0.0869  0.1973
    1CHTO   C19  323   7.158   6.429   2.098 -0.8247  0.3197 -0.3155
    1CHTO   H47  324   7.139   6.516   2.033 -0.4678 -0.0907 -0.9688
    1CHTO   C20  325   7.310   6.392   2.074  0.5948 -0.0359 -0.7210
    1CHTO   H48  326   7.340   6.310   2.141  1.0647  0.6615 -0.0710
    1CHTO   O19  327   7.399   6.508   2.089  0.2989  0.5240 -0.0578
    1CHTO   H35  328   7.361   6.594   2.096 -0.0366  0.5027 -1.3692
    1CHTO   C21  329   7.327   6.335   1.928 -0.3839 -0.0304  0.3279
    1CHTO   H49  330   7.306   6.416   1.859  1.1828  0.3315  0.2427
    1CHTO    N4  331   7.459   6.271   1.892 -0.1057 -1.1377 -0.3692
    1CHTO   H41  332   7.540   6.342   1.899 -1.0569 -0.0831  0.1455
    1CHTO   H42  333   7.472   6.191   1.964 -1.5099 -3.5459 -2.7048
    1CHTO   C22  334   7.209   6.233   1.894 -0.1383 -0.4907 -0.1733
    1CHTO   H50  335   7.225   6.141   1.950 -1.5113 -1.3807 -1.2234
    1CHTO   O14  336   7.082   6.285   1.922  0.8184  0.1215  0.1339
    1CHTO   C23  337   7.063   6.315   2.058 -0.4900  0.0893  0.5093
    1CHTO   H51  338   7.074   6.228   2.123 -0.2610  1.4172  2.2890
    1CHTO   C34  339   6.915   6.354   2.069 -0.1186 -0.2787  0.1257
    1CHTO   O23  340   6.865   6.337   2.200 -0.4259 -0.0142 -0.1320
    1CHTO   H38  341   6.881   6.409   2.258  0.0156  0.2394 -0.5695
    1CHTO   O16  342   7.196   6.215   1.757 -0.0929  0.0586 -0.4601
    1CHTO   C24  343   7.120   6.087   1.700  0.3328  0.2350 -0.1101
    1CHTO   H52  344   7.065   6.035   1.778  1.9202 -1.5704 -0.1706
    1CHTO   C26  345   7.226   5.993   1.640 -0.6191  0.2843 -0.3928
    1CHTO   H54  346   7.290   6.056   1.574  1.3689 -1.7930 -0.5030
    1CHTO   O20  347   7.307   5.937   1.747  0.7560 -0.0368 -0.3048
    1CHTO   H36  348   7.304   5.982   1.829  1.5409 -0.5195 -0.0111
    1CHTO   C30  349   7.160   5.877   1.554  0.3156  1.0108  0.2425
    1CHTO   H58  350   7.123   5.800   1.623 -0.5904  0.3345 -0.9824
    1CHTO    N6  351   7.266   5.814   1.474  0.2884  0.5804  0.2425
    1CHTO   H45  352   7.322   5.882   1.412  1.9056 -0.8762  0.0770
    1CHTO   H46  353   7.228   5.737   1.409  0.5664  0.3123  0.3932
    1CHTO   C33  354   7.035   5.930   1.469 -0.3702 -0.6656  0.5846
    1CHTO   H61  355   7.064   5.993   1.383 -0.3498 -0.7926  0.4990
    1CHTO   O18  356   6.945   6.007   1.552  0.0827  0.1917  0.2003
    1CHTO   C28  357   7.014   6.128   1.591  0.7228  0.0589 -0.3055
    1CHTO   H56  358   7.067   6.164   1.503 -0.3384 -0.9363 -1.3750
    1CHTO   C35  359   6.909   6.231   1.637 -0.0431 -0.0837 -0.1888
    1CHTO   O24  360   6.852   6.180   1.756 -0.7640  0.1842 -0.2030
    1CHTO   H39  361   6.826   6.090   1.753  0.6182 -0.2183 -0.6047
    1CHTO    O9  362   6.967   5.820   1.414 -0.3047  1.0038 -0.3779
    1CHTO   C13  363   6.846   5.849   1.336 -1.0328  0.0623 -0.6021
    1CHTO   H26  364   6.844   5.953   1.298  1.7698 -0.2875 -1.8265
    1CHTO   C11  365   6.717   5.818   1.429 -0.3392 -0.1323 -0.0636
    1CHTO   H24  366   6.698   5.904   1.495 -0.5662 -0.3183  0.1137
    1CHTO    O8  367   6.738   5.704   1.506 -0.1517  0.2851  0.4716
    1CHTO    H3  368   6.687   5.702   1.585  2.1110  0.9923  2.0205
    1CHTO    C9  369   6.592   5.809   1.338 -0.2412 -0.3811 -0.0566
    1CHTO   H22  370   6.592   5.900   1.276  1.4806 -0.6490 -0.4784
    1CHTO    N2  371   6.463   5.804   1.408 -0.4131  0.5837 -0.5782
    1CHTO   H10  372   6.463   5.889   1.474  1.1664 -1.5571  2.2713
    1CHTO   H11  373   6.468   5.709   1.460  1.1866  1.0064  0.0648
    1CHTO    C7  374   6.615   5.691   1.236 -0.6516  0.1565 -0.0433
    1CHTO   H20  375   6.524   5.695   1.172 -1.4884 -1.4231  1.0077
    1CHTO    O4  376   6.725   5.723   1.153 -0.1202  0.0619 -0.4361
    1CHTO   C14  377   6.855   5.774   1.204  0.2194 -0.4661  0.3377
    1CHTO   H27  378   6.884   5.843   1.122 -0.4328 -0.8733 -0.2501
    1CHTO   C18  379   6.962   5.660   1.202 -0.0352 -0.3151  0.6205
    1CHTO   O13  380   7.089   5.720   1.177  0.1417  0.2950  0.1428
    1CHTO    H7  381   7.164   5.669   1.204  0.0355  0.9566  1.6813
    1CHTO    O2  382   6.633   5.553   1.298 -0.2708 -0.5389  0.1292
    1CHTO    C1  383   6.606   5.441   1.214 -0.4306  0.0171  0.2560
    1CHTO   H14  384   6.651   5.455   1.113  3.1754  2.0628  2.0439
    1CHTO    C2  385   6.452   5.407   1.204 -0.3278  0.0790 -0.2954
    1CHTO   H15  386   6.407   5.405   1.304 -0.8817 -0.7052 -0.5500
    1CHTO    O6  387   6.391   5.509   1.123  0.2465  0.8265  0.4517
    1CHTO    H1  388   6.407   5.495   1.032  1.7684  0.3016  0.7922
    1CHTO    C3  389   6.420   5.260   1.136  0.5890 -0.6010 -0.1890
    1CHTO   H16  390   6.449   5.262   1.030  1.5944 -0.9274  0.0753
    1CHTO    N1  391   6.276   5.220   1.132 -0.1022  0.3034 -0.2800
    1CHTO    H8  392   6.267   5.117   1.164 -2.2233  1.3937  2.8540
    1CHTO    H9  393   6.247   5.218   1.028  0.7086  1.2075 -0.5265
    1CHTO    C4  394   6.510   5.154   1.208 -1.0511 -0.5559  0.0185
    1CHTO   H17  395   6.480   5.143   1.312 -0.0198  1.3392  0.5198
    1CHTO    O1  396   6.650   5.193   1.194  0.1307 -0.5384  0.0603
    1CHTO    C5  397   6.678   5.313   1.276 -0.0109 -0.2412 -0.1220
    1CHTO   H18  398   6.641   5.296   1.377  1.2930 -0.8844  0.2495
    1CHTO   C16  399   6.833   5.332   1.283  0.1850  0.0083  0.1066
    1CHTO   O11  400   6.910   5.214   1.321  0.4950  0.3512  0.1667
    1CHTO    H5  401   6.866   5.175   1.394  1.5048  0.4633  0.8350
    1CHTO    O3  402   6.510   5.029   1.138 -0.2026  0.0094  0.0251
    1CHTO    C6  403   6.524   4.904   1.220  0.1432  0.0919  0.8734
    1CHTO   H19  404   6.531   4.908   1.329 -1.0594 -0.4675  0.9838
    1CHTO    C8  405   6.400   4.814   1.194 -0.2143 -0.2687 -0.4430
    1CHTO   H21  406   6.388   4.802   1.086 -0.6085  2.3807 -0.7180
    1CHTO    O7  407   6.276   4.886   1.242 -0.1615  0.2914 -0.0622
    1CHTO    H2  408   6.194   4.840   1.233 -0.5949  1.0202  0.1136
    1CHTO   C12  409   6.408   4.680   1.275 -0.0969 -0.4469 -0.3570
    1CHTO   H25  410   6.405   4.710   1.382  0.5078  1.1371 -0.7726
    1CHTO    N3  411   6.285   4.597   1.256  0.0057 -0.3419  0.1398
    1CHTO   H12  412   6.199   4.660   1.237 -0.1121 -0.6424 -0.3550
    1CHTO   H13  413   6.261   4.533   1.340  0.7944  1.8003  2.0397
    1CHTO   C15  414   6.546   4.612   1.244  0.0918 -0.3523 -0.6171
    1CHTO   H28  415   6.549   4.572   1.142 -0.6367  1.5437 -1.4147
    1CHTO   O10  416   6.579   4.493   1.344 -0.4598  0.3792 -0.4902
    1CHTO    H4  417   6.503   4.467   1.393  0.4341 -2.1042 -0.3159
    1CHTO    O5  418   6.652   4.705   1.257 -0.0011  0.2673 -0.0567
    1CHTO   C10  419   6.646   4.820   1.170  0.4035  0.0498 -0.4135
    1CHTO   H23  420   6.632   4.794   1.066  1.5723 -0.7971 -0.3611
    1CHTO   C17  421   6.781   4.891   1.192 -0.1134  0.5272 -0.4330
    1CHTO   O12  422   6.808   4.994   1.090 -0.1795  0.2185 -0.2970
    1CHTO    H6  423   6.763   5.071   1.119  2.2487  0.9870  1.7159
    2CHTO  H203  424   5.504   2.966   0.216  0.7598  0.6414  0.0645
    2CHTO   O82  425   5.430   3.023   0.208  0.0247 -0.2890  0.2095
    2CHTO  C123  426   5.431   3.095   0.082  0.6757 -0.3933 -0.5007
    2CHTO  H227  427   5.446   3.023   0.001 -1.9952 -0.4228 -0.9991
    2CHTO   O77  428   5.288   3.133   0.069  0.4319  0.1851  0.1274
    2CHTO  C118  429   5.254   3.207  -0.048  0.1387  0.1509 -0.3083
    2CHTO  H222  430   5.280   3.152  -0.140  1.0119 -1.0395  0.6426
    2CHTO  C125  431   5.101   3.227  -0.043 -0.2178 -0.4739  0.1211
    2CHTO   O84  432   5.039   3.102  -0.061 -0.3743 -0.1733  0.1700
    2CHTO  H205  433   5.063   3.068  -0.145  2.0335  1.5352  0.1123
    2CHTO  C114  434   5.328   3.344  -0.052  0.1837  0.3674  0.1955
    2CHTO  H218  435   5.296   3.406   0.032  0.0201  1.3642 -0.5906
    2CHTO  C116  436   5.486   3.320  -0.040  0.1930 -0.2550  0.4468
    2CHTO  H220  437   5.526   3.284  -0.137  3.1403  0.6970  1.2544
    2CHTO   O79  438   5.550   3.449  -0.018  0.7948  0.5716  0.0442
    2CHTO  H201  439   5.643   3.439  -0.018  0.6455 -1.2587  1.2649
    2CHTO  C120  440   5.515   3.226   0.087  0.2494 -0.1604  0.2492
    2CHTO  H224  441   5.488   3.281   0.179  0.3654  0.8526 -0.3230
    2CHTO   N21  442   5.660   3.190   0.103  0.1519 -0.3232  0.2260
    2CHTO  H211  443   5.682   3.100   0.047  0.3008 -0.6566  0.8185
    2CHTO  H212  444   5.719   3.273   0.068 -2.0764  0.8492 -0.8499
    2CHTO   O75  445   5.284   3.401  -0.176 -0.1963 -0.1347  0.5213
    2CHTO  C112  446   5.178   3.544  -0.150 -0.3096 -0.2174 -0.2098
    2CHTO  H216  447   5.159   3.550  -0.042  1.0858  1.2052 -0.0396
    2CHTO   O73  448   5.056   3.518  -0.222 -0.1577  0.4040 -0.2547
    2CHTO  C113  449   4.966   3.628  -0.207 -0.0026  0.0047  0.4311
    2CHTO  H217  450   4.969   3.652  -0.099  0.3168  2.8602 -0.1539
    2CHTO  C124  451   4.823   3.579  -0.241 -0.3658  0.3670  0.6431
    2CHTO   O83  452   4.741   3.523  -0.138  0.4856  0.0851  0.2428
    2CHTO  H204  453   4.670   3.579  -0.112 -0.4281 -0.5859 -0.7579
    2CHTO  C109  454   5.021   3.745  -0.289  0.3254 -0.3662  0.0181
    2CHTO  H213  455   5.022   3.712  -0.394 -3.9520 -3.2305  0.7448
    2CHTO  C110  456   5.170   3.792  -0.246 -0.0058 -1.0719  0.1076
    2CHTO  H214  457   5.159   3.854  -0.157 -0.3175  0.6626 -1.1104
    2CHTO   O78  458   5.228   3.872  -0.347 -0.1859 -0.1803 -0.2630
    2CHTO  H200  459   5.181   3.942  -0.388 -1.0263 -2.1273 -2.7263
    2CHTO  C111  460   5.254   3.663  -0.218 -0.8151 -0.2829  0.1474
    2CHTO  H215  461   5.280   3.622  -0.316 -2.4635  3.6179 -2.0547
    2CHTO   N19  462   5.382   3.692  -0.142 -0.6822  0.1361 -0.2038
    2CHTO  H207  463   5.409   3.614  -0.072  0.1784  0.8700  0.2852
    2CHTO  H208  464   5.369   3.787  -0.093 -3.1460 -0.5055  0.4842
    2CHTO   O74  465   4.932   3.860  -0.279  0.1801  0.5843 -0.0855
    2CHTO  C115  466   4.894   3.950  -0.413 -0.2164 -0.6546  0.4933
    2CHTO  H219  467   4.982   3.985  -0.465  0.6701 -2.6080  0.6181
    2CHTO   O76  468   4.808   3.875  -0.521 -0.0066 -1.0077 -0.2371
    2CHTO  C122  469   4.672   3.847  -0.494  0.1863  0.7919 -0.0148
    2CHTO  H226  470   4.678   3.764  -0.422  0.0710  0.1671 -0.7221
    2CHTO  C126  471   4.608   3.797  -0.619  0.2534 -0.2586  0.3068
    2CHTO   O85  472   4.670   3.684  -0.689  0.1077 -0.2658 -0.1347
    2CHTO  H206  473   4.685   3.609  -0.635  1.7762  1.3057  1.6500
    2CHTO  C121  474   4.590   3.970  -0.433  0.0360 -0.7091  0.3676
    2CHTO  H225  475   4.496   3.992  -0.488  1.3031  0.0737 -1.5175
    2CHTO   O81  476   4.549   3.943  -0.297 -0.5466  0.1467  0.3622
    2CHTO  H202  477   4.498   3.864  -0.298 -3.3574  1.9229 -0.9709
    2CHTO  C119  478   4.679   4.100  -0.429 -0.0694 -0.2300 -0.0198
    2CHTO  H223  479   4.714   4.117  -0.531 -0.5388 -0.3911 -0.2073
    2CHTO  C117  480   4.821   4.075  -0.357  0.3164 -0.3888 -0.1176
    2CHTO  H221  481   4.820   4.063  -0.248 -0.3682  0.4048 -0.0264
    2CHTO   N20  482   4.907   4.196  -0.364 -0.2086  0.5394 -0.6457
    2CHTO  H209  483   4.844   4.278  -0.396  1.9125  2.0620 -1.0159
    2CHTO  H210  484   4.990   4.174  -0.429 -0.9024  1.6235 -1.9533
    2CHTO   O80  485   4.598   4.230  -0.396  0.1294  0.4000  0.5077
    2CHTO  C103  486   4.562   4.315  -0.525 -0.0958  0.3424 -0.2821
    2CHTO  H190  487   4.653   4.322  -0.585 -0.2726  0.1256 -0.5762
    2CHTO  C101  488   4.443   4.258  -0.617 -0.1801  0.1826  0.3723
    2CHTO  H188  489   4.358   4.231  -0.554  0.3830  2.2949  2.0965
    2CHTO   O68  490   4.490   4.126  -0.683  0.2079  0.8264 -0.1156
    2CHTO  H168  491   4.418   4.067  -0.694 -0.4003  1.4290  0.5523
    2CHTO   C99  492   4.410   4.375  -0.722 -0.4066  0.0884 -0.9078
    2CHTO  H186  493   4.497   4.381  -0.791  1.1066  0.2544  0.9787
    2CHTO   N17  494   4.292   4.341  -0.814 -0.1324  0.0961 -0.2314
    2CHTO  H174  495   4.335   4.297  -0.903 -0.3579 -0.5405 -0.0325
    2CHTO  H175  496   4.226   4.269  -0.768 -0.3279 -0.1027 -0.8128
    2CHTO   C97  497   4.396   4.518  -0.658  0.0769  0.1656 -0.3209
    2CHTO  H184  498   4.305   4.516  -0.595 -0.1008  0.5604 -0.5607
    2CHTO   O64  499   4.512   4.548  -0.578 -0.4159 -0.0261 -0.3525
    2CHTO  C104  500   4.537   4.461  -0.467  0.2143 -0.3307  0.0150
    2CHTO  H191  501   4.457   4.463  -0.393  0.4482  1.2605  0.2600
    2CHTO  C108  502   4.661   4.515  -0.396 -0.2327 -0.2375  0.0938
    2CHTO   O71  503   4.630   4.636  -0.327 -0.1013 -0.8289  0.1077
    2CHTO  H171  504   4.707   4.681  -0.299 -1.0115  0.5512  0.4242
    2CHTO   O62  505   4.386   4.622  -0.754  0.3188 -0.3844  0.1085
    2CHTO   C91  506   4.301   4.732  -0.713  0.3074  0.0193  0.0417
    2CHTO  H178  507   4.220   4.687  -0.655  1.3602 -0.2052  1.3626
    2CHTO   C92  508   4.223   4.795  -0.832 -0.1023  0.1787  0.7191
    2CHTO  H179  509   4.179   4.712  -0.889 -0.6541  0.7135  0.3686
    2CHTO   O66  510   4.106   4.873  -0.789  0.5443 -0.1717 -0.1098
    2CHTO  H166  511   4.022   4.833  -0.803  0.3064 -0.1795  1.2628
    2CHTO   C93  512   4.307   4.893  -0.919 -0.6884 -0.3578 -0.0858
    2CHTO  H180  513   4.237   4.943  -0.986 -0.4234  0.9950  0.6359
    2CHTO   N16  514   4.398   4.830  -1.017 -0.6576 -0.0279 -0.1022
    2CHTO  H172  515   4.501   4.855  -0.999 -0.8373  0.3658  0.4102
    2CHTO  H173  516   4.367   4.869  -1.112  1.5223  1.1146 -0.3506
    2CHTO   C94  517   4.381   4.996  -0.826 -0.0895 -0.0475 -0.0989
    2CHTO  H181  518   4.490   4.992  -0.832  0.3617  4.0202  3.1130
    2CHTO   O61  519   4.349   4.977  -0.689 -0.2989  0.1483 -0.2972
    2CHTO   C95  520   4.385   4.844  -0.641 -0.5300 -0.6217  0.6759
    2CHTO  H182  521   4.490   4.825  -0.665 -0.4347  1.8156 -1.1089
    2CHTO  C106  522   4.369   4.845  -0.487 -0.5373 -0.2233 -0.7380
    2CHTO   O69  523   4.448   4.934  -0.420  0.3131 -0.2733  0.7288
    2CHTO  H169  524   4.406   5.018  -0.413  2.5093  1.2516 -3.0719
    2CHTO   O63  525   4.340   5.127  -0.853 -0.7373 -0.6316  0.0340
    2CHTO   C96  526   4.454   5.254  -0.842 -0.4202 -0.0280 -0.3776
    2CHTO  H183  527   4.553   5.214  -0.866  0.4044  1.0882  1.0734
    2CHTO   C98  528   4.466   5.317  -0.702  0.1402  0.4197  0.4964
    2CHTO  H185  529   4.365   5.321  -0.658 -0.1617 -0.3713 -0.1079
    2CHTO   O67  530   4.532   5.215  -0.620  0.2438  0.5500 -0.1787
    2CHTO  H167  531   4.487   5.201  -0.539  0.1230 -2.1240 -0.6626
    2CHTO  C102  532   4.542   5.461  -0.693  0.2792  0.3398  0.3229
    2CHTO  H189  533   4.648   5.439  -0.712  0.3401  0.5041  0.4728
    2CHTO   N18  534   4.533   5.527  -0.560  0.1424 -0.3884 -0.2437
    2CHTO  H176  535   4.579   5.624  -0.553  0.5288 -0.7660  3.0698
    2CHTO  H177  536   4.569   5.471  -0.475  0.5335  1.1224  0.6033
    2CHTO  C105  537   4.486   5.543  -0.813 -0.3802  0.4865 -0.4132
    2CHTO  H192  538   4.379   5.558  -0.798 -0.1637  1.1084  0.5923
    2CHTO   O65  539   4.502   5.473  -0.939  0.0209  0.1612 -0.1526
    2CHTO  C100  540   4.427   5.354  -0.958 -0.1600 -0.6893 -0.5341
    2CHTO  H187  541   4.322   5.386  -0.956 -0.7858 -2.7420  4.1201
    2CHTO  C107  542   4.454   5.301  -1.105 -0.6378  0.5964  0.2337
    2CHTO   O70  543   4.402   5.403  -1.189  0.0717 -0.0778  0.8886
    2CHTO  H170  544   4.441   5.485  -1.166  0.5177  0.2329 -0.9097
    2CHTO   O57  545   4.569   5.680  -0.828 -0.1566  0.6968 -0.1906
    2CHTO   C85  546   4.500   5.796  -0.871 -0.3656 -0.6091  0.1625
    2CHTO  H157  547   4.398   5.798  -0.828 -1.2735 -0.4612 -1.9762
    2CHTO   C83  548   4.473   5.773  -1.022 -0.5149  0.4934 -0.5937
    2CHTO  H155  549   4.395   5.697  -1.032  0.0462 -0.0016 -1.2925
    2CHTO   O56  550   4.590   5.714  -1.092 -0.4061  0.0131  0.4843
    2CHTO  H135  551   4.634   5.781  -1.139  2.3636 -2.2938 -0.3486
    2CHTO   C81  552   4.420   5.900  -1.093 -0.7626 -0.4836  0.3482
    2CHTO  H153  553   4.324   5.925  -1.049 -0.5245  0.0736  0.5581
    2CHTO   N14  554   4.382   5.871  -1.240  0.5132 -1.0652  0.2773
    2CHTO  H141  555   4.283   5.843  -1.270  1.3105  1.0930 -4.8890
    2CHTO  H142  556   4.421   5.938  -1.314 -0.7197  0.3850  0.9204
    2CHTO   C79  557   4.521   6.019  -1.068 -0.3873  0.0119  0.1704
    2CHTO  H151  558   4.482   6.103  -1.126 -0.6425  0.7391  1.3837
    2CHTO   O52  559   4.534   6.037  -0.921  0.0581  0.0791  0.2062
    2CHTO   C86  560   4.581   5.930  -0.846  0.4899  0.5364 -0.0107
    2CHTO  H158  561   4.687   5.914  -0.877  0.5010 -2.8898  1.6196
    2CHTO   C90  562   4.577   5.946  -0.695 -0.0678  0.7082  0.0542
    2CHTO   O60  563   4.652   6.062  -0.673  0.0575 -0.8995  0.4456
    2CHTO  H138  564   4.589   6.132  -0.678  0.8372 -0.3447 -2.1478
    2CHTO   O50  565   4.652   5.983  -1.125 -0.3280  0.1033  0.4243
    2CHTO   C73  566   4.755   6.061  -1.184  0.1817 -0.0152 -0.2951
    2CHTO  H145  567   4.718   6.162  -1.209  1.3224  0.4973 -0.0081
    2CHTO   C74  568   4.806   5.982  -1.309  0.3033  0.3449 -0.2227
    2CHTO  H146  569   4.728   5.966  -1.385 -0.0359 -1.4047  0.4771
    2CHTO   O54  570   4.900   6.076  -1.370 -0.3756 -0.1342 -0.2089
    2CHTO  H133  571   4.858   6.157  -1.392 -0.1603 -0.0976 -0.4800
    2CHTO   C75  572   4.876   5.848  -1.275 -0.2060 -0.1637  0.4255
    2CHTO  H147  573   4.805   5.770  -1.243 -0.4850 -0.5348 -1.0348
    2CHTO   N13  574   4.943   5.780  -1.393 -0.2084  0.6129 -0.2290
    2CHTO  H139  575   5.003   5.705  -1.345 -1.0584  1.8888  2.9692
    2CHTO  H140  576   5.003   5.845  -1.455  1.1281  0.2893  0.7168
    2CHTO   C76  577   4.979   5.864  -1.157  0.2641  0.6114 -0.3873
    2CHTO  H148  578   5.066   5.919  -1.192  3.3900 -1.7945  3.1716
    2CHTO   O49  579   4.919   5.941  -1.048 -0.1110 -0.1200 -0.6166
    2CHTO   C77  580   4.878   6.076  -1.086 -0.6028 -0.3330 -0.1050
    2CHTO  H149  581   4.955   6.131  -1.140 -0.5194 -1.4684 -1.1866
    2CHTO   C88  582   4.850   6.154  -0.957 -0.1092 -0.0763 -0.3323
    2CHTO   O58  583   4.817   6.313  -0.981 -0.6358 -0.0797 -0.3644
    2CHTO  H136  584   4.886   6.347  -1.034 -1.2830 -1.9113 -2.4475
    2CHTO   O51  585   5.005   5.723  -1.090  0.1279  0.3289 -0.8217
    2CHTO   C78  586   5.113   5.711  -0.964 -0.4061 -0.3411 -0.5472
    2CHTO  H150  587   5.152   5.812  -0.940 -1.4144 -0.1927  0.5211
    2CHTO   C80  588   5.227   5.616  -1.009 -0.4225 -0.2174 -0.8348
    2CHTO  H152  589   5.180   5.528  -1.059  0.7805 -0.9900 -0.6117
    2CHTO   O55  590   5.295   5.689  -1.114 -0.1100 -0.0190  0.2318
    2CHTO  H134  591   5.365   5.745  -1.085 -0.5429 -0.6130  2.4863
    2CHTO   C84  592   5.323   5.578  -0.885  0.3351  0.2054 -0.3231
    2CHTO  H156  593   5.371   5.667  -0.846  1.1252 -0.6403  0.6627
    2CHTO   N15  594   5.436   5.496  -0.932 -0.2228 -0.0464  0.1015
    2CHTO  H143  595   5.421   5.451  -1.027 -0.4568  3.3653 -1.5569
    2CHTO  H144  596   5.534   5.540  -0.929 -0.1243 -0.1048 -2.0784
    2CHTO   C87  597   5.234   5.512  -0.780 -0.5370  0.2202 -0.0018
    2CHTO  H159  598   5.188   5.424  -0.826  0.4713 -0.7215  0.7632
    2CHTO   O53  599   5.126   5.613  -0.733 -0.4578  0.2783 -0.2203
    2CHTO   C82  600   5.036   5.652  -0.843  0.2070 -0.3587  0.4796
    2CHTO  H154  601   4.976   5.565  -0.870 -1.0861  0.6263  0.1193
    2CHTO   C89  602   4.937   5.758  -0.790  0.3224  0.1386  0.2396
    2CHTO   O59  603   4.871   5.728  -0.669  0.4352 -0.2323 -0.0919
    2CHTO  H137  604   4.842   5.639  -0.663  1.6071 -0.5839  0.5949
    2CHTO   O45  605   5.315   5.475  -0.656 -0.4198  0.1188  0.2096
    2CHTO   C67  606   5.257   5.370  -0.583 -0.1417  0.0599  0.5075
    2CHTO  H124  607   5.154   5.405  -0.580  0.1014  0.7972  0.3801
    2CHTO   C65  608   5.258   5.227  -0.648 -0.1142  0.0648 -0.2712
    2CHTO  H122  609   5.342   5.214  -0.715  0.0734 -1.0199  0.1590
    2CHTO   O44  610   5.135   5.233  -0.727 -0.4289  0.1750  0.7685
    2CHTO  H102  611   5.096   5.148  -0.722  0.2891 -0.1942 -0.0112
    2CHTO   C63  612   5.269   5.105  -0.546  0.2500  0.8740  0.0802
    2CHTO  H120  613   5.372   5.079  -0.522  0.5713  1.2341 -0.8958
    2CHTO   N11  614   5.223   4.975  -0.596  0.0700  0.0838  0.0138
    2CHTO  H108  615   5.121   4.978  -0.629  0.3490 -0.9493 -1.0003
    2CHTO  H109  616   5.286   4.949  -0.679 -0.5694  0.1631 -0.4992
    2CHTO   C61  617   5.194   5.141  -0.416  0.1846  0.3383  0.3175
    2CHTO  H118  618   5.211   5.064  -0.339 -0.6181  1.4420  1.6159
    2CHTO   O40  619   5.243   5.270  -0.355  0.4285 -0.0835  0.2665
    2CHTO   C68  620   5.308   5.380  -0.434 -0.0533  0.1141  0.0961
    2CHTO  H125  621   5.417   5.361  -0.432 -0.0146  0.1947 -0.8327
    2CHTO   C72  622   5.279   5.520  -0.369  0.6184  0.0142  0.2376
    2CHTO   O48  623   5.322   5.546  -0.233  0.5279  0.4354  0.5567
    2CHTO  H105  624   5.241   5.566  -0.191 -0.2982 -0.6935 -0.4573
    2CHTO   O38  625   5.052   5.161  -0.447  0.0449  0.3550 -0.3846
    2CHTO   C55  626   4.959   5.163  -0.336  0.3087 -0.5849 -0.1969
    2CHTO  H112  627   5.011   5.199  -0.246  0.9270 -0.1642 -0.7157
    2CHTO   C56  628   4.893   5.026  -0.316  0.7076  0.1580  0.1524
    2CHTO  H113  629   4.839   5.013  -0.411  0.9348 -0.1212  0.0604
    2CHTO   O42  630   5.000   4.926  -0.311 -0.4843  0.0954  0.3156
    2CHTO  H100  631   5.057   4.930  -0.385 -1.8202 -1.5468 -0.8387
    2CHTO   C57  632   4.798   5.028  -0.194 -0.2542 -0.4650  0.3350
    2CHTO  H114  633   4.853   5.052  -0.103 -0.7202 -0.4718  0.6199
    2CHTO   N10  634   4.728   4.902  -0.159 -0.4653  0.1264 -0.0931
    2CHTO  H106  635   4.784   4.812  -0.180  0.3973  0.1327  2.0132
    2CHTO  H107  636   4.699   4.909  -0.055 -0.5275  0.1992 -0.1156
    2CHTO   C58  637   4.695   5.139  -0.219 -0.0206 -0.1585 -0.3632
    2CHTO  H115  638   4.627   5.107  -0.301 -0.3562  0.3123 -0.2677
    2CHTO   O37  639   4.753   5.267  -0.251 -0.5425  0.3517 -0.3048
    2CHTO   C59  640   4.842   5.264  -0.363  0.4911  0.0474  0.5309
    2CHTO  H116  641   4.795   5.228  -0.454 -0.6521  0.4233  0.9581
    2CHTO   C70  642   4.894   5.407  -0.391 -0.2012 -0.4694  0.4316
    2CHTO   O46  643   4.945   5.480  -0.278 -0.3627 -0.4925 -0.5377
    2CHTO  H103  644   4.881   5.464  -0.211  0.2901  1.9028  0.7338
    2CHTO   O39  645   4.601   5.171  -0.079 -0.0284 -0.7754 -0.7770
    2CHTO   C60  646   4.460   5.183  -0.103 -0.0768 -0.3384 -0.6427
    2CHTO  H117  647   4.442   5.160  -0.208 -1.1653 -1.4510 -0.2209
    2CHTO   C62  648   4.375   5.085  -0.010  0.1633 -0.5433  0.0698
    2CHTO  H119  649   4.410   4.982  -0.031  0.4112 -0.7438  1.4415
    2CHTO   O43  650   4.401   5.110   0.131  0.0597  0.1548 -0.3230
    2CHTO  H101  651   4.451   5.189   0.139 -1.3751  1.0213  0.2733
    2CHTO   C66  652   4.220   5.110  -0.044 -0.0899 -0.1570  0.1916
    2CHTO  H123  653   4.199   5.087  -0.149 -1.2070 -0.7324  0.5331
    2CHTO   N12  654   4.131   5.018   0.034 -0.0908  0.0566 -0.2321
    2CHTO  H110  655   4.183   5.002   0.127  0.8179 -2.3500 -1.1307
    2CHTO  H111  656   4.039   5.068   0.060 -0.9605 -1.4571 -0.3391
    2CHTO   C69  657   4.187   5.262  -0.025 -0.0756  0.9672  0.2169
    2CHTO  H126  658   4.196   5.276   0.085 -0.5361 -1.8678  0.6589
    2CHTO   O41  659   4.269   5.342  -0.093  0.0724 -0.6642 -0.1409
    2CHTO   C64  660   4.411   5.325  -0.069 -0.2931  0.3239  0.8158
    2CHTO  H121  661   4.444   5.343   0.036  1.6128  0.4933  0.2126
    2CHTO   C71  662   4.481   5.435  -0.159 -0.2170 -0.3915  0.2989
    2CHTO   O47  663   4.607   5.469  -0.099 -0.3021 -0.1987 -0.6712
    2CHTO  H104  664   4.633   5.550  -0.139  1.5905 -0.5438 -0.1931
    2CHTO   O34  665   4.027   5.300  -0.064  0.3278 -0.4030 -0.4800
    2CHTO   C49  666   3.919   5.381  -0.165  0.1717  0.0436 -0.6252
    2CHTO   H91  667   3.821   5.375  -0.119  0.3187 -0.8233 -0.4237
    2CHTO   C47  668   3.914   5.310  -0.306  0.3412 -0.0485  0.7973
    2CHTO   H89  669   3.842   5.370  -0.365 -0.8204 -0.8615  1.3699
    2CHTO   O33  670   3.866   5.174  -0.289  0.0667 -0.0685  0.3290
    2CHTO   H70  671   3.783   5.179  -0.246 -0.4517  1.3359 -0.8336
    2CHTO   C45  672   4.057   5.318  -0.376  0.7169  0.2445  0.1607
    2CHTO   H87  673   4.120   5.247  -0.320 -0.7995 -1.9923 -0.9132
    2CHTO    N8  674   4.055   5.266  -0.517 -0.2073  0.4703 -0.1311
    2CHTO   H75  675   4.153   5.238  -0.553 -1.0554 -0.8868 -1.4176
    2CHTO   H76  676   3.989   5.181  -0.522 -1.7080  1.6810 -1.3389
    2CHTO   C43  677   4.120   5.474  -0.372  0.4670  0.9620 -0.1109
    2CHTO   H85  678   4.224   5.447  -0.391 -0.6930 -2.9825 -1.2672
    2CHTO   O29  679   4.099   5.546  -0.247  0.4815  0.5044 -0.1755
    2CHTO   C50  680   3.974   5.529  -0.185 -0.1942 -0.2238 -0.0497
    2CHTO   H92  681   4.004   5.556  -0.083  0.1372  0.3301 -0.2927
    2CHTO   C54  682   3.871   5.633  -0.236 -0.6126 -0.3447  0.0340
    2CHTO   O36  683   3.901   5.770  -0.190 -0.2143  0.0983 -0.4007
    2CHTO   H72  684   3.829   5.824  -0.218  0.1607  0.9970  0.3330
    2CHTO   O27  685   4.074   5.558  -0.477 -0.3368 -0.0689 -0.1929
    2CHTO   C37  686   4.131   5.649  -0.574 -0.2972  0.6082 -0.6038
    2CHTO   H79  687   4.221   5.602  -0.617 -0.3480 -1.0721  1.0666
    2CHTO   C38  688   4.024   5.660  -0.691  0.3734  0.0130 -0.3084
    2CHTO   H80  689   3.927   5.685  -0.645  2.6878  2.0487  3.7949
    2CHTO   O31  690   4.030   5.530  -0.758 -0.3049  0.0778 -0.0473
    2CHTO   H68  691   3.972   5.471  -0.713 -0.7042  0.2561 -0.3263
    2CHTO   C39  692   4.053   5.775  -0.793  0.5922  0.0818  0.2321
    2CHTO   H81  693   4.138   5.744  -0.854  0.1360 -1.2279  0.2320
    2CHTO    N7  694   3.944   5.799  -0.892 -0.1931  0.3191  0.2756
    2CHTO   H73  695   3.867   5.864  -0.853  0.9942  0.1130  3.0644
    2CHTO   H74  696   3.978   5.812  -0.994 -1.9437 -1.2542 -0.5465
    2CHTO   C40  697   4.078   5.905  -0.715  0.2050 -0.0939 -0.2381
    2CHTO   H82  698   3.990   5.929  -0.654 -0.3889 -2.2973 -0.2035
    2CHTO   O26  699   4.193   5.883  -0.637  0.2357 -0.0917 -0.2170
    2CHTO   C41  700   4.159   5.795  -0.518  0.0474  0.2341 -0.0501
    2CHTO   H83  701   4.079   5.845  -0.462  1.2012 -0.0355  1.8968
    2CHTO   C52  702   4.286   5.792  -0.434  0.5221 -0.3679 -0.1977
    2CHTO   O35  703   4.329   5.921  -0.379 -0.2224 -0.5983  0.2912
    2CHTO   H71  704   4.418   5.909  -0.353  0.2985 -1.0896 -1.6077
    2CHTO   O28  705   4.116   6.021  -0.790 -0.3023 -0.6287  0.2349
    2CHTO   C42  706   4.130   6.155  -0.729  0.2843  1.0853 -0.2737
    2CHTO   H84  707   4.142   6.214  -0.820  2.2888  0.1112 -0.6708
    2CHTO   C44  708   4.259   6.181  -0.644 -0.0034 -0.2407  0.5680
    2CHTO   H86  709   4.279   6.093  -0.582 -0.1928 -1.5782 -1.2204
    2CHTO   O32  710   4.372   6.184  -0.738 -0.1185  0.5206 -0.0089
    2CHTO   H69  711   4.451   6.206  -0.693  1.8960 -1.6283 -2.3268
    2CHTO   C48  712   4.251   6.313  -0.552  0.0545 -0.3448 -0.2966
    2CHTO   H90  713   4.254   6.405  -0.610  0.4301  0.2417  0.6516
    2CHTO    N9  714   4.368   6.312  -0.468 -0.6125 -0.2181  0.0276
    2CHTO   H77  715   4.377   6.212  -0.429  0.2866 -0.4907 -0.8452
    2CHTO   H78  716   4.350   6.377  -0.384 -0.3704  0.3900 -0.3838
    2CHTO   C51  717   4.119   6.320  -0.483 -0.0889  0.3767  0.3625
    2CHTO   H93  718   4.112   6.225  -0.430  0.2929  0.2685  0.2161
    2CHTO   O30  719   4.020   6.336  -0.582 -0.1012 -0.0812  0.0599
    2CHTO   C46  720   4.001   6.203  -0.659 -0.2555 -0.3149  0.4354
    2CHTO   H88  721   3.975   6.126  -0.586  1.0351 -0.8455  0.3425
    2CHTO   C53  722   3.885   6.218  -0.764 -0.1760 -0.4839 -0.4716
    2CHTO   O72  723   3.768   6.277  -0.702  0.1908  0.4521 -0.3160
    2CHTO  H199  724   3.730   6.226  -0.633  1.0186  3.5169  2.5431
    2CHTO   O22  725   4.104   6.433  -0.395  0.5452 -0.3126 -0.0708
    2CHTO   C31  726   4.004   6.424  -0.283 -0.5927 -0.0255 -0.4235
    2CHTO   H59  727   4.005   6.522  -0.231  2.3940  0.1370 -0.6858
    2CHTO   C29  728   3.860   6.402  -0.333  0.6231 -0.4596 -0.2412
    2CHTO   H57  729   3.849   6.305  -0.385  1.9000 -1.9997  2.2542
    2CHTO   O21  730   3.834   6.519  -0.415  1.0703  0.1807  0.0562
    2CHTO   H37  731   3.747   6.513  -0.450  0.3510 -2.1902  2.0920
    2CHTO   C27  732   3.764   6.397  -0.209  0.1963  0.3689 -0.5031
    2CHTO   H55  733   3.772   6.496  -0.161 -3.1308  0.6946 -0.5600
    2CHTO    N5  734   3.622   6.377  -0.245 -0.3002  0.6622  0.0460
    2CHTO   H43  735   3.587   6.460  -0.305  0.8027  2.0944  1.3451
    2CHTO   H44  736   3.622   6.286  -0.302 -0.0766  0.4805  0.3384
    2CHTO   C25  737   3.815   6.292  -0.103  0.1563  0.0440  0.4669
    2CHTO   H53  738   3.821   6.189  -0.142  0.8083  0.8332 -1.5932
    2CHTO   O17  739   3.953   6.314  -0.072 -0.0192 -0.0142 -0.5848
    2CHTO   C32  740   4.047   6.311  -0.188  0.4626 -0.3536  0.0103
    2CHTO   H60  741   4.043   6.213  -0.234  2.3352  0.9321 -3.0086
    2CHTO   C36  742   4.193   6.336  -0.142  0.4145 -0.1842 -0.0276
    2CHTO   O25  743   4.198   6.459  -0.069  0.0887  0.1125 -0.2954
    2CHTO   H40  744   4.273   6.462  -0.013 -0.4895  0.5197  0.4563
    2CHTO   O15  745   3.754   6.282   0.024 -0.4694 -0.1418 -1.1277
    2CHTO   C19  746   3.629   6.287   0.104  0.5101 -0.5249 -0.3438
    2CHTO   H47  747   3.570   6.376   0.080  0.2551  0.3104  3.0964
    2CHTO   C20  748   3.533   6.157   0.085  0.3479 -0.1187 -0.3043
    2CHTO   H48  749   3.586   6.065   0.114 -3.0248 -1.6232  1.3616
    2CHTO   O19  750   3.503   6.153  -0.060 -0.6464 -0.1114  0.3504
    2CHTO   H35  751   3.452   6.076  -0.075 -2.3073  0.4375  2.8277
    2CHTO   C21  752   3.394   6.170   0.161 -0.2681  0.0887  0.4362
    2CHTO   H49  753   3.345   6.262   0.131  2.6500  1.2188 -1.1052
    2CHTO    N4  754   3.311   6.051   0.145 -0.3349  0.3290  0.1649
    2CHTO   H41  755   3.348   5.968   0.203 -0.3511  1.3239  1.6258
    2CHTO   H42  756   3.208   6.071   0.170 -0.8629 -2.5072  0.4460
    2CHTO   C22  757   3.430   6.195   0.311  0.3480 -0.3358  0.1571
    2CHTO   H50  758   3.476   6.104   0.349 -2.0276 -1.2346  0.9819
    2CHTO   O14  759   3.515   6.307   0.326 -0.1558  0.4139 -0.4207
    2CHTO   C23  760   3.644   6.301   0.264  0.4047  0.8092  0.0042
    2CHTO   H51  761   3.690   6.212   0.309 -0.4929  0.0491 -0.5555
    2CHTO   C34  762   3.729   6.425   0.299  0.6158 -0.2591 -0.1256
    2CHTO   O23  763   3.764   6.428   0.435 -0.6592 -0.0223 -0.1737
    2CHTO   H38  764   3.694   6.401   0.491  0.8618 -0.2229  1.6520
    2CHTO   O16  765   3.318   6.238   0.386  0.1606 -0.3592  0.3062
    2CHTO   C24  766   3.342   6.212   0.550  0.0439  0.1419  0.1873
    2CHTO   H52  767   3.445   6.187   0.576 -0.2058  1.0789  2.1484
    2CHTO   C26  768   3.245   6.110   0.604 -0.2395  0.1928 -0.0454
    2CHTO   H54  769   3.140   6.145   0.594 -0.8486 -1.2891  0.9973
    2CHTO   O20  770   3.254   5.989   0.525 -0.3549 -0.0976 -0.1934
    2CHTO   H36  771   3.328   5.943   0.559 -0.7788  0.6385  1.8216
    2CHTO   C30  772   3.274   6.082   0.754 -0.9185  1.1164 -0.5133
    2CHTO   H58  773   3.378   6.051   0.768 -0.6007  3.3332  2.4455
    2CHTO    N6  774   3.188   5.977   0.809  0.8984  0.0352 -0.4288
    2CHTO   H45  775   3.224   5.956   0.909  0.5047 -0.0566 -0.3065
    2CHTO   H46  776   3.087   6.016   0.818  1.5403  1.3571  1.3829
    2CHTO   C33  777   3.273   6.216   0.830  0.4849  0.1100 -0.1771
    2CHTO   H61  778   3.166   6.243   0.837  0.3608  0.2704 -2.4002
    2CHTO   O18  779   3.341   6.325   0.764  0.5464  0.0403  0.4395
    2CHTO   C28  780   3.315   6.341   0.623 -0.2476 -0.9074  0.7059
    2CHTO   H56  781   3.211   6.365   0.600 -0.4102 -1.1687  1.1552
    2CHTO   C35  782   3.417   6.453   0.577  0.3935  0.1087  1.1316
    2CHTO   O24  783   3.390   6.592   0.606 -0.3118  0.0419 -0.5868
    2CHTO   H39  784   3.464   6.620   0.657  0.7675  0.7803 -2.5217
    2CHTO    O9  785   3.323   6.190   0.963  0.2041  0.1482  0.4386
    2CHTO   C13  786   3.263   6.284   1.079 -0.6552  0.4234  0.6395
    2CHTO   H26  787   3.165   6.325   1.047 -0.8270 -0.9558 -0.6651
    2CHTO   C11  788   3.371   6.395   1.115  0.3877 -0.3216  0.0795
    2CHTO   H24  789   3.378   6.463   1.029  1.5895  0.0345  0.4542
    2CHTO    O8  790   3.502   6.337   1.140  0.6148  0.3814  0.6955
    2CHTO    H3  791   3.538   6.324   1.055  1.2817  0.0214  1.0274
    2CHTO    C9  792   3.319   6.478   1.235  0.1592 -0.2715  0.6693
    2CHTO   H22  793   3.215   6.501   1.207 -0.5238 -3.4998  0.3052
    2CHTO    N2  794   3.385   6.609   1.248  0.5061  0.3121 -0.0241
    2CHTO   H10  795   3.378   6.662   1.155 -2.1259  0.9272  0.5094
    2CHTO   H11  796   3.342   6.666   1.329  0.4072  1.9655 -1.2167
    2CHTO    C7  797   3.323   6.381   1.354  0.4366  0.1695  0.2442
    2CHTO   H20  798   3.281   6.439   1.439 -1.1989 -1.2735  0.4523
    2CHTO    O4  799   3.241   6.264   1.336  0.2791  0.2304  0.3069
    2CHTO   C14  800   3.233   6.194   1.214 -0.0968 -0.4081 -0.7626
    2CHTO   H27  801   3.130   6.157   1.200 -0.9810  1.6748  0.1229
    2CHTO   C18  802   3.333   6.076   1.216  0.0122 -0.3282  0.3793
    2CHTO   O13  803   3.300   5.973   1.120  0.6124 -0.3800  0.4340
    2CHTO    H7  804   3.340   5.890   1.137  1.4885  0.0330  0.4479
    2CHTO    O2  805   3.488   6.337   1.404 -0.2982  0.5206  0.1299
    2CHTO    C1  806   3.512   6.318   1.541  0.1769 -0.0306 -0.4497
    2CHTO   H14  807   3.421   6.281   1.593 -0.1958  0.5162 -0.7207
    2CHTO    C2  808   3.574   6.438   1.619  0.2407 -0.0471  0.0143
    2CHTO   H15  809   3.668   6.465   1.570 -0.1150  3.3100  1.0397
    2CHTO    O6  810   3.482   6.549   1.608 -0.1055 -0.1478 -0.1325
    2CHTO    H1  811   3.528   6.631   1.607 -0.8507  0.2788  0.8673
    2CHTO    C3  812   3.600   6.406   1.773  0.4470  0.0860  0.1072
    2CHTO   H16  813   3.510   6.364   1.821  0.4664  0.0744  0.1332
    2CHTO    N1  814   3.644   6.528   1.855 -0.1641 -0.4271 -0.4236
    2CHTO    H8  815   3.656   6.496   1.957  1.1938  0.4351 -0.3061
    2CHTO    H9  816   3.740   6.561   1.818 -1.1356  2.9711 -0.0918
    2CHTO    C4  817   3.702   6.286   1.778  0.4112  0.1034  0.4255
    2CHTO   H17  818   3.800   6.320   1.746 -0.0043  0.8374 -0.0800
    2CHTO    O1  819   3.653   6.178   1.687  0.4299  0.3331 -0.2399
    2CHTO    C5  820   3.620   6.201   1.549 -0.5614 -0.2426  0.7461
    2CHTO   H18  821   3.706   6.235   1.491 -1.4877  0.3224 -0.3190
    2CHTO   C16  822   3.576   6.067   1.488 -0.1070 -0.0709 -0.4140
    2CHTO   O11  823   3.695   5.989   1.455  1.0988 -0.5177 -0.2077
    2CHTO    H5  824   3.658   5.903   1.448 -0.0434  0.0306 -1.0608
    2CHTO    O3  825   3.701   6.233   1.906  0.3031  0.1205  0.3036
    2CHTO    C6  826   3.822   6.158   1.943  0.2587  0.1687 -0.6661
    2CHTO   H19  827   3.888   6.141   1.858 -2.3846  2.2879 -3.2656
    2CHTO    C8  828   3.906   6.221   2.059  0.1975 -0.6046  0.0183
    2CHTO   H21  829   3.843   6.241   2.145  1.9156  0.1955  1.1185
    2CHTO    O7  830   3.956   6.348   2.014  0.4573  0.6482  0.2606
    2CHTO    H2  831   4.013   6.391   2.075  1.6651 -1.0816  0.3726
    2CHTO   C12  832   4.023   6.122   2.103  0.4862 -0.5333 -0.2553
    2CHTO   H25  833   4.091   6.110   2.016  1.6370 -0.9025  0.6779
    2CHTO    N3  834   4.103   6.188   2.214  0.2064  0.3830  0.1905
    2CHTO   H12  835   4.204   6.151   2.211 -0.0317 -0.2361 -0.2228
    2CHTO   H13  836   4.063   6.176   2.314  0.6921  1.4052  0.5119
    2CHTO   C15  837   3.953   5.983   2.141  0.3296  0.1950 -0.6242
    2CHTO   H28  838   3.901   5.985   2.237  3.6715  1.2294  1.2518
    2CHTO   O10  839   4.056   5.866   2.159 -0.2568  0.5323  0.0195
    2CHTO    H4  840   4.146   5.884   2.139  0.1186 -1.0687  0.1812
    2CHTO    O5  841   3.876   5.925   2.030 -0.1227 -0.4455  0.1341
    2CHTO   C10  842   3.768   6.012   1.992 -0.3891 -0.1191  0.4757
    2CHTO   H23  843   3.715   6.007   2.087 -1.5069 -1.6496 -0.2093
    2CHTO   C17  844   3.681   5.938   1.890  0.5254  0.3285 -0.0824
    2CHTO   O12  845   3.748   5.889   1.773  0.0256 -0.5002  0.1144
    2CHTO    H6  846   3.723   5.801   1.750 -1.7945  0.1480 -0.4822
    3CHTO  H203  847   6.158   1.449   2.077  0.7636 -1.2763 -0.3454
    3CHTO   O82  848   6.240   1.493   2.072  0.0242  0.1360 -0.4369
    3CHTO  C123  849   6.313   1.489   1.946  0.3275 -0.2391 -0.1135
    3CHTO  H227  850   6.274   1.408   1.882 -0.3137 -0.0468  0.0274
    3CHTO   O77  851   6.265   1.611   1.902 -0.1080  0.5090 -0.1091
    3CHTO  C118  852   6.318   1.662   1.774 -0.6082 -0.3954 -0.2445
    3CHTO  H222  853   6.288   1.593   1.693  0.8845 -2.3577  0.8355
    3CHTO  C125  854   6.253   1.803   1.746 -0.2396 -0.0073  0.0033
    3CHTO   O84  855   6.115   1.801   1.715 -0.3214  0.3852  0.2354
    3CHTO  H205  856   6.065   1.802   1.794 -0.4312 -0.2357  0.1765
    3CHTO  C114  857   6.471   1.671   1.771  0.1623 -0.0125 -0.4742
    3CHTO  H218  858   6.498   1.747   1.844  1.1225  0.4906 -1.3369
    3CHTO  C116  859   6.531   1.534   1.826 -0.0179 -0.2469  0.4170
    3CHTO  H220  860   6.511   1.450   1.756  0.5708  0.3923 -0.5203
    3CHTO   O79  861   6.675   1.552   1.843  0.0606  0.4436  0.2776
    3CHTO  H201  862   6.721   1.565   1.762  1.2332  0.0040  0.8639
    3CHTO  C120  863   6.462   1.507   1.966  0.5676 -0.1142 -0.0870
    3CHTO  H224  864   6.482   1.590   2.036 -2.5210  1.2139 -0.7014
    3CHTO   N21  865   6.509   1.376   2.020  0.1487  0.2732  0.1287
    3CHTO  H211  866   6.515   1.382   2.127  0.4751 -0.9445  0.1863
    3CHTO  H212  867   6.609   1.356   1.982 -0.7288 -1.1718 -1.5344
    3CHTO   O75  868   6.516   1.726   1.648 -0.1725  0.4316 -0.4951
    3CHTO  C112  869   6.639   1.673   1.586 -0.3599 -0.2027  0.4024
    3CHTO  H216  870   6.653   1.565   1.600  2.1098  0.0077 -0.1003
    3CHTO   O73  871   6.755   1.747   1.631  0.2583 -0.4016 -0.2497
    3CHTO  C113  872   6.882   1.702   1.579 -0.4671  0.7352  0.1866
    3CHTO  H217  873   6.918   1.641   1.665 -0.1595 -0.4646 -0.7883
    3CHTO  C124  874   6.987   1.819   1.566 -0.1341 -0.0242  0.6674
    3CHTO   O83  875   7.052   1.841   1.693 -0.2383 -1.0154 -0.1527
    3CHTO  H204  876   7.016   1.919   1.731 -1.5153 -0.1225 -3.0412
    3CHTO  C109  877   6.882   1.615   1.446  0.3266 -0.3033  0.3985
    3CHTO  H213  878   6.983   1.616   1.403  0.4714 -2.7145  0.6053
    3CHTO  C110  879   6.772   1.667   1.354 -0.2221 -0.2899  0.4438
    3CHTO  H214  880   6.759   1.592   1.276 -0.0222  1.4657 -1.3267
    3CHTO   O78  881   6.797   1.789   1.284 -0.3938  0.1648  0.0590
    3CHTO  H200  882   6.734   1.807   1.216  1.0533  1.5441 -0.9812
    3CHTO  C111  883   6.635   1.693   1.427  0.4227 -0.0985  0.6255
    3CHTO  H215  884   6.606   1.798   1.414 -1.8959 -0.5010  2.1319
    3CHTO   N19  885   6.522   1.611   1.370 -0.4726 -0.3170 -0.3647
    3CHTO  H207  886   6.453   1.576   1.446  1.7647 -1.9843  0.9352
    3CHTO  H208  887   6.470   1.669   1.295  1.5012 -0.0570 -1.5710
    3CHTO   O74  888   6.850   1.476   1.480  0.9810 -0.2132  0.4183
    3CHTO  C115  889   6.976   1.373   1.513 -0.2542 -0.1221 -0.1760
    3CHTO  H219  890   7.070   1.407   1.470  0.6763 -0.6526  1.4171
    3CHTO   O76  891   7.009   1.368   1.669  0.0165  0.4933 -0.0250
    3CHTO  C122  892   6.882   1.347   1.745  0.0614  0.2234 -0.0117
    3CHTO  H226  893   6.828   1.441   1.744 -0.6147 -0.1165  2.6997
    3CHTO  C126  894   6.908   1.324   1.887 -0.2635  0.3630  0.9431
    3CHTO   O85  895   6.974   1.432   1.951  0.3735  0.4953  0.2895
    3CHTO  H206  896   6.944   1.459   2.035  2.0494  2.2786  0.3721
    3CHTO  C121  897   6.785   1.248   1.679  0.3133  0.1952  0.6302
    3CHTO  H225  898   6.734   1.187   1.757  0.3585 -1.5712 -0.6957
    3CHTO   O81  899   6.677   1.316   1.616  0.3609 -0.0687  0.2042
    3CHTO  H202  900   6.597   1.308   1.665  0.7960 -0.3513  0.8846
    3CHTO  C119  901   6.853   1.152   1.574  0.1200 -0.0055 -0.3476
    3CHTO  H223  902   6.937   1.103   1.624  0.3561  0.2338 -0.5101
    3CHTO  C117  903   6.922   1.231   1.455 -0.5682  0.1831  0.2485
    3CHTO  H221  904   6.854   1.263   1.376  2.2676  0.7496 -2.0487
    3CHTO   N20  905   7.031   1.157   1.385 -0.1103 -0.3846 -0.0179
    3CHTO  H209  906   6.994   1.064   1.344  1.7514 -1.1643  0.0196
    3CHTO  H210  907   7.047   1.214   1.294  0.9579  1.7240  1.4520
    3CHTO   O80  908   6.770   1.039   1.539 -0.1784  0.1344 -0.1373
    3CHTO  C103  909   6.780   0.914   1.618 -0.3512 -0.8231 -0.1891
    3CHTO  H190  910   6.885   0.894   1.640  0.4235  1.6514 -1.4691
    3CHTO  C101  911   6.694   0.907   1.753 -1.1823 -0.1465 -0.1814
    3CHTO  H188  912   6.598   0.959   1.749 -1.8633 -1.4788 -1.3339
    3CHTO   O68  913   6.775   0.978   1.863 -0.6589 -0.0772  0.4822
    3CHTO  H168  914   6.746   1.066   1.873 -0.4707  0.2014 -1.3215
    3CHTO   C99  915   6.660   0.753   1.785 -0.2262 -0.8231  0.1009
    3CHTO  H186  916   6.751   0.695   1.807  1.7460  1.6935 -1.1376
    3CHTO   N17  917   6.572   0.747   1.911 -0.4672  0.0989 -0.1142
    3CHTO  H174  918   6.486   0.682   1.916  0.7545 -1.3986  2.7176
    3CHTO  H175  919   6.629   0.730   2.001  0.0564  2.9468  0.1185
    3CHTO   C97  920   6.595   0.691   1.656 -0.1852 -0.0267  0.1925
    3CHTO  H184  921   6.506   0.746   1.620  0.1768  0.6863  0.3844
    3CHTO   O64  922   6.691   0.678   1.559 -0.3000 -0.1514  0.4848
    3CHTO  C104  923   6.737   0.804   1.505 -0.1712  0.6079 -0.7054
    3CHTO  H191  924   6.661   0.852   1.444 -1.1721  0.0997  0.1199
    3CHTO  C108  925   6.852   0.774   1.407  0.4123 -0.5020 -0.3533
    3CHTO   O71  926   6.833   0.715   1.284 -0.0725 -0.3222  0.5370
    3CHTO  H171  927   6.882   0.635   1.288 -0.1674 -0.4388 -0.4829
    3CHTO   O62  928   6.556   0.554   1.682  0.5600 -0.1818  0.1703
    3CHTO   C91  929   6.439   0.502   1.616 -0.0706  0.9758  0.3269
    3CHTO  H178  930   6.424   0.563   1.528 -1.3447  0.7076  0.3583
    3CHTO   C92  931   6.314   0.505   1.704 -0.4431 -0.0527  0.1428
    3CHTO  H179  932   6.337   0.436   1.786 -1.1654  0.1773  0.5411
    3CHTO   O66  933   6.286   0.641   1.740  1.1914  0.0667  0.3696
    3CHTO  H166  934   6.352   0.673   1.798  1.5281 -0.9013  0.5394
    3CHTO   C93  935   6.190   0.441   1.629  0.8019 -0.4445  0.5803
    3CHTO  H180  936   6.176   0.515   1.548 -1.5855 -0.5505  0.8607
    3CHTO   N16  937   6.055   0.434   1.694  0.0579  0.3432 -0.3326
    3CHTO  H172  938   6.010   0.531   1.709 -0.5664  0.0518 -0.3018
    3CHTO  H173  939   5.984   0.362   1.655 -1.0914  2.1549 -1.6646
    3CHTO   C94  940   6.239   0.306   1.554 -0.6499  0.2457 -0.4818
    3CHTO  H181  941   6.265   0.232   1.629 -2.7298  0.8481  0.8497
    3CHTO   O61  942   6.358   0.319   1.470  0.4267 -0.1514 -0.1060
    3CHTO   C95  943   6.469   0.354   1.551  0.1770  0.1297  0.0859
    3CHTO  H182  944   6.485   0.279   1.629  2.4451  1.6718  1.1541
    3CHTO  C106  945   6.600   0.347   1.463  0.3756  0.4819 -0.0685
    3CHTO   O69  946   6.584   0.434   1.354 -0.5201  0.0190 -0.2812
    3CHTO  H169  947   6.577   0.524   1.378  0.7599 -0.0736  0.4701
    3CHTO   O63  948   6.113   0.244   1.468  0.0765  0.2494  0.1786
    3CHTO   C96  949   6.080   0.091   1.484 -0.3415 -0.0841 -0.1338
    3CHTO  H183  950   6.088   0.070   1.590  2.3598 -0.0874 -0.3058
    3CHTO   C98  951   6.177   0.002   1.396 -0.1908  0.4070  0.5405
    3CHTO  H185  952   6.181   0.040   1.292 -0.9821  0.1298  0.4118
    3CHTO   O67  953   6.305   0.014   1.455 -0.4558  0.2257  0.4733
    3CHTO  H167  954   6.368   0.002   1.387 -2.1846  0.6120 -1.2252
    3CHTO  C102  955   6.133  -0.154   1.396  0.2070 -0.2365 -0.2678
    3CHTO  H189  956   6.151  -0.187   1.500  0.0600 -1.3270 -0.5837
    3CHTO   N18  957   6.209  -0.247   1.314  0.3200  0.1610  0.9497
    3CHTO  H176  958   6.195  -0.225   1.209  3.0690  0.5120  0.6231
    3CHTO  H177  959   6.314  -0.241   1.340  0.8022 -2.3825 -0.2124
    3CHTO  C105  960   5.984  -0.179   1.369 -0.3463 -0.0716  1.1675
    3CHTO  H192  961   5.966  -0.163   1.263  2.4824  1.0378  0.8074
    3CHTO   O65  962   5.905  -0.085   1.445 -0.7352  0.5136 -0.1075
    3CHTO  C100  963   5.942   0.055   1.426 -0.1013 -1.2403 -0.9725
    3CHTO  H187  964   5.949   0.075   1.318  1.4514 -0.0761 -0.6881
    3CHTO  C107  965   5.836   0.141   1.489 -0.1528  0.3931  0.3803
    3CHTO   O70  966   5.729   0.168   1.393  0.4777 -0.2084 -0.9984
    3CHTO  H170  967   5.660   0.212   1.440  1.3542  0.8015 -0.6324
    3CHTO   O57  968   5.927  -0.353   1.394  0.8214 -0.1968  0.1762
    3CHTO   C85  969   5.877  -0.411   1.514  0.0208  0.1658 -0.3255
    3CHTO  H157  970   5.870  -0.517   1.481 -1.8851  0.3590 -0.5656
    3CHTO   C83  971   5.731  -0.362   1.551 -0.4130  0.3366  0.1943
    3CHTO  H155  972   5.661  -0.370   1.468 -0.9718  0.6430  0.6239
    3CHTO   O56  973   5.720  -0.222   1.577 -0.1498  0.2085  0.5329
    3CHTO  H135  974   5.799  -0.190   1.617  0.5064 -0.8359  0.0841
    3CHTO   C81  975   5.681  -0.448   1.672 -0.1980  0.6945  0.2873
    3CHTO  H153  976   5.697  -0.553   1.646  0.4458  0.6735  0.7740
    3CHTO   N14  977   5.542  -0.418   1.706 -0.0953 -0.2841  0.1483
    3CHTO  H141  978   5.481  -0.494   1.663 -1.4133  0.0194  1.4234
    3CHTO  H142  979   5.505  -0.322   1.676 -0.6640 -0.3519  0.6261
    3CHTO   C79  980   5.772  -0.419   1.795 -0.0519 -0.2080  0.2504
    3CHTO  H151  981   5.744  -0.491   1.872 -0.5216 -1.1401 -0.7858
    3CHTO   O52  982   5.912  -0.456   1.765 -0.6159  0.2604 -0.0557
    3CHTO   C86  983   5.969  -0.395   1.642 -0.1952  0.0675  0.4354
    3CHTO  H158  984   5.989  -0.291   1.674 -1.5293  0.3602  0.3536
    3CHTO   C90  985   6.107  -0.459   1.625 -0.4524 -0.3064  0.0438
    3CHTO   O60  986   6.189  -0.444   1.742 -0.3193 -0.0762 -0.3007
    3CHTO  H138  987   6.260  -0.503   1.724  0.5108  0.1442  2.1121
    3CHTO   O50  988   5.768  -0.286   1.856  0.2614  0.3603  0.5483
    3CHTO   C73  989   5.804  -0.254   1.992  0.4355  1.4936 -0.4504
    3CHTO  H145  990   5.879  -0.326   2.029  0.4114 -0.5639 -4.1228
    3CHTO   C74  991   5.675  -0.268   2.087  0.0047 -0.3171  0.1433
    3CHTO  H146  992   5.625  -0.364   2.069 -1.8164  0.3527  1.4009
    3CHTO   O54  993   5.720  -0.264   2.220 -0.1876  1.0159 -0.6717
    3CHTO  H133  994   5.646  -0.259   2.278  1.6106 -0.1720  1.8010
    3CHTO   C75  995   5.574  -0.147   2.050 -0.0635  0.6488 -0.2831
    3CHTO  H147  996   5.549  -0.158   1.944  0.8852 -4.3353 -0.1229
    3CHTO   N13  997   5.448  -0.142   2.130  0.7841 -0.1526 -0.0789
    3CHTO  H139  998   5.394  -0.049   2.118 -0.5584 -0.9370 -0.2023
    3CHTO  H140  999   5.386  -0.225   2.100  0.5322  0.8240 -2.3516
    3CHTO   C76 1000   5.659  -0.007   2.063 -0.7034  0.2202  0.2640
    3CHTO  H148 1001   5.703   0.008   2.162 -1.7869 -0.1267  0.8131
    3CHTO   O49 1002   5.769  -0.010   1.968  0.5247  0.1456 -0.4005
    3CHTO   C77 1003   5.865  -0.112   1.999  0.7219  0.5725  0.3046
    3CHTO  H149 1004   5.907  -0.094   2.098 -1.3168  1.4595  1.0415
    3CHTO   C88 1005   5.976  -0.103   1.896  0.3757  0.0076 -0.1098
    3CHTO   O58 1006   6.095  -0.210   1.913 -0.1272  0.2039 -0.2313
    3CHTO  H136 1007   6.182  -0.177   1.897 -0.4751  0.2167 -2.2774
    3CHTO   O51 1008   5.584   0.119   2.015  0.0360  0.4659  0.1986
    3CHTO   C78 1009   5.558   0.230   2.128 -0.5662 -0.5650  0.3512
    3CHTO  H150 1010   5.573   0.204   2.235 -0.9997  0.6028  0.7066
    3CHTO   C80 1011   5.413   0.278   2.110  0.0763  0.0561 -0.4875
    3CHTO  H152 1012   5.390   0.307   2.005  0.7020  1.4526 -0.2535
    3CHTO   O55 1013   5.316   0.181   2.154 -0.3584  0.0625  0.3016
    3CHTO  H134 1014   5.226   0.195   2.133 -0.9783 -2.8546  0.8280
    3CHTO   C84 1015   5.392   0.407   2.196  0.5266 -0.5207  0.0117
    3CHTO  H156 1016   5.387   0.371   2.299  1.5284  1.8657  0.9211
    3CHTO   N15 1017   5.271   0.488   2.149  0.4494  0.0510  0.0491
    3CHTO  H143 1018   5.178   0.436   2.152  0.6218 -0.4232 -2.3190
    3CHTO  H144 1019   5.291   0.519   2.049 -1.4579  2.9593  0.5067
    3CHTO   C87 1020   5.508   0.510   2.191 -0.6881 -0.8767  1.0534
    3CHTO  H159 1021   5.503   0.580   2.108 -0.8659 -0.8488  1.0874
    3CHTO   O53 1022   5.637   0.453   2.191 -0.3555  0.2616 -0.4878
    3CHTO   C82 1023   5.659   0.346   2.096  0.4857  0.0072  0.0436
    3CHTO  H154 1024   5.641   0.385   1.996 -4.3106 -3.1400 -0.4477
    3CHTO   C89 1025   5.810   0.299   2.102 -0.2060  0.3434 -0.2278
    3CHTO   O59 1026   5.845   0.237   2.227  0.3448  0.1218  0.2112
    3CHTO  H137 1027   5.767   0.217   2.275 -1.3700  2.3350 -1.5228
    3CHTO   O45 1028   5.513   0.601   2.330  0.2875  0.0762  0.1574
    3CHTO   C67 1029   5.616   0.701   2.330  0.3900 -0.5238  0.9496
    3CHTO  H124 1030   5.714   0.661   2.303 -0.0002 -0.9966  0.2191
    3CHTO   C65 1031   5.585   0.815   2.224  0.1629 -0.3298 -0.4310
    3CHTO  H122 1032   5.477   0.822   2.215  0.4343  3.0558 -1.7991
    3CHTO   O44 1033   5.647   0.773   2.102  0.1295  0.7272 -0.4840
    3CHTO  H102 1034   5.644   0.837   2.035 -2.2409  0.9392 -0.2161
    3CHTO   C63 1035   5.625   0.963   2.273 -0.4194 -0.6024 -0.4297
    3CHTO  H120 1036   5.543   1.003   2.333 -0.5994 -1.1053 -0.3414
    3CHTO   N11 1037   5.646   1.071   2.173 -0.3462  0.0288  0.3258
    3CHTO  H108 1038   5.737   1.048   2.122 -1.0343 -1.1512 -0.4007
    3CHTO  H109 1039   5.655   1.166   2.221  1.6231  0.2340 -0.4134
    3CHTO   C61 1040   5.754   0.948   2.366  0.5228 -0.0306  0.0566
    3CHTO  H118 1041   5.778   1.049   2.403 -0.1830  0.3259 -0.4463
    3CHTO   O40 1042   5.744   0.857   2.489 -0.0713  0.3951  0.1175
    3CHTO   C68 1043   5.633   0.763   2.477  0.1180  0.1087 -0.7225
    3CHTO  H125 1044   5.537   0.818   2.482  0.2218  0.2569 -0.4181
    3CHTO   C72 1045   5.643   0.663   2.596  0.7944  0.6400  0.1176
    3CHTO   O48 1046   5.752   0.569   2.595  0.3145 -0.2021 -0.0464
    3CHTO  H105 1047   5.723   0.491   2.638  1.4464 -0.3257  0.5041
    3CHTO   O38 1048   5.863   0.890   2.294  0.0698 -0.0431 -0.1177
    3CHTO   C55 1049   5.998   0.917   2.352  0.4458 -0.5519 -0.2275
    3CHTO  H112 1050   5.988   0.946   2.458  3.1983 -0.4520  0.0433
    3CHTO   C56 1051   6.060   1.034   2.260  0.3840 -0.4027 -0.0652
    3CHTO  H113 1052   6.083   1.001   2.158  2.2073 -1.3909  0.6351
    3CHTO   O42 1053   5.967   1.142   2.268  0.8404  0.3145  0.4478
    3CHTO  H100 1054   5.954   1.182   2.184 -1.1797 -2.7599 -0.7947
    3CHTO   C57 1055   6.201   1.063   2.313  0.4582 -0.2582 -0.4980
    3CHTO  H114 1056   6.196   1.100   2.415  1.2114 -2.8245  0.4895
    3CHTO   N10 1057   6.260   1.164   2.228 -0.3516  0.0334  0.1928
    3CHTO  H106 1058   6.363   1.134   2.216  0.3392  3.0560 -2.2742
    3CHTO  H107 1059   6.253   1.264   2.269  1.8073  0.1856  0.2432
    3CHTO   C58 1060   6.283   0.934   2.311 -0.1096  0.6579 -0.5846
    3CHTO  H115 1061   6.314   0.909   2.207  1.3668 -0.1825  0.0285
    3CHTO   O37 1062   6.221   0.819   2.378 -0.2050  0.0912 -0.0734
    3CHTO   C59 1063   6.087   0.790   2.338 -0.3141  0.1406  0.2354
    3CHTO  H116 1064   6.075   0.758   2.234  0.9079  0.7550 -0.1043
    3CHTO   C70 1065   6.036   0.684   2.429 -0.1916  0.1261 -0.1204
    3CHTO   O46 1066   6.094   0.560   2.379  0.2437 -0.0840 -0.0390
    3CHTO  H103 1067   6.101   0.498   2.449 -0.0734 -2.0031 -1.6649
    3CHTO   O39 1068   6.424   0.947   2.426 -0.1257  0.0634  0.2246
    3CHTO   C60 1069   6.542   0.945   2.348  0.2542 -0.4641 -0.5697
    3CHTO  H117 1070   6.513   0.930   2.244 -0.7218  1.4400 -0.5990
    3CHTO   C62 1071   6.604   1.093   2.348  0.6450 -0.0050  0.0642
    3CHTO  H119 1072   6.538   1.151   2.280 -0.0200 -2.0234 -1.0493
    3CHTO   O43 1073   6.596   1.150   2.479  0.1710 -0.3619 -0.6906
    3CHTO  H101 1074   6.686   1.160   2.504  0.3995 -0.8096 -1.3257
    3CHTO   C66 1075   6.751   1.085   2.275 -0.6862 -0.1562 -0.0918
    3CHTO  H123 1076   6.732   1.066   2.169  0.2192 -0.2229 -0.2471
    3CHTO   N12 1077   6.824   1.217   2.288  0.0268  0.0022 -0.6169
    3CHTO  H110 1078   6.884   1.237   2.200  3.6432 -1.4608  1.3827
    3CHTO  H111 1079   6.885   1.214   2.377 -0.5172 -2.0530 -0.2983
    3CHTO   C69 1080   6.835   0.968   2.328 -0.9501 -0.1942  0.3634
    3CHTO  H126 1081   6.871   0.983   2.432  1.8903  1.1502 -0.7434
    3CHTO   O41 1082   6.749   0.835   2.311 -0.1971  0.2486  0.4709
    3CHTO   C64 1083   6.646   0.830   2.388  0.5109  0.4642 -0.3019
    3CHTO  H121 1084   6.672   0.826   2.496 -1.3795  0.7361  0.1885
    3CHTO   C71 1085   6.580   0.690   2.370  0.0202 -0.8944  0.2696
    3CHTO   O47 1086   6.535   0.662   2.239  0.1050  0.0067  0.1216
    3CHTO  H104 1087   6.442   0.657   2.250 -0.0663  2.5819  0.3369
    3CHTO   O34 1088   6.978   0.963   2.228 -0.0374  0.5008 -0.6466
    3CHTO   C49 1089   7.087   0.862   2.203  0.3714 -0.3875 -0.1966
    3CHTO   H91 1090   7.150   0.857   2.292 -0.2239 -0.9601  0.1928
    3CHTO   C47 1091   7.174   0.913   2.093  0.1189 -0.0042  0.2104
    3CHTO   H89 1092   7.252   0.834   2.090 -1.6161 -1.7954  1.0582
    3CHTO   O33 1093   7.226   1.040   2.133  0.2935 -0.0587 -0.0748
    3CHTO   H70 1094   7.314   1.044   2.101  0.5377 -0.5719  0.5097
    3CHTO   C45 1095   7.090   0.913   1.958  0.2659  0.0005 -0.5696
    3CHTO   H87 1096   6.996   0.966   1.980  0.2145 -1.0163  1.8380
    3CHTO    N8 1097   7.156   0.977   1.843  0.2981 -0.7268  0.3614
    3CHTO   H75 1098   7.250   0.934   1.811  0.5347  1.4745 -2.1084
    3CHTO   H76 1099   7.163   1.085   1.848  1.5769 -0.6498 -2.1475
    3CHTO   C43 1100   7.027   0.759   1.933 -0.1443 -0.8605  0.0710
    3CHTO   H85 1101   6.958   0.767   1.849  3.4527  2.9452 -2.7026
    3CHTO   O29 1102   6.968   0.703   2.053  0.6492  0.0805  0.6496
    3CHTO   C50 1103   7.036   0.720   2.178  0.0575 -0.3257  0.5237
    3CHTO   H92 1104   6.952   0.698   2.245 -0.3103  2.4343  1.0292
    3CHTO   C54 1105   7.139   0.604   2.205  0.3215 -0.5049 -0.0532
    3CHTO   O36 1106   7.232   0.618   2.316 -0.0163  0.3228 -0.5805
    3CHTO   H72 1107   7.181   0.641   2.392 -1.6195  2.6309 -2.2990
    3CHTO   O27 1108   7.128   0.661   1.898  0.0982 -0.0734  0.4191
    3CHTO   C37 1109   7.147   0.551   1.807  0.7040 -0.1177 -0.4890
    3CHTO   H79 1110   7.242   0.503   1.835  1.1563  1.7538  1.2660
    3CHTO   C38 1111   7.037   0.435   1.820  0.0435 -0.4354  0.1607
    3CHTO   H80 1112   6.936   0.466   1.789 -0.1770 -1.9723 -0.7410
    3CHTO   O31 1113   7.025   0.399   1.955  0.4007  0.0165  0.2433
    3CHTO   H68 1114   6.965   0.329   1.971 -1.0760  1.5176  1.4110
    3CHTO   C39 1115   7.083   0.316   1.727  0.4568 -0.1705  0.9057
    3CHTO   H81 1116   7.182   0.283   1.758  0.0402 -1.3074  1.0277
    3CHTO    N7 1117   6.995   0.194   1.740  0.5771  0.0744 -0.0182
    3CHTO   H73 1118   7.008   0.170   1.844 -1.2607  0.1719  0.2448
    3CHTO   H74 1119   7.050   0.120   1.683  2.3583  1.4389 -0.1200
    3CHTO   C40 1120   7.089   0.372   1.580  0.1067 -0.1891  0.5197
    3CHTO   H82 1121   6.987   0.406   1.562  0.3868  0.0709 -0.6080
    3CHTO   O26 1122   7.177   0.478   1.573  0.2632  0.0873  0.2526
    3CHTO   C41 1123   7.140   0.592   1.657 -0.2969 -0.7707  0.0666
    3CHTO   H83 1124   7.036   0.620   1.636 -1.3459 -1.8998  3.4183
    3CHTO   C52 1125   7.227   0.713   1.618 -0.5806  0.1793 -0.8160
    3CHTO   O35 1126   7.158   0.796   1.494  0.1579 -0.7418  0.0314
    3CHTO   H71 1127   7.066   0.789   1.509  0.5227 -2.3883  1.7640
    3CHTO   O28 1128   7.116   0.273   1.472 -0.6372 -0.0174 -0.1009
    3CHTO   C42 1129   7.068   0.292   1.335 -0.5858 -0.1064  0.1267
    3CHTO   H84 1130   7.137   0.230   1.277  2.2250  1.6407  1.4791
    3CHTO   C44 1131   7.087   0.436   1.279  0.2951 -0.0671  0.8381
    3CHTO   H86 1132   7.031   0.509   1.338 -1.9727  1.0167 -2.5233
    3CHTO   O32 1133   7.226   0.464   1.301  0.0272  0.0907  0.3807
    3CHTO   H69 1134   7.280   0.421   1.238 -0.1556  2.5026 -1.5139
    3CHTO   C48 1135   7.033   0.442   1.129 -0.3042 -0.6782  0.3753
    3CHTO   H90 1136   7.100   0.374   1.076 -0.6403 -0.7936  0.0967
    3CHTO    N9 1137   7.048   0.576   1.067  0.1932 -0.5193  0.7134
    3CHTO   H77 1138   6.991   0.580   0.975 -0.1176 -0.0293  0.9234
    3CHTO   H78 1139   7.152   0.576   1.038 -0.2446  3.4313 -1.2767
    3CHTO   C51 1140   6.885   0.382   1.114  0.0536 -0.5699  0.2306
    3CHTO   H93 1141   6.819   0.447   1.171  0.2801 -0.3407  0.2310
    3CHTO   O30 1142   6.892   0.252   1.163  0.4306  0.3685 -0.4186
    3CHTO   C46 1143   6.921   0.241   1.310  0.0353 -0.3481  0.4616
    3CHTO   H88 1144   6.859   0.312   1.364  1.2874  0.4398  0.9032
    3CHTO   C53 1145   6.897   0.103   1.364 -0.5412  0.7067 -0.0673
    3CHTO   O72 1146   6.755   0.082   1.377 -0.2450 -0.2715  0.2732
    3CHTO  H199 1147   6.719   0.136   1.444 -0.6132  0.8551 -0.7944
    3CHTO   O22 1148   6.840   0.358   0.976 -0.0713 -0.2505  0.5266
    3CHTO   C31 1149   6.701   0.345   0.945  0.2348 -0.3375  0.3709
    3CHTO   H59 1150   6.699   0.309   0.840  1.0906 -0.1801  0.2967
    3CHTO   C29 1151   6.630   0.230   1.028 -0.0879 -0.4675  0.1760
    3CHTO   H57 1152   6.644   0.255   1.134 -2.6189 -0.3257  0.5236
    3CHTO   O21 1153   6.697   0.105   0.993 -0.6448 -0.6100  0.3459
    3CHTO   H37 1154   6.692   0.047   1.067  1.1070 -1.9639 -0.5806
    3CHTO   C27 1155   6.473   0.211   1.001  0.0298 -0.2803 -0.2819
    3CHTO   H55 1156   6.461   0.174   0.898  1.4655 -0.8235 -0.2605
    3CHTO    N5 1157   6.402   0.127   1.100 -0.4590  0.1284  0.3454
    3CHTO   H43 1158   6.357   0.038   1.059  0.1297 -0.2632  0.5663
    3CHTO   H44 1159   6.465   0.106   1.184  0.3957 -1.3367 -0.6455
    3CHTO   C25 1160   6.405   0.348   1.005  0.5666 -0.5560  0.4201
    3CHTO   H53 1161   6.415   0.395   1.103 -0.7076  1.0026 -0.1813
    3CHTO   O17 1162   6.473   0.443   0.917 -0.7023  0.4943 -0.8813
    3CHTO   C32 1163   6.608   0.474   0.957  0.2233  0.3957 -0.6429
    3CHTO   H60 1164   6.610   0.508   1.060 -1.6950  1.3298 -0.8960
    3CHTO   C36 1165   6.646   0.585   0.857 -0.2595 -0.0270  0.2021
    3CHTO   O25 1166   6.555   0.693   0.880  0.5946  0.8385 -0.5602
    3CHTO   H40 1167   6.605   0.771   0.896  1.6052 -0.2599  1.8915
    3CHTO   O15 1168   6.269   0.340   0.951 -0.6748 -0.0366  0.1626
    3CHTO   C19 1169   6.139   0.397   0.967 -0.0863 -0.3555  0.1341
    3CHTO   H47 1170   6.070   0.332   0.912  1.1155  1.5761 -3.8047
    3CHTO   C20 1171   6.090   0.417   1.114 -0.4149 -0.7133  0.8086
    3CHTO   H48 1172   6.170   0.452   1.180  1.1043 -2.8962  0.1883
    3CHTO   O19 1173   6.054   0.284   1.146  0.5222  0.0883 -0.6610
    3CHTO   H35 1174   6.124   0.232   1.180  1.0566  1.6583  0.6615
    3CHTO   C21 1175   5.966   0.515   1.131 -0.0580 -0.5623 -0.2053
    3CHTO   H49 1176   5.879   0.466   1.087 -1.6424  2.3624 -0.4160
    3CHTO    N4 1177   5.927   0.544   1.276  0.0918 -0.1484 -0.5686
    3CHTO   H41 1178   5.886   0.453   1.317 -2.4815  1.7320  1.1650
    3CHTO   H42 1179   5.862   0.628   1.293  0.6817 -0.0965  1.5702
    3CHTO   C22 1180   6.000   0.649   1.057 -0.6946 -0.3043 -0.4442
    3CHTO   H50 1181   6.095   0.687   1.095 -0.2394 -2.0520  0.2072
    3CHTO   O14 1182   6.017   0.615   0.916  0.0434  0.6106  0.4788
    3CHTO   C23 1183   6.132   0.532   0.887 -0.1007  0.0154  1.2169
    3CHTO   H51 1184   6.219   0.597   0.907 -0.6535  1.1126  0.1502
    3CHTO   C34 1185   6.134   0.508   0.736  0.6112 -0.5529  0.1903
    3CHTO   O23 1186   6.261   0.461   0.687  0.2218 -0.4196  0.4979
    3CHTO   H38 1187   6.279   0.486   0.598  2.4035  0.8240  1.2634
    3CHTO   O16 1188   5.918   0.766   1.060  0.4091 -0.2525 -0.4803
    3CHTO   C24 1189   5.999   0.913   1.048 -0.6400 -0.2819 -0.0394
    3CHTO   H52 1190   6.107   0.901   1.051 -0.5806  0.0875 -0.7603
    3CHTO   C26 1191   5.963   0.997   1.169 -0.8068 -0.2332  0.1734
    3CHTO   H54 1192   5.853   1.002   1.175 -0.6761  2.5511  0.7374
    3CHTO   O20 1193   6.006   0.917   1.287  0.5532 -0.0932 -0.2638
    3CHTO   H36 1194   5.953   0.942   1.361 -0.1769 -3.5613  0.4994
    3CHTO   C30 1195   6.033   1.137   1.165  0.2905  0.3375  0.4855
    3CHTO   H58 1196   6.141   1.131   1.184  0.4995 -0.1433 -0.7598
    3CHTO    N6 1197   5.982   1.225   1.267 -0.2662  0.2995 -0.0995
    3CHTO   H45 1198   6.016   1.327   1.269 -0.6731  0.4138  1.7288
    3CHTO   H46 1199   6.019   1.177   1.356  0.3767  1.1635  0.1094
    3CHTO   C33 1200   6.018   1.199   1.019  0.8000  0.6873 -0.4128
    3CHTO   H61 1201   5.916   1.234   0.996 -0.0555  0.5086  2.8690
    3CHTO   O18 1202   6.049   1.102   0.921 -0.0658  0.1051  0.0250
    3CHTO   C28 1203   5.962   0.986   0.914 -0.2978  0.2556 -0.6557
    3CHTO   H56 1204   5.859   1.020   0.923 -1.1703 -2.4977  0.1616
    3CHTO   C35 1205   5.983   0.906   0.779 -0.6690 -0.2467  0.1344
    3CHTO   O24 1206   6.116   0.852   0.784  0.2745 -0.5006 -0.2833
    3CHTO   H39 1207   6.135   0.801   0.860 -0.7429  0.1244  0.4114
    3CHTO    O9 1208   6.110   1.313   1.008  0.2115  0.0868  0.2423
    3CHTO   C13 1209   6.055   1.453   0.916  0.2505 -0.2820 -0.2233
    3CHTO   H26 1210   5.952   1.476   0.951  0.0737 -0.0052 -0.9257
    3CHTO   C11 1211   6.056   1.415   0.760  0.5138  0.5713 -0.2543
    3CHTO   H24 1212   5.988   1.329   0.746  1.9335 -0.6552  0.2165
    3CHTO    O8 1213   6.182   1.361   0.720  0.2407  0.2141  0.6043
    3CHTO    H3 1214   6.203   1.291   0.779 -0.2638 -0.0676  0.4453
    3CHTO    C9 1215   6.017   1.543   0.678  0.1567  0.4803  0.2221
    3CHTO   H22 1216   5.919   1.576   0.716  0.7218 -0.3430  2.4795
    3CHTO    N2 1217   5.969   1.506   0.541 -0.7132 -0.6165 -0.6427
    3CHTO   H10 1218   5.894   1.428   0.536 -1.0910 -0.3188  0.2275
    3CHTO   H11 1219   5.951   1.592   0.479  1.4026 -0.6569 -1.3770
    3CHTO    C7 1220   6.127   1.656   0.696  0.1047  0.7647  0.3941
    3CHTO   H20 1221   6.074   1.742   0.650  0.2679 -0.4123 -2.0595
    3CHTO    O4 1222   6.165   1.676   0.838  0.1950 -0.1798  0.0151
    3CHTO   C14 1223   6.147   1.580   0.943 -0.0503  0.3694 -0.5042
    3CHTO   H27 1224   6.103   1.630   1.032  0.6412 -2.9955  1.8069
    3CHTO   C18 1225   6.290   1.526   0.977 -0.3741 -0.1954 -0.0490
    3CHTO   O13 1226   6.379   1.633   1.006 -0.0560 -0.6561  0.2456
    3CHTO    H7 1227   6.389   1.690   0.932 -1.0861 -1.1698 -0.2972
    3CHTO    O2 1228   6.264   1.618   0.610 -0.2486 -0.1863 -0.3252
    3CHTO    C1 1229   6.330   1.733   0.550  0.0376 -0.0994  0.5129
    3CHTO   H14 1230   6.298   1.831   0.590 -0.4757 -0.2339  0.4279
    3CHTO    C2 1231   6.305   1.730   0.398 -0.3236  0.3887 -0.0565
    3CHTO   H15 1232   6.311   1.624   0.370 -2.3184  0.2255  0.1220
    3CHTO    O6 1233   6.178   1.783   0.374  0.1703  0.1407 -0.1102
    3CHTO    H1 1234   6.146   1.849   0.432  0.0314  0.8503 -0.9840
    3CHTO    C3 1235   6.411   1.817   0.313  1.0353 -0.2091  0.0201
    3CHTO   H16 1236   6.386   1.923   0.324  0.0447 -0.3520 -0.7788
    3CHTO    N1 1237   6.398   1.797   0.165 -0.2926  0.0684  0.3065
    3CHTO    H8 1238   6.312   1.746   0.124 -1.7801  1.1224  2.0222
    3CHTO    H9 1239   6.413   1.887   0.107  0.0763 -1.5055 -2.1255
    3CHTO    C4 1240   6.553   1.799   0.365  0.6517 -0.7685 -0.0832
    3CHTO   H17 1241   6.591   1.699   0.340 -1.1795 -1.4805 -0.0745
    3CHTO    O1 1242   6.552   1.815   0.505 -0.1678  0.2443  0.2545
    3CHTO    C5 1243   6.476   1.723   0.582 -0.0669 -0.3328 -0.0944
    3CHTO   H18 1244   6.503   1.619   0.565 -1.4658 -0.8987  1.0550
    3CHTO   C16 1245   6.508   1.754   0.732 -0.9570 -0.0681  0.1782
    3CHTO   O11 1246   6.649   1.756   0.754  0.4673  0.6633  0.7127
    3CHTO    H5 1247   6.682   1.834   0.715 -1.1667  0.8731 -0.2993
    3CHTO    O3 1248   6.653   1.894   0.312  0.5383 -0.0764 -0.3558
    3CHTO    C6 1249   6.792   1.885   0.359 -0.8197 -0.1865  0.1108
    3CHTO   H19 1250   6.806   1.831   0.453 -0.7881 -1.4100 -0.5795
    3CHTO    C8 1251   6.871   1.804   0.253 -0.1382 -0.0004  0.1316
    3CHTO   H21 1252   6.837   1.844   0.157  0.3021  0.4492  0.1605
    3CHTO    O7 1253   6.827   1.665   0.260 -0.2055 -0.1000  0.6416
    3CHTO    H2 1254   6.841   1.632   0.347  0.8532  0.4116  0.6697
    3CHTO   C12 1255   7.026   1.804   0.276  0.3112 -0.6039 -0.3493
    3CHTO   H25 1256   7.042   1.743   0.368  1.3919 -0.3713 -0.3723
    3CHTO    N3 1257   7.099   1.736   0.170 -0.9133 -0.1790  0.0720
    3CHTO   H12 1258   7.206   1.753   0.168 -0.9876  0.2381 -0.8710
    3CHTO   H13 1259   7.063   1.723   0.069 -0.0476  1.0376 -0.4024
    3CHTO   C15 1260   7.074   1.955   0.308 -0.0692 -0.1962 -0.1838
    3CHTO   H28 1261   7.064   2.015   0.217 -0.7247 -0.1893 -0.1148
    3CHTO   O10 1262   7.200   1.958   0.346 -0.5973 -0.3549  0.4647
    3CHTO    H4 1263   7.250   1.879   0.337 -0.6280 -0.3441  0.1868
    3CHTO    O5 1264   7.000   2.016   0.408 -0.1346  0.1662  0.0220
    3CHTO   C10 1265   6.860   2.021   0.380  0.5188 -0.0721  0.3542
    3CHTO   H23 1266   6.841   2.091   0.298  0.1612 -0.2616  0.2726
    3CHTO   C17 1267   6.793   2.088   0.498 -0.8019 -0.2396  0.3690
    3CHTO   O12 1268   6.828   2.226   0.520 -0.1292  0.1726 -0.3191
    3CHTO    H6 1269   6.840   2.243   0.612 -1.5132  1.4370 -0.3460
    4CHTO  H203 1270   6.282   6.406   2.308 -0.3589  1.4165  0.1820
    4CHTO   O82 1271   6.329   6.415   2.389  0.2108  0.0351  0.0180
    4CHTO  C123 1272   6.355   6.554   2.427 -0.2267 -0.6004  0.3079
    4CHTO  H227 1273   6.332   6.566   2.534  0.2396  0.1756  0.3271
    4CHTO   O77 1274   6.500   6.558   2.418  0.2966  0.1323 -0.1110
    4CHTO  C118 1275   6.558   6.689   2.416 -0.4105 -0.3817 -0.0018
    4CHTO  H222 1276   6.561   6.723   2.521 -3.7431  1.0931 -0.3424
    4CHTO  C125 1277   6.708   6.661   2.371 -0.4056 -0.1092  0.3145
    4CHTO   O84 1278   6.794   6.607   2.472 -0.8724 -0.3841  0.2129
    4CHTO  H205 1279   6.813   6.676   2.533 -0.1873 -0.1399 -0.2758
    4CHTO  C114 1280   6.490   6.802   2.336  0.0459  0.6109 -0.1898
    4CHTO  H218 1281   6.497   6.775   2.230 -0.4937  1.4620 -0.4479
    4CHTO  C116 1282   6.337   6.802   2.366 -0.2102 -0.0268 -0.1532
    4CHTO  H220 1283   6.321   6.823   2.474  2.8423 -2.0009  0.7283
    4CHTO   O79 1284   6.275   6.909   2.291 -0.0695  0.0436  0.1556
    4CHTO  H201 1285   6.196   6.942   2.330  0.0193  0.9128 -0.3922
    4CHTO  C120 1286   6.278   6.659   2.343 -0.2455  0.2860  0.3897
    4CHTO  H224 1287   6.298   6.642   2.235 -0.7990 -1.6617  0.5710
    4CHTO   N21 1288   6.133   6.653   2.370  0.4959  0.5908  0.4686
    4CHTO  H211 1289   6.084   6.684   2.279  1.4328  2.3311  0.5383
    4CHTO  H212 1290   6.083   6.701   2.454 -1.3063 -2.5236  1.2961
    4CHTO   O75 1291   6.562   6.927   2.360 -0.8334 -0.5238  0.7488
    4CHTO  C112 1292   6.614   6.991   2.218 -0.1864  0.2066 -0.4022
    4CHTO  H216 1293   6.530   7.012   2.149 -1.8453 -0.3200  1.4104
    4CHTO   O73 1294   6.712   6.900   2.165 -0.1361 -0.3908 -0.3765
    4CHTO  C113 1295   6.781   6.942   2.050 -0.1308 -0.3596 -0.2882
    4CHTO  H217 1296   6.713   6.984   1.974  1.6422  0.3921 -1.4964
    4CHTO  C124 1297   6.852   6.816   1.989 -0.7359 -0.0989 -0.4517
    4CHTO   O83 1298   6.930   6.742   2.086  0.6179  0.1892  0.1932
    4CHTO  H204 1299   7.006   6.779   2.126 -0.5370 -0.6173  3.3514
    4CHTO  C109 1300   6.880   7.064   2.089  0.1875  0.3409 -0.1340
    4CHTO  H213 1301   6.944   7.026   2.170  1.6715  2.8135 -0.0970
    4CHTO  C110 1302   6.786   7.177   2.135 -0.3374  0.5394  0.1727
    4CHTO  H214 1303   6.718   7.219   2.062 -0.4423 -0.7310 -0.4839
    4CHTO   O78 1304   6.866   7.297   2.175 -0.3671  0.3670 -0.0278
    4CHTO  H200 1305   6.911   7.283   2.255  1.0624  2.5784 -0.4054
    4CHTO  C111 1306   6.696   7.126   2.258  0.6006  0.7699  0.5931
    4CHTO  H215 1307   6.762   7.105   2.343 -0.3496 -0.5075  1.0424
    4CHTO   N19 1308   6.598   7.228   2.304  0.6836 -0.0816 -0.0326
    4CHTO  H207 1309   6.660   7.301   2.354 -0.8347  0.0362  1.7305
    4CHTO  H208 1310   6.544   7.275   2.223  1.3438  0.0182 -0.4147
    4CHTO   O74 1311   6.970   7.095   1.972  0.1810  0.1052  0.4543
    4CHTO  C115 1312   7.121   7.159   2.025  0.5532  0.1985  0.1867
    4CHTO  H219 1313   7.108   7.227   2.109  1.1471 -1.4783  1.6641
    4CHTO   O76 1314   7.225   7.053   2.069 -0.4603  0.6657 -0.1274
    4CHTO  C122 1315   7.237   6.948   1.971  0.0387  0.2654 -0.2185
    4CHTO  H226 1316   7.150   6.883   1.983  1.2994 -1.6240 -1.0372
    4CHTO  C126 1317   7.349   6.858   2.014 -0.4515  0.0811  0.3130
    4CHTO   O85 1318   7.479   6.923   2.027 -0.0311 -0.2439  0.1436
    4CHTO  H206 1319   7.549   6.863   2.006  0.8412  0.4158  1.1246
    4CHTO  C121 1320   7.261   7.010   1.820 -0.7667 -0.1522 -0.0666
    4CHTO  H225 1321   7.347   6.956   1.777 -0.1729  0.0284  0.8694
    4CHTO   O81 1322   7.140   6.980   1.744 -0.6950  0.3265  0.0917
    4CHTO  H202 1323   7.065   7.026   1.777  0.5538  0.0855  3.4714
    4CHTO  C119 1324   7.288   7.171   1.819  0.1701 -0.3732  0.2755
    4CHTO  H223 1325   7.385   7.179   1.868  1.1900 -3.5692 -1.0664
    4CHTO  C117 1326   7.182   7.249   1.910 -1.0247 -0.4118  0.0044
    4CHTO  H221 1327   7.093   7.274   1.852 -1.3772 -1.3094  0.1452
    4CHTO   N20 1328   7.238   7.374   1.954 -0.5306 -0.2660 -0.3206
    4CHTO  H209 1329   7.326   7.363   2.016  1.3117  0.2205 -2.7887
    4CHTO  H210 1330   7.172   7.441   2.006  1.1988  1.2593 -0.0518
    4CHTO   O80 1331   7.321   7.226   1.673  0.4437  0.4286 -0.1221
    4CHTO  C103 1332   7.471   7.234   1.617 -0.8306  0.7678 -0.4034
    4CHTO  H190 1333   7.532   7.301   1.678 -1.5760  1.5515 -0.5023
    4CHTO  C101 1334   7.552   7.092   1.606 -0.1194  0.2714 -0.6672
    4CHTO  H188 1335   7.478   7.021   1.570 -0.8553  0.3883  0.5827
    4CHTO   O68 1336   7.618   7.046   1.745 -0.2837  0.4040  0.3364
    4CHTO  H168 1337   7.571   7.081   1.819 -2.5750  0.1518 -0.9349
    4CHTO   C99 1338   7.668   7.106   1.488 -0.2756 -0.5062  0.2678
    4CHTO  H186 1339   7.755   7.151   1.539 -0.8420  0.1899  0.6197
    4CHTO   N17 1340   7.711   6.972   1.449  0.4879  0.5100 -0.2751
    4CHTO  H174 1341   7.794   6.966   1.380 -1.7165  1.7707 -3.0804
    4CHTO  H175 1342   7.706   6.901   1.531  2.3588 -2.0863 -2.3379
    4CHTO   C97 1343   7.636   7.199   1.365 -0.2878  0.5911  0.5129
    4CHTO  H184 1344   7.557   7.152   1.303  0.9126 -0.8401  0.0493
    4CHTO   O64 1345   7.594   7.320   1.419  0.3480  0.2143 -0.1171
    4CHTO  C104 1346   7.457   7.308   1.477  0.2849 -0.1971 -0.1568
    4CHTO  H191 1347   7.386   7.253   1.414 -0.2498  1.9899 -1.5223
    4CHTO  C108 1348   7.415   7.455   1.473 -0.7111  0.2460  0.4437
    4CHTO   O71 1349   7.495   7.539   1.563  0.3739  0.1441  0.0909
    4CHTO  H171 1350   7.464   7.626   1.577 -0.6408 -0.3642  1.1105
    4CHTO   O62 1351   7.752   7.224   1.288  0.1531  0.0279  0.4243
    4CHTO   C91 1352   7.732   7.259   1.148  0.0213 -0.4880 -0.5487
    4CHTO  H178 1353   7.632   7.290   1.119  0.3216  0.5989 -0.4369
    4CHTO   C92 1354   7.768   7.133   1.067 -0.2644 -0.3404 -0.2251
    4CHTO  H179 1355   7.873   7.112   1.091 -0.2025  1.2729  0.9795
    4CHTO   O66 1356   7.681   7.018   1.087 -0.0966  0.4405  0.8250
    4CHTO  H166 1357   7.709   6.973   1.164  1.2008 -1.4280 -0.6757
    4CHTO   C93 1358   7.762   7.155   0.909  0.1610  0.1000 -0.3878
    4CHTO  H180 1359   7.655   7.161   0.884  0.6228  1.2781 -2.2355
    4CHTO   N16 1360   7.815   7.038   0.832 -0.1808  0.2850  0.7549
    4CHTO  H172 1361   7.902   6.999   0.884 -0.4107 -0.3784  0.6489
    4CHTO  H173 1362   7.832   7.033   0.726 -0.3003 -1.7282  0.8142
    4CHTO   C94 1363   7.833   7.294   0.868  0.2073 -0.0022  0.1162
    4CHTO  H181 1364   7.941   7.286   0.880 -0.0696 -0.3509  2.5576
    4CHTO   O61 1365   7.799   7.401   0.953  0.1422 -0.1742  0.2620
    4CHTO   C95 1366   7.818   7.382   1.094 -0.4986 -0.3144 -0.4212
    4CHTO  H182 1367   7.920   7.343   1.103 -0.8386 -1.7969 -2.3923
    4CHTO  C106 1368   7.791   7.507   1.184 -0.4592 -0.0095  0.3648
    4CHTO   O69 1369   7.665   7.554   1.191  0.3142  0.2485 -0.0232
    4CHTO  H169 1370   7.663   7.639   1.230  0.3424  0.0068  0.5056
    4CHTO   O63 1371   7.813   7.339   0.717 -0.0148 -0.3813 -0.0735
    4CHTO   C96 1372   7.661   7.366   0.683 -0.4594 -0.0588 -0.5362
    4CHTO  H183 1373   7.606   7.370   0.777  0.8327  2.1729  0.1841
    4CHTO   C98 1374   7.582   7.278   0.581 -0.2143 -0.0256  0.8631
    4CHTO  H185 1375   7.618   7.286   0.478 -1.5387  1.3262  0.4853
    4CHTO   O67 1376   7.596   7.142   0.606  0.0270  0.2751 -0.4236
    4CHTO  H167 1377   7.537   7.113   0.674  1.0207 -0.1093  0.2890
    4CHTO  C102 1378   7.427   7.319   0.583 -0.1679 -0.1116  0.1773
    4CHTO  H189 1379   7.393   7.287   0.683  2.1446  0.7584  1.2953
    4CHTO   N18 1380   7.340   7.246   0.485  0.4926 -0.0086 -0.2059
    4CHTO  H176 1381   7.345   7.290   0.387  0.7452  3.2484  1.2091
    4CHTO  H177 1382   7.369   7.142   0.480  1.0831  0.0279  1.9156
    4CHTO  C105 1383   7.413   7.475   0.580 -0.7699  0.8162  0.5180
    4CHTO  H192 1384   7.414   7.509   0.476  2.1017  1.9742  0.8718
    4CHTO   O65 1385   7.512   7.557   0.654 -0.4980  0.7371  0.0078
    4CHTO  C100 1386   7.646   7.510   0.630 -0.2508 -0.1989  0.6223
    4CHTO  H187 1387   7.667   7.522   0.522 -1.1056  0.1062  0.4811
    4CHTO  C107 1388   7.737   7.610   0.703 -0.5012 -0.1077 -0.0295
    4CHTO   O70 1389   7.717   7.737   0.645 -0.1738 -0.3244 -0.0499
    4CHTO  H170 1390   7.784   7.796   0.673  0.7593 -0.2420 -2.2894
    4CHTO   O57 1391   7.262   7.506   0.641 -0.2429 -0.6619  0.5075
    4CHTO   C85 1392   7.169   7.596   0.583 -0.9245 -0.0547  0.2431
    4CHTO  H157 1393   7.182   7.608   0.473 -0.6359 -1.6912  0.0845
    4CHTO   C83 1394   7.214   7.741   0.622  0.6797 -0.0186  0.3409
    4CHTO  H155 1395   7.301   7.761   0.560 -0.1516  1.1808 -0.4579
    4CHTO   O56 1396   7.259   7.747   0.760 -0.4331 -0.2907  0.2259
    4CHTO  H135 1397   7.340   7.701   0.774 -0.7791 -0.1584  2.9094
    4CHTO   C81 1398   7.096   7.836   0.582 -0.1692  0.4823  0.3412
    4CHTO  H153 1399   7.074   7.818   0.476 -0.1661  0.6602  0.3096
    4CHTO   N14 1400   7.127   7.978   0.591  0.0339 -0.6885 -0.2619
    4CHTO  H141 1401   7.118   8.011   0.693  1.4362  1.5772 -0.8277
    4CHTO  H142 1402   7.050   8.030   0.537 -1.0847 -2.2870 -0.2301
    4CHTO   C79 1403   6.964   7.799   0.660  0.1544 -0.2219 -0.4608
    4CHTO  H151 1404   6.890   7.874   0.631  1.2208  0.9265 -0.2684
    4CHTO   O52 1405   6.919   7.669   0.624 -0.2838  0.4873 -0.3180
    4CHTO   C86 1406   7.015   7.564   0.620 -0.3872 -0.6975 -0.3942
    4CHTO  H158 1407   7.003   7.516   0.719 -0.7816  2.6430  1.2612
    4CHTO   C90 1408   6.953   7.471   0.516  0.7101  0.5245  0.2043
    4CHTO   O60 1409   6.830   7.418   0.567  0.6988  0.1697  0.0626
    4CHTO  H138 1410   6.853   7.378   0.648  0.4674 -3.0463 -1.3749
    4CHTO   O50 1411   6.988   7.808   0.803 -0.4138 -0.2695  0.4037
    4CHTO   C73 1412   6.938   7.832   0.933 -0.5128  0.1080 -0.1042
    4CHTO  H145 1413   6.872   7.920   0.922 -3.6625 -2.1524  0.0041
    4CHTO   C74 1414   7.053   7.854   1.045  0.0334 -0.9361  0.1933
    4CHTO  H146 1415   7.120   7.939   1.026 -0.0632 -1.5151 -3.0785
    4CHTO   O54 1416   6.992   7.896   1.164  0.4373 -0.0001 -0.1794
    4CHTO  H133 1417   6.935   7.969   1.149 -0.4942 -0.6140  0.2645
    4CHTO   C75 1418   7.130   7.718   1.067 -0.0624 -0.4396  0.0348
    4CHTO  H147 1419   7.174   7.686   0.971 -1.4165 -2.2571  0.0131
    4CHTO   N13 1420   7.242   7.717   1.164 -0.4511 -0.2473 -0.2217
    4CHTO  H139 1421   7.241   7.621   1.214 -1.3712  1.0445  2.3156
    4CHTO  H140 1422   7.235   7.801   1.231 -0.1514 -1.2486  1.0978
    4CHTO   C76 1423   7.023   7.601   1.093  0.1664  0.4585 -0.9697
    4CHTO  H148 1424   6.972   7.631   1.184 -1.8937 -1.1108 -1.5628
    4CHTO   O49 1425   6.924   7.596   0.997 -0.3045 -0.1066 -0.5648
    4CHTO   C77 1426   6.851   7.719   0.990 -0.3626 -0.1580 -0.3110
    4CHTO  H149 1427   6.811   7.749   1.087  0.0392 -1.7981  0.3638
    4CHTO   C88 1428   6.721   7.709   0.913 -0.4980 -0.1106  0.3965
    4CHTO   O58 1429   6.628   7.610   0.974  0.2110  0.7867  0.3152
    4CHTO  H136 1430   6.667   7.524   0.977 -0.7982  0.3462  2.1013
    4CHTO   O51 1431   7.096   7.467   1.098 -0.1160  0.7774 -0.0660
    4CHTO   C78 1432   7.103   7.366   0.966  0.5730  0.4757 -0.1315
    4CHTO  H150 1433   7.114   7.426   0.873 -1.5114  1.1463  0.0272
    4CHTO   C80 1434   6.982   7.272   0.951 -0.7009  0.4993  0.1673
    4CHTO  H152 1435   6.963   7.231   1.052  0.9392  0.1815  0.3580
    4CHTO   O55 1436   6.858   7.345   0.920 -0.4996  0.0638  0.0545
    4CHTO  H134 1437   6.797   7.276   0.905 -0.1474 -0.0067 -1.1221
    4CHTO   C84 1438   7.004   7.158   0.838 -0.6408  0.2641 -0.1516
    4CHTO  H156 1439   7.018   7.204   0.740 -0.5703  0.9657  0.1786
    4CHTO   N15 1440   6.889   7.054   0.834 -0.8259 -0.5461 -0.3271
    4CHTO  H143 1441   6.811   7.092   0.896 -0.1060 -1.2090  1.0198
    4CHTO  H144 1442   6.860   7.033   0.733 -1.3199  0.8714 -0.4881
    4CHTO   C87 1443   7.130   7.081   0.875 -0.1650  1.0189  0.1301
    4CHTO  H159 1444   7.127   7.031   0.972 -3.7121 -1.2593 -1.0772
    4CHTO   O53 1445   7.242   7.200   0.867 -0.0535  0.5859  0.1478
    4CHTO   C82 1446   7.231   7.279   0.984 -0.4083  0.0031  0.2148
    4CHTO  H154 1447   7.221   7.208   1.066 -0.5240 -1.9778 -1.4436
    4CHTO   C89 1448   7.364   7.352   1.001  0.5350 -0.2037 -1.0780
    4CHTO   O59 1449   7.398   7.423   1.123 -0.7661 -0.5574 -0.4133
    4CHTO  H137 1450   7.473   7.384   1.163 -1.1810 -0.3645  0.5791
    4CHTO   O45 1451   7.174   6.965   0.750 -0.5413  0.6924 -0.2668
    4CHTO   C67 1452   7.308   6.939   0.714 -0.0439 -0.0195  0.2735
    4CHTO  H124 1453   7.354   7.022   0.661 -1.2935  0.2411 -0.4239
    4CHTO   C65 1454   7.391   6.906   0.842 -0.4162  0.2053  0.1018
    4CHTO  H122 1455   7.380   6.991   0.910 -0.3105 -0.3955  0.8877
    4CHTO   O44 1456   7.530   6.899   0.806 -0.4031  0.1017 -0.1268
    4CHTO  H102 1457   7.567   6.982   0.783 -0.8756  0.6288  0.9952
    4CHTO   C63 1458   7.325   6.782   0.921  0.1658  0.0311  0.6671
    4CHTO  H120 1459   7.223   6.813   0.944  0.8219  2.1638  0.8716
    4CHTO   N11 1460   7.381   6.748   1.052 -0.0194  0.2712 -0.0754
    4CHTO  H108 1461   7.421   6.649   1.046  2.2340  1.2089 -1.6311
    4CHTO  H109 1462   7.441   6.820   1.104 -1.2256  0.8288  0.5693
    4CHTO   C61 1463   7.316   6.655   0.816  0.0454  1.2581 -0.0180
    4CHTO  H118 1464   7.240   6.589   0.861 -0.0592  1.6283  0.3496
    4CHTO   O40 1465   7.268   6.694   0.684  0.2720  0.2794 -0.2528
    4CHTO   C68 1466   7.301   6.815   0.616  0.1053  0.3238  0.5434
    4CHTO  H125 1467   7.218   6.832   0.544  0.1940  0.3776  0.4536
    4CHTO   C72 1468   7.430   6.796   0.528  0.0377  0.6934  1.5070
    4CHTO   O48 1469   7.407   6.693   0.420 -0.5310  0.6832 -0.2534
    4CHTO  H105 1470   7.321   6.704   0.385  0.2896  1.8714 -2.0295
    4CHTO   O38 1471   7.435   6.576   0.803  0.2283 -0.1546  0.1965
    4CHTO   C55 1472   7.429   6.435   0.777  0.2450  0.5768  0.3865
    4CHTO  H112 1473   7.344   6.409   0.712  1.0319  1.8280 -1.1731
    4CHTO   C56 1474   7.418   6.359   0.918  0.3426  0.5499 -0.1657
    4CHTO  H113 1475   7.504   6.399   0.974  0.3868 -0.4306  0.4792
    4CHTO   O42 1476   7.299   6.396   0.989 -0.1802 -0.1067  0.0119
    4CHTO  H100 1477   7.227   6.360   0.940 -1.2828  0.8579  0.8879
    4CHTO   C57 1478   7.428   6.210   0.902 -0.2553  0.6609 -0.1807
    4CHTO  H114 1479   7.337   6.187   0.846  0.4576 -0.7770 -0.7556
    4CHTO   N10 1480   7.432   6.121   1.026  0.2592 -0.1093  0.9068
    4CHTO  H106 1481   7.495   6.164   1.102  1.6008  2.7029 -1.6698
    4CHTO  H107 1482   7.330   6.111   1.060 -0.0405  0.5570  0.2348
    4CHTO   C58 1483   7.545   6.167   0.807  0.1066 -0.0306 -0.6317
    4CHTO  H115 1484   7.638   6.175   0.867 -0.5526 -0.1149  0.4213
    4CHTO   O37 1485   7.558   6.249   0.688 -0.1083 -0.1298 -0.4571
    4CHTO   C59 1486   7.559   6.390   0.709 -1.3231  0.0058 -0.2865
    4CHTO  H116 1487   7.653   6.419   0.757 -0.2006 -1.4371 -1.5647
    4CHTO   C70 1488   7.570   6.454   0.572 -0.5374  0.1720  0.1784
    4CHTO   O46 1489   7.452   6.422   0.488  0.2950 -0.0589 -0.2122
    4CHTO  H103 1490   7.388   6.489   0.504 -0.1012 -0.4668 -0.0792
    4CHTO   O39 1491   7.517   6.008   0.759 -0.0660 -0.5215  0.0437
    4CHTO   C60 1492   7.435   5.982   0.641 -0.1792 -0.1116  0.5669
    4CHTO  H117 1493   7.368   6.064   0.618  0.9520  0.4923 -0.6514
    4CHTO   C62 1494   7.522   5.967   0.513 -0.6960 -0.0717 -0.0916
    4CHTO  H119 1495   7.580   6.061   0.515  1.9374 -1.6620  0.5877
    4CHTO   O43 1496   7.609   5.860   0.528  0.4118  0.4681 -0.0575
    4CHTO  H101 1497   7.565   5.778   0.514 -0.3741  0.5603  1.7074
    4CHTO   C66 1498   7.423   5.953   0.382  1.0964  0.7569  0.3419
    4CHTO  H123 1499   7.350   6.034   0.386 -1.1327 -1.2113  0.6998
    4CHTO   N12 1500   7.492   5.971   0.255  0.1296  0.1753  0.2152
    4CHTO  H110 1501   7.556   5.884   0.247 -1.3972 -0.9430 -0.0389
    4CHTO  H111 1502   7.420   5.982   0.176 -0.2203 -0.1601  0.4857
    4CHTO   C69 1503   7.340   5.824   0.400 -0.6948  0.3385  0.2350
    4CHTO  H126 1504   7.421   5.748   0.404  0.1941  1.2850  0.4007
    4CHTO   O41 1505   7.253   5.834   0.546 -0.5262 -0.4413 -0.2424
    4CHTO   C64 1506   7.351   5.852   0.657  0.0470 -0.3374  0.2051
    4CHTO  H121 1507   7.415   5.761   0.654  0.8563  0.1977  1.1199
    4CHTO   C71 1508   7.270   5.838   0.797 -0.0194 -0.1870  0.0671
    4CHTO   O47 1509   7.234   5.696   0.817  0.1111 -0.2923 -0.4162
    4CHTO  H104 1510   7.312   5.646   0.804  0.4842  0.9524 -3.2730
    4CHTO   O34 1511   7.256   5.798   0.272 -0.2111  0.3939  0.2773
    4CHTO   C49 1512   7.174   5.651   0.210  0.5343 -0.4588  0.4410
    4CHTO   H91 1513   7.095   5.691   0.146 -0.2096  2.6607  3.1665
    4CHTO   C47 1514   7.112   5.566   0.323 -0.6224 -1.0010 -0.0121
    4CHTO   H89 1515   7.058   5.479   0.279  1.2538 -3.1135  1.7167
    4CHTO   O33 1516   7.016   5.642   0.404  0.1864 -0.0778  0.3077
    4CHTO   H70 1517   6.954   5.690   0.352  0.6252 -0.2773 -0.4112
    4CHTO   C45 1518   7.229   5.494   0.411 -0.0416  0.2766  0.5982
    4CHTO   H87 1519   7.300   5.574   0.437  0.8110 -0.3003  0.0821
    4CHTO    N8 1520   7.180   5.430   0.534  0.3338 -0.6066 -0.6144
    4CHTO   H75 1521   7.151   5.502   0.609  1.6436  0.3168 -0.9724
    4CHTO   H76 1522   7.092   5.372   0.514 -0.8525  0.9259  0.0017
    4CHTO   C43 1523   7.306   5.398   0.313 -0.0336 -0.5751  0.1892
    4CHTO   H85 1524   7.380   5.349   0.377  2.2095  0.8591 -1.2233
    4CHTO   O29 1525   7.364   5.484   0.213  0.3376  0.6215 -0.3512
    4CHTO   C50 1526   7.271   5.564   0.132 -0.7207  0.8528  0.1029
    4CHTO   H92 1527   7.326   5.629   0.063 -0.2276  1.0499  0.6775
    4CHTO   C54 1528   7.188   5.487   0.026  0.0292  0.1839 -0.1405
    4CHTO   O36 1529   7.275   5.416  -0.064 -0.2765  0.2124 -0.1145
    4CHTO   H72 1530   7.250   5.442  -0.150 -0.3415  2.1183  0.4477
    4CHTO   O27 1531   7.226   5.285   0.269  0.1891  0.2593  0.5863
    4CHTO   C37 1532   7.223   5.142   0.252  0.6369  0.5791 -0.0314
    4CHTO   H79 1533   7.213   5.134   0.142  1.6146  2.0081 -0.2372
    4CHTO   C38 1534   7.351   5.067   0.297  0.2880 -0.1577 -0.5648
    4CHTO   H80 1535   7.372   5.099   0.400 -1.4395  2.0557 -0.8702
    4CHTO   O31 1536   7.452   5.113   0.209 -0.4075  0.3584  0.4757
    4CHTO   H68 1537   7.533   5.135   0.250 -0.7706  1.0756  0.8034
    4CHTO   C39 1538   7.338   4.915   0.290 -0.9445 -1.0001 -0.1633
    4CHTO   H81 1539   7.320   4.902   0.183 -0.6371  2.5490 -0.7094
    4CHTO    N7 1540   7.460   4.833   0.326  0.5013 -0.4134  0.3419
    4CHTO   H73 1541   7.494   4.783   0.236  2.9116  0.9499  0.4484
    4CHTO   H74 1542   7.539   4.895   0.365  1.7143 -0.7124 -1.5180
    4CHTO   C40 1543   7.211   4.877   0.372  0.1716  0.4091 -0.6632
    4CHTO   H82 1544   7.227   4.918   0.472  2.3616  0.1544 -0.8951
    4CHTO   O26 1545   7.097   4.940   0.313  0.2671  0.1663  0.4382
    4CHTO   C41 1546   7.098   5.084   0.320 -0.3598  0.2355  0.0580
    4CHTO   H83 1547   7.095   5.111   0.426 -1.9212  0.8661 -0.1316
    4CHTO   C52 1548   6.970   5.114   0.244 -0.1351 -0.6096 -0.6020
    4CHTO   O35 1549   6.940   5.253   0.254 -0.4686 -0.2832 -0.5102
    4CHTO   H71 1550   6.997   5.301   0.197  1.4197 -1.6849  0.1389
    4CHTO   O28 1551   7.176   4.741   0.364  0.2963 -0.3792  0.3163
    4CHTO   C42 1552   7.079   4.667   0.453  0.3422  0.3740  0.3240
    4CHTO   H84 1553   7.002   4.630   0.386  0.3053 -0.7207  0.9614
    4CHTO   C44 1554   6.998   4.739   0.571  0.2883 -0.2142 -0.3479
    4CHTO   H86 1555   7.073   4.790   0.631  0.7041 -0.9927 -0.2031
    4CHTO   O32 1556   6.916   4.840   0.510  0.4695 -0.7832  0.1143
    4CHTO   H69 1557   6.972   4.916   0.502 -0.2800 -0.2772 -0.4202
    4CHTO   C48 1558   6.913   4.634   0.660 -0.1223 -0.0618 -0.1574
    4CHTO   H90 1559   6.844   4.583   0.594 -1.0928  2.6061 -1.2750
    4CHTO    N9 1560   6.825   4.698   0.768  0.0102  0.3307 -0.8933
    4CHTO   H77 1561   6.825   4.806   0.767  0.3568  0.3600  0.9148
    4CHTO   H78 1562   6.852   4.660   0.865  2.6786  0.3324 -1.6103
    4CHTO   C51 1563   7.020   4.535   0.714 -0.2146 -0.2576 -1.0096
    4CHTO   H93 1564   7.102   4.582   0.767 -1.6452  0.9380  0.1870
    4CHTO   O30 1565   7.061   4.464   0.598 -0.2272  0.2066  0.3515
    4CHTO   C46 1566   7.162   4.548   0.502  0.3587 -0.0865 -0.5024
    4CHTO   H88 1567   7.248   4.574   0.564  0.7347  0.8247 -1.3698
    4CHTO   C53 1568   7.209   4.454   0.386 -0.2846  0.7626 -0.3792
    4CHTO   O72 1569   7.109   4.373   0.330  0.6566  0.7680 -0.6859
    4CHTO  H199 1570   7.136   4.331   0.251  0.3457  0.0203 -0.3942
    4CHTO   O22 1571   6.963   4.437   0.804 -0.2864  0.0512  0.3472
    4CHTO   C31 1572   7.041   4.377   0.915  0.5319  0.0975 -0.0843
    4CHTO   H59 1573   6.979   4.290   0.947 -2.9918  2.5779  0.1664
    4CHTO   C29 1574   7.180   4.327   0.870  1.2492 -0.4367 -0.0232
    4CHTO   H57 1575   7.246   4.412   0.847  1.1082  0.0271  1.2160
    4CHTO   O21 1576   7.162   4.250   0.750  0.0302  0.4362  0.4328
    4CHTO   H37 1577   7.215   4.280   0.679  0.8763 -1.4772  0.2396
    4CHTO   C27 1578   7.238   4.236   0.992 -0.1175  0.3323 -0.2295
    4CHTO   H55 1579   7.169   4.152   1.011 -0.4340  0.2975 -1.4751
    4CHTO    N5 1580   7.376   4.181   0.967  0.2027  0.1593 -0.0353
    4CHTO   H43 1581   7.418   4.135   1.056  1.6615  1.2903 -0.1203
    4CHTO   H44 1582   7.362   4.102   0.895 -2.4710  0.6345 -0.1149
    4CHTO   C25 1583   7.244   4.323   1.119 -0.0240 -0.4732 -0.7108
    4CHTO   H53 1584   7.327   4.392   1.099  1.1723 -1.5742  0.2822
    4CHTO   O17 1585   7.121   4.394   1.151 -0.2628 -0.4585  0.2758
    4CHTO   C32 1586   7.055   4.469   1.048  0.6918 -0.4253 -0.0868
    4CHTO   H60 1587   7.101   4.564   1.022  0.4192  0.7169  3.2704
    4CHTO   C36 1588   6.914   4.512   1.099 -0.0472 -0.4684 -0.0527
    4CHTO   O25 1589   6.930   4.587   1.223  0.2661  0.1954  0.0308
    4CHTO   H40 1590   6.967   4.539   1.295  3.1893  1.3061 -0.7017
    4CHTO   O15 1591   7.284   4.237   1.255  0.8743  0.3169  0.3371
    4CHTO   C19 1592   7.354   4.279   1.377  0.4201  0.5186  0.2593
    4CHTO   H47 1593   7.339   4.197   1.449 -1.7721 -1.0413 -1.8928
    4CHTO   C20 1594   7.501   4.307   1.362 -0.0721 -0.1464  1.0223
    4CHTO   H48 1595   7.523   4.380   1.282 -0.5034 -0.5666  0.5234
    4CHTO   O19 1596   7.557   4.182   1.321  0.2486 -0.2149  0.3800
    4CHTO   H35 1597   7.573   4.173   1.229 -1.5388  0.7434 -0.0490
    4CHTO   C21 1598   7.571   4.360   1.491 -0.1454 -0.4263  0.1048
    4CHTO   H49 1599   7.573   4.289   1.574  0.6493 -1.1847 -0.5519
    4CHTO    N4 1600   7.715   4.400   1.462 -0.2776 -0.4282 -0.2286
    4CHTO   H41 1601   7.771   4.322   1.512  0.8404  0.6810  0.2768
    4CHTO   H42 1602   7.733   4.401   1.356 -0.4899 -1.7190 -0.2907
    4CHTO   C22 1603   7.491   4.478   1.546  0.7755  0.1322  0.3367
    4CHTO   H50 1604   7.503   4.565   1.482  0.7645 -0.5993 -0.6702
    4CHTO   O14 1605   7.353   4.442   1.557  0.3054  0.7226  0.3773
    4CHTO   C23 1606   7.286   4.396   1.433 -0.2553 -0.3518  1.0037
    4CHTO   H51 1607   7.286   4.480   1.362  0.2948 -0.8228  0.4416
    4CHTO   C34 1608   7.141   4.358   1.467 -0.0390  0.0423  0.4834
    4CHTO   O23 1609   7.061   4.472   1.490  0.3991 -0.9399 -0.3827
    4CHTO   H38 1610   7.117   4.525   1.544 -1.9473  0.0701  1.1565
    4CHTO   O16 1611   7.534   4.506   1.680 -0.1806  0.3455 -0.3345
    4CHTO   C24 1612   7.471   4.637   1.736 -0.4473  0.3307  0.2850
    4CHTO   H52 1613   7.379   4.668   1.687 -1.3566  2.6279  3.3332
    4CHTO   C26 1614   7.565   4.763   1.732 -0.4876  0.0391 -0.0571
    4CHTO   H54 1615   7.669   4.737   1.761  0.1609 -0.4077 -2.6072
    4CHTO   O20 1616   7.581   4.791   1.594 -0.5328 -0.0023 -0.6172
    4CHTO   H36 1617   7.659   4.759   1.554 -1.1085 -0.5280 -1.3140
    4CHTO   C30 1618   7.506   4.887   1.813  0.2482  0.4875 -0.5459
    4CHTO   H58 1619   7.415   4.929   1.768  0.2310 -0.3071 -1.2730
    4CHTO    N6 1620   7.603   4.996   1.823 -0.4584  0.0358  0.0950
    4CHTO   H45 1621   7.638   5.038   1.729 -0.4971  1.9043  0.8952
    4CHTO   H46 1622   7.555   5.073   1.881  0.9439  0.3306  0.8954
    4CHTO   C33 1623   7.449   4.836   1.955  0.2865  0.2895  0.1805
    4CHTO   H61 1624   7.536   4.808   2.017  1.6762  1.1150 -1.3476
    4CHTO   O18 1625   7.357   4.721   1.933 -0.0406  0.3803 -0.6958
    4CHTO   C28 1626   7.432   4.605   1.882 -0.0455 -0.3394  0.2619
    4CHTO   H56 1627   7.518   4.581   1.946 -0.5358  0.3652  1.2054
    4CHTO   C35 1628   7.353   4.476   1.895  0.0625 -0.1501  0.3588
    4CHTO   O24 1629   7.222   4.470   1.836 -0.1536  0.1663  0.1806
    4CHTO   H39 1630   7.170   4.534   1.882  0.5341 -0.4663  1.8479
    4CHTO    O9 1631   7.386   4.943   2.022  0.3274 -0.2168 -0.5793
    4CHTO   C13 1632   7.356   4.946   2.180  0.3552  0.1509 -0.1798
    4CHTO   H26 1633   7.402   4.860   2.233  1.7065  0.7764 -0.3191
    4CHTO   C11 1634   7.195   4.946   2.197 -0.9722 -0.5415 -0.0059
    4CHTO   H24 1635   7.156   4.843   2.190  3.0226 -2.1422 -0.1317
    4CHTO    O8 1636   7.128   5.035   2.107 -0.0607  0.2255  0.0059
    4CHTO    H3 1637   7.040   5.044   2.138 -1.1088  0.3657 -2.8259
    4CHTO    C9 1638   7.163   4.993   2.339  0.3658 -0.0545 -0.2781
    4CHTO   H22 1639   7.215   4.926   2.408  0.2917  0.1053 -0.0678
    4CHTO    N2 1640   7.023   4.974   2.382  0.3248 -0.1441  0.0021
    4CHTO   H10 1641   6.948   4.937   2.314  0.4924  0.4009 -0.4872
    4CHTO   H11 1642   7.011   4.933   2.482  0.0431  0.9170  0.4125
    4CHTO    C7 1643   7.208   5.146   2.356 -0.0831 -0.0430 -0.2675
    4CHTO   H20 1644   7.216   5.174   2.463  0.2402 -0.8010 -0.0937
    4CHTO    O4 1645   7.331   5.172   2.281 -0.1409  0.7811  0.1246
    4CHTO   C14 1646   7.427   5.068   2.256 -0.2783 -0.3941 -0.3254
    4CHTO   H27 1647   7.468   5.042   2.356 -1.0572 -0.3430  0.0102
    4CHTO   C18 1648   7.545   5.134   2.179  0.1861 -0.1810 -0.7232
    4CHTO   O13 1649   7.609   5.227   2.261 -0.3725 -0.2877  0.4123
    4CHTO    H7 1650   7.655   5.282   2.201 -1.4666  0.8166  0.5849
    4CHTO    O2 1651   7.091   5.273   2.301 -0.5315  0.1642 -0.3258
    4CHTO    C1 1652   7.108   5.408   2.357  0.8825  0.3899  0.1191
    4CHTO   H14 1653   7.053   5.478   2.290 -0.4540 -0.6626  0.0892
    4CHTO    C2 1654   7.245   5.465   2.391  0.2817  0.3136 -0.2182
    4CHTO   H15 1655   7.290   5.397   2.465  0.8076  1.8228  0.8591
    4CHTO    O6 1656   7.322   5.467   2.270 -0.5660  0.9007 -0.1079
    4CHTO    H1 1657   7.302   5.390   2.220 -1.5928  1.3689 -0.4310
    4CHTO    C3 1658   7.238   5.608   2.454 -0.1224  0.3060  0.5927
    4CHTO   H16 1659   7.187   5.673   2.381  0.3305  1.9538  1.7249
    4CHTO    N1 1660   7.376   5.670   2.487 -0.2691  0.0507  0.2718
    4CHTO    H8 1661   7.433   5.619   2.563 -0.4756 -0.6782 -0.0572
    4CHTO    H9 1662   7.429   5.689   2.395  0.3159 -2.2067  0.1047
    4CHTO    C4 1663   7.138   5.603   2.579  0.3366  0.3734  0.1146
    4CHTO   H17 1664   7.178   5.545   2.662 -1.9332  0.4174  1.2850
    4CHTO    O1 1665   7.011   5.544   2.545 -0.2237 -0.3572 -0.0768
    4CHTO    C5 1666   7.015   5.415   2.477  0.1556 -0.3252 -0.5543
    4CHTO   H18 1667   7.056   5.348   2.553 -0.5522  0.8682  0.9156
    4CHTO   C16 1668   6.867   5.372   2.447  0.6607  0.0858 -0.2930
    4CHTO   O11 1669   6.817   5.455   2.338 -0.5171 -0.1537 -0.2025
    4CHTO    H5 1670   6.782   5.399   2.271 -1.1870 -1.0724  0.8929
    4CHTO    O3 1671   7.113   5.738   2.621  0.2095 -0.1457  0.4490
    4CHTO    C6 1672   7.083   5.749   2.764 -0.2750 -0.3606 -0.3044
    4CHTO   H19 1673   7.059   5.653   2.810 -0.6580 -0.9940 -1.7873
    4CHTO    C8 1674   7.200   5.809   2.852  0.9286  1.0042  0.4381
    4CHTO   H21 1675   7.233   5.904   2.808 -1.6069  1.5197 -0.4005
    4CHTO    O7 1676   7.307   5.715   2.850 -0.2451 -0.3141 -0.2260
    4CHTO    H2 1677   7.348   5.713   2.765 -0.1281  1.5051 -0.2444
    4CHTO   C12 1678   7.157   5.830   3.002 -0.2612  0.1654 -0.0145
    4CHTO   H25 1679   7.152   5.727   3.042 -1.0802 -0.4035 -1.5339
    4CHTO    N3 1680   7.264   5.898   3.079 -0.5014  0.1932 -0.0452
    4CHTO   H12 1681   7.238   5.946   3.172 -0.7785 -2.2093  1.1566
    4CHTO   H13 1682   7.352   5.837   3.091  0.4558  1.3013 -1.2888
    4CHTO   C15 1683   7.019   5.901   3.005 -0.2936  0.7165  0.2385
    4CHTO   H28 1684   7.031   6.007   2.987  2.0728  0.4263 -0.0626
    4CHTO   O10 1685   6.947   5.898   3.143  0.0837 -0.8233 -0.5299
    4CHTO    H4 1686   6.912   5.812   3.154 -1.5982  0.0567  1.4384
    4CHTO    O5 1687   6.922   5.837   2.918 -0.2876  0.5847  0.5951
    4CHTO   C10 1688   6.958   5.837   2.780  0.5424  0.2765 -0.1524
    4CHTO   H23 1689   6.972   5.939   2.745  1.9006  1.4857  3.7066
    4CHTO   C17 1690   6.826   5.789   2.713 -0.0196 -0.0763 -0.0813
    4CHTO   O12 1691   6.814   5.647   2.721 -0.3616 -1.0033 -0.3384
    4CHTO    H6 1692   6.820   5.618   2.810 -1.4454 -0.8379 -0.2061
    5CHTO  H203 1693   7.700   2.677   2.126 -1.1612  3.0227  0.1164
    5CHTO   O82 1694   7.615   2.638   2.115  0.2691 -0.1111 -0.4716
    5CHTO  C123 1695   7.539   2.638   2.242  0.4714 -0.5296 -0.6165
    5CHTO  H227 1696   7.580   2.562   2.310  0.5423  0.2720  0.2408
    5CHTO   O77 1697   7.556   2.771   2.296  0.2429 -0.0662 -0.1812
    5CHTO  C118 1698   7.508   2.794   2.428  0.0679 -0.0084  0.1770
    5CHTO  H222 1699   7.552   2.715   2.492  0.1005  0.3663  0.6189
    5CHTO  C125 1700   7.558   2.936   2.482  0.3492 -0.4339 -0.2856
    5CHTO   O84 1701   7.500   3.046   2.402  0.4985  0.3580 -0.3000
    5CHTO  H205 1702   7.542   3.063   2.319  2.4865  1.1143  0.8182
    5CHTO  C114 1703   7.356   2.774   2.433 -0.2672 -0.1386  0.6778
    5CHTO  H218 1704   7.311   2.852   2.372  0.6747  0.0940  0.2811
    5CHTO  C116 1705   7.307   2.638   2.360  0.2320 -0.6440 -0.5238
    5CHTO  H220 1706   7.323   2.561   2.439  0.4372 -0.3210 -0.2501
    5CHTO   O79 1707   7.165   2.638   2.340 -0.6237 -0.4039  0.2468
    5CHTO  H201 1708   7.138   2.716   2.296 -2.2928 -0.2784  1.4598
    5CHTO  C120 1709   7.388   2.599   2.218  0.0193 -0.6626 -0.1657
    5CHTO  H224 1710   7.343   2.664   2.141 -1.8933  0.2610  1.6960
    5CHTO   N21 1711   7.365   2.454   2.189  0.4467  0.0683  0.1860
    5CHTO  H211 1712   7.364   2.395   2.279  0.7359  2.3435  1.7163
    5CHTO  H212 1713   7.438   2.409   2.124 -0.2402  0.2446 -0.7233
    5CHTO   O75 1714   7.322   2.787   2.572 -0.1127 -0.4454 -0.2312
    5CHTO  C112 1715   7.160   2.770   2.621 -0.3572 -0.2512 -0.5598
    5CHTO  H216 1716   7.098   2.702   2.560 -0.2519 -1.1453  0.3041
    5CHTO   O73 1717   7.106   2.902   2.625  0.0727 -0.1726  0.1131
    5CHTO  C113 1718   6.976   2.925   2.683  0.2821  0.3415  0.5191
    5CHTO  H217 1719   6.908   2.865   2.619  0.4287  1.5955 -0.8441
    5CHTO  C124 1720   6.924   3.067   2.678 -0.1451 -0.0753 -0.0436
    5CHTO   O83 1721   7.006   3.162   2.751  0.7649 -0.1422 -0.0202
    5CHTO  H204 1722   6.986   3.250   2.724 -0.2610  0.6024  3.0436
    5CHTO  C109 1723   6.964   2.878   2.831 -0.4578  0.6174 -0.3330
    5CHTO  H213 1724   7.023   2.947   2.893 -1.0531 -0.5257  1.5442
    5CHTO  C110 1725   7.024   2.736   2.842 -0.6497 -0.8692 -0.1706
    5CHTO  H214 1726   6.952   2.667   2.798 -0.8666 -0.5377 -0.3431
    5CHTO   O78 1727   7.037   2.700   2.981 -0.6899  0.3301  0.0694
    5CHTO  H200 1728   6.958   2.663   3.015 -0.6421  0.1074 -0.0612
    5CHTO  C111 1729   7.162   2.715   2.766 -0.3810 -0.7894 -0.7745
    5CHTO  H215 1730   7.237   2.770   2.824  0.4221 -0.1740 -2.3739
    5CHTO   N19 1731   7.209   2.575   2.764  0.0977  0.6869 -1.0550
    5CHTO  H207 1732   7.136   2.506   2.803  2.0764 -0.3074  1.0323
    5CHTO  H208 1733   7.303   2.568   2.817 -0.1643  2.5819 -0.2744
    5CHTO   O74 1734   6.820   2.890   2.873  0.2416 -0.3753 -0.2500
    5CHTO  C115 1735   6.791   2.912   3.027  0.1101 -0.2536 -0.5370
    5CHTO  H219 1736   6.859   2.852   3.087 -0.5330 -1.3843 -0.9204
    5CHTO   O76 1737   6.811   3.067   3.069  0.2958 -0.4602 -0.1148
    5CHTO  C122 1738   6.726   3.160   2.997  0.5961 -0.0740  0.4550
    5CHTO  H226 1739   6.773   3.181   2.901  1.1670 -0.5494  0.6336
    5CHTO  C126 1740   6.735   3.293   3.078  0.4515 -0.1799  0.0628
    5CHTO   O85 1741   6.858   3.354   3.063  0.1349  0.0559  0.1153
    5CHTO  H206 1742   6.885   3.361   2.973 -0.3926  2.1036  0.0846
    5CHTO  C121 1743   6.573   3.109   2.980  0.2727  0.9518  0.4609
    5CHTO  H225 1744   6.503   3.190   3.009 -0.4318 -0.4000  2.6495
    5CHTO   O81 1745   6.552   3.074   2.842 -0.1006 -0.0777 -0.1383
    5CHTO  H202 1746   6.599   2.998   2.813  0.3300  0.4155 -0.7501
    5CHTO  C119 1747   6.548   2.996   3.081 -0.0574 -0.3947  0.1342
    5CHTO  H223 1748   6.583   3.029   3.179 -0.0928  0.5220 -0.1622
    5CHTO  C117 1749   6.639   2.871   3.048  0.0910  0.0751  0.5466
    5CHTO  H221 1750   6.620   2.826   2.950 -1.1141 -0.1894  0.8968
    5CHTO   N20 1751   6.617   2.757   3.144 -0.8480 -0.1467 -0.7792
    5CHTO  H209 1752   6.516   2.752   3.183 -0.8552 -0.2417 -0.8088
    5CHTO  H210 1753   6.696   2.741   3.216 -1.4221  1.9000  0.3508
    5CHTO   O80 1754   6.396   2.973   3.110  0.3101  0.2183  0.3172
    5CHTO  C103 1755   6.291   2.957   2.986  0.1194  0.2966 -0.5093
    5CHTO  H190 1756   6.315   3.035   2.914  2.3585  0.2251  0.1219
    5CHTO  C101 1757   6.286   2.816   2.912 -0.4585  0.0219 -0.0119
    5CHTO  H188 1758   6.281   2.744   2.994 -4.1413  1.7145  1.3227
    5CHTO   O68 1759   6.410   2.795   2.801  0.0232 -0.2206 -0.1540
    5CHTO  H168 1760   6.422   2.872   2.749 -0.7672 -0.8751 -1.3241
    5CHTO   C99 1761   6.150   2.805   2.825 -0.6945  0.1082  0.5490
    5CHTO  H186 1762   6.153   2.885   2.747  1.0980  0.4766  0.9768
    5CHTO   N17 1763   6.128   2.676   2.755 -0.7386  0.3768  0.4295
    5CHTO  H174 1764   6.206   2.663   2.681 -1.0982 -0.6000  0.2254
    5CHTO  H175 1765   6.123   2.598   2.829 -1.8611 -1.2621 -1.3413
    5CHTO   C97 1766   6.031   2.837   2.916  0.1375 -0.0122  0.5065
    5CHTO  H184 1767   6.040   2.768   3.002  2.8816 -0.2644  0.0312
    5CHTO   O64 1768   6.044   2.973   2.964  0.5984  0.6465  0.2738
    5CHTO  C104 1769   6.152   2.988   3.054 -0.0662 -0.2638 -0.3129
    5CHTO  H191 1770   6.144   2.932   3.147  0.2089  0.4886  0.1667
    5CHTO  C108 1771   6.143   3.138   3.090  0.4968  0.3027  0.0073
    5CHTO   O71 1772   6.248   3.196   3.170 -0.2694 -0.3801 -0.3465
    5CHTO  H171 1773   6.221   3.281   3.200 -1.2649 -1.3578  1.6048
    5CHTO   O62 1774   5.904   2.832   2.846  0.2934 -0.1103 -0.4010
    5CHTO   C91 1775   5.787   2.828   2.925  0.1099 -0.0566  0.4825
    5CHTO  H178 1776   5.801   2.902   3.004 -2.4975  0.3686  0.6152
    5CHTO   C92 1777   5.759   2.694   2.991 -0.3175  0.3753  0.3728
    5CHTO  H179 1778   5.854   2.659   3.032  0.3646  0.7009 -0.9034
    5CHTO   O66 1779   5.671   2.711   3.097 -0.3846 -0.0655  0.2018
    5CHTO  H166 1780   5.628   2.632   3.124  1.0201 -1.6484 -2.0771
    5CHTO   C93 1781   5.692   2.594   2.890 -0.8733  0.5838  0.3935
    5CHTO  H180 1782   5.640   2.520   2.953 -0.5260 -0.8532 -0.9669
    5CHTO   N16 1783   5.796   2.510   2.824  0.4697  0.1059 -0.1878
    5CHTO  H172 1784   5.741   2.438   2.765  0.4058 -0.8638  1.0277
    5CHTO  H173 1785   5.868   2.567   2.767  0.4242 -2.0013 -2.4580
    5CHTO   C94 1786   5.588   2.656   2.790 -0.4789 -0.0229  0.4635
    5CHTO  H181 1787   5.627   2.667   2.689 -1.6703 -1.3236 -0.1485
    5CHTO   O61 1788   5.556   2.789   2.832 -0.2610 -0.1874 -0.1894
    5CHTO   C95 1789   5.664   2.882   2.833 -0.0603 -0.6408 -1.0491
    5CHTO  H182 1790   5.691   2.912   2.732  1.3000  1.3917 -0.1217
    5CHTO  C106 1791   5.596   3.010   2.904  0.3067  0.2074  0.2464
    5CHTO   O69 1792   5.487   3.053   2.829 -0.1537 -0.5004  0.2248
    5CHTO  H169 1793   5.448   3.133   2.859 -0.3760 -0.6403  0.3096
    5CHTO   O63 1794   5.449   2.546   2.791  0.6449  0.2111 -0.3082
    5CHTO   C96 1795   5.425   2.473   2.662 -0.3939 -0.5651 -0.3774
    5CHTO  H183 1796   5.509   2.480   2.594  0.1095  3.5587  0.5088
    5CHTO   C98 1797   5.299   2.526   2.590  1.3376 -0.2746 -0.8858
    5CHTO  H185 1798   5.207   2.525   2.650  1.2966  2.1041 -0.8677
    5CHTO   O67 1799   5.326   2.665   2.561  0.1039 -0.1679  0.0646
    5CHTO  H167 1800   5.281   2.730   2.612 -0.4551  0.1797 -0.8419
    5CHTO  C102 1801   5.277   2.460   2.452  0.2077  0.3307 -0.0180
    5CHTO  H189 1802   5.362   2.489   2.389 -0.5086  1.1363 -0.6215
    5CHTO   N18 1803   5.160   2.514   2.376 -0.6435 -0.5244  0.6780
    5CHTO  H176 1804   5.123   2.438   2.308  2.2190 -0.9344 -0.4898
    5CHTO  H177 1805   5.187   2.601   2.319  0.6306 -0.8376  0.7919
    5CHTO  C105 1806   5.281   2.306   2.466 -0.0872 -0.0182  0.3175
    5CHTO  H192 1807   5.182   2.267   2.492  0.1038 -1.7522 -1.4228
    5CHTO   O65 1808   5.360   2.244   2.568  0.0753  0.2703  0.0628
    5CHTO  C100 1809   5.405   2.311   2.686  0.1654  0.4294 -0.1509
    5CHTO  H187 1810   5.323   2.302   2.759 -1.0933 -1.1224 -1.7134
    5CHTO  C107 1811   5.541   2.246   2.736  0.1696  0.5086 -0.3850
    5CHTO   O70 1812   5.516   2.108   2.760 -0.2561  0.9031  0.0725
    5CHTO  H170 1813   5.500   2.088   2.850  1.5672 -0.1892  0.1735
    5CHTO   O57 1814   5.336   2.251   2.312 -0.1213 -0.1975 -0.1015
    5CHTO   C85 1815   5.269   2.139   2.253 -0.0355  0.0679  0.3663
    5CHTO  H157 1816   5.168   2.137   2.298 -0.1215 -3.0275  0.1777
    5CHTO   C83 1817   5.345   2.006   2.293  0.4949 -0.0069 -0.0486
    5CHTO  H155 1818   5.340   2.004   2.402 -0.2220 -1.4777 -0.1038
    5CHTO   O56 1819   5.484   2.024   2.261  0.5593  0.2048  0.2007
    5CHTO  H135 1820   5.494   2.043   2.169  1.4491 -1.9780 -0.1866
    5CHTO   C81 1821   5.277   1.879   2.234  0.0380 -0.2018 -0.0511
    5CHTO  H153 1822   5.174   1.875   2.270  0.0256 -1.2374 -0.1785
    5CHTO   N14 1823   5.332   1.750   2.291 -0.2568 -0.2077  0.0020
    5CHTO  H141 1824   5.276   1.662   2.265 -1.3535  0.3749  0.3590
    5CHTO  H142 1825   5.329   1.759   2.397 -0.6665 -0.3240  0.0047
    5CHTO   C79 1826   5.274   1.896   2.077 -0.2338  0.9798  0.3827
    5CHTO  H151 1827   5.223   1.808   2.039  4.0161 -1.3936 -0.1631
    5CHTO   O52 1828   5.198   2.016   2.046  0.4157 -0.0017  0.4622
    5CHTO   C86 1829   5.263   2.140   2.096  0.0434  0.5419  0.1524
    5CHTO  H158 1830   5.368   2.143   2.058 -0.8667  0.2014 -2.4720
    5CHTO   C90 1831   5.194   2.268   2.040 -0.5599 -0.3326  0.1497
    5CHTO   O60 1832   5.182   2.263   1.894 -0.6232  0.3207  0.5101
    5CHTO  H138 1833   5.093   2.263   1.863  0.0343  0.5090 -1.4441
    5CHTO   O50 1834   5.403   1.907   2.019  0.3263  0.0083  0.4880
    5CHTO   C73 1835   5.485   1.855   1.921  0.2506 -0.0353 -0.2056
    5CHTO  H145 1836   5.433   1.844   1.825  0.6131 -0.3659 -0.3690
    5CHTO   C74 1837   5.532   1.709   1.960 -0.4311 -0.0908 -0.0271
    5CHTO  H146 1838   5.437   1.655   1.976 -0.5859  0.1640 -0.0891
    5CHTO   O54 1839   5.575   1.659   1.833 -0.1461  0.2006  0.7360
    5CHTO  H133 1840   5.577   1.565   1.836  1.7459  0.2058  0.5713
    5CHTO   C75 1841   5.628   1.702   2.082  0.0310  0.2340  0.1293
    5CHTO  H147 1842   5.572   1.736   2.171 -0.4409 -1.2975  0.4479
    5CHTO   N13 1843   5.673   1.572   2.111  0.0362  0.2189 -0.9060
    5CHTO  H139 1844   5.723   1.529   2.025 -0.0638 -0.8183 -0.4559
    5CHTO  H140 1845   5.743   1.574   2.193  1.1600  0.6567 -1.8561
    5CHTO   C76 1846   5.746   1.806   2.053 -0.2098 -0.1967 -0.2809
    5CHTO  H148 1847   5.795   1.771   1.962 -1.0854  1.2866 -1.3504
    5CHTO   O49 1848   5.696   1.945   2.027 -0.8277  0.3613  0.2442
    5CHTO   C77 1849   5.616   1.940   1.904  0.5036  0.0151  0.3685
    5CHTO  H149 1850   5.671   1.896   1.821  0.9082  0.7397  0.2496
    5CHTO   C88 1851   5.599   2.083   1.858  0.2060  0.1001  0.1343
    5CHTO   O58 1852   5.515   2.106   1.736 -0.5658 -0.4389  0.7647
    5CHTO  H136 1853   5.548   2.059   1.662 -1.2708  0.7033 -0.2806
    5CHTO   O51 1854   5.834   1.817   2.202  0.5686 -0.1917  0.2554
    5CHTO   C78 1855   5.954   1.921   2.205  0.1655 -0.5483  0.3049
    5CHTO  H150 1856   5.932   2.002   2.132 -1.4453 -2.1058 -1.0046
    5CHTO   C80 1857   6.088   1.854   2.172  0.7435 -0.5887  0.1167
    5CHTO  H152 1858   6.106   1.769   2.241 -0.9609 -1.0576  0.0007
    5CHTO   O55 1859   6.084   1.806   2.034  0.0621  0.4974  0.1179
    5CHTO  H134 1860   6.030   1.730   2.033  0.8571 -0.1073  1.7325
    5CHTO   C84 1861   6.208   1.951   2.192  0.3286 -0.3185 -1.1988
    5CHTO  H156 1862   6.183   2.035   2.127 -2.8368  0.2659  0.6536
    5CHTO   N15 1863   6.342   1.897   2.154  0.0991 -0.2469 -0.0096
    5CHTO  H143 1864   6.354   1.797   2.190 -1.0872 -0.3980 -0.0087
    5CHTO  H144 1865   6.415   1.966   2.191 -1.0142  0.6052  0.6505
    5CHTO   C87 1866   6.206   1.999   2.340 -0.0751  0.6863  0.6617
    5CHTO  H159 1867   6.204   1.913   2.407  0.8342  0.2023  0.0654
    5CHTO   O53 1868   6.061   2.075   2.367 -0.1091  0.5658 -0.2173
    5CHTO   C82 1869   5.951   1.986   2.347 -0.1625  0.7427 -0.6174
    5CHTO  H154 1870   5.950   1.908   2.423  1.9365  0.4365 -0.8687
    5CHTO   C89 1871   5.820   2.065   2.361  0.3477  0.0448 -0.3364
    5CHTO   O59 1872   5.794   2.097   2.499  0.0834 -0.9137  0.3113
    5CHTO  H137 1873   5.722   2.157   2.503  1.9710  1.4250  1.0033
    5CHTO   O45 1874   6.323   2.116   2.357 -0.2385  0.0472 -0.0910
    5CHTO   C67 1875   6.323   2.153   2.497  0.2600 -0.0213  0.6429
    5CHTO  H124 1876   6.221   2.168   2.533 -0.4796  1.1820 -1.8395
    5CHTO   C65 1877   6.388   2.043   2.589 -0.5943  0.5552  0.2348
    5CHTO  H122 1878   6.436   1.968   2.525 -1.3281 -0.3482  0.7323
    5CHTO   O44 1879   6.280   1.975   2.655 -0.3364  0.3492 -0.5438
    5CHTO  H102 1880   6.215   1.956   2.590 -2.9548  0.0803  2.0214
    5CHTO   C63 1881   6.504   2.098   2.682  0.7891  0.3501  0.0639
    5CHTO  H120 1882   6.591   2.114   2.618  1.9442 -2.8225  0.7339
    5CHTO   N11 1883   6.570   2.001   2.775 -0.0033  0.1132  0.8602
    5CHTO  H108 1884   6.515   1.912   2.796 -0.0901 -0.1577 -0.4883
    5CHTO  H109 1885   6.603   2.051   2.864  1.6364 -2.3387  1.6946
    5CHTO   C61 1886   6.462   2.233   2.754 -0.1918  0.1708  0.9078
    5CHTO  H118 1887   6.556   2.283   2.783 -0.9347  1.4152  1.1937
    5CHTO   O40 1888   6.393   2.325   2.658 -0.3218  0.2598  0.3314
    5CHTO   C68 1889   6.400   2.291   2.513  0.3255 -0.2437  0.0923
    5CHTO  H125 1890   6.504   2.298   2.477  1.1626 -0.9406  2.2674
    5CHTO   C72 1891   6.318   2.402   2.439 -0.0007 -0.5741  0.3764
    5CHTO   O48 1892   6.365   2.535   2.460  0.0172 -0.2984  0.0236
    5CHTO  H105 1893   6.313   2.579   2.524  2.7910  0.4031  1.8962
    5CHTO   O38 1894   6.387   2.213   2.875 -0.4012 -0.2511 -0.0385
    5CHTO   C55 1895   6.312   2.319   2.935  0.2850 -0.1874 -0.5421
    5CHTO  H112 1896   6.285   2.400   2.865 -0.0123  1.0483  0.9649
    5CHTO   C56 1897   6.375   2.376   3.063 -0.4748  0.1087  0.1944
    5CHTO  H113 1898   6.407   2.290   3.124 -2.3412  0.0976  1.1743
    5CHTO   O42 1899   6.494   2.447   3.035  0.4648  0.0991 -0.0621
    5CHTO  H100 1900   6.483   2.540   3.046  0.9597  0.2166 -0.5531
    5CHTO   C57 1901   6.274   2.469   3.151  0.3872  0.5612  0.2964
    5CHTO  H114 1902   6.246   2.558   3.094 -0.6399  0.5754  0.8153
    5CHTO   N10 1903   6.331   2.525   3.275 -0.0579  0.6880 -0.4263
    5CHTO  H106 1904   6.274   2.610   3.309  2.1508  2.0196  0.0164
    5CHTO  H107 1905   6.345   2.454   3.355 -2.1122  1.0317  0.2678
    5CHTO   C58 1906   6.146   2.388   3.174 -0.3302 -1.1326 -0.2365
    5CHTO  H115 1907   6.178   2.301   3.236  0.2820  0.4359  1.6971
    5CHTO   O37 1908   6.095   2.364   3.044  0.2014 -0.3084 -0.4279
    5CHTO   C59 1909   6.173   2.263   2.976 -0.2114 -1.0859 -0.3307
    5CHTO  H116 1910   6.189   2.179   3.043 -1.4079  0.4392  1.9820
    5CHTO   C70 1911   6.097   2.215   2.853  0.0283  0.6554 -0.3652
    5CHTO   O46 1912   5.974   2.160   2.892  0.2772  0.1814 -0.0642
    5CHTO  H103 1913   5.973   2.070   2.866 -1.5255  0.2496 -0.3209
    5CHTO   O39 1914   6.026   2.463   3.267 -0.1507  0.1518  0.9270
    5CHTO   C60 1915   5.884   2.443   3.243 -0.6800 -0.3254 -0.7441
    5CHTO  H117 1916   5.853   2.495   3.153 -2.5035  0.7381  0.4840
    5CHTO   C62 1917   5.849   2.293   3.223 -0.1272 -0.2687 -0.7171
    5CHTO  H119 1918   5.904   2.270   3.130  1.0837  1.1330 -0.3776
    5CHTO   O43 1919   5.891   2.218   3.339 -0.6418  0.1728 -0.3272
    5CHTO  H101 1920   5.922   2.133   3.314 -0.5904  0.2836 -0.6401
    5CHTO   C66 1921   5.695   2.289   3.186 -0.0317 -0.3185  0.0551
    5CHTO  H123 1922   5.677   2.359   3.105  1.0038 -3.4271 -2.9749
    5CHTO   N12 1923   5.650   2.154   3.132  0.4054  0.3196 -0.5939
    5CHTO  H110 1924   5.703   2.133   3.040 -2.5419  0.0034 -2.2994
    5CHTO  H111 1925   5.544   2.162   3.110  0.0157  0.1543  1.1670
    5CHTO   C69 1926   5.617   2.342   3.307  0.2572  0.5040 -0.1759
    5CHTO  H126 1927   5.641   2.286   3.400  1.9049  2.4961  0.6387
    5CHTO   O41 1928   5.660   2.496   3.340  0.0265 -0.3208  0.3543
    5CHTO   C64 1929   5.805   2.508   3.354  0.8937  0.7859 -0.1499
    5CHTO  H121 1930   5.828   2.463   3.452 -1.4205  0.8262  0.4425
    5CHTO   C71 1931   5.834   2.661   3.359 -0.6781 -0.0623 -0.7227
    5CHTO   O47 1932   5.781   2.729   3.470 -0.4071 -0.5792 -0.5732
    5CHTO  H104 1933   5.758   2.816   3.445  1.7219  0.9969  2.6013
    5CHTO   O34 1934   5.467   2.336   3.287 -0.0529 -0.2204 -0.5171
    5CHTO   C49 1935   5.331   2.401   3.274  0.1537 -0.0396 -0.1663
    5CHTO   H91 1936   5.264   2.315   3.267 -0.8444  0.6237  0.9669
    5CHTO   C47 1937   5.320   2.477   3.138 -0.0512  0.6008  0.1956
    5CHTO   H89 1938   5.293   2.399   3.064 -1.4340  0.8440  0.4349
    5CHTO   O33 1939   5.445   2.539   3.103 -0.0875  0.5482 -0.1818
    5CHTO   H70 1940   5.437   2.580   3.019 -0.0564 -1.2602 -1.1108
    5CHTO   C45 1941   5.198   2.583   3.142  0.1867 -0.2493 -0.6966
    5CHTO   H87 1942   5.254   2.674   3.168  0.6909 -1.0106  0.9705
    5CHTO    N8 1943   5.130   2.596   3.009 -0.1458  0.1420 -0.2864
    5CHTO   H75 1944   5.184   2.546   2.931 -2.5612  0.2839 -2.1016
    5CHTO   H76 1945   5.100   2.698   2.991 -0.1454  0.3235  0.7052
    5CHTO   C43 1946   5.094   2.557   3.255 -0.2346 -0.9497  0.4264
    5CHTO   H85 1947   5.020   2.637   3.256  0.2668 -0.4804  0.2936
    5CHTO   O29 1948   5.164   2.554   3.377 -0.0919  0.1125 -0.5177
    5CHTO   C50 1949   5.297   2.502   3.387 -0.4275  0.1592  0.0298
    5CHTO   H92 1950   5.375   2.579   3.387 -1.2214  0.9751 -1.2101
    5CHTO   C54 1951   5.304   2.440   3.531  1.0412  0.1469  0.0567
    5CHTO   O36 1952   5.443   2.413   3.566 -0.4269 -0.6358 -0.9204
    5CHTO   H72 1953   5.443   2.383   3.655  1.7045 -0.6895 -0.9250
    5CHTO   O27 1954   5.013   2.435   3.248  0.8728  0.2455  0.0983
    5CHTO   C37 1955   4.872   2.403   3.268 -0.1514 -0.7897  0.4310
    5CHTO   H79 1956   4.822   2.487   3.317  1.9909  0.5247  0.4095
    5CHTO   C38 1957   4.795   2.368   3.134  0.0479  0.3182  0.1484
    5CHTO   H80 1958   4.859   2.302   3.074 -0.8160 -0.3391 -0.0456
    5CHTO   O31 1959   4.774   2.498   3.072 -0.5993  0.5944 -0.1501
    5CHTO   H68 1960   4.708   2.499   3.005  0.5792  0.7401 -1.3263
    5CHTO   C39 1961   4.656   2.300   3.161  0.4341  0.0539  0.7994
    5CHTO   H81 1962   4.599   2.374   3.217  0.4727  1.8216 -1.3675
    5CHTO    N7 1963   4.579   2.268   3.036 -1.0004  0.0912  0.4197
    5CHTO   H73 1964   4.490   2.221   3.075 -0.7817 -0.6776 -0.0004
    5CHTO   H74 1965   4.637   2.211   2.965 -1.8915  0.3870 -0.5679
    5CHTO   C40 1966   4.677   2.171   3.249  0.6117 -0.1229 -0.8157
    5CHTO   H82 1967   4.740   2.096   3.202  1.8357  0.3862 -0.0018
    5CHTO   O26 1968   4.732   2.216   3.372  0.5680  0.6351  0.0536
    5CHTO   C41 1969   4.862   2.280   3.368  0.2413 -0.0720 -0.0418
    5CHTO   H83 1970   4.940   2.206   3.343  0.5397  0.4590 -0.6977
    5CHTO   C52 1971   4.894   2.334   3.510  0.8103 -0.1333  0.1533
    5CHTO   O35 1972   4.891   2.232   3.611 -0.1437 -0.5051 -0.0699
    5CHTO   H71 1973   4.815   2.178   3.600  2.5133 -3.7122 -4.2803
    5CHTO   O28 1974   4.553   2.100   3.278  0.2653  0.0437 -0.1755
    5CHTO   C42 1975   4.476   2.091   3.400  0.4570  0.6597 -0.1221
    5CHTO   H84 1976   4.392   2.033   3.362  1.0432 -0.9323  0.9448
    5CHTO   C44 1977   4.424   2.226   3.452  0.3674  0.5282 -0.5523
    5CHTO   H86 1978   4.496   2.302   3.421  1.5106 -0.2680  0.0901
    5CHTO   O32 1979   4.306   2.258   3.381 -0.0650  0.1920  0.7932
    5CHTO   H69 1980   4.275   2.341   3.409  0.2885 -0.3152  2.7734
    5CHTO   C48 1981   4.405   2.231   3.611  0.5169 -0.1019 -0.0760
    5CHTO   H90 1982   4.301   2.202   3.629  1.3862 -2.3441  1.5899
    5CHTO    N9 1983   4.415   2.373   3.655 -0.0723  0.1626 -0.0228
    5CHTO   H77 1984   4.407   2.434   3.566 -0.6040  0.5320  0.2749
    5CHTO   H78 1985   4.335   2.394   3.724  0.9398  0.5200  1.0544
    5CHTO   C51 1986   4.505   2.139   3.689  0.3575  0.6013  0.0178
    5CHTO   H93 1987   4.603   2.185   3.671  1.4871 -2.5057 -2.2491
    5CHTO   O30 1988   4.493   2.008   3.630  0.6872  0.2443 -0.3478
    5CHTO   C46 1989   4.550   1.991   3.502 -0.2375 -1.1378  0.2977
    5CHTO   H88 1990   4.657   2.007   3.500 -0.4987  0.7732  0.0970
    5CHTO   C53 1991   4.527   1.844   3.449  0.1634 -0.5399  0.1551
    5CHTO   O72 1992   4.584   1.746   3.536  0.1035 -0.0487 -0.5822
    5CHTO  H199 1993   4.624   1.671   3.495 -0.9086 -2.5694  2.8209
    5CHTO   O22 1994   4.480   2.123   3.832 -0.2695 -0.1752 -0.2640
    5CHTO   C31 1995   4.590   2.089   3.923 -0.8980  0.5301 -0.3790
    5CHTO   H59 1996   4.539   2.079   4.021  1.7859  2.7176  1.2885
    5CHTO   C29 1997   4.662   1.956   3.894 -0.3189  0.6651  0.3244
    5CHTO   H57 1998   4.681   1.953   3.786 -0.7007  0.7678  0.2535
    5CHTO   O21 1999   4.568   1.847   3.914 -0.1843 -0.6247 -0.1935
    5CHTO   H37 2000   4.565   1.828   4.006  0.4445 -0.2084 -0.0776
    5CHTO   C27 2001   4.798   1.943   3.976 -0.2463  0.8036 -0.1760
    5CHTO   H55 2002   4.771   1.933   4.082 -1.8127  2.9253 -0.3372
    5CHTO    N5 2003   4.878   1.826   3.927  0.0902  0.0146  0.0031
    5CHTO   H43 2004   4.969   1.817   3.985 -0.7233 -2.1380  0.9773
    5CHTO   H44 2005   4.883   1.843   3.821 -2.1650 -1.0906 -0.3211
    5CHTO   C25 2006   4.885   2.068   3.974  0.2566  0.2157  0.6113
    5CHTO   H53 2007   4.913   2.085   3.869 -0.6637 -0.8901  0.1784
    5CHTO   O17 2008   4.806   2.181   4.031  0.3535 -0.2409  0.6795
    5CHTO   C32 2009   4.691   2.205   3.942 -0.5286  0.2462 -0.4826
    5CHTO   H60 2010   4.731   2.244   3.849  0.9193 -0.1240 -0.0277
    5CHTO   C36 2011   4.627   2.325   3.991  0.3557 -0.2187  0.6080
    5CHTO   O25 2012   4.572   2.309   4.120  0.2264 -0.5401 -0.1324
    5CHTO   H40 2013   4.630   2.259   4.175 -2.1269 -0.6333  2.3426
    5CHTO   O15 2014   4.993   2.057   4.065  0.4658 -0.6565  0.4137
    5CHTO   C19 2015   5.125   2.121   4.080 -0.0229  0.4558 -0.6678
    5CHTO   H47 2016   5.097   2.225   4.101 -1.5712 -0.1521  0.4565
    5CHTO   C20 2017   5.200   2.071   4.207 -0.5404  0.5097 -0.6070
    5CHTO   H48 2018   5.216   1.962   4.206  2.2880  0.8787 -1.0410
    5CHTO   O19 2019   5.120   2.089   4.328 -0.1649  0.0518 -0.0928
    5CHTO   H35 2020   5.169   2.058   4.402  1.6712 -2.2917 -2.2027
    5CHTO   C21 2021   5.336   2.140   4.227  0.0990 -0.0845  0.5892
    5CHTO   H49 2022   5.324   2.247   4.240  1.5466  0.0084  1.2654
    5CHTO    N4 2023   5.415   2.089   4.340  0.1938  0.9492  0.1618
    5CHTO   H41 2024   5.429   2.166   4.414 -2.8898  0.8668  0.8802
    5CHTO   H42 2025   5.512   2.048   4.314 -0.2812  0.6795 -1.2046
    5CHTO   C22 2026   5.417   2.132   4.097  0.1571  0.0392 -0.1319
    5CHTO   H50 2027   5.434   2.026   4.081  0.7258  0.4110 -2.1183
    5CHTO   O14 2028   5.343   2.194   3.992 -0.1398  0.6974 -0.5953
    5CHTO   C23 2029   5.224   2.127   3.957  0.0883 -0.4238 -0.1421
    5CHTO   H51 2030   5.246   2.027   3.917  0.6456 -1.1567  1.9063
    5CHTO   C34 2031   5.164   2.206   3.838 -0.5652 -0.3203 -0.0708
    5CHTO   O23 2032   5.121   2.334   3.874 -0.7108 -0.5913  0.4517
    5CHTO   H38 2033   5.035   2.351   3.839 -0.9983 -0.0412  1.4066
    5CHTO   O16 2034   5.537   2.217   4.107 -0.0296 -0.0120 -0.1888
    5CHTO   C24 2035   5.656   2.197   3.986  0.5946  0.1212 -0.4488
    5CHTO   H52 2036   5.608   2.175   3.890 -0.2982 -3.4337  0.7039
    5CHTO   C26 2037   5.760   2.092   4.033  0.0627 -0.5309 -0.4721
    5CHTO   H54 2038   5.792   2.109   4.138 -0.3340 -0.3628 -0.3768
    5CHTO   O20 2039   5.684   1.965   4.036  0.1670  0.6105  0.0643
    5CHTO   H36 2040   5.741   1.893   4.054 -1.3634 -0.7595 -0.5464
    5CHTO   C30 2041   5.884   2.108   3.937  0.0169  0.0302  0.2367
    5CHTO   H58 2042   5.853   2.085   3.834 -0.1779  1.4938 -0.0361
    5CHTO    N6 2043   5.989   2.011   3.967 -0.3270 -0.5540 -0.0003
    5CHTO   H45 2044   5.965   1.915   3.923  0.9366 -1.1740  0.6209
    5CHTO   H46 2045   5.996   2.002   4.074  2.1161 -0.0435 -0.0865
    5CHTO   C33 2046   5.945   2.252   3.929  0.4312 -0.0073  0.2866
    5CHTO   H61 2047   5.970   2.277   4.033  1.6455  0.7282 -0.1790
    5CHTO   O18 2048   5.839   2.339   3.886  0.0976 -0.5938 -0.2290
    5CHTO   C28 2049   5.722   2.335   3.974 -0.1913 -0.6597 -0.0982
    5CHTO   H56 2050   5.744   2.376   4.073  1.8078 -2.2169  0.1407
    5CHTO   C35 2051   5.606   2.422   3.905 -1.0809  0.3949  0.1224
    5CHTO   O24 2052   5.632   2.565   3.885 -0.1053  0.7896 -0.2184
    5CHTO   H39 2053   5.557   2.608   3.849  0.7256  1.6056 -0.9974
    5CHTO    O9 2054   6.064   2.277   3.850  0.2960  0.4431 -0.2250
    5CHTO   C13 2055   6.066   2.230   3.687 -0.5991 -0.2562  0.6246
    5CHTO   H26 2056   5.960   2.209   3.664 -0.9597  0.6180  1.4353
    5CHTO   C11 2057   6.153   2.107   3.675  0.0498  0.0498 -0.0076
    5CHTO   H24 2058   6.093   2.022   3.709  0.4081  1.0568  3.3028
    5CHTO    O8 2059   6.253   2.120   3.768 -0.4472  0.6600 -0.3941
    5CHTO    H3 2060   6.219   2.098   3.853  1.3047  2.2965  0.7616
    5CHTO    C9 2061   6.205   2.087   3.529  0.1494 -0.1799  0.3240
    5CHTO   H22 2062   6.117   2.089   3.464  1.2251 -0.3256 -1.1591
    5CHTO    N2 2063   6.268   1.953   3.509 -0.5299 -0.3949  0.2264
    5CHTO   H10 2064   6.279   1.933   3.403  2.1550  1.4305  0.1115
    5CHTO   H11 2065   6.357   1.961   3.569 -0.7788  1.7716  0.3490
    5CHTO    C7 2066   6.299   2.212   3.502  0.1169 -0.0467 -1.1837
    5CHTO   H20 2067   6.301   2.216   3.392  0.3654  0.2501 -1.1687
    5CHTO    O4 2068   6.256   2.335   3.559 -0.3272 -0.2819  0.6503
    5CHTO   C14 2069   6.114   2.347   3.580  0.6558 -0.1309  0.5246
    5CHTO   H27 2070   6.077   2.331   3.477  1.2279  2.7144 -0.1536
    5CHTO   C18 2071   6.061   2.483   3.627 -0.0541 -0.4159  0.3770
    5CHTO   O13 2072   6.145   2.524   3.736 -0.4367 -0.3020 -0.2930
    5CHTO    H7 2073   6.103   2.483   3.809 -1.9469  1.1233 -0.3526
    5CHTO    O2 2074   6.451   2.186   3.547  0.1470 -0.0373  0.2726
    5CHTO    C1 2075   6.558   2.256   3.492 -0.3454 -0.5155  0.1927
    5CHTO   H14 2076   6.521   2.349   3.444 -0.5911 -1.5666 -1.7301
    5CHTO    C2 2077   6.650   2.172   3.393  0.5310 -0.0170  0.0287
    5CHTO   H15 2078   6.657   2.077   3.449  2.2576  0.8472  1.2885
    5CHTO    O6 2079   6.574   2.150   3.267  0.0618 -0.0920 -0.0463
    5CHTO    H1 2080   6.485   2.136   3.293  0.6510 -0.7604  1.6876
    5CHTO    C3 2081   6.794   2.241   3.355 -0.0893 -0.2486  0.1804
    5CHTO   H16 2082   6.776   2.328   3.290  1.1682 -0.0514  0.0903
    5CHTO    N1 2083   6.878   2.146   3.275 -0.0477 -0.0172  0.1702
    5CHTO    H8 2084   6.948   2.098   3.342  2.3341 -0.5094 -2.5802
    5CHTO    H9 2085   6.925   2.187   3.187 -0.2858 -0.1440 -0.0175
    5CHTO    C4 2086   6.857   2.300   3.491 -0.6346 -0.0239 -0.3565
    5CHTO   H17 2087   6.901   2.217   3.545  0.1497  0.3962 -0.3397
    5CHTO    O1 2088   6.755   2.372   3.559  0.3441 -0.3530  0.0779
    5CHTO    C5 2089   6.643   2.306   3.615  0.2002  0.4641 -0.1854
    5CHTO   H18 2090   6.666   2.221   3.679 -1.5331  0.4590  0.4709
    5CHTO   C16 2091   6.588   2.419   3.701 -0.8624  0.1898  0.1360
    5CHTO   O11 2092   6.497   2.372   3.795  0.4180  0.2898  0.4655
    5CHTO    H5 2093   6.492   2.437   3.863 -2.6391  1.1403 -0.4450
    5CHTO    O3 2094   6.961   2.398   3.466 -0.4443  0.1168 -0.1908
    5CHTO    C6 2095   7.060   2.415   3.575  0.2901  0.1595  0.0550
    5CHTO   H19 2096   7.025   2.378   3.672 -1.4998  1.6178 -0.0068
    5CHTO    C8 2097   7.195   2.348   3.541 -0.1490  0.0353 -0.2972
    5CHTO   H21 2098   7.227   2.384   3.444 -0.4144 -0.1043 -0.4379
    5CHTO    O7 2099   7.172   2.211   3.541  0.2974  0.0162 -0.8219
    5CHTO    H2 2100   7.095   2.194   3.491  0.5162  1.5662 -1.7251
    5CHTO   C12 2101   7.303   2.397   3.648  0.3527 -0.1601  0.3133
    5CHTO   H25 2102   7.275   2.344   3.741 -3.1469  0.5963 -0.2231
    5CHTO    N3 2103   7.442   2.359   3.602  0.1537  0.0040 -0.5603
    5CHTO   H12 2104   7.462   2.253   3.610  1.4766  0.3433  0.9753
    5CHTO   H13 2105   7.523   2.410   3.653 -0.7194  1.8579 -0.9903
    5CHTO   C15 2106   7.302   2.556   3.677  0.0527  0.6626 -0.0349
    5CHTO   H28 2107   7.362   2.608   3.602  1.0719 -0.1959  0.1831
    5CHTO   O10 2108   7.359   2.591   3.808  0.1235  0.1706 -0.6022
    5CHTO    H4 2109   7.378   2.683   3.815 -3.0558  0.8796 -0.4729
    5CHTO    O5 2110   7.172   2.618   3.692  0.0558 -0.1878  0.0883
    5CHTO   C10 2111   7.079   2.570   3.585 -0.0251  0.1296 -0.3932
    5CHTO   H23 2112   7.123   2.604   3.492 -0.3692 -0.7261 -0.8760
    5CHTO   C17 2113   6.941   2.644   3.595 -0.4173  0.1619 -0.5809
    5CHTO   O12 2114   6.868   2.617   3.713 -0.0326 -0.0515 -0.4200
    5CHTO    H6 2115   6.782   2.652   3.706 -0.2059 -0.4674 -0.4052
    6CHTO  H203 2116   6.368   3.512   0.871  1.3308 -1.6157  0.0661
    6CHTO   O82 2117   6.314   3.484   0.800  0.2379  0.3322  0.0956
    6CHTO  C123 2118   6.215   3.588   0.774  0.1320  0.3466  0.3589
    6CHTO  H227 2119   6.239   3.636   0.678  1.5118 -0.2483  0.3960
    6CHTO   O77 2120   6.089   3.518   0.765  0.1704  0.3985 -0.2026
    6CHTO  C118 2121   5.976   3.603   0.724  0.3963  0.2720 -1.0730
    6CHTO  H222 2122   6.003   3.647   0.628  2.8312  1.6761  0.2031
    6CHTO  C125 2123   5.849   3.509   0.696  0.0612  0.0698 -0.0323
    6CHTO   O84 2124   5.746   3.579   0.627  0.0528  0.8691  0.0079
    6CHTO  H205 2125   5.706   3.641   0.685 -2.4281  0.9747 -1.7384
    6CHTO  C114 2126   5.955   3.709   0.830 -0.7134 -0.6220  0.4501
    6CHTO  H218 2127   5.926   3.660   0.923 -1.2439 -0.0673  0.5746
    6CHTO  C116 2128   6.083   3.793   0.866 -0.1996 -0.5330 -0.2876
    6CHTO  H220 2129   6.103   3.865   0.784  0.3794  0.9085  1.0999
    6CHTO   O79 2130   6.048   3.880   0.981  0.2747 -0.4511  0.1523
    6CHTO  H201 2131   6.067   3.849   1.068  1.0431 -1.5056 -0.3830
    6CHTO  C120 2132   6.204   3.699   0.893  0.3182  0.2423 -0.0369
    6CHTO  H224 2133   6.168   3.648   0.985  3.0523 -0.4073  0.7055
    6CHTO   N21 2134   6.330   3.770   0.911  1.0350  0.3644  0.5784
    6CHTO  H211 2135   6.364   3.792   0.811  1.6328 -0.0479  0.6849
    6CHTO  H212 2136   6.314   3.863   0.962 -0.3123 -0.1598  1.1415
    6CHTO   O75 2137   5.848   3.793   0.775  0.1298 -0.4454 -0.2565
    6CHTO  C112 2138   5.749   3.831   0.875 -0.3228 -0.3877  0.9723
    6CHTO  H216 2139   5.797   3.843   0.973  0.3195 -1.2484  0.7714
    6CHTO   O73 2140   5.647   3.725   0.878 -0.4181 -0.2103 -0.1997
    6CHTO  C113 2141   5.543   3.748   0.974 -0.2242  0.5123  0.0689
    6CHTO  H217 2142   5.592   3.777   1.069 -0.7509  0.1155  0.4708
    6CHTO  C124 2143   5.456   3.627   1.001 -0.1399 -0.1333  0.4820
    6CHTO   O83 2144   5.547   3.529   1.055  0.2882  0.6706  0.5527
    6CHTO  H204 2145   5.638   3.548   1.046  0.1670  1.7382  1.4417
    6CHTO  C109 2146   5.455   3.875   0.929 -0.1965  0.1871 -0.0536
    6CHTO  H213 2147   5.415   3.853   0.828  1.8601  2.0218 -1.3028
    6CHTO  C110 2148   5.555   3.997   0.919 -0.2725 -0.3320 -0.2719
    6CHTO  H214 2149   5.584   4.029   1.019 -0.8074  0.8806 -0.5025
    6CHTO   O78 2150   5.469   4.100   0.861  0.1558  0.0024  0.4696
    6CHTO  H200 2151   5.467   4.106   0.767 -0.7865 -1.1099  0.4102
    6CHTO  C111 2152   5.674   3.961   0.824  0.3467 -0.5665 -0.2821
    6CHTO  H215 2153   5.639   3.952   0.720  1.9436 -0.7142 -0.8218
    6CHTO   N19 2154   5.775   4.076   0.826 -0.1051 -0.9134  0.3047
    6CHTO  H207 2155   5.768   4.143   0.910  0.9626 -0.2093 -0.1641
    6CHTO  H208 2156   5.825   4.103   0.734  0.7953 -1.9712  0.4820
    6CHTO   O74 2157   5.347   3.903   1.021  0.1218 -0.2304  0.1675
    6CHTO  C115 2158   5.363   3.931   1.180  0.2591 -0.8020 -0.0586
    6CHTO  H219 2159   5.442   3.869   1.222  0.2807 -0.5180  0.3297
    6CHTO   O76 2160   5.405   4.082   1.210 -0.2608  0.0525  0.1743
    6CHTO  C122 2161   5.307   4.170   1.162 -0.5556 -0.1930 -0.0383
    6CHTO  H226 2162   5.301   4.155   1.054  0.2635  0.6773 -0.2078
    6CHTO  C126 2163   5.358   4.319   1.175  0.2270  0.2728 -0.1092
    6CHTO   O85 2164   5.277   4.426   1.128  0.2157 -0.2230 -0.3680
    6CHTO  H206 2165   5.222   4.403   1.056 -0.4342 -0.6657  0.2670
    6CHTO  C121 2166   5.170   4.150   1.243 -0.0605  0.3325  1.7413
    6CHTO  H225 2167   5.155   4.243   1.303 -0.1848  0.4888  1.4684
    6CHTO   O81 2168   5.062   4.137   1.147 -0.0937 -0.3423  0.0343
    6CHTO  H202 2169   5.088   4.182   1.069 -2.4307  0.0159 -0.5985
    6CHTO  C119 2170   5.184   4.026   1.340 -0.4948 -0.0741 -0.6995
    6CHTO  H223 2171   5.269   4.042   1.408  0.3689 -3.4201 -0.9009
    6CHTO  C117 2172   5.217   3.900   1.250 -0.1128  0.4703  0.0788
    6CHTO  H221 2173   5.147   3.881   1.169  1.1485 -1.3141 -0.6243
    6CHTO   N20 2174   5.224   3.770   1.328  0.3300  0.5518 -0.2612
    6CHTO  H209 2175   5.126   3.743   1.365 -0.6226  0.7752 -2.5824
    6CHTO  H210 2176   5.264   3.702   1.255 -2.4201  0.5745 -1.8727
    6CHTO   O80 2177   5.078   4.019   1.431  0.2393 -0.0518  0.2419
    6CHTO  C103 2178   5.101   4.032   1.587  0.6601  0.4159  0.0578
    6CHTO  H190 2179   5.188   3.977   1.622 -0.3137 -0.5933  0.9456
    6CHTO  C101 2180   5.102   4.179   1.645  0.2493  0.0614 -0.0978
    6CHTO  H188 2181   5.028   4.245   1.601  2.2816  2.2619 -0.3221
    6CHTO   O68 2182   5.243   4.242   1.613  0.2678  0.1365  0.0656
    6CHTO  H168 2183   5.239   4.335   1.611 -1.2151  0.0830 -0.0552
    6CHTO   C99 2184   5.075   4.188   1.809  0.0833  0.4637  0.0366
    6CHTO  H186 2185   5.163   4.152   1.867  0.6626  1.2877 -0.3304
    6CHTO   N17 2186   5.048   4.326   1.856  0.3803  0.3623  0.2086
    6CHTO  H174 2187   5.124   4.400   1.837  0.5588 -0.0238 -0.5981
    6CHTO  H175 2188   5.024   4.318   1.961  2.6196 -1.0595  0.6338
    6CHTO   C97 2189   4.953   4.089   1.843  0.1134  0.3514 -0.1649
    6CHTO  H184 2190   4.861   4.133   1.802  0.4840  2.3926  1.1227
    6CHTO   O64 2191   4.979   3.962   1.783 -0.2622 -0.1001 -0.3421
    6CHTO  C104 2192   4.974   3.960   1.642 -0.0486  0.1924 -0.1641
    6CHTO  H191 2193   4.883   4.013   1.613 -1.5151 -0.7722  2.5178
    6CHTO  C108 2194   4.961   3.814   1.598  0.1457  0.4882  0.3518
    6CHTO   O71 2195   4.834   3.755   1.644  0.1719 -0.1226  0.1150
    6CHTO  H171 2196   4.824   3.669   1.607  0.7307 -0.3412  0.4684
    6CHTO   O62 2197   4.955   4.061   1.984  0.5344  0.0158 -1.2780
    6CHTO   C91 2198   4.834   4.035   2.049 -0.4952 -1.0772  0.4140
    6CHTO  H178 2199   4.781   4.129   2.039 -0.1239 -0.9592 -0.5612
    6CHTO   C92 2200   4.857   4.010   2.198  0.1210 -0.2328 -0.2924
    6CHTO  H179 2201   4.898   4.101   2.245 -2.5977  0.6237  0.4755
    6CHTO   O66 2202   4.733   3.994   2.266  0.4756 -0.4727 -0.2376
    6CHTO  H166 2203   4.674   4.057   2.229  1.9364  1.3026  0.4060
    6CHTO   C93 2204   4.941   3.875   2.224  0.2655  0.1474  0.0504
    6CHTO  H180 2205   4.911   3.839   2.324  0.9160 -2.5175 -0.6640
    6CHTO   N16 2206   5.086   3.892   2.227 -1.2375  0.4895 -0.5160
    6CHTO  H172 2207   5.118   3.958   2.306  0.3559 -0.1078 -0.6350
    6CHTO  H173 2208   5.136   3.799   2.251 -0.3140  0.8382 -1.0448
    6CHTO   C94 2209   4.902   3.762   2.116  0.0351 -0.4421  0.1418
    6CHTO  H181 2210   4.966   3.767   2.028  0.2050  0.2055  0.2938
    6CHTO   O61 2211   4.770   3.785   2.067 -0.2512  0.1385  0.6903
    6CHTO   C95 2212   4.749   3.911   1.995 -0.3373  0.0874 -0.8053
    6CHTO  H182 2213   4.776   3.892   1.891  1.1617  0.6206 -0.5359
    6CHTO  C106 2214   4.595   3.938   1.985  0.3141 -0.0608  0.1887
    6CHTO   O69 2215   4.563   4.058   1.908  0.1148  0.6917 -1.2232
    6CHTO  H169 2216   4.597   4.133   1.952 -1.0650  1.2994 -1.3348
    6CHTO   O63 2217   4.913   3.628   2.179  0.1555  0.1283 -0.4263
    6CHTO   C96 2218   4.920   3.490   2.092 -0.5529  0.1481 -0.5015
    6CHTO  H183 2219   4.970   3.518   2.000  2.1530  0.2921  0.9526
    6CHTO   C98 2220   4.782   3.423   2.044 -0.9128  0.4031 -1.1310
    6CHTO  H185 2221   4.724   3.405   2.136  0.5067 -0.4006 -0.3788
    6CHTO   O67 2222   4.705   3.522   1.972  0.8207 -0.1278 -0.1468
    6CHTO  H167 2223   4.624   3.480   1.949  0.7805 -0.5813  0.8187
    6CHTO  C102 2224   4.808   3.292   1.965  0.4240 -0.0062  0.1319
    6CHTO  H189 2225   4.827   3.328   1.863  0.3896  0.8444  0.4211
    6CHTO   N18 2226   4.685   3.211   1.950  0.2991 -0.2208 -0.3042
    6CHTO  H176 2227   4.710   3.152   1.863 -2.4703  1.1197 -2.0642
    6CHTO  H177 2228   4.678   3.142   2.033  0.6119 -0.2758 -0.3242
    6CHTO  C105 2229   4.933   3.207   2.017 -0.3053 -0.6818 -0.3582
    6CHTO  H192 2230   4.901   3.103   2.031  1.8805 -1.1217  1.7196
    6CHTO   O65 2231   4.981   3.247   2.151 -0.1618  0.2094  0.2887
    6CHTO  C100 2232   5.006   3.387   2.175 -0.4045  0.2656 -0.0942
    6CHTO  H187 2233   4.990   3.404   2.282  0.0483  1.8741 -0.2795
    6CHTO  C107 2234   5.150   3.414   2.149 -0.3326  0.0054  0.3274
    6CHTO   O70 2235   5.250   3.348   2.227  0.3035 -0.3360  0.4235
    6CHTO  H170 2236   5.227   3.257   2.233  0.3466 -0.3368  0.5892
    6CHTO   O57 2237   5.033   3.229   1.908  0.4872  0.7885  0.1781
    6CHTO   C85 2238   5.055   3.121   1.815 -0.2094  0.5162  0.4736
    6CHTO  H157 2239   4.955   3.084   1.783  0.9760 -1.8104 -0.7094
    6CHTO   C83 2240   5.128   3.000   1.883  0.2459 -0.7023 -0.4183
    6CHTO  H155 2241   5.057   2.955   1.952 -1.4178  0.3735 -1.4017
    6CHTO   O56 2242   5.238   3.055   1.962  0.5874  0.2563  0.4430
    6CHTO  H135 2243   5.202   3.088   2.042  1.1835 -1.1638  1.3166
    6CHTO   C81 2244   5.166   2.893   1.775  0.1286  0.0538 -0.2717
    6CHTO  H153 2245   5.073   2.858   1.731 -0.8537  3.8892 -1.4802
    6CHTO   N14 2246   5.231   2.775   1.843  0.4653  0.3315  0.1921
    6CHTO  H141 2247   5.334   2.793   1.865  0.5242  1.1079 -0.6814
    6CHTO  H142 2248   5.234   2.694   1.773  0.6137  1.7665 -1.4987
    6CHTO   C79 2249   5.256   2.955   1.661 -0.7716 -0.8512  0.3984
    6CHTO  H151 2250   5.269   2.881   1.582  0.8195 -1.4691  1.2162
    6CHTO   O52 2251   5.187   3.066   1.596 -0.7395 -0.0046 -0.0541
    6CHTO   C86 2252   5.139   3.171   1.690 -0.3422 -0.4535 -0.0019
    6CHTO  H158 2253   5.234   3.225   1.711  0.5548 -2.2161  0.5839
    6CHTO   C90 2254   5.049   3.267   1.608  0.2341 -0.1039  0.0554
    6CHTO   O60 2255   4.932   3.203   1.559  0.1589  0.3648 -0.1973
    6CHTO  H138 2256   4.870   3.266   1.527  0.1012 -0.5043 -1.8860
    6CHTO   O50 2257   5.381   3.008   1.708 -0.6951 -0.1156  0.1848
    6CHTO   C73 2258   5.517   3.050   1.727 -0.4388  0.0891 -0.4163
    6CHTO  H145 2259   5.580   2.960   1.722  0.0726  0.4459 -0.4246
    6CHTO   C74 2260   5.552   3.121   1.857 -0.3181 -0.3527 -0.0859
    6CHTO  H146 2261   5.529   3.057   1.944  0.0710  0.8583  0.9228
    6CHTO   O54 2262   5.699   3.147   1.859 -0.2000  0.0115 -0.4228
    6CHTO  H133 2263   5.746   3.066   1.849  0.1119 -0.1149  1.8148
    6CHTO   C75 2264   5.471   3.256   1.856 -0.0952 -0.3524 -0.2490
    6CHTO  H147 2265   5.363   3.236   1.862  0.0329 -1.1430 -0.5259
    6CHTO   N13 2266   5.499   3.335   1.982  0.1393 -0.1500  0.0921
    6CHTO  H139 2267   5.605   3.338   2.001  0.5925  1.7307 -2.5182
    6CHTO  H140 2268   5.456   3.434   1.972  1.0197  0.1474 -0.8903
    6CHTO   C76 2269   5.495   3.342   1.723 -0.8312  0.1213 -0.2672
    6CHTO  H148 2270   5.600   3.369   1.721 -0.6712 -0.2372  1.9362
    6CHTO   O49 2271   5.461   3.258   1.611  0.4820 -0.1103 -0.2216
    6CHTO   C77 2272   5.547   3.144   1.604 -0.9680 -0.0128 -0.4341
    6CHTO  H149 2273   5.651   3.175   1.606 -0.7134 -0.7757 -1.2092
    6CHTO   C88 2274   5.513   3.085   1.465 -0.0422 -0.1505 -0.4062
    6CHTO   O58 2275   5.540   3.182   1.354 -0.6082 -0.0985 -0.1710
    6CHTO  H136 2276   5.526   3.134   1.275  2.7030  0.9067 -1.4285
    6CHTO   O51 2277   5.393   3.457   1.711  0.4580  0.0230  0.0620
    6CHTO   C78 2278   5.465   3.604   1.722 -0.3095 -0.7906 -0.1429
    6CHTO  H150 2279   5.562   3.595   1.775 -0.9127 -0.7602  0.9630
    6CHTO   C80 2280   5.378   3.716   1.795 -0.0052  0.6757 -0.4783
    6CHTO  H152 2281   5.283   3.725   1.739 -0.4184  2.0804  0.4365
    6CHTO   O55 2282   5.373   3.666   1.922  0.1369  0.1444  0.2709
    6CHTO  H134 2283   5.336   3.580   1.928 -3.3683  1.5389 -0.4893
    6CHTO   C84 2284   5.455   3.853   1.795 -0.0642 -0.0967  0.1266
    6CHTO  H156 2285   5.553   3.845   1.841  0.0781  1.2216  0.0766
    6CHTO   N15 2286   5.382   3.964   1.873 -0.5454 -0.6875  0.1115
    6CHTO  H143 2287   5.451   4.028   1.923 -0.8123 -0.7134  0.5161
    6CHTO  H144 2288   5.327   4.021   1.801 -0.1346  0.2357  0.5284
    6CHTO   C87 2289   5.482   3.892   1.644  0.0349 -0.1431  0.1372
    6CHTO  H159 2290   5.393   3.914   1.587 -0.2755 -1.6911  0.0196
    6CHTO   O53 2291   5.566   3.779   1.583 -0.1763 -0.1531  0.6686
    6CHTO   C82 2292   5.499   3.650   1.579  0.3191 -0.6918 -0.1099
    6CHTO  H154 2293   5.413   3.656   1.513 -0.0536 -0.3303  0.4108
    6CHTO   C89 2294   5.603   3.561   1.509 -0.6985  0.2905  0.1805
    6CHTO   O59 2295   5.596   3.579   1.366  0.3454  0.0549  0.2079
    6CHTO  H137 2296   5.639   3.659   1.342  0.8839  0.2301  1.7304
    6CHTO   O45 2297   5.565   4.032   1.635 -0.1782  0.1244  1.3044
    6CHTO   C67 2298   5.698   4.026   1.587 -0.3623  0.4742  0.4773
    6CHTO  H124 2299   5.758   3.944   1.625  1.0225  0.9204 -0.7124
    6CHTO   C65 2300   5.687   4.011   1.426  0.2456 -0.0493 -0.1771
    6CHTO  H122 2301   5.582   4.004   1.399 -0.0735 -0.4286  1.1614
    6CHTO   O44 2302   5.736   3.885   1.381  0.7043  0.3251  0.3560
    6CHTO  H102 2303   5.695   3.821   1.436 -0.9179  1.8273  0.9311
    6CHTO   C63 2304   5.747   4.132   1.356 -0.0748 -0.0065 -0.5233
    6CHTO  H120 2305   5.694   4.223   1.385  0.0574  0.8137 -2.7801
    6CHTO   N11 2306   5.735   4.137   1.210  0.4641 -0.7807 -0.7309
    6CHTO  H108 2307   5.721   4.234   1.166  0.1730 -0.3092  0.3748
    6CHTO  H109 2308   5.664   4.065   1.174  0.2652 -0.1820 -1.5504
    6CHTO   C61 2309   5.893   4.153   1.414 -0.6489  0.3346 -0.5328
    6CHTO  H118 2310   5.934   4.250   1.382  0.6778  0.7329  2.2784
    6CHTO   O40 2311   5.899   4.154   1.560 -0.2476  0.2837 -0.1400
    6CHTO   C68 2312   5.770   4.152   1.631  0.4683 -0.6872 -0.2680
    6CHTO  H125 2313   5.711   4.241   1.602  1.4123 -0.0810 -0.3758
    6CHTO   C72 2314   5.782   4.152   1.782  0.3166 -0.3350 -0.5829
    6CHTO   O48 2315   5.862   4.259   1.827 -0.6803 -0.2401 -0.3973
    6CHTO  H105 2316   5.807   4.331   1.853  0.0893 -0.3352  1.6180
    6CHTO   O38 2317   5.983   4.043   1.375 -0.1324 -0.5695 -0.4163
    6CHTO   C55 2318   6.124   4.051   1.398  0.8373 -0.2797  0.0547
    6CHTO  H112 2319   6.137   4.094   1.498  2.1387  0.4519 -0.4197
    6CHTO   C56 2320   6.210   4.128   1.289 -0.8551  0.2876  0.1744
    6CHTO  H113 2321   6.188   4.084   1.190 -0.2914  0.5526 -0.0737
    6CHTO   O42 2322   6.161   4.266   1.279  0.1816  0.2007 -0.3823
    6CHTO  H100 2323   6.237   4.320   1.266  0.9166 -1.0440 -1.3248
    6CHTO   C57 2324   6.365   4.114   1.321 -0.1559 -0.0241  0.0444
    6CHTO  H114 2325   6.388   4.176   1.408  1.0549  0.0911 -0.3490
    6CHTO   N10 2326   6.448   4.175   1.210 -0.2099  0.1522  0.2739
    6CHTO  H106 2327   6.548   4.201   1.241  0.1683  0.1371 -0.8987
    6CHTO  H107 2328   6.400   4.261   1.165 -1.8813 -1.6524 -1.5158
    6CHTO   C58 2329   6.414   3.970   1.351  0.5007  0.2931  0.3699
    6CHTO  H115 2330   6.419   3.915   1.255 -0.3660  0.6070  0.1383
    6CHTO   O37 2331   6.324   3.907   1.444  0.2832  0.2725 -0.0745
    6CHTO   C59 2332   6.184   3.906   1.414 -0.3116  0.4225 -0.1291
    6CHTO  H116 2333   6.150   3.857   1.322  0.7020  0.5962 -0.6039
    6CHTO   C70 2334   6.097   3.841   1.526 -0.1180 -0.0041  0.0707
    6CHTO   O46 2335   6.063   3.706   1.492  0.1003  0.9056  0.2572
    6CHTO  H103 2336   6.048   3.662   1.574 -1.9142 -0.6417 -0.8958
    6CHTO   O39 2337   6.563   3.966   1.424  0.3482  0.0188 -0.5042
    6CHTO   C60 2338   6.637   3.847   1.439 -0.5275  0.1700 -0.3303
    6CHTO  H117 2339   6.573   3.759   1.436  0.5714 -0.7417  1.6546
    6CHTO   C62 2340   6.740   3.816   1.327  0.2752  0.2965  0.2249
    6CHTO  H119 2341   6.672   3.822   1.239  0.4098  1.2643  0.1861
    6CHTO   O43 2342   6.834   3.921   1.327  0.3879  0.2250 -0.1714
    6CHTO  H101 2343   6.878   3.926   1.244  0.8998 -0.0319  0.0857
    6CHTO   C66 2344   6.821   3.680   1.348 -0.5150 -0.4361  0.4068
    6CHTO  H123 2345   6.756   3.595   1.367 -2.0238  0.5387 -0.3001
    6CHTO   N12 2346   6.901   3.640   1.227  0.4287 -0.2956 -0.5235
    6CHTO  H110 2347   6.838   3.622   1.141  0.1827  0.1592 -0.4416
    6CHTO  H111 2348   6.964   3.558   1.255 -0.6281 -0.6076  1.0010
    6CHTO   C69 2349   6.907   3.703   1.474 -0.9911 -0.2170  0.7569
    6CHTO  H126 2350   6.974   3.791   1.470  0.3479 -1.1339  2.0697
    6CHTO   O41 2351   6.818   3.737   1.600  0.2954 -0.0242  0.5002
    6CHTO   C64 2352   6.704   3.843   1.584  0.6631 -0.2976 -0.0141
    6CHTO  H121 2353   6.745   3.943   1.611 -1.9872  0.5770  1.0597
    6CHTO   C71 2354   6.597   3.821   1.698  0.0399  0.6554 -0.0033
    6CHTO   O47 2355   6.619   3.887   1.823 -0.1867 -0.2315 -0.5577
    6CHTO  H104 2356   6.563   3.962   1.821  1.1657  0.7915 -0.3919
    6CHTO   O34 2357   6.980   3.565   1.520 -0.0977  0.6000 -0.2437
    6CHTO   C49 2358   7.089   3.452   1.473 -0.2165 -0.2657 -0.0857
    6CHTO   H91 2359   7.049   3.394   1.389  1.6001 -1.6895  0.0029
    6CHTO   C47 2360   7.111   3.356   1.588  0.1831  0.1247  0.2535
    6CHTO   H89 2361   7.173   3.274   1.546  2.0351  1.3329  0.5543
    6CHTO   O33 2362   6.986   3.305   1.635  0.0939 -0.5247 -0.2172
    6CHTO   H70 2363   6.960   3.230   1.584  1.2079 -0.7771 -0.4358
    6CHTO   C45 2364   7.185   3.441   1.708 -0.0275 -0.0984 -0.7132
    6CHTO   H87 2365   7.103   3.480   1.770  1.1528  0.9958  0.1718
    6CHTO    N8 2366   7.270   3.351   1.788 -0.4467 -0.0689 -0.4004
    6CHTO   H75 2367   7.372   3.386   1.787  0.5074 -2.7139 -1.7740
    6CHTO   H76 2368   7.231   3.342   1.888 -0.0318 -0.7497 -0.2958
    6CHTO   C43 2369   7.263   3.573   1.656 -0.2631 -0.3933 -0.1596
    6CHTO   H85 2370   7.189   3.653   1.653  1.1234  0.8657 -2.5763
    6CHTO   O29 2371   7.317   3.546   1.528 -0.7106  0.2298  0.0590
    6CHTO   C50 2372   7.226   3.518   1.427  0.0030  0.3777  0.2698
    6CHTO   H92 2373   7.204   3.614   1.378  1.2880  1.1651  1.2016
    6CHTO   C54 2374   7.303   3.431   1.317  0.3432  0.2328 -0.9390
    6CHTO   O36 2375   7.387   3.329   1.378  0.7444 -0.2595  0.6961
    6CHTO   H72 2376   7.351   3.243   1.371  2.2664 -0.8315 -0.5069
    6CHTO   O27 2377   7.366   3.618   1.743  0.1372  0.0864 -0.4180
    6CHTO   C37 2378   7.448   3.737   1.737  0.4138 -0.0013  0.3070
    6CHTO   H79 2379   7.501   3.747   1.641  0.9021 -1.1739  0.4500
    6CHTO   C38 2380   7.365   3.864   1.760  0.7314  0.1458 -0.7520
    6CHTO   H80 2381   7.305   3.848   1.851  1.2727 -0.0497 -0.4243
    6CHTO   O31 2382   7.269   3.879   1.657  0.4778 -0.7460 -0.0281
    6CHTO   H68 2383   7.231   3.965   1.660 -0.9934 -1.3959  0.2686
    6CHTO   C39 2384   7.466   3.989   1.770 -0.4226 -0.3759 -0.6605
    6CHTO   H81 2385   7.520   4.004   1.677 -0.0121 -0.3768 -0.4209
    6CHTO    N7 2386   7.402   4.118   1.800  0.1584 -0.7110  0.2453
    6CHTO   H73 2387   7.434   4.155   1.896 -0.1508 -2.6960  1.1373
    6CHTO   H74 2388   7.296   4.104   1.810 -0.0616 -0.9837 -2.1775
    6CHTO   C40 2389   7.573   3.959   1.878 -0.7751 -0.2411  0.0039
    6CHTO   H82 2390   7.536   3.965   1.980  1.9849  0.4611  1.0233
    6CHTO   O26 2391   7.639   3.831   1.849 -0.0781  0.8893 -0.1923
    6CHTO   C41 2392   7.554   3.713   1.851  0.0259 -0.6742  0.0208
    6CHTO   H83 2393   7.514   3.700   1.953 -0.2082 -0.5182 -0.0507
    6CHTO   C52 2394   7.637   3.587   1.825  0.0368 -0.0440  0.2889
    6CHTO   O35 2395   7.774   3.588   1.906 -0.3491 -0.1618  0.0397
    6CHTO   H71 2396   7.838   3.603   1.839 -1.2364 -0.4072 -0.8773
    6CHTO   O28 2397   7.687   4.056   1.874 -0.1931  0.1288 -0.2351
    6CHTO   C42 2398   7.774   4.088   1.985  0.5194  0.3780  0.6636
    6CHTO   H84 2399   7.874   4.092   1.941  0.3916  1.7642  0.4714
    6CHTO   C44 2400   7.781   3.989   2.108  0.2256 -0.0179  0.4989
    6CHTO   H86 2401   7.678   3.971   2.139  0.2031  0.7204  0.8537
    6CHTO   O32 2402   7.834   3.861   2.055  0.0219 -0.2891  0.3794
    6CHTO   H69 2403   7.922   3.870   2.024 -0.3953  1.0847 -0.4791
    6CHTO   C48 2404   7.873   4.047   2.226 -0.1861  0.1099  0.2973
    6CHTO   H90 2405   7.971   4.048   2.179 -0.3698 -0.5232 -0.1025
    6CHTO    N9 2406   7.881   3.947   2.343 -0.0135 -0.0150  0.2026
    6CHTO   H77 2407   7.962   3.882   2.313 -0.2321 -0.0023 -0.4271
    6CHTO   H78 2408   7.913   4.001   2.431  0.0644 -1.5747  1.1380
    6CHTO   C51 2409   7.830   4.189   2.274  0.0581 -0.0452  0.4091
    6CHTO   H93 2410   7.726   4.182   2.304 -0.1069 -0.2820 -0.2268
    6CHTO   O30 2411   7.848   4.272   2.154  0.3531  0.0358  0.2261
    6CHTO   C46 2412   7.740   4.232   2.036 -0.2370  0.3297 -1.0618
    6CHTO   H88 2413   7.641   4.229   2.081  0.7297 -0.6068  1.1014
    6CHTO   C53 2414   7.745   4.329   1.920  0.1148 -0.6052 -0.4915
    6CHTO   O72 2415   7.876   4.352   1.880 -0.2505  0.5101 -0.2272
    6CHTO  H199 2416   7.868   4.406   1.804 -0.4016  2.3482  1.0862
    6CHTO   O22 2417   7.916   4.258   2.369  0.0753  0.8294 -0.6113
    6CHTO   C31 2418   7.851   4.366   2.450 -0.0937 -0.0653 -0.0011
    6CHTO   H59 2419   7.933   4.424   2.500 -0.9719  2.6260 -1.5923
    6CHTO   C29 2420   7.776   4.473   2.364  0.7108  0.0828  0.3163
    6CHTO   H57 2421   7.702   4.424   2.298  0.4530  0.2653  0.4666
    6CHTO   O21 2422   7.869   4.534   2.273 -0.3648 -0.6075  0.0340
    6CHTO   H37 2423   7.848   4.619   2.239  1.3083 -0.0379  0.3378
    6CHTO   C27 2424   7.695   4.578   2.454  0.7140  0.4417 -0.1173
    6CHTO   H55 2425   7.766   4.630   2.519  0.2873  1.2903 -0.3201
    6CHTO    N5 2426   7.618   4.675   2.373 -0.2553 -0.1154  0.3120
    6CHTO   H43 2427   7.687   4.745   2.329 -2.3566  1.1030 -1.1394
    6CHTO   H44 2428   7.573   4.620   2.291  0.2628  0.5941 -0.4516
    6CHTO   C25 2429   7.599   4.499   2.549  0.0998  0.5046  0.0836
    6CHTO   H53 2430   7.529   4.440   2.488 -0.2089 -1.2579  2.0488
    6CHTO   O17 2431   7.673   4.409   2.625 -0.4455 -0.5679  0.3602
    6CHTO   C32 2432   7.757   4.310   2.565 -0.4696  0.4578 -0.1308
    6CHTO   H60 2433   7.686   4.238   2.524  0.7553 -1.6474  1.3573
    6CHTO   C36 2434   7.826   4.239   2.682 -0.0412  0.1529 -0.3685
    6CHTO   O25 2435   7.926   4.142   2.637 -0.0080 -0.5671 -0.2319
    6CHTO   H40 2436   7.890   4.055   2.644 -2.0711  0.3689  1.2342
    6CHTO   O15 2437   7.510   4.593   2.646 -0.2806 -0.6048  0.8828
    6CHTO   C19 2438   7.400   4.656   2.710 -0.4138 -0.7256  0.7762
    6CHTO   H47 2439   7.352   4.583   2.776 -1.3973 -0.2768  0.5709
    6CHTO   C20 2440   7.456   4.773   2.793  0.0115 -0.5637 -0.3372
    6CHTO   H48 2441   7.502   4.853   2.733 -1.0181 -0.6410 -1.2354
    6CHTO   O19 2442   7.558   4.716   2.882 -0.2234  0.0869  0.0290
    6CHTO   H35 2443   7.643   4.747   2.857 -0.9397  1.2043 -1.0354
    6CHTO   C21 2444   7.329   4.842   2.867  0.1059  0.2714 -0.2127
    6CHTO   H49 2445   7.270   4.769   2.923 -1.2616  1.2322 -0.3582
    6CHTO    N4 2446   7.370   4.954   2.959 -0.0140  0.4435 -0.0009
    6CHTO   H41 2447   7.472   4.943   2.994 -0.1757  2.0752  1.0610
    6CHTO   H42 2448   7.365   5.046   2.903  2.5227  2.5981  3.1080
    6CHTO   C22 2449   7.217   4.885   2.765 -0.5107 -0.0483 -0.3496
    6CHTO   H50 2450   7.246   4.970   2.703 -0.3842  0.4833  0.4330
    6CHTO   O14 2451   7.185   4.769   2.680  0.8338  0.1179  0.2430
    6CHTO   C23 2452   7.289   4.703   2.614 -0.0495  0.1668 -0.2832
    6CHTO   H51 2453   7.332   4.763   2.532  1.9916 -1.0263 -0.1210
    6CHTO   C34 2454   7.221   4.591   2.538  0.1053 -0.5300 -0.1312
    6CHTO   O23 2455   7.145   4.633   2.418 -0.2051  0.0629 -0.2949
    6CHTO   H38 2456   7.096   4.562   2.381 -1.5692  1.0485 -0.3762
    6CHTO   O16 2457   7.102   4.924   2.841 -0.6685  0.1110  0.2510
    6CHTO   C24 2458   7.002   5.028   2.784 -0.1574  0.0137 -0.4379
    6CHTO   H52 2459   7.016   5.043   2.677  0.5764 -0.8639 -0.4629
    6CHTO   C26 2460   7.029   5.154   2.860  0.9488 -1.0939  0.5886
    6CHTO   H54 2461   7.028   5.136   2.970  0.8493  1.3939  1.0266
    6CHTO   O20 2462   7.160   5.206   2.819 -0.5889 -0.5154 -0.1170
    6CHTO   H36 2463   7.229   5.149   2.848 -0.7723 -0.0303  1.2883
    6CHTO   C30 2464   6.912   5.258   2.844 -0.1677  0.0181  0.1262
    6CHTO   H58 2465   6.923   5.298   2.743  1.3428  0.1979  0.3379
    6CHTO    N6 2466   6.935   5.388   2.924 -0.8682  0.4270 -0.3795
    6CHTO   H45 2467   6.967   5.471   2.864  0.6583  0.7905  0.9044
    6CHTO   H46 2468   6.841   5.412   2.971  0.3251  0.3423  2.1299
    6CHTO   C33 2469   6.769   5.195   2.856  0.0394  0.6376  0.3193
    6CHTO   H61 2470   6.747   5.161   2.958 -0.9886  0.8567  0.1780
    6CHTO   O18 2471   6.767   5.079   2.769  0.3678  0.0912 -0.1735
    6CHTO   C28 2472   6.860   4.976   2.804  0.1002 -0.1474 -0.4670
    6CHTO   H56 2473   6.852   4.945   2.909 -1.1736  0.7929 -0.2734
    6CHTO   C35 2474   6.842   4.844   2.719 -0.3248 -0.3917 -0.4822
    6CHTO   O24 2475   6.705   4.804   2.740  0.5214 -0.1818 -0.0971
    6CHTO   H39 2476   6.645   4.865   2.700  0.4205  0.0419  0.3996
    6CHTO    O9 2477   6.672   5.288   2.818  0.1133  0.6211  0.0954
    6CHTO   C13 2478   6.531   5.247   2.871  0.1108  0.8390  0.2608
    6CHTO   H26 2479   6.544   5.237   2.981  4.3493  4.0461  0.1489
    6CHTO   C11 2480   6.481   5.111   2.802  0.0512  0.0292  0.0908
    6CHTO   H24 2481   6.554   5.035   2.832  0.4663  0.2313 -0.4046
    6CHTO    O8 2482   6.468   5.122   2.656 -0.5599 -0.5310  0.1503
    6CHTO    H3 2483   6.409   5.054   2.630 -3.1649  1.2976  1.0352
    6CHTO    C9 2484   6.346   5.071   2.868 -0.3948  0.1443  0.0872
    6CHTO   H22 2485   6.371   5.052   2.974 -0.7238 -1.8086 -0.1777
    6CHTO    N2 2486   6.298   4.938   2.812  0.1047 -0.0288  0.0361
    6CHTO   H10 2487   6.205   4.906   2.855  0.5662  1.6688  2.4129
    6CHTO   H11 2488   6.375   4.862   2.820  0.8614  0.5111 -1.9715
    6CHTO    C7 2489   6.243   5.194   2.861  0.2555 -0.2258  0.1775
    6CHTO   H20 2490   6.230   5.225   2.967  0.9951 -1.8287  0.7546
    6CHTO    O4 2491   6.298   5.302   2.786 -0.1622 -0.0302 -0.2036
    6CHTO   C14 2492   6.418   5.359   2.847  0.5786 -0.9372 -0.2386
    6CHTO   H27 2493   6.376   5.407   2.937 -0.9053 -0.6577 -1.0590
    6CHTO   C18 2494   6.467   5.472   2.756  0.0883  0.2952 -0.3356
    6CHTO   O13 2495   6.545   5.571   2.816 -0.7423  0.0396  0.3439
    6CHTO    H7 2496   6.513   5.600   2.900 -1.3424  0.5592 -0.0587
    6CHTO    O2 2497   6.102   5.168   2.805  0.8114 -0.1217  0.3500
    6CHTO    C1 2498   5.983   5.210   2.874 -0.1399  0.3599 -0.7065
    6CHTO   H14 2499   5.896   5.170   2.818 -0.5061  0.2187 -0.0383
    6CHTO    C2 2500   5.972   5.370   2.891  0.3932  0.3511  0.1383
    6CHTO   H15 2501   6.072   5.410   2.914 -0.3917  1.5823  1.4524
    6CHTO    O6 2502   5.944   5.420   2.759  0.1076 -0.1116  0.1862
    6CHTO    H1 2503   6.025   5.435   2.714  0.4321 -1.6026  0.2622
    6CHTO    C3 2504   5.860   5.415   2.998 -0.3473  0.9093  0.4091
    6CHTO   H16 2505   5.759   5.386   2.965 -0.4173  2.1219 -0.4777
    6CHTO    N1 2506   5.863   5.565   3.017 -0.0415 -0.2815  0.4385
    6CHTO    H8 2507   5.965   5.596   3.036 -0.0525 -0.7637  1.2918
    6CHTO    H9 2508   5.781   5.589   3.083 -1.2574 -1.4581 -0.6076
    6CHTO    C4 2509   5.888   5.340   3.134 -0.0502  0.2254  0.2094
    6CHTO   H17 2510   5.992   5.358   3.161 -0.4418  0.7732  1.3770
    6CHTO    O1 2511   5.872   5.199   3.092 -0.1661 -0.0103 -0.1261
    6CHTO    C5 2512   5.974   5.142   3.013 -0.2164 -0.9284 -0.3451
    6CHTO   H18 2513   6.070   5.154   3.064 -0.8238 -2.7419  1.2967
    6CHTO   C16 2514   5.944   4.988   3.008 -0.0942  0.4531  0.1032
    6CHTO   O11 2515   6.008   4.929   3.122  0.3019  0.5154  0.1043
    6CHTO    H5 2516   6.082   4.878   3.095 -0.2143 -0.4028  0.4072
    6CHTO    O3 2517   5.799   5.358   3.245 -0.3336  0.0817  0.5839
    6CHTO    C6 2518   5.822   5.277   3.370  0.2466 -0.4491  0.4621
    6CHTO   H19 2519   5.902   5.205   3.353  0.3711 -0.5084  1.2690
    6CHTO    C8 2520   5.866   5.376   3.485 -0.1873  0.7176 -0.6708
    6CHTO   H21 2521   5.788   5.450   3.498  0.4448  1.4068 -0.7858
    6CHTO    O7 2522   5.988   5.444   3.434 -0.1122  0.1755 -0.2421
    6CHTO    H2 2523   5.960   5.508   3.372 -1.9276  1.3463  1.6956
    6CHTO   C12 2524   5.889   5.288   3.615  0.1782  0.4479 -0.0300
    6CHTO   H25 2525   5.953   5.207   3.576  0.6263 -0.5486  2.6709
    6CHTO    N3 2526   5.957   5.360   3.731 -0.4358  0.4279 -0.3434
    6CHTO   H12 2527   5.884   5.407   3.795 -0.5373  0.6845 -0.6419
    6CHTO   H13 2528   6.025   5.291   3.778 -1.6487 -1.4221 -1.2152
    6CHTO   C15 2529   5.751   5.227   3.645  0.0905  1.0515  0.0007
    6CHTO   H28 2530   5.682   5.310   3.655 -1.5845 -0.3577  0.4365
    6CHTO   O10 2531   5.747   5.145   3.768 -0.1997  0.3139 -0.1633
    6CHTO    H4 2532   5.810   5.183   3.826 -0.4017 -2.0475  1.6577
    6CHTO    O5 2533   5.711   5.133   3.541 -0.7197  0.2436  0.0080
    6CHTO   C10 2534   5.692   5.198   3.410 -1.0912  0.3589  0.2988
    6CHTO   H23 2535   5.602   5.259   3.408 -1.9280 -0.7848  1.6293
    6CHTO   C17 2536   5.657   5.092   3.306  0.1686  0.5473 -0.1089
    6CHTO   O12 2537   5.751   4.985   3.294 -0.0962  0.4585  0.1476
    6CHTO    H6 2538   5.834   5.016   3.263  0.8437 -1.5536  0.6197
    7CHTO  H203 2539   4.808   1.505   2.774 -0.4092 -0.4652 -1.2209
    7CHTO   O82 2540   4.838   1.590   2.749 -0.1084 -0.2106 -0.0370
    7CHTO  C123 2541   4.976   1.584   2.717 -0.7989  0.8015 -0.1039
    7CHTO  H227 2542   4.986   1.518   2.630 -0.1755 -0.3769  0.8410
    7CHTO   O77 2543   4.999   1.719   2.685 -0.7244 -0.3532  0.0062
    7CHTO  C118 2544   5.131   1.752   2.639 -0.8375 -0.2751  0.3154
    7CHTO  H222 2545   5.156   1.700   2.546 -0.2787  2.3447 -1.0497
    7CHTO  C125 2546   5.145   1.905   2.611  0.0379 -0.6596 -0.2011
    7CHTO   O84 2547   5.042   1.956   2.527  0.0217  0.1047 -0.0033
    7CHTO  H205 2548   5.059   1.926   2.440  0.6458  0.9725 -0.1790
    7CHTO  C114 2549   5.242   1.712   2.740 -0.5721  0.3752 -0.2267
    7CHTO  H218 2550   5.237   1.776   2.828  2.2224 -1.8499  1.6527
    7CHTO  C116 2551   5.229   1.562   2.782 -0.4423  0.3709 -0.3938
    7CHTO  H220 2552   5.252   1.505   2.689  1.3063  1.4035 -0.6076
    7CHTO   O79 2553   5.321   1.518   2.883 -0.4151  0.2959 -0.1418
    7CHTO  H201 2554   5.296   1.551   2.967  0.6684  1.0245 -0.1002
    7CHTO  C120 2555   5.076   1.531   2.826  0.4182  0.2250 -0.5645
    7CHTO  H224 2556   5.062   1.587   2.921  1.1780 -0.5818  0.0288
    7CHTO   N21 2557   5.054   1.388   2.853 -0.2212  0.1312  0.0546
    7CHTO  H211 2558   5.067   1.331   2.762  0.8655 -1.5199  1.1970
    7CHTO  H212 2559   4.965   1.364   2.909  0.5523 -0.5438  1.0159
    7CHTO   O75 2560   5.363   1.756   2.677 -0.2444  0.1950  0.3205
    7CHTO  C112 2561   5.512   1.680   2.723 -0.4882  0.2049 -0.0438
    7CHTO  H216 2562   5.500   1.576   2.690 -2.4376  0.3094  0.2340
    7CHTO   O73 2563   5.543   1.692   2.863  0.6952 -0.4050 -0.5530
    7CHTO  C113 2564   5.667   1.644   2.914 -0.6456 -0.0557  0.9156
    7CHTO  H217 2565   5.665   1.539   2.876  0.2676  0.2678 -0.0427
    7CHTO  C124 2566   5.674   1.643   3.062 -0.1927  0.7952 -0.1511
    7CHTO   O83 2567   5.653   1.769   3.127  0.0499  0.2362  0.4825
    7CHTO  H204 2568   5.574   1.764   3.178 -1.3226 -1.3595 -1.6765
    7CHTO  C109 2569   5.788   1.718   2.852  0.1364 -0.1869 -0.1308
    7CHTO  H213 2570   5.790   1.818   2.899  0.6327 -0.7088  0.9929
    7CHTO  C110 2571   5.772   1.722   2.696 -0.4210 -0.4006  0.5524
    7CHTO  H214 2572   5.802   1.632   2.642  0.2630  0.7590 -1.0188
    7CHTO   O78 2573   5.868   1.819   2.650 -0.2937 -0.2650 -0.2721
    7CHTO  H200 2574   5.869   1.851   2.562  0.8595  0.5603  0.0315
    7CHTO  C111 2575   5.630   1.762   2.650 -0.2027 -0.2985  0.3533
    7CHTO  H215 2576   5.611   1.868   2.669 -0.0725 -0.0488 -0.8679
    7CHTO   N19 2577   5.607   1.742   2.503 -0.7689 -0.1580 -0.1484
    7CHTO  H207 2578   5.580   1.642   2.474 -0.4755 -0.1132 -0.5831
    7CHTO  H208 2579   5.676   1.791   2.436 -1.7787  0.6753 -0.5762
    7CHTO   O74 2580   5.912   1.658   2.898  0.6248  0.2084 -0.1022
    7CHTO  C115 2581   6.031   1.746   2.906  0.1435 -0.0891 -0.0611
    7CHTO  H219 2582   6.047   1.802   2.814  0.1785  0.7182  0.4267
    7CHTO   O76 2583   6.013   1.852   3.015  0.2954  0.1648 -0.1198
    7CHTO  C122 2584   6.015   1.796   3.145  0.7439  0.3103  0.4194
    7CHTO  H226 2585   5.936   1.721   3.148  1.0749 -0.0922 -0.6819
    7CHTO  C126 2586   5.978   1.916   3.233  0.6398 -0.2116  0.1995
    7CHTO   O85 2587   6.070   2.018   3.230  0.4969 -0.5560 -0.9846
    7CHTO  H206 2588   6.152   1.983   3.260  1.2207  2.0181  0.2039
    7CHTO  C121 2589   6.151   1.721   3.177 -0.2918 -0.2717  0.9509
    7CHTO  H225 2590   6.236   1.789   3.157 -0.3158 -0.0957  1.4417
    7CHTO   O81 2591   6.177   1.671   3.309  0.2555 -0.1152 -0.1827
    7CHTO  H202 2592   6.114   1.604   3.328  0.6909  0.1502  2.5044
    7CHTO  C119 2593   6.165   1.605   3.075  0.9056  0.4585  0.0400
    7CHTO  H223 2594   6.266   1.567   3.089  0.4301  0.0819  2.7144
    7CHTO  C117 2595   6.154   1.643   2.923  0.5306 -0.2636  0.2727
    7CHTO  H221 2596   6.139   1.556   2.859 -0.4625  0.0268  0.0926
    7CHTO   N20 2597   6.275   1.706   2.869 -0.6356 -0.2507  0.8062
    7CHTO  H209 2598   6.248   1.726   2.767  0.7789 -0.8640  0.2985
    7CHTO  H210 2599   6.296   1.800   2.917 -1.2715  0.7389 -0.8428
    7CHTO   O80 2600   6.079   1.483   3.119  0.0072  0.1317  0.3561
    7CHTO  C103 2601   6.111   1.347   3.067 -0.4045  0.5322 -0.2681
    7CHTO  H190 2602   6.105   1.360   2.959 -0.7246  2.0553 -0.0846
    7CHTO  C101 2603   6.239   1.274   3.117 -0.2382  0.1674  0.2437
    7CHTO  H188 2604   6.239   1.270   3.226  0.6740 -1.9299  0.1925
    7CHTO   O68 2605   6.367   1.361   3.059 -0.1382  0.2024  0.5239
    7CHTO  H168 2606   6.378   1.358   2.965 -1.1897  2.7062  0.2665
    7CHTO   C99 2607   6.242   1.119   3.070 -0.1784 -0.2303  0.6345
    7CHTO  H186 2608   6.256   1.109   2.961 -2.2327 -1.9607  0.5086
    7CHTO   N17 2609   6.365   1.052   3.117  0.5932 -0.3327 -0.8663
    7CHTO  H174 2610   6.356   0.951   3.155  1.0158  0.5917  1.7919
    7CHTO  H175 2611   6.447   1.055   3.046  1.3924 -0.4861  0.0375
    7CHTO   C97 2612   6.106   1.055   3.099  0.1929 -0.3404  0.0214
    7CHTO  H184 2613   6.099   1.045   3.208  3.5809 -0.5616  0.2757
    7CHTO   O64 2614   5.996   1.135   3.043  0.5299  0.3124 -0.1924
    7CHTO  C104 2615   5.983   1.262   3.112  0.3736  0.3816  0.3077
    7CHTO  H191 2616   5.982   1.263   3.221 -3.3433  0.4631  0.3496
    7CHTO  C108 2617   5.849   1.326   3.060 -0.2243 -0.0329  1.1784
    7CHTO   O71 2618   5.731   1.249   3.083 -0.2870 -0.5552  0.1180
    7CHTO  H171 2619   5.709   1.211   3.000  2.0082  0.0291 -0.7715
    7CHTO   O62 2620   6.088   0.928   3.042  0.2826 -0.2694  0.0614
    7CHTO   C91 2621   6.019   0.835   3.130 -0.1470 -0.0699 -0.3922
    7CHTO  H178 2622   6.003   0.748   3.066  1.9804  0.0448 -1.1278
    7CHTO   C92 2623   5.879   0.873   3.184 -0.1969  0.2816  0.6493
    7CHTO  H179 2624   5.901   0.954   3.255  0.0490  1.4346 -0.7047
    7CHTO   O66 2625   5.802   0.935   3.075  0.7116  0.3708  0.4924
    7CHTO  H166 2626   5.729   0.894   3.032 -0.9701  2.6043  1.1288
    7CHTO   C93 2627   5.805   0.759   3.262  0.9970 -0.1973  0.2942
    7CHTO  H180 2628   5.791   0.673   3.194  1.6600  1.2417 -1.7207
    7CHTO   N16 2629   5.672   0.797   3.318 -0.1617  0.1578  0.6413
    7CHTO  H172 2630   5.685   0.892   3.366 -0.8740  0.4966  0.1628
    7CHTO  H173 2631   5.632   0.727   3.389  2.1932 -0.8470  1.0344
    7CHTO   C94 2632   5.904   0.713   3.368  0.2787 -0.1821 -0.4658
    7CHTO  H181 2633   5.913   0.787   3.448 -0.8100 -0.7971  0.2257
    7CHTO   O61 2634   6.032   0.686   3.323 -0.1692  0.1111  0.0170
    7CHTO   C95 2635   6.104   0.788   3.255 -0.0407  0.0291 -0.4987
    7CHTO  H182 2636   6.126   0.872   3.320 -0.9776  0.2558 -0.4672
    7CHTO  C106 2637   6.239   0.709   3.215  0.2629  0.2034 -0.7656
    7CHTO   O69 2638   6.334   0.705   3.321 -0.0812  0.1443  0.1489
    7CHTO  H169 2639   6.341   0.618   3.355  0.6313  1.4279  3.5157
    7CHTO   O63 2640   5.857   0.571   3.418  0.0102  0.2841  0.0346
    7CHTO   C96 2641   5.805   0.548   3.550  0.3413  0.0926 -0.2926
    7CHTO  H183 2642   5.717   0.610   3.565 -0.7912 -1.3808 -0.7268
    7CHTO   C98 2643   5.908   0.583   3.668 -0.2432 -0.7665  0.4822
    7CHTO  H185 2644   5.956   0.679   3.645 -1.0110 -0.2190  1.0908
    7CHTO   O67 2645   5.832   0.605   3.789  0.5819 -0.1738 -0.3356
    7CHTO  H167 2646   5.745   0.572   3.780  0.4201 -0.4307  1.8889
    7CHTO  C102 2647   6.009   0.464   3.693 -0.0402  0.3107 -0.1513
    7CHTO  H189 2648   6.048   0.479   3.794  0.4935  0.0120 -0.3082
    7CHTO   N18 2649   6.133   0.463   3.607  0.1181 -0.1860  0.2981
    7CHTO  H176 2650   6.097   0.439   3.509  0.8402 -0.9372  0.2147
    7CHTO  H177 2651   6.189   0.556   3.608  0.5077 -0.4157 -0.3213
    7CHTO  C105 2652   5.937   0.328   3.701 -0.1488  0.3937 -0.5307
    7CHTO  H192 2653   5.974   0.258   3.625  0.3497  0.4691 -0.3583
    7CHTO   O65 2654   5.789   0.329   3.686 -0.5144  0.2765 -0.5399
    7CHTO  C100 2655   5.741   0.401   3.568  0.1713  0.7040 -0.2361
    7CHTO  H187 2656   5.757   0.339   3.478  0.1454 -0.3684  0.4833
    7CHTO  C107 2657   5.584   0.397   3.574  0.4120  0.9457 -0.9747
    7CHTO   O70 2658   5.520   0.457   3.462  0.1651 -0.7470  0.6098
    7CHTO  H170 2659   5.526   0.549   3.477  1.3726 -1.1047  2.4464
    7CHTO   O57 2660   5.964   0.267   3.850  0.1951  0.0558  0.1197
    7CHTO   C85 2661   6.006   0.127   3.847 -0.3876  0.5778  0.5839
    7CHTO  H157 2662   6.056   0.107   3.750 -1.0331 -1.1880  0.6022
    7CHTO   C83 2663   5.878   0.039   3.858  0.3972  0.0044 -0.2180
    7CHTO  H155 2664   5.806   0.061   3.780  0.7251 -1.3100 -0.9067
    7CHTO   O56 2665   5.803   0.086   3.980 -0.3573  0.0651 -0.6913
    7CHTO  H135 2666   5.792   0.179   3.979 -2.1958 -0.1164  1.1778
    7CHTO   C81 2667   5.917  -0.114   3.847 -0.1301 -0.1910 -0.8321
    7CHTO  H153 2668   5.969  -0.126   3.753 -0.7238  1.5046 -1.4033
    7CHTO   N14 2669   5.800  -0.204   3.835  0.3043 -0.1214  0.0355
    7CHTO  H141 2670   5.742  -0.220   3.924 -0.8945  0.9495 -0.5311
    7CHTO  H142 2671   5.733  -0.175   3.756  1.9765 -1.9759 -2.1335
    7CHTO   C79 2672   6.029  -0.147   3.963  0.3816 -0.4413  0.6279
    7CHTO  H151 2673   6.085  -0.234   3.930 -0.5093 -2.0084  3.1496
    7CHTO   O52 2674   6.148  -0.052   3.959 -0.1876 -0.0511 -0.0701
    7CHTO   C86 2675   6.102   0.086   3.962 -0.3630 -0.1833 -0.1930
    7CHTO  H158 2676   6.058   0.096   4.063 -0.4958  0.2079 -0.2878
    7CHTO   C90 2677   6.231   0.169   3.956 -0.4356 -0.2647 -0.6667
    7CHTO   O60 2678   6.313   0.165   4.069 -0.4138  0.0447  0.0989
    7CHTO  H138 2679   6.378   0.231   4.057 -2.3250  2.1597  0.8648
    7CHTO   O50 2680   5.973  -0.160   4.095  0.0254  0.2054 -0.5162
    7CHTO   C73 2681   5.999  -0.220   4.225  0.7390  0.0460 -0.3518
    7CHTO  H145 2682   6.090  -0.282   4.214  0.2833 -0.7317  0.2236
    7CHTO   C74 2683   5.879  -0.317   4.251  0.5412  0.6958  0.6597
    7CHTO  H146 2684   5.864  -0.376   4.160 -1.7988 -0.9061  2.0137
    7CHTO   O54 2685   5.919  -0.402   4.361  0.6993  0.0705  0.2053
    7CHTO  H133 2686   5.951  -0.489   4.346  0.6941 -0.0733  0.9699
    7CHTO   C75 2687   5.752  -0.228   4.282  0.6284  0.0959 -0.4516
    7CHTO  H147 2688   5.728  -0.167   4.194  3.1921  1.2484 -0.3847
    7CHTO   N13 2689   5.636  -0.310   4.322  1.2109 -0.3955 -0.3318
    7CHTO  H139 2690   5.573  -0.310   4.235  1.7960  3.1938 -0.8415
    7CHTO  H140 2691   5.581  -0.262   4.402  0.6164  1.5306 -1.8437
    7CHTO   C76 2692   5.776  -0.121   4.396  0.2860 -0.2526 -0.0050
    7CHTO  H148 2693   5.787  -0.168   4.494  1.2739 -1.1102 -0.5249
    7CHTO   O49 2694   5.902  -0.045   4.361  0.4024  0.9183 -0.0251
    7CHTO   C77 2695   6.021  -0.121   4.344  0.5334  0.4677 -0.0677
    7CHTO  H149 2696   6.037  -0.181   4.434  0.2641 -1.0605 -1.0141
    7CHTO   C88 2697   6.137  -0.024   4.325  0.7704  0.7206  0.3275
    7CHTO   O58 2698   6.249  -0.092   4.281  0.3107  0.3534  0.4481
    7CHTO  H136 2699   6.300  -0.034   4.227 -1.4486  1.8882  0.3939
    7CHTO   O51 2700   5.661  -0.009   4.390 -0.0927  0.0729 -0.0898
    7CHTO   C78 2701   5.634   0.051   4.541  0.5231 -0.3527  0.2402
    7CHTO  H150 2702   5.718   0.038   4.613 -1.5362  0.0117  2.7887
    7CHTO   C80 2703   5.510  -0.024   4.607  0.5738 -0.1337 -0.0786
    7CHTO  H152 2704   5.427  -0.022   4.533 -1.1458 -0.1913  1.7753
    7CHTO   O55 2705   5.549  -0.160   4.624 -0.3117 -0.2677 -0.3743
    7CHTO  H134 2706   5.470  -0.209   4.636 -0.2714 -0.2310  0.0401
    7CHTO   C84 2707   5.462   0.036   4.748  0.2908 -0.0350  0.1812
    7CHTO  H156 2708   5.538   0.012   4.822  1.2416  2.0358 -0.0999
    7CHTO   N15 2709   5.336  -0.025   4.810 -0.6162 -0.1928  0.1561
    7CHTO  H143 2710   5.256  -0.042   4.741 -0.1227 -0.0052 -0.4801
    7CHTO  H144 2711   5.296   0.015   4.900 -1.7583  3.4459 -1.8784
    7CHTO   C87 2712   5.454   0.189   4.735 -0.5804 -0.0595 -0.3474
    7CHTO  H159 2713   5.368   0.238   4.690  0.3439  1.4671 -0.4759
    7CHTO   O53 2714   5.581   0.246   4.668  0.2513 -0.6253 -0.2901
    7CHTO   C82 2715   5.600   0.202   4.536 -0.0038 -0.1916  0.0851
    7CHTO  H154 2716   5.510   0.218   4.477 -1.1842 -1.3355  1.5039
    7CHTO   C89 2717   5.719   0.272   4.464  0.4422 -0.6936  0.2571
    7CHTO   O59 2718   5.703   0.413   4.482 -0.3119 -0.5372  0.0609
    7CHTO  H137 2719   5.652   0.450   4.413 -1.6658 -1.4475  0.5585
    7CHTO   O45 2720   5.448   0.256   4.885  0.4889 -0.3608  0.5424
    7CHTO   C67 2721   5.394   0.391   4.886  0.6643  0.3632 -0.8146
    7CHTO  H124 2722   5.410   0.430   4.786  0.2901 -2.1709 -1.8779
    7CHTO   C65 2723   5.247   0.405   4.924 -0.1271  0.0349 -0.3163
    7CHTO  H122 2724   5.229   0.310   4.973  0.4963 -0.0717 -0.2922
    7CHTO   O44 2725   5.165   0.397   4.802  0.0167  0.5759 -0.2380
    7CHTO  H102 2726   5.086   0.356   4.832  0.1295 -0.5963 -1.4903
    7CHTO   C63 2727   5.218   0.521   5.018 -0.2913 -0.0708  0.3923
    7CHTO  H120 2728   5.256   0.494   5.116 -1.0353  0.5647  0.8559
    7CHTO   N11 2729   5.076   0.535   5.046  0.6986  0.0153 -0.1664
    7CHTO  H108 2730   5.059   0.550   5.151 -0.3913 -0.4331 -0.2661
    7CHTO  H109 2731   5.051   0.625   4.993  1.8716 -0.6582 -1.9158
    7CHTO   C61 2732   5.298   0.649   4.975 -1.0407 -0.2236  0.3138
    7CHTO  H118 2733   5.285   0.731   5.046 -1.8029  1.3064 -1.5758
    7CHTO   O40 2734   5.443   0.624   4.971  0.0833 -0.0475  0.1026
    7CHTO   C68 2735   5.491   0.483   4.979  0.3284  0.5427 -0.5296
    7CHTO  H125 2736   5.482   0.442   5.083 -0.0337 -1.8804 -1.4666
    7CHTO   C72 2737   5.637   0.479   4.934 -0.2077 -0.0772  0.3436
    7CHTO   O48 2738   5.712   0.603   4.961 -0.1443 -0.0545  0.3228
    7CHTO  H105 2739   5.704   0.659   4.886 -1.3447 -1.3855 -0.5562
    7CHTO   O38 2740   5.253   0.696   4.846  0.1417 -0.1560  0.0558
    7CHTO   C55 2741   5.312   0.828   4.804  0.0878 -0.2840 -0.5010
    7CHTO  H112 2742   5.373   0.875   4.882  0.5766  0.0650 -1.0886
    7CHTO   C56 2743   5.184   0.914   4.766  0.5352  0.3363 -1.2637
    7CHTO  H113 2744   5.110   0.857   4.706 -1.2420  1.2426  0.0260
    7CHTO   O42 2745   5.115   0.948   4.893 -0.0975  0.4830  0.0122
    7CHTO  H100 2746   5.073   1.030   4.878 -0.7026  0.1173 -0.2789
    7CHTO   C57 2747   5.221   1.055   4.695  0.4851 -0.8348  0.2595
    7CHTO  H114 2748   5.247   1.118   4.780 -2.2488 -1.4027  1.5981
    7CHTO   N10 2749   5.115   1.136   4.633 -0.6284  0.7229  0.1790
    7CHTO  H106 2750   5.021   1.126   4.686 -1.6391  2.0802 -1.3003
    7CHTO  H107 2751   5.139   1.241   4.637 -1.0234  0.7985  0.7266
    7CHTO   C58 2752   5.339   1.037   4.596 -0.2473 -0.4647 -0.4024
    7CHTO  H115 2753   5.307   1.012   4.492 -1.6865  0.5614 -0.2224
    7CHTO   O37 2754   5.440   0.948   4.646  0.3567  0.2447 -0.4021
    7CHTO   C59 2755   5.399   0.812   4.682 -0.4687 -0.1524  0.1022
    7CHTO  H116 2756   5.348   0.755   4.605 -0.3509 -1.4776  1.0022
    7CHTO   C70 2757   5.536   0.749   4.704 -0.1585  0.3283 -0.6440
    7CHTO   O46 2758   5.627   0.806   4.797 -0.6058 -0.1565 -0.1208
    7CHTO  H103 2759   5.601   0.780   4.884  0.0377  0.1136  0.1540
    7CHTO   O39 2760   5.424   1.172   4.581 -0.4573  0.6581  0.1134
    7CHTO   C60 2761   5.538   1.160   4.488 -0.5242  0.0079 -0.5048
    7CHTO  H117 2762   5.588   1.063   4.495  0.3157  0.5503  1.2004
    7CHTO   C62 2763   5.508   1.167   4.337 -0.1719 -0.0472  0.8347
    7CHTO  H119 2764   5.433   1.093   4.302  0.2659  0.4300 -1.2124
    7CHTO   O43 2765   5.440   1.292   4.306  0.1416  0.2756 -0.8702
    7CHTO  H101 2766   5.491   1.356   4.260  1.1965 -0.6341 -0.9932
    7CHTO   C66 2767   5.639   1.136   4.253 -0.9277  0.0224  0.4949
    7CHTO  H123 2768   5.682   1.045   4.295 -0.9516  0.3072  1.1426
    7CHTO   N12 2769   5.620   1.112   4.105 -0.5441 -0.0427 -0.1145
    7CHTO  H110 2770   5.555   1.188   4.065 -2.3942 -1.7269 -0.3960
    7CHTO  H111 2771   5.716   1.109   4.055  0.2364  0.6660  1.3163
    7CHTO   C69 2772   5.741   1.252   4.276 -0.6470  0.4859 -0.5891
    7CHTO  H126 2773   5.680   1.343   4.260 -1.3607 -0.2166 -1.9684
    7CHTO   O41 2774   5.777   1.245   4.437  0.5316 -0.1198  0.0931
    7CHTO   C64 2775   5.644   1.264   4.525  0.0199 -0.3674  0.1921
    7CHTO  H121 2776   5.598   1.366   4.520  0.5557 -0.1803 -1.0462
    7CHTO   C71 2777   5.688   1.265   4.673  0.2957  0.6678 -0.1282
    7CHTO   O47 2778   5.723   1.128   4.707 -0.1700 -0.6106 -0.0625
    7CHTO  H104 2779   5.785   1.129   4.778 -0.3035  3.6078  0.0769
    7CHTO   O34 2780   5.878   1.237   4.200  0.1234 -0.5531 -0.3116
    7CHTO   C49 2781   5.946   1.324   4.108 -0.1698 -0.3280 -0.4962
    7CHTO   H91 2782   5.875   1.363   4.036  0.3425 -1.0383 -1.4069
    7CHTO   C47 2783   6.054   1.245   4.027  0.2838 -0.2160 -0.1652
    7CHTO   H89 2784   6.104   1.307   3.949  2.5654 -1.1623  0.5138
    7CHTO   O33 2785   5.992   1.136   3.965 -0.7148 -0.1654 -0.0534
    7CHTO   H70 2786   5.917   1.107   4.014 -0.7197  0.4089  0.2805
    7CHTO   C45 2787   6.170   1.189   4.125  0.1689  0.0300  0.1075
    7CHTO   H87 2788   6.134   1.094   4.166 -0.7378  0.8762  1.3127
    7CHTO    N8 2789   6.297   1.161   4.054 -0.1453 -0.3747 -0.1101
    7CHTO   H75 2790   6.331   1.063   4.081 -1.2642 -0.7174  0.0928
    7CHTO   H76 2791   6.367   1.241   4.077 -0.0648 -1.3752  3.3695
    7CHTO   C43 2792   6.174   1.282   4.259 -0.0341  0.2468 -0.8099
    7CHTO   H85 2793   6.097   1.244   4.325  1.0079 -0.7957 -0.1903
    7CHTO   O29 2794   6.157   1.422   4.220  0.0199  0.3064  0.3624
    7CHTO   C50 2795   6.020   1.441   4.178  0.1319 -0.3792 -0.3885
    7CHTO   H92 2796   5.966   1.469   4.270 -0.3970  2.6939 -1.5676
    7CHTO   C54 2797   6.015   1.568   4.088 -0.0883  0.3001 -0.0758
    7CHTO   O36 2798   6.092   1.678   4.124 -0.6368 -0.0022 -0.0729
    7CHTO   H72 2799   6.131   1.724   4.052  0.1963  1.2945  1.2039
    7CHTO   O27 2800   6.288   1.260   4.334 -0.3031 -0.2471  0.1480
    7CHTO   C37 2801   6.338   1.181   4.439 -0.5148 -0.0454  0.4831
    7CHTO   H79 2802   6.307   1.232   4.532  2.0065 -0.8231  1.8044
    7CHTO   C38 2803   6.270   1.043   4.448  0.1620 -0.3412  0.9661
    7CHTO   H80 2804   6.259   1.000   4.348 -2.3135 -0.6640  1.3402
    7CHTO   O31 2805   6.133   1.064   4.503  0.4746  0.6503 -0.3383
    7CHTO   H68 2806   6.085   1.104   4.434  0.8561  0.8995 -0.4596
    7CHTO   C39 2807   6.351   0.939   4.540 -1.2099  0.2568  0.3043
    7CHTO   H81 2808   6.339   0.961   4.646 -0.1159  0.3761  0.4080
    7CHTO    N7 2809   6.297   0.801   4.513  0.6441  0.4888  0.3958
    7CHTO   H73 2810   6.266   0.753   4.605  0.9132  1.7955  1.1751
    7CHTO   H74 2811   6.220   0.796   4.438  1.6876 -1.1730 -0.6079
    7CHTO   C40 2812   6.506   0.960   4.514  0.7017  0.2697 -0.4062
    7CHTO   H82 2813   6.522   0.925   4.411  0.3810  0.5338 -0.5484
    7CHTO   O26 2814   6.547   1.092   4.538 -0.2532 -0.5666 -0.4049
    7CHTO   C41 2815   6.496   1.177   4.439 -0.0537  0.6140  0.1333
    7CHTO   H83 2816   6.519   1.140   4.337  0.9104 -1.7523  1.1715
    7CHTO   C52 2817   6.564   1.318   4.463 -0.6460  0.0583  0.4211
    7CHTO   O35 2818   6.548   1.407   4.351  0.0797 -0.2303  0.8111
    7CHTO   H71 2819   6.479   1.469   4.361  1.3980  0.9658  3.0138
    7CHTO   O28 2820   6.581   0.880   4.609 -0.2722 -0.0175 -0.2158
    7CHTO   C42 2821   6.716   0.836   4.582 -0.3883  0.1391  0.2736
    7CHTO   H84 2822   6.750   0.779   4.669  0.7366  0.5189  0.0941
    7CHTO   C44 2823   6.819   0.945   4.565  0.4836  0.5231 -0.7286
    7CHTO   H86 2824   6.775   1.022   4.501 -0.7174  1.5326  1.2549
    7CHTO   O32 2825   6.841   0.993   4.702 -0.3852  0.0711 -0.0383
    7CHTO   H69 2826   6.761   1.029   4.736  0.7019 -0.0203  2.7206
    7CHTO   C48 2827   6.961   0.892   4.505 -0.4721  0.7716  0.2231
    7CHTO   H90 2828   7.021   0.838   4.578 -0.0084  0.0795 -0.6652
    7CHTO    N9 2829   7.047   1.008   4.474 -0.0666 -0.7841 -0.1226
    7CHTO   H77 2830   7.060   1.063   4.566 -0.9661 -0.3331 -0.2549
    7CHTO   H78 2831   7.144   0.976   4.439  1.0433  1.8447  0.4535
    7CHTO   C51 2832   6.941   0.793   4.388  0.2305  0.4819 -0.2281
    7CHTO   H93 2833   6.899   0.844   4.301  2.0962 -0.5270 -1.7854
    7CHTO   O30 2834   6.857   0.684   4.429  0.3118  0.0717 -0.5064
    7CHTO   C46 2835   6.720   0.731   4.459 -0.5977  0.1487  0.2306
    7CHTO   H88 2836   6.674   0.766   4.366 -0.2752 -1.7678 -0.6696
    7CHTO   C53 2837   6.640   0.606   4.513 -0.0783 -0.4484 -0.0011
    7CHTO   O72 2838   6.668   0.491   4.426  0.1775 -0.1519  0.6454
    7CHTO  H199 2839   6.758   0.502   4.403 -0.3294  1.1854 -0.7877
    7CHTO   O22 2840   7.068   0.739   4.340 -0.0388 -0.4781 -0.5920
    7CHTO   C31 2841   7.083   0.685   4.201  0.1674  0.3914 -0.3015
    7CHTO   H59 2842   7.174   0.622   4.204 -0.1148 -0.0718 -1.3015
    7CHTO   C29 2843   6.966   0.589   4.152  0.0536  0.1642  0.0384
    7CHTO   H57 2844   6.871   0.643   4.142 -0.6029 -1.0470 -0.2406
    7CHTO   O21 2845   6.960   0.480   4.245  0.4376  0.2678 -1.3688
    7CHTO   H37 2846   6.886   0.424   4.236  0.9275 -0.7318  0.3975
    7CHTO   C27 2847   7.009   0.522   4.014 -1.5051 -0.0282  0.2126
    7CHTO   H55 2848   7.108   0.476   4.025 -1.5863 -0.4880 -0.8742
    7CHTO    N5 2849   6.912   0.428   3.947 -0.0053  0.2663 -0.2695
    7CHTO   H43 2850   6.967   0.376   3.870  1.8201  0.0900  1.0935
    7CHTO   H44 2851   6.864   0.358   4.012  0.5312 -1.1165 -1.3375
    7CHTO   C25 2852   7.046   0.647   3.916  0.4138 -0.0262 -0.5499
    7CHTO   H53 2853   6.953   0.699   3.890 -0.2373 -0.5393  0.6839
    7CHTO   O17 2854   7.145   0.729   3.977 -0.3004 -0.5936  0.1343
    7CHTO   C32 2855   7.104   0.798   4.093  0.4246  0.1409 -0.1484
    7CHTO   H60 2856   7.009   0.848   4.072 -0.2380 -1.0422  0.0008
    7CHTO   C36 2857   7.209   0.900   4.123 -0.2901  0.1113  0.3719
    7CHTO   O25 2858   7.203   1.005   4.023  0.3499  0.3208 -0.3115
    7CHTO   H40 2859   7.275   0.983   3.967 -0.0248  0.6391 -0.9217
    7CHTO   O15 2860   7.135   0.587   3.775 -0.4322 -0.4901 -0.4295
    7CHTO   C19 2861   7.099   0.650   3.655  0.0364 -0.0223 -0.5881
    7CHTO   H47 2862   7.165   0.592   3.589 -0.6939 -0.5496 -0.8597
    7CHTO   C20 2863   6.952   0.633   3.603 -0.5311 -0.6583 -0.2314
    7CHTO   H48 2864   6.879   0.676   3.674  0.9887  0.0158  0.9460
    7CHTO   O19 2865   6.939   0.493   3.581 -0.1379  0.0540  0.0962
    7CHTO   H35 2866   6.942   0.451   3.665  1.7175 -0.6401 -0.3037
    7CHTO   C21 2867   6.931   0.716   3.465  0.4703 -0.4368 -0.4755
    7CHTO   H49 2868   6.999   0.681   3.387 -1.2957 -2.5298 -1.1142
    7CHTO    N4 2869   6.791   0.720   3.423  0.2528 -0.0487 -0.2022
    7CHTO   H41 2870   6.773   0.780   3.336 -2.6639 -0.3233  0.1541
    7CHTO   H42 2871   6.725   0.750   3.504  0.7962  0.3348  0.1000
    7CHTO   C22 2872   6.978   0.862   3.496 -0.2500  0.0058 -0.1274
    7CHTO   H50 2873   6.918   0.900   3.578  0.3843  0.4499  0.1320
    7CHTO   O14 2874   7.114   0.863   3.538  0.2205  0.0093  0.5847
    7CHTO   C23 2875   7.150   0.797   3.659  0.7460 -0.1042 -0.1852
    7CHTO   H51 2876   7.109   0.854   3.743  1.8783  2.0025 -1.0160
    7CHTO   C34 2877   7.303   0.799   3.671  0.2562  0.3096  0.4317
    7CHTO   O23 2878   7.338   0.808   3.811  0.3292 -0.2259  0.5704
    7CHTO   H38 2879   7.387   0.886   3.826 -0.1650 -0.2165  2.2751
    7CHTO   O16 2880   6.982   0.956   3.390 -0.5489 -0.2892  0.4041
    7CHTO   C24 2881   6.880   1.082   3.409 -0.2393  0.0732  0.0821
    7CHTO   H52 2882   6.800   1.059   3.480 -0.5563 -0.2248 -0.3676
    7CHTO   C26 2883   6.817   1.120   3.277  0.0919  0.2709 -0.1770
    7CHTO   H54 2884   6.896   1.120   3.198 -0.3760  0.1772 -0.6506
    7CHTO   O20 2885   6.725   1.014   3.249  0.4778 -0.7402 -0.3499
    7CHTO   H36 2886   6.758   0.951   3.188 -0.3667 -1.5587  0.0353
    7CHTO   C30 2887   6.748   1.261   3.282 -0.1709  0.0871 -0.6274
    7CHTO   H58 2888   6.651   1.252   3.333 -0.7064  0.7409 -1.5197
    7CHTO    N6 2889   6.719   1.304   3.143 -0.1053  0.6574  0.3557
    7CHTO   H45 2890   6.648   1.235   3.099  0.6705 -1.9563  3.0743
    7CHTO   H46 2891   6.812   1.293   3.089 -0.0653 -0.9221  0.7320
    7CHTO   C33 2892   6.827   1.373   3.363 -0.3410  0.6210  0.4079
    7CHTO   H61 2893   6.915   1.407   3.307  0.6702  0.5978  1.9326
    7CHTO   O18 2894   6.869   1.316   3.483  0.0314  0.7476 -0.6247
    7CHTO   C28 2895   6.962   1.209   3.461  0.0322 -0.3430 -0.3133
    7CHTO   H56 2896   7.036   1.239   3.388  1.0511 -2.8343 -0.3493
    7CHTO   C35 2897   7.015   1.170   3.593  0.8419  0.4984 -0.6310
    7CHTO   O24 2898   7.125   1.248   3.644 -0.0375  0.8572 -0.4876
    7CHTO   H39 2899   7.192   1.187   3.668  1.0153  1.7535 -1.1419
    7CHTO    O9 2900   6.751   1.493   3.385  0.0578 -0.1021 -0.0461
    7CHTO   C13 2901   6.828   1.631   3.385 -0.5381 -0.3519 -0.2647
    7CHTO   H26 2902   6.882   1.630   3.288  2.4253 -0.5136  1.2949
    7CHTO   C11 2903   6.941   1.638   3.504  0.9086 -0.1633  0.0147
    7CHTO   H24 2904   7.034   1.585   3.476  1.4691  1.2463 -0.8192
    7CHTO    O8 2905   6.895   1.569   3.617  0.6136  0.0155  0.3756
    7CHTO    H3 2906   6.889   1.477   3.602 -0.8818  0.0161  0.9620
    7CHTO    C9 2907   6.982   1.786   3.532 -0.2329 -0.5041  0.1599
    7CHTO   H22 2908   7.009   1.831   3.435  1.4103  0.9211  1.2261
    7CHTO    N2 2909   7.102   1.801   3.615  0.5690  0.2267  0.3362
    7CHTO   H10 2910   7.093   1.746   3.708  0.7800  1.3851  1.0554
    7CHTO   H11 2911   7.191   1.772   3.562 -0.1829 -0.5697 -0.5088
    7CHTO    C7 2912   6.848   1.856   3.584 -0.3875 -0.3170  0.2014
    7CHTO   H20 2913   6.872   1.958   3.549  2.0570 -0.5216  1.1189
    7CHTO    O4 2914   6.726   1.818   3.522  0.4325  0.3139  0.1850
    7CHTO   C14 2915   6.724   1.755   3.398  0.4314  0.1066 -0.3556
    7CHTO   H27 2916   6.767   1.830   3.328  0.6324  0.8004  0.5042
    7CHTO   C18 2917   6.575   1.724   3.352 -0.1371  0.8001 -0.3673
    7CHTO   O13 2918   6.517   1.849   3.319 -0.5084  0.2707 -0.2093
    7CHTO    H7 2919   6.457   1.839   3.247 -0.0651  0.3233 -0.5856
    7CHTO    O2 2920   6.831   1.851   3.749 -0.0509 -0.3873 -0.0271
    7CHTO    C1 2921   6.796   1.981   3.802 -0.6651  0.4658  0.7704
    7CHTO   H14 2922   6.761   2.048   3.721 -0.7371  1.4851  1.6206
    7CHTO    C2 2923   6.919   2.057   3.868  0.0227  0.2252 -0.8197
    7CHTO   H15 2924   6.952   2.001   3.956 -1.1689  2.8201  1.3436
    7CHTO    O6 2925   7.026   2.076   3.771  0.8394  0.0989 -0.1230
    7CHTO    H1 2926   7.009   2.040   3.686 -0.3640  1.3699 -0.4523
    7CHTO    C3 2927   6.863   2.196   3.916  0.4018  0.2114  0.3713
    7CHTO   H16 2928   6.815   2.245   3.830  1.5179  2.6903  1.1292
    7CHTO    N1 2929   6.968   2.286   3.976 -0.0603  0.2325 -0.0057
    7CHTO    H8 2930   7.060   2.233   3.993 -0.3400  0.2226  1.5430
    7CHTO    H9 2931   6.979   2.363   3.901  2.0057 -0.3878 -0.3644
    7CHTO    C4 2932   6.746   2.162   4.020 -0.5111 -0.0382  0.3063
    7CHTO   H17 2933   6.800   2.119   4.105  0.0111  1.2569  0.6449
    7CHTO    O1 2934   6.640   2.080   3.958 -0.2994 -0.0662  0.0465
    7CHTO    C5 2935   6.679   1.951   3.900 -0.0737 -0.1117  0.1230
    7CHTO   H18 2936   6.706   1.880   3.979  2.2448  0.6708  0.0896
    7CHTO   C16 2937   6.551   1.895   3.839 -0.0526 -0.8616 -0.3788
    7CHTO   O11 2938   6.510   1.978   3.737  0.1399 -0.0827 -0.3698
    7CHTO    H5 2939   6.448   1.930   3.686 -1.9544  0.2483  1.7490
    7CHTO    O3 2940   6.667   2.278   4.048  0.3236  0.5603 -0.4131
    7CHTO    C6 2941   6.617   2.293   4.184 -0.3894  0.4436  0.5276
    7CHTO   H19 2942   6.626   2.196   4.232  0.7969 -0.3277 -1.1500
    7CHTO    C8 2943   6.687   2.407   4.264 -0.2584 -0.2222  0.3586
    7CHTO   H21 2944   6.680   2.500   4.208  0.9785 -0.4867 -0.2386
    7CHTO    O7 2945   6.825   2.366   4.280 -0.4182 -0.0324 -0.4273
    7CHTO    H2 2946   6.836   2.291   4.335 -0.0484 -0.5500 -1.2032
    7CHTO   C12 2947   6.629   2.433   4.408  0.1101  0.7791  0.1578
    7CHTO   H25 2948   6.640   2.344   4.474 -2.1219  0.9106  0.7310
    7CHTO    N3 2949   6.699   2.545   4.473  0.3023 -0.6482  0.0918
    7CHTO   H12 2950   6.640   2.575   4.559 -1.0410 -0.7372 -0.7821
    7CHTO   H13 2951   6.798   2.511   4.501 -0.1868 -2.2554 -0.0754
    7CHTO   C15 2952   6.479   2.458   4.385 -0.1325 -0.3387  0.0355
    7CHTO   H28 2953   6.464   2.552   4.332 -0.6531  0.8268  2.1961
    7CHTO   O10 2954   6.391   2.462   4.504  0.0939  0.0924 -0.1799
    7CHTO    H4 2955   6.393   2.381   4.551  1.2239  0.7474  0.9562
    7CHTO    O5 2956   6.415   2.349   4.311 -0.1038  0.1095 -0.1523
    7CHTO   C10 2957   6.463   2.325   4.176  0.5441  0.4903 -0.9031
    7CHTO   H23 2958   6.442   2.418   4.124  0.4353  0.3371 -1.1331
    7CHTO   C17 2959   6.379   2.214   4.126 -0.3270  0.8600 -0.1616
    7CHTO   O12 2960   6.245   2.253   4.088 -0.1277 -0.0856  0.1605
    7CHTO    H6 2961   6.198   2.258   4.169 -0.6952 -0.2437 -0.1583
    8CHTO  H203 2962   7.414   6.221   1.366  2.5723  0.1606 -0.0564
    8CHTO   O82 2963   7.426   6.303   1.409  0.5071  0.6029 -0.2853
    8CHTO  C123 2964   7.305   6.356   1.455 -0.2361 -0.3132  0.4073
    8CHTO  H227 2965   7.257   6.275   1.512  0.7820  0.6823  2.6971
    8CHTO   O77 2966   7.344   6.472   1.535 -0.4353  0.0305  0.3446
    8CHTO  C118 2967   7.238   6.534   1.608 -0.2503  0.5407 -0.2101
    8CHTO  H222 2968   7.175   6.460   1.659  1.1022 -0.5377 -0.0538
    8CHTO  C125 2969   7.307   6.618   1.708 -0.0177  0.2164  0.2639
    8CHTO   O84 2970   7.222   6.643   1.825  0.0170 -0.6413  0.3859
    8CHTO  H205 2971   7.217   6.566   1.877 -0.4383  0.4135  1.9560
    8CHTO  C114 2972   7.156   6.606   1.499  0.2515 -0.0984  0.2628
    8CHTO  H218 2973   7.223   6.675   1.448  1.1746  0.8661  2.7023
    8CHTO  C116 2974   7.099   6.507   1.391 -0.1566  0.6333 -0.0665
    8CHTO  H220 2975   7.023   6.442   1.438 -0.0879  0.0977 -0.6878
    8CHTO   O79 2976   7.031   6.580   1.287  0.4313  0.7444 -0.1817
    8CHTO  H201 2977   6.956   6.624   1.323  0.5893 -0.4605  1.7110
    8CHTO  C120 2978   7.219   6.420   1.337  0.4492 -0.4630  0.5499
    8CHTO  H224 2979   7.274   6.482   1.264 -0.6762 -0.5017 -0.3520
    8CHTO   N21 2980   7.166   6.302   1.262  0.6085  0.5677  0.1327
    8CHTO  H211 2981   7.154   6.341   1.162  0.3966  1.3025  0.4331
    8CHTO  H212 2982   7.247   6.231   1.259 -0.0465 -0.3100  2.3935
    8CHTO   O75 2983   7.058   6.680   1.582  0.3027 -0.0518 -0.4197
    8CHTO  C112 2984   6.983   6.802   1.520 -0.1503 -0.1889  0.6518
    8CHTO  H216 2985   6.934   6.762   1.429  0.3116 -2.3226  1.3160
    8CHTO   O73 2986   7.085   6.900   1.492  0.8327 -0.2853 -0.1581
    8CHTO  C113 2987   7.026   7.012   1.420 -0.3531  0.0884 -0.0668
    8CHTO  H217 2988   6.971   6.979   1.330  2.0159 -1.7821 -0.8757
    8CHTO  C124 2989   7.146   7.095   1.371  0.3255 -0.6268 -0.0177
    8CHTO   O83 2990   7.248   7.019   1.311  0.4803  0.2352 -0.0284
    8CHTO  H204 2991   7.314   7.011   1.377 -0.8645  1.6308  1.5342
    8CHTO  C109 2992   6.943   7.094   1.517  0.6500 -0.3989 -0.3736
    8CHTO  H213 2993   7.002   7.119   1.606  0.0719  0.4057 -0.2032
    8CHTO  C110 2994   6.824   7.003   1.570 -0.2819 -0.3878 -0.2710
    8CHTO  H214 2995   6.759   6.980   1.486 -1.2829 -3.1017  1.1843
    8CHTO   O78 2996   6.736   7.072   1.657 -0.3198 -0.3768  0.2854
    8CHTO  H200 2997   6.646   7.060   1.632 -0.5588 -0.5722  1.2153
    8CHTO  C111 2998   6.871   6.863   1.621  0.2180 -0.0015 -0.2518
    8CHTO  H215 2999   6.922   6.882   1.717  0.5444  3.0218 -0.9945
    8CHTO   N19 3000   6.766   6.761   1.641  0.0011  0.8477 -0.1745
    8CHTO  H207 3001   6.739   6.708   1.551  0.8556 -0.7623  0.4935
    8CHTO  H208 3002   6.675   6.808   1.676  0.2454  0.9181  0.3786
    8CHTO   O74 3003   6.897   7.205   1.444 -0.5845 -0.1331  0.1281
    8CHTO  C115 3004   6.846   7.340   1.524  0.2486 -0.3449 -0.5957
    8CHTO  H219 3005   6.741   7.334   1.552  1.1302 -1.3613  2.7558
    8CHTO   O76 3006   6.918   7.354   1.663  0.0101  0.5431 -0.1468
    8CHTO  C122 3007   6.907   7.486   1.724 -0.2002 -0.1279  0.0841
    8CHTO  H226 3008   6.976   7.496   1.808  0.8308 -0.9591 -0.6361
    8CHTO  C126 3009   6.773   7.485   1.798  0.1499 -0.1692 -0.3009
    8CHTO   O85 3010   6.764   7.590   1.894 -0.4812  0.4023  0.3131
    8CHTO  H206 3011   6.724   7.666   1.857 -1.2564  0.1995  0.7339
    8CHTO  C121 3012   6.942   7.609   1.629  0.3794 -0.6093 -0.3838
    8CHTO  H225 3013   6.912   7.700   1.685  1.1109 -0.3777 -0.3608
    8CHTO   O81 3014   7.089   7.609   1.618  0.2179 -0.0406 -0.6839
    8CHTO  H202 3015   7.115   7.520   1.606  1.3867 -0.2615  2.8890
    8CHTO  C119 3016   6.866   7.604   1.503  0.3106  0.5334 -0.5634
    8CHTO  H223 3017   6.764   7.606   1.539  0.3315 -0.0846 -0.4744
    8CHTO  C117 3018   6.877   7.459   1.431 -0.3562  0.1189 -0.5331
    8CHTO  H221 3019   6.978   7.436   1.396  0.0479  1.1995 -0.1104
    8CHTO   N20 3020   6.788   7.459   1.304  0.1034 -0.5838 -0.3656
    8CHTO  H209 3021   6.709   7.387   1.322  0.4618 -0.2911  2.6456
    8CHTO  H210 3022   6.756   7.555   1.266 -1.9208 -1.0881  0.0174
    8CHTO   O80 3023   6.871   7.751   1.412  0.0860 -0.3044 -0.4031
    8CHTO  C103 3024   6.851   7.880   1.470  0.1038  0.2903  0.0454
    8CHTO  H190 3025   6.811   7.864   1.570 -0.7368  0.4612 -0.2612
    8CHTO  C101 3026   6.976   7.980   1.479  0.8999  0.8769  0.7983
    8CHTO  H188 3027   7.032   7.977   1.385 -2.5769  1.1149 -1.3975
    8CHTO   O68 3028   7.084   7.942   1.593  0.6068 -0.4576 -0.2557
    8CHTO  H168 3029   7.158   7.997   1.578 -0.3442  1.1316  0.7772
    8CHTO   C99 3030   6.927   8.128   1.497 -0.1221  0.6006  0.0941
    8CHTO  H186 3031   6.866   8.133   1.589 -2.3585 -0.6461 -1.2482
    8CHTO   N17 3032   7.040   8.224   1.503 -0.1476 -0.5420 -0.3002
    8CHTO  H174 3033   7.100   8.211   1.414 -0.0292 -0.2773 -0.2596
    8CHTO  H175 3034   7.005   8.325   1.521 -0.8834 -0.6136 -1.2774
    8CHTO   C97 3035   6.822   8.157   1.380 -1.1341 -0.2238 -0.3115
    8CHTO  H184 3036   6.885   8.136   1.292  0.0617 -0.5271  0.5881
    8CHTO   O64 3037   6.711   8.064   1.388 -0.8364  0.0846  0.2920
    8CHTO  C104 3038   6.735   7.924   1.372 -0.1653  0.3205  0.2497
    8CHTO  H191 3039   6.770   7.898   1.272 -1.1720  0.3817 -0.1185
    8CHTO  C108 3040   6.610   7.839   1.403  0.2459 -0.2147  0.2150
    8CHTO   O71 3041   6.555   7.882   1.523 -0.6036  0.5117 -0.2767
    8CHTO  H171 3042   6.608   7.868   1.599 -1.0627 -0.9448 -0.2096
    8CHTO   O62 3043   6.766   8.285   1.383 -0.0073  0.4020  0.0626
    8CHTO   C91 3044   6.809   8.379   1.282  0.1730  0.9491  0.2280
    8CHTO  H178 3045   6.917   8.367   1.280 -0.3149 -4.8014 -0.1648
    8CHTO   C92 3046   6.768   8.515   1.335  0.0441 -0.0196  0.0501
    8CHTO  H179 3047   6.659   8.519   1.342  0.1114 -0.9326  1.7990
    8CHTO   O66 3048   6.820   8.517   1.473 -0.4049 -0.4961 -0.4525
    8CHTO  H166 3049   6.792   8.596   1.515  2.3924  0.0507  0.4794
    8CHTO   C93 3050   6.818   8.634   1.244 -0.1915  0.0991  0.2850
    8CHTO  H180 3051   6.928   8.629   1.233 -0.0760  0.3753  1.2826
    8CHTO   N16 3052   6.778   8.765   1.300 -0.3906  0.3250 -0.0075
    8CHTO  H172 3053   6.850   8.786   1.378  1.1532 -2.0673 -0.7279
    8CHTO  H173 3054   6.676   8.759   1.336 -0.5798 -1.0091 -0.7674
    8CHTO   C94 3055   6.757   8.604   1.099 -0.3816 -0.3596  0.5254
    8CHTO  H181 3056   6.651   8.628   1.091  0.1003  1.3741 -0.9013
    8CHTO   O61 3057   6.787   8.472   1.057 -0.1126 -0.3212  0.0112
    8CHTO   C95 3058   6.732   8.379   1.143  0.2119  0.1323  0.7047
    8CHTO  H182 3059   6.628   8.399   1.170  0.5151  0.4080  1.7029
    8CHTO  C106 3060   6.715   8.244   1.061 -0.1207  0.3498  0.5229
    8CHTO   O69 3061   6.604   8.254   0.970 -0.3346  0.0073 -0.0262
    8CHTO  H169 3062   6.580   8.169   0.941 -2.8425  0.6222  0.1155
    8CHTO   O63 3063   6.839   8.705   1.002 -0.5938 -0.3395  0.2683
    8CHTO   C96 3064   6.762   8.721   0.872  0.1640  0.0597 -0.5381
    8CHTO  H183 3065   6.664   8.674   0.880 -0.1559  0.6753 -0.7896
    8CHTO   C98 3066   6.840   8.650   0.756 -0.8213 -0.4604  0.0922
    8CHTO  H185 3067   6.945   8.681   0.761 -1.5787  1.8777  2.1132
    8CHTO   O67 3068   6.850   8.505   0.789 -0.1117 -0.6750  0.1288
    8CHTO  H167 3069   6.900   8.465   0.720 -0.7947 -2.5719  0.7081
    8CHTO  C102 3070   6.779   8.671   0.607 -0.1771  0.3788 -1.1412
    8CHTO  H189 3071   6.698   8.598   0.600 -0.2234  0.4887 -1.8606
    8CHTO   N18 3072   6.867   8.633   0.495 -0.0848 -0.4248  0.0077
    8CHTO  H176 3073   6.826   8.661   0.399 -1.6239 -1.5392  0.3233
    8CHTO  H177 3074   6.969   8.666   0.510 -0.4503 -0.0509  1.7485
    8CHTO  C105 3075   6.739   8.821   0.598  0.2611 -0.5113  0.1728
    8CHTO  H192 3076   6.830   8.878   0.582  0.1924  0.0079  1.5605
    8CHTO   O65 3077   6.672   8.882   0.710 -0.0378  0.1785 -0.0814
    8CHTO  C100 3078   6.742   8.876   0.832  0.1158  1.2445  0.3592
    8CHTO  H187 3079   6.838   8.931   0.832  0.3804  0.7843 -0.7255
    8CHTO  C107 3080   6.653   8.952   0.928  0.0234 -0.2738  0.0003
    8CHTO   O70 3081   6.548   8.873   0.986  0.8798  0.2278 -0.4678
    8CHTO  H170 3082   6.519   8.897   1.072 -0.4770 -2.6532 -0.0381
    8CHTO   O57 3083   6.653   8.827   0.488  0.3285  0.3857 -0.8739
    8CHTO   C85 3084   6.656   8.922   0.381 -0.3825 -0.4435  0.3802
    8CHTO  H157 3085   6.759   8.921   0.341  0.1977  1.4057  1.7190
    8CHTO   C83 3086   6.644   9.068   0.434  0.7523  0.0822  0.2021
    8CHTO  H155 3087   6.726   9.099   0.499 -0.2549 -0.5247  1.7714
    8CHTO   O56 3088   6.529   9.071   0.513  0.0159  0.0058  0.4743
    8CHTO  H135 3089   6.450   9.070   0.462 -1.5205 -1.4142  2.7647
    8CHTO   C81 3090   6.631   9.163   0.309 -0.5876 -0.0069  0.1784
    8CHTO  H153 3091   6.719   9.155   0.246 -0.0453  3.9555  0.2937
    8CHTO   N14 3092   6.625   9.308   0.346 -0.1530  0.4530 -0.2835
    8CHTO  H141 3093   6.670   9.327   0.442 -0.9158  0.7431  0.0192
    8CHTO  H142 3094   6.683   9.360   0.272  0.2958 -1.9081 -1.6463
    8CHTO   C79 3095   6.510   9.125   0.219  0.4765  0.4427 -0.5297
    8CHTO  H151 3096   6.507   9.196   0.136 -1.4711  0.1304 -0.7473
    8CHTO   O52 3097   6.527   8.990   0.168  0.2876  0.2259  0.6308
    8CHTO   C86 3098   6.544   8.884   0.273 -1.3841  0.7446 -0.0054
    8CHTO  H158 3099   6.445   8.862   0.319  0.4194 -2.7825  2.4311
    8CHTO   C90 3100   6.586   8.746   0.203 -0.0866  0.5944 -0.2076
    8CHTO   O60 3101   6.686   8.762   0.104 -0.5001  0.0209 -0.6147
    8CHTO  H138 3102   6.670   8.706   0.029 -3.8227 -0.3936  0.2993
    8CHTO   O50 3103   6.382   9.140   0.282  0.3348  0.0698 -0.2543
    8CHTO   C73 3104   6.252   9.198   0.263 -0.4871 -0.0639  0.3394
    8CHTO  H145 3105   6.223   9.183   0.158  0.4666 -0.7402  0.1626
    8CHTO   C74 3106   6.250   9.353   0.289 -0.1499  0.2098  0.4158
    8CHTO  H146 3107   6.323   9.399   0.221 -0.7268 -3.2219 -2.7293
    8CHTO   O54 3108   6.120   9.398   0.237 -0.0378  0.1752  0.2528
    8CHTO  H133 3109   6.126   9.447   0.157 -3.1421 -1.2356 -0.9220
    8CHTO   C75 3110   6.274   9.393   0.443  0.1319  0.3417 -0.2466
    8CHTO  H147 3111   6.378   9.367   0.468  0.0557 -0.9756 -1.2168
    8CHTO   N13 3112   6.264   9.540   0.464  0.0464  0.3239 -0.1850
    8CHTO  H139 3113   6.197   9.583   0.537  0.8702 -0.2507  0.9300
    8CHTO  H140 3114   6.365   9.572   0.484  0.3254  0.2890 -1.5022
    8CHTO   C76 3115   6.181   9.310   0.537  0.4282  0.6561 -0.0585
    8CHTO  H148 3116   6.076   9.338   0.526  0.3841  0.9783  1.0759
    8CHTO   O49 3117   6.179   9.166   0.498 -0.3015 -0.5895  0.6191
    8CHTO   C77 3118   6.150   9.134   0.362 -0.7515  0.6409  0.2055
    8CHTO  H149 3119   6.053   9.182   0.349 -0.3549  1.8138  1.4848
    8CHTO   C88 3120   6.130   8.982   0.364  0.0677  0.4655  0.3009
    8CHTO   O58 3121   6.103   8.921   0.218  0.3458 -0.5500 -0.0295
    8CHTO  H136 3122   6.167   8.853   0.209  0.5783 -0.1901 -1.1673
    8CHTO   O51 3123   6.235   9.322   0.684 -0.1133 -0.2339  0.1991
    8CHTO   C78 3124   6.136   9.267   0.797 -0.2617 -0.5298  0.1185
    8CHTO  H150 3125   6.039   9.233   0.753 -0.8160  1.7135 -0.4377
    8CHTO   C80 3126   6.103   9.381   0.898 -0.5970  0.0218  0.1145
    8CHTO  H152 3127   6.200   9.425   0.932 -0.7965 -0.8871  1.8860
    8CHTO   O55 3128   6.023   9.487   0.833 -0.6213  0.0523 -0.2253
    8CHTO  H134 3129   5.930   9.484   0.841 -0.6564  1.2862 -0.0905
    8CHTO   C84 3130   6.038   9.330   1.027 -0.5305  0.1779  0.6448
    8CHTO  H156 3131   5.935   9.297   1.008 -1.0331  1.3685  1.2369
    8CHTO   N15 3132   6.010   9.432   1.133  0.6095 -0.2037 -0.3006
    8CHTO  H143 3133   5.970   9.391   1.224 -1.1928  1.6663 -0.2179
    8CHTO  H144 3134   5.942   9.505   1.095  1.8076  2.3145  2.1824
    8CHTO   C87 3135   6.119   9.206   1.076  0.3707 -0.0762 -0.5747
    8CHTO  H159 3136   6.223   9.217   1.105  0.3198 -2.8439  0.8536
    8CHTO   O53 3137   6.109   9.100   0.969 -0.2967 -0.3362 -0.0065
    8CHTO   C82 3138   6.202   9.150   0.870 -0.4234  0.4249 -0.3336
    8CHTO  H154 3139   6.292   9.187   0.920  0.0336  1.3312 -1.8169
    8CHTO   C89 3140   6.242   9.030   0.789 -0.1256 -0.1216  0.0432
    8CHTO   O59 3141   6.295   8.922   0.862 -0.6481 -0.6184 -0.0411
    8CHTO  H137 3142   6.389   8.923   0.863 -0.6040 -1.4052 -2.0385
    8CHTO   O45 3143   6.064   9.131   1.214  0.1038  0.6169 -0.4322
    8CHTO   C67 3144   6.133   9.006   1.241 -0.4853 -0.3920 -0.3689
    8CHTO  H124 3145   6.195   8.968   1.160 -0.7471 -0.1096 -0.7048
    8CHTO   C65 3146   6.220   9.019   1.370 -0.1286 -0.1791 -0.3743
    8CHTO  H122 3147   6.209   9.121   1.406 -1.2628 -0.5372  0.3153
    8CHTO   O44 3148   6.356   9.001   1.323 -0.3284  0.0160 -0.9181
    8CHTO  H102 3149   6.422   9.024   1.386  0.6085 -0.8720 -1.5473
    8CHTO   C63 3150   6.171   8.934   1.490  0.4496  0.1934 -0.2976
    8CHTO  H120 3151   6.068   8.967   1.508  0.9332  0.6472  1.8420
    8CHTO   N11 3152   6.246   8.959   1.619 -0.2088 -0.3068 -0.2200
    8CHTO  H108 3153   6.304   8.878   1.658  0.8729  0.6263  0.1150
    8CHTO  H109 3154   6.188   8.989   1.703  1.4325 -1.1572  1.2603
    8CHTO   C61 3155   6.154   8.786   1.439 -0.3161 -0.2857  0.3266
    8CHTO  H118 3156   6.110   8.723   1.517 -1.6386  1.0792  0.6976
    8CHTO   O40 3157   6.068   8.773   1.327  0.5359  0.1819 -0.1702
    8CHTO   C68 3158   6.017   8.896   1.261 -0.0125  0.1893 -0.3063
    8CHTO  H125 3159   5.948   8.946   1.333 -1.6772 -2.5812  0.0790
    8CHTO   C72 3160   5.936   8.866   1.136  0.6370 -0.0398 -0.3956
    8CHTO   O48 3161   6.009   8.788   1.038  0.0350 -0.3441 -0.4613
    8CHTO  H105 3162   5.971   8.793   0.952 -0.0984 -0.4632 -0.4094
    8CHTO   O38 3163   6.282   8.732   1.399 -0.2691  0.6270 -0.5099
    8CHTO   C55 3164   6.293   8.584   1.391 -0.8113 -0.0189  0.2644
    8CHTO  H112 3165   6.188   8.551   1.385 -0.4284 -0.9026 -1.8595
    8CHTO   C56 3166   6.373   8.521   1.517  0.0565 -0.2921 -0.5634
    8CHTO  H113 3167   6.472   8.569   1.522  0.3057 -0.6549 -1.8727
    8CHTO   O42 3168   6.325   8.565   1.646 -0.4545 -0.4217  0.0925
    8CHTO  H100 3169   6.315   8.488   1.699  0.1006  0.6114  1.7466
    8CHTO   C57 3170   6.379   8.362   1.509 -0.2800 -0.3537 -0.3188
    8CHTO  H114 3171   6.281   8.325   1.538 -1.7853  1.0459 -3.3514
    8CHTO   N10 3172   6.467   8.283   1.600  0.2241  0.1690  0.0433
    8CHTO  H106 3173   6.477   8.340   1.691 -0.3306  0.9722 -0.3884
    8CHTO  H107 3174   6.561   8.241   1.568 -0.4656 -0.4550 -1.2148
    8CHTO   C58 3175   6.419   8.311   1.363 -0.1228 -0.6674 -0.0169
    8CHTO  H115 3176   6.529   8.326   1.354 -0.1541 -1.8287 -2.7622
    8CHTO   O37 3177   6.352   8.384   1.256 -0.1815  0.2893 -0.2241
    8CHTO   C59 3178   6.357   8.529   1.261 -0.8095 -0.1285  0.4302
    8CHTO  H116 3179   6.461   8.560   1.264 -0.1127 -2.0251 -2.1376
    8CHTO   C70 3180   6.287   8.580   1.136 -0.2860  0.3783  0.7177
    8CHTO   O46 3181   6.338   8.708   1.110 -0.1422  0.4626 -0.0602
    8CHTO  H103 3182   6.425   8.701   1.077  0.8172  1.5862  2.0739
    8CHTO   O39 3183   6.385   8.148   1.344 -0.1766  0.2771 -0.2495
    8CHTO   C60 3184   6.276   8.102   1.269 -0.2640 -0.8160  0.1284
    8CHTO  H117 3185   6.192   8.170   1.280  0.4188  0.0643 -0.0336
    8CHTO   C62 3186   6.308   8.089   1.117 -0.0864  0.0617 -0.4109
    8CHTO  H119 3187   6.347   8.187   1.083  0.5452 -0.2690 -0.6446
    8CHTO   O43 3188   6.417   7.996   1.089 -0.2948 -0.1831  0.1698
    8CHTO  H101 3189   6.454   8.021   1.007 -3.0084 -1.4938 -1.5297
    8CHTO   C66 3190   6.174   8.056   1.038  0.6641  0.5213  0.4042
    8CHTO  H123 3191   6.098   8.127   1.069  0.3982  0.3024  0.2672
    8CHTO   N12 3192   6.186   8.066   0.890 -0.1699 -0.5015 -1.3863
    8CHTO  H110 3193   6.229   8.164   0.875 -0.8021  0.0696  0.4308
    8CHTO  H111 3194   6.248   7.985   0.856  0.8022 -0.8367  1.0702
    8CHTO   C69 3195   6.127   7.906   1.074 -0.3604 -0.0273  0.2706
    8CHTO  H126 3196   6.187   7.831   1.018 -1.4236 -0.7506  0.0899
    8CHTO   O41 3197   6.134   7.882   1.234  0.3553  0.4082 -0.0363
    8CHTO   C64 3198   6.231   7.973   1.334  0.4110 -0.5508  0.1309
    8CHTO  H121 3199   6.321   7.912   1.352  1.7662  1.4818  0.4512
    8CHTO   C71 3200   6.151   7.978   1.470  0.3846  0.6531 -0.3552
    8CHTO   O47 3201   6.229   8.012   1.583  0.6390  0.1097  0.1625
    8CHTO  H104 3202   6.236   8.104   1.596 -1.0624  0.2303  0.3783
    8CHTO   O34 3203   5.975   7.883   1.022 -0.2590 -0.4444 -0.4358
    8CHTO   C49 3204   5.861   7.890   1.122  0.1904 -0.4351  0.0737
    8CHTO   H91 3205   5.882   7.810   1.193 -1.3104 -1.3952 -0.5432
    8CHTO   C47 3206   5.729   7.864   1.045  0.0419  0.4198 -0.2410
    8CHTO   H89 3207   5.655   7.860   1.127 -0.1468  2.6188 -0.2755
    8CHTO   O33 3208   5.738   7.738   0.974  0.4628  0.4454 -0.8233
    8CHTO   H70 3209   5.665   7.714   0.920 -0.8439 -0.5255  1.3144
    8CHTO   C45 3210   5.689   7.982   0.945 -0.2768 -0.5587  0.4257
    8CHTO   H87 3211   5.767   7.997   0.869 -4.0562 -1.1694 -3.7815
    8CHTO    N8 3212   5.560   7.952   0.871 -0.5843 -0.0265 -0.0366
    8CHTO   H75 3213   5.559   7.918   0.769 -1.3313 -0.7125  0.1936
    8CHTO   H76 3214   5.488   8.031   0.890 -1.0396 -0.1532 -1.2134
    8CHTO   C43 3215   5.696   8.128   1.007  0.5941  0.1609  0.2355
    8CHTO   H85 3216   5.701   8.195   0.921  0.3953  0.7910  0.7099
    8CHTO   O29 3217   5.810   8.142   1.093 -0.6110 -0.2685  0.0667
    8CHTO   C50 3218   5.850   8.036   1.188 -0.0033 -0.1670 -0.2268
    8CHTO   H92 3219   5.945   8.066   1.236  0.4936  1.0805 -1.9519
    8CHTO   C54 3220   5.763   8.034   1.320  0.3392 -0.3981  0.2800
    8CHTO   O36 3221   5.800   7.920   1.401 -0.2746  0.0613 -0.1049
    8CHTO   H72 3222   5.733   7.855   1.387 -0.8248  0.4040  0.9072
    8CHTO   O27 3223   5.574   8.171   1.076 -0.3515 -0.0334 -0.3412
    8CHTO   C37 3224   5.510   8.296   1.117 -0.5160 -0.0221 -0.2039
    8CHTO   H79 3225   5.426   8.268   1.182 -0.2245 -2.1473 -0.7240
    8CHTO   C38 3226   5.604   8.397   1.188  0.8043  0.2291 -0.7060
    8CHTO   H80 3227   5.699   8.398   1.132  0.3826 -1.6764 -1.4956
    8CHTO   O31 3228   5.639   8.342   1.318 -0.7168  0.0214 -0.0672
    8CHTO   H68 3229   5.731   8.360   1.328 -0.2321 -1.7412 -1.1554
    8CHTO   C39 3230   5.541   8.541   1.192  0.1761  0.0662  0.0817
    8CHTO   H81 3231   5.453   8.547   1.256 -1.2943 -1.6924 -1.7114
    8CHTO    N7 3232   5.643   8.646   1.248 -0.0178  0.2759 -0.5181
    8CHTO   H73 3233   5.702   8.607   1.330  0.2414  1.6558 -0.0412
    8CHTO   H74 3234   5.586   8.730   1.285  1.4627  1.4206 -0.7935
    8CHTO   C40 3235   5.486   8.589   1.054 -0.2441 -0.4569 -0.5752
    8CHTO   H82 3236   5.569   8.604   0.985  0.2433 -0.6098 -0.0245
    8CHTO   O26 3237   5.393   8.489   1.007  0.5712  0.3041  0.4935
    8CHTO   C41 3238   5.452   8.359   0.985  0.0706  0.0245  0.5255
    8CHTO   H83 3239   5.545   8.373   0.927  0.4520 -4.4554 -0.1552
    8CHTO   C52 3240   5.356   8.254   0.910  1.0070 -0.0849  0.0928
    8CHTO   O35 3241   5.240   8.192   0.984 -0.2361 -0.1740  0.4587
    8CHTO   H71 3242   5.253   8.220   1.073 -0.0167  1.5501 -0.0912
    8CHTO   O28 3243   5.407   8.704   1.058  0.1881  0.1455  0.9300
    8CHTO   C42 3244   5.359   8.792   0.950 -0.2076  0.2504  0.1867
    8CHTO   H84 3245   5.290   8.861   0.999  0.6398  0.5659  0.9408
    8CHTO   C44 3246   5.266   8.729   0.846  0.5584 -0.4403 -0.0808
    8CHTO   H86 3247   5.311   8.634   0.815  1.3302  0.1319 -0.7233
    8CHTO   O32 3248   5.143   8.692   0.911  0.1611  0.3410  0.2773
    8CHTO   H69 3249   5.159   8.615   0.961  0.5962 -1.3804 -2.4068
    8CHTO   C48 3250   5.235   8.820   0.720  0.6807 -0.1391 -0.8421
    8CHTO   H90 3251   5.155   8.887   0.752  1.6334  1.2849 -1.4169
    8CHTO    N9 3252   5.180   8.745   0.604  0.0053  0.3990  0.0865
    8CHTO   H77 3253   5.118   8.662   0.635 -0.7724  1.8864  2.6405
    8CHTO   H78 3254   5.121   8.815   0.547 -0.7888 -1.6177 -1.6358
    8CHTO   C51 3255   5.354   8.917   0.677 -0.0942  0.4309 -0.2664
    8CHTO   H93 3256   5.420   8.863   0.609  0.3312 -1.0509  1.2699
    8CHTO   O30 3257   5.422   8.972   0.791  0.4686  0.5586 -0.0002
    8CHTO   C46 3258   5.476   8.877   0.901 -0.1229  0.0974  0.3715
    8CHTO   H88 3259   5.557   8.813   0.867 -1.4512 -1.4718  0.1025
    8CHTO   C53 3260   5.535   8.969   1.014  0.3130  0.2349  0.3322
    8CHTO   O72 3261   5.646   9.049   0.964  0.6375  0.1592 -0.0088
    8CHTO  H199 3262   5.625   9.139   0.977 -0.6196 -0.2968  1.2291
    8CHTO   O22 3263   5.305   9.040   0.626  0.1919 -0.3248 -0.0676
    8CHTO   C31 3264   5.368   9.113   0.513  1.1468  0.8616  0.1539
    8CHTO   H59 3265   5.291   9.184   0.476 -0.6733 -1.9288 -1.6835
    8CHTO   C29 3266   5.497   9.190   0.551  0.5263  0.8226 -0.1697
    8CHTO   H57 3267   5.565   9.120   0.603 -0.6967 -0.2669 -0.0271
    8CHTO   O21 3268   5.459   9.290   0.657  0.4118  0.6845 -0.4218
    8CHTO   H37 3269   5.412   9.366   0.627 -0.0244  0.7994  0.5275
    8CHTO   C27 3270   5.585   9.256   0.432  0.1767  0.2001  1.0534
    8CHTO   H55 3271   5.527   9.338   0.388 -1.2231 -2.3940 -2.1306
    8CHTO    N5 3272   5.716   9.308   0.483 -0.7309  0.0219 -0.3439
    8CHTO   H43 3273   5.702   9.365   0.573 -1.0753  0.9187 -0.9636
    8CHTO   H44 3274   5.783   9.223   0.488 -0.3557  0.1728 -2.4207
    8CHTO   C25 3275   5.595   9.151   0.321 -0.7649  0.3542  0.2203
    8CHTO   H53 3276   5.664   9.072   0.354  1.7454  2.6107  0.4915
    8CHTO   O17 3277   5.459   9.093   0.287 -0.9069 -1.3036  0.1068
    8CHTO   C32 3278   5.397   9.018   0.390 -0.4181  0.2163  0.0846
    8CHTO   H60 3279   5.458   8.934   0.423 -1.6810 -0.4242  0.8738
    8CHTO   C36 3280   5.263   8.956   0.330 -0.0432  0.7752  0.1006
    8CHTO   O25 3281   5.300   8.878   0.218  0.0605 -0.2388  0.2032
    8CHTO   H40 3282   5.221   8.844   0.179  1.0236 -1.6997 -0.5169
    8CHTO   O15 3283   5.654   9.202   0.199  0.0814 -0.5630 -0.0165
    8CHTO   C19 3284   5.735   9.166   0.078 -0.2229  0.7449 -0.2530
    8CHTO   H47 3285   5.660   9.153  -0.001  0.2414 -1.4572 -0.3659
    8CHTO   C20 3286   5.836   9.280   0.043 -0.5247 -0.0548 -0.5399
    8CHTO   H48 3287   5.898   9.299   0.132 -0.9272 -1.2406  0.0049
    8CHTO   O19 3288   5.758   9.403   0.022 -0.0880  0.2495  0.6277
    8CHTO   H35 3289   5.822   9.467   0.046  0.8866 -0.0970 -0.9962
    8CHTO   C21 3290   5.936   9.256  -0.077  0.2810  0.0467 -0.4752
    8CHTO   H49 3291   5.876   9.245  -0.167 -2.1021 -1.2578  1.2198
    8CHTO    N4 3292   6.031   9.367  -0.081  0.3879 -0.2209  0.1338
    8CHTO   H41 3293   6.105   9.350  -0.159 -1.4886 -1.5812 -1.3999
    8CHTO   H42 3294   6.081   9.380   0.014 -1.2698  0.2049  0.9517
    8CHTO   C22 3295   5.997   9.120  -0.052  0.0968  0.1800  0.0384
    8CHTO   H50 3296   6.067   9.113   0.032 -0.6265 -2.0433  0.4843
    8CHTO   O14 3297   5.896   9.014  -0.035  0.0993 -0.7303  0.3959
    8CHTO   C23 3298   5.822   9.033   0.084 -0.1095 -0.1771 -0.0450
    8CHTO   H51 3299   5.900   9.038   0.161 -0.8381 -0.9459  0.7554
    8CHTO   C34 3300   5.728   8.920   0.110  0.1116 -0.3756 -0.3193
    8CHTO   O23 3301   5.646   8.901  -0.003 -0.2401  0.5811  0.7090
    8CHTO   H38 3302   5.587   8.830   0.016  1.5116 -0.7131  1.5341
    8CHTO   O16 3303   6.077   9.077  -0.167 -0.6096  0.1109  0.3992
    8CHTO   C24 3304   6.168   8.968  -0.142 -0.3295  0.2869 -0.5683
    8CHTO   H52 3305   6.154   8.926  -0.042  0.1848 -1.4950 -1.2290
    8CHTO   C26 3306   6.306   9.027  -0.166 -0.8679  0.1390 -0.3018
    8CHTO   H54 3307   6.304   9.072  -0.268 -0.6381 -0.4770 -0.5817
    8CHTO   O20 3308   6.334   9.139  -0.081  0.7415 -0.3848 -0.1418
    8CHTO   H36 3309   6.377   9.211  -0.122 -1.6365  0.9926 -0.2885
    8CHTO   C30 3310   6.418   8.922  -0.157  0.3573  0.7585  0.0219
    8CHTO   H58 3311   6.417   8.896  -0.050 -0.7672 -2.4378 -0.7046
    8CHTO    N6 3312   6.554   8.967  -0.196  0.2483 -0.2905 -0.0586
    8CHTO   H45 3313   6.546   9.021  -0.290 -1.9683  0.4662  0.5284
    8CHTO   H46 3314   6.620   8.884  -0.219 -1.2434 -0.7643 -2.9849
    8CHTO   C33 3315   6.389   8.785  -0.229  0.1702  0.3111 -0.1944
    8CHTO   H61 3316   6.398   8.800  -0.337 -0.8855  1.2722 -0.1633
    8CHTO   O18 3317   6.250   8.745  -0.206  0.1851  0.0833 -0.0326
    8CHTO   C28 3318   6.150   8.851  -0.241  0.6471 -0.0572 -0.2816
    8CHTO   H56 3319   6.157   8.888  -0.343 -1.1903 -1.3249 -0.8976
    8CHTO   C35 3320   6.009   8.786  -0.229  0.1179  0.0965 -0.0750
    8CHTO   O24 3321   5.984   8.744  -0.094 -0.1701  0.6835 -0.5550
    8CHTO   H39 3322   5.950   8.814  -0.041 -2.6595 -0.4148 -0.6107
    8CHTO    O9 3323   6.482   8.680  -0.192 -0.4663 -0.4077  0.1595
    8CHTO   C13 3324   6.463   8.543  -0.253  0.5806  0.0202  0.0575
    8CHTO   H26 3325   6.407   8.555  -0.347 -0.5309  4.5388  1.1841
    8CHTO   C11 3326   6.375   8.459  -0.150 -0.7780  0.1587 -0.5449
    8CHTO   H24 3327   6.283   8.516  -0.132 -0.0832  1.1310 -0.0644
    8CHTO    O8 3328   6.434   8.445  -0.016  0.2181 -0.0877 -0.3882
    8CHTO    H3 3329   6.375   8.439   0.056  1.6699 -0.2974  0.8049
    8CHTO    C9 3330   6.348   8.321  -0.218 -0.6549  0.6010 -0.4944
    8CHTO   H22 3331   6.298   8.342  -0.314 -0.2902  1.9100 -0.4003
    8CHTO    N2 3332   6.246   8.235  -0.150  0.4272 -0.2910  0.3227
    8CHTO   H10 3333   6.296   8.147  -0.112  0.9438  0.1756  0.7246
    8CHTO   H11 3334   6.162   8.201  -0.209  1.1772 -1.4470 -0.1098
    8CHTO    C7 3335   6.477   8.247  -0.251 -0.3393  0.1742 -0.5591
    8CHTO   H20 3336   6.448   8.164  -0.319 -0.7690  1.1511 -1.5712
    8CHTO    O4 3337   6.574   8.330  -0.324 -0.7421  0.2812 -0.1407
    8CHTO   C14 3338   6.597   8.471  -0.297 -0.1563  0.7376 -0.1643
    8CHTO   H27 3339   6.636   8.528  -0.384  0.6070 -1.7897 -1.5252
    8CHTO   C18 3340   6.697   8.495  -0.179  0.2361 -0.7878  0.1157
    8CHTO   O13 3341   6.815   8.431  -0.201  0.3234 -0.4847 -0.1580
    8CHTO    H7 3342   6.864   8.410  -0.123 -0.0055  1.4411  0.5894
    8CHTO    O2 3343   6.568   8.178  -0.112 -0.0937 -0.5756  0.1828
    8CHTO    C1 3344   6.646   8.060  -0.133  0.1409  0.5309  0.3817
    8CHTO   H14 3345   6.708   8.052  -0.042  0.4758 -0.8108  0.0326
    8CHTO    C2 3346   6.743   8.058  -0.254 -0.4678  0.0927  0.7658
    8CHTO   H15 3347   6.702   8.095  -0.349  0.1651  0.7393  0.7381
    8CHTO    O6 3348   6.855   8.134  -0.212 -0.2532  0.3072  0.0755
    8CHTO    H1 3349   6.832   8.224  -0.222 -0.0709  0.1880 -1.4552
    8CHTO    C3 3350   6.799   7.909  -0.282  0.3910  0.0826  0.0912
    8CHTO   H16 3351   6.876   7.889  -0.206 -0.5636 -1.3946  0.6957
    8CHTO    N1 3352   6.862   7.893  -0.415 -1.0444 -0.6198  0.2071
    8CHTO    H8 3353   6.954   7.948  -0.425 -1.1152 -0.2095  1.7705
    8CHTO    H9 3354   6.875   7.789  -0.440  1.3607 -0.9480  2.6069
    8CHTO    C4 3355   6.695   7.797  -0.258  0.6592 -0.7366 -0.3445
    8CHTO   H17 3356   6.626   7.789  -0.342 -1.6553 -0.8441  1.5150
    8CHTO    O1 3357   6.625   7.825  -0.133  0.0153  0.4339  0.1934
    8CHTO    C5 3358   6.545   7.944  -0.129 -0.0411  0.0431  0.3275
    8CHTO   H18 3359   6.482   7.941  -0.217 -1.1130  0.5459  1.0754
    8CHTO   C16 3360   6.459   7.937  -0.000 -0.5263 -0.3275 -0.1296
    8CHTO   O11 3361   6.358   7.835  -0.008  0.5635  1.1235  0.2558
    8CHTO    H5 3362   6.286   7.883  -0.044  0.1532  1.0080  0.9341
    8CHTO    O3 3363   6.770   7.677  -0.231 -0.4269  0.2704 -0.6013
    8CHTO    C6 3364   6.710   7.547  -0.253  0.0688 -0.7293  1.1090
    8CHTO   H19 3365   6.603   7.556  -0.235 -0.3041 -2.3311 -0.2128
    8CHTO    C8 3366   6.744   7.509  -0.403  0.5454  0.2131 -0.8554
    8CHTO   H21 3367   6.851   7.525  -0.414  0.6379 -0.0660 -0.3866
    8CHTO    O7 3368   6.668   7.590  -0.492 -0.3096 -0.1872  0.3198
    8CHTO    H2 3369   6.643   7.675  -0.462  0.2434  0.8927 -2.1815
    8CHTO   C12 3370   6.707   7.363  -0.420  0.2124  0.3823  0.6477
    8CHTO   H25 3371   6.596   7.358  -0.415  0.0370  0.1692 -2.6490
    8CHTO    N3 3372   6.748   7.316  -0.553 -0.2657  0.0548 -0.4203
    8CHTO   H12 3373   6.669   7.258  -0.600 -0.7863 -0.6399  1.2729
    8CHTO   H13 3374   6.834   7.252  -0.539  0.8439  1.7222  0.4332
    8CHTO   C15 3375   6.763   7.277  -0.306  0.2183 -0.0428  0.3810
    8CHTO   H28 3376   6.871   7.271  -0.294 -0.0906 -1.3442  2.9343
    8CHTO   O10 3377   6.702   7.137  -0.314 -0.6761 -0.5330 -0.3364
    8CHTO    H4 3378   6.743   7.088  -0.246  1.5579  2.1953  0.3841
    8CHTO    O5 3379   6.706   7.318  -0.180  0.0005  0.1654 -0.1425
    8CHTO   C10 3380   6.769   7.441  -0.152 -0.1318  0.9690 -0.2077
    8CHTO   H23 3381   6.877   7.442  -0.166 -0.1291  4.4903 -0.3586
    8CHTO   C17 3382   6.742   7.482  -0.005 -0.0820  0.7104 -0.6494
    8CHTO   O12 3383   6.822   7.416   0.092 -0.1698  0.3097  0.4438
    8CHTO    H6 3384   6.845   7.327   0.073  0.2207  0.4189  0.3974
    9CHTO  H203 3385   6.884   3.388   4.009 -1.1363 -1.2871  2.4263
    9CHTO   O82 3386   6.879   3.309   3.960  0.2938  0.2456 -0.3304
    9CHTO  C123 3387   7.011   3.257   3.930  0.1926  0.1976  0.3425
    9CHTO  H227 3388   7.065   3.235   4.024  0.1713 -0.2898  0.2411
    9CHTO   O77 3389   6.986   3.130   3.853 -0.0369 -0.2182  0.0109
    9CHTO  C118 3390   7.104   3.049   3.836 -0.0808  0.1172  0.4453
    9CHTO  H222 3391   7.147   3.023   3.934  0.5201 -0.1731  0.1077
    9CHTO  C125 3392   7.059   2.911   3.777 -0.2570 -0.4831 -0.2600
    9CHTO   O84 3393   6.983   2.841   3.874 -0.0595  0.4156  0.3784
    9CHTO  H205 3394   7.040   2.786   3.925  0.0203 -1.4541 -1.6749
    9CHTO  C114 3395   7.197   3.135   3.739  0.5316 -0.4620  0.5635
    9CHTO  H218 3396   7.135   3.162   3.654 -1.0136  0.4793  1.9657
    9CHTO  C116 3397   7.231   3.271   3.796 -0.1778  0.1694 -0.6455
    9CHTO  H220 3398   7.303   3.263   3.880 -0.6159  2.1800 -0.0551
    9CHTO   O79 3399   7.302   3.346   3.696 -0.3581  0.1205  0.1192
    9CHTO  H201 3400   7.354   3.411   3.738 -0.3720 -0.0216  0.3573
    9CHTO  C120 3401   7.098   3.345   3.840  0.1959  0.3768  0.4501
    9CHTO  H224 3402   7.051   3.378   3.745  2.7615  1.4434 -0.5160
    9CHTO   N21 3403   7.119   3.480   3.898 -0.4237  0.1682  0.3127
    9CHTO  H211 3404   7.140   3.478   4.004  0.5454 -0.0888  0.1232
    9CHTO  H212 3405   7.194   3.530   3.838 -1.9520 -0.5583 -2.2865
    9CHTO   O75 3406   7.317   3.064   3.716  0.2792 -0.3556 -0.2496
    9CHTO  C112 3407   7.353   3.048   3.561  0.0772 -0.8770 -0.3047
    9CHTO  H216 3408   7.330   3.140   3.505 -0.5880 -1.1623 -0.5046
    9CHTO   O73 3409   7.283   2.937   3.508 -0.6664  0.0474  0.5414
    9CHTO  C113 3410   7.322   2.905   3.374 -0.2488  0.4084  0.7832
    9CHTO  H217 3411   7.298   2.994   3.311 -4.0236 -0.0005  1.5374
    9CHTO  C124 3412   7.240   2.788   3.315 -0.0694 -0.1547  0.5474
    9CHTO   O83 3413   7.100   2.808   3.324  0.2154 -0.2263  0.1816
    9CHTO  H204 3414   7.087   2.821   3.416 -2.5527  1.9678 -0.4427
    9CHTO  C109 3415   7.471   2.875   3.344 -0.3082 -0.1317  0.0075
    9CHTO  H213 3416   7.499   2.781   3.395 -0.3221  0.7817  1.7534
    9CHTO  C110 3417   7.548   2.998   3.400 -0.3270  0.5308  0.1911
    9CHTO  H214 3418   7.527   3.085   3.337  0.2238  1.6820  1.5849
    9CHTO   O78 3419   7.690   2.971   3.387 -0.1941 -0.2708 -0.3716
    9CHTO  H200 3420   7.737   3.038   3.433 -1.3158 -0.1212  0.5880
    9CHTO  C111 3421   7.510   3.025   3.549 -0.0038 -0.6492  0.1193
    9CHTO  H215 3422   7.538   2.945   3.619  0.7703 -1.5420 -1.1968
    9CHTO   N19 3423   7.590   3.143   3.596  0.2540 -0.2113 -0.3677
    9CHTO  H207 3424   7.668   3.106   3.661  0.4173  0.8232  0.0360
    9CHTO  H208 3425   7.526   3.209   3.654  2.1208  0.3289  1.1639
    9CHTO   O74 3426   7.500   2.860   3.201  0.7547 -0.2323  0.3561
    9CHTO  C115 3427   7.649   2.800   3.151  0.0205 -0.5418 -0.4848
    9CHTO  H219 3428   7.723   2.802   3.231 -1.5162  0.4675  0.9252
    9CHTO   O76 3429   7.638   2.648   3.121  0.4180 -0.4106  0.2467
    9CHTO  C122 3430   7.561   2.618   3.005 -0.2591  0.1793  0.0978
    9CHTO  H226 3431   7.457   2.639   3.030  0.4625  2.0749  1.6066
    9CHTO  C126 3432   7.575   2.465   2.982 -0.1387  0.3990 -0.3756
    9CHTO   O85 3433   7.709   2.424   2.968 -0.1261  0.0232  0.0945
    9CHTO  H206 3434   7.752   2.417   3.051 -1.4830  1.4511  0.9544
    9CHTO  C121 3435   7.605   2.708   2.877 -0.3364 -0.6446 -0.1363
    9CHTO  H225 3436   7.707   2.675   2.847 -0.8854 -1.2141 -1.4194
    9CHTO   O81 3437   7.533   2.676   2.762  0.4384 -0.1625  0.1345
    9CHTO  H202 3438   7.578   2.710   2.687 -0.6039 -2.6553 -1.6857
    9CHTO  C119 3439   7.611   2.860   2.908 -0.1936 -0.2541  0.4070
    9CHTO  H223 3440   7.658   2.915   2.826 -0.4885  0.3886  0.6693
    9CHTO  C117 3441   7.704   2.891   3.035 -0.1089 -0.0037  0.7244
    9CHTO  H221 3442   7.696   2.989   3.080  2.3574  0.6043 -0.0898
    9CHTO   N20 3443   7.848   2.866   2.999 -0.5952  0.0121 -0.3542
    9CHTO  H209 3444   7.896   2.824   3.086  0.5439 -0.5892 -1.2520
    9CHTO  H210 3445   7.908   2.951   2.970  0.4148 -0.3055  0.7653
    9CHTO   O80 3446   7.481   2.936   2.928 -0.6824  0.3594  0.1428
    9CHTO  C103 3447   7.480   3.102   2.917 -0.0483  0.3872  0.2879
    9CHTO  H190 3448   7.514   3.151   3.009  1.7415 -1.0129  0.3920
    9CHTO  C101 3449   7.551   3.157   2.782 -0.1694  0.4718  0.4715
    9CHTO  H188 3450   7.535   3.083   2.704 -0.6313 -0.2408  1.2322
    9CHTO   O68 3451   7.705   3.173   2.801  0.0989 -0.3016  0.3639
    9CHTO  H168 3452   7.726   3.262   2.823 -1.9225  0.3652 -0.2419
    9CHTO   C99 3453   7.496   3.297   2.729  0.1049  0.2881 -0.5179
    9CHTO  H186 3454   7.531   3.380   2.793 -0.8181  1.5992 -1.6913
    9CHTO   N17 3455   7.550   3.340   2.602 -0.1117 -0.2325  0.0002
    9CHTO  H174 3456   7.473   3.354   2.528 -0.7644  2.7907  1.1603
    9CHTO  H175 3457   7.619   3.420   2.622  0.3818 -1.0825  1.7922
    9CHTO   C97 3458   7.342   3.312   2.737 -0.3589  0.8923  0.0976
    9CHTO  H184 3459   7.298   3.248   2.658 -0.6032 -0.6114  1.4330
    9CHTO   O64 3460   7.300   3.269   2.866 -0.8079  0.3444  0.1840
    9CHTO  C104 3461   7.325   3.132   2.903  0.3311 -0.2020 -0.3807
    9CHTO  H191 3462   7.284   3.056   2.837 -0.1925 -0.0803 -0.1977
    9CHTO  C108 3463   7.251   3.113   3.036 -0.3680  0.0573  0.0035
    9CHTO   O71 3464   7.118   3.165   3.034  0.3344 -0.2415  0.0834
    9CHTO  H171 3465   7.061   3.113   2.981 -0.1759 -0.9765  1.3275
    9CHTO   O62 3466   7.289   3.439   2.732 -0.0543 -0.2730 -0.3553
    9CHTO   C91 3467   7.229   3.490   2.615  0.2248 -0.0720 -0.6181
    9CHTO  H178 3468   7.311   3.493   2.543  0.7090  3.0202 -0.0032
    9CHTO   C92 3469   7.177   3.636   2.637  0.1246 -0.0395 -0.8790
    9CHTO  H179 3470   7.261   3.699   2.671 -0.7275  0.1809  0.8641
    9CHTO   O66 3471   7.143   3.686   2.506 -0.5862  0.3576  0.2544
    9CHTO  H166 3472   7.128   3.779   2.505  3.0525  1.0074  0.4289
    9CHTO   C93 3473   7.045   3.639   2.719 -0.3344 -0.5893  0.4164
    9CHTO  H180 3474   6.996   3.737   2.708  1.2885  0.0730 -1.2029
    9CHTO   N16 3475   7.062   3.633   2.868 -0.7388 -0.5559 -0.2664
    9CHTO  H172 3476   7.136   3.708   2.894 -0.1395 -1.0844 -0.4271
    9CHTO  H173 3477   7.086   3.533   2.901 -0.2179 -0.2593  0.2814
    9CHTO   C94 3478   6.939   3.531   2.670 -0.2043  0.4154 -0.1168
    9CHTO  H181 3479   6.922   3.459   2.749  1.2263  1.1438  0.8900
    9CHTO   O61 3480   6.981   3.460   2.549  0.9463  0.0737  0.0734
    9CHTO   C95 3481   7.112   3.396   2.557 -0.2421 -0.4322 -0.4292
    9CHTO  H182 3482   7.106   3.320   2.634  0.4316  0.3451  0.3957
    9CHTO  C106 3483   7.149   3.331   2.418 -0.6004  0.3880 -0.3833
    9CHTO   O69 3484   7.261   3.238   2.429 -0.3660 -0.0171  0.4632
    9CHTO  H169 3485   7.333   3.268   2.377 -0.8611 -0.5972 -0.5848
    9CHTO   O63 3486   6.808   3.603   2.634 -0.4264 -0.3058 -0.1874
    9CHTO   C96 3487   6.691   3.564   2.735 -0.4153  0.4238  0.2357
    9CHTO  H183 3488   6.736   3.549   2.833  0.3399  2.2242  0.1694
    9CHTO   C98 3489   6.608   3.442   2.687  0.3650  1.1353  0.6098
    9CHTO  H185 3490   6.590   3.455   2.579  1.7120  2.8228  0.5664
    9CHTO   O67 3491   6.690   3.324   2.701  0.4564  0.4051  0.0879
    9CHTO  H167 3492   6.782   3.341   2.695  0.7371 -0.7835  0.9011
    9CHTO  C102 3493   6.468   3.426   2.766 -0.1369 -0.0647 -0.1949
    9CHTO  H189 3494   6.496   3.403   2.870  0.2148  0.6147 -0.1351
    9CHTO   N18 3495   6.380   3.314   2.719 -0.2281 -0.0774 -0.1947
    9CHTO  H176 3496   6.316   3.354   2.642  0.3729 -0.9571 -1.1645
    9CHTO  H177 3497   6.447   3.238   2.681 -0.2331 -1.3726  2.2720
    9CHTO  C105 3498   6.398   3.561   2.765 -0.1639  0.5002  0.1045
    9CHTO  H192 3499   6.362   3.583   2.664  0.3854  0.3734 -0.1193
    9CHTO   O65 3500   6.479   3.677   2.810 -0.4127  0.2167 -0.3807
    9CHTO  C100 3501   6.600   3.696   2.738  0.2313  0.3106 -0.1711
    9CHTO  H187 3502   6.570   3.692   2.632 -1.4671 -0.1307  0.3033
    9CHTO  C107 3503   6.666   3.832   2.774  0.0086  0.1281  0.1200
    9CHTO   O70 3504   6.609   3.954   2.727 -1.0727 -0.2503  0.1901
    9CHTO  H170 3505   6.668   4.020   2.758  0.9124 -1.9050  0.0975
    9CHTO   O57 3506   6.279   3.551   2.860  0.0200 -0.2121  0.3201
    9CHTO   C85 3507   6.161   3.640   2.846 -0.4128 -0.0390 -0.9147
    9CHTO  H157 3508   6.107   3.596   2.760  0.2254 -0.3120 -1.1783
    9CHTO   C83 3509   6.200   3.796   2.808  0.1591  0.4553 -0.4842
    9CHTO  H155 3510   6.259   3.793   2.716 -1.2710  0.4487 -1.4012
    9CHTO   O56 3511   6.286   3.853   2.906 -0.1812  0.0711 -0.3171
    9CHTO  H135 3512   6.289   3.946   2.896 -1.1528 -0.1045 -2.7014
    9CHTO   C81 3513   6.077   3.879   2.781  0.4873 -0.6005  0.0384
    9CHTO  H153 3514   6.016   3.828   2.707 -0.1232  0.5794 -0.2900
    9CHTO   N14 3515   6.105   4.016   2.729 -0.2105  0.6447 -0.4112
    9CHTO  H141 3516   6.167   4.071   2.796  1.6674  0.8695 -2.2823
    9CHTO  H142 3517   6.012   4.069   2.720 -0.4993  0.6619  2.1221
    9CHTO   C79 3518   5.994   3.875   2.913 -0.3699  0.0339 -0.8913
    9CHTO  H151 3519   5.901   3.929   2.892  0.2570  0.7294 -1.8918
    9CHTO   O52 3520   5.959   3.739   2.946  0.3378  0.3191 -0.2028
    9CHTO   C86 3521   6.071   3.648   2.974 -0.0487  0.3306  0.3788
    9CHTO  H158 3522   6.118   3.686   3.067  0.6251 -0.7504  0.4837
    9CHTO   C90 3523   6.024   3.516   3.006  0.1617  0.2883 -0.2599
    9CHTO   O60 3524   5.922   3.503   3.106 -0.4009 -0.2018 -0.4268
    9CHTO  H138 3525   5.839   3.531   3.072  0.2179 -0.3212 -2.0545
    9CHTO   O50 3526   6.053   3.947   3.021  0.1042 -0.0869  0.1733
    9CHTO   C73 3527   6.059   4.030   3.137  0.1444  0.2335  0.6329
    9CHTO  H145 3528   5.955   4.039   3.174 -0.0773 -3.0175  0.9530
    9CHTO   C74 3529   6.115   4.165   3.094 -0.3500  0.2555 -0.2547
    9CHTO  H146 3530   6.050   4.206   3.015 -2.9017 -1.9550  0.5894
    9CHTO   O54 3531   6.088   4.250   3.202  0.1489 -0.6325  0.1678
    9CHTO  H133 3532   6.002   4.286   3.197  0.9816  1.2516 -1.5988
    9CHTO   C75 3533   6.264   4.161   3.056  0.3935 -1.0456  0.2750
    9CHTO  H147 3534   6.273   4.119   2.954 -0.5117  0.7979 -0.6012
    9CHTO   N13 3535   6.315   4.299   3.031  0.2022 -0.1478  0.1413
    9CHTO  H139 3536   6.251   4.357   2.967 -0.9138 -1.8915 -0.3250
    9CHTO  H140 3537   6.413   4.286   2.987  0.2529 -0.8880  0.4667
    9CHTO   C76 3538   6.352   4.083   3.162  0.6565  0.0390 -0.1241
    9CHTO  H148 3539   6.365   4.150   3.247 -2.7061  0.3780  0.2058
    9CHTO   O49 3540   6.290   3.961   3.212  0.1845 -0.1077 -0.2838
    9CHTO   C77 3541   6.153   3.975   3.252 -0.1402  0.3061 -0.3022
    9CHTO  H149 3542   6.162   4.050   3.330 -0.3181 -1.3502  1.3676
    9CHTO   C88 3543   6.103   3.838   3.320 -0.2664 -0.6343 -0.0798
    9CHTO   O58 3544   5.945   3.837   3.362 -0.2320  0.0081  0.0920
    9CHTO  H136 3545   5.887   3.852   3.289  0.3610  2.2716  0.0587
    9CHTO   O51 3546   6.491   4.030   3.095 -0.3801 -0.3746  0.4898
    9CHTO   C78 3547   6.593   3.998   3.203 -0.1819 -0.5625  0.2233
    9CHTO  H150 3548   6.554   4.011   3.306  1.1587  2.0728  0.4592
    9CHTO   C80 3549   6.707   4.100   3.181 -0.1958  0.6199 -0.6927
    9CHTO  H152 3550   6.744   4.093   3.076 -0.7741  1.5977 -0.9697
    9CHTO   O55 3551   6.643   4.229   3.211  0.1232 -0.2012 -0.5226
    9CHTO  H134 3552   6.628   4.239   3.303  1.9394  0.9390 -0.3278
    9CHTO   C84 3553   6.829   4.081   3.279 -0.0656 -0.5669  0.0569
    9CHTO  H156 3554   6.793   4.091   3.381 -1.3619 -2.5421 -0.1789
    9CHTO   N15 3555   6.936   4.185   3.255  0.3224  0.1124  0.2414
    9CHTO  H143 3556   7.029   4.138   3.232  0.9945  0.7330  1.6139
    9CHTO  H144 3557   6.950   4.241   3.346  2.3318  1.3203 -0.7741
    9CHTO   C87 3558   6.890   3.940   3.260  0.0375 -0.5998 -0.2768
    9CHTO  H159 3559   6.926   3.929   3.158 -0.1362 -0.6142 -0.3363
    9CHTO   O53 3560   6.757   3.833   3.289 -0.0499 -0.2729 -0.1099
    9CHTO   C82 3561   6.652   3.857   3.197  0.0230 -0.1797 -0.2356
    9CHTO  H154 3562   6.698   3.840   3.100 -0.9108  0.6661 -0.8368
    9CHTO   C89 3563   6.545   3.752   3.212 -0.3792 -0.0470  0.2712
    9CHTO   O59 3564   6.578   3.622   3.171  0.1339  0.5362  0.0777
    9CHTO  H137 3565   6.655   3.620   3.118  0.3449 -1.9645  0.4030
    9CHTO   O45 3566   7.014   3.908   3.368 -0.5423 -0.1215 -0.0257
    9CHTO   C67 3567   7.034   3.764   3.390 -0.1165  0.1725 -0.0510
    9CHTO  H124 3568   6.935   3.723   3.413  0.1856 -0.5401  0.0076
    9CHTO   C65 3569   7.094   3.696   3.257  0.4417 -0.9082 -0.1555
    9CHTO  H122 3570   7.141   3.779   3.206 -0.3047 -0.5634 -0.2950
    9CHTO   O44 3571   6.984   3.651   3.176  0.5390  0.3593 -0.4780
    9CHTO  H102 3572   7.000   3.657   3.083 -1.1999  1.8862 -0.7114
    9CHTO   C63 3573   7.204   3.590   3.290 -0.7989 -0.4489 -0.0179
    9CHTO  H120 3574   7.295   3.642   3.318 -0.0824 -0.4109 -2.3307
    9CHTO   N11 3575   7.253   3.506   3.175 -0.4642 -0.2714 -0.3027
    9CHTO  H108 3576   7.283   3.408   3.205 -0.7530 -0.2213  0.1674
    9CHTO  H109 3577   7.187   3.495   3.091  1.2743  0.1982 -1.7435
    9CHTO   C61 3578   7.158   3.504   3.415  0.9992 -0.5185 -0.1201
    9CHTO  H118 3579   7.236   3.430   3.437  1.3278  0.0743  0.7233
    9CHTO   O40 3580   7.151   3.585   3.530 -0.1596 -0.4633 -0.9321
    9CHTO   C68 3581   7.124   3.731   3.519  0.4883 -0.4135  0.3619
    9CHTO  H125 3582   7.218   3.781   3.490  0.0378  0.4983  0.4494
    9CHTO   C72 3583   7.075   3.800   3.653 -0.1208 -0.0070  0.2866
    9CHTO   O48 3584   7.046   3.944   3.633  0.1504  0.1396 -0.2604
    9CHTO  H105 3585   7.075   3.991   3.709 -0.5260 -0.8837  0.6521
    9CHTO   O38 3586   7.040   3.434   3.372 -0.1074 -0.6370 -0.3081
    9CHTO   C55 3587   6.969   3.345   3.457 -0.2276 -0.2317  0.0583
    9CHTO  H112 3588   7.023   3.348   3.553 -1.1437  2.4648  0.5316
    9CHTO   C56 3589   6.967   3.202   3.391  0.2638 -0.4194 -0.2726
    9CHTO  H113 3590   6.941   3.220   3.286 -0.8870 -0.2819  0.0235
    9CHTO   O42 3591   7.098   3.149   3.380  0.2419  0.2918  0.6413
    9CHTO  H100 3592   7.143   3.132   3.461 -0.0508 -0.7577  0.5960
    9CHTO   C57 3593   6.865   3.103   3.474 -0.7290 -0.2716 -0.4784
    9CHTO  H114 3594   6.916   3.096   3.571  0.3363  0.7759 -0.9536
    9CHTO   N10 3595   6.839   2.975   3.413 -0.3244 -0.4545 -0.0711
    9CHTO  H106 3596   6.739   2.983   3.372  0.3777  0.9676 -1.5476
    9CHTO  H107 3597   6.840   2.895   3.485  0.8174 -1.5347 -1.2745
    9CHTO   C58 3598   6.729   3.172   3.502 -0.0076  0.0650 -0.3057
    9CHTO  H115 3599   6.676   3.187   3.406 -0.2442  1.9087  0.0920
    9CHTO   O37 3600   6.754   3.296   3.564  0.1594 -0.3929  0.5161
    9CHTO   C59 3601   6.817   3.396   3.481 -0.6933 -0.3840 -0.4410
    9CHTO  H116 3602   6.768   3.401   3.384 -0.6972 -2.5996 -0.5847
    9CHTO   C70 3603   6.806   3.527   3.555  0.4717 -0.3060 -0.6168
    9CHTO   O46 3604   6.862   3.546   3.685  0.3388 -0.2695  0.2361
    9CHTO  H103 3605   6.842   3.631   3.717 -1.6579 -0.3962 -0.6205
    9CHTO   O39 3606   6.645   3.100   3.611  0.4721  0.0662  0.2370
    9CHTO   C60 3607   6.506   3.106   3.609  0.0055  0.5069  0.0738
    9CHTO  H117 3608   6.477   3.204   3.572  0.9067  0.3751 -1.0167
    9CHTO   C62 3609   6.454   3.004   3.501  0.3395 -0.2691  0.1506
    9CHTO  H119 3610   6.489   3.033   3.400  1.6739 -2.0703  0.0758
    9CHTO   O43 3611   6.522   2.877   3.513  0.4964  0.1482  0.1431
    9CHTO  H101 3612   6.496   2.822   3.584  0.2901 -0.4618 -0.3974
    9CHTO   C66 3613   6.289   3.000   3.507 -0.5263  0.5250  0.2806
    9CHTO  H123 3614   6.250   3.098   3.479  1.1420  1.5385  1.4146
    9CHTO   N12 3615   6.220   2.892   3.422  0.0906 -0.1399  0.1242
    9CHTO  H110 3616   6.255   2.790   3.423  0.5076 -0.0103 -0.9003
    9CHTO  H111 3617   6.113   2.907   3.414 -0.1471 -0.2885  2.5828
    9CHTO   C69 3618   6.247   2.981   3.657  0.0460 -0.0956  0.0463
    9CHTO  H126 3619   6.281   2.881   3.692 -0.1017  0.5579  2.1552
    9CHTO   O41 3620   6.316   3.105   3.749 -0.1779 -0.7929  0.1152
    9CHTO   C64 3621   6.448   3.091   3.753  0.1665  0.0452  0.1642
    9CHTO  H121 3622   6.457   2.983   3.778 -0.5191 -0.3425 -1.2016
    9CHTO   C71 3623   6.517   3.186   3.854  0.3153  0.3387 -0.0926
    9CHTO   O47 3624   6.494   3.161   3.993  0.3455  0.0301 -0.1142
    9CHTO  H104 3625   6.406   3.136   4.013 -0.0588  1.5189  0.0822
    9CHTO   O34 3626   6.085   2.995   3.672  0.2739 -0.0429 -0.4417
    9CHTO   C49 3627   5.951   3.011   3.754 -0.0150 -0.3265  0.1370
    9CHTO   H91 3628   5.890   3.067   3.682  0.1693 -0.2119  0.0714
    9CHTO   C47 3629   5.979   3.088   3.881  0.3355  0.2619 -0.3019
    9CHTO   H89 3630   5.884   3.116   3.931  0.0366 -0.8920 -0.2172
    9CHTO   O33 3631   6.055   3.215   3.853 -0.0003 -0.3648 -0.2035
    9CHTO   H70 3632   6.142   3.191   3.828 -0.5564 -1.7839 -0.8672
    9CHTO   C45 3633   6.070   3.013   3.986  0.1052  0.5628 -0.1763
    9CHTO   H87 3634   6.170   3.058   3.973 -0.7708  2.7594  0.3602
    9CHTO    N8 3635   6.025   3.034   4.130 -0.1809  0.1758  0.2544
    9CHTO   H75 3636   5.983   2.943   4.170  0.1771  0.9379  2.4382
    9CHTO   H76 3637   5.947   3.109   4.134  0.8648  1.2511  0.6241
    9CHTO   C43 3638   6.077   2.854   3.952 -0.1378 -0.8985  0.1654
    9CHTO   H85 3639   6.149   2.843   3.871  3.0202  2.6245  2.3358
    9CHTO   O29 3640   5.950   2.803   3.912  0.5648  0.0962  0.1205
    9CHTO   C50 3641   5.883   2.876   3.807 -0.5636 -0.1564  0.4166
    9CHTO   H92 3642   5.871   2.809   3.721  2.2428 -0.3604  0.1619
    9CHTO   C54 3643   5.740   2.891   3.858 -0.2978 -0.1358 -0.3864
    9CHTO   O36 3644   5.656   2.968   3.767  0.1331 -0.5810 -0.5530
    9CHTO   H72 3645   5.669   3.059   3.786 -1.0883 -0.6685  0.7588
    9CHTO   O27 3646   6.142   2.774   4.058  0.1863  0.1986  0.1076
    9CHTO   C37 3647   6.270   2.738   4.116 -0.2100 -0.2154 -0.0406
    9CHTO   H79 3648   6.270   2.629   4.135  0.8899 -0.0586  0.8666
    9CHTO   C38 3649   6.386   2.773   4.012 -0.1218  0.1731 -0.2620
    9CHTO   H80 3650   6.363   2.875   3.976 -0.2629 -0.3133 -1.5537
    9CHTO   O31 3651   6.367   2.683   3.896  0.2553  0.4027  0.2674
    9CHTO   H68 3652   6.415   2.712   3.821 -1.5950  0.6220 -0.8754
    9CHTO   C39 3653   6.523   2.761   4.076  0.5395  0.7080 -0.3630
    9CHTO   H81 3654   6.553   2.658   4.097  0.1727  1.0278  1.8755
    9CHTO    N7 3655   6.631   2.807   3.976  0.0009 -0.2251 -0.1835
    9CHTO   H73 3656   6.683   2.726   3.929  1.1996  0.3005  0.2268
    9CHTO   H74 3657   6.701   2.865   4.035 -0.1662  2.4223 -2.4828
    9CHTO   C40 3658   6.528   2.848   4.211  0.7780  0.3037 -0.7909
    9CHTO   H82 3659   6.503   2.950   4.185  0.0369  0.1862 -0.5517
    9CHTO   O26 3660   6.427   2.793   4.303 -0.0979 -0.0429 -0.2616
    9CHTO   C41 3661   6.295   2.815   4.246 -0.1071  0.1205  0.1743
    9CHTO   H83 3662   6.277   2.921   4.223  3.1535  1.0917  1.8531
    9CHTO   C52 3663   6.188   2.783   4.360 -0.3320 -0.0087  0.1001
    9CHTO   O35 3664   6.166   2.631   4.373  0.4049  0.1430 -0.2292
    9CHTO   H71 3665   6.167   2.595   4.287  1.3463 -0.4425  0.0187
    9CHTO   O28 3666   6.651   2.861   4.276  0.7689 -0.5270  0.2087
    9CHTO   C42 3667   6.677   2.978   4.355  0.1700 -0.2745 -0.6491
    9CHTO   H84 3668   6.764   2.950   4.415  1.2737  2.8057 -0.6981
    9CHTO   C44 3669   6.564   3.017   4.455 -0.1875  0.2275  0.1001
    9CHTO   H86 3670   6.465   3.015   4.408 -0.1552  0.6453  0.0042
    9CHTO   O32 3671   6.574   2.914   4.560 -0.0564 -0.3713 -0.9516
    9CHTO   H69 3672   6.649   2.932   4.614 -0.8106 -3.7657  1.3675
    9CHTO   C48 3673   6.570   3.165   4.511 -0.0378  0.0133  0.2717
    9CHTO   H90 3674   6.667   3.165   4.562  0.0678 -0.1125  0.0696
    9CHTO    N9 3675   6.461   3.191   4.617 -0.1275  0.1180  0.0413
    9CHTO   H77 3676   6.498   3.227   4.712  2.3832 -0.6425 -0.6101
    9CHTO   H78 3677   6.372   3.240   4.581  0.9173  2.5419  0.5932
    9CHTO   C51 3678   6.580   3.262   4.389  0.3348 -0.2968  0.2165
    9CHTO   H93 3679   6.500   3.235   4.320 -0.9599 -0.2334  1.6460
    9CHTO   O30 3680   6.712   3.251   4.334 -0.1570  0.3680 -0.4639
    9CHTO   C46 3681   6.722   3.107   4.266  0.8402  0.0556 -0.8415
    9CHTO   H88 3682   6.663   3.104   4.174 -1.7796  1.9622  0.6936
    9CHTO   C53 3683   6.871   3.099   4.220  0.1299  0.0885 -0.8292
    9CHTO   O72 3684   6.893   2.978   4.148 -0.2487  0.2242 -0.7641
    9CHTO  H199 3685   6.945   3.003   4.074  0.9252  2.7780  0.8581
    9CHTO   O22 3686   6.563   3.402   4.425  0.0656 -0.3173  0.4907
    9CHTO   C31 3687   6.503   3.481   4.314 -0.2992 -0.3325 -1.1196
    9CHTO   H59 3688   6.506   3.587   4.347  0.1490 -1.2561  1.9930
    9CHTO   C29 3689   6.585   3.473   4.184  0.2112  0.2090  0.1834
    9CHTO   H57 3690   6.600   3.369   4.153 -1.0330  0.4050 -1.0995
    9CHTO   O21 3691   6.716   3.525   4.220  0.0613 -0.1370  0.1481
    9CHTO   H37 3692   6.779   3.473   4.174 -0.8105  0.1701 -1.4190
    9CHTO   C27 3693   6.523   3.554   4.062 -0.3492  0.4982 -0.2227
    9CHTO   H55 3694   6.533   3.661   4.086  0.5980  0.5150 -0.7034
    9CHTO    N5 3695   6.598   3.523   3.935  0.1163  0.1116  0.1263
    9CHTO   H43 3696   6.596   3.417   3.910 -2.6278  0.5499 -1.7426
    9CHTO   H44 3697   6.690   3.575   3.913 -0.4165  1.3468  0.8277
    9CHTO   C25 3698   6.371   3.531   4.047 -0.5889 -0.1441 -0.1407
    9CHTO   H53 3699   6.355   3.431   4.002  0.6011 -0.9803  1.2311
    9CHTO   O17 3700   6.306   3.539   4.178  0.8092 -0.3910  0.1297
    9CHTO   C32 3701   6.351   3.455   4.288  0.5088  0.2191  0.4758
    9CHTO   H60 3702   6.335   3.351   4.259  2.6103 -0.5473  1.9136
    9CHTO   C36 3703   6.271   3.472   4.418 -0.0663  0.0258  0.3404
    9CHTO   O25 3704   6.244   3.617   4.432  0.7700 -0.2656 -0.1762
    9CHTO   H40 3705   6.300   3.652   4.499  0.6747  1.2888 -0.8865
    9CHTO   O15 3706   6.306   3.631   3.964 -0.0553  0.2830 -0.2071
    9CHTO   C19 3707   6.226   3.626   3.835 -0.1513  0.0646  0.5735
    9CHTO   H47 3708   6.221   3.731   3.804 -0.9357 -0.8429 -2.4836
    9CHTO   C20 3709   6.287   3.544   3.714  0.5468 -0.9089 -1.0926
    9CHTO   H48 3710   6.310   3.440   3.743 -0.9882 -1.3133 -1.2437
    9CHTO   O19 3711   6.410   3.621   3.685 -0.2737  0.1167  0.7427
    9CHTO   H35 3712   6.476   3.613   3.751  2.6723 -0.8685 -2.2317
    9CHTO   C21 3713   6.196   3.541   3.587  0.2449  0.4308 -0.7323
    9CHTO   H49 3714   6.182   3.642   3.549 -1.3496  0.8223  0.7991
    9CHTO    N4 3715   6.250   3.468   3.470 -0.4124 -0.2340  0.4606
    9CHTO   H41 3716   6.353   3.443   3.490  0.8581  4.3034 -0.0675
    9CHTO   H42 3717   6.240   3.513   3.373  0.4597  1.9247  1.3584
    9CHTO   C22 3718   6.058   3.486   3.627  0.6539 -0.2415  0.2055
    9CHTO   H50 3719   6.065   3.389   3.675 -1.2685 -0.1124  0.7979
    9CHTO   O14 3720   6.004   3.572   3.726  0.1000 -0.0087  0.5232
    9CHTO   C23 3721   6.071   3.584   3.852  0.0965 -0.2485 -0.1122
    9CHTO   H51 3722   6.059   3.495   3.915  2.1059  0.6245  1.5465
    9CHTO   C34 3723   6.005   3.701   3.923 -0.2899 -0.3878 -0.8933
    9CHTO   O23 3724   5.867   3.677   3.949  0.5803 -0.6393 -0.0059
    9CHTO   H38 3725   5.853   3.604   4.006 -0.5118 -0.4639 -0.0343
    9CHTO   O16 3726   5.962   3.479   3.520 -0.2067 -0.6025 -0.5779
    9CHTO   C24 3727   5.860   3.355   3.527 -0.0638  0.0092  0.3457
    9CHTO   H52 3728   5.866   3.302   3.622 -1.0031 -0.2477  0.2624
    9CHTO   C26 3729   5.882   3.265   3.402  0.0109 -0.6497 -0.0379
    9CHTO   H54 3730   5.880   3.328   3.311  0.3455 -0.5274  0.0370
    9CHTO   O20 3731   6.019   3.217   3.413  0.1015 -0.0617  0.6289
    9CHTO   H36 3732   6.062   3.211   3.330 -1.0833 -0.4444  0.0245
    9CHTO   C30 3733   5.775   3.157   3.390  0.2361  0.1531  0.0046
    9CHTO   H58 3734   5.793   3.092   3.477  0.0740  1.8451  1.3224
    9CHTO    N6 3735   5.779   3.068   3.271 -0.2050  0.5430 -0.0707
    9CHTO   H45 3736   5.707   2.988   3.282 -0.8714  0.9641 -1.2655
    9CHTO   H46 3737   5.749   3.121   3.182 -1.4475 -1.4016 -0.8636
    9CHTO   C33 3738   5.630   3.216   3.417  0.7401 -0.5006  0.3342
    9CHTO   H61 3739   5.600   3.276   3.330 -1.7186 -0.0618  1.4535
    9CHTO   O18 3740   5.627   3.298   3.535  0.5177  0.0440 -0.2256
    9CHTO   C28 3741   5.717   3.408   3.521 -0.9060  0.0397 -0.1692
    9CHTO   H56 3742   5.697   3.461   3.428  0.1246 -0.9599 -0.9771
    9CHTO   C35 3743   5.699   3.507   3.636  0.9582  0.3455  0.2684
    9CHTO   O24 3744   5.571   3.565   3.641 -0.3652  0.4440  0.5381
    9CHTO   H39 3745   5.556   3.618   3.717  1.3370  1.8008 -0.0286
    9CHTO    O9 3746   5.537   3.106   3.423  0.1490 -0.7954  0.2864
    9CHTO   C13 3747   5.383   3.125   3.396 -0.0333 -0.1888  0.7126
    9CHTO   H26 3748   5.377   3.170   3.295  2.6510 -0.2275  0.4947
    9CHTO   C11 3749   5.310   3.201   3.513  0.5311 -0.6622  0.4410
    9CHTO   H24 3750   5.339   3.307   3.502  0.9473 -0.8897 -0.6808
    9CHTO    O8 3751   5.354   3.150   3.647  0.5731  0.2022  0.3876
    9CHTO    H3 3752   5.342   3.059   3.665 -1.2849  0.0719 -1.3233
    9CHTO    C9 3753   5.152   3.182   3.501 -0.2481 -0.3044  0.7387
    9CHTO   H22 3754   5.126   3.214   3.399 -1.8340  0.5088  1.3807
    9CHTO    N2 3755   5.071   3.274   3.580  0.1274 -0.6014 -0.4643
    9CHTO   H10 3756   4.989   3.224   3.628 -2.1345  1.8021 -1.7133
    9CHTO   H11 3757   5.026   3.351   3.519  0.4434 -1.5404 -1.8942
    9CHTO    C7 3758   5.125   3.026   3.526  0.5563  0.1437 -0.1343
    9CHTO   H20 3759   5.029   3.013   3.472  0.3529  2.0796 -0.2813
    9CHTO    O4 3760   5.232   2.946   3.475 -0.3463  0.2022 -0.4781
    9CHTO   C14 3761   5.307   2.986   3.367 -0.5590 -0.6735 -0.6968
    9CHTO   H27 3762   5.251   2.998   3.272 -1.2917 -0.7822 -0.2821
    9CHTO   C18 3763   5.397   2.860   3.354 -0.1180  0.0501 -0.0764
    9CHTO   O13 3764   5.510   2.868   3.269  0.0386 -0.5799 -0.1874
    9CHTO    H7 3765   5.580   2.809   3.293 -0.1292 -0.2876  1.0139
    9CHTO    O2 3766   5.108   2.995   3.686  0.0438  0.2007  0.0336
    9CHTO    C1 3767   5.073   2.862   3.728 -0.1095  0.0055  0.8054
    9CHTO   H14 3768   5.085   2.786   3.648 -0.5343  1.5087 -0.7098
    9CHTO    C2 3769   4.923   2.854   3.795 -0.1530 -0.7628  0.0677
    9CHTO   H15 3770   4.909   2.933   3.871 -0.7760 -1.2456  0.4610
    9CHTO    O6 3771   4.825   2.858   3.687 -0.1173 -0.0394 -0.7472
    9CHTO    H1 3772   4.761   2.921   3.712 -0.4870 -1.1534  1.2497
    9CHTO    C3 3773   4.896   2.723   3.885  0.1015 -0.0984 -0.6564
    9CHTO   H16 3774   4.883   2.632   3.826  0.0924  0.1673 -1.0693
    9CHTO    N1 3775   4.771   2.738   3.958 -0.2449 -0.0133 -0.7520
    9CHTO    H8 3776   4.686   2.749   3.891 -1.0613 -0.4576  0.1933
    9CHTO    H9 3777   4.776   2.808   4.040 -1.8079 -1.5104  0.6504
    9CHTO    C4 3778   5.029   2.703   3.977  0.0361 -0.1275  0.2523
    9CHTO   H17 3779   5.048   2.788   4.042  0.8938 -0.0732 -0.0641
    9CHTO    O1 3780   5.143   2.695   3.886  0.3504 -0.2177 -0.3191
    9CHTO    C5 3781   5.178   2.822   3.831  0.0566 -0.3183  0.6143
    9CHTO   H18 3782   5.180   2.888   3.918 -0.2872  1.3396 -0.6130
    9CHTO   C16 3783   5.322   2.803   3.775  0.6007 -0.6657 -0.2158
    9CHTO   O11 3784   5.413   2.821   3.881 -0.1099 -0.7117  0.3011
    9CHTO    H5 3785   5.448   2.908   3.888 -1.1463 -0.2246 -0.4376
    9CHTO    O3 3786   5.018   2.572   4.045  0.0484  0.3039 -0.2769
    9CHTO    C6 3787   5.041   2.589   4.190 -0.4404 -0.3582  0.5909
    9CHTO   H19 3788   5.042   2.693   4.223  0.8032 -0.5108  1.0784
    9CHTO    C8 3789   4.929   2.512   4.263 -0.0009 -0.4400 -0.0449
    9CHTO   H21 3790   4.902   2.423   4.206 -0.2273  0.1695 -0.8916
    9CHTO    O7 3791   4.812   2.600   4.267 -0.2861  0.0899  0.1278
    9CHTO    H2 3792   4.733   2.552   4.252  1.2043 -2.6418  0.7447
    9CHTO   C12 3793   4.962   2.478   4.414 -0.0309 -0.0229  0.5248
    9CHTO   H25 3794   4.935   2.562   4.483  0.2150  1.7259 -1.4464
    9CHTO    N3 3795   4.883   2.367   4.465 -0.1123 -0.2525  0.3427
    9CHTO   H12 3796   4.918   2.346   4.565  1.3869  2.0333  0.3282
    9CHTO   H13 3797   4.878   2.280   4.401  1.9740  1.6174 -2.5067
    9CHTO   C15 3798   5.114   2.437   4.435 -0.4118  0.5010 -0.1885
    9CHTO   H28 3799   5.137   2.334   4.407  1.5828  0.4747  1.4077
    9CHTO   O10 3800   5.161   2.447   4.585 -0.2201 -0.5268  0.1219
    9CHTO    H4 3801   5.116   2.385   4.641  0.9977  0.7820  2.6381
    9CHTO    O5 3802   5.204   2.524   4.371 -0.9124  0.4423  0.1896
    9CHTO   C10 3803   5.182   2.526   4.227  0.6108 -0.3382  0.1332
    9CHTO   H23 3804   5.169   2.424   4.191  0.1840  0.0739 -0.9048
    9CHTO   C17 3805   5.302   2.589   4.158  0.7627 -0.0307 -0.1025
    9CHTO   O12 3806   5.359   2.710   4.212  0.2035 -0.2778 -0.2734
    9CHTO    H6 3807   5.372   2.710   4.305  0.4647 -0.3101 -0.3090
   10CHTO  H203 3808   5.902   6.084   3.213  1.1943 -1.7857  0.3828
   10CHTO   O82 3809   5.856   6.083   3.295 -0.0868  0.4396 -0.2432
   10CHTO  C123 3810   5.722   6.032   3.287  0.0088  0.3336 -0.2389
   10CHTO  H227 3811   5.711   5.980   3.191 -1.2723  0.2068 -0.0339
   10CHTO   O77 3812   5.703   5.935   3.403 -0.4393  0.5500  0.4772
   10CHTO  C118 3813   5.577   5.864   3.396  0.0220 -0.3908 -0.1237
   10CHTO  H222 3814   5.558   5.827   3.294  1.1036  1.3450 -0.9754
   10CHTO  C125 3815   5.570   5.742   3.503  0.0034  0.4233  0.2841
   10CHTO   O84 3816   5.557   5.781   3.634 -0.3286  0.1961  0.0930
   10CHTO  H205 3817   5.622   5.844   3.658 -1.9854  1.7201  0.7256
   10CHTO  C114 3818   5.471   5.970   3.420 -0.2486 -0.3422 -0.5706
   10CHTO  H218 3819   5.484   6.018   3.517 -0.8177  1.7598 -1.5100
   10CHTO  C116 3820   5.473   6.079   3.307 -0.5303  0.4606 -0.0876
   10CHTO  H220 3821   5.455   6.021   3.214  1.8041 -1.6725  0.7133
   10CHTO   O79 3822   5.366   6.166   3.322  0.1545  0.1081  0.9423
   10CHTO  H201 3823   5.385   6.227   3.390  0.3817  1.0491  0.0381
   10CHTO  C120 3824   5.620   6.150   3.303 -0.3879  0.2698  0.4719
   10CHTO  H224 3825   5.642   6.198   3.401  0.9110  0.9766 -0.1610
   10CHTO   N21 3826   5.622   6.247   3.191 -0.2031 -0.7151  0.5830
   10CHTO  H211 3827   5.522   6.275   3.160 -0.0861  0.1695  0.9924
   10CHTO  H212 3828   5.679   6.207   3.108  0.7931 -1.2152  1.5046
   10CHTO   O75 3829   5.342   5.908   3.430  0.4019  0.3662  0.1164
   10CHTO  C112 3830   5.245   5.972   3.560 -0.7600 -0.0054 -0.1026
   10CHTO  H216 3831   5.277   6.075   3.584  1.5451 -1.3625  2.9653
   10CHTO   O73 3832   5.259   5.884   3.676 -0.1591  0.5808 -0.5799
   10CHTO  C113 3833   5.166   5.916   3.781  0.8913  0.5038 -0.2698
   10CHTO  H217 3834   5.189   6.021   3.809 -0.6691  0.7660  0.1010
   10CHTO  C124 3835   5.185   5.832   3.908 -0.2881  0.2928  0.1641
   10CHTO   O83 3836   5.319   5.851   3.967  0.1577 -0.2361  0.3060
   10CHTO  H204 3837   5.320   5.922   4.027  0.9934 -0.4281  0.5275
   10CHTO  C109 3838   5.019   5.908   3.741 -0.5600 -0.0229 -1.1673
   10CHTO  H213 3839   5.004   5.804   3.708  0.6867 -1.4152  2.3520
   10CHTO  C110 3840   4.998   6.000   3.622  0.1342  0.8890  0.1715
   10CHTO  H214 3841   5.005   6.102   3.662 -0.7256  1.6645 -1.5693
   10CHTO   O78 3842   4.862   5.981   3.578  0.4840  0.2510 -0.3731
   10CHTO  H200 3843   4.855   5.893   3.547  0.7748  0.2534 -0.4408
   10CHTO  C111 3844   5.096   5.978   3.506 -0.8111  0.0468 -0.0844
   10CHTO  H215 3845   5.079   5.880   3.458 -2.3774  1.1987 -1.9421
   10CHTO   N19 3846   5.079   6.081   3.399  0.3453  0.4139 -0.3394
   10CHTO  H207 3847   5.081   6.176   3.451 -2.4943 -0.7844  2.0742
   10CHTO  H208 3848   4.980   6.079   3.356 -1.1904 -1.6602  3.0778
   10CHTO   O74 3849   4.933   5.941   3.852 -0.0095 -0.2512  0.3466
   10CHTO  C115 3850   4.813   5.834   3.884 -0.3794  0.7168  0.1219
   10CHTO  H219 3851   4.761   5.800   3.795 -1.9221  1.6800  0.6221
   10CHTO   O76 3852   4.872   5.689   3.952 -0.1799 -0.4771 -0.1425
   10CHTO  C122 3853   4.881   5.693   4.097  0.7195 -0.6140  0.4495
   10CHTO  H226 3854   4.931   5.785   4.126  0.3005 -0.4499  0.6656
   10CHTO  C126 3855   4.959   5.579   4.157 -0.2394 -0.2608 -0.2786
   10CHTO   O85 3856   5.096   5.582   4.109  0.2702 -0.7635  0.9279
   10CHTO  H206 3857   5.119   5.492   4.098 -1.4288 -0.8940 -2.0432
   10CHTO  C121 3858   4.737   5.711   4.158 -0.2027  0.4278  0.0676
   10CHTO  H225 3859   4.703   5.607   4.172  1.0217 -0.1700 -1.2180
   10CHTO   O81 3860   4.752   5.781   4.286  0.6760 -0.4756  0.2594
   10CHTO  H202 3861   4.812   5.853   4.289  2.0025 -1.3839 -2.6432
   10CHTO  C119 3862   4.638   5.785   4.065  0.1217  0.1375  0.0077
   10CHTO  H223 3863   4.600   5.717   3.989  3.0270 -0.7892 -0.7043
   10CHTO  C117 3864   4.708   5.894   3.987  0.1039 -0.4071  0.3379
   10CHTO  H221 3865   4.756   5.969   4.049 -0.2693  0.1180 -0.0069
   10CHTO   N20 3866   4.610   5.978   3.911 -0.1529 -0.2644  0.0631
   10CHTO  H209 3867   4.634   5.991   3.807  0.1518 -0.1302  0.1479
   10CHTO  H210 3868   4.508   5.945   3.926 -0.2215 -1.3765 -2.5555
   10CHTO   O80 3869   4.498   5.831   4.141  0.1149  0.1527 -0.5052
   10CHTO  C103 3870   4.389   5.724   4.164  0.4212  0.0588  0.0154
   10CHTO  H190 3871   4.407   5.641   4.096  0.7150 -0.8426  1.1691
   10CHTO  C101 3872   4.376   5.659   4.309 -0.1098 -0.8217  0.0768
   10CHTO  H188 3873   4.357   5.733   4.386  2.9530  1.3035 -1.1079
   10CHTO   O68 3874   4.517   5.593   4.348 -0.3587 -0.2516  0.1630
   10CHTO  H168 3875   4.549   5.517   4.303  0.8451  0.1479  0.3325
   10CHTO   C99 3876   4.262   5.546   4.303  0.4831  0.9447  0.2419
   10CHTO  H186 3877   4.300   5.470   4.232  2.4661  2.2321 -0.1470
   10CHTO   N17 3878   4.245   5.471   4.433  0.1797 -0.0335  0.2233
   10CHTO  H174 3879   4.285   5.525   4.518  1.1697  1.1979 -1.0091
   10CHTO  H175 3880   4.140   5.449   4.449  0.2456 -0.2717  0.3337
   10CHTO   C97 3881   4.136   5.620   4.247 -0.1233  0.3937 -0.3328
   10CHTO  H184 3882   4.109   5.691   4.327  1.0738  1.9684 -1.2988
   10CHTO   O64 3883   4.153   5.681   4.121 -0.0066 -0.4637 -0.6371
   10CHTO  C104 3884   4.245   5.794   4.134 -0.3170  0.3888 -0.1722
   10CHTO  H191 3885   4.223   5.870   4.208  1.9015  0.9134 -0.0049
   10CHTO  C108 3886   4.249   5.862   4.002 -0.1982 -0.5363  0.2978
   10CHTO   O71 3887   4.287   5.997   4.011  0.2669  0.1859  0.2273
   10CHTO  H171 3888   4.371   6.003   3.970 -0.1264  1.1274 -0.4763
   10CHTO   O62 3889   4.026   5.529   4.220 -0.0351 -0.8708 -0.1031
   10CHTO   C91 3890   3.901   5.544   4.287  0.2955 -0.1962 -0.1685
   10CHTO  H178 3891   3.915   5.544   4.395  0.6166  1.7005 -0.1955
   10CHTO   C92 3892   3.830   5.407   4.262 -0.4270  0.2295 -0.2071
   10CHTO  H179 3893   3.830   5.387   4.154  0.9543  1.8987 -0.5371
   10CHTO   O66 3894   3.900   5.298   4.334  0.8848  0.2881 -0.2154
   10CHTO  H166 3895   3.944   5.240   4.274 -0.4924  0.0139 -0.9833
   10CHTO   C93 3896   3.685   5.411   4.326 -0.1680 -0.8792 -0.2139
   10CHTO  H180 3897   3.676   5.416   4.436  1.1504 -0.3694 -0.1107
   10CHTO   N16 3898   3.611   5.285   4.296 -0.4409 -0.1527  0.3691
   10CHTO  H172 3899   3.523   5.265   4.355  0.3358 -2.6371  0.7381
   10CHTO  H173 3900   3.603   5.264   4.190  1.6930 -0.9747  0.3444
   10CHTO   C94 3901   3.605   5.537   4.272  0.0191 -0.8288 -0.2275
   10CHTO  H181 3902   3.585   5.531   4.165 -2.2571  0.3707  0.1114
   10CHTO   O61 3903   3.679   5.653   4.309 -0.9560  0.0057 -0.2098
   10CHTO   C95 3904   3.808   5.665   4.257  0.3702 -0.3391 -0.2295
   10CHTO  H182 3905   3.797   5.660   4.149 -0.6006  0.1896 -0.1593
   10CHTO  C106 3906   3.877   5.804   4.293  0.3364  0.5847  0.6878
   10CHTO   O69 3907   3.842   5.905   4.196 -0.1033  0.0488  0.3054
   10CHTO  H169 3908   3.891   5.890   4.117 -1.3169  1.1078 -0.6813
   10CHTO   O63 3909   3.465   5.552   4.353 -0.2555 -0.1541 -0.1940
   10CHTO   C96 3910   3.476   5.563   4.517 -0.1069 -0.1343 -0.3976
   10CHTO  H183 3911   3.581   5.551   4.545  0.6517  2.4463 -2.0087
   10CHTO   C98 3912   3.401   5.458   4.601  0.2499 -0.3900 -0.6318
   10CHTO  H185 3913   3.296   5.466   4.571 -0.1287  2.7440  1.2533
   10CHTO   O67 3914   3.442   5.328   4.557  0.4876 -0.6944  0.8157
   10CHTO  H167 3915   3.442   5.319   4.464  0.3412 -0.8030  0.8260
   10CHTO  C102 3916   3.417   5.480   4.764  0.2847 -0.2025 -0.1154
   10CHTO  H189 3917   3.524   5.460   4.781 -0.5240 -2.1503  3.1635
   10CHTO   N18 3918   3.346   5.383   4.850  0.4385  0.2937 -0.6640
   10CHTO  H176 3919   3.252   5.424   4.886 -0.4521 -0.9925 -1.4702
   10CHTO  H177 3920   3.398   5.357   4.941 -1.3558 -1.1829 -0.0163
   10CHTO  C105 3921   3.387   5.627   4.798  0.2249 -0.1346 -0.0765
   10CHTO  H192 3922   3.296   5.635   4.858 -0.6027 -1.6016 -1.1185
   10CHTO   O65 3923   3.367   5.720   4.696  0.1303 -0.1555  0.8205
   10CHTO  C100 3924   3.426   5.704   4.568 -0.4551  0.4407  0.2496
   10CHTO  H187 3925   3.349   5.730   4.494 -3.2870 -1.6418  2.3474
   10CHTO  C107 3926   3.526   5.822   4.557 -0.0392  0.2712  0.3691
   10CHTO   O70 3927   3.646   5.790   4.634  0.7077  0.4735  0.2854
   10CHTO  H170 3928   3.698   5.731   4.584 -0.8914 -0.1158 -0.6998
   10CHTO   O57 3929   3.530   5.655   4.887 -0.3119  0.4392  0.0345
   10CHTO   C85 3930   3.555   5.717   5.012 -0.3769 -0.2024  0.1930
   10CHTO  H157 3931   3.461   5.728   5.070  0.5603  3.4681  1.0796
   10CHTO   C83 3932   3.613   5.869   4.992  1.1085 -0.1243  0.1088
   10CHTO  H155 3933   3.532   5.929   4.951  0.0487 -2.4497 -1.2771
   10CHTO   O56 3934   3.728   5.857   4.904  0.1033  0.8029  0.0772
   10CHTO  H135 3935   3.722   5.923   4.837 -1.4652  1.1277  0.5221
   10CHTO   C81 3936   3.651   5.922   5.124  0.0295 -0.4989  0.3352
   10CHTO  H153 3937   3.564   5.916   5.189 -0.2776 -2.6774 -0.2458
   10CHTO   N14 3938   3.683   6.073   5.120  0.3337  0.5618  0.5680
   10CHTO  H141 3939   3.780   6.107   5.091  1.5125 -2.6708  0.5059
   10CHTO  H142 3940   3.607   6.139   5.084  0.3798  1.1097  1.4622
   10CHTO   C79 3941   3.764   5.838   5.189  0.0145 -0.0829 -0.4243
   10CHTO  H151 3942   3.779   5.881   5.288 -0.2040 -0.8726 -0.0433
   10CHTO   O52 3943   3.714   5.696   5.210 -0.6181 -0.2025 -0.0397
   10CHTO   C86 3944   3.659   5.629   5.092 -0.3365 -0.1431 -0.2578
   10CHTO  H158 3945   3.750   5.602   5.034 -1.8511 -2.9302 -1.4458
   10CHTO   C90 3946   3.597   5.493   5.129 -0.4674  0.7065 -0.2481
   10CHTO   O60 3947   3.680   5.395   5.189  0.3274  0.2266  0.3734
   10CHTO  H138 3948   3.758   5.404   5.138 -0.2824  1.0999 -0.4007
   10CHTO   O50 3949   3.883   5.846   5.122  0.3982  0.3200  0.4395
   10CHTO   C73 3950   4.015   5.798   5.102  0.2990 -0.2077 -0.9274
   10CHTO  H145 3951   4.027   5.791   4.993 -1.2349 -0.3431 -1.1023
   10CHTO   C74 3952   4.044   5.662   5.167 -0.5942  0.8858 -0.6561
   10CHTO  H146 3953   3.969   5.590   5.131 -0.9343  0.6981  0.4150
   10CHTO   O54 3954   4.172   5.616   5.126  0.0209 -0.2682 -0.0164
   10CHTO  H133 3955   4.192   5.654   5.043 -0.0740  1.1151  0.5693
   10CHTO   C75 3956   4.032   5.676   5.322 -0.0864 -0.0093 -0.4520
   10CHTO  H147 3957   3.933   5.721   5.341 -1.1116 -0.3919 -4.5296
   10CHTO   N13 3958   4.048   5.552   5.399  0.0978  0.2345  0.8428
   10CHTO  H139 3959   4.080   5.575   5.500 -1.5114 -0.0024  1.4101
   10CHTO  H140 3960   3.953   5.503   5.408 -0.8877  2.2020  1.4273
   10CHTO   C76 3961   4.120   5.791   5.384  0.5341  1.0614 -0.3979
   10CHTO  H148 3962   4.226   5.765   5.383  0.3999  0.5159 -1.5875
   10CHTO   O49 3963   4.095   5.910   5.305 -0.8955 -0.0941  0.0229
   10CHTO   C77 3964   4.119   5.898   5.165 -0.2562  0.4673 -0.7952
   10CHTO  H149 3965   4.217   5.851   5.157 -0.9266 -0.7398 -2.0532
   10CHTO   C88 3966   4.116   6.037   5.109  0.6810  0.1541 -0.6098
   10CHTO   O58 3967   4.232   6.100   5.162  0.1851  0.1895  1.1300
   10CHTO  H136 3968   4.291   6.094   5.090  0.7483  0.0752  1.5980
   10CHTO   O51 3969   4.054   5.823   5.533 -0.7328  0.2615 -0.6554
   10CHTO   C78 3970   4.154   5.876   5.630 -0.0248  0.6400 -0.0351
   10CHTO  H150 3971   4.247   5.900   5.574  0.8230 -0.2333  0.9774
   10CHTO   C80 3972   4.204   5.776   5.729 -0.5734  0.4339  0.4917
   10CHTO  H152 3973   4.119   5.752   5.796 -0.9931  1.3477  0.2972
   10CHTO   O55 3974   4.250   5.657   5.661  0.6345 -0.2578  0.0689
   10CHTO  H134 3975   4.326   5.674   5.609  0.2244  0.4478 -0.3157
   10CHTO   C84 3976   4.314   5.843   5.818 -0.1872  1.3156 -0.0247
   10CHTO  H156 3977   4.393   5.876   5.750  0.6436  1.8271  1.1679
   10CHTO   N15 3978   4.374   5.753   5.919  0.0876  0.3365  0.0482
   10CHTO  H143 3979   4.380   5.655   5.877  0.8483  0.9915 -1.4054
   10CHTO  H144 3980   4.468   5.799   5.943  0.4050 -0.2807 -0.0178
   10CHTO   C87 3981   4.277   5.977   5.879 -0.9345  0.7477 -0.0535
   10CHTO  H159 3982   4.216   5.955   5.966  0.1768 -3.8446 -0.2809
   10CHTO   O53 3983   4.206   6.065   5.775  0.1621 -0.4218 -0.2440
   10CHTO   C82 3984   4.099   6.003   5.704  0.4662 -0.2110  0.4312
   10CHTO  H154 3985   4.018   5.970   5.769  0.4728 -0.6724  0.2129
   10CHTO   C89 3986   4.036   6.115   5.611  0.0928 -0.5271  0.8153
   10CHTO   O59 3987   4.141   6.154   5.518 -0.2969 -0.2974 -0.0458
   10CHTO  H137 3988   4.110   6.223   5.463  0.2957  0.0778  0.0899
   10CHTO   O45 3989   4.418   6.054   5.938  0.1329  0.1297 -0.0375
   10CHTO   C67 3990   4.394   6.193   5.975  0.3023 -1.1984  0.1073
   10CHTO  H124 3991   4.287   6.213   5.976  0.6052  0.5815 -0.8986
   10CHTO   C65 3992   4.456   6.222   6.113 -0.4722  0.6631  0.0464
   10CHTO  H122 3993   4.421   6.138   6.173  0.5207  1.4578  1.7962
   10CHTO   O44 3994   4.400   6.348   6.165 -0.0835  0.0345  0.1223
   10CHTO  H102 3995   4.432   6.418   6.111 -1.7210 -0.2384 -1.2499
   10CHTO   C63 3996   4.611   6.197   6.104  0.2873  0.5436  0.5135
   10CHTO  H120 3997   4.628   6.093   6.078 -1.7396 -0.6950  3.8651
   10CHTO   N11 3998   4.688   6.201   6.239  0.4041  0.3912  0.3131
   10CHTO  H108 3999   4.777   6.258   6.224  1.1890 -0.9386 -0.2232
   10CHTO  H109 4000   4.712   6.108   6.286 -0.0085 -0.1358 -0.5152
   10CHTO   C61 4001   4.666   6.293   5.994  0.2526 -0.6085 -0.5130
   10CHTO  H118 4002   4.770   6.258   5.978  0.5303  0.3552 -0.8314
   10CHTO   O40 4003   4.601   6.292   5.867  0.5614 -0.0670  0.1405
   10CHTO   C68 4004   4.447   6.286   5.858  0.6556 -0.0329  0.3194
   10CHTO  H125 4005   4.421   6.247   5.757  0.6678  1.7748 -0.4012
   10CHTO   C72 4006   4.389   6.429   5.861  0.4413 -0.5306  0.0838
   10CHTO   O48 4007   4.249   6.438   5.863 -0.2985 -0.9314  0.7771
   10CHTO  H105 4008   4.212   6.506   5.811 -1.8876 -2.5023 -0.2243
   10CHTO   O38 4009   4.667   6.431   6.027  0.4973 -0.0208 -0.2224
   10CHTO   C55 4010   4.784   6.510   5.992  0.0152 -0.0644  0.5672
   10CHTO  H112 4011   4.818   6.483   5.891 -1.3932 -1.7120  0.5078
   10CHTO   C56 4012   4.897   6.502   6.106 -0.4502  0.3984  0.3848
   10CHTO  H113 4013   4.846   6.525   6.200  0.5485 -1.3609  1.3928
   10CHTO   O42 4014   4.950   6.365   6.123 -0.7413  0.3363 -0.1018
   10CHTO  H100 4015   5.026   6.347   6.071 -0.7903  2.1911 -0.8893
   10CHTO   C57 4016   5.016   6.603   6.077  0.0817  0.5285  0.6433
   10CHTO  H114 4017   5.072   6.575   5.988  0.8361  1.7751  0.7156
   10CHTO   N10 4018   5.117   6.605   6.183 -0.7444  0.0943 -0.3093
   10CHTO  H106 4019   5.132   6.503   6.217  0.1122  0.5251  0.6187
   10CHTO  H107 4020   5.212   6.642   6.148 -0.1909  0.9118  1.9682
   10CHTO   C58 4021   4.968   6.746   6.050 -0.1776  0.2106  0.0105
   10CHTO  H115 4022   4.940   6.798   6.143 -1.1380 -2.2861  1.1738
   10CHTO   O37 4023   4.854   6.743   5.961  0.0631 -0.0606 -0.5380
   10CHTO   C59 4024   4.744   6.655   5.992  0.1763 -0.3271  0.1279
   10CHTO  H116 4025   4.684   6.684   6.078 -1.2818 -1.2948 -0.5435
   10CHTO   C70 4026   4.653   6.675   5.866 -0.1116  0.3883  0.4027
   10CHTO   O46 4027   4.595   6.803   5.852 -0.0025  0.7884 -0.6247
   10CHTO  H103 4028   4.545   6.807   5.772  1.6420  1.6053 -1.6490
   10CHTO   O39 4029   5.084   6.838   5.972 -0.4749  0.4934  0.5621
   10CHTO   C60 4030   5.091   6.972   6.016 -0.2116  0.5656 -0.1622
   10CHTO  H117 4031   4.994   6.994   6.060  0.8055 -0.0011  2.4738
   10CHTO   C62 4032   5.214   6.980   6.111 -0.3406  0.4823 -0.7571
   10CHTO  H119 4033   5.191   6.922   6.202  0.1614  0.6590 -0.5147
   10CHTO   O43 4034   5.328   6.917   6.047  0.1686 -0.8313  0.4598
   10CHTO  H101 4035   5.318   6.824   6.046 -1.3124 -0.7281  2.2746
   10CHTO   C66 4036   5.225   7.132   6.152  0.2356 -0.6999 -0.5134
   10CHTO  H123 4037   5.138   7.157   6.213  1.0174  0.5888  0.0932
   10CHTO   N12 4038   5.330   7.142   6.255 -0.2259 -0.0903 -0.2070
   10CHTO  H110 4039   5.380   7.237   6.246  0.9505 -0.7360 -0.6860
   10CHTO  H111 4040   5.287   7.130   6.354  0.8951  2.4715  0.6132
   10CHTO   C69 4041   5.242   7.228   6.032  0.0554 -0.1016  0.6906
   10CHTO  H126 4042   5.334   7.218   5.971 -0.7578 -1.1292 -0.4136
   10CHTO   O41 4043   5.118   7.191   5.932 -0.1217 -0.1710  0.3565
   10CHTO   C64 4044   5.103   7.070   5.888 -0.1154  0.0140 -0.0109
   10CHTO  H121 4045   5.193   7.042   5.829 -0.3034  0.3086 -0.4422
   10CHTO   C71 4046   4.978   7.054   5.794  0.6481  0.0846 -0.4501
   10CHTO   O47 4047   4.997   7.153   5.689  0.1830  0.3021  0.0900
   10CHTO  H104 4048   4.976   7.111   5.608  0.9317 -0.6275  0.3617
   10CHTO   O34 4049   5.222   7.372   6.070 -0.4968  0.2659  0.0784
   10CHTO   C49 4050   5.253   7.490   6.042 -0.1603 -0.1312  0.1419
   10CHTO   H91 4051   5.264   7.545   6.135  0.1613  1.1406 -0.6349
   10CHTO   C47 4052   5.137   7.558   5.963  0.2714 -0.9647  0.4574
   10CHTO   H89 4053   5.160   7.667   5.962 -0.4404 -0.8031  1.2085
   10CHTO   O33 4054   5.012   7.537   6.028  0.3312 -0.7294 -0.4863
   10CHTO   H70 4055   4.995   7.608   6.087  0.8745 -1.2813  0.3602
   10CHTO   C45 4056   5.136   7.506   5.809 -0.3244 -0.1111  0.2336
   10CHTO   H87 4057   5.132   7.396   5.820  0.7079 -0.1967 -0.2088
   10CHTO    N8 4058   5.022   7.551   5.729 -0.0556  0.2985 -0.3637
   10CHTO   H75 4059   4.941   7.490   5.768  1.0112 -1.0356 -0.2145
   10CHTO   H76 4060   4.994   7.652   5.754 -1.2925  0.8731 -3.7845
   10CHTO   C43 4061   5.279   7.526   5.740  0.1730 -0.8461 -0.1335
   10CHTO   H85 4062   5.279   7.483   5.639 -0.7704  3.6916 -2.1992
   10CHTO   O29 4063   5.382   7.475   5.822 -0.0130  0.7440  0.7059
   10CHTO   C50 4064   5.392   7.499   5.963  0.3087 -0.4090 -0.0930
   10CHTO   H92 4065   5.459   7.423   6.004 -0.7261 -1.4889 -0.3841
   10CHTO   C54 4066   5.460   7.637   5.990 -0.0865 -0.0544  0.6406
   10CHTO   O36 4067   5.602   7.640   6.020 -0.4217  0.3977 -0.0704
   10CHTO   H72 4068   5.617   7.610   6.108  1.3341  1.3198 -0.0327
   10CHTO   O27 4069   5.303   7.665   5.709 -0.1394 -0.6158  0.1086
   10CHTO   C37 4070   5.333   7.781   5.634 -0.3692 -0.0707  1.0287
   10CHTO   H79 4071   5.436   7.813   5.659  0.5884 -0.3871 -2.3228
   10CHTO   C38 4072   5.315   7.766   5.477  0.1019  1.1549 -0.8697
   10CHTO   H80 4073   5.218   7.718   5.459  1.1464 -0.7941 -1.4802
   10CHTO   O31 4074   5.421   7.681   5.434 -0.5808  0.6403  0.2885
   10CHTO   H68 4075   5.390   7.615   5.375  0.4494  1.9407 -1.7434
   10CHTO   C39 4076   5.330   7.900   5.395  0.2450 -0.0043 -0.0686
   10CHTO   H81 4077   5.433   7.933   5.403 -0.5901  2.3357  1.4487
   10CHTO    N7 4078   5.303   7.886   5.248  0.2016 -0.3704 -0.3894
   10CHTO   H73 4079   5.197   7.869   5.237 -0.2424  0.6645  1.9243
   10CHTO   H74 4080   5.370   7.810   5.210  0.5269 -0.5455  0.5296
   10CHTO   C40 4081   5.241   8.009   5.466  0.3160 -0.4911 -0.3081
   10CHTO   H82 4082   5.139   7.991   5.434 -0.1518  0.2345  0.7421
   10CHTO   O26 4083   5.252   8.017   5.611 -0.4270 -0.0704 -0.4288
   10CHTO   C41 4084   5.235   7.887   5.674 -0.1813 -0.5587  0.3506
   10CHTO   H83 4085   5.136   7.852   5.642 -0.6219 -1.3030  2.4596
   10CHTO   C52 4086   5.229   7.922   5.828 -0.2184 -1.1187  0.0030
   10CHTO   O35 4087   5.339   7.953   5.885  0.3962 -0.3312 -0.1352
   10CHTO   H71 4088   5.389   7.878   5.909 -0.5725 -1.0755 -0.3976
   10CHTO   O28 4089   5.288   8.134   5.406 -0.1733  0.0371 -0.3467
   10CHTO   C42 4090   5.228   8.264   5.446  0.6494 -0.5530  0.7082
   10CHTO   H84 4091   5.151   8.243   5.521 -0.8785 -1.2887 -1.0208
   10CHTO   C44 4092   5.151   8.325   5.327 -0.1629 -0.1442  1.0099
   10CHTO   H86 4093   5.216   8.334   5.241 -1.7513  1.1741 -0.0825
   10CHTO   O32 4094   5.053   8.222   5.292 -0.0589  0.0490 -0.0431
   10CHTO   H69 4095   5.094   8.142   5.266  0.2293  0.1771  0.0216
   10CHTO   C48 4096   5.097   8.466   5.364  0.0073 -0.3189 -0.1796
   10CHTO   H90 4097   5.028   8.453   5.447  0.5592 -2.6461 -0.0402
   10CHTO    N9 4098   5.017   8.533   5.256  0.2091 -0.1164  0.4444
   10CHTO   H77 4099   4.994   8.459   5.181 -0.9302 -0.5634  1.2195
   10CHTO   H78 4100   4.929   8.582   5.297 -0.5529 -1.8125  0.8751
   10CHTO   C51 4101   5.192   8.572   5.436  0.2657  0.1842  0.2627
   10CHTO   H93 4102   5.258   8.621   5.364  0.3323  0.9057  0.8093
   10CHTO   O30 4103   5.271   8.504   5.539  0.2213 -0.1586  0.5174
   10CHTO   C46 4104   5.328   8.370   5.507  0.3338 -0.3628  1.0267
   10CHTO   H88 4105   5.401   8.386   5.427  0.2424 -0.9783  0.8145
   10CHTO   C53 4106   5.395   8.328   5.637 -0.0550 -0.1480  0.7403
   10CHTO   O72 4107   5.458   8.196   5.638 -0.2387  0.2677 -0.0282
   10CHTO  H199 4108   5.515   8.187   5.564 -1.9639  1.1508 -1.5144
   10CHTO   O22 4109   5.124   8.675   5.512 -0.1612 -0.2503  0.0178
   10CHTO   C31 4110   5.187   8.808   5.513  0.2605  0.1057  0.2131
   10CHTO   H59 4111   5.119   8.871   5.575  1.4709  1.7522 -0.1034
   10CHTO   C29 4112   5.327   8.810   5.578  0.2449 -0.0869  0.0481
   10CHTO   H57 4113   5.393   8.743   5.521  0.4675  0.0061  0.1920
   10CHTO   O21 4114   5.313   8.758   5.712  0.3583 -0.1112 -0.5300
   10CHTO   H37 4115   5.319   8.665   5.700  2.0389 -0.1424  0.3611
   10CHTO   C27 4116   5.391   8.953   5.583 -0.1213 -0.0039 -0.4764
   10CHTO   H55 4117   5.336   9.008   5.661  0.2066  0.1274 -0.3359
   10CHTO    N5 4118   5.535   8.948   5.623 -0.0943 -0.4122 -0.6179
   10CHTO   H43 4119   5.530   8.916   5.726  2.4300  1.6622  0.2075
   10CHTO   H44 4120   5.586   8.870   5.568  0.5131 -0.3022 -0.2188
   10CHTO   C25 4121   5.372   9.019   5.448  0.2064 -0.1333  0.4114
   10CHTO   H53 4122   5.436   8.977   5.370 -1.9073 -0.9072 -0.9519
   10CHTO   O17 4123   5.234   9.008   5.402  0.0313 -0.2335 -0.5401
   10CHTO   C32 4124   5.192   8.879   5.376  0.2425 -0.7384  0.0486
   10CHTO   H60 4125   5.272   8.834   5.316 -0.6433 -1.0551 -0.9127
   10CHTO   C36 4126   5.060   8.897   5.304 -0.2653 -0.0902  0.4000
   10CHTO   O25 4127   5.091   8.969   5.189 -0.1532  0.5434 -0.3768
   10CHTO   H40 4128   5.133   8.914   5.125 -2.4985 -4.2391  2.0423
   10CHTO   O15 4129   5.413   9.174   5.456 -0.1620  0.2432  0.1074
   10CHTO   C19 4130   5.410   9.288   5.360 -0.3932 -0.3489  0.1352
   10CHTO   H47 4131   5.419   9.237   5.263  1.3248  0.0578  0.0602
   10CHTO   C20 4132   5.279   9.360   5.363  0.8281 -0.5892  0.5266
   10CHTO   H48 4133   5.253   9.392   5.465 -0.3075  2.1024 -0.5802
   10CHTO   O19 4134   5.175   9.266   5.322 -0.3768 -0.1576  0.3448
   10CHTO   H35 4135   5.108   9.315   5.278  1.2090  0.1954 -1.7497
   10CHTO   C21 4136   5.287   9.487   5.265 -0.0912 -0.4808  0.3857
   10CHTO   H49 4137   5.300   9.447   5.164 -0.6625 -0.6174  0.3641
   10CHTO    N4 4138   5.158   9.568   5.267 -0.8117 -0.2806 -0.1976
   10CHTO   H41 4139   5.172   9.661   5.320 -0.9825  0.9229 -2.1781
   10CHTO   H42 4140   5.147   9.600   5.164 -1.5465  2.2513  0.6346
   10CHTO   C22 4141   5.415   9.575   5.273  0.6524  0.0333  0.1775
   10CHTO   H50 4142   5.405   9.651   5.350 -0.7056  0.1743 -0.1126
   10CHTO   O14 4143   5.530   9.495   5.294 -0.4747 -0.0012  0.3418
   10CHTO   C23 4144   5.534   9.378   5.374  0.1170  0.4783  0.4551
   10CHTO   H51 4145   5.539   9.421   5.475  0.1362 -2.1003  1.5885
   10CHTO   C34 4146   5.670   9.311   5.344 -0.0802  0.2028 -0.4684
   10CHTO   O23 4147   5.696   9.216   5.450  0.3194  0.0307  0.6104
   10CHTO   H38 4148   5.735   9.260   5.523 -3.8909  1.0539  2.3265
   10CHTO   O16 4149   5.443   9.642   5.153  0.2748 -0.5799 -0.5965
   10CHTO   C24 4150   5.594   9.729   5.151  0.0201  0.3774 -0.3774
   10CHTO   H52 4151   5.657   9.702   5.236  2.0365 -0.1158 -1.9601
   10CHTO   C26 4152   5.577   9.882   5.147  0.0508 -0.0481  0.0707
   10CHTO   H54 4153   5.516   9.909   5.057  2.4428  1.1383 -1.2307
   10CHTO   O20 4154   5.505   9.929   5.266  0.0894  0.6611  0.1293
   10CHTO   H36 4155   5.555   9.921   5.345 -0.3747  0.7662  0.4357
   10CHTO   C30 4156   5.716   9.948   5.121  0.5642 -0.4965 -0.3355
   10CHTO   H58 4157   5.774   9.925   5.212  0.8930 -1.5870 -0.8132
   10CHTO    N6 4158   5.704  10.098   5.111 -0.1241 -0.4580  0.0799
   10CHTO   H45 4159   5.646  10.146   5.188  0.0685 -1.0880  0.6236
   10CHTO   H46 4160   5.799  10.149   5.101 -0.7261  0.8202  0.7251
   10CHTO   C33 4161   5.790   9.896   4.998 -0.0744  0.4316 -0.5513
   10CHTO   H61 4162   5.726   9.918   4.910 -0.0307 -0.4357 -0.8095
   10CHTO   O18 4163   5.800   9.751   5.012 -0.5278  0.1541  0.1584
   10CHTO   C28 4164   5.673   9.688   5.018 -0.4531 -0.3971 -0.5052
   10CHTO   H56 4165   5.614   9.705   4.928  1.9135  0.1004 -2.0178
   10CHTO   C35 4166   5.692   9.540   5.019  0.7158  0.6906 -0.4334
   10CHTO   O24 4167   5.580   9.461   4.977 -0.3218  0.1928  0.1210
   10CHTO   H39 4168   5.603   9.371   4.988 -1.9951 -0.2081  0.5009
   10CHTO    O9 4169   5.922   9.953   4.964  0.3061  0.2136  0.2508
   10CHTO   C13 4170   6.001   9.885   4.848  0.3302  0.5624 -0.1732
   10CHTO   H26 4171   5.931   9.811   4.804 -0.4376  0.4544  1.2113
   10CHTO   C11 4172   6.132   9.817   4.922 -0.1275  0.4746  0.0417
   10CHTO   H24 4173   6.099   9.729   4.979  0.0090  0.3960 -0.0027
   10CHTO    O8 4174   6.194   9.902   5.023 -0.2932 -0.8371  0.6515
   10CHTO    H3 4175   6.135   9.924   5.093 -0.1571 -1.8622  1.1014
   10CHTO    C9 4176   6.233   9.768   4.810  0.1566  0.1374 -0.3740
   10CHTO   H22 4177   6.168   9.709   4.743  0.9894 -1.3857  0.1245
   10CHTO    N2 4178   6.333   9.671   4.861 -0.9869  0.7572 -0.1488
   10CHTO   H10 4179   6.279   9.624   4.941 -0.2662 -0.0509 -0.1170
   10CHTO   H11 4180   6.426   9.716   4.893 -0.6027  0.0431 -0.2441
   10CHTO    C7 4181   6.287   9.884   4.724  0.8011  0.0856 -0.0040
   10CHTO   H20 4182   6.287   9.831   4.627 -0.8654  1.6228 -0.8874
   10CHTO    O4 4183   6.194   9.999   4.719 -0.3148  0.4649  0.1661
   10CHTO   C14 4184   6.051   9.983   4.736  0.6952 -0.2149  0.3624
   10CHTO   H27 4185   6.018   9.940   4.639  3.8252 -0.1572 -0.7755
   10CHTO   C18 4186   5.991  10.123   4.752 -0.3384 -0.4244 -0.2565
   10CHTO   O13 4187   6.029  10.213   4.646 -0.6402 -0.1233  0.2495
   10CHTO    H7 4188   6.045  10.302   4.672  2.1324  0.3202 -2.7419
   10CHTO    O2 4189   6.466   9.950   4.771 -0.3821 -0.0716 -0.1865
   10CHTO    C1 4190   6.535   9.995   4.656 -0.1467 -0.6380  0.6947
   10CHTO   H14 4191   6.640  10.021   4.682  0.1895  0.4412 -1.6433
   10CHTO    C2 4192   6.475  10.119   4.590  0.2092  0.4464 -0.2565
   10CHTO   H15 4193   6.368  10.095   4.576 -0.1332  1.3690  0.7233
   10CHTO    O6 4194   6.496  10.234   4.676  0.1347  0.3137 -0.7053
   10CHTO    H1 4195   6.473  10.217   4.766  0.1791  0.1620 -0.7220
   10CHTO    C3 4196   6.540  10.153   4.447 -0.0909  0.6160  0.9080
   10CHTO   H16 4197   6.633  10.212   4.445 -0.4932  1.2629 -3.8014
   10CHTO    N1 4198   6.450  10.241   4.366 -0.1947  0.1207  0.6131
   10CHTO    H8 4199   6.466  10.343   4.396  0.7551  0.1087  0.1688
   10CHTO    H9 4200   6.347  10.218   4.387 -1.1412  2.3858 -1.3232
   10CHTO    C4 4201   6.574  10.023   4.360  0.4895  0.0564  0.6835
   10CHTO   H17 4202   6.482   9.980   4.322  0.1030  2.7091 -1.5864
   10CHTO    O1 4203   6.640   9.933   4.450 -0.0945 -0.0380 -0.1057
   10CHTO    C5 4204   6.556   9.882   4.557  0.5226  0.3121 -0.3773
   10CHTO   H18 4205   6.460   9.852   4.516  0.2941  1.7692 -0.9299
   10CHTO   C16 4206   6.620   9.758   4.622  0.3805 -0.3297 -0.6428
   10CHTO   O11 4207   6.603   9.650   4.535 -0.0891  0.3069  0.7562
   10CHTO    H5 4208   6.590   9.671   4.444 -2.4662  1.6506  1.3934
   10CHTO    O3 4209   6.663  10.041   4.241  0.2366  0.5586 -0.4757
   10CHTO    C6 4210   6.623   9.983   4.107 -0.2169  0.2555  0.1728
   10CHTO   H19 4211   6.516   9.961   4.103 -0.3375  0.6726  1.0523
   10CHTO    C8 4212   6.654  10.086   3.996  0.5531 -0.0522 -0.0587
   10CHTO   H21 4213   6.756  10.121   4.013  1.1918 -1.3615 -1.1067
   10CHTO    O7 4214   6.561  10.197   4.024 -0.0642  0.0302 -0.4236
   10CHTO    H2 4215   6.602  10.264   4.076 -0.4067 -1.1472  1.4066
   10CHTO   C12 4216   6.625  10.030   3.849 -0.9508  0.4346  0.0784
   10CHTO   H25 4217   6.514  10.026   3.843 -0.8821 -0.7913 -0.4621
   10CHTO    N3 4218   6.678  10.127   3.745  0.2705  0.0412  0.3237
   10CHTO   H12 4219   6.658  10.090   3.645 -2.3068  1.9782  0.0743
   10CHTO   H13 4220   6.779  10.153   3.772  0.8744 -1.4319 -0.4723
   10CHTO   C15 4221   6.685   9.880   3.830  0.5028 -0.1127  0.0401
   10CHTO   H28 4222   6.793   9.892   3.831  0.2974  1.8395  0.3518
   10CHTO   O10 4223   6.634   9.817   3.702  0.2426  0.6314  0.1142
   10CHTO    H4 4224   6.645   9.872   3.627  0.1283 -2.4692 -2.2898
   10CHTO    O5 4225   6.652   9.798   3.944 -0.3409 -0.4607 -0.1414
   10CHTO   C10 4226   6.693   9.850   4.071  0.5494  0.5421 -0.0429
   10CHTO   H23 4227   6.801   9.862   4.073  0.4667  1.0674  1.3090
   10CHTO   C17 4228   6.655   9.749   4.178 -0.0656 -0.4449  0.3231
   10CHTO   O12 4229   6.521   9.704   4.163 -0.1870  0.0998  0.5835
   10CHTO    H6 4230   6.487   9.660   4.238  0.5618 -1.1894  0.1853
   11CHTO  H203 4231   6.532   3.877   0.125 -1.3216 -0.5432 -0.6397
   11CHTO   O82 4232   6.517   3.863   0.216  0.2003  0.3504 -0.2296
   11CHTO  C123 4233   6.527   3.973   0.304 -0.1536  0.5954 -0.5909
   11CHTO  H227 4234   6.627   4.017   0.291 -0.7066  1.7134 -1.1571
   11CHTO   O77 4235   6.424   4.060   0.251 -0.3785  0.2560 -0.0558
   11CHTO  C118 4236   6.439   4.192   0.303 -0.5675 -0.2304  0.0015
   11CHTO  H222 4237   6.545   4.219   0.296 -0.8837  0.7362 -1.2193
   11CHTO  C125 4238   6.364   4.284   0.217  0.1594  0.1603 -0.8776
   11CHTO   O84 4239   6.427   4.307   0.089 -0.0629  0.1575 -0.2131
   11CHTO  H205 4240   6.519   4.321   0.105 -0.6008  1.0871  2.2902
   11CHTO  C114 4241   6.396   4.196   0.451  0.0043 -1.1097 -0.2466
   11CHTO  H218 4242   6.288   4.181   0.463 -0.5094  1.0235 -1.7458
   11CHTO  C116 4243   6.489   4.091   0.526 -0.5079  0.3674 -0.1231
   11CHTO  H220 4244   6.593   4.130   0.518 -0.5633  1.0203  2.0522
   11CHTO   O79 4245   6.460   4.068   0.669  0.3981  0.9946 -0.6341
   11CHTO  H201 4246   6.373   4.096   0.691  0.9023  0.4811  2.0703
   11CHTO  C120 4247   6.485   3.951   0.454  0.4251 -0.0413 -0.0316
   11CHTO  H224 4248   6.383   3.910   0.467  0.7574 -1.3447 -1.3064
   11CHTO   N21 4249   6.582   3.857   0.514  0.0029 -0.1162  0.3266
   11CHTO  H211 4250   6.681   3.890   0.541  0.2323 -2.1260  2.0606
   11CHTO  H212 4251   6.573   3.751   0.499  1.1591  0.2192 -3.1691
   11CHTO   O75 4252   6.426   4.328   0.485  0.1992  0.2425 -0.0052
   11CHTO  C112 4253   6.382   4.372   0.639  0.2924 -1.1848 -0.0148
   11CHTO  H216 4254   6.463   4.339   0.706 -0.1702 -2.8906 -0.2859
   11CHTO   O73 4255   6.257   4.304   0.670 -0.0993 -0.4573 -0.5079
   11CHTO  C113 4256   6.219   4.329   0.805  0.0412 -0.4290  0.0469
   11CHTO  H217 4257   6.304   4.324   0.876 -0.4102 -0.1661  0.6119
   11CHTO  C124 4258   6.108   4.235   0.852 -0.1253  0.0801  0.1605
   11CHTO   O83 4259   6.165   4.112   0.878  0.5426 -0.7500 -0.3435
   11CHTO  H204 4260   6.101   4.044   0.872 -0.1153 -0.2047  0.4673
   11CHTO  C109 4261   6.167   4.481   0.818  0.4428  0.4230  0.4579
   11CHTO  H213 4262   6.082   4.491   0.749 -0.2264 -0.1064  1.1991
   11CHTO  C110 4263   6.283   4.574   0.776 -0.0193 -0.5364  0.2002
   11CHTO  H214 4264   6.348   4.579   0.863 -1.2478 -0.3199  1.1122
   11CHTO   O78 4265   6.232   4.710   0.755  0.0555 -0.1042 -0.2008
   11CHTO  H200 4266   6.198   4.741   0.837 -0.4287 -0.4680 -0.2607
   11CHTO  C111 4267   6.355   4.530   0.646 -0.7622 -0.7106  0.0491
   11CHTO  H215 4268   6.295   4.556   0.557 -1.9129  0.1307  1.0479
   11CHTO   N19 4269   6.488   4.594   0.627 -0.0162 -0.3708 -0.0786
   11CHTO  H207 4270   6.470   4.699   0.613 -1.3906 -0.3095  1.8787
   11CHTO  H208 4271   6.541   4.586   0.721 -1.1226 -1.0232  0.5069
   11CHTO   O74 4272   6.118   4.524   0.952 -0.0793  0.2556  0.1909
   11CHTO  C115 4273   5.959   4.564   0.946 -0.5720 -0.0923 -0.0852
   11CHTO  H219 4274   5.926   4.595   0.847 -0.5775  1.1473  0.2891
   11CHTO   O76 4275   5.875   4.451   0.982 -0.7395  0.3887  0.0494
   11CHTO  C122 4276   5.732   4.472   0.995  0.4318 -0.0482  0.3854
   11CHTO  H226 4277   5.684   4.382   1.034 -1.3449  0.8085  0.2086
   11CHTO  C126 4278   5.668   4.496   0.857  0.5100 -0.1654  0.4181
   11CHTO   O85 4279   5.695   4.394   0.764  0.1270  0.0254 -0.0333
   11CHTO  H206 4280   5.782   4.359   0.769 -0.0971 -0.4876  0.3282
   11CHTO  C121 4281   5.714   4.594   1.096  0.0730  0.8186  0.3801
   11CHTO  H225 4282   5.607   4.623   1.107 -0.1315  0.0170  0.5330
   11CHTO   O81 4283   5.757   4.555   1.226 -0.0210  0.3900  0.2563
   11CHTO  H202 4284   5.739   4.629   1.280 -0.4746  1.4516 -1.3173
   11CHTO  C119 4285   5.794   4.721   1.054 -0.3067  0.1220  0.6266
   11CHTO  H223 4286   5.765   4.741   0.951  2.1301 -0.1132 -0.1536
   11CHTO  C117 4287   5.948   4.684   1.047  0.0504 -0.3223  0.6690
   11CHTO  H221 4288   6.000   4.645   1.134 -0.9327 -0.1338  1.3521
   11CHTO   N20 4289   6.025   4.807   0.994  0.4285  0.5868  0.1279
   11CHTO  H209 4290   5.975   4.844   0.906 -0.0167  0.8706  0.5023
   11CHTO  H210 4291   6.124   4.772   0.969 -0.8142 -1.8745 -1.5440
   11CHTO   O80 4292   5.754   4.861   1.134 -0.3017 -0.9503 -0.6358
   11CHTO  C103 4293   5.780   4.870   1.291 -0.2608 -0.1170  0.1616
   11CHTO  H190 4294   5.745   4.777   1.335  1.2236 -1.4492 -1.3832
   11CHTO  C101 4295   5.927   4.916   1.341 -0.2212  0.5232  0.7081
   11CHTO  H188 4296   5.969   4.964   1.253  1.3305 -0.4573  0.9053
   11CHTO   O68 4297   6.013   4.782   1.362  0.5702  0.0884 -0.7693
   11CHTO  H168 4298   5.985   4.742   1.442  0.3359  2.3396  0.3180
   11CHTO   C99 4299   5.941   5.009   1.469  0.1596  0.3589  0.0965
   11CHTO  H186 4300   5.917   4.944   1.555  0.8282  1.2779  0.9915
   11CHTO   N17 4301   6.078   5.071   1.494  0.1390 -0.3347  0.0384
   11CHTO  H174 4302   6.128   5.030   1.581  0.3324  1.4337  0.7749
   11CHTO  H175 4303   6.134   5.053   1.404  1.3332  1.6286  0.3581
   11CHTO   C97 4304   5.825   5.110   1.466  0.9055 -0.0621 -0.0506
   11CHTO  H184 4305   5.839   5.174   1.377  2.3073  0.9332  0.8558
   11CHTO   O64 4306   5.701   5.037   1.463  0.4493  0.1589  0.1320
   11CHTO  C104 4307   5.677   4.978   1.333  0.3713 -0.9157  0.3866
   11CHTO  H191 4308   5.679   5.057   1.258 -1.2773  0.1134  1.3792
   11CHTO  C108 4309   5.530   4.917   1.338 -0.1091 -1.0422 -0.4527
   11CHTO   O71 4310   5.437   5.017   1.354 -0.7276 -0.0306  0.7421
   11CHTO  H171 4311   5.443   5.058   1.438 -1.0983  0.8023  0.3617
   11CHTO   O62 4312   5.800   5.184   1.587  0.3001 -0.1323  0.6964
   11CHTO   C91 4313   5.699   5.283   1.599  0.0796  0.3105 -0.2222
   11CHTO  H178 4314   5.609   5.243   1.553 -0.1710  0.9551 -0.2999
   11CHTO   C92 4315   5.733   5.415   1.517  0.3286 -0.3926 -0.0965
   11CHTO  H179 4316   5.755   5.388   1.412  2.0283  1.2275 -0.1897
   11CHTO   O66 4317   5.628   5.511   1.507  0.6592  0.5994 -0.3185
   11CHTO  H166 4318   5.544   5.476   1.530  1.5009 -1.5337 -0.3379
   11CHTO   C93 4319   5.855   5.494   1.586  0.8215 -0.1394  0.4171
   11CHTO  H180 4320   5.846   5.599   1.555  0.1072 -0.7708 -1.5902
   11CHTO   N16 4321   5.989   5.453   1.528  0.1385  0.1257 -0.0714
   11CHTO  H172 4322   5.999   5.346   1.518 -2.7889 -0.1961  0.1634
   11CHTO  H173 4323   6.003   5.495   1.430 -1.3217  1.6268  0.3464
   11CHTO   C94 4324   5.855   5.482   1.743  0.2397 -0.5030  0.5002
   11CHTO  H181 4325   5.920   5.401   1.777  0.6122 -0.8944 -1.1252
   11CHTO   O61 4326   5.717   5.462   1.785 -0.4426 -0.1199  0.1243
   11CHTO   C95 4327   5.669   5.327   1.751 -0.6200  0.2041 -0.4669
   11CHTO  H182 4328   5.714   5.257   1.821 -1.5625  0.1383  0.0828
   11CHTO  C106 4329   5.522   5.307   1.777  0.4006 -0.2093 -0.1238
   11CHTO   O69 4330   5.469   5.378   1.890  0.3477  0.1557 -0.0797
   11CHTO  H169 4331   5.504   5.465   1.894  0.8907 -0.1206  1.6230
   11CHTO   O63 4332   5.911   5.638   1.791 -0.5171  0.1635 -0.2541
   11CHTO   C96 4333   5.981   5.624   1.926  0.2494 -0.2553 -0.4906
   11CHTO  H183 4334   5.974   5.520   1.958 -0.8657  0.4090  1.5003
   11CHTO   C98 4335   5.914   5.684   2.049  0.4300 -0.4340  0.8718
   11CHTO  H185 4336   5.918   5.794   2.044  1.3554 -0.4686  0.7903
   11CHTO   O67 4337   5.773   5.644   2.064 -0.3227 -0.3764  0.3832
   11CHTO  H167 4338   5.717   5.718   2.077 -1.1886 -0.8096 -0.7699
   11CHTO  C102 4339   5.993   5.639   2.185 -0.3735  0.1159 -0.0731
   11CHTO  H189 4340   5.981   5.531   2.197  1.2175 -0.1835 -0.9953
   11CHTO   N18 4341   5.949   5.693   2.313  0.4620  0.0376  0.4847
   11CHTO  H176 4342   6.013   5.652   2.390 -0.1875 -1.3831  0.2763
   11CHTO  H177 4343   5.849   5.658   2.331  0.4744 -1.1202 -1.5246
   11CHTO  C105 4344   6.147   5.663   2.163  0.3164  0.1433 -0.5300
   11CHTO  H192 4345   6.162   5.771   2.167 -0.0215  0.1175  2.4121
   11CHTO   O65 4346   6.201   5.615   2.037  0.0581 -0.7455 -0.2577
   11CHTO  C100 4347   6.132   5.661   1.922 -0.0888 -0.3192  0.1414
   11CHTO  H187 4348   6.143   5.770   1.926 -1.5757 -0.1343 -0.5725
   11CHTO  C107 4349   6.202   5.609   1.793 -0.1511 -0.4533  0.5801
   11CHTO   O70 4350   6.197   5.707   1.690 -0.4480 -0.3531 -0.3316
   11CHTO  H170 4351   6.263   5.681   1.629  1.0972  2.0844  0.2420
   11CHTO   O57 4352   6.228   5.583   2.287 -0.2570  0.2489  0.6181
   11CHTO   C85 4353   6.358   5.617   2.344 -0.0986  0.1098 -0.0533
   11CHTO  H157 4354   6.387   5.526   2.401 -1.6775 -0.4085 -0.0413
   11CHTO   C83 4355   6.334   5.736   2.441 -0.3143 -0.3615  0.1064
   11CHTO  H155 4356   6.260   5.698   2.512 -0.6547 -0.9461 -0.5616
   11CHTO   O56 4357   6.273   5.845   2.368 -0.0824  0.1240 -0.5788
   11CHTO  H135 4358   6.233   5.899   2.434 -0.7158 -1.0458  0.0139
   11CHTO   C81 4359   6.472   5.775   2.514 -0.0974  0.1029 -0.1648
   11CHTO  H153 4360   6.513   5.686   2.561  1.0927  0.2057 -0.9789
   11CHTO   N14 4361   6.457   5.870   2.631 -0.2172  0.2729  0.2947
   11CHTO  H141 4362   6.434   5.971   2.605  1.1413  0.7540  0.8886
   11CHTO  H142 4363   6.385   5.838   2.704 -0.4492  1.6534  0.6816
   11CHTO   C79 4364   6.566   5.821   2.398 -0.2195  0.0497 -0.2557
   11CHTO  H151 4365   6.663   5.837   2.445  0.6436 -1.1230 -1.6030
   11CHTO   O52 4366   6.590   5.719   2.296  0.0122  0.0962 -0.2488
   11CHTO   C86 4367   6.470   5.654   2.240  0.3755 -0.0362 -0.6636
   11CHTO  H158 4368   6.438   5.723   2.159 -2.1386 -0.6484 -0.2357
   11CHTO   C90 4369   6.503   5.525   2.157 -0.2661 -0.0554 -0.2276
   11CHTO   O60 4370   6.583   5.554   2.041  0.3112  0.9710 -0.2982
   11CHTO  H138 4371   6.533   5.596   1.974 -0.8043 -0.6783 -0.5342
   11CHTO   O50 4372   6.524   5.944   2.333  0.6464  0.4350  0.1751
   11CHTO   C73 4373   6.478   6.074   2.307  0.5434 -0.0464 -0.2743
   11CHTO  H145 4374   6.409   6.116   2.381 -0.0758  0.0796 -0.9222
   11CHTO   C74 4375   6.404   6.066   2.174  0.5080  0.5543 -0.6333
   11CHTO  H146 4376   6.316   6.002   2.189  1.0922  0.5683  3.2242
   11CHTO   O54 4377   6.348   6.194   2.148  0.3251 -0.3796  0.6462
   11CHTO  H133 4378   6.255   6.194   2.133  0.6036  1.0453 -1.2671
   11CHTO   C75 4379   6.499   6.008   2.058  0.6092  0.0915 -0.2856
   11CHTO  H147 4380   6.513   5.901   2.077 -0.9901 -0.4430 -1.9854
   11CHTO   N13 4381   6.437   6.002   1.921 -0.0281 -0.0110 -0.4863
   11CHTO  H139 4382   6.512   5.962   1.854  0.3690 -2.0171  1.1113
   11CHTO  H140 4383   6.357   5.931   1.908 -0.0194  0.0562 -0.9276
   11CHTO   C76 4384   6.627   6.105   2.066  0.1354  0.5347 -0.1286
   11CHTO  H148 4385   6.602   6.204   2.029  0.4807 -0.2011 -2.3566
   11CHTO   O49 4386   6.688   6.120   2.200 -0.2304 -0.6126  0.1414
   11CHTO   C77 4387   6.596   6.170   2.300 -0.2271  0.6596  0.4452
   11CHTO  H149 4388   6.559   6.269   2.272  0.2162  0.4782 -0.7657
   11CHTO   C88 4389   6.686   6.194   2.430  0.1111 -0.3610 -0.0742
   11CHTO   O58 4390   6.629   6.289   2.526  0.5138  0.1244  0.2954
   11CHTO  H136 4391   6.570   6.346   2.481  0.9080 -0.4443 -0.9468
   11CHTO   O51 4392   6.767   6.036   1.972  0.1489  0.0122 -0.1913
   11CHTO   C78 4393   6.838   5.900   2.030 -0.3758  0.0559 -0.2329
   11CHTO  H150 4394   6.789   5.844   2.112  2.5470  1.0121  2.2899
   11CHTO   C80 4395   6.979   5.944   2.086  0.5051 -0.2386  0.8318
   11CHTO  H152 4396   7.024   6.013   2.012 -0.1682 -0.3798  0.2814
   11CHTO   O55 4397   6.952   6.032   2.197 -0.3357  0.4273  1.0594
   11CHTO  H134 4398   6.922   5.984   2.272 -2.1925 -0.8943 -0.4821
   11CHTO   C84 4399   7.073   5.819   2.118  0.4801 -0.0287  0.0825
   11CHTO  H156 4400   7.029   5.763   2.200  1.4211 -1.0119 -0.0681
   11CHTO   N15 4401   7.198   5.864   2.174 -0.7762 -0.8454  0.2175
   11CHTO  H143 4402   7.263   5.785   2.206 -1.3823 -0.9950  1.0713
   11CHTO  H144 4403   7.257   5.934   2.117 -2.1681  0.3185  0.1757
   11CHTO   C87 4404   7.075   5.722   1.997 -0.0216  0.1708 -0.1827
   11CHTO  H159 4405   7.127   5.763   1.910 -0.3901 -0.3782 -0.6675
   11CHTO   O53 4406   6.926   5.683   1.956  0.1798 -0.8376  0.1025
   11CHTO   C82 4407   6.854   5.794   1.914  0.0949 -0.3159  0.1121
   11CHTO  H154 4408   6.911   5.841   1.834  0.1392  0.7775  0.7839
   11CHTO   C89 4409   6.725   5.730   1.851 -0.2297  0.3370 -0.4636
   11CHTO   O59 4410   6.664   5.823   1.763 -0.5361  0.8524  0.0480
   11CHTO  H137 4411   6.652   5.777   1.682 -0.3950 -0.4626  0.7562
   11CHTO   O45 4412   7.126   5.591   2.045 -0.1978  0.2616  0.1066
   11CHTO   C67 4413   7.181   5.507   1.942 -0.4095 -0.6566  0.0619
   11CHTO  H124 4414   7.130   5.535   1.850 -1.8918  0.6067  1.2524
   11CHTO   C65 4415   7.337   5.543   1.928 -0.3606  0.1118 -0.6439
   11CHTO  H122 4416   7.374   5.575   2.026 -0.7984 -1.4997  0.0782
   11CHTO   O44 4417   7.350   5.654   1.837  1.0025 -0.5531  0.2528
   11CHTO  H102 4418   7.333   5.738   1.876  0.7282 -0.3881 -0.2249
   11CHTO   C63 4419   7.423   5.412   1.900 -0.8214 -0.1355  0.1187
   11CHTO  H120 4420   7.429   5.348   1.988 -0.1528 -0.1792  0.0428
   11CHTO   N11 4421   7.567   5.436   1.852 -0.1513  0.1692  0.2769
   11CHTO  H108 4422   7.573   5.520   1.786  0.6617  1.5200  2.0455
   11CHTO  H109 4423   7.634   5.443   1.935 -1.1255 -0.7882  1.1670
   11CHTO   C61 4424   7.348   5.324   1.799 -1.2223 -0.0606 -0.2188
   11CHTO  H118 4425   7.409   5.234   1.783 -0.7049  0.0603  0.9820
   11CHTO   O40 4426   7.223   5.274   1.860 -0.4414 -0.1793  0.2715
   11CHTO   C68 4427   7.156   5.353   1.965  0.3348  0.2037  0.0906
   11CHTO  H125 4428   7.194   5.312   2.061 -0.3147 -1.4317 -0.3373
   11CHTO   C72 4429   7.006   5.325   1.965  0.2657 -0.5151 -0.6772
   11CHTO   O48 4430   6.924   5.371   1.854  0.6545  0.6730 -0.0911
   11CHTO  H105 4431   6.838   5.383   1.888  0.8659 -1.3783  1.2649
   11CHTO   O38 4432   7.309   5.378   1.668 -0.1182  0.6264  0.5760
   11CHTO   C55 4433   7.341   5.303   1.547 -0.4628 -0.4136 -0.8067
   11CHTO  H112 4434   7.415   5.224   1.566 -0.1483 -0.4257 -2.0282
   11CHTO   C56 4435   7.402   5.413   1.453  0.9293 -0.1745 -0.0990
   11CHTO  H113 4436   7.330   5.496   1.459  1.1838  0.0237  0.1928
   11CHTO   O42 4437   7.523   5.460   1.504  0.2272 -0.5380  0.0199
   11CHTO  H100 4438   7.514   5.550   1.531  0.7911 -0.3950 -0.2697
   11CHTO   C57 4439   7.415   5.371   1.305  0.3794  0.0776 -0.6318
   11CHTO  H114 4440   7.503   5.307   1.294 -1.4235 -2.1020 -3.1134
   11CHTO   N10 4441   7.445   5.480   1.212  0.8617  0.2499  0.7242
   11CHTO  H106 4442   7.545   5.518   1.225  1.3664 -1.4515  2.0149
   11CHTO  H107 4443   7.435   5.439   1.113  1.4229  0.2103  0.6799
   11CHTO   C58 4444   7.284   5.296   1.262 -0.3757 -0.0146 -0.4124
   11CHTO  H115 4445   7.201   5.370   1.260  0.9708  1.4904 -2.1336
   11CHTO   O37 4446   7.256   5.190   1.353  0.2290  0.4777 -0.5989
   11CHTO   C59 4447   7.220   5.238   1.484  0.2689 -0.2810  0.1090
   11CHTO  H116 4448   7.138   5.310   1.484  1.2881  0.8955 -0.3904
   11CHTO   C70 4449   7.156   5.124   1.561  0.3653  0.1152  0.0479
   11CHTO   O46 4450   7.249   5.020   1.597 -0.7085  0.3593  0.0889
   11CHTO  H103 4451   7.303   5.000   1.522 -0.6956 -0.0879  0.2151
   11CHTO   O39 4452   7.293   5.232   1.110  0.0012  0.1059 -0.6133
   11CHTO   C60 4453   7.165   5.205   1.045  0.1334  0.0870  0.4795
   11CHTO  H117 4454   7.082   5.189   1.114 -0.8775  1.4644 -0.3949
   11CHTO   C62 4455   7.124   5.333   0.965  0.2944  0.0279  0.0793
   11CHTO  H119 4456   7.106   5.420   1.033 -0.9317  0.1155 -0.3366
   11CHTO   O43 4457   7.232   5.386   0.885 -0.0621  0.0701 -0.3841
   11CHTO  H101 4458   7.199   5.420   0.804 -2.3505  0.0675  0.5209
   11CHTO   C66 4459   6.978   5.310   0.891 -0.0192  0.7968  0.4762
   11CHTO  H123 4460   6.903   5.289   0.967  3.1546 -2.9858  2.7571
   11CHTO   N12 4461   6.928   5.425   0.809 -0.1515  0.3649  0.1624
   11CHTO  H110 4462   6.976   5.424   0.712  1.6510 -1.8412  1.0354
   11CHTO  H111 4463   6.937   5.522   0.854  1.0974 -0.3228  1.4268
   11CHTO   C69 4464   6.977   5.178   0.811 -0.1343 -0.3753 -0.3588
   11CHTO  H126 4465   7.036   5.189   0.717 -1.9667 -1.6870 -1.7048
   11CHTO   O41 4466   7.021   5.067   0.888 -0.1732 -0.1543  0.4964
   11CHTO   C64 4467   7.172   5.084   0.952  0.5307 -0.1931 -0.8550
   11CHTO  H121 4468   7.236   5.103   0.864  0.7465  0.2589 -0.6017
   11CHTO   C71 4469   7.210   4.959   1.043  0.3266  0.2537 -0.3305
   11CHTO   O47 4470   7.200   4.831   0.976  0.0953  0.1938 -0.3229
   11CHTO  H104 4471   7.257   4.822   0.903  1.6984  0.3868  0.8917
   11CHTO   O34 4472   6.815   5.145   0.763 -0.2591 -0.1538 -0.3591
   11CHTO   C49 4473   6.696   5.093   0.699 -0.8015  0.1865  1.0417
   11CHTO   H91 4474   6.708   4.986   0.687  1.2961  0.6502 -1.1582
   11CHTO   C47 4475   6.663   5.162   0.562  0.6233  0.1983 -0.1401
   11CHTO   H89 4476   6.585   5.099   0.514 -1.7830  0.2383  3.5064
   11CHTO   O33 4477   6.782   5.156   0.486 -0.3594  0.7293  0.1303
   11CHTO   H70 4478   6.763   5.173   0.395  0.0593  1.8564  0.2358
   11CHTO   C45 4479   6.607   5.313   0.574  0.5249 -0.4743 -0.1640
   11CHTO   H87 4480   6.688   5.367   0.626 -1.0714  1.8278 -0.0088
   11CHTO    N8 4481   6.588   5.384   0.446 -0.2314 -0.1083  0.0619
   11CHTO   H75 4482   6.576   5.315   0.363  0.8725 -0.6949  0.3764
   11CHTO   H76 4483   6.507   5.453   0.465 -2.1927 -2.1521 -0.7746
   11CHTO   C43 4484   6.481   5.319   0.687  0.2056  0.2304  0.6516
   11CHTO   H85 4485   6.462   5.425   0.707 -0.6241  0.9240 -3.2698
   11CHTO   O29 4486   6.500   5.237   0.801 -0.0060  0.3745 -0.1463
   11CHTO   C50 4487   6.572   5.112   0.796  0.4444 -0.1377  0.3848
   11CHTO   H92 4488   6.601   5.087   0.899 -0.1621 -1.8888  0.1435
   11CHTO   C54 4489   6.477   5.001   0.759  0.0764 -0.0265  0.0617
   11CHTO   O36 4490   6.371   4.967   0.847  0.5151  0.5287 -0.2865
   11CHTO   H72 4491   6.304   5.032   0.838  0.3879  0.3286 -0.7960
   11CHTO   O27 4492   6.358   5.280   0.626 -0.4491  0.2427  0.4134
   11CHTO   C37 4493   6.227   5.270   0.687 -0.4498 -0.0507  0.0508
   11CHTO   H79 4494   6.232   5.215   0.781 -0.4936  1.4283  0.9345
   11CHTO   C38 4495   6.164   5.402   0.733 -0.1793 -0.0768 -0.5042
   11CHTO   H80 4496   6.139   5.459   0.643 -2.1238 -0.9957 -0.5718
   11CHTO   O31 4497   6.253   5.484   0.815  0.0936  0.8471  0.2321
   11CHTO   H68 4498   6.326   5.443   0.857  0.7067 -0.7068 -2.1989
   11CHTO   C39 4499   6.031   5.376   0.809 -0.2535 -0.4269  0.0160
   11CHTO   H81 4500   6.043   5.331   0.908 -1.1087 -1.7879 -0.4857
   11CHTO    N7 4501   5.954   5.501   0.846  0.4976 -0.4028 -0.5267
   11CHTO   H73 4502   5.860   5.519   0.797  0.8355 -0.5210 -1.2292
   11CHTO   H74 4503   5.936   5.504   0.952  1.3728 -0.2710 -0.3774
   11CHTO   C40 4504   5.931   5.283   0.720  0.1609 -0.2721 -0.4853
   11CHTO   H82 4505   5.859   5.330   0.654  2.0140  2.3607 -0.7241
   11CHTO   O26 4506   6.002   5.173   0.655  0.0177  0.2528  0.3418
   11CHTO   C41 4507   6.124   5.209   0.583  0.0051 -0.3571  0.2206
   11CHTO   H83 4508   6.099   5.285   0.506  1.5087  0.2463  0.3159
   11CHTO   C52 4509   6.182   5.084   0.511 -0.0098 -0.1427 -0.6210
   11CHTO   O35 4510   6.104   5.050   0.387  0.1039 -0.3308 -0.6454
   11CHTO   H71 4511   6.121   4.958   0.377  0.1673 -0.7745  2.9960
   11CHTO   O28 4512   5.856   5.204   0.811  0.7712 -0.3803 -0.4561
   11CHTO   C42 4513   5.718   5.181   0.819 -0.0901 -0.3096 -0.3456
   11CHTO   H84 4514   5.671   5.225   0.731  1.6148  0.6299 -0.8184
   11CHTO   C44 4515   5.640   5.242   0.938  0.1330 -0.2557 -0.3287
   11CHTO   H86 4516   5.684   5.200   1.028  1.5302 -1.2625 -1.4717
   11CHTO   O32 4517   5.661   5.382   0.949  0.5382  0.1496  0.4631
   11CHTO   H69 4518   5.711   5.417   0.878 -0.0154 -0.4619 -0.2399
   11CHTO   C48 4519   5.480   5.209   0.934  0.0048 -0.0791 -0.5731
   11CHTO   H90 4520   5.459   5.266   0.844  2.1971  2.6918  0.5916
   11CHTO    N9 4521   5.406   5.247   1.054 -0.3154  0.6620 -0.0369
   11CHTO   H77 4522   5.479   5.285   1.123  0.6976 -0.7726 -0.3047
   11CHTO   H78 4523   5.341   5.328   1.023  0.2832  1.0904 -0.1873
   11CHTO   C51 4524   5.453   5.059   0.902 -0.4879 -0.1175  0.0302
   11CHTO   H93 4525   5.482   5.007   0.993 -1.9369 -0.4951  0.2863
   11CHTO   O30 4526   5.525   5.017   0.787 -0.1460  0.0356 -0.2176
   11CHTO   C46 4527   5.684   5.031   0.815  0.0502  0.9686 -0.1507
   11CHTO   H88 4528   5.695   4.978   0.910 -1.8510  1.2400  0.2320
   11CHTO   C53 4529   5.759   4.946   0.707  0.5820  0.8612  0.1515
   11CHTO   O72 4530   5.698   4.813   0.714 -0.4613 -0.0445 -0.0205
   11CHTO  H199 4531   5.609   4.823   0.685 -0.7702 -0.7382  0.6833
   11CHTO   O22 4532   5.316   5.028   0.865  0.0779  0.3496  0.4631
   11CHTO   C31 4533   5.258   4.901   0.896 -0.0069 -0.1980 -0.2368
   11CHTO   H59 4534   5.343   4.832   0.913  0.8984  0.8602 -0.4311
   11CHTO   C29 4535   5.179   4.909   1.028 -0.0413  0.3806  0.5403
   11CHTO   H57 4536   5.093   4.974   1.008 -0.0779 -0.3680 -1.8776
   11CHTO   O21 4537   5.258   4.965   1.138  0.5469 -0.2360 -0.4410
   11CHTO   H37 4538   5.291   5.050   1.117  2.5424 -0.9765 -0.5028
   11CHTO   C27 4539   5.124   4.767   1.062  0.0051  0.0539  0.0587
   11CHTO   H55 4540   5.203   4.690   1.062  0.9778  1.0387  0.6023
   11CHTO    N5 4541   5.054   4.761   1.191 -0.0951  0.0040 -0.0780
   11CHTO   H43 4542   5.012   4.663   1.212  0.2389 -0.0562  0.3190
   11CHTO   H44 4543   4.978   4.838   1.194 -0.2506 -0.1613  0.5320
   11CHTO   C25 4544   5.032   4.722   0.942  0.0499  0.6199 -0.3240
   11CHTO   H53 4545   4.945   4.789   0.938 -1.3469 -1.1557 -0.3911
   11CHTO   O17 4546   5.106   4.726   0.817 -0.5710  0.8847 -0.4215
   11CHTO   C32 4547   5.168   4.846   0.776  0.4168 -0.0472  0.1415
   11CHTO   H60 4548   5.095   4.921   0.748  0.6633 -0.2413 -1.0290
   11CHTO   C36 4549   5.256   4.805   0.651 -0.2308  0.2828 -0.5656
   11CHTO   O25 4550   5.377   4.737   0.685 -0.5115 -0.3875 -0.0827
   11CHTO   H40 4551   5.403   4.680   0.615  0.6240  1.0850 -0.8827
   11CHTO   O15 4552   4.980   4.572   0.972  0.0996 -0.8297  0.2480
   11CHTO   C19 4553   4.957   4.427   0.955 -0.7778  0.1156 -0.1845
   11CHTO   H47 4554   5.019   4.379   1.032  0.2788 -1.0475 -1.7334
   11CHTO   C20 4555   4.811   4.376   0.985  0.0206  0.4157  0.1176
   11CHTO   H48 4556   4.735   4.433   0.929  0.3821 -1.6765 -2.6154
   11CHTO   O19 4557   4.790   4.421   1.118 -0.6703 -0.2155 -0.2385
   11CHTO   H35 4558   4.846   4.373   1.176  0.0620  0.8516 -0.0483
   11CHTO   C21 4559   4.778   4.221   0.969  0.1595  0.4609 -0.4127
   11CHTO   H49 4560   4.817   4.168   1.056 -2.7577 -3.4712 -1.3982
   11CHTO    N4 4561   4.634   4.190   0.978 -0.4276  0.1346  0.0622
   11CHTO   H41 4562   4.585   4.266   1.037 -1.5805 -1.0254  0.5989
   11CHTO   H42 4563   4.625   4.093   1.023  0.3439  1.7709  3.9755
   11CHTO   C22 4564   4.842   4.179   0.831 -0.3737  0.6239  0.4765
   11CHTO   H50 4565   4.786   4.225   0.750  2.8617  2.6683 -0.6932
   11CHTO   O14 4566   4.976   4.223   0.812  0.0748  0.4774 -0.0304
   11CHTO   C23 4567   4.996   4.366   0.817  0.1490  0.6877  1.1871
   11CHTO   H51 4568   4.934   4.407   0.735 -1.5922  1.5899  2.9104
   11CHTO   C34 4569   5.135   4.392   0.770 -0.3244 -0.0324 -0.3656
   11CHTO   O23 4570   5.233   4.340   0.861  0.1213  0.2181  0.1243
   11CHTO   H38 4571   5.314   4.382   0.842  0.5564 -0.2404  0.9208
   11CHTO   O16 4572   4.843   4.032   0.814  0.0644 -0.2803  0.1500
   11CHTO   C24 4573   4.873   3.976   0.668 -1.4590 -0.2342  0.1085
   11CHTO   H52 4574   4.930   4.048   0.609  0.4030 -0.2843  1.7869
   11CHTO   C26 4575   4.750   3.938   0.589  0.6687  0.0427 -1.4074
   11CHTO   H54 4576   4.706   3.850   0.640 -0.0077  1.1978 -0.0010
   11CHTO   O20 4577   4.649   4.044   0.571 -0.0556 -0.6112  0.2937
   11CHTO   H36 4578   4.633   4.096   0.648 -1.3791 -0.7161  0.0897
   11CHTO   C30 4579   4.800   3.902   0.444  0.6523  0.5633  0.1885
   11CHTO   H58 4580   4.850   3.989   0.399 -0.1463  1.2056  0.5290
   11CHTO    N6 4581   4.683   3.862   0.352 -0.8284 -0.1847  0.3321
   11CHTO   H45 4582   4.696   3.907   0.255  0.9672  2.9966  1.9604
   11CHTO   H46 4583   4.594   3.904   0.395  0.8867  1.2587  2.6116
   11CHTO   C33 4584   4.910   3.785   0.457  0.3235 -0.4880 -0.2189
   11CHTO   H61 4585   4.857   3.694   0.488 -1.6320  0.2854 -1.1947
   11CHTO   O18 4586   5.018   3.814   0.552 -0.3554 -0.4086 -0.6360
   11CHTO   C28 4587   4.968   3.853   0.682  0.2317  0.0199  0.5639
   11CHTO   H56 4588   4.915   3.769   0.727  0.2185  0.2435  0.9623
   11CHTO   C35 4589   5.084   3.878   0.782  0.1184  0.5504 -0.3234
   11CHTO   O24 4590   5.179   3.976   0.732 -0.0917  0.0409 -0.0639
   11CHTO   H39 4591   5.137   4.055   0.705 -0.5661  0.2781  1.3115
   11CHTO    O9 4592   4.963   3.761   0.321  0.5132 -0.4671 -0.3509
   11CHTO   C13 4593   5.061   3.877   0.268  0.6054 -0.4786 -0.2350
   11CHTO   H26 4594   5.068   3.958   0.344 -1.3977  1.4412 -2.0043
   11CHTO   C11 4595   5.014   3.939   0.133 -0.2424  0.1378 -0.7124
   11CHTO   H24 4596   4.910   3.969   0.149 -0.2603 -0.7036  0.8188
   11CHTO    O8 4597   5.000   3.835   0.036 -0.2821  0.7597 -0.0750
   11CHTO    H3 4598   4.988   3.854  -0.055 -1.3282 -3.0605 -0.8308
   11CHTO    C9 4599   5.114   4.056   0.098 -0.0338  0.1932  0.0467
   11CHTO   H22 4600   5.101   4.132   0.177  0.7596 -0.9034  1.2655
   11CHTO    N2 4601   5.082   4.122  -0.030  0.5808 -0.0057  0.1801
   11CHTO   H10 4602   5.039   4.063  -0.109 -0.4017 -0.1289  0.8010
   11CHTO   H11 4603   5.170   4.170  -0.070  0.1908 -0.1773 -0.8947
   11CHTO    C7 4604   5.266   4.009   0.103 -0.5464 -0.0097  0.2967
   11CHTO   H20 4605   5.312   4.066   0.187  2.1470 -0.5378 -0.7643
   11CHTO    O4 4606   5.280   3.865   0.135 -0.1210  0.4910  0.3486
   11CHTO   C14 4607   5.209   3.828   0.258  0.3841  0.1351 -0.3234
   11CHTO   H27 4608   5.261   3.869   0.347  0.7222 -0.2609 -0.3353
   11CHTO   C18 4609   5.219   3.674   0.276 -0.0615  0.1012  0.1106
   11CHTO   O13 4610   5.145   3.589   0.188 -0.2631 -0.4798 -0.2241
   11CHTO    H7 4611   5.082   3.640   0.141 -1.8120 -3.4449 -1.4781
   11CHTO    O2 4612   5.361   4.030  -0.031  0.1709 -0.3216  0.4642
   11CHTO    C1 4613   5.466   4.127  -0.006 -0.1839  0.3360 -0.2603
   11CHTO   H14 4614   5.499   4.112   0.099  0.3589 -0.7756 -0.5838
   11CHTO    C2 4615   5.437   4.276  -0.025  0.3540  0.6286  0.5726
   11CHTO   H15 4616   5.398   4.286  -0.128  1.2229 -0.1797  0.1576
   11CHTO    O6 4617   5.334   4.313   0.066 -0.3397 -0.1003 -0.2522
   11CHTO    H1 4618   5.290   4.384   0.024  0.3199  0.1970 -0.4429
   11CHTO    C3 4619   5.568   4.367  -0.006 -0.8639 -0.0329 -0.3270
   11CHTO   H16 4620   5.586   4.361   0.103 -0.2663 -1.1688 -0.4848
   11CHTO    N1 4621   5.542   4.514  -0.041  0.2669 -0.5937  0.0781
   11CHTO    H8 4622   5.558   4.535  -0.145  1.4620 -1.2128  0.1313
   11CHTO    H9 4623   5.437   4.533  -0.022  0.0716  3.1586 -3.9361
   11CHTO    C4 4624   5.701   4.314  -0.076  0.0499 -0.2635 -0.0814
   11CHTO   H17 4625   5.692   4.338  -0.182  0.3419 -1.3366 -0.3615
   11CHTO    O1 4626   5.713   4.170  -0.060 -0.1371  0.1292 -0.0469
   11CHTO    C5 4627   5.594   4.091  -0.092 -0.7119 -0.4642  0.0339
   11CHTO   H18 4628   5.568   4.101  -0.198 -1.1461 -2.9822 -0.1225
   11CHTO   C16 4629   5.636   3.944  -0.076 -0.0139 -0.6003  0.0170
   11CHTO   O11 4630   5.713   3.899  -0.188 -1.0011 -0.2537 -0.1473
   11CHTO    H5 4631   5.801   3.930  -0.182 -1.0675 -0.3699  1.7619
   11CHTO    O3 4632   5.814   4.375  -0.013 -0.4781 -0.2422 -0.2334
   11CHTO    C6 4633   5.943   4.377  -0.091  0.1811 -0.1707 -0.2562
   11CHTO   H19 4634   5.935   4.326  -0.188  0.3540 -0.3277 -0.1884
   11CHTO    C8 4635   5.985   4.525  -0.101  0.0937 -0.2578  0.3821
   11CHTO   H21 4636   5.997   4.566  -0.001  1.8113  0.6386 -0.1581
   11CHTO    O7 4637   5.889   4.603  -0.176  0.7103  0.0590 -0.0082
   11CHTO    H2 4638   5.811   4.635  -0.135 -0.1578 -1.8163 -0.1513
   11CHTO   C12 4639   6.125   4.540  -0.169 -0.6062 -0.3560  0.0541
   11CHTO   H25 4640   6.105   4.496  -0.269 -0.3022  2.0218 -1.0631
   11CHTO    N3 4641   6.174   4.679  -0.191 -0.6319  0.1165  0.2303
   11CHTO   H12 4642   6.171   4.732  -0.097  0.5299  1.6450 -0.5651
   11CHTO   H13 4643   6.280   4.671  -0.212 -0.4100 -0.5966  1.5562
   11CHTO   C15 4644   6.229   4.449  -0.091  0.3618 -0.0252 -0.6162
   11CHTO   H28 4645   6.258   4.484   0.009  2.3717 -0.6967 -0.9467
   11CHTO   O10 4646   6.361   4.429  -0.171  0.1865 -0.0330 -0.1892
   11CHTO    H4 4647   6.424   4.491  -0.139  0.1298 -0.5171  0.8758
   11CHTO    O5 4648   6.185   4.311  -0.091 -0.1259 -0.6206  0.2946
   11CHTO   C10 4649   6.056   4.301  -0.016 -0.0390  0.6285  0.2586
   11CHTO   H23 4650   6.070   4.337   0.086  1.7974 -0.2557  0.3312
   11CHTO   C17 4651   6.023   4.152  -0.002  0.9286  0.4793  0.1887
   11CHTO   O12 4652   6.115   4.090   0.088  0.1853  0.0954 -0.5482
   11CHTO    H6 4653   6.189   4.057   0.042  0.4590 -0.8364  0.5360
   12CHTO  H203 4654   4.359   1.274   0.494  0.7218 -2.1704  1.5151
   12CHTO   O82 4655   4.436   1.321   0.520  0.4371 -0.4591 -0.5471
   12CHTO  C123 4656   4.556   1.250   0.486  0.3999 -0.6171 -0.8157
   12CHTO  H227 4657   4.628   1.320   0.441  0.4326 -1.1431 -1.5971
   12CHTO   O77 4658   4.601   1.197   0.615 -0.5409  0.0408 -0.3677
   12CHTO  C118 4659   4.724   1.126   0.600 -0.1296 -0.0331  0.3524
   12CHTO  H222 4660   4.794   1.196   0.552 -1.2267  1.0415  0.2941
   12CHTO  C125 4661   4.781   1.097   0.745 -0.0212 -0.1672 -0.8760
   12CHTO   O84 4662   4.838   1.202   0.817 -0.1615 -0.3861 -0.2846
   12CHTO  H205 4663   4.865   1.172   0.901 -0.9860 -1.2267 -0.3152
   12CHTO  C114 4664   4.711   0.999   0.508 -0.3290  0.0220  0.1460
   12CHTO  H218 4665   4.649   0.923   0.556  1.9437 -2.1439 -0.2674
   12CHTO  C116 4666   4.644   1.025   0.367 -0.1665 -0.7387 -0.4304
   12CHTO  H220 4667   4.716   1.071   0.297  0.7542 -0.6978  0.5272
   12CHTO   O79 4668   4.603   0.900   0.307  0.2920 -0.0997 -0.1609
   12CHTO  H201 4669   4.676   0.841   0.314 -0.0146 -0.4517  0.1061
   12CHTO  C120 4670   4.520   1.128   0.385  0.1840 -0.2625 -0.0584
   12CHTO  H224 4671   4.439   1.071   0.434 -0.5841  1.1030  0.3006
   12CHTO   N21 4672   4.478   1.179   0.249  0.1547 -0.0535  0.4449
   12CHTO  H211 4673   4.371   1.174   0.238  0.3218 -2.6326 -0.3607
   12CHTO  H212 4674   4.514   1.269   0.203 -2.4668  0.6180 -0.3411
   12CHTO   O75 4675   4.848   0.947   0.500  0.6511  0.0332  0.4526
   12CHTO  C112 4676   4.846   0.804   0.466 -1.0315  0.3208  0.5872
   12CHTO  H216 4677   4.763   0.783   0.397 -0.7737 -0.3041  0.4699
   12CHTO   O73 4678   4.833   0.729   0.584  0.1963 -0.2649 -1.1876
   12CHTO  C113 4679   4.814   0.588   0.563  0.3308 -0.1803 -0.5690
   12CHTO  H217 4680   4.726   0.559   0.503  0.6544 -3.7167  0.5671
   12CHTO  C124 4681   4.777   0.535   0.705 -0.3767 -0.0650 -0.1101
   12CHTO   O83 4682   4.763   0.392   0.712  0.1823  0.4862  0.3664
   12CHTO  H204 4683   4.675   0.371   0.735  0.6559 -1.4328  0.5314
   12CHTO  C109 4684   4.942   0.532   0.500  0.9580  0.1252  0.2790
   12CHTO  H213 4685   5.019   0.535   0.578  1.7119 -2.2064 -0.3415
   12CHTO  C110 4686   4.993   0.614   0.381  0.5277  0.0946  0.2840
   12CHTO  H214 4687   4.945   0.574   0.292  1.0992 -0.3487  0.1754
   12CHTO   O78 4688   5.134   0.586   0.364 -0.4837  0.2010  0.2271
   12CHTO  H200 4689   5.157   0.596   0.274 -0.5702 -1.4096  0.0013
   12CHTO  C111 4690   4.982   0.767   0.401 -0.2189 -0.2178  0.3476
   12CHTO  H215 4691   5.070   0.798   0.458 -1.0331  2.3551  0.2611
   12CHTO   N19 4692   4.998   0.832   0.266  0.0753 -0.3918  0.0550
   12CHTO  H207 4693   4.994   0.940   0.275  0.8625 -0.4026  0.6139
   12CHTO  H208 4694   5.088   0.805   0.214 -0.2105 -0.2235 -0.5253
   12CHTO   O74 4695   4.921   0.395   0.464 -0.6984 -0.0346  0.0943
   12CHTO  C115 4696   5.042   0.293   0.471  0.0912  0.6102 -0.2475
   12CHTO  H219 4697   5.138   0.345   0.473  0.0671  0.8233 -2.6062
   12CHTO   O76 4698   5.033   0.197   0.607 -0.2425  0.0951  0.2076
   12CHTO  C122 4699   4.915   0.114   0.607  0.2220  0.5469  0.8145
   12CHTO  H226 4700   4.827   0.172   0.580  0.8333  2.1290  2.1551
   12CHTO  C126 4701   4.891   0.050   0.750  0.6845  0.6448  0.0420
   12CHTO   O85 4702   4.750   0.020   0.768 -0.0011 -0.1656 -0.4069
   12CHTO  H206 4703   4.702   0.099   0.781  0.3086 -0.0617  0.1453
   12CHTO  C121 4704   4.934   0.002   0.498  0.6193 -0.0299 -0.1024
   12CHTO  H225 4705   4.959  -0.092   0.553 -0.6518  0.2693  1.0103
   12CHTO   O81 4706   4.806  -0.026   0.431 -0.4211 -0.1752 -0.4449
   12CHTO  H202 4707   4.778   0.054   0.391  1.2019  1.2374  1.2017
   12CHTO  C119 4708   5.045   0.039   0.391  0.0700  0.3741  0.4960
   12CHTO  H223 4709   5.143   0.030   0.438 -1.6579  0.6245  4.3937
   12CHTO  C117 4710   5.026   0.195   0.348  0.9789  0.2633 -0.3810
   12CHTO  H221 4711   4.934   0.222   0.298  0.8940 -0.9301 -0.8931
   12CHTO   N20 4712   5.119   0.235   0.244  0.3653  0.1663  0.1519
   12CHTO  H209 4713   5.083   0.187   0.153 -1.3969 -1.1703  1.5150
   12CHTO  H210 4714   5.222   0.212   0.265 -0.0191 -2.2717 -0.4531
   12CHTO   O80 4715   5.046  -0.080   0.263  0.1132  0.2262 -0.0905
   12CHTO  C103 4716   5.161  -0.173   0.258 -0.0161 -0.2749  0.2240
   12CHTO  H190 4717   5.257  -0.121   0.257  1.4644 -2.9268 -1.3428
   12CHTO  C101 4718   5.156  -0.279   0.381  0.0752 -0.3296 -0.6970
   12CHTO  H188 4719   5.054  -0.317   0.385 -0.1376  0.4229  1.7433
   12CHTO   O68 4720   5.180  -0.203   0.508  0.1859 -0.6435 -0.0908
   12CHTO  H168 4721   5.102  -0.152   0.517  0.0293 -1.0469  0.8675
   12CHTO   C99 4722   5.252  -0.398   0.341  0.8453  0.5164  0.2328
   12CHTO  H186 4723   5.358  -0.367   0.342  1.1532 -0.5402  1.1619
   12CHTO   N17 4724   5.245  -0.506   0.443 -0.4447 -0.1126  0.2632
   12CHTO  H174 4725   5.147  -0.550   0.438  0.3362 -2.0332  1.3193
   12CHTO  H175 4726   5.283  -0.459   0.533 -3.9605  0.9160  1.3066
   12CHTO   C97 4727   5.216  -0.456   0.192 -0.8473  0.1690  0.1007
   12CHTO  H184 4728   5.113  -0.492   0.193 -0.8690  0.1844 -0.8709
   12CHTO   O64 4729   5.235  -0.342   0.103  0.4349 -0.4014 -0.0377
   12CHTO  C104 4730   5.145  -0.234   0.119  0.5644  0.3311 -0.8555
   12CHTO  H191 4731   5.041  -0.260   0.101  0.5466 -0.7538  0.7638
   12CHTO  C108 4732   5.182  -0.124   0.018  0.4844  0.4258  0.1016
   12CHTO   O71 4733   5.167  -0.173  -0.116  0.4966 -0.2633 -0.7610
   12CHTO  H171 4734   5.252  -0.175  -0.156  0.6822  1.1985 -0.4609
   12CHTO   O62 4735   5.305  -0.563   0.150 -0.1975  0.1364 -0.4037
   12CHTO   C91 4736   5.254  -0.628   0.033  0.0132  0.5651  0.1321
   12CHTO  H178 4737   5.222  -0.555  -0.041  0.8700  0.5683 -0.2464
   12CHTO   C92 4738   5.136  -0.736   0.057 -0.5885 -0.2132 -0.1551
   12CHTO  H179 4739   5.150  -0.786   0.154  2.0968  0.4595 -0.1632
   12CHTO   O66 4740   5.015  -0.660   0.060  0.3514 -0.6523  0.0391
   12CHTO  H166 4741   4.944  -0.710   0.096  1.2587 -2.2127 -0.2751
   12CHTO   C93 4742   5.120  -0.842  -0.062  0.5293  0.8872 -0.0439
   12CHTO  H180 4743   5.087  -0.792  -0.154 -1.2583  2.0480  1.2047
   12CHTO   N16 4744   5.026  -0.957  -0.044 -0.0896 -0.4467 -0.1966
   12CHTO  H172 4745   5.026  -1.016  -0.134 -1.5408  1.0621 -1.2030
   12CHTO  H173 4746   5.049  -1.020   0.041 -1.5349 -2.7086 -1.4416
   12CHTO   C94 4747   5.263  -0.904  -0.100  0.3681 -0.0754  0.7735
   12CHTO  H181 4748   5.313  -0.951  -0.016  3.2787 -1.5857 -1.7035
   12CHTO   O61 4749   5.351  -0.799  -0.136  0.7677 -0.0497 -0.1539
   12CHTO   C95 4750   5.381  -0.693  -0.041  0.2143 -0.6641  0.1103
   12CHTO  H182 4751   5.441  -0.732   0.041 -0.2696  3.1451  2.4285
   12CHTO  C106 4752   5.468  -0.572  -0.114 -0.5084  0.3599  0.1943
   12CHTO   O69 4753   5.515  -0.469  -0.028  0.1599 -0.1023  0.3002
   12CHTO  H169 4754   5.553  -0.408  -0.088  0.2794 -0.8584 -0.4037
   12CHTO   O63 4755   5.256  -1.014  -0.237 -0.4340 -0.0339  0.0752
   12CHTO   C96 4756   5.352  -1.133  -0.220  0.1546 -0.4436  0.8600
   12CHTO  H183 4757   5.403  -1.119  -0.124 -0.5553  0.6793  1.0775
   12CHTO   C98 4758   5.470  -1.154  -0.323 -0.0491  0.0512 -0.2890
   12CHTO  H185 4759   5.426  -1.161  -0.424 -4.3467 -0.7078  1.5036
   12CHTO   O67 4760   5.551  -1.036  -0.327 -0.0008 -0.0685 -0.3399
   12CHTO  H167 4761   5.599  -1.043  -0.407 -2.0548 -0.6390 -1.5330
   12CHTO  C102 4762   5.570  -1.279  -0.290  0.5949 -0.0195  0.0314
   12CHTO  H189 4763   5.649  -1.244  -0.222  0.8086  0.8667 -0.6787
   12CHTO   N18 4764   5.641  -1.335  -0.409 -0.3848 -0.0406  0.0228
   12CHTO  H176 4765   5.562  -1.359  -0.479  0.7069  0.7784 -1.5432
   12CHTO  H177 4766   5.689  -1.255  -0.463 -1.7933 -1.2178 -3.1028
   12CHTO  C105 4767   5.492  -1.393  -0.210  0.1400 -0.3271  0.1640
   12CHTO  H192 4768   5.518  -1.492  -0.245  0.4482 -0.5134  0.9156
   12CHTO   O65 4769   5.354  -1.387  -0.221  0.2685  0.1770  0.5831
   12CHTO  C100 4770   5.279  -1.268  -0.210  0.0668 -0.2236 -0.1804
   12CHTO  H187 4771   5.210  -1.268  -0.295  0.4309  0.2093 -0.4693
   12CHTO  C107 4772   5.194  -1.279  -0.081 -0.6853  0.3088  1.2600
   12CHTO   O70 4773   5.126  -1.404  -0.069 -0.2295  0.6940 -0.2401
   12CHTO  H170 4774   5.139  -1.439   0.017  1.8530 -0.3270 -0.9421
   12CHTO   O57 4775   5.548  -1.389  -0.070 -0.3001  0.7711 -0.2693
   12CHTO   C85 4776   5.521  -1.497   0.018 -0.0301  0.7478  0.8024
   12CHTO  H157 4777   5.448  -1.560  -0.037  2.1124 -0.8139 -0.3589
   12CHTO   C83 4778   5.451  -1.440   0.145 -0.4077  0.4416  0.6336
   12CHTO  H155 4779   5.363  -1.386   0.110 -0.2945  0.0093 -0.3429
   12CHTO   O56 4780   5.530  -1.338   0.204 -0.0307 -0.2069 -0.2215
   12CHTO  H135 4781   5.609  -1.367   0.245  0.4054 -0.8233 -1.4875
   12CHTO   C81 4782   5.402  -1.558   0.236  0.3021 -0.3920  0.1572
   12CHTO  H153 4783   5.343  -1.625   0.174  0.6691 -0.8190  0.2659
   12CHTO   N14 4784   5.309  -1.520   0.349 -0.1493  0.3162 -0.2771
   12CHTO  H141 4785   5.214  -1.486   0.312 -0.0359  0.1070 -0.7579
   12CHTO  H142 4786   5.294  -1.605   0.412 -0.9898 -1.0128 -2.2337
   12CHTO   C79 4787   5.538  -1.643   0.284  0.1384 -0.7132  0.0880
   12CHTO  H151 4788   5.503  -1.743   0.308 -0.3533 -0.8731 -1.2507
   12CHTO   O52 4789   5.624  -1.672   0.171  0.1859  0.5749  0.6243
   12CHTO   C86 4790   5.653  -1.576   0.061 -0.8336  0.3589 -0.3409
   12CHTO  H158 4791   5.729  -1.511   0.109 -1.1535  0.1755  0.4344
   12CHTO   C90 4792   5.722  -1.646  -0.053 -0.2199  0.1808  0.2720
   12CHTO   O60 4793   5.783  -1.543  -0.133  0.2032  0.3309 -0.0187
   12CHTO  H138 4794   5.754  -1.558  -0.221 -0.7559  0.9705  0.1877
   12CHTO   O50 4795   5.617  -1.570   0.380  0.1891  0.1459 -0.2156
   12CHTO   C73 4796   5.603  -1.560   0.520  0.0651  0.2211  0.3364
   12CHTO  H145 4797   5.519  -1.621   0.557 -0.0933  0.1310 -0.1662
   12CHTO   C74 4798   5.584  -1.409   0.562  0.5327 -0.0693 -0.5034
   12CHTO  H146 4799   5.499  -1.367   0.506  0.6033 -1.0385 -1.3636
   12CHTO   O54 4800   5.549  -1.419   0.702 -0.2279 -0.2250  0.3593
   12CHTO  H133 4801   5.537  -1.335   0.742  1.7817  0.6300 -0.7337
   12CHTO   C75 4802   5.720  -1.330   0.529 -0.4072 -0.0545  0.5853
   12CHTO  H147 4803   5.720  -1.319   0.420  0.3018  1.7382  0.7499
   12CHTO   N13 4804   5.727  -1.188   0.578  0.0914  0.1118  0.1938
   12CHTO  H139 4805   5.726  -1.186   0.686  0.8474 -1.2329  0.2322
   12CHTO  H140 4806   5.817  -1.141   0.542  2.0737 -1.8261  2.5057
   12CHTO   C76 4807   5.848  -1.401   0.572  0.1476  0.9447 -0.2310
   12CHTO  H148 4808   5.861  -1.392   0.679 -1.4416  1.6863 -0.0862
   12CHTO   O49 4809   5.850  -1.540   0.533 -0.4668 -0.0318  1.0806
   12CHTO   C77 4810   5.735  -1.614   0.589  0.7668  0.6329  0.4942
   12CHTO  H149 4811   5.728  -1.592   0.696  0.6951 -1.8400  1.0397
   12CHTO   C88 4812   5.749  -1.767   0.568 -0.2911  0.5749  0.2139
   12CHTO   O58 4813   5.622  -1.845   0.600 -0.4825  0.5054 -0.2602
   12CHTO  H136 4814   5.636  -1.904   0.671 -0.2466  0.2733 -0.4980
   12CHTO   O51 4815   5.966  -1.345   0.475  0.3788  0.5082 -0.3462
   12CHTO   C78 4816   6.099  -1.417   0.495 -0.4462 -0.6485  0.3726
   12CHTO  H150 4817   6.084  -1.526   0.513  3.0648 -0.7690  3.0964
   12CHTO   C80 4818   6.194  -1.364   0.602 -0.3110  0.1829  0.4027
   12CHTO  H152 4819   6.215  -1.257   0.583 -1.7869  0.3526 -0.3774
   12CHTO   O55 4820   6.109  -1.374   0.722  0.1131  0.0357 -0.6072
   12CHTO  H134 4821   6.161  -1.379   0.801  0.8980 -0.9629 -1.1832
   12CHTO   C84 4822   6.329  -1.442   0.628  0.6778 -0.0282  0.3545
   12CHTO  H156 4823   6.298  -1.544   0.648 -0.4990  0.9323  3.8373
   12CHTO   N15 4824   6.410  -1.390   0.741  0.2696  0.1677 -0.3530
   12CHTO  H143 4825   6.346  -1.401   0.826 -0.3765  1.3297 -0.6810
   12CHTO  H144 4826   6.433  -1.286   0.731  2.9276 -0.0675  2.3432
   12CHTO   C87 4827   6.408  -1.434   0.496 -0.1618  0.2471  0.8405
   12CHTO  H159 4828   6.448  -1.335   0.475 -1.5826  0.7665  0.5228
   12CHTO   O53 4829   6.295  -1.494   0.378  0.2640 -0.6994 -0.4475
   12CHTO   C82 4830   6.177  -1.403   0.368 -0.2722  0.7172  0.9086
   12CHTO  H154 4831   6.207  -1.299   0.355  0.1409  0.5837  0.7816
   12CHTO   C89 4832   6.091  -1.443   0.241 -0.0597 -0.5706  0.1203
   12CHTO   O59 4833   6.135  -1.372   0.125  0.0291  0.4622 -0.4737
   12CHTO  H137 4834   6.217  -1.412   0.106 -0.7333 -1.5368  0.2536
   12CHTO   O45 4835   6.534  -1.555   0.498  0.4748  0.3580 -0.7457
   12CHTO   C67 4836   6.510  -1.681   0.429 -0.0995  0.4192 -0.3689
   12CHTO  H124 4837   6.404  -1.704   0.431 -0.0388  0.2816  2.0973
   12CHTO   C65 4838   6.561  -1.677   0.280  0.7098  0.0219  0.6383
   12CHTO  H122 4839   6.533  -1.576   0.248 -0.1608 -0.4461 -0.0930
   12CHTO   O44 4840   6.504  -1.785   0.206 -0.4699  1.0845 -0.7901
   12CHTO  H102 4841   6.507  -1.771   0.113  0.8597 -0.6474 -1.0253
   12CHTO   C63 4842   6.710  -1.672   0.281 -0.2078 -0.2499 -0.1136
   12CHTO  H120 4843   6.743  -1.586   0.339 -2.1261 -0.2758  1.0269
   12CHTO   N11 4844   6.771  -1.641   0.150 -0.2055 -0.0193 -0.4426
   12CHTO  H108 4845   6.703  -1.652   0.068 -0.5635 -0.8521 -0.0481
   12CHTO  H109 4846   6.833  -1.554   0.148  0.2446 -0.1911  3.0674
   12CHTO   C61 4847   6.775  -1.797   0.348 -0.2488 -0.2109  0.2677
   12CHTO  H118 4848   6.884  -1.785   0.356 -0.2564  0.1920 -0.2334
   12CHTO   O40 4849   6.725  -1.825   0.475  0.4814  0.1769  0.6975
   12CHTO   C68 4850   6.583  -1.800   0.507  0.6484 -0.1717  0.5771
   12CHTO  H125 4851   6.581  -1.775   0.615  4.7257  0.2079  0.6732
   12CHTO   C72 4852   6.502  -1.933   0.486 -0.1172 -0.3436  0.2009
   12CHTO   O48 4853   6.400  -1.952   0.585  0.2570  0.1401 -0.3822
   12CHTO  H105 4854   6.330  -1.999   0.544 -1.0121  2.2874 -0.7254
   12CHTO   O38 4855   6.755  -1.921   0.272 -0.1829  0.0220  0.2277
   12CHTO   C55 4856   6.870  -2.010   0.260  0.3682  0.6081 -0.5150
   12CHTO  H112 4857   6.915  -2.014   0.360  0.5912  0.2450 -0.6268
   12CHTO   C56 4858   6.975  -1.951   0.150 -0.4519 -0.3227 -0.6744
   12CHTO  H113 4859   6.919  -1.930   0.058 -1.1735 -3.2860 -0.9535
   12CHTO   O42 4860   7.043  -1.825   0.189  0.2789 -0.2545 -0.3021
   12CHTO  H100 4861   7.067  -1.817   0.279  0.3115  2.5266 -0.5403
   12CHTO   C57 4862   7.089  -2.051   0.112 -0.6048 -0.3335  0.3038
   12CHTO  H114 4863   7.166  -2.057   0.189 -0.7203  1.0329  0.5413
   12CHTO   N10 4864   7.174  -2.003  -0.001 -0.3322 -1.0366  0.3351
   12CHTO  H106 4865   7.223  -2.081  -0.057  0.3321 -0.6842  0.4280
   12CHTO  H107 4866   7.234  -1.915   0.014 -1.2703 -0.7770  2.7615
   12CHTO   C58 4867   7.029  -2.192   0.087  0.4425 -0.3298 -0.2663
   12CHTO  H115 4868   6.969  -2.188  -0.006  0.9336 -0.3569 -0.5864
   12CHTO   O37 4869   6.952  -2.238   0.202  0.2182 -0.2171 -0.0949
   12CHTO   C59 4870   6.835  -2.155   0.225 -0.2499  0.2090  0.6791
   12CHTO  H116 4871   6.772  -2.151   0.136  1.0617 -0.1768 -0.2700
   12CHTO   C70 4872   6.752  -2.220   0.333 -0.0994  0.2666 -0.3150
   12CHTO   O46 4873   6.716  -2.356   0.293 -0.0891 -0.4548 -0.2192
   12CHTO  H103 4874   6.658  -2.348   0.219 -0.0304  0.9214 -0.1271
   12CHTO   O39 4875   7.141  -2.289   0.067  0.0075 -0.4875 -0.5476
   12CHTO   C60 4876   7.118  -2.382  -0.041  0.2169 -0.3708 -0.1193
   12CHTO  H117 4877   7.012  -2.404  -0.052 -0.5355  1.2681  3.2346
   12CHTO   C62 4878   7.163  -2.324  -0.181  0.2041  0.4487  0.4127
   12CHTO  H119 4879   7.087  -2.246  -0.204 -1.1122 -0.6639  0.9228
   12CHTO   O43 4880   7.298  -2.275  -0.163 -0.2368  0.1163  0.3078
   12CHTO  H101 4881   7.321  -2.207  -0.223 -0.0552  0.1235  0.3858
   12CHTO   C66 4882   7.138  -2.441  -0.293  0.4281  0.0804  0.2470
   12CHTO  H123 4883   7.032  -2.467  -0.286  0.1160  1.2042 -0.2302
   12CHTO   N12 4884   7.155  -2.385  -0.427 -0.6212  0.7660  0.3700
   12CHTO  H110 4885   7.126  -2.454  -0.505  3.9188 -0.2678 -0.5209
   12CHTO  H111 4886   7.260  -2.369  -0.445 -0.5691  1.0990  0.9468
   12CHTO   C69 4887   7.222  -2.568  -0.263  0.0256  0.9428 -0.0289
   12CHTO  H126 4888   7.329  -2.547  -0.243  0.0632 -0.8823  1.8616
   12CHTO   O41 4889   7.162  -2.616  -0.120  0.2627  0.2904 -0.3903
   12CHTO   C64 4890   7.190  -2.516  -0.016 -0.2822 -1.3871 -0.2563
   12CHTO  H121 4891   7.297  -2.490  -0.019 -0.4780 -0.3662  0.9644
   12CHTO   C71 4892   7.155  -2.581   0.120  0.1086 -0.6821 -0.0464
   12CHTO   O47 4893   7.221  -2.523   0.233  0.1641  0.3175 -0.5071
   12CHTO  H104 4894   7.218  -2.430   0.224  2.7879  0.3791 -1.2671
   12CHTO   O34 4895   7.208  -2.681  -0.353 -0.2190  0.1260 -0.2996
   12CHTO   C49 4896   7.336  -2.779  -0.373 -0.9020 -0.3296 -0.4586
   12CHTO   H91 4897   7.424  -2.716  -0.389 -0.6005 -0.5606  0.2651
   12CHTO   C47 4898   7.307  -2.873  -0.494 -0.5568 -0.2582  0.1485
   12CHTO   H89 4899   7.404  -2.926  -0.508 -0.1670  0.1681  1.1289
   12CHTO   O33 4900   7.270  -2.799  -0.611  0.1300 -0.0876 -0.0153
   12CHTO   H70 4901   7.198  -2.740  -0.595  1.1954  1.7686 -1.7675
   12CHTO   C45 4902   7.189  -2.977  -0.455 -0.1381 -0.0622  0.6110
   12CHTO   H87 4903   7.097  -2.930  -0.494 -0.6699 -1.2181  0.4497
   12CHTO    N8 4904   7.207  -3.110  -0.525 -0.1721  0.1303  0.2297
   12CHTO   H75 4905   7.126  -3.182  -0.521  0.3447 -0.4700 -0.0082
   12CHTO   H76 4906   7.229  -3.089  -0.628 -0.4806  1.7477  0.4882
   12CHTO   C43 4907   7.165  -2.993  -0.297 -0.2247 -0.4599 -0.2411
   12CHTO   H85 4908   7.105  -2.907  -0.267  0.7850 -0.4791  1.9534
   12CHTO   O29 4909   7.293  -2.999  -0.232 -0.7653  0.0181 -0.3992
   12CHTO   C50 4910   7.364  -2.870  -0.242  0.3622  0.1383  0.2106
   12CHTO   H92 4911   7.334  -2.808  -0.156 -2.4277 -0.0387 -0.6129
   12CHTO   C54 4912   7.519  -2.898  -0.217  0.1111 -0.4112  0.4116
   12CHTO   O36 4913   7.573  -2.965  -0.334  0.4627  0.3832  0.9664
   12CHTO   H72 4914   7.548  -2.919  -0.412  0.6198 -1.8098 -0.4374
   12CHTO   O27 4915   7.082  -3.096  -0.245 -0.5146 -0.2054 -0.2293
   12CHTO   C37 4916   7.039  -3.117  -0.111 -0.2904 -0.1022 -0.3432
   12CHTO   H79 4917   7.048  -3.224  -0.087  0.0503 -0.3208 -1.3992
   12CHTO   C38 4918   7.121  -3.048   0.006 -0.0946 -0.2359 -0.0545
   12CHTO   H80 4919   7.139  -2.943  -0.022 -1.3458  0.8603  3.0231
   12CHTO   O31 4920   7.247  -3.118   0.037 -0.3719  0.0923  0.1438
   12CHTO   H68 4921   7.299  -3.130  -0.040  0.0045  1.8370  0.1073
   12CHTO   C39 4922   7.036  -3.036   0.137 -0.3199 -0.0012  0.2288
   12CHTO   H81 4923   7.022  -3.140   0.167 -1.0644  0.0915  0.2208
   12CHTO    N7 4924   7.094  -2.956   0.246  0.7758 -1.1641 -0.3411
   12CHTO   H73 4925   7.200  -2.949   0.231  0.5874  0.5276 -0.9211
   12CHTO   H74 4926   7.049  -2.858   0.246 -1.4481 -2.1355 -0.7022
   12CHTO   C40 4927   6.885  -2.990   0.114  0.1657  0.2437  0.1977
   12CHTO   H82 4928   6.879  -2.889   0.074 -1.1066  1.0343  2.2628
   12CHTO   O26 4929   6.837  -3.090   0.023 -0.5045 -0.0371 -0.1861
   12CHTO   C41 4930   6.892  -3.076  -0.115  0.6817  0.0507 -0.8446
   12CHTO   H83 4931   6.877  -2.971  -0.143  2.4729  0.2030 -1.2829
   12CHTO   C52 4932   6.817  -3.173  -0.221  0.7536 -0.3233  0.1460
   12CHTO   O35 4933   6.806  -3.305  -0.148  0.3590 -0.1882  0.4686
   12CHTO   H71 4934   6.892  -3.330  -0.118  0.7807  0.0688 -0.5125
   12CHTO   O28 4935   6.803  -2.984   0.229 -0.3321 -0.4947  0.3869
   12CHTO   C42 4936   6.660  -2.939   0.232 -0.9803 -0.0254 -0.6791
   12CHTO   H84 4937   6.614  -3.030   0.270  0.9328  0.2254  2.4111
   12CHTO   C44 4938   6.584  -2.894   0.097 -0.0086 -0.1538 -0.3064
   12CHTO   H86 4939   6.635  -2.807   0.055  0.7477  0.9969  2.9181
   12CHTO   O32 4940   6.581  -3.010   0.003  0.1057 -0.1680 -0.2901
   12CHTO   H69 4941   6.606  -2.976  -0.081  1.0148  1.3072  0.5524
   12CHTO   C48 4942   6.439  -2.841   0.140 -0.1517  0.3771 -0.8866
   12CHTO   H90 4943   6.384  -2.931   0.169 -1.4465  1.4013 -0.0926
   12CHTO    N9 4944   6.361  -2.790   0.027 -0.0732  0.4078 -0.4634
   12CHTO   H77 4945   6.335  -2.857  -0.054 -0.9151  0.7841 -0.5128
   12CHTO   H78 4946   6.395  -2.696  -0.014 -0.7894 -0.3043 -2.7463
   12CHTO   C51 4947   6.445  -2.738   0.255 -0.1477 -0.0137 -0.1492
   12CHTO   H93 4948   6.506  -2.653   0.222  0.8252 -0.9467 -0.8144
   12CHTO   O30 4949   6.508  -2.803   0.368  0.0816  0.2983 -0.4333
   12CHTO   C46 4950   6.644  -2.834   0.346  0.0311  0.1226  0.1803
   12CHTO   H88 4951   6.696  -2.746   0.308 -0.7485  0.1006 -0.9579
   12CHTO   C53 4952   6.721  -2.881   0.473  0.3189 -0.6482 -0.5940
   12CHTO   O72 4953   6.652  -2.986   0.543 -0.1204 -0.9516 -0.1395
   12CHTO  H199 4954   6.708  -3.046   0.588 -1.4502 -0.9818  1.5301
   12CHTO   O22 4955   6.312  -2.700   0.306 -0.4550 -0.5122  0.0245
   12CHTO   C31 4956   6.283  -2.565   0.361  0.1817 -0.7124 -0.1454
   12CHTO   H59 4957   6.184  -2.571   0.410  0.7483 -0.9700  0.9787
   12CHTO   C29 4958   6.377  -2.505   0.465  0.3217 -0.0364  0.0281
   12CHTO   H57 4959   6.478  -2.496   0.422  1.3650  0.5706  2.5212
   12CHTO   O21 4960   6.405  -2.605   0.559 -0.0112  0.1086 -0.1187
   12CHTO   H37 4961   6.377  -2.595   0.648 -2.3946 -1.2292 -0.6777
   12CHTO   C27 4962   6.330  -2.365   0.520  0.6272  0.3380 -0.9744
   12CHTO   H55 4963   6.232  -2.378   0.570 -0.3957  3.6371 -2.0109
   12CHTO    N5 4964   6.424  -2.302   0.624  0.3962  0.7555 -0.0795
   12CHTO   H43 4965   6.510  -2.257   0.577 -0.7400  0.5585 -2.4168
   12CHTO   H44 4966   6.365  -2.229   0.677  1.3505  0.9881  0.6529
   12CHTO   C25 4967   6.301  -2.263   0.399  0.2914  0.6902 -0.6112
   12CHTO   H53 4968   6.395  -2.225   0.356 -0.1489  0.7531 -1.5216
   12CHTO   O17 4969   6.233  -2.319   0.284 -0.3173  0.2945 -0.3962
   12CHTO   C32 4970   6.270  -2.457   0.250 -0.0018  0.4478 -0.3334
   12CHTO   H60 4971   6.366  -2.451   0.197  0.2524 -2.2753 -0.2460
   12CHTO   C36 4972   6.160  -2.494   0.153 -0.1962 -0.2325  0.0435
   12CHTO   O25 4973   6.144  -2.402   0.038 -0.0757 -0.6390  0.2581
   12CHTO   H40 4974   6.078  -2.438  -0.019  0.1133  2.2951 -1.9481
   12CHTO   O15 4975   6.233  -2.150   0.446 -0.2421  0.3131 -0.1512
   12CHTO   C19 4976   6.101  -2.085   0.439 -0.4114  0.3578  0.1100
   12CHTO   H47 4977   6.100  -2.022   0.529 -0.0512 -0.6935  0.8490
   12CHTO   C20 4978   6.098  -2.001   0.303 -0.6077 -0.7995  0.4020
   12CHTO   H48 4979   6.134  -2.060   0.217  3.1845  1.5948  0.2391
   12CHTO   O19 4980   6.200  -1.898   0.318 -0.4078  0.0131 -0.0165
   12CHTO   H35 4981   6.207  -1.868   0.407 -1.2834  0.5784 -0.1322
   12CHTO   C21 4982   5.959  -1.932   0.276 -0.6532  0.0762 -0.6773
   12CHTO   H49 4983   5.944  -1.847   0.344 -1.8084 -0.6642  0.0186
   12CHTO    N4 4984   5.948  -1.862   0.142  0.2125 -0.5781 -0.2101
   12CHTO   H41 4985   5.880  -1.906   0.070 -0.1020 -1.3476  0.5461
   12CHTO   H42 4986   6.048  -1.851   0.103  0.2727  0.7205  0.3083
   12CHTO   C22 4987   5.843  -2.036   0.288 -0.2867  0.0527  0.5214
   12CHTO   H50 4988   5.860  -2.110   0.210  0.0847  0.5452  0.1359
   12CHTO   O14 4989   5.850  -2.111   0.414  0.0001  0.0215  0.0369
   12CHTO   C23 4990   5.975  -2.180   0.449 -0.3045  0.1882  0.1808
   12CHTO   H51 4991   5.989  -2.266   0.382  0.1011 -0.4798  1.1143
   12CHTO   C34 4992   5.967  -2.238   0.592 -0.0066  0.5398 -0.2412
   12CHTO   O23 4993   5.849  -2.313   0.603 -0.6144 -0.1953  0.4832
   12CHTO   H38 4994   5.777  -2.253   0.591 -1.4414 -0.9416  1.5855
   12CHTO   O16 4995   5.715  -1.983   0.266 -0.2996  0.1466  0.2257
   12CHTO   C24 4996   5.610  -2.092   0.206  0.2041 -0.3492 -0.9783
   12CHTO   H52 4997   5.643  -2.193   0.230  0.7081  0.2266  0.8769
   12CHTO   C26 4998   5.587  -2.080   0.054 -0.5838 -0.5789 -0.3684
   12CHTO   H54 4999   5.554  -1.977   0.025  0.6361  0.0054  0.2899
   12CHTO   O20 5000   5.707  -2.107  -0.014  0.0211 -0.1631 -0.2733
   12CHTO   H36 5001   5.778  -2.051   0.010  0.1989  0.0021 -1.1855
   12CHTO   C30 5002   5.478  -2.181   0.003 -0.4479 -0.0662  0.1929
   12CHTO   H58 5003   5.512  -2.285  -0.003 -3.2085 -0.9804  0.1702
   12CHTO    N6 5004   5.435  -2.153  -0.133 -0.2344 -0.2929  0.3377
   12CHTO   H45 5005   5.512  -2.172  -0.207 -1.2707  2.0359 -1.3835
   12CHTO   H46 5006   5.396  -2.054  -0.147  0.9083 -0.0900 -1.5638
   12CHTO   C33 5007   5.354  -2.183   0.096 -0.2015 -0.6370 -0.7602
   12CHTO   H61 5008   5.306  -2.085   0.083  1.6763  0.3704 -0.3434
   12CHTO   O18 5009   5.392  -2.184   0.235 -0.0065  0.5996 -0.1007
   12CHTO   C28 5010   5.475  -2.074   0.268 -0.0127 -0.1476  0.0533
   12CHTO   H56 5011   5.433  -1.979   0.233  1.3359  0.9688  1.4154
   12CHTO   C35 5012   5.473  -2.075   0.418 -0.0488 -0.1457 -0.1727
   12CHTO   O24 5013   5.348  -2.086   0.476 -0.1490  0.3655  0.1960
   12CHTO   H39 5014   5.349  -2.051   0.564  0.5286  0.2078  0.2468
   12CHTO    O9 5015   5.263  -2.289   0.066  0.2045  0.0679 -1.0520
   12CHTO   C13 5016   5.295  -2.435   0.112  0.4069 -0.1102 -0.0402
   12CHTO   H26 5017   5.392  -2.440   0.165  1.2757  0.0694 -1.5917
   12CHTO   C11 5018   5.295  -2.526  -0.016 -0.0012 -0.0340  0.3484
   12CHTO   H24 5019   5.376  -2.487  -0.081  0.7635  0.2995  1.4802
   12CHTO    O8 5020   5.177  -2.502  -0.101  0.7744  0.3620  0.1955
   12CHTO    H3 5021   5.117  -2.573  -0.089 -1.4269  2.3807  1.5842
   12CHTO    C9 5022   5.317  -2.672   0.022 -0.5197 -0.1132 -0.1786
   12CHTO   H22 5023   5.407  -2.675   0.086 -1.6629 -1.7346  1.3794
   12CHTO    N2 5024   5.361  -2.762  -0.085 -0.3982  0.4622 -0.0698
   12CHTO   H10 5025   5.288  -2.775  -0.164  1.3805  0.7171 -1.8103
   12CHTO   H11 5026   5.407  -2.856  -0.060 -0.5066  0.0245 -1.4356
   12CHTO    C7 5027   5.202  -2.721   0.119  0.5551 -0.5264 -0.0006
   12CHTO   H20 5028   5.238  -2.819   0.156  2.4272  0.2141  0.1954
   12CHTO    O4 5029   5.179  -2.634   0.231 -0.1198 -0.2436 -0.1683
   12CHTO   C14 5030   5.179  -2.490   0.211 -0.6959  0.6107 -0.0077
   12CHTO   H27 5031   5.204  -2.463   0.315  0.9712  0.9765 -0.4773
   12CHTO   C18 5032   5.040  -2.430   0.187 -0.0560 -0.0310 -0.1530
   12CHTO   O13 5033   4.954  -2.448   0.302 -0.3893 -0.3253 -0.0648
   12CHTO    H7 5034   4.921  -2.536   0.297 -1.8607  0.3035 -1.7671
   12CHTO    O2 5035   5.061  -2.740   0.033  0.0222 -0.4679 -0.1682
   12CHTO    C1 5036   4.994  -2.868   0.054  0.5857  0.3939 -1.2285
   12CHTO   H14 5037   4.953  -2.867   0.157 -0.9698 -0.8501 -1.8127
   12CHTO    C2 5038   5.078  -3.002   0.037  0.2841  0.0506  0.3846
   12CHTO   H15 5039   5.146  -2.979  -0.047  0.0190 -1.4535 -0.2566
   12CHTO    O6 5040   5.155  -3.036   0.156  0.0309  0.0830  0.5209
   12CHTO    H1 5041   5.224  -2.976   0.175 -0.6675  1.2880 -0.7071
   12CHTO    C3 5042   4.993  -3.127  -0.005  0.5269  0.2926  0.2245
   12CHTO   H16 5043   4.939  -3.165   0.083 -0.8703 -0.1055 -0.7907
   12CHTO    N1 5044   5.081  -3.233  -0.065 -0.0763  0.4171  0.0643
   12CHTO    H8 5045   5.084  -3.321  -0.002  1.6337  0.8739  0.6637
   12CHTO    H9 5046   5.056  -3.263  -0.165 -0.5440 -0.1389  0.3400
   12CHTO    C4 5047   4.882  -3.080  -0.107 -0.0318  0.3743 -0.1442
   12CHTO   H17 5048   4.932  -3.037  -0.194  1.2850  1.2049  0.9983
   12CHTO    O1 5049   4.793  -2.980  -0.048 -0.8831  0.1019  0.1086
   12CHTO    C5 5050   4.863  -2.856  -0.032 -0.6559  0.9810 -0.3150
   12CHTO   H18 5051   4.892  -2.812  -0.128 -0.7817  1.6162 -0.0653
   12CHTO   C16 5052   4.756  -2.765   0.039 -0.0943  0.2220 -0.1249
   12CHTO   O11 5053   4.709  -2.831   0.157  0.2912  0.1322  0.2043
   12CHTO    H5 5054   4.692  -2.763   0.219  0.8110  2.6816 -2.3691
   12CHTO    O3 5055   4.804  -3.196  -0.143 -0.2327  0.1768  0.0111
   12CHTO    C6 5056   4.686  -3.188  -0.229  0.0301  0.6539  0.0191
   12CHTO   H19 5057   4.649  -3.086  -0.242 -1.7113  0.4204  2.7983
   12CHTO    C8 5058   4.723  -3.237  -0.373 -0.2695  0.1242  0.0391
   12CHTO   H21 5059   4.773  -3.333  -0.364 -1.0062 -0.3010 -0.3247
   12CHTO    O7 5060   4.824  -3.133  -0.415  0.2284 -0.1099 -0.4030
   12CHTO    H2 5061   4.848  -3.147  -0.505  1.4678 -2.1494  0.2356
   12CHTO   C12 5062   4.594  -3.250  -0.455 -0.1014  0.0841 -0.5481
   12CHTO   H25 5063   4.558  -3.146  -0.469  0.6213  0.1855 -1.7332
   12CHTO    N3 5064   4.633  -3.292  -0.589 -0.2213 -0.3094 -0.1939
   12CHTO   H12 5065   4.551  -3.281  -0.658 -1.5184 -4.0695  0.6206
   12CHTO   H13 5066   4.644  -3.399  -0.585 -1.9324 -0.4851  0.4659
   12CHTO   C15 5067   4.482  -3.333  -0.383 -0.3840 -0.2537  0.8227
   12CHTO   H28 5068   4.512  -3.438  -0.381 -1.8816 -0.7150  0.0655
   12CHTO   O10 5069   4.356  -3.308  -0.455 -0.5825  0.0988 -0.2247
   12CHTO    H4 5070   4.344  -3.359  -0.533  0.2361  0.2351 -0.4426
   12CHTO    O5 5071   4.452  -3.277  -0.253  0.1680  0.0789 -0.2069
   12CHTO   C10 5072   4.568  -3.266  -0.166 -0.0279  0.2962  0.8788
   12CHTO   H23 5073   4.606  -3.366  -0.144  0.0233 -0.5274 -2.5526
   12CHTO   C17 5074   4.527  -3.198  -0.032  0.1737 -0.3948  1.0130
   12CHTO   O12 5075   4.451  -3.077  -0.033 -0.6042 -0.6854  0.8394
   12CHTO    H6 5076   4.387  -3.072   0.035 -0.7511  1.3085  0.5617
   13CHTO  H203 5077   7.392   3.260   2.057  0.9130 -0.3854 -0.1943
   13CHTO   O82 5078   7.427   3.288   2.140  0.4521  0.0983 -0.1561
   13CHTO  C123 5079   7.429   3.432   2.132  0.3273  0.0456  0.4375
   13CHTO  H227 5080   7.474   3.467   2.037  1.2084  1.1975  1.2580
   13CHTO   O77 5081   7.293   3.469   2.129  0.0431 -0.0964  0.4211
   13CHTO  C118 5082   7.267   3.602   2.083 -0.0786  0.5332 -0.5269
   13CHTO  H222 5083   7.318   3.620   1.988  0.2679 -0.7660 -0.5875
   13CHTO  C125 5084   7.114   3.612   2.065 -0.5944 -0.2645 -0.9319
   13CHTO   O84 5085   7.090   3.721   1.979 -0.2811  0.0033 -0.1353
   13CHTO  H205 5086   7.035   3.700   1.906 -0.8843 -0.4800  0.4516
   13CHTO  C114 5087   7.313   3.696   2.196 -0.3199  0.0983 -0.0987
   13CHTO  H218 5088   7.256   3.678   2.287  2.8729 -0.2356  1.9226
   13CHTO  C116 5089   7.456   3.673   2.244  0.4822  0.5680  0.1326
   13CHTO  H220 5090   7.528   3.716   2.171  0.9550  0.4856  0.5528
   13CHTO   O79 5091   7.478   3.728   2.375 -0.4348 -0.0157 -0.1901
   13CHTO  H201 5092   7.413   3.791   2.401  0.4315 -0.2515  2.8531
   13CHTO  C120 5093   7.491   3.511   2.254 -0.3630 -0.3247  0.2241
   13CHTO  H224 5094   7.447   3.473   2.349 -1.1442  0.5417  0.2131
   13CHTO   N21 5095   7.639   3.481   2.262  0.5038  0.9862 -0.0328
   13CHTO  H211 5096   7.680   3.563   2.319  1.2079  0.3633  0.3559
   13CHTO  H212 5097   7.652   3.393   2.322 -0.8429  1.9249  1.6937
   13CHTO   O75 5098   7.299   3.829   2.151 -0.5254 -0.0664  0.2552
   13CHTO  C112 5099   7.212   3.914   2.250 -0.4112 -0.9895  0.2999
   13CHTO  H216 5100   7.256   3.904   2.350  2.9096  0.6722 -0.9185
   13CHTO   O73 5101   7.073   3.869   2.240  0.2382  0.4472  0.5303
   13CHTO  C113 5102   6.971   3.940   2.318  0.4168 -0.2226 -0.0651
   13CHTO  H217 5103   7.005   3.917   2.421 -1.3068  0.9789  0.7703
   13CHTO  C124 5104   6.830   3.873   2.301  0.3203 -0.2018 -0.2001
   13CHTO   O83 5105   6.832   3.750   2.377  0.6620  0.1064  0.6856
   13CHTO  H204 5106   6.888   3.686   2.338  0.5747  1.0074 -0.9830
   13CHTO  C109 5107   6.976   4.093   2.286 -0.0502  0.2667 -0.0339
   13CHTO  H213 5108   6.940   4.105   2.183  2.2789  0.3597 -0.8654
   13CHTO  C110 5109   7.117   4.150   2.296  0.3172 -0.8190 -0.2308
   13CHTO  H214 5110   7.146   4.139   2.400  2.3266 -1.0818 -0.7927
   13CHTO   O78 5111   7.118   4.291   2.267  0.4869  0.7918  0.1106
   13CHTO  H200 5112   7.175   4.334   2.329  0.4086  0.7299  0.2266
   13CHTO  C111 5113   7.216   4.070   2.205 -0.2741 -0.2994 -0.0865
   13CHTO  H215 5114   7.182   4.078   2.101  1.8134  0.7444 -0.7201
   13CHTO   N19 5115   7.355   4.122   2.207  0.2139 -0.0440  0.3734
   13CHTO  H207 5116   7.368   4.190   2.290 -0.4720 -0.2837  0.6828
   13CHTO  H208 5117   7.394   4.174   2.121  1.3245 -0.2434  0.7496
   13CHTO   O74 5118   6.880   4.150   2.378 -0.2172 -0.5797  0.0240
   13CHTO  C115 5119   6.820   4.265   2.327  0.5216  0.7970  0.2469
   13CHTO  H219 5120   6.889   4.329   2.272 -0.8861  0.8863 -1.4240
   13CHTO   O76 5121   6.705   4.224   2.210  0.4572  0.2310 -0.1912
   13CHTO  C122 5122   6.575   4.188   2.262 -0.0225  0.3145 -0.7590
   13CHTO  H226 5123   6.581   4.089   2.307  1.2858 -0.1173 -1.8539
   13CHTO  C126 5124   6.489   4.172   2.127 -0.6931 -0.0503 -0.8349
   13CHTO   O85 5125   6.475   4.295   2.060 -0.6811  0.0914 -0.1126
   13CHTO  H206 5126   6.384   4.319   2.058 -0.4443  1.0335  0.1416
   13CHTO  C121 5127   6.512   4.284   2.364  0.0890 -0.7874  0.5703
   13CHTO  H225 5128   6.417   4.322   2.321  0.6516  0.3965  0.3830
   13CHTO   O81 5129   6.458   4.215   2.479  0.2874  0.1860  0.2036
   13CHTO  H202 5130   6.402   4.264   2.536  0.0636  2.2188 -1.6563
   13CHTO  C119 5131   6.611   4.402   2.401 -0.2875  0.1213 -0.3060
   13CHTO  H223 5132   6.622   4.463   2.311  1.3634 -0.8707 -0.7977
   13CHTO  C117 5133   6.755   4.351   2.443 -0.3708 -0.5848 -0.1646
   13CHTO  H221 5134   6.750   4.284   2.529 -2.4662 -0.7244 -0.3649
   13CHTO   N20 5135   6.858   4.455   2.480 -0.1842  0.3992  0.1866
   13CHTO  H209 5136   6.845   4.507   2.574  0.7755  0.7335  0.1330
   13CHTO  H210 5137   6.876   4.531   2.406  0.5407 -0.0877 -0.1435
   13CHTO   O80 5138   6.553   4.506   2.492 -0.2905  0.1046  0.4597
   13CHTO  C103 5139   6.437   4.592   2.436 -0.1994 -0.1761  0.5895
   13CHTO  H190 5140   6.439   4.693   2.477 -1.5954  0.5002 -0.9464
   13CHTO  C101 5141   6.423   4.616   2.275 -0.4122 -0.2620 -0.1795
   13CHTO  H188 5142   6.438   4.523   2.221 -2.0889 -0.8126  0.2721
   13CHTO   O68 5143   6.537   4.692   2.234 -0.1047  0.0947 -0.1685
   13CHTO  H168 5144   6.610   4.634   2.226 -0.2907 -0.2316  0.5276
   13CHTO   C99 5145   6.283   4.686   2.243  0.1596  0.2605  0.1808
   13CHTO  H186 5146   6.265   4.784   2.292 -0.6917  0.3526 -0.3105
   13CHTO   N17 5147   6.262   4.696   2.094  0.3435  0.1877  0.1342
   13CHTO  H174 5148   6.344   4.734   2.034  0.5892 -0.7665 -0.1494
   13CHTO  H175 5149   6.173   4.744   2.057  0.5543  2.3953  2.3801
   13CHTO   C97 5150   6.176   4.598   2.311 -0.8975  0.6840  0.0971
   13CHTO  H184 5151   6.191   4.500   2.263 -2.7309  1.0621 -1.2806
   13CHTO   O64 5152   6.193   4.587   2.456 -0.2764  0.2889  0.2742
   13CHTO  C104 5153   6.308   4.519   2.497  0.1797 -0.4143  0.0120
   13CHTO  H191 5154   6.310   4.415   2.467  0.4825 -0.3539 -0.1795
   13CHTO  C108 5155   6.315   4.518   2.648 -0.3379 -0.0018  0.1325
   13CHTO   O71 5156   6.210   4.439   2.702 -0.5249 -0.0613  0.4920
   13CHTO  H171 5157   6.222   4.354   2.665  1.2138 -0.2743  1.4720
   13CHTO   O62 5158   6.046   4.650   2.295  0.0531 -0.2796  0.9243
   13CHTO   C91 5159   5.942   4.551   2.306 -0.0265  0.7841 -0.7971
   13CHTO  H178 5160   5.985   4.454   2.327 -2.4978 -0.3644 -0.8643
   13CHTO   C92 5161   5.858   4.543   2.169  0.2678  0.0278 -0.1396
   13CHTO  H179 5162   5.814   4.641   2.146 -0.2282 -0.2640 -0.4348
   13CHTO   O66 5163   5.941   4.505   2.056  0.1678 -0.1326  0.1582
   13CHTO  H166 5164   5.996   4.433   2.082 -0.7270 -0.5457  0.8976
   13CHTO   C93 5165   5.735   4.441   2.183  0.0858  0.1236 -0.0131
   13CHTO  H180 5166   5.782   4.343   2.201 -0.0228 -0.5811 -3.3621
   13CHTO   N16 5167   5.654   4.433   2.060 -0.6860  0.3751  0.2110
   13CHTO  H172 5168   5.718   4.393   1.983  0.7550  0.3079  1.4307
   13CHTO  H173 5169   5.619   4.531   2.030  1.1579  1.1563  0.5052
   13CHTO   C94 5170   5.654   4.479   2.312 -0.3374 -0.1609  0.3173
   13CHTO  H181 5171   5.598   4.572   2.301  0.8160  0.7769  2.1052
   13CHTO   O61 5172   5.742   4.492   2.422 -0.1130  0.5322 -0.4944
   13CHTO   C95 5173   5.844   4.589   2.419 -0.0804  0.0119 -0.3448
   13CHTO  H182 5174   5.801   4.687   2.397 -0.3462  0.2235  1.0609
   13CHTO  C106 5175   5.905   4.582   2.566 -0.1323 -0.4884 -0.3415
   13CHTO   O69 5176   5.815   4.651   2.653 -0.2214 -0.6186  0.2041
   13CHTO  H169 5177   5.842   4.739   2.668  0.2655 -0.8732  0.8803
   13CHTO   O63 5178   5.565   4.365   2.344  0.1233  0.0510 -0.4823
   13CHTO   C96 5179   5.449   4.402   2.422  0.2918 -0.0747  0.4449
   13CHTO  H183 5180   5.422   4.502   2.388  0.9865 -0.0897 -0.1717
   13CHTO   C98 5181   5.477   4.391   2.575 -0.2003 -0.6490 -0.4855
   13CHTO  H185 5182   5.575   4.437   2.596 -0.1782 -1.3836  1.1481
   13CHTO   O67 5183   5.379   4.475   2.642 -0.3191  0.0290  0.8408
   13CHTO  H167 5184   5.291   4.450   2.620  0.2541 -1.1492 -0.2132
   13CHTO  C102 5185   5.463   4.240   2.631  0.2955  0.1715  0.1689
   13CHTO  H189 5186   5.451   4.254   2.739  2.9629 -2.3401  0.8739
   13CHTO   N18 5187   5.592   4.161   2.617 -0.1611  0.3043 -0.6949
   13CHTO  H176 5188   5.679   4.224   2.622  0.2003 -0.0197 -2.7285
   13CHTO  H177 5189   5.585   4.106   2.525 -0.8480 -0.4932 -0.1811
   13CHTO  C105 5190   5.334   4.170   2.568 -0.0104 -0.2818  0.3759
   13CHTO  H192 5191   5.365   4.083   2.510  0.2866 -0.2875  0.5417
   13CHTO   O65 5192   5.249   4.259   2.490  0.1594 -0.1327 -0.3401
   13CHTO  C100 5193   5.322   4.313   2.377 -0.3122 -0.0032  0.1969
   13CHTO  H187 5194   5.357   4.237   2.305 -1.7670 -0.4139 -0.0934
   13CHTO  C107 5195   5.221   4.400   2.301 -0.2172 -0.0477  0.0074
   13CHTO   O70 5196   5.277   4.470   2.194  0.2058  0.2352  0.6626
   13CHTO  H170 5197   5.212   4.521   2.151  0.0579  0.1241  0.7563
   13CHTO   O57 5198   5.260   4.118   2.694 -0.2511 -0.2085 -0.4356
   13CHTO   C85 5199   5.174   4.001   2.691  0.6779  0.1408  0.9041
   13CHTO  H157 5200   5.216   3.933   2.614  1.8328 -0.8721  2.4127
   13CHTO   C83 5201   5.031   4.037   2.644 -0.0467 -0.7451  0.5340
   13CHTO  H155 5202   5.047   4.072   2.542 -2.1208 -1.7924 -0.1769
   13CHTO   O56 5203   4.981   4.151   2.723 -0.0464  0.6360 -0.1432
   13CHTO  H135 5204   5.044   4.220   2.726  0.9270 -0.2040 -0.8196
   13CHTO   C81 5205   4.943   3.910   2.645  0.1235 -0.2766  0.3951
   13CHTO  H153 5206   4.987   3.838   2.576  1.1952  0.2261  0.5491
   13CHTO   N14 5207   4.809   3.937   2.585 -0.4695  0.0091  0.3863
   13CHTO  H141 5208   4.735   3.866   2.617 -0.4205 -0.2721 -0.1231
   13CHTO  H142 5209   4.818   3.923   2.480  0.4275  0.8627  0.3443
   13CHTO   C79 5210   4.943   3.848   2.791 -0.2418  0.6853  0.3625
   13CHTO  H151 5211   4.876   3.762   2.788 -1.2146  1.4329  0.0100
   13CHTO   O52 5212   5.080   3.815   2.840  0.2665  0.4327 -0.0723
   13CHTO   C86 5213   5.173   3.930   2.833  0.1654  0.1703 -0.2100
   13CHTO  H158 5214   5.140   3.997   2.915 -2.5713 -0.9007 -0.3943
   13CHTO   C90 5215   5.312   3.880   2.871 -0.5464 -0.0149 -0.8062
   13CHTO   O60 5216   5.302   3.830   3.006  0.0166  0.8231  0.3067
   13CHTO  H138 5217   5.342   3.885   3.071 -0.2737  0.8182  0.4951
   13CHTO   O50 5218   4.898   3.934   2.896 -0.0618 -0.2811 -0.4335
   13CHTO   C73 5219   4.814   3.919   3.012  0.3959  0.3089  0.1707
   13CHTO  H145 5220   4.789   3.812   3.013  1.4467  0.0555  0.0462
   13CHTO   C74 5221   4.673   4.005   3.000  0.4163  0.2449  0.0117
   13CHTO  H146 5222   4.620   3.969   2.911 -0.5380 -0.1425  0.7181
   13CHTO   O54 5223   4.583   3.960   3.104  0.1017  0.4631 -0.3612
   13CHTO  H133 5224   4.576   3.867   3.094  1.2529  0.3088  0.2387
   13CHTO   C75 5225   4.715   4.157   2.986 -0.7484 -0.6468 -0.4010
   13CHTO  H147 5226   4.779   4.167   2.897  2.4208 -1.6374  1.6891
   13CHTO   N13 5227   4.610   4.262   2.972 -0.2812 -0.1891 -0.0446
   13CHTO  H139 5228   4.654   4.360   2.987 -2.5341  0.8005  0.2234
   13CHTO  H140 5229   4.580   4.255   2.868  1.5177 -0.6720 -0.5595
   13CHTO   C76 5230   4.821   4.188   3.109 -0.1382  0.1543 -0.0370
   13CHTO  H148 5231   4.764   4.186   3.202 -0.3618 -0.6840 -0.1817
   13CHTO   O49 5232   4.923   4.088   3.128  0.1897  0.2393  0.3074
   13CHTO   C77 5233   4.883   3.959   3.142  0.7421  0.1279  0.9464
   13CHTO  H149 5234   4.814   3.948   3.225 -1.5995 -1.5351 -1.1249
   13CHTO   C88 5235   4.999   3.868   3.175  0.4693  0.7162  0.1149
   13CHTO   O58 5236   5.059   3.900   3.312 -0.1983  0.0423  0.1799
   13CHTO  H136 5237   5.152   3.895   3.303 -0.2341 -4.6600  1.2193
   13CHTO   O51 5238   4.918   4.301   3.079 -0.5165 -0.5106 -0.3796
   13CHTO   C78 5239   4.995   4.361   3.211  0.4937 -0.0422  1.0699
   13CHTO  H150 5240   4.988   4.283   3.290  2.2579 -0.9923  0.3178
   13CHTO   C80 5241   4.925   4.493   3.251  0.1104  0.4093  0.2332
   13CHTO  H152 5242   4.941   4.565   3.168  0.0159 -0.0674 -0.1996
   13CHTO   O55 5243   4.783   4.462   3.262  0.2381  0.6296 -0.3346
   13CHTO  H134 5244   4.755   4.408   3.333  0.3859  0.1190 -0.6621
   13CHTO   C84 5245   4.994   4.549   3.386  0.2285 -0.5635  0.5952
   13CHTO  H156 5246   4.990   4.469   3.461  2.2272  1.1861  2.6287
   13CHTO   N15 5247   4.935   4.676   3.433  0.0973  0.7747 -0.1459
   13CHTO  H143 5248   4.846   4.659   3.489  0.2329 -1.2133 -0.4784
   13CHTO  H144 5249   5.010   4.723   3.493 -0.9997  0.7876  1.2445
   13CHTO   C87 5250   5.150   4.556   3.366 -0.0646 -0.3004  0.1230
   13CHTO  H159 5251   5.171   4.644   3.304  1.7206  0.1141  1.2635
   13CHTO   O53 5252   5.199   4.423   3.327 -0.1216  0.3986  0.5470
   13CHTO   C82 5253   5.147   4.382   3.200  0.4090 -0.2499  1.0317
   13CHTO  H154 5254   5.168   4.458   3.125 -0.3963 -1.8730 -0.8928
   13CHTO   C89 5255   5.223   4.252   3.152  0.0860 -0.2843 -0.2035
   13CHTO   O59 5256   5.219   4.146   3.252 -0.8307 -0.5383  0.0947
   13CHTO  H137 5257   5.308   4.119   3.264 -0.1419  0.9093 -1.5763
   13CHTO   O45 5258   5.229   4.584   3.513 -0.2553 -0.6064 -0.0441
   13CHTO   C67 5259   5.368   4.556   3.517  0.4446 -0.1129  0.3122
   13CHTO  H124 5260   5.399   4.495   3.432  0.5674  0.0508  0.2397
   13CHTO   C65 5261   5.456   4.682   3.517  0.6847  0.0743  0.0727
   13CHTO  H122 5262   5.395   4.763   3.558 -0.9374 -1.1364  0.1063
   13CHTO   O44 5263   5.476   4.700   3.373  0.2411 -0.9500  0.2530
   13CHTO  H102 5264   5.536   4.633   3.348  1.0416 -0.2218  0.1975
   13CHTO   C63 5265   5.586   4.680   3.605 -0.2728 -0.3102 -0.1545
   13CHTO  H120 5266   5.554   4.689   3.709  1.5671 -0.6040  0.4550
   13CHTO   N11 5267   5.692   4.790   3.587  0.0604 -0.3001  0.0944
   13CHTO  H108 5268   5.716   4.795   3.483 -0.2255 -1.9455 -0.0728
   13CHTO  H109 5269   5.774   4.753   3.645 -0.1713 -0.6822  0.1852
   13CHTO   C61 5270   5.644   4.534   3.609 -0.3051  0.2013 -0.0411
   13CHTO  H118 5271   5.713   4.537   3.695 -2.3481 -1.5134  1.7159
   13CHTO   O40 5272   5.546   4.432   3.642 -0.1569 -0.0015  0.6664
   13CHTO   C68 5273   5.407   4.473   3.647 -0.1190  0.3182  0.0467
   13CHTO  H125 5274   5.390   4.542   3.732  1.0187  0.8065 -0.1096
   13CHTO   C72 5275   5.315   4.350   3.666  0.8004 -0.9116 -0.1632
   13CHTO   O48 5276   5.321   4.265   3.554 -0.3092  0.5863 -0.2269
   13CHTO  H105 5277   5.399   4.214   3.543 -1.6137 -1.4078 -0.4118
   13CHTO   O38 5278   5.698   4.496   3.480 -0.5577  0.2510 -0.5129
   13CHTO   C55 5279   5.811   4.404   3.476  0.2538  0.0316  0.6203
   13CHTO  H112 5280   5.817   4.371   3.371  3.2859  1.0438  0.4521
   13CHTO   C56 5281   5.799   4.283   3.581  0.3819 -0.0928  0.3348
   13CHTO  H113 5282   5.811   4.324   3.682 -2.2497  0.5770  0.4002
   13CHTO   O42 5283   5.676   4.209   3.575 -0.1295  0.4116 -0.1876
   13CHTO  H100 5284   5.608   4.266   3.546  1.7224  1.3537 -2.8291
   13CHTO   C57 5285   5.917   4.183   3.548 -0.2186 -0.4572 -0.3223
   13CHTO  H114 5286   5.907   4.152   3.444  0.3827 -1.0240 -0.2168
   13CHTO   N10 5287   5.926   4.059   3.635  0.1065  0.3128 -0.4464
   13CHTO  H106 5288   5.971   3.977   3.581 -2.1779 -0.1220 -1.7483
   13CHTO  H107 5289   5.827   4.029   3.664  0.5743  0.4613  1.3583
   13CHTO   C58 5290   6.044   4.267   3.556 -0.0470  0.0359  0.0064
   13CHTO  H115 5291   6.045   4.314   3.656 -1.4398 -0.0766  0.0862
   13CHTO   O37 5292   6.043   4.371   3.462  0.4988  0.2674 -0.5954
   13CHTO   C59 5293   5.944   4.468   3.494  0.0555 -0.2416  0.0658
   13CHTO  H116 5294   5.964   4.502   3.595  0.7137 -2.8978  0.8554
   13CHTO   C70 5295   5.960   4.587   3.396 -0.0008  0.3155  0.5887
   13CHTO   O46 5296   6.094   4.636   3.392 -0.2469 -0.5207  0.2740
   13CHTO  H103 5297   6.140   4.565   3.352 -2.4003 -1.5053 -0.5173
   13CHTO   O39 5298   6.178   4.186   3.528 -0.2641 -0.5038  0.0926
   13CHTO   C60 5299   6.280   4.186   3.631  0.0887  0.2255  0.0876
   13CHTO  H117 5300   6.254   4.262   3.704  1.7057 -0.5001  1.4740
   13CHTO   C62 5301   6.303   4.047   3.708  0.5734  0.3528 -0.5620
   13CHTO  H119 5302   6.214   4.020   3.769 -0.0028  0.2441 -1.4455
   13CHTO   O43 5303   6.317   3.953   3.604 -0.4325  1.0194  0.3179
   13CHTO  H101 5304   6.241   3.954   3.549 -0.4139  0.4130  0.2833
   13CHTO   C66 5305   6.423   4.061   3.811  0.6088  0.2020  0.2123
   13CHTO  H123 5306   6.393   4.132   3.888  0.5992 -0.1661  0.5466
   13CHTO   N12 5307   6.463   3.938   3.882  0.3402  0.3137 -0.1943
   13CHTO  H110 5308   6.412   3.929   3.977 -0.6069  2.6085 -0.4277
   13CHTO  H111 5309   6.568   3.926   3.901  0.1613 -2.3648 -0.7716
   13CHTO   C69 5310   6.547   4.110   3.728  0.1939  0.3955 -1.0318
   13CHTO  H126 5311   6.571   4.044   3.643  0.6905 -0.5426 -0.1752
   13CHTO   O41 5312   6.518   4.244   3.678 -0.0580  0.1751  0.3477
   13CHTO   C64 5313   6.414   4.230   3.570  0.1899 -0.0709 -0.1009
   13CHTO  H121 5314   6.440   4.163   3.486  0.6820 -0.8990  0.6996
   13CHTO   C71 5315   6.404   4.368   3.499 -0.4190 -0.1002  0.1893
   13CHTO   O47 5316   6.371   4.472   3.597  0.2092 -0.2449 -0.5136
   13CHTO  H104 5317   6.284   4.461   3.631  0.3356 -0.4397 -0.2470
   13CHTO   O34 5318   6.661   4.130   3.816  0.1556 -0.4982 -0.7575
   13CHTO   C49 5319   6.803   4.157   3.795  0.5117 -0.2269 -0.0905
   13CHTO   H91 5320   6.839   4.065   3.749  0.7340  0.2061 -0.7935
   13CHTO   C47 5321   6.861   4.174   3.940  0.9661  0.0119 -0.0799
   13CHTO   H89 5322   6.968   4.197   3.927  1.3322 -2.4412 -1.8200
   13CHTO   O33 5323   6.847   4.052   4.018  0.4264 -0.4226  0.5706
   13CHTO   H70 5324   6.764   4.009   4.009  0.4334 -0.6318  1.5273
   13CHTO   C45 5325   6.793   4.303   4.010  0.1669 -0.1365 -0.5954
   13CHTO   H87 5326   6.705   4.267   4.064  1.4404 -0.0920  1.5475
   13CHTO    N8 5327   6.892   4.358   4.112  0.3557  0.2560  0.3282
   13CHTO   H75 5328   6.847   4.429   4.180 -0.4069  0.6961 -0.6096
   13CHTO   H76 5329   6.941   4.277   4.163 -0.8540 -1.2262 -0.8259
   13CHTO   C43 5330   6.736   4.402   3.899  0.3062 -0.4481 -0.3139
   13CHTO   H85 5331   6.638   4.363   3.870  0.0224  1.0462 -1.4600
   13CHTO   O29 5332   6.830   4.409   3.790  0.4320 -0.7809 -0.3731
   13CHTO   C50 5333   6.831   4.285   3.715  1.1344  0.0816  0.0527
   13CHTO   H92 5334   6.762   4.281   3.630  1.7224 -2.0735 -0.3652
   13CHTO   C54 5335   6.966   4.281   3.636 -0.4335  0.6891 -0.4804
   13CHTO   O36 5336   6.985   4.379   3.534 -0.2569 -0.2442  0.0976
   13CHTO   H72 5337   6.925   4.363   3.464 -0.7940 -0.3127  0.5769
   13CHTO   O27 5338   6.716   4.533   3.954  0.8617  0.3023  0.6375
   13CHTO   C37 5339   6.630   4.642   3.989  0.2225 -0.2130 -0.5977
   13CHTO   H79 5340   6.524   4.614   3.979  0.0228  0.7302 -1.1585
   13CHTO   C38 5341   6.658   4.692   4.136  0.4460 -0.2404  0.4596
   13CHTO   H80 5342   6.763   4.724   4.140  1.6895 -3.9082 -0.5020
   13CHTO   O31 5343   6.623   4.587   4.229  0.1826 -0.2803  0.0417
   13CHTO   H68 5344   6.666   4.508   4.206  0.1491 -0.7166  1.4208
   13CHTO   C39 5345   6.574   4.819   4.164  1.0788  0.3562 -0.4180
   13CHTO   H81 5346   6.472   4.783   4.152  1.2903 -0.4630  0.1492
   13CHTO    N7 5347   6.591   4.876   4.300 -0.1523 -0.3026 -0.4180
   13CHTO   H73 5348   6.510   4.838   4.361  1.2380  1.6900  2.7851
   13CHTO   H74 5349   6.683   4.854   4.352 -1.0317 -1.1285  0.8159
   13CHTO   C40 5350   6.594   4.929   4.049  0.1905 -0.8093 -0.2477
   13CHTO   H82 5351   6.686   4.988   4.051 -0.1807 -0.2059 -0.7572
   13CHTO   O26 5352   6.569   4.873   3.919  0.1869  0.3304  0.0743
   13CHTO   C41 5353   6.657   4.760   3.888  0.4856 -0.3768  0.2320
   13CHTO   H83 5354   6.762   4.787   3.903  0.5568 -0.5419  0.0323
   13CHTO   C52 5355   6.647   4.724   3.735  0.8193  0.2975 -0.4887
   13CHTO   O35 5356   6.734   4.805   3.640  0.1189 -0.0272 -0.1833
   13CHTO   H71 5357   6.726   4.769   3.553  0.6976  0.1276 -0.3016
   13CHTO   O28 5358   6.491   5.028   4.054 -0.1619 -0.6181 -0.0636
   13CHTO   C42 5359   6.512   5.160   3.991 -0.0517  0.4933 -0.2507
   13CHTO   H84 5360   6.599   5.148   3.926 -0.2275 -0.1177 -0.3819
   13CHTO   C44 5361   6.545   5.264   4.097  0.2475  0.1948 -0.5365
   13CHTO   H86 5362   6.461   5.275   4.166  0.2743  0.8253 -0.6028
   13CHTO   O32 5363   6.659   5.215   4.175  0.0269  0.1261 -0.2459
   13CHTO   H69 5364   6.643   5.212   4.267  2.2241  0.5427  0.1597
   13CHTO   C48 5365   6.587   5.407   4.035  0.3216  0.4670  0.1703
   13CHTO   H90 5366   6.671   5.391   3.967 -0.2344 -0.4514 -0.3095
   13CHTO    N9 5367   6.624   5.512   4.133 -0.2598 -0.2531 -0.0831
   13CHTO   H77 5368   6.603   5.606   4.085  0.0283  0.6579  1.5383
   13CHTO   H78 5369   6.571   5.501   4.227 -0.4910  1.1466 -0.0316
   13CHTO   C51 5370   6.459   5.447   3.952  0.3846 -0.4291 -0.3841
   13CHTO   H93 5371   6.372   5.452   4.017  1.1551  0.4604  0.5985
   13CHTO   O30 5372   6.435   5.350   3.845 -0.1363  0.7671 -0.3516
   13CHTO   C46 5373   6.394   5.208   3.898 -0.4604  0.2634 -0.0796
   13CHTO   H88 5374   6.306   5.213   3.962 -0.1667  0.8080  0.2890
   13CHTO   C53 5375   6.359   5.130   3.766  0.7989  0.7625 -0.1289
   13CHTO   O72 5376   6.333   4.994   3.793  0.3165 -0.2325  0.0498
   13CHTO  H199 5377   6.338   4.940   3.716  2.2934 -0.5997  0.4045
   13CHTO   O22 5378   6.480   5.568   3.880 -0.5836  0.3256 -0.1142
   13CHTO   C31 5379   6.368   5.646   3.840 -0.5528 -0.5755 -0.1137
   13CHTO   H59 5380   6.283   5.575   3.843 -0.3575 -0.8146 -0.1404
   13CHTO   C29 5381   6.349   5.761   3.938 -0.0551 -0.2503 -0.6715
   13CHTO   H57 5382   6.437   5.827   3.932 -0.5624  0.6425  1.2776
   13CHTO   O21 5383   6.335   5.711   4.074 -0.0748 -0.1452 -0.2636
   13CHTO   H37 5384   6.410   5.661   4.101  0.9541  0.4133 -2.0361
   13CHTO   C27 5385   6.221   5.844   3.896 -0.5459 -0.1217 -0.2956
   13CHTO   H55 5386   6.134   5.778   3.912 -0.9294  0.2762 -0.6972
   13CHTO    N5 5387   6.205   5.958   3.987 -0.9361 -0.0407 -0.0771
   13CHTO   H43 5388   6.132   6.029   3.952 -1.6186  0.7359  2.7633
   13CHTO   H44 5389   6.298   6.009   4.004 -0.2485 -0.5081 -2.2178
   13CHTO   C25 5390   6.229   5.888   3.742  0.1783  0.3577 -0.0272
   13CHTO   H53 5391   6.314   5.957   3.731 -0.0930  0.4949 -1.2937
   13CHTO   O17 5392   6.264   5.782   3.661 -0.4808 -0.2173 -0.3595
   13CHTO   C32 5393   6.381   5.703   3.691  0.2828  0.4649 -0.4134
   13CHTO   H60 5394   6.472   5.763   3.682  0.8822 -0.4746 -0.6319
   13CHTO   C36 5395   6.382   5.586   3.590 -0.0553  0.1141  0.2695
   13CHTO   O25 5396   6.499   5.498   3.594  0.4836 -0.1488 -0.5564
   13CHTO   H40 5397   6.515   5.450   3.515 -1.8803  0.4721 -1.4758
   13CHTO   O15 5398   6.090   5.948   3.693 -0.3357  0.6979 -0.0442
   13CHTO   C19 5399   5.998   6.059   3.713  0.2710  0.2936  0.5434
   13CHTO   H47 5400   6.021   6.096   3.814 -0.2493 -0.2859  0.8800
   13CHTO   C20 5401   6.026   6.175   3.616 -0.3741  0.2254 -0.3997
   13CHTO   H48 5402   6.006   6.145   3.512 -0.4891  1.4424 -0.7423
   13CHTO   O19 5403   6.159   6.227   3.630  0.6393 -0.0270 -0.3658
   13CHTO   H35 5404   6.198   6.254   3.549 -0.8811  1.5388 -0.5951
   13CHTO   C21 5405   5.927   6.302   3.644  0.8697 -0.0894  0.6914
   13CHTO   H49 5406   5.951   6.345   3.741 -2.5216 -0.1497  1.5936
   13CHTO    N4 5407   5.935   6.412   3.540  1.1867  0.1293  0.2525
   13CHTO   H41 5408   5.903   6.380   3.442  1.1810  0.6984  0.0706
   13CHTO   H42 5409   6.036   6.447   3.528  1.4106 -0.2737  0.9144
   13CHTO   C22 5410   5.784   6.239   3.653 -0.2238  0.1688  0.0155
   13CHTO   H50 5411   5.741   6.222   3.555 -1.0889 -0.0299  0.4183
   13CHTO   O14 5412   5.783   6.130   3.741  0.3120  0.4498 -0.1146
   13CHTO   C23 5413   5.855   6.009   3.713  0.7151 -0.0348  0.7876
   13CHTO   H51 5414   5.828   5.961   3.618  2.2291 -1.7471  1.1999
   13CHTO   C34 5415   5.837   5.892   3.813  0.2188 -0.1378  0.1808
   13CHTO   O23 5416   5.877   5.760   3.765  0.1267 -0.1955  0.4343
   13CHTO   H38 5417   5.803   5.727   3.717 -0.3126  0.0846  0.9118
   13CHTO   O16 5418   5.693   6.332   3.724 -0.0810 -0.3005  0.2351
   13CHTO   C24 5419   5.535   6.296   3.692  0.2570 -0.1272 -0.2401
   13CHTO   H52 5420   5.526   6.198   3.644 -2.8154 -0.0696  0.0683
   13CHTO   C26 5421   5.458   6.399   3.606  0.1496  0.4947  0.1391
   13CHTO   H54 5422   5.481   6.499   3.646  0.2034  0.5463 -0.0191
   13CHTO   O20 5423   5.511   6.390   3.473 -0.1600 -0.1282  0.0775
   13CHTO   H36 5424   5.458   6.333   3.421 -1.9439 -1.5290  3.2905
   13CHTO   C30 5425   5.301   6.374   3.597  0.6923  0.7239  0.5426
   13CHTO   H58 5426   5.288   6.285   3.534  0.1029  1.4875 -0.4064
   13CHTO    N6 5427   5.231   6.484   3.529 -0.1842 -0.0626  0.1711
   13CHTO   H45 5428   5.126   6.460   3.537  0.0614 -0.8695  1.1732
   13CHTO   H46 5429   5.254   6.494   3.424  0.1358 -2.0501  0.0308
   13CHTO   C33 5430   5.251   6.343   3.741 -0.1562 -0.7064  0.4771
   13CHTO   H61 5431   5.275   6.437   3.794  3.3551 -0.4025 -1.5049
   13CHTO   O18 5432   5.327   6.241   3.796  0.4962 -0.6489  0.5739
   13CHTO   C28 5433   5.464   6.272   3.832  0.8889 -0.4666  0.3180
   13CHTO   H56 5434   5.470   6.359   3.898  0.7070 -0.5618  0.4622
   13CHTO   C35 5435   5.519   6.153   3.910 -0.4606  0.1008  0.3286
   13CHTO   O24 5436   5.512   6.036   3.832 -0.1000  0.2999  0.1834
   13CHTO   H39 5437   5.582   6.024   3.772 -1.5323  0.1632 -1.5009
   13CHTO    O9 5438   5.106   6.317   3.752  0.3090 -1.0862  0.2094
   13CHTO   C13 5439   5.041   6.381   3.878 -0.3970  0.3282  0.3683
   13CHTO   H26 5440   5.080   6.485   3.886 -1.2590  0.7909 -1.1228
   13CHTO   C11 5441   5.073   6.302   4.005  0.0195 -0.3570  0.2310
   13CHTO   H24 5442   5.183   6.305   4.015  0.2096 -1.8274 -1.2420
   13CHTO    O8 5443   5.038   6.165   3.986 -0.0696  0.1799 -0.0394
   13CHTO    H3 5444   5.091   6.124   3.920  0.5569  0.7418  0.1073
   13CHTO    C9 5445   5.004   6.377   4.125  0.3513  0.1060 -0.0645
   13CHTO   H22 5446   5.056   6.474   4.128  1.4118 -0.4486 -0.3435
   13CHTO    N2 5447   5.032   6.312   4.256 -0.1441 -0.2055 -0.2177
   13CHTO   H10 5448   5.012   6.382   4.336  1.1061  0.8535 -0.8016
   13CHTO   H11 5449   4.969   6.224   4.259  0.1254 -0.3431  2.4166
   13CHTO    C7 5450   4.849   6.403   4.098 -0.2370 -0.1703 -0.2622
   13CHTO   H20 5451   4.821   6.477   4.176  0.7658 -1.2511  1.1379
   13CHTO    O4 5452   4.827   6.466   3.972 -0.0629  0.0008 -0.2215
   13CHTO   C14 5453   4.887   6.400   3.857 -0.4960  0.3835  0.3973
   13CHTO   H27 5454   4.872   6.474   3.776  1.6251 -0.2445 -0.6149
   13CHTO   C18 5455   4.814   6.265   3.814 -0.6743  0.2372  0.2216
   13CHTO   O13 5456   4.683   6.289   3.765  0.2730 -0.5247 -0.3921
   13CHTO    H7 5457   4.630   6.211   3.771  1.1652 -1.1628 -0.7092
   13CHTO    O2 5458   4.759   6.257   4.112 -0.0186 -0.2113 -0.2950
   13CHTO    C1 5459   4.653   6.258   4.213  0.8513 -0.5558 -0.6153
   13CHTO   H14 5460   4.652   6.347   4.280 -0.4922 -0.5291 -0.6542
   13CHTO    C2 5461   4.675   6.133   4.301  0.0353  0.6426  0.0178
   13CHTO   H15 5462   4.684   6.048   4.232  1.7364  1.4615 -0.8121
   13CHTO    O6 5463   4.795   6.153   4.375 -0.6164 -0.2649 -0.3314
   13CHTO    H1 5464   4.819   6.077   4.425  0.8233  2.5834  3.6270
   13CHTO    C3 5465   4.553   6.109   4.404  0.1171 -0.3360 -0.0085
   13CHTO   H16 5466   4.556   6.186   4.482  0.2947 -2.3778  2.0233
   13CHTO    N1 5467   4.554   5.971   4.453  0.6759  0.7144  0.2097
   13CHTO    H8 5468   4.485   5.970   4.536  0.4306  1.8074  0.0347
   13CHTO    H9 5469   4.655   5.945   4.483  0.6281  1.0171  0.6366
   13CHTO    C4 5470   4.411   6.133   4.335  0.0171  0.7240 -0.6797
   13CHTO   H17 5471   4.388   6.045   4.274  1.8597 -0.8966  0.9075
   13CHTO    O1 5472   4.412   6.251   4.258 -0.2444  0.0665 -0.3885
   13CHTO    C5 5473   4.516   6.263   4.155  0.4467  0.3621 -0.9695
   13CHTO   H18 5474   4.515   6.175   4.091  1.5446 -1.4284  1.3799
   13CHTO   C16 5475   4.499   6.395   4.072  0.0485 -0.4314  0.3747
   13CHTO   O11 5476   4.484   6.510   4.158  0.2321 -0.0768  1.0536
   13CHTO    H5 5477   4.557   6.568   4.144  0.2038 -0.4499 -0.7515
   13CHTO    O3 5478   4.316   6.165   4.439  0.2743  0.1434 -0.1764
   13CHTO    C6 5479   4.186   6.097   4.448  0.2878 -0.1211 -0.4539
   13CHTO   H19 5480   4.161   6.018   4.378  0.7784  0.1242 -0.9081
   13CHTO    C8 5481   4.178   6.018   4.575  0.0145  0.9224  0.1161
   13CHTO   H21 5482   4.214   6.085   4.653  1.2842 -0.0055  0.3441
   13CHTO    O7 5483   4.271   5.908   4.573  0.0665 -0.2207  0.4188
   13CHTO    H2 5484   4.240   5.844   4.635  0.8638 -0.2907  0.7446
   13CHTO   C12 5485   4.029   5.975   4.611  0.1375 -0.5916  0.8394
   13CHTO   H25 5486   4.004   5.890   4.544 -1.4689  0.1289  0.4952
   13CHTO    N3 5487   4.020   5.924   4.749  0.9732 -0.1810 -0.5752
   13CHTO   H12 5488   4.069   5.993   4.815 -2.8778 -0.8166  3.2034
   13CHTO   H13 5489   3.916   5.908   4.776  1.4356 -1.1050  0.7184
   13CHTO   C15 5490   3.927   6.095   4.588 -0.1171  0.3137 -0.3257
   13CHTO   H28 5491   3.938   6.179   4.657 -2.2106 -1.3311  2.1240
   13CHTO   O10 5492   3.795   6.059   4.592  0.0716  0.1724  0.0378
   13CHTO    H4 5493   3.761   6.021   4.671 -0.6491  1.1472  0.2093
   13CHTO    O5 5494   3.946   6.139   4.452 -0.8251  0.5835 -0.4449
   13CHTO   C10 5495   4.073   6.205   4.430 -0.1621 -0.8647 -0.0623
   13CHTO   H23 5496   4.096   6.283   4.502  0.2249  1.2258 -2.3734
   13CHTO   C17 5497   4.068   6.269   4.288  0.6248 -0.1752 -0.4833
   13CHTO   O12 5498   4.171   6.368   4.251 -0.4537  0.2885  0.5987
   13CHTO    H6 5499   4.166   6.396   4.162 -0.1749  0.8046  0.7469
   14CHTO  H203 5500   5.503   4.280   3.156 -0.2619 -1.7390 -0.7157
   14CHTO   O82 5501   5.583   4.270   3.205 -0.4190 -0.5295 -0.2018
   14CHTO  C123 5502   5.614   4.129   3.219 -0.4458  0.3311 -0.6476
   14CHTO  H227 5503   5.721   4.124   3.246 -0.2102  0.6741 -1.4798
   14CHTO   O77 5504   5.543   4.094   3.339  0.0861  0.0767 -0.3399
   14CHTO  C118 5505   5.548   3.957   3.385 -0.0093  0.3077  0.4636
   14CHTO  H222 5506   5.646   3.941   3.431  0.5320 -0.0413 -0.8041
   14CHTO  C125 5507   5.436   3.943   3.490 -0.3239  0.5068 -0.1609
   14CHTO   O84 5508   5.465   4.011   3.612  0.3061  1.1241  0.1920
   14CHTO  H205 5509   5.523   3.957   3.663  1.1755 -0.6501 -2.5897
   14CHTO  C114 5510   5.520   3.858   3.276 -0.5381  0.7269  0.2271
   14CHTO  H218 5511   5.418   3.869   3.237 -0.6309 -0.5643  0.0886
   14CHTO  C116 5512   5.613   3.897   3.148  0.0091  0.8851 -0.1987
   14CHTO  H220 5513   5.719   3.878   3.174  0.9313  1.7096 -3.1506
   14CHTO   O79 5514   5.588   3.797   3.047  0.5685  0.6402  0.3162
   14CHTO  H201 5515   5.579   3.835   2.961 -0.2919  0.4713  0.3288
   14CHTO  C120 5516   5.579   4.043   3.095  0.8523  0.4752 -0.5924
   14CHTO  H224 5517   5.471   4.034   3.070  1.4135 -2.3394 -2.3313
   14CHTO   N21 5518   5.653   4.093   2.978 -0.3350  0.2223 -0.2496
   14CHTO  H211 5519   5.732   4.158   3.011  0.3649 -1.6112  1.8612
   14CHTO  H212 5520   5.597   4.130   2.893 -1.0743 -1.3182 -0.4693
   14CHTO   O75 5521   5.532   3.728   3.333 -0.0368  0.0583 -0.0156
   14CHTO  C112 5522   5.430   3.590   3.264 -0.3345 -0.3363  0.3537
   14CHTO  H216 5523   5.446   3.500   3.325 -0.8860 -0.4654  0.3005
   14CHTO   O73 5524   5.472   3.575   3.130 -0.3730 -0.1042  0.2020
   14CHTO  C113 5525   5.408   3.473   3.053  0.0694  0.2340 -0.0083
   14CHTO  H217 5526   5.425   3.376   3.104  0.0232  0.7811  1.0578
   14CHTO  C124 5527   5.459   3.474   2.912 -0.1330 -0.5625  0.8103
   14CHTO   O83 5528   5.587   3.419   2.895  0.0475  0.4384  0.1972
   14CHTO  H204 5529   5.579   3.327   2.911  0.1697  0.5394  0.8416
   14CHTO  C109 5530   5.255   3.492   3.065 -0.3638 -0.1026 -0.7513
   14CHTO  H213 5531   5.231   3.590   3.021  2.8371  1.1294  0.0948
   14CHTO  C110 5532   5.198   3.497   3.213 -0.1657 -0.0600  0.5677
   14CHTO  H214 5533   5.227   3.401   3.256 -3.3200 -0.8078  1.1424
   14CHTO   O78 5534   5.049   3.507   3.210  0.5152 -0.4261  0.1164
   14CHTO  H200 5535   5.032   3.581   3.156  2.0532 -1.6828 -2.1688
   14CHTO  C111 5536   5.272   3.616   3.279  0.3723 -0.0196 -0.2951
   14CHTO  H215 5537   5.238   3.710   3.232 -0.5267 -0.0020  0.3620
   14CHTO   N19 5538   5.234   3.622   3.425  1.0058  0.1928 -0.2951
   14CHTO  H207 5539   5.140   3.573   3.448  0.7131  0.4909 -0.8549
   14CHTO  H208 5540   5.247   3.722   3.465  1.6769 -0.5687  1.4179
   14CHTO   O74 5541   5.195   3.384   2.988  0.1369 -0.4181 -0.1096
   14CHTO  C115 5542   5.132   3.428   2.851 -0.0628 -0.0879  0.6897
   14CHTO  H219 5543   5.147   3.534   2.831 -1.1072 -0.0018  0.3261
   14CHTO   O76 5544   5.206   3.346   2.725 -0.2281 -0.2929 -0.2024
   14CHTO  C122 5545   5.143   3.382   2.600  0.8637  0.1355  0.2999
   14CHTO  H226 5546   5.181   3.317   2.521 -1.1834 -0.2485 -0.4174
   14CHTO  C126 5547   5.196   3.522   2.564  0.0248  0.1337  0.9527
   14CHTO   O85 5548   5.126   3.577   2.451 -0.2892  0.1738  0.2189
   14CHTO  H206 5549   5.162   3.533   2.376  1.6844 -2.6419  2.7163
   14CHTO  C121 5550   4.983   3.358   2.598 -0.3318  0.1958 -0.3761
   14CHTO  H225 5551   4.949   3.392   2.498 -1.7118  1.6437  0.5558
   14CHTO   O81 5552   4.937   3.221   2.596  0.1419  0.0461  0.3265
   14CHTO  H202 5553   4.981   3.171   2.530 -2.7151 -0.9727 -0.9145
   14CHTO  C119 5554   4.915   3.443   2.712  0.2973 -0.2964  0.4094
   14CHTO  H223 5555   4.943   3.545   2.686 -0.5990 -0.4123 -1.1001
   14CHTO  C117 5556   4.978   3.408   2.855  0.0535  0.7776  0.2245
   14CHTO  H221 5557   4.966   3.303   2.881  1.1002  1.5208  3.9924
   14CHTO   N20 5558   4.913   3.485   2.961  0.1279  0.7432  0.2303
   14CHTO  H209 5559   4.805   3.489   2.956  0.0037 -0.9634  1.0043
   14CHTO  H210 5560   4.948   3.471   3.063 -0.4965  1.3395  0.5310
   14CHTO   O80 5561   4.756   3.446   2.692 -0.7943 -0.3603 -0.0415
   14CHTO  C103 5562   4.694   3.568   2.619 -0.7269 -0.6006  0.2434
   14CHTO  H190 5563   4.760   3.655   2.620  1.6582 -2.3540  2.6231
   14CHTO  C101 5564   4.647   3.542   2.472 -0.1705  0.0511  0.8933
   14CHTO  H188 5565   4.576   3.460   2.476  1.8487 -1.7812  0.1249
   14CHTO   O68 5566   4.762   3.501   2.380 -0.1719 -0.5030  0.1161
   14CHTO  H168 5567   4.719   3.478   2.299 -2.2772 -0.0342  1.0521
   14CHTO   C99 5568   4.570   3.676   2.414  0.5826 -0.2463  0.3604
   14CHTO  H186 5569   4.645   3.757   2.401  0.0634  0.3117  0.7856
   14CHTO   N17 5570   4.505   3.660   2.279  0.1267  0.4161 -0.1145
   14CHTO  H174 5571   4.426   3.587   2.286  2.1694 -1.8218 -0.0062
   14CHTO  H175 5572   4.473   3.756   2.240  2.7218  1.9855  1.3934
   14CHTO   C97 5573   4.463   3.721   2.518 -0.7240 -0.1706 -0.0549
   14CHTO  H184 5574   4.367   3.670   2.504 -0.8420 -0.3092  1.2161
   14CHTO   O64 5575   4.503   3.723   2.656 -0.2448  0.4203  0.1896
   14CHTO  C104 5576   4.564   3.604   2.708  0.4027 -0.9819  0.3710
   14CHTO  H191 5577   4.491   3.523   2.699  0.5575 -0.7907 -2.9369
   14CHTO  C108 5578   4.596   3.616   2.857  0.3614  0.2646  0.6160
   14CHTO   O71 5579   4.503   3.685   2.944 -0.7317  0.1876 -0.5593
   14CHTO  H171 5580   4.540   3.688   3.030 -0.6510  0.0606 -0.5893
   14CHTO   O62 5581   4.442   3.865   2.500  0.4598 -0.0621  0.8345
   14CHTO   C91 5582   4.330   3.923   2.571 -0.1194  0.2562  0.0956
   14CHTO  H178 5583   4.272   3.845   2.621 -2.6611  1.7195 -0.5191
   14CHTO   C92 5584   4.226   3.983   2.470  0.5575 -0.0842  0.0565
   14CHTO  H179 5585   4.195   3.906   2.398  3.2502 -0.2546 -0.9568
   14CHTO   O66 5586   4.105   3.997   2.538  0.0087 -0.6409 -0.0401
   14CHTO  H166 5587   4.039   4.039   2.487  0.3406  1.3319  1.0943
   14CHTO   C93 5588   4.274   4.126   2.415 -0.2649  0.0907 -0.6708
   14CHTO  H180 5589   4.182   4.185   2.408  1.0011  1.9999 -1.6447
   14CHTO   N16 5590   4.320   4.118   2.275  0.1928  0.1934  0.1183
   14CHTO  H172 5591   4.415   4.068   2.265  0.2049  0.6720 -2.4884
   14CHTO  H173 5592   4.314   4.214   2.226 -1.2613  0.9726  1.7349
   14CHTO   C94 5593   4.373   4.203   2.514 -0.1403  0.2221 -0.4224
   14CHTO  H181 5594   4.477   4.186   2.489 -0.1722 -2.2391  0.9364
   14CHTO   O61 5595   4.346   4.165   2.649  0.4771 -0.3267  0.2271
   14CHTO   C95 5596   4.374   4.032   2.678 -0.7676  0.0790  0.1105
   14CHTO  H182 5597   4.482   4.016   2.685 -0.5939  1.8100  2.0003
   14CHTO  C106 5598   4.312   4.014   2.815  0.3207 -0.5636  0.4460
   14CHTO   O69 5599   4.357   4.111   2.913  0.4142  0.4212 -0.3067
   14CHTO  H169 5600   4.332   4.084   3.000  3.7674  2.4452  1.3733
   14CHTO   O63 5601   4.341   4.346   2.500 -0.2983  0.3106  0.2947
   14CHTO   C96 5602   4.451   4.467   2.532 -0.0226 -0.4404  0.6486
   14CHTO  H183 5603   4.409   4.565   2.512  1.2961 -0.1179 -0.6689
   14CHTO   C98 5604   4.574   4.443   2.449 -0.7117  0.0274 -0.2632
   14CHTO  H185 5605   4.604   4.338   2.462  0.3646  0.4584  0.8317
   14CHTO   O67 5606   4.532   4.459   2.312 -0.0212  0.0068 -0.5395
   14CHTO  H167 5607   4.609   4.459   2.259  0.4703 -0.9129  0.1589
   14CHTO  C102 5608   4.697   4.532   2.487  0.2431 -0.1827  0.3260
   14CHTO  H189 5609   4.663   4.633   2.459  0.6741 -0.2176 -0.3192
   14CHTO   N18 5610   4.825   4.514   2.405  0.2842 -0.0232 -0.3196
   14CHTO  H176 5611   4.802   4.523   2.300  1.7608  0.5322 -0.6138
   14CHTO  H177 5612   4.894   4.592   2.435 -0.5797 -0.1858  2.2381
   14CHTO  C105 5613   4.723   4.520   2.642  0.0354 -0.8043 -0.1166
   14CHTO  H192 5614   4.759   4.419   2.660 -0.5198 -0.7815  1.1701
   14CHTO   O65 5615   4.606   4.535   2.719 -0.2114  0.0129 -0.0194
   14CHTO  C100 5616   4.493   4.445   2.689  0.1149  0.3943  0.3605
   14CHTO  H187 5617   4.527   4.343   2.713  0.2471  0.5221  0.7297
   14CHTO  C107 5618   4.366   4.478   2.777  0.1962  0.0316  0.2164
   14CHTO   O70 5619   4.396   4.488   2.911 -0.1311 -0.0439 -0.3310
   14CHTO  H170 5620   4.326   4.534   2.955 -0.1115 -1.0539  0.7854
   14CHTO   O57 5621   4.821   4.638   2.677 -0.3490  0.3884  0.4314
   14CHTO   C85 5622   4.862   4.659   2.815  0.1903 -0.1488  0.1560
   14CHTO  H157 5623   4.810   4.577   2.869 -1.2530 -0.2283 -1.3299
   14CHTO   C83 5624   4.790   4.789   2.873  0.6863 -0.3505  0.0970
   14CHTO  H155 5625   4.682   4.771   2.872  0.6115  0.0467  1.1017
   14CHTO   O56 5626   4.822   4.901   2.785  0.1585  0.1558  0.2663
   14CHTO  H135 5627   4.770   4.976   2.809 -0.2723 -0.6406  1.9022
   14CHTO   C81 5628   4.841   4.810   3.015  0.2553  0.6292 -0.3216
   14CHTO  H153 5629   4.810   4.724   3.073  1.5615  0.3850  0.0242
   14CHTO   N14 5630   4.772   4.923   3.085  0.5118 -0.1021  0.4738
   14CHTO  H141 5631   4.779   5.016   3.032  1.8582  0.0199  0.8412
   14CHTO  H142 5632   4.670   4.895   3.101  0.5990 -0.3212  0.6538
   14CHTO   C79 5633   5.001   4.824   3.021 -0.0105 -0.0428 -0.2414
   14CHTO  H151 5634   5.027   4.810   3.126 -1.0421 -1.8562 -0.2094
   14CHTO   O52 5635   5.067   4.706   2.974 -0.5609 -0.2926  0.1873
   14CHTO   C86 5636   5.026   4.665   2.842  0.0196 -0.1976  0.6847
   14CHTO  H158 5637   5.068   4.740   2.771 -0.0653 -2.2174 -1.5379
   14CHTO   C90 5638   5.110   4.532   2.823  0.7224  0.3207  0.6087
   14CHTO   O60 5639   5.075   4.470   2.700  0.3520  0.2078 -0.4846
   14CHTO  H138 5640   5.091   4.377   2.707 -0.0333  0.2460  1.2681
   14CHTO   O50 5641   5.059   4.949   2.978 -0.2109 -0.8018 -0.3646
   14CHTO   C73 5642   5.169   5.040   2.971 -0.0159 -0.1176 -0.9865
   14CHTO  H145 5643   5.236   5.017   3.055 -0.8361 -1.0292 -0.5863
   14CHTO   C74 5644   5.117   5.189   2.974  0.6450  0.0327  0.3232
   14CHTO  H146 5645   5.065   5.194   3.071 -0.1032  0.9351 -0.1164
   14CHTO   O54 5646   5.227   5.279   2.983 -0.5861  0.5448 -0.0767
   14CHTO  H133 5647   5.192   5.365   2.991 -4.2422 -0.7080 -1.6783
   14CHTO   C75 5648   5.021   5.211   2.854 -0.1529 -0.1836  0.0643
   14CHTO  H147 5649   4.938   5.138   2.853 -1.0420  0.8143 -0.2443
   14CHTO   N13 5650   4.961   5.347   2.848  0.0449  0.0190  0.6247
   14CHTO  H139 5651   5.039   5.422   2.843 -0.0497  0.1251  0.7438
   14CHTO  H140 5652   4.889   5.370   2.925 -1.5869 -0.1114 -0.8157
   14CHTO   C76 5653   5.103   5.177   2.717 -0.2358 -0.3740  0.4969
   14CHTO  H148 5654   5.175   5.255   2.694  0.0199 -0.3917  1.2429
   14CHTO   O49 5655   5.169   5.044   2.722  0.2450  0.4379  0.2336
   14CHTO   C77 5656   5.251   5.019   2.837 -0.0371  0.2512  0.4654
   14CHTO  H149 5657   5.337   5.086   2.839  0.6738 -0.6450  0.2022
   14CHTO   C88 5658   5.323   4.880   2.817  0.2622  0.6826 -0.3826
   14CHTO   O58 5659   5.406   4.852   2.932  0.2833 -0.1361 -0.1499
   14CHTO  H136 5660   5.412   4.761   2.953 -0.1343 -0.2967 -0.7285
   14CHTO   O51 5661   5.016   5.172   2.587  0.3580 -0.1535  0.4595
   14CHTO   C78 5662   5.104   5.141   2.455  0.2543  0.1326 -0.2649
   14CHTO  H150 5663   5.202   5.096   2.483  0.0653 -0.1995 -0.1379
   14CHTO   C80 5664   5.134   5.266   2.376 -0.0501 -0.3202 -0.3525
   14CHTO  H152 5665   5.038   5.318   2.355 -0.6855 -0.5432  1.8550
   14CHTO   O55 5666   5.207   5.361   2.461  0.2722 -0.1674  0.5782
   14CHTO  H134 5667   5.207   5.443   2.415 -2.7967  0.5398  1.7201
   14CHTO   C84 5668   5.219   5.235   2.244  0.6284  0.0835  0.7762
   14CHTO  H156 5669   5.323   5.213   2.268  1.0967 -0.6067 -1.7772
   14CHTO   N15 5670   5.233   5.357   2.159  0.4076  0.4426  0.0857
   14CHTO  H143 5671   5.338   5.378   2.151  1.0739 -2.4655  0.3195
   14CHTO  H144 5672   5.186   5.439   2.208  0.8531  0.5148  0.4031
   14CHTO   C87 5673   5.152   5.120   2.173  0.4999  1.0937  0.5594
   14CHTO  H159 5674   5.063   5.159   2.123  0.7372 -1.2824 -1.8457
   14CHTO   O53 5675   5.114   5.002   2.262 -0.0238 -0.2167 -0.1864
   14CHTO   C82 5676   5.025   5.038   2.367  0.9657  0.5600 -0.0803
   14CHTO  H154 5677   4.936   5.087   2.328 -0.8029 -0.5711  2.4020
   14CHTO   C89 5678   4.976   4.905   2.438 -0.4755 -0.1560 -0.1245
   14CHTO   O59 5679   5.075   4.854   2.529 -0.4342  0.0128 -0.4373
   14CHTO  H137 5680   5.030   4.809   2.598 -0.8324  0.8424 -0.1418
   14CHTO   O45 5681   5.258   5.083   2.045 -0.1260  0.2655  0.0391
   14CHTO   C67 5682   5.322   4.955   2.066 -0.1607 -0.1999 -0.1062
   14CHTO  H124 5683   5.282   4.901   2.152 -2.5758 -0.3714 -1.2767
   14CHTO   C65 5684   5.299   4.860   1.941 -0.6564 -0.0987 -0.7216
   14CHTO  H122 5685   5.193   4.867   1.915 -0.3909  0.1073 -1.7339
   14CHTO   O44 5686   5.326   4.724   1.973  0.0397 -0.3261 -0.2156
   14CHTO  H102 5687   5.417   4.709   1.993  0.0849 -0.3650 -0.4472
   14CHTO   C63 5688   5.364   4.932   1.821 -0.0424 -0.2906 -0.9104
   14CHTO  H120 5689   5.324   5.033   1.812  0.2928 -0.1552 -0.8552
   14CHTO   N11 5690   5.332   4.874   1.684  0.3602  0.2479  0.2915
   14CHTO  H108 5691   5.418   4.836   1.634 -0.8294 -0.9146 -0.9037
   14CHTO  H109 5692   5.280   4.782   1.701  0.8908  0.3927  2.9764
   14CHTO   C61 5693   5.524   4.947   1.848 -0.2997 -0.5528 -0.1907
   14CHTO  H118 5694   5.572   5.008   1.769  1.2296 -0.4281  0.8148
   14CHTO   O40 5695   5.550   5.018   1.977  0.5504 -0.0477  0.2681
   14CHTO   C68 5696   5.478   4.972   2.094  0.1374 -0.9881  0.5028
   14CHTO  H125 5697   5.488   5.056   2.166 -1.7929  0.5566 -0.9717
   14CHTO   C72 5698   5.542   4.842   2.159 -0.8470 -0.6736 -0.4709
   14CHTO   O48 5699   5.667   4.866   2.223  0.6514 -0.3788  0.6019
   14CHTO  H105 5700   5.681   4.797   2.286  0.6918 -1.6277 -0.7629
   14CHTO   O38 5701   5.592   4.817   1.850  0.4215  0.3113  0.2318
   14CHTO   C55 5702   5.718   4.803   1.781  0.6498  0.1685  0.4514
   14CHTO  H112 5703   5.742   4.892   1.722 -1.2786  0.5920  0.2567
   14CHTO   C56 5704   5.706   4.675   1.690  0.3951 -0.0201 -0.1661
   14CHTO  H113 5705   5.682   4.593   1.759 -0.5635  1.1524  0.9172
   14CHTO   O42 5706   5.599   4.694   1.591 -0.4662 -0.0790  0.2724
   14CHTO  H100 5707   5.522   4.732   1.628 -0.7145 -0.1027 -0.2095
   14CHTO   C57 5708   5.847   4.643   1.621 -0.2064  0.3951 -0.2532
   14CHTO  H114 5709   5.863   4.734   1.562  0.1124 -0.0358 -0.8410
   14CHTO   N10 5710   5.841   4.523   1.536  0.3444 -0.5493 -0.5386
   14CHTO  H106 5711   5.777   4.451   1.584 -0.5340 -0.5827 -1.7426
   14CHTO  H107 5712   5.796   4.549   1.442  1.0459 -0.4432 -0.8450
   14CHTO   C58 5713   5.960   4.639   1.725 -0.1128  0.7895 -0.6893
   14CHTO  H115 5714   5.947   4.550   1.791  1.6816  1.4505  0.5931
   14CHTO   O37 5715   5.950   4.752   1.812  0.1512  0.4234  0.2311
   14CHTO   C59 5716   5.828   4.776   1.886 -0.8230  0.1364 -0.7437
   14CHTO  H116 5717   5.806   4.680   1.934  0.1307 -1.6026 -3.6628
   14CHTO   C70 5718   5.872   4.898   1.973  0.0541  0.0732 -0.0264
   14CHTO   O46 5719   5.964   4.863   2.073  0.3383 -0.0030 -0.5971
   14CHTO  H103 5720   6.051   4.864   2.039  0.5408  1.3989 -0.0493
   14CHTO   O39 5721   6.105   4.637   1.652  0.1808 -0.2003 -0.1945
   14CHTO   C60 5722   6.194   4.547   1.713 -0.2206 -0.0919 -0.0864
   14CHTO  H117 5723   6.205   4.559   1.821 -0.9645 -1.6575  0.1786
   14CHTO   C62 5724   6.158   4.395   1.698 -0.0221  0.8763 -0.1630
   14CHTO  H119 5725   6.072   4.383   1.768  0.6235 -0.6169  0.3995
   14CHTO   O43 5726   6.117   4.358   1.569 -0.1588  0.3715  0.3980
   14CHTO  H101 5727   6.080   4.272   1.570  0.9559 -0.1217 -0.1197
   14CHTO   C66 5728   6.274   4.303   1.760 -0.2028 -0.1200 -0.3512
   14CHTO  H123 5729   6.291   4.339   1.861 -0.6979 -0.9114  0.0154
   14CHTO   N12 5730   6.237   4.155   1.774 -0.0945 -0.7147  0.0085
   14CHTO  H110 5731   6.302   4.105   1.845 -0.8152 -1.9288 -0.1736
   14CHTO  H111 5732   6.239   4.104   1.678  1.9040  0.6536 -0.7349
   14CHTO   C69 5733   6.412   4.317   1.695  0.7941  1.0163  0.0747
   14CHTO  H126 5734   6.411   4.290   1.587  0.5014 -1.6290  0.6973
   14CHTO   O41 5735   6.440   4.480   1.708 -0.3478 -0.3712  0.2524
   14CHTO   C64 5736   6.339   4.571   1.649 -0.3503 -0.6991 -0.4457
   14CHTO  H121 5737   6.331   4.549   1.541 -1.1304 -1.7818 -0.1738
   14CHTO   C71 5738   6.376   4.711   1.681 -0.0730 -0.5710 -0.4328
   14CHTO   O47 5739   6.499   4.745   1.622 -0.0856 -0.1569  0.0964
   14CHTO  H104 5740   6.495   4.744   1.528 -0.0152 -0.9954  0.0956
   14CHTO   O34 5741   6.550   4.242   1.770  0.0024 -0.0418  0.8217
   14CHTO   C49 5742   6.688   4.202   1.714 -0.5556 -0.4670  0.1895
   14CHTO   H91 5743   6.664   4.103   1.675 -1.0156 -0.7524  1.1842
   14CHTO   C47 5744   6.791   4.170   1.827 -0.0817 -0.2861 -0.2080
   14CHTO   H89 5745   6.867   4.103   1.782 -0.1662 -0.1827 -0.5080
   14CHTO   O33 5746   6.732   4.095   1.936 -0.1756 -0.0958  0.0044
   14CHTO   H70 5747   6.640   4.112   1.935 -0.0828  0.7238  2.5622
   14CHTO   C45 5748   6.863   4.304   1.886 -0.0797 -1.2095  0.5609
   14CHTO   H87 5749   6.805   4.326   1.977 -0.3788  0.8759 -0.0979
   14CHTO    N8 5750   6.999   4.265   1.920 -0.8709 -0.0795 -0.1401
   14CHTO   H75 5751   7.000   4.171   1.972  1.4306 -0.8606 -1.4956
   14CHTO   H76 5752   7.067   4.279   1.837 -0.5718  0.7564  0.2409
   14CHTO   C43 5753   6.839   4.428   1.788 -0.3004  1.0636 -0.2782
   14CHTO   H85 5754   6.737   4.457   1.813 -2.5388 -2.5946 -4.4919
   14CHTO   O29 5755   6.850   4.384   1.649 -0.3162 -0.5834  0.0467
   14CHTO   C50 5756   6.747   4.296   1.603  0.2393  0.3315 -0.1732
   14CHTO   H92 5757   6.667   4.352   1.553 -0.9459 -2.8102 -1.9096
   14CHTO   C54 5758   6.800   4.220   1.477  0.3219 -0.0743 -0.1496
   14CHTO   O36 5759   6.811   4.300   1.362 -0.3712  0.0585  0.2656
   14CHTO   H72 5760   6.856   4.250   1.296  0.7207  0.9965  0.2732
   14CHTO   O27 5761   6.920   4.545   1.813 -0.3075 -0.0555 -0.1406
   14CHTO   C37 5762   6.911   4.688   1.827  0.0449 -0.1357 -0.2648
   14CHTO   H79 5763   7.013   4.726   1.846 -0.1515  0.0471  0.4370
   14CHTO   C38 5764   6.848   4.752   1.698  1.1200 -0.2103  0.6491
   14CHTO   H80 5765   6.753   4.703   1.672  1.1174  0.3165 -0.3540
   14CHTO   O31 5766   6.942   4.732   1.587  0.5564  0.4282 -0.5051
   14CHTO   H68 5767   6.955   4.642   1.564  0.2844  0.4150 -0.6086
   14CHTO   C39 5768   6.828   4.904   1.720  0.3535 -0.6040  0.2940
   14CHTO   H81 5769   6.928   4.947   1.727  0.0798 -0.4089  3.3948
   14CHTO    N7 5770   6.767   4.980   1.600  0.2495  0.1363 -1.0029
   14CHTO   H73 5771   6.839   4.989   1.520  0.2173 -1.0213 -1.1705
   14CHTO   H74 5772   6.671   4.943   1.566 -0.4806  1.6377 -0.5941
   14CHTO   C40 5773   6.757   4.937   1.854  0.2705  0.1376 -0.4161
   14CHTO   H82 5774   6.653   4.903   1.848  0.3344  0.1509 -1.7107
   14CHTO   O26 5775   6.832   4.868   1.954  0.4674 -0.2107 -0.2398
   14CHTO   C41 5776   6.828   4.724   1.949 -0.2290 -0.6710  0.0280
   14CHTO   H83 5777   6.726   4.681   1.941 -0.7309  0.1421  1.7640
   14CHTO   C52 5778   6.894   4.678   2.090  0.3443  0.5647  0.1445
   14CHTO   O35 5779   6.817   4.734   2.224  0.2301 -0.1720 -0.1412
   14CHTO   H71 5780   6.849   4.820   2.242  1.8111 -0.8262  0.2287
   14CHTO   O28 5781   6.766   5.075   1.889  0.5077  0.0206  0.0441
   14CHTO   C42 5782   6.679   5.130   1.995 -0.5967  0.3727  0.1080
   14CHTO   H84 5783   6.708   5.234   2.005  1.2514 -0.1942  0.8622
   14CHTO   C44 5784   6.699   5.075   2.141 -0.1056  0.2611  0.5306
   14CHTO   H86 5785   6.686   4.967   2.137 -0.6774  0.4058 -2.5551
   14CHTO   O32 5786   6.838   5.105   2.175  0.5620 -0.1359  0.2909
   14CHTO   H69 5787   6.871   5.063   2.252  0.8091  0.3891  0.4747
   14CHTO   C48 5788   6.595   5.137   2.242 -0.8196 -0.2061  0.2933
   14CHTO   H90 5789   6.618   5.243   2.248 -2.4688  0.2045 -0.4139
   14CHTO    N9 5790   6.615   5.084   2.380 -0.0444  0.1826  0.3878
   14CHTO   H77 5791   6.712   5.118   2.413  0.6020  0.9065 -2.1270
   14CHTO   H78 5792   6.536   5.110   2.449  1.1417  1.1255  1.4207
   14CHTO   C51 5793   6.450   5.132   2.181  0.2018  1.0179  0.0618
   14CHTO   H93 5794   6.419   5.028   2.179  1.7048  0.5663 -1.0502
   14CHTO   O30 5795   6.454   5.192   2.049  0.0767  0.3052 -0.3432
   14CHTO   C46 5796   6.533   5.127   1.957 -0.2899  0.1742  0.2486
   14CHTO   H88 5797   6.504   5.022   1.958  0.0931  0.0482 -0.6514
   14CHTO   C53 5798   6.494   5.190   1.814 -0.4783 -0.0069 -0.3290
   14CHTO   O72 5799   6.547   5.320   1.803 -0.0880 -0.1171 -0.0853
   14CHTO  H199 5800   6.477   5.373   1.770 -1.3597 -1.4815  0.3848
   14CHTO   O22 5801   6.350   5.210   2.250 -0.0791 -0.1281  0.3695
   14CHTO   C31 5802   6.208   5.160   2.262 -0.3555 -0.0775 -0.3371
   14CHTO   H59 5803   6.198   5.080   2.185 -0.4033 -0.5670  0.1778
   14CHTO   C29 5804   6.176   5.093   2.397 -0.3731 -0.4697 -0.0340
   14CHTO   H57 5805   6.195   5.175   2.468 -0.2704  1.3694 -2.1456
   14CHTO   O21 5806   6.272   4.991   2.414 -0.9950 -0.5655 -0.2443
   14CHTO   H37 5807   6.238   4.937   2.482  0.6755 -0.3540  0.8053
   14CHTO   C27 5808   6.028   5.043   2.406 -0.9399 -0.2307 -0.7328
   14CHTO   H55 5809   6.016   4.962   2.333  0.2260  0.1573 -1.3778
   14CHTO    N5 5810   5.989   4.981   2.541  0.5356 -0.2508 -0.3558
   14CHTO   H43 5811   6.066   4.914   2.575  2.1317  0.6289 -2.0929
   14CHTO   H44 5812   5.890   4.940   2.534 -0.2116  1.4466 -0.1124
   14CHTO   C25 5813   5.931   5.156   2.365  0.1759  0.5395  0.5904
   14CHTO   H53 5814   5.934   5.239   2.437  0.8474  1.2170 -0.2194
   14CHTO   O17 5815   5.971   5.210   2.237 -0.3416 -0.8232 -0.1922
   14CHTO   C32 5816   6.104   5.262   2.216 -0.8370  0.3257 -0.0021
   14CHTO   H60 5817   6.118   5.354   2.273 -0.3607  0.1085  0.2338
   14CHTO   C36 5818   6.113   5.294   2.064 -0.1799 -0.2225  0.2476
   14CHTO   O25 5819   6.240   5.337   2.009  0.4067 -0.2511  0.4887
   14CHTO   H40 5820   6.239   5.326   1.916  1.1164 -0.0657  0.4524
   14CHTO   O15 5821   5.779   5.112   2.357 -0.5914  0.2827 -0.4683
   14CHTO   C19 5822   5.664   5.182   2.411  0.3861 -0.3213  0.2541
   14CHTO   H47 5823   5.580   5.124   2.371  0.1579  2.2058 -3.2597
   14CHTO   C20 5824   5.660   5.187   2.566  0.0842 -0.1310 -1.2020
   14CHTO   H48 5825   5.752   5.229   2.609 -1.1127  0.1908  1.0829
   14CHTO   O19 5826   5.648   5.053   2.615  0.1171  0.3763 -0.1019
   14CHTO   H35 5827   5.725   4.999   2.620  0.9394  1.4344 -1.1390
   14CHTO   C21 5828   5.551   5.283   2.621  0.3242  0.3661 -0.3002
   14CHTO   H49 5829   5.451   5.239   2.611 -0.8277  2.8387 -0.0827
   14CHTO    N4 5830   5.554   5.294   2.768  0.3548  0.0598  0.4893
   14CHTO   H41 5831   5.496   5.228   2.830  0.9748 -1.2484 -0.2845
   14CHTO   H42 5832   5.537   5.396   2.799  0.0502  0.3145 -0.5050
   14CHTO   C22 5833   5.554   5.421   2.554 -0.1848 -0.1742  0.0527
   14CHTO   H50 5834   5.655   5.459   2.572 -0.5372  0.5694  0.5062
   14CHTO   O14 5835   5.540   5.399   2.415 -0.1919 -0.1837  0.0880
   14CHTO   C23 5836   5.646   5.325   2.348 -0.5048  0.4894 -0.4488
   14CHTO   H51 5837   5.739   5.384   2.357  0.3316 -0.7799 -0.6651
   14CHTO   C34 5838   5.604   5.333   2.203  0.0308  0.1208  0.0074
   14CHTO   O23 5839   5.689   5.267   2.109 -0.9179 -0.1128 -0.1239
   14CHTO   H38 5840   5.650   5.268   2.023  0.8334 -0.3827 -0.9595
   14CHTO   O16 5841   5.445   5.516   2.592 -0.0646 -0.3046 -0.3022
   14CHTO   C24 5842   5.487   5.659   2.581  0.1287 -0.4991 -0.6906
   14CHTO   H52 5843   5.553   5.675   2.495  0.9681  0.5473  0.1232
   14CHTO   C26 5844   5.562   5.697   2.707  0.2819 -0.1531 -1.1512
   14CHTO   H54 5845   5.505   5.658   2.794  1.2332  0.7480 -0.1108
   14CHTO   O20 5846   5.695   5.641   2.706 -0.4836 -0.3493  0.0091
   14CHTO   H36 5847   5.728   5.611   2.624  1.5776 -0.9523  1.0344
   14CHTO   C30 5848   5.575   5.849   2.742 -0.5622 -0.4901 -0.3726
   14CHTO   H58 5849   5.653   5.882   2.671  1.6652 -1.8310  1.3822
   14CHTO    N6 5850   5.613   5.881   2.882  0.0678 -0.2347 -0.0050
   14CHTO   H45 5851   5.532   5.852   2.947  0.3975 -0.1896  0.4289
   14CHTO   H46 5852   5.706   5.835   2.912  1.2163  1.0438 -1.4714
   14CHTO   C33 5853   5.457   5.932   2.696  0.0798  0.4663 -0.5768
   14CHTO   H61 5854   5.372   5.921   2.766 -0.5689 -1.6315 -1.6255
   14CHTO   O18 5855   5.409   5.887   2.570  0.1168  0.4795  0.4428
   14CHTO   C28 5856   5.366   5.747   2.564 -0.4216 -0.2354 -0.5038
   14CHTO   H56 5857   5.292   5.733   2.642 -0.0949 -0.2963 -0.2013
   14CHTO   C35 5858   5.285   5.736   2.431 -0.5595 -0.4228  0.0480
   14CHTO   O24 5859   5.164   5.665   2.451 -0.0806  0.0294  0.1140
   14CHTO   H39 5860   5.110   5.727   2.497  0.4483  0.1964  0.5097
   14CHTO    O9 5861   5.490   6.072   2.697  0.0353 -0.3358  0.8735
   14CHTO   C13 5862   5.365   6.168   2.693 -0.1761 -0.6888 -0.1575
   14CHTO   H26 5863   5.304   6.135   2.606 -1.5075  1.8720 -0.2335
   14CHTO   C11 5864   5.419   6.320   2.663  0.0485 -0.1577  0.2292
   14CHTO   H24 5865   5.454   6.330   2.560  1.1270  0.0458  0.6058
   14CHTO    O8 5866   5.535   6.346   2.742  0.2039  0.2397  0.0960
   14CHTO    H3 5867   5.517   6.353   2.834  0.5572 -1.9001  0.3696
   14CHTO    C9 5868   5.302   6.425   2.680  0.0170  0.2554 -0.4693
   14CHTO   H22 5869   5.227   6.391   2.607  0.6392 -0.6851 -0.6723
   14CHTO    N2 5870   5.327   6.563   2.638 -0.4663 -0.6152  0.1355
   14CHTO   H10 5871   5.289   6.649   2.692 -1.4457 -0.8352 -0.1921
   14CHTO   H11 5872   5.301   6.575   2.534  1.6141 -0.2882 -0.3629
   14CHTO    C7 5873   5.238   6.409   2.823 -0.9769 -0.3429  0.0976
   14CHTO   H20 5874   5.165   6.493   2.828  0.9060  1.3696 -0.7323
   14CHTO    O4 5875   5.179   6.282   2.830 -0.3899  0.3203 -0.8231
   14CHTO   C14 5876   5.262   6.163   2.820  0.0216 -0.0229  0.4579
   14CHTO   H27 5877   5.196   6.076   2.803 -0.1991  0.0596  0.8788
   14CHTO   C18 5878   5.337   6.133   2.955  0.0172 -0.0162  0.0623
   14CHTO   O13 5879   5.246   6.084   3.053 -0.0144 -0.2645 -0.5465
   14CHTO    H7 5880   5.291   6.038   3.121 -1.0566 -0.3337  0.0941
   14CHTO    O2 5881   5.355   6.431   2.948 -0.0905 -0.3435 -0.1213
   14CHTO    C1 5882   5.369   6.566   3.001  0.2624 -0.2479  0.7291
   14CHTO   H14 5883   5.316   6.633   2.930 -0.5209 -2.5777 -0.9378
   14CHTO    C2 5884   5.522   6.621   3.019 -0.5847  0.2492 -0.2013
   14CHTO   H15 5885   5.574   6.540   3.071 -3.5144 -0.6536  1.4256
   14CHTO    O6 5886   5.574   6.660   2.888 -0.1766  0.4053 -0.5099
   14CHTO    H1 5887   5.605   6.588   2.837  0.4544  0.3756 -0.0903
   14CHTO    C3 5888   5.534   6.748   3.112  0.0542 -0.2294 -0.3841
   14CHTO   H16 5889   5.484   6.830   3.058  0.6390  0.1404 -0.3633
   14CHTO    N1 5890   5.677   6.782   3.132 -0.6548 -0.4476 -0.4889
   14CHTO    H8 5891   5.678   6.842   3.222 -1.5751 -1.4412  0.2040
   14CHTO    H9 5892   5.720   6.827   3.044 -0.2228 -0.5645 -0.3357
   14CHTO    C4 5893   5.451   6.731   3.244 -0.0021  0.2081 -0.0118
   14CHTO   H17 5894   5.492   6.644   3.297 -1.5486 -0.6914 -0.2781
   14CHTO    O1 5895   5.314   6.706   3.210 -0.0422 -0.0675  0.0041
   14CHTO    C5 5896   5.294   6.582   3.139 -0.6064  0.0997  0.5388
   14CHTO   H18 5897   5.325   6.504   3.210  3.1309  1.5096  0.5757
   14CHTO   C16 5898   5.140   6.569   3.116 -0.5190 -0.9992  0.0054
   14CHTO   O11 5899   5.080   6.576   3.249 -0.3231 -0.0505  0.0219
   14CHTO    H5 5900   4.995   6.539   3.238 -0.7931  0.5240  1.6757
   14CHTO    O3 5901   5.448   6.844   3.327 -0.5734 -0.2408  0.0042
   14CHTO    C6 5902   5.434   6.810   3.470 -0.3557  0.1393  0.2172
   14CHTO   H19 5903   5.385   6.714   3.487 -0.3791 -0.1916 -1.5975
   14CHTO    C8 5904   5.569   6.793   3.550  0.0521 -0.7328  0.0706
   14CHTO   H21 5905   5.627   6.884   3.536 -0.2052 -0.7304 -0.9684
   14CHTO    O7 5906   5.648   6.687   3.498 -0.1645 -0.1733 -0.2278
   14CHTO    H2 5907   5.733   6.688   3.538 -0.2005 -0.0016 -0.1546
   14CHTO   C12 5908   5.536   6.769   3.705  0.3004 -0.1117  0.7453
   14CHTO   H25 5909   5.467   6.682   3.706 -0.6442  0.6325  0.5372
   14CHTO    N3 5910   5.641   6.734   3.798 -0.0275 -0.2650  0.1445
   14CHTO   H12 5911   5.738   6.733   3.750  0.6131  0.5421  1.4220
   14CHTO   H13 5912   5.617   6.637   3.839 -2.9303  1.6127  3.1240
   14CHTO   C15 5913   5.457   6.890   3.759 -0.3956 -0.1911  0.0639
   14CHTO   H28 5914   5.520   6.978   3.744 -0.5931  0.2320  1.6875
   14CHTO   O10 5915   5.401   6.886   3.913  0.6924 -0.4431 -0.0001
   14CHTO    H4 5916   5.475   6.907   3.967  0.9125  0.4501 -0.6432
   14CHTO    O5 5917   5.339   6.902   3.675 -0.0257 -0.1500  0.4306
   14CHTO   C10 5918   5.346   6.920   3.534 -0.7653  0.1215 -0.2221
   14CHTO   H23 5919   5.397   7.012   3.504  0.3419 -0.3497  0.1818
   14CHTO   C17 5920   5.204   6.915   3.479  0.2997  0.5671 -0.6766
   14CHTO   O12 5921   5.134   7.033   3.511  0.3401 -0.6607 -0.2795
   14CHTO    H6 5922   5.098   7.017   3.596 -0.0959  1.2619 -0.0965
   15CHTO  H203 5923   5.962   4.252   2.546  0.4591 -0.6335 -0.5190
   15CHTO   O82 5924   5.877   4.233   2.512  0.3469 -0.0201 -0.5812
   15CHTO  C123 5925   5.886   4.129   2.415 -0.8241  0.1423  0.3287
   15CHTO  H227 5926   5.897   4.031   2.464 -1.6311  0.7793  1.8351
   15CHTO   O77 5927   5.757   4.124   2.341  0.1740  0.4573 -0.7553
   15CHTO  C118 5928   5.753   4.026   2.235 -0.1916 -0.0230 -0.7140
   15CHTO  H222 5929   5.770   3.924   2.272  0.2006  0.0858 -0.5961
   15CHTO  C125 5930   5.609   4.036   2.173  0.7304  0.0991  0.5167
   15CHTO   O84 5931   5.509   3.991   2.265 -0.1025  0.7290 -0.9889
   15CHTO  H205 5932   5.428   4.037   2.256 -1.1964 -0.6115  1.3940
   15CHTO  C114 5933   5.856   4.047   2.126  0.5075  0.5914  0.4293
   15CHTO  H218 5934   5.838   4.146   2.085 -0.6993 -0.0856 -0.7263
   15CHTO  C116 5935   5.996   4.042   2.194 -0.1246  0.5963  1.0324
   15CHTO  H220 5936   6.022   3.943   2.237  0.2967  0.8226  1.3103
   15CHTO   O79 5937   6.088   4.047   2.086  0.6413  0.0056 -0.4329
   15CHTO  H201 5938   6.167   4.001   2.109  1.2788  0.6765 -1.2248
   15CHTO  C120 5939   6.009   4.147   2.311  0.4115 -0.5838 -0.5217
   15CHTO  H224 5940   6.013   4.251   2.271  0.8886 -0.6262 -0.5895
   15CHTO   N21 5941   6.142   4.143   2.374  0.7570  0.1215 -0.1770
   15CHTO  H211 5942   6.164   4.240   2.415  0.6744  0.4410 -0.8872
   15CHTO  H212 5943   6.207   4.121   2.290  1.3053  0.3474  0.1882
   15CHTO   O75 5944   5.824   3.945   2.023  0.0710  0.3646 -0.5903
   15CHTO  C112 5945   5.920   3.802   2.031  0.5936  0.5254 -0.6415
   15CHTO  H216 5946   5.943   3.776   2.136 -0.0867  0.8674 -0.4000
   15CHTO   O73 5947   6.037   3.814   1.949  0.2057 -0.4203  0.0057
   15CHTO  C113 5948   6.130   3.701   1.942  0.5720 -0.5669 -0.0304
   15CHTO  H217 5949   6.171   3.687   2.044  0.5767  0.7047  0.1416
   15CHTO  C124 5950   6.245   3.740   1.850  0.4011  0.6057  0.2025
   15CHTO   O83 5951   6.337   3.833   1.902  0.2555  0.3768  0.3886
   15CHTO  H204 5952   6.358   3.798   1.986  0.9767  1.0553  0.5015
   15CHTO  C109 5953   6.055   3.573   1.890 -0.3293  0.2618 -0.4354
   15CHTO  H213 5954   6.037   3.585   1.782 -2.9295 -0.6497 -0.1374
   15CHTO  C110 5955   5.918   3.551   1.961 -0.5170  0.3535 -0.2429
   15CHTO  H214 5956   5.947   3.517   2.060  0.6113 -0.2493 -0.7663
   15CHTO   O78 5957   5.851   3.440   1.903 -0.1246  0.5819 -0.1413
   15CHTO  H200 5958   5.889   3.360   1.933 -0.6034  0.8362  1.1840
   15CHTO  C111 5959   5.834   3.680   1.967  0.0235  0.2571 -0.1533
   15CHTO  H215 5960   5.805   3.710   1.866 -0.3008 -1.3109 -0.5387
   15CHTO   N19 5961   5.710   3.658   2.046  0.3004 -0.6303 -0.4890
   15CHTO  H207 5962   5.666   3.754   2.067  2.3239  0.0401  0.8519
   15CHTO  H208 5963   5.759   3.631   2.139  1.2124  2.0892 -0.1501
   15CHTO   O74 5964   6.149   3.455   1.907 -0.3981 -0.3944 -0.0805
   15CHTO  C115 5965   6.116   3.340   1.808  0.3840  0.2132  0.7113
   15CHTO  H219 5966   6.018   3.295   1.827 -0.1570  0.7617 -0.7889
   15CHTO   O76 5967   6.106   3.390   1.664 -0.1429 -0.0743  0.2102
   15CHTO  C122 5968   6.095   3.284   1.565 -0.1091  0.2554 -0.8628
   15CHTO  H226 5969   6.104   3.329   1.466 -1.4833 -0.4507 -1.3296
   15CHTO  C126 5970   5.948   3.230   1.584  0.0314 -0.6149 -0.1188
   15CHTO   O85 5971   5.857   3.331   1.540 -0.0383  0.1671 -0.5948
   15CHTO  H206 5972   5.855   3.403   1.600 -1.5500 -0.2495 -0.1249
   15CHTO  C121 5973   6.199   3.169   1.580 -0.3178 -0.2432  0.1940
   15CHTO  H225 5974   6.178   3.082   1.514 -0.6414 -0.5240  0.6634
   15CHTO   O81 5975   6.332   3.214   1.537 -0.3955  0.4642 -0.4350
   15CHTO  H202 5976   6.365   3.288   1.585  0.6053 -1.4202  1.8726
   15CHTO  C119 5977   6.194   3.114   1.726  0.5847 -0.0857  0.5509
   15CHTO  H223 5978   6.092   3.083   1.749  0.8435 -1.0612  0.3885
   15CHTO  C117 5979   6.226   3.233   1.822 -0.4979  0.1343 -0.1366
   15CHTO  H221 5980   6.322   3.285   1.813  0.7753 -1.4660  3.2055
   15CHTO   N20 5981   6.225   3.174   1.962 -0.2180  0.2977  0.1966
   15CHTO  H209 5982   6.321   3.191   2.008 -1.1072  0.8745  1.8860
   15CHTO  H210 5983   6.215   3.066   1.958  1.1936  0.1883 -1.3498
   15CHTO   O80 5984   6.262   2.979   1.738 -0.3316 -0.2132 -0.1820
   15CHTO  C103 5985   6.174   2.824   1.729  0.9110  0.3670 -0.4242
   15CHTO  H190 5986   6.184   2.755   1.812  1.2693 -2.0285 -2.4152
   15CHTO  C101 5987   6.020   2.832   1.707  0.3247  0.0157 -0.4972
   15CHTO  H188 5988   5.998   2.905   1.630  0.9420  0.3766 -0.3368
   15CHTO   O68 5989   5.959   2.882   1.831 -0.3905 -0.3190  0.3901
   15CHTO  H168 5990   5.940   2.811   1.889 -0.1255 -1.1267 -0.4998
   15CHTO   C99 5991   5.963   2.691   1.654 -0.4056 -0.2063 -0.4552
   15CHTO  H186 5992   5.954   2.619   1.738 -0.5442 -0.4435 -0.6702
   15CHTO   N17 5993   5.823   2.721   1.612 -0.3753 -0.2999  0.4382
   15CHTO  H174 5994   5.773   2.626   1.600  1.3967 -1.2525  0.4884
   15CHTO  H175 5995   5.769   2.794   1.671  0.4971  0.3946  0.3821
   15CHTO   C97 5996   6.051   2.622   1.544  0.1784  0.8315 -0.1319
   15CHTO  H184 5997   6.038   2.678   1.450 -0.2444 -0.8710 -1.1063
   15CHTO   O64 5998   6.189   2.620   1.581  0.2459 -0.2550  0.2898
   15CHTO  C104 5999   6.244   2.750   1.602  0.2119  0.2146 -0.0529
   15CHTO  H191 6000   6.236   2.817   1.517 -0.9779  0.2739  0.0934
   15CHTO  C108 6001   6.395   2.733   1.634 -0.2786  0.4706  0.3347
   15CHTO   O71 6002   6.461   2.859   1.630  0.1561 -0.1133 -0.2907
   15CHTO  H171 6003   6.537   2.872   1.682  0.8381 -0.7678 -1.0996
   15CHTO   O62 6004   6.016   2.487   1.525  0.3624  0.3187  0.1545
   15CHTO   C91 6005   6.031   2.420   1.394 -0.0587 -0.1515 -0.6756
   15CHTO  H178 6006   6.095   2.493   1.344 -1.0330  3.0225  2.5165
   15CHTO   C92 6007   5.892   2.424   1.323 -0.3357 -0.1587  1.1134
   15CHTO  H179 6008   5.833   2.510   1.358 -1.6252 -0.1659 -0.9935
   15CHTO   O66 6009   5.916   2.450   1.187  0.4342 -0.3139  0.3992
   15CHTO  H166 6010   5.870   2.529   1.165 -1.1272 -0.9266  1.3850
   15CHTO   C93 6011   5.811   2.286   1.348 -0.2503  0.0725 -0.0802
   15CHTO  H180 6012   5.749   2.269   1.259 -0.3245 -2.4457  0.4157
   15CHTO   N16 6013   5.701   2.288   1.452 -0.2311 -0.6595  0.3853
   15CHTO  H172 6014   5.617   2.343   1.411 -0.5413 -1.9021 -0.6658
   15CHTO  H173 6015   5.736   2.339   1.541  0.3324 -1.7396  0.7839
   15CHTO   C94 6016   5.900   2.164   1.379 -0.0581  0.8902 -0.4095
   15CHTO  H181 6017   5.920   2.157   1.486 -0.1488 -0.3323 -0.4633
   15CHTO   O61 6018   6.029   2.181   1.319  0.4573  0.0906  0.4597
   15CHTO   C95 6019   6.103   2.284   1.391  0.0275  0.6912 -0.3033
   15CHTO  H182 6020   6.119   2.252   1.494 -0.9241 -0.7357 -0.5930
   15CHTO  C106 6021   6.246   2.294   1.328 -0.3840  0.0771  0.0375
   15CHTO   O69 6022   6.242   2.317   1.189  0.2591 -0.1674  0.0260
   15CHTO  H169 6023   6.207   2.243   1.143 -1.4075 -0.8538  2.3288
   15CHTO   O63 6024   5.822   2.025   1.317 -0.2908  0.5513 -0.5718
   15CHTO   C96 6025   5.878   1.891   1.396 -0.0927  0.3520 -0.6919
   15CHTO  H183 6026   5.904   1.912   1.500 -3.3089  1.3278 -0.0219
   15CHTO   C98 6027   6.002   1.821   1.328  0.5437 -0.1343  0.8176
   15CHTO  H185 6028   5.985   1.829   1.219 -2.3266 -1.9160  1.1044
   15CHTO   O67 6029   6.110   1.911   1.360 -0.3170  0.0137 -0.5700
   15CHTO  H167 6030   6.098   2.002   1.340  2.0462  0.8906  1.7012
   15CHTO  C102 6031   6.026   1.675   1.391 -0.5405 -0.9016 -0.9124
   15CHTO  H189 6032   6.061   1.693   1.494 -0.9999  1.5196 -1.1518
   15CHTO   N18 6033   6.140   1.605   1.323  0.4360 -0.2894 -0.1130
   15CHTO  H176 6034   6.156   1.516   1.383  1.1629  0.5023  0.8742
   15CHTO  H177 6035   6.101   1.564   1.231  0.9229 -1.5635  0.2310
   15CHTO  C105 6036   5.895   1.601   1.400  0.7672  0.2380  0.3753
   15CHTO  H192 6037   5.852   1.582   1.302 -1.7021 -2.1218  1.8396
   15CHTO   O65 6038   5.797   1.676   1.474 -0.2583 -0.1042  0.1269
   15CHTO  C100 6039   5.755   1.790   1.408  0.1419  0.1902 -0.1372
   15CHTO  H187 6040   5.721   1.765   1.307  1.4336  0.3666 -0.6207
   15CHTO  C107 6041   5.631   1.846   1.492  0.2443  0.6938 -0.6686
   15CHTO   O70 6042   5.516   1.765   1.465  0.2590  0.1535 -0.0264
   15CHTO  H170 6043   5.520   1.683   1.510  0.5089  0.0864 -0.1736
   15CHTO   O57 6044   5.913   1.453   1.484 -0.0179 -0.4318  0.1477
   15CHTO   C85 6045   5.842   1.418   1.601 -0.6542 -0.2469 -0.4535
   15CHTO  H157 6046   5.809   1.512   1.648  1.5365  0.9356 -1.1893
   15CHTO   C83 6047   5.942   1.354   1.708  1.0673 -0.8433 -0.6314
   15CHTO  H155 6048   6.012   1.434   1.734 -0.5604 -0.0510  1.3595
   15CHTO   O56 6049   6.033   1.250   1.657 -0.1738  0.1473 -0.4025
   15CHTO  H135 6050   6.073   1.205   1.729  0.0756  0.0636 -0.5925
   15CHTO   C81 6051   5.860   1.321   1.830  0.1764  0.2216  0.4074
   15CHTO  H153 6052   5.799   1.404   1.865 -0.9520 -0.5832  0.3355
   15CHTO   N14 6053   5.953   1.295   1.945 -0.9101 -0.0587  0.0155
   15CHTO  H141 6054   6.015   1.208   1.933 -1.1491 -0.4858  1.7098
   15CHTO  H142 6055   5.896   1.289   2.036  1.4945  0.7346  1.6142
   15CHTO   C79 6056   5.761   1.196   1.799  0.0270 -0.4433  0.3606
   15CHTO  H151 6057   5.715   1.170   1.894 -0.7534 -2.3202 -0.5054
   15CHTO   O52 6058   5.670   1.236   1.701  0.2212  0.2936 -0.2421
   15CHTO   C86 6059   5.715   1.313   1.586 -1.1094  0.6460  0.5089
   15CHTO  H158 6060   5.724   1.239   1.503 -2.1344 -0.2854  1.2108
   15CHTO   C90 6061   5.593   1.401   1.545  0.6799 -0.2404 -0.3748
   15CHTO   O60 6062   5.591   1.431   1.408 -0.0725 -0.2527 -0.1956
   15CHTO  H138 6063   5.511   1.458   1.367  0.0948  3.3892  1.6126
   15CHTO   O50 6064   5.833   1.078   1.763 -0.1538 -0.5832  0.1824
   15CHTO   C73 6065   5.826   0.935   1.755  0.1949 -0.5355 -0.3915
   15CHTO  H145 6066   5.729   0.892   1.785 -0.5406  1.1294 -0.3531
   15CHTO   C74 6067   5.926   0.880   1.855 -0.1769 -0.3802 -0.4972
   15CHTO  H146 6068   5.899   0.927   1.951 -0.5935 -0.2878 -0.6557
   15CHTO   O54 6069   5.911   0.736   1.859  0.0536  0.6376 -0.0421
   15CHTO  H133 6070   5.844   0.717   1.923 -2.4203  1.4375 -2.3061
   15CHTO   C75 6071   6.072   0.919   1.806 -0.3495  0.4936 -0.2981
   15CHTO  H147 6072   6.086   1.028   1.806 -0.9672  0.5711 -1.0070
   15CHTO   N13 6073   6.174   0.875   1.910  0.0755 -0.0434 -0.3698
   15CHTO  H139 6074   6.148   0.913   2.008  0.8417  2.3860 -1.0503
   15CHTO  H140 6075   6.267   0.924   1.886  0.4988 -0.0105  1.2840
   15CHTO   C76 6076   6.091   0.880   1.656 -0.9610  0.0962  0.8197
   15CHTO  H148 6077   6.094   0.772   1.650 -0.1087  0.2205 -1.1687
   15CHTO   O49 6078   5.987   0.938   1.570  0.0790 -0.0842  0.2888
   15CHTO   C77 6079   5.854   0.891   1.614 -0.4702 -0.2921 -0.1751
   15CHTO  H149 6080   5.850   0.783   1.604 -0.5091 -0.6622  3.2719
   15CHTO   C88 6081   5.750   0.949   1.513  0.0087 -0.1735 -0.2925
   15CHTO   O58 6082   5.646   0.886   1.529  0.5275 -0.4548 -0.2025
   15CHTO  H136 6083   5.597   0.886   1.449  1.3355 -1.6854 -0.7149
   15CHTO   O51 6084   6.241   0.938   1.614 -0.2136 -0.2819 -0.3901
   15CHTO   C78 6085   6.286   0.955   1.449 -0.8368 -0.2158 -0.0221
   15CHTO  H150 6086   6.213   1.007   1.383 -0.2244 -0.0937 -0.6035
   15CHTO   C80 6087   6.319   0.819   1.391  0.0594  0.4774 -0.1396
   15CHTO  H152 6088   6.405   0.773   1.444  0.7453 -0.0947 -1.7110
   15CHTO   O55 6089   6.204   0.727   1.411  0.3412 -0.4217 -0.0841
   15CHTO  H134 6090   6.179   0.709   1.499  1.7907 -1.2309  0.1759
   15CHTO   C84 6091   6.360   0.836   1.239 -0.0415  0.2984 -0.4365
   15CHTO  H156 6092   6.272   0.869   1.183  0.6910  1.1193 -1.1264
   15CHTO   N15 6093   6.402   0.698   1.185 -0.4502 -0.2142 -0.7999
   15CHTO  H143 6094   6.343   0.619   1.227 -1.7461  1.3914  0.4684
   15CHTO  H144 6095   6.394   0.695   1.078 -0.7027 -2.7300 -0.7494
   15CHTO   C87 6096   6.464   0.946   1.220 -0.2089 -0.4105 -0.1475
   15CHTO  H159 6097   6.558   0.904   1.255  0.0516 -0.6565 -1.1462
   15CHTO   O53 6098   6.429   1.079   1.305  0.2480 -0.3205 -0.2157
   15CHTO   C82 6099   6.412   1.043   1.444 -0.3471 -0.2474 -1.1085
   15CHTO  H154 6100   6.505   0.999   1.480 -0.4105 -1.2579 -2.1290
   15CHTO   C89 6101   6.391   1.168   1.518 -0.0299  0.2508  0.9455
   15CHTO   O59 6102   6.268   1.227   1.471 -0.0042 -0.3156 -0.4931
   15CHTO  H137 6103   6.204   1.222   1.539  0.9382 -0.2992  0.4059
   15CHTO   O45 6104   6.475   0.985   1.062 -0.1110 -0.3860 -0.3113
   15CHTO   C67 6105   6.600   1.056   1.036  0.4890 -0.3266  0.0147
   15CHTO  H124 6106   6.585   1.151   1.088 -3.1263 -1.1838  0.6475
   15CHTO   C65 6107   6.728   0.988   1.089  0.2068  0.6765  0.7460
   15CHTO  H122 6108   6.702   0.882   1.094  2.0063  0.1452 -0.8340
   15CHTO   O44 6109   6.742   1.035   1.219 -0.0370 -0.4444  0.4682
   15CHTO  H102 6110   6.820   1.083   1.238 -0.4493  0.2717  0.3818
   15CHTO   C63 6111   6.855   0.989   0.992 -0.6869  0.1415  0.0828
   15CHTO  H120 6112   6.837   0.915   0.914  0.5940 -0.6914  0.5582
   15CHTO   N11 6113   6.977   0.928   1.049 -0.0569 -0.3531 -0.0752
   15CHTO  H108 6114   6.959   0.883   1.145 -0.4184 -1.2846 -0.5792
   15CHTO  H109 6115   7.051   1.005   1.050  0.8221 -1.0492 -3.9182
   15CHTO   C61 6116   6.858   1.140   0.938  0.1497  0.0705 -1.0180
   15CHTO  H118 6117   6.946   1.146   0.872  1.2818  1.1938  0.5418
   15CHTO   O40 6118   6.739   1.166   0.860 -0.4623 -0.8505  0.2758
   15CHTO   C68 6119   6.622   1.086   0.881  0.4040 -0.2340 -0.2590
   15CHTO  H125 6120   6.632   0.989   0.829  0.1471 -0.6323  0.4438
   15CHTO   C72 6121   6.504   1.168   0.813 -0.5644 -0.5389  0.6285
   15CHTO   O48 6122   6.376   1.112   0.822 -0.5405 -0.1389 -0.2031
   15CHTO  H105 6123   6.373   1.025   0.788 -1.9896 -0.2858  0.2722
   15CHTO   O38 6124   6.881   1.238   1.044  0.0086  0.6772  0.2691
   15CHTO   C55 6125   6.952   1.358   1.002 -0.6798  0.0942  0.2664
   15CHTO  H112 6126   6.955   1.367   0.893 -3.7380 -1.4888  0.0052
   15CHTO   C56 6127   7.096   1.357   1.065 -0.8743 -0.3003 -0.0368
   15CHTO  H113 6128   7.097   1.341   1.174  1.0276 -1.7211 -0.2207
   15CHTO   O42 6129   7.145   1.231   1.017 -0.1687  0.1315  0.6674
   15CHTO  H100 6130   7.212   1.234   0.951  0.7121 -1.4707  1.4534
   15CHTO   C57 6131   7.172   1.483   1.025 -0.0701 -0.2979 -0.0992
   15CHTO  H114 6132   7.189   1.484   0.918  1.5570  2.2652  0.1413
   15CHTO   N10 6133   7.309   1.486   1.082  0.2422  0.4395 -0.0851
   15CHTO  H106 6134   7.376   1.545   1.021 -1.5326 -0.4681 -3.0338
   15CHTO  H107 6135   7.301   1.535   1.178  1.2650  3.2330 -1.3719
   15CHTO   C58 6136   7.087   1.604   1.070  0.7440  0.2494  0.2758
   15CHTO  H115 6137   7.072   1.595   1.179 -2.3866  1.2592 -0.0454
   15CHTO   O37 6138   6.956   1.594   1.003 -0.2445 -0.0462 -0.3308
   15CHTO   C59 6139   6.881   1.483   1.047  0.3458 -0.6414  0.5352
   15CHTO  H116 6140   6.868   1.474   1.155  0.2303 -2.4541  0.3853
   15CHTO   C70 6141   6.744   1.494   0.976  0.4175  0.3203  0.1497
   15CHTO   O46 6142   6.632   1.426   1.031 -0.0587 -0.1637 -0.1676
   15CHTO  H103 6143   6.573   1.492   1.063  0.1834  1.1024 -2.2099
   15CHTO   O39 6144   7.141   1.737   1.010 -0.9242  0.1444  0.5412
   15CHTO   C60 6145   7.060   1.855   1.035  0.1148  0.0297  0.0727
   15CHTO  H117 6146   6.955   1.828   1.051 -0.3337  1.3534 -0.5907
   15CHTO   C62 6147   7.117   1.944   1.147  0.1211  0.6091 -0.0229
   15CHTO  H119 6148   7.128   1.873   1.232 -2.3744 -0.0713 -0.2458
   15CHTO   O43 6149   7.246   1.995   1.111  0.0751  0.0367 -0.3322
   15CHTO  H101 6150   7.287   2.044   1.179  0.6474  0.6771 -1.1173
   15CHTO   C66 6151   7.002   2.052   1.174 -0.3088 -0.0440  0.4974
   15CHTO  H123 6152   6.909   1.998   1.193  0.0851 -0.7109  0.5621
   15CHTO   N12 6153   7.027   2.125   1.298 -0.3941  0.0313  0.2023
   15CHTO  H110 6154   7.040   2.063   1.385 -1.4114  0.6574  0.8029
   15CHTO  H111 6155   6.952   2.200   1.318  0.8849  1.0028  1.4363
   15CHTO   C69 6156   6.984   2.146   1.046  0.0314  0.3781  0.0904
   15CHTO  H126 6157   7.077   2.203   1.031 -0.4785  0.7445 -1.7585
   15CHTO   O41 6158   6.966   2.043   0.909  0.7334  0.0420  0.3408
   15CHTO   C64 6159   7.058   1.933   0.897 -0.6583  0.0726 -0.1678
   15CHTO  H121 6160   7.154   1.984   0.874  0.5451 -2.2896 -0.4816
   15CHTO   C71 6161   7.027   1.853   0.770 -0.0163  1.0864 -0.7401
   15CHTO   O47 6162   7.128   1.762   0.728 -0.4905 -0.1687  0.1933
   15CHTO  H104 6163   7.154   1.708   0.801  1.1440  0.9507  0.4605
   15CHTO   O34 6164   6.853   2.254   1.063 -0.2548  0.2202 -0.0689
   15CHTO   C49 6165   6.714   2.288   1.022 -0.8425  0.4896 -0.1619
   15CHTO   H91 6166   6.713   2.397   1.026  1.5210  0.5344 -0.2807
   15CHTO   C47 6167   6.610   2.225   1.113 -0.3086 -0.2053 -0.4339
   15CHTO   H89 6168   6.510   2.266   1.087 -1.1229 -2.0493 -0.2916
   15CHTO   O33 6169   6.632   2.255   1.253  0.1546 -0.3322 -0.5012
   15CHTO   H70 6170   6.669   2.340   1.269 -2.1698  0.3735  1.3926
   15CHTO   C45 6171   6.608   2.060   1.096 -0.1729 -0.5718  0.1379
   15CHTO   H87 6172   6.710   2.020   1.110 -0.3884 -1.6443 -1.2236
   15CHTO    N8 6173   6.513   1.998   1.194  0.3338 -0.1542  0.4857
   15CHTO   H75 6174   6.508   1.895   1.164  2.2756 -0.1315  0.0613
   15CHTO   H76 6175   6.559   1.997   1.291 -0.0389  2.0903  0.7201
   15CHTO   C43 6176   6.565   2.033   0.943 -0.3645  0.2273  0.0483
   15CHTO   H85 6177   6.582   1.926   0.930 -0.5719  0.2113 -0.0896
   15CHTO   O29 6178   6.651   2.106   0.852  0.0847 -0.4212 -0.2131
   15CHTO   C50 6179   6.686   2.243   0.873  0.4401  0.1837  0.2044
   15CHTO   H92 6180   6.775   2.259   0.810 -0.4755  1.1861 -0.8438
   15CHTO   C54 6181   6.587   2.335   0.792 -0.1721 -0.9246  0.2690
   15CHTO   O36 6182   6.641   2.467   0.772 -0.4645  0.7719  0.4697
   15CHTO   H72 6183   6.571   2.522   0.742 -0.0663  0.0063 -2.0013
   15CHTO   O27 6184   6.433   2.073   0.911  0.1901  0.0998 -0.2998
   15CHTO   C37 6185   6.304   2.021   0.866  0.1751 -0.2937 -1.3753
   15CHTO   H79 6186   6.307   1.912   0.859 -1.4979 -0.5688  1.5966
   15CHTO   C38 6187   6.187   2.056   0.961 -0.0011 -0.1581 -0.4006
   15CHTO   H80 6188   6.188   2.163   0.987 -1.9085 -0.2963  0.2790
   15CHTO   O31 6189   6.211   1.986   1.090  0.5627 -0.2340  0.1889
   15CHTO   H68 6190   6.129   1.948   1.115  0.2631  0.0171 -0.3874
   15CHTO   C39 6191   6.043   2.022   0.898  1.1982 -0.3813 -0.9543
   15CHTO   H81 6192   6.038   1.913   0.894 -0.4564 -0.4095  1.2606
   15CHTO    N7 6193   5.921   2.071   0.980  0.0248  0.8755 -0.1978
   15CHTO   H73 6194   5.877   1.985   1.028 -2.7209  1.6647 -1.1880
   15CHTO   H74 6195   5.849   2.129   0.923 -0.2082  1.9745  1.1774
   15CHTO   C40 6196   6.039   2.074   0.752 -0.0764  0.4523 -0.4251
   15CHTO   H82 6197   6.032   2.183   0.754 -0.6763  0.3871  1.9815
   15CHTO   O26 6198   6.154   2.031   0.677 -0.1062 -0.5666  0.1797
   15CHTO   C41 6199   6.274   2.082   0.733  0.0121 -0.1064 -0.4531
   15CHTO   H83 6200   6.262   2.190   0.750 -2.8131 -0.1939 -1.7093
   15CHTO   C52 6201   6.389   2.066   0.638  0.0675  0.4924 -0.1518
   15CHTO   O35 6202   6.362   2.098   0.496 -0.0090 -0.3642 -0.1353
   15CHTO   H71 6203   6.371   2.191   0.501  1.2357 -0.4882 -0.0152
   15CHTO   O28 6204   5.930   2.020   0.675  0.1383 -0.5106 -0.4213
   15CHTO   C42 6205   5.870   2.087   0.558 -0.2519  0.7004  0.5318
   15CHTO   H84 6206   5.808   2.019   0.500 -0.1751  0.9083  0.1988
   15CHTO   C44 6207   5.971   2.146   0.459 -0.2907  0.0932  0.0906
   15CHTO   H86 6208   6.050   2.200   0.512  0.0512 -1.7680  1.5128
   15CHTO   O32 6209   6.035   2.028   0.402 -0.4616 -0.2649 -0.1307
   15CHTO   H69 6210   6.110   2.010   0.455 -0.7700 -0.3643  0.2679
   15CHTO   C48 6211   5.912   2.249   0.356 -0.5310  0.7528  0.2780
   15CHTO   H90 6212   5.842   2.198   0.289  1.4402 -2.2102  0.4229
   15CHTO    N9 6213   6.014   2.319   0.269  0.4162  0.6877  0.6047
   15CHTO   H77 6214   5.982   2.391   0.195 -0.5735 -0.0378  0.3081
   15CHTO   H78 6215   6.097   2.353   0.328  1.8488  0.7894 -1.4324
   15CHTO   C51 6216   5.817   2.347   0.427  0.6965  0.1491 -0.0580
   15CHTO   H93 6217   5.875   2.422   0.480 -0.1081  0.7313  0.0070
   15CHTO   O30 6218   5.724   2.279   0.510  0.4862 -0.4102 -0.1629
   15CHTO   C46 6219   5.780   2.203   0.611  0.0801 -0.5150  0.0340
   15CHTO   H88 6220   5.845   2.265   0.673 -0.6681  2.5852 -2.1838
   15CHTO   C53 6221   5.665   2.147   0.696  0.3348 -0.4463  0.8913
   15CHTO   O72 6222   5.580   2.245   0.753  0.0650 -0.0646 -0.1677
   15CHTO  H199 6223   5.628   2.281   0.825 -0.2312  1.6301 -0.7889
   15CHTO   O22 6224   5.737   2.407   0.325 -0.6284  0.2041 -0.0153
   15CHTO   C31 6225   5.650   2.526   0.332 -0.1129 -0.7681 -0.0408
   15CHTO   H59 6226   5.586   2.527   0.241 -0.6045 -1.0047  0.3079
   15CHTO   C29 6227   5.557   2.526   0.457  0.1196  0.0887  0.3316
   15CHTO   H57 6228   5.616   2.498   0.545  0.1427 -0.7921  0.0384
   15CHTO   O21 6229   5.466   2.414   0.422 -0.5567  0.0916  0.2420
   15CHTO   H37 6230   5.472   2.345   0.484  0.7527  0.4481  0.5415
   15CHTO   C27 6231   5.480   2.664   0.486  0.1668  0.1278 -0.1919
   15CHTO   H55 6232   5.408   2.678   0.404 -1.4990  1.4507  1.4607
   15CHTO    N5 6233   5.406   2.668   0.612 -0.5380  0.1093  0.2867
   15CHTO   H43 6234   5.391   2.771   0.639  1.9997  0.7542 -0.6060
   15CHTO   H44 6235   5.306   2.628   0.609 -0.4026 -0.3154  1.2591
   15CHTO   C25 6236   5.588   2.775   0.478  0.1421 -0.3658  0.4977
   15CHTO   H53 6237   5.659   2.757   0.560  0.3379  0.8580  0.6019
   15CHTO   O17 6238   5.648   2.778   0.348  0.0175  0.3972 -0.0086
   15CHTO   C32 6239   5.732   2.660   0.320  0.7298  0.6865  0.1318
   15CHTO   H60 6240   5.821   2.653   0.384  1.8717  1.7255 -1.3141
   15CHTO   C36 6241   5.781   2.684   0.172  0.4278  0.2595  0.5839
   15CHTO   O25 6242   5.900   2.612   0.135  0.1779  0.1616  0.2117
   15CHTO   H40 6243   5.973   2.647   0.182 -0.2868  1.0834  0.2635
   15CHTO   O15 6244   5.527   2.924   0.497 -0.5495 -0.2596  0.1943
   15CHTO   C19 6245   5.545   3.034   0.593 -0.4486 -0.4344 -0.0636
   15CHTO   H47 6246   5.494   3.114   0.538 -2.6378 -1.8456 -0.1343
   15CHTO   C20 6247   5.478   3.024   0.734 -0.9596 -0.2694  0.0579
   15CHTO   H48 6248   5.503   2.926   0.780  1.2001  0.0044 -0.4670
   15CHTO   O19 6249   5.336   3.018   0.712  0.1555  0.0308 -0.0190
   15CHTO   H35 6250   5.316   2.926   0.708  1.8867 -0.3126 -1.4346
   15CHTO   C21 6251   5.530   3.138   0.820  0.2561  0.3878 -0.1648
   15CHTO   H49 6252   5.497   3.232   0.775 -0.1302  1.2075  1.7871
   15CHTO    N4 6253   5.478   3.123   0.960  0.0083 -0.4370  0.0867
   15CHTO   H41 6254   5.529   3.043   1.012  2.1978  0.6263 -0.3544
   15CHTO   H42 6255   5.371   3.107   0.959  0.0819 -0.8509 -0.6500
   15CHTO   C22 6256   5.688   3.150   0.819 -0.2833 -0.4079 -0.9067
   15CHTO   H50 6257   5.730   3.062   0.867 -0.4299 -0.1343 -0.2765
   15CHTO   O14 6258   5.730   3.178   0.688  0.0118  0.1951 -0.1367
   15CHTO   C23 6259   5.699   3.069   0.601 -0.6200  0.1739  0.1020
   15CHTO   H51 6260   5.762   2.991   0.646  0.0441  0.1409 -0.8761
   15CHTO   C34 6261   5.772   3.097   0.469 -0.0726 -0.2776 -0.3001
   15CHTO   O23 6262   5.907   3.061   0.468  0.4705 -0.1342 -0.5577
   15CHTO   H38 6263   5.955   3.129   0.425 -0.6823  0.4897 -0.8773
   15CHTO   O16 6264   5.742   3.259   0.892  0.1455  0.1018 -0.3511
   15CHTO   C24 6265   5.871   3.217   0.988  0.0313  0.6912 -0.0591
   15CHTO   H52 6266   5.860   3.115   1.025 -1.5033 -0.0340 -2.4002
   15CHTO   C26 6267   5.861   3.326   1.098 -0.3357 -0.5283 -0.2659
   15CHTO   H54 6268   5.824   3.420   1.051 -2.3792 -1.3015 -0.2502
   15CHTO   O20 6269   5.752   3.294   1.186  0.0900  0.1714 -0.2213
   15CHTO   H36 6270   5.670   3.300   1.141  0.8407 -0.9373 -1.7671
   15CHTO   C30 6271   5.991   3.346   1.182 -0.3062 -0.2101 -0.6076
   15CHTO   H58 6272   5.992   3.266   1.258  0.6527 -0.6811 -1.1212
   15CHTO    N6 6273   5.998   3.479   1.248  0.2581 -0.4533 -0.3782
   15CHTO   H45 6274   5.984   3.555   1.172 -0.0232  0.4636  0.5786
   15CHTO   H46 6275   5.918   3.486   1.321 -0.8350  2.9941 -1.7772
   15CHTO   C33 6276   6.124   3.321   1.105  0.1888 -0.7486 -0.2887
   15CHTO   H61 6277   6.149   3.406   1.039 -0.5878 -1.4053 -1.4342
   15CHTO   O18 6278   6.108   3.208   1.020  0.0528  0.6756  0.1650
   15CHTO   C28 6279   6.010   3.220   0.916 -0.6395  0.2869  0.0089
   15CHTO   H56 6280   6.015   3.313   0.859  0.1742  0.0152 -0.3665
   15CHTO   C35 6281   6.027   3.106   0.806  0.1607  0.0917  0.1416
   15CHTO   O24 6282   6.160   3.095   0.753  0.1669 -0.5165 -0.0556
   15CHTO   H39 6283   6.215   3.076   0.827  0.0579  2.1123  0.7758
   15CHTO    O9 6284   6.235   3.308   1.188 -0.2698 -0.6553 -0.6996
   15CHTO   C13 6285   6.384   3.338   1.122  0.4838  0.0894  0.9797
   15CHTO   H26 6286   6.380   3.412   1.039 -0.2644 -2.1309 -1.0475
   15CHTO   C11 6287   6.436   3.196   1.061 -0.1813 -0.3953  0.5401
   15CHTO   H24 6288   6.378   3.172   0.971  0.9560  0.4401 -0.4254
   15CHTO    O8 6289   6.410   3.091   1.156 -0.4238 -0.0048 -0.8548
   15CHTO    H3 6290   6.450   3.113   1.238  2.5646 -1.1368 -1.9370
   15CHTO    C9 6291   6.587   3.210   1.017 -0.2313  0.5377 -0.0897
   15CHTO   H22 6292   6.587   3.304   0.958 -3.1038 -0.8588 -2.4379
   15CHTO    N2 6293   6.642   3.102   0.928  0.4648 -0.0417  0.0042
   15CHTO   H10 6294   6.614   3.009   0.975 -0.9934 -0.0220 -0.8112
   15CHTO   H11 6295   6.749   3.117   0.922  0.8294 -1.9411  1.1930
   15CHTO    C7 6296   6.676   3.234   1.150  0.2771 -0.2869  0.4027
   15CHTO   H20 6297   6.755   3.303   1.112 -0.6546 -0.2242 -1.4845
   15CHTO    O4 6298   6.599   3.297   1.255  0.1007  0.4441 -0.3690
   15CHTO   C14 6299   6.495   3.391   1.221  0.0424  0.6855 -0.1141
   15CHTO   H27 6300   6.542   3.478   1.170 -2.4077  1.4501 -1.1451
   15CHTO   C18 6301   6.439   3.446   1.355 -0.2045  0.6237 -0.0118
   15CHTO   O13 6302   6.396   3.584   1.340 -0.1443  0.3032  0.3535
   15CHTO    H7 6303   6.363   3.619   1.420  0.0115 -0.2077  0.6366
   15CHTO    O2 6304   6.744   3.112   1.201  0.1379 -0.1702  0.2593
   15CHTO    C1 6305   6.859   3.118   1.286  0.0802 -0.4610  0.1311
   15CHTO   H14 6306   6.865   3.217   1.337  1.0591  0.7291 -2.2178
   15CHTO    C2 6307   6.999   3.097   1.209 -0.4296  0.2623 -0.2072
   15CHTO   H15 6308   6.990   3.009   1.144 -1.2017 -0.9994  1.5577
   15CHTO    O6 6309   7.018   3.217   1.127  0.1694  0.3120 -0.2473
   15CHTO    H1 6310   7.022   3.297   1.175  1.7751  1.2136 -1.7907
   15CHTO    C3 6311   7.116   3.076   1.305 -0.4464  0.0544  0.2083
   15CHTO   H16 6312   7.140   3.176   1.343  0.8896 -0.6661  1.3221
   15CHTO    N1 6313   7.242   3.034   1.225 -0.9177 -0.1790  0.0636
   15CHTO    H8 6314   7.245   2.930   1.195  0.3631 -0.3306  0.7040
   15CHTO    H9 6315   7.329   3.051   1.286 -1.8872  1.1968  1.0680
   15CHTO    C4 6316   7.082   2.982   1.426 -0.0380 -0.4581  0.8709
   15CHTO   H17 6317   7.084   2.878   1.391 -0.2214 -0.2198  0.1324
   15CHTO    O1 6318   6.959   3.022   1.492  0.2389 -0.2164  0.4384
   15CHTO    C5 6319   6.844   3.020   1.407 -0.1146  0.0914  0.2955
   15CHTO   H18 6320   6.833   2.923   1.359  0.8232 -1.1522  2.5304
   15CHTO   C16 6321   6.712   3.059   1.483  0.1666 -0.2189 -0.5151
   15CHTO   O11 6322   6.734   3.148   1.597  0.4667 -0.4793  0.3710
   15CHTO    H5 6323   6.653   3.192   1.614  0.3064 -0.1956 -1.1170
   15CHTO    O3 6324   7.173   3.002   1.535 -0.6469 -0.0192  0.3147
   15CHTO    C6 6325   7.256   2.893   1.581  0.3828  0.6646  0.0025
   15CHTO   H19 6326   7.264   2.806   1.515 -0.2280 -0.3780  1.2700
   15CHTO    C8 6327   7.403   2.939   1.602  0.1436 -1.0748  0.0948
   15CHTO   H21 6328   7.407   3.035   1.654 -0.9153 -1.0408  0.1139
   15CHTO    O7 6329   7.456   2.971   1.471 -0.3092 -0.1427 -0.1171
   15CHTO    H2 6330   7.402   3.039   1.437  0.9861  1.0268  0.1278
   15CHTO   C12 6331   7.491   2.831   1.678 -0.6944  0.4161  0.6703
   15CHTO   H25 6332   7.515   2.752   1.603  2.3235  2.2886 -0.4223
   15CHTO    N3 6333   7.629   2.888   1.707 -0.6297  0.0945 -0.8795
   15CHTO   H12 6334   7.692   2.806   1.738 -1.3953 -0.3505 -0.4770
   15CHTO   H13 6335   7.672   2.947   1.627 -0.1599 -0.5600 -1.1091
   15CHTO   C15 6336   7.421   2.762   1.797  0.2622  0.5660 -0.0120
   15CHTO   H28 6337   7.403   2.830   1.880 -0.8418  0.2042  0.0457
   15CHTO   O10 6338   7.484   2.643   1.832  0.3029 -0.0579  0.3135
   15CHTO    H4 6339   7.555   2.669   1.887  1.8625 -0.3875 -1.5169
   15CHTO    O5 6340   7.291   2.722   1.749 -0.3760 -0.1863  0.3398
   15CHTO   C10 6341   7.207   2.830   1.716  0.9623 -0.4840 -0.0049
   15CHTO   H23 6342   7.210   2.907   1.792  0.6163 -0.7430  0.2719
   15CHTO   C17 6343   7.060   2.784   1.722  0.0309 -1.2160  0.2786
   15CHTO   O12 6344   7.035   2.713   1.844  0.0034 -0.1750  0.4024
   15CHTO    H6 6345   6.991   2.771   1.903  0.2274  0.7468 -0.3111
   16CHTO  H203 6346   4.920   2.299   0.948 -1.5183 -1.1718 -2.0077
   16CHTO   O82 6347   4.942   2.384   0.916 -0.9504 -0.4267  0.2812
   16CHTO  C123 6348   5.046   2.447   0.994  0.4126  0.0432 -0.7239
   16CHTO  H227 6349   5.032   2.416   1.099  0.8831  2.0480 -0.0293
   16CHTO   O77 6350   5.169   2.375   0.957  0.3527 -0.3908 -0.6497
   16CHTO  C118 6351   5.279   2.408   1.036 -0.1370  0.2412  0.8414
   16CHTO  H222 6352   5.253   2.395   1.142 -0.2715  0.3344  0.8191
   16CHTO  C125 6353   5.385   2.301   0.987 -0.2247  0.2358  0.2492
   16CHTO   O84 6354   5.504   2.306   1.066 -0.1171  0.5719 -0.3991
   16CHTO  H205 6355   5.545   2.389   1.054 -1.6304  1.2448 -0.9879
   16CHTO  C114 6356   5.325   2.552   0.998 -0.1572 -0.2946  0.4655
   16CHTO  H218 6357   5.359   2.548   0.894  1.9186 -1.4504  1.1514
   16CHTO  C116 6358   5.203   2.653   1.021  0.8688  0.3760 -0.2353
   16CHTO  H220 6359   5.187   2.661   1.131 -1.0849  0.8354 -0.5354
   16CHTO   O79 6360   5.242   2.782   0.972 -0.0233 -0.4097 -0.4459
   16CHTO  H201 6361   5.185   2.851   1.000  1.0886 -0.9023  3.3024
   16CHTO  C120 6362   5.067   2.601   0.961  0.8325 -0.7700 -0.2966
   16CHTO  H224 6363   5.083   2.618   0.853  0.7160 -1.0978 -0.3647
   16CHTO   N21 6364   4.945   2.681   0.997  0.3811 -0.4519  0.4145
   16CHTO  H211 6365   4.863   2.612   1.008  1.8588 -2.1382  1.1351
   16CHTO  H212 6366   4.965   2.720   1.096 -1.0075  1.4517 -0.0277
   16CHTO   O75 6367   5.443   2.564   1.078 -0.1833  0.1846 -0.6107
   16CHTO  C112 6368   5.553   2.676   1.037  0.1180  0.1968 -0.0382
   16CHTO  H216 6369   5.499   2.767   1.007  0.4225  0.4653  0.2284
   16CHTO   O73 6370   5.632   2.626   0.925  0.0701 -0.0898 -0.0880
   16CHTO  C113 6371   5.744   2.704   0.890  0.6913  1.0462  0.5454
   16CHTO  H217 6372   5.702   2.803   0.863  0.0662  0.8473  0.7819
   16CHTO  C124 6373   5.796   2.638   0.760 -0.3188  0.6795  0.3141
   16CHTO   O83 6374   5.830   2.503   0.790  0.4976 -0.5052  0.1432
   16CHTO  H204 6375   5.753   2.450   0.798  1.7347 -2.2288  0.9549
   16CHTO  C109 6376   5.846   2.727   1.004  0.5940 -0.4171  0.3911
   16CHTO  H213 6377   5.884   2.629   1.038  1.0542 -0.3643  0.0341
   16CHTO  C110 6378   5.768   2.787   1.126 -0.0976 -1.2759  0.0467
   16CHTO  H214 6379   5.728   2.885   1.099  0.6082 -0.9427  0.1800
   16CHTO   O78 6380   5.864   2.800   1.233  0.1969 -0.0996 -0.1779
   16CHTO  H200 6381   5.829   2.851   1.303 -0.7536  1.4056 -1.6987
   16CHTO  C111 6382   5.645   2.700   1.164 -0.5872  0.1190  0.2615
   16CHTO  H215 6383   5.680   2.600   1.193  1.1154  0.7202  0.3356
   16CHTO   N19 6384   5.561   2.751   1.278 -0.3191  0.3971  0.4993
   16CHTO  H207 6385   5.462   2.709   1.290 -0.2402  0.4414  1.3442
   16CHTO  H208 6386   5.627   2.744   1.364 -1.8777 -3.0376  1.5073
   16CHTO   O74 6387   5.949   2.818   0.959  0.0050 -0.5193 -0.3220
   16CHTO  C115 6388   6.099   2.742   0.934  0.1380 -0.0512  0.4095
   16CHTO  H219 6389   6.093   2.637   0.963 -1.9832  0.2358  1.0819
   16CHTO   O76 6390   6.136   2.737   0.772  0.1507  0.5034  0.6645
   16CHTO  C122 6391   6.259   2.669   0.753 -0.4457 -0.5516 -0.3342
   16CHTO  H226 6392   6.271   2.675   0.645 -0.1689  1.9601 -0.1889
   16CHTO  C126 6393   6.247   2.514   0.783 -0.2708  1.0929 -0.2515
   16CHTO   O85 6394   6.145   2.445   0.708  0.2406  0.6755  0.6119
   16CHTO  H206 6395   6.169   2.442   0.617 -0.6061  1.2767  0.3665
   16CHTO  C121 6396   6.377   2.726   0.831 -0.0729  0.2483 -0.1062
   16CHTO  H225 6397   6.463   2.657   0.818 -1.1430 -1.1819  0.2272
   16CHTO   O81 6398   6.419   2.845   0.766  0.4725 -0.5257 -0.3453
   16CHTO  H202 6399   6.353   2.911   0.764  1.7333  0.7437 -0.5244
   16CHTO  C119 6400   6.352   2.742   0.984 -0.0099 -0.5072 -0.4001
   16CHTO  H223 6401   6.343   2.642   1.026  0.5388 -0.5925 -0.4818
   16CHTO  C117 6402   6.219   2.814   1.005  0.6832  0.1346 -0.0127
   16CHTO  H221 6403   6.214   2.914   0.962  1.1263  0.9905  1.8704
   16CHTO   N20 6404   6.192   2.829   1.149  0.1159  0.1017  0.4838
   16CHTO  H209 6405   6.200   2.729   1.190  1.4252  0.1852  0.4313
   16CHTO  H210 6406   6.091   2.859   1.172 -0.7457 -1.4057 -1.1893
   16CHTO   O80 6407   6.480   2.794   1.063  0.3472  0.2672  0.6978
   16CHTO  C103 6408   6.616   2.681   1.092 -0.6735  0.2482 -0.1158
   16CHTO  H190 6409   6.602   2.595   1.025  1.5834 -0.5515  0.3743
   16CHTO  C101 6410   6.769   2.735   1.072  0.1612 -0.3181  0.1080
   16CHTO  H188 6411   6.777   2.830   1.127  1.8317 -0.3754  0.0083
   16CHTO   O68 6412   6.788   2.779   0.921 -0.0490 -0.1416 -0.0048
   16CHTO  H168 6413   6.858   2.841   0.912  1.5104 -1.8703  0.0157
   16CHTO   C99 6414   6.875   2.625   1.130 -0.2476  0.0557  0.6876
   16CHTO  H186 6415   6.861   2.535   1.067  1.7154  0.0071  0.3055
   16CHTO   N17 6416   7.019   2.673   1.121 -0.5107 -0.2258 -0.1901
   16CHTO  H174 6417   7.087   2.592   1.145 -1.1835 -1.3024 -1.8626
   16CHTO  H175 6418   7.040   2.726   1.030 -0.4512 -1.3447 -0.8308
   16CHTO   C97 6419   6.836   2.588   1.274 -0.1828 -0.0397  0.2096
   16CHTO  H184 6420   6.843   2.682   1.331 -0.9938  0.3293 -0.2896
   16CHTO   O64 6421   6.704   2.534   1.271 -0.1323  0.0244 -0.3731
   16CHTO  C104 6422   6.601   2.627   1.233 -0.5693  0.0868 -0.5925
   16CHTO  H191 6423   6.594   2.716   1.297  1.5409 -0.3133  0.2491
   16CHTO  C108 6424   6.478   2.541   1.253  0.9572  0.0813 -0.2401
   16CHTO   O71 6425   6.380   2.614   1.332 -0.5528 -0.0692  0.3986
   16CHTO  H171 6426   6.334   2.547   1.378 -1.3780 -0.2070 -0.6192
   16CHTO   O62 6427   6.917   2.486   1.337  0.1788  0.3466 -0.1509
   16CHTO   C91 6428   6.912   2.484   1.481  0.0836 -0.9130  0.1205
   16CHTO  H178 6429   6.918   2.587   1.517  0.8217 -0.1902 -1.9838
   16CHTO   C92 6430   7.049   2.414   1.537  0.2721 -0.2933  0.8598
   16CHTO  H179 6431   7.075   2.331   1.471  2.5489  1.3346 -0.3512
   16CHTO   O66 6432   7.153   2.516   1.531 -0.5115 -0.2403 -0.4245
   16CHTO  H166 6433   7.142   2.577   1.600  0.9175  0.8514 -1.1247
   16CHTO   C93 6434   7.036   2.367   1.682  0.2420  0.9857 -0.2303
   16CHTO  H180 6435   7.015   2.456   1.744  2.1536  0.8664  0.6358
   16CHTO   N16 6436   7.161   2.307   1.743  0.1849 -0.3335  0.1331
   16CHTO  H172 6437   7.148   2.284   1.847  0.9706 -0.2798  0.2500
   16CHTO  H173 6438   7.210   2.232   1.683  0.3379 -0.5327  0.5064
   16CHTO   C94 6439   6.916   2.269   1.692  0.5713 -0.4807  0.1487
   16CHTO  H181 6440   6.949   2.165   1.697  0.6948 -0.3693  2.2467
   16CHTO   O61 6441   6.815   2.286   1.593 -0.3021 -0.1511 -0.5129
   16CHTO   C95 6442   6.784   2.415   1.545 -0.8117 -0.2827  0.1193
   16CHTO  H182 6443   6.708   2.397   1.468 -0.6692  1.9802 -0.5724
   16CHTO  C106 6444   6.729   2.511   1.651 -0.2308 -0.3873 -0.2756
   16CHTO   O69 6445   6.595   2.470   1.684  0.1257  0.0742 -0.3833
   16CHTO  H169 6446   6.557   2.525   1.749  1.8948 -0.5651  1.2448
   16CHTO   O63 6447   6.836   2.288   1.830  0.1350  0.0497 -0.4135
   16CHTO   C96 6448   6.775   2.155   1.894 -0.4429 -0.3983 -0.2638
   16CHTO  H183 6449   6.859   2.095   1.927 -0.0625 -0.2071 -0.8757
   16CHTO   C98 6450   6.690   2.062   1.798  0.0535  0.5157  0.3428
   16CHTO  H185 6451   6.747   2.046   1.706 -0.6945  1.9618 -0.3828
   16CHTO   O67 6452   6.688   1.931   1.864 -0.3500  0.4041  0.4020
   16CHTO  H167 6453   6.774   1.897   1.883 -0.9892 -0.6869  1.4515
   16CHTO  C102 6454   6.532   2.100   1.770  0.0429 -0.1964 -0.2435
   16CHTO  H189 6455   6.478   2.005   1.767  1.0730 -0.8183  0.5532
   16CHTO   N18 6456   6.508   2.160   1.636 -0.6980  0.1544 -0.0018
   16CHTO  H176 6457   6.501   2.266   1.649  2.2633  0.3569  0.3269
   16CHTO  H177 6458   6.412   2.126   1.600 -0.4976 -0.6050  0.1550
   16CHTO  C105 6459   6.482   2.185   1.895 -0.4640  0.0402 -0.0669
   16CHTO  H192 6460   6.499   2.292   1.883 -0.5310  0.0479 -0.0904
   16CHTO   O65 6461   6.550   2.142   2.016  0.2987  0.2542  0.5277
   16CHTO  C100 6462   6.686   2.193   2.022 -0.5127  0.2156  0.4917
   16CHTO  H187 6463   6.662   2.299   2.033 -3.8967 -0.2615 -1.6721
   16CHTO  C107 6464   6.742   2.132   2.149 -0.4375  0.7349  0.2340
   16CHTO   O70 6465   6.678   2.186   2.264  0.1266 -0.7656  0.5583
   16CHTO  H170 6466   6.592   2.151   2.275 -0.2244  0.1209  0.6304
   16CHTO   O57 6467   6.331   2.156   1.899  0.2406 -0.4951 -0.4535
   16CHTO   C85 6468   6.237   2.263   1.893  0.1773 -0.7826 -0.1817
   16CHTO  H157 6469   6.275   2.328   1.812 -1.3410 -0.4773 -0.6747
   16CHTO   C83 6470   6.238   2.368   2.018  0.1727 -0.0149  0.0193
   16CHTO  H155 6471   6.341   2.401   2.030 -0.6701  1.9734  2.1356
   16CHTO   O56 6472   6.200   2.300   2.141  0.4443 -0.2135 -0.0993
   16CHTO  H135 6473   6.267   2.239   2.165 -0.0410 -0.1608  1.3947
   16CHTO   C81 6474   6.144   2.488   1.985  0.1606 -0.1836  0.4595
   16CHTO  H153 6475   6.179   2.537   1.894  2.3352 -1.4452  0.5807
   16CHTO   N14 6476   6.159   2.600   2.082  0.2120  0.2238 -0.2742
   16CHTO  H141 6477   6.167   2.564   2.182  0.7494  1.6225  0.1965
   16CHTO  H142 6478   6.237   2.670   2.061 -0.1024  0.5754 -0.2954
   16CHTO   C79 6479   5.997   2.445   1.962  0.4643  0.5433  0.2325
   16CHTO  H151 6480   5.943   2.532   1.924  1.2918 -0.1544 -2.6401
   16CHTO   O52 6481   5.994   2.340   1.856  0.0017 -0.2895 -0.3621
   16CHTO   C86 6482   6.088   2.223   1.871  0.6288 -0.4491 -0.5476
   16CHTO  H158 6483   6.052   2.161   1.956  2.8821 -1.5446 -0.3465
   16CHTO   C90 6484   6.057   2.138   1.748 -0.6766  0.2595  0.1876
   16CHTO   O60 6485   5.930   2.090   1.721  0.1810 -0.3568 -0.4653
   16CHTO  H138 6486   5.898   2.150   1.656 -1.5507  0.6516  1.2607
   16CHTO   O50 6487   5.936   2.398   2.085  0.0410  0.1498 -0.1438
   16CHTO   C73 6488   5.833   2.354   2.175 -0.3708 -0.0220 -0.1388
   16CHTO  H145 6489   5.863   2.253   2.207 -2.1473 -1.3316 -2.4557
   16CHTO   C74 6490   5.700   2.356   2.097 -0.1671  0.7002 -0.4596
   16CHTO  H146 6491   5.720   2.294   2.009  1.4568  1.7030 -0.8248
   16CHTO   O54 6492   5.604   2.276   2.167  0.0692 -0.2340 -0.2295
   16CHTO  H133 6493   5.521   2.285   2.123  0.4978 -1.7867 -1.4169
   16CHTO   C75 6494   5.657   2.497   2.056  0.0855 -0.5925  0.2437
   16CHTO  H147 6495   5.732   2.531   1.984 -0.3036 -1.3071 -0.5046
   16CHTO   N13 6496   5.534   2.508   1.969  0.0324  0.3060  0.6567
   16CHTO  H139 6497   5.539   2.440   1.885  0.2236  1.5534 -0.3609
   16CHTO  H140 6498   5.455   2.472   2.033 -1.4524 -0.3121 -1.4596
   16CHTO   C76 6499   5.652   2.590   2.187 -0.2725  0.0983 -0.2858
   16CHTO  H148 6500   5.570   2.555   2.249  0.5274  0.7479  1.1541
   16CHTO   O49 6501   5.778   2.580   2.262 -0.4210  0.8246 -0.2399
   16CHTO   C77 6502   5.818   2.448   2.303 -0.2404 -0.3561  0.2919
   16CHTO  H149 6503   5.743   2.407   2.371 -0.1989  1.1990  1.2955
   16CHTO   C88 6504   5.952   2.446   2.376  0.5532 -0.1720  0.0547
   16CHTO   O58 6505   5.947   2.529   2.489  0.3746 -0.2067  0.1258
   16CHTO  H136 6506   5.992   2.609   2.473 -0.1425  0.3182  1.2066
   16CHTO   O51 6507   5.645   2.751   2.156 -0.3104  0.0207 -0.3236
   16CHTO   C78 6508   5.639   2.847   2.295  0.3587  0.2294 -0.7360
   16CHTO  H150 6509   5.657   2.783   2.384 -1.2522 -0.5552 -0.9481
   16CHTO   C80 6510   5.501   2.918   2.317 -0.3133  0.5527  0.4964
   16CHTO  H152 6511   5.481   2.984   2.230 -1.1109 -1.1440 -0.6250
   16CHTO   O55 6512   5.402   2.811   2.336 -0.0917 -0.4141 -0.5504
   16CHTO  H134 6513   5.377   2.779   2.251 -1.4026  1.8397 -1.0650
   16CHTO   C84 6514   5.503   3.016   2.445 -0.1640  0.1768 -0.0037
   16CHTO  H156 6515   5.536   2.961   2.533 -0.3977 -2.6655 -1.6530
   16CHTO   N15 6516   5.374   3.082   2.472 -0.2501 -0.3139 -0.4378
   16CHTO  H143 6517   5.303   3.008   2.501  1.2476 -2.2825 -1.6175
   16CHTO  H144 6518   5.390   3.160   2.543  0.8118  1.1569 -2.2386
   16CHTO   C87 6519   5.615   3.124   2.421 -0.0221 -0.4289 -0.0003
   16CHTO  H159 6520   5.602   3.192   2.336  1.1260  0.2555  0.3672
   16CHTO   O53 6521   5.753   3.044   2.396 -0.1575 -0.1712 -0.1841
   16CHTO   C82 6522   5.752   2.952   2.284 -0.2239  0.9661 -0.1969
   16CHTO  H154 6523   5.740   3.009   2.192  0.3942 -0.2945 -1.0841
   16CHTO   C89 6524   5.887   2.874   2.270 -0.5638  0.6106  0.2250
   16CHTO   O59 6525   5.994   2.969   2.289  0.0236  0.4739 -0.1131
   16CHTO  H137 6526   6.073   2.936   2.250  1.3218  0.5789  2.3676
   16CHTO   O45 6527   5.637   3.216   2.553  0.3193  0.5197 -0.2574
   16CHTO   C67 6528   5.736   3.320   2.531  0.6310 -0.2148  0.5286
   16CHTO  H124 6529   5.801   3.286   2.450 -2.7595 -0.7066 -2.1220
   16CHTO   C65 6530   5.662   3.452   2.484  0.3231 -0.4491 -0.4517
   16CHTO  H122 6531   5.565   3.454   2.533  0.9541 -1.1817  0.8434
   16CHTO   O44 6532   5.638   3.421   2.342  0.2585  0.6111 -0.7379
   16CHTO  H102 6533   5.713   3.441   2.290  1.7058 -2.1252  0.2076
   16CHTO   C63 6534   5.732   3.584   2.528 -0.0885  0.3991  0.2055
   16CHTO  H120 6535   5.698   3.612   2.627 -1.7747 -0.7740 -0.0245
   16CHTO   N11 6536   5.692   3.706   2.452 -0.0529 -0.1076  0.6731
   16CHTO  H108 6537   5.751   3.713   2.363  0.4919 -0.0237  1.0423
   16CHTO  H109 6538   5.586   3.715   2.440 -0.0562 -0.2274  0.5990
   16CHTO   C61 6539   5.885   3.558   2.536  0.2027 -0.3565  0.0684
   16CHTO  H118 6540   5.926   3.648   2.584 -2.6500  0.6422  0.7227
   16CHTO   O40 6541   5.923   3.448   2.629 -0.0935  0.0413  0.3219
   16CHTO   C68 6542   5.822   3.341   2.650  0.2886 -0.5746 -0.5140
   16CHTO  H125 6543   5.757   3.386   2.728  2.1441  0.4978  0.4264
   16CHTO   C72 6544   5.888   3.213   2.702 -0.8490 -0.3104 -0.5629
   16CHTO   O48 6545   5.940   3.212   2.833 -0.0109  0.0863  0.3742
   16CHTO  H105 6546   6.008   3.146   2.830  1.7295  1.8505  0.0828
   16CHTO   O38 6547   5.945   3.526   2.408  0.4896 -0.2174 -0.0789
   16CHTO   C55 6548   6.090   3.538   2.413  0.3523 -0.5658  0.1472
   16CHTO  H112 6549   6.127   3.505   2.511 -1.1036  1.2583  1.3307
   16CHTO   C56 6550   6.148   3.677   2.375 -0.0512  0.2129 -0.1635
   16CHTO  H113 6551   6.105   3.700   2.277 -0.6117 -1.3318 -0.2828
   16CHTO   O42 6552   6.093   3.780   2.453  0.3040 -0.0753  0.4064
   16CHTO  H100 6553   6.053   3.745   2.530 -0.8893 -2.2304 -1.1583
   16CHTO   C57 6554   6.311   3.678   2.364  0.6116 -0.6037 -0.2568
   16CHTO  H114 6555   6.350   3.673   2.466  0.8087 -0.4337 -0.3221
   16CHTO   N10 6556   6.383   3.804   2.309 -0.2405  0.3424 -0.1931
   16CHTO  H106 6557   6.332   3.893   2.342 -0.5622  0.0538  0.0892
   16CHTO  H107 6558   6.484   3.804   2.347 -0.0463  1.1774 -0.6996
   16CHTO   C58 6559   6.352   3.555   2.285  0.7199 -0.9682 -0.1327
   16CHTO  H115 6560   6.325   3.569   2.178 -0.4104 -1.3429  0.0968
   16CHTO   O37 6561   6.290   3.440   2.332 -0.4359  0.4037  0.3295
   16CHTO   C59 6562   6.153   3.440   2.309 -0.5093  0.6894 -1.0079
   16CHTO  H116 6563   6.130   3.469   2.206 -2.6793  0.6885 -0.5550
   16CHTO   C70 6564   6.094   3.300   2.319  0.2247  0.0273 -0.0777
   16CHTO   O46 6565   5.957   3.289   2.275  0.2060  0.1769  0.3367
   16CHTO  H103 6566   5.896   3.329   2.334 -0.4149 -2.6197  1.6934
   16CHTO   O39 6567   6.507   3.513   2.299  0.0547 -0.5901 -0.1252
   16CHTO   C60 6568   6.555   3.414   2.202  0.6479 -0.1997  0.4075
   16CHTO  H117 6569   6.472   3.375   2.142  0.4362  2.5041 -1.0871
   16CHTO   C62 6570   6.650   3.488   2.106 -0.5004 -0.1988 -0.1276
   16CHTO  H119 6571   6.596   3.572   2.058 -0.9008 -0.4916 -0.1915
   16CHTO   O43 6572   6.765   3.547   2.165  0.1520 -0.5370 -0.0187
   16CHTO  H101 6573   6.744   3.615   2.226 -0.7265 -0.5644 -0.2839
   16CHTO   C66 6574   6.686   3.380   1.992 -0.4883 -0.0338 -0.4947
   16CHTO  H123 6575   6.593   3.339   1.952 -1.3010  2.0419 -0.8120
   16CHTO   N12 6576   6.758   3.436   1.874  0.2233  0.4566 -0.0469
   16CHTO  H110 6577   6.689   3.500   1.821  0.0142 -0.5660 -1.0296
   16CHTO  H111 6578   6.787   3.353   1.812  0.8552 -0.7364  1.7994
   16CHTO   C69 6579   6.765   3.264   2.056 -0.9776  0.0941  0.0357
   16CHTO  H126 6580   6.869   3.291   2.086 -0.9550  1.1752 -0.9615
   16CHTO   O41 6581   6.685   3.208   2.168 -0.2841 -0.0307  0.8239
   16CHTO   C64 6582   6.625   3.294   2.274 -0.1208  0.2002  0.4692
   16CHTO  H121 6583   6.707   3.325   2.342  0.7050 -0.4607 -0.2102
   16CHTO   C71 6584   6.528   3.217   2.358 -0.1769  0.1374  0.2405
   16CHTO   O47 6585   6.558   3.087   2.407  0.0069 -0.5650  0.3666
   16CHTO  H104 6586   6.477   3.047   2.434  0.1979 -0.1291  1.5949
   16CHTO   O34 6587   6.790   3.154   1.981 -0.1803 -0.0378 -0.2775
   16CHTO   C49 6588   6.865   3.003   2.011  0.0907  0.1069 -0.1060
   16CHTO   H91 6589   6.956   2.986   1.954 -0.2902 -2.3310 -0.0582
   16CHTO   C47 6590   6.759   2.895   1.966 -0.0739  0.1629  0.5394
   16CHTO   H89 6591   6.817   2.800   1.966 -0.4877 -0.1137 -1.6163
   16CHTO   O33 6592   6.724   2.926   1.833  0.3336 -0.2728  0.4912
   16CHTO   H70 6593   6.799   2.919   1.777 -0.6000  1.7164 -1.0410
   16CHTO   C45 6594   6.638   2.890   2.068  0.6868  0.1333 -0.0060
   16CHTO   H87 6595   6.592   2.990   2.064 -2.6114 -1.3158 -0.1783
   16CHTO    N8 6596   6.534   2.791   2.033  0.0549 -0.5278  0.1323
   16CHTO   H75 6597   6.490   2.816   1.937 -1.4514  1.0218  1.2029
   16CHTO   H76 6598   6.573   2.691   2.022  0.4760 -0.3832  0.3180
   16CHTO   C43 6599   6.699   2.872   2.219  0.0140  0.3237 -0.3200
   16CHTO   H85 6600   6.612   2.876   2.285 -0.5302  0.4343 -1.0309
   16CHTO   O29 6601   6.809   2.962   2.251  0.4453  0.0301  0.1477
   16CHTO   C50 6602   6.910   2.990   2.152  0.4352  0.0041 -0.3209
   16CHTO   H92 6603   6.961   3.082   2.183  1.6754 -0.9830  0.6239
   16CHTO   C54 6604   7.023   2.880   2.169  0.1924  0.1593  0.4301
   16CHTO   O36 6605   7.145   2.939   2.111 -0.0313 -0.0090 -0.7112
   16CHTO   H72 6606   7.213   2.956   2.172 -0.0112  0.0825 -0.7591
   16CHTO   O27 6607   6.746   2.739   2.229  0.2286  0.0693  0.4666
   16CHTO   C37 6608   6.811   2.655   2.323 -0.5344 -0.2485  0.2561
   16CHTO   H79 6609   6.909   2.696   2.348 -0.2631 -1.1897  0.7673
   16CHTO   C38 6610   6.729   2.654   2.457 -0.0701  0.4556  0.4258
   16CHTO   H80 6611   6.628   2.616   2.436  0.0143  0.1862  0.4977
   16CHTO   O31 6612   6.724   2.789   2.507 -0.0947  0.7491 -0.3631
   16CHTO   H68 6613   6.637   2.824   2.501 -0.6928 -0.9270 -1.7930
   16CHTO   C39 6614   6.806   2.560   2.568 -0.0214 -0.5138  0.5602
   16CHTO   H81 6615   6.900   2.609   2.593  0.1791 -0.2319 -0.7123
   16CHTO    N7 6616   6.729   2.546   2.691 -0.5024  0.6381 -0.5498
   16CHTO   H73 6617   6.713   2.639   2.744  2.0804  0.0952  1.3150
   16CHTO   H74 6618   6.634   2.506   2.659 -1.4111 -0.3591  3.1713
   16CHTO   C40 6619   6.853   2.420   2.503  0.7057  0.2596  0.0909
   16CHTO   H82 6620   6.775   2.343   2.501  0.5235  0.4607 -0.8175
   16CHTO   O26 6621   6.907   2.440   2.372 -0.6747 -0.0120 -0.0269
   16CHTO   C41 6622   6.826   2.508   2.272 -0.3719 -0.6653 -0.4533
   16CHTO   H83 6623   6.724   2.471   2.255 -0.5049 -0.8662  0.7475
   16CHTO   C52 6624   6.903   2.528   2.143 -0.1218  0.2571  0.6310
   16CHTO   O35 6625   6.963   2.394   2.081 -0.0129 -0.4634 -0.0814
   16CHTO   H71 6626   7.056   2.400   2.090 -0.3078  1.2237  2.5937
   16CHTO   O28 6627   6.964   2.360   2.576  0.4865 -0.0017  0.0307
   16CHTO   C42 6628   7.005   2.217   2.555  0.3249  0.0948 -0.1912
   16CHTO   H84 6629   7.099   2.204   2.610 -0.5444 -0.9197  1.1063
   16CHTO   C44 6630   7.036   2.173   2.408  0.8345 -0.5086 -0.6614
   16CHTO   H86 6631   6.946   2.190   2.347  1.8486  2.2428 -1.4490
   16CHTO   O32 6632   7.146   2.258   2.369  0.3006  1.0304 -0.7245
   16CHTO   H69 6633   7.162   2.269   2.278 -2.4667  0.7184 -1.2813
   16CHTO   C48 6634   7.054   2.019   2.397 -0.3160  0.7038  0.1726
   16CHTO   H90 6635   7.136   1.987   2.462 -0.6986 -1.9907 -0.6007
   16CHTO    N9 6636   7.098   1.988   2.252  0.3796 -0.4827 -0.2667
   16CHTO   H77 6637   7.157   1.898   2.248  0.2506 -0.7810  3.0603
   16CHTO   H78 6638   7.003   1.972   2.203 -0.6014  0.8406  1.1594
   16CHTO   C51 6639   6.934   1.938   2.437  0.5158 -0.5718  0.2340
   16CHTO   H93 6640   6.844   1.976   2.386 -0.0477 -1.3237  0.6645
   16CHTO   O30 6641   6.918   1.951   2.580 -0.0375 -0.1492  0.2085
   16CHTO   C46 6642   6.903   2.119   2.624  0.1939 -0.0958  0.1031
   16CHTO   H88 6643   6.799   2.146   2.604  0.3330 -0.4990 -1.2013
   16CHTO   C53 6644   6.923   2.122   2.776  0.0395 -0.4721 -0.3332
   16CHTO   O72 6645   6.864   2.240   2.832 -0.3627 -0.8008  0.0771
   16CHTO  H199 6646   6.781   2.220   2.869  0.0190 -0.6511  1.0305
   16CHTO   O22 6647   6.941   1.796   2.409 -0.0806  0.7410  0.1002
   16CHTO   C31 6648   6.827   1.700   2.441  0.5153 -0.7531 -0.2309
   16CHTO   H59 6649   6.865   1.599   2.416  2.6057 -0.0055 -0.2059
   16CHTO   C29 6650   6.780   1.689   2.587  0.2954 -0.0036  0.6981
   16CHTO   H57 6651   6.742   1.787   2.618 -1.2885 -0.2924 -0.2706
   16CHTO   O21 6652   6.894   1.669   2.666 -0.3007 -0.1959  0.1881
   16CHTO   H37 6653   6.873   1.673   2.757  1.0869  0.7401  0.4828
   16CHTO   C27 6654   6.668   1.579   2.614  0.1504 -0.1824 -0.5742
   16CHTO   H55 6655   6.716   1.481   2.599  1.3373  0.7218 -3.0772
   16CHTO    N5 6656   6.620   1.590   2.754 -0.0509  0.4538 -0.2709
   16CHTO   H43 6657   6.703   1.613   2.819 -0.1366  0.2701 -0.0979
   16CHTO   H44 6658   6.538   1.659   2.765 -0.0893  0.6069 -1.4068
   16CHTO   C25 6659   6.556   1.602   2.505 -0.3431  0.1699 -0.8285
   16CHTO   H53 6660   6.499   1.692   2.535 -0.1520 -0.2652  0.8906
   16CHTO   O17 6661   6.603   1.619   2.363  0.0336 -0.1516 -0.4591
   16CHTO   C32 6662   6.703   1.719   2.349  0.3260 -0.3294  0.4321
   16CHTO   H60 6663   6.657   1.816   2.369 -1.2073 -0.5890 -1.7280
   16CHTO   C36 6664   6.743   1.729   2.203 -0.7019  0.0520 -1.1224
   16CHTO   O25 6665   6.638   1.795   2.131  0.3670 -0.0394  0.0430
   16CHTO   H40 6666   6.677   1.872   2.096  1.1503 -0.5929 -0.3330
   16CHTO   O15 6667   6.444   1.476   2.522 -0.8023 -0.0483 -0.7136
   16CHTO   C19 6668   6.312   1.472   2.564  0.6568 -0.3971  0.4448
   16CHTO   H47 6669   6.317   1.543   2.648  1.3513  0.8377 -0.6142
   16CHTO   C20 6670   6.218   1.516   2.451  0.4192  0.5704 -0.6494
   16CHTO   H48 6671   6.228   1.453   2.361  0.8262 -0.0802 -0.1612
   16CHTO   O19 6672   6.263   1.652   2.425 -0.0154  0.3696  0.4756
   16CHTO   H35 6673   6.325   1.646   2.355  1.2456 -0.2340  1.6231
   16CHTO   C21 6674   6.070   1.521   2.494 -0.2922  0.4028 -0.0242
   16CHTO   H49 6675   6.061   1.596   2.572  1.1491  0.6723 -0.0909
   16CHTO    N4 6676   5.980   1.559   2.381  0.5699  0.5030 -0.0030
   16CHTO   H41 6677   6.029   1.609   2.299 -1.5558  2.7468  0.0585
   16CHTO   H42 6678   5.931   1.470   2.342  1.6189 -0.3096  0.5104
   16CHTO   C22 6679   6.032   1.384   2.559 -0.1217 -0.2883  0.4067
   16CHTO   H50 6680   6.034   1.310   2.480 -0.5948  0.1446 -0.0111
   16CHTO   O14 6681   6.124   1.364   2.670  0.4157 -0.3854 -0.4020
   16CHTO   C23 6682   6.259   1.344   2.623  0.3735 -0.2095  0.1433
   16CHTO   H51 6683   6.253   1.262   2.550  1.5105  1.3506 -1.7490
   16CHTO   C34 6684   6.353   1.304   2.739  0.3148 -0.1040  0.0982
   16CHTO   O23 6685   6.465   1.246   2.676  0.3793 -0.4886 -0.3051
   16CHTO   H38 6686   6.524   1.211   2.740  0.7693 -0.9100 -0.8902
   16CHTO   O16 6687   5.905   1.388   2.625 -0.3816  0.2914 -0.7548
   16CHTO   C24 6688   5.798   1.268   2.568 -0.3078  0.1845  0.0752
   16CHTO   H52 6689   5.844   1.212   2.486 -0.9254  1.1144 -0.9197
   16CHTO   C26 6690   5.673   1.338   2.518 -0.3628 -0.0195 -0.2752
   16CHTO   H54 6691   5.654   1.420   2.590  0.6620 -0.8496  0.9638
   16CHTO   O20 6692   5.702   1.401   2.391 -0.3235  0.3499  0.5831
   16CHTO   H36 6693   5.769   1.464   2.405 -1.3343  1.2881  1.3012
   16CHTO   C30 6694   5.545   1.250   2.513  0.0732  0.4167 -0.2074
   16CHTO   H58 6695   5.544   1.186   2.423  0.3582  0.1459 -0.0150
   16CHTO    N6 6696   5.420   1.331   2.501 -0.0048  0.0281 -0.3146
   16CHTO   H45 6697   5.443   1.434   2.521 -0.9687 -0.0609  1.3518
   16CHTO   H46 6698   5.335   1.303   2.561 -0.5327  2.2031 -0.0184
   16CHTO   C33 6699   5.537   1.155   2.631 -0.2209  0.8129 -0.2108
   16CHTO   H61 6700   5.534   1.223   2.717 -2.2699  1.5175 -0.8099
   16CHTO   O18 6701   5.656   1.080   2.638 -0.2423  0.0698  0.1124
   16CHTO   C28 6702   5.765   1.163   2.678 -0.0355 -0.0162 -0.3630
   16CHTO   H56 6703   5.747   1.214   2.772  2.1142 -0.7837  0.5085
   16CHTO   C35 6704   5.896   1.085   2.703 -0.4530  0.5576 -0.3514
   16CHTO   O24 6705   5.891   0.971   2.791  0.2715 -0.1602  0.9587
   16CHTO   H39 6706   5.849   1.001   2.870 -1.5127  2.6813 -0.9658
   16CHTO    O9 6707   5.415   1.070   2.639 -0.1527 -0.1797  0.6157
   16CHTO   C13 6708   5.325   1.094   2.790  0.7045  0.8307 -0.4153
   16CHTO   H26 6709   5.270   1.190   2.779  0.2943  0.6383 -0.0806
   16CHTO   C11 6710   5.424   1.098   2.915  0.4080 -0.2723  0.8354
   16CHTO   H24 6711   5.502   1.174   2.905  1.4283 -1.3878  0.1265
   16CHTO    O8 6712   5.496   0.973   2.937 -0.6278  0.1854  0.0786
   16CHTO    H3 6713   5.493   0.944   3.026 -1.4858 -1.2877 -0.4100
   16CHTO    C9 6714   5.326   1.127   3.036  0.5836  0.0046 -0.4061
   16CHTO   H22 6715   5.270   1.218   3.010  1.5826  0.8012  0.1415
   16CHTO    N2 6716   5.406   1.162   3.162  0.2092  0.1988  0.1308
   16CHTO   H10 6717   5.429   1.266   3.179  0.0835  0.1921  0.3354
   16CHTO   H11 6718   5.349   1.122   3.245 -1.2904  0.2847 -0.8326
   16CHTO    C7 6719   5.224   1.003   3.056  0.3495  0.1305 -0.7617
   16CHTO   H20 6720   5.154   1.044   3.132 -1.0629  0.0157 -1.9800
   16CHTO    O4 6721   5.153   0.985   2.929 -0.3728 -0.3584 -0.6530
   16CHTO   C14 6722   5.218   0.984   2.798 -1.0890 -0.1565  0.5943
   16CHTO   H27 6723   5.141   1.014   2.724 -1.0464 -0.6922  0.3388
   16CHTO   C18 6724   5.280   0.849   2.748  0.1727 -0.2856  0.3220
   16CHTO   O13 6725   5.181   0.755   2.720 -0.3762  0.8199 -0.1135
   16CHTO    H7 6726   5.121   0.735   2.789  1.5820 -1.0592  1.1136
   16CHTO    O2 6727   5.298   0.865   3.090  0.4701  0.0313 -0.5866
   16CHTO    C1 6728   5.235   0.789   3.188  0.0094 -0.1758 -0.4128
   16CHTO   H14 6729   5.125   0.799   3.173  0.2913  1.0878 -1.7456
   16CHTO    C2 6730   5.270   0.818   3.341  0.4749  0.2879 -0.2566
   16CHTO   H15 6731   5.379   0.824   3.355  0.4647  0.9106 -0.4280
   16CHTO    O6 6732   5.224   0.950   3.373  0.3377 -0.3405  0.1146
   16CHTO    H1 6733   5.276   0.987   3.441 -0.6444  0.8942  0.2220
   16CHTO    C3 6734   5.206   0.718   3.445  0.2701  0.3493 -0.1689
   16CHTO   H16 6735   5.098   0.738   3.453 -0.3645 -1.9751 -2.1056
   16CHTO    N1 6736   5.266   0.729   3.583  0.0548  0.5219 -0.2305
   16CHTO    H8 6737   5.341   0.806   3.583 -1.3120  1.8707  0.5800
   16CHTO    H9 6738   5.328   0.641   3.590 -1.9814 -0.9813 -0.6059
   16CHTO    C4 6739   5.214   0.572   3.386  0.2858  0.4122  0.7053
   16CHTO   H17 6740   5.315   0.535   3.399 -0.0504 -0.5228  0.6975
   16CHTO    O1 6741   5.188   0.557   3.242  0.2388  0.0693 -0.4509
   16CHTO    C5 6742   5.270   0.639   3.160  0.2377  0.2810  0.2046
   16CHTO   H18 6743   5.372   0.611   3.185  0.3931 -0.0160 -0.7470
   16CHTO   C16 6744   5.230   0.601   3.013  0.4198  0.4194 -0.3462
   16CHTO   O11 6745   5.250   0.462   2.989 -0.5702 -0.5930  0.1496
   16CHTO    H5 6746   5.275   0.456   2.898  0.5378  4.1178  0.0265
   16CHTO    O3 6747   5.122   0.489   3.453 -0.0390  0.2043 -0.3175
   16CHTO    C6 6748   5.173   0.356   3.487  0.0917  0.3947 -0.0866
   16CHTO   H19 6749   5.273   0.335   3.447  0.1202  0.6592 -0.1507
   16CHTO    C8 6750   5.198   0.338   3.638 -0.2368 -0.2365 -0.2850
   16CHTO   H21 6751   5.106   0.362   3.693 -0.0165  2.1787 -0.9184
   16CHTO    O7 6752   5.307   0.429   3.675  0.0606  0.0708  0.1271
   16CHTO    H2 6753   5.275   0.501   3.725  1.9636  1.0966 -0.0853
   16CHTO   C12 6754   5.238   0.192   3.674  0.3311  0.3686 -0.1912
   16CHTO   H25 6755   5.337   0.168   3.630 -0.4121 -2.1705 -0.6069
   16CHTO    N3 6756   5.245   0.181   3.824 -0.0579 -0.1657  0.7173
   16CHTO   H12 6757   5.291   0.087   3.850 -0.8727 -0.7274  0.1768
   16CHTO   H13 6758   5.308   0.261   3.860  0.1589 -0.6329  1.3743
   16CHTO   C15 6759   5.138   0.091   3.613 -0.4751 -0.3388 -0.9435
   16CHTO   H28 6760   5.038   0.098   3.656  0.7690 -1.9735  2.4151
   16CHTO   O10 6761   5.181  -0.046   3.632 -0.4118  0.2863  0.1969
   16CHTO    H4 6762   5.272  -0.068   3.629 -0.0078  1.9727 -0.2945
   16CHTO    O5 6763   5.117   0.111   3.472  0.5351  0.6016  0.0107
   16CHTO   C10 6764   5.077   0.244   3.434  0.3569  0.1600 -1.2062
   16CHTO   H23 6765   4.980   0.269   3.477  0.0281  0.2079 -1.9848
   16CHTO   C17 6766   5.067   0.249   3.283 -0.3433  0.1110  0.6041
   16CHTO   O12 6767   5.193   0.260   3.213  0.6184 -0.1377  0.1791
   16CHTO    H6 6768   5.258   0.207   3.256  2.1813  0.9703 -0.7693
   17CHTO  H203 6769   6.076   3.545   0.234 -1.5331 -1.0918 -0.3211
   17CHTO   O82 6770   6.007   3.600   0.202  0.1102  0.9695 -0.4783
   17CHTO  C123 6771   5.922   3.645   0.309 -0.0522 -0.0675 -0.6564
   17CHTO  H227 6772   5.925   3.577   0.396 -2.6185  1.7591  0.9324
   17CHTO   O77 6773   5.989   3.771   0.345 -0.5595  0.2682 -0.1903
   17CHTO  C118 6774   5.916   3.848   0.441 -0.2297 -0.4323 -0.1190
   17CHTO  H222 6775   5.890   3.774   0.518  0.2198  0.5377  0.9723
   17CHTO  C125 6776   6.005   3.954   0.509  0.2326 -0.6022  0.0208
   17CHTO   O84 6777   6.070   4.048   0.430  0.3328  0.1191 -0.0632
   17CHTO  H205 6778   6.157   4.047   0.464 -0.2585 -1.0122  1.4955
   17CHTO  C114 6779   5.787   3.904   0.375 -0.0055 -0.0423 -0.2233
   17CHTO  H218 6780   5.811   3.953   0.281 -0.8903 -1.5924 -1.2873
   17CHTO  C116 6781   5.696   3.782   0.334 -0.5786 -0.4479 -0.3371
   17CHTO  H220 6782   5.651   3.740   0.427  0.8904  0.9004  1.0261
   17CHTO   O79 6783   5.598   3.838   0.255 -0.4237  0.1183  0.1960
   17CHTO  H201 6784   5.517   3.827   0.302 -0.1970 -0.5869  0.4284
   17CHTO  C120 6785   5.776   3.670   0.257 -0.4470 -0.0972  0.4166
   17CHTO  H224 6786   5.779   3.710   0.154  0.1460 -0.3873  0.3199
   17CHTO   N21 6787   5.709   3.538   0.265  0.0227 -0.3315  0.2490
   17CHTO  H211 6788   5.679   3.512   0.366 -0.2718 -2.4619 -0.3736
   17CHTO  H212 6789   5.775   3.459   0.233 -0.5483 -0.7208  0.0302
   17CHTO   O75 6790   5.716   3.990   0.459  0.5458 -0.4011 -0.1344
   17CHTO  C112 6791   5.693   4.138   0.399  0.3016  0.2482  0.1361
   17CHTO  H216 6792   5.661   4.131   0.294  1.3449 -0.2801 -0.1476
   17CHTO   O73 6793   5.814   4.207   0.412 -0.2689  0.3447 -0.7364
   17CHTO  C113 6794   5.818   4.332   0.344  0.1259  0.2129 -0.1366
   17CHTO  H217 6795   5.784   4.317   0.240 -2.2512 -0.0430  0.6366
   17CHTO  C124 6796   5.967   4.383   0.356  0.0367  0.1019 -0.3211
   17CHTO   O83 6797   6.011   4.382   0.498  0.5966 -0.2445  0.3095
   17CHTO  H204 6798   6.088   4.434   0.505  0.6646 -0.4621  1.1275
   17CHTO  C109 6799   5.714   4.436   0.400 -0.0813 -0.1174 -0.3151
   17CHTO  H213 6800   5.749   4.467   0.499  0.3004  0.4292 -0.6168
   17CHTO  C110 6801   5.574   4.367   0.415  0.0195  0.6422  0.5906
   17CHTO  H214 6802   5.529   4.358   0.316 -2.1176  3.3873  1.2380
   17CHTO   O78 6803   5.496   4.449   0.500  0.0485  0.2794  0.0131
   17CHTO  H200 6804   5.406   4.452   0.474  0.2857 -0.2380 -0.8667
   17CHTO  C111 6805   5.585   4.224   0.472  0.3161 -0.1060 -0.3496
   17CHTO  H215 6806   5.626   4.234   0.574 -0.1809  0.5395 -0.2156
   17CHTO   N19 6807   5.455   4.155   0.486  0.3099  0.1043  0.4837
   17CHTO  H207 6808   5.461   4.058   0.533  1.2379 -0.2643 -0.3834
   17CHTO  H208 6809   5.373   4.219   0.517 -0.8719 -0.3884 -1.5063
   17CHTO   O74 6810   5.709   4.545   0.303 -0.1005 -0.0503 -0.1677
   17CHTO  C115 6811   5.731   4.689   0.370  0.1424 -0.2497 -0.1301
   17CHTO  H219 6812   5.695   4.689   0.473 -0.2936  1.2116 -0.2719
   17CHTO   O76 6813   5.896   4.731   0.389 -0.2078 -0.4835  0.0655
   17CHTO  C122 6814   5.957   4.743   0.258 -0.9059  0.4690 -0.2184
   17CHTO  H226 6815   5.944   4.646   0.210  0.8483 -0.2925  0.8146
   17CHTO  C126 6816   6.116   4.772   0.254 -0.0391 -0.0068 -0.0370
   17CHTO   O85 6817   6.183   4.678   0.340  0.0003 -0.3255  0.5295
   17CHTO  H206 6818   6.270   4.706   0.361  0.5295  0.0082 -1.8992
   17CHTO  C121 6819   5.876   4.852   0.172  0.0239 -0.8769  0.1133
   17CHTO  H225 6820   5.947   4.935   0.154 -0.5785 -0.4737 -0.4235
   17CHTO   O81 6821   5.832   4.793   0.047  0.0903  0.2678  0.0303
   17CHTO  H202 6822   5.905   4.775  -0.009  0.0548  0.8315 -0.2088
   17CHTO  C119 6823   5.759   4.914   0.254 -0.2046  0.5616  0.2053
   17CHTO  H223 6824   5.810   4.941   0.346  1.1166 -1.0084 -0.0412
   17CHTO  C117 6825   5.654   4.803   0.291 -0.0327  0.1963  0.4277
   17CHTO  H221 6826   5.624   4.745   0.204  0.5793  1.0403 -0.3504
   17CHTO   N20 6827   5.527   4.855   0.350 -0.1088 -0.4829 -0.0435
   17CHTO  H209 6828   5.543   4.897   0.448 -1.1483 -0.4356  0.1201
   17CHTO  H210 6829   5.487   4.937   0.292  0.1573  2.1396  3.2961
   17CHTO   O80 6830   5.720   5.059   0.194  0.1162  0.2603  0.1350
   17CHTO  C103 6831   5.836   5.181   0.230 -0.6177 -0.1947 -0.8046
   17CHTO  H190 6832   5.909   5.136   0.297  1.3098  0.5445 -2.3533
   17CHTO  C101 6833   5.916   5.252   0.112  0.1386  0.5450 -0.2164
   17CHTO  H188 6834   5.841   5.296   0.046  0.4034 -0.8913 -1.5352
   17CHTO   O68 6835   5.997   5.150   0.018 -0.5958 -0.4792  0.1363
   17CHTO  H168 6836   6.019   5.205  -0.055 -0.0429  0.0710  0.7128
   17CHTO   C99 6837   6.007   5.379   0.169 -0.5985  0.2917 -0.3021
   17CHTO  H186 6838   6.085   5.338   0.237  0.2265  1.4907 -0.5036
   17CHTO   N17 6839   6.076   5.465   0.068  0.4367 -0.2395 -0.1591
   17CHTO  H174 6840   6.152   5.531   0.106  0.4972  0.9668 -2.2964
   17CHTO  H175 6841   6.113   5.404  -0.013 -0.0599 -2.2847  1.1147
   17CHTO   C97 6842   5.920   5.470   0.259  0.3280 -0.7555 -0.0127
   17CHTO  H184 6843   5.857   5.537   0.198 -0.5593 -2.0092 -0.4915
   17CHTO   O64 6844   5.843   5.400   0.360 -0.2344 -0.1046  0.0212
   17CHTO  C104 6845   5.757   5.289   0.312 -1.2476 -0.9563 -0.3516
   17CHTO  H191 6846   5.676   5.332   0.253  0.2484  1.9182 -0.4075
   17CHTO  C108 6847   5.691   5.230   0.437  0.3921 -0.2261 -0.5133
   17CHTO   O71 6848   5.591   5.315   0.485 -0.0404  0.6170  0.4321
   17CHTO  H171 6849   5.640   5.387   0.520 -0.8260  1.4536 -0.1681
   17CHTO   O62 6850   6.000   5.552   0.348 -0.4976  0.2474 -0.3512
   17CHTO   C91 6851   5.978   5.691   0.377 -0.1084  0.1040  0.5437
   17CHTO  H178 6852   5.911   5.730   0.300  0.6440  0.5802  0.1316
   17CHTO   C92 6853   6.120   5.758   0.358 -0.5897  0.0437 -0.5993
   17CHTO  H179 6854   6.164   5.722   0.264  1.5524  1.5442 -0.2058
   17CHTO   O66 6855   6.094   5.899   0.329 -0.2342  0.0558  0.0717
   17CHTO  H166 6856   6.006   5.919   0.303 -0.3583  1.3132  1.3545
   17CHTO   C93 6857   6.216   5.744   0.488  0.5240  0.0043 -0.2839
   17CHTO  H180 6858   6.295   5.818   0.469  0.4312  0.4725  1.1233
   17CHTO   N16 6859   6.285   5.615   0.492  0.0785  0.0295 -0.8655
   17CHTO  H172 6860   6.373   5.632   0.553 -1.6755  2.2721  1.1757
   17CHTO  H173 6861   6.297   5.564   0.398  1.9034 -1.7368  0.2937
   17CHTO   C94 6862   6.146   5.784   0.617 -0.2749 -0.1010  0.3681
   17CHTO  H181 6863   6.137   5.701   0.688  0.3295  0.9434  1.6933
   17CHTO   O61 6864   6.016   5.830   0.582 -0.3015  0.2475 -0.3325
   17CHTO   C95 6865   5.932   5.726   0.523 -0.1231 -0.2385  0.2566
   17CHTO  H182 6866   5.930   5.640   0.590 -0.2837  0.4953  1.2074
   17CHTO  C106 6867   5.789   5.792   0.521  0.1191 -0.2537 -0.3025
   17CHTO   O69 6868   5.686   5.692   0.506 -0.2910  0.1590  0.9879
   17CHTO  H169 6869   5.674   5.636   0.580  0.0361 -1.0545  0.1293
   17CHTO   O63 6870   6.237   5.900   0.691  0.0988  0.3589  0.1891
   17CHTO   C96 6871   6.144   5.964   0.810 -0.6697 -0.4448  0.4754
   17CHTO  H183 6872   6.058   5.899   0.829 -1.0882 -0.7204 -2.2474
   17CHTO   C98 6873   6.099   6.109   0.767  0.0140  0.0547 -0.0353
   17CHTO  H185 6874   6.185   6.166   0.728 -0.6068  1.2939  0.3766
   17CHTO   O67 6875   6.014   6.082   0.654  0.7956  0.0966  0.0160
   17CHTO  H167 6876   5.926   6.115   0.660  0.3076 -0.9264 -1.4023
   17CHTO  C102 6877   6.024   6.190   0.882  0.2277 -0.1154  0.0290
   17CHTO  H189 6878   5.931   6.136   0.903  1.3902 -1.5717  1.4631
   17CHTO   N18 6879   5.991   6.331   0.853  0.7024 -0.1383 -0.1702
   17CHTO  H176 6880   6.073   6.370   0.794 -1.5190  2.1702 -1.8605
   17CHTO  H177 6881   5.904   6.338   0.789  1.2074  0.7919 -0.7861
   17CHTO  C105 6882   6.106   6.175   1.014  0.5051  0.3613 -0.0930
   17CHTO  H192 6883   6.196   6.236   1.006  0.4902  0.0104 -3.9459
   17CHTO   O65 6884   6.146   6.039   1.044 -0.1983  0.5579  0.4297
   17CHTO  C100 6885   6.222   5.974   0.941  0.0450  0.2267  0.8330
   17CHTO  H187 6886   6.315   6.031   0.924 -0.7372  0.7471 -1.9419
   17CHTO  C107 6887   6.257   5.837   0.996 -0.6869 -0.3677  0.4299
   17CHTO   O70 6888   6.330   5.862   1.116  0.3053 -0.3102 -0.2515
   17CHTO  H170 6889   6.400   5.922   1.100 -2.4471  3.0725 -0.1641
   17CHTO   O57 6890   6.017   6.212   1.117  0.1547 -0.6513 -0.2231
   17CHTO   C85 6891   6.068   6.262   1.237  0.0451 -0.4711  0.0100
   17CHTO  H157 6892   6.170   6.296   1.210 -0.4299 -0.3811 -1.7132
   17CHTO   C83 6893   6.092   6.141   1.334  0.3369  0.3344  0.2548
   17CHTO  H155 6894   6.156   6.076   1.273  1.4271  1.9964 -0.3978
   17CHTO   O56 6895   5.962   6.071   1.370  0.0891  0.0113 -0.0429
   17CHTO  H135 6896   5.919   6.133   1.426 -0.2540 -0.4084  0.1591
   17CHTO   C81 6897   6.168   6.186   1.460 -0.7583 -0.4238  0.2658
   17CHTO  H153 6898   6.262   6.231   1.429 -0.9471 -1.2182 -1.5431
   17CHTO   N14 6899   6.214   6.075   1.543  0.0298  0.5182 -0.0435
   17CHTO  H141 6900   6.235   6.118   1.639  0.3233 -0.6753  0.4320
   17CHTO  H142 6901   6.127   6.015   1.554  0.4413 -0.5921 -2.3572
   17CHTO   C79 6902   6.089   6.296   1.535  0.0525 -0.1940  0.7592
   17CHTO  H151 6903   6.150   6.344   1.611  2.2222 -0.1958 -0.9537
   17CHTO   O52 6904   6.050   6.406   1.441 -0.3528 -0.1645 -0.2143
   17CHTO   C86 6905   5.982   6.371   1.311  0.3446 -0.5163 -0.2419
   17CHTO  H158 6906   5.883   6.331   1.338  0.7953 -0.6514  1.2523
   17CHTO   C90 6907   5.950   6.505   1.243 -0.1822 -1.0913  0.3560
   17CHTO   O60 6908   5.864   6.490   1.129  0.2848  0.3109 -0.9288
   17CHTO  H138 6909   5.818   6.572   1.118  0.4072  0.3704 -0.9944
   17CHTO   O50 6910   5.979   6.246   1.613 -0.0332 -0.1944 -0.3463
   17CHTO   C73 6911   5.913   6.312   1.722 -0.0778  0.0524 -0.3336
   17CHTO  H145 6912   5.934   6.420   1.718  1.1695 -0.0733  2.0590
   17CHTO   C74 6913   5.970   6.281   1.857 -0.0651  0.5821  0.0642
   17CHTO  H146 6914   6.075   6.314   1.854 -0.5319  2.0366 -0.4266
   17CHTO   O54 6915   5.901   6.363   1.953 -0.6586 -0.2122 -0.0137
   17CHTO  H133 6916   5.938   6.450   1.956  2.3658 -1.3386 -2.0988
   17CHTO   C75 6917   5.956   6.126   1.878  0.4851  0.1352  0.2835
   17CHTO  H147 6918   6.011   6.074   1.799  0.9748  1.7240 -0.4334
   17CHTO   N13 6919   6.006   6.073   2.007 -0.0206  0.0680 -0.3365
   17CHTO  H139 6920   5.997   5.965   2.011  0.6990  0.0162 -0.0738
   17CHTO  H140 6921   6.111   6.094   2.015 -0.3390  1.2845  0.9526
   17CHTO   C76 6922   5.797   6.083   1.865  0.1155  0.6884  0.3665
   17CHTO  H148 6923   5.742   6.113   1.955  0.4171 -1.1190  1.1879
   17CHTO   O49 6924   5.737   6.148   1.749 -0.2048  0.0827  1.0905
   17CHTO   C77 6925   5.762   6.282   1.712  0.1187  0.3570 -0.1136
   17CHTO  H149 6926   5.713   6.344   1.786 -3.7049 -2.5661 -0.0563
   17CHTO   C88 6927   5.702   6.318   1.574 -0.5661  0.9216 -0.1948
   17CHTO   O58 6928   5.692   6.475   1.567  0.0470  0.1866 -0.2618
   17CHTO  H136 6929   5.778   6.511   1.574  0.5208 -0.1579 -3.5592
   17CHTO   O51 6930   5.780   5.924   1.843  0.9023  0.1272  0.6173
   17CHTO   C78 6931   5.621   5.890   1.788  0.4821 -0.7416 -0.8152
   17CHTO  H150 6932   5.565   5.982   1.762 -1.3086 -2.4941 -3.3928
   17CHTO   C80 6933   5.540   5.808   1.896 -0.4681  0.4692 -0.3469
   17CHTO  H152 6934   5.598   5.719   1.927  0.0831  0.5384 -1.1742
   17CHTO   O55 6935   5.527   5.883   2.016 -0.3743  0.0277  0.0233
   17CHTO  H134 6936   5.612   5.904   2.050  0.7995 -0.7978 -2.3020
   17CHTO   C84 6937   5.401   5.777   1.827 -0.4665 -0.9184  0.2525
   17CHTO  H156 6938   5.358   5.874   1.804  0.1240 -0.9685 -1.0881
   17CHTO   N15 6939   5.302   5.707   1.920  0.5512  0.6872  0.0088
   17CHTO  H143 6940   5.240   5.633   1.875 -0.5149  1.4720  0.1623
   17CHTO  H144 6941   5.244   5.784   1.967  0.8812  1.8288 -1.4254
   17CHTO   C87 6942   5.419   5.689   1.695 -0.2954  0.0101 -0.7872
   17CHTO  H159 6943   5.465   5.592   1.712  1.5148  1.0330  0.3563
   17CHTO   O53 6944   5.512   5.777   1.601  0.1277 -0.0326 -0.0234
   17CHTO   C82 6945   5.638   5.806   1.659 -0.5692 -0.4581 -0.0827
   17CHTO  H154 6946   5.679   5.708   1.684  1.4407  0.0643 -1.2197
   17CHTO   C89 6947   5.720   5.870   1.554 -0.1633  0.0303 -0.9185
   17CHTO   O59 6948   5.856   5.878   1.586 -0.6295  0.3546 -0.1401
   17CHTO  H137 6949   5.905   5.913   1.515  0.2299  0.1855  0.3578
   17CHTO   O45 6950   5.278   5.668   1.610 -0.9741  0.1176 -0.0292
   17CHTO   C67 6951   5.259   5.535   1.551 -0.1184  0.2923  0.1312
   17CHTO  H124 6952   5.356   5.486   1.553  0.4269  1.3627  0.5838
   17CHTO   C65 6953   5.152   5.454   1.630  1.0574  0.4116 -0.0149
   17CHTO  H122 6954   5.157   5.490   1.733  0.3081 -0.6014  0.3876
   17CHTO   O44 6955   5.172   5.308   1.641 -0.4657 -0.4408 -0.2072
   17CHTO  H102 6956   5.228   5.281   1.712  1.1307 -1.5652 -1.8639
   17CHTO   C63 6957   5.013   5.487   1.568 -0.2326  0.4959 -0.2542
   17CHTO  H120 6958   5.010   5.595   1.551  0.6735  0.6198  0.3234
   17CHTO   N11 6959   4.900   5.464   1.661  0.0738 -0.0586 -0.4214
   17CHTO  H108 6960   4.857   5.555   1.696  0.1720 -0.4121  0.6493
   17CHTO  H109 6961   4.920   5.401   1.746 -3.9511 -1.4286 -0.3836
   17CHTO   C61 6962   5.012   5.420   1.419  0.2898  0.2439  0.2835
   17CHTO  H118 6963   4.925   5.465   1.370 -0.0530 -0.9300 -0.1770
   17CHTO   O40 6964   5.127   5.449   1.343  0.3150 -0.0810  1.0051
   17CHTO   C68 6965   5.224   5.547   1.399 -0.2474  0.4806 -0.0360
   17CHTO  H125 6966   5.169   5.643   1.387  0.0959  0.6062 -0.5785
   17CHTO   C72 6967   5.353   5.560   1.310 -0.3037 -0.0898  0.2706
   17CHTO   O48 6968   5.318   5.596   1.172 -0.1303  0.2640 -0.0286
   17CHTO  H105 6969   5.394   5.580   1.120 -0.8655  0.7305 -1.2609
   17CHTO   O38 6970   4.986   5.275   1.435  0.4901 -0.5192  0.3661
   17CHTO   C55 6971   4.907   5.211   1.326 -0.5636  0.1991 -0.3985
   17CHTO  H112 6972   4.911   5.104   1.350 -1.9324  0.7675  2.6312
   17CHTO   C56 6973   4.953   5.246   1.180  0.1833  0.5172 -0.4005
   17CHTO  H113 6974   4.944   5.356   1.173 -0.2692  0.5107 -0.0058
   17CHTO   O42 6975   5.096   5.221   1.153 -0.5891  0.2399  0.0792
   17CHTO  H100 6976   5.115   5.235   1.063  0.2178  1.7601  0.4691
   17CHTO   C57 6977   4.857   5.175   1.073  0.2239  0.0195 -0.1937
   17CHTO  H114 6978   4.876   5.068   1.086 -0.9622 -0.1583  0.1783
   17CHTO   N10 6979   4.890   5.195   0.928  0.2019 -0.2964 -0.6366
   17CHTO  H106 6980   4.942   5.289   0.919 -0.1318 -0.1689 -1.2348
   17CHTO  H107 6981   4.804   5.190   0.862 -0.8136 -3.0126  0.7875
   17CHTO   C58 6982   4.715   5.204   1.108 -1.0896 -0.0328 -0.2616
   17CHTO  H115 6983   4.692   5.311   1.092 -1.3716  0.0514  0.6873
   17CHTO   O37 6984   4.685   5.183   1.240 -0.5229  0.1117 -0.3402
   17CHTO   C59 6985   4.759   5.247   1.341 -0.1937  0.2140 -0.4254
   17CHTO  H116 6986   4.738   5.354   1.330 -2.9455 -0.1633  0.6626
   17CHTO   C70 6987   4.697   5.206   1.478  0.1434  0.1829  0.6665
   17CHTO   O46 6988   4.568   5.258   1.499 -0.1685 -0.0173  0.8169
   17CHTO  H103 6989   4.513   5.211   1.439 -1.2857  1.3736  0.7336
   17CHTO   O39 6990   4.607   5.112   1.019  0.3366  0.3889  0.6413
   17CHTO   C60 6991   4.484   5.184   1.011  0.6799 -0.4223 -0.0222
   17CHTO  H117 6992   4.468   5.257   1.090 -0.0126 -1.3394  0.6905
   17CHTO   C62 6993   4.485   5.271   0.889 -0.9045  0.4976  0.4478
   17CHTO  H119 6994   4.565   5.347   0.896 -0.2505 -0.1777  0.2766
   17CHTO   O43 6995   4.514   5.194   0.773 -0.3614  0.2566 -0.1034
   17CHTO  H101 6996   4.501   5.236   0.690 -2.2796 -1.5386 -0.7461
   17CHTO   C66 6997   4.342   5.349   0.881 -0.6283 -0.3358  0.3778
   17CHTO  H123 6998   4.339   5.416   0.967  0.1930  1.2143 -0.7572
   17CHTO   N12 6999   4.348   5.443   0.766  0.5246  0.0566  0.5385
   17CHTO  H110 7000   4.414   5.406   0.689  0.2751 -1.0587  0.8444
   17CHTO  H111 7001   4.371   5.545   0.794  2.4891  0.3464 -1.9389
   17CHTO   C69 7002   4.228   5.247   0.879 -0.6052  0.0883 -0.5010
   17CHTO  H126 7003   4.234   5.194   0.782  2.2219  1.9756 -1.4348
   17CHTO   O41 7004   4.242   5.150   1.005 -0.0432  0.2239  0.0558
   17CHTO   C64 7005   4.367   5.081   1.016  0.5063  0.8091  0.1336
   17CHTO  H121 7006   4.369   5.008   0.932 -0.4879  1.2134 -0.2589
   17CHTO   C71 7007   4.375   5.001   1.156 -1.0243  0.5496 -0.4686
   17CHTO   O47 7008   4.393   5.095   1.269  0.2669  0.1595 -0.0169
   17CHTO  H104 7009   4.354   5.063   1.348 -1.8514  1.5780 -0.4415
   17CHTO   O34 7010   4.089   5.332   0.878 -0.2503  0.0687  0.4013
   17CHTO   C49 7011   3.952   5.379   0.863 -0.0719 -0.4566 -0.0398
   17CHTO   H91 7012   3.940   5.459   0.936 -0.6974 -1.9460  1.5501
   17CHTO   C47 7013   3.858   5.261   0.908  0.5253  0.1843  0.2035
   17CHTO   H89 7014   3.755   5.302   0.909  0.1200 -0.8384 -0.1163
   17CHTO   O33 7015   3.892   5.210   1.035  0.3343 -0.1663  0.3066
   17CHTO   H70 7016   3.838   5.138   1.061  0.0895  0.2783  1.0506
   17CHTO   C45 7017   3.868   5.135   0.804 -0.4598  0.1609 -0.1077
   17CHTO   H87 7018   3.945   5.064   0.839 -1.0752 -0.2894  0.3301
   17CHTO    N8 7019   3.737   5.066   0.806  0.2316 -0.1812 -0.4804
   17CHTO   H75 7020   3.654   5.131   0.785  0.5338  0.9129  1.6132
   17CHTO   H76 7021   3.742   4.985   0.734  0.3980 -0.6946  0.1058
   17CHTO   C43 7022   3.925   5.177   0.656 -0.3991  0.1571 -0.8521
   17CHTO   H85 7023   4.033   5.175   0.672 -0.4662  3.3904  0.4333
   17CHTO   O29 7024   3.873   5.316   0.625 -0.5240 -0.3531  0.7082
   17CHTO   C50 7025   3.921   5.419   0.715  0.3055 -0.1333 -0.0296
   17CHTO   H92 7026   4.019   5.447   0.673  0.2282  1.7468  1.0161
   17CHTO   C54 7027   3.828   5.539   0.696  0.4195  0.1698 -0.3579
   17CHTO   O36 7028   3.883   5.658   0.753 -0.2922  0.0345  0.8298
   17CHTO   H72 7029   3.835   5.670   0.833  0.4632 -0.5482  1.3850
   17CHTO   O27 7030   3.892   5.072   0.563 -0.4882  0.2673  0.2294
   17CHTO   C37 7031   3.958   4.949   0.525  0.8157 -0.4437 -0.0609
   17CHTO   H79 7032   4.006   4.907   0.615  1.0420 -0.4128 -0.1686
   17CHTO   C38 7033   3.850   4.846   0.468 -0.8714 -0.2377 -0.3765
   17CHTO   H80 7034   3.793   4.900   0.391  0.7859  0.9688 -0.8120
   17CHTO   O31 7035   3.761   4.807   0.575  0.2409  0.5185 -0.1476
   17CHTO   H68 7036   3.803   4.774   0.652 -0.8756  2.3740  1.2862
   17CHTO   C39 7037   3.914   4.719   0.403  0.7182  0.3561  0.2244
   17CHTO   H81 7038   3.959   4.658   0.482 -0.4312 -0.7950 -0.0031
   17CHTO    N7 7039   3.804   4.638   0.340  0.0536 -0.0044  0.0739
   17CHTO   H73 7040   3.739   4.708   0.290  0.7927  0.1555 -0.6756
   17CHTO   H74 7041   3.736   4.594   0.411 -0.6576 -1.4979 -1.4949
   17CHTO   C40 7042   4.027   4.763   0.307  0.4005  0.2841 -0.1316
   17CHTO   H82 7043   3.991   4.819   0.221  0.9842  0.0723 -0.5119
   17CHTO   O26 7044   4.124   4.840   0.381 -0.2575  0.2060 -0.8121
   17CHTO   C41 7045   4.067   4.972   0.421  0.3374  0.0516  0.7507
   17CHTO   H83 7046   4.020   5.015   0.331  0.3796  1.7771  1.5351
   17CHTO   C52 7047   4.182   5.068   0.461 -0.4623  0.0742 -0.0123
   17CHTO   O35 7048   4.268   5.023   0.555  0.1899 -0.2221 -0.6499
   17CHTO   H71 7049   4.217   5.011   0.633 -2.0634  1.8127 -1.7427
   17CHTO   O28 7050   4.091   4.655   0.237  0.6791 -0.1425 -0.1549
   17CHTO   C42 7051   4.220   4.587   0.258 -0.5283 -0.5414  0.1870
   17CHTO   H84 7052   4.207   4.503   0.189  0.3748  0.4127 -1.1829
   17CHTO   C44 7053   4.226   4.530   0.402  0.0656 -0.0937 -0.1793
   17CHTO   H86 7054   4.192   4.607   0.471  2.2532  1.0689 -0.3572
   17CHTO   O32 7055   4.142   4.413   0.413  0.0292 -0.2957 -0.5245
   17CHTO   H69 7056   4.107   4.414   0.500  1.6336  2.0373  0.1402
   17CHTO   C48 7057   4.376   4.498   0.439 -0.1962 -0.4299  0.2709
   17CHTO   H90 7058   4.404   4.413   0.376  0.1459  0.5846 -0.9492
   17CHTO    N9 7059   4.388   4.458   0.581 -0.8245  0.1105 -0.2246
   17CHTO   H77 7060   4.294   4.476   0.631 -0.7140  0.8540 -0.2701
   17CHTO   H78 7061   4.434   4.361   0.592  2.3843  1.8116  2.3152
   17CHTO   C51 7062   4.473   4.617   0.404  0.3843 -0.0703  0.7638
   17CHTO   H93 7063   4.417   4.700   0.448 -1.5473 -1.7228  1.4991
   17CHTO   O30 7064   4.476   4.621   0.263  0.0488 -0.2696  0.0413
   17CHTO   C46 7065   4.333   4.675   0.202  0.4665 -0.2262  0.4516
   17CHTO   H88 7066   4.317   4.776   0.240 -0.1478  0.1057 -0.6764
   17CHTO   C53 7067   4.341   4.661   0.048 -0.0642  0.1940 -0.4118
   17CHTO   O72 7068   4.448   4.743  -0.001  0.0013 -0.0834  0.6037
   17CHTO  H199 7069   4.457   4.743  -0.094  0.8534 -1.2033  0.6721
   17CHTO   O22 7070   4.611   4.603   0.442 -0.3703  0.1640 -0.1563
   17CHTO   C31 7071   4.692   4.724   0.460 -0.1317 -1.0255  0.7543
   17CHTO   H59 7072   4.799   4.693   0.452 -0.2191 -1.4975  1.3693
   17CHTO   C29 7073   4.668   4.833   0.355 -0.1699 -0.1867  0.6536
   17CHTO   H57 7074   4.559   4.850   0.350 -0.5201 -2.2428  0.6750
   17CHTO   O21 7075   4.712   4.769   0.230 -0.3358  0.8436 -0.2453
   17CHTO   H37 7076   4.648   4.705   0.206  0.5474 -0.0852 -0.1333
   17CHTO   C27 7077   4.743   4.968   0.384 -0.0431  0.2046  0.1378
   17CHTO   H55 7078   4.849   4.952   0.363 -0.5813  1.7632 -4.1633
   17CHTO    N5 7079   4.698   5.074   0.293  0.3168 -0.1210  0.2517
   17CHTO   H43 7080   4.747   5.170   0.302  2.7352 -1.4086  1.2488
   17CHTO   H44 7081   4.722   5.044   0.192  0.5886  0.0880  0.2524
   17CHTO   C25 7082   4.749   5.009   0.536  0.1944 -0.3089 -0.0213
   17CHTO   H53 7083   4.652   5.049   0.569 -0.1252  0.1239 -1.4820
   17CHTO   O17 7084   4.779   4.888   0.618 -0.5400  0.0562  0.1051
   17CHTO   C32 7085   4.676   4.790   0.603 -0.4109  0.0466 -0.2260
   17CHTO   H60 7086   4.576   4.831   0.616  0.2835  1.3104  1.4082
   17CHTO   C36 7087   4.694   4.679   0.713  0.3999 -0.3162  0.0260
   17CHTO   O25 7088   4.676   4.737   0.844  0.3300  0.2435  0.3653
   17CHTO   H40 7089   4.596   4.703   0.879 -0.7306 -1.9293 -3.8010
   17CHTO   O15 7090   4.837   5.120   0.571 -0.8328 -0.6379 -0.5159
   17CHTO   C19 7091   4.885   5.252   0.536  0.0915  0.1040  0.1839
   17CHTO   H47 7092   4.893   5.238   0.427 -1.1988 -1.2133  0.2475
   17CHTO   C20 7093   4.775   5.363   0.565 -0.1796 -0.4236  0.7616
   17CHTO   H48 7094   4.735   5.350   0.667  0.7215 -0.2672  1.1457
   17CHTO   O19 7095   4.667   5.332   0.477  0.0562  0.2743 -0.3148
   17CHTO   H35 7096   4.606   5.275   0.520  2.0596 -2.1370 -0.5472
   17CHTO   C21 7097   4.826   5.512   0.544  0.4189  0.2456  0.2984
   17CHTO   H49 7098   4.840   5.523   0.436  0.7836 -1.6942  0.1188
   17CHTO    N4 7099   4.729   5.611   0.594  0.0616 -0.3149 -0.1664
   17CHTO   H41 7100   4.714   5.586   0.698  1.0602  1.6388  0.4676
   17CHTO   H42 7101   4.634   5.609   0.542  0.4208 -0.4778 -0.8239
   17CHTO   C22 7102   4.967   5.523   0.606 -0.4257  0.2593 -0.1277
   17CHTO   H50 7103   4.959   5.519   0.714  1.6251  1.7660  0.1050
   17CHTO   O14 7104   5.063   5.426   0.551  0.4032 -0.0153  0.0075
   17CHTO   C23 7105   5.024   5.294   0.594  0.0680  0.0140 -0.5290
   17CHTO   H51 7106   5.022   5.295   0.704  2.7664  2.6070 -0.4435
   17CHTO   C34 7107   5.128   5.198   0.547  0.3331  0.3595 -0.1181
   17CHTO   O23 7108   5.255   5.227   0.605 -0.0942 -0.1144  0.6832
   17CHTO   H38 7109   5.259   5.311   0.646 -0.3104 -0.0052  0.4810
   17CHTO   O16 7110   5.036   5.642   0.571  0.0681 -0.2962  0.1743
   17CHTO   C24 7111   5.086   5.734   0.704 -0.3964 -0.3274 -0.1542
   17CHTO   H52 7112   5.026   5.708   0.792 -2.1109  0.2639 -1.1330
   17CHTO   C26 7113   5.068   5.884   0.669 -0.1343 -0.0589 -0.3948
   17CHTO   H54 7114   5.083   5.897   0.560 -0.0095  2.0751 -0.1410
   17CHTO   O20 7115   4.938   5.930   0.695  0.4328 -0.0352 -0.4972
   17CHTO   H36 7116   4.881   5.942   0.622  0.4758 -0.3787 -0.5863
   17CHTO   C30 7117   5.168   5.977   0.741  0.3534 -0.2247 -0.5825
   17CHTO   H58 7118   5.131   6.004   0.841 -0.1796  2.4697 -1.4420
   17CHTO    N6 7119   5.177   6.114   0.673 -0.7634 -0.1573  0.3491
   17CHTO   H45 7120   5.099   6.126   0.599 -0.0897 -0.1453 -0.3613
   17CHTO   H46 7121   5.273   6.139   0.632 -0.6755  0.6005  1.0075
   17CHTO   C33 7122   5.317   5.919   0.761 -0.0913 -0.5121  0.0705
   17CHTO   H61 7123   5.362   5.909   0.661 -0.1807  1.4558 -0.2036
   17CHTO   O18 7124   5.296   5.793   0.819  0.0649  0.1847  0.2369
   17CHTO   C28 7125   5.237   5.697   0.733  0.3578  0.8018 -0.3192
   17CHTO   H56 7126   5.291   5.695   0.639 -0.6734  0.1760 -0.9092
   17CHTO   C35 7127   5.255   5.561   0.804 -0.8319 -0.4789  0.0854
   17CHTO   O24 7128   5.392   5.532   0.826  0.0283 -0.0514 -0.2178
   17CHTO   H39 7129   5.412   5.442   0.812 -1.7826 -0.3142 -1.1438
   17CHTO    O9 7130   5.407   5.998   0.840 -0.2731  0.1318 -0.3008
   17CHTO   C13 7131   5.564   5.962   0.811  0.6738  0.1976 -0.5786
   17CHTO   H26 7132   5.569   5.917   0.709 -0.8292  0.4672 -0.7877
   17CHTO   C11 7133   5.635   5.874   0.923  0.1997  0.4788  0.1684
   17CHTO   H24 7134   5.701   5.804   0.869 -0.5286  0.9892 -1.3826
   17CHTO    O8 7135   5.529   5.800   0.982  0.1022  0.4146 -0.6133
   17CHTO    H3 7136   5.567   5.741   1.044 -0.3599  0.2191 -0.5178
   17CHTO    C9 7137   5.736   5.950   1.015  0.4994 -0.1238 -0.3568
   17CHTO   H22 7138   5.829   5.965   0.958  0.2792  3.1499  0.0238
   17CHTO    N2 7139   5.786   5.873   1.128 -0.0319  0.5505 -0.7403
   17CHTO   H10 7140   5.857   5.934   1.181 -1.9699  1.9492  0.3087
   17CHTO   H11 7141   5.697   5.850   1.185 -0.0058  0.4497 -0.7410
   17CHTO    C7 7142   5.674   6.088   1.049  0.5715  0.4334 -0.0782
   17CHTO   H20 7143   5.746   6.134   1.121  2.0697 -2.6052  0.4237
   17CHTO    O4 7144   5.663   6.168   0.933 -0.5809 -0.7694 -0.2098
   17CHTO   C14 7145   5.652   6.098   0.805 -0.2085 -1.1114  0.7331
   17CHTO   H27 7146   5.757   6.080   0.774 -0.5401  1.1584 -1.8573
   17CHTO   C18 7147   5.593   6.191   0.696 -0.3184  0.2753  0.0293
   17CHTO   O13 7148   5.666   6.318   0.685  0.0029 -0.8264 -0.5762
   17CHTO    H7 7149   5.627   6.386   0.737  1.3629  0.2315 -0.8861
   17CHTO    O2 7150   5.534   6.072   1.093  0.3054 -0.7246 -0.7038
   17CHTO    C1 7151   5.505   6.125   1.221 -0.1152  0.1731 -1.0319
   17CHTO   H14 7152   5.590   6.142   1.291 -1.1334 -1.7184  0.7103
   17CHTO    C2 7153   5.395   6.032   1.296  0.0481 -0.3051  0.0297
   17CHTO   H15 7154   5.308   6.021   1.229 -0.6823 -0.7902  1.0385
   17CHTO    O6 7155   5.447   5.904   1.334 -0.4648  0.0015  0.3732
   17CHTO    H1 7156   5.534   5.911   1.368 -0.7281  4.7567  0.3653
   17CHTO    C3 7157   5.343   6.095   1.436 -0.7097  0.1726  0.0763
   17CHTO   H16 7158   5.429   6.101   1.503 -0.9496  2.2421  0.2374
   17CHTO    N1 7159   5.238   6.016   1.507  0.0657  0.4142  0.3478
   17CHTO    H8 7160   5.274   5.977   1.601  1.4370  1.4219  0.2557
   17CHTO    H9 7161   5.204   5.934   1.445 -0.3212  1.7587 -1.2587
   17CHTO    C4 7162   5.294   6.237   1.412  0.0268  0.1603 -0.2656
   17CHTO   H17 7163   5.203   6.233   1.354 -0.9272  2.8061  0.9817
   17CHTO    O1 7164   5.395   6.314   1.339 -0.0344 -0.1649 -0.4638
   17CHTO    C5 7165   5.435   6.261   1.210 -0.0788 -1.0937 -0.5788
   17CHTO   H18 7166   5.349   6.246   1.146 -0.3448 -0.7043 -0.3084
   17CHTO   C16 7167   5.528   6.371   1.155 -0.4772  0.1830  0.0090
   17CHTO   O11 7168   5.631   6.419   1.239 -0.2269  0.1933 -0.4354
   17CHTO    H5 7169   5.596   6.490   1.289  0.4690  1.2010 -1.3503
   17CHTO    O3 7170   5.277   6.310   1.531  0.0115 -0.0057  0.1877
   17CHTO    C6 7171   5.181   6.420   1.518  0.4310 -0.0129  0.0761
   17CHTO   H19 7172   5.176   6.460   1.417 -1.5407  0.8493  0.4893
   17CHTO    C8 7173   5.039   6.373   1.557  0.1566  0.2134  0.9923
   17CHTO   H21 7174   5.037   6.340   1.661  3.4470 -1.1370  0.7070
   17CHTO    O7 7175   5.006   6.266   1.468  0.3479  0.6193 -0.7227
   17CHTO    H2 7176   5.002   6.287   1.376 -0.2615  1.5664 -0.4832
   17CHTO   C12 7177   4.944   6.496   1.542  0.0591  0.1244  0.2985
   17CHTO   H25 7178   4.946   6.521   1.434 -0.6659  0.1926  0.2998
   17CHTO    N3 7179   4.801   6.462   1.560  0.2440  0.2804 -0.3493
   17CHTO   H12 7180   4.799   6.391   1.641  0.9227 -0.4455 -0.9632
   17CHTO   H13 7181   4.761   6.409   1.475 -0.2303  2.0536 -1.2621
   17CHTO   C15 7182   5.002   6.620   1.624  0.4486  0.4475 -0.6850
   17CHTO   H28 7183   4.994   6.610   1.732  0.3661  1.1603 -0.6251
   17CHTO   O10 7184   4.945   6.768   1.577  0.2666 -0.0300  0.3693
   17CHTO    H4 7185   4.852   6.761   1.568  0.3933  0.7344 -1.7505
   17CHTO    O5 7186   5.141   6.653   1.596  0.6415 -0.0494  0.4493
   17CHTO   C10 7187   5.227   6.537   1.611  0.1410  0.0402 -0.1298
   17CHTO   H23 7188   5.216   6.516   1.718 -0.6979 -0.5854 -0.3291
   17CHTO   C17 7189   5.373   6.580   1.588  0.3384 -0.1308 -0.2024
   17CHTO   O12 7190   5.412   6.650   1.471  0.1318 -0.3997  0.6543
   17CHTO    H6 7191   5.406   6.587   1.402 -1.5244  2.3653 -1.8950
   18CHTO  H203 7192   6.208   6.786   2.007  0.3316  0.8728 -0.0161
   18CHTO   O82 7193   6.298   6.762   2.003  0.0035 -0.3776 -0.0738
   18CHTO  C123 7194   6.314   6.646   1.915  0.3690 -0.6940  0.0003
   18CHTO  H227 7195   6.231   6.578   1.938 -1.4927  1.4012 -0.2701
   18CHTO   O77 7196   6.293   6.710   1.784  0.1680  0.4896 -0.4873
   18CHTO  C118 7197   6.300   6.615   1.673 -0.2414  0.0245  0.0397
   18CHTO  H222 7198   6.211   6.552   1.689  0.8693 -1.5745  0.0185
   18CHTO  C125 7199   6.281   6.713   1.543 -0.1982 -0.3056 -0.4440
   18CHTO   O84 7200   6.163   6.792   1.557  0.2553  0.1873  0.2314
   18CHTO  H205 7201   6.164   6.872   1.508 -0.6612 -1.7335 -3.0298
   18CHTO  C114 7202   6.438   6.546   1.671 -0.1748  0.1189 -0.4622
   18CHTO  H218 7203   6.517   6.619   1.655 -2.1267  2.4291  0.2025
   18CHTO  C116 7204   6.458   6.476   1.813 -0.3243  0.1803 -0.3464
   18CHTO  H220 7205   6.384   6.394   1.824  0.0127 -0.1930 -0.8564
   18CHTO   O79 7206   6.592   6.428   1.797  0.4905 -0.4525 -0.1137
   18CHTO  H201 7207   6.609   6.370   1.869  0.2672  1.5864  1.6131
   18CHTO  C120 7208   6.451   6.586   1.927  0.2049 -0.3409  0.0735
   18CHTO  H224 7209   6.526   6.663   1.901  1.7747 -1.8173  0.1019
   18CHTO   N21 7210   6.493   6.535   2.062 -0.3362 -0.4590 -0.5521
   18CHTO  H211 7211   6.579   6.471   2.054 -3.0949 -4.3120 -1.0498
   18CHTO  H212 7212   6.423   6.475   2.119  0.1164 -0.4936 -0.0353
   18CHTO   O75 7213   6.437   6.455   1.563 -0.5872  0.6305  0.8180
   18CHTO  C112 7214   6.589   6.466   1.460  0.4835 -0.1385  0.4796
   18CHTO  H216 7215   6.676   6.472   1.527 -0.1831 -0.4808  1.3914
   18CHTO   O73 7216   6.576   6.579   1.373  0.5962 -0.0132  0.2082
   18CHTO  C113 7217   6.683   6.604   1.282  0.4079  0.2537  0.0368
   18CHTO  H217 7218   6.777   6.612   1.340 -0.3354 -0.6122  1.4074
   18CHTO  C124 7219   6.660   6.739   1.212  0.3723  0.0409 -0.2998
   18CHTO   O83 7220   6.757   6.767   1.107  0.6373  0.5282 -0.1700
   18CHTO  H204 7221   6.715   6.774   1.023  1.4185 -0.7625 -0.6802
   18CHTO  C109 7222   6.698   6.478   1.190 -0.4148 -0.4588  0.3904
   18CHTO  H213 7223   6.604   6.463   1.134  1.7578 -0.1425 -3.5884
   18CHTO  C110 7224   6.728   6.353   1.289  0.1815 -0.6208  0.2420
   18CHTO  H214 7225   6.810   6.376   1.356  0.8026 -2.9665  0.3395
   18CHTO   O78 7226   6.752   6.242   1.202  0.4076 -0.0451 -0.0157
   18CHTO  H200 7227   6.669   6.202   1.181  0.1665  1.2764 -1.6883
   18CHTO  C111 7228   6.599   6.333   1.374 -0.0199 -0.3075 -0.3813
   18CHTO  H215 7229   6.508   6.334   1.312  0.6755  2.0933 -1.4229
   18CHTO   N19 7230   6.596   6.204   1.449 -0.0739 -0.2110 -0.3532
   18CHTO  H207 7231   6.496   6.190   1.487 -0.7004  0.7805 -1.5900
   18CHTO  H208 7232   6.617   6.124   1.380 -0.6119 -0.2852 -0.4256
   18CHTO   O74 7233   6.807   6.493   1.090  0.1946 -0.3859  0.5503
   18CHTO  C115 7234   6.793   6.411   0.952 -0.2911  0.2822  0.3512
   18CHTO  H219 7235   6.749   6.312   0.965  0.5684 -0.4943 -2.4450
   18CHTO   O76 7236   6.707   6.482   0.858 -0.6476 -0.3904 -0.3220
   18CHTO  C122 7237   6.766   6.600   0.808  0.1169 -0.4382  0.1596
   18CHTO  H226 7238   6.765   6.673   0.889 -2.0074 -2.2217  1.8031
   18CHTO  C126 7239   6.670   6.665   0.704  0.4160 -0.2527 -0.1410
   18CHTO   O85 7240   6.621   6.586   0.598 -0.2681 -0.3771 -0.2561
   18CHTO  H206 7241   6.540   6.613   0.560 -0.5407 -1.1149 -0.2123
   18CHTO  C121 7242   6.908   6.593   0.740  0.2677 -0.5295 -0.1062
   18CHTO  H225 7243   6.903   6.626   0.634 -0.0529  2.1790  0.7130
   18CHTO   O81 7244   6.996   6.684   0.813 -0.4003  0.0298 -0.0934
   18CHTO  H202 7245   6.984   6.774   0.790  1.0937  0.3116  0.2434
   18CHTO  C119 7246   6.953   6.442   0.750  0.5442  0.1866  0.8301
   18CHTO  H223 7247   6.879   6.383   0.695  1.0017 -0.0913  0.5121
   18CHTO  C117 7248   6.942   6.386   0.898 -0.5449 -0.2823 -0.2761
   18CHTO  H221 7249   7.004   6.432   0.974  0.0645  0.7686 -1.4055
   18CHTO   N20 7250   6.982   6.247   0.898  0.0998  0.2691 -0.6684
   18CHTO  H209 7251   6.943   6.195   0.984 -0.2470 -0.0843 -1.0395
   18CHTO  H210 7252   7.089   6.231   0.905  0.2289  1.4810  0.5464
   18CHTO   O80 7253   7.091   6.417   0.652  0.4416  0.0619 -0.5646
   18CHTO  C103 7254   7.069   6.350   0.506 -0.7333  0.5060  0.1235
   18CHTO  H190 7255   7.160   6.335   0.449 -1.2519 -0.9922 -0.3469
   18CHTO  C101 7256   7.004   6.203   0.508 -0.3028  0.0005  0.4241
   18CHTO  H188 7257   6.912   6.198   0.567  0.6482  0.4422  1.9972
   18CHTO   O68 7258   7.121   6.106   0.562 -0.3910 -0.3315  0.2837
   18CHTO  H168 7259   7.089   6.037   0.617 -0.9075 -0.8604 -0.6644
   18CHTO   C99 7260   6.957   6.163   0.360  0.0656  0.8383 -0.6504
   18CHTO  H186 7261   7.046   6.154   0.295  0.7893 -0.7985  0.5359
   18CHTO   N17 7262   6.888   6.033   0.351  0.0836 -0.0883  0.2681
   18CHTO  H174 7263   6.846   6.016   0.253  2.2596  0.6415 -0.8268
   18CHTO  H175 7264   6.946   5.951   0.391  0.9059 -0.5918 -1.8706
   18CHTO   C97 7265   6.874   6.281   0.294  0.7607  0.5253  0.2840
   18CHTO  H184 7266   6.775   6.290   0.340  1.1869 -0.7968  1.5376
   18CHTO   O64 7267   6.947   6.398   0.294  0.4304 -0.9647  0.1284
   18CHTO  C104 7268   6.981   6.454   0.426  0.1567  0.1457  0.6703
   18CHTO  H191 7269   6.887   6.476   0.477 -0.6221 -2.4248  0.4306
   18CHTO  C108 7270   7.056   6.583   0.401 -0.0346 -0.5647  0.3110
   18CHTO   O71 7271   6.966   6.691   0.376  0.0036  0.3989 -0.8027
   18CHTO  H171 7272   7.021   6.766   0.367 -0.2540  0.3453 -2.8949
   18CHTO   O62 7273   6.861   6.253   0.155 -0.1191 -0.3952  0.0946
   18CHTO   C91 7274   6.724   6.259   0.101 -0.6073  0.8031 -0.0807
   18CHTO  H178 7275   6.656   6.212   0.172 -1.9221  2.9393  0.0992
   18CHTO   C92 7276   6.731   6.171  -0.022  0.1001 -0.3492 -0.3074
   18CHTO  H179 7277   6.819   6.200  -0.082  0.2838  0.5712  0.3846
   18CHTO   O66 7278   6.749   6.032   0.014  0.1542  0.0808 -0.5075
   18CHTO  H166 7279   6.784   5.983  -0.057  0.1280  0.3351 -0.6987
   18CHTO   C93 7280   6.595   6.187  -0.101 -0.1313 -0.2046  0.6849
   18CHTO  H180 7281   6.520   6.153  -0.027 -0.6919 -1.6409 -0.5116
   18CHTO   N16 7282   6.580   6.098  -0.218 -0.8804  0.0777  0.4097
   18CHTO  H172 7283   6.485   6.047  -0.215  0.0480 -1.8414 -1.3029
   18CHTO  H173 7284   6.665   6.030  -0.218  0.2451  1.4605 -0.4224
   18CHTO   C94 7285   6.569   6.334  -0.135  0.0780  0.1882 -0.4082
   18CHTO  H181 7286   6.653   6.380  -0.187  1.5119 -1.9498 -0.0344
   18CHTO   O61 7287   6.560   6.404  -0.011 -0.3618  0.2294 -0.1737
   18CHTO   C95 7288   6.675   6.406   0.069 -0.2767 -0.8747  0.0835
   18CHTO  H182 7289   6.749   6.463   0.013 -2.6511 -0.1938 -2.4780
   18CHTO  C106 7290   6.648   6.495   0.200  0.3251 -0.0677  0.1545
   18CHTO   O69 7291   6.625   6.628   0.153  0.6402  0.2127 -0.7096
   18CHTO  H169 7292   6.624   6.688   0.225 -1.0903 -0.2376 -0.3282
   18CHTO   O63 7293   6.418   6.361  -0.209  0.3960  0.1554  0.6881
   18CHTO   C96 7294   6.417   6.515  -0.303  0.0906  0.6907  0.1243
   18CHTO  H183 7295   6.317   6.535  -0.342 -0.2254 -1.8842 -0.4878
   18CHTO   C98 7296   6.511   6.504  -0.435 -0.1197  0.3092 -0.4043
   18CHTO  H185 7297   6.613   6.489  -0.394  0.0762 -1.2810 -1.4358
   18CHTO   O67 7298   6.484   6.386  -0.506  0.1870  0.6653  0.0259
   18CHTO  H167 7299   6.513   6.311  -0.458  0.3572  1.1491  0.6830
   18CHTO  C102 7300   6.496   6.637  -0.523  0.0986  0.4578 -0.3679
   18CHTO  H189 7301   6.399   6.628  -0.573 -0.8241 -0.9102  1.6183
   18CHTO   N18 7302   6.594   6.653  -0.631  0.7231 -0.0667 -0.2575
   18CHTO  H176 7303   6.568   6.738  -0.692 -1.2445 -1.2203 -1.1100
   18CHTO  H177 7304   6.695   6.649  -0.594  0.4456 -0.2911  0.4800
   18CHTO  C105 7305   6.481   6.765  -0.427 -0.6792  0.4091 -1.0442
   18CHTO  H192 7306   6.542   6.848  -0.462 -0.5383  0.0642 -1.6147
   18CHTO   O65 7307   6.523   6.746  -0.288 -0.2974  0.0127  0.1083
   18CHTO  C100 7308   6.463   6.639  -0.209  0.7227 -0.6057 -0.1438
   18CHTO  H187 7309   6.543   6.603  -0.142  2.8333  3.4115 -0.3643
   18CHTO  C107 7310   6.338   6.676  -0.126 -0.7758  0.4151 -0.1222
   18CHTO   O70 7311   6.382   6.750  -0.011  0.1460  0.3638 -0.1252
   18CHTO  H170 7312   6.433   6.706   0.055  0.3430  0.5717 -0.1392
   18CHTO   O57 7313   6.320   6.791  -0.437  0.0133 -0.2908  0.1270
   18CHTO   C85 7314   6.273   6.921  -0.492 -0.2138  0.6021 -0.0498
   18CHTO  H157 7315   6.319   6.935  -0.592  0.3982  0.4730  0.2086
   18CHTO   C83 7316   6.330   7.040  -0.411  0.2333 -0.5040 -0.1678
   18CHTO  H155 7317   6.437   7.044  -0.430 -0.0551 -0.9573 -2.0038
   18CHTO   O56 7318   6.322   7.016  -0.267  0.1647  0.2895  0.5954
   18CHTO  H135 7319   6.236   6.983  -0.252  0.5145  0.2917  2.8864
   18CHTO   C81 7320   6.263   7.175  -0.457 -0.2118 -0.5075 -0.2351
   18CHTO  H153 7321   6.292   7.201  -0.559  1.0824  1.2477  0.5720
   18CHTO   N14 7322   6.310   7.296  -0.380  0.0473  0.3034  0.5202
   18CHTO  H141 7323   6.416   7.288  -0.368  0.2202  1.8170  0.0961
   18CHTO  H142 7324   6.267   7.305  -0.283 -1.0838  0.0745  0.0515
   18CHTO   C79 7325   6.108   7.158  -0.462 -0.2215  0.1283  0.2455
   18CHTO  H151 7326   6.064   7.242  -0.516 -0.5736  0.1789  0.6124
   18CHTO   O52 7327   6.063   7.051  -0.549  0.1012  0.2511 -0.1047
   18CHTO   C86 7328   6.120   6.923  -0.503  0.3527 -0.3729  0.1438
   18CHTO  H158 7329   6.068   6.893  -0.409  0.3901  1.6057  0.8171
   18CHTO   C90 7330   6.081   6.813  -0.604 -0.1123 -0.8249 -0.0904
   18CHTO   O60 7331   5.940   6.799  -0.633  0.1658 -0.0405  0.0600
   18CHTO  H138 7332   5.922   6.751  -0.711 -2.5302 -1.2641  1.3569
   18CHTO   O50 7333   6.051   7.151  -0.334 -0.6516 -0.2478 -0.1966
   18CHTO   C73 7334   5.905   7.156  -0.315 -0.3062  0.0461 -0.1066
   18CHTO  H145 7335   5.862   7.105  -0.402  0.5842 -0.1212 -0.4525
   18CHTO   C74 7336   5.858   7.307  -0.326  0.0052  0.3520  0.4751
   18CHTO  H146 7337   5.905   7.345  -0.418  1.2851 -1.3806  0.3822
   18CHTO   O54 7338   5.719   7.309  -0.357  0.5391  0.1591 -0.1284
   18CHTO  H133 7339   5.693   7.232  -0.404 -0.0441  0.5893 -0.5174
   18CHTO   C75 7340   5.901   7.384  -0.198  0.0745 -0.1542 -0.3286
   18CHTO  H147 7341   6.010   7.377  -0.185 -0.1649 -0.3614  1.8483
   18CHTO   N13 7342   5.876   7.531  -0.198 -0.3826 -0.0125 -0.3157
   18CHTO  H139 7343   5.775   7.557  -0.225 -0.4059 -0.6687 -0.8484
   18CHTO  H140 7344   5.898   7.575  -0.101  0.3172  1.8139 -1.2696
   18CHTO   C76 7345   5.832   7.311  -0.075 -0.5480 -0.0346 -0.0076
   18CHTO  H148 7346   5.724   7.320  -0.088 -0.3294 -0.1331 -1.9361
   18CHTO   O49 7347   5.875   7.170  -0.066  0.0459 -0.1097  0.0992
   18CHTO   C77 7348   5.865   7.087  -0.184 -0.4878  0.1688 -0.2726
   18CHTO  H149 7349   5.760   7.059  -0.194 -1.3486  2.3244  2.1508
   18CHTO   C88 7350   5.943   6.953  -0.152 -0.1398  0.2767  0.7377
   18CHTO   O58 7351   6.088   6.993  -0.094  0.4033 -0.3496  0.5070
   18CHTO  H136 7352   6.122   7.067  -0.141 -2.5610  2.3553  2.4230
   18CHTO   O51 7353   5.873   7.372   0.063  0.3280  0.3166 -0.0294
   18CHTO   C78 7354   5.795   7.340   0.197 -0.0334  0.2538  0.2319
   18CHTO  H150 7355   5.721   7.262   0.166 -0.7707  1.2579 -0.5424
   18CHTO   C80 7356   5.719   7.465   0.244 -0.3487  0.1526  0.6696
   18CHTO  H152 7357   5.791   7.545   0.267  0.1662 -0.0456 -0.2376
   18CHTO   O55 7358   5.639   7.511   0.131 -0.3903 -0.3052 -0.0652
   18CHTO  H134 7359   5.689   7.567   0.075 -0.0522  0.9611  1.4661
   18CHTO   C84 7360   5.629   7.441   0.375 -0.1031  0.2340  0.6483
   18CHTO  H156 7361   5.552   7.369   0.344 -1.6648  2.3339 -0.4899
   18CHTO   N15 7362   5.561   7.563   0.430 -0.0532 -0.1668  0.0670
   18CHTO  H143 7363   5.534   7.550   0.533  0.7167  0.2298  0.3205
   18CHTO  H144 7364   5.633   7.643   0.423  0.8321 -0.7510  2.2004
   18CHTO   C87 7365   5.717   7.373   0.485 -0.1482 -0.4819 -0.2786
   18CHTO  H159 7366   5.794   7.442   0.519 -1.5327  0.9455  0.0324
   18CHTO   O53 7367   5.802   7.235   0.409  0.2873 -0.1363  0.3825
   18CHTO   C82 7368   5.889   7.288   0.309  0.1082  0.0470  0.7726
   18CHTO  H154 7369   5.950   7.371   0.344  1.4462 -1.4745  2.1413
   18CHTO   C89 7370   5.985   7.172   0.259 -0.3932  0.2885  0.5992
   18CHTO   O59 7371   6.064   7.133   0.374  0.0520  0.1244  0.2883
   18CHTO  H137 7372   6.123   7.066   0.346  0.8951  1.2346 -0.6803
   18CHTO   O45 7373   5.624   7.310   0.610  0.2009 -0.1325  0.0795
   18CHTO   C67 7374   5.695   7.321   0.741 -0.7168  0.3924  0.2878
   18CHTO  H124 7375   5.794   7.360   0.721 -0.4199 -1.1567 -1.3850
   18CHTO   C65 7376   5.609   7.418   0.830  0.2312 -0.5692  0.0692
   18CHTO  H122 7377   5.505   7.393   0.809  0.3967 -1.7384  0.5897
   18CHTO   O44 7378   5.639   7.547   0.789  0.3669 -0.3842  0.3508
   18CHTO  H102 7379   5.642   7.555   0.696 -1.9004  0.2966  0.3169
   18CHTO   C63 7380   5.623   7.378   0.983 -0.1835  1.0358 -0.2949
   18CHTO  H120 7381   5.566   7.288   1.005 -0.0891  0.9620 -0.3532
   18CHTO   N11 7382   5.565   7.470   1.083  0.2160 -0.1444 -0.7740
   18CHTO  H108 7383   5.460   7.473   1.060 -0.3545 -2.0420  1.4051
   18CHTO  H109 7384   5.602   7.568   1.063 -1.4266  0.2803 -1.8745
   18CHTO   C61 7385   5.772   7.340   1.008 -0.4748  0.6251  1.0043
   18CHTO  H118 7386   5.793   7.311   1.113  1.3032 -0.8049  0.3021
   18CHTO   O40 7387   5.804   7.224   0.931 -0.0524  0.5381 -0.2022
   18CHTO   C68 7388   5.724   7.188   0.817 -0.3293  0.7304  0.0024
   18CHTO  H125 7389   5.623   7.149   0.841 -1.4410  0.9091 -4.0709
   18CHTO   C72 7390   5.797   7.078   0.734 -0.1275  0.4008  0.1127
   18CHTO   O48 7391   5.936   7.112   0.698 -0.2355 -0.1709  0.0374
   18CHTO  H105 7392   5.999   7.046   0.717  1.8934  1.5070 -0.9801
   18CHTO   O38 7393   5.874   7.446   0.984 -0.0866 -0.1960  0.1652
   18CHTO   C55 7394   6.017   7.428   1.014  0.6435  0.0317 -0.8635
   18CHTO  H112 7395   6.035   7.320   1.022  1.3276  0.2917  1.4846
   18CHTO   C56 7396   6.064   7.500   1.146 -0.8633  0.3547 -0.3490
   18CHTO  H113 7397   6.045   7.607   1.127 -0.0186  1.5067  4.4890
   18CHTO   O42 7398   5.981   7.454   1.253  0.1089  0.3549  0.1832
   18CHTO  H100 7399   5.892   7.461   1.224  0.6828 -1.7933 -2.2465
   18CHTO   C57 7400   6.213   7.467   1.174 -0.8142 -0.5862 -0.0820
   18CHTO  H114 7401   6.222   7.362   1.199 -3.9976 -0.8284  0.3023
   18CHTO   N10 7402   6.272   7.532   1.296  0.2752 -0.5872  0.2011
   18CHTO  H106 7403   6.350   7.473   1.340 -0.8237 -1.4079  1.0638
   18CHTO  H107 7404   6.193   7.545   1.368  0.9306 -0.2540  0.8642
   18CHTO   C58 7405   6.297   7.506   1.052 -0.2551  0.3253  0.3810
   18CHTO  H115 7406   6.305   7.616   1.046  0.3435  0.1918 -1.5386
   18CHTO   O37 7407   6.237   7.459   0.927  0.3919  0.2112  0.1306
   18CHTO   C59 7408   6.101   7.476   0.901 -0.6409  0.0906  0.4417
   18CHTO  H116 7409   6.092   7.584   0.889  1.6299  0.2864  0.1424
   18CHTO   C70 7410   6.082   7.414   0.760 -0.5451  0.0266 -0.2278
   18CHTO   O46 7411   6.130   7.280   0.758 -0.0339 -0.6408  0.6936
   18CHTO  H103 7412   6.104   7.244   0.675 -1.5411  1.1471  0.3257
   18CHTO   O39 7413   6.450   7.410   1.057  0.1243 -0.3371 -0.0020
   18CHTO   C60 7414   6.422   7.270   1.033  0.6033  0.4818 -0.4945
   18CHTO  H117 7415   6.319   7.240   1.047  1.4425 -1.6534  1.4179
   18CHTO   C62 7416   6.452   7.230   0.883  0.3726  0.2293  0.3422
   18CHTO  H119 7417   6.402   7.302   0.816 -0.0090  0.5062  0.9243
   18CHTO   O43 7418   6.588   7.250   0.853 -0.0345 -0.2777  0.7538
   18CHTO  H101 7419   6.649   7.205   0.909 -1.0292 -2.4928  0.1297
   18CHTO   C66 7420   6.402   7.074   0.852 -0.0174 -0.4849  0.1467
   18CHTO  H123 7421   6.299   7.066   0.888 -0.7657  0.5966 -1.6892
   18CHTO   N12 7422   6.390   7.038   0.707  0.0498  0.4749 -0.3632
   18CHTO  H110 7423   6.478   7.074   0.656  2.0792 -2.0683  1.2442
   18CHTO  H111 7424   6.301   7.084   0.665 -0.5506 -0.8723 -0.6115
   18CHTO   C69 7425   6.495   6.981   0.939  0.5398  0.6660 -0.0273
   18CHTO  H126 7426   6.600   6.996   0.907  0.6015  0.3482  0.0243
   18CHTO   O41 7427   6.471   7.023   1.094  0.0688 -0.7137 -0.6464
   18CHTO   C64 7428   6.508   7.176   1.125  0.0046 -0.0328 -0.4558
   18CHTO  H121 7429   6.615   7.199   1.108  0.3120 -1.8130 -1.1168
   18CHTO   C71 7430   6.490   7.201   1.279 -0.2194  0.0665 -0.2695
   18CHTO   O47 7431   6.574   7.109   1.354  0.0133 -0.4494  0.4262
   18CHTO  H104 7432   6.541   7.103   1.441 -1.5799 -2.2293 -0.2641
   18CHTO   O34 7433   6.448   6.848   0.941 -0.4903  1.1922 -0.0477
   18CHTO   C49 7434   6.363   6.710   0.955  0.1291  0.0558  0.6721
   18CHTO   H91 7435   6.439   6.633   0.940 -0.7744 -0.8474  0.7232
   18CHTO   C47 7436   6.248   6.710   0.851 -0.0909  0.0028  0.8848
   18CHTO   H89 7437   6.218   6.603   0.855 -0.3899 -0.0485 -1.5966
   18CHTO   O33 7438   6.295   6.734   0.718  0.6871 -0.5924  0.0179
   18CHTO   H70 7439   6.228   6.779   0.669  1.0411 -0.0588  0.0211
   18CHTO   C45 7440   6.135   6.811   0.907 -0.9463 -0.5495 -0.5800
   18CHTO   H87 7441   6.143   6.907   0.855 -1.6373 -1.4848 -2.4643
   18CHTO    N8 7442   5.998   6.753   0.878 -0.1115  0.3313 -0.0958
   18CHTO   H75 7443   6.006   6.653   0.839  0.8198 -0.0853  1.1249
   18CHTO   H76 7444   5.956   6.816   0.801  0.1927  1.7084  0.8324
   18CHTO   C43 7445   6.151   6.849   1.064 -0.2917  0.1607  0.0298
   18CHTO   H85 7446   6.235   6.919   1.060  0.9968 -1.3024  1.2655
   18CHTO   O29 7447   6.184   6.734   1.141 -0.0191  0.1476 -0.3302
   18CHTO   C50 7448   6.311   6.684   1.101  0.1732 -0.3915 -0.3311
   18CHTO   H92 7449   6.379   6.730   1.175 -0.3118 -1.6952  0.9361
   18CHTO   C54 7450   6.314   6.536   1.137 -0.0060 -0.4639 -0.4985
   18CHTO   O36 7451   6.284   6.514   1.274 -0.3049 -0.0760  0.2344
   18CHTO   H72 7452   6.370   6.515   1.310 -0.5135  2.9085  0.7240
   18CHTO   O27 7453   6.049   6.920   1.123 -0.8848  0.0041 -0.0133
   18CHTO   C37 7454   6.007   6.946   1.261 -0.8403  0.4042 -1.0036
   18CHTO   H79 7455   6.018   6.857   1.324  0.8387  0.4177 -1.2403
   18CHTO   C38 7456   6.113   7.043   1.321  0.8963 -0.6763  0.2312
   18CHTO   H80 7457   6.122   7.129   1.253 -1.2901  0.2295  1.0318
   18CHTO   O31 7458   6.239   6.978   1.336 -0.0128 -0.0156  0.1053
   18CHTO   H68 7459   6.278   6.964   1.252 -1.7436  0.6842 -0.8372
   18CHTO   C39 7460   6.065   7.102   1.461  0.0124 -0.8247 -0.1806
   18CHTO   H81 7461   6.079   7.021   1.532  0.2602  1.5797  2.6086
   18CHTO    N7 7462   6.157   7.209   1.518 -0.0994  0.6583 -0.6246
   18CHTO   H73 7463   6.247   7.165   1.557 -0.5749 -1.7244 -2.1513
   18CHTO   H74 7464   6.174   7.294   1.454  0.2686  0.0239 -1.3734
   18CHTO   C40 7465   5.909   7.150   1.461 -0.3270 -0.6548  0.1540
   18CHTO   H82 7466   5.901   7.243   1.405  0.3053 -1.3269 -1.0646
   18CHTO   O26 7467   5.825   7.045   1.410  0.2885  0.2335  0.4311
   18CHTO   C41 7468   5.855   7.000   1.276  0.2468  0.4043  0.5965
   18CHTO   H83 7469   5.836   7.089   1.214  0.2909  0.2313  0.3329
   18CHTO   C52 7470   5.757   6.878   1.244 -0.0566  0.4005  0.2313
   18CHTO   O35 7471   5.759   6.841   1.106 -0.1098 -0.2598 -0.1757
   18CHTO   H71 7472   5.849   6.836   1.077  0.1958 -1.1637  0.8871
   18CHTO   O28 7473   5.856   7.181   1.594 -0.4802 -0.4695  0.4738
   18CHTO   C42 7474   5.717   7.215   1.626  0.3756  0.2203  0.5121
   18CHTO   H84 7475   5.724   7.289   1.706 -1.0921  1.7923 -0.7760
   18CHTO   C44 7476   5.641   7.086   1.684  0.3664 -0.2336 -0.0497
   18CHTO   H86 7477   5.679   6.998   1.632  2.4335  0.8954 -0.5087
   18CHTO   O32 7478   5.678   7.073   1.824 -0.7809  0.3697 -0.2075
   18CHTO   H69 7479   5.760   7.036   1.848 -0.0725  1.2577 -1.2307
   18CHTO   C48 7480   5.482   7.077   1.677  0.4293 -0.3701  0.5705
   18CHTO   H90 7481   5.437   7.145   1.749 -1.4101  0.3558 -1.2197
   18CHTO    N9 7482   5.430   6.943   1.701  0.5697  0.3136  0.8070
   18CHTO   H77 7483   5.323   6.940   1.690  0.1871  0.1271  4.1500
   18CHTO   H78 7484   5.457   6.895   1.794 -2.1487 -1.3261  0.8017
   18CHTO   C51 7485   5.436   7.138   1.545 -0.3870 -0.8405  0.4968
   18CHTO   H93 7486   5.489   7.082   1.468 -0.5604 -0.6301  0.2222
   18CHTO   O30 7487   5.478   7.280   1.546 -0.2737 -0.3376 -0.2105
   18CHTO   C46 7488   5.638   7.288   1.514  0.0381 -0.3216  0.3712
   18CHTO   H88 7489   5.651   7.244   1.415  0.2256  0.9041 -0.1504
   18CHTO   C53 7490   5.683   7.441   1.503  1.1748 -0.3751 -0.1795
   18CHTO   O72 7491   5.627   7.513   1.618 -0.3239 -0.4420 -0.1709
   18CHTO  H199 7492   5.694   7.538   1.678 -0.2863 -0.9067 -0.0154
   18CHTO   O22 7493   5.295   7.144   1.533 -0.2433 -0.0368  0.1659
   18CHTO   C31 7494   5.225   7.149   1.396  0.9334  0.6620  0.5967
   18CHTO   H59 7495   5.119   7.128   1.419 -0.0836  4.4236 -0.2315
   18CHTO   C29 7496   5.228   7.286   1.325  0.1927 -0.1339  0.6876
   18CHTO   H57 7497   5.332   7.318   1.306  0.1888 -0.2484  0.4662
   18CHTO   O21 7498   5.174   7.380   1.417  0.1621  0.4766  0.7802
   18CHTO   H37 7499   5.241   7.404   1.479 -0.4775 -0.9113  2.0371
   18CHTO   C27 7500   5.152   7.292   1.189  0.2560 -0.4865  0.2431
   18CHTO   H55 7501   5.045   7.286   1.214  0.4769  2.5218  2.1522
   18CHTO    N5 7502   5.172   7.424   1.123  0.4149  0.3442  0.2150
   18CHTO   H43 7503   5.158   7.413   1.016  0.6119  1.5221  0.0586
   18CHTO   H44 7504   5.121   7.508   1.169  0.1604  0.5555 -0.4504
   18CHTO   C25 7505   5.188   7.169   1.097 -0.5089 -0.2668  1.1592
   18CHTO   H53 7506   5.294   7.176   1.067 -0.5273  1.6120  1.4292
   18CHTO   O17 7507   5.186   7.042   1.175  0.0205 -0.2837  0.3179
   18CHTO   C32 7508   5.270   7.037   1.293 -0.0909 -0.3130  0.0733
   18CHTO   H60 7509   5.374   7.053   1.265  0.8047 -1.8847  2.3841
   18CHTO   C36 7510   5.253   6.895   1.354  0.1095  0.1204 -0.5606
   18CHTO   O25 7511   5.280   6.797   1.258 -0.3272  0.0878  0.3407
   18CHTO   H40 7512   5.208   6.738   1.244 -0.0994  0.0806 -0.8986
   18CHTO   O15 7513   5.084   7.165   0.978 -0.2802 -0.2091  0.6466
   18CHTO   C19 7514   5.106   7.112   0.844  0.5049  0.0453  0.3625
   18CHTO   H47 7515   5.005   7.085   0.811  0.1153  0.8978  0.8563
   18CHTO   C20 7516   5.160   7.226   0.746 -0.2346  0.3514  0.6029
   18CHTO   H48 7517   5.239   7.286   0.793  0.2308  0.3170 -0.1328
   18CHTO   O19 7518   5.048   7.314   0.729  0.0249 -0.0028  0.1998
   18CHTO   H35 7519   4.979   7.276   0.679 -0.7109  1.4028  0.1272
   18CHTO   C21 7520   5.202   7.166   0.605  0.0069  0.4454  0.0410
   18CHTO   H49 7521   5.114   7.129   0.552 -0.7617 -0.9826  2.2472
   18CHTO    N4 7522   5.257   7.273   0.515 -0.3469  0.3901  0.0468
   18CHTO   H41 7523   5.363   7.290   0.517 -0.7062  2.7833 -0.0420
   18CHTO   H42 7524   5.233   7.238   0.415  2.2487  0.8475 -0.7684
   18CHTO   C22 7525   5.290   7.041   0.624 -0.6838  0.0723  0.3412
   18CHTO   H50 7526   5.384   7.072   0.669 -0.4310  0.8211 -0.6993
   18CHTO   O14 7527   5.224   6.943   0.701  0.1504 -0.2157  0.3065
   18CHTO   C23 7528   5.194   6.981   0.838 -0.4120 -0.1151 -0.5905
   18CHTO   H51 7529   5.288   6.994   0.894 -0.4164 -1.5155 -0.2250
   18CHTO   C34 7530   5.124   6.856   0.898 -0.6231  0.6886 -0.0372
   18CHTO   O23 7531   5.008   6.809   0.819 -0.0510 -0.1512  0.0674
   18CHTO   H38 7532   4.985   6.869   0.750  1.5441  0.4485  0.0408
   18CHTO   O16 7533   5.325   6.969   0.503  0.0237 -0.2129 -0.4478
   18CHTO   C24 7534   5.488   6.967   0.476  0.0479 -0.1715 -0.4552
   18CHTO   H52 7535   5.543   7.044   0.531  0.5212 -0.8384  0.0069
   18CHTO   C26 7536   5.509   7.000   0.328  0.1684 -0.4469  0.0077
   18CHTO   H54 7537   5.435   6.942   0.269  3.7031 -3.5122 -1.6257
   18CHTO   O20 7538   5.492   7.142   0.315 -0.0980 -0.1704  0.0901
   18CHTO   H36 7539   5.565   7.195   0.342  0.0645 -0.8730  1.0510
   18CHTO   C30 7540   5.642   6.958   0.268 -0.0101 -0.8070  0.5507
   18CHTO   H58 7541   5.719   7.035   0.282  0.9634 -1.4729 -1.0829
   18CHTO    N6 7542   5.636   6.953   0.120  0.3849  0.1242 -0.1552
   18CHTO   H45 7543   5.710   6.880   0.093 -0.0169 -1.4869  2.8162
   18CHTO   H46 7544   5.658   7.047   0.072 -0.5485 -0.0008 -0.8442
   18CHTO   C33 7545   5.706   6.833   0.332  0.9851 -0.5864  0.9037
   18CHTO   H61 7546   5.660   6.743   0.288 -0.4437  0.4169  0.3158
   18CHTO   O18 7547   5.683   6.833   0.473 -0.3314  0.1925  0.6289
   18CHTO   C28 7548   5.547   6.829   0.513  0.4877 -0.1846 -0.3535
   18CHTO   H56 7549   5.495   6.756   0.451  0.4633 -0.5269  0.0689
   18CHTO   C35 7550   5.538   6.810   0.670 -0.6453  0.5068 -0.2947
   18CHTO   O24 7551   5.577   6.676   0.712  0.0771  0.1962  0.2584
   18CHTO   H39 7552   5.517   6.654   0.781  1.4116 -0.1496  1.3312
   18CHTO    O9 7553   5.846   6.825   0.299 -0.0853 -0.4053 -0.9089
   18CHTO   C13 7554   5.906   6.755   0.157  0.0802 -0.3414  0.2541
   18CHTO   H26 7555   5.888   6.823   0.071 -2.3099 -1.0857  0.1528
   18CHTO   C11 7556   5.842   6.608   0.137  0.3515 -0.1051 -0.1666
   18CHTO   H24 7557   5.740   6.624   0.098  0.2849  1.2286  0.5031
   18CHTO    O8 7558   5.840   6.542   0.263 -0.7076  0.3530 -0.2761
   18CHTO    H3 7559   5.773   6.581   0.316  0.7911  0.3739  1.6623
   18CHTO    C9 7560   5.924   6.521   0.039  0.1528  0.5272  0.2906
   18CHTO   H22 7561   5.938   6.582  -0.052  1.1825 -1.7897 -1.1642
   18CHTO    N2 7562   5.854   6.404  -0.008  0.0366  0.1597 -0.7165
   18CHTO   H10 7563   5.845   6.327   0.066  2.3298  0.5696  0.0233
   18CHTO   H11 7564   5.756   6.442  -0.034 -0.4755  0.0066  0.9596
   18CHTO    C7 7565   6.069   6.492   0.103  0.2222 -0.7323 -0.4607
   18CHTO   H20 7566   6.135   6.456   0.021  2.0324 -0.7789  0.9725
   18CHTO    O4 7567   6.122   6.609   0.172 -0.2301 -0.3425 -0.2554
   18CHTO   C14 7568   6.068   6.739   0.163  0.4309  0.1504  0.1807
   18CHTO   H27 7569   6.109   6.775   0.066  1.7732 -0.6995  0.4197
   18CHTO   C18 7570   6.136   6.821   0.277  0.6230 -0.1424 -0.7173
   18CHTO   O13 7571   6.277   6.821   0.273  0.4650 -0.5662 -0.0360
   18CHTO    H7 7572   6.312   6.908   0.264 -1.2129 -0.0756 -2.3659
   18CHTO    O2 7573   6.069   6.358   0.211 -0.1701 -0.5646  0.2523
   18CHTO    C1 7574   6.192   6.345   0.278  0.3649 -1.0251 -0.1525
   18CHTO   H14 7575   6.254   6.434   0.253 -0.6940 -0.3661 -0.4433
   18CHTO    C2 7576   6.271   6.216   0.231 -0.5703  0.0566  0.3387
   18CHTO   H15 7577   6.206   6.129   0.248 -0.6428 -0.0034 -0.2539
   18CHTO    O6 7578   6.297   6.232   0.096  0.3779 -0.1273  0.2006
   18CHTO    H1 7579   6.300   6.146   0.058 -2.8502  0.7527 -2.2481
   18CHTO    C3 7580   6.404   6.190   0.318  0.4660  0.4204  0.7722
   18CHTO   H16 7581   6.483   6.264   0.300  0.3480  0.3588 -0.0156
   18CHTO    N1 7582   6.462   6.062   0.277  0.1311  0.9319  0.5954
   18CHTO    H8 7583   6.404   5.984   0.323 -0.4857  0.6502 -0.6417
   18CHTO    H9 7584   6.567   6.063   0.304  0.1281 -0.9688  0.7442
   18CHTO    C4 7585   6.372   6.196   0.474  0.2122 -0.0990 -0.3894
   18CHTO   H17 7586   6.313   6.110   0.505  0.1659  0.4688  1.1555
   18CHTO    O1 7587   6.301   6.319   0.498 -0.2324  0.3946  0.1915
   18CHTO    C5 7588   6.174   6.333   0.435  0.0785 -0.0214 -0.0923
   18CHTO   H18 7589   6.128   6.236   0.451 -0.3549  0.3414  0.8658
   18CHTO   C16 7590   6.095   6.444   0.513 -0.0403  0.0440 -0.2623
   18CHTO   O11 7591   6.158   6.571   0.524 -0.1362 -0.0054  0.3290
   18CHTO    H5 7592   6.240   6.558   0.566 -0.8388  0.4496  1.8878
   18CHTO    O3 7593   6.500   6.214   0.547 -0.0824  0.3315  0.2997
   18CHTO    C6 7594   6.512   6.130   0.662 -0.3520  0.0351  0.2900
   18CHTO   H19 7595   6.418   6.077   0.677 -1.3865  2.5415  3.2040
   18CHTO    C8 7596   6.626   6.018   0.642  0.3245 -0.4297  0.1516
   18CHTO   H21 7597   6.712   6.068   0.599 -0.4139  1.7679  1.1755
   18CHTO    O7 7598   6.585   5.923   0.540  0.1822  0.3486 -0.0546
   18CHTO    H2 7599   6.496   5.900   0.560  0.9985 -0.8817  2.3278
   18CHTO   C12 7600   6.664   5.946   0.777  0.6799 -0.1253  0.2528
   18CHTO   H25 7601   6.579   5.879   0.804 -1.1255  2.7771  1.9585
   18CHTO    N3 7602   6.792   5.869   0.766  0.1185 -0.2662 -0.0686
   18CHTO   H12 7603   6.870   5.942   0.783 -1.8122  1.5730  1.1457
   18CHTO   H13 7604   6.810   5.829   0.668 -1.8000 -1.6667  0.1448
   18CHTO   C15 7605   6.670   6.048   0.893  0.7358 -0.0663 -0.2072
   18CHTO   H28 7606   6.754   6.117   0.887 -0.0883  0.9413 -0.1254
   18CHTO   O10 7607   6.664   5.986   1.022  0.6494 -0.0656 -0.0541
   18CHTO    H4 7608   6.592   5.926   1.030  1.1741 -0.9036 -1.6320
   18CHTO    O5 7609   6.549   6.123   0.898 -0.0811  0.7460 -0.1401
   18CHTO   C10 7610   6.534   6.209   0.791  0.4760 -0.1593  0.3838
   18CHTO   H23 7611   6.630   6.259   0.779  0.6200 -0.5210  0.0259
   18CHTO   C17 7612   6.419   6.308   0.830 -0.4464 -0.1910  0.2978
   18CHTO   O12 7613   6.401   6.414   0.736  0.4595 -0.7498  0.3776
   18CHTO    H6 7614   6.316   6.400   0.698 -0.3756 -0.3625  2.0771
   19CHTO  H203 7615   6.735   7.915   1.794  2.2378  0.6132  0.7386
   19CHTO   O82 7616   6.708   7.860   1.865  0.3745  0.5700  0.0199
   19CHTO  C123 7617   6.565   7.848   1.894  0.4786 -0.1903 -0.2892
   19CHTO  H227 7618   6.513   7.941   1.866 -0.0903 -1.0133 -2.0471
   19CHTO   O77 7619   6.517   7.748   1.802 -0.2467  0.6219  0.4158
   19CHTO  C118 7620   6.376   7.711   1.800 -0.3567  0.0026 -0.2054
   19CHTO  H222 7621   6.316   7.795   1.761 -1.6859 -0.5560  0.6095
   19CHTO  C125 7622   6.366   7.595   1.707  0.3312 -0.0720 -0.0681
   19CHTO   O84 7623   6.421   7.615   1.574  0.0898  0.6276  0.3614
   19CHTO  H205 7624   6.361   7.654   1.512 -0.8499 -0.5287  0.5121
   19CHTO  C114 7625   6.325   7.675   1.941  0.0528 -0.2290 -0.7070
   19CHTO  H218 7626   6.382   7.588   1.974  0.0049 -0.7613 -1.9864
   19CHTO  C116 7627   6.360   7.784   2.051  0.0840  0.4901  1.0272
   19CHTO  H220 7628   6.301   7.877   2.033 -0.4591  0.1319  0.9632
   19CHTO   O79 7629   6.318   7.742   2.184 -0.0416 -0.1730  0.4277
   19CHTO  H201 7630   6.322   7.818   2.239 -1.9321 -0.0691  0.4741
   19CHTO  C120 7631   6.521   7.811   2.043 -0.2827  0.0514 -0.0180
   19CHTO  H224 7632   6.569   7.717   2.076  2.7442  1.2657 -0.8492
   19CHTO   N21 7633   6.571   7.914   2.139  0.2457 -0.2919 -0.4620
   19CHTO  H211 7634   6.675   7.909   2.168 -0.0687  0.3287  0.7829
   19CHTO  H212 7635   6.532   8.012   2.116  0.0941 -0.0568  0.7560
   19CHTO   O75 7636   6.186   7.644   1.922 -0.0504 -0.1765 -0.0257
   19CHTO  C112 7637   6.142   7.512   2.016  0.1761  0.4751  0.7306
   19CHTO  H216 7638   6.170   7.535   2.120  0.2874  0.2282  0.7574
   19CHTO   O73 7639   6.219   7.393   1.974 -0.5819  0.2024 -0.1279
   19CHTO  C113 7640   6.209   7.274   2.045  0.7174 -0.5435 -0.0133
   19CHTO  H217 7641   6.237   7.294   2.151 -1.8016  0.6176  0.4975
   19CHTO  C124 7642   6.301   7.170   1.991  0.1279  0.2313 -0.0834
   19CHTO   O83 7643   6.434   7.212   1.955 -0.0034 -0.2654 -0.2824
   19CHTO  H204 7644   6.463   7.159   1.883  0.2224  0.1264 -0.4792
   19CHTO  C109 7645   6.061   7.226   2.032 -0.2815  0.0385  0.8425
   19CHTO  H213 7646   6.053   7.197   1.926  0.3812 -0.2998  0.8783
   19CHTO  C110 7647   5.958   7.335   2.075  0.2625  0.0407 -0.4656
   19CHTO  H214 7648   5.963   7.350   2.183  0.3586  0.5322 -0.5374
   19CHTO   O78 7649   5.823   7.291   2.041  0.2928  0.0324 -0.2622
   19CHTO  H200 7650   5.798   7.232   2.110 -0.6815  1.4301  0.6130
   19CHTO  C111 7651   5.992   7.472   2.002  0.5987  0.1654 -0.0501
   19CHTO  H215 7652   5.974   7.459   1.894 -1.3501 -0.3691  0.3273
   19CHTO   N19 7653   5.908   7.588   2.046  0.2035 -0.3307 -0.0228
   19CHTO  H207 7654   5.818   7.603   1.988  1.5815 -1.1718 -2.4302
   19CHTO  H208 7655   5.873   7.579   2.148 -1.1979  1.4185 -0.3230
   19CHTO   O74 7656   6.044   7.105   2.112 -0.2444 -0.6103  0.1248
   19CHTO  C115 7657   5.947   6.992   2.025  0.5309  0.6737  0.6881
   19CHTO  H219 7658   5.871   7.038   1.962 -0.1854 -0.7947  0.4597
   19CHTO   O76 7659   6.035   6.900   1.938 -0.3449  0.2523  0.2887
   19CHTO  C122 7660   5.974   6.782   1.879 -0.1107 -0.0977 -0.3385
   19CHTO  H226 7661   6.054   6.722   1.836 -0.6794 -0.6644 -0.5959
   19CHTO  C126 7662   5.877   6.829   1.754 -0.1158  0.2067  0.3334
   19CHTO   O85 7663   5.841   6.722   1.665 -0.5479  0.1247 -0.0762
   19CHTO  H206 7664   5.791   6.757   1.594  0.1600  1.2650 -0.0237
   19CHTO  C121 7665   5.902   6.692   1.979  0.4285  0.2591 -0.7980
   19CHTO  H225 7666   5.842   6.614   1.927 -0.2595  0.9477 -1.0525
   19CHTO   O81 7667   5.996   6.615   2.059  0.0437 -0.0048 -0.2906
   19CHTO  H202 7668   5.959   6.561   2.126 -1.3238 -0.9048 -1.7446
   19CHTO  C119 7669   5.801   6.769   2.074 -0.5395 -0.1463 -0.7021
   19CHTO  H223 7670   5.724   6.807   2.007 -0.5974  1.4510  0.2272
   19CHTO  C117 7671   5.871   6.898   2.139 -0.2871  0.8485 -0.1157
   19CHTO  H221 7672   5.947   6.881   2.215 -1.0827  1.8775  0.9300
   19CHTO   N20 7673   5.770   6.976   2.207  0.9529  0.1831 -0.2930
   19CHTO  H209 7674   5.711   6.906   2.264 -2.0393  0.9412 -2.3226
   19CHTO  H210 7675   5.707   7.028   2.137 -0.1421  1.4709  1.6083
   19CHTO   O80 7676   5.706   6.666   2.175 -0.2209 -0.2799 -0.1406
   19CHTO  C103 7677   5.690   6.527   2.151 -0.0188  0.2585  0.4415
   19CHTO  H190 7678   5.757   6.483   2.077  2.4873  0.5500  2.4676
   19CHTO  C101 7679   5.702   6.431   2.282  0.1636  0.0087 -0.5827
   19CHTO  H188 7680   5.639   6.462   2.365 -0.9880 -1.2658 -0.9562
   19CHTO   O68 7681   5.847   6.438   2.325 -0.1984 -0.3763  0.2113
   19CHTO  H168 7682   5.873   6.525   2.347 -0.9062 -0.2053  0.3720
   19CHTO   C99 7683   5.654   6.287   2.247 -0.3686  0.3572 -0.3633
   19CHTO  H186 7684   5.712   6.254   2.158 -1.5884 -2.6255 -0.1025
   19CHTO   N17 7685   5.669   6.189   2.359 -0.5095  0.6433 -0.8979
   19CHTO  H174 7686   5.638   6.090   2.330  0.3329  0.7751 -2.2942
   19CHTO  H175 7687   5.614   6.225   2.445  1.8018  0.7149  0.5961
   19CHTO   C97 7688   5.509   6.298   2.199 -0.2297  0.3284 -0.7264
   19CHTO  H184 7689   5.449   6.344   2.279  0.7540  0.0596  0.1728
   19CHTO   O64 7690   5.507   6.376   2.072 -0.5243  0.5897 -0.2614
   19CHTO  C104 7691   5.538   6.516   2.101  1.1038 -0.1869  0.2753
   19CHTO  H191 7692   5.468   6.543   2.180 -0.8326 -1.2963 -1.0137
   19CHTO  C108 7693   5.506   6.592   1.971  0.5983 -0.6179  0.4870
   19CHTO   O71 7694   5.574   6.541   1.857  0.4112 -0.0774 -0.6507
   19CHTO  H171 7695   5.525   6.573   1.784 -1.0838 -1.4598 -0.2745
   19CHTO   O62 7696   5.457   6.168   2.165  0.5078  0.0029 -0.3576
   19CHTO   C91 7697   5.315   6.168   2.135  0.2625  0.1108  0.8135
   19CHTO  H178 7698   5.279   6.271   2.130  0.5423  0.1891  0.3942
   19CHTO   C92 7699   5.231   6.099   2.244  0.3805  0.0582 -0.7199
   19CHTO  H179 7700   5.278   6.002   2.265  1.6448  0.7359 -0.3808
   19CHTO   O66 7701   5.245   6.178   2.358  0.2491  0.1253 -0.4035
   19CHTO  H166 7702   5.335   6.173   2.386  0.3644 -0.1163 -0.8046
   19CHTO   C93 7703   5.078   6.086   2.207 -0.0591  0.7355  0.4011
   19CHTO  H180 7704   5.042   6.189   2.193  2.1006  1.1994 -2.2016
   19CHTO   N16 7705   5.002   6.015   2.308  0.4615  0.2490 -0.3972
   19CHTO  H172 7706   4.969   6.082   2.387  2.7286  2.5964 -1.3709
   19CHTO  H173 7707   5.065   5.937   2.348  0.8976  0.3800 -0.8209
   19CHTO   C94 7708   5.076   6.014   2.071 -0.3699  0.3639  0.9359
   19CHTO  H181 7709   5.137   5.924   2.072 -0.8854 -0.0383 -1.0450
   19CHTO   O61 7710   5.126   6.108   1.974 -0.1710 -0.3556  0.2872
   19CHTO   C95 7711   5.272   6.117   1.987 -0.3143 -0.5468 -0.6965
   19CHTO  H182 7712   5.317   6.020   1.969 -1.5231 -1.2534  0.0510
   19CHTO  C106 7713   5.311   6.211   1.867 -0.1658 -0.2907  0.3219
   19CHTO   O69 7714   5.453   6.197   1.841  0.0164 -0.0955 -0.4907
   19CHTO  H169 7715   5.498   6.250   1.777  0.2759  1.5363  1.0107
   19CHTO   O63 7716   4.926   5.977   2.027  0.0329 -0.1892  0.0394
   19CHTO   C96 7717   4.915   5.861   1.921 -0.1201 -0.2365 -0.4836
   19CHTO  H183 7718   4.972   5.778   1.965 -0.7403  0.0662  0.8929
   19CHTO   C98 7719   4.971   5.887   1.775 -0.3657  0.2374  0.2900
   19CHTO  H185 7720   5.063   5.947   1.776 -0.3511  0.2511 -1.1151
   19CHTO   O67 7721   5.012   5.757   1.727  0.1298 -0.0284  1.0741
   19CHTO  H167 7722   5.089   5.769   1.675 -0.6734  0.6261 -0.0044
   19CHTO  C102 7723   4.862   5.950   1.681 -0.3051 -0.4970 -0.5825
   19CHTO  H189 7724   4.908   5.945   1.582 -0.9196  1.6493 -0.9823
   19CHTO   N18 7725   4.839   6.094   1.706  0.2819  0.2751 -0.0496
   19CHTO  H176 7726   4.779   6.125   1.622  0.1212  1.0533  0.3402
   19CHTO  H177 7727   4.789   6.118   1.799  2.2326  0.5606  0.9454
   19CHTO  C105 7728   4.734   5.854   1.688 -0.1420 -0.0350 -0.4958
   19CHTO  H192 7729   4.645   5.917   1.694 -0.5209 -0.5776 -0.4402
   19CHTO   O65 7730   4.724   5.752   1.799 -0.3449  0.0176 -0.0952
   19CHTO  C100 7731   4.759   5.820   1.916 -0.0034  0.1821  0.2116
   19CHTO  H187 7732   4.710   5.918   1.923 -0.6817  0.0506 -2.2428
   19CHTO  C107 7733   4.723   5.727   2.034 -1.0966  0.3089 -0.4609
   19CHTO   O70 7734   4.807   5.617   2.044  0.4038 -0.3758  0.4532
   19CHTO  H170 7735   4.883   5.652   2.086  0.1909  1.7946 -0.9091
   19CHTO   O57 7736   4.732   5.781   1.539 -0.1929  0.3742 -0.2800
   19CHTO   C85 7737   4.606   5.779   1.468 -0.2384  0.4076 -0.2436
   19CHTO  H157 7738   4.524   5.773   1.542  0.4455 -0.4382  0.4575
   19CHTO   C83 7739   4.608   5.645   1.391  0.6546 -0.0023  0.4910
   19CHTO  H155 7740   4.605   5.564   1.464 -1.0527  0.3826  0.8493
   19CHTO   O56 7741   4.739   5.626   1.328  0.0924  0.3073 -0.0858
   19CHTO  H135 7742   4.741   5.550   1.272 -0.8010  2.2164 -2.8276
   19CHTO   C81 7743   4.488   5.635   1.299 -0.3209  0.2153 -0.2523
   19CHTO  H153 7744   4.400   5.638   1.362  1.0073  0.4920  1.6414
   19CHTO   N14 7745   4.491   5.505   1.227 -0.2266 -0.2382 -0.8572
   19CHTO  H141 7746   4.465   5.424   1.292 -0.1998  0.4242 -0.0103
   19CHTO  H142 7747   4.592   5.493   1.194  0.2546  1.5461 -0.0975
   19CHTO   C79 7748   4.477   5.756   1.205  0.0213 -0.5944  0.4633
   19CHTO  H151 7749   4.378   5.758   1.160  0.3858 -1.7493 -0.4242
   19CHTO   O52 7750   4.481   5.884   1.277 -0.4651 -0.2728 -0.5247
   19CHTO   C86 7751   4.593   5.899   1.377 -0.0562 -0.1325  0.2013
   19CHTO  H158 7752   4.683   5.913   1.314  1.3605 -0.8934  2.0157
   19CHTO   C90 7753   4.571   6.035   1.438  0.1328  0.6141  0.4197
   19CHTO   O60 7754   4.437   6.054   1.491  0.0505 -0.3466 -0.0910
   19CHTO  H138 7755   4.409   6.133   1.448  1.2200 -1.4349 -2.9869
   19CHTO   O50 7756   4.568   5.762   1.098 -0.1979 -0.3295  0.8563
   19CHTO   C73 7757   4.656   5.737   0.989 -0.2312  0.5815 -0.3982
   19CHTO  H145 7758   4.616   5.649   0.937 -0.9633 -0.4228  1.7691
   19CHTO   C74 7759   4.801   5.699   1.033 -0.2517  0.1378  0.0549
   19CHTO  H146 7760   4.787   5.616   1.103 -1.5618  0.0425 -0.3083
   19CHTO   O54 7761   4.865   5.637   0.923 -0.1272 -0.4494 -0.4379
   19CHTO  H133 7762   4.952   5.615   0.950 -0.1322  0.5387  0.4409
   19CHTO   C75 7763   4.873   5.822   1.094 -1.3854  0.0334 -0.2163
   19CHTO  H147 7764   4.835   5.835   1.197 -0.6974  1.4502 -0.1402
   19CHTO   N13 7765   5.013   5.803   1.133  0.4166  0.1714  0.2956
   19CHTO  H139 7766   5.047   5.889   1.187 -1.1821  0.3618  1.0220
   19CHTO  H140 7767   5.019   5.724   1.207  0.3996  1.4702  1.7054
   19CHTO   C76 7768   4.851   5.960   1.018  0.3598 -1.3803 -0.1873
   19CHTO  H148 7769   4.918   5.952   0.932  1.5024  1.4057  0.3818
   19CHTO   O49 7770   4.715   5.976   0.959 -0.2387  0.0193 -0.2938
   19CHTO   C77 7771   4.665   5.861   0.899  0.1766  0.1594 -0.3209
   19CHTO  H149 7772   4.739   5.841   0.822  0.9636  1.0938  0.1890
   19CHTO   C88 7773   4.534   5.885   0.825  0.3085 -0.2204 -0.2927
   19CHTO   O58 7774   4.422   5.922   0.912  0.1931  0.1154 -0.6754
   19CHTO  H136 7775   4.346   5.887   0.870 -1.2254  2.2059  0.0343
   19CHTO   O51 7776   4.872   6.068   1.120  0.2949  0.3770 -0.7303
   19CHTO   C78 7777   4.865   6.219   1.062  0.4789 -0.0951 -1.1110
   19CHTO  H150 7778   4.857   6.220   0.951  0.8102 -0.4474 -1.1381
   19CHTO   C80 7779   4.998   6.280   1.100 -0.2288  0.2655  0.0171
   19CHTO  H152 7780   5.015   6.279   1.209 -0.0477  1.3190  0.0013
   19CHTO   O55 7781   5.097   6.208   1.025 -0.1309 -0.4504 -0.5918
   19CHTO  H134 7782   5.075   6.182   0.938 -1.2652 -0.3771 -0.3270
   19CHTO   C84 7783   5.001   6.439   1.065  0.2589 -0.2553  0.2852
   19CHTO  H156 7784   5.010   6.448   0.957 -4.3403 -0.3997 -0.1963
   19CHTO   N15 7785   5.123   6.505   1.121 -0.3701 -0.4865 -0.0489
   19CHTO  H143 7786   5.128   6.601   1.074 -0.5492 -0.2500  0.4111
   19CHTO  H144 7787   5.214   6.452   1.103 -0.1561 -0.2360  0.2891
   19CHTO   C87 7788   4.868   6.508   1.111 -0.0565 -0.2471 -0.2805
   19CHTO  H159 7789   4.878   6.529   1.218  1.3482 -1.5691 -0.1374
   19CHTO   O53 7790   4.745   6.427   1.069  0.3043  0.0907 -0.0427
   19CHTO   C82 7791   4.745   6.296   1.126  0.7839 -0.0654 -0.1373
   19CHTO  H154 7792   4.758   6.298   1.235 -1.7462  0.3178  0.1841
   19CHTO   C89 7793   4.601   6.233   1.101 -0.2149  0.7679  0.0263
   19CHTO   O59 7794   4.501   6.286   1.178  0.6990  0.3535 -0.5214
   19CHTO  H137 7795   4.420   6.267   1.134  0.0686 -0.4093  0.9374
   19CHTO   O45 7796   4.852   6.649   1.035  0.0606 -0.2631 -1.2001
   19CHTO   C67 7797   4.758   6.735   1.110  0.2387  0.2442  0.3374
   19CHTO  H124 7798   4.698   6.674   1.178  0.4923  0.4292  0.7284
   19CHTO   C65 7799   4.850   6.836   1.190  0.3245  0.1942 -0.6360
   19CHTO  H122 7800   4.934   6.865   1.126  1.9117 -2.2535  0.2591
   19CHTO   O44 7801   4.888   6.772   1.310  0.2920 -0.2882  0.8083
   19CHTO  H102 7802   4.943   6.701   1.282 -1.5442 -1.5037  0.1774
   19CHTO   C63 7803   4.778   6.974   1.218 -0.3015 -0.1592  0.6230
   19CHTO  H120 7804   4.791   7.038   1.131  2.1220 -0.1971  0.9102
   19CHTO   N11 7805   4.844   7.069   1.314  0.5431 -0.3422 -0.2797
   19CHTO  H108 7806   4.855   7.027   1.412 -0.5046  2.6125  1.1757
   19CHTO  H109 7807   4.933   7.117   1.278  0.5206  0.8561  1.2120
   19CHTO   C61 7808   4.632   6.942   1.240  0.9398  0.0363 -0.0708
   19CHTO  H118 7809   4.584   7.040   1.251 -0.5568 -0.6899  0.1171
   19CHTO   O40 7810   4.570   6.885   1.117  0.4245  0.1486  0.3004
   19CHTO   C68 7811   4.656   6.818   1.022 -0.1841 -0.2668 -0.7901
   19CHTO  H125 7812   4.698   6.892   0.950 -1.1522 -2.2220 -3.4381
   19CHTO   C72 7813   4.561   6.729   0.942  0.0044  0.1243 -0.0429
   19CHTO   O48 7814   4.473   6.805   0.862 -0.1919  0.0597 -0.1202
   19CHTO  H105 7815   4.389   6.763   0.863  0.7002 -1.7750  1.2388
   19CHTO   O38 7816   4.610   6.866   1.359 -0.6251  0.0862  0.2727
   19CHTO   C55 7817   4.472   6.856   1.401  0.6377 -0.2130  0.4329
   19CHTO  H112 7818   4.401   6.870   1.319 -0.9064  1.8280  2.0589
   19CHTO   C56 7819   4.445   6.946   1.528 -0.1594  0.0843  0.4362
   19CHTO  H113 7820   4.516   6.908   1.603 -0.1669 -1.1180 -0.1580
   19CHTO   O42 7821   4.484   7.082   1.497  0.2177  0.0814  0.2450
   19CHTO  H100 7822   4.431   7.133   1.555 -0.8064  0.5423 -1.0611
   19CHTO   C57 7823   4.297   6.922   1.581  0.0658 -0.7161 -0.1124
   19CHTO  H114 7824   4.234   6.958   1.500 -0.7235 -2.6496 -0.3701
   19CHTO   N10 7825   4.272   7.009   1.704  0.1724  0.6543  0.0387
   19CHTO  H106 7826   4.233   7.103   1.669 -0.6612  0.1119 -0.5187
   19CHTO  H107 7827   4.192   6.962   1.759 -0.8433  2.2133 -0.0654
   19CHTO   C58 7828   4.275   6.771   1.599  0.3313 -1.0007 -0.4392
   19CHTO  H115 7829   4.330   6.739   1.690 -0.2861  1.4621  0.8406
   19CHTO   O37 7830   4.328   6.686   1.500  0.0099  0.5916  0.2313
   19CHTO   C59 7831   4.461   6.705   1.447 -0.2197 -0.2934  0.3079
   19CHTO  H116 7832   4.539   6.681   1.520 -0.6075  0.6998  1.0788
   19CHTO   C70 7833   4.485   6.605   1.338  0.2895 -0.1464  0.0073
   19CHTO   O46 7834   4.369   6.570   1.257  0.5234  0.2549  0.5457
   19CHTO  H103 7835   4.304   6.532   1.313  0.7685  0.4705  0.9837
   19CHTO   O39 7836   4.118   6.746   1.635 -0.0899 -0.5014 -0.4592
   19CHTO   C60 7837   4.042   6.720   1.516 -0.6768  0.6431 -0.4765
   19CHTO  H117 7838   4.103   6.751   1.431  0.8221 -0.6573  0.1200
   19CHTO   C62 7839   4.026   6.568   1.492  0.2890  0.4246  0.4875
   19CHTO  H119 7840   4.127   6.521   1.501  0.3547  0.0828 -1.6509
   19CHTO   O43 7841   3.941   6.504   1.585  0.3066  0.0969 -0.4791
   19CHTO  H101 7842   3.990   6.480   1.662  0.5861 -1.1930 -1.0341
   19CHTO   C66 7843   3.971   6.539   1.342 -0.2979 -0.0450  0.5170
   19CHTO  H123 7844   4.039   6.590   1.273 -1.2592  0.6835  0.1019
   19CHTO   N12 7845   3.979   6.398   1.299 -0.1916 -0.0556 -0.2010
   19CHTO  H110 7846   4.082   6.365   1.309 -0.1603  0.4337  1.3698
   19CHTO  H111 7847   3.912   6.333   1.353 -0.7172  0.4443 -0.2530
   19CHTO   C69 7848   3.841   6.615   1.320 -0.7086  0.8359 -0.4761
   19CHTO  H126 7849   3.764   6.568   1.385  0.1935 -1.5494 -1.0769
   19CHTO   O41 7850   3.842   6.782   1.369 -0.3230  0.0022 -0.3667
   19CHTO   C64 7851   3.906   6.794   1.513  0.6796  0.2157 -0.0767
   19CHTO  H121 7852   3.838   6.754   1.591  0.6508 -1.8351 -1.1351
   19CHTO   C71 7853   3.929   6.944   1.539  0.3430  0.5102  0.2291
   19CHTO   O47 7854   3.811   7.017   1.582  0.2853 -0.3862 -0.0016
   19CHTO  H104 7855   3.796   7.005   1.673  1.7111  0.6680  0.3942
   19CHTO   O34 7856   3.784   6.608   1.158 -0.5752  0.3551 -0.2098
   19CHTO   C49 7857   3.826   6.678   1.006 -0.6554  0.5490  0.6003
   19CHTO   H91 7858   3.782   6.777   0.995 -2.9200 -0.4881  0.0744
   19CHTO   C47 7859   3.764   6.592   0.893 -0.3494  0.0505  0.2211
   19CHTO   H89 7860   3.799   6.638   0.799  2.1375 -1.7191  0.2251
   19CHTO   O33 7861   3.620   6.579   0.898  0.9858 -0.1647  0.0912
   19CHTO   H70 7862   3.597   6.532   0.820 -0.1454 -0.9790  0.8965
   19CHTO   C45 7863   3.833   6.446   0.909  0.1306 -0.0427  0.2100
   19CHTO   H87 7864   3.809   6.410   1.010  0.5970  0.4719  0.5039
   19CHTO    N8 7865   3.781   6.350   0.813  0.1074  0.2081  0.0777
   19CHTO   H75 7866   3.852   6.269   0.819 -0.8112 -0.5037  1.9428
   19CHTO   H76 7867   3.691   6.307   0.855  1.1515 -0.8825  1.2660
   19CHTO   C43 7868   3.997   6.462   0.903 -0.2970 -0.0729 -0.9563
   19CHTO   H85 7869   4.034   6.362   0.925 -2.2165 -0.3075  1.3058
   19CHTO   O29 7870   4.052   6.559   0.991 -0.3215 -0.4350 -0.0078
   19CHTO   C50 7871   3.980   6.686   0.999 -0.3403 -0.8107  0.5384
   19CHTO   H92 7872   4.011   6.746   1.086 -0.7943  0.0047  0.1443
   19CHTO   C54 7873   4.032   6.781   0.892 -0.1167 -0.0013  0.3065
   19CHTO   O36 7874   4.167   6.819   0.928  0.1918  0.2117  0.2017
   19CHTO   H72 7875   4.188   6.907   0.901 -0.3451 -0.6295 -3.0923
   19CHTO   O27 7876   4.046   6.488   0.774 -0.2705  0.0305 -0.5056
   19CHTO   C37 7877   4.154   6.457   0.685  0.8510 -0.1588  0.0282
   19CHTO   H79 7878   4.137   6.355   0.648 -0.6544 -0.8068  2.3683
   19CHTO   C38 7879   4.150   6.556   0.570 -0.2144 -0.3642 -0.2981
   19CHTO   H80 7880   4.151   6.655   0.618  0.7437  0.8166 -2.6964
   19CHTO   O31 7881   4.028   6.553   0.491  0.0828  0.5581 -0.3715
   19CHTO   H68 7882   4.023   6.473   0.442 -0.9703  0.2013  0.3012
   19CHTO   C39 7883   4.276   6.546   0.474  0.7773  0.3391 -0.6854
   19CHTO   H81 7884   4.280   6.444   0.436  0.6633  0.0462  0.0760
   19CHTO    N7 7885   4.276   6.645   0.355  0.7930 -0.2944 -0.2406
   19CHTO   H73 7886   4.200   6.625   0.282 -0.2226  0.5964  0.5550
   19CHTO   H74 7887   4.276   6.747   0.393 -0.5676 -0.2779 -0.2694
   19CHTO   C40 7888   4.400   6.562   0.561 -0.4348 -0.1970  0.4801
   19CHTO   H82 7889   4.417   6.659   0.608  1.2912  0.0401 -0.6161
   19CHTO   O26 7890   4.400   6.460   0.660  0.4615  0.3612  0.3053
   19CHTO   C41 7891   4.292   6.473   0.758 -0.7853 -0.3535  0.2724
   19CHTO   H83 7892   4.293   6.572   0.805  1.3931  0.2395 -0.9604
   19CHTO   C52 7893   4.320   6.360   0.861 -0.2954 -0.1195 -0.5270
   19CHTO   O35 7894   4.315   6.223   0.804  0.4092 -0.2219  0.7859
   19CHTO   H71 7895   4.397   6.200   0.767  0.1177 -1.3158  0.8059
   19CHTO   O28 7896   4.525   6.537   0.483 -0.2114 -0.7915 -0.7786
   19CHTO   C42 7897   4.657   6.579   0.534 -0.0408  0.0854 -0.3187
   19CHTO   H84 7898   4.644   6.615   0.636  1.5386  0.0244 -0.0758
   19CHTO   C44 7899   4.722   6.697   0.455 -0.2259 -0.1224  0.0061
   19CHTO   H86 7900   4.706   6.686   0.348 -1.0027  1.8144 -0.0964
   19CHTO   O32 7901   4.628   6.810   0.469 -0.0144  0.6723 -0.3033
   19CHTO   H69 7902   4.644   6.859   0.547 -2.2707  0.0461  0.5868
   19CHTO   C48 7903   4.872   6.737   0.493 -0.4066  0.0214 -0.1166
   19CHTO   H90 7904   4.872   6.779   0.594 -1.1971  1.5109 -0.7111
   19CHTO    N9 7905   4.933   6.863   0.424 -0.5482 -0.4474  0.1143
   19CHTO   H77 7906   4.869   6.887   0.341 -0.0103 -0.1200 -0.2068
   19CHTO   H78 7907   5.036   6.840   0.400 -0.4836  1.0619 -1.1681
   19CHTO   C51 7908   4.957   6.603   0.497 -0.4489  0.3861 -0.7790
   19CHTO   H93 7909   4.946   6.557   0.399 -3.3959  2.0733 -1.2929
   19CHTO   O30 7910   4.905   6.515   0.598  0.2690 -0.4185  0.1490
   19CHTO   C46 7911   4.763   6.462   0.548  0.0658  0.1565  0.1885
   19CHTO   H88 7912   4.765   6.403   0.457  1.3376  0.5341 -0.0384
   19CHTO   C53 7913   4.714   6.365   0.664  0.7055  0.1611 -0.8475
   19CHTO   O72 7914   4.794   6.244   0.664 -0.2906 -0.0150 -0.0445
   19CHTO  H199 7915   4.745   6.190   0.723 -2.0028  1.0512 -0.4669
   19CHTO   O22 7916   5.094   6.625   0.525 -0.1314 -0.6232 -0.5542
   19CHTO   C31 7917   5.198   6.557   0.448  0.3549 -0.2119  0.0616
   19CHTO   H59 7918   5.148   6.462   0.418 -0.5182  0.6589 -1.2831
   19CHTO   C29 7919   5.248   6.623   0.324 -0.0295 -0.1302 -0.2419
   19CHTO   H57 7920   5.290   6.723   0.341 -0.4991  0.2676 -1.3324
   19CHTO   O21 7921   5.131   6.650   0.245 -0.1933  0.1723 -0.0396
   19CHTO   H37 7922   5.147   6.686   0.161 -1.6391  0.5652 -0.1536
   19CHTO   C27 7923   5.354   6.527   0.254 -0.0430 -0.5945 -0.4025
   19CHTO   H55 7924   5.300   6.441   0.212 -2.2570 -0.6443  2.4616
   19CHTO    N5 7925   5.430   6.599   0.153 -0.5208 -0.3859  0.4245
   19CHTO   H43 7926   5.509   6.555   0.094  0.0142  0.7649  0.2596
   19CHTO   H44 7927   5.366   6.651   0.083 -3.8051 -2.6663  1.6179
   19CHTO   C25 7928   5.457   6.459   0.360  0.2730 -0.0721 -0.4458
   19CHTO   H53 7929   5.528   6.538   0.388  0.1113 -0.1690  0.2400
   19CHTO   O17 7930   5.392   6.416   0.480 -0.0103  0.0308  0.3197
   19CHTO   C32 7931   5.317   6.521   0.540 -0.3372 -0.6472  0.0634
   19CHTO   H60 7932   5.378   6.610   0.551 -1.5539  0.0976  0.8375
   19CHTO   C36 7933   5.282   6.475   0.681 -0.4228 -1.0661 -0.2337
   19CHTO   O25 7934   5.239   6.584   0.759  0.0778  0.0980  0.3068
   19CHTO   H40 7935   5.149   6.603   0.741  1.0097  3.9972 -0.6434
   19CHTO   O15 7936   5.547   6.332   0.288  0.1959  0.0770  0.0965
   19CHTO   C19 7937   5.525   6.191   0.302 -0.5025 -0.0777 -0.3360
   19CHTO   H47 7938   5.543   6.187   0.410  3.3711  0.6850 -0.8829
   19CHTO   C20 7939   5.384   6.131   0.271  0.0865 -0.6082 -0.5076
   19CHTO   H48 7940   5.354   6.145   0.166 -0.9386 -0.2390 -0.1703
   19CHTO   O19 7941   5.293   6.197   0.357  0.3146 -0.1031 -0.1089
   19CHTO   H35 7942   5.209   6.156   0.362  0.1390  0.1249 -1.1029
   19CHTO   C21 7943   5.385   5.973   0.287 -0.3312 -0.2339 -0.6544
   19CHTO   H49 7944   5.379   5.951   0.394 -0.3914  0.3240 -0.5395
   19CHTO    N4 7945   5.255   5.910   0.242 -0.1601 -0.2159  0.0163
   19CHTO   H41 7946   5.256   5.859   0.146 -0.9862  1.2040 -0.7721
   19CHTO   H42 7947   5.179   5.987   0.241 -0.5685 -0.6222 -0.1882
   19CHTO   C22 7948   5.512   5.915   0.221 -0.7861  0.6511  0.4907
   19CHTO   H50 7949   5.511   5.921   0.112 -0.3705 -0.9457  0.3814
   19CHTO   O14 7950   5.639   5.977   0.266  0.2899  0.2027  0.3508
   19CHTO   C23 7951   5.648   6.126   0.238 -0.2642  0.4306 -0.5466
   19CHTO   H51 7952   5.651   6.139   0.129  2.5322  1.4766 -0.3800
   19CHTO   C34 7953   5.776   6.177   0.302 -0.2219  0.0055  0.4933
   19CHTO   O23 7954   5.888   6.134   0.220  0.0169  0.0454 -0.5892
   19CHTO   H38 7955   5.966   6.157   0.267 -0.4379  1.1651 -0.3793
   19CHTO   O16 7956   5.537   5.790   0.286 -0.2462  0.0694 -0.3400
   19CHTO   C24 7957   5.569   5.647   0.213  0.3277 -0.1581 -0.0258
   19CHTO   H52 7958   5.639   5.586   0.270  0.1610 -2.4954 -2.2020
   19CHTO   C26 7959   5.626   5.664   0.069 -0.6191 -0.2180  0.1822
   19CHTO   H54 7960   5.559   5.735   0.016 -0.2627 -0.0727 -0.0712
   19CHTO   O20 7961   5.758   5.727   0.076  0.2184  0.1235 -0.6891
   19CHTO   H36 7962   5.755   5.813   0.038 -1.4835  0.5426  0.2975
   19CHTO   C30 7963   5.627   5.529  -0.002  0.1636 -0.5990 -0.2015
   19CHTO   H58 7964   5.704   5.462   0.038  0.1693 -0.7605 -0.4791
   19CHTO    N6 7965   5.664   5.551  -0.145 -0.4311 -0.4351 -0.6964
   19CHTO   H45 7966   5.653   5.462  -0.205 -0.7013 -0.6371 -0.3496
   19CHTO   H46 7967   5.767   5.584  -0.146  0.1678 -2.2974 -0.7519
   19CHTO   C33 7968   5.501   5.442   0.028  0.5614  0.0586 -0.1850
   19CHTO   H61 7969   5.416   5.484  -0.027  0.1877 -0.7961 -0.2761
   19CHTO   O18 7970   5.469   5.435   0.163 -0.9509  0.1283  0.3628
   19CHTO   C28 7971   5.437   5.565   0.213  0.1045 -0.6072  0.3334
   19CHTO   H56 7972   5.365   5.615   0.148  0.4779  2.4586  2.2120
   19CHTO   C35 7973   5.380   5.550   0.351  0.0754  0.0790  0.8403
   19CHTO   O24 7974   5.265   5.470   0.348  0.5058  0.4296  0.5829
   19CHTO   H39 7975   5.289   5.386   0.383 -1.2298  0.2233  1.3164
   19CHTO    O9 7976   5.528   5.311  -0.025 -0.4908  0.1583 -0.5865
   19CHTO   C13 7977   5.388   5.226  -0.049 -0.3419  0.0312 -0.3705
   19CHTO   H26 7978   5.334   5.287  -0.124 -1.4134  0.5846  0.8303
   19CHTO   C11 7979   5.299   5.203   0.083  0.5648 -0.4476  0.0241
   19CHTO   H24 7980   5.262   5.299   0.121 -0.8523 -1.0299  0.1518
   19CHTO    O8 7981   5.375   5.140   0.189  0.0801  0.7382 -0.2727
   19CHTO    H3 7982   5.413   5.061   0.156 -1.0208 -0.2646  0.8151
   19CHTO    C9 7983   5.171   5.124   0.042 -0.1288  0.0774  0.3829
   19CHTO   H22 7984   5.121   5.189  -0.031 -0.1793 -0.7280 -0.3065
   19CHTO    N2 7985   5.073   5.117   0.149 -0.5870  0.2542  0.3447
   19CHTO   H10 7986   5.107   5.157   0.243 -0.0066 -0.8451  0.6038
   19CHTO   H11 7987   5.038   5.017   0.167 -0.2125  0.3621  1.7411
   19CHTO    C7 7988   5.197   4.985  -0.023 -0.1599 -0.4225 -0.0355
   19CHTO   H20 7989   5.098   4.954  -0.062  0.2432 -0.9243 -0.6895
   19CHTO    O4 7990   5.289   4.993  -0.131  0.9589 -0.6841 -0.5385
   19CHTO   C14 7991   5.410   5.079  -0.114  0.1904 -0.8599  0.7299
   19CHTO   H27 7992   5.442   5.096  -0.219 -3.0416  1.4146  0.0388
   19CHTO   C18 7993   5.511   4.986  -0.045  0.4230  0.3257  0.4408
   19CHTO   O13 7994   5.536   4.871  -0.123  0.4790 -0.3883  0.2061
   19CHTO    H7 7995   5.626   4.872  -0.151  0.3676  2.3132 -0.1757
   19CHTO    O2 7996   5.248   4.867   0.074 -0.2033  0.2262 -0.8991
   19CHTO    C1 7997   5.197   4.730   0.063 -0.0874  0.0438  0.0436
   19CHTO   H14 7998   5.280   4.662   0.088  1.0278  1.8978  1.4742
   19CHTO    C2 7999   5.147   4.688  -0.080 -0.5006 -0.8158 -0.4570
   19CHTO   H15 8000   5.086   4.770  -0.122  0.8125  0.2090 -0.4261
   19CHTO    O6 8001   5.262   4.687  -0.161  0.2393  0.2714  0.0140
   19CHTO    H1 8002   5.238   4.663  -0.248  0.9964  1.8101 -0.6535
   19CHTO    C3 8003   5.079   4.550  -0.069  0.2755 -0.2844  1.3542
   19CHTO   H16 8004   5.154   4.474  -0.043  0.6107 -0.5762 -0.4005
   19CHTO    N1 8005   5.024   4.511  -0.199  0.6110 -0.3452  0.2634
   19CHTO    H8 8006   5.038   4.414  -0.244  0.2113 -0.5190  0.5149
   19CHTO    H9 8007   4.927   4.555  -0.216  0.3953  0.1926  2.7678
   19CHTO    C4 8008   4.976   4.537   0.044 -0.4306 -0.8075 -0.0963
   19CHTO   H17 8009   4.895   4.608   0.027 -0.8120 -1.0909  0.5452
   19CHTO    O1 8010   5.042   4.576   0.167  0.1613  0.5210  0.3939
   19CHTO    C5 8011   5.081   4.714   0.168 -0.6279  0.2512  0.3714
   19CHTO   H18 8012   4.999   4.782   0.143  0.3185  1.3758  0.3003
   19CHTO   C16 8013   5.135   4.742   0.311 -0.2492  0.3923  0.0460
   19CHTO   O11 8014   5.024   4.739   0.405  0.0880 -1.2026 -0.1967
   19CHTO    H5 8015   5.021   4.821   0.449  1.1621 -0.2436 -1.8724
   19CHTO    O3 8016   4.931   4.399   0.063 -0.0930  0.1549  0.2013
   19CHTO    C6 8017   4.799   4.391   0.129 -0.9355 -0.1829 -0.1105
   19CHTO   H19 8018   4.768   4.487   0.168  1.1842  0.8067 -0.7447
   19CHTO    C8 8019   4.693   4.349   0.025 -0.2878 -0.2720 -0.4026
   19CHTO   H21 8020   4.725   4.264  -0.036  0.2444 -0.3160 -0.0687
   19CHTO    O7 8021   4.685   4.464  -0.060 -0.4192  0.4118  0.2181
   19CHTO    H2 8022   4.766   4.493  -0.097  1.4375 -0.5799  3.3207
   19CHTO   C12 8023   4.558   4.318   0.103  0.0993 -0.3797 -0.0773
   19CHTO   H25 8024   4.516   4.410   0.148  2.3325  2.0390 -2.6877
   19CHTO    N3 8025   4.445   4.279   0.019  0.8428 -0.2663 -0.5248
   19CHTO   H12 8026   4.350   4.285   0.070  1.6870  0.7303  0.9346
   19CHTO   H13 8027   4.463   4.184  -0.030  2.0110 -0.1355 -0.3552
   19CHTO   C15 8028   4.587   4.220   0.219 -0.4335 -0.5937 -0.3525
   19CHTO   H28 8029   4.622   4.126   0.177 -2.4717 -1.0453 -1.0799
   19CHTO   O10 8030   4.449   4.197   0.315  0.4582  0.8540 -0.0197
   19CHTO    H4 8031   4.386   4.259   0.284  0.4778  0.9326  0.1018
   19CHTO    O5 8032   4.683   4.272   0.309  0.3821  0.3763  0.1861
   19CHTO   C10 8033   4.815   4.291   0.248  0.0816 -0.2877  0.1463
   19CHTO   H23 8034   4.855   4.195   0.215  2.4530  1.0524 -0.9954
   19CHTO   C17 8035   4.905   4.339   0.365  0.0249 -0.6029 -0.5420
   19CHTO   O12 8036   4.932   4.239   0.459 -0.8036  0.0291  0.8987
   19CHTO    H6 8037   4.874   4.253   0.532 -0.9138  4.1304  0.1562
   20CHTO  H203 8038   5.490   9.910   1.541 -2.5783  1.2064  1.0538
   20CHTO   O82 8039   5.523   9.997   1.526 -0.2959  0.2367  0.2666
   20CHTO  C123 8040   5.435  10.089   1.583 -0.9537 -0.0977 -0.1665
   20CHTO  H227 8041   5.397  10.046   1.676  1.0576  0.4687  0.9450
   20CHTO   O77 8042   5.535  10.199   1.601  0.3877  0.2038 -0.4352
   20CHTO  C118 8043   5.471  10.313   1.666 -0.7946  0.3211  0.6197
   20CHTO  H222 8044   5.432  10.280   1.764  0.2125 -1.4715  0.4384
   20CHTO  C125 8045   5.601  10.408   1.698 -0.2193  0.0627  0.5965
   20CHTO   O84 8046   5.573  10.536   1.764 -0.1338 -0.1610  0.0316
   20CHTO  H205 8047   5.553  10.599   1.697  0.0779  2.0632  2.0089
   20CHTO  C114 8048   5.368  10.376   1.570 -0.3507 -0.4199 -0.4027
   20CHTO  H218 8049   5.416  10.393   1.474  0.1485 -0.1714 -0.1094
   20CHTO  C116 8050   5.252  10.271   1.545 -0.4184 -0.7159  0.2661
   20CHTO  H220 8051   5.197  10.254   1.640  1.1345 -1.8916  0.9770
   20CHTO   O79 8052   5.159  10.341   1.454  0.0600  0.1745 -0.4265
   20CHTO  H201 8053   5.084  10.287   1.440  0.2186 -0.6274  1.5609
   20CHTO  C120 8054   5.318  10.144   1.487  0.7933  0.4629 -0.1059
   20CHTO  H224 8055   5.365  10.182   1.394 -0.1382 -0.2854 -0.8994
   20CHTO   N21 8056   5.224  10.041   1.445 -0.2309 -0.1673  1.0294
   20CHTO  H211 8057   5.189  10.050   1.343 -0.9849 -2.2188  1.0769
   20CHTO  H212 8058   5.251   9.939   1.468  1.9538  0.7839  2.8335
   20CHTO   O75 8059   5.321  10.499   1.631  0.2742  0.7122 -0.3251
   20CHTO  C112 8060   5.296  10.614   1.522  0.6844 -0.0429 -0.5292
   20CHTO  H216 8061   5.217  10.576   1.455  0.3765  1.2070 -0.8794
   20CHTO   O73 8062   5.415  10.640   1.449  0.0977  0.3575 -0.3624
   20CHTO  C113 8063   5.384  10.731   1.337  0.1428 -0.2906  0.3351
   20CHTO  H217 8064   5.312  10.679   1.271 -0.0884  0.9295 -0.3851
   20CHTO  C124 8065   5.516  10.748   1.259  0.7173 -0.2726 -0.1892
   20CHTO   O83 8066   5.549  10.633   1.183  0.3051 -0.1851 -0.3664
   20CHTO  H204 8067   5.607  10.570   1.222 -0.2057  0.1770  1.0047
   20CHTO  C109 8068   5.332  10.872   1.401 -0.0116 -0.6658  0.1569
   20CHTO  H213 8069   5.418  10.914   1.456  1.2656  1.2211 -3.1314
   20CHTO  C110 8070   5.215  10.859   1.492 -0.2876  0.4398 -0.6969
   20CHTO  H214 8071   5.115  10.843   1.450 -2.6344  1.1694  4.2324
   20CHTO   O78 8072   5.199  10.982   1.559 -0.1737 -0.8990 -0.4940
   20CHTO  H200 8073   5.108  11.006   1.555  0.2009  0.6344  0.0089
   20CHTO  C111 8074   5.241  10.738   1.598 -0.0802 -0.2857  0.7655
   20CHTO  H215 8075   5.329  10.774   1.653  1.5336 -0.9023 -1.3146
   20CHTO   N19 8076   5.132  10.714   1.699 -0.3391 -0.6045  0.2503
   20CHTO  H207 8077   5.032  10.735   1.663  0.4160  2.2246 -0.3092
   20CHTO  H208 8078   5.153  10.757   1.795 -2.1207 -0.6368  0.6800
   20CHTO   O74 8079   5.303  10.964   1.292 -0.6100  0.7876 -0.2782
   20CHTO  C115 8080   5.371  11.103   1.320 -0.0403 -0.4453  0.3156
   20CHTO  H219 8081   5.415  11.110   1.419 -0.6392 -3.0985  0.8112
   20CHTO   O76 8082   5.511  11.130   1.202 -0.6811 -0.2605 -0.2543
   20CHTO  C122 8083   5.445  11.113   1.078  0.0843 -0.5941 -0.5988
   20CHTO  H226 8084   5.401  11.014   1.088  0.3933 -0.5351  1.7657
   20CHTO  C126 8085   5.556  11.099   0.973  0.1184  0.5972  0.2732
   20CHTO   O85 8086   5.655  11.206   0.985 -0.1896  0.6073 -0.0117
   20CHTO  H206 8087   5.654  11.267   0.914  2.2436 -0.8716 -1.3890
   20CHTO  C121 8088   5.337  11.226   1.049  0.5976 -0.0579 -0.1893
   20CHTO  H225 8089   5.381  11.286   0.967 -1.7300  2.7581  0.5735
   20CHTO   O81 8090   5.227  11.152   0.999 -0.4568  0.2248 -0.0523
   20CHTO  H202 8091   5.159  11.202   0.958  0.2424  0.5781 -0.7905
   20CHTO  C119 8092   5.314  11.312   1.180 -0.0005  0.1006  0.0346
   20CHTO  H223 8093   5.410  11.354   1.206  0.4970 -0.3370 -1.0421
   20CHTO  C117 8094   5.267  11.220   1.296  0.3618  0.0297 -0.0691
   20CHTO  H221 8095   5.172  11.172   1.271 -0.4825  1.6630 -0.0341
   20CHTO   N20 8096   5.247  11.296   1.420  1.2618  0.3995  0.2229
   20CHTO  H209 8097   5.244  11.226   1.503 -0.0316 -0.3006 -0.4075
   20CHTO  H210 8098   5.316  11.377   1.434  1.5731  0.2448 -0.4169
   20CHTO   O80 8099   5.223  11.451   1.154  0.2133 -0.2317  0.0980
   20CHTO  C103 8100   5.268  11.569   1.042  0.4962  0.1828 -0.6632
   20CHTO  H190 8101   5.212  11.660   1.065 -1.1258 -0.4944 -1.8279
   20CHTO  C101 8102   5.418  11.606   1.036  0.3223  0.0994  0.1328
   20CHTO  H188 8103   5.478  11.515   1.044 -1.1737 -0.8874  0.1810
   20CHTO   O68 8104   5.454  11.692   1.169  0.1172 -0.7947 -0.7400
   20CHTO  H168 8105   5.389  11.685   1.236 -0.6291 -2.1453 -1.5814
   20CHTO   C99 8106   5.456  11.692   0.910  0.6045 -0.0675  0.9525
   20CHTO  H186 8107   5.411  11.793   0.925  1.1789 -0.0378  2.5843
   20CHTO   N17 8108   5.601  11.722   0.901 -0.1835  0.0534 -0.3010
   20CHTO  H174 8109   5.661  11.633   0.903  0.6065  0.5813 -0.1379
   20CHTO  H175 8110   5.630  11.795   0.976 -0.8931  0.1798 -0.1432
   20CHTO   C97 8111   5.396  11.628   0.778  0.9746 -0.4390  0.9195
   20CHTO  H184 8112   5.438  11.527   0.762 -0.6499 -1.1430  1.0191
   20CHTO   O64 8113   5.253  11.620   0.799 -0.4230  0.3782 -0.4545
   20CHTO  C104 8114   5.217  11.523   0.898 -0.0547 -0.2228 -0.1226
   20CHTO  H191 8115   5.257  11.425   0.871  1.9472  0.4712  0.2319
   20CHTO  C108 8116   5.062  11.521   0.892  0.0840 -0.1216 -0.3812
   20CHTO   O71 8117   5.029  11.463   0.766  0.6469  0.3316 -0.6919
   20CHTO  H171 8118   4.937  11.445   0.767  0.2783  2.1423 -0.4160
   20CHTO   O62 8119   5.421  11.712   0.667 -0.1001 -0.3233 -0.4400
   20CHTO   C91 8120   5.469  11.661   0.543 -1.1619 -0.3686  0.0650
   20CHTO  H178 8121   5.496  11.556   0.553  0.1067 -0.1212 -0.6729
   20CHTO   C92 8122   5.579  11.749   0.494  0.6353  0.6202  0.0082
   20CHTO  H179 8123   5.554  11.856   0.489  1.6631  0.8927  0.5095
   20CHTO   O66 8124   5.681  11.741   0.593 -0.1411  0.6718 -0.4636
   20CHTO  H166 8125   5.675  11.791   0.672  1.8245  1.2030 -0.6310
   20CHTO   C93 8126   5.638  11.691   0.357 -0.4785  0.2659  1.1101
   20CHTO  H180 8127   5.675  11.593   0.389  1.3700  0.6286  0.1047
   20CHTO   N16 8128   5.761  11.763   0.304  0.1031 -0.2811 -0.5463
   20CHTO  H172 8129   5.740  11.862   0.266 -0.2109  0.2135  0.9135
   20CHTO  H173 8130   5.838  11.771   0.378 -0.9642  2.5223  0.3496
   20CHTO   C94 8131   5.527  11.679   0.251  0.0959  0.6235  0.1547
   20CHTO  H181 8132   5.475  11.774   0.233 -1.2093 -0.1721 -0.3583
   20CHTO   O61 8133   5.423  11.593   0.304  0.5073 -0.1503  0.2739
   20CHTO   C95 8134   5.362  11.652   0.422  0.2933 -0.4416  0.6473
   20CHTO  H182 8135   5.320  11.749   0.398  2.6697  0.1121 -1.5443
   20CHTO  C106 8136   5.238  11.571   0.462 -0.4484  0.2450 -0.4302
   20CHTO   O69 8137   5.250  11.433   0.491 -0.1111  1.0828  0.9105
   20CHTO  H169 8138   5.195  11.410   0.564 -2.4487  0.8370 -0.8888
   20CHTO   O63 8139   5.588  11.613   0.105  1.0397  0.5566 -0.1840
   20CHTO   C96 8140   5.481  11.539  -0.000  0.0500 -0.4195 -1.1390
   20CHTO  H183 8141   5.437  11.458   0.058  1.5483  0.1249  0.7955
   20CHTO   C98 8142   5.553  11.490  -0.124 -0.6162 -0.0178 -0.5836
   20CHTO  H185 8143   5.640  11.427  -0.100  1.5863  1.9588 -3.0814
   20CHTO   O67 8144   5.460  11.408  -0.199  0.6939  0.7249 -0.6039
   20CHTO  H167 8145   5.486  11.397  -0.289 -1.4421  0.5916 -1.2248
   20CHTO  C102 8146   5.595  11.605  -0.220 -1.3730  0.6005  0.6206
   20CHTO  H189 8147   5.602  11.554  -0.317 -2.7656  0.5379  0.5366
   20CHTO   N18 8148   5.734  11.660  -0.204 -0.0731 -0.3255 -0.0788
   20CHTO  H176 8149   5.730  11.764  -0.175  1.1415  0.3026 -2.0531
   20CHTO  H177 8150   5.788  11.649  -0.297  0.4257 -0.0312  0.1734
   20CHTO  C105 8151   5.496  11.723  -0.220 -0.8011  0.1913  0.3324
   20CHTO  H192 8152   5.541  11.808  -0.170  1.5929 -0.8739  0.0675
   20CHTO   O65 8153   5.368  11.694  -0.169  0.0856  0.3447 -0.0276
   20CHTO  C100 8154   5.366  11.650  -0.034 -0.0406  0.4509  0.7348
   20CHTO  H187 8155   5.373  11.735   0.036  0.1366  0.7528  0.3502
   20CHTO  C107 8156   5.225  11.585  -0.021 -0.1057 -0.3455  0.0418
   20CHTO   O70 8157   5.206  11.470  -0.102 -0.3261 -0.1124 -0.2419
   20CHTO  H170 8158   5.177  11.502  -0.185  0.0958 -0.7640 -0.6472
   20CHTO   O57 8159   5.477  11.759  -0.382  0.4109  0.2484 -0.4611
   20CHTO   C85 8160   5.412  11.878  -0.431 -0.7596  0.0777  0.6202
   20CHTO  H157 8161   5.409  11.939  -0.339  0.0995 -1.7631  1.8955
   20CHTO   C83 8162   5.264  11.863  -0.465  0.5426  0.7855  0.1642
   20CHTO  H155 8163   5.215  11.851  -0.368  0.6080 -0.6903  0.0214
   20CHTO   O56 8164   5.240  11.741  -0.539  0.0967  0.2146 -0.6780
   20CHTO  H135 8165   5.156  11.740  -0.580  0.0411 -1.3752 -0.5414
   20CHTO   C81 8166   5.214  11.993  -0.541 -0.0430 -0.7112 -0.1456
   20CHTO  H153 8167   5.223  12.076  -0.470  0.7259  0.8403 -2.0042
   20CHTO   N14 8168   5.067  11.986  -0.579  0.9458 -0.1206 -0.0773
   20CHTO  H141 8169   5.053  11.988  -0.686  0.3531  0.9651  0.0154
   20CHTO  H142 8170   5.027  11.891  -0.548 -1.7399  0.6919 -0.9433
   20CHTO   C79 8171   5.307  12.025  -0.666  0.5691 -0.4655 -0.3211
   20CHTO  H151 8172   5.271  12.119  -0.706  1.9992 -0.0830 -0.7479
   20CHTO   O52 8173   5.441  12.051  -0.628 -0.2601 -0.4269  0.5142
   20CHTO   C86 8174   5.495  11.949  -0.540  0.4690  0.6912  0.6568
   20CHTO  H158 8175   5.526  11.872  -0.613 -1.0823  0.9691 -0.2980
   20CHTO   C90 8176   5.629  12.012  -0.485  0.0350 -0.7405  0.0225
   20CHTO   O60 8177   5.593  12.125  -0.406 -0.6326 -0.2713 -0.2672
   20CHTO  H138 8178   5.518  12.106  -0.353  0.0453  1.2080  1.2728
   20CHTO   O50 8179   5.297  11.923  -0.760  0.0735  0.0801 -0.0974
   20CHTO   C73 8180   5.331  11.890  -0.894  0.0337  0.1026  0.1475
   20CHTO  H145 8181   5.438  11.870  -0.905  0.1857  0.0371  1.6133
   20CHTO   C74 8182   5.296  12.015  -0.981  0.1450 -0.6194 -0.1284
   20CHTO  H146 8183   5.352  12.100  -0.940 -0.6990  0.3336 -0.9319
   20CHTO   O54 8184   5.346  11.977  -1.114  0.3774 -0.0375 -0.9743
   20CHTO  H133 8185   5.394  12.052  -1.143  0.8247  1.1689  2.6566
   20CHTO   C75 8186   5.144  12.046  -0.983 -0.0884  0.7126  0.0140
   20CHTO  H147 8187   5.108  12.057  -0.880 -0.9818 -1.1947 -0.0730
   20CHTO   N13 8188   5.104  12.160  -1.063  0.0969  0.3530  0.3384
   20CHTO  H139 8189   5.156  12.247  -1.026  0.5448  0.1673  0.1582
   20CHTO  H140 8190   5.129  12.161  -1.169 -0.5828  1.2617  0.1837
   20CHTO   C76 8191   5.068  11.909  -1.018  0.7144 -0.1566 -0.0753
   20CHTO  H148 8192   5.081  11.886  -1.123 -2.4228 -1.9230 -0.1484
   20CHTO   O49 8193   5.111  11.796  -0.940 -0.2126 -0.6143  0.5080
   20CHTO   C77 8194   5.248  11.768  -0.944 -0.2790 -0.5012  0.1687
   20CHTO  H149 8195   5.296  11.736  -1.037  0.4753  1.0185  0.0287
   20CHTO   C88 8196   5.261  11.652  -0.843  0.0830 -0.2238 -0.6818
   20CHTO   O58 8197   5.402  11.573  -0.856  0.4485 -0.5724 -0.7018
   20CHTO  H136 8198   5.381  11.505  -0.917  0.1401 -1.0734 -0.0454
   20CHTO   O51 8199   4.917  11.923  -0.976  0.0868  0.0934 -0.1936
   20CHTO   C78 8200   4.792  11.802  -1.000  0.0015 -0.3077 -0.1774
   20CHTO  H150 8201   4.832  11.713  -1.054 -2.1799  0.2946 -2.8844
   20CHTO   C80 8202   4.679  11.860  -1.082 -0.0004  0.1133 -0.5941
   20CHTO  H152 8203   4.653  11.959  -1.039 -0.4650 -0.1145 -0.3533
   20CHTO   O55 8204   4.730  11.877  -1.214 -0.5814  0.1842  0.3822
   20CHTO  H134 8205   4.818  11.910  -1.213 -0.8933  1.1232 -1.6665
   20CHTO   C84 8206   4.544  11.771  -1.082 -0.0970  0.7474  0.2756
   20CHTO  H156 8207   4.559  11.680  -1.140  2.6120  0.8161  0.7803
   20CHTO   N15 8208   4.433  11.841  -1.160  0.0944 -0.2213 -0.6079
   20CHTO  H143 8209   4.467  11.911  -1.234  0.5738  0.0893 -0.1006
   20CHTO  H144 8210   4.357  11.781  -1.204 -1.5758  0.8882  0.7239
   20CHTO   C87 8211   4.513  11.724  -0.941 -0.2852  0.3038 -0.6311
   20CHTO  H159 8212   4.486  11.805  -0.873 -1.2743 -1.5403  1.2278
   20CHTO   O53 8213   4.633  11.663  -0.888 -0.4709 -0.1391 -0.1444
   20CHTO   C82 8214   4.739  11.756  -0.867  0.5717  0.0885  0.2251
   20CHTO  H154 8215   4.691  11.830  -0.803 -0.9276  0.8270 -1.6748
   20CHTO   C89 8216   4.845  11.679  -0.785  0.2270  0.1311  0.2372
   20CHTO   O59 8217   4.804  11.634  -0.652  0.0648  0.3336  0.4498
   20CHTO  H137 8218   4.834  11.685  -0.580  1.6271  0.6298 -0.3753
   20CHTO   O45 8219   4.392  11.617  -0.944 -0.1865 -0.3837  0.5144
   20CHTO   C67 8220   4.316  11.621  -0.820 -0.1534 -0.1864  0.0843
   20CHTO  H124 8221   4.373  11.671  -0.741 -1.3290  2.9418 -0.9913
   20CHTO   C65 8222   4.181  11.699  -0.836  1.0846 -0.2589 -0.0358
   20CHTO  H122 8223   4.152  11.681  -0.940 -0.0054 -0.0213  0.2144
   20CHTO   O44 8224   4.198  11.839  -0.824  0.0059 -0.1308 -0.7583
   20CHTO  H102 8225   4.118  11.884  -0.842  0.0810  0.7490  0.9148
   20CHTO   C63 8226   4.063  11.643  -0.743 -0.1133  0.1703 -0.1140
   20CHTO  H120 8227   4.020  11.557  -0.793  0.2825  0.0886 -0.3170
   20CHTO   N11 8228   3.945  11.734  -0.723  0.0547 -0.4502 -0.0189
   20CHTO  H108 8229   3.944  11.816  -0.792 -0.8311 -0.5272 -0.1105
   20CHTO  H109 8230   3.855  11.677  -0.735  0.0110 -0.6278  1.1346
   20CHTO   C61 8231   4.124  11.598  -0.604  0.0709  0.0515  0.6404
   20CHTO  H118 8232   4.043  11.557  -0.542 -0.8686 -2.8356 -2.3906
   20CHTO   O40 8233   4.224  11.494  -0.633  0.1124 -0.0205 -0.8315
   20CHTO   C68 8234   4.282  11.476  -0.763 -0.0485  0.5281 -0.1921
   20CHTO  H125 8235   4.210  11.424  -0.829  0.9201  0.9312 -1.5791
   20CHTO   C72 8236   4.410  11.382  -0.761  0.3067  0.3106 -0.3470
   20CHTO   O48 8237   4.476  11.353  -0.885  0.0225 -0.4586 -0.3189
   20CHTO  H105 8238   4.512  11.432  -0.920 -3.1060  2.7025  3.0352
   20CHTO   O38 8239   4.197  11.700  -0.532  0.3597  0.5749  0.1165
   20CHTO   C55 8240   4.166  11.728  -0.397 -0.5606 -0.4991  0.0888
   20CHTO  H112 8241   4.072  11.680  -0.367 -2.0904  3.2652  1.6206
   20CHTO   C56 8242   4.158  11.892  -0.380 -0.5352 -0.9803  0.1588
   20CHTO  H113 8243   4.256  11.934  -0.404  0.0636 -2.5601 -0.2032
   20CHTO   O42 8244   4.065  11.955  -0.467  0.3397 -0.0585 -0.3049
   20CHTO  H100 8245   4.033  11.889  -0.527  2.5512  0.7244 -2.4146
   20CHTO   C57 8246   4.120  11.927  -0.228 -0.0256  0.4534  0.1351
   20CHTO  H114 8247   4.018  11.891  -0.213  0.7413 -1.0114  1.9474
   20CHTO   N10 8248   4.125  12.073  -0.190 -0.9719  0.6023  0.5810
   20CHTO  H106 8249   4.133  12.085  -0.083  1.1268  0.2237  0.4862
   20CHTO  H107 8250   4.218  12.107  -0.234 -0.6325 -0.9065  0.0764
   20CHTO   C58 8251   4.213  11.843  -0.136  0.3046  0.2007 -0.2570
   20CHTO  H115 8252   4.314  11.882  -0.159  0.0884  2.3681  2.2372
   20CHTO   O37 8253   4.209  11.701  -0.168 -0.2170  0.1493  0.0469
   20CHTO   C59 8254   4.267  11.676  -0.299  0.8771  0.0477  0.4209
   20CHTO  H116 8255   4.367  11.715  -0.313  0.3372  0.9337 -0.9908
   20CHTO   C70 8256   4.277  11.521  -0.314 -0.6923  0.0409 -0.7744
   20CHTO   O46 8257   4.167  11.449  -0.267 -0.3426 -0.0077 -0.0382
   20CHTO  H103 8258   4.176  11.448  -0.174  1.9671  3.0237 -0.1685
   20CHTO   O39 8259   4.173  11.851   0.044  0.2099  0.0635  0.0858
   20CHTO   C60 8260   4.283  11.833   0.130  0.3731  0.3120 -0.0807
   20CHTO  H117 8261   4.360  11.796   0.062 -1.2391  0.3357 -1.9750
   20CHTO   C62 8262   4.317  11.974   0.189  0.2931 -0.2568 -0.0772
   20CHTO  H119 8263   4.343  12.030   0.097  1.9634  0.5633  0.8751
   20CHTO   O43 8264   4.201  12.036   0.253 -1.2633  0.2231  0.1236
   20CHTO  H101 8265   4.204  12.129   0.239 -1.4953  0.1109 -0.7026
   20CHTO   C66 8266   4.441  11.973   0.272 -0.1023 -0.4416  0.0645
   20CHTO  H123 8267   4.521  11.924   0.216  0.0777 -1.4655  1.2059
   20CHTO   N12 8268   4.495  12.102   0.313 -0.3866 -0.0013  0.5997
   20CHTO  H110 8269   4.552  12.089   0.404 -0.7743  1.0937  0.9959
   20CHTO  H111 8270   4.541  12.161   0.236 -2.5616 -0.4290 -1.0778
   20CHTO   C69 8271   4.419  11.881   0.391  0.0497  0.3190  0.1635
   20CHTO  H126 8272   4.335  11.909   0.457 -1.1142 -1.1944 -0.6390
   20CHTO   O41 8273   4.370  11.734   0.351 -0.5558  0.5123 -0.2191
   20CHTO   C64 8274   4.246  11.720   0.239  1.1916  0.0848 -0.1505
   20CHTO  H121 8275   4.146  11.743   0.281 -0.2336 -0.2789 -3.1435
   20CHTO   C71 8276   4.255  11.577   0.178  0.2248  0.0045  0.3028
   20CHTO   O47 8277   4.248  11.475   0.279  0.6581 -0.3360  0.6406
   20CHTO  H104 8278   4.335  11.444   0.293  0.6246 -0.9911 -0.5617
   20CHTO   O34 8279   4.532  11.863   0.492  0.5190  0.3338  0.4738
   20CHTO   C49 8280   4.656  11.804   0.555 -0.3477 -0.0775  0.1790
   20CHTO   H91 8281   4.659  11.856   0.651  0.1799  1.9577 -0.9064
   20CHTO   C47 8282   4.784  11.831   0.470  0.5120  0.0021  0.8899
   20CHTO   H89 8283   4.871  11.799   0.531 -1.2025 -0.1164  3.3023
   20CHTO   O33 8284   4.788  11.977   0.457  0.7359  0.0527  0.7123
   20CHTO   H70 8285   4.815  12.019   0.537 -0.3580  2.1872 -0.0123
   20CHTO   C45 8286   4.776  11.760   0.319  0.1342  0.6819  0.3725
   20CHTO   H87 8287   4.717  11.816   0.244 -0.5717 -1.4339 -0.6915
   20CHTO    N8 8288   4.909  11.756   0.267 -0.6269 -0.7527  0.6148
   20CHTO   H75 8289   4.950  11.855   0.275  0.3476 -1.0331 -0.6761
   20CHTO   H76 8290   4.906  11.729   0.162 -2.6295  0.8811  0.2132
   20CHTO   C43 8291   4.699  11.618   0.330  0.5301  0.0140 -0.4194
   20CHTO   H85 8292   4.598  11.638   0.295  0.8358 -1.0545 -1.9131
   20CHTO   O29 8293   4.702  11.572   0.471  0.2882 -0.0254 -0.2271
   20CHTO   C50 8294   4.645  11.656   0.575 -0.3079  0.3259  0.5464
   20CHTO   H92 8295   4.541  11.639   0.607 -0.5628 -0.0629 -0.4595
   20CHTO   C54 8296   4.727  11.617   0.705 -0.0414 -0.1877 -0.7352
   20CHTO   O36 8297   4.689  11.494   0.758  0.1449 -0.2191 -0.4813
   20CHTO   H72 8298   4.705  11.428   0.692  0.0040  0.4167 -1.1536
   20CHTO   O27 8299   4.759  11.513   0.255  0.6569 -0.3250  0.0213
   20CHTO   C37 8300   4.749  11.421   0.152 -0.7162  0.2086 -0.3806
   20CHTO   H79 8301   4.683  11.335   0.172  1.1997 -1.7874 -2.2037
   20CHTO   C38 8302   4.694  11.487   0.024 -0.2162 -0.0429  0.5835
   20CHTO   H80 8303   4.751  11.579   0.004  0.8701 -0.4824  1.6163
   20CHTO   O31 8304   4.560  11.530   0.050 -0.6729 -0.0427 -0.5954
   20CHTO   H68 8305   4.514  11.533  -0.032 -2.2964  0.4130  0.3137
   20CHTO   C39 8306   4.713  11.411  -0.118  0.5787  0.2254  0.6859
   20CHTO   H81 8307   4.634  11.336  -0.122  0.9448 -0.1706  0.8943
   20CHTO    N7 8308   4.683  11.497  -0.245 -0.1994 -0.1458 -0.0138
   20CHTO   H73 8309   4.625  11.577  -0.202 -0.3371 -0.1694 -0.1538
   20CHTO   H74 8310   4.605  11.435  -0.287 -0.7213  2.0934 -2.4492
   20CHTO   C40 8311   4.852  11.349  -0.126 -0.0427  0.2250 -0.4569
   20CHTO   H82 8312   4.933  11.414  -0.157  2.8622 -1.5725  2.9919
   20CHTO   O26 8313   4.886  11.279  -0.002 -0.0320 -0.0464  0.0909
   20CHTO   C41 8314   4.893  11.367   0.121  0.0213  0.1277 -0.5345
   20CHTO   H83 8315   4.962  11.452   0.110 -1.6317  1.4660 -0.6646
   20CHTO   C52 8316   4.955  11.280   0.235  0.3032 -0.4019  0.6360
   20CHTO   O35 8317   5.101  11.290   0.255  0.2199 -0.1142  0.3311
   20CHTO   H71 8318   5.142  11.270   0.173  1.5222 -0.6382  1.0899
   20CHTO   O28 8319   4.857  11.238  -0.217 -0.3798 -0.4712  0.2205
   20CHTO   C42 8320   4.967  11.181  -0.298  0.2937 -0.6343 -0.3092
   20CHTO   H84 8321   4.923  11.104  -0.362 -0.3133  0.9075 -1.7960
   20CHTO   C44 8322   5.074  11.111  -0.210  0.6001 -0.1728 -0.3067
   20CHTO   H86 8323   5.115  11.183  -0.140  0.0377  2.8572 -2.9908
   20CHTO   O32 8324   5.005  11.014  -0.130  0.1425  0.0518 -0.7997
   20CHTO   H69 8325   5.045  11.008  -0.045 -2.4972 -1.2339  0.4174
   20CHTO   C48 8326   5.205  11.063  -0.278 -0.2476 -0.2317  0.1248
   20CHTO   H90 8327   5.167  10.980  -0.337 -1.4126  0.5010 -0.1732
   20CHTO    N9 8328   5.311  11.013  -0.178 -0.0353 -0.9157 -0.0328
   20CHTO   H77 8329   5.409  11.004  -0.222 -0.3896 -0.0295 -1.0214
   20CHTO   H78 8330   5.281  10.929  -0.117 -0.2435 -1.4841 -0.8953
   20CHTO   C51 8331   5.268  11.170  -0.380 -0.6198 -0.4432  0.5097
   20CHTO   H93 8332   5.315  11.256  -0.333 -0.8704  1.3782 -2.4518
   20CHTO   O30 8333   5.165  11.212  -0.475  0.0994  0.1020 -0.3427
   20CHTO   C46 8334   5.048  11.283  -0.388 -0.2226 -0.3631  0.3752
   20CHTO   H88 8335   5.096  11.356  -0.323 -0.3362  0.2895 -0.2653
   20CHTO   C53 8336   4.947  11.356  -0.485  0.2609  0.1837  0.3018
   20CHTO   O72 8337   5.021  11.430  -0.583 -0.1545 -0.1036 -0.1466
   20CHTO  H199 8338   4.964  11.470  -0.645  1.0627  2.2835  0.2028
   20CHTO   O22 8339   5.357  11.108  -0.476  0.1565 -0.5371 -0.4420
   20CHTO   C31 8340   5.476  11.178  -0.524 -0.7051  0.3898  0.1688
   20CHTO   H59 8341   5.496  11.135  -0.624 -2.1056 -0.8880  0.4175
   20CHTO   C29 8342   5.473  11.334  -0.546  0.2165  0.1763  0.3688
   20CHTO   H57 8343   5.451  11.388  -0.453 -0.6390  0.7107 -0.1314
   20CHTO   O21 8344   5.362  11.370  -0.636  0.8357  0.1392 -0.0163
   20CHTO   H37 8345   5.353  11.463  -0.638 -1.6372 -0.0730 -0.2454
   20CHTO   C27 8346   5.613  11.384  -0.608  0.8658 -0.3043 -0.1423
   20CHTO   H55 8347   5.628  11.337  -0.706 -2.0571  1.7544 -1.6741
   20CHTO    N5 8348   5.612  11.528  -0.624  0.2753 -0.2738  0.7136
   20CHTO   H43 8349   5.625  11.577  -0.528 -0.7369 -1.3518  1.4071
   20CHTO   H44 8350   5.525  11.563  -0.678  1.6486 -0.5752 -1.7419
   20CHTO   C25 8351   5.733  11.335  -0.524 -0.0168 -0.9149  0.0320
   20CHTO   H53 8352   5.732  11.389  -0.428 -0.7381  2.2804 -1.6955
   20CHTO   O17 8353   5.719  11.186  -0.510  0.4306  0.0162  0.3064
   20CHTO   C32 8354   5.606  11.150  -0.436  0.0403 -0.1441 -0.1562
   20CHTO   H60 8355   5.602  11.207  -0.343  2.1705  0.7710 -0.6076
   20CHTO   C36 8356   5.624  10.999  -0.388 -0.2930 -1.1282 -0.5193
   20CHTO   O25 8357   5.694  10.994  -0.261  0.2766 -0.5388  0.0854
   20CHTO   H40 8358   5.780  11.033  -0.267 -0.0062  0.1940  0.7081
   20CHTO   O15 8359   5.865  11.362  -0.584  0.2446  0.3989  0.2114
   20CHTO   C19 8360   6.002  11.390  -0.544  0.1086 -0.7218 -0.0106
   20CHTO   H47 8361   6.055  11.416  -0.637 -0.5814  2.5004  0.4495
   20CHTO   C20 8362   6.015  11.512  -0.443 -0.2617  0.4830 -0.1980
   20CHTO   H48 8363   5.953  11.493  -0.354  2.1466 -2.6158  0.8919
   20CHTO   O19 8364   5.950  11.624  -0.514 -0.0907  0.4012  0.1084
   20CHTO   H35 8365   6.004  11.654  -0.583  0.6917  1.5718  1.2210
   20CHTO   C21 8366   6.165  11.532  -0.412 -0.2060 -0.2237 -0.0041
   20CHTO   H49 8367   6.212  11.565  -0.505 -0.6678 -0.6045 -0.3714
   20CHTO    N4 8368   6.180  11.644  -0.314 -0.2199  0.1101  0.1989
   20CHTO   H41 8369   6.143  11.615  -0.216  0.7597 -2.2594 -0.0949
   20CHTO   H42 8370   6.129  11.734  -0.345  0.3224  0.7851  1.2212
   20CHTO   C22 8371   6.234  11.400  -0.373  0.9059  0.5129 -0.1269
   20CHTO   H50 8372   6.211  11.374  -0.269 -0.5091  1.2320 -0.2454
   20CHTO   O14 8373   6.201  11.292  -0.461  0.2593  0.5572 -0.0407
   20CHTO   C23 8374   6.066  11.267  -0.480  0.5544 -0.7090  0.3572
   20CHTO   H51 8375   6.023  11.250  -0.381 -2.9908  2.1152 -0.6233
   20CHTO   C34 8376   6.058  11.145  -0.562  0.4486  0.0048 -0.5488
   20CHTO   O23 8377   6.109  11.032  -0.500 -0.5344  0.0498  0.0364
   20CHTO   H38 8378   6.040  10.984  -0.458 -0.7499 -0.2826 -0.6927
   20CHTO   O16 8379   6.378  11.419  -0.393  0.2878 -0.4320  0.0273
   20CHTO   C24 8380   6.473  11.321  -0.316 -0.4303  0.6463 -0.3252
   20CHTO   H52 8381   6.418  11.235  -0.279 -1.2116  0.9591 -0.7547
   20CHTO   C26 8382   6.531  11.407  -0.203 -0.0754 -0.5065  0.2590
   20CHTO   H54 8383   6.571  11.500  -0.248 -0.9196  0.3131  1.1934
   20CHTO   O20 8384   6.429  11.463  -0.118 -0.4528 -0.1220 -0.2239
   20CHTO   H36 8385   6.385  11.535  -0.158 -1.5123 -1.4502 -1.4930
   20CHTO   C30 8386   6.641  11.339  -0.119  0.0610 -1.0244  0.0984
   20CHTO   H58 8387   6.604  11.306  -0.021  1.2261  0.0424  0.9110
   20CHTO    N6 8388   6.755  11.426  -0.091 -0.1406 -0.1132  0.5295
   20CHTO   H45 8389   6.761  11.464   0.010 -1.3835  0.1449  0.5150
   20CHTO   H46 8390   6.755  11.510  -0.160 -1.2282 -0.0717  0.5621
   20CHTO   C33 8391   6.698  11.212  -0.195 -0.1192  0.0666  0.1279
   20CHTO   H61 8392   6.801  11.190  -0.161 -0.0726  0.4080  0.2110
   20CHTO   O18 8393   6.705  11.215  -0.342 -0.0391  0.3052 -0.1541
   20CHTO   C28 8394   6.585  11.256  -0.410 -0.6332 -0.1913 -0.4659
   20CHTO   H56 8395   6.606  11.330  -0.487 -1.8955  0.9081  0.2282
   20CHTO   C35 8396   6.529  11.140  -0.488  0.0570  0.3633 -0.3500
   20CHTO   O24 8397   6.446  11.190  -0.594  0.0913 -0.2379 -0.2621
   20CHTO   H39 8398   6.369  11.138  -0.606 -0.0184  0.0487 -0.8147
   20CHTO    O9 8399   6.615  11.099  -0.148  0.7891  0.2280  0.3991
   20CHTO   C13 8400   6.688  10.949  -0.135  0.0188  0.3390  0.1759
   20CHTO   H26 8401   6.796  10.970  -0.145  0.6625 -1.8969  1.9654
   20CHTO   C11 8402   6.632  10.851  -0.254  0.3088 -0.0741 -0.0786
   20CHTO   H24 8403   6.702  10.858  -0.338  0.3551  2.6223  0.1556
   20CHTO    O8 8404   6.507  10.894  -0.300 -0.7382 -0.0894 -0.1306
   20CHTO    H3 8405   6.458  10.941  -0.236  0.3647  1.6777 -0.5568
   20CHTO    C9 8406   6.633  10.705  -0.202 -0.0344  0.8965  0.3587
   20CHTO   H22 8407   6.735  10.681  -0.168  0.9547  1.1134 -2.3133
   20CHTO    N2 8408   6.608  10.602  -0.303 -0.1254 -0.2353  0.0713
   20CHTO   H10 8409   6.508  10.618  -0.341 -0.4562  0.8193  1.3334
   20CHTO   H11 8410   6.674  10.625  -0.385  0.7463  0.9589  1.0799
   20CHTO    C7 8411   6.537  10.698  -0.074  0.0618 -0.8948 -0.5632
   20CHTO   H20 8412   6.571  10.605  -0.024  2.0434  0.5593  0.8887
   20CHTO    O4 8413   6.560  10.805   0.025  0.0653  0.2040 -0.2080
   20CHTO   C14 8414   6.676  10.890   0.012  0.3271 -0.4682 -0.2624
   20CHTO   H27 8415   6.766  10.829   0.036  1.2485 -0.0274 -2.5040
   20CHTO   C18 8416   6.672  11.001   0.116 -0.5116 -0.7024 -0.5534
   20CHTO   O13 8417   6.795  11.072   0.119  0.1631  0.5550  0.6175
   20CHTO    H7 8418   6.799  11.164   0.138  0.0182  0.1631  2.6971
   20CHTO    O2 8419   6.363  10.701  -0.119  0.4028 -0.0170  0.6460
   20CHTO    C1 8420   6.269  10.706  -0.010  0.4199  0.7919 -0.3714
   20CHTO   H14 8421   6.285  10.801   0.044  0.5992  1.1823 -1.1069
   20CHTO    C2 8422   6.280  10.585   0.095  0.3059 -0.4518  0.1347
   20CHTO   H15 8423   6.291  10.501   0.025  0.5464  0.2875 -0.7399
   20CHTO    O6 8424   6.399  10.591   0.170  0.1403  0.2478  0.4280
   20CHTO    H1 8425   6.470  10.605   0.110 -1.6956 -0.4124 -1.9952
   20CHTO    C3 8426   6.158  10.574   0.190  0.3791  0.0277  0.2634
   20CHTO   H16 8427   6.160  10.658   0.261  0.1984 -0.8898  1.3547
   20CHTO    N1 8428   6.166  10.450   0.271  0.6855  0.5986 -0.0395
   20CHTO    H8 8429   6.254  10.442   0.332  1.0493  0.4918 -0.5757
   20CHTO    H9 8430   6.159  10.355   0.221  0.4019 -0.2508  1.5768
   20CHTO    C4 8431   6.026  10.593   0.107 -0.2002  0.5049 -0.0711
   20CHTO   H17 8432   6.002  10.502   0.051 -2.9164  2.9882 -3.1551
   20CHTO    O1 8433   6.025  10.716   0.025 -0.0338  0.9573 -0.9385
   20CHTO    C5 8434   6.127  10.715  -0.075  0.1490 -0.5809  0.0877
   20CHTO   H18 8435   6.112  10.629  -0.141 -2.5144  0.4194 -0.7144
   20CHTO   C16 8436   6.096  10.844  -0.156 -0.1365 -0.4830  0.1585
   20CHTO   O11 8437   6.166  10.839  -0.289  0.3881 -0.4499  0.1591
   20CHTO    H5 8438   6.259  10.848  -0.284  0.2289  0.4126  2.5385
   20CHTO    O3 8439   5.919  10.604   0.200 -0.2114 -0.0554 -0.2851
   20CHTO    C6 8440   5.792  10.669   0.179  0.3645 -0.3596 -0.0670
   20CHTO   H19 8441   5.808  10.749   0.107  0.0736  0.9087  1.2534
   20CHTO    C8 8442   5.672  10.578   0.116 -0.4203  0.5040 -0.0365
   20CHTO   H21 8443   5.670  10.489   0.179 -0.5807  0.4710 -0.0899
   20CHTO    O7 8444   5.721  10.526  -0.010  0.2228 -0.1653  0.0642
   20CHTO    H2 8445   5.668  10.463  -0.055  0.8214 -0.2962 -0.4505
   20CHTO   C12 8446   5.535  10.657   0.113  0.0451  1.3118  0.1850
   20CHTO   H25 8447   5.541  10.738   0.038 -0.5652 -0.5351 -1.8849
   20CHTO    N3 8448   5.429  10.553   0.086  0.6218 -0.7295  0.0695
   20CHTO   H12 8449   5.456  10.493   0.000  1.7225  1.3714 -1.0743
   20CHTO   H13 8450   5.334  10.602   0.071  1.5890  1.7068  1.5359
   20CHTO   C15 8451   5.512  10.720   0.259 -0.0006 -0.5004 -0.2495
   20CHTO   H28 8452   5.480  10.657   0.342 -1.0554  0.6915  0.2727
   20CHTO   O10 8453   5.404  10.813   0.251  0.3127 -0.3701  0.3183
   20CHTO    H4 8454   5.372  10.846   0.333 -0.8520  2.4593 -1.2075
   20CHTO    O5 8455   5.621  10.813   0.294  0.3725 -0.1944  0.2485
   20CHTO   C10 8456   5.745  10.738   0.313 -0.6468  0.2475  0.0248
   20CHTO   H23 8457   5.726  10.654   0.379  3.0765 -1.5959 -1.1522
   20CHTO   C17 8458   5.843  10.834   0.385  0.2472  0.6819 -0.2402
   20CHTO   O12 8459   5.959  10.767   0.444  0.3884 -0.5200  0.6909
   20CHTO    H6 8460   5.928  10.690   0.487  0.4422 -1.2600 -0.5862
   21GLOH   H03 8461   7.577   2.788   0.248  0.1778  0.7044  3.6718
   21GLOH    O1 8462   7.597   2.882   0.233 -0.1225  0.2669  0.1766
   21GLOH    C1 8463   7.627   2.912   0.093 -0.4923  0.5016  0.1005
   21GLOH   H02 8464   7.660   2.820   0.045  0.5882 -0.1147  1.9601
   21GLOH   H08 8465   7.719   2.970   0.092 -1.4254  2.0531  1.3139
   21GLOH    C2 8466   7.519   2.992   0.017 -0.3914 -0.2535 -0.0366
   21GLOH   H04 8467   7.468   3.071   0.074  1.2832  0.5609  0.3657
   21GLOH    O2 8468   7.551   3.055  -0.109 -0.9147  0.4608 -0.1248
   21GLOH   H05 8469   7.596   2.990  -0.166  0.1451  0.7881  0.3233
   21GLOH    C3 8470   7.406   2.886  -0.019  0.1443 -0.4024  0.4307
   21GLOH   H06 8471   7.448   2.818  -0.093 -1.3746 -0.1466 -0.6836
   21GLOH   H07 8472   7.329   2.939  -0.075 -0.6185 -1.4840  0.4568
   21GLOH    O3 8473   7.350   2.809   0.090  0.2149  0.4290 -0.2746
   21GLOH   H01 8474   7.420   2.772   0.146  1.3731  1.5033 -0.9987
   22GLOH   H03 8475   3.098   5.911   4.012  0.1047 -0.9395 -0.2439
   22GLOH    O1 8476   3.155   5.840   3.978  0.6932 -0.4803 -0.2280
   22GLOH    C1 8477   3.202   5.882   3.843 -0.6427 -0.2496  0.0912
   22GLOH   H02 8478   3.274   5.963   3.855 -0.7824 -0.5318  3.0382
   22GLOH   H08 8479   3.125   5.905   3.770  1.4879  2.9062 -1.2984
   22GLOH    C2 8480   3.292   5.770   3.785  0.1262  0.0392 -0.0408
   22GLOH   H04 8481   3.236   5.676   3.769  0.3757 -0.1870  0.4163
   22GLOH    O2 8482   3.342   5.822   3.661  0.2763  0.4069  0.8747
   22GLOH   H05 8483   3.370   5.915   3.662 -3.4006  1.6232  2.4272
   22GLOH    C3 8484   3.411   5.736   3.875 -0.4377 -0.8135 -0.1008
   22GLOH   H06 8485   3.460   5.826   3.911  0.8381 -1.7882  0.6589
   22GLOH   H07 8486   3.488   5.681   3.820  1.4815  0.0181  1.7227
   22GLOH    O3 8487   3.355   5.669   3.993 -0.2968 -0.1175  0.5578
   22GLOH   H01 8488   3.277   5.724   4.012  0.7119  1.3507  0.5378
   23GLOH   H03 8489   2.348   7.256   1.790  0.1838 -1.2626 -1.1681
   23GLOH    O1 8490   2.294   7.184   1.828 -0.9934  0.1075 -0.2190
   23GLOH    C1 8491   2.370   7.112   1.924 -0.3615  0.7517  0.1867
   23GLOH   H02 8492   2.324   7.120   2.022 -1.0746 -1.3554  0.0438
   23GLOH   H08 8493   2.467   7.160   1.917 -1.3113  2.5946 -0.9638
   23GLOH    C2 8494   2.391   6.966   1.895 -0.2359 -0.0829 -0.1739
   23GLOH   H04 8495   2.426   6.958   1.791 -0.4710  0.6592 -0.3190
   23GLOH    O2 8496   2.480   6.906   1.983 -0.5544 -0.2146 -0.1992
   23GLOH   H05 8497   2.567   6.905   1.939  0.4518 -2.0488  1.7552
   23GLOH    C3 8498   2.252   6.895   1.902 -1.0303  0.1982  0.8089
   23GLOH   H06 8499   2.179   6.947   1.840 -0.0066 -2.2336 -2.5369
   23GLOH   H07 8500   2.228   6.905   2.008 -3.7809  2.5864  0.0377
   23GLOH    O3 8501   2.258   6.757   1.868 -0.0551 -0.1904  0.4468
   23GLOH   H01 8502   2.230   6.710   1.948  2.2437 -0.4129  1.1577
   24GLOH   H03 8503   1.313   3.280   1.393  1.8756  0.6390 -0.4843
   24GLOH    O1 8504   1.310   3.293   1.296  0.1547  0.1861 -0.5035
   24GLOH    C1 8505   1.441   3.297   1.237 -0.0604 -0.2569 -0.3228
   24GLOH   H02 8506   1.488   3.379   1.290 -0.9291  0.1701 -0.2053
   24GLOH   H08 8507   1.430   3.309   1.129 -0.3973  0.9417 -0.1557
   24GLOH    C2 8508   1.496   3.161   1.269 -0.1731  0.8528  0.7452
   24GLOH   H04 8509   1.592   3.162   1.215 -0.6936 -2.3727 -0.3314
   24GLOH    O2 8510   1.531   3.131   1.407  0.0529 -0.2950  0.6395
   24GLOH   H05 8511   1.548   3.037   1.426  0.2873  0.0315  2.1078
   24GLOH    C3 8512   1.408   3.052   1.218  0.4275  0.4349  0.8162
   24GLOH   H06 8513   1.318   3.055   1.279 -0.5076 -0.0772 -0.5122
   24GLOH   H07 8514   1.446   2.953   1.242  0.6584  0.0953 -0.8763
   24GLOH    O3 8515   1.366   3.067   1.080  0.7779  0.1446 -0.4200
   24GLOH   H01 8516   1.288   3.126   1.081 -0.7586 -1.8513  0.3249
   25GLOH   H03 8517   9.304   2.188   2.449 -1.5757  0.3074  0.3508
   25GLOH    O1 8518   9.328   2.163   2.539 -0.0042 -0.3341 -0.2381
   25GLOH    C1 8519   9.421   2.057   2.543  0.6524  0.4989 -0.3998
   25GLOH   H02 8520   9.490   2.063   2.460  0.5939  1.4449 -0.3825
   25GLOH   H08 8521   9.367   1.962   2.534 -1.2291  1.5926 -0.9472
   25GLOH    C2 8522   9.501   2.057   2.669 -0.2644 -0.3327 -0.8307
   25GLOH   H04 8523   9.536   2.161   2.674 -1.4531  0.1133 -1.6433
   25GLOH    O2 8524   9.412   2.029   2.780 -0.0683 -0.1274  0.2866
   25GLOH   H05 8525   9.351   2.104   2.791  0.0953 -0.2717  2.3354
   25GLOH    C3 8526   9.630   1.972   2.673  0.3184  0.1526  0.0667
   25GLOH   H06 8527   9.607   1.883   2.614  0.1607  0.3287 -0.1365
   25GLOH   H07 8528   9.650   1.938   2.774 -1.6984 -2.3351 -0.3212
   25GLOH    O3 8529   9.743   2.049   2.619 -0.5530  0.0152  0.5900
   25GLOH   H01 8530   9.809   1.980   2.599  2.0922  2.4861  0.6436
   26GLOH   H03 8531   9.840   0.698   3.413 -0.0535  2.1036  0.4182
   26GLOH    O1 8532   9.789   0.735   3.338  0.6361  0.3704 -0.9220
   26GLOH    C1 8533   9.719   0.620   3.283 -0.2513  0.4066 -0.2064
   26GLOH   H02 8534   9.719   0.543   3.360 -1.6530 -0.0534 -0.6547
   26GLOH   H08 8535   9.791   0.587   3.209  0.1611  2.3268 -0.7108
   26GLOH    C2 8536   9.582   0.657   3.221 -0.3293 -0.0289  0.6178
   26GLOH   H04 8537   9.599   0.721   3.133  0.6285  0.9958  1.5161
   26GLOH    O2 8538   9.507   0.542   3.180 -0.0575  0.5529 -0.1847
   26GLOH   H05 8539   9.565   0.481   3.131 -1.7439  1.8106 -3.9966
   26GLOH    C3 8540   9.500   0.744   3.328  0.3470 -0.1363 -0.2466
   26GLOH   H06 8541   9.513   0.849   3.300  1.1058 -0.0978  0.2072
   26GLOH   H07 8542   9.556   0.731   3.421 -0.9500  1.4186  0.7749
   26GLOH    O3 8543   9.363   0.708   3.346  0.4108  0.2709 -0.5321
   26GLOH   H01 8544   9.312   0.772   3.399 -0.2662 -0.4718 -0.2712
   27GLOH   H03 8545   8.604   9.006   0.961  0.9134  1.1272  0.7248
   27GLOH    O1 8546   8.651   8.928   0.996 -0.0779  0.1818  0.0120
   27GLOH    C1 8547   8.738   8.966   1.107 -0.2743 -0.0965  0.6499
   27GLOH   H02 8548   8.696   9.039   1.177  2.0684 -0.0928  2.0985
   27GLOH   H08 8549   8.836   9.003   1.076 -0.5086  0.4862  0.5995
   27GLOH    C2 8550   8.774   8.846   1.195 -0.4718 -0.1430  0.0124
   27GLOH   H04 8551   8.806   8.767   1.126  1.8625  1.1249 -0.4281
   27GLOH    O2 8552   8.870   8.872   1.302  0.5841  0.2180 -0.0201
   27GLOH   H05 8553   8.951   8.819   1.296  0.9757  0.6386  1.4530
   27GLOH    C3 8554   8.645   8.790   1.253 -0.2579 -0.2064  0.3916
   27GLOH   H06 8555   8.648   8.696   1.308 -0.4076 -0.7201 -0.4644
   27GLOH   H07 8556   8.581   8.762   1.170  1.9252 -0.6173 -1.1958
   27GLOH    O3 8557   8.576   8.889   1.333 -0.3136 -0.3890  0.6106
   27GLOH   H01 8558   8.635   8.896   1.411 -0.4626 -0.3842  0.7220
   28GLOH   H03 8559   2.196   5.404   2.453 -0.2227 -2.0640 -1.9498
   28GLOH    O1 8560   2.255   5.356   2.515 -0.3821  0.3316  0.1178
   28GLOH    C1 8561   2.258   5.219   2.474 -0.5175 -0.3143  0.5140
   28GLOH   H02 8562   2.345   5.161   2.504  0.8426  0.0232 -2.6597
   28GLOH   H08 8563   2.268   5.217   2.366 -0.3897 -4.3696  0.5482
   28GLOH    C2 8564   2.138   5.136   2.526  0.0282  0.0137 -0.4237
   28GLOH   H04 8565   2.135   5.033   2.486 -0.2697  0.2094 -0.9132
   28GLOH    O2 8566   2.153   5.130   2.673  0.3831  0.4757 -0.1368
   28GLOH   H05 8567   2.245   5.108   2.692 -0.5647 -3.0047  0.8023
   28GLOH    C3 8568   2.006   5.208   2.488 -0.6218 -0.5658  0.6041
   28GLOH   H06 8569   2.018   5.315   2.503  1.1851 -0.2062 -2.8929
   28GLOH   H07 8570   1.932   5.166   2.556 -1.1582 -1.7109 -0.6430
   28GLOH    O3 8571   1.961   5.193   2.353 -0.5089 -0.3435  0.6765
   28GLOH   H01 8572   1.939   5.101   2.332  0.5293 -0.1718 -1.2414
   29GLOH   H03 8573   2.951   5.271   3.681 -0.2232 -1.6142  0.3716
   29GLOH    O1 8574   3.008   5.218   3.622  0.4168  0.0399 -0.5223
   29GLOH    C1 8575   2.941   5.235   3.495  0.2641  0.0046 -0.8553
   29GLOH   H02 8576   2.940   5.341   3.467  0.0186  0.5937  1.3204
   29GLOH   H08 8577   2.841   5.195   3.505 -0.9599  2.9269 -0.8358
   29GLOH    C2 8578   3.012   5.157   3.384  1.0067 -0.2069 -0.1597
   29GLOH   H04 8579   2.990   5.050   3.399  2.5213 -0.3816  0.8944
   29GLOH    O2 8580   2.959   5.188   3.251 -0.0867  0.0348  0.1785
   29GLOH   H05 8581   2.876   5.144   3.228 -0.3863 -0.5556  2.2966
   29GLOH    C3 8582   3.168   5.161   3.391 -0.1482  0.1264  0.1412
   29GLOH   H06 8583   3.213   5.106   3.308  1.4174 -0.4625  1.3747
   29GLOH   H07 8584   3.196   5.115   3.486 -0.6457  0.1768  0.3155
   29GLOH    O3 8585   3.211   5.297   3.395  0.8449 -0.1396 -0.0243
   29GLOH   H01 8586   3.139   5.350   3.357 -1.1091 -0.5853  2.8452
   30GLOH   H03 8587   7.731   0.691   2.007  0.0701  0.3884  3.2242
   30GLOH    O1 8588   7.635   0.687   1.990  0.6317  0.3455 -0.2904
   30GLOH    C1 8589   7.604   0.559   1.937 -0.4140  0.6066 -0.2266
   30GLOH   H02 8590   7.688   0.490   1.944  1.9024  3.5324  1.5109
   30GLOH   H08 8591   7.577   0.569   1.832  3.0598  2.0764 -1.0454
   30GLOH    C2 8592   7.482   0.497   2.005 -0.5956 -0.5572 -0.2315
   30GLOH   H04 8593   7.399   0.567   1.987 -0.6300 -0.0677  1.7075
   30GLOH    O2 8594   7.445   0.361   1.960  0.1440 -0.3071 -0.0228
   30GLOH   H05 8595   7.432   0.365   1.864  0.6631  0.5177 -0.0639
   30GLOH    C3 8596   7.494   0.493   2.158 -0.8544  0.1988  0.9479
   30GLOH   H06 8597   7.584   0.437   2.181 -0.5244  0.3924  0.1258
   30GLOH   H07 8598   7.401   0.447   2.194 -0.6023 -2.4931 -1.6617
   30GLOH    O3 8599   7.507   0.625   2.216  0.0070  0.4057 -0.1749
   30GLOH   H01 8600   7.539   0.682   2.143 -0.3864 -0.1088 -0.7579
   31GLOH   H03 8601   4.115   4.497   0.834  0.4334 -0.1160 -1.2319
   31GLOH    O1 8602   4.045   4.438   0.802 -0.0527 -0.1070 -0.2030
   31GLOH    C1 8603   3.930   4.518   0.773 -0.2519  0.6099  0.6418
   31GLOH   H02 8604   3.857   4.454   0.724  1.2620 -2.0194  1.6939
   31GLOH   H08 8605   3.960   4.601   0.709 -0.4086 -0.0261 -0.2865
   31GLOH    C2 8606   3.866   4.565   0.902  0.3645 -0.0484 -0.1705
   31GLOH   H04 8607   3.928   4.633   0.962 -0.2534  0.5944 -0.2465
   31GLOH    O2 8608   3.749   4.646   0.872 -0.4231 -0.4835  0.1865
   31GLOH   H05 8609   3.719   4.684   0.956  0.9679 -0.0591  0.5015
   31GLOH    C3 8610   3.832   4.447   1.002 -0.2510  0.4639  0.5454
   31GLOH   H06 8611   3.759   4.378   0.961 -0.4941 -0.2983  2.2204
   31GLOH   H07 8612   3.781   4.495   1.086  0.0255  1.1722  0.3119
   31GLOH    O3 8613   3.952   4.381   1.045 -0.4963  0.3344 -0.5692
   31GLOH   H01 8614   4.008   4.368   0.966  0.7934 -1.0977  0.5563
   32GLOH   H03 8615   9.278   2.520   0.427  0.6133 -0.8242  1.1949
   32GLOH    O1 8616   9.358   2.522   0.372 -0.1800  0.3374  0.0594
   32GLOH    C1 8617   9.343   2.419   0.270  0.3435  0.0261  0.1104
   32GLOH   H02 8618   9.348   2.319   0.312 -2.1416 -0.6323 -1.0747
   32GLOH   H08 8619   9.413   2.437   0.188  0.7564 -0.6446  0.3072
   32GLOH    C2 8620   9.206   2.421   0.207 -0.4675 -0.1490  0.6272
   32GLOH   H04 8621   9.181   2.515   0.154  1.3555  0.5280  0.9261
   32GLOH    O2 8622   9.194   2.324   0.106 -0.4303  0.2040 -0.0466
   32GLOH   H05 8623   9.144   2.249   0.142 -1.3854  1.1243  0.5685
   32GLOH    C3 8624   9.097   2.409   0.314 -0.7638  0.4858  0.0911
   32GLOH   H06 8625   9.095   2.310   0.358 -2.8424  1.3084  1.9764
   32GLOH   H07 8626   8.997   2.429   0.273 -1.2333  2.6618  2.1355
   32GLOH    O3 8627   9.116   2.502   0.424 -0.2984 -0.8466  0.0561
   32GLOH   H01 8628   9.028   2.517   0.462  0.4524  0.5928  1.2813
   33GLOH   H03 8629   1.729   9.099   1.936  1.1768  0.1924  1.3551
   33GLOH    O1 8630   1.740   9.196   1.937 -0.0956  0.3958 -0.4793
   33GLOH    C1 8631   1.792   9.231   1.806 -0.1002  0.2741  0.1627
   33GLOH   H02 8632   1.715   9.213   1.731  0.1286 -2.5527  0.5413
   33GLOH   H08 8633   1.879   9.170   1.782 -0.5816  0.5357 -2.3660
   33GLOH    C2 8634   1.828   9.376   1.798 -0.1315  0.1730  0.1387
   33GLOH   H04 8635   1.905   9.401   1.873 -1.1282 -0.2575  1.3370
   33GLOH    O2 8636   1.903   9.393   1.672 -0.2518  0.0186 -0.9626
   33GLOH   H05 8637   1.834   9.401   1.603 -0.7353 -0.3586 -0.5281
   33GLOH    C3 8638   1.706   9.472   1.818  0.0097 -0.1883 -0.1245
   33GLOH   H06 8639   1.744   9.569   1.784 -0.4935  1.0027  2.6084
   33GLOH   H07 8640   1.693   9.484   1.925 -0.8680 -1.9276 -0.0275
   33GLOH    O3 8641   1.584   9.432   1.754 -0.2641 -1.0273 -0.6942
   33GLOH   H01 8642   1.518   9.503   1.760 -1.8086 -2.4246 -0.7391
   34GLOH   H03 8643   2.782   0.011   1.475 -0.9881 -0.1809  0.2401
   34GLOH    O1 8644   2.821  -0.053   1.537 -0.0332  0.1202 -0.0481
   34GLOH    C1 8645   2.960  -0.029   1.550  0.1865 -0.5913  0.4899
   34GLOH   H02 8646   2.998  -0.053   1.649  2.6468  2.1991  0.2810
   34GLOH   H08 8647   2.979   0.077   1.536 -0.6402 -0.5307 -0.2197
   34GLOH    C2 8648   3.047  -0.103   1.447  0.9511 -0.2585  0.8101
   34GLOH   H04 8649   2.993  -0.090   1.352  0.0668 -2.4173  0.9678
   34GLOH    O2 8650   3.176  -0.034   1.435  0.1264  0.0607  0.3811
   34GLOH   H05 8651   3.208  -0.012   1.524  1.3807 -2.6037  0.6510
   34GLOH    C3 8652   3.057  -0.251   1.473 -0.8597  0.7861  1.0545
   34GLOH   H06 8653   3.139  -0.287   1.411  0.4995  0.3527  3.0364
   34GLOH   H07 8654   2.962  -0.300   1.451  0.1528 -0.9689  0.5155
   34GLOH    O3 8655   3.086  -0.275   1.614  0.4597 -0.4381 -0.4988
   34GLOH   H01 8656   2.999  -0.258   1.654 -0.5380 -1.5815 -2.1458
   35GLOH   H03 8657   6.330   0.461   2.873 -0.2892  0.2120 -0.6266
   35GLOH    O1 8658   6.233   0.455   2.876 -0.2963  0.5199 -0.1328
   35GLOH    C1 8659   6.170   0.340   2.945  0.3470  0.1995  0.2666
   35GLOH   H02 8660   6.107   0.361   3.031  2.0519  1.5334  1.2316
   35GLOH   H08 8661   6.256   0.287   2.985  2.1273  2.2667 -0.7086
   35GLOH    C2 8662   6.090   0.259   2.842  0.6981  0.9033  0.1015
   35GLOH   H04 8663   6.169   0.219   2.776 -0.1717  0.5326 -0.7179
   35GLOH    O2 8664   6.034   0.144   2.909  0.2921 -0.1026 -0.3880
   35GLOH   H05 8665   5.989   0.083   2.848 -0.0973  0.6864 -0.8924
   35GLOH    C3 8666   5.981   0.339   2.760  0.2810  0.1165  0.4525
   35GLOH   H06 8667   6.033   0.419   2.707 -0.0846 -1.1478 -1.8844
   35GLOH   H07 8668   5.912   0.392   2.826  0.0511  0.5311 -0.1093
   35GLOH    O3 8669   5.903   0.263   2.665  0.2493  0.1157  0.0801
   35GLOH   H01 8670   5.946   0.253   2.578 -1.5037  2.7700 -1.1476
   36GLOH   H03 8671   9.625   9.751   0.883  0.8024  1.8103  1.2538
   36GLOH    O1 8672   9.528   9.763   0.875  0.5972 -0.4104  0.0412
   36GLOH    C1 8673   9.449   9.641   0.855 -0.4798  0.1275  0.5086
   36GLOH   H02 8674   9.513   9.555   0.876 -0.4812  0.1850  0.7446
   36GLOH   H08 8675   9.412   9.635   0.753  1.7672  1.8218 -0.4571
   36GLOH    C2 8676   9.338   9.627   0.957  0.0808  0.0563  0.7915
   36GLOH   H04 8677   9.266   9.547   0.933 -0.0565 -0.5918  3.1950
   36GLOH    O2 8678   9.403   9.580   1.080 -0.2606  0.2954  0.2302
   36GLOH   H05 8679   9.353   9.500   1.105 -0.9786  0.5706 -0.3263
   36GLOH    C3 8680   9.253   9.753   0.989  0.2756  0.4698  0.2504
   36GLOH   H06 8681   9.310   9.845   1.001 -2.3485  2.1343  0.4914
   36GLOH   H07 8682   9.203   9.736   1.084 -0.3623  2.1803  0.2352
   36GLOH    O3 8683   9.166   9.763   0.880  0.1438  0.0998  0.0280
   36GLOH   H01 8684   9.086   9.814   0.904 -0.3238 -0.8984  0.6275
   37GLOH   H03 8685   3.760   6.783   3.134 -2.0080 -1.5551  0.5933
   37GLOH    O1 8686   3.798   6.723   3.201  0.5521 -0.1458  0.4712
   37GLOH    C1 8687   3.903   6.644   3.141  0.2938  0.1968  0.7629
   37GLOH   H02 8688   3.975   6.703   3.084  0.2091  1.4086  1.8915
   37GLOH   H08 8689   3.880   6.562   3.073 -0.6908  0.7200  0.4489
   37GLOH    C2 8690   3.997   6.587   3.249  0.1842  0.6885  0.6900
   37GLOH   H04 8691   3.938   6.519   3.312  0.9036 -0.8005 -0.2104
   37GLOH    O2 8692   4.106   6.505   3.194  0.0177  0.0432 -0.0168
   37GLOH   H05 8693   4.080   6.443   3.124  0.6016  1.6298 -1.6730
   37GLOH    C3 8694   4.051   6.687   3.349  0.3046 -0.0826  0.1847
   37GLOH   H06 8695   4.065   6.646   3.449  0.1636 -0.8744 -0.1178
   37GLOH   H07 8696   3.974   6.764   3.354  1.2430  1.1072 -2.3857
   37GLOH    O3 8697   4.168   6.764   3.308 -0.1757 -0.3798  0.1313
   37GLOH   H01 8698   4.212   6.701   3.248 -0.3376 -2.0231  1.6887
   38GLOH   H03 8699   9.291   2.636   1.971  1.1404  1.0356 -0.4478
   38GLOH    O1 8700   9.269   2.727   1.998  0.2175  0.6693  0.0794
   38GLOH    C1 8701   9.198   2.796   1.887  0.1120  0.5417 -0.5231
   38GLOH   H02 8702   9.150   2.885   1.929  0.9099  1.0415 -0.6477
   38GLOH   H08 8703   9.115   2.734   1.854  0.1457 -0.7898  1.8103
   38GLOH    C2 8704   9.294   2.842   1.770 -0.4113 -0.2775  0.1065
   38GLOH   H04 8705   9.343   2.754   1.727 -0.5276  0.8933 -2.4949
   38GLOH    O2 8706   9.206   2.904   1.667 -0.5368  0.5021  0.2554
   38GLOH   H05 8707   9.264   2.921   1.591 -0.1614 -0.1492  0.3895
   38GLOH    C3 8708   9.397   2.950   1.813  0.7201  0.5818 -0.0599
   38GLOH   H06 8709   9.444   2.924   1.908 -1.8288 -0.0162  1.0841
   38GLOH   H07 8710   9.352   3.048   1.820  1.2531  0.8193  0.0424
   38GLOH    O3 8711   9.502   2.946   1.712  0.2498 -0.5624  0.4884
   38GLOH   H01 8712   9.513   2.868   1.655 -3.0942  0.4019 -1.6518
   39GLOH   H03 8713   7.913   5.405   0.961  0.7480  0.1632  0.7507
   39GLOH    O1 8714   7.827   5.451   0.962  0.6286 -0.0518  0.2590
   39GLOH    C1 8715   7.817   5.541   0.850  0.1171  0.6348  0.8537
   39GLOH   H02 8716   7.835   5.479   0.762 -0.0383 -0.4788  1.6016
   39GLOH   H08 8717   7.890   5.622   0.858  0.4710  0.2829  1.1536
   39GLOH    C2 8718   7.689   5.625   0.834  0.2370  0.2920  0.6870
   39GLOH   H04 8719   7.678   5.690   0.921 -0.1982  0.7260  0.3088
   39GLOH    O2 8720   7.712   5.710   0.721 -0.3753  0.1268 -0.5141
   39GLOH   H05 8721   7.793   5.762   0.736 -0.6807  0.7985 -1.1263
   39GLOH    C3 8722   7.562   5.536   0.813 -0.3939 -0.1441 -0.0456
   39GLOH   H06 8723   7.540   5.534   0.706  1.8687  1.3702 -0.5806
   39GLOH   H07 8724   7.480   5.597   0.852 -0.7253 -0.4348 -0.2889
   39GLOH    O3 8725   7.570   5.409   0.872 -0.0174 -0.0271  0.1952
   39GLOH   H01 8726   7.636   5.409   0.944 -0.8571 -2.8953  1.0171
   40GLOH   H03 8727   4.293   8.662   3.648 -3.7429 -0.0980  1.3072
   40GLOH    O1 8728   4.277   8.646   3.553  0.1256  0.1625  0.5454
   40GLOH    C1 8729   4.153   8.575   3.527  0.5070  0.2516  0.0689
   40GLOH   H02 8730   4.107   8.537   3.618 -1.4541  0.3575 -0.8354
   40GLOH   H08 8731   4.176   8.485   3.470 -0.2017  1.5950 -2.3984
   40GLOH    C2 8732   4.054   8.659   3.444  0.5196 -0.2500  0.7299
   40GLOH   H04 8733   4.035   8.751   3.501 -0.0833  1.0475 -1.5049
   40GLOH    O2 8734   4.084   8.693   3.310 -0.0976 -0.4345 -0.7544
   40GLOH   H05 8735   4.171   8.736   3.314 -0.3845  0.0580  0.3246
   40GLOH    C3 8736   3.925   8.579   3.433 -0.3772 -0.3142 -0.3288
   40GLOH   H06 8737   3.955   8.477   3.408  0.2455  0.0274 -0.9844
   40GLOH   H07 8738   3.873   8.615   3.345 -1.5393  0.3467  0.6084
   40GLOH    O3 8739   3.831   8.596   3.539  0.5187  0.8445 -0.1627
   40GLOH   H01 8740   3.869   8.595   3.629 -1.0323 -2.4269  0.5115
   41GLOH   H03 8741   3.237   6.910   1.746  0.4421  1.8965 -0.0257
   41GLOH    O1 8742   3.297   6.867   1.683 -0.5680 -0.0500  0.3279
   41GLOH    C1 8743   3.230   6.826   1.565  0.9326  0.2871  0.2678
   41GLOH   H02 8744   3.194   6.726   1.588  0.9934  0.0265 -0.7566
   41GLOH   H08 8745   3.296   6.818   1.479 -1.6641  0.2414 -1.7960
   41GLOH    C2 8746   3.114   6.912   1.519 -1.2561 -0.1285 -0.1200
   41GLOH   H04 8747   3.163   7.004   1.485  3.9590 -2.5814  0.1632
   41GLOH    O2 8748   3.044   6.857   1.405  0.2306  0.3234 -0.3562
   41GLOH   H05 8749   3.019   6.763   1.413  0.5861  0.0742 -1.9813
   41GLOH    C3 8750   3.022   6.942   1.635  0.5053 -0.1797  0.2610
   41GLOH   H06 8751   2.987   6.846   1.674 -0.6966  0.0865 -0.1611
   41GLOH   H07 8752   2.936   6.999   1.598  0.9452 -0.5037 -1.3030
   41GLOH    O3 8753   3.099   7.010   1.743  0.0366 -0.4672 -0.0509
   41GLOH   H01 8754   3.037   7.070   1.789 -0.9794 -2.3580  1.0854
   42GLOH   H03 8755   5.039   1.777   1.296  0.7412 -1.0556 -0.6162
   42GLOH    O1 8756   4.988   1.773   1.213 -0.1978 -0.5979 -0.0682
   42GLOH    C1 8757   4.934   1.641   1.227 -0.7107 -0.3716  0.7511
   42GLOH   H02 8758   5.013   1.573   1.260 -1.9696 -2.2346  0.0369
   42GLOH   H08 8759   4.906   1.604   1.128 -1.5238  1.1200  0.4163
   42GLOH    C2 8760   4.807   1.626   1.309 -0.1167  0.3464  0.1934
   42GLOH   H04 8761   4.773   1.521   1.318 -1.9204  1.0443  2.2088
   42GLOH    O2 8762   4.833   1.658   1.448 -0.0116  0.0036 -0.1211
   42GLOH   H05 8763   4.749   1.692   1.485 -0.0623  0.3896 -0.5855
   42GLOH    C3 8764   4.686   1.710   1.253 -0.0273 -0.0565  0.2846
   42GLOH   H06 8765   4.718   1.814   1.248 -1.2066  0.2579 -1.3629
   42GLOH   H07 8766   4.601   1.704   1.321 -0.1420 -3.8294 -0.0559
   42GLOH    O3 8767   4.645   1.657   1.125 -0.3688  0.6957  0.2469
   42GLOH   H01 8768   4.606   1.569   1.139  2.5009 -0.3127  2.5598
   43GLOH   H03 8769   8.689   1.154   3.046  0.0786  0.0300 -2.0462
   43GLOH    O1 8770   8.725   1.068   3.073 -0.2416  0.6239  0.4748
   43GLOH    C1 8771   8.858   1.083   3.125  0.8142  0.3854 -0.7713
   43GLOH   H02 8772   8.860   1.122   3.227  1.6326 -3.7117  0.8707
   43GLOH   H08 8773   8.911   1.165   3.076  2.0706  0.1989  0.2211
   43GLOH    C2 8774   8.946   0.956   3.117 -0.3815 -0.1144  0.6024
   43GLOH   H04 8775   8.938   0.920   3.014  0.0006  1.3454  0.0465
   43GLOH    O2 8776   9.088   0.987   3.129  0.3834  0.4209 -0.2218
   43GLOH   H05 8777   9.138   0.914   3.090  1.2130  1.2481 -0.7448
   43GLOH    C3 8778   8.913   0.841   3.209  0.1443 -0.2831 -0.2725
   43GLOH   H06 8779   8.988   0.767   3.180 -0.5033 -0.5000 -1.4096
   43GLOH   H07 8780   8.817   0.799   3.179  0.5236  0.0576 -1.9772
   43GLOH    O3 8781   8.915   0.859   3.354 -0.3994 -0.3413  0.9641
   43GLOH   H01 8782   8.981   0.928   3.375  1.1382 -1.5521  0.2520
   44GLOH   H03 8783   2.604   0.148   2.837  0.9511  0.3652 -0.1910
   44GLOH    O1 8784   2.607   0.066   2.783  0.3877  0.2581 -0.0681
   44GLOH    C1 8785   2.548  -0.055   2.837  0.6206  0.8660  0.1397
   44GLOH   H02 8786   2.485  -0.102   2.761  0.7422 -0.3805  0.7901
   44GLOH   H08 8787   2.491  -0.045   2.929 -2.4660  2.7193 -1.8723
   44GLOH    C2 8788   2.659  -0.157   2.871 -0.1642  0.0632 -0.0671
   44GLOH   H04 8789   2.741  -0.151   2.799  0.1834  1.7219  0.4549
   44GLOH    O2 8790   2.721  -0.137   3.001  0.5826  0.5994  0.3774
   44GLOH   H05 8791   2.768  -0.052   2.993 -1.5639  1.7716 -0.3927
   44GLOH    C3 8792   2.605  -0.308   2.855 -0.4825  0.2360 -0.3465
   44GLOH   H06 8793   2.528  -0.327   2.930 -0.8934 -1.5231 -1.1798
   44GLOH   H07 8794   2.687  -0.376   2.878 -1.9864 -0.8557  1.8846
   44GLOH    O3 8795   2.565  -0.341   2.720  0.4560  0.1367  0.3071
   44GLOH   H01 8796   2.495  -0.404   2.748 -0.2316  0.6042 -0.3548
   45GLOH   H03 8797   1.107   1.378   0.430 -0.2781  1.6697 -0.4926
   45GLOH    O1 8798   1.055   1.350   0.352 -0.0733 -0.4973  0.1146
   45GLOH    C1 8799   0.990   1.230   0.379 -0.3371  0.4474 -0.3561
   45GLOH   H02 8800   0.971   1.230   0.487 -0.7591  1.5776 -0.4213
   45GLOH   H08 8801   1.057   1.146   0.364 -0.6264  0.0134  0.7651
   45GLOH    C2 8802   0.862   1.205   0.302 -0.1288 -0.0125  0.0766
   45GLOH   H04 8803   0.896   1.192   0.198 -0.9660 -0.8604 -0.0968
   45GLOH    O2 8804   0.794   1.088   0.347 -0.2972 -0.4856  0.5330
   45GLOH   H05 8805   0.782   1.041   0.263  1.9065  1.6726 -1.0722
   45GLOH    C3 8806   0.768   1.329   0.297 -0.2060  0.2359  0.2910
   45GLOH   H06 8807   0.720   1.343   0.393 -0.7656  1.9803 -0.2217
   45GLOH   H07 8808   0.694   1.298   0.223  0.7161 -2.3894  0.4113
   45GLOH    O3 8809   0.839   1.449   0.250 -0.5062 -0.3961 -0.3188
   45GLOH   H01 8810   0.933   1.437   0.276 -0.6747 -1.4013 -0.1525
   46GLOH   H03 8811   3.973   9.441   0.537  1.3949 -1.2206 -1.1822
   46GLOH    O1 8812   3.943   9.372   0.600  0.1745  0.0766 -0.2949
   46GLOH    C1 8813   4.062   9.317   0.653 -0.6191  0.0636 -0.1819
   46GLOH   H02 8814   4.118   9.399   0.698 -2.3758  0.0669  2.1190
   46GLOH   H08 8815   4.125   9.282   0.572  0.7106  1.8980  0.0044
   46GLOH    C2 8816   4.044   9.222   0.767  0.0333 -0.6473  0.5236
   46GLOH   H04 8817   4.006   9.124   0.733  1.0375 -0.6862 -0.4972
   46GLOH    O2 8818   4.176   9.201   0.823  0.0047 -0.3875  0.1818
   46GLOH   H05 8819   4.204   9.112   0.795  1.5167 -0.0394  0.5074
   46GLOH    C3 8820   3.957   9.286   0.876 -0.2802  0.3195 -0.6417
   46GLOH   H06 8821   3.865   9.322   0.830 -0.4287  1.1227  0.2604
   46GLOH   H07 8822   4.003   9.376   0.917  1.5737 -0.0189 -1.9126
   46GLOH    O3 8823   3.930   9.200   0.985 -0.1393  0.0150 -0.0749
   46GLOH   H01 8824   3.858   9.141   0.957  1.9529 -0.7241 -4.2023
   47GLOH   H03 8825   2.909   5.491   3.005 -0.5849 -1.3141  0.7785
   47GLOH    O1 8826   2.905   5.516   3.100 -0.3739  0.0297  0.4506
   47GLOH    C1 8827   2.777   5.552   3.149 -0.4742  0.1437  0.0128
   47GLOH   H02 8828   2.775   5.560   3.257  2.0064  0.2725  0.0785
   47GLOH   H08 8829   2.711   5.465   3.144 -2.5941  1.3463  4.4842
   47GLOH    C2 8830   2.722   5.680   3.087 -0.5407  0.1438 -0.0748
   47GLOH   H04 8831   2.731   5.685   2.977  2.1679 -0.2207  0.0860
   47GLOH    O2 8832   2.586   5.698   3.139  0.1355  0.1160 -0.2988
   47GLOH   H05 8833   2.526   5.634   3.098 -1.7982  0.9454  1.1705
   47GLOH    C3 8834   2.809   5.798   3.136  0.2369  0.1579 -0.1221
   47GLOH   H06 8835   2.912   5.781   3.104 -0.0517 -0.2840 -0.8087
   47GLOH   H07 8836   2.805   5.791   3.245  0.5914 -0.4397 -0.1455
   47GLOH    O3 8837   2.759   5.924   3.092 -0.0476 -0.6023  0.1319
   47GLOH   H01 8838   2.702   5.907   3.015  0.0760  0.6194 -0.2385
   48GLOH   H03 8839   0.037   7.584   1.722  1.6966  0.0815  1.1804
   48GLOH    O1 8840   0.091   7.551   1.648  0.2194  0.5534 -0.1266
   48GLOH    C1 8841   0.106   7.410   1.669 -0.0493  0.8335 -0.2082
   48GLOH   H02 8842   0.066   7.386   1.767  0.4325  0.5805 -0.0678
   48GLOH   H08 8843   0.210   7.376   1.663  0.6607  3.2103 -2.1857
   48GLOH    C2 8844   0.037   7.315   1.570 -0.0653  0.3677 -0.1528
   48GLOH   H04 8845   0.030   7.211   1.607 -0.6511 -0.4322 -2.4242
   48GLOH    O2 8846  -0.101   7.347   1.556 -0.0310 -0.2762  0.3849
   48GLOH   H05 8847  -0.138   7.369   1.468 -1.1394 -1.6917  0.4820
   48GLOH    C3 8848   0.093   7.307   1.424  0.4552  0.2088 -0.5839
   48GLOH   H06 8849   0.082   7.406   1.380  0.3472  1.0535  1.2671
   48GLOH   H07 8850   0.041   7.234   1.363 -2.0026 -0.4149  2.1529
   48GLOH    O3 8851   0.232   7.272   1.433 -0.3816  1.0177 -0.0549
   48GLOH   H01 8852   0.262   7.237   1.347  1.2008 -1.1834  1.3380
   49GLOH   H03 8853   4.255   7.623   1.420 -1.4010  0.9241 -2.4912
   49GLOH    O1 8854   4.345   7.602   1.388 -0.7484 -0.1589 -0.0641
   49GLOH    C1 8855   4.349   7.493   1.293 -0.6468  0.3126  0.5255
   49GLOH   H02 8856   4.388   7.539   1.202 -2.1609  1.8215  0.6063
   49GLOH   H08 8857   4.252   7.456   1.259 -0.8228  1.8131 -0.6835
   49GLOH    C2 8858   4.446   7.374   1.336  0.1981  0.3903 -0.1974
   49GLOH   H04 8859   4.419   7.328   1.433  0.3971 -0.9507 -0.7697
   49GLOH    O2 8860   4.456   7.271   1.235 -0.2601  0.5196 -0.4072
   49GLOH   H05 8861   4.528   7.294   1.174 -0.3386  0.5123 -0.5023
   49GLOH    C3 8862   4.580   7.437   1.357 -0.3687  0.3708  0.4271
   49GLOH   H06 8863   4.607   7.471   1.257 -0.9553 -0.4949 -0.0308
   49GLOH   H07 8864   4.656   7.361   1.378 -0.9422  0.0892  1.4681
   49GLOH    O3 8865   4.585   7.545   1.451 -0.2386  0.1643 -0.5995
   49GLOH   H01 8866   4.495   7.581   1.445 -0.9284 -1.0100  1.8548
   50GLOH   H03 8867   0.830   3.698   0.917 -0.6574  0.9936 -1.1676
   50GLOH    O1 8868   0.915   3.729   0.881 -0.0547  0.3013 -0.3471
   50GLOH    C1 8869   0.986   3.625   0.816 -0.5747  0.0391  0.0224
   50GLOH   H02 8870   0.930   3.532   0.827  2.7934 -2.3927 -2.2744
   50GLOH   H08 8871   1.086   3.611   0.857 -0.6540 -0.4586  0.0495
   50GLOH    C2 8872   1.009   3.657   0.666 -0.4995 -0.6132 -0.7063
   50GLOH   H04 8873   1.080   3.578   0.635 -0.1131 -0.6849  0.3497
   50GLOH    O2 8874   0.901   3.660   0.572 -0.2650 -0.2203  0.2430
   50GLOH   H05 8875   0.938   3.658   0.482  2.7232 -1.0309  1.4449
   50GLOH    C3 8876   1.092   3.786   0.662  0.8453 -0.4419 -0.7814
   50GLOH   H06 8877   1.021   3.869   0.671  1.6356  0.4639 -2.5889
   50GLOH   H07 8878   1.126   3.792   0.558 -2.2500 -0.5901 -1.8827
   50GLOH    O3 8879   1.205   3.797   0.750  0.1990 -0.0980 -0.1565
   50GLOH   H01 8880   1.161   3.816   0.834  0.0793 -1.0352 -0.0036
   51GLOH   H03 8881   8.366   4.379   0.772 -0.0386 -0.3252  0.7325
   51GLOH    O1 8882   8.333   4.288   0.783 -0.1518 -0.3567  0.1500
   51GLOH    C1 8883   8.386   4.239   0.912  0.0519  0.6971 -0.4515
   51GLOH   H02 8884   8.336   4.145   0.936 -0.7856  1.6616  1.6510
   51GLOH   H08 8885   8.366   4.304   0.997  2.8706 -3.0565  3.3600
   51GLOH    C2 8886   8.542   4.216   0.902  0.0124  0.3964 -0.6884
   51GLOH   H04 8887   8.580   4.312   0.865  0.5223  0.0809 -0.9989
   51GLOH    O2 8888   8.600   4.177   1.027 -0.3046 -0.0122 -0.1792
   51GLOH   H05 8889   8.695   4.158   1.019 -0.4601 -1.2195  0.8024
   51GLOH    C3 8890   8.581   4.105   0.796 -0.3043  0.4168  0.5685
   51GLOH   H06 8891   8.522   4.125   0.707 -1.0619  2.2545  1.4571
   51GLOH   H07 8892   8.540   4.013   0.838 -3.4448  1.9186  0.9510
   51GLOH    O3 8893   8.724   4.090   0.778 -0.7610  0.6047  0.0598
   51GLOH   H01 8894   8.732   4.022   0.709 -1.4803 -1.0146  1.5477
   52GLOH   H03 8895   5.732   9.876   3.579 -1.1065  2.1303  0.8709
   52GLOH    O1 8896   5.643   9.852   3.547 -0.1983 -0.0209 -0.0907
   52GLOH    C1 8897   5.558   9.971   3.564  0.1218 -0.2654  0.7469
   52GLOH   H02 8898   5.612  10.046   3.621  0.7855 -2.2156  2.7235
   52GLOH   H08 8899   5.469   9.955   3.625  0.9649 -0.8838  1.8091
   52GLOH    C2 8900   5.520  10.026   3.425  0.6890  0.0630 -0.7588
   52GLOH   H04 8901   5.448  10.109   3.424  0.6977  0.0689 -1.2600
   52GLOH    O2 8902   5.639  10.079   3.360  1.0273  0.2100 -0.4473
   52GLOH   H05 8903   5.710  10.043   3.416  1.1477 -0.2455 -0.8856
   52GLOH    C3 8904   5.446   9.924   3.340  0.3504 -0.3120 -0.3899
   52GLOH   H06 8905   5.371   9.881   3.407  0.3765 -1.4062 -1.0408
   52GLOH   H07 8906   5.508   9.848   3.293  0.7305  0.9913 -2.0862
   52GLOH    O3 8907   5.377   9.997   3.231 -0.5969 -0.4005 -0.1003
   52GLOH   H01 8908   5.447  10.043   3.181  1.2891 -2.3211  0.6788
   53GLOH   H03 8909   7.699   8.818   1.860  0.4150 -0.7003  2.3540
   53GLOH    O1 8910   7.757   8.895   1.867 -0.1357  0.0019 -0.2650
   53GLOH    C1 8911   7.672   9.012   1.872 -0.4541  0.3877  0.5817
   53GLOH   H02 8912   7.567   8.991   1.895 -0.9376 -1.4177 -3.0494
   53GLOH   H08 8913   7.656   9.050   1.771  1.9588 -0.8355 -0.2683
   53GLOH    C2 8914   7.713   9.139   1.963  0.6222 -0.8972 -0.2004
   53GLOH   H04 8915   7.643   9.223   1.946  0.0464 -1.2393  0.4747
   53GLOH    O2 8916   7.692   9.099   2.102  0.5152  0.1937  0.0944
   53GLOH   H05 8917   7.738   9.022   2.138 -2.1519 -0.7844  1.5865
   53GLOH    C3 8918   7.856   9.175   1.923 -0.3202  0.6330  0.7321
   53GLOH   H06 8919   7.919   9.087   1.914  0.5287  1.2281  0.7732
   53GLOH   H07 8920   7.894   9.230   2.010  0.1241 -1.0398  1.6211
   53GLOH    O3 8921   7.863   9.269   1.813  0.1084 -0.6780  0.4705
   53GLOH   H01 8922   7.953   9.262   1.775  0.2145 -0.6033  0.7035
   54GLOH   H03 8923   2.857   6.248   0.444 -1.0342 -0.6320  0.3647
   54GLOH    O1 8924   2.815   6.333   0.470  0.1299  0.0429  0.0822
   54GLOH    C1 8925   2.901   6.412   0.560 -0.7714 -0.0923  0.0210
   54GLOH   H02 8926   2.904   6.512   0.517  1.3203  0.3759  1.1653
   54GLOH   H08 8927   3.002   6.370   0.553 -1.3250 -1.3803 -0.4727
   54GLOH    C2 8928   2.860   6.421   0.708  0.2584  0.3953  0.3315
   54GLOH   H04 8929   2.843   6.315   0.735  1.1047  0.2905  0.4760
   54GLOH    O2 8930   2.963   6.490   0.777 -0.1629 -0.3048 -0.1460
   54GLOH   H05 8931   2.943   6.493   0.872  1.2938 -0.0390  0.1621
   54GLOH    C3 8932   2.714   6.477   0.718  0.2144  0.5098 -0.1155
   54GLOH   H06 8933   2.650   6.421   0.650  0.7446 -1.5019  1.0255
   54GLOH   H07 8934   2.726   6.577   0.674  0.3113  0.4778 -0.1630
   54GLOH    O3 8935   2.670   6.476   0.857 -0.4354 -0.0219  0.1730
   54GLOH   H01 8936   2.735   6.508   0.922 -0.6206  3.0874 -1.0856
   55GLOH   H03 8937   2.480   2.084   3.963 -3.3187 -0.0342 -0.3722
   55GLOH    O1 8938   2.457   2.168   4.006 -0.5102  0.3048  0.5914
   55GLOH    C1 8939   2.328   2.218   3.965 -0.0921 -1.0829 -0.8482
   55GLOH   H02 8940   2.314   2.308   4.025  0.1415 -1.5091 -0.1522
   55GLOH   H08 8941   2.252   2.149   4.001 -3.5492  1.7331 -2.5076
   55GLOH    C2 8942   2.307   2.232   3.810  0.5536 -0.0563 -0.1156
   55GLOH   H04 8943   2.294   2.128   3.779  1.1817 -0.5781  1.3388
   55GLOH    O2 8944   2.196   2.319   3.773 -0.5819 -0.6433 -0.4721
   55GLOH   H05 8945   2.195   2.327   3.676 -0.0784  0.6586 -0.3833
   55GLOH    C3 8946   2.438   2.288   3.746 -0.3792  0.0506  0.1962
   55GLOH   H06 8947   2.524   2.235   3.787 -0.0827  1.2990  1.2036
   55GLOH   H07 8948   2.444   2.395   3.764 -2.5617  0.2651 -0.1216
   55GLOH    O3 8949   2.440   2.261   3.609 -0.3197 -0.0458  0.7031
   55GLOH   H01 8950   2.351   2.246   3.573  0.6624  1.0838 -2.3561
   56GLOH   H03 8951   8.328   8.514   3.744 -1.0568 -1.0959 -0.6333
   56GLOH    O1 8952   8.392   8.441   3.753 -0.1771 -0.2787 -0.1816
   56GLOH    C1 8953   8.473   8.461   3.869  0.4388 -0.2476 -0.5445
   56GLOH   H02 8954   8.412   8.469   3.958 -1.8207  0.7882 -2.1329
   56GLOH   H08 8955   8.537   8.549   3.862 -0.3902  0.2932 -1.4532
   56GLOH    C2 8956   8.589   8.354   3.881  0.4200  0.4304  1.0215
   56GLOH   H04 8957   8.541   8.256   3.892 -1.7707  1.5532  1.7680
   56GLOH    O2 8958   8.670   8.367   3.766  0.1766 -0.3106  0.3573
   56GLOH   H05 8959   8.749   8.310   3.773  0.1158 -0.6255 -1.4432
   56GLOH    C3 8960   8.663   8.389   4.015  0.2503  0.5187  0.2226
   56GLOH   H06 8961   8.698   8.492   4.005  1.3271  0.2051  0.6980
   56GLOH   H07 8962   8.754   8.329   4.018 -0.1130 -0.0567 -0.2913
   56GLOH    O3 8963   8.587   8.369   4.131  0.7548 -0.2070 -0.3535
   56GLOH   H01 8964   8.578   8.455   4.175  1.9538  0.1264 -0.7410
   57GLOH   H03 8965   7.652   0.843   0.151  0.7583 -0.2081  0.9041
   57GLOH    O1 8966   7.634   0.761   0.102  0.5102  0.2170  0.2786
   57GLOH    C1 8967   7.681   0.656   0.196 -0.8432 -0.0412  0.5052
   57GLOH   H02 8968   7.602   0.621   0.263 -2.0155  2.8870  0.7050
   57GLOH   H08 8969   7.745   0.705   0.269 -2.7445 -0.9070  2.8173
   57GLOH    C2 8970   7.738   0.534   0.115  0.4746  0.3535 -0.9017
   57GLOH   H04 8971   7.816   0.580   0.052 -0.3260  0.0448 -2.1431
   57GLOH    O2 8972   7.796   0.434   0.205 -0.4241  0.7311 -0.2018
   57GLOH   H05 8973   7.821   0.353   0.157 -2.1176  1.6410 -2.7624
   57GLOH    C3 8974   7.639   0.471   0.019 -0.1056 -0.5968  0.2987
   57GLOH   H06 8975   7.555   0.430   0.076 -0.2184  1.5044  1.6763
   57GLOH   H07 8976   7.680   0.392  -0.044 -1.2515  0.0351 -1.2745
   57GLOH    O3 8977   7.597   0.569  -0.078 -0.2148  0.0295 -0.0229
   57GLOH   H01 8978   7.606   0.659  -0.041  3.3129 -0.7401  1.1465
   58GLOH   H03 8979   7.524   8.129   0.714  0.0603  0.8183 -0.2309
   58GLOH    O1 8980   7.493   8.097   0.627 -0.6644 -0.2071  0.3963
   58GLOH    C1 8981   7.608   8.066   0.549 -0.1808  0.2729  1.3557
   58GLOH   H02 8982   7.665   7.979   0.583  2.0833  0.8429 -0.7838
   58GLOH   H08 8983   7.680   8.148   0.554  0.7663 -0.4345 -0.1081
   58GLOH    C2 8984   7.580   8.047   0.399  0.4733 -0.5813  0.3654
   58GLOH   H04 8985   7.547   8.146   0.364  1.7307 -0.6436 -1.0363
   58GLOH    O2 8986   7.698   8.008   0.324 -0.1298  0.1808  0.1044
   58GLOH   H05 8987   7.722   7.918   0.352  1.7536  0.7706  0.5233
   58GLOH    C3 8988   7.461   7.953   0.370  0.4647  0.0308 -0.5343
   58GLOH   H06 8989   7.371   8.015   0.381  1.6589  1.6159  0.5162
   58GLOH   H07 8990   7.456   7.871   0.441  2.5041  0.6045  0.3010
   58GLOH    O3 8991   7.463   7.905   0.238  0.0312  0.4061 -0.3153
   58GLOH   H01 8992   7.492   7.977   0.179  1.7129 -1.5561 -1.9373
   59GLOH   H03 8993   5.646   0.011   2.434  0.0358 -0.9153 -0.7887
   59GLOH    O1 8994   5.739  -0.014   2.449  0.1010  0.0446  0.4001
   59GLOH    C1 8995   5.762  -0.027   2.594  0.3308  0.4680  0.0212
   59GLOH   H02 8996   5.701  -0.106   2.637  3.2997 -2.2082 -0.5034
   59GLOH   H08 8997   5.740   0.066   2.646  2.5431  0.8761  0.2799
   59GLOH    C2 8998   5.909  -0.066   2.623 -0.2385 -0.3305 -0.9317
   59GLOH   H04 8999   5.960   0.023   2.584 -0.7012  0.8249  1.0184
   59GLOH    O2 9000   5.932  -0.079   2.765 -0.8780  0.0754 -0.1925
   59GLOH   H05 9001   5.856  -0.122   2.807  0.5191 -0.4928  1.8047
   59GLOH    C3 9002   5.944  -0.186   2.538 -0.3965 -0.2561 -0.6703
   59GLOH   H06 9003   5.874  -0.265   2.567 -0.8920  0.5296  0.2735
   59GLOH   H07 9004   6.045  -0.223   2.556  0.3385  1.6763 -0.7674
   59GLOH    O3 9005   5.934  -0.158   2.405 -0.1769  0.4083  0.2807
   59GLOH   H01 9006   5.870  -0.084   2.402 -0.2235  0.3062 -2.0621
   60GLOH   H03 9007   7.244   8.442   1.299  1.8731 -0.2005  3.2329
   60GLOH    O1 9008   7.185   8.511   1.333 -0.3264 -0.1075 -0.5757
   60GLOH    C1 9009   7.261   8.588   1.425  0.6131 -0.2030 -0.2925
   60GLOH   H02 9010   7.366   8.592   1.398  0.9286 -0.9200  0.7901
   60GLOH   H08 9011   7.257   8.546   1.526  1.5022 -1.3332 -0.7202
   60GLOH    C2 9012   7.213   8.732   1.445  0.4049  0.6007 -0.4569
   60GLOH   H04 9013   7.105   8.733   1.466  0.2758  0.5126 -1.1123
   60GLOH    O2 9014   7.285   8.788   1.564  0.3987 -1.1209 -0.1341
   60GLOH   H05 9015   7.269   8.737   1.645 -0.8284  0.2161  0.4882
   60GLOH    C3 9016   7.229   8.814   1.318 -0.0361  0.1019 -0.4522
   60GLOH   H06 9017   7.335   8.813   1.295  0.6683 -3.4144  2.5148
   60GLOH   H07 9018   7.203   8.918   1.336 -1.9541 -0.3357 -0.5129
   60GLOH    O3 9019   7.162   8.753   1.208 -1.1465 -0.1013  0.0402
   60GLOH   H01 9020   7.145   8.660   1.231  0.3177 -0.5488 -0.5669
   61GLOH   H03 9021   4.430   3.139   0.469 -1.0213  1.5066  3.4571
   61GLOH    O1 9022   4.493   3.213   0.472  0.8000  0.1079  1.1281
   61GLOH    C1 9023   4.593   3.214   0.365  0.2046 -0.6689 -0.1755
   61GLOH   H02 9024   4.567   3.149   0.281 -1.0922  1.9327 -1.8613
   61GLOH   H08 9025   4.688   3.180   0.406 -0.2882 -0.1689  1.4117
   61GLOH    C2 9026   4.615   3.356   0.310  0.3899  0.0483 -0.2033
   61GLOH   H04 9027   4.640   3.421   0.395  1.8570 -0.8172  0.0301
   61GLOH    O2 9028   4.732   3.354   0.226  0.3066  0.1388 -0.1530
   61GLOH   H05 9029   4.806   3.357   0.289  0.8029 -0.7059 -0.6890
   61GLOH    C3 9030   4.491   3.416   0.232 -0.9635 -0.5887 -0.2963
   61GLOH   H06 9031   4.521   3.508   0.183  3.0774 -2.0280 -0.7020
   61GLOH   H07 9032   4.411   3.446   0.300 -2.4073 -1.8766 -1.3767
   61GLOH    O3 9033   4.437   3.333   0.131  1.0240 -0.2338 -0.3610
   61GLOH   H01 9034   4.350   3.304   0.163  1.7311 -2.0199 -0.0064
   62GLOH   H03 9035   3.892   1.774   0.208  1.8597  2.8874 -1.1505
   62GLOH    O1 9036   3.930   1.718   0.138  0.2880  0.1168  0.1089
   62GLOH    C1 9037   3.892   1.580   0.136  0.0381  0.1407  0.2055
   62GLOH   H02 9038   3.786   1.566   0.155 -0.0420 -1.4102 -1.2194
   62GLOH   H08 9039   3.947   1.523   0.211  1.2804  1.2673  0.1708
   62GLOH    C2 9040   3.918   1.502   0.004  0.4622 -0.3581  0.9206
   62GLOH   H04 9041   4.025   1.503  -0.022  0.5726 -0.1715  1.3744
   62GLOH    O2 9042   3.876   1.365   0.014 -0.4811  0.8166 -0.5697
   62GLOH   H05 9043   3.783   1.348   0.034  0.0211  0.8207  1.9468
   62GLOH    C3 9044   3.839   1.572  -0.113 -0.3456 -0.4085  0.3369
   62GLOH   H06 9045   3.732   1.569  -0.092 -0.6170  2.7061 -0.3632
   62GLOH   H07 9046   3.856   1.516  -0.205 -3.4281  1.4564 -1.4546
   62GLOH    O3 9047   3.883   1.703  -0.124  0.0177  0.5147 -0.1838
   62GLOH   H01 9048   3.909   1.722  -0.032  1.3206  0.2798 -0.5013
   63GLOH   H03 9049   7.542   6.274   0.004  0.0930 -2.1993 -0.0625
   63GLOH    O1 9050   7.463   6.233   0.044 -0.5326 -0.4240  0.5672
   63GLOH    C1 9051   7.439   6.296   0.171 -0.3272  0.3972  0.0151
   63GLOH   H02 9052   7.524   6.292   0.239 -2.7916  1.0239  3.3186
   63GLOH   H08 9053   7.362   6.240   0.226 -2.2918 -0.8427 -3.8335
   63GLOH    C2 9054   7.407   6.438   0.145 -0.3944 -0.1618  0.0847
   63GLOH   H04 9055   7.391   6.478   0.247  0.3319  1.3976 -0.3961
   63GLOH    O2 9056   7.516   6.519   0.098 -0.8249  0.0399  0.0342
   63GLOH   H05 9057   7.487   6.611   0.087 -0.9948 -0.0352 -0.1596
   63GLOH    C3 9058   7.278   6.458   0.058  0.7097 -0.2906  0.2262
   63GLOH   H06 9059   7.195   6.415   0.114  0.4563  0.7072  0.6228
   63GLOH   H07 9060   7.289   6.413  -0.041 -1.7132 -0.7246  0.1370
   63GLOH    O3 9061   7.250   6.598   0.032  0.5428 -0.1772  0.4222
   63GLOH   H01 9062   7.164   6.610   0.076  1.3176 -0.5953  2.0986
   64GLOH   H03 9063   9.434   9.810   2.784 -0.0830  1.3958  1.4360
   64GLOH    O1 9064   9.451   9.730   2.836  0.7844  0.3328 -0.4073
   64GLOH    C1 9065   9.444   9.778   2.977  0.6927 -0.3017  0.4293
   64GLOH   H02 9066   9.371   9.858   2.990 -0.2752 -0.9537 -0.8258
   64GLOH   H08 9067   9.538   9.819   3.013  0.1451  2.0036 -0.7062
   64GLOH    C2 9068   9.407   9.663   3.075 -0.2636 -0.2035 -1.3670
   64GLOH   H04 9069   9.490   9.593   3.062  0.5840  0.7529 -1.1768
   64GLOH    O2 9070   9.406   9.710   3.211 -0.0925  0.2434 -0.1298
   64GLOH   H05 9071   9.391   9.628   3.261  0.7401  0.0575 -0.1750
   64GLOH    C3 9072   9.278   9.590   3.038 -0.7086 -0.9624 -0.4978
   64GLOH   H06 9073   9.274   9.510   3.111 -0.4298  1.7511  2.5815
   64GLOH   H07 9074   9.275   9.552   2.935  1.3256 -1.7857 -0.2755
   64GLOH    O3 9075   9.170   9.685   3.049  0.3842 -0.6588 -0.1695
   64GLOH   H01 9076   9.150   9.709   3.141 -0.0963 -0.9687 -0.1951
   65GLOH   H03 9077   4.016   7.098   0.707 -0.1743 -1.1926 -0.5371
   65GLOH    O1 9078   3.923   7.073   0.717 -0.4586  0.2404  0.5248
   65GLOH    C1 9079   3.845   7.114   0.603  0.3889  0.0032 -0.8444
   65GLOH   H02 9080   3.917   7.174   0.547  1.0674  1.5438  1.5882
   65GLOH   H08 9081   3.769   7.183   0.639 -1.0458 -1.7410 -0.4717
   65GLOH    C2 9082   3.781   7.002   0.522  0.3720  0.1724  0.2485
   65GLOH   H04 9083   3.688   7.044   0.481  0.1578 -0.5237  0.0109
   65GLOH    O2 9084   3.855   6.962   0.410  0.1189  0.3222 -0.3430
   65GLOH   H05 9085   3.821   6.893   0.350  0.5698 -0.3254  0.1519
   65GLOH    C3 9086   3.749   6.882   0.618  0.3899  0.2794 -0.0297
   65GLOH   H06 9087   3.715   6.918   0.715 -0.0838 -2.2586  0.7925
   65GLOH   H07 9088   3.837   6.819   0.629 -0.5589 -0.7696  1.7667
   65GLOH    O3 9089   3.649   6.794   0.565 -0.8027  0.3205 -0.2418
   65GLOH   H01 9090   3.566   6.812   0.613  0.0452 -1.2998  1.9343
   66GLOH   H03 9091   5.721   8.221   2.652  0.1653 -0.1910  0.9788
   66GLOH    O1 9092   5.817   8.204   2.649  0.0423 -0.7822  0.3845
   66GLOH    C1 9093   5.875   8.316   2.571  0.0206 -0.4600 -0.4970
   66GLOH   H02 9094   5.828   8.409   2.603 -0.2078  0.8152 -4.3181
   66GLOH   H08 9095   5.852   8.297   2.466 -1.9091 -0.1087 -0.1634
   66GLOH    C2 9096   6.029   8.318   2.576 -0.0815 -0.1639 -0.2378
   66GLOH   H04 9097   6.077   8.221   2.555 -1.9094 -0.6564 -2.3501
   66GLOH    O2 9098   6.075   8.414   2.479 -0.2123 -0.4727 -0.1079
   66GLOH   H05 9099   6.148   8.465   2.518 -0.6506  0.9445 -1.0545
   66GLOH    C3 9100   6.061   8.369   2.717  0.3092  0.0227  0.3285
   66GLOH   H06 9101   6.026   8.468   2.747  1.0772  0.4392 -0.1397
   66GLOH   H07 9102   6.169   8.379   2.725  0.4947  2.3953 -3.7666
   66GLOH    O3 9103   6.027   8.269   2.813  0.1762 -0.0012  0.3648
   66GLOH   H01 9104   5.933   8.284   2.835 -0.4920 -1.9743 -1.0381
   67GLOH   H03 9105   3.753   7.189   0.069  1.9247  0.7166  0.0487
   67GLOH    O1 9106   3.713   7.202  -0.019  0.2957 -0.2149  0.6224
   67GLOH    C1 9107   3.605   7.109  -0.040  0.0816 -0.2139  0.2743
   67GLOH   H02 9108   3.560   7.093   0.058  1.0318  1.0714  0.9380
   67GLOH   H08 9109   3.640   7.010  -0.069  0.5810 -0.1845  0.7686
   67GLOH    C2 9110   3.491   7.158  -0.129  0.1459  0.2858  0.2760
   67GLOH   H04 9111   3.403   7.099  -0.099  1.4241 -2.2072 -0.7497
   67GLOH    O2 9112   3.461   7.294  -0.105 -0.3850  0.2461  0.3859
   67GLOH   H05 9113   3.370   7.291  -0.139  0.3378  0.2568 -1.6240
   67GLOH    C3 9114   3.529   7.123  -0.274 -0.1961 -0.7473 -0.2107
   67GLOH   H06 9115   3.617   7.186  -0.287 -0.7831  0.4061  1.2863
   67GLOH   H07 9116   3.445   7.157  -0.334 -0.2944  0.5233  0.6263
   67GLOH    O3 9117   3.558   6.987  -0.310 -0.1001 -1.0811 -0.0485
   67GLOH   H01 9118   3.618   6.984  -0.387 -0.1632 -0.1652 -0.1384
   68GLOH   H03 9119   8.487   0.433   0.058 -1.4233  1.2645  2.0476
   68GLOH    O1 9120   8.407   0.379   0.040  0.1153 -0.3027 -0.3468
   68GLOH    C1 9121   8.397   0.310   0.164 -0.2255 -0.4031  0.0763
   68GLOH   H02 9122   8.492   0.287   0.211  0.7456 -0.8207 -2.0560
   68GLOH   H08 9123   8.346   0.215   0.149 -1.0620  0.2942 -1.6425
   68GLOH    C2 9124   8.313   0.401   0.258  0.3042 -0.6525  0.0324
   68GLOH   H04 9125   8.320   0.347   0.353 -1.3954  0.8617  1.0349
   68GLOH    O2 9126   8.378   0.530   0.267 -0.5474 -0.0154  0.0030
   68GLOH   H05 9127   8.473   0.521   0.286 -0.4156  1.2860 -0.0321
   68GLOH    C3 9128   8.167   0.412   0.205 -0.6551  0.5872  0.3412
   68GLOH   H06 9129   8.140   0.321   0.151  1.0276  0.4906 -0.3540
   68GLOH   H07 9130   8.159   0.489   0.127 -0.3524  1.4970  1.2007
   68GLOH    O3 9131   8.078   0.445   0.310  0.6731 -0.5357  0.0713
   68GLOH   H01 9132   7.992   0.457   0.265  0.8025  1.6433  0.3790
   69GLOH   H03 9133   3.051   9.016   0.469  0.8258  1.7676 -2.2596
   69GLOH    O1 9134   2.962   9.031   0.432 -0.4829 -0.1191 -0.0617
   69GLOH    C1 9135   2.896   9.121   0.524  0.1732  0.5806 -0.2447
   69GLOH   H02 9136   2.939   9.221   0.529  1.2235  0.0883  1.1126
   69GLOH   H08 9137   2.895   9.081   0.625 -0.3269  1.4808  0.1134
   69GLOH    C2 9138   2.747   9.127   0.477 -0.0565 -0.2843 -0.6049
   69GLOH   H04 9139   2.694   9.056   0.541 -0.6861  2.0717  1.5913
   69GLOH    O2 9140   2.706   9.259   0.518 -0.1496  0.0396 -0.1698
   69GLOH   H05 9141   2.728   9.324   0.449  0.6056 -0.0304 -0.0034
   69GLOH    C3 9142   2.718   9.099   0.329 -0.5763  0.7870 -0.2212
   69GLOH   H06 9143   2.733   8.996   0.297  2.1914  1.7396 -2.1907
   69GLOH   H07 9144   2.791   9.153   0.268  1.2508 -1.5711 -0.1783
   69GLOH    O3 9145   2.583   9.135   0.291  0.2393 -0.0307 -0.1966
   69GLOH   H01 9146   2.516   9.087   0.344  2.2485 -2.5689  0.1727
   70GLOH   H03 9147   4.083   3.195   2.393  2.1934  0.8249 -0.4537
   70GLOH    O1 9148   4.065   3.220   2.300 -0.3109  0.3980 -0.1256
   70GLOH    C1 9149   4.012   3.353   2.295  0.9339  0.5419  0.1384
   70GLOH   H02 9150   3.918   3.364   2.349  0.4418  1.0716 -0.8158
   70GLOH   H08 9151   4.000   3.385   2.192  0.6987  0.5188  0.1585
   70GLOH    C2 9152   4.100   3.472   2.342  0.5130 -1.0918  0.0715
   70GLOH   H04 9153   4.195   3.472   2.287  0.1901 -1.4094 -0.4880
   70GLOH    O2 9154   4.034   3.601   2.309  0.8179 -0.1563  0.0257
   70GLOH   H05 9155   4.044   3.642   2.222  1.2314 -0.6538 -0.1611
   70GLOH    C3 9156   4.128   3.455   2.496  0.0391  0.1556  0.0865
   70GLOH   H06 9157   4.038   3.463   2.557 -0.3493  1.5320 -0.6523
   70GLOH   H07 9158   4.194   3.537   2.524 -0.2088 -0.2564  1.9253
   70GLOH    O3 9159   4.172   3.322   2.531  0.1803  0.0655 -0.0716
   70GLOH   H01 9160   4.216   3.322   2.618  0.4365  1.8491 -0.1818
   71GLOH   H03 9161   8.866   2.446   0.920 -0.4368  1.0960  0.3232
   71GLOH    O1 9162   8.895   2.422   0.830  0.2287  0.8153  0.6071
   71GLOH    C1 9163   8.780   2.355   0.765 -0.6527 -0.0280 -0.0611
   71GLOH   H02 9164   8.686   2.403   0.793 -0.0393  0.9133  0.4322
   71GLOH   H08 9165   8.768   2.256   0.810 -1.9469 -0.2456 -0.8770
   71GLOH    C2 9166   8.797   2.331   0.611 -0.0021 -0.9298 -0.0732
   71GLOH   H04 9167   8.893   2.280   0.595 -0.1436 -1.1068 -0.3541
   71GLOH    O2 9168   8.697   2.252   0.560  0.4307  0.2646 -0.3915
   71GLOH   H05 9169   8.692   2.162   0.597  2.2469  0.1037 -0.5100
   71GLOH    C3 9170   8.802   2.465   0.532 -0.0606 -0.2934 -1.1028
   71GLOH   H06 9171   8.717   2.531   0.548  0.7031  0.3608  0.3689
   71GLOH   H07 9172   8.810   2.454   0.424  0.9390  0.1337 -1.0852
   71GLOH    O3 9173   8.918   2.534   0.584  0.8798 -0.4209  0.9458
   71GLOH   H01 9174   8.916   2.533   0.681  0.6277 -0.8117  0.9370
   72GLOH   H03 9175   2.843   5.190   0.043 -0.2231 -0.6253  0.2967
   72GLOH    O1 9176   2.747   5.173   0.042 -0.2779 -0.3019 -0.0146
   72GLOH    C1 9177   2.686   5.223  -0.073  0.5239  0.2735 -0.7819
   72GLOH   H02 9178   2.678   5.329  -0.050 -0.0069  0.1432 -0.3690
   72GLOH   H08 9179   2.585   5.185  -0.091  1.1867 -0.6537 -2.6307
   72GLOH    C2 9180   2.769   5.202  -0.200 -0.0266 -0.1484 -1.4174
   72GLOH   H04 9181   2.699   5.208  -0.285 -0.9707  0.0828 -0.6297
   72GLOH    O2 9182   2.876   5.297  -0.218 -0.1433 -0.5635 -0.2074
   72GLOH   H05 9183   2.943   5.280  -0.150  1.3731 -0.2943 -1.5931
   72GLOH    C3 9184   2.831   5.059  -0.207 -0.3576  0.8001 -0.2446
   72GLOH   H06 9185   2.757   4.986  -0.175 -0.6412  2.0141  2.0086
   72GLOH   H07 9186   2.910   5.058  -0.132 -0.6857  4.7177  0.2610
   72GLOH    O3 9187   2.872   5.022  -0.342  0.2864 -0.3523 -0.6138
   72GLOH   H01 9188   2.932   5.090  -0.377  0.1424  1.0623  1.8004
   73GLOH   H03 9189   1.337   0.470   2.268 -3.9793 -0.4762  0.1555
   73GLOH    O1 9190   1.354   0.417   2.188  0.5133 -0.1357  0.8038
   73GLOH    C1 9191   1.311   0.279   2.184 -0.5696 -0.7982  0.5050
   73GLOH   H02 9192   1.372   0.219   2.252  0.8296 -0.2087 -0.2196
   73GLOH   H08 9193   1.312   0.239   2.083 -1.3624 -0.8653  0.5226
   73GLOH    C2 9194   1.167   0.263   2.241  0.2378 -0.4457  0.2894
   73GLOH   H04 9195   1.171   0.307   2.342  0.9738 -0.3415  0.2184
   73GLOH    O2 9196   1.055   0.313   2.154 -0.1006 -0.4711 -0.0508
   73GLOH   H05 9197   1.038   0.242   2.091 -2.4324 -0.1897  0.2176
   73GLOH    C3 9198   1.130   0.112   2.253 -0.3739  0.4644 -0.5842
   73GLOH   H06 9199   1.030   0.096   2.292 -0.3109  0.3124 -0.4853
   73GLOH   H07 9200   1.186   0.064   2.333  0.1306  3.0376  0.6737
   73GLOH    O3 9201   1.147   0.037   2.128 -0.4170  0.5546  0.1457
   73GLOH   H01 9202   1.146  -0.055   2.158  0.9486  0.2552 -0.6764
   74GLOH   H03 9203   8.566   3.534   1.200  1.5319  1.5859 -0.9298
   74GLOH    O1 9204   8.536   3.589   1.274 -0.1034 -0.7194  0.1558
   74GLOH    C1 9205   8.437   3.687   1.231 -0.0147 -0.0349  0.6248
   74GLOH   H02 9206   8.481   3.744   1.149 -0.0131  0.2957  0.8559
   74GLOH   H08 9207   8.426   3.752   1.318 -1.0573 -1.7990  1.8413
   74GLOH    C2 9208   8.296   3.636   1.189 -0.4022  0.4620 -0.3059
   74GLOH   H04 9209   8.311   3.542   1.133  0.8006  1.2648 -1.3719
   74GLOH    O2 9210   8.220   3.605   1.308 -0.3254 -0.3607  0.2691
   74GLOH   H05 9211   8.152   3.539   1.284 -1.0680  1.0840 -1.7580
   74GLOH    C3 9212   8.214   3.730   1.093  0.3326  0.8335  0.0943
   74GLOH   H06 9213   8.111   3.694   1.099  0.6487 -0.7069 -2.6250
   74GLOH   H07 9214   8.251   3.727   0.990 -0.0471  0.6337 -0.0377
   74GLOH    O3 9215   8.214   3.864   1.139 -0.2802  0.9227  0.3989
   74GLOH   H01 9216   8.299   3.903   1.109 -0.7203  0.0799 -2.1346
   75GLOH   H03 9217   4.521   8.038   0.554  0.3431 -0.7403 -0.2431
   75GLOH    O1 9218   4.482   8.051   0.465 -0.1256 -0.4304  0.0045
   75GLOH    C1 9219   4.337   8.060   0.466 -0.3540  0.1967 -0.2835
   75GLOH   H02 9220   4.296   8.052   0.366 -1.2688  0.1103  0.0919
   75GLOH   H08 9221   4.323   8.163   0.498  2.0839  0.8350 -1.1365
   75GLOH    C2 9222   4.267   7.968   0.572  0.0080 -1.1560 -0.2265
   75GLOH   H04 9223   4.285   7.997   0.677 -2.6476 -1.4897  0.3379
   75GLOH    O2 9224   4.129   7.978   0.542  0.3209 -0.1676  0.3639
   75GLOH   H05 9225   4.093   8.051   0.595  3.4766 -0.4007  2.9312
   75GLOH    C3 9226   4.321   7.826   0.563  0.1765  0.3717 -0.8515
   75GLOH   H06 9227   4.427   7.811   0.584 -0.1086 -2.7874 -1.3651
   75GLOH   H07 9228   4.306   7.802   0.458 -1.7625  3.0536 -1.2193
   75GLOH    O3 9229   4.242   7.742   0.654  0.7406  0.1760  0.7471
   75GLOH   H01 9230   4.215   7.668   0.597 -0.0590 -0.5785  2.0944
   76GLOH   H03 9231   0.351   9.345   1.506 -1.3421  0.0461 -0.2848
   76GLOH    O1 9232   0.345   9.249   1.496  0.2037 -0.1343  0.3094
   76GLOH    C1 9233   0.260   9.228   1.380 -0.7342 -0.5704  0.8922
   76GLOH   H02 9234   0.310   9.269   1.293  0.7503 -1.5987  1.2483
   76GLOH   H08 9235   0.162   9.274   1.395 -0.4358  0.0866  0.8068
   76GLOH    C2 9236   0.243   9.079   1.359 -0.0862  0.0866  0.3198
   76GLOH   H04 9237   0.213   9.022   1.449  3.8111 -2.5605  0.0295
   76GLOH    O2 9238   0.127   9.064   1.269  0.3610  0.2744 -0.1247
   76GLOH   H05 9239   0.112   8.968   1.261  0.6496  0.1404  0.8742
   76GLOH    C3 9240   0.379   9.024   1.302  0.2387  0.0433 -0.4122
   76GLOH   H06 9241   0.384   9.047   1.196 -0.2404 -2.2204 -0.9625
   76GLOH   H07 9242   0.364   8.916   1.308 -0.1602  0.1197  0.0119
   76GLOH    O3 9243   0.493   9.078   1.361  0.7791  0.1757  0.4345
   76GLOH   H01 9244   0.484   9.167   1.398  1.5395  1.2758 -1.9652
   77GLOH   H03 9245   8.130   7.020   0.444  0.7706  0.3300 -1.0047
   77GLOH    O1 9246   8.051   6.993   0.394  0.1568  0.3755 -0.0809
   77GLOH    C1 9247   8.040   7.051   0.259  0.1093 -0.4117  1.1054
   77GLOH   H02 9248   8.062   7.157   0.261  2.5925 -0.7759 -2.8590
   77GLOH   H08 9249   7.937   7.034   0.228  0.0554 -0.7156  1.4370
   77GLOH    C2 9250   8.144   7.006   0.163 -0.6319  0.0934  0.2826
   77GLOH   H04 9251   8.243   7.031   0.203  0.1073 -1.9213 -0.2236
   77GLOH    O2 9252   8.134   6.861   0.148  0.0415 -0.1901  0.3497
   77GLOH   H05 9253   8.070   6.833   0.080 -0.7482 -0.0053  1.0011
   77GLOH    C3 9254   8.112   7.067   0.031  0.2959  0.8561  0.5068
   77GLOH   H06 9255   8.008   7.049   0.002  0.3864  3.2804 -1.5392
   77GLOH   H07 9256   8.180   7.026  -0.044  0.1259 -1.6358  1.6534
   77GLOH    O3 9257   8.124   7.209   0.039 -0.6566 -0.1036  0.6465
   77GLOH   H01 9258   8.216   7.224   0.009 -1.0944 -0.0056 -0.6680
   78GLOH   H03 9259   3.449   8.239   0.536 -0.8273 -0.5015 -0.4136
   78GLOH    O1 9260   3.465   8.320   0.486 -0.6367 -0.6894 -0.6574
   78GLOH    C1 9261   3.346   8.390   0.525 -0.0530 -0.1746  0.1142
   78GLOH   H02 9262   3.257   8.327   0.524 -0.8279  0.8473  1.7981
   78GLOH   H08 9263   3.329   8.480   0.466 -0.2817 -2.1895 -3.0264
   78GLOH    C2 9264   3.368   8.446   0.675 -0.6708 -0.0144 -0.3707
   78GLOH   H04 9265   3.269   8.469   0.718 -0.8409 -1.3711 -0.0105
   78GLOH    O2 9266   3.421   8.353   0.770 -0.4591  0.4887  0.2002
   78GLOH   H05 9267   3.361   8.281   0.797  0.0567 -0.0646 -0.1038
   78GLOH    C3 9268   3.458   8.566   0.658 -0.2023 -0.3854 -0.2561
   78GLOH   H06 9269   3.536   8.556   0.582 -1.6498  3.1641 -2.3341
   78GLOH   H07 9270   3.506   8.590   0.753  2.0941 -0.2722 -1.4184
   78GLOH    O3 9271   3.371   8.675   0.621 -0.6335  0.3463  0.4882
   78GLOH   H01 9272   3.412   8.763   0.635  2.7686 -1.3423  1.7860
   79GLOH   H03 9273   4.245   0.010   2.981  0.1730  1.7825 -2.0175
   79GLOH    O1 9274   4.212   0.084   3.035 -0.3286 -0.1176  0.3487
   79GLOH    C1 9275   4.090   0.129   2.963  0.1696  0.0545 -0.1793
   79GLOH   H02 9276   4.033   0.204   3.017  0.4270  0.9184 -1.0764
   79GLOH   H08 9277   4.026   0.046   2.934 -0.9271  0.3727  1.2646
   79GLOH    C2 9278   4.138   0.198   2.834  0.0552 -1.0628 -0.0008
   79GLOH   H04 9279   4.221   0.138   2.793  1.4140  0.6820  0.1252
   79GLOH    O2 9280   4.022   0.212   2.751  0.3418  0.0760  0.4624
   79GLOH   H05 9281   4.029   0.139   2.688  0.2346  0.4966 -0.0438
   79GLOH    C3 9282   4.214   0.329   2.872 -0.4323 -0.3302 -0.2181
   79GLOH   H06 9283   4.269   0.365   2.785 -0.7743 -1.3384 -0.8558
   79GLOH   H07 9284   4.297   0.311   2.940 -1.1797 -0.5652  0.6278
   79GLOH    O3 9285   4.127   0.436   2.922 -0.1585 -0.0862 -0.4625
   79GLOH   H01 9286   4.063   0.455   2.851  1.1180 -0.2560 -1.7039
   80GLOH   H03 9287   4.973   9.615   2.445  0.1460 -1.2544  0.7100
   80GLOH    O1 9288   4.995   9.543   2.382 -0.6305 -0.9067  0.0200
   80GLOH    C1 9289   4.873   9.481   2.339  0.6796  0.1778  0.2533
   80GLOH   H02 9290   4.792   9.549   2.366  0.2904 -0.7092  1.3723
   80GLOH   H08 9291   4.851   9.389   2.392 -1.5582  0.7791  0.4222
   80GLOH    C2 9292   4.879   9.437   2.189  0.0783  1.2511  0.2508
   80GLOH   H04 9293   4.898   9.530   2.135  1.7821  0.7131 -0.0847
   80GLOH    O2 9294   4.979   9.333   2.169 -0.8339  0.3256 -0.1176
   80GLOH   H05 9295   4.951   9.252   2.214  2.2446 -1.0516 -0.5156
   80GLOH    C3 9296   4.743   9.392   2.135  0.0517  0.3559 -0.7262
   80GLOH   H06 9297   4.715   9.317   2.208  1.2874 -0.3454 -0.9514
   80GLOH   H07 9298   4.750   9.353   2.034  2.4759 -3.0934  0.6653
   80GLOH    O3 9299   4.656   9.502   2.157 -0.3273  0.0684 -0.0305
   80GLOH   H01 9300   4.664   9.563   2.082  0.7658  0.6178  0.5321
   81GLOH   H03 9301   3.434   1.773   3.891 -0.1039  0.4247 -0.1141
   81GLOH    O1 9302   3.523   1.777   3.851 -0.1304 -0.0897 -0.2328
   81GLOH    C1 9303   3.598   1.869   3.939 -0.3018 -0.1790  0.0437
   81GLOH   H02 9304   3.558   1.970   3.931 -0.1237 -0.0637  0.6202
   81GLOH   H08 9305   3.696   1.879   3.892 -0.3484 -2.3512 -0.5573
   81GLOH    C2 9306   3.607   1.819   4.085  0.5604  0.4420  0.0681
   81GLOH   H04 9307   3.668   1.727   4.090  1.0097  0.5223 -2.9920
   81GLOH    O2 9308   3.676   1.914   4.172 -0.1509 -0.3393 -0.3351
   81GLOH   H05 9309   3.708   1.869   4.252 -0.6702 -0.7809 -0.3674
   81GLOH    C3 9310   3.469   1.785   4.147  0.1798 -0.3212 -0.1213
   81GLOH   H06 9311   3.411   1.878   4.150  0.2083 -0.3550  1.7556
   81GLOH   H07 9312   3.482   1.761   4.252 -1.8319 -1.3080 -0.0762
   81GLOH    O3 9313   3.400   1.670   4.085 -0.4295  0.1801 -0.6840
   81GLOH   H01 9314   3.391   1.602   4.155 -2.2490 -1.0516 -2.0492
   82GLOH   H03 9315   8.704   3.311   1.607  0.6595  1.4064  0.2262
   82GLOH    O1 9316   8.632   3.333   1.668  0.1742 -0.5068  0.3584
   82GLOH    C1 9317   8.629   3.477   1.694 -0.2221  0.5307  0.1510
   82GLOH   H02 9318   8.593   3.521   1.602  1.4820 -0.9611 -1.2915
   82GLOH   H08 9319   8.731   3.514   1.709  0.1111 -0.4373  0.3549
   82GLOH    C2 9320   8.536   3.511   1.808  0.0894  0.0939  0.8166
   82GLOH   H04 9321   8.444   3.452   1.794  0.7674 -0.5053 -1.3261
   82GLOH    O2 9322   8.591   3.455   1.930 -0.2059  0.3315  0.2305
   82GLOH   H05 9323   8.688   3.450   1.925 -0.3011 -1.1620 -0.4911
   82GLOH    C3 9324   8.499   3.655   1.808  0.6894 -0.2196 -0.0820
   82GLOH   H06 9325   8.583   3.718   1.838  0.8117  0.4463 -1.7573
   82GLOH   H07 9326   8.429   3.670   1.891  1.7292  0.9792  0.6097
   82GLOH    O3 9327   8.442   3.703   1.679  0.0938  0.5023  0.1054
   82GLOH   H01 9328   8.379   3.642   1.635 -0.9916  0.4102  1.7618
   83GLOH   H03 9329   2.415   3.462   3.730  2.8337 -0.1923 -1.8015
   83GLOH    O1 9330   2.365   3.503   3.657  0.1866  0.0729  0.0873
   83GLOH    C1 9331   2.250   3.564   3.719 -0.0465 -0.4687 -0.3430
   83GLOH   H02 9332   2.200   3.640   3.659 -1.7070 -0.6954  0.7119
   83GLOH   H08 9333   2.274   3.607   3.817 -0.1375 -1.0356 -0.0731
   83GLOH    C2 9334   2.141   3.456   3.748 -0.1110  0.2874  0.4207
   83GLOH   H04 9335   2.125   3.409   3.650 -0.0003  2.1335 -0.5138
   83GLOH    O2 9336   2.195   3.356   3.830  0.2364  0.1910 -0.3747
   83GLOH   H05 9337   2.133   3.281   3.830  3.4704 -2.6114  1.8200
   83GLOH    C3 9338   2.001   3.503   3.802 -0.9798  0.1256 -1.2021
   83GLOH   H06 9339   2.005   3.539   3.904  1.1353 -1.8596 -0.5500
   83GLOH   H07 9340   1.946   3.409   3.794  0.2609 -0.9047  1.8628
   83GLOH    O3 9341   1.942   3.605   3.722 -0.5234  0.3059 -0.5218
   83GLOH   H01 9342   1.980   3.690   3.752  1.1313 -1.9021  4.2101
   84GLOH   H03 9343   7.705   2.088   2.171 -2.2616  0.2330 -0.9014
   84GLOH    O1 9344   7.727   2.183   2.181 -0.1344 -0.2907 -0.2919
   84GLOH    C1 9345   7.730   2.236   2.049  0.2195  0.5136 -0.7130
   84GLOH   H02 9346   7.672   2.329   2.049 -0.0295  0.3613 -2.2871
   84GLOH   H08 9347   7.692   2.161   1.980 -1.3093  0.1554  0.4745
   84GLOH    C2 9348   7.867   2.271   1.995  0.1824 -0.0818  0.1491
   84GLOH   H04 9349   7.926   2.179   1.987  0.1030 -0.1198 -0.0103
   84GLOH    O2 9350   7.849   2.332   1.858  0.6075  0.0938 -0.6309
   84GLOH   H05 9351   7.935   2.323   1.813  1.1478 -0.6338  0.5111
   84GLOH    C3 9352   7.934   2.365   2.100  0.1630 -0.2251 -0.1438
   84GLOH   H06 9353   8.038   2.362   2.067  0.1506  0.3745 -0.2446
   84GLOH   H07 9354   7.933   2.318   2.198 -2.3755  0.5155  0.2319
   84GLOH    O3 9355   7.885   2.499   2.106 -0.2166  0.4147 -0.2889
   84GLOH   H01 9356   7.880   2.542   2.019  0.2431  1.2748  0.0952
   85GLOH   H03 9357   0.989   9.750   3.647  0.9263 -1.8175  0.3132
   85GLOH    O1 9358   0.910   9.733   3.702  0.5812 -0.3464  0.2840
   85GLOH    C1 9359   0.918   9.596   3.737 -0.1463 -0.1311  0.2456
   85GLOH   H02 9360   0.940   9.551   3.640 -0.4811 -1.2355  0.6764
   85GLOH   H08 9361   0.819   9.568   3.774 -1.1005  1.5694 -0.9652
   85GLOH    C2 9362   1.026   9.560   3.836 -0.2008  0.2712 -0.0593
   85GLOH   H04 9363   1.014   9.606   3.935  1.1902  0.6044 -0.0280
   85GLOH    O2 9364   1.021   9.415   3.857  0.5129 -0.1464  0.1441
   85GLOH   H05 9365   1.047   9.394   3.948 -1.0625 -1.1007  0.3986
   85GLOH    C3 9366   1.163   9.593   3.778 -0.3777 -0.6592 -0.4898
   85GLOH   H06 9367   1.168   9.701   3.776  2.1615 -0.7653 -2.0259
   85GLOH   H07 9368   1.164   9.560   3.674 -1.1553  1.0756 -1.0624
   85GLOH    O3 9369   1.271   9.541   3.849 -0.0502  0.0202  0.1994
   85GLOH   H01 9370   1.286   9.588   3.933 -3.3157  0.2904  0.6858
   86GLOH   H03 9371   8.948   4.064   1.150  0.1837  0.6182 -2.4391
   86GLOH    O1 9372   8.855   4.063   1.121 -0.4262 -0.1774 -0.5122
   86GLOH    C1 9373   8.793   3.985   1.230  0.4233  0.3855 -0.1565
   86GLOH   H02 9374   8.814   3.879   1.213 -0.1346 -0.3861  3.5677
   86GLOH   H08 9375   8.684   3.991   1.227  0.3660 -0.9567 -2.9714
   86GLOH    C2 9376   8.857   4.017   1.363 -0.0640 -0.2604 -0.0692
   86GLOH   H04 9377   8.854   4.127   1.366 -1.0775 -0.2600 -0.8076
   86GLOH    O2 9378   8.772   3.967   1.473 -0.0495 -0.2523  0.3483
   86GLOH   H05 9379   8.684   4.006   1.485 -0.1638 -0.4847  0.2824
   86GLOH    C3 9380   8.996   3.958   1.368  0.4670 -0.0025  0.5054
   86GLOH   H06 9381   8.992   3.849   1.363 -1.2925 -0.0640  2.3393
   86GLOH   H07 9382   9.044   3.980   1.464  0.7605 -1.5357  0.7328
   86GLOH    O3 9383   9.081   4.009   1.264  0.0728  0.4217  0.0975
   86GLOH   H01 9384   9.163   3.958   1.258  0.5791  1.3619 -1.3567
   87GLOH   H03 9385   6.689   9.781   2.335 -0.6878 -0.4316  0.7576
   87GLOH    O1 9386   6.656   9.708   2.280 -0.1815 -0.2994  0.2779
   87GLOH    C1 9387   6.525   9.746   2.234  0.6727  0.9368 -0.1643
   87GLOH   H02 9388   6.487   9.822   2.302  0.3630  1.2228 -0.6510
   87GLOH   H08 9389   6.453   9.664   2.233 -0.4832  1.9482 -0.8202
   87GLOH    C2 9390   6.512   9.811   2.098  0.2655  0.0670  0.1809
   87GLOH   H04 9391   6.405   9.828   2.081  0.7341  2.8309 -0.2553
   87GLOH    O2 9392   6.577   9.939   2.094  0.1087  0.0922  0.6142
   87GLOH   H05 9393   6.587   9.971   2.003 -2.6339  0.3128  0.3686
   87GLOH    C3 9394   6.542   9.711   1.989  0.3370 -0.3169 -0.9585
   87GLOH   H06 9395   6.649   9.695   2.005 -0.0318 -0.6415  1.3123
   87GLOH   H07 9396   6.531   9.768   1.897  2.6070  0.9565 -0.4966
   87GLOH    O3 9397   6.465   9.585   2.007 -0.7638  0.8377  0.1766
   87GLOH   H01 9398   6.502   9.520   1.945 -0.0179 -0.1464  1.6234
   88GLOH   H03 9399   3.787   3.186   3.827  1.3439  2.3140  0.1039
   88GLOH    O1 9400   3.747   3.193   3.739  0.2529  0.6094  0.4497
   88GLOH    C1 9401   3.623   3.269   3.748 -0.1099  0.3104 -1.0369
   88GLOH   H02 9402   3.641   3.360   3.805  1.3725 -0.9042  0.5209
   88GLOH   H08 9403   3.551   3.219   3.813  1.9505 -1.1432  0.2057
   88GLOH    C2 9404   3.545   3.300   3.614 -0.5155 -0.6644  0.3075
   88GLOH   H04 9405   3.497   3.203   3.597 -0.1730 -0.7455 -0.2028
   88GLOH    O2 9406   3.450   3.402   3.640  0.1062  0.2538 -0.3801
   88GLOH   H05 9407   3.369   3.386   3.589  0.7791  3.6918 -2.6538
   88GLOH    C3 9408   3.639   3.340   3.494  0.2276  0.9493  0.1450
   88GLOH   H06 9409   3.673   3.437   3.532  1.6892  1.2871 -1.9477
   88GLOH   H07 9410   3.589   3.359   3.399 -1.2567  1.6655  1.0437
   88GLOH    O3 9411   3.746   3.244   3.471 -0.3655  0.1413 -0.0972
   88GLOH   H01 9412   3.784   3.247   3.561  0.8391  4.3061 -0.6242
   89GLOH   H03 9413   3.992   8.714   0.378 -0.2115  1.2725 -0.1065
   89GLOH    O1 9414   3.969   8.746   0.289  0.0947  0.4501 -0.4789
   89GLOH    C1 9415   4.002   8.883   0.281 -0.4436 -0.3019 -0.0030
   89GLOH   H02 9416   3.915   8.948   0.289 -0.2536 -0.3215  2.7004
   89GLOH   H08 9417   4.052   8.899   0.185  1.9831  0.2832  1.3283
   89GLOH    C2 9418   4.102   8.934   0.384 -0.1402 -0.3490 -0.2970
   89GLOH   H04 9419   4.196   8.879   0.369  0.8168  0.6300  1.9134
   89GLOH    O2 9420   4.123   9.077   0.376 -0.2159 -0.8276 -0.6281
   89GLOH   H05 9421   4.217   9.097   0.387 -0.7358  2.4802 -1.6153
   89GLOH    C3 9422   4.048   8.890   0.525 -0.3105 -0.1321  0.0300
   89GLOH   H06 9423   3.948   8.933   0.528 -0.3881 -0.2251 -0.9693
   89GLOH   H07 9424   4.102   8.931   0.610 -0.7288 -1.8234  1.1278
   89GLOH    O3 9425   4.029   8.750   0.535  0.2235  0.2788  0.2014
   89GLOH   H01 9426   4.068   8.727   0.622  1.0779  0.8595 -0.0300
   90GLOH   H03 9427   4.605   3.238   2.562 -1.3443  0.0947  2.6758
   90GLOH    O1 9428   4.520   3.220   2.519  0.0765 -0.4080 -0.0190
   90GLOH    C1 9429   4.514   3.092   2.458  0.3883 -0.6679  0.0155
   90GLOH   H02 9430   4.555   3.099   2.357  1.1253 -1.6887  0.2361
   90GLOH   H08 9431   4.408   3.067   2.447  0.5247 -0.6676 -1.5224
   90GLOH    C2 9432   4.575   2.976   2.543 -0.3162  0.0168  0.9014
   90GLOH   H04 9433   4.489   2.943   2.603 -0.2019 -0.0718  1.0161
   90GLOH    O2 9434   4.600   2.870   2.450 -0.3802  0.0337  0.5212
   90GLOH   H05 9435   4.664   2.884   2.378  2.1136 -1.1247  2.4439
   90GLOH    C3 9436   4.695   3.017   2.630 -0.7423  0.0122  0.4920
   90GLOH   H06 9437   4.771   3.041   2.556 -1.3750  1.8608  0.4145
   90GLOH   H07 9438   4.732   2.933   2.688  0.0625 -0.7661 -1.0986
   90GLOH    O3 9439   4.676   3.134   2.712 -0.0151 -0.1567  0.1293
   90GLOH   H01 9440   4.737   3.117   2.787  1.0278 -0.8955 -0.8782
   91GLOH   H03 9441   7.447   0.302   0.194 -2.5540 -0.9146 -0.8499
   91GLOH    O1 9442   7.394   0.370   0.239 -0.2074  0.2547  0.1834
   91GLOH    C1 9443   7.461   0.424   0.350 -0.1442 -0.2539  0.7034
   91GLOH   H02 9444   7.424   0.525   0.373  0.3105 -0.1477  0.9766
   91GLOH   H08 9445   7.566   0.446   0.331 -0.8442  0.6807 -2.2792
   91GLOH    C2 9446   7.453   0.334   0.476 -0.3116  0.4886  0.1882
   91GLOH   H04 9447   7.468   0.229   0.446 -1.8203  0.0180  1.0296
   91GLOH    O2 9448   7.534   0.375   0.593  0.3244 -0.8638  0.4851
   91GLOH   H05 9449   7.629   0.369   0.572 -0.1037 -2.5538 -1.1364
   91GLOH    C3 9450   7.306   0.336   0.527  0.3871 -0.5462 -0.0516
   91GLOH   H06 9451   7.282   0.437   0.559 -0.5196 -0.4839 -0.8993
   91GLOH   H07 9452   7.301   0.270   0.613 -0.3622  0.0721  0.3806
   91GLOH    O3 9453   7.217   0.300   0.420  0.3799 -0.0997  0.3851
   91GLOH   H01 9454   7.256   0.320   0.333 -0.4021  0.8662  0.2492
   92GLOH   H03 9455   4.363   1.568   0.827 -1.6501  0.1344  1.7282
   92GLOH    O1 9456   4.336   1.497   0.767  0.6802  0.6965 -0.0601
   92GLOH    C1 9457   4.245   1.550   0.659  0.1216  0.4787 -0.0218
   92GLOH   H02 9458   4.281   1.523   0.560  1.4076 -2.6070  1.2089
   92GLOH   H08 9459   4.218   1.655   0.672  2.7985  1.0709  1.1508
   92GLOH    C2 9460   4.107   1.479   0.667  0.2578 -0.5081 -0.6583
   92GLOH   H04 9461   4.068   1.498   0.768  0.7360 -4.4959  0.3325
   92GLOH    O2 9462   4.023   1.546   0.566  0.0030 -0.6375 -0.0591
   92GLOH   H05 9463   4.011   1.638   0.593  1.9379  0.2575 -2.0667
   92GLOH    C3 9464   4.127   1.328   0.647  0.6446  0.0760 -0.0536
   92GLOH   H06 9465   4.173   1.304   0.551  3.6071  1.5210  0.9511
   92GLOH   H07 9466   4.028   1.284   0.650  0.6474  0.2094  3.3786
   92GLOH    O3 9467   4.207   1.268   0.751 -0.0781 -0.3944 -0.1612
   92GLOH   H01 9468   4.280   1.330   0.771  0.2912 -1.2376  1.1761
   93GLOH   H03 9469   4.670   0.576   2.734  0.6025 -0.7598 -1.2001
   93GLOH    O1 9470   4.755   0.612   2.766 -0.0213 -0.3503  0.0281
   93GLOH    C1 9471   4.740   0.760   2.768  0.1095  0.3401  0.1253
   93GLOH   H02 9472   4.661   0.782   2.839 -0.2852  2.2031 -0.8671
   93GLOH   H08 9473   4.725   0.801   2.668 -1.1462  1.9994  0.9636
   93GLOH    C2 9474   4.875   0.822   2.817  0.6510  0.6080 -0.3627
   93GLOH   H04 9475   4.953   0.800   2.742  0.8538 -0.2532  0.0973
   93GLOH    O2 9476   4.875   0.968   2.825 -0.2974  0.1147 -0.1583
   93GLOH   H05 9477   4.854   1.012   2.741  1.6819  0.2465 -0.6045
   93GLOH    C3 9478   4.901   0.755   2.955  0.8235  0.4080  0.2706
   93GLOH   H06 9479   4.990   0.800   3.000 -0.3672  1.0332  2.0680
   93GLOH   H07 9480   4.926   0.651   2.935 -0.3487  0.7117 -3.0540
   93GLOH    O3 9481   4.799   0.757   3.057 -0.4830  0.4991  0.8166
   93GLOH   H01 9482   4.746   0.838   3.050 -0.3138  0.5396 -0.0446
   94GLOH   H03 9483   1.263   2.386   0.094  1.5054 -0.1933  0.7927
   94GLOH    O1 9484   1.248   2.343   0.180  0.0851 -0.8887  0.2093
   94GLOH    C1 9485   1.360   2.388   0.261 -0.0694 -0.4426 -0.2585
   94GLOH   H02 9486   1.322   2.420   0.359  0.5230  0.0833 -0.2004
   94GLOH   H08 9487   1.407   2.476   0.218 -1.5310  0.9872  0.9891
   94GLOH    C2 9488   1.480   2.290   0.281 -0.4480 -0.0580 -0.9237
   94GLOH   H04 9489   1.516   2.257   0.182 -0.4217 -0.2468 -0.8497
   94GLOH    O2 9490   1.588   2.356   0.354 -0.0884 -0.5250  0.1000
   94GLOH   H05 9491   1.673   2.310   0.348  2.1725  3.2707  1.0413
   94GLOH    C3 9492   1.424   2.173   0.357 -0.2049  0.7701 -0.4944
   94GLOH   H06 9493   1.388   2.196   0.457  3.0796  0.7976  0.7641
   94GLOH   H07 9494   1.511   2.107   0.368 -0.0752  0.6356 -2.2053
   94GLOH    O3 9495   1.320   2.109   0.275 -0.1188  0.3803  0.0472
   94GLOH   H01 9496   1.263   2.180   0.241 -0.9898  0.4502  1.6650
   95GLOH   H03 9497   4.124   9.063   1.253  1.5903 -0.0793  0.8400
   95GLOH    O1 9498   4.087   8.973   1.254 -0.1129  0.5912  0.2337
   95GLOH    C1 9499   4.192   8.882   1.231  0.2570 -0.4246  0.6726
   95GLOH   H02 9500   4.247   8.908   1.141 -0.8581 -0.7820 -0.1214
   95GLOH   H08 9501   4.147   8.784   1.214 -0.4836 -0.2472  1.5570
   95GLOH    C2 9502   4.284   8.866   1.360  0.0687  0.2103  1.2147
   95GLOH   H04 9503   4.219   8.819   1.436 -1.8183  1.5958  0.5151
   95GLOH    O2 9504   4.393   8.779   1.336  0.6535 -0.1074 -0.4434
   95GLOH   H05 9505   4.426   8.747   1.421  0.4728  1.0959  0.0895
   95GLOH    C3 9506   4.325   8.997   1.429  0.0398 -0.3736  0.5330
   95GLOH   H06 9507   4.367   8.969   1.526 -0.4466 -0.6808  0.6590
   95GLOH   H07 9508   4.232   9.049   1.451  1.1210  2.1089 -0.6212
   95GLOH    O3 9509   4.414   9.080   1.355 -0.1180 -0.0584 -0.5273
   95GLOH   H01 9510   4.398   9.170   1.387 -1.0767 -0.0182 -1.0747
   96GLOH   H03 9511   3.046   7.482   3.065 -0.2903  0.9262 -1.0523
   96GLOH    O1 9512   3.049   7.569   3.109  0.1075  0.0855  0.6169
   96GLOH    C1 9513   3.162   7.647   3.073 -0.1135 -0.2637  0.0382
   96GLOH   H02 9514   3.211   7.618   2.980 -3.0012 -0.0662 -1.6084
   96GLOH   H08 9515   3.243   7.628   3.144  0.0374 -1.5504 -0.4684
   96GLOH    C2 9516   3.121   7.801   3.078 -0.1023 -0.7324  1.0390
   96GLOH   H04 9517   3.091   7.827   3.180  0.3260  1.8906  0.5553
   96GLOH    O2 9518   3.241   7.880   3.040  0.3313 -0.0537 -0.0660
   96GLOH   H05 9519   3.209   7.971   3.037 -0.3748 -0.2928  0.1664
   96GLOH    C3 9520   3.001   7.828   2.985 -0.0771  0.1668  0.1732
   96GLOH   H06 9521   2.960   7.927   3.005 -2.9480 -1.5920  3.3261
   96GLOH   H07 9522   2.914   7.766   3.003  0.1355  0.1177  1.0454
   96GLOH    O3 9523   3.025   7.809   2.845 -0.7288 -0.4780 -0.2317
   96GLOH   H01 9524   3.094   7.874   2.822 -1.4333  0.4464  0.2442
   97GLOH   H03 9525   4.591   2.149   2.054  1.0453 -2.5833 -0.2490
   97GLOH    O1 9526   4.676   2.188   2.081 -0.1072  0.0018 -0.1651
   97GLOH    C1 9527   4.708   2.109   2.198  0.5192  0.4977  0.8190
   97GLOH   H02 9528   4.708   2.003   2.174 -0.8387  0.7618 -0.4419
   97GLOH   H08 9529   4.648   2.124   2.288 -1.1841  2.0290 -0.5287
   97GLOH    C2 9530   4.854   2.136   2.225 -0.4146  0.6569 -0.2635
   97GLOH   H04 9531   4.877   2.085   2.319 -0.9831  0.1716 -0.3897
   97GLOH    O2 9532   4.938   2.089   2.124 -0.7241  0.0832 -0.1501
   97GLOH   H05 9533   4.957   2.156   2.057  0.0355 -1.7203 -1.8039
   97GLOH    C3 9534   4.873   2.282   2.269  0.4003  0.9758 -0.6259
   97GLOH   H06 9535   4.838   2.355   2.196 -1.1987  1.0886  0.2348
   97GLOH   H07 9536   4.980   2.305   2.272  0.9909 -1.7888  1.0420
   97GLOH    O3 9537   4.813   2.318   2.394  0.1250 -0.0844  0.7883
   97GLOH   H01 9538   4.748   2.389   2.377  1.3882  0.3800 -2.4458
   98GLOH   H03 9539   6.563   8.418   2.327 -4.0807 -0.1931 -1.0356
   98GLOH    O1 9540   6.575   8.329   2.289  0.7497 -0.2564  0.2664
   98GLOH    C1 9541   6.447   8.286   2.240 -0.3865  0.5299 -0.3303
   98GLOH   H02 9542   6.462   8.192   2.187 -0.8791 -0.1101  0.6514
   98GLOH   H08 9543   6.397   8.356   2.173  0.1345  2.2658  1.0788
   98GLOH    C2 9544   6.357   8.255   2.362 -0.6399  1.0782 -0.8307
   98GLOH   H04 9545   6.373   8.329   2.441 -1.7023  0.1763  0.2405
   98GLOH    O2 9546   6.223   8.245   2.323 -0.1769  0.0592 -0.1006
   98GLOH   H05 9547   6.174   8.304   2.382 -0.8919 -0.6221 -0.0082
   98GLOH    C3 9548   6.385   8.118   2.427  0.1457 -0.5293 -0.1874
   98GLOH   H06 9549   6.494   8.108   2.425  0.0761 -1.6682  1.2391
   98GLOH   H07 9550   6.353   8.046   2.351  0.4125  0.1013 -0.9090
   98GLOH    O3 9551   6.321   8.099   2.559  0.0480  0.7951 -0.3845
   98GLOH   H01 9552   6.366   8.142   2.634  0.3567 -0.0533 -0.0784
   99GLOH   H03 9553   7.501   0.634   0.866 -0.1806  1.2167 -0.6478
   99GLOH    O1 9554   7.556   0.658   0.942  0.0513 -0.0731 -0.3981
   99GLOH    C1 9555   7.553   0.554   1.041  0.0245  0.1086 -0.6064
   99GLOH   H02 9556   7.474   0.556   1.117  0.1162  2.3544 -0.5356
   99GLOH   H08 9557   7.644   0.554   1.100  0.3596 -0.4874 -1.1178
   99GLOH    C2 9558   7.553   0.417   0.972 -0.3512  0.1091  0.3768
   99GLOH   H04 9559   7.643   0.415   0.907 -1.3257  0.7121 -1.0128
   99GLOH    O2 9560   7.558   0.311   1.069 -0.2436 -0.1797 -0.2430
   99GLOH   H05 9561   7.592   0.347   1.153  1.0257 -0.8920 -0.4324
   99GLOH    C3 9562   7.433   0.397   0.879  0.2522 -0.7328 -0.9929
   99GLOH   H06 9563   7.347   0.379   0.943 -0.5452  0.6813 -1.6359
   99GLOH   H07 9564   7.432   0.304   0.822 -1.6043 -0.4807 -1.4036
   99GLOH    O3 9565   7.407   0.510   0.796  0.3983 -0.2772 -0.3989
   99GLOH   H01 9566   7.453   0.489   0.713  2.1383  0.8523  0.2487
  100GLOH   H03 9567   7.370   8.325   3.871  3.1085 -0.4170 -1.4985
  100GLOH    O1 9568   7.399   8.248   3.924  0.6143 -0.5292 -0.1779
  100GLOH    C1 9569   7.502   8.187   3.842 -0.1283  0.1218  0.6564
  100GLOH   H02 9570   7.599   8.236   3.831  0.1094 -0.4672  0.0879
  100GLOH   H08 9571   7.474   8.187   3.736  0.3235  1.6501  0.5330
  100GLOH    C2 9572   7.525   8.038   3.883  0.1031 -0.0225  0.9397
  100GLOH   H04 9573   7.428   7.986   3.884  0.7042 -1.2171 -0.7935
  100GLOH    O2 9574   7.613   7.980   3.787 -0.0758  0.2226 -0.4695
  100GLOH   H05 9575   7.706   8.008   3.795  0.4599 -1.6983  0.4877
  100GLOH    C3 9576   7.588   8.040   4.023 -0.5561 -0.1297  0.1319
  100GLOH   H06 9577   7.681   8.097   4.029 -0.2825 -0.8341  3.5465
  100GLOH   H07 9578   7.611   7.935   4.044 -1.3279 -0.2888  0.1814
  100GLOH    O3 9579   7.494   8.100   4.117 -0.0326  0.1395  0.3463
  100GLOH   H01 9580   7.440   8.162   4.064  2.5555 -0.1049 -2.7375
  101GLOH   H03 9581   1.360   1.892   3.156  0.8708 -1.2494 -0.3675
  101GLOH    O1 9582   1.285   1.943   3.191  0.9666 -0.8114 -0.7983
  101GLOH    C1 9583   1.321   2.087   3.202 -0.8134  0.3259 -0.3539
  101GLOH   H02 9584   1.233   2.150   3.214 -0.7089  0.7556 -1.7242
  101GLOH   H08 9585   1.365   2.120   3.108 -0.7094 -1.4533 -0.9560
  101GLOH    C2 9586   1.424   2.129   3.308 -0.2873 -0.3442  0.4800
  101GLOH   H04 9587   1.511   2.069   3.276  0.4001 -0.0220  1.7106
  101GLOH    O2 9588   1.455   2.272   3.292  0.0921 -0.1858  0.7684
  101GLOH   H05 9589   1.372   2.323   3.280  0.8731  1.3386  1.6870
  101GLOH    C3 9590   1.390   2.101   3.455 -0.5725  0.7166 -0.3621
  101GLOH   H06 9591   1.383   1.993   3.467  1.4851  0.7133  1.1454
  101GLOH   H07 9592   1.294   2.146   3.480 -1.1714 -1.9358  2.3527
  101GLOH    O3 9593   1.495   2.144   3.542 -0.3794  0.3338 -0.3484
  101GLOH   H01 9594   1.505   2.242   3.541 -0.1691  0.3218  0.2025
  102GLOH   H03 9595   0.843   9.135   0.610 -1.1331 -0.0369 -0.0088
  102GLOH    O1 9596   0.832   9.126   0.513  0.1334 -0.3541 -0.1212
  102GLOH    C1 9597   0.695   9.085   0.491  0.2530 -0.1109 -0.0846
  102GLOH   H02 9598   0.674   8.993   0.546 -0.5651  0.6280  0.8476
  102GLOH   H08 9599   0.670   9.061   0.387 -0.3935 -0.0752  0.0567
  102GLOH    C2 9600   0.590   9.184   0.538  0.3439  0.5977  0.5671
  102GLOH   H04 9601   0.493   9.133   0.548 -1.3404  3.8054  1.3097
  102GLOH    O2 9602   0.635   9.224   0.665 -0.1190 -0.5564  0.1450
  102GLOH   H05 9603   0.586   9.182   0.738  1.5786 -0.7053  1.2229
  102GLOH    C3 9604   0.573   9.293   0.429 -0.1927 -0.3983  0.1155
  102GLOH   H06 9605   0.675   9.323   0.406 -0.1630 -0.5230  0.0847
  102GLOH   H07 9606   0.538   9.384   0.478 -1.3498 -0.4245 -0.6375
  102GLOH    O3 9607   0.493   9.263   0.306  0.0527  0.4063 -0.5383
  102GLOH   H01 9608   0.498   9.336   0.241 -0.6419  2.1496  1.2966
  103GLOH   H03 9609   9.216   2.952   0.465  0.2005 -0.0395  0.6037
  103GLOH    O1 9610   9.173   3.038   0.482  0.1059  0.0711 -0.1780
  103GLOH    C1 9611   9.142   3.040   0.623  0.2482 -0.0863 -0.4358
  103GLOH   H02 9612   9.230   3.062   0.684 -0.3618  0.9245  0.0929
  103GLOH   H08 9613   9.123   2.940   0.661 -0.1240  0.1828  0.0921
  103GLOH    C2 9614   9.037   3.143   0.668 -0.0272 -0.1164  0.5771
  103GLOH   H04 9615   8.940   3.114   0.624  0.9571 -2.0578 -0.4091
  103GLOH    O2 9616   9.035   3.128   0.813  0.3657  0.3584 -0.5445
  103GLOH   H05 9617   8.956   3.072   0.821  1.9097 -1.8158 -0.2744
  103GLOH    C3 9618   9.079   3.282   0.615  0.5876  0.3478 -0.6268
  103GLOH   H06 9619   9.173   3.310   0.663  0.5016 -2.7128  1.4803
  103GLOH   H07 9620   9.002   3.348   0.656  0.0789 -2.2013  2.7142
  103GLOH    O3 9621   9.079   3.287   0.476  0.2051  0.0337 -0.1214
  103GLOH   H01 9622   9.123   3.203   0.455 -2.1731 -1.4100  0.4977
  104GLOH   H03 9623   8.011   9.838   3.071 -1.6223  1.6255 -0.9423
  104GLOH    O1 9624   8.099   9.862   3.036 -0.7435 -0.3187 -0.1098
  104GLOH    C1 9625   8.190   9.767   3.097 -0.1739 -0.2305  0.2365
  104GLOH   H02 9626   8.162   9.664   3.078  0.6272 -0.0970 -1.8164
  104GLOH   H08 9627   8.178   9.778   3.205 -3.6209  0.4083 -0.1687
  104GLOH    C2 9628   8.339   9.790   3.055  0.3030 -0.7989  0.1835
  104GLOH   H04 9629   8.343   9.848   2.961 -0.4620  0.0057  0.6438
  104GLOH    O2 9630   8.415   9.855   3.161  0.0547 -0.5419 -0.3173
  104GLOH   H05 9631   8.415   9.797   3.239 -3.8548 -0.3750 -0.1130
  104GLOH    C3 9632   8.411   9.657   3.013  0.0233  0.2987  1.0458
  104GLOH   H06 9633   8.411   9.598   3.105 -1.3773 -0.2956  0.6854
  104GLOH   H07 9634   8.514   9.678   2.986 -0.4027  0.2919 -0.6412
  104GLOH    O3 9635   8.358   9.583   2.899 -0.0077 -0.3191  0.6425
  104GLOH   H01 9636   8.400   9.621   2.819 -1.8650 -0.0968 -0.2490
  105GLOH   H03 9637   1.622   5.507   2.064  0.3916 -0.8556  1.1829
  105GLOH    O1 9638   1.654   5.575   2.126 -0.0696  0.2418  0.2312
  105GLOH    C1 9639   1.629   5.510   2.250  0.4436  0.4630  0.0367
  105GLOH   H02 9640   1.522   5.491   2.251  0.5872 -0.3057  1.2452
  105GLOH   H08 9641   1.655   5.561   2.342  0.5155  1.0674 -0.3120
  105GLOH    C2 9642   1.715   5.382   2.255  0.8390  0.2186  0.1628
  105GLOH   H04 9643   1.702   5.324   2.163  1.3341  0.0761  0.1818
  105GLOH    O2 9644   1.854   5.407   2.279 -0.0079  0.2938 -0.0134
  105GLOH   H05 9645   1.894   5.325   2.313  1.0877  0.5818 -0.5657
  105GLOH    C3 9646   1.659   5.303   2.378  0.5318  0.2669 -0.7518
  105GLOH   H06 9647   1.655   5.373   2.461 -0.2734  1.6609 -1.9429
  105GLOH   H07 9648   1.718   5.213   2.400  2.3649  1.1139 -2.0925
  105GLOH    O3 9649   1.522   5.271   2.360 -0.6368 -0.1808  0.3929
  105GLOH   H01 9650   1.501   5.205   2.291 -2.7830  0.0177  0.8173
  106GLOH   H03 9651   1.868   9.449   1.132 -0.3634 -0.2773 -1.1577
  106GLOH    O1 9652   1.781   9.470   1.170  0.0712 -0.4952  0.0151
  106GLOH    C1 9653   1.685   9.503   1.059  0.0875  0.6097 -0.6708
  106GLOH   H02 9654   1.675   9.428   0.980 -0.4356  0.2608 -0.2768
  106GLOH   H08 9655   1.723   9.584   0.996  3.1089 -0.5194 -0.3940
  106GLOH    C2 9656   1.544   9.552   1.107  0.2842  0.0837  0.0700
  106GLOH   H04 9657   1.561   9.640   1.170 -3.3841 -0.2358  1.6495
  106GLOH    O2 9658   1.473   9.588   0.990  0.4417 -0.5527 -0.3124
  106GLOH   H05 9659   1.438   9.678   1.004  0.8285 -0.0238 -2.4442
  106GLOH    C3 9660   1.471   9.452   1.199  0.2937 -0.0215  0.5949
  106GLOH   H06 9661   1.537   9.443   1.285 -0.2363 -1.0355  0.9035
  106GLOH   H07 9662   1.462   9.353   1.153 -2.2397 -0.0661  1.1101
  106GLOH    O3 9663   1.343   9.495   1.257  0.1159 -0.0394 -0.6903
  106GLOH   H01 9664   1.283   9.501   1.180 -1.4686  0.4932  0.5696
  107GLOH   H03 9665   1.687   7.449   0.501  0.7008  0.0856 -0.3479
  107GLOH    O1 9666   1.632   7.374   0.472  0.5549  0.0600 -0.0061
  107GLOH    C1 9667   1.690   7.268   0.538  0.6337  0.0129 -0.7026
  107GLOH   H02 9668   1.798   7.263   0.523  0.7627  0.1818  0.1626
  107GLOH   H08 9669   1.658   7.171   0.498  0.1956 -0.6537  1.2067
  107GLOH    C2 9670   1.672   7.265   0.691 -0.3160  0.6110 -0.1286
  107GLOH   H04 9671   1.721   7.354   0.732  0.8246 -0.5735  1.1569
  107GLOH    O2 9672   1.535   7.262   0.730  0.6945 -0.9188  0.2125
  107GLOH   H05 9673   1.482   7.237   0.653 -2.0197  1.9901  1.0259
  107GLOH    C3 9674   1.735   7.137   0.745 -0.0134  0.3353 -0.3535
  107GLOH   H06 9675   1.671   7.049   0.740  0.9054 -0.3268 -0.7753
  107GLOH   H07 9676   1.755   7.161   0.849  2.6771 -0.3395 -0.6573
  107GLOH    O3 9677   1.858   7.113   0.679 -0.1207 -0.3064  0.3427
  107GLOH   H01 9678   1.849   7.035   0.622  0.2611 -1.0559  1.3031
  108GLOH   H03 9679   5.537   9.617   3.225  1.1639 -1.1186  1.1803
  108GLOH    O1 9680   5.617   9.671   3.211  0.3251 -0.3260 -0.6639
  108GLOH    C1 9681   5.621   9.709   3.072  0.4293 -0.3777 -0.5540
  108GLOH   H02 9682   5.541   9.779   3.051 -0.9079 -1.3062  1.3385
  108GLOH   H08 9683   5.602   9.623   3.007 -2.2423 -2.2083  2.5199
  108GLOH    C2 9684   5.758   9.771   3.029  0.2305 -0.1908  0.4161
  108GLOH   H04 9685   5.843   9.702   3.023  0.9982  0.5954  1.9935
  108GLOH    O2 9686   5.742   9.814   2.893 -0.0012 -0.5170  0.2663
  108GLOH   H05 9687   5.753   9.741   2.830 -1.3962  0.9369 -1.7299
  108GLOH    C3 9688   5.797   9.881   3.126 -0.2193 -0.7228 -0.3853
  108GLOH   H06 9689   5.736   9.971   3.125  0.1910 -0.4446 -0.4403
  108GLOH   H07 9690   5.898   9.908   3.093 -0.2778  1.4240  1.0771
  108GLOH    O3 9691   5.795   9.829   3.261 -0.2446 -0.4619  0.0361
  108GLOH   H01 9692   5.726   9.761   3.258 -0.3464 -0.4383  1.7581
  109GLOH   H03 9693   4.180   1.485   1.005  1.1099  0.2600  2.1926
  109GLOH    O1 9694   4.097   1.498   1.055 -0.1247  0.0329  0.2814
  109GLOH    C1 9695   4.136   1.569   1.181 -0.6608  0.3949  0.6997
  109GLOH   H02 9696   4.212   1.643   1.156 -0.7813  0.4829  0.5904
  109GLOH   H08 9697   4.187   1.500   1.248  0.1409  2.8866  2.7222
  109GLOH    C2 9698   4.029   1.635   1.267  0.7080 -0.1798  0.1692
  109GLOH   H04 9699   4.084   1.669   1.356  1.6800 -1.3134  0.0140
  109GLOH    O2 9700   3.954   1.741   1.194 -0.1646 -0.7679  0.6306
  109GLOH   H05 9701   4.009   1.818   1.174 -0.0055 -0.8920  0.5882
  109GLOH    C3 9702   3.937   1.527   1.310  0.0707  0.2808 -0.1621
  109GLOH   H06 9703   3.894   1.475   1.224  0.1042 -0.9366  0.5403
  109GLOH   H07 9704   3.853   1.570   1.364  1.4718  0.3978  1.9799
  109GLOH    O3 9705   4.000   1.433   1.394  0.0097  0.1155  0.2121
  109GLOH   H01 9706   4.012   1.458   1.487 -1.4275 -2.2215  1.0798
  110GLOH   H03 9707   1.475   2.299   1.611  0.4541  3.1893 -1.1925
  110GLOH    O1 9708   1.379   2.314   1.599 -0.1863  0.2338 -0.1297
  110GLOH    C1 9709   1.302   2.198   1.618  0.7866 -0.0365  1.0966
  110GLOH   H02 9710   1.201   2.231   1.643  0.1030 -2.3135  1.5238
  110GLOH   H08 9711   1.343   2.149   1.706 -1.4707 -1.4224  1.4250
  110GLOH    C2 9712   1.293   2.101   1.498  0.1019 -0.3014 -0.0709
  110GLOH   H04 9713   1.392   2.055   1.506  0.9676  1.0891 -2.3420
  110GLOH    O2 9714   1.194   2.001   1.520  0.2789  0.2756  0.1296
  110GLOH   H05 9715   1.235   1.925   1.566  0.5133  1.0623  1.2270
  110GLOH    C3 9716   1.272   2.181   1.370  0.3702  0.3762 -0.3439
  110GLOH   H06 9717   1.328   2.275   1.367 -0.5793  0.9092 -3.2766
  110GLOH   H07 9718   1.166   2.196   1.349  0.4083  2.2882  0.7202
  110GLOH    O3 9719   1.333   2.106   1.262  0.1614  0.1862 -0.1257
  110GLOH   H01 9720   1.310   2.012   1.268 -1.0297  0.2793 -2.6491
  111GLOH   H03 9721   4.766   2.033   2.534  0.3797  0.2527 -0.4798
  111GLOH    O1 9722   4.692   1.980   2.501  0.0461  0.7275 -0.4982
  111GLOH    C1 9723   4.568   2.026   2.548 -0.7469  0.0840  0.2533
  111GLOH   H02 9724   4.530   1.973   2.635 -1.4230 -1.5843 -1.0507
  111GLOH   H08 9725   4.492   2.000   2.474 -0.3574  0.9458 -0.4587
  111GLOH    C2 9726   4.567   2.181   2.578 -0.5137  0.0454  0.0174
  111GLOH   H04 9727   4.582   2.236   2.484  1.8414  1.2025  1.0329
  111GLOH    O2 9728   4.438   2.205   2.632 -0.2863  0.0270 -0.3388
  111GLOH   H05 9729   4.447   2.288   2.682  0.6813 -0.6359  0.6135
  111GLOH    C3 9730   4.682   2.218   2.665 -0.0743 -0.1896 -0.1506
  111GLOH   H06 9731   4.669   2.166   2.760 -0.9788  1.1615  0.4779
  111GLOH   H07 9732   4.689   2.323   2.693 -0.8876 -0.4498  1.0369
  111GLOH    O3 9733   4.807   2.179   2.605 -0.0685 -0.0750  0.2607
  111GLOH   H01 9734   4.829   2.243   2.534  0.0382 -1.9000 -1.3763
  112GLOH   H03 9735   1.837   3.897   1.870 -0.7799 -0.8083  0.2792
  112GLOH    O1 9736   1.843   3.889   1.967 -0.0745 -0.4219  0.2675
  112GLOH    C1 9737   1.812   3.757   2.005 -0.0773 -1.2732  0.2508
  112GLOH   H02 9738   1.884   3.723   2.080 -0.6064  1.1487  1.9109
  112GLOH   H08 9739   1.824   3.701   1.912 -0.2700  2.1696 -1.9390
  112GLOH    C2 9740   1.669   3.738   2.060 -0.3439  0.1038 -0.3903
  112GLOH   H04 9741   1.639   3.633   2.053 -1.6765  0.2637  2.4448
  112GLOH    O2 9742   1.668   3.780   2.200  0.5059  0.1295  0.4944
  112GLOH   H05 9743   1.750   3.749   2.243  1.0302  1.5662  0.5583
  112GLOH    C3 9744   1.566   3.822   1.975 -0.8771 -0.4030 -0.4093
  112GLOH   H06 9745   1.584   3.927   1.998  0.3279 -0.3424 -1.6131
  112GLOH   H07 9746   1.472   3.789   2.020 -0.7408  0.5780  0.6155
  112GLOH    O3 9747   1.567   3.783   1.833 -0.0796 -0.1420 -0.4051
  112GLOH   H01 9748   1.569   3.686   1.821  1.7624 -0.5310  2.5563
  113GLOH   H03 9749   6.621   0.313   3.444 -0.5683  0.1758  0.0859
  113GLOH    O1 9750   6.718   0.324   3.436 -0.5702 -0.0249 -0.2275
  113GLOH    C1 9751   6.751   0.360   3.298  0.2909 -0.4937  0.9972
  113GLOH   H02 9752   6.773   0.467   3.289 -0.3402 -0.5114 -1.1516
  113GLOH   H08 9753   6.662   0.345   3.236  0.3846 -2.2888  1.2712
  113GLOH    C2 9754   6.860   0.279   3.238  0.2625 -0.4026  0.8633
  113GLOH   H04 9755   6.827   0.175   3.224 -0.5575 -0.0186 -0.0902
  113GLOH    O2 9756   6.902   0.352   3.117  0.0692  0.1703  0.6034
  113GLOH   H05 9757   6.984   0.404   3.124  0.4706 -0.3905  0.1453
  113GLOH    C3 9758   6.981   0.268   3.340  0.1511 -0.4930  0.1226
  113GLOH   H06 9759   7.030   0.365   3.338 -1.5893  0.3853 -1.4246
  113GLOH   H07 9760   7.046   0.198   3.286  1.1952 -1.0576  2.0589
  113GLOH    O3 9761   6.942   0.228   3.469  0.0131  0.0223 -0.3599
  113GLOH   H01 9762   6.851   0.259   3.478  0.2204  0.4795  0.1466
  114GLOH   H03 9763   9.585   0.250   2.113  0.2208 -1.3594 -1.4247
  114GLOH    O1 9764   9.490   0.228   2.114 -0.0354 -0.2599  0.1324
  114GLOH    C1 9765   9.453   0.199   1.975 -0.2093 -0.3317  0.2558
  114GLOH   H02 9766   9.520   0.127   1.926 -1.1935 -1.1185  0.0347
  114GLOH   H08 9767   9.463   0.290   1.917  0.8362 -0.3605  0.3777
  114GLOH    C2 9768   9.307   0.168   1.956 -0.1391  0.2931  0.7626
  114GLOH   H04 9769   9.250   0.257   1.987 -1.0366 -0.1096  0.2889
  114GLOH    O2 9770   9.269   0.138   1.822 -0.6217 -0.2118 -0.1803
  114GLOH   H05 9771   9.172   0.142   1.818 -0.8690 -1.2784  3.0393
  114GLOH    C3 9772   9.259   0.050   2.049 -0.0160 -0.4136  0.1927
  114GLOH   H06 9773   9.284  -0.049   2.011 -0.5142  0.0842 -1.4672
  114GLOH   H07 9774   9.150   0.048   2.050 -0.0177 -0.3917  2.0533
  114GLOH    O3 9775   9.299   0.054   2.185 -0.0570 -0.5540  0.4081
  114GLOH   H01 9776   9.363   0.126   2.196 -0.7167 -0.2254  2.2405
  115GLOH   H03 9777   9.816   8.962   0.810  0.5231  0.3639 -0.7360
  115GLOH    O1 9778   9.781   9.024   0.744 -0.0774  0.4051 -0.3828
  115GLOH    C1 9779   9.773   9.162   0.794 -0.2387  0.4059 -0.3894
  115GLOH   H02 9780   9.707   9.222   0.732  1.5014  1.7388 -1.0041
  115GLOH   H08 9781   9.870   9.211   0.783  0.2986 -0.7683 -1.0428
  115GLOH    C2 9782   9.729   9.168   0.940  0.1727  0.2999  0.9826
  115GLOH   H04 9783   9.788   9.102   1.005  0.4306 -1.5163 -1.0392
  115GLOH    O2 9784   9.745   9.296   0.994 -0.4445  0.2381 -0.0465
  115GLOH   H05 9785   9.689   9.314   1.071  0.7176  1.1215  0.5986
  115GLOH    C3 9786   9.582   9.116   0.947  0.4008 -0.1051  0.0493
  115GLOH   H06 9787   9.567   9.022   0.894  0.0807 -1.4241  2.3960
  115GLOH   H07 9788   9.517   9.177   0.883  0.9224 -1.2709 -1.6117
  115GLOH    O3 9789   9.528   9.112   1.081  0.9729  0.1260  0.6683
  115GLOH   H01 9790   9.526   9.205   1.112  0.0559  0.8984 -1.6275
  116GLOH   H03 9791   7.700   3.714   1.310  0.3609 -0.3591  0.2198
  116GLOH    O1 9792   7.708   3.799   1.357 -0.0503  0.0854 -0.5116
  116GLOH    C1 9793   7.765   3.765   1.485  0.1261 -0.2128 -0.1364
  116GLOH   H02 9794   7.707   3.694   1.545 -0.1532  0.7551  0.7386
  116GLOH   H08 9795   7.766   3.856   1.544  0.9730 -0.5624  0.4037
  116GLOH    C2 9796   7.909   3.720   1.470 -0.6616 -0.0163 -0.2111
  116GLOH   H04 9797   7.954   3.714   1.570  0.0153 -1.2700 -0.5811
  116GLOH    O2 9798   7.916   3.590   1.422 -0.0083  0.7709  0.5457
  116GLOH   H05 9799   7.869   3.585   1.337  2.1883 -1.6302 -0.5908
  116GLOH    C3 9800   7.988   3.818   1.381  0.0670  0.5206 -1.1160
  116GLOH   H06 9801   7.949   3.918   1.398  0.9845  0.8225 -0.7414
  116GLOH   H07 9802   7.971   3.796   1.275 -2.4536  0.9760 -0.8343
  116GLOH    O3 9803   8.130   3.822   1.412  0.0081  0.2675  0.2987
  116GLOH   H01 9804   8.173   3.772   1.341  0.9263  0.3805  0.7778
  117GLOH   H03 9805   8.104   2.917   2.170 -1.6814  0.7261 -0.9014
  117GLOH    O1 9806   8.125   2.877   2.083 -0.0728  0.2634 -0.3341
  117GLOH    C1 9807   8.023   2.788   2.046 -0.1616  0.3362 -0.0800
  117GLOH   H02 9808   7.926   2.837   2.038 -0.3871 -0.0757  0.1155
  117GLOH   H08 9809   8.006   2.719   2.129  0.0602 -1.2065 -1.3043
  117GLOH    C2 9810   8.053   2.713   1.915 -0.3649  0.2784 -0.0967
  117GLOH   H04 9811   8.148   2.657   1.911  0.8674  2.1921  1.4319
  117GLOH    O2 9812   7.947   2.616   1.889 -0.5684 -0.1140  0.4121
  117GLOH   H05 9813   7.989   2.547   1.835  2.8075  2.2573 -0.2191
  117GLOH    C3 9814   8.046   2.809   1.792 -0.4380  0.6096 -0.1631
  117GLOH   H06 9815   7.949   2.858   1.794 -1.0053 -0.4981  0.1156
  117GLOH   H07 9816   8.044   2.746   1.703  1.5119  0.6288 -0.2543
  117GLOH    O3 9817   8.164   2.885   1.794 -0.1382  0.5559 -0.2246
  117GLOH   H01 9818   8.152   2.950   1.866 -2.1479 -0.7682  0.6815
  118GLOH   H03 9819   1.945   8.017   3.526  2.1104  0.5241  0.3187
  118GLOH    O1 9820   1.920   8.080   3.597  0.2743  0.3656 -0.1594
  118GLOH    C1 9821   1.789   8.124   3.561  0.8978  0.3145  0.1103
  118GLOH   H02 9822   1.732   8.145   3.652  2.4579 -0.4337  1.2871
  118GLOH   H08 9823   1.738   8.047   3.503  1.5963  1.3167 -1.8651
  118GLOH    C2 9824   1.794   8.241   3.468 -0.3847 -0.7873 -0.5962
  118GLOH   H04 9825   1.810   8.201   3.366  1.0637 -0.6692 -0.4340
  118GLOH    O2 9826   1.668   8.307   3.473  0.1811  0.9702  0.1688
  118GLOH   H05 9827   1.655   8.354   3.558  0.2800 -0.3068  0.9077
  118GLOH    C3 9828   1.903   8.341   3.504  0.4866  0.1376 -0.1409
  118GLOH   H06 9829   1.889   8.376   3.607 -1.5264 -0.1009 -0.3190
  118GLOH   H07 9830   1.886   8.428   3.441  1.0189 -1.0471 -1.9646
  118GLOH    O3 9831   2.040   8.291   3.490  0.0746 -0.0160 -0.4846
  118GLOH   H01 9832   2.045   8.211   3.546  1.1410  1.1972  1.1773
  119GLOH   H03 9833   8.903   7.758   3.674  0.3526  0.5609 -1.2444
  119GLOH    O1 9834   8.841   7.825   3.709 -0.2191 -0.4146 -0.3786
  119GLOH    C1 9835   8.914   7.947   3.726  0.0402  0.2037  0.0483
  119GLOH   H02 9836   8.962   7.975   3.633  0.7703  0.4032  0.4778
  119GLOH   H08 9837   8.997   7.934   3.796  1.0360  1.3091 -0.9132
  119GLOH    C2 9838   8.814   8.061   3.767  0.1170 -0.5741 -0.1779
  119GLOH   H04 9839   8.776   8.042   3.869  0.1048  0.5539  0.0438
  119GLOH    O2 9840   8.876   8.195   3.757 -0.3065  0.2609 -0.1040
  119GLOH   H05 9841   8.951   8.202   3.819  0.3866 -2.0133 -0.6430
  119GLOH    C3 9842   8.694   8.065   3.677 -0.5932 -0.0613 -0.2180
  119GLOH   H06 9843   8.717   8.123   3.587  0.8079 -0.0291  0.1455
  119GLOH   H07 9844   8.623   8.130   3.728 -0.4852  0.0495 -0.2084
  119GLOH    O3 9845   8.630   7.939   3.650  0.0660 -0.3662 -0.4209
  119GLOH   H01 9846   8.698   7.872   3.667 -1.7682 -2.4858 -1.1322
  120GLOH   H03 9847   7.677   9.912   0.604  0.0247  0.2048  0.6276
  120GLOH    O1 9848   7.667   9.974   0.679  0.0567  0.8321  0.1246
  120GLOH    C1 9849   7.525  10.005   0.707  0.7431  0.0172  0.8210
  120GLOH   H02 9850   7.468   9.917   0.677  0.9193  0.9807 -2.5376
  120GLOH   H08 9851   7.488  10.086   0.645  0.7763 -2.1324 -2.0913
  120GLOH    C2 9852   7.515  10.032   0.856  0.2973  0.7995 -0.5126
  120GLOH   H04 9853   7.582  10.118   0.870  1.2540  0.2806 -1.8728
  120GLOH    O2 9854   7.387  10.081   0.886  0.1843 -0.2293 -0.1268
  120GLOH   H05 9855   7.399  10.127   0.971 -2.5746  0.5983 -0.1255
  120GLOH    C3 9856   7.556   9.902   0.929 -0.0937 -0.0456 -0.5366
  120GLOH   H06 9857   7.663   9.888   0.914  0.0810 -1.3102  1.5791
  120GLOH   H07 9858   7.507   9.813   0.889 -1.6529  0.5033  0.1158
  120GLOH    O3 9859   7.540   9.921   1.069  0.6231 -0.1072  0.1532
  120GLOH   H01 9860   7.444   9.913   1.086  0.7669 -1.5942  0.4019
  121ACOH    H4 9861   4.920   6.939   3.139  0.7008  0.4001  0.0453
  121ACOH    O2 9862   4.935   6.888   3.057  0.3459  0.3030  0.0371
  121ACOH    C2 9863   4.833   6.904   2.969 -0.5650  0.2150  0.0301
  121ACOH    O1 9864   4.718   6.938   2.993 -0.1143  0.0529 -0.1755
  121ACOH    C1 9865   4.850   6.824   2.846 -0.0646 -0.1211 -0.4971
  121ACOH    H1 9866   4.934   6.754   2.850 -1.0818 -1.8296 -5.5169
  121ACOH    H2 9867   4.855   6.879   2.752 -2.6808 -0.8858 -1.1001
  121ACOH    H3 9868   4.769   6.754   2.831 -0.4838 -0.2210  2.0234
  122ACOH    H4 9869   8.238   7.853   1.039  1.4970 -1.9660  1.7223
  122ACOH    O2 9870   8.204   7.790   0.973  0.1766  0.1472  0.3352
  122ACOH    C2 9871   8.162   7.678   1.029 -0.1599 -0.0565 -0.3640
  122ACOH    O1 9872   8.175   7.644   1.145 -0.4784 -0.2196 -0.7070
  122ACOH    C1 9873   8.101   7.584   0.929 -0.2185  0.5529 -0.0876
  122ACOH    H1 9874   8.117   7.481   0.962  0.8377  2.0088  4.1987
  122ACOH    H2 9875   8.141   7.589   0.827  0.2834 -1.7226 -0.0363
  122ACOH    H3 9876   7.993   7.598   0.928 -0.4505 -0.9750  1.3963
  123ACOH    H4 9877   3.867   5.949   2.735 -0.7076 -1.0497 -0.2803
  123ACOH    O2 9878   3.957   5.928   2.704 -0.3376  0.2364 -0.1086
  123ACOH    C2 9879   3.953   5.916   2.567 -1.0221  0.5806 -0.6089
  123ACOH    O1 9880   3.863   5.935   2.494 -0.4016 -0.0122  0.4447
  123ACOH    C1 9881   4.089   5.870   2.536 -0.1091 -0.0506  0.6500
  123ACOH    H1 9882   4.163   5.918   2.600  1.1684 -0.5082 -0.4612
  123ACOH    H2 9883   4.109   5.889   2.431 -0.1757  1.1073  0.8392
  123ACOH    H3 9884   4.093   5.765   2.562 -0.7198 -0.5560 -1.2337
  124ACOH    H4 9885   5.808   8.556   1.645  0.6733  1.4926 -0.3488
  124ACOH    O2 9886   5.844   8.536   1.557  0.2474  0.3812 -0.2842
  124ACOH    C2 9887   5.923   8.430   1.563  0.4989  0.0983 -0.5808
  124ACOH    O1 9888   5.947   8.356   1.662 -0.1573  0.0158  0.4468
  124ACOH    C1 9889   5.965   8.388   1.427  0.3592  1.1293  0.2286
  124ACOH    H1 9890   6.064   8.343   1.430  0.2599  0.6476 -2.3250
  124ACOH    H2 9891   5.965   8.484   1.374 -0.9020 -0.0404 -1.9801
  124ACOH    H3 9892   5.890   8.322   1.384  0.7056 -0.3696  1.8939
  125ACOH    H4 9893   7.269   2.055   3.298 -3.1595  0.1139  0.4564
  125ACOH    O2 9894   7.219   2.094   3.224 -0.9823  0.6376 -0.7764
  125ACOH    C2 9895   7.275   2.211   3.189  0.3541 -0.0757  0.1833
  125ACOH    O1 9896   7.380   2.261   3.229  0.2145 -0.0081 -0.1801
  125ACOH    C1 9897   7.190   2.284   3.091 -0.5090 -0.5066 -0.6865
  125ACOH    H1 9898   7.215   2.389   3.074  0.9637 -0.9418 -1.3092
  125ACOH    H2 9899   7.085   2.264   3.114 -0.3755 -1.0493 -0.5568
  125ACOH    H3 9900   7.215   2.234   2.998 -1.3486 -0.7091 -0.8088
  126ACOH    H4 9901   4.231   0.852   0.747  1.6217  0.9432  1.3737
  126ACOH    O2 9902   4.260   0.762   0.767  0.2048  0.2337  0.3401
  126ACOH    C2 9903   4.360   0.783   0.862 -0.2846  0.1231  0.2207
  126ACOH    O1 9904   4.397   0.881   0.928  0.3498 -0.4802 -0.4247
  126ACOH    C1 9905   4.408   0.651   0.893  0.3532 -0.7480  0.2546
  126ACOH    H1 9906   4.360   0.573   0.834 -0.0450  0.2687 -0.7741
  126ACOH    H2 9907   4.395   0.635   1.000  1.4075  1.8822  0.8000
  126ACOH    H3 9908   4.515   0.640   0.876  1.0471 -1.4338  4.4708
  127ACOH    H4 9909   4.342   7.145   1.201 -1.1321  0.1175  0.4427
  127ACOH    O2 9910   4.278   7.083   1.162 -0.1018 -0.5592 -0.1861
  127ACOH    C2 9911   4.158   7.112   1.217 -0.7983  0.4670 -0.6242
  127ACOH    O1 9912   4.128   7.210   1.282 -0.0638 -0.0324 -0.0758
  127ACOH    C1 9913   4.056   7.010   1.190  0.0303  0.2007 -0.3565
  127ACOH    H1 9914   4.048   6.999   1.081 -1.1207  1.9021 -0.4541
  127ACOH    H2 9915   3.961   7.029   1.240  0.9479  1.3330  0.9634
  127ACOH    H3 9916   4.098   6.914   1.222  1.9951  1.1347 -0.0915
  128ACOH    H4 9917   7.007   2.712   0.486 -0.5152  1.0323  1.3467
  128ACOH    O2 9918   6.973   2.648   0.551 -0.3455 -0.3246  0.1218
  128ACOH    C2 9919   7.080   2.574   0.592  0.1657  0.0146  0.4058
  128ACOH    O1 9920   7.195   2.574   0.549  0.1031  0.6202 -0.5325
  128ACOH    C1 9921   7.027   2.476   0.697 -0.4445  0.1534 -0.1161
  128ACOH    H1 9922   6.920   2.485   0.717 -0.0160  0.7308  1.9973
  128ACOH    H2 9923   7.080   2.500   0.789 -0.4579  0.8040 -0.2737
  128ACOH    H3 9924   7.047   2.372   0.670 -0.1658  0.3340 -0.6248
  129ACOH    H4 9925   6.389   0.364   2.418  1.4042  0.4689  0.5960
  129ACOH    O2 9926   6.392   0.405   2.330 -0.1846  0.0957  0.3517
  129ACOH    C2 9927   6.332   0.331   2.235  0.3205 -0.5371 -0.6457
  129ACOH    O1 9928   6.256   0.236   2.255  0.2413  0.2128  0.4644
  129ACOH    C1 9929   6.346   0.387   2.097 -0.2255  0.1303 -0.3744
  129ACOH    H1 9930   6.343   0.318   2.012  1.3177 -0.8552  0.3681
  129ACOH    H2 9931   6.440   0.441   2.088 -0.5781  0.9566  0.8179
  129ACOH    H3 9932   6.270   0.462   2.072  0.9991  0.7583 -2.4220
  130ACOH    H4 9933   3.946   5.123   2.687 -1.4970  2.3241  0.6258
  130ACOH    O2 9934   3.997   5.188   2.636 -0.0186  0.1897 -0.6744
  130ACOH    C2 9935   4.127   5.181   2.666  0.3052  0.6140  0.0914
  130ACOH    O1 9936   4.170   5.106   2.747 -0.2200 -0.0890  0.0313
  130ACOH    C1 9937   4.203   5.284   2.595  0.2130  0.5314  0.4751
  130ACOH    H1 9938   4.165   5.383   2.619  1.8571  0.8571  1.7685
  130ACOH    H2 9939   4.190   5.281   2.487  0.0469 -0.1838  0.5120
  130ACOH    H3 9940   4.311   5.286   2.613  0.1455  2.1179  0.7804
  131ACOH    H4 9941   7.368   6.123   4.031  0.2512 -0.1593  0.8359
  131ACOH    O2 9942   7.312   6.045   4.019 -0.3630  0.3692  0.2189
  131ACOH    C2 9943   7.182   6.075   4.047  0.2621  0.0168 -0.8092
  131ACOH    O1 9944   7.151   6.175   4.109  0.1764  0.4825  0.3273
  131ACOH    C1 9945   7.089   5.967   4.012 -0.3760 -0.1290  0.1025
  131ACOH    H1 9946   7.138   5.893   3.950  0.0596 -0.1754  0.4936
  131ACOH    H2 9947   7.011   6.016   3.954 -1.5203 -0.4605  1.3517
  131ACOH    H3 9948   7.042   5.916   4.096 -1.5330 -1.0706 -1.1180
  132ACOH    H4 9949   4.752   1.254   2.610 -1.2491  0.0352 -0.3244
  132ACOH    O2 9950   4.819   1.286   2.546 -0.1843 -0.7209  0.3887
  132ACOH    C2 9951   4.917   1.197   2.529  0.0678  0.1629  0.2070
  132ACOH    O1 9952   4.905   1.077   2.560  0.1988  0.4794  0.1358
  132ACOH    C1 9953   5.047   1.256   2.477 -0.1447 -0.3858 -0.0546
  132ACOH    H1 9954   5.039   1.276   2.370  3.5828 -1.4416 -0.6115
  132ACOH    H2 9955   5.127   1.185   2.502  0.3579  0.1204 -0.2143
  132ACOH    H3 9956   5.055   1.348   2.535 -3.7666  1.6543 -2.5975
  133ACOH    H4 9957   3.869   5.260   1.573 -0.1145 -0.6502  0.4682
  133ACOH    O2 9958   3.934   5.298   1.635  0.5402 -0.3618 -0.3961
  133ACOH    C2 9959   3.895   5.422   1.666  0.7989 -0.0855 -0.0411
  133ACOH    O1 9960   3.788   5.475   1.643  0.4840 -0.0364  0.0416
  133ACOH    C1 9961   3.972   5.476   1.777 -0.7432  0.0883  0.6540
  133ACOH    H1 9962   4.066   5.512   1.734 -0.8959 -0.0082  0.2399
  133ACOH    H2 9963   3.992   5.398   1.851  1.8174 -1.1065 -1.2321
  133ACOH    H3 9964   3.911   5.556   1.819 -1.1453  0.2599 -0.2593
  134ACOH    H4 9965   0.643   3.673   2.383 -0.8995  0.8482  1.9484
  134ACOH    O2 9966   0.548   3.657   2.366 -0.4463 -0.2406  0.3280
  134ACOH    C2 9967   0.545   3.524   2.342 -0.7423 -0.0701 -0.8381
  134ACOH    O1 9968   0.632   3.451   2.317 -0.0699  0.3925  0.1006
  134ACOH    C1 9969   0.405   3.487   2.317 -0.4742 -0.4237  0.3963
  134ACOH    H1 9970   0.351   3.500   2.411 -0.8250 -0.1869  0.1626
  134ACOH    H2 9971   0.408   3.381   2.296 -1.9101 -0.3757 -0.1458
  134ACOH    H3 9972   0.346   3.534   2.238 -0.2329 -0.0904  0.4096
  135ACOH    H4 9973   3.254   7.001   0.134 -2.2925  2.2716 -1.1937
  135ACOH    O2 9974   3.269   7.076   0.194  0.3907  0.1857  0.9009
  135ACOH    C2 9975   3.260   7.034   0.325 -0.3961 -0.8819 -0.7157
  135ACOH    O1 9976   3.248   6.917   0.361  0.0520 -0.3977  0.1299
  135ACOH    C1 9977   3.226   7.137   0.425 -0.6991  0.4846  0.0210
  135ACOH    H1 9978   3.314   7.198   0.444 -2.8482  3.6121  0.3115
  135ACOH    H2 9979   3.199   7.108   0.526 -2.0816  1.6770  0.0105
  135ACOH    H3 9980   3.151   7.207   0.388  0.8383  1.0477 -2.1170
  136ACOH    H4 9981   7.078   0.245   0.807  1.4918  0.6695 -1.6609
  136ACOH    O2 9982   7.053   0.335   0.783  0.1079  0.8413  0.2604
  136ACOH    C2 9983   6.990   0.325   0.667  0.3361  0.4344 -0.6750
  136ACOH    O1 9984   6.942   0.229   0.612 -0.1782  0.2904 -0.1403
  136ACOH    C1 9985   6.967   0.470   0.626 -0.2267  0.0341  0.3414
  136ACOH    H1 9986   7.072   0.497   0.614  0.3761 -2.4607 -0.4049
  136ACOH    H2 9987   6.923   0.528   0.707  0.8390  1.1786  0.0978
  136ACOH    H3 9988   6.903   0.466   0.538  2.8613  0.4072 -1.9766
  137ACOH    H4 9989   7.123   9.830   1.720 -1.5875  0.9335  0.0790
  137ACOH    O2 9990   7.089   9.803   1.807 -0.6175  0.0463  0.1964
  137ACOH    C2 9991   6.960   9.791   1.776 -0.4542 -0.1171 -0.8675
  137ACOH    O1 9992   6.915   9.756   1.669 -0.3664  0.3516 -0.1222
  137ACOH    C1 9993   6.869   9.813   1.889  0.0530 -0.3178  0.4241
  137ACOH    H1 9994   6.884   9.900   1.952 -0.3345  0.3727 -0.4213
  137ACOH    H2 9995   6.883   9.723   1.949 -0.5767  1.1112  2.7773
  137ACOH    H3 9996   6.761   9.812   1.868  0.0282 -0.7553  0.5537
  138ACOH    H4 9997   7.705   2.298   2.300 -1.7258 -2.5007  2.1348
  138ACOH    O2 9998   7.696   2.369   2.365  0.1206 -0.2262 -0.0210
  138ACOH    C2 9999   7.615   2.317   2.464 -0.5095 -0.0515 -0.4397
  138ACOH    O110000   7.616   2.199   2.488 -0.0262  0.6124  0.2816
  138ACOH    C110001   7.579   2.417   2.566 -0.5526  0.6850 -0.1715
  138ACOH    H110002   7.616   2.376   2.659 -1.6448  1.8641  0.7982
  138ACOH    H210003   7.470   2.416   2.579 -0.7426 -1.0627 -1.6492
  138ACOH    H310004   7.612   2.519   2.549  1.5579  0.1088  0.3511
  139ACOH    H410005   7.323   1.569   2.027  1.9026 -0.9466  1.7029
  139ACOH    O210006   7.247   1.565   2.087  0.2571 -0.3333 -0.2652
  139ACOH    C210007   7.293   1.602   2.210 -0.0568  0.2877 -0.3289
  139ACOH    O110008   7.403   1.639   2.234  0.2196  0.2260 -0.0680
  139ACOH    C110009   7.187   1.588   2.314 -0.1130 -0.2550 -0.4956
  139ACOH    H110010   7.226   1.537   2.402  0.8303  0.4176 -0.5170
  139ACOH    H210011   7.094   1.539   2.285  0.4644 -2.4272  1.1779
  139ACOH    H310012   7.164   1.689   2.349 -1.5438 -0.3166 -1.1923
  140ACOH    H410013   2.984   7.669   2.773 -1.0714  1.1340 -0.3081
  140ACOH    O210014   2.937   7.608   2.714 -0.1596 -0.3908  0.5156
  140ACOH    C210015   2.823   7.558   2.773 -0.0882 -0.4594  0.1458
  140ACOH    O110016   2.770   7.606   2.873 -0.0680  0.3914  0.1463
  140ACOH    C110017   2.745   7.476   2.674 -0.2866  1.1899 -1.0178
  140ACOH    H110018   2.780   7.373   2.668 -1.9220  0.7592 -4.7417
  140ACOH    H210019   2.746   7.518   2.573 -1.3605 -1.3444 -2.1353
  140ACOH    H310020   2.640   7.471   2.701 -0.1328 -0.4824 -0.6898
  141ACOH    H410021   8.478   7.939   3.646  0.3042  1.6718 -3.0373
  141ACOH    O210022   8.389   7.911   3.619 -0.1024 -0.1186 -0.0885
  141ACOH    C210023   8.299   7.961   3.705  0.0252 -0.1833  0.1214
  141ACOH    O110024   8.323   8.002   3.820  0.1108 -0.3915 -0.6425
  141ACOH    C110025   8.163   7.914   3.661  0.0063 -0.0579 -0.3095
  141ACOH    H110026   8.098   8.001   3.649  0.2289  0.0584 -0.6724
  141ACOH    H210027   8.135   7.853   3.747  0.2006 -0.3897 -0.4823
  141ACOH    H310028   8.166   7.846   3.577  0.1815 -3.2139  2.1652
  142ACOH    H410029   4.806   6.397   2.750  0.5320 -1.0102  1.1117
  142ACOH    O210030   4.892   6.382   2.706 -0.0432 -0.1899 -0.3272
  142ACOH    C210031   4.874   6.406   2.575 -0.2127  0.2629 -0.0151
  142ACOH    O110032   4.778   6.459   2.517 -0.8225  0.1692 -0.5229
  142ACOH    C110033   4.981   6.346   2.489  0.0871 -0.3470  0.1194
  142ACOH    H110034   5.027   6.425   2.429  0.8522 -1.0483 -0.2259
  142ACOH    H210035   4.946   6.271   2.418 -0.3417 -0.8049  0.8143
  142ACOH    H310036   5.058   6.306   2.555  0.6989  0.1804 -0.2701
  143ACOH    H410037   6.985   9.524   0.186 -1.5380  1.1669  0.9397
  143ACOH    O210038   7.040   9.582   0.130  0.2105 -0.2511  1.1599
  143ACOH    C210039   7.024   9.710   0.175 -0.2683  0.0908 -0.3813
  143ACOH    O110040   6.967   9.750   0.275 -0.2654  0.2109  0.1738
  143ACOH    C110041   7.121   9.800   0.111 -0.3510 -0.3425 -0.7037
  143ACOH    H110042   7.139   9.769   0.008 -2.8966  1.2133 -1.6593
  143ACOH    H210043   7.211   9.790   0.172  0.8199 -0.0107 -2.3385
  143ACOH    H310044   7.081   9.900   0.128 -1.1736 -0.9787  1.2289
  144ACOH    H410045   4.883   1.062   2.944 -0.2875 -2.3738  1.5801
  144ACOH    O210046   4.895   1.098   3.034 -0.7015  0.7904  0.4244
  144ACOH    C210047   4.796   1.189   3.064 -0.1634 -0.1375  0.0557
  144ACOH    O110048   4.714   1.226   2.986  0.8247 -0.0165 -0.1866
  144ACOH    C110049   4.816   1.244   3.203 -0.1902 -0.6519 -0.2419
  144ACOH    H110050   4.743   1.321   3.225  2.1220  1.3391  0.6188
  144ACOH    H210051   4.918   1.281   3.194 -0.3740  0.5260  2.1559
  144ACOH    H310052   4.807   1.162   3.275 -2.2329  0.0944  0.3682
  145ACOH    H410053   6.843   4.152   0.660  3.8859  0.3485 -2.6142
  145ACOH    O210054   6.820   4.240   0.628 -0.0272  0.5388  0.2604
  145ACOH    C210055   6.851   4.240   0.497 -0.9724 -0.5931  0.7638
  145ACOH    O110056   6.907   4.147   0.438 -0.0284  0.1212  0.3363
  145ACOH    C110057   6.793   4.355   0.428  0.3953 -0.2075  0.1340
  145ACOH    H110058   6.746   4.315   0.338 -0.9653 -1.0134  1.1974
  145ACOH    H210059   6.871   4.430   0.414 -0.8247  1.1376  0.4704
  145ACOH    H310060   6.713   4.388   0.493  0.9615  1.0894  0.1928
  146ACOH    H410061   5.067   7.894   0.530 -2.9639 -0.5517 -0.8271
  146ACOH    O210062   5.077   7.952   0.452  0.5506 -0.2023 -0.1928
  146ACOH    C210063   5.063   8.077   0.497  0.0771  0.4687  0.6350
  146ACOH    O110064   5.028   8.113   0.604 -0.4400  0.4416  0.2433
  146ACOH    C110065   5.066   8.169   0.378 -0.2605 -0.0706  0.4815
  146ACOH    H110066   5.140   8.245   0.401 -0.8294  0.6287  0.0201
  146ACOH    H210067   4.971   8.221   0.364 -0.6189 -0.7094  0.5311
  146ACOH    H310068   5.098   8.117   0.287 -4.6822 -0.0367 -1.1940
  147ACOH    H410069   4.946   7.852   3.694  1.2251 -1.4518  3.3603
  147ACOH    O210070   4.890   7.775   3.676 -0.2252  0.1978  0.4117
  147ACOH    C210071   4.848   7.721   3.794  0.3261  0.1396  0.1223
  147ACOH    O110072   4.852   7.774   3.904  0.0647 -0.2389  0.3216
  147ACOH    C110073   4.789   7.585   3.781  0.0885  0.5559  0.5612
  147ACOH    H110074   4.844   7.521   3.712 -1.6472 -0.0498 -0.3166
  147ACOH    H210075   4.690   7.583   3.735  1.7555 -1.0303 -3.1626
  147ACOH    H310076   4.783   7.540   3.879  1.8253  0.8153  0.7932
  148ACOH    H410077   8.409   3.506   0.885 -3.7518  1.1016 -0.8101
  148ACOH    O210078   8.435   3.586   0.837  0.0465  0.3997 -0.1292
  148ACOH    C210079   8.398   3.568   0.705 -1.1773 -0.0475 -0.3807
  148ACOH    O110080   8.360   3.463   0.653  0.1477 -0.2705  0.3773
  148ACOH    C110081   8.458   3.679   0.628 -0.0053 -0.3693 -0.0023
  148ACOH    H110082   8.496   3.759   0.692 -1.6097  1.3204 -1.1013
  148ACOH    H210083   8.392   3.730   0.558 -1.0308 -0.4293  0.9175
  148ACOH    H310084   8.544   3.638   0.574 -0.4320  0.0736 -1.0280
  149ACOH    H410085   7.306   6.657   3.912  0.8156  0.8949  1.1437
  149ACOH    O210086   7.336   6.677   3.822 -0.2515  0.5107  0.6921
  149ACOH    C210087   7.470   6.713   3.824 -0.7187  0.2797  0.5504
  149ACOH    O110088   7.539   6.728   3.923  0.7146 -0.1130 -0.1798
  149ACOH    C110089   7.525   6.712   3.682  0.0829  0.5974  0.2465
  149ACOH    H110090   7.626   6.749   3.672 -1.2082  3.7850 -1.6643
  149ACOH    H210091   7.459   6.780   3.627 -2.7395 -1.3045  1.1262
  149ACOH    H310092   7.517   6.618   3.628 -0.1098  0.4489  0.5314
  150ACOH    H410093   5.003   1.087   2.251 -0.5922 -0.6158 -0.0614
  150ACOH    O210094   5.032   1.013   2.307 -0.2493  0.1238  0.7373
  150ACOH    C210095   5.160   0.979   2.289  0.2355  0.4381  0.7777
  150ACOH    O110096   5.237   1.052   2.230  0.0324  0.4117  0.0051
  150ACOH    C110097   5.199   0.865   2.377  0.2367 -0.2687 -0.0141
  150ACOH    H110098   5.257   0.913   2.456 -0.3123  0.8281 -0.2644
  150ACOH    H210099   5.262   0.797   2.320  0.0695  0.6598 -1.3228
  150ACOH    H310100   5.116   0.812   2.425  0.2667 -1.9023 -1.7268
  151ACOH    H410101   2.463   0.980   0.582 -1.7360 -1.1060 -1.2585
  151ACOH    O210102   2.527   0.936   0.524 -0.1999 -0.1899 -0.2721
  151ACOH    C210103   2.588   0.855   0.609 -0.4077  0.1666  0.6262
  151ACOH    O110104   2.544   0.818   0.715  0.0492  0.9483 -0.2052
  151ACOH    C110105   2.723   0.813   0.577 -0.3349  0.1984  0.2165
  151ACOH    H110106   2.745   0.714   0.618  1.6740  1.0202  1.1650
  151ACOH    H210107   2.797   0.884   0.614 -0.9765  0.2732  1.3785
  151ACOH    H310108   2.720   0.815   0.468  1.1737  0.5748  0.1842
  152ACOH    H410109   2.137   1.528   2.763  1.2073 -0.7026 -1.7456
  152ACOH    O210110   2.049   1.560   2.735  0.6725 -0.5058  0.1370
  152ACOH    C210111   1.983   1.570   2.850 -0.8283  0.4519  0.3558
  152ACOH    O110112   1.992   1.486   2.938  0.5439  0.2804  0.5186
  152ACOH    C110113   1.870   1.660   2.842  0.7341  0.7690 -0.0464
  152ACOH    H110114   1.824   1.664   2.940  1.5454  0.8733  0.3318
  152ACOH    H210115   1.790   1.632   2.773 -0.1881 -0.9006  1.6565
  152ACOH    H310116   1.904   1.760   2.813 -0.9592  1.3260 -0.1783
  153ACOH    H410117   8.457   8.292   3.638  1.2449  2.5318  0.8333
  153ACOH    O210118   8.509   8.253   3.566 -1.1770 -0.5317  0.6527
  153ACOH    C210119   8.425   8.218   3.462  0.7656  1.2967 -0.3069
  153ACOH    O110120   8.310   8.256   3.464  0.0850 -0.2166  0.0039
  153ACOH    C110121   8.490   8.147   3.349  0.6314 -0.1729  0.2791
  153ACOH    H110122   8.510   8.209   3.261 -0.6505 -0.8480 -0.5001
  153ACOH    H210123   8.425   8.069   3.310 -3.2052  2.1872  1.7339
  153ACOH    H310124   8.583   8.102   3.385 -0.1238 -0.7094  1.5405
  154ACOH    H410125   8.947   8.413   3.402  0.9598  1.7271 -0.3084
  154ACOH    O210126   9.025   8.373   3.444 -0.2530 -0.4043  0.0046
  154ACOH    C210127   9.046   8.438   3.554 -0.1313  0.2250 -0.5229
  154ACOH    O110128   8.998   8.552   3.574  0.0417 -0.0964 -0.7607
  154ACOH    C110129   9.167   8.386   3.622 -0.2281 -0.2327 -0.1132
  154ACOH    H110130   9.157   8.382   3.730 -0.5512  0.9189 -0.0893
  154ACOH    H210131   9.238   8.465   3.596 -2.1408  1.1473 -1.2733
  154ACOH    H310132   9.205   8.290   3.587  1.2589  0.1630  0.3649
  155ACOH    H410133   6.216   8.656   3.407 -2.2716  0.4533  0.3944
  155ACOH    O210134   6.202   8.570   3.451 -0.5997  0.0168  0.1399
  155ACOH    C210135   6.070   8.571   3.478  0.4529 -0.1485 -0.0527
  155ACOH    O110136   5.994   8.670   3.470  0.5098 -0.2281  0.2605
  155ACOH    C110137   6.030   8.431   3.506  0.1469 -0.5966  0.1057
  155ACOH    H110138   6.061   8.363   3.426  2.0937 -0.4839  0.7449
  155ACOH    H210139   5.922   8.418   3.517  0.0712  0.4056  0.6039
  155ACOH    H310140   6.080   8.398   3.597 -0.7356  0.3093  0.9341
  156ACOH    H410141   4.907   1.979   1.982 -0.7288 -0.1415  0.2824
  156ACOH    O210142   4.854   1.975   1.901  0.0941 -0.1182 -0.2674
  156ACOH    C210143   4.938   1.979   1.797  0.1102 -0.5022  0.2868
  156ACOH    O110144   5.054   1.942   1.788  0.6462  0.3074  0.4018
  156ACOH    C110145   4.854   1.990   1.679  0.3025 -0.1679  0.8706
  156ACOH    H110146   4.908   1.965   1.588 -2.1227 -0.3967 -0.5416
  156ACOH    H210147   4.808   2.089   1.673 -0.0765 -0.2939  1.6096
  156ACOH    H310148   4.774   1.916   1.687  0.4511 -0.1494  2.7160
  157ACOH    H410149   9.083   8.075   1.663  1.1224 -0.9605  0.1300
  157ACOH    O210150   9.013   8.040   1.720 -0.1463  0.5550 -0.4473
  157ACOH    C210151   8.934   7.961   1.656 -0.6209  1.0162  0.2867
  157ACOH    O110152   8.936   7.938   1.535 -0.0153  0.0388 -0.6883
  157ACOH    C110153   8.825   7.917   1.744 -0.0479  0.1726 -0.3956
  157ACOH    H110154   8.856   7.826   1.794  0.5428  0.8304  0.4673
  157ACOH    H210155   8.735   7.901   1.685 -0.3631  0.5905 -0.0355
  157ACOH    H310156   8.801   7.982   1.828  0.9881  0.7487 -0.5312
  158ACOH    H410157   5.888   8.190   1.713 -1.9779  0.7789  1.4646
  158ACOH    O210158   5.856   8.099   1.720 -0.0963 -0.0490  0.0256
  158ACOH    C210159   5.765   8.108   1.819  0.4173 -0.3890 -0.3171
  158ACOH    O110160   5.697   8.205   1.830 -0.0847  0.0823 -0.0312
  158ACOH    C110161   5.724   7.975   1.867  0.2726  0.3490  0.2367
  158ACOH    H110162   5.670   7.976   1.961 -0.4672 -2.2083 -0.1294
  158ACOH    H210163   5.811   7.910   1.867 -1.8088 -2.5846 -2.1467
  158ACOH    H310164   5.651   7.926   1.803 -0.3102 -1.1588  2.0217
  159ACOH    H410165   7.164   3.429   0.867  0.3033 -0.0580 -2.3456
  159ACOH    O210166   7.124   3.343   0.847 -0.3111 -0.2412 -0.4418
  159ACOH    C210167   7.202   3.244   0.889 -0.1391  0.1169 -0.5934
  159ACOH    O110168   7.309   3.266   0.940 -0.0779 -0.3803 -0.7023
  159ACOH    C110169   7.166   3.110   0.856 -0.4861  0.4966 -1.1902
  159ACOH    H110170   7.059   3.119   0.841 -0.5379  1.8238 -0.1261
  159ACOH    H210171   7.182   3.046   0.943 -1.1183  0.1109 -1.3542
  159ACOH    H310172   7.226   3.065   0.777  1.3830 -1.2242  1.1156
  160ACOH    H410173   6.868   9.889   1.090  0.5975 -1.2004 -0.0412
  160ACOH    O210174   6.806   9.832   1.139 -0.0342 -0.5478 -0.0826
  160ACOH    C210175   6.743   9.747   1.057  0.3790 -0.2045  0.5921
  160ACOH    O110176   6.752   9.753   0.934 -0.1297 -0.4523  0.6731
  160ACOH    C110177   6.648   9.655   1.126  0.5113  0.1864 -0.2132
  160ACOH    H110178   6.688   9.555   1.112  0.1726  0.3074 -2.1863
  160ACOH    H210179   6.549   9.665   1.081 -0.1390 -1.3492  0.8608
  160ACOH    H310180   6.640   9.684   1.231 -0.3321 -1.4374  0.1804
  161ACOH    H410181   6.188   0.587   2.817 -1.5142  0.0504 -0.7094
  161ACOH    O210182   6.178   0.680   2.790  0.5587  0.4734 -0.1345
  161ACOH    C210183   6.296   0.719   2.738  0.6580 -0.0638  0.8256
  161ACOH    O110184   6.395   0.653   2.727 -0.5646 -0.6921 -0.0493
  161ACOH    C110185   6.284   0.865   2.717  0.1346 -0.7993 -0.0129
  161ACOH    H110186   6.368   0.903   2.660 -0.0853 -3.0951 -1.9598
  161ACOH    H210187   6.281   0.919   2.812 -1.2817  0.8484 -0.9638
  161ACOH    H310188   6.191   0.887   2.664 -0.3229  2.7306  2.0984
  162ACOH    H410189   3.726   6.808   0.238  1.0192  0.7962  4.7948
  162ACOH    O210190   3.821   6.789   0.223  0.2819  0.0343  0.1548
  162ACOH    C210191   3.822   6.708   0.116 -0.5999 -0.0133 -0.5061
  162ACOH    O110192   3.725   6.668   0.050 -0.2722  0.0205  0.3480
  162ACOH    C110193   3.961   6.659   0.100 -0.8303  0.3540  1.1382
  162ACOH    H110194   4.026   6.743   0.075  1.8387 -2.1239 -0.5743
  162ACOH    H210195   3.954   6.587   0.019 -0.9397  2.7198 -1.0106
  162ACOH    H310196   4.005   6.604   0.183  1.2889  0.7778  0.3205
  163ACOH    H410197   5.673   0.203   3.254 -0.6819 -0.0974  0.0159
  163ACOH    O210198   5.691   0.282   3.200 -1.1030  0.2705  0.4148
  163ACOH    C210199   5.646   0.237   3.077  0.8483 -0.0600 -0.4672
  163ACOH    O110200   5.561   0.151   3.065  0.1762 -0.1668 -0.3745
  163ACOH    C110201   5.670   0.345   2.974 -0.2336 -0.0388 -0.1339
  163ACOH    H110202   5.769   0.389   2.985  0.4188 -1.6809  0.7342
  163ACOH    H210203   5.589   0.418   2.975 -1.3472 -1.2096 -1.7759
  163ACOH    H310204   5.664   0.301   2.875 -2.8097  0.8250 -0.4018
  164ACOH    H410205   9.913   9.082   1.718 -0.0344  0.0753 -1.2051
  164ACOH    O210206   9.970   9.160   1.727  0.4556 -0.4033 -0.1076
  164ACOH    C210207   9.988   9.181   1.859  0.4265  0.2805 -0.6552
  164ACOH    O110208   9.916   9.152   1.951  0.7151  0.1601 -0.6446
  164ACOH    C110209  10.097   9.286   1.869 -0.0596  0.2429  0.2585
  164ACOH    H110210  10.143   9.311   1.774  2.0321 -2.3254  0.5543
  164ACOH    H210211  10.179   9.235   1.921 -1.8758 -2.0807  0.9740
  164ACOH    H310212  10.060   9.365   1.935 -1.3188 -3.1352  3.8662
  165ACOH    H410213   6.904   1.181   2.695 -0.6128  0.8519 -0.3582
  165ACOH    O210214   6.814   1.144   2.692 -0.4962  0.5145  0.3644
  165ACOH    C210215   6.792   1.077   2.806 -0.1827 -0.5671 -0.7708
  165ACOH    O110216   6.869   1.065   2.902  0.6731  0.6405  0.0994
  165ACOH    C110217   6.652   1.030   2.812  0.4269 -0.3398  0.8469
  165ACOH    H110218   6.576   1.107   2.822  1.7361  1.1943 -0.7413
  165ACOH    H210219   6.629   0.966   2.897 -0.1298  2.4211  2.8546
  165ACOH    H310220   6.632   0.979   2.718 -0.2200 -1.7022  1.6946
  166ACOH    H410221   4.001   4.373   3.997 -0.4189 -0.9386 -0.7597
  166ACOH    O210222   4.092   4.394   3.968 -0.5106  0.2216 -0.2173
  166ACOH    C210223   4.076   4.493   3.871  0.4785 -0.0159  0.7614
  166ACOH    O110224   3.972   4.541   3.838 -0.1541 -0.6324 -0.2133
  166ACOH    C110225   4.192   4.518   3.778  0.2883  0.1002  0.6062
  166ACOH    H110226   4.252   4.427   3.776  0.1709  0.0280 -3.0151
  166ACOH    H210227   4.247   4.598   3.828  0.8891 -1.3336  2.3090
  166ACOH    H310228   4.172   4.554   3.677  1.2142  0.2233  0.4666
  167ACOH    H410229   4.958   1.643   1.543  1.6402  0.1042 -0.4652
  167ACOH    O210230   5.012   1.647   1.624 -0.0845 -0.0496  0.7125
  167ACOH    C210231   5.133   1.652   1.574 -0.1669 -0.2865  0.0687
  167ACOH    O110232   5.160   1.676   1.460 -0.1842 -0.6574 -0.1509
  167ACOH    C110233   5.239   1.644   1.681  0.4285  0.0810 -0.0499
  167ACOH    H110234   5.194   1.607   1.774 -0.1317 -2.2921 -1.2031
  167ACOH    H210235   5.284   1.741   1.698  1.9279 -0.0480 -2.9524
  167ACOH    H310236   5.317   1.577   1.646  0.5051 -0.5967  1.3775
  168ACOH    H410237   4.597   4.073   1.486 -1.4318  3.0102 -3.2588
  168ACOH    O210238   4.677   4.126   1.501  0.1243 -0.0555  0.2916
  168ACOH    C210239   4.666   4.237   1.422  0.4223  0.2810  0.0605
  168ACOH    O110240   4.556   4.280   1.394  0.7428 -0.2417 -0.1787
  168ACOH    C110241   4.796   4.309   1.398  0.3073 -0.8691  0.3421
  168ACOH    H110242   4.867   4.317   1.480  1.2895  3.5350 -0.8514
  168ACOH    H210243   4.781   4.405   1.349 -0.7947 -1.3794 -0.3542
  168ACOH    H310244   4.841   4.243   1.323  1.1011 -3.4777  3.0015
  169ACOH    H410245   5.871   8.042   2.617 -0.0927 -0.3396 -0.3854
  169ACOH    O210246   5.898   7.970   2.557  0.0961 -0.1601 -0.5165
  169ACOH    C210247   5.819   7.865   2.591 -0.3736 -0.6258  0.5784
  169ACOH    O110248   5.721   7.870   2.657 -0.2021  0.4923  0.0835
  169ACOH    C110249   5.866   7.746   2.522 -0.3402  0.1122  0.3585
  169ACOH    H110250   5.964   7.724   2.564 -0.1489 -0.5626 -0.4515
  169ACOH    H210251   5.879   7.775   2.418  0.0997 -0.5284  0.2316
  169ACOH    H310252   5.800   7.661   2.541 -0.4215 -0.1803 -1.1969
  170ACOH    H410253   6.802   9.232   0.689 -0.0268 -2.2450 -0.5000
  170ACOH    O210254   6.713   9.224   0.727 -0.0514  0.8910  0.1874
  170ACOH    C210255   6.687   9.331   0.809  0.2166  0.5622 -0.0971
  170ACOH    O110256   6.762   9.425   0.829  0.2035  0.4617  0.0319
  170ACOH    C110257   6.557   9.320   0.877  1.0120 -0.7839  0.1967
  170ACOH    H110258   6.517   9.220   0.865 -0.5216  0.0138 -1.5062
  170ACOH    H210259   6.495   9.397   0.831 -0.8183 -0.9101  2.3900
  170ACOH    H310260   6.573   9.338   0.983 -2.1511 -1.6168  0.8581
  171ACOH    H410261   7.186   1.092   3.098  2.6263  2.1645 -0.7241
  171ACOH    O210262   7.185   1.102   3.195  0.3262  0.3454 -0.5060
  171ACOH    C210263   7.294   1.039   3.227  0.0941  0.2824 -0.8790
  171ACOH    O110264   7.353   0.959   3.159  0.0282  0.3243  0.4489
  171ACOH    C110265   7.312   1.056   3.372  0.1920 -0.3973 -0.3344
  171ACOH    H110266   7.372   1.145   3.389 -1.4710  0.4616  1.2252
  171ACOH    H210267   7.362   0.970   3.417 -2.9304 -0.8328  2.5639
  171ACOH    H310268   7.215   1.067   3.420  1.3014  0.5983  1.7597
  172ACOH    H410269   7.436   7.750   0.252  0.2508  0.1658  0.7003
  172ACOH    O210270   7.454   7.655   0.257 -0.2793  0.0644  0.8066
  172ACOH    C210271   7.542   7.626   0.157  0.8960 -0.3183 -0.2648
  172ACOH    O110272   7.569   7.697   0.062  0.0367 -0.1008  0.5833
  172ACOH    C110273   7.604   7.491   0.172  0.1806  0.2938 -0.4052
  172ACOH    H110274   7.538   7.405   0.163  1.0350 -0.5144  0.8062
  172ACOH    H210275   7.642   7.477   0.274 -1.7608 -4.4405 -0.2147
  172ACOH    H310276   7.687   7.480   0.103 -0.2355 -0.6381 -0.7604
  173ACOH    H410277   6.037   9.633   3.655 -0.9830  1.4515  1.7219
  173ACOH    O210278   6.116   9.615   3.709 -0.2103  0.2523  0.2261
  173ACOH    C210279   6.204   9.716   3.708  0.6489  0.0483 -0.0942
  173ACOH    O110280   6.198   9.813   3.634 -0.8824 -0.5562  0.0784
  173ACOH    C110281   6.324   9.696   3.792 -0.3343  0.4352  0.1525
  173ACOH    H110282   6.415   9.667   3.740 -0.6553  0.8744 -0.6699
  173ACOH    H210283   6.296   9.610   3.853  1.2652 -1.0108 -1.1052
  173ACOH    H310284   6.338   9.782   3.859  0.8460  0.9392 -0.7384
  174ACOH    H410285   7.838   4.373   0.192 -2.2428 -0.8413 -0.6895
  174ACOH    O210286   7.849   4.450   0.133 -0.1675 -0.3573  0.2891
  174ACOH    C210287   7.729   4.473   0.072 -0.0912 -0.8073 -0.3897
  174ACOH    O110288   7.649   4.386   0.067 -0.3894  0.0339  0.4842
  174ACOH    C110289   7.733   4.595  -0.014  0.2773 -0.3484  0.9837
  174ACOH    H110290   7.734   4.571  -0.120  1.6636  1.2768  0.5918
  174ACOH    H210291   7.815   4.662   0.013  0.2512  0.0042  0.1993
  174ACOH    H310292   7.644   4.649   0.018  0.3007  0.3951 -0.1948
  175ACOH    H410293   4.303   6.936   2.954 -0.5926 -0.6398  0.8667
  175ACOH    O210294   4.321   6.972   3.042 -0.0541  0.3205  0.3720
  175ACOH    C210295   4.397   6.890   3.118 -0.1042 -1.5994 -1.2032
  175ACOH    O110296   4.393   6.768   3.119  0.2890  0.0144 -1.2361
  175ACOH    C110297   4.457   6.960   3.240  0.5159  0.9020 -0.0421
  175ACOH    H110298   4.566   6.962   3.232  0.3441 -0.5271 -4.2430
  175ACOH    H210299   4.430   6.910   3.333 -0.8529 -0.5767 -1.1967
  175ACOH    H310300   4.419   7.062   3.247  2.1274  1.5707 -0.7254
  176ACOH    H410301   7.569   7.857   3.690  0.7698 -0.0559 -0.3316
  176ACOH    O210302   7.533   7.786   3.634 -0.0668  0.0681  0.0433
  176ACOH    C210303   7.638   7.702   3.604 -0.7208  0.1726  0.5429
  176ACOH    O110304   7.744   7.698   3.669 -0.2883  0.2926  0.3945
  176ACOH    C110305   7.592   7.588   3.523  0.4130 -0.1534 -0.5907
  176ACOH    H110306   7.508   7.625   3.463  1.0490  1.9847 -0.2072
  176ACOH    H210307   7.566   7.511   3.595  1.5524  0.6486  0.6884
  176ACOH    H310308   7.671   7.541   3.466  1.4234  0.8004  0.0036
  177ACOH    H410309   4.033   4.655   3.480  0.9435  0.0281  0.0598
  177ACOH    O210310   4.040   4.708   3.561  0.3695 -0.2820  0.3179
  177ACOH    C210311   3.918   4.759   3.567 -0.4053 -0.1844  0.2604
  177ACOH    O110312   3.825   4.754   3.486  0.2041 -0.7678 -0.0862
  177ACOH    C110313   3.908   4.858   3.681  0.0645 -0.0555  0.3260
  177ACOH    H110314   3.831   4.933   3.666 -0.1626 -0.6409 -1.5753
  177ACOH    H210315   4.009   4.900   3.683  0.2243 -0.4749  2.3342
  177ACOH    H310316   3.898   4.806   3.777  0.7532 -0.6263  0.1042
  178ACOH    H410317   2.809   2.268   3.464  1.1260  0.6479  0.6331
  178ACOH    O210318   2.863   2.223   3.396 -0.1842 -0.2067  0.1385
  178ACOH    C210319   2.877   2.093   3.430 -0.3928 -0.5648  0.0170
  178ACOH    O110320   2.791   2.026   3.478  0.4661  0.6021  0.3099
  178ACOH    C110321   3.014   2.046   3.392 -0.6500 -0.6515 -0.1090
  178ACOH    H110322   3.015   1.939   3.374 -1.0146 -0.3692 -1.9996
  178ACOH    H210323   3.086   2.081   3.466 -0.0070 -2.1372 -0.0215
  178ACOH    H310324   3.047   2.098   3.302  1.8660 -0.7872  0.6938
  179ACOH    H410325   8.268   3.202   3.442  1.3011 -2.7676  1.4525
  179ACOH    O210326   8.179   3.165   3.435 -0.0001  0.4164  0.1275
  179ACOH    C210327   8.096   3.277   3.436 -1.1441 -0.2712  0.3251
  179ACOH    O110328   8.129   3.390   3.442  0.1459 -0.0419 -0.0482
  179ACOH    C110329   7.956   3.237   3.471  0.0015 -0.3019 -0.2374
  179ACOH    H110330   7.906   3.190   3.386 -0.4566 -0.1002 -0.0778
  179ACOH    H210331   7.894   3.321   3.503 -0.3650 -0.0242 -1.6374
  179ACOH    H310332   7.954   3.159   3.547 -0.8735  1.3423  1.4541
  180ACOH    H410333   7.263   8.951   0.307 -0.2931  0.1976 -0.2459
  180ACOH    O210334   7.274   9.001   0.224  0.2352  0.2094 -0.1724
  180ACOH    C210335   7.400   8.997   0.190  0.9570  1.1673 -0.0158
  180ACOH    O110336   7.503   8.962   0.247 -0.4567  0.1884  0.6500
  180ACOH    C110337   7.417   9.046   0.055 -0.4488  0.1564 -0.6486
  180ACOH    H110338   7.519   9.070   0.025  0.6336 -1.4735  1.5419
  180ACOH    H210339   7.347   9.129   0.045 -4.2163 -2.7442  0.3722
  180ACOH    H310340   7.392   8.970  -0.019 -0.0601 -0.7775  0.1681
  181ACOH    H410341   1.015   7.718   0.564  1.5631  0.0706 -0.5921
  181ACOH    O210342   1.016   7.804   0.518  0.7554  0.4347  0.0535
  181ACOH    C210343   0.905   7.873   0.555  0.1388  0.3136  0.0659
  181ACOH    O110344   0.798   7.823   0.588 -0.5639 -0.7452 -0.3702
  181ACOH    C110345   0.902   8.020   0.541 -0.6838  0.1336 -0.0243
  181ACOH    H110346   0.841   8.071   0.615 -0.3669  1.1278 -0.4415
  181ACOH    H210347   0.879   8.061   0.442 -1.6828  0.0347  0.1584
  181ACOH    H310348   1.002   8.051   0.569  1.8338 -4.5334 -3.1053
  182ACOH    H410349   7.211   2.811   0.083 -0.8550 -0.0832 -0.2613
  182ACOH    O210350   7.114   2.808   0.092 -0.7910 -0.2744  0.4052
  182ACOH    C210351   7.076   2.676   0.064 -0.4301 -0.6354 -0.3686
  182ACOH    O110352   7.143   2.597   0.001  0.3413 -0.5045  0.2377
  182ACOH    C110353   6.935   2.650   0.108 -0.5865 -0.0867  0.0809
  182ACOH    H110354   6.946   2.576   0.188  3.0104  0.2186 -0.0473
  182ACOH    H210355   6.878   2.609   0.024 -0.8637  1.3458 -0.4421
  182ACOH    H310356   6.878   2.733   0.148  0.5480 -0.4076  2.4183
  183ACOH    H410357   1.147   9.425   2.879 -0.2968  0.2111  0.4018
  183ACOH    O210358   1.175   9.388   2.965 -0.4185 -0.1663  0.2798
  183ACOH    C210359   1.306   9.414   2.948  0.0966 -0.3521  0.0088
  183ACOH    O110360   1.349   9.483   2.859  0.2637 -0.7378  0.0225
  183ACOH    C110361   1.377   9.336   3.054 -0.0782 -0.1645 -0.2822
  183ACOH    H110362   1.328   9.244   3.083  1.5859 -0.8661  0.3392
  183ACOH    H210363   1.392   9.390   3.148  1.3344 -1.9322  0.5408
  183ACOH    H310364   1.474   9.308   3.012 -0.2692  0.3020 -1.0601
  184ACOH    H410365   6.479   9.561   3.440  0.2010  0.6049  1.0084
  184ACOH    O210366   6.531   9.515   3.508 -0.2883 -0.6670  0.5461
  184ACOH    C210367   6.464   9.429   3.587  0.3609 -0.0116 -0.0938
  184ACOH    O110368   6.342   9.419   3.605  0.2796  0.7542  0.2129
  184ACOH    C110369   6.557   9.332   3.651 -0.0909 -0.0485 -0.4551
  184ACOH    H110370   6.596   9.267   3.573 -0.4645  0.9315 -1.4704
  184ACOH    H210371   6.513   9.267   3.728  0.1948 -0.3394 -0.5361
  184ACOH    H310372   6.635   9.395   3.693  0.7178 -1.1511 -0.2861
  185ACOH    H410373   7.534   3.231   3.942  0.1667 -0.7328  0.4093
  185ACOH    O210374   7.536   3.324   3.916 -0.2178 -0.8652 -0.1091
  185ACOH    C210375   7.525   3.398   4.025  0.1636  0.2605  0.0258
  185ACOH    O110376   7.474   3.359   4.126 -0.1784 -0.4518 -0.0147
  185ACOH    C110377   7.573   3.537   3.999  0.6653  0.0434  0.0239
  185ACOH    H110378   7.675   3.543   3.962  0.4222  1.0837 -0.4967
  185ACOH    H210379   7.564   3.593   4.092 -1.0470 -0.1521 -0.0176
  185ACOH    H310380   7.509   3.586   3.926  2.4511  2.3513 -0.0695
  186ACOH    H410381   2.757   8.424   0.754  0.5436  1.8372 -0.2034
  186ACOH    O210382   2.824   8.401   0.821 -0.0214 -0.5856 -0.4137
  186ACOH    C210383   2.946   8.411   0.762 -0.2584 -0.1333 -0.3721
  186ACOH    O110384   2.979   8.499   0.684  0.1319  0.0531 -0.6355
  186ACOH    C110385   3.039   8.329   0.844 -0.2751 -0.4010  0.6756
  186ACOH    H110386   3.111   8.381   0.907 -0.3111 -0.3882  0.7055
  186ACOH    H210387   3.101   8.269   0.777  0.6364 -0.4771  1.5658
  186ACOH    H310388   2.982   8.268   0.915  2.0258 -3.7563 -0.2306
  187ACOH    H410389   6.865   9.095   0.064 -1.8274 -0.6790 -0.3113
  187ACOH    O210390   6.886   9.006   0.097 -0.0875 -0.1615  0.0556
  187ACOH    C210391   6.998   8.963   0.033  0.2658 -1.0368 -0.1974
  187ACOH    O110392   7.045   9.014  -0.067  0.2182  0.2963  0.2356
  187ACOH    C110393   7.044   8.829   0.078 -0.6077 -0.7061 -0.1991
  187ACOH    H110394   7.153   8.827   0.068 -0.4452  1.4369  0.9306
  187ACOH    H210395   7.002   8.750   0.016 -1.1094  0.4257 -1.3200
  187ACOH    H310396   7.012   8.806   0.180 -0.5294 -1.8015 -0.4173
  188ACOH    H410397   4.315   6.993   3.618  0.5136 -0.8750 -0.2604
  188ACOH    O210398   4.367   7.039   3.687  0.3850  0.1862 -0.8616
  188ACOH    C210399   4.431   7.141   3.624  0.5436 -0.4292  0.5636
  188ACOH    O110400   4.409   7.176   3.512  0.6247  0.5804  0.1124
  188ACOH    C110401   4.527   7.208   3.714 -0.0797  0.2974 -0.0061
  188ACOH    H110402   4.479   7.280   3.779 -0.1844 -1.5355  2.0286
  188ACOH    H210403   4.603   7.257   3.653 -1.9225  1.9867 -1.0073
  188ACOH    H310404   4.570   7.127   3.773 -1.6752 -0.4860  0.1106
  189ACOH    H410405   6.954   8.917   3.840  0.8628  0.7487 -0.6360
  189ACOH    O210406   6.942   8.830   3.798  0.7828  0.2782  0.3411
  189ACOH    C210407   7.000   8.829   3.676  0.2400 -0.3332 -0.7020
  189ACOH    O110408   7.046   8.919   3.613 -0.3715 -0.2079  0.0735
  189ACOH    C110409   7.016   8.688   3.630 -0.3107  0.0333 -0.0607
  189ACOH    H110410   6.970   8.674   3.532 -0.2838  0.2595 -0.1049
  189ACOH    H210411   6.972   8.612   3.695  2.4437 -2.3389 -0.8441
  189ACOH    H310412   7.124   8.671   3.632  0.2787  2.9024 -3.4982
  190ACOH    H410413   0.748   8.663   3.190 -1.4804 -0.6159 -1.5851
  190ACOH    O210414   0.680   8.717   3.233  0.5211  0.5008  0.2975
  190ACOH    C210415   0.586   8.640   3.296  0.4143 -0.4974 -0.2248
  190ACOH    O110416   0.576   8.518   3.301 -0.1134 -0.9016 -0.1204
  190ACOH    C110417   0.514   8.721   3.395  0.7944  0.0998 -0.2038
  190ACOH    H110418   0.468   8.663   3.474  0.1281  1.2192  0.2504
  190ACOH    H210419   0.452   8.784   3.331  0.1247  0.3381  0.6683
  190ACOH    H310420   0.580   8.791   3.447 -2.3600  1.4781  2.1534
  191ACOH    H410421   7.253   1.663   3.232  0.0128 -1.4743  0.8889
  191ACOH    O210422   7.170   1.620   3.208 -0.2735 -0.1821 -0.4924
  191ACOH    C210423   7.155   1.626   3.072 -0.5007  0.1251  1.0332
  191ACOH    O110424   7.235   1.673   2.993 -0.0128 -0.4550  0.1059
  191ACOH    C110425   7.032   1.558   3.023 -0.3546  0.3177 -0.1293
  191ACOH    H110426   6.969   1.546   3.111  1.6427  1.3977  1.4809
  191ACOH    H210427   7.062   1.462   2.980  0.5207 -0.0898  1.3431
  191ACOH    H310428   6.984   1.622   2.950 -1.9903  0.4191  1.0078
  192ACOH    H410429   7.475   8.413   1.944  0.9704 -1.2294  0.5371
  192ACOH    O210430   7.537   8.417   1.869  0.1774 -0.6801 -0.1070
  192ACOH    C210431   7.476   8.386   1.751 -0.0741  0.4133  0.7152
  192ACOH    O110432   7.363   8.352   1.731  0.3453 -0.0584  0.2012
  192ACOH    C110433   7.562   8.412   1.633 -0.1394  0.0662  0.4295
  192ACOH    H110434   7.526   8.363   1.542 -0.7313 -1.9438  1.7089
  192ACOH    H210435   7.656   8.360   1.646  0.0454  0.3134  0.0901
  192ACOH    H310436   7.591   8.517   1.624 -0.6301  0.0055 -2.6092
  193ACOH    H410437   7.908   7.905   1.311  0.9952  0.7871 -1.1445
  193ACOH    O210438   7.840   7.971   1.289  0.4747  0.5074 -0.3781
  193ACOH    C210439   7.778   7.925   1.183 -0.8179  0.2068 -0.6958
  193ACOH    O110440   7.828   7.859   1.097  0.2020  0.1947  0.2126
  193ACOH    C110441   7.650   7.992   1.149  0.0559 -0.0724  0.4027
  193ACOH    H110442   7.667   8.052   1.059 -3.1375 -0.5321 -0.5572
  193ACOH    H210443   7.626   8.057   1.233 -0.3004  1.4302 -0.8338
  193ACOH    H310444   7.570   7.920   1.135  0.3932  0.0309 -2.5351
  194ACOH    H410445   3.978   1.023   2.433  0.5842 -2.1113 -2.0614
  194ACOH    O210446   3.987   0.965   2.510 -1.0981  0.0412 -0.1537
  194ACOH    C210447   4.113   0.974   2.551  0.1767  0.5657 -0.1574
  194ACOH    O110448   4.213   1.026   2.498 -1.1056  0.7126 -0.4758
  194ACOH    C110449   4.117   0.878   2.665 -0.4949  0.4895  0.0760
  194ACOH    H110450   4.180   0.915   2.746 -1.5819 -1.2143  1.7520
  194ACOH    H210451   4.155   0.779   2.642 -1.4395  0.1184  0.0748
  194ACOH    H310452   4.020   0.854   2.709 -0.0169 -1.4136  0.1499
  195ACOH    H410453   2.393   2.651   1.743 -0.4647 -1.2692  1.5067
  195ACOH    O210454   2.403   2.567   1.696  0.5627 -0.0533 -0.5380
  195ACOH    C210455   2.449   2.620   1.588 -0.3211 -0.5180 -0.4430
  195ACOH    O110456   2.532   2.708   1.582  0.0895  0.0763 -0.4441
  195ACOH    C110457   2.420   2.533   1.472  0.7394  0.9075  0.3271
  195ACOH    H110458   2.515   2.489   1.443  0.4396  0.2980  0.2470
  195ACOH    H210459   2.370   2.593   1.396  0.0295  0.1979  0.2201
  195ACOH    H310460   2.359   2.448   1.502 -0.8811  2.1862  0.7431
  196ACOH    H410461   4.061   3.647   1.646 -0.2238  0.9871  1.6778
  196ACOH    O210462   4.155   3.629   1.666  0.0378  0.2538 -0.0889
  196ACOH    C210463   4.218   3.750   1.645  0.5005  0.6458 -0.0343
  196ACOH    O110464   4.171   3.837   1.581 -0.0157 -0.6353  0.5541
  196ACOH    C110465   4.339   3.760   1.724 -0.2324 -0.0644 -0.2136
  196ACOH    H110466   4.346   3.681   1.798 -1.0342  0.4941  0.4798
  196ACOH    H210467   4.341   3.851   1.784 -0.3571 -1.0399  1.2949
  196ACOH    H310468   4.426   3.756   1.659  1.2682  0.1728  1.7411
  197ACOH    H410469   7.982   5.435   1.489 -2.6530 -1.1648  0.3020
  197ACOH    O210470   7.991   5.465   1.581  0.6290 -0.7170 -0.1147
  197ACOH    C210471   8.025   5.595   1.574 -0.2484 -0.1809 -0.1592
  197ACOH    O110472   8.119   5.640   1.505  0.0342 -0.9190  0.1714
  197ACOH    C110473   7.973   5.677   1.683 -0.0348 -0.0514 -0.0812
  197ACOH    H110474   7.977   5.627   1.780 -1.0096  0.5353  0.2698
  197ACOH    H210475   7.869   5.708   1.674  0.5364  2.6294  2.0266
  197ACOH    H310476   8.035   5.765   1.703  1.0825 -0.5863 -1.1602
  198ACOH    H410477   8.154   4.525   0.275  1.0227 -1.2612 -0.0245
  198ACOH    O210478   8.190   4.604   0.230 -0.3072 -0.6326 -0.0193
  198ACOH    C210479   8.325   4.599   0.246  0.4322 -0.4862  0.1366
  198ACOH    O110480   8.386   4.495   0.256  0.3602 -0.4247 -0.2768
  198ACOH    C110481   8.380   4.733   0.220  0.1780  0.1863  0.0137
  198ACOH    H110482   8.488   4.739   0.235  0.3007 -2.7105  0.5282
  198ACOH    H210483   8.320   4.801   0.281  0.0963  0.8955 -0.8452
  198ACOH    H310484   8.357   4.755   0.116 -1.9176  1.9085  0.8034
  199ACOH    H410485   8.296   1.864   1.663  0.0582 -1.9078 -0.0264
  199ACOH    O210486   8.391   1.877   1.680 -0.2688  0.3043  0.2295
  199ACOH    C210487   8.455   1.771   1.632 -0.0493 -0.2647 -0.1482
  199ACOH    O110488   8.406   1.665   1.598 -0.1152 -0.3932  0.0380
  199ACOH    C110489   8.601   1.792   1.625 -0.6252 -0.1635 -0.4094
  199ACOH    H110490   8.639   1.789   1.523  1.1872 -0.4825  0.2502
  199ACOH    H210491   8.642   1.710   1.684 -2.4159 -0.4621  0.4600
  199ACOH    H310492   8.630   1.890   1.664  0.2438 -1.1195  1.4614
  200ACOH    H410493   8.109   4.705   0.534 -0.2569 -0.3080  1.4619
  200ACOH    O210494   8.020   4.679   0.506 -0.2832  0.9312  0.3487
  200ACOH    C210495   7.962   4.786   0.448 -0.4362 -0.0359 -0.4109
  200ACOH    O110496   7.978   4.897   0.486  0.1299  0.1455  0.1496
  200ACOH    C110497   7.837   4.754   0.381  0.2300  0.4444 -0.0371
  200ACOH    H110498   7.773   4.698   0.449  0.3453  1.9404  1.3396
  200ACOH    H210499   7.859   4.699   0.290 -0.2834  2.4488 -1.4033
  200ACOH    H310500   7.778   4.842   0.355 -0.9686 -0.0758  0.8685
  201ACOH    H410501   9.779   9.850   2.481  1.0161  2.0278  0.5061
  201ACOH    O210502   9.705   9.886   2.430  0.2611 -0.2736 -0.1131
  201ACOH    C210503   9.642   9.979   2.508  0.0316  0.5500  0.2982
  201ACOH    O110504   9.661   9.995   2.628 -0.6153  0.3865  0.1907
  201ACOH    C110505   9.546  10.043   2.418 -0.3131 -0.3043  0.3557
  201ACOH    H110506   9.612  10.087   2.343 -0.6015 -0.9736 -0.3088
  201ACOH    H210507   9.503  10.124   2.476  0.0544 -0.3605  0.7116
  201ACOH    H310508   9.477   9.974   2.368  0.2163 -1.2771  0.9653
  202ACOH    H410509   3.533   3.523   3.730  0.2444  0.3559 -1.6830
  202ACOH    O210510   3.536   3.613   3.767  0.6052 -0.1271 -0.5103
  202ACOH    C210511   3.663   3.647   3.773 -0.2638  0.4773  0.2631
  202ACOH    O110512   3.757   3.602   3.706  0.0590  0.1503 -0.0286
  202ACOH    C110513   3.702   3.765   3.854  0.9873  1.0719  0.0620
  202ACOH    H110514   3.720   3.847   3.784 -1.7004  1.1618 -0.5535
  202ACOH    H210515   3.789   3.741   3.915 -0.4668  0.1585  1.8261
  202ACOH    H310516   3.612   3.784   3.912 -1.1698 -0.8580 -2.5324
  203ACOH    H410517   7.085   3.603   0.168 -0.2079 -2.5897  1.0865
  203ACOH    O210518   6.999   3.644   0.185  0.5633 -0.4903 -0.0007
  203ACOH    C210519   7.012   3.771   0.234  0.1047  0.4386 -0.1247
  203ACOH    O110520   7.119   3.812   0.274  0.2024  0.2619 -0.3635
  203ACOH    C110521   6.883   3.842   0.254  0.1366  0.3683  0.0997
  203ACOH    H110522   6.824   3.763   0.298  1.2885 -0.6042 -0.0740
  203ACOH    H210523   6.842   3.871   0.157 -1.6953 -1.9905  0.1239
  203ACOH    H310524   6.886   3.925   0.324  1.8059  0.3653  0.0603
  204ACOH    H410525   4.878   7.868   2.031  0.0822  0.0703  0.3035
  204ACOH    O210526   4.917   7.887   1.944 -0.6768  0.0959 -0.0300
  204ACOH    C210527   4.833   7.965   1.872  1.2476 -0.0680  0.4829
  204ACOH    O110528   4.731   8.016   1.916 -0.2042 -0.2501  0.3565
  204ACOH    C110529   4.885   8.007   1.740  0.0533 -0.2023 -0.2981
  204ACOH    H110530   4.820   8.036   1.657 -0.8232  0.1726  0.5117
  204ACOH    H210531   4.947   7.923   1.708 -1.5228 -1.4417 -0.1250
  204ACOH    H310532   4.947   8.095   1.761  0.9823 -1.1317  0.8608
  205ACOH    H410533   7.379   8.655   0.122 -0.0748  1.3535  0.0987
  205ACOH    O210534   7.307   8.633   0.184  0.2216 -0.1127 -0.0758
  205ACOH    C210535   7.229   8.568   0.092 -0.5275  0.4502 -0.2262
  205ACOH    O110536   7.217   8.590  -0.028  0.0386  0.5759 -0.5136
  205ACOH    C110537   7.135   8.480   0.173 -0.2434 -0.0870  0.4054
  205ACOH    H110538   7.053   8.538   0.216 -1.0392 -0.2671 -0.8512
  205ACOH    H210539   7.191   8.430   0.251  0.9930  2.3040  1.1098
  205ACOH    H310540   7.088   8.398   0.119  0.8054 -0.6371  0.3390
  206ACOH    H410541   6.324   7.944   2.557 -0.9021  0.1447  2.4063
  206ACOH    O210542   6.335   7.847   2.554 -0.7442  0.2106  0.2045
  206ACOH    C210543   6.470   7.827   2.567 -0.4072  0.2947  0.1062
  206ACOH    O110544   6.562   7.899   2.589  0.2751 -0.4005 -0.2989
  206ACOH    C110545   6.497   7.684   2.530 -0.1831  0.3806  0.6091
  206ACOH    H110546   6.425   7.619   2.578  0.4913 -0.1123  0.9534
  206ACOH    H210547   6.594   7.657   2.573 -0.5478 -0.8803  0.6569
  206ACOH    H310548   6.508   7.669   2.423  1.6272  1.2820  0.6332
  207ACOH    H410549   7.993   3.105   1.980  0.7751 -1.3882  2.0801
  207ACOH    O210550   7.904   3.091   2.018 -0.1056  0.0424  0.6263
  207ACOH    C210551   7.918   3.168   2.121  0.5683  0.0222  0.4833
  207ACOH    O110552   7.958   3.284   2.107 -0.4725 -0.2034  0.0094
  207ACOH    C110553   7.819   3.132   2.225 -0.0365  0.4481  0.3200
  207ACOH    H110554   7.817   3.026   2.250 -2.5769 -0.0015 -1.5397
  207ACOH    H210555   7.721   3.160   2.185 -0.4594  2.1220  2.4516
  207ACOH    H310556   7.850   3.183   2.316 -1.5273 -0.5207  1.3914
  208ACOH    H410557   5.378   0.052   2.491 -1.1304  1.7637  1.9380
  208ACOH    O210558   5.473   0.069   2.500 -0.6128  0.0052  0.0962
  208ACOH    C210559   5.487   0.190   2.560 -0.1293  0.0842 -0.0160
  208ACOH    O110560   5.421   0.203   2.664  0.4316  0.2568  0.5711
  208ACOH    C110561   5.586   0.284   2.510  0.3999 -0.0366 -0.4506
  208ACOH    H110562   5.538   0.371   2.467 -0.1522 -0.2535 -0.2777
  208ACOH    H210563   5.643   0.237   2.429  2.3654  1.7075 -0.1086
  208ACOH    H310564   5.653   0.326   2.585 -0.5911  0.1824  0.3126
  209ACOH    H410565   7.989   3.826   3.867  0.6787  0.2057  0.8413
  209ACOH    O210566   7.980   3.894   3.935  0.4526  0.5148  0.5091
  209ACOH    C210567   7.953   4.014   3.884 -0.2597 -0.9761 -0.1423
  209ACOH    O110568   7.995   4.055   3.774  0.1116  0.0763 -0.6355
  209ACOH    C110569   7.901   4.107   3.986  0.2847  0.1382 -0.3480
  209ACOH    H110570   7.936   4.090   4.088 -0.5953 -0.1752 -0.0940
  209ACOH    H210571   7.795   4.083   3.978  0.3865 -0.0750 -1.1146
  209ACOH    H310572   7.913   4.213   3.965  0.0096 -0.1593 -2.1493
  210ACOH    H410573   4.797   7.644   3.317  0.5276  1.1411  1.6710
  210ACOH    O210574   4.834   7.573   3.371  0.1547 -0.3273  0.0442
  210ACOH    C210575   4.973   7.588   3.367  0.9932  0.0612 -0.0039
  210ACOH    O110576   5.032   7.672   3.303 -0.3985 -1.0154 -0.2769
  210ACOH    C110577   5.056   7.513   3.465  0.2101  0.7995  0.4969
  210ACOH    H110578   5.133   7.455   3.413  1.3166  2.1768  0.5700
  210ACOH    H210579   4.991   7.441   3.514 -0.7785  1.2884 -0.1014
  210ACOH    H310580   5.095   7.585   3.537  0.2435 -0.1399  1.4267
  211ACOH    H410581   7.458   1.376   1.510 -1.2356 -1.3270  0.3075
  211ACOH    O210582   7.380   1.411   1.463 -0.1402  0.6829 -0.0804
  211ACOH    C210583   7.386   1.547   1.463  0.0539  0.8611  1.1519
  211ACOH    O110584   7.485   1.614   1.473  0.4846  0.4917 -0.1499
  211ACOH    C110585   7.258   1.606   1.419  0.3369  0.7037 -0.5018
  211ACOH    H110586   7.210   1.540   1.347 -0.4049  1.5062 -0.7452
  211ACOH    H210587   7.259   1.710   1.386 -2.0576  0.6616 -0.7437
  211ACOH    H310588   7.188   1.613   1.502  0.4190 -0.5006 -0.3181
  212ACOH    H410589   5.174   7.619   2.323  0.2293 -0.8478 -0.2368
  212ACOH    O210590   5.222   7.570   2.392  0.4978  0.1270  0.2780
  212ACOH    C210591   5.152   7.459   2.428 -0.2494 -0.5785  0.2294
  212ACOH    O110592   5.061   7.405   2.369 -0.0815 -0.3930  0.1511
  212ACOH    C110593   5.226   7.397   2.540 -0.1294 -0.3433  0.0380
  212ACOH    H110594   5.170   7.325   2.600  2.0750 -0.7127  1.7298
  212ACOH    H210595   5.256   7.471   2.614 -0.4925 -0.9167  0.7652
  212ACOH    H310596   5.310   7.337   2.503  0.4514 -0.1363  0.9948
  213ACOH    H410597   1.805   2.126   0.266  1.8621  0.6266  0.8359
  213ACOH    O210598   1.790   2.222   0.262  0.3652  0.3772  0.4637
  213ACOH    C210599   1.851   2.267   0.154 -0.0613  0.2454 -0.1843
  213ACOH    O110600   1.882   2.197   0.060  0.1060  0.1388  0.1244
  213ACOH    C110601   1.878   2.418   0.158  0.2507 -0.5100 -0.0501
  213ACOH    H110602   1.983   2.429   0.130  0.0006 -0.9286 -1.2197
  213ACOH    H210603   1.861   2.463   0.255  2.8828  0.8713 -0.1783
  213ACOH    H310604   1.815   2.461   0.080  0.8840  1.6423  0.6060
  214ACOH    H410605   0.361   8.194   1.778 -0.6065  0.1033  0.7565
  214ACOH    O210606   0.279   8.231   1.742 -0.1989  0.0815 -0.1936
  214ACOH    C210607   0.285   8.362   1.720 -0.6001 -0.0739  0.3894
  214ACOH    O110608   0.388   8.421   1.750 -0.6703 -0.1885  0.4002
  214ACOH    C110609   0.166   8.422   1.664  0.2056  0.4361  0.0509
  214ACOH    H110610   0.098   8.472   1.733  0.3766  0.8497 -0.0795
  214ACOH    H210611   0.112   8.337   1.622 -1.5216  0.4700  2.1161
  214ACOH    H310612   0.193   8.478   1.575 -0.9705  0.1653 -0.5000
  215ACOH    H410613   8.148   8.276   1.632 -0.2284  1.7727  0.9335
  215ACOH    O210614   8.061   8.243   1.659  0.2323 -0.5597 -0.3190
  215ACOH    C210615   8.087   8.120   1.707 -0.0248 -0.0371 -0.5146
  215ACOH    O110616   8.191   8.058   1.707  0.3608  0.1371 -0.3384
  215ACOH    C110617   7.959   8.059   1.747 -0.0676  0.0737  0.0416
  215ACOH    H110618   7.932   8.121   1.833 -0.0039  1.5199 -0.9614
  215ACOH    H210619   7.961   7.955   1.778 -0.6515  0.2426  0.6457
  215ACOH    H310620   7.891   8.080   1.665 -0.8055  2.7758  1.2740
  216ACOH    H410621   4.755   0.423   1.202 -0.0435  0.6301 -0.8213
  216ACOH    O210622   4.833   0.469   1.237  0.1102  0.1148 -0.4809
  216ACOH    C210623   4.804   0.598   1.260 -0.3957 -0.5848 -0.5022
  216ACOH    O110624   4.710   0.663   1.212  0.8821  0.2073  0.3554
  216ACOH    C110625   4.909   0.659   1.353 -0.3143 -0.1790  0.7144
  216ACOH    H110626   4.860   0.705   1.439 -0.1178 -0.9772  1.2612
  216ACOH    H210627   4.974   0.729   1.301 -2.8099 -0.0065 -2.3357
  216ACOH    H310628   4.969   0.573   1.384  0.6012  0.4189  0.6241
  217ACOH    H410629   4.007   1.893   2.776 -0.6510  0.2125 -0.0178
  217ACOH    O210630   4.047   1.900   2.864 -0.1746  0.3680 -0.2419
  217ACOH    C210631   4.039   2.036   2.897 -0.1248 -0.2075  0.3739
  217ACOH    O110632   4.005   2.127   2.821 -0.3950  0.4108  0.0946
  217ACOH    C110633   4.102   2.052   3.028 -0.5335 -0.3549  0.1053
  217ACOH    H110634   4.107   2.159   3.047  0.2716 -0.0604 -1.6178
  217ACOH    H210635   4.202   2.007   3.024 -0.2600  0.1887  0.7549
  217ACOH    H310636   4.041   1.995   3.098 -1.8831 -1.5597 -1.9872
  218ACOH    H410637   4.832   2.745   2.194  0.6626 -4.3426 -1.4847
  218ACOH    O210638   4.926   2.759   2.215 -0.2280 -0.0842  0.0873
  218ACOH    C210639   4.936   2.882   2.280 -0.5539 -0.3168  0.7016
  218ACOH    O110640   4.850   2.952   2.325 -0.3569  0.2905  0.1328
  218ACOH    C110641   5.083   2.912   2.298  0.4792  0.0641 -0.2807
  218ACOH    H110642   5.139   2.820   2.314 -3.2824 -1.6080  4.5571
  218ACOH    H210643   5.093   2.971   2.390 -1.2045  0.9730 -0.6653
  218ACOH    H310644   5.133   2.946   2.207  1.3740 -1.5335 -0.4119
  219ACOH    H410645   6.084   8.135   2.842  0.1027 -1.4063 -1.7422
  219ACOH    O210646   6.119   8.055   2.886 -0.5808 -0.3770  0.7990
  219ACOH    C210647   6.017   7.966   2.888  0.0857 -0.0344 -0.4888
  219ACOH    O110648   5.904   8.001   2.891 -0.1094 -0.2316 -0.1846
  219ACOH    C110649   6.068   7.839   2.936  0.2051  0.0371 -0.5337
  219ACOH    H110650   6.048   7.817   3.041 -0.0423 -0.1185 -0.6134
  219ACOH    H210651   6.174   7.844   2.910 -0.0267 -2.2490 -1.9542
  219ACOH    H310652   6.025   7.772   2.862  2.2146 -2.9249  0.8803
  220ACOH    H410653   4.295   6.384   2.955  1.1060 -0.4059 -0.4393
  220ACOH    O210654   4.263   6.297   2.925 -0.0793 -0.1451  0.0346
  220ACOH    C210655   4.128   6.296   2.914  0.5523 -1.0686 -0.0113
  220ACOH    O110656   4.054   6.392   2.925  0.1140  0.4349  0.0921
  220ACOH    C110657   4.073   6.168   2.875 -0.0094  0.1655 -0.4060
  220ACOH    H110658   4.109   6.145   2.775 -0.6732  0.9366 -0.8341
  220ACOH    H210659   3.964   6.163   2.882  0.0368  0.9395  1.0085
  220ACOH    H310660   4.116   6.093   2.941  0.8366 -0.4372 -1.6271
  221ACOH    H410661   4.677   2.632   0.691  0.2297  1.1754  0.3475
  221ACOH    O210662   4.701   2.682   0.611 -0.4096  0.3842 -0.3444
  221ACOH    C210663   4.647   2.801   0.628  0.5424  0.1739 -0.3338
  221ACOH    O110664   4.551   2.831   0.700  0.1543  0.4105  0.8686
  221ACOH    C110665   4.701   2.899   0.527  0.5029  0.1280 -0.0025
  221ACOH    H110666   4.748   2.850   0.442 -0.2071  1.4210 -1.1574
  221ACOH    H210667   4.774   2.959   0.581  1.0816  2.0683 -2.8357
  221ACOH    H310668   4.615   2.954   0.490  0.0895  0.0904  0.8890
  222ACOH    H410669   4.074   5.554   2.921 -2.9594 -1.1109  0.1112
  222ACOH    O210670   4.105   5.490   2.987 -0.2624 -0.2916 -0.3050
  222ACOH    C210671   4.009   5.400   2.996  0.0971  0.3030  0.3604
  222ACOH    O110672   3.895   5.404   2.952  0.4603 -0.2184  0.1959
  222ACOH    C110673   4.057   5.289   3.069 -0.3332 -0.0924 -0.4487
  222ACOH    H110674   4.099   5.322   3.164 -1.0564  0.3683 -0.2836
  222ACOH    H210675   4.144   5.243   3.023  0.4518 -0.8720  1.7445
  222ACOH    H310676   3.974   5.222   3.088 -2.1429  2.4465  0.9422
  223ACOH    H410677   4.503   3.350   0.557 -2.3369  0.7147  0.2718
  223ACOH    O210678   4.514   3.419   0.625 -0.0717  0.0648  0.5805
  223ACOH    C210679   4.439   3.525   0.586 -0.7240 -0.3246  0.3588
  223ACOH    O110680   4.329   3.505   0.543 -0.1321  0.7607 -0.2565
  223ACOH    C110681   4.455   3.647   0.669  0.0741 -0.1078  0.8559
  223ACOH    H110682   4.539   3.622   0.734 -1.3450 -0.6850  2.5181
  223ACOH    H210683   4.369   3.670   0.733  0.0307 -1.2399  1.2186
  223ACOH    H310684   4.479   3.734   0.609  0.8465 -0.7845  0.1853
  224ACOH    H410685   7.512   0.778   1.078 -0.4803 -0.5995  1.1005
  224ACOH    O210686   7.470   0.843   1.136  0.1603  0.6607  0.1838
  224ACOH    C210687   7.518   0.841   1.260 -0.9570  0.2160 -0.6211
  224ACOH    O110688   7.603   0.761   1.293 -0.0979 -0.5578  0.0413
  224ACOH    C110689   7.444   0.937   1.345  0.5501  0.1623 -0.1132
  224ACOH    H110690   7.390   0.878   1.418  1.0987 -0.3922 -0.1539
  224ACOH    H210691   7.376   1.003   1.291 -0.8364 -0.2598  1.0794
  224ACOH    H310692   7.515   1.002   1.396  2.1839 -1.6390 -0.0315
  225ACOH    H410693   4.654   7.090   1.960  0.5567 -1.7904 -1.1978
  225ACOH    O210694   4.638   7.129   1.872  0.2871 -0.0429 -0.3985
  225ACOH    C210695   4.712   7.239   1.868  0.5386 -0.6374 -0.3962
  225ACOH    O110696   4.755   7.304   1.965 -0.5125 -0.0395  0.8636
  225ACOH    C110697   4.696   7.297   1.735 -0.1276 -0.5700  0.1076
  225ACOH    H110698   4.755   7.237   1.666 -1.2445  1.3279 -2.6128
  225ACOH    H210699   4.733   7.399   1.736  0.3014 -0.7283  0.3108
  225ACOH    H310700   4.593   7.299   1.698 -0.7813  0.4454  1.9124
  226ACOH    H410701   6.819   3.505   0.558  1.4719 -2.1555  1.2508
  226ACOH    O210702   6.753   3.495   0.628 -0.2567 -0.2253 -0.0404
  226ACOH    C210703   6.742   3.609   0.697 -0.1962 -0.2277  0.2445
  226ACOH    O110704   6.832   3.695   0.691  0.2419 -0.0277  0.6436
  226ACOH    C110705   6.633   3.599   0.796  0.6085 -0.1525 -0.6121
  226ACOH    H110706   6.544   3.624   0.740  0.4544 -2.9017 -1.6946
  226ACOH    H210707   6.645   3.672   0.876 -0.6502  0.4313 -0.9559
  226ACOH    H310708   6.624   3.497   0.835 -2.2164  0.2145 -0.2126
  227ACOH    H410709   5.334   3.371   0.478  1.0780 -0.9127 -0.3099
  227ACOH    O210710   5.398   3.444   0.484  0.0940 -0.0227 -0.5490
  227ACOH    C210711   5.382   3.503   0.601 -0.0416 -0.1191 -0.0144
  227ACOH    O110712   5.329   3.456   0.698  0.0799  0.6061 -0.4359
  227ACOH    C110713   5.447   3.637   0.603 -0.0589  0.4747  0.3187
  227ACOH    H110714   5.370   3.708   0.633  0.9826  1.4662  0.6991
  227ACOH    H210715   5.485   3.653   0.502 -1.0347  1.6594  0.1236
  227ACOH    H310716   5.526   3.632   0.678  0.8202  0.5701 -0.5960
  228ACOH    H410717   3.574   9.883   2.057 -0.1053  1.2282  0.4788
  228ACOH    O210718   3.655   9.884   2.003  0.1672 -0.0417  0.8316
  228ACOH    C210719   3.711   9.765   1.991  0.0368  0.1977 -0.3515
  228ACOH    O110720   3.692   9.663   2.056 -0.6674 -0.4802  0.8046
  228ACOH    C110721   3.825   9.767   1.898  0.1467 -0.1216  0.9664
  228ACOH    H110722   3.877   9.671   1.900  0.2667 -0.0528  1.1688
  228ACOH    H210723   3.893   9.850   1.916  0.5424  0.0967 -1.3379
  228ACOH    H310724   3.792   9.775   1.794  3.9162  0.8362 -0.2387
  229ACOH    H410725   4.888   1.688   2.003  0.1118 -1.0472  0.5226
  229ACOH    O210726   4.909   1.733   2.087 -0.1687  0.9030 -0.4289
  229ACOH    C210727   4.972   1.637   2.151 -0.4545  0.0445 -0.0750
  229ACOH    O110728   5.031   1.543   2.101  0.3163  0.5482  0.0490
  229ACOH    C110729   4.950   1.648   2.295 -0.6467  0.3531  0.0110
  229ACOH    H110730   5.050   1.649   2.338  0.1810 -0.1929 -1.8295
  229ACOH    H210731   4.897   1.563   2.338  1.0218 -0.3447  0.7546
  229ACOH    H310732   4.907   1.745   2.318 -2.2181 -0.3330 -0.0009
  230ACOH    H410733   8.053   8.885   1.288 -1.0495  2.1750  0.0846
  230ACOH    O210734   8.042   8.896   1.384 -0.0425  0.0697  0.4565
  230ACOH    C210735   7.942   8.987   1.393  0.5270  0.0746 -0.4115
  230ACOH    O110736   7.905   9.051   1.296  0.2260  0.5550  0.3030
  230ACOH    C110737   7.924   9.031   1.537 -0.5197 -0.2435 -0.7804
  230ACOH    H110738   7.834   9.093   1.539 -2.7303 -3.3951  0.1709
  230ACOH    H210739   8.016   9.085   1.563 -2.9612  2.7999  2.0544
  230ACOH    H310740   7.893   8.942   1.591 -0.0462 -1.5590 -2.6344
  231ACOH    H410741   2.888   1.076   1.187 -0.7989  0.4919  1.5650
  231ACOH    O210742   2.818   1.078   1.119  0.6215  0.3775  0.0662
  231ACOH    C210743   2.868   1.003   1.024  0.9558 -0.0771  0.2789
  231ACOH    O110744   2.983   0.972   0.998 -0.4470 -0.6396  0.2308
  231ACOH    C110745   2.760   0.964   0.928  0.0722 -0.6484  0.1391
  231ACOH    H110746   2.729   1.049   0.867  3.3628  0.9006  0.5491
  231ACOH    H210747   2.674   0.926   0.984  1.3843  0.5723  3.0881
  231ACOH    H310748   2.796   0.884   0.864  1.3401  0.1575 -0.1781
  232ACOH    H410749   4.529   3.303   4.026 -1.4903  0.4744 -0.0958
  232ACOH    O210750   4.567   3.304   3.936  0.5749  0.3788  0.7404
  232ACOH    C210751   4.638   3.185   3.935  0.2766 -0.2878 -0.1992
  232ACOH    O110752   4.618   3.094   4.012 -0.0469  0.0817  0.0881
  232ACOH    C110753   4.707   3.173   3.804  0.4730 -0.0402 -0.0869
  232ACOH    H110754   4.662   3.085   3.758  0.0587 -0.2138  0.6458
  232ACOH    H210755   4.815   3.165   3.810  0.3861  0.3827  2.7433
  232ACOH    H310756   4.680   3.260   3.743 -0.2772  1.6861  2.6115
  233ACOH    H410757   7.898   6.838   3.976 -0.0620 -0.9280 -0.7435
  233ACOH    O210758   7.984   6.795   3.991  0.5433  0.3460 -0.4938
  233ACOH    C210759   7.973   6.676   3.932  0.0818 -0.9020  0.3623
  233ACOH    O110760   7.890   6.635   3.856  0.1434 -0.3815  0.2357
  233ACOH    C110761   8.099   6.600   3.958  0.1765  0.2398  0.7025
  233ACOH    H110762   8.118   6.577   4.063 -0.6858 -2.0699  0.3904
  233ACOH    H210763   8.185   6.659   3.927  0.0965 -1.1308 -2.3080
  233ACOH    H310764   8.101   6.507   3.900 -1.9448  0.7366 -0.1971
  234ACOH    H410765   4.842   2.923   3.193  0.0654  0.3137 -1.0916
  234ACOH    O210766   4.850   3.016   3.220  0.1445 -0.0586  0.1996
  234ACOH    C210767   4.778   3.031   3.331  0.0360 -0.4160 -0.0307
  234ACOH    O110768   4.727   2.940   3.390  0.4369 -0.4321 -0.0978
  234ACOH    C110769   4.777   3.169   3.383  0.4386 -0.5688  0.3944
  234ACOH    H110770   4.673   3.203   3.380  0.3786 -0.8817 -2.1500
  234ACOH    H210771   4.838   3.242   3.328  0.3339 -0.2553  0.6932
  234ACOH    H310772   4.817   3.163   3.484 -2.2542  1.5058  1.6318
  235ACOH    H410773   8.366   7.392   1.047  1.8951 -2.0713  0.6050
  235ACOH    O210774   8.288   7.346   1.083  0.1807  0.1988 -0.1217
  235ACOH    C210775   8.335   7.263   1.173 -0.0782 -0.1360 -0.2765
  235ACOH    O110776   8.449   7.214   1.175 -0.7553  0.1203 -0.4269
  235ACOH    C110777   8.216   7.219   1.255  0.4300  0.3311  0.0155
  235ACOH    H110778   8.127   7.221   1.192 -0.2050 -1.2513  0.8362
  235ACOH    H210779   8.196   7.285   1.340  1.7350  0.4567  0.2361
  235ACOH    H310780   8.235   7.118   1.292 -1.1302 -0.3363 -0.9550
  236ACOH    H410781   8.807   1.136   2.783 -0.1900 -0.2596 -0.8871
  236ACOH    O210782   8.872   1.064   2.779 -0.0899 -0.2267 -0.0552
  236ACOH    C210783   8.992   1.121   2.741 -0.1314 -0.0702 -0.2314
  236ACOH    O110784   8.999   1.234   2.689 -0.7086  0.3610  0.3697
  236ACOH    C110785   9.097   1.022   2.762  0.1095 -0.1485 -0.2502
  236ACOH    H110786   9.064   0.933   2.708  0.5759 -1.0897  0.9854
  236ACOH    H210787   9.107   0.985   2.864  1.4436 -1.2059 -0.7366
  236ACOH    H310788   9.196   1.046   2.723 -1.0575  1.3185 -2.4155
  237ACOH    H410789   9.356   8.233   3.337  0.8327  2.8152 -0.7738
  237ACOH    O210790   9.275   8.245   3.285 -0.1100  0.2225  0.0559
  237ACOH    C210791   9.190   8.138   3.307 -0.7786 -0.6115 -0.0093
  237ACOH    O110792   9.204   8.071   3.407 -0.2390  0.4864  0.2046
  237ACOH    C110793   9.069   8.132   3.215 -0.2380  0.0144  0.3288
  237ACOH    H110794   8.976   8.088   3.251 -0.5638  0.1702 -0.3149
  237ACOH    H210795   9.100   8.085   3.122  0.2761 -1.4709  1.2428
  237ACOH    H310796   9.037   8.235   3.196  1.3406  0.0729 -2.3048
  238ACOH    H410797   7.445   4.604   1.170  0.8815  0.0781  0.7236
  238ACOH    O210798   7.379   4.639   1.232  0.1864 -0.3311  0.2214
  238ACOH    C210799   7.434   4.753   1.275 -0.1623 -0.4527  0.8733
  238ACOH    O110800   7.540   4.808   1.234  0.0540  0.2045  0.3578
  238ACOH    C110801   7.350   4.816   1.373  0.1243  0.0699 -0.0250
  238ACOH    H110802   7.379   4.916   1.406  2.3606 -0.8624  0.9561
  238ACOH    H210803   7.333   4.747   1.456  0.0763 -1.4144 -1.2465
  238ACOH    H310804   7.258   4.829   1.316 -1.0508  3.0429  2.3990
  239ACOH    H410805   4.480   9.095   1.724 -0.8063 -1.0642  0.3219
  239ACOH    O210806   4.564   9.049   1.741 -0.1262 -0.0361 -0.2629
  239ACOH    C210807   4.652   9.109   1.660 -0.1609  0.3754  0.0662
  239ACOH    O110808   4.634   9.208   1.588  0.7088  0.2525  0.5275
  239ACOH    C110809   4.786   9.047   1.677  0.0407  0.0726  0.1618
  239ACOH    H110810   4.862   9.120   1.703  0.3328 -0.6154  1.3033
  239ACOH    H210811   4.807   8.994   1.584 -0.7764  2.2786 -1.3044
  239ACOH    H310812   4.781   8.975   1.759 -1.0491 -1.1718 -0.9796
  240ACOH    H410813   3.673   8.522   3.523 -0.2294  1.2122 -0.8910
  240ACOH    O210814   3.601   8.487   3.468  0.1329 -0.2125 -0.4721
  240ACOH    C210815   3.486   8.487   3.538  0.1364  0.6846  0.6025
  240ACOH    O110816   3.472   8.516   3.655  0.5137  0.1523  0.5044
  240ACOH    C110817   3.364   8.460   3.452 -0.1249 -0.2009  0.8871
  240ACOH    H110818   3.266   8.460   3.498 -0.5451  1.0376  0.0285
  240ACOH    H210819   3.377   8.360   3.412 -0.1687 -0.3279  1.1911
  240ACOH    H310820   3.352   8.524   3.364 -0.5688 -1.1933  0.2181
  241ACOH    H410821   4.790   2.241   1.982  0.2631  1.3956  0.9582
  241ACOH    O210822   4.866   2.277   1.934  0.1497  0.6482  0.1997
  241ACOH    C210823   4.831   2.373   1.848  0.3438 -0.3703 -0.2410
  241ACOH    O110824   4.745   2.358   1.765  0.0495 -0.1215  0.2036
  241ACOH    C110825   4.940   2.470   1.836 -0.8931 -0.3427  0.8434
  241ACOH    H110826   4.983   2.469   1.736  1.8213  0.2897  1.9651
  241ACOH    H210827   5.016   2.438   1.907 -1.8003 -0.6557  1.6890
  241ACOH    H310828   4.913   2.574   1.857  0.9586 -0.4177  3.8692
  242ACOH    H410829   7.159   8.570   0.928 -1.0118  0.2233  1.6777
  242ACOH    O210830   7.112   8.492   0.963  0.1803 -1.0609  0.4849
  242ACOH    C210831   7.136   8.374   0.908  0.0669  0.6332  0.5319
  242ACOH    O110832   7.219   8.350   0.825  0.5194 -0.7672  0.1238
  242ACOH    C110833   7.086   8.273   1.004 -0.6867  0.1206  0.3806
  242ACOH    H110834   7.170   8.222   1.050 -0.3749  0.0259 -0.2819
  242ACOH    H210835   7.021   8.195   0.964 -0.2494 -0.1507  0.1999
  242ACOH    H310836   7.028   8.319   1.084 -1.5393 -2.9496  1.6096
  243ACOH    H410837   1.918   7.670   3.870  1.4114 -1.7080 -2.4721
  243ACOH    O210838   1.965   7.746   3.830  0.5169  0.1709 -0.0669
  243ACOH    C210839   2.097   7.712   3.817  0.2101 -0.5572 -0.3514
  243ACOH    O110840   2.147   7.607   3.836  0.4630  0.4927 -0.1656
  243ACOH    C110841   2.173   7.823   3.755  0.2428  0.4102  0.9772
  243ACOH    H110842   2.197   7.889   3.839  3.2449 -1.2809  1.4929
  243ACOH    H210843   2.111   7.880   3.686 -0.0862  1.5174  2.1724
  243ACOH    H310844   2.256   7.787   3.694 -1.1360  2.1721 -2.0643
  244ACOH    H410845   7.371   1.061   0.615  1.0122  0.8755  0.5832
  244ACOH    O210846   7.387   0.965   0.620 -0.5047  0.5688  0.0213
  244ACOH    C210847   7.403   0.908   0.502  0.2331  0.4849 -0.2666
  244ACOH    O110848   7.460   0.966   0.410 -0.0091 -0.1174 -0.2236
  244ACOH    C110849   7.383   0.758   0.505 -0.0029 -0.2904  0.4115
  244ACOH    H110850   7.345   0.731   0.406  1.8387 -0.6820 -0.2158
  244ACOH    H210851   7.313   0.729   0.583  3.8721 -3.0084  3.0476
  244ACOH    H310852   7.473   0.704   0.535  1.3907  0.6195 -1.9732
  245ACOH    H410853   5.004   1.902   0.813  0.0555  0.8070 -0.8740
  245ACOH    O210854   5.091   1.919   0.775  0.3076  0.6556 -0.3765
  245ACOH    C210855   5.080   2.023   0.690 -0.5022  0.8523  0.4901
  245ACOH    O110856   4.978   2.087   0.669 -0.1292 -0.0574 -0.0742
  245ACOH    C110857   5.210   2.055   0.620 -0.3098 -0.5667  0.3383
  245ACOH    H110858   5.189   2.138   0.553  0.5014  0.1723  0.9809
  245ACOH    H210859   5.245   1.979   0.551 -1.1742  0.7478 -1.5951
  245ACOH    H310860   5.295   2.090   0.679 -0.3863  0.1093  0.0536
  246ACOH    H410861   4.091   6.318   2.540 -0.0556 -1.2782  4.0841
  246ACOH    O210862   4.175   6.270   2.528 -0.0275 -0.3713 -0.2203
  246ACOH    C210863   4.261   6.350   2.583 -0.1154 -0.0491 -0.4441
  246ACOH    O110864   4.241   6.468   2.608  0.8455 -0.1729 -0.6258
  246ACOH    C110865   4.400   6.301   2.559  0.0540  0.4307 -0.5340
  246ACOH    H110866   4.398   6.197   2.527 -3.0747  0.0279  0.7469
  246ACOH    H210867   4.460   6.316   2.649  0.9478 -1.1217 -0.8597
  246ACOH    H310868   4.442   6.362   2.479  1.3766 -1.3551 -1.2133
  247ACOH    H410869   5.064   3.250   1.136 -0.1891 -0.6269 -1.2162
  247ACOH    O210870   5.157   3.277   1.132 -0.2236 -0.3343 -0.2398
  247ACOH    C210871   5.172   3.363   1.233 -0.0596  0.1442  0.1120
  247ACOH    O110872   5.091   3.427   1.288  0.3655 -0.4085 -0.2564
  247ACOH    C110873   5.314   3.387   1.273 -0.5207 -0.0147 -0.0990
  247ACOH    H110874   5.375   3.307   1.230  1.5963  0.7997  1.2771
  247ACOH    H210875   5.333   3.385   1.381  0.5812  1.7865 -0.2367
  247ACOH    H310876   5.343   3.478   1.222 -0.3761  0.2873  0.5147
  248ACOH    H410877   4.152   4.119   0.577 -0.0541  1.8350 -0.7894
  248ACOH    O210878   4.216   4.090   0.510 -0.1318 -0.1730 -0.0082
  248ACOH    C210879   4.254   3.964   0.541 -0.0499  0.1758  0.1646
  248ACOH    O110880   4.249   3.927   0.662 -0.4595  0.2877 -1.0590
  248ACOH    C110881   4.314   3.898   0.418  0.4393  0.3797  0.0653
  248ACOH    H110882   4.419   3.873   0.433 -0.1941 -2.1343  0.4950
  248ACOH    H210883   4.299   3.960   0.330  0.0322  0.3641  0.1235
  248ACOH    H310884   4.253   3.810   0.397 -1.5430  1.8995 -0.6835
  249ACOH    H410885   4.212   7.166   0.739  0.8074 -0.0810 -0.2771
  249ACOH    O210886   4.193   7.108   0.663  0.0191 -0.1115 -0.0546
  249ACOH    C210887   4.307   7.103   0.591  0.0886 -0.2335  0.0030
  249ACOH    O110888   4.417   7.132   0.635 -0.5570 -0.3632 -0.7762
  249ACOH    C110889   4.294   7.038   0.453 -0.1444  0.2613 -0.9427
  249ACOH    H110890   4.302   7.114   0.376 -1.8874  0.7040 -0.7011
  249ACOH    H210891   4.194   7.000   0.436  0.0586 -1.5482  1.5968
  249ACOH    H310892   4.372   6.963   0.440  0.3817  0.2710  1.8801
  250ACOH    H410893   3.695   6.628   3.284  2.6846 -2.7263  0.2057
  250ACOH    O210894   3.655   6.576   3.356 -0.1263 -0.6775  0.1809
  250ACOH    C210895   3.548   6.646   3.408 -0.2445 -0.4616 -1.0022
  250ACOH    O110896   3.497   6.737   3.352  0.0271 -0.1317  0.4429
  250ACOH    C110897   3.483   6.577   3.525 -0.1547 -0.3875 -0.3392
  250ACOH    H110898   3.447   6.645   3.602  0.3188 -2.2030  1.5380
  250ACOH    H210899   3.558   6.512   3.570  0.4292  1.0218  0.7650
  250ACOH    H310900   3.409   6.512   3.477  0.8186 -2.4308  0.8681
  251ACOH    H410901   2.818   3.586   2.595 -3.0352 -1.3825 -0.8345
  251ACOH    O210902   2.848   3.593   2.503 -0.7217 -0.1283 -0.0313
  251ACOH    C210903   2.914   3.492   2.454 -0.5309  0.4187  0.6297
  251ACOH    O110904   2.966   3.403   2.515  0.0372  0.5675 -0.2080
  251ACOH    C110905   2.942   3.506   2.309 -0.4009 -0.5524  1.1702
  251ACOH    H110906   2.879   3.581   2.263 -0.2510 -0.1618  1.5930
  251ACOH    H210907   2.926   3.409   2.261 -0.6668 -0.0107  0.1669
  251ACOH    H310908   3.048   3.528   2.295 -0.0069 -2.6512  0.5461
  252ACOH    H410909   4.907   8.644   3.471 -0.0836 -0.2191  0.6951
  252ACOH    O210910   4.955   8.723   3.501  0.1023 -0.1110  0.1330
  252ACOH    C210911   5.075   8.689   3.472 -0.8410 -0.2865  1.1782
  252ACOH    O110912   5.125   8.579   3.442 -0.4320 -0.5471 -0.4260
  252ACOH    C110913   5.153   8.812   3.453 -0.4707 -1.2539 -0.1151
  252ACOH    H110914   5.241   8.828   3.515  0.8293  1.1482 -2.4366
  252ACOH    H210915   5.086   8.897   3.463 -0.6279 -0.9548 -3.1256
  252ACOH    H310916   5.175   8.812   3.346 -2.5528  0.3533 -0.5615
  253ACOH    H410917   7.082   1.375   0.405  0.1253  1.4905 -0.9847
  253ACOH    O210918   6.997   1.392   0.447 -0.0060 -0.0942 -0.5512
  253ACOH    C210919   6.976   1.379   0.579 -0.5672  0.4043 -0.0441
  253ACOH    O110920   7.051   1.328   0.662 -0.3544  0.6144  0.0836
  253ACOH    C110921   6.849   1.437   0.624 -0.1530  0.1196 -0.0936
  253ACOH    H110922   6.792   1.370   0.687  0.5900 -0.9879 -0.5848
  253ACOH    H210923   6.797   1.458   0.530  0.6144 -1.1978 -0.8204
  253ACOH    H310924   6.871   1.535   0.667  0.7434 -0.3776  0.5955
  254ACOH    H410925   4.543   3.009   1.682  1.1877  2.1146 -2.6235
  254ACOH    O210926   4.627   2.963   1.668  0.5726 -0.1926  0.4573
  254ACOH    C210927   4.658   2.901   1.781  0.0776  0.1452  0.2578
  254ACOH    O110928   4.577   2.866   1.866  0.1545  0.0941 -0.0886
  254ACOH    C110929   4.786   2.845   1.763 -0.8787 -0.2449 -0.1703
  254ACOH    H110930   4.847   2.876   1.679 -2.1061  2.5092 -0.0988
  254ACOH    H210931   4.781   2.736   1.773  0.4221 -0.2107  0.9759
  254ACOH    H310932   4.843   2.889   1.845 -0.6794 -2.3672  0.8723
  255ACOH    H410933   5.021   0.040   1.772  2.0253  0.6972 -1.0123
  255ACOH    O210934   4.977   0.120   1.738  0.0527  0.0353 -0.0852
  255ACOH    C210935   4.999   0.234   1.812  0.4922  0.0934  0.0567
  255ACOH    O110936   4.930   0.330   1.788  1.0239 -0.6098  0.4636
  255ACOH    C110937   5.085   0.217   1.934 -0.1332 -1.2186 -0.0931
  255ACOH    H110938   5.056   0.271   2.024  1.9942 -0.5461  0.2161
  255ACOH    H210939   5.184   0.248   1.899  0.7088 -2.6660  0.9842
  255ACOH    H310940   5.082   0.113   1.966 -0.7773 -0.9785  0.6280
  256ACOH    H410941   8.040   0.781   0.120  0.5594  2.5984  0.1754
  256ACOH    O210942   7.968   0.805   0.059  0.0079  0.3521 -0.1007
  256ACOH    C210943   8.020   0.848  -0.060 -0.4424 -0.4316 -0.2227
  256ACOH    O110944   8.140   0.864  -0.069 -0.6445 -0.0059 -0.3085
  256ACOH    C110945   7.917   0.850  -0.169 -0.1391  0.5270  0.3502
  256ACOH    H110946   7.949   0.783  -0.249  3.1416  0.2456  1.7976
  256ACOH    H210947   7.897   0.948  -0.212 -0.8682 -0.7604 -2.3028
  256ACOH    H310948   7.826   0.800  -0.137 -0.2778  0.7872  0.3600
  257ACOH    H410949   6.436   9.848   1.702 -2.6722 -1.9544 -0.3556
  257ACOH    O210950   6.359   9.903   1.727 -1.3336 -0.3474  0.3485
  257ACOH    C210951   6.405  10.010   1.798 -0.5558 -0.3901  0.1204
  257ACOH    O110952   6.517  10.024   1.843  0.0417  0.2417 -0.2754
  257ACOH    C110953   6.289  10.082   1.856 -0.6612 -0.4698  0.4875
  257ACOH    H110954   6.198  10.070   1.796  0.0692 -3.6877 -0.1062
  257ACOH    H210955   6.314  10.187   1.850 -0.3220 -0.5792 -0.0517
  257ACOH    H310956   6.278  10.059   1.962  0.5711  0.6690  0.8724
  258ACOH    H410957   5.216   1.980   1.453 -0.1702 -3.0377  1.2374
  258ACOH    O210958   5.161   1.962   1.375 -0.0085  0.3160  0.3026
  258ACOH    C210959   5.189   2.064   1.298  0.1335 -0.5406 -0.4952
  258ACOH    O110960   5.192   2.178   1.339 -0.4373 -0.4739  0.1045
  258ACOH    C110961   5.137   2.023   1.173 -0.4034  0.1728 -0.2307
  258ACOH    H110962   5.184   2.077   1.091 -0.0014  1.3968  0.7780
  258ACOH    H210963   5.028   2.036   1.170 -0.7481 -1.9737  1.5186
  258ACOH    H310964   5.153   1.918   1.151  1.1576 -0.2719  2.7028
  259ACOH    H410965   6.697   0.364   2.205 -0.5431  0.8553  0.5162
  259ACOH    O210966   6.695   0.396   2.114  0.6698  0.4100  0.3349
  259ACOH    C210967   6.651   0.299   2.034  0.3817 -0.2550 -0.0298
  259ACOH    O110968   6.707   0.192   2.037  0.4129 -0.4914 -0.5957
  259ACOH    C110969   6.628   0.359   1.896 -0.4325  0.5235 -0.2217
  259ACOH    H110970   6.579   0.456   1.899 -1.4321  0.0077  0.3838
  259ACOH    H210971   6.571   0.298   1.826 -0.4974  0.4826 -0.1321
  259ACOH    H310972   6.725   0.370   1.846 -0.4891 -1.9962 -0.9602
  260ACOH    H410973   4.890   7.067   2.287 -2.6097  1.5328  1.0460
  260ACOH    O210974   4.874   6.975   2.315 -0.5437  0.8362  0.0277
  260ACOH    C210975   4.968   6.945   2.405 -0.8297  0.4144  0.3339
  260ACOH    O110976   5.044   7.016   2.470  0.1535 -0.5237 -0.0387
  260ACOH    C110977   4.944   6.804   2.443  0.5102  0.2853  0.6157
  260ACOH    H110978   5.024   6.739   2.408 -1.5788 -0.8361 -2.3017
  260ACOH    H210979   4.845   6.769   2.414  0.8321 -1.1392  1.1941
  260ACOH    H310980   4.947   6.798   2.552 -2.4000 -1.6924  0.6469
  261ACOH    H410981   8.088   3.931   1.104 -1.1204 -1.4733 -0.5648
  261ACOH    O210982   8.000   3.971   1.111 -0.2517  0.5046 -0.3787
  261ACOH    C210983   8.010   4.077   1.189  0.6040  0.7714  0.0598
  261ACOH    O110984   8.113   4.142   1.198  0.3381  0.2464 -0.0876
  261ACOH    C110985   7.884   4.136   1.220 -0.5730 -0.1700  0.0181
  261ACOH    H110986   7.810   4.058   1.237 -1.5995  0.4665 -1.4416
  261ACOH    H210987   7.860   4.213   1.147 -0.5057  1.1433  1.3532
  261ACOH    H310988   7.896   4.190   1.314 -1.8406 -1.0249  0.6953
  262ACOH    H410989   3.751   0.212   0.741 -0.8336 -2.7063 -0.6868
  262ACOH    O210990   3.656   0.232   0.742 -0.2466  0.1992 -0.7863
  262ACOH    C210991   3.629   0.361   0.707 -0.4185  0.3850 -0.3419
  262ACOH    O110992   3.712   0.448   0.678  0.2989 -0.3977  0.1493
  262ACOH    C110993   3.485   0.376   0.712  0.4654 -0.2282  0.3821
  262ACOH    H110994   3.447   0.371   0.814  2.3021 -3.1150  0.9581
  262ACOH    H210995   3.444   0.288   0.663 -0.1131  1.6282 -2.5850
  262ACOH    H310996   3.449   0.463   0.657  0.3928 -1.7957 -2.1337
  263ACOH    H410997   8.132   3.567   3.479  1.6431  0.2622  2.7496
  263ACOH    O210998   8.122   3.664   3.471  0.1783 -0.0160  0.4918
  263ACOH    C210999   8.214   3.721   3.549  0.4594 -0.3923 -0.1041
  263ACOH    O111000   8.316   3.666   3.595 -0.0062 -0.1708 -0.4078
  263ACOH    C111001   8.207   3.871   3.537 -0.4560  0.4033  0.1153
  263ACOH    H111002   8.242   3.915   3.630 -0.5253 -1.2357  0.9420
  263ACOH    H211003   8.102   3.893   3.517 -0.5224 -0.5907 -0.6887
  263ACOH    H311004   8.264   3.904   3.450 -1.5920 -0.1863 -0.8617
  264ACOH    H411005   3.029   6.291   1.477 -0.1336 -0.1523  2.0170
  264ACOH    O211006   3.060   6.359   1.539  0.5378  1.1479  0.2828
  264ACOH    C211007   3.153   6.289   1.618  0.1422 -0.3144  0.3408
  264ACOH    O111008   3.182   6.173   1.615  0.0618  0.0597  0.1294
  264ACOH    C111009   3.199   6.376   1.728 -0.4941 -0.7445  0.0635
  264ACOH    H111010   3.271   6.322   1.790 -0.3363  0.7667  1.2233
  264ACOH    H211011   3.125   6.412   1.799  1.0368  0.4886  1.0797
  264ACOH    H311012   3.246   6.463   1.681  0.5574 -1.6731 -0.6405
  265ACOH    H411013   7.266   1.681   1.769  2.2083 -1.4865 -1.8409
  265ACOH    O211014   7.324   1.758   1.756  0.2253  0.4266  0.1444
  265ACOH    C211015   7.427   1.728   1.828  0.2904 -0.5954  0.5969
  265ACOH    O111016   7.455   1.641   1.906 -0.2585 -0.2816 -0.7000
  265ACOH    C111017   7.518   1.838   1.812  0.2370  0.3506 -0.3049
  265ACOH    H111018   7.618   1.822   1.852  0.3738  1.9118  0.0375
  265ACOH    H211019   7.487   1.920   1.876 -0.2706  0.1972 -0.3526
  265ACOH    H311020   7.523   1.877   1.710  1.0282 -2.1069 -1.2497
  266ACOH    H411021   8.292   0.450   2.888  0.8419  0.9153  0.5461
  266ACOH    O211022   8.263   0.531   2.842 -0.0557  0.2859 -0.0144
  266ACOH    C211023   8.137   0.514   2.798  0.4298  0.4870  0.0532
  266ACOH    O111024   8.051   0.444   2.839 -0.0146  0.3047  0.3079
  266ACOH    C111025   8.113   0.603   2.682  0.1471  0.3621 -0.0235
  266ACOH    H111026   8.113   0.707   2.714  2.2409  0.2569  0.3912
  266ACOH    H211027   8.019   0.579   2.632 -0.4536 -0.9674  1.6604
  266ACOH    H311028   8.199   0.584   2.618 -0.2762  0.7389 -0.7049
  267ACOH    H411029   5.071   2.616   1.388 -2.1354  1.1149  0.6572
  267ACOH    O211030   5.097   2.699   1.345  0.0119  0.2434  0.2151
  267ACOH    C211031   5.001   2.790   1.378  0.2666  0.4450 -0.1344
  267ACOH    O111032   4.907   2.769   1.452 -0.2155  0.5666  0.0875
  267ACOH    C111033   5.015   2.913   1.301  0.0533 -0.1861 -0.0191
  267ACOH    H111034   5.022   2.887   1.195 -0.1642 -1.4714  0.2675
  267ACOH    H211035   5.107   2.966   1.325  0.5520 -0.6400 -0.9089
  267ACOH    H311036   4.937   2.988   1.314  1.1128  0.7279  1.1096
  268ACOH    H411037   7.592   3.887   1.351 -0.0639 -0.2482  0.2811
  268ACOH    O211038   7.502   3.920   1.368  0.1274  0.6180 -0.3249
  268ACOH    C211039   7.433   3.852   1.276  0.1494 -0.3284  0.4065
  268ACOH    O111040   7.466   3.754   1.210 -0.6162  0.0348  0.0371
  268ACOH    C111041   7.287   3.891   1.278  0.0664 -0.0034 -0.1995
  268ACOH    H111042   7.231   3.818   1.337 -1.5407  1.9081  0.7447
  268ACOH    H211043   7.256   3.890   1.174 -1.0532  2.2969  0.0802
  268ACOH    H311044   7.281   3.987   1.331 -2.1706 -0.6856  0.8545
  269ACOH    H411045   4.956   9.282   3.686  1.3254  0.0301  2.2381
  269ACOH    O211046   5.041   9.314   3.653  0.7571 -0.2943  0.4258
  269ACOH    C211047   5.096   9.213   3.585 -0.1110  0.3910  0.7889
  269ACOH    O111048   5.046   9.098   3.574  0.0187 -0.1028  0.4294
  269ACOH    C111049   5.213   9.247   3.495  0.2690 -0.1460 -0.2269
  269ACOH    H111050   5.241   9.347   3.528 -0.0581 -0.4577  1.0647
  269ACOH    H211051   5.178   9.256   3.393  0.0664 -0.7327 -0.2133
  269ACOH    H311052   5.290   9.173   3.518  0.5694  0.5378  1.0817
  270ACOH    H411053   4.270   7.277   0.087  1.1412 -3.4567 -0.0960
  270ACOH    O211054   4.294   7.281   0.181  0.2328  0.2651  0.0731
  270ACOH    C211055   4.378   7.389   0.195 -0.0197 -0.2151 -0.5073
  270ACOH    O111056   4.410   7.461   0.103  0.4043 -0.0098 -0.0458
  270ACOH    C111057   4.446   7.400   0.323 -0.8035 -0.1019  0.7115
  270ACOH    H111058   4.383   7.366   0.405 -2.1465 -1.3179 -0.8140
  270ACOH    H211059   4.470   7.505   0.341  0.6572 -0.6698  2.3159
  270ACOH    H311060   4.537   7.340   0.328 -0.6293  0.2331  1.9200
  271ACOH    H411061   7.542   5.292   0.786  1.9118 -1.4713  0.3600
  271ACOH    O211062   7.520   5.215   0.730 -0.3002 -0.5978 -0.0121
  271ACOH    C211063   7.567   5.103   0.791  0.5265  0.4890 -0.8597
  271ACOH    O111064   7.642   5.104   0.888  0.2796 -0.3021  0.0971
  271ACOH    C111065   7.532   4.984   0.708  0.6093  0.1578  0.2293
  271ACOH    H111066   7.424   4.988   0.712  0.7225  1.5726  4.2714
  271ACOH    H211067   7.548   4.886   0.753 -1.0075  0.1233  0.7538
  271ACOH    H311068   7.565   4.987   0.604 -0.8901 -0.3575 -0.2710
  272ACOH    H411069   4.918   0.540   2.735  1.1777  0.9881 -0.4858
  272ACOH    O211070   4.995   0.482   2.721  0.0521 -0.6688  0.0462
  272ACOH    C211071   5.019   0.497   2.588 -0.1627 -0.2801  1.0517
  272ACOH    O111072   4.979   0.588   2.518  0.5515 -0.1433 -0.1540
  272ACOH    C111073   5.133   0.419   2.542 -0.1576 -0.0429  0.2558
  272ACOH    H111074   5.110   0.384   2.441  1.8743  1.7998 -0.8950
  272ACOH    H211075   5.159   0.341   2.614 -1.1903  1.4501  2.3046
  272ACOH    H311076   5.216   0.489   2.533  0.4851 -0.3823  2.9586
  273ACOH    H411077   7.718   9.465   3.050  1.7400  0.1100  1.2039
  273ACOH    O211078   7.791   9.491   2.992  0.5486 -0.4097 -0.5824
  273ACOH    C211079   7.879   9.386   2.993 -0.0588 -0.3000 -0.0106
  273ACOH    O111080   7.968   9.381   2.912  0.0026 -0.5370  0.2972
  273ACOH    C111081   7.842   9.278   3.085 -0.3557 -0.0933 -0.6451
  273ACOH    H111082   7.757   9.279   3.153  1.0844 -0.2035  1.1767
  273ACOH    H211083   7.926   9.250   3.148  0.5734  1.9613 -0.9599
  273ACOH    H311084   7.817   9.196   3.018 -0.0313 -0.5779 -0.1749
  274ACOH    H411085   7.735   7.074   0.367 -0.5659 -0.9353  2.3713
  274ACOH    O211086   7.691   7.001   0.320  0.1744  0.1015 -0.0286
  274ACOH    C211087   7.626   7.063   0.222 -0.2466  0.2790 -0.6410
  274ACOH    O111088   7.670   7.154   0.153 -0.2408  0.2796 -0.2181
  274ACOH    C111089   7.503   6.987   0.180 -0.0572  0.1501  0.0651
  274ACOH    H111090   7.460   7.046   0.099  0.4667  0.4939  0.0267
  274ACOH    H211091   7.433   6.976   0.262 -0.2216  2.5925  0.2966
  274ACOH    H311092   7.534   6.889   0.145 -0.4352  0.8439 -2.2608
  275ACOH    H411093   5.026   9.209   0.791  1.8761 -2.0032 -0.0400
  275ACOH    O211094   4.969   9.154   0.735  0.2422  0.0391 -0.4599
  275ACOH    C211095   4.993   9.173   0.605 -0.1243 -1.2661 -0.0305
  275ACOH    O111096   5.052   9.269   0.552 -0.0366  0.2350 -0.2015
  275ACOH    C111097   4.950   9.056   0.532 -0.2406  0.5908 -0.3633
  275ACOH    H111098   4.973   9.053   0.425  0.8951  0.1829 -0.1117
  275ACOH    H211099   4.841   9.044   0.531 -0.3951  0.7301  4.6753
  275ACOH    H311100   4.989   8.971   0.588 -2.2856 -0.4169 -0.4081
  276ACOH    H411101   6.139   8.504   1.935  0.7478  0.8093 -2.5928
  276ACOH    O211102   6.186   8.424   1.905  0.0783 -0.6553  0.1029
  276ACOH    C211103   6.123   8.318   1.964 -0.2365  0.1482  0.0476
  276ACOH    O111104   6.030   8.325   2.042  0.0740  0.3262 -0.1029
  276ACOH    C111105   6.188   8.197   1.929  0.5326  0.2310  0.5547
  276ACOH    H111106   6.166   8.114   1.996 -3.1660  1.0343  0.4447
  276ACOH    H211107   6.294   8.221   1.934  0.5227  0.3545  0.1565
  276ACOH    H311108   6.167   8.165   1.827 -0.0013  0.3441  0.6275
  277ACOH    H411109   7.868   8.173   3.508  0.1075 -0.9222 -1.2254
  277ACOH    O211110   7.776   8.142   3.499 -0.2214 -0.3515  0.1131
  277ACOH    C211111   7.710   8.215   3.410 -0.7537 -0.1354 -0.1247
  277ACOH    O111112   7.762   8.255   3.307 -0.2743  0.4476  0.0117
  277ACOH    C111113   7.565   8.206   3.446  0.1816 -0.4174 -0.2808
  277ACOH    H111114   7.507   8.269   3.378 -0.8097  0.3721  1.2744
  277ACOH    H211115   7.548   8.245   3.547 -2.5169  1.2428 -1.3158
  277ACOH    H311116   7.532   8.103   3.451 -0.3158 -0.1859  1.3481
  278ACOH    H411117   6.723   9.353   1.355 -0.6826  1.6265  0.2745
  278ACOH    O211118   6.631   9.329   1.375 -0.2532 -0.4474 -0.0610
  278ACOH    C211119   6.573   9.436   1.428  0.0107 -0.0061  0.0249
  278ACOH    O111120   6.632   9.536   1.463 -0.0485  0.6790 -0.2202
  278ACOH    C111121   6.434   9.406   1.477 -0.2270 -0.2321  0.1856
  278ACOH    H111122   6.386   9.495   1.519  0.0100 -0.2998  0.5981
  278ACOH    H211123   6.439   9.332   1.556  0.0587 -0.5573 -0.1365
  278ACOH    H311124   6.385   9.352   1.395  0.4459  0.8552 -0.9573
  279ACOH    H411125   4.911   2.936   0.275 -0.5797 -0.7754  0.4257
  279ACOH    O211126   4.955   2.869   0.329 -0.1283 -0.6711  0.1997
  279ACOH    C211127   5.050   2.933   0.397  0.4844 -0.9929 -0.1896
  279ACOH    O111128   5.080   3.049   0.378 -0.4926  0.2949  0.5880
  279ACOH    C111129   5.111   2.842   0.500  0.0260  0.6504 -0.2628
  279ACOH    H111130   5.207   2.802   0.468  0.1263  0.3813  0.3621
  279ACOH    H211131   5.043   2.760   0.521  2.1201 -0.3603  2.8823
  279ACOH    H311132   5.130   2.891   0.596 -1.0881 -0.7124  0.6840
  280ACOH    H411133   4.413   6.873   2.112  1.8524  0.9470 -1.2333
  280ACOH    O211134   4.474   6.811   2.155  0.5175  0.1852 -0.4126
  280ACOH    C211135   4.406   6.699   2.168 -0.0620 -0.4043 -0.7603
  280ACOH    O111136   4.317   6.649   2.099 -0.2877  0.0247  0.3635
  280ACOH    C111137   4.466   6.620   2.283  0.2296 -0.3346 -0.4514
  280ACOH    H111138   4.388   6.573   2.342 -0.6135 -0.0833 -1.3488
  280ACOH    H211139   4.533   6.672   2.351  0.8346 -1.3069 -0.2948
  280ACOH    H311140   4.529   6.548   2.231  1.8700  1.3725 -0.8767
  281ACOH    H411141   0.232   9.290   0.491  1.7215  0.7583  0.5942
  281ACOH    O211142   0.251   9.213   0.435 -0.5987  0.3962  0.2334
  281ACOH    C211143   0.172   9.110   0.474  0.2035  0.1279 -0.1723
  281ACOH    O111144   0.190   8.997   0.432  0.3984 -0.1392 -0.1640
  281ACOH    C111145   0.087   9.139   0.590 -0.5811 -0.1291 -0.0719
  281ACOH    H111146  -0.014   9.101   0.575  0.2465 -2.6430  0.4630
  281ACOH    H211147   0.064   9.241   0.620 -0.9074  0.1327 -1.1836
  281ACOH    H311148   0.125   9.080   0.673  2.0866 -0.6190 -1.5828
  282ACOH    H411149   4.595   1.768   1.020  2.0611 -0.1766 -0.5225
  282ACOH    O211150   4.570   1.852   0.978 -0.2179 -0.6346 -0.1461
  282ACOH    C211151   4.459   1.827   0.903  0.2242 -0.0022 -0.0598
  282ACOH    O111152   4.394   1.725   0.903  0.6095 -0.0309  0.0282
  282ACOH    C111153   4.412   1.950   0.834  0.5013  0.9308  0.3688
  282ACOH    H111154   4.411   2.030   0.908 -0.6343  0.7582  0.5367
  282ACOH    H211155   4.307   1.936   0.809  1.1366 -2.0509 -0.8339
  282ACOH    H311156   4.480   1.974   0.752 -1.3229 -2.1028 -2.1395
  283ACOH    H411157   5.320   9.618   3.698  2.2970  0.1698  1.4868
  283ACOH    O211158   5.244   9.615   3.758  0.7348  0.2411 -0.4689
  283ACOH    C211159   5.132   9.624   3.680  0.4131 -0.1939 -0.0973
  283ACOH    O111160   5.117   9.639   3.556 -0.7265 -0.0421 -0.3836
  283ACOH    C111161   5.006   9.621   3.762  0.3894  0.7322  0.0151
  283ACOH    H111162   5.037   9.582   3.859  1.4696  1.8068  0.1053
  283ACOH    H211163   4.926   9.561   3.716  1.6812 -0.6659 -0.4357
  283ACOH    H311164   4.983   9.727   3.774 -0.6849  0.6333 -1.0134
  284ACOH    H411165   4.704   1.072   1.210 -0.4389 -0.2424  0.7974
  284ACOH    O211166   4.740   1.162   1.196  0.0783 -0.5849 -0.1276
  284ACOH    C211167   4.871   1.156   1.213 -0.1372  0.3126 -0.8446
  284ACOH    O111168   4.935   1.063   1.256 -0.0004  0.5589 -0.0620
  284ACOH    C111169   4.943   1.281   1.164  0.0420 -0.6136  0.1729
  284ACOH    H111170   4.991   1.342   1.241  0.9955  1.1127 -1.7455
  284ACOH    H211171   4.863   1.342   1.121  1.3941 -0.4139 -2.1283
  284ACOH    H311172   5.022   1.251   1.095 -0.9216  0.1820 -1.3027
  285ACOH    H411173   4.699   7.635   0.520 -0.0135 -0.5321  1.5733
  285ACOH    O211174   4.713   7.543   0.491 -0.2610 -0.1923  0.3363
  285ACOH    C211175   4.809   7.484   0.557 -0.4963  0.7032  0.2490
  285ACOH    O111176   4.877   7.533   0.644  0.0384  0.0336 -0.0769
  285ACOH    C111177   4.830   7.339   0.516  0.0967 -0.6770  0.3830
  285ACOH    H111178   4.937   7.325   0.503  0.2711  1.3885 -0.5518
  285ACOH    H211179   4.760   7.313   0.436  1.0215 -1.7900 -0.0798
  285ACOH    H311180   4.795   7.279   0.600  0.7885  0.3206  1.3947
  286ACOH    H411181   5.339   1.253   2.004 -0.1266 -0.4450 -0.3500
  286ACOH    O211182   5.405   1.216   1.942 -0.4564 -0.6062 -0.6022
  286ACOH    C211183   5.338   1.120   1.869  0.5464 -0.0957 -0.2250
  286ACOH    O111184   5.221   1.134   1.839 -0.5321  0.1113  0.4824
  286ACOH    C111185   5.426   1.028   1.794  0.2855 -0.1312 -0.3510
  286ACOH    H111186   5.521   1.012   1.846  0.4827  1.2047 -0.2739
  286ACOH    H211187   5.434   1.063   1.691 -1.6823 -0.8350 -0.7610
  286ACOH    H311188   5.382   0.929   1.782  2.1429 -0.8335 -1.6525
  287ACOH    H411189   4.309   3.821   3.789 -2.3777 -1.2459  0.2504
  287ACOH    O211190   4.342   3.742   3.834  0.0999 -0.4117 -0.0356
  287ACOH    C211191   4.235   3.681   3.874 -0.0796 -0.6033 -0.1432
  287ACOH    O111192   4.121   3.724   3.881 -0.9063  0.1871  0.0560
  287ACOH    C111193   4.260   3.566   3.952 -0.0038  0.3095  0.1496
  287ACOH    H111194   4.342   3.508   3.910 -0.1169 -1.3193  2.1610
  287ACOH    H211195   4.176   3.497   3.964 -1.6424  1.9668 -1.3762
  287ACOH    H311196   4.302   3.591   4.049 -0.7324  1.7784  0.0941
  288SOL     OW11197   1.033   1.904   3.097 -0.1972  0.5548 -0.3038
  288SOL    HW111198   0.988   1.846   3.165 -0.7025  0.1498 -0.9715
  288SOL    HW211199   1.130   1.911   3.117 -0.8027  2.7548  2.1263
  289SOL     OW11200   0.210   3.244   3.656  0.2371  0.1909 -0.4839
  289SOL    HW111201   0.150   3.305   3.708  0.1673  0.5893 -1.0328
  289SOL    HW211202   0.294   3.227   3.709 -0.3380 -0.3408  0.2702
  290SOL     OW11203   0.284   9.070   3.919 -0.0651  0.2290  0.5624
  290SOL    HW111204   0.339   9.097   3.840 -0.3836  1.5050  0.7614
  290SOL    HW211205   0.334   9.003   3.973  0.1818 -0.6029 -0.6925
  291SOL     OW11206   2.370   2.303   1.184  0.7245 -0.5297 -0.0993
  291SOL    HW111207   2.314   2.373   1.141  2.2540  2.0906  1.9965
  291SOL    HW211208   2.458   2.297   1.136  1.3939  0.4815  0.9880
  292SOL     OW11209   1.817   8.752   0.367 -0.2613  0.1675  0.5108
  292SOL    HW111210   1.761   8.821   0.321  0.2146  0.5259  0.4636
  292SOL    HW211211   1.760   8.674   0.392 -0.8894  0.7611  0.9442
  293SOL     OW11212   9.142   1.011   3.976  0.2287 -0.1560 -0.1600
  293SOL    HW111213   9.232   1.053   3.963 -0.2256  0.2950 -1.9158
  293SOL    HW211214   9.115   1.020   4.072  0.0692  3.7204 -0.5168
  294SOL     OW11215   0.395   9.832   1.068 -0.1685  0.0935 -0.4302
  294SOL    HW111216   0.487   9.802   1.043 -0.4196  1.2679 -2.9401
  294SOL    HW211217   0.328   9.780   1.015 -0.9346 -0.3573  0.9703
  295SOL     OW11218   2.602   2.371   0.071  0.3724 -0.2667 -0.3540
  295SOL    HW111219   2.520   2.314   0.060 -0.0139  0.8565 -4.1478
  295SOL    HW211220   2.599   2.446   0.005  4.1468  0.1984 -0.0978
  296SOL     OW11221   2.038   7.965   1.718  0.1321 -0.0856 -0.3071
  296SOL    HW111222   2.083   7.933   1.635 -2.5201 -1.5508 -1.2194
  296SOL    HW211223   1.942   7.985   1.699 -0.3635  0.1481  2.2643
  297SOL     OW11224   8.783   9.011   2.265 -0.1491 -0.4330  0.2932
  297SOL    HW111225   8.840   8.935   2.234 -1.3559 -1.4936  0.5984
  297SOL    HW211226   8.820   9.098   2.232  0.5182 -1.2661 -1.1617
  298SOL     OW11227   8.135   6.303   0.824  0.1350  0.0601 -0.9404
  298SOL    HW111228   8.223   6.349   0.838  0.6295 -1.6686  2.3067
  298SOL    HW211229   8.063   6.370   0.811  1.5503  1.5837 -1.0228
  299SOL     OW11230   1.141   3.200   3.518  0.2253  0.5805  0.3792
  299SOL    HW111231   1.076   3.138   3.563 -1.6387  1.5542 -0.9064
  299SOL    HW211232   1.135   3.290   3.561 -0.4052  1.0833 -0.7486
  300SOL     OW11233   0.416   2.485   0.323  0.2187  0.2926  0.4315
  300SOL    HW111234   0.474   2.453   0.398  1.1085 -1.0573 -0.7917
  300SOL    HW211235   0.335   2.427   0.316  1.2619 -1.0257 -1.0585
  301SOL     OW11236   0.602   7.486   1.441 -0.0247 -0.2713  0.4257
  301SOL    HW111237   0.651   7.406   1.476  0.2195  0.1073  0.9436
  301SOL    HW211238   0.604   7.484   1.341 -0.9916 -1.5215  0.4097
  302SOL     OW11239   0.657   2.868   1.039 -0.2753  0.0627 -0.4384
  302SOL    HW111240   0.608   2.812   0.972 -0.3682  0.0326 -0.3446
  302SOL    HW211241   0.734   2.817   1.075 -2.2436 -1.2397  2.0741
  303SOL     OW11242   8.318   0.971   0.203 -0.0195  0.0411 -0.3671
  303SOL    HW111243   8.391   0.999   0.141  0.1320  1.5223  0.4571
  303SOL    HW211244   8.237   1.029   0.189 -0.4920 -0.5676 -0.2006
  304SOL     OW11245   3.858   5.081   2.880 -0.5147 -0.5849 -0.7890
  304SOL    HW111246   3.764   5.059   2.907 -0.4858 -0.2888 -0.4446
  304SOL    HW211247   3.920   5.012   2.916 -0.3581  0.3366  0.7656
  305SOL     OW11248   0.589   8.340   2.723 -0.0707  0.0138 -0.0336
  305SOL    HW111249   0.636   8.326   2.635 -0.6129  0.4287 -0.3918
  305SOL    HW211250   0.626   8.276   2.791  1.3756  0.6849 -0.1718
  306SOL     OW11251   4.492   2.629   0.362  0.3928  0.7013  0.2618
  306SOL    HW111252   4.431   2.560   0.323  0.3160  0.3113  1.0609
  306SOL    HW211253   4.579   2.587   0.387  0.8314  1.1709 -0.4862
  307SOL     OW11254   7.697   9.777   0.500  0.1336  0.2146  0.3217
  307SOL    HW111255   7.742   9.689   0.487 -0.1163 -0.0873  1.4622
  307SOL    HW211256   7.620   9.785   0.437  1.1585  0.3191 -0.9408
  308SOL     OW11257   1.912   1.583   0.064  0.4618 -0.4942 -0.0100
  308SOL    HW111258   2.010   1.576   0.081  0.2516 -0.4537  1.2761
  308SOL    HW211259   1.876   1.492   0.042  0.4934 -0.7906  1.1630
  309SOL     OW11260   3.144   4.877   0.873 -0.3752 -0.3066  0.2136
  309SOL    HW111261   3.148   4.936   0.792  2.8682  1.0994  1.3013
  309SOL    HW211262   3.084   4.799   0.854 -1.2662  1.0151 -2.8168
  310SOL     OW11263   4.416   9.111   0.466  1.0403 -0.4424  0.0204
  310SOL    HW111264   4.461   9.038   0.516 -1.2979 -0.2307  2.5602
  310SOL    HW211265   4.474   9.193   0.467  2.3011 -1.3173 -0.1843
  311SOL     OW11266   4.216   7.301   1.959  0.4951 -0.0105 -0.3888
  311SOL    HW111267   4.228   7.356   1.877 -3.4101  0.3583 -0.8142
  311SOL    HW211268   4.237   7.355   2.040  3.1021  0.0136 -1.0347
  312SOL     OW11269   3.688   1.208   2.439 -0.0366  0.4917  0.2885
  312SOL    HW111270   3.774   1.182   2.395 -0.2704  1.7126 -0.9121
  312SOL    HW211271   3.624   1.241   2.370 -0.5979  1.9234  1.4718
  313SOL     OW11272   2.065   2.619   1.298 -0.2069 -0.4986  0.1368
  313SOL    HW111273   2.070   2.531   1.344  0.6620 -1.9543 -2.6380
  313SOL    HW211274   2.123   2.618   1.217 -2.4089  1.6121 -1.5577
  314SOL     OW11275   4.537   2.651   2.580  0.6897 -0.1253  0.1636
  314SOL    HW111276   4.446   2.614   2.563  0.0643  0.7685  1.5505
  314SOL    HW211277   4.544   2.743   2.543  1.6865 -0.8883 -1.6815
  315SOL     OW11278   7.668   1.130   0.740  0.3609 -0.4606 -0.1671
  315SOL    HW111279   7.693   1.214   0.692 -0.5677 -0.0287  0.1006
  315SOL    HW211280   7.571   1.111   0.728  0.3352 -0.9137  0.6700
  316SOL     OW11281   9.755   2.341   0.492  0.4538 -0.1391 -0.3908
  316SOL    HW111282   9.697   2.417   0.461  0.4697 -0.3465 -0.9392
  316SOL    HW211283   9.851   2.368   0.489  0.3763  0.2721  0.7104
  317SOL     OW11284   3.805   8.129   3.546  0.8642 -0.2636  0.0415
  317SOL    HW111285   3.856   8.199   3.596 -1.5165  1.5041  0.1006
  317SOL    HW211286   3.822   8.139   3.448 -0.7081  1.4808 -0.0767
  318SOL     OW11287   7.338   8.332   1.214  0.0619  0.0779 -0.1317
  318SOL    HW111288   7.357   8.274   1.134 -0.3278  1.6547 -1.4062
  318SOL    HW211289   7.423   8.374   1.245  0.4674 -1.6693  1.2305
  319SOL     OW11290   1.625   7.610   2.907 -0.4624 -0.5153  0.4957
  319SOL    HW111291   1.560   7.659   2.850  0.0342  0.2742  0.5999
  319SOL    HW211292   1.716   7.617   2.867 -0.3324 -1.0552  0.6993
  320SOL     OW11293   3.518   2.878   1.433 -0.8312  0.0501  0.3146
  320SOL    HW111294   3.510   2.977   1.439  0.0996  0.0847  1.1865
  320SOL    HW211295   3.614   2.852   1.439 -1.0694 -0.9116  0.0965
  321SOL     OW11296   3.664   0.389   2.592 -0.2337 -0.3141 -0.4184
  321SOL    HW111297   3.670   0.480   2.633 -0.9518 -0.1325 -0.7043
  321SOL    HW211298   3.575   0.379   2.547  1.0629  0.0385 -3.1880
  322SOL     OW11299   9.728   8.029   0.035  0.2042  0.1113 -0.2951
  322SOL    HW111300   9.817   8.074   0.025  0.5478 -0.6375 -0.6368
  322SOL    HW211301   9.662   8.070  -0.028  0.4381  0.3324 -0.3974
  323SOL     OW11302   9.020   9.950   0.520  0.0622 -0.1343 -0.3915
  323SOL    HW111303   8.936  10.001   0.501 -0.6706 -0.5955  1.5414
  323SOL    HW211304   9.011   9.857   0.486 -0.8301 -0.6357  1.1541
  324SOL     OW11305   2.976   5.811   1.987  0.0076 -0.6172  0.2165
  324SOL    HW111306   3.019   5.889   1.942  1.2382 -1.3364  0.1294
  324SOL    HW211307   3.009   5.727   1.945 -0.3762 -1.2256  1.1394
  325SOL     OW11308   9.785   8.975   1.708  0.5509 -0.1140 -0.4002
  325SOL    HW111309   9.707   9.031   1.681 -0.7544 -1.7841 -0.1955
  325SOL    HW211310   9.803   8.906   1.637  1.7805  0.1940 -0.4028
  326SOL     OW11311   2.269   2.526   0.508 -0.0684 -0.1951 -0.7680
  326SOL    HW111312   2.174   2.497   0.511  0.1095 -0.6723  0.3392
  326SOL    HW211313   2.326   2.449   0.479 -0.0207  0.1087 -1.5013
  327SOL     OW11314   2.930   4.586   0.462 -0.3433  0.0317  0.3126
  327SOL    HW111315   2.998   4.530   0.509 -2.0264 -0.9907  1.6039
  327SOL    HW211316   2.887   4.532   0.390  1.5983  1.3132 -1.8628
  328SOL     OW11317   1.681   6.489   3.431  0.2105 -0.0704 -0.4781
  328SOL    HW111318   1.686   6.561   3.363  0.9216 -1.5477 -2.0370
  328SOL    HW211319   1.586   6.457   3.439 -0.0632  0.8823  0.0503
  329SOL     OW11320   2.663   7.873   0.992 -0.4829 -0.1581  0.3602
  329SOL    HW111321   2.578   7.879   1.045  0.8856  1.1673  2.4762
  329SOL    HW211322   2.668   7.950   0.929  0.8608  1.9828  2.9514
  330SOL     OW11323   1.959   1.818   2.465  0.0125  0.0184  0.0673
  330SOL    HW111324   2.005   1.759   2.531  0.4325  0.0890 -0.1574
  330SOL    HW211325   2.028   1.860   2.405 -0.0682  2.6375  1.7548
  331SOL     OW11326   0.564   0.758   3.376 -0.5885 -0.0916 -0.5445
  331SOL    HW111327   0.576   0.678   3.317  0.8130 -1.3473  1.3801
  331SOL    HW211328   0.609   0.837   3.334 -0.0026 -0.8627 -1.3854
  332SOL     OW11329   2.688   3.476   0.325  0.3311 -0.2819 -0.7038
  332SOL    HW111330   2.767   3.416   0.313  1.4191  0.9149  0.2982
  332SOL    HW211331   2.698   3.556   0.266  0.8562  0.8194  0.8349
  333SOL     OW11332   8.444   3.185   3.472 -0.8467  0.4329  0.8271
  333SOL    HW111333   8.484   3.273   3.448 -3.2836  1.6162  0.9897
  333SOL    HW211334   8.516   3.115   3.472  0.6988  1.9153 -1.7508
  334SOL     OW11335   0.416   1.262   1.378 -0.1919 -0.1579  0.2581
  334SOL    HW111336   0.396   1.314   1.295  1.1793 -1.1106 -0.6857
  334SOL    HW211337   0.439   1.326   1.452  1.5259  0.5999 -0.8984
  335SOL     OW11338   7.579   1.582   2.439 -0.2574  0.0816 -0.4214
  335SOL    HW111339   7.514   1.599   2.513  0.4506 -0.5124  0.3395
  335SOL    HW211340   7.532   1.590   2.351 -1.3773 -0.3781  0.1237
  336SOL     OW11341   0.378   8.844   2.936 -0.5033  0.4188 -0.0135
  336SOL    HW111342   0.357   8.770   2.873  0.1858  0.9951 -0.9442
  336SOL    HW211343   0.462   8.890   2.907  0.9099 -0.5126  2.4230
  337SOL     OW11344   3.089   8.338   0.169  0.4291  0.1926  0.2619
  337SOL    HW111345   3.071   8.374   0.261  1.4676 -1.2962  1.0733
  337SOL    HW211346   3.156   8.264   0.175 -1.3574 -1.6087 -1.4029
  338SOL     OW11347   1.357   7.430   2.083 -0.4034  0.2535 -0.4796
  338SOL    HW111348   1.427   7.364   2.112 -0.2768  0.8567  0.6202
  338SOL    HW211349   1.365   7.513   2.138 -3.0036 -0.2736  0.7884
  339SOL     OW11350   1.261   3.856   4.024 -0.3579  0.1891 -0.0556
  339SOL    HW111351   1.226   3.945   4.055  0.5859  0.0990  1.2839
  339SOL    HW211352   1.358   3.850   4.044 -0.7267 -1.7768  1.2950
  340SOL     OW11353   0.101   0.752   3.885 -0.2635 -0.3132 -0.1967
  340SOL    HW111354   0.155   0.708   3.813 -0.6595 -0.7918 -0.2004
  340SOL    HW211355   0.023   0.798   3.844 -0.5794 -0.7237 -0.0555
  341SOL     OW11356   9.244   2.442   3.888 -0.0387  0.4852  0.6669
  341SOL    HW111357   9.231   2.393   3.974  0.5816  0.2818  0.6467
  341SOL    HW211358   9.329   2.495   3.892 -0.5953  1.3829  0.6053
  342SOL     OW11359   3.601   0.962   3.633 -0.2643  0.4452 -0.8579
  342SOL    HW111360   3.646   0.873   3.620  0.0298  0.3519  0.7758
  342SOL    HW211361   3.667   1.028   3.667 -0.9771  0.7613 -0.0939
  343SOL     OW11362   7.863   8.039   3.809 -0.7279 -0.2377  0.2753
  343SOL    HW111363   7.889   7.959   3.863  0.7429  1.7038  2.5350
  343SOL    HW211364   7.932   8.111   3.820 -2.1459  1.4533 -1.4971
  344SOL     OW11365   9.282   3.528   1.091 -0.2332 -0.3203 -0.2218
  344SOL    HW111366   9.366   3.542   1.039  1.6923 -0.8541  2.6387
  344SOL    HW211367   9.222   3.467   1.040  1.2451 -0.2253 -2.1589
  345SOL     OW11368   1.590   6.688   2.068  0.1430 -0.0581 -0.4760
  345SOL    HW111369   1.655   6.713   2.139 -1.0777  0.5708  0.4443
  345SOL    HW211370   1.594   6.590   2.051  0.2268 -0.2502  0.6666
  346SOL     OW11371   1.711   3.102   3.405  0.0424 -0.4282  0.0300
  346SOL    HW111372   1.625   3.152   3.391 -0.4880 -1.7961 -1.8249
  346SOL    HW211373   1.767   3.109   3.323  0.3770 -2.0358  0.0950
  347SOL     OW11374   3.365   8.470   2.866  0.0965  0.4401  0.1445
  347SOL    HW111375   3.339   8.448   2.959 -0.4268  1.0314  0.1383
  347SOL    HW211376   3.459   8.506   2.865  1.0133 -1.8753  0.1390
  348SOL     OW11377   2.438   1.856   2.675 -1.0475 -0.0553  0.3429
  348SOL    HW111378   2.501   1.913   2.622 -2.0845 -0.0001 -0.8652
  348SOL    HW211379   2.484   1.823   2.757  0.2986  0.6392 -0.1126
  349SOL     OW11380   2.295   7.703   2.335 -0.7488 -0.7443  0.0685
  349SOL    HW111381   2.288   7.753   2.248 -1.0035  1.3202  1.2568
  349SOL    HW211382   2.220   7.638   2.342 -1.6693  0.2409 -0.5293
  350SOL     OW11383   4.156   0.427   0.399  0.0700 -0.3226  0.9646
  350SOL    HW111384   4.127   0.493   0.330 -0.5458  0.2863  1.7947
  350SOL    HW211385   4.249   0.449   0.430  0.1756 -0.3296  0.6464
  351SOL     OW11386   4.091   0.016   2.572 -0.5318  0.2777  0.3810
  351SOL    HW111387   4.182  -0.021   2.590 -0.9120 -0.7966  0.1735
  351SOL    HW211388   4.097   0.087   2.502  0.2303  0.6965  0.8629
  352SOL     OW11389   7.727   2.889   3.813  0.1189 -0.1498 -0.1366
  352SOL    HW111390   7.730   2.789   3.821 -2.5209 -0.1781  1.3787
  352SOL    HW211391   7.818   2.926   3.827  0.7371 -2.2356  1.8332
  353SOL     OW11392   1.622   0.362   0.608  0.3828 -0.4468  0.5768
  353SOL    HW111393   1.579   0.375   0.519  0.3088 -1.7567  0.4178
  353SOL    HW211394   1.579   0.422   0.675  0.8505  1.0076 -0.3889
  354SOL     OW11395   1.915   9.419   3.482  0.0131 -0.4804 -0.0830
  354SOL    HW111396   1.908   9.320   3.472  3.4076 -0.7877 -0.1256
  354SOL    HW211397   1.957   9.458   3.399  1.5500  0.5705  1.1569
  355SOL     OW11398   1.602   1.636   3.533  0.0865 -0.2688 -0.0457
  355SOL    HW111399   1.691   1.616   3.492 -0.2759  1.1511 -1.5319
  355SOL    HW211400   1.592   1.734   3.545 -1.9169 -0.3041 -1.3304
  356SOL     OW11401   2.842   8.535   3.154 -0.4955 -0.2520 -0.3654
  356SOL    HW111402   2.877   8.462   3.212  1.2513  0.1287 -0.9109
  356SOL    HW211403   2.754   8.568   3.190 -0.4718 -1.4622  0.8220
  357SOL     OW11404   9.382   3.104   2.852 -0.2022 -0.3105  0.2939
  357SOL    HW111405   9.402   3.045   2.930 -0.9477 -1.4442 -0.3541
  357SOL    HW211406   9.349   3.048   2.776 -0.5128  0.9013 -0.4736
  358SOL     OW11407   1.218   9.864   2.512  0.0388  0.0187  0.1112
  358SOL    HW111408   1.203   9.767   2.492 -0.6253  0.8123 -3.5123
  358SOL    HW211409   1.316   9.884   2.508  0.1905 -0.5252  1.0135
  359SOL     OW11410   9.249   1.941   2.268  0.4097  0.2847  0.3559
  359SOL    HW111411   9.207   1.862   2.223 -1.8495  0.6821  1.6720
  359SOL    HW211412   9.341   1.919   2.297  1.3672 -0.4907 -3.0426
  360SOL     OW11413   9.487   9.300   0.038 -0.0360 -0.1394  0.2782
  360SOL    HW111414   9.554   9.227   0.028  0.4383  0.3324 -0.0586
  360SOL    HW211415   9.526   9.373   0.095 -0.2306  0.1726  0.0135
  361SOL     OW11416   2.947   0.621   1.016  0.0450 -0.2412 -0.2211
  361SOL    HW111417   2.957   0.526   1.046 -1.0233 -0.9964 -2.1686
  361SOL    HW211418   3.037   0.664   1.009  0.5337 -1.1061  0.6582
  362SOL     OW11419   8.816   3.338   1.495  0.4178 -0.2903  0.0053
  362SOL    HW111420   8.872   3.281   1.435  2.3323  0.3934  1.1052
  362SOL    HW211421   8.794   3.424   1.449 -0.3182 -0.8339 -0.6798
  363SOL     OW11422   4.528   4.789   1.579  0.2305 -0.3859  0.4462
  363SOL    HW111423   4.488   4.844   1.652  0.0196 -0.6621  0.5405
  363SOL    HW211424   4.560   4.849   1.506  1.1456 -0.0604  1.1078
  364SOL     OW11425   0.028   2.427   0.512 -0.4481 -0.3597  0.0526
  364SOL    HW111426   0.068   2.406   0.423  0.0593 -1.2636  0.4799
  364SOL    HW211427   0.067   2.513   0.547 -0.0405 -0.4213 -0.2435
  365SOL     OW11428   7.157   0.524   3.152 -0.1551  0.6592 -0.2778
  365SOL    HW111429   7.144   0.621   3.130  0.6792  0.3676 -2.1385
  365SOL    HW211430   7.250   0.497   3.128 -0.5904 -0.7739 -0.3798
  366SOL     OW11431   1.517   4.171   0.923 -0.3381  0.1356 -0.4682
  366SOL    HW111432   1.510   4.263   0.960  0.0091 -0.4838  1.1943
  366SOL    HW211433   1.539   4.176   0.825 -0.1698  1.7999 -0.3619
  367SOL     OW11434   3.564   5.756   2.902  0.4472 -0.2868 -0.5891
  367SOL    HW111435   3.614   5.832   2.862  0.9560  0.4834  1.5050
  367SOL    HW211436   3.470   5.756   2.866  0.0598  2.0943  0.3670
  368SOL     OW11437   3.765   6.532   2.331 -0.2293  0.2553 -0.9814
  368SOL    HW111438   3.810   6.453   2.290 -1.6739 -0.5871 -0.9799
  368SOL    HW211439   3.666   6.523   2.321 -0.4133  2.0506 -0.9447
  369SOL     OW11440   8.413   0.746   1.905 -0.8104 -0.4045  0.5105
  369SOL    HW111441   8.348   0.710   1.972 -1.0817  0.9916  1.0036
  369SOL    HW211442   8.411   0.689   1.823  0.0165 -2.5342  1.9307
  370SOL     OW11443   1.507   5.212   2.789  0.3381  0.4967  0.1342
  370SOL    HW111444   1.574   5.145   2.759  0.9930  1.3950 -0.4482
  370SOL    HW211445   1.452   5.241   2.711  1.0897  1.7798  0.0663
  371SOL     OW11446   1.948   9.715   1.282  0.0982  0.5948  0.0829
  371SOL    HW111447   1.874   9.652   1.307  0.9819  0.1696  1.6650
  371SOL    HW211448   1.960   9.782   1.355 -1.0283  2.8148 -1.7112
  372SOL     OW11449   7.375   0.003   3.253 -0.2030 -0.4829  0.3416
  372SOL    HW111450   7.379   0.074   3.182 -0.7071 -0.5155  0.2786
  372SOL    HW211451   7.303   0.025   3.318  0.9208  0.0723  1.4260
  373SOL     OW11452   9.932   9.235   2.627  0.8634 -0.5118  0.1339
  373SOL    HW111453   9.904   9.139   2.618  1.4406 -0.9227  2.4225
  373SOL    HW211454  10.009   9.242   2.690  1.7986  1.3128 -1.1819
  374SOL     OW11455   8.755   7.760   0.420  0.3904  0.2425  0.0376
  374SOL    HW111456   8.758   7.713   0.508 -0.3257 -0.2339 -0.1908
  374SOL    HW211457   8.673   7.733   0.371 -0.7437  2.7910  0.4849
  375SOL     OW11458   4.304   2.586   3.233  0.2915 -0.3215  0.1723
  375SOL    HW111459   4.380   2.610   3.293 -1.0325  0.9621  1.3901
  375SOL    HW211460   4.218   2.595   3.284 -0.7473 -0.6036 -1.5100
  376SOL     OW11461   2.687   7.092   2.993 -0.1623  0.3049  0.6475
  376SOL    HW111462   2.707   7.185   3.021 -0.2117  0.9573 -1.3963
  376SOL    HW211463   2.640   7.093   2.904  1.0646 -1.7015 -0.0714
  377SOL     OW11464   4.840   3.047   0.151  0.5821 -0.5459 -0.2259
  377SOL    HW111465   4.753   3.066   0.105  0.0169 -1.1510  0.5676
  377SOL    HW211466   4.910   3.023   0.083 -0.2792 -1.5962 -0.7555
  378SOL     OW11467   1.440   7.968   0.838  0.0145  0.0448  0.5812
  378SOL    HW111468   1.469   7.873   0.851  0.9307  0.3216  0.5513
  378SOL    HW211469   1.499   8.029   0.891  0.4801  0.7464 -0.7427
  379SOL     OW11470   7.361   0.184   3.039 -0.2124  0.7384  0.2108
  379SOL    HW111471   7.449   0.148   3.008 -1.4695 -1.6420 -0.6901
  379SOL    HW211472   7.303   0.202   2.960 -0.6611  2.0081  0.8233
  380SOL     OW11473   1.268   5.206   3.969  0.4350  0.0736  0.3183
  380SOL    HW111474   1.365   5.230   3.969  0.3064  0.5925 -0.0437
  380SOL    HW211475   1.244   5.166   4.058  1.0357 -0.2926  0.3168
  381SOL     OW11476   0.498   7.541   1.863  0.1979  0.7578  0.0641
  381SOL    HW111477   0.446   7.456   1.855  0.6081  0.6401 -1.4996
  381SOL    HW211478   0.596   7.520   1.862  0.2963  1.1524  0.9520
  382SOL     OW11479   1.697   4.889   2.516 -0.3249  0.2423  0.5620
  382SOL    HW111480   1.682   4.963   2.581  2.8400  0.7980  0.7415
  382SOL    HW211481   1.713   4.804   2.566 -1.0607  0.0264  0.4305
  383SOL     OW11482   3.674   1.071   3.970  0.9528 -0.1911 -0.4785
  383SOL    HW111483   3.587   1.026   3.948 -0.1736  0.0616  3.1546
  383SOL    HW211484   3.656   1.161   4.008  2.7592 -0.5191  1.2305
  384SOL     OW11485   3.500   4.472   1.284  1.0248 -0.3186  0.0486
  384SOL    HW111486   3.459   4.415   1.213  0.7379  0.3041 -0.2814
  384SOL    HW211487   3.456   4.561   1.286  2.3204  0.3469 -0.2794
  385SOL     OW11488   2.111   9.225   2.898 -0.5628  0.5207  0.3318
  385SOL    HW111489   2.088   9.151   2.961 -0.9783  0.2582 -0.1198
  385SOL    HW211490   2.122   9.188   2.806 -0.5268  0.9828  0.1498
  386SOL     OW11491   8.989   2.102   3.258  0.2765 -0.5062 -0.1128
  386SOL    HW111492   9.022   2.187   3.299  1.5349 -0.8397 -0.4317
  386SOL    HW211493   9.053   2.028   3.277 -0.2628 -1.1509 -0.7594
  387SOL     OW11494   7.920   4.888   0.828  0.2236 -0.1680 -0.0967
  387SOL    HW111495   7.998   4.828   0.813 -0.1581 -0.1938 -2.1676
  387SOL    HW211496   7.938   4.978   0.787 -0.9747 -0.2966 -0.9145
  388SOL     OW11497   5.349   8.553   1.916  0.5613 -0.5749 -0.0601
  388SOL    HW111498   5.400   8.504   1.987 -1.1127  0.0398  1.6336
  388SOL    HW211499   5.390   8.642   1.900 -0.1375  0.0521  1.5313
  389SOL     OW11500   0.179   2.007   0.820 -0.8262  0.2904 -0.3824
  389SOL    HW111501   0.157   1.947   0.898 -2.0313  0.8450 -0.2794
  389SOL    HW211502   0.267   1.980   0.781 -0.8335 -0.8439  0.3506
  390SOL     OW11503   1.808   2.773   2.698 -0.1007 -0.2418  0.2094
  390SOL    HW111504   1.897   2.817   2.681 -0.2131 -0.4925 -1.1346
  390SOL    HW211505   1.755   2.827   2.762  0.3134  0.8639 -0.3760
  391SOL     OW11506   8.953   2.584   1.110  0.0618  0.0666  0.3791
  391SOL    HW111507   8.991   2.622   1.026  3.0267 -1.9200  0.7227
  391SOL    HW211508   8.910   2.496   1.090  0.1157 -0.0638  0.8302
  392SOL     OW11509   2.099   3.075   2.249  0.2938 -0.0195  0.1571
  392SOL    HW111510   2.184   3.123   2.272  0.6016 -0.9295  0.9798
  392SOL    HW211511   2.049   3.054   2.333  0.4933 -1.7126 -0.1150
  393SOL     OW11512   0.817   4.676   1.561  0.0164 -0.2335  0.1241
  393SOL    HW111513   0.843   4.650   1.469 -0.2352  0.7390 -0.2350
  393SOL    HW211514   0.784   4.596   1.611 -2.1114 -0.3673 -1.4112
  394SOL     OW11515   8.665   2.082   1.946 -0.1023 -0.2286  0.0398
  394SOL    HW111516   8.615   2.168   1.952 -0.3505 -0.2872 -1.1441
  394SOL    HW211517   8.601   2.006   1.935  0.2324 -0.2808 -1.7184
  395SOL     OW11518   8.056   8.608   0.555 -0.3268 -0.5313  0.0003
  395SOL    HW111519   8.081   8.653   0.640 -1.3099 -1.2733  0.7072
  395SOL    HW211520   8.115   8.529   0.540 -0.1789 -0.4245  0.0120
  396SOL     OW11521   2.462   7.954   0.038 -0.3560 -0.1485 -0.1718
  396SOL    HW111522   2.461   7.960  -0.062 -0.4196  2.4872 -0.0473
  396SOL    HW211523   2.465   8.046   0.077  1.0361 -1.1745  2.2500
  397SOL     OW11524   0.866   4.238   1.585  0.0675 -0.3637  0.0620
  397SOL    HW111525   0.778   4.202   1.554 -0.5406 -1.2434  2.6793
  397SOL    HW211526   0.940   4.183   1.546 -0.6064 -0.5603 -0.9550
  398SOL     OW11527   2.860   5.952   1.562  0.3980  0.2581  0.0729
  398SOL    HW111528   2.847   5.981   1.657  1.0412 -1.0186  0.5575
  398SOL    HW211529   2.775   5.911   1.528 -0.6657  3.0372 -0.7615
  399SOL     OW11530   5.699   8.513   1.800 -0.1042 -0.6730 -0.5239
  399SOL    HW111531   5.599   8.506   1.807  0.1295 -1.5391  2.7626
  399SOL    HW211532   5.739   8.422   1.803  0.8075 -0.3023 -1.4162
  400SOL     OW11533   3.184   9.770   3.043 -0.8304 -0.1349 -0.2371
  400SOL    HW111534   3.267   9.814   3.007  0.0973 -1.5368  0.1717
  400SOL    HW211535   3.201   9.739   3.136 -0.4728 -3.9969 -1.5078
  401SOL     OW11536   2.406   4.608   0.798 -0.5683 -0.2428  0.1131
  401SOL    HW111537   2.412   4.522   0.848 -0.9824 -0.2559  0.1400
  401SOL    HW211538   2.428   4.684   0.859  2.7080 -0.5260 -0.6146
  402SOL     OW11539   2.656   8.473   0.643  0.2665  0.1160  0.0348
  402SOL    HW111540   2.592   8.542   0.676  0.2135 -0.5384  1.3652
  402SOL    HW211541   2.657   8.472   0.543 -2.9743 -0.9166 -0.0491
  403SOL     OW11542   1.384   3.319   3.914  0.4376  0.3446 -0.1542
  403SOL    HW111543   1.412   3.224   3.929 -1.5042 -0.6886 -2.8133
  403SOL    HW211544   1.320   3.347   3.986 -0.7539 -1.1315 -0.6174
  404SOL     OW11545   8.733   1.932   0.241  0.1824 -0.0900  0.0232
  404SOL    HW111546   8.827   1.898   0.237  0.1451 -0.1846 -0.0446
  404SOL    HW211547   8.702   1.955   0.149  0.1519 -0.0239  0.0502
  405SOL     OW11548   1.092   3.820   3.826  0.9129 -0.2205 -0.4087
  405SOL    HW111549   1.153   3.842   3.902  0.4404 -0.9462  0.1861
  405SOL    HW211550   1.064   3.724   3.833 -1.6684  0.5412  0.2868
  406SOL     OW11551   3.955   2.351   2.515 -0.6221  0.4053 -0.4721
  406SOL    HW111552   4.041   2.379   2.473 -0.6007  1.0643 -0.0019
  406SOL    HW211553   3.969   2.270   2.572 -0.4392  0.1450 -0.8913
  407SOL     OW11554   4.798   2.794   3.097 -0.0775  0.3117 -0.3220
  407SOL    HW111555   4.700   2.787   3.083  0.1050  0.7086 -1.8693
  407SOL    HW211556   4.845   2.727   3.039  0.4964 -0.8610  1.4620
  408SOL     OW11557   3.904   8.567   3.789  0.3220 -0.4156 -0.2963
  408SOL    HW111558   3.965   8.606   3.858 -1.4191  1.5024  0.2062
  408SOL    HW211559   3.809   8.576   3.820 -0.3770 -1.0786 -2.1884
  409SOL     OW11560   2.771   2.180   1.380  0.2597 -0.2331  0.2773
  409SOL    HW111561   2.731   2.155   1.292 -2.3165  1.0527  1.0556
  409SOL    HW211562   2.848   2.243   1.365 -0.6476  0.5920 -1.0181
  410SOL     OW11563   4.642   9.451   1.440  0.1494  0.6533 -0.0286
  410SOL    HW111564   4.602   9.538   1.471 -2.6094 -0.4475 -0.2902
  410SOL    HW211565   4.645   9.387   1.516  0.2450  0.3084 -0.3218
  411SOL     OW11566   2.040   6.673   1.734 -0.1297  0.6940 -0.0425
  411SOL    HW111567   2.125   6.697   1.781  0.0573  1.6549 -0.8515
  411SOL    HW211568   1.966   6.730   1.768  0.2357  2.2051 -1.6929
  412SOL     OW11569   2.090   3.585   3.302  0.4093 -0.4413  0.2642
  412SOL    HW111570   2.002   3.590   3.255  0.5607 -0.0109  0.0257
  412SOL    HW211571   2.145   3.512   3.262  1.0417  0.7468 -1.1023
  413SOL     OW11572   0.840   8.420   0.023  0.3687  0.0708  0.3616
  413SOL    HW111573   0.770   8.359   0.059  0.0703  0.7278  0.9118
  413SOL    HW211574   0.925   8.407   0.075  0.3875 -0.0662  0.2978
  414SOL     OW11575   8.629   2.007   0.979  0.7004 -0.1007 -0.4683
  414SOL    HW111576   8.575   1.977   1.058 -0.1417  2.2286 -0.1242
  414SOL    HW211577   8.648   1.928   0.920 -1.7984 -1.2429  0.1683
  415SOL     OW11578   3.372   2.289   3.266  0.1462  0.2645 -0.0836
  415SOL    HW111579   3.367   2.259   3.361  1.4604 -0.5792 -0.2631
  415SOL    HW211580   3.435   2.230   3.215  0.1492  1.2491 -1.2639
  416SOL     OW11581   9.638   9.821   3.335 -0.6342  0.2481 -0.6503
  416SOL    HW111582   9.551   9.789   3.296 -0.0617 -1.2738 -0.7019
  416SOL    HW211583   9.691   9.743   3.367 -0.2588  1.3150  1.4663
  417SOL     OW11584   0.510   8.026   3.228 -0.2866  0.1850 -0.5075
  417SOL    HW111585   0.449   8.079   3.169 -0.8596  0.0087 -0.0810
  417SOL    HW211586   0.468   7.938   3.249  0.4445 -0.2392 -0.8047
  418SOL     OW11587   1.262   4.333   0.490  0.5126 -0.3321 -0.0097
  418SOL    HW111588   1.162   4.340   0.484  0.5255  0.2768  0.3672
  418SOL    HW211589   1.298   4.418   0.528  1.3474  0.2607 -2.0884
  419SOL     OW11590   4.640   7.329   1.055  0.4021 -0.7215 -0.2644
  419SOL    HW111591   4.732   7.369   1.065  1.2483 -3.0419  1.5963
  419SOL    HW211592   4.646   7.246   1.000 -0.4307 -1.4578  0.7581
  420SOL     OW11593   3.686   4.597   3.135  0.3966 -0.2614 -0.2623
  420SOL    HW111594   3.708   4.689   3.166 -1.1321 -0.3356  1.1166
  420SOL    HW211595   3.617   4.557   3.196 -1.1064 -1.2201 -2.5488
  421SOL     OW11596   1.016   7.527   0.579 -0.4334 -0.6522 -0.2179
  421SOL    HW111597   1.112   7.500   0.565  0.2992  0.5199  2.3277
  421SOL    HW211598   0.956   7.452   0.554  1.1970 -1.7492 -0.9171
  422SOL     OW11599   2.863   9.117   2.040  0.0024 -0.2776 -0.1581
  422SOL    HW111600   2.826   9.077   2.124 -1.3113 -0.0603 -0.6271
  422SOL    HW211601   2.928   9.053   1.999  0.5398 -0.4506  0.9333
  423SOL     OW11602   2.312   6.957   1.525 -0.2495  0.3837  0.3194
  423SOL    HW111603   2.357   7.017   1.459 -0.0475 -0.1259 -0.0069
  423SOL    HW211604   2.244   7.009   1.577  0.6118  1.1098  0.7082
  424SOL     OW11605   4.114   2.690   3.412  0.9628 -0.3345  0.3784
  424SOL    HW111606   4.107   2.646   3.501  0.2355  0.0145  0.4931
  424SOL    HW211607   4.142   2.786   3.424  1.1233 -0.3598  0.2151
  425SOL     OW11608   9.416   1.223   2.515 -0.0355 -0.7222 -0.5216
  425SOL    HW111609   9.416   1.292   2.587 -2.3537 -0.8734 -0.3571
  425SOL    HW211610   9.489   1.244   2.449  0.7259  0.6045  0.6985
  426SOL     OW11611   9.484   1.397   0.419  0.0035  0.1472  0.1617
  426SOL    HW111612   9.449   1.362   0.505 -0.3354 -1.5093 -0.6207
  426SOL    HW211613   9.581   1.373   0.411  0.0548  0.3733  0.1273
  427SOL     OW11614   4.157   7.662   1.968  0.9554 -0.4237  0.0278
  427SOL    HW111615   4.206   7.687   2.052  0.1207  1.3910 -0.0246
  427SOL    HW211616   4.065   7.630   1.992  0.4353  0.8457 -0.2381
  428SOL     OW11617   3.025   9.399   1.685 -0.0026  0.4246 -0.7447
  428SOL    HW111618   2.969   9.361   1.758 -0.3875 -0.6737 -1.6011
  428SOL    HW211619   2.999   9.495   1.669  0.7806  0.9800  1.2189
  429SOL     OW11620   0.759   3.997   0.769  0.1255 -0.2820 -0.0670
  429SOL    HW111621   0.803   3.910   0.748  0.9353 -0.4873  2.3355
  429SOL    HW211622   0.661   3.983   0.780  0.2200 -0.8688  0.0661
  430SOL     OW11623   8.376   8.996   1.127  0.2938  0.3748 -0.2415
  430SOL    HW111624   8.438   8.978   1.204  0.8783  0.8363 -0.6009
  430SOL    HW211625   8.422   9.054   1.060  0.3696 -1.2743 -1.6828
  431SOL     OW11626   9.633   2.106   2.222  0.6330  0.7217 -0.0390
  431SOL    HW111627   9.678   2.020   2.197  0.5315  0.0553  1.9489
  431SOL    HW211628   9.566   2.130   2.152  1.6446 -0.0746 -1.3136
  432SOL     OW11629   3.879   6.910   3.769  0.4174 -0.1222 -0.2945
  432SOL    HW111630   3.786   6.927   3.802 -0.2325 -0.3593 -1.9377
  432SOL    HW211631   3.876   6.845   3.692  1.7410  1.3081 -1.6043
  433SOL     OW11632   3.098   4.531   3.243 -0.1730 -0.1204  0.0266
  433SOL    HW111633   3.008   4.521   3.285  0.8320  1.5636  2.6376
  433SOL    HW211634   3.131   4.441   3.214 -1.1153 -1.2684  2.3875
  434SOL     OW11635   4.908   8.366   0.663 -0.0502 -0.2673  0.3936
  434SOL    HW111636   4.946   8.275   0.649 -1.0435 -0.7591  0.7975
  434SOL    HW211637   4.916   8.419   0.578 -1.4477 -1.4908 -0.5379
  435SOL     OW11638   1.125   9.764   0.784  0.0409 -0.2778 -0.0048
  435SOL    HW111639   1.084   9.674   0.769 -1.6225  0.4844 -0.0638
  435SOL    HW211640   1.162   9.799   0.698 -2.2228  0.5099 -0.6820
  436SOL     OW11641   3.373   0.789   2.719 -0.2693 -0.4662 -0.1163
  436SOL    HW111642   3.357   0.854   2.644  0.3040  0.2414  0.3714
  436SOL    HW211643   3.288   0.771   2.767  0.2616  3.0043  2.2497
  437SOL     OW11644   7.141   9.934   2.257 -0.0136 -0.1712  0.1945
  437SOL    HW111645   7.076  10.010   2.265  1.1316  0.9608 -0.9835
  437SOL    HW211646   7.092   9.848   2.244 -1.2362  0.8014 -1.6666
  438SOL     OW11647   4.149   7.875   3.867 -0.3466  0.2650  0.6126
  438SOL    HW111648   4.086   7.804   3.835 -0.8933  0.3026  1.5731
  438SOL    HW211649   4.196   7.843   3.949  1.2634  0.0517 -0.3820
  439SOL     OW11650   2.791   0.162   2.260 -0.1602  0.4185 -0.1013
  439SOL    HW111651   2.752   0.072   2.237  1.0965 -0.2872  0.4517
  439SOL    HW211652   2.722   0.218   2.304 -0.4825 -0.9251  1.1481
  440SOL     OW11653   0.254   8.273   1.266  0.4989  0.3125 -0.0939
  440SOL    HW111654   0.253   8.181   1.307  0.5167  0.1536 -0.4492
  440SOL    HW211655   0.284   8.267   1.171 -3.0294  0.2060 -1.2711
  441SOL     OW11656   2.556   9.607   1.025  0.2389  0.4799 -0.0706
  441SOL    HW111657   2.566   9.556   0.940 -0.8737  1.9399 -1.1108
  441SOL    HW211658   2.612   9.565   1.096  0.7149 -1.1183 -1.3568
  442SOL     OW11659   3.437   9.926   0.543 -0.5913 -0.2766 -0.3389
  442SOL    HW111660   3.424   9.827   0.547 -1.6672 -0.1678 -0.8327
  442SOL    HW211661   3.424   9.965   0.634 -1.0789 -0.4851 -0.3194
  443SOL     OW11662   7.385   9.406   2.214  0.3171  0.3097 -0.0991
  443SOL    HW111663   7.410   9.310   2.222 -1.0881 -0.0602  0.0692
  443SOL    HW211664   7.311   9.426   2.278 -0.8450  0.9879 -1.6265
  444SOL     OW11665   2.044   4.422   0.854  0.0674 -0.0330  0.2131
  444SOL    HW111666   1.959   4.422   0.800 -1.0882  0.3492  1.9679
  444SOL    HW211667   2.090   4.510   0.843  0.3444 -0.3208 -0.9227
  445SOL     OW11668   4.692   8.818   3.645  0.9339 -0.2578  0.4295
  445SOL    HW111669   4.778   8.833   3.596  0.9812  2.9517  1.3766
  445SOL    HW211670   4.620   8.795   3.580  2.1313 -1.3035 -0.5490
  446SOL     OW11671   4.108   4.521   1.658 -0.4300 -0.3625  0.0033
  446SOL    HW111672   4.075   4.520   1.564  0.4207 -2.8634 -0.2964
  446SOL    HW211673   4.207   4.534   1.659 -0.4315 -0.3535  0.5558
  447SOL     OW11674   9.708   2.163   1.801  0.5985 -0.2066  0.4942
  447SOL    HW111675   9.772   2.088   1.785 -0.1303 -0.5324 -0.9650
  447SOL    HW211676   9.726   2.236   1.734 -0.2343 -0.1013  0.3824
  448SOL     OW11677   2.520   8.320   3.847  0.4629  0.4136 -0.3108
  448SOL    HW111678   2.606   8.304   3.893  0.5143  0.5003 -0.3755
  448SOL    HW211679   2.470   8.234   3.836 -0.2214  0.6035  1.2304
  449SOL     OW11680   1.552   0.871   2.159  1.0459 -1.0221  0.3569
  449SOL    HW111681   1.581   0.862   2.063 -1.1402  0.0445 -0.4441
  449SOL    HW211682   1.602   0.806   2.215  3.0241 -1.0454 -1.3672
  450SOL     OW11683   2.754   1.250   2.215  0.0343 -0.2322  0.1241
  450SOL    HW111684   2.747   1.320   2.286 -2.2596  1.7226 -1.9286
  450SOL    HW211685   2.663   1.213   2.195  0.5108 -0.2326 -2.2545
  451SOL     OW11686   1.236   0.841   3.300 -0.0571  0.0028 -0.1266
  451SOL    HW111687   1.238   0.812   3.395  0.7794 -2.1288 -0.7722
  451SOL    HW211688   1.143   0.837   3.265  0.1285 -2.7411 -0.4221
  452SOL     OW11689   2.044   5.448   1.934 -0.2419  0.3750 -0.0197
  452SOL    HW111690   2.136   5.436   1.971 -0.2384  0.5022  0.0137
  452SOL    HW211691   2.011   5.361   1.898  0.1877  0.4938 -0.7100
  453SOL     OW11692   3.636   8.266   2.004 -0.3914 -0.0886  0.5160
  453SOL    HW111693   3.598   8.193   1.947  0.6580  0.9806 -1.5748
  453SOL    HW211694   3.673   8.226   2.088  0.8705 -2.0851 -0.9396
  454SOL     OW11695   0.146   3.603   3.591 -0.3482 -0.1978  0.1766
  454SOL    HW111696   0.234   3.599   3.543 -0.8420 -0.3945 -0.7097
  454SOL    HW211697   0.162   3.633   3.685  0.6509 -0.0587 -0.0255
  455SOL     OW11698   9.600   1.270   3.720  0.4533 -0.0232  0.4682
  455SOL    HW111699   9.617   1.206   3.795 -0.4574 -0.0302  0.6635
  455SOL    HW211700   9.604   1.364   3.755 -2.2634 -0.0814  0.9943
  456SOL     OW11701   1.867   4.971   2.286  0.0801  0.8132 -0.3104
  456SOL    HW111702   1.934   4.908   2.247 -1.2938  0.5249 -2.2907
  456SOL    HW211703   1.809   4.922   2.352  0.3513  0.5133 -0.2955
  457SOL     OW11704   1.539   4.406   1.473 -0.1992 -0.4633 -0.0620
  457SOL    HW111705   1.504   4.382   1.564  1.1777 -0.7648  0.4041
  457SOL    HW211706   1.513   4.336   1.407  1.9658 -2.2032  0.8565
  458SOL     OW11707   7.594   2.060   3.349 -0.5443  0.2098 -0.8319
  458SOL    HW111708   7.496   2.067   3.368 -0.4355 -0.5251  0.0711
  458SOL    HW211709   7.609   1.991   3.278 -0.6483 -0.0182 -0.6330
  459SOL     OW11710   4.174   8.444   2.295  0.3688 -0.0684  0.3717
  459SOL    HW111711   4.160   8.501   2.376  1.5917  0.4610  0.2303
  459SOL    HW211712   4.230   8.364   2.320  2.4840  1.1511 -0.3470
  460SOL     OW11713   3.033   9.922   3.346  0.2974  0.0433 -0.3647
  460SOL    HW111714   3.103   9.862   3.306  0.8591  0.5594 -0.1734
  460SOL    HW211715   2.946   9.873   3.352  0.8449 -0.8786  0.1656
  461SOL     OW11716   7.892   9.060   0.506 -0.5249  0.1179  0.2926
  461SOL    HW111717   7.872   8.985   0.444 -1.7040 -0.3693  1.2384
  461SOL    HW211718   7.984   9.094   0.489 -0.5250 -0.5721 -1.1324
  462SOL     OW11719   2.234   3.987   3.372 -0.4045  0.3957 -0.2356
  462SOL    HW111720   2.326   3.950   3.387 -0.8360 -0.8300 -0.5583
  462SOL    HW211721   2.171   3.946   3.437 -1.1761 -0.6062 -1.5743
  463SOL     OW11722   1.361   5.100   2.981 -0.5340  0.2220 -0.1153
  463SOL    HW111723   1.416   5.161   2.924  0.0062  0.0440  0.2112
  463SOL    HW211724   1.336   5.147   3.066  1.9960 -0.8098  1.2805
  464SOL     OW11725   9.447   7.897   2.200  0.5199  0.0890  0.2321
  464SOL    HW111726   9.503   7.815   2.211 -1.0977 -1.3515 -1.9285
  464SOL    HW211727   9.467   7.939   2.111 -1.4589 -0.1967 -0.3736
  465SOL     OW11728   9.438   2.929   0.914 -0.0951 -0.2444 -0.2556
  465SOL    HW111729   9.528   2.892   0.890  0.0925  1.4140 -2.2097
  465SOL    HW211730   9.448   3.025   0.939 -1.2263 -0.3014  0.4482
  466SOL     OW11731   4.408   0.034   0.031  0.4779  0.1797 -0.6522
  466SOL    HW111732   4.499   0.027   0.071  0.2177 -0.6014 -0.1876
  466SOL    HW211733   4.342  -0.012   0.090 -0.5190  2.3501 -0.0349
  467SOL     OW11734   8.516   0.668   3.898  0.2531  0.3616 -0.0687
  467SOL    HW111735   8.470   0.754   3.877 -0.1946 -0.0373 -0.7712
  467SOL    HW211736   8.491   0.599   3.829  2.3062  0.2667 -0.7423
  468SOL     OW11737   4.540   7.732   1.979 -0.1205  0.0763  0.4560
  468SOL    HW111738   4.549   7.736   1.880 -1.0644  1.4426  0.4085
  468SOL    HW211739   4.614   7.782   2.022  0.1943 -0.3736  0.4410
  469SOL     OW11740   4.619   2.504   0.801  0.1996 -0.1433  0.0251
  469SOL    HW111741   4.670   2.419   0.812 -0.2581 -0.4482 -0.2018
  469SOL    HW211742   4.550   2.513   0.873 -0.0700 -0.1932 -0.2245
  470SOL     OW11743   7.177   9.856   1.576  0.0657  0.0608  0.0584
  470SOL    HW111744   7.151   9.803   1.495 -0.7170 -0.3979  0.6081
  470SOL    HW211745   7.264   9.902   1.559  1.4387 -2.4790  0.0639
  471SOL     OW11746   1.292   2.575   2.384 -0.1665  0.2842 -0.1883
  471SOL    HW111747   1.279   2.667   2.346 -1.7927 -1.0152 -2.9269
  471SOL    HW211748   1.389   2.550   2.376  0.3215  1.8067  0.7447
  472SOL     OW11749   8.062   9.554   0.091  0.6486  0.4297  0.1334
  472SOL    HW111750   7.992   9.563   0.020  0.4312  2.1572  0.5279
  472SOL    HW211751   8.065   9.460   0.124 -1.4708  0.3191  0.0771
  473SOL     OW11752   3.362   1.894   1.597 -0.1721 -0.3596  0.4019
  473SOL    HW111753   3.387   1.984   1.634  0.5487 -0.0533 -0.8306
  473SOL    HW211754   3.382   1.824   1.666  1.0382  0.2280  0.6743
  474SOL     OW11755   2.522   4.856   0.980  0.5183  0.2426 -0.0311
  474SOL    HW111756   2.501   4.847   1.077 -0.9425 -0.2647 -0.3745
  474SOL    HW211757   2.620   4.840   0.965  0.7231  0.1499  1.3242
  475SOL     OW11758   2.145   4.375   0.270  0.1968  0.2721 -0.9793
  475SOL    HW111759   2.186   4.461   0.302  0.6446 -0.6472  0.9778
  475SOL    HW211760   2.077   4.395   0.200 -1.8553  2.4786  1.5459
  476SOL     OW11761   2.827   5.580   3.691 -0.3331  0.3718 -0.2615
  476SOL    HW111762   2.867   5.541   3.773  0.6415  1.1299 -0.3531
  476SOL    HW211763   2.897   5.583   3.619 -1.2239 -0.4543 -1.1742
  477SOL     OW11764   3.609   2.993   0.664  0.6922 -0.2550  0.9891
  477SOL    HW111765   3.694   3.044   0.650 -0.3090  1.0909 -0.3901
  477SOL    HW211766   3.575   2.960   0.576 -0.8930  0.3626  1.3582
  478SOL     OW11767   9.904   2.884   1.731 -0.0700 -0.6280 -0.0246
  478SOL    HW111768   9.838   2.881   1.806 -0.9152 -1.5613 -0.8056
  478SOL    HW211769   9.856   2.899   1.644  0.7036 -1.6047 -0.6293
  479SOL     OW11770   3.227   6.631   3.849 -0.0408  0.1636  0.0501
  479SOL    HW111771   3.244   6.699   3.778  1.1612 -2.5377 -2.3772
  479SOL    HW211772   3.303   6.629   3.914  1.0611 -0.4371 -1.2319
  480SOL     OW11773   3.588   7.619   0.588  0.2649 -0.0369 -0.4282
  480SOL    HW111774   3.680   7.585   0.564 -0.2488 -1.5919 -0.2878
  480SOL    HW211775   3.595   7.682   0.666  1.2169 -0.1841 -0.3844
  481SOL     OW11776   3.958   4.749   2.868  0.2015  0.0573 -0.0336
  481SOL    HW111777   3.977   4.741   2.770 -1.3086  1.9777 -0.5224
  481SOL    HW211778   3.862   4.774   2.881  0.4719  0.1586  1.9241
  482SOL     OW11779   0.542   2.511   3.971  0.3759  0.1367 -0.1148
  482SOL    HW111780   0.557   2.586   3.907 -2.6738  0.9970  0.1200
  482SOL    HW211781   0.509   2.431   3.921  0.6698 -0.0908  0.0491
  483SOL     OW11782   4.324   0.899   1.912 -0.4312 -0.5140 -0.1247
  483SOL    HW111783   4.302   0.801   1.912  0.9911 -0.8296  0.6384
  483SOL    HW211784   4.363   0.924   1.824 -2.3074 -0.2736 -0.9230
  484SOL     OW11785   0.719   9.498   0.947  0.6124 -0.0201 -0.0046
  484SOL    HW111786   0.799   9.453   0.988  1.4972  0.5987 -1.0374
  484SOL    HW211787   0.735   9.597   0.942 -0.5898  0.2166  0.6003
  485SOL     OW11788   0.410   3.019   2.144 -0.2836 -0.0945 -0.4815
  485SOL    HW111789   0.374   2.928   2.122  1.6724 -0.9490 -0.2407
  485SOL    HW211790   0.352   3.089   2.102 -2.2311 -1.4145 -0.0825
  486SOL     OW11791   9.928   2.060   3.409  0.3344 -0.0231  0.1751
  486SOL    HW111792   9.953   2.129   3.340 -0.0181  2.0541  2.0583
  486SOL    HW211793   9.842   2.018   3.384  0.0856  0.8887 -0.5558
  487SOL     OW11794   2.929   2.157   0.924 -0.1840  0.0514  0.6235
  487SOL    HW111795   2.939   2.215   0.843 -1.6453  0.9564  1.0715
  487SOL    HW211796   2.916   2.062   0.896 -1.2283  0.4391 -0.2182
  488SOL     OW11797   1.126   6.225   0.533 -0.5819 -0.4512  0.1142
  488SOL    HW111798   1.199   6.174   0.577 -0.5503 -0.4176  0.1004
  488SOL    HW211799   1.051   6.163   0.511 -0.7150 -0.4179  0.4690
  489SOL     OW11800   2.786   6.457   3.916 -0.2227 -0.1840 -0.9798
  489SOL    HW111801   2.692   6.491   3.915  0.0069  0.4698 -0.6787
  489SOL    HW211802   2.850   6.535   3.920  0.3493 -0.5876 -1.8836
  490SOL     OW11803   4.176   3.110   1.110  0.3861  0.0041  0.2880
  490SOL    HW111804   4.102   3.178   1.109  0.6960  0.3441  0.4090
  490SOL    HW211805   4.220   3.110   1.199  1.4431  0.8002 -0.2292
  491SOL     OW11806   0.947   8.255   2.225 -0.0035 -0.6169 -0.1159
  491SOL    HW111807   0.980   8.318   2.155  2.4338  0.2341  1.7519
  491SOL    HW211808   0.964   8.161   2.195 -1.5827 -0.3883 -1.8859
  492SOL     OW11809   5.341   8.821   2.595 -0.2068 -0.5035  0.6541
  492SOL    HW111810   5.314   8.810   2.691 -0.6688  1.5462  0.7896
  492SOL    HW211811   5.424   8.769   2.578 -1.0185 -2.1980  1.7483
  493SOL     OW11812   8.388   9.191   0.372 -0.4310  0.1329 -0.5504
  493SOL    HW111813   8.437   9.267   0.414 -1.3643 -0.1591  1.0854
  493SOL    HW211814   8.297   9.183   0.412 -0.9522 -0.8267 -1.8718
  494SOL     OW11815   4.374   9.528   0.012 -0.3997  0.0249 -0.1392
  494SOL    HW111816   4.290   9.474   0.013 -0.7204  0.5248  0.7382
  494SOL    HW211817   4.410   9.532  -0.082 -1.7879  0.4672 -0.6682
  495SOL     OW11818   4.157   0.290   1.723 -0.4794 -0.5723  0.2759
  495SOL    HW111819   4.095   0.228   1.677  0.8886 -1.9229  0.2051
  495SOL    HW211820   4.250   0.274   1.690  0.3342 -0.6118  2.4773
  496SOL     OW11821   7.910   0.568   3.109  0.6140  0.2028  0.2887
  496SOL    HW111822   7.964   0.650   3.089  1.5431 -0.4408  0.0828
  496SOL    HW211823   7.971   0.489   3.111 -0.2509 -0.4565  0.6476
  497SOL     OW11824   4.252   7.409   3.514  0.2459 -0.9706  0.4308
  497SOL    HW111825   4.298   7.491   3.547 -1.0473 -0.2176  0.4047
  497SOL    HW211826   4.319   7.336   3.500  1.5015  0.2864 -0.2060
  498SOL     OW11827   3.452   7.115   1.852 -0.1771 -0.5528 -0.0446
  498SOL    HW111828   3.486   7.029   1.813 -1.4930 -0.8998 -0.4418
  498SOL    HW211829   3.528   7.179   1.860  1.0046 -2.0648  1.1350
  499SOL     OW11830   2.003   5.732   2.387  0.4697  0.6518 -0.3495
  499SOL    HW111831   1.911   5.713   2.423 -0.1391  1.2340 -1.5513
  499SOL    HW211832   2.016   5.682   2.302  1.8812 -0.6740  0.6050
  500SOL     OW11833   8.114   1.597   3.634  0.1793 -0.1955  0.7842
  500SOL    HW111834   8.135   1.500   3.620  1.8269  0.0160  1.6755
  500SOL    HW211835   8.024   1.618   3.595  0.3362 -1.8075 -0.4851
  501SOL     OW11836   1.827   9.825   1.750  0.5008  0.1217 -0.1242
  501SOL    HW111837   1.796   9.842   1.656  0.3573  1.3415  0.1466
  501SOL    HW211838   1.883   9.742   1.751  2.6069  1.4626 -1.7370
  502SOL     OW11839   0.713   8.540   3.856  0.7240 -0.7834 -0.0448
  502SOL    HW111840   0.758   8.474   3.915  0.1088 -1.7198 -0.5937
  502SOL    HW211841   0.615   8.516   3.849  0.4959  0.2038 -0.2156
  503SOL     OW11842   8.059   2.630   0.900  0.1475  0.3513  0.7413
  503SOL    HW111843   8.025   2.606   0.991 -1.8919 -2.9314 -0.7881
  503SOL    HW211844   7.987   2.675   0.848  0.5454  0.1092 -0.0304
  504SOL     OW11845   0.898   9.231   1.913 -0.5808  0.4849 -0.3071
  504SOL    HW111846   0.893   9.330   1.910  3.9568  0.8335  0.3865
  504SOL    HW211847   0.931   9.196   1.825 -2.2966 -0.4488 -0.6037
  505SOL     OW11848   8.717   6.906   0.298  0.0199  0.3785 -0.6489
  505SOL    HW111849   8.671   6.856   0.225  1.6509  0.7282 -1.9553
  505SOL    HW211850   8.816   6.907   0.281  0.8551 -2.6120  3.4717
  506SOL     OW11851   9.280   8.559   2.655 -0.0940 -0.5244 -0.1525
  506SOL    HW111852   9.182   8.542   2.647 -0.2726 -0.0673  1.0502
  506SOL    HW211853   9.308   8.626   2.585 -0.3876 -1.5978 -1.3230
  507SOL     OW11854   1.742   2.713   1.013 -0.0148  0.1011  0.4318
  507SOL    HW111855   1.838   2.740   1.014  0.4804 -1.6164  1.3513
  507SOL    HW211856   1.696   2.752   1.093  0.3259 -0.4773  0.9121
  508SOL     OW11857   3.062   9.563   3.763 -0.3203  0.1974 -0.5061
  508SOL    HW111858   2.995   9.596   3.696  1.2310  1.3101 -1.5338
  508SOL    HW211859   3.122   9.496   3.720  1.1476  1.4581 -0.4551
  509SOL     OW11860   3.910   3.237   0.414  0.1456  0.5258 -0.3317
  509SOL    HW111861   3.994   3.254   0.464 -1.6332  0.5062  2.7539
  509SOL    HW211862   3.867   3.325   0.391 -0.9815  0.4968  1.6008
  510SOL     OW11863   8.515   8.124   1.343 -0.2941  0.0993  0.1015
  510SOL    HW111864   8.567   8.201   1.378 -0.4117  0.6252 -0.8854
  510SOL    HW211865   8.549   8.097   1.253  0.0419 -1.2878  0.6218
  511SOL     OW11866   4.006   9.579   1.130  0.7941 -0.7792  0.4287
  511SOL    HW111867   3.979   9.484   1.138  1.6120 -1.0194  0.4108
  511SOL    HW211868   3.927   9.635   1.103  0.6273 -1.6493 -0.9171
  512SOL     OW11869   2.201   4.956   3.061  0.0423 -1.0268  0.6016
  512SOL    HW111870   2.272   4.911   3.005  0.1998 -0.8741  0.6777
  512SOL    HW211871   2.208   5.055   3.048 -0.7259 -1.0555 -0.0768
  513SOL     OW11872   9.369   1.159   3.928  0.0362 -0.1451  0.4128
  513SOL    HW111873   9.417   1.198   4.007 -1.9483  1.4229  0.8922
  513SOL    HW211874   9.422   1.176   3.845 -0.0240  2.3139  0.8181
  514SOL     OW11875   2.706   5.232   1.108 -0.3183 -0.1165  0.4993
  514SOL    HW111876   2.610   5.248   1.083 -0.3909 -0.4438  0.5709
  514SOL    HW211877   2.711   5.200   1.203 -0.0799  0.6202  0.7422
  515SOL     OW11878   2.690   8.614   1.133 -0.0495 -0.0476  0.5626
  515SOL    HW111879   2.591   8.601   1.139 -0.0840 -1.2404 -1.8701
  515SOL    HW211880   2.737   8.528   1.150  0.4611  0.0830 -0.1269
  516SOL     OW11881   4.768   8.235   3.260 -0.3499  0.3678  0.6056
  516SOL    HW111882   4.720   8.318   3.230 -2.3376 -0.7690  0.5789
  516SOL    HW211883   4.844   8.216   3.197  0.1861  2.1877  0.6528
  517SOL     OW11884   1.402   6.277   4.034  0.8241 -0.8164  0.3751
  517SOL    HW111885   1.502   6.267   4.040  0.8389  0.1202  2.2102
  517SOL    HW211886   1.379   6.374   4.037 -0.1771 -1.0566  0.4503
  518SOL     OW11887   0.046   2.407   1.793  0.1295  0.0657 -0.5583
  518SOL    HW111888   0.032   2.310   1.772  0.8050 -0.1740  0.1004
  518SOL    HW211889   0.090   2.417   1.882 -0.2501  0.9959 -0.4653
  519SOL     OW11890   9.969   8.219   2.080  0.3837  0.6185  0.1212
  519SOL    HW111891  10.052   8.273   2.091  1.8384 -1.2502 -1.3653
  519SOL    HW211892   9.904   8.269   2.023  2.0253  0.5151 -1.9075
  520SOL     OW11893   9.974   3.451   2.124 -0.3053  0.0517  0.1733
  520SOL    HW111894   9.971   3.405   2.213  1.0902  1.8610  1.2006
  520SOL    HW211895  10.055   3.421   2.074 -0.2432  0.2020  0.1834
  521SOL     OW11896   7.888   9.791   2.370  0.5976  0.1364 -0.0805
  521SOL    HW111897   7.870   9.848   2.451  0.3296 -1.4602  1.0089
  521SOL    HW211898   7.944   9.712   2.396  0.0065 -0.7161 -1.3322
  522SOL     OW11899   1.627   8.674   0.105 -0.1938 -0.1671 -0.2725
  522SOL    HW111900   1.671   8.697   0.018  0.6967 -1.3421 -0.1487
  522SOL    HW211901   1.639   8.750   0.169  0.8045 -0.0578 -0.5696
  523SOL     OW11902   3.568   9.361   0.294  0.7497  0.5115  0.0085
  523SOL    HW111903   3.649   9.315   0.257  0.5208 -0.3736  0.5806
  523SOL    HW211904   3.586   9.459   0.300  1.8352  0.3118  0.2657
  524SOL     OW11905   1.585   3.020   0.875 -0.3266 -0.3588 -0.6902
  524SOL    HW111906   1.564   2.931   0.834  0.5939 -1.0134  0.2459
  524SOL    HW211907   1.500   3.064   0.902 -0.7511 -1.2416 -0.5661
  525SOL     OW11908   8.927   1.723   2.841 -0.0639 -0.1851 -0.2993
  525SOL    HW111909   8.931   1.641   2.784 -1.0317 -0.3972 -0.0842
  525SOL    HW211910   8.831   1.749   2.853  0.0173 -1.0524  2.5281
  526SOL     OW11911   4.427   0.418   3.561  0.0836 -0.4148  0.8460
  526SOL    HW111912   4.422   0.389   3.466 -2.8573  0.8201  0.5488
  526SOL    HW211913   4.456   0.514   3.564  0.2401 -0.4748  1.1771
  527SOL     OW11914   3.300   6.118   2.886 -0.1243  0.0287  0.2337
  527SOL    HW111915   3.311   6.022   2.911 -2.8716  0.1662  2.2177
  527SOL    HW211916   3.372   6.172   2.929 -0.2808 -0.7723  1.5277
  528SOL     OW11917   1.352   5.274   2.533 -0.6370  0.2253  0.1408
  528SOL    HW111918   1.426   5.284   2.468 -1.3509  3.3998 -0.2313
  528SOL    HW211919   1.264   5.282   2.486 -1.2394 -1.4260  0.9126
  529SOL     OW11920   8.422   1.335   0.298 -0.3635  0.1065  0.1486
  529SOL    HW111921   8.325   1.348   0.278 -0.4219  0.6263  0.7673
  529SOL    HW211922   8.434   1.251   0.351 -0.3612 -0.4871 -0.7695
  530SOL     OW11923   3.970   7.726   3.718  1.0481 -0.2987 -0.5246
  530SOL    HW111924   3.978   7.629   3.696 -2.3306 -1.0622  1.2056
  530SOL    HW211925   3.902   7.768   3.658  0.1248  0.2276  0.8806
  531SOL     OW11926   3.279   9.234   1.151  0.5129  0.1762  0.4661
  531SOL    HW111927   3.228   9.150   1.167 -0.6556  0.8238  0.1362
  531SOL    HW211928   3.358   9.214   1.092  1.4409 -1.0746  2.0820
  532SOL     OW11929   3.205   1.290   0.205 -0.3087  0.4816 -0.1798
  532SOL    HW111930   3.225   1.226   0.131  1.7762  0.7142  0.1489
  532SOL    HW211931   3.136   1.250   0.266 -1.4212 -0.0568 -1.7586
  533SOL     OW11932   8.803   0.807   0.633 -0.4874 -0.2338  0.4689
  533SOL    HW111933   8.732   0.736   0.629 -0.3255 -0.3804  0.1523
  533SOL    HW211934   8.892   0.765   0.650 -0.0274 -0.3677 -2.0174
  534SOL     OW11935   3.494   9.360   3.908 -0.1440 -0.4493  0.0657
  534SOL    HW111936   3.549   9.434   3.945  0.2166 -1.1931  1.0084
  534SOL    HW211937   3.434   9.396   3.836  1.0930  0.4715 -0.5045
  535SOL     OW11938   4.073   0.558   1.741 -0.2119  0.1557  0.4045
  535SOL    HW111939   3.991   0.582   1.688 -0.7834 -2.4325  0.0813
  535SOL    HW211940   4.076   0.459   1.755  3.3935  0.1019 -0.4366
  536SOL     OW11941   3.230   4.033   1.893 -0.3531 -0.0635 -0.4526
  536SOL    HW111942   3.161   4.047   1.964 -1.0175 -1.0457 -0.8912
  536SOL    HW211943   3.220   4.104   1.823  2.3577  2.8237  1.9750
  537SOL     OW11944   9.306   7.551   0.319 -0.2417  0.0441  0.5814
  537SOL    HW111945   9.367   7.603   0.379 -0.2360  0.9881 -0.2449
  537SOL    HW211946   9.235   7.610   0.283  0.6230 -0.1511 -1.5393
  538SOL     OW11947   9.562   9.272   2.578  0.6058 -0.0130 -0.5747
  538SOL    HW111948   9.626   9.203   2.610 -1.2405 -0.8656  1.3890
  538SOL    HW211949   9.553   9.344   2.646 -0.1231  0.3710 -1.0675
  539SOL     OW11950   9.929   1.858   2.567  0.1423 -0.4449  0.2427
  539SOL    HW111951   9.977   1.802   2.635  4.4267  4.0603  1.2087
  539SOL    HW211952   9.980   1.857   2.482 -1.5711 -0.5881 -0.7993
  540SOL     OW11953   1.605   4.326   3.399  0.0066  0.5632 -1.1590
  540SOL    HW111954   1.523   4.368   3.360 -0.5525 -1.2031 -1.9621
  540SOL    HW211955   1.578   4.261   3.470  0.9472  2.7573  1.2829
  541SOL     OW11956   2.123   9.544   2.736 -0.3704  0.2404  0.2891
  541SOL    HW111957   2.198   9.502   2.786  0.5792 -0.4268 -1.6608
  541SOL    HW211958   2.151   9.562   2.642 -2.4743  0.4624 -0.3231
  542SOL     OW11959   3.599   7.297   3.449  0.0247 -0.3278  0.6212
  542SOL    HW111960   3.542   7.368   3.491  1.5374  0.9981  0.5133
  542SOL    HW211961   3.545   7.215   3.433 -1.3872  0.2823  2.1576
  543SOL     OW11962   2.956   1.705   1.132 -0.4704  0.6632 -0.2668
  543SOL    HW111963   3.039   1.680   1.183  0.1272  1.0037 -1.0605
  543SOL    HW211964   2.948   1.804   1.128 -2.2311  0.6492  1.8971
  544SOL     OW11965   8.575   7.343   0.463  0.4463  0.7005  0.1639
  544SOL    HW111966   8.556   7.245   0.461  0.9248  0.6238 -0.9332
  544SOL    HW211967   8.652   7.361   0.524  1.1383  0.2533 -0.5719
  545SOL     OW11968   0.115   2.143   2.343  0.3964  0.2642 -0.2773
  545SOL    HW111969   0.017   2.140   2.359  0.2656  0.8080 -0.9498
  545SOL    HW211970   0.134   2.200   2.263  1.0808 -1.6112 -1.4768
  546SOL     OW11971   4.151   0.194   2.344 -0.1483 -0.7156 -0.3443
  546SOL    HW111972   4.132   0.127   2.272 -1.5635 -0.3702 -0.3070
  546SOL    HW211973   4.158   0.285   2.304 -2.3808 -0.3228  0.1237
  547SOL     OW11974   4.945   8.033   2.909 -0.4881 -0.4228 -0.3146
  547SOL    HW111975   4.979   7.940   2.890  0.5678 -0.0468 -0.3185
  547SOL    HW211976   4.874   8.056   2.843 -0.1343 -0.9054 -0.8760
  548SOL     OW11977   2.054   8.866   1.186 -0.0007  0.5200 -0.5045
  548SOL    HW111978   2.080   8.883   1.281  0.1440  2.4608 -0.8747
  548SOL    HW211979   2.017   8.950   1.145  0.0150 -0.2614 -2.1822
  549SOL     OW11980   0.238   0.246   1.336  0.2715 -1.0343  0.2422
  549SOL    HW111981   0.145   0.216   1.360  0.4204 -0.4512  1.6293
  549SOL    HW211982   0.236   0.295   1.249 -0.5988 -1.6891 -0.1117
  550SOL     OW11983   9.123   8.585   2.928 -0.3875 -0.1059 -0.0683
  550SOL    HW111984   9.214   8.574   2.887 -0.5164 -0.4986 -0.2541
  550SOL    HW211985   9.132   8.619   3.022 -0.0173 -0.8235  0.1580
  551SOL     OW11986   2.317   8.943   1.691  0.6556 -0.2439 -0.3346
  551SOL    HW111987   2.238   8.983   1.735  1.2936  1.9078 -1.0979
  551SOL    HW211988   2.377   8.901   1.760  1.3556  2.5653  0.8187
  552SOL     OW11989   6.923   9.486   2.033 -0.2389 -0.4011 -0.5419
  552SOL    HW111990   6.879   9.463   1.946  0.9656 -1.9759 -0.7643
  552SOL    HW211991   7.012   9.441   2.038  0.3981  0.9573  0.8430
  553SOL     OW11992   7.493   0.263   2.745 -0.1015  0.1018 -0.3326
  553SOL    HW111993   7.572   0.324   2.754  0.1274  0.2773 -3.0269
  553SOL    HW211994   7.522   0.168   2.753  0.0713  0.2314  0.5790
  554SOL     OW11995   4.427   2.858   1.383 -0.3402 -0.0555 -0.5688
  554SOL    HW111996   4.344   2.813   1.416 -0.6099  1.4101  0.7995
  554SOL    HW211997   4.414   2.957   1.385  0.9575  0.1464 -1.6489
  555SOL     OW11998   4.414   0.527   0.442  0.3155 -0.2332  0.2799
  555SOL    HW111999   4.497   0.547   0.390  0.1850 -0.1324  0.1078
  555SOL    HW212000   4.435   0.463   0.516  0.7094  0.4210  0.7353
  556SOL     OW12001   3.177   6.234   3.709  0.4461 -0.0312  0.4527
  556SOL    HW112002   3.119   6.162   3.671  0.7727  0.1430 -0.3946
  556SOL    HW212003   3.259   6.243   3.653  0.4160  0.9893  0.5629
  557SOL     OW12004   8.126   1.804   3.369  0.0394 -0.1856 -0.1584
  557SOL    HW112005   8.201   1.845   3.421  0.6551 -2.4132  0.7697
  557SOL    HW212006   8.075   1.742   3.428  0.1859 -2.0673 -1.9703
  558SOL     OW12007   4.150   1.275   1.814  0.8070 -0.0778  0.2803
  558SOL    HW112008   4.142   1.234   1.905 -0.4805 -0.4699  0.0083
  558SOL    HW212009   4.216   1.222   1.760 -0.8319 -1.8378 -0.0633
  559SOL     OW12010   0.375   1.383   0.755  0.0668  0.2749  0.1085
  559SOL    HW112011   0.444   1.316   0.783  0.9252  0.1718 -2.1244
  559SOL    HW212012   0.386   1.467   0.808  0.6029 -0.4538  1.1709
  560SOL     OW12013   3.583   3.037   0.191  0.6172 -0.3199  0.1125
  560SOL    HW112014   3.641   2.967   0.148  1.8797  1.7392 -1.6266
  560SOL    HW212015   3.614   3.128   0.164 -2.5840  0.8915  0.2551
  561SOL     OW12016   0.878   4.267   3.634  0.4543  0.1394  0.1007
  561SOL    HW112017   0.866   4.349   3.578 -3.3775  0.5811  1.3938
  561SOL    HW212018   0.821   4.193   3.598  1.5397 -0.9960  0.7016
  562SOL     OW12019   1.762   8.932   1.612 -0.4015  0.1945  0.1429
  562SOL    HW112020   1.852   8.977   1.609  0.5843 -1.7131  0.3729
  562SOL    HW212021   1.734   8.908   1.519  0.1290 -0.7304  0.2132
  563SOL     OW12022   2.325   3.628   2.097  0.5416 -0.1378  0.6082
  563SOL    HW112023   2.253   3.563   2.119  1.7396 -1.5685  0.3622
  563SOL    HW212024   2.384   3.642   2.177  0.4222  0.4996  0.5946
  564SOL     OW12025   2.854   2.543   3.053 -0.0510 -0.0418  0.5709
  564SOL    HW112026   2.798   2.608   3.001  0.3991 -0.5188 -0.5268
  564SOL    HW212027   2.802   2.508   3.131 -0.7009  0.7438  0.4947
  565SOL     OW12028   3.277   2.024   1.114 -0.1030  0.1969  0.2709
  565SOL    HW112029   3.348   2.076   1.161  0.3767 -0.6125  0.4443
  565SOL    HW212030   3.207   1.997   1.181  0.4215 -0.6864  0.4711
  566SOL     OW12031   4.497   8.332   2.128  0.4686 -0.1453  0.4007
  566SOL    HW112032   4.482   8.430   2.145  1.6344  0.0270  0.4523
  566SOL    HW212033   4.583   8.303   2.171  0.9007 -0.8430 -0.9152
  567SOL     OW12034   9.706   1.538   2.149  0.5140 -0.2950 -0.0331
  567SOL    HW112035   9.650   1.518   2.229 -0.0967  0.3412 -0.2975
  567SOL    HW212036   9.647   1.559   2.071  1.0859  2.3948  0.1838
  568SOL     OW12037   1.709   1.585   0.897  0.8239 -0.1690  0.0578
  568SOL    HW112038   1.629   1.628   0.855  1.7055 -0.9040 -2.4103
  568SOL    HW212039   1.680   1.499   0.941  0.4979 -1.2589 -2.2132
  569SOL     OW12040   1.943   7.375   0.243  0.5935  0.3774 -0.4256
  569SOL    HW112041   2.016   7.390   0.176  0.5339  1.1146 -0.3329
  569SOL    HW212042   1.894   7.291   0.220  0.3793  0.7791 -1.4767
  570SOL     OW12043   3.055   0.388   1.381 -0.3880 -0.1695 -0.0444
  570SOL    HW112044   3.145   0.344   1.377 -1.8238 -3.2822  0.6261
  570SOL    HW212045   3.009   0.377   1.294  0.2524  2.3579 -0.7422
  571SOL     OW12046   8.382   3.184   3.761  0.2952  0.9814 -0.1595
  571SOL    HW112047   8.341   3.255   3.817  1.9088  1.0914  0.9167
  571SOL    HW212048   8.403   3.220   3.670 -0.7432  1.2887 -0.2794
  572SOL     OW12049   2.247   5.834   3.600  0.1054 -0.1318  0.2557
  572SOL    HW112050   2.256   5.895   3.521 -0.9607 -1.9506 -1.3340
  572SOL    HW212051   2.264   5.885   3.684  0.2490  2.1005 -1.0823
  573SOL     OW12052   9.526   9.329   3.105  0.2175  0.7378  0.3438
  573SOL    HW112053   9.460   9.266   3.144  0.5945 -0.8746 -1.4971
  573SOL    HW212054   9.608   9.332   3.162  1.4595 -2.8936 -1.0569
  574SOL     OW12055   2.571   3.949   3.661  0.4074 -0.3741 -0.1881
  574SOL    HW112056   2.534   4.042   3.651 -1.2003 -1.0559 -0.6370
  574SOL    HW212057   2.669   3.955   3.682 -0.1163  1.4994  2.0362
  575SOL     OW12058   1.647   0.522   3.443  0.6301 -0.2114 -0.0144
  575SOL    HW112059   1.669   0.569   3.528  0.5439 -0.4252  0.1270
  575SOL    HW212060   1.705   0.442   3.433 -1.6362 -2.1510  1.5425
  576SOL     OW12061   4.727   9.828   2.546 -0.2295 -0.6344 -0.0311
  576SOL    HW112062   4.729   9.928   2.544  1.7295 -0.6691 -0.7357
  576SOL    HW212063   4.632   9.796   2.536 -0.6207  1.1042 -2.1141
  577SOL     OW12064   9.995   3.393   3.755  0.2083  0.9216  0.1592
  577SOL    HW112065   9.903   3.420   3.782  0.3650  1.5026  0.1182
  577SOL    HW212066  10.034   3.463   3.695  0.6605  0.6561  0.1422
  578SOL     OW12067   1.161   6.635   1.066 -0.0909 -0.2694  0.9527
  578SOL    HW112068   1.070   6.620   1.106 -0.8163  0.6576 -0.3298
  578SOL    HW212069   1.227   6.575   1.111 -1.4024 -1.1987  1.6698
  579SOL     OW12070   3.069   6.260   2.916  0.0879 -0.1756  0.3660
  579SOL    HW112071   3.049   6.186   2.981  0.9615 -0.4052  0.3814
  579SOL    HW212072   3.157   6.243   2.873  0.0647  0.6093  0.0052
  580SOL     OW12073   3.119   5.418   1.414  0.3258 -0.0082 -0.4854
  580SOL    HW112074   3.198   5.368   1.451 -0.3325 -0.9769 -0.3756
  580SOL    HW212075   3.064   5.356   1.359  0.5206  1.0744 -1.9306
  581SOL     OW12076   0.564   0.297   3.186 -0.5442 -0.2963 -0.0383
  581SOL    HW112077   0.479   0.282   3.135 -0.1516  1.1145 -1.1475
  581SOL    HW212078   0.594   0.392   3.173  0.1642 -0.2277  1.9324
  582SOL     OW12079   4.183   9.347   2.450  0.3605 -0.1715 -0.6288
  582SOL    HW112080   4.117   9.423   2.448 -1.5668 -1.7836 -0.0261
  582SOL    HW212081   4.213   9.327   2.357 -1.0248 -0.2734 -1.0653
  583SOL     OW12082   7.417   9.842   0.410  0.0354  0.0238  0.1858
  583SOL    HW112083   7.398   9.769   0.476  0.1278 -1.3511 -1.2726
  583SOL    HW212084   7.352   9.917   0.423 -1.0361 -0.9783  0.7126
  584SOL     OW12085   0.343   3.846   3.266 -0.6152  0.4074  0.6774
  584SOL    HW112086   0.249   3.815   3.281 -0.5103 -0.0416  0.4345
  584SOL    HW212087   0.403   3.809   3.337 -0.8969  2.0417  1.7802
  585SOL     OW12088   1.339   2.820   1.753  0.0778 -1.0434  0.2399
  585SOL    HW112089   1.410   2.751   1.766  0.4709 -0.1418  3.0425
  585SOL    HW212090   1.249   2.777   1.753  0.3664 -1.6351  1.1946
  586SOL     OW12091   3.266   9.494   0.145 -0.1421  0.0453 -0.0465
  586SOL    HW112092   3.260   9.545   0.060  1.0130 -0.0480 -0.1991
  586SOL    HW212093   3.300   9.402   0.127 -1.3006 -0.4652  0.3418
  587SOL     OW12094   2.924   7.356   2.277  0.3047 -0.2885 -0.0790
  587SOL    HW112095   2.840   7.356   2.331 -0.1372 -0.1338 -0.7626
  587SOL    HW212096   2.998   7.314   2.330 -0.1419 -0.2008  0.6174
  588SOL     OW12097   3.674   5.801   3.419  0.1419 -0.0701  0.5778
  588SOL    HW112098   3.657   5.799   3.320  1.1798  1.4642  0.3496
  588SOL    HW212099   3.732   5.723   3.444 -0.0095 -0.3865 -0.0497
  589SOL     OW12100   4.848   8.182   3.521  0.0357  0.1432 -0.4972
  589SOL    HW112101   4.844   8.264   3.579  2.2347  0.1988 -0.3886
  589SOL    HW212102   4.822   8.206   3.427  3.6584  1.7092 -1.1894
  590SOL     OW12103   3.132   4.001   2.451 -0.6351 -0.5468  0.1963
  590SOL    HW112104   3.034   3.989   2.434 -0.8872 -1.8717  2.4855
  590SOL    HW212105   3.147   4.088   2.497 -0.3820  1.0231 -2.6858
  591SOL     OW12106   1.085   8.041   1.703 -0.2890  0.3818 -0.3034
  591SOL    HW112107   1.170   8.070   1.748 -0.8357 -0.4003  1.2557
  591SOL    HW212108   1.093   7.946   1.674 -1.4350 -0.4461  1.9418
  592SOL     OW12109   7.968   1.885   1.966  0.3369  0.7219 -0.2140
  592SOL    HW112110   7.953   1.787   1.979  1.2794  0.6995  0.7364
  592SOL    HW212111   7.933   1.912   1.876 -0.0721 -0.4557 -0.4157
  593SOL     OW12112   3.456   5.062   3.643  0.1226 -0.4070 -0.2196
  593SOL    HW112113   3.432   4.986   3.582  0.5926 -0.5451 -0.2374
  593SOL    HW212114   3.377   5.087   3.698  0.2782 -1.6723  0.6010
  594SOL     OW12115   2.430   8.427   3.593 -0.4876  0.3659  0.8504
  594SOL    HW112116   2.467   8.419   3.686  0.7114  2.0493  0.5414
  594SOL    HW212117   2.348   8.483   3.595  0.1658  1.3263  0.7353
  595SOL     OW12118   1.078   9.351   2.110 -0.2977 -0.1134 -0.7895
  595SOL    HW112119   1.045   9.263   2.076 -1.0513  0.1163 -0.6698
  595SOL    HW212120   1.138   9.335   2.189  0.8684 -0.6033 -1.7538
  596SOL     OW12121   8.143   8.247   1.212 -0.4186  0.3562  0.1496
  596SOL    HW112122   8.184   8.187   1.281 -1.1618  0.9167  1.0847
  596SOL    HW212123   8.177   8.340   1.225 -0.3659  0.4139 -0.3998
  597SOL     OW12124   7.689   9.326   1.628 -0.1826  0.6765 -0.0325
  597SOL    HW112125   7.728   9.358   1.541 -0.4068  1.0843  0.0155
  597SOL    HW212126   7.762   9.320   1.697 -0.3093  2.0866  0.2412
  598SOL     OW12127   2.094   0.257   0.277 -0.4334  0.3266  0.0713
  598SOL    HW112128   2.093   0.356   0.293 -2.6140  0.2690  0.3403
  598SOL    HW212129   2.150   0.238   0.197 -0.0212  1.7748 -0.0142
  599SOL     OW12130   2.240   3.086   3.217 -0.6116  0.3899  0.1418
  599SOL    HW112131   2.245   3.094   3.317 -2.1684 -0.8224  0.3383
  599SOL    HW212132   2.300   3.013   3.186  1.9561  2.5422 -0.1127
  600SOL     OW12133   4.672   2.145   1.311  0.1368 -0.3097 -0.2700
  600SOL    HW112134   4.706   2.227   1.358  1.0209  0.2465 -1.8640
  600SOL    HW212135   4.588   2.167   1.261  1.3208  0.0690 -2.1212
  601SOL     OW12136   1.676   8.236   0.731 -0.0336  0.1923  0.7279
  601SOL    HW112137   1.732   8.317   0.746 -0.1756  0.4042  0.1113
  601SOL    HW212138   1.664   8.188   0.818  2.2924 -0.6426  0.6168
  602SOL     OW12139   3.440   5.545   1.385 -0.0965 -0.0766  0.4591
  602SOL    HW112140   3.365   5.580   1.329  1.9075 -1.4313 -3.2565
  602SOL    HW212141   3.520   5.603   1.372 -0.1027  0.6818  3.4877
  603SOL     OW12142   8.071   9.472   0.968  0.0085  0.0300 -0.5029
  603SOL    HW112143   8.031   9.563   0.980  1.4049  0.3082  2.6372
  603SOL    HW212144   8.002   9.403   0.988  0.2131  0.4904  1.9711
  604SOL     OW12145   8.389   3.076   1.183  0.2491 -0.3663 -0.2205
  604SOL    HW112146   8.383   3.165   1.227 -1.0424 -0.8529  0.5936
  604SOL    HW212147   8.355   3.083   1.089  0.5856  0.0843 -0.3151
  605SOL     OW12148   1.588   1.996   1.896 -0.0828  0.2877  0.2236
  605SOL    HW112149   1.648   1.954   1.964  0.5517  2.4001  0.9798
  605SOL    HW212150   1.624   2.085   1.869 -2.0091  0.8629 -0.5410
  606SOL     OW12151   8.658   1.724   0.476  0.1929 -0.1095  0.2689
  606SOL    HW112152   8.570   1.759   0.443  0.9903  0.9703 -0.7246
  606SOL    HW212153   8.711   1.688   0.398  0.4001 -1.2945  0.9410
  607SOL     OW12154   2.523   1.932   3.896  0.2190  0.1830 -0.2428
  607SOL    HW112155   2.475   1.846   3.911 -4.5461  2.6210 -0.6755
  607SOL    HW212156   2.528   1.951   3.798  0.2474  0.9419 -0.0951
  608SOL     OW12157   8.890   0.348   4.027 -0.1277  0.5675  0.0815
  608SOL    HW112158   8.976   0.395   4.048  0.5945 -0.6530 -0.1196
  608SOL    HW212159   8.870   0.357   3.929  0.1806  0.1740 -0.0177
  609SOL     OW12160   1.498   7.911   1.235 -0.7148 -0.0860 -0.4615
  609SOL    HW112161   1.472   7.832   1.180 -2.5445 -0.3655  0.7829
  609SOL    HW212162   1.442   7.990   1.208  0.2309  0.4788 -0.8207
  610SOL     OW12163   2.467   0.817   3.424  0.0165 -0.7054 -0.2807
  610SOL    HW112164   2.561   0.840   3.398  0.4375 -1.0323  0.9067
  610SOL    HW212165   2.408   0.897   3.410  0.7238 -0.0877  0.2087
  611SOL     OW12166   9.512   3.662   0.725 -0.1800 -1.0627 -0.8674
  611SOL    HW112167   9.425   3.681   0.681 -0.4039  1.3494  0.5353
  611SOL    HW212168   9.496   3.635   0.820  0.5992 -0.2949 -0.5123
  612SOL     OW12169   3.007   7.343   2.977 -0.7552  0.2776 -0.6113
  612SOL    HW112170   3.073   7.326   2.904  1.0505  0.2744  0.9821
  612SOL    HW212171   3.027   7.283   3.055 -0.9527  2.1532  0.9400
  613SOL     OW12172   1.146   8.603   1.839 -0.0659 -0.1232  0.2401
  613SOL    HW112173   1.146   8.540   1.762  1.8521 -0.5983  0.5992
  613SOL    HW212174   1.054   8.641   1.851 -0.5516 -0.5972 -1.7984
  614SOL     OW12175   3.317   1.139   1.521 -0.0126 -0.2080  0.0912
  614SOL    HW112176   3.301   1.082   1.440  2.3080  0.7506 -1.0912
  614SOL    HW212177   3.230   1.160   1.565 -1.3819 -0.2270 -2.5087
  615SOL     OW12178   1.266   6.953   2.149 -0.2297 -0.0656 -0.1523
  615SOL    HW112179   1.204   7.026   2.180  0.9869  0.5131  0.9569
  615SOL    HW212180   1.248   6.870   2.202 -0.3431 -0.0189 -0.1168
  616SOL     OW12181   5.071   7.759   2.889  0.1003  0.2244  0.2495
  616SOL    HW112182   5.120   7.765   2.803 -1.4726  0.3327 -0.6598
  616SOL    HW212183   5.011   7.679   2.888  0.3572  0.0033  1.3996
  617SOL     OW12184   5.275   8.986   2.233  0.2497  0.1828 -0.1507
  617SOL    HW112185   5.218   9.068   2.227  0.4993  0.3720  0.0354
  617SOL    HW212186   5.246   8.930   2.310 -1.2084 -0.8983 -1.4676
  618SOL     OW12187   0.108   2.158   1.547  0.1884  0.1732  0.0450
  618SOL    HW112188   0.170   2.228   1.511  1.8523 -1.4963 -0.4171
  618SOL    HW212189   0.149   2.117   1.628 -1.0075  0.0659  0.5992
  619SOL     OW12190   3.191   5.360   2.842 -0.4255 -0.0182 -0.0016
  619SOL    HW112191   3.124   5.334   2.912 -1.6901  1.2378 -0.7114
  619SOL    HW212192   3.204   5.284   2.779 -1.3579 -0.1985  0.0196
  620SOL     OW12193   7.196   0.019   0.451  0.6723  0.3621 -0.2602
  620SOL    HW112194   7.128   0.000   0.522  0.7611  0.3842 -0.1695
  620SOL    HW212195   7.184   0.112   0.416  0.0336  0.0453 -0.9219
  621SOL     OW12196   8.990   8.167   2.064 -0.1950  0.1372 -0.4540
  621SOL    HW112197   9.005   8.150   1.967 -1.7240 -0.6212 -0.5728
  621SOL    HW212198   9.053   8.110   2.118 -0.2004 -0.3681 -0.9811
  622SOL     OW12199   8.505   2.855   3.344  0.0403 -0.2331 -0.4784
  622SOL    HW112200   8.421   2.889   3.302  0.8206  0.4329 -1.5547
  622SOL    HW212201   8.568   2.825   3.272  0.9367 -0.2082  0.2824
  623SOL     OW12202   4.474   9.819   2.258  0.0058  0.1922 -0.0580
  623SOL    HW112203   4.463   9.795   2.354  0.9093  1.0573  0.2730
  623SOL    HW212204   4.384   9.833   2.216 -0.3512  1.9689  1.2329
  624SOL     OW12205   4.108   9.027   3.267  0.1182  0.5795  0.2123
  624SOL    HW112206   4.149   8.972   3.340 -0.7747 -1.9710 -1.1565
  624SOL    HW212207   4.013   9.047   3.289 -0.3879 -0.8789 -0.5956
  625SOL     OW12208   1.252   4.032   0.612  0.0140 -0.0848 -0.9364
  625SOL    HW112209   1.331   4.088   0.638 -1.5200  1.2292  1.1075
  625SOL    HW212210   1.243   3.956   0.677  0.8475 -1.5218 -2.4605
  626SOL     OW12211   4.252   3.376   2.771  0.6676  0.3229 -0.1050
  626SOL    HW112212   4.240   3.473   2.787 -0.1118  0.0848  0.8144
  626SOL    HW212213   4.177   3.325   2.815  1.5510 -0.7531  0.1876
  627SOL     OW12214   1.232   0.083   0.701 -0.0884 -0.4757 -0.2488
  627SOL    HW112215   1.142   0.061   0.739  0.4132 -1.2589  0.5016
  627SOL    HW212216   1.265   0.006   0.646 -0.8224  0.6575 -2.3430
  628SOL     OW12217   8.081   0.980   2.434 -0.9068  0.1755 -0.4889
  628SOL    HW112218   8.154   0.926   2.392 -1.1892 -0.4880 -0.1330
  628SOL    HW212219   8.122   1.050   2.493 -0.4983  1.3679 -2.1542
  629SOL     OW12220   1.586   3.871   0.307 -0.5666 -0.4322 -0.1256
  629SOL    HW112221   1.503   3.927   0.300 -0.7624 -0.5295  1.3295
  629SOL    HW212222   1.658   3.911   0.250 -0.8790  0.9940  0.4526
  630SOL     OW12223   3.253   1.417   0.769  0.2809 -0.3090  0.3295
  630SOL    HW112224   3.206   1.355   0.832 -0.1484  0.7162  1.0185
  630SOL    HW212225   3.186   1.475   0.722  0.9767  3.2918  3.5603
  631SOL     OW12226   8.500   2.157   3.548 -0.1926  0.0306 -0.2541
  631SOL    HW112227   8.412   2.201   3.565  0.0708 -0.0481  1.4136
  631SOL    HW212228   8.569   2.226   3.528 -0.1181  0.2601  0.8000
  632SOL     OW12229   8.742   2.137   3.390  0.0743 -0.4719  0.3168
  632SOL    HW112230   8.750   2.226   3.436  0.1118 -0.3127 -0.0003
  632SOL    HW212231   8.832   2.109   3.356 -0.5665  1.0603 -2.7670
  633SOL     OW12232   8.507   1.086   4.027 -0.4930 -0.4303  0.0716
  633SOL    HW112233   8.517   1.165   3.967 -0.2255  0.0259  0.7084
  633SOL    HW212234   8.456   1.014   3.980  1.0502 -0.6761 -1.2526
  634SOL     OW12235   9.626   3.360   0.139 -0.2719 -0.6823  0.3189
  634SOL    HW112236   9.530   3.354   0.110 -0.5543  0.0512  1.0660
  634SOL    HW212237   9.639   3.305   0.222  0.2944 -1.9636 -0.6127
  635SOL     OW12238   7.450   9.787   3.978 -0.4909 -0.2192  0.2257
  635SOL    HW112239   7.424   9.697   3.941 -2.2784 -0.3320  1.7236
  635SOL    HW212240   7.386   9.856   3.946 -1.3521 -0.1154  2.1230
  636SOL     OW12241   9.745   0.399   1.404 -0.2003  0.2231 -0.1035
  636SOL    HW112242   9.660   0.353   1.433  0.0081 -0.3567 -0.4042
  636SOL    HW212243   9.722   0.484   1.357 -0.6384 -0.1610 -0.5951
  637SOL     OW12244   0.062   0.745   1.704  0.2290  0.3861  0.5733
  637SOL    HW112245   0.100   0.720   1.615 -1.7741 -0.7156  0.0031
  637SOL    HW212246   0.045   0.844   1.706  0.9371  0.5251 -0.0097
  638SOL     OW12247   3.601   5.686   3.150 -0.5447  0.2273 -0.0911
  638SOL    HW112248   3.621   5.588   3.157  0.0338  0.3263 -0.3224
  638SOL    HW212249   3.599   5.712   3.053  1.7209  0.9317  0.0218
  639SOL     OW12250   5.067   7.768   0.627  0.2676 -0.3847  0.1892
  639SOL    HW112251   4.984   7.717   0.648  0.5581 -0.6070  0.8222
  639SOL    HW212252   5.128   7.767   0.706  0.5492  0.4181 -0.0128
  640SOL     OW12253   3.309   7.294   0.758  0.2649  0.2003  0.0585
  640SOL    HW112254   3.277   7.374   0.807  2.3049  0.8328  0.4235
  640SOL    HW212255   3.383   7.320   0.696 -0.4865 -1.0417 -1.4141
  641SOL     OW12256   7.272   1.411   3.396  0.2593  0.3284  0.0204
  641SOL    HW112257   7.244   1.506   3.382  1.4288  0.5723 -0.7463
  641SOL    HW212258   7.283   1.366   3.307  2.1333  0.2196  0.2719
  642SOL     OW12259   8.866   8.667   1.904 -0.1544  1.1274  0.5169
  642SOL    HW112260   8.887   8.718   1.988 -1.5583  1.0861  0.8968
  642SOL    HW212261   8.923   8.702   1.829  0.3807  1.8468  1.2469
  643SOL     OW12262   0.186   9.615   2.784 -0.2327  0.0417 -0.2730
  643SOL    HW112263   0.171   9.605   2.686 -0.5939  0.9032 -0.3090
  643SOL    HW212264   0.107   9.580   2.834  0.0719 -0.6588 -0.2768
  644SOL     OW12265   3.686   0.476   0.063  0.4917  0.3931  0.9518
  644SOL    HW112266   3.782   0.457   0.041  0.4048  1.1619 -0.1478
  644SOL    HW212267   3.665   0.440   0.154  1.2578 -1.6390  0.3663
  645SOL     OW12268   3.083   6.934   0.655 -0.2326  0.2546  0.3813
  645SOL    HW112269   3.162   6.963   0.709 -0.3815 -0.3986  0.9447
  645SOL    HW212270   3.073   6.835   0.660 -0.2313  0.1821 -0.8673
  646SOL     OW12271   4.560   7.858   2.465 -0.0025 -0.5966 -0.2894
  646SOL    HW112272   4.549   7.766   2.430 -3.1409 -0.6136  0.5626
  646SOL    HW212273   4.560   7.856   2.565 -0.4473  0.3604 -0.2628
  647SOL     OW12274   2.142   8.213   2.310  0.2258 -0.3714 -0.3372
  647SOL    HW112275   2.174   8.214   2.215 -1.0651  2.4716 -0.7722
  647SOL    HW212276   2.143   8.305   2.347 -2.0697 -1.0173  1.4809
  648SOL     OW12277   4.295   7.793   2.187 -1.0063 -0.4267  0.4336
  648SOL    HW112278   4.259   7.879   2.151 -1.1726 -0.6516  0.0618
  648SOL    HW212279   4.385   7.776   2.148  0.8281  1.5973  3.5564
  649SOL     OW12280   9.109   3.079   1.142 -0.1629 -0.1059  0.0741
  649SOL    HW112281   9.104   3.171   1.101 -3.1163 -0.1816  0.1650
  649SOL    HW212282   9.156   3.017   1.079  1.3916  1.3227 -0.2204
  650SOL     OW12283   9.225   0.532   0.745 -0.4248 -0.0170 -0.1851
  650SOL    HW112284   9.134   0.527   0.786 -0.1238 -0.8435  0.4155
  650SOL    HW212285   9.229   0.474   0.664 -0.4026 -0.0644 -0.1501
  651SOL     OW12286   8.434   0.851   1.613  0.1157  0.0999  0.3479
  651SOL    HW112287   8.400   0.938   1.647  0.5429  0.4310 -0.0608
  651SOL    HW212288   8.361   0.783   1.616  0.4495 -0.1829  2.9925
  652SOL     OW12289   7.511   2.157   0.391  0.1918 -0.3206  0.0255
  652SOL    HW112290   7.504   2.120   0.298 -1.0779 -1.1148  0.4142
  652SOL    HW212291   7.601   2.137   0.429  0.5051 -0.5159 -0.8042
  653SOL     OW12292   7.546   1.815   1.226  0.2864 -0.3043 -0.0529
  653SOL    HW112293   7.554   1.754   1.305 -0.5106  1.2639  1.2776
  653SOL    HW212294   7.638   1.838   1.193  0.6164 -1.2783  0.1707
  654SOL     OW12295   1.083   2.816   0.872 -0.0485 -0.7577 -0.7727
  654SOL    HW112296   1.176   2.837   0.902  0.5346 -2.3423 -1.4231
  654SOL    HW212297   1.049   2.891   0.814  0.5640  0.1250 -0.0088
  655SOL     OW12298   0.031   0.254   1.028  0.2203 -0.4552 -0.3906
  655SOL    HW112299  -0.002   0.177   1.083 -2.1769  1.3487  0.7864
  655SOL    HW212300   0.102   0.302   1.078 -0.6031  0.0412  0.3122
  656SOL     OW12301   8.021   0.906   1.872 -0.2705 -0.5511  0.6284
  656SOL    HW112302   7.954   0.903   1.947 -0.8898 -2.3059  0.0339
  656SOL    HW212303   8.020   0.819   1.824  0.3573  0.4456 -1.2324
  657SOL     OW12304   3.065   4.276   1.468  0.5763  0.8890  0.0368
  657SOL    HW112305   2.965   4.268   1.471  0.7784 -1.1668  1.8703
  657SOL    HW212306   3.096   4.270   1.373 -0.8261 -1.2200 -0.3097
  658SOL     OW12307   2.490   3.616   2.535 -0.5526 -1.1897  0.4804
  658SOL    HW112308   2.407   3.650   2.579  0.4038  1.4258  0.3200
  658SOL    HW212309   2.495   3.652   2.442  1.3207 -0.4154  0.8652
  659SOL     OW12310   3.347   4.214   1.437  0.5718 -0.5476 -0.2965
  659SOL    HW112311   3.397   4.264   1.367 -0.1812 -0.2965 -0.6570
  659SOL    HW212312   3.268   4.268   1.467  1.5095 -0.1577  1.5327
  660SOL     OW12313   4.179   8.560   0.300 -0.7329  0.3868  0.1049
  660SOL    HW112314   4.103   8.530   0.243 -0.3988  1.0052 -0.6791
  660SOL    HW212315   4.172   8.518   0.390 -2.2440  0.7803  0.1872
  661SOL     OW12316   8.539   1.129   0.519  0.2358  0.1637  0.1001
  661SOL    HW112317   8.503   1.036   0.507  0.9177 -0.0462 -0.3796
  661SOL    HW212318   8.639   1.126   0.519  0.2773  1.0316 -1.0725
  662SOL     OW12319   4.133   2.917   1.733  0.0676 -0.4204  0.0301
  662SOL    HW112320   4.065   2.908   1.806 -1.7257  0.5731 -1.5030
  662SOL    HW212321   4.099   2.978   1.662  2.0963 -0.8101 -1.3229
  663SOL     OW12322   8.305   2.262   0.343  0.1122 -0.0663 -0.6667
  663SOL    HW112323   8.376   2.302   0.401  2.1171 -3.9993 -0.2532
  663SOL    HW212324   8.226   2.236   0.398 -0.4794  1.6633 -0.6782
  664SOL     OW12325   6.790   9.555   2.555 -0.7115 -0.1572  0.3040
  664SOL    HW112326   6.821   9.486   2.490  0.1286  1.4243 -1.0201
  664SOL    HW212327   6.694   9.577   2.537 -0.0125  1.5092 -1.5570
  665SOL     OW12328   2.937   9.025   3.305  0.4764  0.3432 -0.2571
  665SOL    HW112329   3.036   9.015   3.308  0.2532 -2.1267  0.3986
  665SOL    HW212330   2.898   8.994   3.392 -0.8694  1.1880 -0.5508
  666SOL     OW12331   0.950   2.367   1.293  0.4990 -0.3284  0.2320
  666SOL    HW112332   0.978   2.289   1.237 -0.5046 -1.1639  0.8557
  666SOL    HW212333   0.855   2.391   1.272  1.8080  2.9112 -2.3761
  667SOL     OW12334   1.972   7.745   0.567 -0.7323 -0.4546 -0.5154
  667SOL    HW112335   1.962   7.835   0.526  1.4960 -0.0821 -0.2813
  667SOL    HW212336   2.039   7.749   0.641 -0.9053 -2.2292 -0.2355
  668SOL     OW12337   3.381   0.119   3.890  0.6074  0.1278 -0.0543
  668SOL    HW112338   3.369   0.029   3.932  1.6553  1.0255  2.3110
  668SOL    HW212339   3.298   0.173   3.901  0.3944 -0.1362 -0.3838
  669SOL     OW12340   8.260   6.049   0.789  0.0918  0.2281 -0.0896
  669SOL    HW112341   8.247   6.140   0.828  1.0409  1.0845 -1.7284
  669SOL    HW212342   8.306   6.057   0.701  0.5691 -1.8760 -0.0496
  670SOL     OW12343   1.550   7.468   1.769  0.1592 -0.3157 -0.2659
  670SOL    HW112344   1.609   7.387   1.762 -2.7448 -2.4472 -0.8762
  670SOL    HW212345   1.539   7.493   1.865  0.2687 -1.2563 -0.0096
  671SOL     OW12346   1.306   9.166   1.022  0.0319  0.1635  0.3095
  671SOL    HW112347   1.374   9.099   0.993  1.5912  1.6500  0.4792
  671SOL    HW212348   1.222   9.119   1.048  0.7932 -1.6526 -0.4603
  672SOL     OW12349   0.449   1.869   3.156  0.2767  0.3385  0.5144
  672SOL    HW112350   0.471   1.945   3.217 -1.2803  0.4553  0.9400
  672SOL    HW212351   0.390   1.803   3.204  0.4273 -0.4118 -0.3173
  673SOL     OW12352   8.594   2.636   3.762  0.0805  0.2753 -0.2450
  673SOL    HW112353   8.655   2.636   3.683  0.9550 -1.4771  0.3853
  673SOL    HW212354   8.547   2.724   3.768  1.2357  1.0303 -1.7498
  674SOL     OW12355   2.956   6.169   1.378  0.4797  0.2289 -0.2356
  674SOL    HW112356   2.960   6.127   1.287 -1.2330 -0.1649 -0.1573
  674SOL    HW212357   2.898   6.114   1.437 -0.7262  1.9876  0.2642
  675SOL     OW12358   6.048   9.301   3.345  0.5470  0.3588  0.1681
  675SOL    HW112359   6.059   9.394   3.311  2.2552 -0.2900 -1.0869
  675SOL    HW212360   5.978   9.254   3.292 -0.0630  0.8100  0.5700
  676SOL     OW12361   0.829   1.469   4.010  0.1747  0.0368 -0.6282
  676SOL    HW112362   0.742   1.451   3.964 -0.5989 -0.0555  0.8298
  676SOL    HW212363   0.814   1.472   4.109  1.9219 -0.4425 -0.3369
  677SOL     OW12364   2.905   2.090   2.354 -0.0394  0.1262 -0.0971
  677SOL    HW112365   2.977   2.133   2.298 -0.5879  0.0268 -0.8864
  677SOL    HW212366   2.849   2.162   2.395  1.0541  0.2275  1.2584
  678SOL     OW12367   2.311   9.111   2.372  0.0538 -0.3874 -0.0977
  678SOL    HW112368   2.281   9.111   2.467 -1.4628 -1.3803 -0.5617
  678SOL    HW212369   2.297   9.202   2.332 -0.3695 -0.2747  0.3053
  679SOL     OW12370   1.341   7.948   1.566 -0.3510 -0.7314  0.6873
  679SOL    HW112371   1.382   7.871   1.517 -1.7834 -1.5148  0.6731
  679SOL    HW212372   1.382   8.033   1.535  0.8294 -1.4458  0.2577
  680SOL     OW12373   2.335   0.907   2.569 -0.6882  0.2856 -0.0554
  680SOL    HW112374   2.343   0.937   2.474  0.7135  0.6587  0.1672
  680SOL    HW212375   2.324   0.986   2.629  0.2329  0.1921  0.2586
  681SOL     OW12376   0.160   0.738   1.999 -0.2238 -0.1363  0.0351
  681SOL    HW112377   0.252   0.776   2.007  0.7890 -2.4596 -0.2413
  681SOL    HW212378   0.108   0.791   1.933  1.5527  0.0170 -1.2699
  682SOL     OW12379   3.711   9.245   0.529  0.1562  0.2757 -0.9351
  682SOL    HW112380   3.690   9.297   0.446  1.6315  0.8343 -0.9774
  682SOL    HW212381   3.810   9.236   0.538 -0.0047 -0.0204  0.6369
  683SOL     OW12382   4.618   0.018   1.190 -0.0940 -0.2441 -0.1508
  683SOL    HW112383   4.641  -0.039   1.111  1.0027 -0.5098  0.3405
  683SOL    HW212384   4.545  -0.025   1.242 -0.2754 -0.4650 -0.5824
  684SOL     OW12385   9.151   0.505   1.813  0.2256 -0.3052  0.0640
  684SOL    HW112386   9.087   0.428   1.805  0.4293 -0.5722  0.9603
  684SOL    HW212387   9.245   0.471   1.808  0.3322 -0.2483  1.5237
  685SOL     OW12388   3.502   1.175   3.257 -0.3829 -0.6139  0.0587
  685SOL    HW112389   3.508   1.205   3.162  2.3450  0.2515  0.4705
  685SOL    HW212390   3.593   1.150   3.291 -1.2215 -0.4239  2.5948
  686SOL     OW12391   1.687   4.070   1.426  0.5993 -0.3096  0.0738
  686SOL    HW112392   1.664   3.975   1.447 -1.3737  0.3986  1.3323
  686SOL    HW212393   1.631   4.102   1.350  1.9821 -0.4424 -1.0125
  687SOL     OW12394   0.281   9.319   3.022 -0.2220 -0.9220  0.2036
  687SOL    HW112395   0.206   9.382   3.005  0.0785 -0.2416  1.3359
  687SOL    HW212396   0.260   9.265   3.104  0.6468 -0.5305  0.6862
  688SOL     OW12397   2.910   2.841   2.812 -0.1416 -0.6671 -0.6370
  688SOL    HW112398   2.858   2.761   2.842  0.6856 -1.3002 -0.8679
  688SOL    HW212399   2.988   2.855   2.873  2.1570 -2.5935 -3.0124
  689SOL     OW12400   0.776   4.182   0.560  0.4126 -0.3439 -0.2454
  689SOL    HW112401   0.773   4.118   0.637  1.3781  0.6738  0.6602
  689SOL    HW212402   0.871   4.191   0.529  0.2453  0.4399 -0.5380
  690SOL     OW12403   6.109   0.173   3.401  0.1080  0.1589  0.4987
  690SOL    HW112404   6.051   0.253   3.418 -1.3099 -0.4762 -1.1778
  690SOL    HW212405   6.120   0.160   3.303  0.4639 -1.5921  0.7582
  691SOL     OW12406   3.146   8.702   3.278 -0.3365  0.1917  0.0203
  691SOL    HW112407   3.099   8.651   3.350  0.8847 -2.4932 -1.0341
  691SOL    HW212408   3.079   8.740   3.215 -1.3033  0.5586  1.2526
  692SOL     OW12409   7.787   9.534   1.883  0.2600 -0.5494  0.1073
  692SOL    HW112410   7.717   9.498   1.946  0.4863 -0.2568  0.5315
  692SOL    HW212411   7.822   9.459   1.826 -1.6381 -0.3793 -1.3250
  693SOL     OW12412   2.231   4.271   1.508 -0.1715  0.0929  0.1608
  693SOL    HW112413   2.195   4.317   1.589  0.1063  2.7424 -1.1601
  693SOL    HW212414   2.231   4.172   1.523 -2.8401  0.3539  2.2502
  694SOL     OW12415   3.076   0.876   2.105  0.0604 -0.3086  0.0117
  694SOL    HW112416   3.161   0.829   2.128 -1.2288 -1.6849  2.1706
  694SOL    HW212417   3.053   0.942   2.176 -2.4151 -2.4511  1.3363
  695SOL     OW12418   2.265   1.445   2.165 -0.3335 -0.4522  0.4035
  695SOL    HW112419   2.353   1.492   2.170 -1.7698  2.3711  0.1388
  695SOL    HW212420   2.216   1.457   2.252 -1.0757 -0.7363  0.0281
  696SOL     OW12421   2.215   0.505   0.240  0.0821 -0.0391  0.2285
  696SOL    HW112422   2.219   0.575   0.168  1.4671  1.5932  1.8433
  696SOL    HW212423   2.304   0.461   0.248  0.3949  0.8851  1.9930
  697SOL     OW12424   3.500   7.528   1.151 -0.3634  0.0953 -0.0160
  697SOL    HW112425   3.544   7.439   1.137  1.3829  0.8223  0.6912
  697SOL    HW212426   3.494   7.546   1.249 -0.0523  1.0659 -0.1738
  698SOL     OW12427   4.037   8.824   3.915  0.2185  0.1137 -0.0493
  698SOL    HW112428   3.959   8.795   3.971 -0.8587 -0.7168 -1.9195
  698SOL    HW212429   4.120   8.825   3.971 -0.9420 -0.0427  1.7106
  699SOL     OW12430   8.172   9.385   1.463 -0.2256 -0.0359 -0.0791
  699SOL    HW112431   8.122   9.449   1.403  0.6613  1.0867  0.3762
  699SOL    HW212432   8.181   9.298   1.416 -2.8783 -0.3714 -0.0718
  700SOL     OW12433   4.423   7.650   3.689  0.6982 -0.2869 -0.0941
  700SOL    HW112434   4.353   7.722   3.686  0.9474  0.1440  3.0193
  700SOL    HW212435   4.507   7.685   3.648  0.8875  1.3188  1.5693
  701SOL     OW12436   3.313   1.503   2.342  0.3282 -0.3880  0.2548
  701SOL    HW112437   3.243   1.523   2.274 -1.3043  3.0292  2.7677
  701SOL    HW212438   3.401   1.541   2.312  0.6170 -2.5375 -1.7671
  702SOL     OW12439   1.688   2.879   2.228  0.3423  0.1885  0.0428
  702SOL    HW112440   1.662   2.849   2.320 -2.1690  2.8241  0.2486
  702SOL    HW212441   1.650   2.816   2.161 -2.1435  1.0388  0.6109
  703SOL     OW12442   0.193   9.446   0.548 -0.6555 -0.0157 -0.4399
  703SOL    HW112443   0.122   9.482   0.487  0.3580  2.1485 -0.3643
  703SOL    HW212444   0.252   9.520   0.579  0.8441 -1.5864  0.5778
  704SOL     OW12445   7.613   1.339   3.573 -0.0830 -0.4311  0.5252
  704SOL    HW112446   7.636   1.260   3.631  0.6043  1.6414  3.1563
  704SOL    HW212447   7.650   1.324   3.481  0.7533 -2.7947  1.1942
  705SOL     OW12448   3.130   7.174   2.116 -0.7246  0.2775  0.4130
  705SOL    HW112449   3.185   7.257   2.130 -0.8539  0.4711 -0.2480
  705SOL    HW212450   3.059   7.192   2.049 -0.8760 -0.3181  0.4126
  706SOL     OW12451   2.036   3.125   1.423 -0.6684 -0.4513  0.0314
  706SOL    HW112452   2.082   3.043   1.458 -0.4582 -0.5541 -0.4831
  706SOL    HW212453   1.991   3.104   1.336  1.6527  0.6551 -1.4808
  707SOL     OW12454   4.775   8.570   2.467  0.2023 -0.7546  0.4239
  707SOL    HW112455   4.843   8.610   2.528 -0.5014 -0.3664  0.9560
  707SOL    HW212456   4.687   8.614   2.482  0.6244  1.4041 -2.9060
  708SOL     OW12457   3.729   9.942   0.314 -0.6538 -0.1311  0.2290
  708SOL    HW112458   3.635   9.931   0.283 -1.4508  2.9147  1.3862
  708SOL    HW212459   3.730   9.986   0.403  1.9014  0.5524 -0.0891
  709SOL     OW12460   1.262   1.056   2.584  0.4403  0.5681 -0.1975
  709SOL    HW112461   1.283   0.995   2.661 -0.5257  1.9510  1.1867
  709SOL    HW212462   1.329   1.130   2.581  1.3998 -0.3489 -1.6584
  710SOL     OW12463   2.056   1.190   2.900  0.1574  0.3254 -0.6039
  710SOL    HW112464   1.987   1.123   2.928  0.3939 -0.0622 -0.9398
  710SOL    HW212465   2.017   1.281   2.903  0.3673  0.3593  1.5964
  711SOL     OW12466   9.076   0.076   2.792 -0.3945 -0.3751  0.0006
  711SOL    HW112467   9.081   0.081   2.692  0.9488 -1.1483  0.0305
  711SOL    HW212468   8.995   0.023   2.818 -1.9339  1.6055 -0.6280
  712SOL     OW12469   1.282   2.949   0.141  0.1944 -0.9158  0.3240
  712SOL    HW112470   1.328   2.959   0.053  0.9117  0.2459  0.8166
  712SOL    HW212471   1.195   2.999   0.138  0.2874 -0.7550  0.3332
  713SOL     OW12472   0.833   1.833   1.463 -0.4274  0.5945 -0.2963
  713SOL    HW112473   0.834   1.920   1.512 -1.5452  0.1944  0.4788
  713SOL    HW212474   0.924   1.813   1.427  0.5691  0.6491  2.0822
  714SOL     OW12475   3.030   9.015   0.056  0.1216  0.9393  0.4515
  714SOL    HW112476   3.066   9.025  -0.037  3.6600  2.2726  1.8822
  714SOL    HW212477   3.008   9.105   0.093 -0.0451  0.5303  1.3458
  715SOL     OW12478   3.592   2.818   2.408  0.0580  0.1882 -0.0475
  715SOL    HW112479   3.652   2.854   2.337 -1.2132  0.0177 -1.2310
  715SOL    HW212480   3.511   2.876   2.416 -0.9279 -1.1065 -0.4024
  716SOL     OW12481   0.735   8.232   2.533 -0.0494  0.1601  0.8176
  716SOL    HW112482   0.773   8.305   2.475 -1.1398  1.5235  1.7850
  716SOL    HW212483   0.806   8.199   2.594  1.0168 -1.0350 -1.0076
  717SOL     OW12484   4.190   2.092   1.591 -0.3059  0.3111  0.5167
  717SOL    HW112485   4.199   2.037   1.508 -1.0621  2.0663 -0.7662
  717SOL    HW212486   4.126   2.048   1.654 -0.2484 -0.6910 -0.1161
  718SOL     OW12487   1.853   5.436   2.665  0.3319  0.1651  0.1089
  718SOL    HW112488   1.949   5.463   2.656  0.6128  0.6039  3.6730
  718SOL    HW212489   1.848   5.347   2.709 -0.8808  0.2335  0.1169
  719SOL     OW12490   4.061   9.409   1.401 -0.3140  0.2071  0.0849
  719SOL    HW112491   4.031   9.357   1.481  0.1374  1.5158  1.1195
  719SOL    HW212492   4.008   9.381   1.322 -2.2664  0.4042  1.2845
  720SOL     OW12493   3.567   9.940   1.668  0.2989 -0.3234  0.2756
  720SOL    HW112494   3.660   9.941   1.705  0.3040  1.1812  0.2200
  720SOL    HW212495   3.536   9.845   1.660  1.2086 -0.7645  1.8332
  721SOL     OW12496   8.175   1.355   0.227 -0.3476 -0.1157 -0.0324
  721SOL    HW112497   8.142   1.420   0.159  0.3870 -0.4723 -0.7303
  721SOL    HW212498   8.108   1.282   0.238  0.0686 -0.6920 -1.2485
  722SOL     OW12499   8.328   1.561   0.493  0.3917  0.2649 -0.4522
  722SOL    HW112500   8.299   1.581   0.399 -0.4572  3.3450  0.3889
  722SOL    HW212501   8.402   1.494   0.491  0.5015  0.3714 -3.3367
  723SOL     OW12502   4.431   9.985   1.749 -0.5326  0.1032  0.0704
  723SOL    HW112503   4.361  10.056   1.761  2.1886  2.7601  0.9048
  723SOL    HW212504   4.465   9.957   1.839  0.3358 -0.2814 -0.3759
  724SOL     OW12505   8.243   1.795   2.175 -0.4498  0.4508  0.1695
  724SOL    HW112506   8.219   1.892   2.172  0.0740  0.5708 -0.3078
  724SOL    HW212507   8.178   1.746   2.233 -0.7217  1.0864  0.4073
  725SOL     OW12508   8.974   7.741   1.109  0.4950  0.9026 -0.0387
  725SOL    HW112509   8.960   7.795   1.026  0.6073  0.1317 -0.5639
  725SOL    HW212510   9.061   7.767   1.151  0.1209  1.7707  0.2058
  726SOL     OW12511   4.508   0.467   2.398 -0.1542  0.0069  0.1492
  726SOL    HW112512   4.507   0.539   2.468 -0.1307 -0.5730  0.7546
  726SOL    HW212513   4.415   0.447   2.369 -0.3133 -1.0763  1.3966
  727SOL     OW12514   4.382   3.363   3.359  1.0163 -0.4875  0.0217
  727SOL    HW112515   4.416   3.446   3.405 -0.5378  0.3856 -0.3811
  727SOL    HW212516   4.381   3.379   3.260  0.2647 -0.8119 -0.0254
  728SOL     OW12517   3.950   7.917   3.310  0.2237  0.8854  0.2605
  728SOL    HW112518   3.904   7.899   3.397 -0.8728  0.8058 -0.3229
  728SOL    HW212519   3.961   8.015   3.298 -2.3708  1.0855 -0.8685
  729SOL     OW12520   4.245   4.566   1.143 -0.0153  0.1029  0.0760
  729SOL    HW112521   4.187   4.644   1.166 -1.5268 -0.8773 -0.3625
  729SOL    HW212522   4.225   4.489   1.204 -0.4600 -0.8259 -1.2130
  730SOL     OW12523   6.909   3.504   0.405 -0.0855 -0.5325 -0.0188
  730SOL    HW112524   6.980   3.435   0.421  1.0652  0.6858  0.2170
  730SOL    HW212525   6.918   3.540   0.312  0.1486  0.2418  0.3040
  731SOL     OW12526   0.743   1.795   3.802 -0.4544 -0.8967 -0.8352
  731SOL    HW112527   0.671   1.864   3.804  1.8407  1.6580 -3.1462
  731SOL    HW212528   0.815   1.820   3.867  0.8409 -0.5656 -2.3782
  732SOL     OW12529   9.975   2.086   3.688 -0.3360 -1.0495 -0.4922
  732SOL    HW112530  10.044   2.144   3.731 -0.9760 -0.2381 -0.5666
  732SOL    HW212531  10.011   2.050   3.602  0.5039 -1.7276  0.1330
  733SOL     OW12532   3.829   9.777   3.634  0.1608  0.1136 -0.1829
  733SOL    HW112533   3.774   9.763   3.716  0.4269 -1.3487 -0.2444
  733SOL    HW212534   3.831   9.693   3.580 -0.0618  1.0728 -1.7300
  734SOL     OW12535   9.546   3.150   2.119 -0.4980  0.3323  0.3155
  734SOL    HW112536   9.515   3.214   2.049 -0.1199  0.1720 -0.0004
  734SOL    HW212537   9.635   3.179   2.155 -1.4211  1.2931  1.8648
  735SOL     OW12538   8.328   9.718   1.705 -0.2332 -0.0088 -0.7490
  735SOL    HW112539   8.299   9.797   1.758 -0.9875  0.1865 -1.4333
  735SOL    HW212540   8.288   9.635   1.744 -0.0486  0.0361 -0.4707
  736SOL     OW12541   7.692   0.563   3.276  0.6669 -0.0839  0.2443
  736SOL    HW112542   7.647   0.474   3.284  1.5422 -0.4425  1.1524
  736SOL    HW212543   7.777   0.553   3.224 -0.4125  0.6420 -1.7139
  737SOL     OW12544   3.987   1.905   2.610 -0.2188  0.2093  0.7080
  737SOL    HW112545   4.068   1.961   2.599  0.3563 -0.2531  2.4534
  737SOL    HW212546   3.924   1.922   2.533  0.6668  1.9766  0.3404
  738SOL     OW12547   0.625   2.729   2.255 -0.4818 -0.1486 -0.0153
  738SOL    HW112548   0.670   2.720   2.166 -1.5498  1.7918 -0.7995
  738SOL    HW212549   0.535   2.686   2.251 -1.0933  1.1231 -0.3357
  739SOL     OW12550   1.981   6.333   0.495 -0.6224  0.1491  0.5625
  739SOL    HW112551   2.015   6.249   0.539  0.0425  0.5670  0.8650
  739SOL    HW212552   2.024   6.412   0.538 -0.2015  0.5836 -0.6242
  740SOL     OW12553   4.002   0.195   3.282  0.2636 -0.3683 -0.1078
  740SOL    HW112554   4.098   0.209   3.259  0.7527 -1.7702  1.0536
  740SOL    HW212555   3.968   0.112   3.237  0.5648 -1.7884  2.2195
  741SOL     OW12556   3.602   8.474   0.330  0.1230  0.2611  0.5000
  741SOL    HW112557   3.532   8.428   0.385  1.4938 -1.7790  0.6091
  741SOL    HW212558   3.612   8.569   0.360  0.4306 -0.6386  3.3800
  742SOL     OW12559   2.476   4.016   1.559 -0.1809 -0.6933 -0.1785
  742SOL    HW112560   2.536   3.997   1.638  0.2125  0.4428 -0.1990
  742SOL    HW212561   2.381   3.995   1.584 -0.0981 -0.0495  0.7035
  743SOL     OW12562   3.480   2.519   3.161 -0.1874 -0.7575  0.1932
  743SOL    HW112563   3.558   2.469   3.124  1.9171  1.5403  1.3538
  743SOL    HW212564   3.440   2.467   3.237  2.5835 -0.3470  2.0358
  744SOL     OW12565   7.714   8.686   1.416 -0.1611 -0.7228  0.0916
  744SOL    HW112566   7.786   8.692   1.485  0.5667  0.9809 -0.7690
  744SOL    HW212567   7.651   8.763   1.427 -0.5632 -0.9614 -0.5426
  745SOL     OW12568   1.231   0.846   0.847 -0.4528 -0.5108  0.2523
  745SOL    HW112569   1.290   0.921   0.878  0.3118 -0.9271 -0.1934
  745SOL    HW212570   1.287   0.772   0.810 -1.2911 -0.6157 -0.8121
  746SOL     OW12571   8.791   1.914   3.582 -0.5830 -0.0099 -0.2463
  746SOL    HW112572   8.762   1.971   3.506 -1.0887 -1.6775 -1.3327
  746SOL    HW212573   8.891   1.905   3.583 -0.5562  0.2971 -0.5021
  747SOL     OW12574   1.402   4.595   0.603  0.2595 -0.7065  0.3748
  747SOL    HW112575   1.459   4.630   0.529  0.2017 -1.7727 -0.1750
  747SOL    HW212576   1.361   4.672   0.653  2.8249  0.0913  1.3106
  748SOL     OW12577   8.194   8.974   2.422 -0.5424 -0.0291 -0.1472
  748SOL    HW112578   8.122   9.041   2.406 -0.6971  0.0363  0.7893
  748SOL    HW212579   8.239   8.951   2.335 -0.0603  1.7569 -0.3831
  749SOL     OW12580   0.940   0.814   3.251  0.1708  0.1839  0.0667
  749SOL    HW112581   0.937   0.719   3.282 -0.4897 -0.4616 -1.9493
  749SOL    HW212582   0.905   0.873   3.324 -0.4734 -1.2184  0.9245
  750SOL     OW12583   1.116   2.661   1.768  0.4029  0.2373  1.0397
  750SOL    HW112584   1.087   2.588   1.829 -1.3604  1.0447  1.1831
  750SOL    HW212585   1.104   2.632   1.673  1.8394 -0.4954  1.0716
  751SOL     OW12586   3.373   8.158   1.149  0.2237  0.0455  0.0303
  751SOL    HW112587   3.407   8.201   1.233  1.1970  0.3373 -0.4961
  751SOL    HW212588   3.379   8.059   1.157  0.7491  0.0834  0.1432
  752SOL     OW12589   1.730   0.990   0.145  0.5452  0.5007 -0.5111
  752SOL    HW112590   1.635   1.021   0.139 -0.3840 -2.5434 -3.0461
  752SOL    HW212591   1.769   1.017   0.233 -2.5370  2.0909  0.4289
  753SOL     OW12592   1.267   8.387   4.038  0.3167  0.2575 -0.0468
  753SOL    HW112593   1.190   8.425   4.090 -0.0580  0.1182 -0.4904
  753SOL    HW212594   1.280   8.291   4.064 -0.7364 -0.2083 -1.1692
  754SOL     OW12595   3.208   2.053   2.772 -0.4388 -0.3176 -0.0644
  754SOL    HW112596   3.296   2.100   2.779 -1.0036  0.5570  1.2515
  754SOL    HW212597   3.215   1.962   2.812  0.0695 -0.5492 -0.6703
  755SOL     OW12598   3.835   9.004   3.317  0.2319 -0.8687  0.1310
  755SOL    HW112599   3.834   9.101   3.343 -0.4202 -0.6876 -0.5577
  755SOL    HW212600   3.767   8.954   3.371 -0.2372 -0.7273 -0.3237
  756SOL     OW12601   6.967   6.425   3.891 -0.3117 -0.4079 -0.0864
  756SOL    HW112602   6.993   6.342   3.941  0.8409  0.7703  1.3285
  756SOL    HW212603   6.920   6.399   3.807  2.5319 -2.5770 -1.1165
  757SOL     OW12604   4.683   2.702   2.170  0.5124  0.5999 -0.0594
  757SOL    HW112605   4.640   2.627   2.221 -1.7602  3.5610  2.5564
  757SOL    HW212606   4.620   2.736   2.100  0.4859  1.7834  0.5309
  758SOL     OW12607   9.518   9.867   3.714  0.2919  0.2065  0.3739
  758SOL    HW112608   9.422   9.856   3.687  0.4802 -0.5400  0.0073
  758SOL    HW212609   9.557   9.945   3.665  0.1922 -0.1850 -0.3328
  759SOL     OW12610   7.952   3.358   1.517  0.6655  0.3177  0.5857
  759SOL    HW112611   7.969   3.456   1.504 -1.3737  0.7860  1.3180
  759SOL    HW212612   7.857   3.337   1.492  0.5915 -1.1589  2.0204
  760SOL     OW12613   7.769   1.321   3.329 -0.3972 -0.4817  0.1907
  760SOL    HW112614   7.720   1.257   3.269 -1.5950 -1.3019  2.0087
  760SOL    HW212615   7.844   1.273   3.375  0.7823  0.2487 -0.9031
  761SOL     OW12616   9.137   8.804   1.810  0.0960 -0.1928  0.2245
  761SOL    HW112617   9.113   8.894   1.846  1.0584  0.6454 -1.2108
  761SOL    HW212618   9.095   8.790   1.721  1.6788 -0.2831 -0.5322
  762SOL     OW12619   6.705   8.539   2.680 -0.0128 -0.2281  0.5739
  762SOL    HW112620   6.788   8.590   2.699  1.9071 -2.2766 -1.9175
  762SOL    HW212621   6.720   8.442   2.701 -1.1160 -0.9063 -1.6110
  763SOL     OW12622   2.316   9.218   0.851  0.1818 -0.0693 -0.1401
  763SOL    HW112623   2.286   9.226   0.946 -1.7425 -1.0257 -0.6396
  763SOL    HW212624   2.296   9.127   0.817  3.1599 -0.5631 -0.7357
  764SOL     OW12625   3.678   5.508   3.463 -0.9370 -0.1943 -0.4502
  764SOL    HW112626   3.668   5.473   3.370  0.9601  0.9635 -1.1292
  764SOL    HW212627   3.643   5.441   3.528 -0.8291 -1.7009 -1.9221
  765SOL     OW12628   0.985   0.041   1.576  0.0340  0.0284  0.2417
  765SOL    HW112629   1.014   0.113   1.639  2.8677 -1.0951  0.2675
  765SOL    HW212630   0.933  -0.028   1.627 -0.1452  0.5637  0.7862
  766SOL     OW12631   3.923   6.367   2.530  0.7609  0.1067  0.1728
  766SOL    HW112632   3.874   6.453   2.516  2.3291  0.7441 -1.5899
  766SOL    HW212633   3.865   6.291   2.498 -0.0319  0.6217  0.3565
  767SOL     OW12634   3.252   5.221   2.301  0.2721 -0.2826 -0.1295
  767SOL    HW112635   3.298   5.304   2.269  0.1492  0.4388  1.5212
  767SOL    HW212636   3.201   5.180   2.225  2.0214 -0.0162 -1.4907
  768SOL     OW12637   3.911   0.483   3.286  0.3274  0.1179 -0.2276
  768SOL    HW112638   3.819   0.516   3.266  0.6719  1.0142 -0.3683
  768SOL    HW212639   3.917   0.385   3.267 -0.0032  0.4808 -2.2210
  769SOL     OW12640   2.085   9.172   1.388 -0.1471 -0.4402  0.6789
  769SOL    HW112641   2.070   9.084   1.434  2.7737 -1.2311  0.2004
  769SOL    HW212642   2.175   9.207   1.412 -0.1996  1.1074 -1.3155
  770SOL     OW12643   5.883   9.017   1.872  0.1689 -0.2247  0.4716
  770SOL    HW112644   5.885   9.034   1.773 -2.3014 -0.5784  0.3077
  770SOL    HW212645   5.896   8.919   1.889 -2.9417 -0.7743  0.1776
  771SOL     OW12646   0.186   2.249   0.313  0.0597  0.2830  0.0092
  771SOL    HW112647   0.110   2.273   0.253  1.4321  0.9484 -1.4957
  771SOL    HW212648   0.216   2.156   0.294 -0.1795  0.1256  0.3950
  772SOL     OW12649   1.524   0.034   1.886 -0.3775 -0.1872 -0.0511
  772SOL    HW112650   1.540  -0.065   1.891  1.7593  0.1126 -0.5525
  772SOL    HW212651   1.612   0.082   1.876 -1.3919  1.7622  0.1398
  773SOL     OW12652   1.494   3.479   3.137  0.4539 -0.1616  0.0018
  773SOL    HW112653   1.463   3.559   3.085 -3.4304 -2.8509 -2.1036
  773SOL    HW212654   1.569   3.434   3.087 -0.0114 -0.0120 -0.8478
  774SOL     OW12655   7.529   0.149   2.089 -0.0131  0.2651 -0.0036
  774SOL    HW112656   7.514   0.238   2.048 -0.0665  0.1338 -0.2713
  774SOL    HW212657   7.612   0.108   2.050 -0.2930 -0.0360 -0.2764
  775SOL     OW12658   1.605   8.576   0.886  0.0184 -1.0991 -0.4275
  775SOL    HW112659   1.580   8.669   0.859  2.5405 -0.0141  0.8474
  775SOL    HW212660   1.670   8.538   0.820 -0.6195 -1.7747 -0.6722
  776SOL     OW12661   9.305   1.874   3.869 -0.3316  0.2483 -0.1660
  776SOL    HW112662   9.342   1.845   3.957 -0.4205  1.0370  0.1383
  776SOL    HW212663   9.255   1.960   3.880  0.0190  0.5834 -1.0548
  777SOL     OW12664   8.095   2.025   3.071  0.3221 -0.0743 -0.2353
  777SOL    HW112665   8.091   2.015   3.170 -0.4659 -0.1553 -0.2755
  777SOL    HW212666   8.003   2.039   3.035  0.8032  1.9366 -0.7475
  778SOL     OW12667   2.186   0.690   0.561  0.0156  0.3344  0.6403
  778SOL    HW112668   2.257   0.690   0.491  0.4250  0.8731  1.0508
  778SOL    HW212669   2.197   0.610   0.620 -0.1275  0.0575  0.2905
  779SOL     OW12670   8.968   0.680   3.573  0.0910 -0.3393  0.3800
  779SOL    HW112671   8.950   0.741   3.495  0.1802  0.0534  0.6664
  779SOL    HW212672   9.024   0.728   3.640 -0.4741 -0.4717  0.9544
  780SOL     OW12673   0.185   4.014   0.221  0.4212  0.5939 -0.3870
  780SOL    HW112674   0.276   4.053   0.235  1.7404 -2.9873  1.7772
  780SOL    HW212675   0.187   3.916   0.242 -3.8281  0.2944 -0.8801
  781SOL     OW12676   9.762   1.152   2.644 -0.4468  0.5052 -0.1714
  781SOL    HW112677   9.681   1.124   2.695 -0.3046 -0.2970 -0.3700
  781SOL    HW212678   9.761   1.251   2.630 -2.1336  0.3378 -1.4383
  782SOL     OW12679   0.936   3.792   2.668 -0.4288  0.1446  0.4964
  782SOL    HW112680   1.005   3.813   2.599 -0.5888 -1.6554 -0.2362
  782SOL    HW212681   0.977   3.737   2.741 -0.8336 -0.0493  0.5815
  783SOL     OW12682   3.143   3.197   2.300  0.3681  0.3804  0.5650
  783SOL    HW112683   3.069   3.151   2.349  1.8937 -2.4121  0.3529
  783SOL    HW212684   3.116   3.213   2.205 -0.1979 -0.0374  0.6584
  784SOL     OW12685   2.347   8.329   1.675 -0.3649  0.1459 -0.3146
  784SOL    HW112686   2.381   8.323   1.769  0.3138  0.3970 -0.5406
  784SOL    HW212687   2.416   8.295   1.612 -0.4695  0.7958 -0.7909
  785SOL     OW12688   9.787   2.744   3.428  0.1737  0.3334  0.6736
  785SOL    HW112689   9.780   2.804   3.507  0.9314 -0.0106  1.0135
  785SOL    HW212690   9.728   2.777   3.354  0.9259  1.7414  0.6897
  786SOL     OW12691   6.546   9.285   2.525  0.0383  0.3983 -0.7650
  786SOL    HW112692   6.462   9.338   2.517 -0.0481  0.4535  0.4552
  786SOL    HW212693   6.577   9.284   2.620  0.4314 -1.1429 -0.8819
  787SOL     OW12694   4.552   8.720   3.425  0.0077 -0.0899 -0.2351
  787SOL    HW112695   4.510   8.749   3.339 -1.6011 -1.1163  0.1760
  787SOL    HW212696   4.497   8.647   3.465  0.7410  0.4043  1.6894
  788SOL     OW12697   2.309   7.227   0.545 -0.2721 -0.3852 -0.5177
  788SOL    HW112698   2.232   7.162   0.544 -0.8462  0.2968 -0.9761
  788SOL    HW212699   2.315   7.273   0.457  0.7422 -0.5087 -0.5205
  789SOL     OW12700   8.510   8.856   2.802 -0.2066 -0.1286 -0.2508
  789SOL    HW112701   8.485   8.825   2.710 -1.4015 -0.2635  0.1162
  789SOL    HW212702   8.494   8.954   2.810 -2.7146 -0.5890  0.6635
  790SOL     OW12703   0.719   3.991   3.339 -0.8093  0.7060  0.2577
  790SOL    HW112704   0.791   3.958   3.278 -0.2479 -1.5511  2.0517
  790SOL    HW212705   0.644   4.028   3.286 -0.0373 -0.5795 -1.7734
  791SOL     OW12706   2.286   3.522   0.551 -0.4503  0.1564  0.3440
  791SOL    HW112707   2.385   3.527   0.536 -0.7048 -0.3878 -1.5687
  791SOL    HW212708   2.258   3.427   0.560 -0.6131  0.3651  2.3967
  792SOL     OW12709   0.222   1.943   1.971  0.0534  0.2078 -0.1304
  792SOL    HW112710   0.129   1.931   2.006  0.1406  1.4398  0.5546
  792SOL    HW212711   0.279   1.867   2.003 -0.2614  0.4614  1.0810
  793SOL     OW12712   0.186   8.386   2.017  0.7169  0.4623 -0.1364
  793SOL    HW112713   0.185   8.483   1.994  0.5194  0.7265  0.9223
  793SOL    HW212714   0.281   8.356   2.028  0.7393  0.9072  0.9864
  794SOL     OW12715   2.825   6.421   3.074  0.2054  0.3667  0.3469
  794SOL    HW112716   2.777   6.442   3.159 -0.1106 -0.9080  0.5078
  794SOL    HW212717   2.810   6.324   3.051  1.5829  0.3043 -0.3289
  795SOL     OW12718   8.672   0.004   1.691 -0.6704  0.3676  0.1136
  795SOL    HW112719   8.758  -0.044   1.706 -1.0387 -0.2706  0.1922
  795SOL    HW212720   8.630   0.026   1.779  0.2368  2.1909  0.1149
  796SOL     OW12721   8.602   9.941   3.454 -0.6769  0.4208 -0.5884
  796SOL    HW112722   8.504   9.951   3.469 -0.8169  0.2855 -1.3865
  796SOL    HW212723   8.649   9.934   3.542 -1.4915 -0.5063 -0.2256
  797SOL     OW12724   1.293   8.683   1.202 -0.5728 -0.7027  0.0542
  797SOL    HW112725   1.229   8.674   1.126 -2.0491  0.2442  1.1543
  797SOL    HW212726   1.269   8.762   1.257  0.7956 -1.0650  1.2197
  798SOL     OW12727   3.500   8.785   0.927  0.2507  0.2402  0.2521
  798SOL    HW112728   3.461   8.808   1.016  1.2403  1.1395  0.4582
  798SOL    HW212729   3.482   8.859   0.862 -0.1198 -0.2344 -0.1894
  799SOL     OW12730   4.254   3.356   1.600  0.7254 -0.5119 -0.3253
  799SOL    HW112731   4.256   3.450   1.635 -0.6173 -0.8994  0.8131
  799SOL    HW212732   4.160   3.322   1.603  1.4566 -2.4577  0.7283
  800SOL     OW12733   0.490   9.192   1.917 -0.0435 -0.1434  0.4952
  800SOL    HW112734   0.439   9.274   1.942 -1.0562 -0.4451 -0.5366
  800SOL    HW212735   0.430   9.129   1.867  0.7706 -1.4267  1.0813
  801SOL     OW12736   7.510   2.119   2.866 -0.5043 -0.9099 -0.1539
  801SOL    HW112737   7.554   2.199   2.906 -2.0692 -0.2558  0.2876
  801SOL    HW212738   7.527   2.117   2.768 -1.1736  0.4467 -0.3028
  802SOL     OW12739   4.473   8.052   3.328 -0.6956 -0.2305  0.2493
  802SOL    HW112740   4.426   7.968   3.300 -0.7164 -0.7960  1.9296
  802SOL    HW212741   4.538   8.079   3.257 -1.0647 -1.3801 -0.5348
  803SOL     OW12742   9.132   2.169   1.301 -0.2940 -0.7587 -0.1393
  803SOL    HW112743   9.065   2.112   1.252 -2.1225  1.3267 -0.1315
  803SOL    HW212744   9.168   2.238   1.238  0.7761 -0.9547  0.2569
  804SOL     OW12745   7.924   2.563   3.652 -0.1995  0.4632 -0.2797
  804SOL    HW112746   7.945   2.658   3.629  0.2320  0.7159  1.0684
  804SOL    HW212747   8.005   2.521   3.695 -0.8745 -0.0468  0.5131
  805SOL     OW12748   7.787   0.947   2.488 -0.6864 -0.2913 -0.0382
  805SOL    HW112749   7.753   0.863   2.531  0.8946 -1.2319 -0.5684
  805SOL    HW212750   7.882   0.961   2.515 -0.9756  1.4230  0.1479
  806SOL     OW12751   1.584   1.415   1.138  0.2595 -0.4296 -0.7470
  806SOL    HW112752   1.550   1.413   1.232  1.9485  0.1086 -0.1126
  806SOL    HW212753   1.605   1.322   1.108 -0.4539 -0.6204 -0.6764
  807SOL     OW12754   9.747   0.203   2.129 -0.2429  0.0756  0.8235
  807SOL    HW112755   9.828   0.222   2.185  0.1246  0.1131  0.2781
  807SOL    HW212756   9.742   0.105   2.111  0.3953  0.2267 -0.2237
  808SOL     OW12757   3.681   8.266   0.781 -0.1899  0.1156  0.2310
  808SOL    HW112758   3.650   8.172   0.795  0.5070 -0.2373 -0.5787
  808SOL    HW212759   3.603   8.324   0.757 -0.6462 -0.2170  0.9195
  809SOL     OW12760   4.732   9.472   3.950  0.4279 -0.3215 -0.1625
  809SOL    HW112761   4.719   9.557   3.900 -1.8091 -1.1612 -1.0885
  809SOL    HW212762   4.719   9.488   4.048 -1.0376  0.2209 -0.4276
  810SOL     OW12763   1.303   7.711   0.607 -0.2759  0.5848 -0.1770
  810SOL    HW112764   1.285   7.799   0.562 -1.2547  0.8939  0.7891
  810SOL    HW212765   1.281   7.718   0.704  0.2662 -0.5500  0.0413
  811SOL     OW12766   0.414   8.100   0.122  0.0243 -0.3557  0.3880
  811SOL    HW112767   0.372   8.026   0.175 -3.8445  0.7493 -1.0008
  811SOL    HW212768   0.407   8.186   0.173  0.9045 -0.1878  0.2494
  812SOL     OW12769   1.047   8.465   1.087  0.0039 -0.3029 -0.7002
  812SOL    HW112770   1.104   8.417   1.020 -0.3650 -1.0533 -0.4868
  812SOL    HW212771   1.045   8.413   1.173 -1.0417 -0.3257 -0.7212
  813SOL     OW12772   2.454   4.863   0.277  0.0125 -0.1295 -0.5844
  813SOL    HW112773   2.470   4.871   0.375 -3.3866 -0.3971  0.0691
  813SOL    HW212774   2.461   4.767   0.249 -1.4260 -0.3970 -0.0894
  814SOL     OW12775   2.119   4.116   2.730 -0.7122 -0.7428 -0.1727
  814SOL    HW112776   2.147   4.208   2.757  0.1450 -1.4829  1.5688
  814SOL    HW212777   2.178   4.083   2.657  2.5381 -1.9301  2.8439
  815SOL     OW12778   4.159   0.449   0.872 -0.5879  0.0607 -0.3082
  815SOL    HW112779   4.077   0.479   0.920 -0.3196 -0.0504  0.2236
  815SOL    HW212780   4.168   0.500   0.786 -2.6781 -1.8691 -1.7029
  816SOL     OW12781   3.927   7.530   1.979 -0.0266 -0.2765  0.2433
  816SOL    HW112782   3.914   7.446   2.031 -1.1140 -0.6651 -0.6441
  816SOL    HW212783   3.903   7.514   1.883 -1.7884  1.4523  0.3677
  817SOL     OW12784   2.072   1.535   1.669  0.2942  0.0135  0.5197
  817SOL    HW112785   2.043   1.442   1.646  0.7842  0.0352 -0.2014
  817SOL    HW212786   2.063   1.593   1.588  2.7079 -0.0620  0.1628
  818SOL     OW12787   0.292   0.101   3.378 -0.5385 -0.0124  0.0333
  818SOL    HW112788   0.287   0.012   3.423  0.1400 -0.2144 -0.2818
  818SOL    HW212789   0.209   0.153   3.397 -0.6770 -0.4771  0.7149
  819SOL     OW12790   0.205   1.912   2.863  0.2478  0.2758 -0.0271
  819SOL    HW112791   0.282   1.909   2.927  0.8875 -0.1830 -0.8103
  819SOL    HW212792   0.237   1.886   2.772 -0.9911 -0.6969 -0.1948
  820SOL     OW12793   3.573   4.915   2.288 -0.1078 -0.0854 -0.0441
  820SOL    HW112794   3.561   4.849   2.362  0.2100  0.8083  0.8141
  820SOL    HW212795   3.498   4.907   2.223 -0.3163 -0.9722  0.3086
  821SOL     OW12796   9.855   1.625   3.393  0.0607 -0.1427  0.2372
  821SOL    HW112797   9.773   1.624   3.451 -0.5986 -1.5034 -0.7078
  821SOL    HW212798   9.833   1.586   3.304  1.5507  0.2301 -0.3003
  822SOL     OW12799   8.512   2.578   0.373 -0.0484 -0.5391  0.4680
  822SOL    HW112800   8.488   2.495   0.422 -0.3406 -2.6334 -3.0276
  822SOL    HW212801   8.464   2.580   0.285 -0.3112  3.5114  0.5908
  823SOL     OW12802   1.833   6.896   0.546 -0.3670 -0.4036  0.0563
  823SOL    HW112803   1.783   6.884   0.460  0.4852 -0.7493 -0.4002
  823SOL    HW212804   1.840   6.808   0.593  1.5450 -0.7829 -0.8682
  824SOL     OW12805   1.429   9.105   0.255 -0.0978 -0.1738 -0.3314
  824SOL    HW112806   1.392   9.169   0.187 -2.3296  0.5483  1.4926
  824SOL    HW212807   1.369   9.026   0.263 -0.4203  0.2272  1.5034
  825SOL     OW12808   0.354   7.795   2.298 -0.2689  0.6392  0.0825
  825SOL    HW112809   0.258   7.817   2.312  0.1109  1.9365  0.7886
  825SOL    HW212810   0.409   7.879   2.308  0.9698 -0.1691  0.1688
  826SOL     OW12811   4.787   7.675   2.845 -0.1402  0.3667 -0.0618
  826SOL    HW112812   4.750   7.621   2.770 -1.7205 -0.1905  1.0928
  826SOL    HW212813   4.731   7.757   2.858 -0.3043  0.0985  0.9567
  827SOL     OW12814   0.953   7.121   0.670  0.4873  0.0580 -0.0036
  827SOL    HW112815   0.960   7.066   0.587 -0.4944 -2.4145  1.4920
  827SOL    HW212816   1.043   7.128   0.713  0.8372  0.6534 -0.8097
  828SOL     OW12817   4.775   0.948   1.597 -0.0144  0.0552 -0.3031
  828SOL    HW112818   4.835   0.986   1.526 -0.5859  0.4024 -0.6091
  828SOL    HW212819   4.710   0.885   1.554 -0.2971  0.1922 -0.0749
  829SOL     OW12820   9.433   1.895   3.638 -0.5773 -0.2082  0.2332
  829SOL    HW112821   9.525   1.858   3.652 -0.9032 -0.9794  0.3675
  829SOL    HW212822   9.382   1.891   3.723 -1.6801 -2.4480 -0.4902
  830SOL     OW12823   3.983   4.162   0.669  0.2866 -0.7827 -0.0740
  830SOL    HW112824   3.968   4.255   0.701 -1.2154 -0.6959 -0.9993
  830SOL    HW212825   3.917   4.100   0.713 -1.1559 -0.8144 -2.2053
  831SOL     OW12826   9.290   0.139   1.067 -0.1085  0.7504  0.2791
  831SOL    HW112827   9.349   0.148   0.986 -0.8437 -0.0333 -0.3528
  831SOL    HW212828   9.201   0.180   1.048  0.1436  1.7040  1.1458
  832SOL     OW12829   8.328   8.913   0.498 -0.2805 -0.1105 -0.1967
  832SOL    HW112830   8.267   8.869   0.565 -0.0020  0.4915  0.4497
  832SOL    HW212831   8.410   8.946   0.544  0.7320 -1.2791 -1.1365
  833SOL     OW12832   8.296   9.177   0.094 -0.2756 -0.4349 -0.5914
  833SOL    HW112833   8.281   9.193  -0.004  0.9230  0.1517 -0.6867
  833SOL    HW212834   8.364   9.242   0.128 -1.2689 -0.1090  0.8096
  834SOL     OW12835   9.354   9.784   1.776 -0.3879  0.2766  0.7067
  834SOL    HW112836   9.401   9.852   1.721 -1.3036  1.1224  0.9494
  834SOL    HW212837   9.259   9.775   1.744  0.2221 -2.2364 -0.5382
  835SOL     OW12838   1.762   1.881   0.522 -0.0760 -0.3674  0.2844
  835SOL    HW112839   1.782   1.784   0.538 -1.1515 -0.9046 -1.4586
  835SOL    HW212840   1.689   1.910   0.585  0.8115 -0.4615  1.3645
  836SOL     OW12841   1.751   6.579   0.219  0.1642  0.3127 -0.1675
  836SOL    HW112842   1.728   6.672   0.245  0.2490  0.2405  0.1725
  836SOL    HW212843   1.744   6.519   0.299  0.3212  0.0670 -0.3343
  837SOL     OW12844   9.543   9.966   1.668 -0.0427  0.5113  0.2053
  837SOL    HW112845   9.582  10.051   1.702  1.8541 -0.5171  0.6864
  837SOL    HW212846   9.576   9.949   1.575 -2.9687  1.8824 -1.1648
  838SOL     OW12847   2.944   1.306   1.738 -0.0702  0.1322  0.2462
  838SOL    HW112848   2.993   1.380   1.785  0.3097  0.0400 -0.0052
  838SOL    HW212849   2.854   1.295   1.779  0.1116  0.3170  0.6973
  839SOL     OW12850   9.497   1.264   3.411 -0.0532 -0.1917  0.7517
  839SOL    HW112851   9.487   1.358   3.379 -0.1992  0.0081  1.3816
  839SOL    HW212852   9.442   1.203   3.354  0.8758 -0.0303 -0.3147
  840SOL     OW12853   1.944   2.644   2.261 -0.1447  0.7437 -0.2730
  840SOL    HW112854   1.894   2.583   2.322  2.2342  0.4054  1.3987
  840SOL    HW212855   1.933   2.738   2.291 -0.4815  0.7623 -0.4457
  841SOL     OW12856   9.176   8.218   1.011  0.2871 -0.0946 -0.3697
  841SOL    HW112857   9.078   8.217   1.032  0.1292  1.6050 -0.9964
  841SOL    HW212858   9.226   8.174   1.086 -0.7155  1.5002  1.2842
  842SOL     OW12859   1.937   1.129   3.540  0.0945  0.4827  0.5470
  842SOL    HW112860   1.864   1.106   3.475  2.2122 -1.0895 -1.3478
  842SOL    HW212861   1.964   1.048   3.591  0.7477  0.9842  1.0178
  843SOL     OW12862   2.052   9.183   0.024 -0.2958  0.1244 -0.3744
  843SOL    HW112863   2.150   9.168   0.039  0.0536 -0.4208 -3.0284
  843SOL    HW212864   2.024   9.267   0.071  0.9730 -0.8002  2.1420
  844SOL     OW12865   7.801   9.933   0.273  0.2729  0.0226  0.1136
  844SOL    HW112866   7.721   9.945   0.214 -0.9452  2.4379  2.1603
  844SOL    HW212867   7.772   9.893   0.360  1.7116 -1.3518 -0.0106
  845SOL     OW12868   3.907   9.709   0.333  0.5896  0.0663 -0.1319
  845SOL    HW112869   3.932   9.712   0.236 -1.6173 -1.7279 -0.7945
  845SOL    HW212870   3.885   9.802   0.365  1.3002  0.6589 -1.3481
  846SOL     OW12871   3.165   3.705   1.668 -0.6549  0.0604  0.2791
  846SOL    HW112872   3.250   3.653   1.659  0.2765  1.2777  1.6744
  846SOL    HW212873   3.178   3.797   1.630 -1.2754  0.3162  0.6853
  847SOL     OW12874   8.084   9.569   0.461  0.4528 -0.0216  0.6376
  847SOL    HW112875   8.016   9.624   0.413  1.4344 -0.8113 -1.7165
  847SOL    HW212876   8.171   9.572   0.412  0.8845 -2.6614  1.1341
  848SOL     OW12877   1.076   1.404   1.990  0.3808 -0.1585 -0.7200
  848SOL    HW112878   1.042   1.320   2.032  0.7169  0.2011  0.2738
  848SOL    HW212879   1.031   1.483   2.031  0.9991  0.2181 -0.7629
  849SOL     OW12880   2.212   3.297   2.552 -0.2941 -0.2609  0.6997
  849SOL    HW112881   2.130   3.325   2.602 -0.1885  0.7172  0.3383
  849SOL    HW212882   2.277   3.255   2.616 -0.3396  0.5901  1.3137
  850SOL     OW12883   8.812   3.542   0.692 -0.1245 -0.0198 -0.3235
  850SOL    HW112884   8.909   3.527   0.709 -0.3127  0.4227  1.2071
  850SOL    HW212885   8.769   3.580   0.774 -1.3413  0.9251 -1.3780
  851SOL     OW12886   2.929   9.071   1.664  0.0200  0.0135  0.5906
  851SOL    HW112887   2.948   9.029   1.575 -0.2769  1.2839 -0.0688
  851SOL    HW212888   2.951   9.005   1.736  1.0630 -0.7290 -0.3858
  852SOL     OW12889   1.459   0.588   0.975  0.0482  0.6791 -0.2213
  852SOL    HW112890   1.443   0.528   1.053  0.3430  0.2316 -0.4998
  852SOL    HW212891   1.390   0.572   0.905  1.4128 -0.9312 -1.2323
  853SOL     OW12892   9.247   9.799   1.337 -0.1822 -0.0414 -0.1897
  853SOL    HW112893   9.241   9.880   1.278  0.8415  0.1516 -0.0447
  853SOL    HW212894   9.287   9.825   1.425  0.9862 -0.8595 -0.4595
  854SOL     OW12895   3.341   9.692   1.249  0.0646  0.2527 -0.0640
  854SOL    HW112896   3.325   9.619   1.316  0.9550 -1.7859 -1.9844
  854SOL    HW212897   3.435   9.687   1.217 -0.0800  1.8171 -0.7569
  855SOL     OW12898   8.145   4.434   1.119 -0.0573 -0.2648 -0.8563
  855SOL    HW112899   8.113   4.349   1.162 -2.1911 -0.3068 -2.4286
  855SOL    HW212900   8.090   4.511   1.152  2.5859  0.7381  1.4044
  856SOL     OW12901   0.023   0.639   1.094  0.2786  0.6191 -0.4822
  856SOL    HW112902  -0.014   0.639   1.188 -2.6855  0.3904 -1.5922
  856SOL    HW212903   0.041   0.732   1.065  2.9425  0.5992  0.9105
  857SOL     OW12904   0.486   1.779   1.607 -0.0513 -0.2599 -0.1623
  857SOL    HW112905   0.425   1.791   1.529  1.3385  0.1425 -1.2105
  857SOL    HW212906   0.533   1.865   1.627  2.0475 -1.1810 -0.9775
  858SOL     OW12907   9.269   9.342   1.113 -0.3154 -0.0308 -0.1219
  858SOL    HW112908   9.269   9.303   1.205  0.0648  1.7013  0.6317
  858SOL    HW212909   9.243   9.272   1.047  0.6385 -1.6303  1.1602
  859SOL     OW12910   2.963   7.282   3.837  0.0107 -0.5317 -0.0870
  859SOL    HW112911   2.968   7.380   3.819 -0.9209 -0.7455 -1.6534
  859SOL    HW212912   2.903   7.266   3.916 -1.7175  0.0404 -1.2515
  860SOL     OW12913   1.962   4.621   2.538  0.1886 -0.0572 -0.1032
  860SOL    HW112914   1.933   4.575   2.454  2.2112 -0.1840 -0.7529
  860SOL    HW212915   1.883   4.631   2.599 -0.6217 -2.9529 -0.5964
  861SOL     OW12916   0.009   3.164   1.470 -0.1188 -0.9382  0.0217
  861SOL    HW112917   0.023   3.065   1.466 -1.8897 -1.2077 -0.1847
  861SOL    HW212918   0.024   3.204   1.380  0.9410 -0.9574  0.1830
  862SOL     OW12919   3.332   8.450   3.130  0.1796 -0.3874 -0.1048
  862SOL    HW112920   3.257   8.503   3.170  0.5774 -0.6645  1.0481
  862SOL    HW212921   3.414   8.506   3.124  0.0661 -0.2868 -0.7300
  863SOL     OW12922   1.343   2.418   0.641  0.8607  0.0269 -0.0301
  863SOL    HW112923   1.383   2.506   0.619 -0.1480  0.5483  0.1886
  863SOL    HW212924   1.260   2.404   0.586  0.4956 -0.3699  0.6059
  864SOL     OW12925   2.391   8.995   3.292  0.8409  0.1223  0.0086
  864SOL    HW112926   2.448   9.077   3.279 -1.5564  1.3979 -2.9722
  864SOL    HW212927   2.305   9.022   3.335 -0.2255 -0.7189 -1.5722
  865SOL     OW12928   2.405   8.797   3.746  0.2878 -0.3157 -0.0759
  865SOL    HW112929   2.460   8.781   3.828 -0.3961  0.4643  0.5492
  865SOL    HW212930   2.465   8.817   3.669  0.9267 -0.7519  0.3011
  866SOL     OW12931   1.312   0.927   2.063  0.1074  0.0320  0.2010
  866SOL    HW112932   1.397   0.920   2.116 -0.4688 -0.1019  1.1164
  866SOL    HW212933   1.242   0.870   2.105 -1.1598  2.0298  0.8495
  867SOL     OW12934   2.791   2.625   0.511 -0.1647  0.0225 -0.0616
  867SOL    HW112935   2.889   2.609   0.502 -0.1864 -0.4398  0.5141
  867SOL    HW212936   2.741   2.563   0.451 -0.1603 -0.6031  0.5875
  868SOL     OW12937   1.461   4.606   3.740 -0.6719  0.5254 -0.0097
  868SOL    HW112938   1.528   4.599   3.665 -0.2381 -0.5987  0.4715
  868SOL    HW212939   1.456   4.701   3.770 -0.9178  1.0067 -1.5256
  869SOL     OW12940   8.995   8.217   0.274  0.5785  0.4966  0.1678
  869SOL    HW112941   8.994   8.228   0.373 -0.3494  0.8906  0.1161
  869SOL    HW212942   9.001   8.119   0.251 -0.4691  0.3270  0.6094
  870SOL     OW12943   7.882   3.872   0.896  0.6238  0.5531  0.0221
  870SOL    HW112944   7.805   3.927   0.864 -0.5732 -1.3465 -0.4383
  870SOL    HW212945   7.915   3.908   0.984  0.0230  2.1203 -0.3787
  871SOL     OW12946   5.196   7.782   2.586 -0.2472 -0.5052 -0.0098
  871SOL    HW112947   5.224   7.730   2.505 -2.4406 -2.7104  0.5628
  871SOL    HW212948   5.108   7.825   2.568 -0.8693 -1.2193  1.2535
  872SOL     OW12949   4.287   2.663   0.568  0.7169 -0.3162 -0.4997
  872SOL    HW112950   4.208   2.617   0.527  0.7938 -0.0932 -0.8976
  872SOL    HW212951   4.355   2.682   0.498  0.1113  1.6015 -0.5766
  873SOL     OW12952   2.079   3.986   3.136  0.6628  0.1601 -0.0859
  873SOL    HW112953   2.123   3.996   3.225  1.5553  0.6416 -0.5683
  873SOL    HW212954   1.999   3.928   3.144 -0.6056  2.0637  1.5010
  874SOL     OW12955   1.066   7.625   1.920  0.8878  0.1405  0.2622
  874SOL    HW112956   1.152   7.642   1.872  0.7134  1.0555  0.2540
  874SOL    HW212957   0.996   7.686   1.883  0.2213 -0.6248  0.2397
  875SOL     OW12958   1.957   0.637   4.017 -0.2141 -0.1267 -0.0272
  875SOL    HW112959   1.888   0.709   4.015  0.3808  0.4701  0.6099
  875SOL    HW212960   2.034   0.662   3.958 -0.4134 -0.6676 -0.5264
  876SOL     OW12961   2.488   5.041   0.785  0.3161 -0.2401 -0.6222
  876SOL    HW112962   2.500   4.964   0.848 -1.9146 -0.4043 -0.3713
  876SOL    HW212963   2.476   5.006   0.692  0.6672 -0.1158 -0.7173
  877SOL     OW12964   4.527   9.917   3.438  0.2050  0.0594 -0.1701
  877SOL    HW112965   4.520   9.916   3.338 -1.0824 -1.2885 -0.0860
  877SOL    HW212966   4.470   9.990   3.475  0.2495  0.2050 -0.3916
  878SOL     OW12967   3.333   1.966   2.438 -0.0535 -0.7560  0.4399
  878SOL    HW112968   3.331   1.880   2.489  1.2299 -0.1275  1.6048
  878SOL    HW212969   3.316   2.042   2.502 -1.9988 -0.1936 -0.7100
  879SOL     OW12970   6.737   9.764   3.416 -0.4208 -0.3175 -0.2727
  879SOL    HW112971   6.779   9.729   3.332  0.3256 -2.4988  0.9725
  879SOL    HW212972   6.638   9.771   3.403 -0.2837 -0.3497 -1.4164
  880SOL     OW12973   0.781   9.886   3.039  0.6753 -0.4773  0.2064
  880SOL    HW112974   0.774   9.946   3.119 -2.4315 -1.8149  1.0065
  880SOL    HW212975   0.711   9.911   2.972 -0.1741 -2.6948  0.2335
  881SOL     OW12976   1.516   6.152   2.655  0.3899  0.3712 -0.1668
  881SOL    HW112977   1.458   6.072   2.646  0.9616 -0.1788  0.9112
  881SOL    HW212978   1.595   6.143   2.594  0.6772 -0.1070  0.2626
  882SOL     OW12979   2.543   5.666   0.062 -0.6228 -0.1231  0.2866
  882SOL    HW112980   2.516   5.614   0.143  1.1139 -2.3883 -0.5559
  882SOL    HW212981   2.607   5.738   0.088  0.7979 -1.5572  0.7776
  883SOL     OW12982   1.343   1.617   0.479  0.1921 -0.5066  0.0588
  883SOL    HW112983   1.359   1.543   0.413 -1.5878  0.8191 -1.9397
  883SOL    HW212984   1.337   1.704   0.429  1.1314  0.8441  2.2510
  884SOL     OW12985   2.779   3.893   3.976  0.1880  0.0837 -0.0915
  884SOL    HW112986   2.857   3.889   4.038  0.8639  0.8431 -0.8815
  884SOL    HW212987   2.812   3.899   3.881 -0.7974 -2.7559 -0.6826
  885SOL     OW12988   2.159   2.830   1.441 -0.5095 -0.0312 -0.3979
  885SOL    HW112989   2.134   2.741   1.403 -0.4664 -0.1141 -0.2327
  885SOL    HW212990   2.230   2.872   1.384  0.8510 -0.9512  0.5911
  886SOL     OW12991   0.484   9.505   0.678 -0.2276  0.9107  0.1966
  886SOL    HW112992   0.493   9.543   0.770 -0.9684  3.4883 -0.7630
  886SOL    HW212993   0.557   9.541   0.620 -0.0532 -0.3218 -0.3515
  887SOL     OW12994   7.663   0.135   3.061  0.0987  0.2620  0.5202
  887SOL    HW112995   7.715   0.160   2.979 -0.9610  3.2377  0.6844
  887SOL    HW212996   7.661   0.036   3.071  2.0362 -0.0550 -1.8830
  888SOL     OW12997   8.559   8.915   2.377 -0.3033  0.2688  0.0609
  888SOL    HW112998   8.524   8.855   2.306  0.3314 -0.2710  0.2053
  888SOL    HW212999   8.643   8.959   2.345  2.3813 -3.2296  2.0363
  889SOL     OW13000   1.013   3.268   1.799 -0.5928  0.0772 -0.5516
  889SOL    HW113001   0.959   3.193   1.839  2.3576 -0.5896  2.3919
  889SOL    HW213002   1.102   3.233   1.771  0.7362  2.4478  0.6356
  890SOL     OW13003   3.183   7.952   1.868 -0.0528  0.3135  0.9570
  890SOL    HW113004   3.224   7.933   1.957 -1.1135 -1.2190  1.1407
  890SOL    HW213005   3.128   8.036   1.875  1.3262  1.2111  1.2516
  891SOL     OW13006   3.525   1.380   0.831  0.1686  0.7175 -0.1073
  891SOL    HW113007   3.521   1.283   0.809 -0.5428  0.2677  1.8851
  891SOL    HW213008   3.433   1.420   0.819  0.0276  0.7106  0.9417
  892SOL     OW13009   7.866   1.706   3.485 -0.0410  0.6869 -0.6375
  892SOL    HW113010   7.847   1.659   3.399 -1.6023  0.1409  0.0031
  892SOL    HW213011   7.851   1.804   3.473 -1.4360  0.4794 -0.6639
  893SOL     OW13012   6.562   9.751   1.633 -1.0249 -0.9383  0.2826
  893SOL    HW113013   6.566   9.652   1.623 -1.1863 -0.8057 -1.2488
  893SOL    HW213014   6.613   9.794   1.559 -1.6583  0.1358  0.4561
  894SOL     OW13015   2.322   2.433   2.223  0.5259  0.4357 -0.3743
  894SOL    HW113016   2.374   2.392   2.148  1.1760 -0.2049  0.4128
  894SOL    HW213017   2.343   2.530   2.229  1.2316  0.2878 -0.3938
  895SOL     OW13018   8.444   8.734   2.551 -0.3167 -0.2058 -0.3700
  895SOL    HW113019   8.358   8.689   2.530 -1.8631  2.5651 -0.1568
  895SOL    HW213020   8.488   8.765   2.466 -0.9128  0.8371 -0.3031
  896SOL     OW13021   4.107   3.525   1.188  0.1006  0.1078 -0.0541
  896SOL    HW113022   4.191   3.567   1.223 -0.7343  1.0084  0.9068
  896SOL    HW213023   4.032   3.545   1.250 -0.8240 -0.7126 -0.9009
  897SOL     OW13024   7.219   0.039   3.480  0.6321 -0.2504  0.3878
  897SOL    HW113025   7.254   0.119   3.529 -2.0450 -0.0531  2.0751
  897SOL    HW213026   7.119   0.042   3.479  0.5578 -2.4440 -1.4780
  898SOL     OW13027   9.019   4.417   0.972  0.3527  0.3604  0.3131
  898SOL    HW113028   8.978   4.372   1.051  1.1990  1.3224  1.3089
  898SOL    HW213029   8.977   4.507   0.959 -0.5943 -0.2598 -1.0367
  899SOL     OW13030   0.980   7.774   2.726  0.0720 -0.0105  0.0517
  899SOL    HW113031   0.913   7.802   2.795  0.7474  0.5242  0.5048
  899SOL    HW213032   0.934   7.757   2.639 -0.2251  4.2614 -0.7549
  900SOL     OW13033   3.354   7.955   3.573  0.1459  0.1268 -0.2156
  900SOL    HW113034   3.388   8.047   3.553 -1.6760  0.4925 -1.7609
  900SOL    HW213035   3.258   7.949   3.547 -0.0714 -1.8919  0.9447
  901SOL     OW13036   2.356   4.617   1.841 -0.0296 -0.5357 -0.7125
  901SOL    HW113037   2.260   4.602   1.816 -0.3374 -1.2754  0.8545
  901SOL    HW213038   2.368   4.600   1.939  1.4972  0.5689 -0.6945
  902SOL     OW13039   8.566   7.772   1.126  0.1604  0.0486  0.3996
  902SOL    HW113040   8.629   7.789   1.202  0.2413  2.7575 -0.1936
  902SOL    HW213041   8.478   7.740   1.161  1.2374 -1.9424  1.3686
  903SOL     OW13042   4.304   3.279   3.781  0.1895 -0.2146 -0.2491
  903SOL    HW113043   4.277   3.327   3.698  1.1719 -0.8307 -0.9375
  903SOL    HW213044   4.389   3.318   3.816  0.0197 -0.2543  0.2123
  904SOL     OW13045   1.266   9.071   4.036  0.3554 -0.3374  0.3241
  904SOL    HW113046   1.198   9.012   4.078  0.8532 -1.3418 -0.2556
  904SOL    HW213047   1.223   9.127   3.965  0.2644 -1.4851 -0.5341
  905SOL     OW13048   2.481   9.921   2.068 -0.0562  0.2311 -0.1902
  905SOL    HW113049   2.419   9.846   2.048 -0.8384  0.8317 -0.0539
  905SOL    HW213050   2.438   9.984   2.133  0.4188  1.0076 -0.6116
  906SOL     OW13051   2.851   8.289   3.886  0.3371  0.2667 -0.7437
  906SOL    HW113052   2.882   8.215   3.945  0.6988 -0.6728 -2.0727
  906SOL    HW213053   2.825   8.369   3.941  1.2619 -0.3667  0.6083
  907SOL     OW13054   0.079   8.473   0.579 -0.5676 -0.0424 -0.3554
  907SOL    HW113055   0.116   8.495   0.489 -1.2291  0.2106 -0.5637
  907SOL    HW213056   0.010   8.401   0.571  0.1580 -0.8006  0.0871
  908SOL     OW13057   1.690   4.044   2.242 -0.0719 -0.0635 -0.3938
  908SOL    HW113058   1.732   4.115   2.186 -0.3517  0.5032  0.1065
  908SOL    HW213059   1.655   3.971   2.183 -3.5680  2.1878 -1.2583
  909SOL     OW13060   0.847   8.572   3.083 -0.1867  0.3246  0.1261
  909SOL    HW113061   0.864   8.475   3.071 -0.4679  0.2762  0.1062
  909SOL    HW213062   0.839   8.615   2.993  0.2921  0.4322  0.1335
  910SOL     OW13063   0.215   2.516   2.252  0.8298  0.1377 -0.5538
  910SOL    HW113064   0.313   2.514   2.272  1.0305  0.2885 -1.5028
  910SOL    HW213065   0.191   2.602   2.208 -0.0171  0.7434  1.0621
  911SOL     OW13066   1.855   3.169   0.041 -0.2282  0.3057 -0.0852
  911SOL    HW113067   1.898   3.217   0.118 -2.4311  0.2295  1.2293
  911SOL    HW213068   1.769   3.216   0.017 -0.7157 -1.0290 -0.9755
  912SOL     OW13069   0.099   1.529   1.489 -0.1072 -0.2997  0.1016
  912SOL    HW113070   0.092   1.442   1.538 -1.2704 -0.5136 -0.4240
  912SOL    HW213071   0.053   1.521   1.401 -0.3535  0.8954  0.1163
  913SOL     OW13072   2.796   4.411   0.818 -0.1899 -0.1401  0.4613
  913SOL    HW113073   2.742   4.479   0.767  1.0183  0.1694 -0.4164
  913SOL    HW213074   2.890   4.441   0.825 -0.3290 -0.2157  2.8863
  914SOL     OW13075   2.738   2.720   1.803 -0.5513 -0.2721  0.3077
  914SOL    HW113076   2.767   2.633   1.764 -1.3695 -1.3080  1.9366
  914SOL    HW213077   2.648   2.745   1.765  0.8865  1.2654 -2.2140
  915SOL     OW13078   0.974   2.901   1.688  0.0849  0.1183 -0.0253
  915SOL    HW113079   1.024   2.849   1.757 -2.2836  0.6984  2.2064
  915SOL    HW213080   0.929   2.837   1.625  1.6533 -0.4215 -0.6222
  916SOL     OW13081   0.720   3.404   3.816  0.2361 -0.0626 -0.2088
  916SOL    HW113082   0.724   3.352   3.901  0.0629  0.8048  0.3398
  916SOL    HW213083   0.752   3.497   3.833  1.4731 -0.2621 -1.3896
  917SOL     OW13084   7.829   0.228   2.774  0.2242 -0.2574  0.4158
  917SOL    HW113085   7.907   0.285   2.798  0.2885 -0.4277  0.6159
  917SOL    HW213086   7.861   0.137   2.746  0.0435 -0.6779  1.5480
  918SOL     OW13087   4.397   7.444   0.943  0.3121 -0.7734 -0.2415
  918SOL    HW113088   4.412   7.436   0.844  1.7270  0.9153 -0.1740
  918SOL    HW213089   4.479   7.415   0.992  0.0081 -0.5460  0.4104
  919SOL     OW13090   9.214   3.334   1.346 -0.4441 -0.5494 -0.0879
  919SOL    HW113091   9.166   3.378   1.270 -0.2743 -1.3357 -0.6614
  919SOL    HW213092   9.304   3.304   1.315 -0.1801 -0.4407  0.5612
  920SOL     OW13093   2.183   0.628   1.628  0.7386  0.8103 -0.0645
  920SOL    HW113094   2.182   0.648   1.725 -2.3355  1.6009 -0.1947
  920SOL    HW213095   2.093   0.648   1.589  1.6109 -0.4335 -2.8717
  921SOL     OW13096   1.147   9.787   2.176 -0.7988 -0.0195  0.2252
  921SOL    HW113097   1.173   9.692   2.190  0.3658  0.6416  3.0175
  921SOL    HW213098   1.050   9.799   2.197 -0.9687 -0.5959 -0.2222
  922SOL     OW13099   8.991   3.374   1.688  0.3288 -0.1553  0.3761
  922SOL    HW113100   8.928   3.358   1.612  1.1338  1.4443 -0.6351
  922SOL    HW213101   9.056   3.298   1.693  0.8101  0.1502 -1.0769
  923SOL     OW13102   2.671   1.569   2.529  0.1576 -0.6738  0.5158
  923SOL    HW113103   2.718   1.550   2.442  0.4208  1.6715  0.1083
  923SOL    HW213104   2.729   1.628   2.585 -1.0400 -0.1975  1.2622
  924SOL     OW13105   0.930   8.895   3.810 -0.0669  0.4669  0.5590
  924SOL    HW113106   1.010   8.907   3.752  0.5301 -1.1949  1.0158
  924SOL    HW213107   0.853   8.863   3.755 -0.5865  2.5515  0.0283
  925SOL     OW13108   2.585   5.322   1.876  0.2298 -0.3051 -0.5208
  925SOL    HW113109   2.504   5.312   1.819 -0.5390 -1.5528  0.7554
  925SOL    HW213110   2.665   5.286   1.828 -0.2080 -0.3234 -1.2369
  926SOL     OW13111   4.175   9.199   3.941 -0.2891 -0.1358  0.2956
  926SOL    HW113112   4.121   9.223   3.861  0.1557  2.5726  0.7653
  926SOL    HW213113   4.151   9.260   4.017  1.5344 -0.6225  1.2976
  927SOL     OW13114   3.034   7.040   3.168 -0.0965  0.0833 -0.2107
  927SOL    HW113115   2.952   6.982   3.169  0.3858 -0.6552 -1.7966
  927SOL    HW213116   3.068   7.052   3.261 -0.8997 -1.1913  0.2532
  928SOL     OW13117   0.633   4.193   1.476  0.0894 -0.3406  0.1057
  928SOL    HW113118   0.550   4.210   1.529 -0.0305  3.1527 -1.0999
  928SOL    HW213119   0.608   4.159   1.385  0.1010 -1.2218  0.4208
  929SOL     OW13120   2.158   9.374   1.588  0.6464  0.2269  0.7944
  929SOL    HW113121   2.149   9.439   1.513  2.8355  0.8070  0.9996
  929SOL    HW213122   2.068   9.360   1.631 -0.7608 -0.6660 -2.3364
  930SOL     OW13123   6.951   0.190   2.887 -0.1227  0.0287 -1.2102
  930SOL    HW113124   6.900   0.228   2.810 -1.3635  2.6047  0.7932
  930SOL    HW213125   6.906   0.217   2.973  2.0761 -1.4850  0.4617
  931SOL     OW13126   3.258   7.553   2.429  0.0793  0.0059 -0.1755
  931SOL    HW113127   3.168   7.572   2.391  0.4251 -1.1965 -1.6289
  931SOL    HW213128   3.315   7.634   2.422 -0.3298  0.2406 -0.8601
  932SOL     OW13129   1.034   2.471   2.547 -0.7179 -0.0490 -0.1284
  932SOL    HW113130   1.101   2.516   2.487  0.6784 -0.2859  1.2256
  932SOL    HW213131   0.942   2.495   2.517 -0.0593  4.4087  0.9936
  933SOL     OW13132   0.832   1.310   0.720  0.5722 -0.4557 -0.3001
  933SOL    HW113133   0.842   1.221   0.673 -2.2857 -1.2798  0.5464
  933SOL    HW213134   0.876   1.305   0.810 -0.0896 -1.2168 -0.0121
  934SOL     OW13135   1.614   7.641   3.725  0.2087  0.3463 -0.2246
  934SOL    HW113136   1.662   7.700   3.659 -0.5995 -0.4107 -1.5017
  934SOL    HW213137   1.574   7.563   3.677 -1.4821  0.4552  0.9904
  935SOL     OW13138   1.413   2.982   3.949 -0.2675 -0.9615 -0.4434
  935SOL    HW113139   1.482   2.929   3.901  0.8945  1.2498 -1.2730
  935SOL    HW213140   1.340   3.007   3.885 -0.1964 -0.5070 -0.3460
  936SOL     OW13141   1.630   6.149   0.365  0.0253  0.3459  0.7560
  936SOL    HW113142   1.671   6.079   0.424 -0.5248 -1.9116 -1.4453
  936SOL    HW213143   1.532   6.154   0.381 -0.2130 -0.6721 -0.3435
  937SOL     OW13144   1.865   1.975   0.287  0.4146  0.0975  0.0149
  937SOL    HW113145   1.807   1.930   0.355  1.0491 -2.2977 -0.9881
  937SOL    HW213146   1.840   1.943   0.196  1.4209  1.2121 -0.6659
  938SOL     OW13147   2.209   4.809   3.288 -0.1921  0.2820  0.2359
  938SOL    HW113148   2.202   4.848   3.196  1.0654  0.7965  0.3483
  938SOL    HW213149   2.216   4.709   3.281 -0.6490  0.2746 -0.1886
  939SOL     OW13150   4.843   8.521   3.377 -0.2107 -0.2025  0.1214
  939SOL    HW113151   4.911   8.454   3.347 -0.2553 -0.6528  0.9948
  939SOL    HW213152   4.752   8.493   3.345 -0.3011 -0.8434  0.9216
  940SOL     OW13153   7.833   4.480   1.067 -0.1239 -0.1425 -0.2350
  940SOL    HW113154   7.836   4.550   0.996  0.3506 -0.9248 -1.0023
  940SOL    HW213155   7.839   4.523   1.157  0.6802  0.7673 -0.7108
  941SOL     OW13156   3.052   3.035   3.486 -0.8429 -0.1167 -0.5394
  941SOL    HW113157   2.964   3.075   3.511 -0.6576 -0.5406  0.8467
  941SOL    HW213158   3.068   3.047   3.388 -3.4007 -1.9087 -1.2132
  942SOL     OW13159   9.547   0.911   3.801 -0.3112 -0.6659  0.0774
  942SOL    HW113160   9.529   0.945   3.709  1.9670  0.7820  0.1259
  942SOL    HW213161   9.482   0.837   3.823 -1.2147 -0.6671 -2.4532
  943SOL     OW13162   8.757   0.113   3.834  0.2347  0.1559  0.0309
  943SOL    HW113163   8.745   0.073   3.925  1.3109 -0.4854 -0.0950
  943SOL    HW213164   8.785   0.209   3.843  1.3109 -0.1897  0.3924
  944SOL     OW13165   2.685   0.977   3.292  0.3947 -0.0964  0.5782
  944SOL    HW113166   2.632   1.053   3.329  0.6544  0.2440  0.2550
  944SOL    HW213167   2.739   1.009   3.214  1.9156 -0.1832  1.5841
  945SOL     OW13168   1.526   5.232   4.019  0.2018 -0.5886  0.3135
  945SOL    HW113169   1.543   5.150   4.074 -0.9352 -1.3097 -0.3808
  945SOL    HW213170   1.599   5.243   3.952  0.5662 -0.8129  0.6752
  946SOL     OW13171   9.746   8.504   2.057  0.2000 -0.0336 -0.4880
  946SOL    HW113172   9.667   8.547   2.013 -1.0697 -1.3066  0.5162
  946SOL    HW213173   9.718   8.467   2.146  1.7363 -1.2593 -0.5106
  947SOL     OW13174   2.395   3.048   0.886 -0.5148  0.0983  0.2233
  947SOL    HW113175   2.442   3.050   0.974  2.4573  1.3963 -1.3410
  947SOL    HW213176   2.388   3.141   0.849  1.4457 -0.7925 -2.5246
  948SOL     OW13177   2.703   3.100   0.477  0.3522 -0.1236  0.1327
  948SOL    HW113178   2.719   3.168   0.548 -1.4209  0.5675 -0.1240
  948SOL    HW213179   2.670   3.015   0.518  1.0285 -0.3175  0.2895
  949SOL     OW13180   1.219   5.288   1.838  0.2370 -0.2577 -0.0253
  949SOL    HW113181   1.128   5.316   1.809 -0.7606 -2.7094  0.6196
  949SOL    HW213182   1.227   5.189   1.834  2.2023 -0.2304  1.8545
  950SOL     OW13183   1.113   4.449   3.174  0.4757  0.0004 -0.2746
  950SOL    HW113184   1.079   4.531   3.221  0.5228 -0.4325  0.5164
  950SOL    HW213185   1.200   4.470   3.129  1.0850  0.0652  0.9145
  951SOL     OW13186   9.747   8.913   1.205 -0.3942 -0.1293  0.2335
  951SOL    HW113187   9.650   8.939   1.201 -0.2266  0.2167 -2.3810
  951SOL    HW213188   9.804   8.995   1.201  0.0321 -0.4649 -0.6757
  952SOL     OW13189   9.982   9.504   0.115  0.0850  0.5501  0.1837
  952SOL    HW113190   9.996   9.537   0.209  2.6132 -1.1983  0.4584
  952SOL    HW213191   9.975   9.404   0.115 -0.5904  0.5787 -1.4399
  953SOL     OW13192   3.550   1.534   0.392  0.0094  0.3655  0.5887
  953SOL    HW113193   3.631   1.588   0.415  1.6188 -1.2033 -1.2526
  953SOL    HW213194   3.545   1.454   0.452 -0.1624  0.4617  0.7008
  954SOL     OW13195   8.701   9.129   2.567  0.5515  0.5172 -0.6629
  954SOL    HW113196   8.616   9.109   2.517  0.5366 -0.9564 -0.0540
  954SOL    HW213197   8.769   9.165   2.503  0.3456 -0.8007 -1.6565
  955SOL     OW13198   7.969   0.350   3.648 -0.0096 -0.2584 -0.5661
  955SOL    HW113199   7.936   0.425   3.704 -1.9452 -0.1770 -1.7905
  955SOL    HW213200   8.046   0.382   3.592 -0.7806  0.7938 -1.0365
  956SOL     OW13201   1.047   0.525   2.909 -0.1087  0.1084  0.0225
  956SOL    HW113202   1.030   0.611   2.861 -1.2149  0.5384  1.1599
  956SOL    HW213203   0.973   0.461   2.889 -0.0675 -0.0450  0.3674
  957SOL     OW13204   4.323   8.794   1.852 -0.6981  0.4331 -0.5559
  957SOL    HW113205   4.278   8.708   1.827  1.0883 -1.1579  1.4972
  957SOL    HW213206   4.419   8.791   1.824  0.4631 -0.0346  3.1955
  958SOL     OW13207   1.363   3.683   0.386 -0.3086  0.1645 -0.5024
  958SOL    HW113208   1.402   3.639   0.466  1.0026 -0.2879 -1.3776
  958SOL    HW213209   1.372   3.782   0.395  0.3291  0.0938 -0.3267
  959SOL     OW13210   7.345   0.924   2.784 -0.1966  0.3433 -0.0667
  959SOL    HW113211   7.332   0.832   2.821  0.9402  0.0654 -0.3473
  959SOL    HW213212   7.360   0.918   2.685 -0.1651  0.8280 -0.0900
  960SOL     OW13213   8.788   9.907   3.246 -0.6044 -0.2540  0.3349
  960SOL    HW113214   8.723   9.914   3.321 -0.9817  0.1303 -0.0293
  960SOL    HW213215   8.798   9.995   3.200 -0.8153 -0.6157 -0.4316
  961SOL     OW13216   4.523   1.444   1.487 -0.4712 -0.1088 -0.4009
  961SOL    HW113217   4.543   1.541   1.499  0.5423 -0.4698  0.9617
  961SOL    HW213218   4.600   1.389   1.520 -1.1025 -1.3915 -0.9870
  962SOL     OW13219   4.394   0.106   2.428 -0.2132  0.2784  0.0159
  962SOL    HW113220   4.305   0.139   2.397  0.0520  1.7335  0.7298
  962SOL    HW213221   4.382   0.046   2.507 -0.6693 -0.9507 -0.9727
  963SOL     OW13222   4.308   0.248   3.234  0.1494 -0.2702 -0.2555
  963SOL    HW113223   4.375   0.322   3.229 -1.4217  1.1802 -0.3950
  963SOL    HW213224   4.306   0.199   3.147  0.2585  0.3813 -0.6269
  964SOL     OW13225   7.517   9.115   1.574  0.4664  0.1603 -0.0759
  964SOL    HW113226   7.569   9.201   1.574  0.2124  0.3129 -0.1911
  964SOL    HW213227   7.441   9.122   1.638 -1.0833  0.9458 -1.9443
  965SOL     OW13228   2.894   1.283   1.430 -0.5902 -0.3138 -0.2466
  965SOL    HW113229   2.916   1.318   1.521 -0.0065  0.7941 -0.8078
  965SOL    HW213230   2.855   1.356   1.375  0.3082 -0.6370 -1.3178
  966SOL     OW13231   8.325   2.189   3.874  0.2971  0.0149 -0.2875
  966SOL    HW113232   8.412   2.236   3.888  0.0695  0.7866 -1.4266
  966SOL    HW213233   8.250   2.252   3.893 -0.0188 -0.5939  0.5079
  967SOL     OW13234   9.449   8.121   2.013 -0.7887  0.8793  0.1047
  967SOL    HW113235   9.374   8.145   2.075  0.7233  2.4892  1.3443
  967SOL    HW213236   9.536   8.124   2.062  0.3062  0.8859 -1.7665
  968SOL     OW13237   8.445   3.594   0.298 -0.2975  1.1148  0.5766
  968SOL    HW113238   8.512   3.668   0.310  0.7064  0.1132  1.2218
  968SOL    HW213239   8.356   3.625   0.332 -0.2627  2.5725 -0.5897
  969SOL     OW13240   2.952   5.363   1.009 -0.1255  0.4893  0.8787
  969SOL    HW113241   2.871   5.308   1.031  0.7931 -0.5548  1.7367
  969SOL    HW213242   3.024   5.303   0.974  0.2591  1.4223  0.0555
  970SOL     OW13243   2.929   5.220   1.317 -0.0392 -0.3587 -0.4212
  970SOL    HW113244   2.875   5.274   1.253 -1.8270  1.0908  2.2099
  970SOL    HW213245   2.943   5.128   1.281 -5.6441 -1.3010 -0.5581
  971SOL     OW13246   1.832   3.663   2.393 -0.4716  0.1096 -0.9979
  971SOL    HW113247   1.780   3.584   2.423  1.0898  0.1511  2.0000
  971SOL    HW213248   1.790   3.747   2.427  1.5558  0.1318  1.6524
  972SOL     OW13249   8.152   0.930   1.524  0.5744  0.1740 -0.7330
  972SOL    HW113250   8.194   0.843   1.500 -2.2087 -1.0425 -1.3967
  972SOL    HW213251   8.133   0.982   1.440  0.2948  0.4975 -0.4696
  973SOL     OW13252   1.848   0.846   3.230  0.6412  0.1390  0.2625
  973SOL    HW113253   1.795   0.883   3.307  2.5744  0.6587  1.3909
  973SOL    HW213254   1.945   0.859   3.248  1.3220 -3.4806 -0.3601
  974SOL     OW13255   1.556   2.811   3.788 -0.8623  0.2337 -0.0140
  974SOL    HW113256   1.600   2.850   3.706  0.3154  0.5828  0.7655
  974SOL    HW213257   1.626   2.772   3.848 -1.6931  0.1742  0.9317
  975SOL     OW13258   3.140   4.890   2.090  0.5363 -0.0458  0.6369
  975SOL    HW113259   3.141   4.988   2.109  0.5545  0.1950 -0.5752
  975SOL    HW213260   3.233   4.859   2.070  0.5559 -0.3535  1.1795
  976SOL     OW13261   0.890   3.868   3.118 -0.1909 -0.1015 -0.8787
  976SOL    HW113262   0.866   3.775   3.145 -0.1565 -0.1016 -0.8457
  976SOL    HW213263   0.973   3.866   3.063 -0.2505 -0.1000 -0.9672
  977SOL     OW13264   3.537   6.878   2.228  0.0331 -0.3647 -0.0484
  977SOL    HW113265   3.472   6.830   2.287  0.7650 -0.4149  0.7152
  977SOL    HW213266   3.486   6.938   2.165 -0.7074  0.6069  1.4338
  978SOL     OW13267   1.987   6.533   2.672  0.0400 -0.2287 -0.2587
  978SOL    HW113268   2.086   6.527   2.677  0.0801 -0.9241 -1.6430
  978SOL    HW213269   1.951   6.573   2.756  1.3048 -2.1850  1.2582
  979SOL     OW13270   2.604   5.764   3.449  0.0090 -0.3623 -0.0906
  979SOL    HW113271   2.578   5.705   3.373  0.3977 -0.0384 -0.4743
  979SOL    HW213272   2.596   5.713   3.535 -0.8319 -0.5982 -0.3040
  980SOL     OW13273   9.812   8.836   0.922  0.2492 -0.2475  0.2847
  980SOL    HW113274   9.859   8.748   0.909  0.4982 -0.2246  0.9693
  980SOL    HW213275   9.764   8.834   1.010 -0.5413 -0.0462 -0.1321
  981SOL     OW13276   2.209   9.329   0.247 -0.1259 -0.3499 -0.4089
  981SOL    HW113277   2.170   9.411   0.204 -0.6942 -0.0805  0.5910
  981SOL    HW213278   2.308   9.330   0.238 -0.2398 -0.2588 -1.6453
  982SOL     OW13279   0.967   8.010   1.958 -0.3709 -0.0645  0.6424
  982SOL    HW113280   0.915   7.931   1.926  1.1711 -1.0964  0.6042
  982SOL    HW213281   1.016   8.050   1.880 -1.8201  1.4856  0.4901
  983SOL     OW13282   9.557   2.010   1.438  0.0250 -0.0196 -0.3236
  983SOL    HW113283   9.493   2.049   1.373  0.1021 -0.0284 -0.4048
  983SOL    HW213284   9.535   1.914   1.454 -0.0744  0.0170 -0.2374
  984SOL     OW13285   3.421   8.175   3.230  0.3275  0.8305 -0.0452
  984SOL    HW113286   3.343   8.114   3.244  1.4531 -0.7118 -0.2613
  984SOL    HW213287   3.390   8.262   3.193 -1.2025 -0.0716 -0.9246
  985SOL     OW13288   8.501   9.234   1.265  0.1415  0.4070  0.0759
  985SOL    HW113289   8.465   9.285   1.188 -0.2115 -1.3756 -0.9663
  985SOL    HW213290   8.426   9.211   1.328  0.0884  0.0503 -0.1176
  986SOL     OW13291   9.667   9.940   0.249 -0.3146 -0.5843  0.2062
  986SOL    HW113292   9.677   9.846   0.216 -2.1524 -0.6793 -0.1190
  986SOL    HW213293   9.636   9.999   0.175 -0.5019  0.0193  0.7532
  987SOL     OW13294   8.076   3.154   0.177 -0.5845 -0.0327 -0.3758
  987SOL    HW113295   8.120   3.101   0.105 -0.2952 -2.0415  1.2380
  987SOL    HW213296   8.041   3.092   0.247 -1.0519  1.8756  1.1167
  988SOL     OW13297   7.930   5.822   0.482 -0.4966  0.3200 -1.0347
  988SOL    HW113298   7.885   5.903   0.445 -3.2331 -0.6720 -0.0037
  988SOL    HW213299   7.964   5.841   0.574 -0.5697  0.5034 -1.0456
  989SOL     OW13300   7.518   1.891   2.351  0.0689  0.2059 -0.0036
  989SOL    HW113301   7.483   1.821   2.289  0.7919  0.3703 -0.6053
  989SOL    HW213302   7.572   1.957   2.300  1.8217 -0.4156  0.9910
  990SOL     OW13303   0.467   9.857   2.320  0.2255  0.1570  0.1556
  990SOL    HW113304   0.521   9.899   2.392 -1.6371  0.6899  1.2761
  990SOL    HW213305   0.453   9.923   2.246 -0.0228  0.4669  0.4764
  991SOL     OW13306   3.877   8.032   0.362 -0.1285 -0.3061  0.2017
  991SOL    HW113307   3.796   8.077   0.323 -0.4086  0.1142  1.2473
  991SOL    HW213308   3.849   7.973   0.438  0.7806  1.7239  2.1824
  992SOL     OW13309   3.619   4.036   3.408  0.3591 -0.3822  0.0355
  992SOL    HW113310   3.651   4.129   3.388 -0.9101  0.5769  2.3176
  992SOL    HW213311   3.695   3.972   3.395  1.0772  0.8486 -2.2205
  993SOL     OW13312   7.833   4.257   0.890  0.1952  0.0188 -0.0800
  993SOL    HW113313   7.820   4.344   0.937 -0.6123 -0.1977  0.0972
  993SOL    HW213314   7.930   4.246   0.868  0.7036 -0.1480  2.0932
  994SOL     OW13315   9.951   1.738   0.028 -0.0859 -0.8700 -0.4524
  994SOL    HW113316   9.934   1.778   0.118 -1.4596 -2.8771  0.2235
  994SOL    HW213317   9.948   1.810  -0.042  0.2044  0.5817  1.0138
  995SOL     OW13318   1.202   2.489   2.733 -0.7127 -0.0894  0.4222
  995SOL    HW113319   1.144   2.486   2.652 -2.2639  1.8243  1.4302
  995SOL    HW213320   1.289   2.531   2.710 -0.5808 -0.8867 -0.5683
  996SOL     OW13321   8.896   2.759   0.749  0.4562  0.8291 -0.6388
  996SOL    HW113322   8.918   2.793   0.657 -0.1127  0.0034 -1.0828
  996SOL    HW213323   8.798   2.743   0.756  0.8628 -1.9851 -0.8967
  997SOL     OW13324   1.721   7.708   1.781 -0.0533  0.0477  0.2356
  997SOL    HW113325   1.740   7.804   1.760  0.1518  0.1721  0.9595
  997SOL    HW213326   1.624   7.689   1.767  0.3611 -0.2836 -2.3274
  998SOL     OW13327   2.164   0.041   3.455  0.1798 -0.6076 -0.2031
  998SOL    HW113328   2.126   0.133   3.463  0.7961 -0.3273 -0.4604
  998SOL    HW213329   2.248   0.034   3.509 -0.1446 -1.1729  0.2322
  999SOL     OW13330   9.158   8.631   1.581 -0.4558  0.1717 -0.3585
  999SOL    HW113331   9.247   8.658   1.544 -0.6090 -3.2235 -3.3941
  999SOL    HW213332   9.164   8.540   1.621 -2.4445  0.1992  0.0770
 1000SOL     OW13333   0.937   9.505   1.951 -0.5202  0.0583  0.6975
 1000SOL    HW113334   1.021   9.472   1.993 -0.1068 -0.2553 -0.3649
 1000SOL    HW213335   0.954   9.592   1.905 -0.8780  0.2138  0.8594
 1001SOL     OW13336   7.933   9.701   0.292 -0.8573 -0.1849 -0.3904
 1001SOL    HW113337   7.870   9.777   0.276 -0.5756 -0.0387 -0.8101
 1001SOL    HW213338   7.983   9.681   0.208  0.7590  0.6998  0.3229
 1002SOL     OW13339   3.420   6.068   3.659 -0.6516 -0.1740  0.1288
 1002SOL    HW113340   3.405   6.118   3.573 -0.3179  0.0555  0.2048
 1002SOL    HW213341   3.517   6.045   3.667 -0.5454  0.5145  0.8368
 1003SOL     OW13342   4.306   9.215   1.721 -0.1423 -0.0733  0.6597
 1003SOL    HW113343   4.345   9.294   1.767  0.7013  0.3729 -0.8086
 1003SOL    HW213344   4.280   9.240   1.628 -1.4242 -1.0841  0.7309
 1004SOL     OW13345   2.883   8.755   2.117  0.6851 -0.0025  0.4314
 1004SOL    HW113346   2.873   8.703   2.201  0.6649 -0.3410  0.2216
 1004SOL    HW213347   2.930   8.699   2.048  0.2361  0.0839  0.0479
 1005SOL     OW13348   2.131   9.911   2.209 -0.6447  0.1022 -0.0889
 1005SOL    HW113349   2.034   9.894   2.224 -0.4489 -1.5225 -0.6058
 1005SOL    HW213350   2.153   9.897   2.112  0.0372  0.7642 -0.0293
 1006SOL     OW13351   1.978   9.153   1.097 -0.4588 -0.0458  0.2690
 1006SOL    HW113352   2.039   9.202   1.160  0.4602 -1.5076  0.5509
 1006SOL    HW213353   1.948   9.215   1.024 -0.5230  1.3257  1.4346
 1007SOL     OW13354   2.529   9.278   3.951 -0.1975 -0.0255  0.0019
 1007SOL    HW113355   2.577   9.357   3.990  1.1418 -1.3597  1.1040
 1007SOL    HW213356   2.466   9.310   3.880  0.9108  1.9594 -0.1427
 1008SOL     OW13357   2.571   8.953   1.485 -0.4108  0.2816 -0.6330
 1008SOL    HW113358   2.537   8.931   1.394 -1.4810 -1.7950  0.2475
 1008SOL    HW213359   2.495   8.974   1.546  0.0239 -1.4216  0.5661
 1009SOL     OW13360   2.038   2.652   0.307 -0.2027 -0.1699  0.5773
 1009SOL    HW113361   2.095   2.717   0.355 -1.1460  1.0824  0.0359
 1009SOL    HW213362   2.043   2.562   0.352  1.4018  0.1724  1.0865
 1010SOL     OW13363   8.405   8.911   3.808  0.3029  0.1718  1.0304
 1010SOL    HW113364   8.452   8.891   3.722 -0.7443  2.0978 -0.0255
 1010SOL    HW213365   8.464   8.968   3.866 -0.1060  1.3484  0.3228
 1011SOL     OW13366   7.881   2.440   1.267 -0.5101  0.3617 -0.4068
 1011SOL    HW113367   7.879   2.421   1.169 -3.6432  2.9198 -0.9062
 1011SOL    HW213368   7.958   2.502   1.286 -0.2004  0.2796 -1.3199
 1012SOL     OW13369   9.023   2.926   3.766 -0.4742  0.1323  0.2781
 1012SOL    HW113370   8.948   2.962   3.822 -2.1603  1.5111 -2.7758
 1012SOL    HW213371   9.103   2.985   3.775 -0.5957  0.1250  1.5143
 1013SOL     OW13372   2.637   6.117   0.666  0.1017  1.0590 -0.1243
 1013SOL    HW113373   2.659   6.023   0.691 -1.2316  0.4409 -1.2074
 1013SOL    HW213374   2.721   6.165   0.640  0.8070  0.2076  0.5637
 1014SOL     OW13375   1.728   8.542   2.833 -0.0773  0.5347 -0.0462
 1014SOL    HW113376   1.660   8.604   2.795  0.2383  0.6740 -0.3861
 1014SOL    HW213377   1.699   8.447   2.818 -0.4228  0.6010  0.2230
 1015SOL     OW13378   7.636   1.344   0.117  0.4222 -0.2011 -0.1336
 1015SOL    HW113379   7.688   1.276   0.065  0.9961  0.3581 -0.3012
 1015SOL    HW213380   7.538   1.326   0.107  0.5968 -2.7374  2.1621
 1016SOL     OW13381   1.421   1.544   0.018  0.2389  0.0921 -0.8418
 1016SOL    HW113382   1.510   1.526  -0.022 -0.1341 -1.0269 -1.1657
 1016SOL    HW213383   1.367   1.460   0.022 -0.6314  0.6598 -0.2191
 1017SOL     OW13384   4.158   6.884   2.018 -0.1980 -0.5717  0.8724
 1017SOL    HW113385   4.228   6.954   2.031 -0.5144 -0.3348  1.3176
 1017SOL    HW213386   4.199   6.793   2.025  0.6497 -0.4533 -1.9735
 1018SOL     OW13387   3.023   8.233   1.498  0.0098  0.6686  0.5818
 1018SOL    HW113388   3.097   8.296   1.475 -0.1791  0.9180  0.6565
 1018SOL    HW213389   2.969   8.215   1.415  1.3621 -1.1098  0.0704
 1019SOL     OW13390   5.368   9.781   2.458 -0.0527 -0.1712 -0.0578
 1019SOL    HW113391   5.322   9.754   2.374  1.2099  1.0445 -1.1589
 1019SOL    HW213392   5.326   9.864   2.494  0.3341  0.1239 -0.2798
 1020SOL     OW13393   7.479   8.551   3.124 -0.1381 -0.3021  0.0629
 1020SOL    HW113394   7.576   8.551   3.150 -0.5197 -0.3721  1.5127
 1020SOL    HW213395   7.437   8.637   3.151 -0.2894  0.0983 -1.3861
 1021SOL     OW13396   9.532   9.075   3.875 -0.1209 -0.1598  0.2559
 1021SOL    HW113397   9.612   9.036   3.828 -0.9403 -0.4558 -0.9281
 1021SOL    HW213398   9.515   9.167   3.841 -0.9534 -0.5202 -0.3335
 1022SOL     OW13399   1.460   1.230   2.551 -0.5862  0.2420 -0.2267
 1022SOL    HW113400   1.514   1.170   2.493  0.2921 -0.6268  1.4449
 1022SOL    HW213401   1.499   1.322   2.550  1.0969 -0.4182  1.1071
 1023SOL     OW13402   3.590   8.362   0.054 -0.1759 -0.0247  0.2661
 1023SOL    HW113403   3.612   8.406   0.141  0.1518 -0.2351  0.2880
 1023SOL    HW213404   3.498   8.389   0.025  0.3397  1.3189 -0.1336
 1024SOL     OW13405   1.278   2.366   0.960 -0.0487  0.0688  0.4746
 1024SOL    HW113406   1.203   2.300   0.960 -0.4126  0.4746  1.6438
 1024SOL    HW213407   1.296   2.396   0.866 -0.7896 -0.6515  0.0928
 1025SOL     OW13408   2.155   9.596   3.614 -0.0521 -0.0743  0.0558
 1025SOL    HW113409   2.210   9.527   3.568  1.1599  0.8226  0.1081
 1025SOL    HW213410   2.114   9.657   3.547 -0.7581 -0.5798  0.0290
 1026SOL     OW13411   2.850   4.419   3.015 -0.2080  0.1131 -0.5304
 1026SOL    HW113412   2.941   4.440   2.980  0.0043  0.5079  0.2480
 1026SOL    HW213413   2.847   4.436   3.113 -0.7915 -1.0086 -0.3451
 1027SOL     OW13414   2.721   4.541   0.221 -0.3204 -0.0760  0.5260
 1027SOL    HW113415   2.774   4.498   0.148 -0.2559 -0.6020  0.8782
 1027SOL    HW213416   2.630   4.564   0.188 -0.6945 -1.3974  0.6143
 1028SOL     OW13417   3.058   1.665   2.725 -0.1009 -0.3927 -0.2948
 1028SOL    HW113418   2.963   1.694   2.728 -1.0385 -3.4882  1.7976
 1028SOL    HW213419   3.113   1.720   2.787 -1.0925 -0.5141  0.6843
 1029SOL     OW13420   7.414   9.553   3.819  0.5257 -0.0297  0.3191
 1029SOL    HW113421   7.481   9.619   3.784  2.0142 -1.4990  0.3052
 1029SOL    HW213422   7.419   9.469   3.764 -1.7260  0.0319 -0.0071
 1030SOL     OW13423   1.777   3.580   0.633  0.0472 -0.2569  0.0602
 1030SOL    HW113424   1.815   3.549   0.546  0.8828 -0.1376  0.3730
 1030SOL    HW213425   1.698   3.523   0.657  1.4227 -2.0302  0.5150
 1031SOL     OW13426   7.341   9.658   2.860 -0.1875  0.2733 -0.2530
 1031SOL    HW113427   7.390   9.705   2.933 -0.4840  1.0303 -0.5407
 1031SOL    HW213428   7.388   9.573   2.837 -1.8587 -1.6272  3.0800
 1032SOL     OW13429   8.624   9.057   0.550  0.0656  0.5445  0.1933
 1032SOL    HW113430   8.534   9.082   0.587 -0.1260  0.1522 -0.0029
 1032SOL    HW213431   8.694   9.114   0.592  0.0367 -0.9460  2.3042
 1033SOL     OW13432   1.990   1.036   3.970  0.6130  0.1776  0.1247
 1033SOL    HW113433   2.033   0.996   4.051  1.9392 -2.1969 -1.6719
 1033SOL    HW213434   1.915   0.977   3.940  2.0569 -0.6090 -2.0972
 1034SOL     OW13435   9.355   9.055   2.550 -0.0262  0.1343  0.3777
 1034SOL    HW113436   9.372   9.023   2.457 -3.0907  0.2234 -0.2557
 1034SOL    HW213437   9.434   9.108   2.581  1.2611 -0.3098 -1.9736
 1035SOL     OW13438   1.016   2.236   0.970  0.1675  0.5431  0.0036
 1035SOL    HW113439   0.931   2.273   0.933 -0.5741 -0.6179  0.5065
 1035SOL    HW213440   1.000   2.143   1.003  1.8471 -0.0420 -0.7576
 1036SOL     OW13441   1.996   8.539   2.717 -0.4710 -0.2928 -0.1814
 1036SOL    HW113442   2.007   8.450   2.672 -0.3954  0.5839 -1.9530
 1036SOL    HW213443   1.900   8.550   2.744 -1.0481  0.1214 -2.2670
 1037SOL     OW13444   3.530   2.736   2.858  0.8523  0.3446 -0.3323
 1037SOL    HW113445   3.587   2.819   2.856  0.0268  0.8952 -2.2588
 1037SOL    HW213446   3.589   2.655   2.849  1.5125  0.8078 -0.1915
 1038SOL     OW13447   0.922   1.181   1.358  0.1568  0.3569  0.2096
 1038SOL    HW113448   0.926   1.279   1.378 -2.7146  0.0565  2.5954
 1038SOL    HW213449   0.937   1.129   1.442 -0.8175 -1.2071 -0.5633
 1039SOL     OW13450   3.103   3.566   0.385  0.2520  0.0003 -0.3367
 1039SOL    HW113451   3.088   3.652   0.435  1.1465 -0.9407  1.6123
 1039SOL    HW213452   3.168   3.510   0.435 -0.6975 -2.0380 -1.3465
 1040SOL     OW13453   8.771   9.173   3.090 -0.5295 -0.1034  0.4706
 1040SOL    HW113454   8.798   9.121   3.009  1.8924  1.1118  0.4316
 1040SOL    HW213455   8.746   9.111   3.164  0.6141 -1.2884 -0.1228
 1041SOL     OW13456   7.925   2.712   2.659 -0.1016 -0.3200 -0.2737
 1041SOL    HW113457   7.869   2.694   2.578  0.3935  0.2789 -0.7583
 1041SOL    HW213458   7.933   2.629   2.713 -0.6134 -0.6746 -0.7332
 1042SOL     OW13459   3.623   5.124   3.328 -0.2006  0.3338 -0.1219
 1042SOL    HW113460   3.569   5.202   3.359  0.0488  0.4763 -0.0392
 1042SOL    HW213461   3.645   5.066   3.406 -0.4545  0.1399 -0.1970
 1043SOL     OW13462   2.170   6.664   2.082  0.3138 -0.2116 -0.2526
 1043SOL    HW113463   2.114   6.587   2.114  0.6153 -0.2672  0.1576
 1043SOL    HW213464   2.218   6.705   2.160  0.9364 -0.2425 -0.6108
 1044SOL     OW13465   3.644   2.303   2.403 -0.0174 -0.3446  0.1763
 1044SOL    HW113466   3.739   2.318   2.375  0.5493 -0.7321  1.8223
 1044SOL    HW213467   3.601   2.391   2.423  0.3251 -0.2411  0.4587
 1045SOL     OW13468   9.910   1.979   1.705  0.1648  0.4430 -0.0705
 1045SOL    HW113469   9.954   2.023   1.627 -0.7788  1.4962 -0.0228
 1045SOL    HW213470   9.910   1.879   1.693  0.7818  0.5618 -1.0035
 1046SOL     OW13471   1.131   9.941   2.771  0.4539  0.3465 -0.2820
 1046SOL    HW113472   1.155   9.900   2.683  1.9134  0.1586  0.1992
 1046SOL    HW213473   1.084  10.028   2.755  0.1535  0.0174 -1.2465
 1047SOL     OW13474   4.028   2.794   2.546 -0.0394 -0.3314  0.3767
 1047SOL    HW113475   4.019   2.893   2.552 -0.4905 -0.2529 -1.2902
 1047SOL    HW213476   3.954   2.750   2.597 -0.8513  0.1990 -0.3456
 1048SOL     OW13477   8.000   0.996   1.305 -0.5064  0.2752 -0.2202
 1048SOL    HW113478   8.017   0.911   1.256  0.2286  0.0470  0.4100
 1048SOL    HW213479   7.917   1.040   1.270  0.0165  0.1221 -1.6548
 1049SOL     OW13480   7.351   0.659   2.870  0.6996  0.1978 -0.2734
 1049SOL    HW113481   7.279   0.589   2.865 -0.5905  1.3956  1.1760
 1049SOL    HW213482   7.435   0.617   2.904  0.1794 -0.8408 -0.2418
 1050SOL     OW13483   0.165   1.904   3.611  0.0805 -0.4440 -0.1137
 1050SOL    HW113484   0.084   1.845   3.608  0.4315 -0.9158 -0.4738
 1050SOL    HW213485   0.188   1.924   3.706 -0.4057 -0.3825 -0.0073
 1051SOL     OW13486   7.981   9.029   3.341  0.1874 -0.0557 -0.0677
 1051SOL    HW113487   8.062   9.017   3.398  1.0461  1.1448 -1.0045
 1051SOL    HW213488   7.903   9.056   3.398  0.8721  0.4693  0.6345
 1052SOL     OW13489   5.050   7.979   2.283  0.3291 -0.1128 -0.2794
 1052SOL    HW113490   5.123   8.025   2.232  0.3338 -1.3390 -1.3996
 1052SOL    HW213491   4.985   8.048   2.317  0.7844  0.7901 -1.2155
 1053SOL     OW13492   3.996   6.870   2.752  0.3659  0.0582  0.3523
 1053SOL    HW113493   3.947   6.787   2.727  0.6559 -0.1402  0.4522
 1053SOL    HW213494   3.991   6.883   2.851 -0.3855  0.5982  0.2503
 1054SOL     OW13495   1.522   2.434   4.010  0.0023  0.5772  0.6166
 1054SOL    HW113496   1.604   2.488   3.988  0.7480 -1.0857 -0.7800
 1054SOL    HW213497   1.530   2.343   3.969 -1.8113 -0.1742  1.8800
 1055SOL     OW13498   8.130   3.739   0.756 -0.1731 -0.2351  0.6295
 1055SOL    HW113499   8.081   3.695   0.680 -0.8258 -0.1323  0.9856
 1055SOL    HW213500   8.159   3.830   0.728  0.3534 -0.5254  0.2110
 1056SOL     OW13501   1.752   5.952   1.962 -0.4476 -0.0130  0.5677
 1056SOL    HW113502   1.683   5.887   1.929 -0.4788  0.4942 -0.3950
 1056SOL    HW213503   1.843   5.922   1.932 -0.1111 -1.2596  2.7485
 1057SOL     OW13504   3.069   5.481   3.303 -0.0401  0.6413  0.3559
 1057SOL    HW113505   2.986   5.487   3.248 -0.5909 -2.3902  0.7506
 1057SOL    HW213506   3.142   5.535   3.261 -1.2698  0.6872 -1.7509
 1058SOL     OW13507   8.127   0.107   1.380 -0.3764  0.0514 -0.6661
 1058SOL    HW113508   8.157   0.183   1.322 -1.1091  0.7741 -0.1245
 1058SOL    HW213509   8.169   0.115   1.470  0.1733 -0.6433 -0.8604
 1059SOL     OW13510   8.569   1.542   2.014 -0.1050 -0.2686 -0.0131
 1059SOL    HW113511   8.484   1.593   2.006  0.9868  1.7685  1.0442
 1059SOL    HW213512   8.621   1.548   1.929 -0.2893 -0.1697 -0.1174
 1060SOL     OW13513   1.112   9.919   1.003 -0.9856 -0.6532 -0.5275
 1060SOL    HW113514   1.019   9.899   1.033 -0.6645 -1.6980 -0.2037
 1060SOL    HW213515   1.142   9.849   0.938 -0.6551  0.0248 -1.1121
 1061SOL     OW13516   2.454   7.323   2.188 -0.1156 -0.0280 -0.0132
 1061SOL    HW113517   2.386   7.366   2.247  0.6879  1.4113 -0.1181
 1061SOL    HW213518   2.411   7.252   2.132 -2.0582  2.6078 -1.9585
 1062SOL     OW13519   3.945   2.970   3.328  0.0783  0.2867 -0.7071
 1062SOL    HW113520   3.930   2.888   3.274  0.3156  0.8806 -1.6998
 1062SOL    HW213521   4.041   2.975   3.355 -0.5553 -1.2819  1.9108
 1063SOL     OW13522   2.417   6.477   2.183 -0.3700  0.1220  0.1020
 1063SOL    HW113523   2.376   6.398   2.138 -1.8045  0.9471 -0.0882
 1063SOL    HW213524   2.378   6.487   2.275  0.0399  0.4180  0.2465
 1064SOL     OW13525   3.105   2.368   3.309  0.1846  0.4491 -0.0489
 1064SOL    HW113526   3.188   2.329   3.270 -0.8405  0.5651 -2.4488
 1064SOL    HW213527   3.029   2.302   3.299 -0.3396  0.9075  0.8198
 1065SOL     OW13528   7.500   9.465   0.773  0.0164  0.5810  0.1925
 1065SOL    HW113529   7.530   9.435   0.863 -0.4182  1.1434  0.5325
 1065SOL    HW213530   7.492   9.386   0.712 -0.4801  0.0888  0.8829
 1066SOL     OW13531   5.022   2.436   1.409 -0.6664 -0.1377 -0.3118
 1066SOL    HW113532   5.062   2.356   1.364  0.5634 -0.9817  2.2206
 1066SOL    HW213533   4.934   2.411   1.450 -0.8982  0.1553 -0.6234
 1067SOL     OW13534   9.529   2.257   3.450  0.0441 -0.4872 -0.1151
 1067SOL    HW113535   9.584   2.211   3.519  1.3425 -0.1194 -0.8832
 1067SOL    HW213536   9.437   2.217   3.448  0.5821 -1.7737  0.5047
 1068SOL     OW13537   0.499   1.685   2.728 -0.0954 -0.2351  0.1453
 1068SOL    HW113538   0.470   1.770   2.772  1.3987  1.3456 -1.8270
 1068SOL    HW213539   0.564   1.637   2.787  1.9137  1.8767 -0.2820
 1069SOL     OW13540   0.053   2.547   3.046  0.3896 -0.1138 -0.0475
 1069SOL    HW113541  -0.028   2.488   3.051  0.7925 -0.6449  0.2433
 1069SOL    HW213542   0.049   2.601   2.963 -0.2172 -0.2136 -0.0885
 1070SOL     OW13543   1.100   4.030   0.200 -0.7768 -0.2767 -0.1738
 1070SOL    HW113544   1.024   3.966   0.205 -0.7370 -0.4764 -2.0729
 1070SOL    HW213545   1.096   4.082   0.115  1.6804 -0.9122 -0.7387
 1071SOL     OW13546   7.297   1.310   2.528 -0.3516 -0.2636 -0.4854
 1071SOL    HW113547   7.376   1.254   2.554  0.7526  1.6219  0.3070
 1071SOL    HW213548   7.263   1.280   2.439  1.5840 -0.7543 -1.0762
 1072SOL     OW13549   8.404   0.313   3.226 -0.5897  0.4470  0.7786
 1072SOL    HW113550   8.496   0.299   3.264 -0.4108  0.9863  0.5539
 1072SOL    HW213551   8.337   0.262   3.280 -0.5069  2.2691  2.6834
 1073SOL     OW13552   2.458   7.145   1.372 -0.0093  0.4314  0.5533
 1073SOL    HW113553   2.430   7.240   1.387  1.0282  0.8407 -0.0940
 1073SOL    HW213554   2.429   7.115   1.282 -0.4254  0.0934  0.7960
 1074SOL     OW13555   3.949   7.944   1.135 -0.2957  0.6778  0.1836
 1074SOL    HW113556   3.961   7.845   1.145 -0.3041  0.5720 -0.7601
 1074SOL    HW213557   3.852   7.965   1.129 -0.2909  0.7301  0.3002
 1075SOL     OW13558   1.206   1.677   1.624  0.5636 -0.3327 -0.2291
 1075SOL    HW113559   1.202   1.577   1.619 -1.8431 -0.2330 -0.6074
 1075SOL    HW213560   1.237   1.704   1.715  0.8693 -1.3964 -0.0032
 1076SOL     OW13561   4.095   2.877   3.908  0.4630  0.6775 -0.0177
 1076SOL    HW113562   4.107   2.974   3.929  2.0061  0.3081  0.8945
 1076SOL    HW213563   4.112   2.823   3.990  2.0046 -0.5145 -1.1014
 1077SOL     OW13564   7.783   9.175   3.496  0.6065 -0.0020  0.2576
 1077SOL    HW113565   7.800   9.134   3.585  1.3854  1.1729  0.6547
 1077SOL    HW213566   7.687   9.160   3.471  0.6122 -1.1307  0.8646
 1078SOL     OW13567   2.864   0.106   1.119  0.1300  0.2089  0.1989
 1078SOL    HW113568   2.867   0.008   1.098  1.9852  0.1872  0.4226
 1078SOL    HW213569   2.785   0.148   1.075  0.3986 -1.0362 -1.5079
 1079SOL     OW13570   2.164   2.210   0.381 -0.4308  0.4768 -0.1327
 1079SOL    HW113571   2.247   2.265   0.383 -0.2979  0.2880 -0.4351
 1079SOL    HW213572   2.187   2.115   0.360 -0.4307 -0.1272  2.4250
 1080SOL     OW13573   2.052   5.118   3.331  0.2232 -0.0806 -0.2261
 1080SOL    HW113574   2.124   5.088   3.269 -0.5163 -0.5740 -0.8497
 1080SOL    HW213575   1.963   5.110   3.286 -0.1178  1.7254  0.0867
 1081SOL     OW13576   3.772   2.681   1.474  0.1200 -0.1885 -0.1557
 1081SOL    HW113577   3.781   2.581   1.471 -2.1764 -0.4297 -0.0362
 1081SOL    HW213578   3.779   2.712   1.568  0.9794 -0.2105 -0.2076
 1082SOL     OW13579   4.038   0.562   3.554  0.2106 -0.3393  0.0185
 1082SOL    HW113580   3.999   0.539   3.465  0.8579  1.5534 -0.7876
 1082SOL    HW213581   4.071   0.479   3.599  0.0344 -1.2907 -1.5762
 1083SOL     OW13582   0.325   3.603   1.265  0.1963 -0.4022 -0.1218
 1083SOL    HW113583   0.329   3.596   1.364 -0.6677 -1.2655 -0.1445
 1083SOL    HW213584   0.233   3.629   1.236  0.4073 -0.2817 -0.7109
 1084SOL     OW13585   1.018   9.503   0.283 -0.3071  0.6940 -0.3908
 1084SOL    HW113586   1.019   9.405   0.304 -0.2513  1.5262  4.0251
 1084SOL    HW213587   0.924   9.537   0.285 -0.2978  0.7984 -1.5878
 1085SOL     OW13588   0.890   8.324   1.285  0.4358 -0.5491 -0.1121
 1085SOL    HW113589   0.833   8.396   1.323  0.5919 -0.2203 -0.5027
 1085SOL    HW213590   0.912   8.258   1.357  3.0952  1.5599  1.0980
 1086SOL     OW13591   4.827   0.833   2.390 -0.3203 -0.2092  0.8369
 1086SOL    HW113592   4.850   0.931   2.395 -1.0985  0.0161  0.0383
 1086SOL    HW213593   4.898   0.781   2.437  1.2569  0.5730 -0.6127
 1087SOL     OW13594   1.628   3.345   2.163 -0.3179  0.3062  0.2509
 1087SOL    HW113595   1.560   3.388   2.104  3.2306  1.5102 -3.1669
 1087SOL    HW213596   1.654   3.257   2.124  1.4971  0.7543  0.4128
 1088SOL     OW13597   0.611   3.885   2.964  0.0142 -0.1186 -0.1778
 1088SOL    HW113598   0.701   3.867   3.003 -0.2366 -1.7699 -0.3249
 1088SOL    HW213599   0.619   3.892   2.864  0.1201  0.6610 -0.1165
 1089SOL     OW13600   9.294   3.519   3.506  0.1764  0.7348  0.0784
 1089SOL    HW113601   9.242   3.605   3.513  1.4605  1.5480 -0.2077
 1089SOL    HW213602   9.244   3.455   3.449  0.0780  1.9706 -1.2478
 1090SOL     OW13603   4.203   2.397   2.413  0.4166 -0.8346 -0.0880
 1090SOL    HW113604   4.232   2.396   2.317  0.7234  0.0946 -0.0144
 1090SOL    HW213605   4.225   2.310   2.456  1.0417 -0.9532 -0.6453
 1091SOL     OW13606   0.420   8.627   0.078 -0.0915  0.4292  0.5314
 1091SOL    HW113607   0.325   8.653   0.092 -0.4768  0.1584 -1.4444
 1091SOL    HW213608   0.464   8.611   0.166 -1.4674  1.9927  1.5187
 1092SOL     OW13609   9.056   8.794   3.931  0.3828 -0.5578  0.0712
 1092SOL    HW113610   9.117   8.848   3.873 -0.2465  0.2216  0.1308
 1092SOL    HW213611   8.979   8.761   3.877 -0.1621  0.1040  0.4480
 1093SOL     OW13612   9.778   0.648   1.794  0.2882 -0.2582  0.4278
 1093SOL    HW113613   9.859   0.672   1.741 -0.0686  0.0442  0.0180
 1093SOL    HW213614   9.789   0.555   1.831  1.0595 -0.0081  0.8476
 1094SOL     OW13615   3.850   9.013   2.371  0.0250 -0.5787  0.8291
 1094SOL    HW113616   3.877   9.097   2.419 -1.8395  1.1427 -1.0476
 1094SOL    HW213617   3.873   9.022   2.274 -0.1935 -2.2603  0.6161
 1095SOL     OW13618   0.624   3.568   1.521 -0.2074 -0.2309 -0.2309
 1095SOL    HW113619   0.722   3.549   1.524 -0.2669 -0.5344 -0.1812
 1095SOL    HW213620   0.576   3.487   1.488 -0.5254 -0.3744  0.5782
 1096SOL     OW13621   9.517   8.806   0.008  0.7432 -0.1985 -0.2334
 1096SOL    HW113622   9.494   8.844  -0.081  1.1566 -0.3563 -0.4066
 1096SOL    HW213623   9.434   8.773   0.053  0.0583  2.6189  0.7234
 1097SOL     OW13624   7.892   9.690   0.981  0.3821  0.2795 -0.6009
 1097SOL    HW113625   7.828   9.666   0.908  0.4808 -1.3113 -0.1751
 1097SOL    HW213626   7.906   9.789   0.982 -1.0680  0.4967 -1.5276
 1098SOL     OW13627   4.903   1.868   0.961  0.0679 -0.0999 -0.3911
 1098SOL    HW113628   4.939   1.852   1.052  2.0546 -1.8216 -1.4343
 1098SOL    HW213629   4.839   1.944   0.963  1.0512  0.6983  2.1986
 1099SOL     OW13630   7.506   1.456   0.683  0.3730  0.2311 -0.2314
 1099SOL    HW113631   7.536   1.451   0.588 -2.1711 -1.3396 -1.0028
 1099SOL    HW213632   7.530   1.545   0.721  1.6439  0.7765 -2.2561
 1100SOL     OW13633   4.279   8.429   0.549  0.3275  0.0532  0.1267
 1100SOL    HW113634   4.360   8.370   0.559 -0.1098 -0.4016  0.9809
 1100SOL    HW213635   4.308   8.525   0.552  0.7496 -0.0952  1.2679
 1101SOL     OW13636   9.067   3.340   0.991  0.2393  0.3335  0.1228
 1101SOL    HW113637   9.041   3.256   0.944  0.7301 -0.3016  0.9816
 1101SOL    HW213638   8.987   3.377   1.039 -0.2113  0.8731 -1.0281
 1102SOL     OW13639   2.355   8.367   0.291 -0.1615  0.1283 -0.5523
 1102SOL    HW113640   2.346   8.389   0.193  0.0259  0.2758 -0.5380
 1102SOL    HW213641   2.279   8.309   0.319  1.1785 -2.1220 -1.4014
 1103SOL     OW13642   8.225   2.994   3.217  0.1260 -0.0563  0.5471
 1103SOL    HW113643   8.232   3.057   3.294  1.8789 -0.6583  0.9004
 1103SOL    HW213644   8.144   2.936   3.228 -1.9285  2.5847 -0.1582
 1104SOL     OW13645   1.781   9.497   0.712 -0.1712 -0.5629 -0.8607
 1104SOL    HW113646   1.775   9.589   0.751  1.4992 -0.7086 -0.2000
 1104SOL    HW213647   1.854   9.495   0.644 -1.2616 -1.0113 -2.0239
 1105SOL     OW13648   0.251   8.040   2.009  0.5224  0.0524 -0.3624
 1105SOL    HW113649   0.230   7.960   1.953 -1.9494  0.7994 -0.5852
 1105SOL    HW213650   0.170   8.098   2.016  1.2131  0.7585  2.7396
 1106SOL     OW13651   3.184   2.119   0.684  0.4211 -0.2190  0.6593
 1106SOL    HW113652   3.193   2.081   0.592  0.2242  0.1186  0.5008
 1106SOL    HW213653   3.117   2.193   0.683 -0.0862 -0.6656  1.2061
 1107SOL     OW13654   4.484   8.969   1.022 -0.3423 -0.0563  0.4909
 1107SOL    HW113655   4.549   8.991   1.095 -0.1033 -1.6989  0.7792
 1107SOL    HW213656   4.438   8.883   1.042 -1.6407  0.4112 -0.3892
 1108SOL     OW13657   2.507   5.291   3.256  0.1281  0.7358  0.2819
 1108SOL    HW113658   2.503   5.358   3.331 -0.6827 -0.0618  0.9538
 1108SOL    HW213659   2.474   5.203   3.288  1.8094 -0.1705 -0.4286
 1109SOL     OW13660   9.920   9.275   3.766  0.4006 -0.1900  0.3934
 1109SOL    HW113661   9.847   9.334   3.801 -0.0447 -1.7309  2.1185
 1109SOL    HW213662   9.923   9.190   3.818  2.8258 -0.5635 -0.2681
 1110SOL     OW13663   2.825   6.805   2.847  0.0828 -0.4825 -0.7039
 1110SOL    HW113664   2.854   6.824   2.753 -1.6290  0.3330 -1.0793
 1110SOL    HW213665   2.861   6.876   2.907 -0.5494  0.1588 -1.0694
 1111SOL     OW13666   1.573   0.836   0.983  0.5307 -0.1033 -0.2907
 1111SOL    HW113667   1.545   0.741   0.992 -1.6455  0.3759 -1.7431
 1111SOL    HW213668   1.501   0.896   1.018  1.8630  1.0240  0.5777
 1112SOL     OW13669   2.882   6.895   2.261 -0.3209  0.1381  0.3598
 1112SOL    HW113670   2.863   6.948   2.179 -1.1741 -0.2916  0.2792
 1112SOL    HW213671   2.874   6.797   2.240 -1.6977  0.0509  1.2316
 1113SOL     OW13672   5.428   9.503   3.247  0.0983 -0.9197  0.4809
 1113SOL    HW113673   5.420   9.413   3.205  0.9971 -1.3778  1.2869
 1113SOL    HW213674   5.474   9.495   3.335  1.4141  0.5071 -0.0699
 1114SOL     OW13675   1.378   3.666   2.760  0.9419  0.3893  0.6153
 1114SOL    HW113676   1.440   3.638   2.688 -0.3425 -2.7716  0.6752
 1114SOL    HW213677   1.424   3.662   2.849  1.6945  1.5859  0.2857
 1115SOL     OW13678   3.112   8.103   3.731  0.3150 -0.0047 -0.0826
 1115SOL    HW113679   3.170   8.183   3.717 -1.1895  0.9585 -0.9112
 1115SOL    HW213680   3.142   8.054   3.814  0.2097  2.3179  1.3517
 1116SOL     OW13681   2.112   5.693   1.638 -0.1770  1.0811  0.9958
 1116SOL    HW113682   2.135   5.773   1.582 -0.9590  0.9018  0.4162
 1116SOL    HW213683   2.098   5.722   1.733  0.8138  1.4353  1.0503
 1117SOL     OW13684   4.652   3.042   1.399 -0.5131  0.4225 -0.3387
 1117SOL    HW113685   4.607   2.955   1.378  0.0653 -0.1414  0.7015
 1117SOL    HW213686   4.651   3.057   1.498 -0.4993  1.5478 -0.5025
 1118SOL     OW13687   7.814   2.976   1.373  0.0785  0.0085  0.2430
 1118SOL    HW113688   7.745   2.915   1.412  1.9759 -1.9049  0.6904
 1118SOL    HW213689   7.882   2.998   1.442 -0.0034  1.7890 -0.2259
 1119SOL     OW13690   1.236   0.001   1.882  0.4299  0.0826  0.1715
 1119SOL    HW113691   1.335   0.014   1.893  0.3377  0.8784  0.0685
 1119SOL    HW213692   1.190   0.023   1.968  0.4363 -1.3980  0.5754
 1120SOL     OW13693   2.637   3.612   3.228 -0.3238 -0.0817  0.3512
 1120SOL    HW113694   2.656   3.529   3.280  0.4107 -0.4584 -0.5101
 1120SOL    HW213695   2.566   3.665   3.275 -0.2753 -0.8298  1.2850
 1121SOL     OW13696   4.921   8.167   3.966 -0.2336 -0.1396  0.1752
 1121SOL    HW113697   4.857   8.120   4.027 -0.2821  0.1852  0.3794
 1121SOL    HW213698   4.952   8.104   3.895  1.1917 -1.0452  1.5642
 1122SOL     OW13699   3.364   0.714   0.679 -1.0085  0.2231 -0.2685
 1122SOL    HW113700   3.323   0.723   0.770 -2.1983 -0.3368 -0.7401
 1122SOL    HW213701   3.427   0.791   0.663 -0.1660 -0.1185  1.3364
 1123SOL     OW13702   2.663   5.563   1.694 -0.3365  0.0513 -0.0974
 1123SOL    HW113703   2.726   5.558   1.771 -0.6154  0.3403  0.1538
 1123SOL    HW213704   2.586   5.623   1.718 -0.1291  0.6016 -0.8062
 1124SOL     OW13705   2.806   1.738   2.729  0.3973 -0.5122  0.4935
 1124SOL    HW113706   2.725   1.766   2.781  0.7891 -0.6618  1.1992
 1124SOL    HW213707   2.828   1.808   2.661 -0.4659 -0.5849  0.1253
 1125SOL     OW13708   0.402   8.723   0.378  0.5379  0.6902  0.1104
 1125SOL    HW113709   0.451   8.802   0.342 -0.6606  1.7674  0.7919
 1125SOL    HW213710   0.406   8.724   0.478 -0.7262  0.7151  0.1729
 1126SOL     OW13711   1.747   1.788   0.081  0.1680  0.5971 -0.3719
 1126SOL    HW113712   1.805   1.708   0.072  1.2132  1.3492 -0.3374
 1126SOL    HW213713   1.652   1.759   0.098  0.9166 -0.6056  1.8947
 1127SOL     OW13714   4.005   7.817   0.837  0.0988  0.5109 -0.5423
 1127SOL    HW113715   4.026   7.909   0.870 -0.1692  0.2957  0.2218
 1127SOL    HW213716   4.058   7.800   0.753  1.5993  0.6530  0.3540
 1128SOL     OW13717   9.625   2.018   1.107 -0.9620  0.0709 -0.3825
 1128SOL    HW113718   9.562   2.076   1.159 -1.0935 -1.1475  0.8726
 1128SOL    HW213719   9.711   2.066   1.093 -0.8004  0.3048  1.2882
 1129SOL     OW13720   3.402   7.498   2.827 -0.1482  0.4878  0.2278
 1129SOL    HW113721   3.469   7.443   2.876 -0.6405 -1.5444 -1.3147
 1129SOL    HW213722   3.311   7.456   2.836 -0.1477 -0.2958 -2.9168
 1130SOL     OW13723   1.986   8.946   2.244 -0.0247  0.0782 -0.3468
 1130SOL    HW113724   1.906   8.945   2.304 -0.2921  2.1436 -0.6183
 1130SOL    HW213725   2.019   9.040   2.235  1.3731 -0.5197 -1.6473
 1131SOL     OW13726   3.531   4.466   0.759 -0.4210  0.2847 -0.6884
 1131SOL    HW113727   3.455   4.527   0.780 -0.7896  0.3022 -1.9901
 1131SOL    HW213728   3.616   4.503   0.796 -0.8248  0.9866 -0.4610
 1132SOL     OW13729   3.320   8.286   3.742  0.0608 -0.1214 -0.3209
 1132SOL    HW113730   3.265   8.319   3.819  1.6171  0.6088  0.5047
 1132SOL    HW213731   3.377   8.361   3.708  1.6340 -1.2426 -0.1954
 1133SOL     OW13732   9.035   9.078   1.782  0.0563  0.5205 -0.1508
 1133SOL    HW113733   8.962   9.123   1.730 -0.5720  1.2721  1.3497
 1133SOL    HW213734   9.072   9.143   1.849  0.0801 -0.7912  1.1076
 1134SOL     OW13735   9.925   8.211   0.578 -0.3523  0.2246  0.1492
 1134SOL    HW113736   9.900   8.119   0.547 -1.0676  0.8475 -1.1660
 1134SOL    HW213737   9.842   8.262   0.599 -0.0560  1.2161 -1.0416
 1135SOL     OW13738   5.279   2.000   1.606 -0.7109 -0.0418  0.2718
 1135SOL    HW113739   5.207   2.001   1.676 -0.5677 -0.5247  0.4291
 1135SOL    HW213740   5.367   2.023   1.647 -0.6397 -0.2442  0.2352
 1136SOL     OW13741   1.277   8.318   0.666  0.2377  0.2623 -0.0569
 1136SOL    HW113742   1.362   8.362   0.638  0.0185 -0.4219 -1.9000
 1136SOL    HW213743   1.200   8.364   0.621 -0.2578  0.1405  0.6710
 1137SOL     OW13744   1.861   9.773   0.245  0.1547 -0.0990  0.2067
 1137SOL    HW113745   1.800   9.830   0.300  0.5523  2.2434 -1.7159
 1137SOL    HW213746   1.947   9.760   0.293  0.3940  1.6785  0.2934
 1138SOL     OW13747   1.933   0.904   3.675  0.2234  0.0420 -0.1299
 1138SOL    HW113748   1.887   0.865   3.755 -0.0525 -1.5712 -1.0515
 1138SOL    HW213749   2.016   0.852   3.655  1.1003  1.3780  0.0110
 1139SOL     OW13750   4.012   8.219   1.411 -0.1512  0.4532 -0.2573
 1139SOL    HW113751   4.052   8.127   1.411  0.6416  0.7464  1.9956
 1139SOL    HW213752   4.085   8.286   1.418 -0.7386  1.2572 -1.8088
 1140SOL     OW13753   2.906   9.005   3.796 -0.1655  0.0519 -0.0511
 1140SOL    HW113754   2.859   9.013   3.884  1.1513 -0.7057  0.7403
 1140SOL    HW213755   2.993   9.053   3.800 -0.0605 -0.0665 -0.9064
 1141SOL     OW13756   0.491   3.824   0.731 -0.1636  0.6018  0.5430
 1141SOL    HW113757   0.404   3.825   0.780 -1.0200 -1.2895 -0.8993
 1141SOL    HW213758   0.558   3.771   0.783 -1.5034 -2.6922 -0.9805
 1142SOL     OW13759   0.267   3.088   3.932 -0.0007 -0.1624  0.0807
 1142SOL    HW113760   0.282   3.183   3.960 -0.4582 -0.5367  1.6495
 1142SOL    HW213761   0.356   3.045   3.915  0.2696  0.1799  0.6037
 1143SOL     OW13762   4.709   9.714   3.831  0.5748  0.3410 -0.4530
 1143SOL    HW113763   4.711   9.687   3.735  1.6277  1.4207 -0.7543
 1143SOL    HW213764   4.657   9.799   3.840 -1.1864 -0.7838  0.2246
 1144SOL     OW13765   9.280   2.215   2.275  1.0789 -0.6616 -0.1382
 1144SOL    HW113766   9.372   2.249   2.255  1.3042 -0.8702  0.5362
 1144SOL    HW213767   9.274   2.119   2.248  0.1853  0.1034 -2.8418
 1145SOL     OW13768   0.402   2.700   1.345  0.7074 -0.2888 -0.1020
 1145SOL    HW113769   0.326   2.660   1.294  1.6148 -1.9688 -0.1641
 1145SOL    HW213770   0.383   2.696   1.443  0.6318 -0.5390 -0.1266
 1146SOL     OW13771   7.107   9.664   3.110 -0.0084  0.0711  0.2852
 1146SOL    HW113772   7.175   9.640   3.180 -1.1946  1.5437  2.0041
 1146SOL    HW213773   7.136   9.748   3.063 -0.2850  0.3106  0.5397
 1147SOL     OW13774   9.013   0.169   1.795  0.6682 -0.2945  0.2891
 1147SOL    HW113775   8.982   0.074   1.800  2.5505 -0.8925  0.9228
 1147SOL    HW213776   8.967   0.215   1.719 -1.6332 -1.1842  1.0920
 1148SOL     OW13777   2.602   8.040   0.456  0.3394 -0.5455  0.2866
 1148SOL    HW113778   2.545   8.067   0.534  0.6788  0.8827  0.0567
 1148SOL    HW213779   2.667   8.113   0.436  0.6901 -1.1836 -0.9263
 1149SOL     OW13780   2.656   3.851   1.088 -0.3221  0.0690  0.3612
 1149SOL    HW113781   2.723   3.911   1.044 -1.4861  0.9857 -0.2115
 1149SOL    HW213782   2.613   3.900   1.164 -1.5486  0.1336 -0.3437
 1150SOL     OW13783   0.337   8.338   0.327  0.0286  0.5013 -0.4393
 1150SOL    HW113784   0.252   8.389   0.338 -0.5452 -0.4633 -0.3990
 1150SOL    HW213785   0.407   8.399   0.289 -0.6712  1.3026 -0.4621
 1151SOL     OW13786   8.719   8.664   0.615  0.1105 -0.3568  0.2474
 1151SOL    HW113787   8.708   8.728   0.539  0.1636 -0.6624 -0.0207
 1151SOL    HW213788   8.768   8.583   0.584  1.5356  0.1999  0.9879
 1152SOL     OW13789   1.253   1.500   2.400  0.0038  0.2021  0.0553
 1152SOL    HW113790   1.225   1.408   2.372 -1.2798  1.1371 -1.8037
 1152SOL    HW213791   1.349   1.514   2.376 -0.1116 -0.2447 -0.6948
 1153SOL     OW13792   3.378   4.894   3.438 -0.4442 -0.1265  0.5582
 1153SOL    HW113793   3.289   4.865   3.473  0.8811 -2.9918  1.7893
 1153SOL    HW213794   3.377   4.893   3.338 -0.9494 -3.0995  0.5517
 1154SOL     OW13795   9.098   9.884   2.266  0.0892 -0.0610  0.2767
 1154SOL    HW113796   9.183   9.935   2.257  0.0643  0.1609  1.2157
 1154SOL    HW213797   9.049   9.885   2.178  1.1470 -0.3856 -0.3257
 1155SOL     OW13798   7.880   9.657   3.431 -0.1597  0.2051 -0.1919
 1155SOL    HW113799   7.920   9.638   3.342 -0.4477  0.6398 -0.4159
 1155SOL    HW213800   7.930   9.732   3.475  0.1006 -0.1346  0.0917
 1156SOL     OW13801   7.721   8.889   2.977  0.3379 -0.1431  0.4338
 1156SOL    HW113802   7.803   8.897   3.033  0.0120  0.0583  0.8858
 1156SOL    HW213803   7.708   8.794   2.950  0.5905 -0.2141  0.5557
 1157SOL     OW13804   1.603   7.409   2.416  0.1328 -0.0365  0.3548
 1157SOL    HW113805   1.603   7.363   2.328 -1.9498  1.1624 -0.3029
 1157SOL    HW213806   1.527   7.374   2.472  1.6897 -1.0980  1.8544
 1158SOL     OW13807   3.739   2.887   3.989 -0.3482  0.4786  0.3919
 1158SOL    HW113808   3.749   2.828   4.069 -0.4549 -0.3708 -0.2178
 1158SOL    HW213809   3.811   2.865   3.923 -1.5427 -0.2919 -0.6669
 1159SOL     OW13810   7.883   4.989   1.384  0.0397  0.3327  0.0200
 1159SOL    HW113811   7.881   4.948   1.293  0.3924 -0.2661  0.2780
 1159SOL    HW213812   7.832   4.931   1.448 -2.0439  1.8513 -0.2343
 1160SOL     OW13813   9.550   9.516   1.466  0.5267 -0.0306  0.0784
 1160SOL    HW113814   9.463   9.473   1.492 -0.1355  0.6935 -0.9229
 1160SOL    HW213815   9.596   9.550   1.548 -1.0076  1.2160  0.4364
 1161SOL     OW13816   8.882   7.072   0.558 -0.4064 -0.2736 -0.3018
 1161SOL    HW113817   8.892   7.033   0.466  1.4106 -0.1642 -0.1619
 1161SOL    HW213818   8.822   7.014   0.612 -0.4372 -1.0529 -1.1566
 1162SOL     OW13819   7.548   0.360   3.752 -0.0544 -0.1106  0.5931
 1162SOL    HW113820   7.551   0.458   3.734  0.1512 -0.1699  0.2995
 1162SOL    HW213821   7.474   0.318   3.700 -0.0569 -0.1338  0.6152
 1163SOL     OW13822   1.367   2.489   2.108  0.0163  0.6315 -0.3594
 1163SOL    HW113823   1.395   2.399   2.142 -2.9705  0.3707  1.5573
 1163SOL    HW213824   1.448   2.549   2.103  1.8448 -1.7800 -0.5814
 1164SOL     OW13825   4.258   7.940   2.595  1.2052 -0.1438  0.5279
 1164SOL    HW113826   4.309   7.956   2.511  0.1569 -0.0983 -0.1065
 1164SOL    HW213827   4.196   7.863   2.583  1.0953 -0.1806  1.2817
 1165SOL     OW13828   2.324   9.101   0.010  0.2200 -0.6981 -0.1583
 1165SOL    HW113829   2.275   9.100  -0.078  0.0373 -2.0070 -0.0492
 1165SOL    HW213830   2.415   9.141  -0.003 -0.3620  0.4786 -0.6423
 1166SOL     OW13831   4.708   0.327   3.061 -0.2767 -0.2491 -0.0799
 1166SOL    HW113832   4.665   0.339   3.151  0.0852 -1.5477  0.2807
 1166SOL    HW213833   4.668   0.391   2.996  0.8672  2.1168  1.4774
 1167SOL     OW13834   0.240   3.741   0.284  0.2736  0.0694  0.4313
 1167SOL    HW113835   0.184   3.713   0.206  1.6274  0.6441 -0.7816
 1167SOL    HW213836   0.191   3.724   0.369 -1.8034  0.7653 -0.6132
 1168SOL     OW13837   1.766   8.972   1.082  0.2663  0.1690  0.6007
 1168SOL    HW113838   1.719   8.945   0.998  0.5484 -0.6014  0.6814
 1168SOL    HW213839   1.828   9.048   1.063  1.0724 -0.6511 -0.1062
 1169SOL     OW13840   7.781   5.545   1.195 -0.0882 -0.4539 -0.2462
 1169SOL    HW113841   7.755   5.464   1.249  2.9825 -0.3850  1.4156
 1169SOL    HW213842   7.797   5.517   1.100  0.3355 -1.7017  0.1756
 1170SOL     OW13843   5.238   8.475   2.843 -0.0534 -0.0025 -0.3674
 1170SOL    HW113844   5.241   8.418   2.925  2.1563  0.0421 -0.4001
 1170SOL    HW213845   5.287   8.430   2.769  0.2499  1.1580 -0.8826
 1171SOL     OW13846   1.087   0.196   0.384  0.0200  0.1469 -0.1358
 1171SOL    HW113847   1.088   0.101   0.417 -0.9640  0.0896 -0.2286
 1171SOL    HW213848   1.097   0.197   0.285  0.7555  0.1846 -0.0617
 1172SOL     OW13849   8.544   6.242   0.627  0.0658  0.2985 -0.5482
 1172SOL    HW113850   8.481   6.245   0.549 -0.1115  1.2984 -0.3771
 1172SOL    HW213851   8.591   6.154   0.629 -1.3857 -0.4860 -0.6298
 1173SOL     OW13852   8.334   9.546   2.415  0.0885 -0.5043 -0.2431
 1173SOL    HW113853   8.273   9.615   2.375 -1.7951 -1.3592  1.1036
 1173SOL    HW213854   8.289   9.457   2.414  0.8531 -0.9441  1.7979
 1174SOL     OW13855   3.715   0.585   2.254  0.4340  0.3910 -0.5977
 1174SOL    HW113856   3.735   0.664   2.195 -0.2560 -0.6760 -2.2851
 1174SOL    HW213857   3.648   0.612   2.323  0.9409  1.5485 -0.5399
 1175SOL     OW13858   2.287   8.432   0.042  0.2178  0.2881 -0.0352
 1175SOL    HW113859   2.210   8.391  -0.007  1.0947  0.7526 -1.8334
 1175SOL    HW213860   2.276   8.531   0.045  1.7237  0.5301 -2.0369
 1176SOL     OW13861   4.486   7.796   0.217 -0.4685  0.3417  0.1341
 1176SOL    HW113862   4.569   7.839   0.254 -0.5413 -0.6496  1.4730
 1176SOL    HW213863   4.509   7.704   0.183 -1.0110  0.0737  0.4900
 1177SOL     OW13864   1.251   4.038   1.115 -0.1981 -0.3315  0.8209
 1177SOL    HW113865   1.188   3.962   1.134 -0.7696 -0.6412 -2.1477
 1177SOL    HW213866   1.342   4.002   1.099 -0.1128 -0.2430  1.1090
 1178SOL     OW13867   0.335   3.435   0.339  0.6770 -0.1836  0.5754
 1178SOL    HW113868   0.269   3.368   0.305  0.1888  1.4126 -1.7721
 1178SOL    HW213869   0.303   3.473   0.425 -0.7233 -0.5041  0.2030
 1179SOL     OW13870   9.294   2.010   3.454  0.0419 -0.1293  0.1578
 1179SOL    HW113871   9.228   2.069   3.500  1.7870  0.3693  2.1118
 1179SOL    HW213872   9.360   1.977   3.521  2.5241  0.4028 -1.9621
 1180SOL     OW13873   0.870   3.579   3.548  0.5636 -0.3533 -0.1888
 1180SOL    HW113874   0.791   3.617   3.596  1.1528  0.3069  0.2629
 1180SOL    HW213875   0.940   3.649   3.539  0.7633 -0.6893 -1.3522
 1181SOL     OW13876   4.166   0.343   1.269  0.3584  0.0909  0.1421
 1181SOL    HW113877   4.214   0.377   1.350 -0.0117  1.6969 -0.3051
 1181SOL    HW213878   4.164   0.414   1.199 -0.7475 -0.7325 -0.6700
 1182SOL     OW13879   0.233   8.983   0.917  0.1031 -0.2985 -0.4000
 1182SOL    HW113880   0.305   8.932   0.965 -0.6788 -1.7692 -0.7532
 1182SOL    HW213881   0.174   9.027   0.985 -0.9100 -2.2511  0.0455
 1183SOL     OW13882   2.762   0.038   3.651 -0.6889  0.1884 -0.4181
 1183SOL    HW113883   2.783  -0.026   3.725 -0.9564  0.5543 -0.0219
 1183SOL    HW213884   2.848   0.072   3.611 -0.5480 -0.5981 -0.7942
 1184SOL     OW13885   2.674   1.317   3.810 -0.1826 -0.6171  0.1165
 1184SOL    HW113886   2.605   1.324   3.882  0.0683 -0.1232  0.3120
 1184SOL    HW213887   2.701   1.408   3.781  0.6955 -0.7974  0.3364
 1185SOL     OW13888   2.079   7.166   1.974 -0.1951 -0.1290  0.3620
 1185SOL    HW113889   2.157   7.140   1.918 -0.7298  0.2141 -0.5537
 1185SOL    HW213890   2.097   7.142   2.070  1.5072  1.0582  0.3517
 1186SOL     OW13891   3.148   1.592   2.104 -0.6017  0.1278 -0.5758
 1186SOL    HW113892   3.074   1.534   2.071 -0.8539  0.5622 -0.7841
 1186SOL    HW213893   3.111   1.682   2.130  0.1090  0.9282 -2.2665
 1187SOL     OW13894   3.616   0.475   1.999 -0.5806 -0.1864 -0.3201
 1187SOL    HW113895   3.596   0.571   1.977  0.9727 -0.0786 -1.3227
 1187SOL    HW213896   3.662   0.471   2.088 -0.7243 -0.0127 -0.2367
 1188SOL     OW13897   7.597   1.152   1.820  0.6754  0.0983  0.3201
 1188SOL    HW113898   7.575   1.187   1.911 -1.3110  1.2705 -0.5621
 1188SOL    HW213899   7.594   1.052   1.821  0.4909  0.1091  1.5112
 1189SOL     OW13900   8.350   0.290   0.651 -0.0980 -0.1815 -0.1961
 1189SOL    HW113901   8.448   0.289   0.632 -0.6707 -0.1117 -3.5490
 1189SOL    HW213902   8.329   0.220   0.720  2.4598  0.8217  1.6692
 1190SOL     OW13903   4.077   7.741   2.633 -0.0493 -0.2018 -0.1118
 1190SOL    HW113904   4.130   7.657   2.648  1.3911  0.0706 -3.2738
 1190SOL    HW213905   3.979   7.719   2.635  0.3240 -2.3357 -2.6021
 1191SOL     OW13906   2.696   9.183   0.907  0.6717  0.1296 -0.7079
 1191SOL    HW113907   2.649   9.262   0.868  0.3972  0.4131  0.1843
 1191SOL    HW213908   2.795   9.192   0.893  0.6981  0.9492 -0.0486
 1192SOL     OW13909   3.888   1.348   1.804  0.1975  0.2909  0.3614
 1192SOL    HW113910   3.846   1.258   1.792  0.1383  0.4597 -0.7639
 1192SOL    HW213911   3.988   1.339   1.798  0.1261  0.5455 -1.5843
 1193SOL     OW13912   0.954   4.755   0.756  0.0999  0.4489 -0.1947
 1193SOL    HW113913   0.977   4.777   0.661  0.8072  0.4211 -0.0333
 1193SOL    HW213914   0.913   4.835   0.800 -4.1458 -0.7502 -1.7129
 1194SOL     OW13915   5.426   7.922   2.702  0.0249  0.1181 -0.1257
 1194SOL    HW113916   5.359   7.859   2.662 -0.9791  1.4411 -0.5845
 1194SOL    HW213917   5.511   7.873   2.720 -1.2438 -1.7635  1.0445
 1195SOL     OW13918   1.310   2.619   1.163  1.6842 -0.3897  0.7095
 1195SOL    HW113919   1.302   2.690   1.093  0.0134 -0.3907  0.8782
 1195SOL    HW213920   1.319   2.529   1.118 -1.5689 -0.6369  0.4248
 1196SOL     OW13921   1.812   6.662   0.696 -0.3275 -0.6883 -0.3071
 1196SOL    HW113922   1.896   6.610   0.678 -1.0028 -2.6521  1.9458
 1196SOL    HW213923   1.732   6.608   0.670 -1.0007 -0.2873  0.8911
 1197SOL     OW13924   8.757   9.020   3.788  0.5703 -0.1686  0.1718
 1197SOL    HW113925   8.801   8.934   3.762  0.0936 -1.1454  2.4343
 1197SOL    HW213926   8.827   9.086   3.815  0.9353  0.1558 -1.5534
 1198SOL     OW13927   1.052   0.866   1.335 -0.1373  0.3907  0.7724
 1198SOL    HW113928   1.019   0.807   1.409  1.9327 -0.5443  0.9852
 1198SOL    HW213929   1.035   0.821   1.247  0.1887  0.0807  0.8632
 1199SOL     OW13930   9.626   2.519   2.533 -0.3656  0.2214  1.0292
 1199SOL    HW113931   9.676   2.485   2.612  0.5786  2.0857  1.2580
 1199SOL    HW213932   9.654   2.470   2.451 -0.3134 -0.7392  1.6180
 1200SOL     OW13933   9.534   8.793   0.800  0.7195  0.0959  0.5999
 1200SOL    HW113934   9.506   8.880   0.760  2.3236  1.7229  2.9089
 1200SOL    HW213935   9.456   8.750   0.845 -0.0973  0.3124 -0.5954
 1201SOL     OW13936   9.701   2.094   0.378  0.2170 -0.5871 -0.1317
 1201SOL    HW113937   9.749   2.176   0.408  0.3384  0.0593 -2.0526
 1201SOL    HW213938   9.618   2.082   0.434  1.6903 -0.7857  2.0606
 1202SOL     OW13939   2.350   8.122   1.000 -0.1743 -0.2528  0.1642
 1202SOL    HW113940   2.340   8.188   1.075  1.6299  0.1776  0.0420
 1202SOL    HW213941   2.365   8.031   1.037 -0.1713 -0.1860  0.3278
 1203SOL     OW13942   6.394   8.990   2.706 -0.0583  0.2059  0.1127
 1203SOL    HW113943   6.465   8.920   2.710 -0.1320  0.1669  0.7314
 1203SOL    HW213944   6.422   9.061   2.641  0.4426  0.0790  0.1888
 1204SOL     OW13945   8.427   9.104   2.858 -0.0977 -0.3678 -0.3346
 1204SOL    HW113946   8.391   9.174   2.921 -2.4191 -0.2524 -1.7036
 1204SOL    HW213947   8.438   9.144   2.767 -1.2056 -1.6882 -1.0719
 1205SOL     OW13948   9.617   2.499   0.734 -0.0641  0.5281  0.4564
 1205SOL    HW113949   9.643   2.461   0.822  0.4459  2.2697  1.0814
 1205SOL    HW213950   9.699   2.525   0.683 -0.3364 -0.9881 -0.7790
 1206SOL     OW13951   7.325   9.442   0.012 -0.2672  0.1771 -0.4822
 1206SOL    HW113952   7.231   9.474   0.022 -0.7970 -0.4359 -3.1437
 1206SOL    HW213953   7.371   9.495  -0.060  1.0299 -0.3394 -0.0437
 1207SOL     OW13954   4.782   3.438   1.124  0.1477 -0.6542  0.0411
 1207SOL    HW113955   4.803   3.487   1.039 -3.7756 -0.2347 -0.7633
 1207SOL    HW213956   4.792   3.500   1.202  1.8685 -0.5175 -0.2601
 1208SOL     OW13957   3.082   6.740   3.090 -0.1283 -0.0519 -0.3069
 1208SOL    HW113958   3.117   6.655   3.051 -2.0256  0.0429 -2.3082
 1208SOL    HW213959   3.006   6.719   3.152 -0.3196  0.1612 -0.4695
 1209SOL     OW13960   1.594   5.981   0.789  0.4894 -0.0578 -0.1596
 1209SOL    HW113961   1.559   6.075   0.793  0.4079 -0.1170  0.5965
 1209SOL    HW213962   1.629   5.955   0.879 -0.9428 -1.3111  0.0553
 1210SOL     OW13963   7.589   8.180   0.847  0.0446 -0.1196  0.3322
 1210SOL    HW113964   7.664   8.120   0.823 -1.1273 -1.8002  0.7668
 1210SOL    HW213965   7.602   8.214   0.940  0.5338  0.0225  0.2130
 1211SOL     OW13966   0.938   3.055   3.714  0.2358 -0.7249  0.2117
 1211SOL    HW113967   0.910   3.051   3.810  1.9303 -0.3635  0.7460
 1211SOL    HW213968   0.881   2.994   3.660 -2.3327  0.8696  1.0334
 1212SOL     OW13969   0.276   7.379   3.500  0.1800 -0.3666 -0.1832
 1212SOL    HW113970   0.208   7.338   3.440  0.0831  1.2657 -1.2404
 1212SOL    HW213971   0.325   7.451   3.450  0.5079  0.6072  1.5114
 1213SOL     OW13972   3.836   9.970   3.994  0.0056  0.4664  0.1572
 1213SOL    HW113973   3.822  10.025   4.076  1.1568  1.4654 -0.3014
 1213SOL    HW213974   3.843  10.029   3.914  4.3423 -0.0400  0.0316
 1214SOL     OW13975   3.809   0.686   0.815  0.1494  0.0890 -0.2829
 1214SOL    HW113976   3.877   0.637   0.870 -0.1120 -0.2051 -0.2281
 1214SOL    HW213977   3.761   0.622   0.755  0.4065  0.4036 -0.8274
 1215SOL     OW13978   2.507   9.426   0.558  0.4315  0.4659 -0.2490
 1215SOL    HW113979   2.416   9.387   0.548 -0.0813  1.6007 -0.0243
 1215SOL    HW213980   2.575   9.354   0.547 -0.5015 -0.4695  0.0333
 1216SOL     OW13981   4.223   0.457   2.216 -0.1742 -0.2150 -0.1703
 1216SOL    HW113982   4.189   0.551   2.207  1.7301  0.3446 -1.6748
 1216SOL    HW213983   4.216   0.410   2.129 -1.1165 -1.5053  0.5779
 1217SOL     OW13984   3.128   6.995   3.792  0.3987  0.0319  0.0408
 1217SOL    HW113985   3.196   6.958   3.728 -0.3349  0.1590 -0.8365
 1217SOL    HW213986   3.147   7.092   3.807 -0.5507  0.4813 -1.5186
 1218SOL     OW13987   8.313   9.477   1.807  0.2120  0.0543  0.3805
 1218SOL    HW113988   8.374   9.444   1.880  1.6668  2.3391  0.2479
 1218SOL    HW213989   8.360   9.471   1.719 -1.2793 -1.9955 -0.3154
 1219SOL     OW13990   0.945   3.495   2.186 -0.1185  0.1558  0.4620
 1219SOL    HW113991   1.007   3.466   2.113 -0.2426  1.3923 -0.1600
 1219SOL    HW213992   0.917   3.416   2.240 -0.0713 -0.7930 -0.8681
 1220SOL     OW13993   3.566   3.879   0.365 -0.2046  0.3626 -0.7118
 1220SOL    HW113994   3.531   3.957   0.312 -0.5163  1.1283  0.5812
 1220SOL    HW213995   3.589   3.910   0.457 -0.2746 -1.0810 -0.2026
 1221SOL     OW13996   0.086   9.929   0.935  0.7733 -0.1755 -0.1312
 1221SOL    HW113997   0.104   9.927   0.837 -0.9008 -0.8637 -0.4430
 1221SOL    HW213998   0.127  10.011   0.975  2.7938 -0.6710 -1.1251
 1222SOL     OW13999   2.802   4.183   1.504 -0.6511 -0.8505  0.0513
 1222SOL    HW114000   2.703   4.171   1.495 -0.7311 -1.4856  1.6761
 1222SOL    HW214001   2.848   4.101   1.471 -0.6214 -0.2526 -1.4293
 1223SOL     OW14002   1.583   9.368   0.102  0.6680  0.1306 -0.5566
 1223SOL    HW114003   1.639   9.452   0.101 -0.7550  1.1074 -0.0885
 1223SOL    HW214004   1.619   9.306   0.172 -0.1360  1.6843  1.2951
 1224SOL     OW14005   8.490   0.125   1.526 -0.0415 -0.2842  0.6595
 1224SOL    HW114006   8.401   0.086   1.548 -0.2079 -0.0672  0.3613
 1224SOL    HW214007   8.562   0.059   1.549 -0.3688 -1.0954 -0.6615
 1225SOL     OW14008   1.765   6.392   2.118  0.4268 -0.5515 -0.2194
 1225SOL    HW114009   1.740   6.391   2.021  1.5883 -1.5091 -0.5128
 1225SOL    HW214010   1.834   6.463   2.133 -0.3113  0.1093  0.0462
 1226SOL     OW14011   4.675   7.753   1.271 -0.5954  0.2064  0.1691
 1226SOL    HW114012   4.766   7.735   1.309 -0.0479  1.4721 -0.5091
 1226SOL    HW214013   4.606   7.738   1.342  0.3533  1.6995  1.4467
 1227SOL     OW14014   3.459   1.516   1.783  0.1400 -0.0384 -0.2312
 1227SOL    HW114015   3.396   1.520   1.706 -0.7583 -0.2809  0.4763
 1227SOL    HW214016   3.548   1.553   1.756 -1.1786  3.1145 -0.3942
 1228SOL     OW14017   1.651   3.360   4.015  0.0470  0.2319 -0.0046
 1228SOL    HW114018   1.698   3.448   4.026 -0.0552  0.2023  0.6851
 1228SOL    HW214019   1.571   3.372   3.956  0.5414  0.4182 -0.6442
 1229SOL     OW14020   0.038   8.709   2.537  0.3572  0.0408  0.2919
 1229SOL    HW114021   0.101   8.663   2.599 -1.0743 -3.6299 -0.8780
 1229SOL    HW214022   0.070   8.698   2.443 -1.2389 -0.5793 -0.1862
 1230SOL     OW14023   3.735   4.719   1.495 -0.3009  0.5266  0.6204
 1230SOL    HW114024   3.641   4.721   1.531 -0.2580 -1.1131  0.8650
 1230SOL    HW214025   3.744   4.788   1.423 -1.9540  0.1062 -0.0311
 1231SOL     OW14026   6.079   9.528   3.217 -0.2626  0.2893 -0.6523
 1231SOL    HW114027   6.091   9.537   3.118 -1.0542 -0.6101 -0.8418
 1231SOL    HW214028   6.099   9.615   3.261 -0.3260  0.8140 -1.6432
 1232SOL     OW14029   8.695   0.971   3.460 -0.0234 -0.0378  0.0657
 1232SOL    HW114030   8.781   0.926   3.435 -0.4078 -1.5907  1.4174
 1232SOL    HW214031   8.704   1.009   3.553 -0.7400 -0.0814  0.1541
 1233SOL     OW14032   3.695   4.544   2.272 -0.4054  0.6414 -0.5033
 1233SOL    HW114033   3.630   4.469   2.264  1.2285 -0.8327 -0.2979
 1233SOL    HW214034   3.646   4.631   2.281 -2.3101 -0.2937 -1.7235
 1234SOL     OW14035   9.893   2.907   2.266 -0.2503 -0.1402  0.3670
 1234SOL    HW114036   9.879   2.991   2.212 -0.2937 -1.4996 -1.8011
 1234SOL    HW214037   9.804   2.867   2.288 -0.2477  0.6738  1.8867
 1235SOL     OW14038   9.372   8.681   1.425  0.6217  0.0786 -0.1314
 1235SOL    HW114039   9.353   8.762   1.369  1.6713 -0.0773 -0.7207
 1235SOL    HW214040   9.353   8.599   1.372 -0.0466 -0.0621  0.3289
 1236SOL     OW14041   9.136   7.413   0.894  0.1545  0.1407  0.1592
 1236SOL    HW114042   9.126   7.344   0.822  0.7634  1.3082 -1.0490
 1236SOL    HW214043   9.045   7.447   0.920 -0.0477 -0.0690 -0.2655
 1237SOL     OW14044   0.418   1.238   3.098 -0.1989  0.7735  0.0198
 1237SOL    HW114045   0.418   1.147   3.139 -0.1684 -0.1736 -2.0133
 1237SOL    HW214046   0.371   1.302   3.158 -1.8241 -0.9677  0.6636
 1238SOL     OW14047   2.315   1.834   0.728 -0.2955  0.5066  0.2365
 1238SOL    HW114048   2.315   1.927   0.692 -0.5641  0.7549  0.8745
 1238SOL    HW214049   2.248   1.827   0.802  0.9494  0.2499  1.3489
 1239SOL     OW14050   2.435   0.867   0.256 -0.6855 -0.0197  0.1433
 1239SOL    HW114051   2.439   0.814   0.341  0.2530 -0.6968 -0.3135
 1239SOL    HW214052   2.380   0.818   0.189  1.6180 -1.3175 -0.8720
 1240SOL     OW14053   4.009   1.693   0.915  0.8224  0.1430  0.0957
 1240SOL    HW114054   4.016   1.619   0.982 -0.0018  1.2348  1.4059
 1240SOL    HW214055   4.009   1.781   0.962  1.2149  0.9700 -1.4161
 1241SOL     OW14056   3.733   9.033   0.992 -0.1983 -0.0334 -0.0166
 1241SOL    HW114057   3.719   9.018   1.090  1.6476  0.6279  0.3565
 1241SOL    HW214058   3.644   9.040   0.947 -1.2164  5.2680  2.4829
 1242SOL     OW14059   9.047   7.969   0.152 -0.4975  0.1365 -1.0033
 1242SOL    HW114060   9.134   8.002   0.114 -0.0689 -0.2341 -0.3464
 1242SOL    HW214061   9.007   7.902   0.089 -1.2221  1.6421 -2.1998
 1243SOL     OW14062   8.043   5.939   1.103  0.4074 -0.4180 -0.7739
 1243SOL    HW114063   8.038   6.039   1.104  0.6628 -0.4095 -0.2157
 1243SOL    HW214064   7.970   5.901   1.160  0.7527 -0.5325 -0.4068
 1244SOL     OW14065   2.762   8.034   3.446 -0.2221  0.2901  0.2154
 1244SOL    HW114066   2.698   8.105   3.479  0.1845 -0.6110  3.0925
 1244SOL    HW214067   2.755   7.953   3.504  3.0108 -0.1153  0.1394
 1245SOL     OW14068   8.798   3.035   3.868 -0.2154 -0.0070 -0.0849
 1245SOL    HW114069   8.801   3.094   3.787 -2.8799 -0.8049 -0.8322
 1245SOL    HW214070   8.723   3.065   3.928  0.0760 -1.0264  0.8017
 1246SOL     OW14071   2.033   6.013   3.818  0.3783  0.0228  0.5431
 1246SOL    HW114072   1.992   5.994   3.908  2.4839 -2.1222  1.1077
 1246SOL    HW214073   2.132   6.002   3.824  0.6526  0.9758 -1.7973
 1247SOL     OW14074   0.327   2.703   3.501 -0.0972 -0.5509 -0.2521
 1247SOL    HW114075   0.375   2.787   3.475 -1.5728  0.5684  0.5810
 1247SOL    HW214076   0.245   2.726   3.555 -0.3348 -2.5333  0.2817
 1248SOL     OW14077   9.526   3.907   0.303 -0.1626 -0.0681  0.1760
 1248SOL    HW114078   9.467   3.830   0.329 -0.5460  0.5909  1.3005
 1248SOL    HW214079   9.622   3.880   0.311 -0.2956 -0.5999  0.0209
 1249SOL     OW14080   2.972   6.583   3.697 -0.0409 -0.1358  0.0417
 1249SOL    HW114081   2.900   6.529   3.742  0.6126  0.5553  1.9666
 1249SOL    HW214082   3.058   6.573   3.748  0.8549  0.2629 -1.3611
 1250SOL     OW14083   9.717   1.266   1.680 -0.6096  0.7863 -0.0846
 1250SOL    HW114084   9.749   1.255   1.774 -1.8226 -1.7005  0.0797
 1250SOL    HW214085   9.617   1.266   1.678 -0.6326  3.7254 -1.0970
 1251SOL     OW14086   8.053   8.182   0.743  0.5253  0.3404 -0.1358
 1251SOL    HW114087   8.107   8.143   0.668 -0.2075  2.1120 -1.6380
 1251SOL    HW214088   8.113   8.234   0.804  1.1672 -1.3269  0.6719
 1252SOL     OW14089   8.050   8.562   0.938 -0.1318 -0.4408 -0.3937
 1252SOL    HW114090   8.051   8.619   1.020  2.5091  0.0235 -0.6928
 1252SOL    HW214091   7.962   8.515   0.931 -0.2877 -0.7533  2.8643
 1253SOL     OW14092   2.152   7.099   2.223  0.2871  0.5278  0.1157
 1253SOL    HW114093   2.239   7.075   2.267  0.4894  0.1649 -0.4808
 1253SOL    HW214094   2.101   7.161   2.283  0.4236 -0.2063  0.9962
 1254SOL     OW14095   1.042   0.860   0.616 -0.1929  0.0452  0.0731
 1254SOL    HW114096   1.066   0.855   0.519 -0.1138  0.3944  0.0759
 1254SOL    HW214097   1.124   0.882   0.669 -0.3062  0.1906  0.1863
 1255SOL     OW14098   1.073   2.405   1.850  0.2689  0.0780 -0.7089
 1255SOL    HW114099   1.110   2.368   1.765  2.8335 -1.1799  0.8851
 1255SOL    HW214100   1.091   2.342   1.925 -1.0079  1.6374  0.9780
 1256SOL     OW14101   2.750   1.572   3.790  0.6831  0.2759 -0.2158
 1256SOL    HW114102   2.737   1.628   3.872  0.7921 -2.2598  1.6016
 1256SOL    HW214103   2.848   1.565   3.770  0.6119  1.5772 -1.0858
 1257SOL     OW14104   7.856   7.772   0.333  0.0076  0.0659 -0.5182
 1257SOL    HW114105   7.876   7.674   0.325 -5.0479 -0.9350 -2.5845
 1257SOL    HW214106   7.894   7.820   0.255  1.2395 -0.4478 -0.2526
 1258SOL     OW14107   2.116   2.745   2.071 -0.0100 -0.1907 -0.0987
 1258SOL    HW114108   2.112   2.840   2.100  3.1190 -0.1872  0.4341
 1258SOL    HW214109   2.076   2.687   2.142  0.7095  0.4881  0.8705
 1259SOL     OW14110   7.581   9.470   0.108 -0.2542 -0.1518  0.0725
 1259SOL    HW114111   7.627   9.535   0.169  0.3817  0.1912 -0.7401
 1259SOL    HW214112   7.483   9.476   0.121 -0.4095  2.9613 -1.8439
 1260SOL     OW14113   9.262   3.403   3.779 -0.8769 -0.0218  0.0790
 1260SOL    HW114114   9.279   3.461   3.699 -0.9857  0.9135  0.7218
 1260SOL    HW214115   9.228   3.460   3.854 -0.9318 -0.9187  0.7371
 1261SOL     OW14116   2.993   2.401   0.177 -0.3692  0.6384 -0.0883
 1261SOL    HW114117   2.946   2.489   0.185 -0.3692  0.5119  1.4865
 1261SOL    HW214118   2.983   2.366   0.084 -1.0051  1.9455 -0.5254
 1262SOL     OW14119   8.869   1.569   2.119  0.5751 -0.2696  0.4905
 1262SOL    HW114120   8.774   1.597   2.129  0.7877  1.5306 -1.9830
 1262SOL    HW214121   8.874   1.485   2.066  0.3676 -0.4097  0.6923
 1263SOL     OW14122   2.414   6.247   0.324  0.2170  0.9420 -0.0455
 1263SOL    HW114123   2.449   6.186   0.253 -1.3487 -0.1970  0.1392
 1263SOL    HW214124   2.318   6.269   0.305  0.1483  1.6085  1.0524
 1264SOL     OW14125   3.332   2.124   3.730  0.2660 -0.1867  0.2914
 1264SOL    HW114126   3.346   2.134   3.631 -0.1814 -2.6653 -0.0601
 1264SOL    HW214127   3.261   2.188   3.761  0.4545  0.6490 -0.9763
 1265SOL     OW14128   9.222   9.102   0.985  0.3033  0.0252 -0.2258
 1265SOL    HW114129   9.191   9.081   1.077  1.6276  2.1186  0.7311
 1265SOL    HW214130   9.307   9.052   0.966  0.8675  0.7858  0.2751
 1266SOL     OW14131   7.583   9.960   3.460 -0.2376 -0.0905  0.9693
 1266SOL    HW114132   7.672   9.989   3.426 -0.2641 -1.4088 -0.2974
 1266SOL    HW214133   7.511   9.996   3.400 -0.4458 -0.3717  1.0496
 1267SOL     OW14134   2.563   2.811   1.310  0.2094  0.2362  0.0534
 1267SOL    HW114135   2.573   2.789   1.407  1.0791 -1.2495 -0.3672
 1267SOL    HW214136   2.653   2.833   1.271  0.1150 -0.8733 -0.8145
 1268SOL     OW14137   8.572   6.285   0.879  0.2770  0.0933 -0.6979
 1268SOL    HW114138   8.558   6.254   0.785  2.1316  1.8831 -1.5930
 1268SOL    HW214139   8.658   6.248   0.914  0.9579  1.6304 -0.6900
 1269SOL     OW14140   1.490   3.226   1.737 -0.4867 -0.1450 -0.2927
 1269SOL    HW114141   1.590   3.228   1.738 -0.5000  0.3722  0.2563
 1269SOL    HW214142   1.457   3.174   1.816 -0.6478 -0.7771 -0.7666
 1270SOL     OW14143   1.185   4.826   3.532 -0.1348 -0.2099  0.0137
 1270SOL    HW114144   1.218   4.737   3.564 -1.9835 -1.3803 -1.2318
 1270SOL    HW214145   1.111   4.857   3.591  0.2641  0.3420  0.2293
 1271SOL     OW14146   0.734   0.139   2.184 -0.1145 -0.2512  0.4556
 1271SOL    HW114147   0.758   0.137   2.282  1.7693  2.4478  0.1028
 1271SOL    HW214148   0.755   0.050   2.144  0.3892 -0.9688  2.2209
 1272SOL     OW14149   9.486   1.883   0.496  0.0933  0.1332 -0.0889
 1272SOL    HW114150   9.564   1.886   0.558  0.2369 -1.2328 -0.1954
 1272SOL    HW214151   9.401   1.893   0.548  0.3207  1.4913  0.0405
 1273SOL     OW14152   3.048   0.837   2.412  0.2518 -0.3584 -0.0607
 1273SOL    HW114153   2.980   0.905   2.439 -0.8263 -0.7129 -1.8190
 1273SOL    HW214154   3.002   0.752   2.388  1.5647 -1.6323  1.7688
 1274SOL     OW14155   2.324   1.597   3.715  0.2215  0.2559 -0.0833
 1274SOL    HW114156   2.349   1.625   3.807  0.9707 -2.8141  0.6986
 1274SOL    HW214157   2.406   1.580   3.661 -0.1215 -2.9221  0.3049
 1275SOL     OW14158   7.993   1.171   3.689  0.2584 -0.0743  0.4391
 1275SOL    HW114159   8.060   1.186   3.761  1.0628  0.2523 -0.3748
 1275SOL    HW214160   7.908   1.136   3.729  1.0558 -0.9090  1.4152
 1276SOL     OW14161   6.693   0.307   2.357 -0.6437  0.0106  0.0074
 1276SOL    HW114162   6.737   0.323   2.445 -2.0205  1.4778  0.4571
 1276SOL    HW214163   6.665   0.211   2.350  0.7018 -0.4344  0.5767
 1277SOL     OW14164   9.613   0.842   1.600 -0.0456  0.7932 -0.0859
 1277SOL    HW114165   9.662   0.788   1.669  0.3334  0.7469 -0.3900
 1277SOL    HW214166   9.572   0.922   1.644  0.0286  0.6626  0.2290
 1278SOL     OW14167   7.817   8.443   0.896 -0.2753  0.8740 -0.1020
 1278SOL    HW114168   7.769   8.395   0.970 -1.1597  1.8721 -0.0209
 1278SOL    HW214169   7.794   8.400   0.809  0.1719  0.1727  0.1168
 1279SOL     OW14170   1.324   3.617   2.141  0.6330 -0.0764 -0.9401
 1279SOL    HW114171   1.350   3.560   2.064 -0.7505  0.1899 -1.6226
 1279SOL    HW214172   1.247   3.575   2.190  0.4036  0.5882 -0.7139
 1280SOL     OW14173   1.931   7.590   1.172 -0.2164 -0.6610 -0.0682
 1280SOL    HW114174   2.016   7.540   1.157  1.1256  1.5448  0.0160
 1280SOL    HW214175   1.865   7.564   1.102  1.0561 -1.2470 -1.0715
 1281SOL     OW14176   2.615   5.934   2.851  0.0553  0.0537 -0.2553
 1281SOL    HW114177   2.538   5.998   2.850  0.2530  0.3144  0.3483
 1281SOL    HW214178   2.587   5.846   2.814 -1.3691 -0.7884  2.7195
 1282SOL     OW14179   0.750   7.760   3.443 -0.3194  0.1646 -0.2049
 1282SOL    HW114180   0.699   7.823   3.501  1.4501  1.7439 -0.3286
 1282SOL    HW214181   0.835   7.802   3.413  0.0126 -1.5713 -1.8821
 1283SOL     OW14182   2.932   2.651   2.532  0.2083 -0.5434  0.4812
 1283SOL    HW114183   2.934   2.555   2.506 -1.9546 -0.1725 -1.2068
 1283SOL    HW214184   2.972   2.707   2.459  0.3803 -0.0431  0.9474
 1284SOL     OW14185   3.561   4.100   1.546  0.3384  0.4406 -0.0812
 1284SOL    HW114186   3.539   4.063   1.636 -1.3931  0.8315 -0.3340
 1284SOL    HW214187   3.481   4.145   1.507  1.4778  1.5504 -1.2044
 1285SOL     OW14188   9.497   8.238   3.408  0.0175  0.5362 -0.3499
 1285SOL    HW114189   9.546   8.298   3.470  3.0279 -1.2164 -0.9668
 1285SOL    HW214190   9.487   8.147   3.450 -0.3909  0.1386 -1.2949
 1286SOL     OW14191   1.431   8.617   1.635 -0.5107 -0.8429  0.4415
 1286SOL    HW114192   1.463   8.712   1.639 -1.2144 -0.5751 -0.0838
 1286SOL    HW214193   1.489   8.560   1.692 -0.1238 -0.0799  0.8245
 1287SOL     OW14194   3.274   9.248   2.088  0.4912  0.2425 -0.0113
 1287SOL    HW114195   3.254   9.218   1.995  0.6225  0.4966 -0.1214
 1287SOL    HW214196   3.364   9.214   2.115  0.1116 -0.5108  0.3163
 1288SOL     OW14197   2.724   4.609   0.647 -0.1413  0.0681 -0.2199
 1288SOL    HW114198   2.633   4.618   0.607 -0.5044  1.2269  0.8474
 1288SOL    HW214199   2.792   4.608   0.573 -0.9816 -0.3985 -1.0006
 1289SOL     OW14200   5.774   8.374   2.919  0.6361 -0.2443 -0.2478
 1289SOL    HW114201   5.719   8.421   2.850  1.2152 -0.3155 -0.7589
 1289SOL    HW214202   5.733   8.284   2.938 -1.2565  0.9825  1.7352
 1290SOL     OW14203   3.130   4.894   3.759 -0.5015 -0.4779 -0.4622
 1290SOL    HW114204   3.042   4.909   3.805 -0.0936 -2.0543  0.8780
 1290SOL    HW214205   3.115   4.885   3.661 -1.5881  1.2514 -0.4787
 1291SOL     OW14206   1.327   8.132   0.110  0.1901  0.5866 -0.3308
 1291SOL    HW114207   1.358   8.116   0.204  1.4674  2.6488 -0.3623
 1291SOL    HW214208   1.303   8.045   0.067  0.4598 -0.4680  1.6111
 1292SOL     OW14209   2.166   8.502   1.383 -0.6790  0.2081 -0.1461
 1292SOL    HW114210   2.085   8.510   1.441 -0.2399 -0.9852  0.6326
 1292SOL    HW214211   2.239   8.560   1.420 -0.5581 -0.1740  0.2112
 1293SOL     OW14212   3.432   3.734   3.508  0.1010  0.0609 -0.4942
 1293SOL    HW114213   3.342   3.740   3.464  0.7298 -0.9064 -1.9623
 1293SOL    HW214214   3.428   3.667   3.582 -0.9469  1.6409  0.9219
 1294SOL     OW14215   2.255   5.995   0.763  0.2060 -0.3511 -0.0020
 1294SOL    HW114216   2.345   6.038   0.769 -0.4059  0.6844  1.9888
 1294SOL    HW214217   2.229   5.958   0.852 -2.5548  1.9153  0.2209
 1295SOL     OW14218   0.101   9.797   0.681 -0.1025 -0.1571 -0.6336
 1295SOL    HW114219   0.010   9.763   0.657 -0.5512  0.5286  0.1177
 1295SOL    HW214220   0.133   9.860   0.610 -1.3588  1.7325  0.4510
 1296SOL     OW14221   2.349   6.233   2.041 -0.0902  0.1550 -0.3137
 1296SOL    HW114222   2.398   6.159   1.995 -1.1617 -0.5767 -0.3036
 1296SOL    HW214223   2.261   6.249   1.995  0.3424  1.7477 -0.6091
 1297SOL     OW14224   4.505   7.442   0.681  0.8676  0.1993  0.0605
 1297SOL    HW114225   4.554   7.357   0.702  0.5413  0.0686  0.2989
 1297SOL    HW214226   4.440   7.425   0.607 -0.2267 -0.1103  1.0945
 1298SOL     OW14227   8.393   0.535   1.693  0.3774  0.7004 -0.8058
 1298SOL    HW114228   8.462   0.517   1.623 -0.8192 -1.3780 -1.4964
 1298SOL    HW214229   8.307   0.491   1.667 -0.5575  1.3062  1.1635
 1299SOL     OW14230   9.354   3.324   0.070 -0.0692 -0.6864  0.1361
 1299SOL    HW114231   9.359   3.294   0.165  1.3680  1.8180  0.9027
 1299SOL    HW214232   9.303   3.410   0.065  1.0196 -0.0977 -1.1582
 1300SOL     OW14233   1.815   1.802   1.023  0.1594 -0.0741 -0.6321
 1300SOL    HW114234   1.804   1.853   0.937 -2.0837 -0.8952 -0.8611
 1300SOL    HW214235   1.790   1.707   1.009  1.1097 -0.5185  0.6210
 1301SOL     OW14236   1.142   5.609   3.776 -0.0661  0.2672  0.0752
 1301SOL    HW114237   1.177   5.669   3.704  1.1470 -0.7711 -0.2218
 1301SOL    HW214238   1.175   5.641   3.865  1.0510 -0.2575 -0.1344
 1302SOL     OW14239   6.476   8.524   1.954 -0.4348  0.0920  0.0151
 1302SOL    HW114240   6.457   8.591   2.025 -2.1821 -0.7634  0.3871
 1302SOL    HW214241   6.390   8.484   1.922  0.0089  2.3767 -4.5210
 1303SOL     OW14242   2.025   3.827   3.491  0.0501  0.1906  0.3578
 1303SOL    HW114243   1.966   3.804   3.568  0.6541 -0.6795  0.5649
 1303SOL    HW214244   2.014   3.759   3.418  1.5452 -0.5526  0.8122
 1304SOL     OW14245   6.868   9.351   1.310  0.5774  0.6616 -0.1967
 1304SOL    HW114246   6.912   9.347   1.220  0.0920 -0.0003 -0.4047
 1304SOL    HW214247   6.914   9.420   1.366  1.2129  0.7090 -0.7706
 1305SOL     OW14248   8.092   2.926   2.656  0.2772  0.9837  0.0758
 1305SOL    HW114249   8.011   2.870   2.642  0.0318  1.2911  0.2472
 1305SOL    HW214250   8.136   2.900   2.742 -0.0400  1.2933  0.3356
 1306SOL     OW14251   1.120   7.322   2.004  0.2660 -0.2339 -0.8639
 1306SOL    HW114252   1.199   7.372   2.039 -0.4314  1.3697 -1.5165
 1306SOL    HW214253   1.069   7.381   1.941 -2.2000 -0.8002  0.5783
 1307SOL     OW14254   8.585   9.364   3.088  0.1005  0.2731 -0.3057
 1307SOL    HW114255   8.637   9.421   3.025  1.4131 -0.9823 -0.3717
 1307SOL    HW214256   8.627   9.274   3.094 -1.3623 -0.3647  0.5874
 1308SOL     OW14257   8.161   4.089   0.657  0.8302 -0.3086 -0.4801
 1308SOL    HW114258   8.066   4.121   0.651  0.1301 -2.1913  0.2158
 1308SOL    HW214259   8.219   4.163   0.692 -0.7809  0.1683  1.2732
 1309SOL     OW14260   8.879   3.395   1.928  0.2442  0.0057  0.3715
 1309SOL    HW114261   8.921   3.394   1.838  0.0028  0.2040  0.2571
 1309SOL    HW214262   8.929   3.458   1.988 -0.2237  0.6679  0.0743
 1310SOL     OW14263   4.035   3.114   2.569 -0.1430  0.1109  0.0324
 1310SOL    HW114264   3.953   3.124   2.625 -0.8392 -0.7782 -0.8059
 1310SOL    HW214265   4.076   3.204   2.554 -0.4164  0.4439  1.2697
 1311SOL     OW14266   2.654   7.694   3.859 -0.0444  0.2220  0.6138
 1311SOL    HW114267   2.581   7.642   3.904 -1.7284  1.5496 -0.5853
 1311SOL    HW214268   2.620   7.735   3.775  3.0760 -2.2508 -2.0185
 1312SOL     OW14269   3.380   3.841   0.839 -0.3962 -0.0775  0.0853
 1312SOL    HW114270   3.421   3.764   0.790 -0.9828  0.2317 -0.9097
 1312SOL    HW214271   3.311   3.807   0.902 -0.2862 -0.4087  0.0291
 1313SOL     OW14272   8.323   8.321   1.620 -0.1765  0.3295  0.2793
 1313SOL    HW114273   8.389   8.391   1.593  0.0638  0.1391  0.3673
 1313SOL    HW214274   8.371   8.248   1.669 -0.3687 -0.0586 -0.1003
 1314SOL     OW14275   7.332   8.813   2.010  0.4215 -0.0476  0.1275
 1314SOL    HW114276   7.351   8.797   2.107 -0.2173  1.9068  0.6087
 1314SOL    HW214277   7.294   8.905   1.999  1.6344  0.2199 -2.1286
 1315SOL     OW14278   9.852   3.183   0.067 -0.1941  0.0022 -0.6531
 1315SOL    HW114279   9.770   3.182   0.009  0.8793 -1.7016 -2.1862
 1315SOL    HW214280   9.927   3.136   0.020  0.8579 -0.9827  1.9201
 1316SOL     OW14281   3.420   1.805   1.837  0.4304  0.1177  0.4346
 1316SOL    HW114282   3.405   1.714   1.875  1.1726 -0.2445 -0.1413
 1316SOL    HW214283   3.417   1.872   1.911 -1.4667 -0.2145  0.6894
 1317SOL     OW14284   7.264   9.480   2.473  0.4270  0.1988  0.1076
 1317SOL    HW114285   7.299   9.424   2.547  0.6389  0.0381 -0.1114
 1317SOL    HW214286   7.193   9.430   2.423 -1.4613  1.2398  1.7061
 1318SOL     OW14287   9.326   1.159   1.109  0.2719  0.4682  0.0447
 1318SOL    HW114288   9.383   1.210   1.174  0.0712  0.3802  0.2910
 1318SOL    HW214289   9.369   1.160   1.018 -0.7588  2.8891 -0.4541
 1319SOL     OW14290   8.126   1.410   0.631 -0.0280 -0.6019 -0.0754
 1319SOL    HW114291   8.167   1.458   0.554  2.4767 -1.0993  0.8994
 1319SOL    HW214292   8.044   1.362   0.601 -0.2031  0.8250 -1.9694
 1320SOL     OW14293   3.078   5.147   2.080  0.4845  0.6246 -0.6639
 1320SOL    HW114294   2.985   5.125   2.053  0.6186 -0.3273 -0.3559
 1320SOL    HW214295   3.120   5.207   2.012  0.6518 -1.3077 -2.3077
 1321SOL     OW14296   1.426   6.105   3.354  0.4379  0.2398  0.3600
 1321SOL    HW114297   1.469   6.129   3.441  2.1141 -0.4050 -0.2693
 1321SOL    HW214298   1.475   6.150   3.279  0.0523 -0.5311 -0.3679
 1322SOL     OW14299   3.241   9.097   2.531  0.9215  0.1867  0.3525
 1322SOL    HW114300   3.259   9.086   2.433  0.5236 -0.8461  0.3875
 1322SOL    HW214301   3.227   9.007   2.573  1.8039  0.5582  1.4981
 1323SOL     OW14302   9.679   8.441   2.329  0.0446 -0.3708 -0.6801
 1323SOL    HW114303   9.713   8.522   2.377 -0.8380  0.0260 -0.7119
 1323SOL    HW214304   9.582   8.427   2.351  0.2872 -1.6367 -0.3798
 1324SOL     OW14305   4.148   4.827   2.635  0.1051 -0.0438  0.0242
 1324SOL    HW114306   4.177   4.887   2.710 -0.1806  0.6717 -0.4258
 1324SOL    HW214307   4.186   4.862   2.549  0.4958 -0.9033 -0.1604
 1325SOL     OW14308   4.126   8.425   2.692  0.6958  0.2551 -0.4761
 1325SOL    HW114309   4.073   8.472   2.763 -0.4059  0.4073 -1.3694
 1325SOL    HW214310   4.140   8.330   2.717  0.2019  0.2784 -0.1114
 1326SOL     OW14311   3.636   6.132   2.642 -0.1420 -0.5103  0.1376
 1326SOL    HW114312   3.677   6.157   2.554  0.5868 -0.0017  0.6141
 1326SOL    HW214313   3.588   6.211   2.680 -0.3479 -0.6938  0.2595
 1327SOL     OW14314   3.008   9.547   0.896 -0.1473  0.2785  0.4004
 1327SOL    HW114315   2.943   9.564   0.822  0.0124  0.8387  0.3858
 1327SOL    HW214316   2.968   9.579   0.982  0.0359  0.4670  0.4165
 1328SOL     OW14317   2.999   6.651   2.479 -0.0587 -0.5910 -0.6223
 1328SOL    HW114318   3.014   6.649   2.380  2.1334 -0.3825 -0.3143
 1328SOL    HW214319   3.054   6.580   2.523  2.2087  1.9811  0.8358
 1329SOL     OW14320   6.418   9.682   3.342 -0.1196 -0.0642  0.1830
 1329SOL    HW114321   6.410   9.703   3.244 -1.6333 -0.5127  0.1998
 1329SOL    HW214322   6.343   9.726   3.391  1.9005  2.0812  1.4863
 1330SOL     OW14323   3.366   2.422   3.901  0.1473 -0.4805 -0.0759
 1330SOL    HW114324   3.272   2.388   3.897  0.0299 -0.2087  0.2805
 1330SOL    HW214325   3.366   2.514   3.940  0.6828 -0.9439  1.0250
 1331SOL     OW14326   7.156   9.317   2.056 -0.0431 -0.0637  0.1259
 1331SOL    HW114327   7.247   9.352   2.079  0.7028 -2.6191  1.2593
 1331SOL    HW214328   7.165   9.226   2.016 -2.1049 -0.3352  0.2546
 1332SOL     OW14329   8.792   4.209   0.163  0.4880  0.2493  0.1090
 1332SOL    HW114330   8.718   4.259   0.210  0.2345  0.8118 -0.8871
 1332SOL    HW214331   8.753   4.154   0.089  0.6283 -2.2553  1.8120
 1333SOL     OW14332   0.727   0.976   3.753 -0.3910  1.0003 -0.4514
 1333SOL    HW114333   0.702   0.890   3.709  0.4746  0.2293  0.5238
 1333SOL    HW214334   0.658   1.045   3.733 -1.1598  0.0475 -1.1524
 1334SOL     OW14335   1.523   8.419   0.604 -0.1567 -0.9866  0.1758
 1334SOL    HW114336   1.582   8.349   0.644  0.0486 -1.0239 -0.1817
 1334SOL    HW214337   1.545   8.429   0.507 -1.0869 -1.3577 -0.0778
 1335SOL     OW14338   4.769   8.369   2.625 -0.1523  0.1990 -0.4458
 1335SOL    HW114339   4.759   8.458   2.581  0.5684 -0.0673 -1.1435
 1335SOL    HW214340   4.783   8.383   2.723 -0.7050  0.8266 -0.4465
 1336SOL     OW14341   3.724   9.310   3.125  0.0348 -0.5984  0.5431
 1336SOL    HW114342   3.778   9.360   3.058  1.6909 -0.5796  1.8765
 1336SOL    HW214343   3.674   9.374   3.183 -1.1687 -0.6079 -0.4722
 1337SOL     OW14344   3.658   9.999   1.013  0.1452 -0.1206 -0.2788
 1337SOL    HW114345   3.571  10.048   1.018  0.9491  1.1886  1.3793
 1337SOL    HW214346   3.641   9.901   1.003 -1.5123  0.1561 -0.2335
 1338SOL     OW14347   0.485   1.913   2.895 -0.4455  0.2988  0.2007
 1338SOL    HW114348   0.489   1.907   2.994 -0.9399 -1.6271  0.1309
 1338SOL    HW214349   0.550   1.982   2.863 -1.1883  1.8253  1.9198
 1339SOL     OW14350   2.420   8.374   2.781  0.2678 -0.0754 -0.4654
 1339SOL    HW114351   2.378   8.395   2.869 -0.2418  0.1571 -0.7616
 1339SOL    HW214352   2.474   8.453   2.750 -3.8891  1.9627 -2.9002
 1340SOL     OW14353   0.304   7.847   0.230  0.1508 -0.1314 -0.0922
 1340SOL    HW114354   0.287   7.885   0.321  2.6483 -0.8111  0.6938
 1340SOL    HW214355   0.251   7.762   0.220  0.4896 -0.4969  1.0519
 1341SOL     OW14356   9.935   0.559   0.557 -0.1220  0.4494 -0.6077
 1341SOL    HW114357   9.962   0.645   0.600  2.9453 -1.4717  1.5313
 1341SOL    HW214358   9.847   0.529   0.594  1.1225  0.2546  2.2971
 1342SOL     OW14359   4.549   8.327   0.568  0.7366 -0.2262  0.0501
 1342SOL    HW114360   4.562   8.249   0.506  0.1966  0.8278 -1.4197
 1342SOL    HW214361   4.597   8.407   0.532  0.5936  0.3491  1.1054
 1343SOL     OW14362   3.397   3.872   2.624  0.0422  0.0229 -0.8949
 1343SOL    HW114363   3.343   3.789   2.616  1.3300 -0.6887 -2.5614
 1343SOL    HW214364   3.358   3.944   2.566  0.2617 -0.1525 -1.2605
 1344SOL     OW14365   9.684   3.069   0.666 -0.0435  0.7593  0.6053
 1344SOL    HW114366   9.666   2.978   0.628  0.5915  1.1785 -0.7234
 1344SOL    HW214367   9.600   3.123   0.665 -0.4857  0.1099  1.6452
 1345SOL     OW14368   1.502   1.642   2.791  0.3016  0.4021 -0.4006
 1345SOL    HW114369   1.467   1.591   2.870  0.4322 -0.4251 -0.8713
 1345SOL    HW214370   1.430   1.649   2.722  0.5666  0.0611 -0.7142
 1346SOL     OW14371   4.012   1.649   2.681 -0.1638 -0.7594 -0.9389
 1346SOL    HW114372   4.011   1.742   2.644 -0.2510 -0.5693 -0.4641
 1346SOL    HW214373   4.105   1.613   2.678  0.0753 -0.2158 -0.0341
 1347SOL     OW14374   9.228   1.159   0.523 -0.5804  0.2512 -0.2677
 1347SOL    HW114375   9.243   1.186   0.428  1.2201 -0.1569 -0.1141
 1347SOL    HW214376   9.283   1.217   0.584 -1.5726  0.3863  0.5092
 1348SOL     OW14377   2.741   4.519   1.475 -0.0716  0.3906  0.5642
 1348SOL    HW114378   2.734   4.585   1.549 -1.0344 -0.1470  0.9545
 1348SOL    HW214379   2.651   4.480   1.455  0.0660  0.9700 -1.3001
 1349SOL     OW14380   3.213   9.718   3.309 -0.3779 -0.3995 -0.1656
 1349SOL    HW114381   3.267   9.729   3.392  0.3139  0.3714 -0.7122
 1349SOL    HW214382   3.211   9.621   3.283  2.9380 -0.1360 -1.5790
 1350SOL     OW14383   9.064   1.317   1.919  0.2353 -0.0087  0.2242
 1350SOL    HW114384   9.077   1.382   1.845  3.1285 -0.6630  0.1157
 1350SOL    HW214385   9.069   1.224   1.883  0.6044 -0.3290  1.0871
 1351SOL     OW14386   0.754   1.868   3.527 -0.2727 -0.1199 -1.0114
 1351SOL    HW114387   0.760   1.817   3.612 -0.3891  1.3251 -0.1166
 1351SOL    HW214388   0.798   1.816   3.453 -0.3561 -1.4632 -0.1158
 1352SOL     OW14389   1.733   9.642   3.590  0.3412  0.2222 -0.2089
 1352SOL    HW114390   1.743   9.576   3.515  2.1055  0.4948 -0.2330
 1352SOL    HW214391   1.668   9.713   3.564 -0.1899 -0.5100 -0.8939
 1353SOL     OW14392   2.852   5.512   2.230 -0.3330 -0.3234 -0.0867
 1353SOL    HW114393   2.947   5.518   2.201  0.3014  0.4567  2.0481
 1353SOL    HW214394   2.809   5.602   2.222  0.0759  0.0881  2.0513
 1354SOL     OW14395   4.641   9.804   1.530 -0.5789  0.1484 -0.1224
 1354SOL    HW114396   4.585   9.812   1.448  0.1174 -0.3369 -0.6538
 1354SOL    HW214397   4.646   9.892   1.576 -1.1847  0.3621 -0.4587
 1355SOL     OW14398   4.257   2.456   2.979 -0.2831 -0.4019 -0.7600
 1355SOL    HW114399   4.161   2.437   2.962 -0.5977  1.9827 -1.8518
 1355SOL    HW214400   4.265   2.518   3.057  0.4221 -1.0864 -0.2770
 1356SOL     OW14401   3.582   7.167   3.162 -0.0467 -0.0288  0.3388
 1356SOL    HW114402   3.640   7.089   3.139 -0.4284 -0.2461  0.1017
 1356SOL    HW214403   3.638   7.244   3.191  0.3271 -0.4469  0.7228
 1357SOL     OW14404   0.505   8.174   0.739 -0.2195 -0.2215 -0.0525
 1357SOL    HW114405   0.411   8.161   0.770 -0.0975  0.5130  0.6685
 1357SOL    HW214406   0.551   8.238   0.801  0.3595  0.4348 -1.1499
 1358SOL     OW14407   4.408   1.164   2.191  0.0068  0.0801 -0.4084
 1358SOL    HW114408   4.454   1.082   2.226  2.4791  1.0510 -1.2784
 1358SOL    HW214409   4.347   1.139   2.117  0.1076 -1.0950 -0.1047
 1359SOL     OW14410   9.467   2.309   1.745  0.6302 -0.5973 -0.2804
 1359SOL    HW114411   9.401   2.234   1.746  0.5668 -0.5577  1.6072
 1359SOL    HW214412   9.560   2.272   1.743  0.5747 -0.6766 -1.6242
 1360SOL     OW14413   3.693   3.154   0.876  0.2544 -0.2294 -0.2875
 1360SOL    HW114414   3.597   3.152   0.904  0.4289  0.8949  0.4286
 1360SOL    HW214415   3.743   3.083   0.926 -0.1729 -0.7388 -0.5722
 1361SOL     OW14416   3.676   6.008   3.598  0.0072 -0.0232  0.0742
 1361SOL    HW114417   3.703   6.096   3.559  1.1739 -0.7227 -0.6961
 1361SOL    HW214418   3.678   5.938   3.528 -1.8795 -0.5032  0.4559
 1362SOL     OW14419   0.705   9.759   0.999  0.1495 -0.0778  0.6274
 1362SOL    HW114420   0.705   9.844   0.945 -2.0642 -0.0671  0.6044
 1362SOL    HW214421   0.760   9.773   1.081  2.4575  0.3433 -0.9118
 1363SOL     OW14422   0.599   8.569   0.726  0.2602 -0.2505 -0.5135
 1363SOL    HW114423   0.659   8.562   0.806 -0.3997  0.5342  0.0587
 1363SOL    HW214424   0.534   8.494   0.726  0.4992 -0.4598 -0.5239
 1364SOL     OW14425   7.316   0.264   3.609  0.5478 -0.1642 -0.1704
 1364SOL    HW114426   7.232   0.302   3.646  1.7448  0.7275  1.7100
 1364SOL    HW214427   7.338   0.310   3.523 -0.1686  0.5212  0.0085
 1365SOL     OW14428   8.760   9.607   2.155  0.4790 -0.1493 -0.3712
 1365SOL    HW114429   8.778   9.697   2.193  1.2321 -0.2288 -0.5298
 1365SOL    HW214430   8.794   9.537   2.218 -1.3088 -0.3605  0.3841
 1366SOL     OW14431   0.248   9.900   3.935 -0.1069 -0.1028  0.2350
 1366SOL    HW114432   0.283   9.959   3.863 -0.0298  0.6401  0.8746
 1366SOL    HW214433   0.277   9.806   3.918  1.3533  0.3435  0.2040
 1367SOL     OW14434   1.489   7.462   1.332 -0.2112  0.2298  0.3517
 1367SOL    HW114435   1.441   7.380   1.300 -0.4284  0.6901 -0.5218
 1367SOL    HW214436   1.568   7.435   1.388 -1.0001 -0.5395  1.0998
 1368SOL     OW14437   9.354   0.816   2.240  0.0274  0.1014  0.1304
 1368SOL    HW114438   9.295   0.883   2.286  0.8924  1.3613 -0.5718
 1368SOL    HW214439   9.402   0.860   2.164 -0.4250 -1.6545 -1.2058
 1369SOL     OW14440   9.298   7.384   0.559  0.0285 -0.0629 -0.3616
 1369SOL    HW114441   9.241   7.467   0.561 -0.7836 -0.6365  1.0725
 1369SOL    HW214442   9.342   7.376   0.469 -2.0535  0.4660 -1.4650
 1370SOL     OW14443   1.834   8.618   2.177  1.0692  0.4255  0.0584
 1370SOL    HW114444   1.908   8.684   2.190  0.0267  1.5929  0.2120
 1370SOL    HW214445   1.747   8.667   2.168  0.3861 -0.8902 -0.7192
 1371SOL     OW14446   8.738   9.662   0.758 -0.3897 -0.1340  0.7065
 1371SOL    HW114447   8.835   9.678   0.743 -0.5984  0.1781 -0.3676
 1371SOL    HW214448   8.717   9.565   0.746 -1.2055  0.5893 -5.1240
 1372SOL     OW14449   0.701   7.735   1.551 -0.0591 -1.3205 -0.0300
 1372SOL    HW114450   0.637   7.804   1.586  0.7431 -0.4049 -0.3394
 1372SOL    HW214451   0.650   7.656   1.518 -1.1927  0.3772 -2.5020
 1373SOL     OW14452   3.002   4.036   3.028  0.1116 -0.0026 -0.0945
 1373SOL    HW114453   3.088   4.065   2.986  1.5510 -0.2246  2.6436
 1373SOL    HW214454   2.950   3.982   2.961  2.3209 -0.3276 -1.6209
 1374SOL     OW14455   2.335   1.969   3.120 -0.0946 -0.0208  0.3156
 1374SOL    HW114456   2.301   2.061   3.100  2.2521  0.5374 -1.3897
 1374SOL    HW214457   2.306   1.906   3.049  1.4577  0.2350 -0.5706
 1375SOL     OW14458   4.514   0.115   3.031  0.2916  0.1009 -0.0892
 1375SOL    HW114459   4.598   0.161   3.059 -0.2682  0.6699  0.6841
 1375SOL    HW214460   4.498   0.131   2.934  1.2096 -0.2233 -0.2952
 1376SOL     OW14461   1.103   1.903   3.504 -0.0208  0.0529 -0.5256
 1376SOL    HW114462   1.039   1.965   3.549 -0.8230 -0.3540 -1.1114
 1376SOL    HW214463   1.165   1.864   3.572 -1.0896 -0.3974  0.1978
 1377SOL     OW14464   2.656   4.904   0.033  0.3843  0.5292  0.4085
 1377SOL    HW114465   2.684   5.000   0.023 -0.1754  0.8886  2.0923
 1377SOL    HW214466   2.594   4.896   0.111 -1.4165 -0.8334 -1.1240
 1378SOL     OW14467   0.823   3.930   3.576  0.3547 -0.7374  0.5258
 1378SOL    HW114468   0.900   3.871   3.553  1.5999  0.9473  0.2913
 1378SOL    HW214469   0.787   3.971   3.492  0.0571 -0.4682  0.7846
 1379SOL     OW14470   0.025   2.707   2.834  0.0060 -0.2506  0.2969
 1379SOL    HW114471   0.018   2.798   2.875  0.8935  0.3713 -0.9174
 1379SOL    HW214472  -0.010   2.709   2.741  2.0202 -0.6350 -0.4945
 1380SOL     OW14473   7.799   1.217   2.809  0.2501 -0.3600 -0.5635
 1380SOL    HW114474   7.828   1.273   2.887  1.4942 -0.8950 -0.6348
 1380SOL    HW214475   7.718   1.164   2.833  0.7949 -0.7265  0.4443
 1381SOL     OW14476   8.082   2.052   1.364  0.0061  0.1435  0.3726
 1381SOL    HW114477   8.119   2.143   1.381  0.0684  0.1499  0.2096
 1381SOL    HW214478   7.997   2.060   1.313 -0.6667  0.1639  1.4823
 1382SOL     OW14479   9.505   0.965   1.354  0.4485 -0.5964  0.6138
 1382SOL    HW114480   9.506   0.885   1.413 -1.3653 -1.9689 -1.1460
 1382SOL    HW214481   9.527   0.937   1.260  0.0944  1.0241  0.0330
 1383SOL     OW14482   8.976   9.749   2.896  0.0341 -0.3666  0.5317
 1383SOL    HW114483   8.997   9.731   2.800 -2.3244 -2.1566  0.3076
 1383SOL    HW214484   9.051   9.715   2.954  0.4425 -1.3066 -0.5371
 1384SOL     OW14485   1.550   0.118   0.287  0.3520 -0.3161  0.7553
 1384SOL    HW114486   1.535   0.215   0.308 -2.2413 -0.4822 -0.1403
 1384SOL    HW214487   1.539   0.103   0.189  1.1145 -1.4826  0.8366
 1385SOL     OW14488   8.907   0.269   1.544  0.0730 -0.3128 -0.3426
 1385SOL    HW114489   8.818   0.273   1.499 -0.3914  0.8225  0.6552
 1385SOL    HW214490   8.975   0.313   1.486 -0.1384 -0.5960 -0.8111
 1386SOL     OW14491   2.390   9.175   1.347 -0.1786 -0.2808 -0.0198
 1386SOL    HW114492   2.382   9.081   1.314 -0.1261 -0.3035  0.0291
 1386SOL    HW214493   2.440   9.175   1.433 -1.6488 -0.3848  0.8516
 1387SOL     OW14494   2.983   9.292   3.404 -0.5284 -0.0944  0.2586
 1387SOL    HW114495   2.913   9.304   3.475  1.1555  0.4406  1.8555
 1387SOL    HW214496   2.956   9.217   3.344 -1.5620 -1.1863  2.0195
 1388SOL     OW14497   3.876   3.826   1.359 -1.2298  0.0561  0.4505
 1388SOL    HW114498   3.802   3.888   1.332 -1.2185  0.4636  1.3461
 1388SOL    HW214499   3.957   3.880   1.383 -0.9101 -0.3529  0.3018
 1389SOL     OW14500   1.007   4.969   3.320  0.6118 -0.1845 -0.1162
 1389SOL    HW114501   0.999   5.062   3.285 -0.6138  1.0793  3.2746
 1389SOL    HW214502   1.078   4.967   3.391 -1.6785 -1.0225  2.2109
 1390SOL     OW14503   3.142   5.409   3.869  0.4207 -0.0750  0.0861
 1390SOL    HW114504   3.215   5.401   3.937  0.8148 -0.9649 -0.4408
 1390SOL    HW214505   3.180   5.394   3.778 -0.2587  0.3298 -0.2641
 1391SOL     OW14506   8.195   1.103   2.097  0.3613  0.2428 -0.0439
 1391SOL    HW114507   8.106   1.120   2.139 -0.5125  1.9265 -2.4652
 1391SOL    HW214508   8.191   1.018   2.045  1.0433 -1.1469  2.1345
 1392SOL     OW14509   9.235   0.127   3.718 -0.6783 -0.1896  0.2130
 1392SOL    HW114510   9.270   0.037   3.693  0.9686  0.2998  0.6711
 1392SOL    HW214511   9.213   0.127   3.816 -3.9309 -1.0970 -0.4632
 1393SOL     OW14512   1.428   5.640   3.865  0.0909  0.3797 -0.0777
 1393SOL    HW114513   1.431   5.543   3.842 -2.6606  0.1942  0.1114
 1393SOL    HW214514   1.515   5.683   3.841  1.4868 -2.1900  0.2017
 1394SOL     OW14515   1.313   2.732   3.720  0.1275  0.1074 -0.3336
 1394SOL    HW114516   1.397   2.776   3.751  0.7475 -1.4957  0.3419
 1394SOL    HW214517   1.252   2.719   3.798 -1.4141  2.6103 -1.0670
 1395SOL     OW14518   5.498   8.257   3.429  0.6445 -0.4281  0.2189
 1395SOL    HW114519   5.576   8.271   3.369 -0.2901 -0.2753 -0.9830
 1395SOL    HW214520   5.499   8.163   3.464  1.2315 -0.4889  0.0363
 1396SOL     OW14521   4.319   9.325   2.129 -0.5635 -0.4307  0.2370
 1396SOL    HW114522   4.307   9.340   2.031  1.6740 -1.1274 -0.1693
 1396SOL    HW214523   4.352   9.232   2.144  2.2686  0.6918  1.3679
 1397SOL     OW14524   0.947   8.248   3.655 -0.2377 -0.1239 -0.1152
 1397SOL    HW114525   1.023   8.309   3.677 -2.2459  2.1339  0.8889
 1397SOL    HW214526   0.920   8.197   3.737  1.2217 -2.1438 -0.8728
 1398SOL     OW14527   0.640   0.082   0.119 -0.0388  0.1560  0.3920
 1398SOL    HW114528   0.586   0.165   0.130 -0.3057 -0.1557  1.5106
 1398SOL    HW214529   0.591   0.018   0.060 -0.0271  0.6135 -0.1218
 1399SOL     OW14530   3.658   4.682   2.693  0.3073  0.2331 -0.4768
 1399SOL    HW114531   3.664   4.612   2.764  0.8003 -0.2851 -1.0190
 1399SOL    HW214532   3.749   4.699   2.656  0.0100  0.2569 -1.2111
 1400SOL     OW14533   3.900   2.781   3.734  0.5386 -0.2238 -0.3183
 1400SOL    HW114534   3.978   2.817   3.785  0.8513  1.3963 -1.8806
 1400SOL    HW214535   3.859   2.854   3.679 -1.3010 -1.3495 -0.5036
 1401SOL     OW14536   5.859   9.131   3.221  0.2275 -0.1404 -0.4619
 1401SOL    HW114537   5.883   9.068   3.295  0.6672  2.9439  2.0948
 1401SOL    HW214538   5.889   9.092   3.134  0.1916 -3.5944  0.9941
 1402SOL     OW14539   0.398   0.878   0.519  0.1610  0.3941  0.0421
 1402SOL    HW114540   0.428   0.968   0.550 -0.9039  0.5272  0.7283
 1402SOL    HW214541   0.351   0.831   0.594 -1.4929  0.2817 -1.0300
 1403SOL     OW14542   0.915   9.457   2.484  0.3256 -0.1445 -0.0658
 1403SOL    HW114543   0.866   9.462   2.397  1.7836  0.5225 -0.8755
 1403SOL    HW214544   0.952   9.365   2.496 -0.4945 -0.4434  0.1999
 1404SOL     OW14545   9.883   3.288   2.347 -0.0374 -0.3719 -0.0827
 1404SOL    HW114546   9.938   3.225   2.402 -0.7003 -2.3805 -1.6349
 1404SOL    HW214547   9.787   3.279   2.372 -0.3082 -1.0831 -1.3407
 1405SOL     OW14548   2.013   9.481   1.054  0.7261  0.3370  0.1177
 1405SOL    HW114549   2.105   9.448   1.076  0.4301 -2.0305 -1.9759
 1405SOL    HW214550   2.017   9.535   0.970  0.2992  0.8708  0.4375
 1406SOL     OW14551   4.328   8.675   3.824  0.1681 -0.1374  0.4084
 1406SOL    HW114552   4.425   8.695   3.809  0.7741 -2.2782  1.2812
 1406SOL    HW214553   4.319   8.589   3.874 -2.2120 -0.2611 -0.1622
 1407SOL     OW14554   2.828   7.638   3.292  0.2379  0.3030 -0.6695
 1407SOL    HW114555   2.902   7.608   3.231 -0.2092  0.2247 -1.1775
 1407SOL    HW214556   2.863   7.648   3.385  0.5569 -1.1118 -0.6353
 1408SOL     OW14557   1.558   2.470   2.844 -0.0576 -0.2444  0.2618
 1408SOL    HW114558   1.523   2.377   2.857  0.0421 -0.1731  1.0471
 1408SOL    HW214559   1.562   2.517   2.932  1.3969 -0.0307  0.0892
 1409SOL     OW14560   4.104   8.421   3.208 -0.6824 -0.1102 -0.6278
 1409SOL    HW114561   4.102   8.513   3.246  1.4511 -1.3544  2.8347
 1409SOL    HW214562   4.130   8.424   3.112  2.2281  2.6995  0.1912
 1410SOL     OW14563   9.844   7.719   1.278 -0.1387  0.1196  0.0839
 1410SOL    HW114564   9.872   7.650   1.210  0.5281  1.1690 -0.7168
 1410SOL    HW214565   9.792   7.674   1.351  0.6702 -1.3065 -0.1988
 1411SOL     OW14566   0.904   1.301   0.980  0.5751  0.0634  0.1407
 1411SOL    HW114567   0.918   1.382   1.037 -2.1037  0.9786 -0.4342
 1411SOL    HW214568   0.940   1.220   1.028  2.0070  1.3577  1.3289
 1412SOL     OW14569   2.262   5.813   2.884  0.2571  0.4681 -0.3038
 1412SOL    HW114570   2.282   5.784   2.791 -0.6241 -0.9600 -0.0614
 1412SOL    HW214571   2.198   5.749   2.926 -1.1374  2.3339  0.5068
 1413SOL     OW14572   2.520   3.660   1.405 -0.2231  0.6193  0.6364
 1413SOL    HW114573   2.481   3.750   1.383  0.4536  1.0463  1.1576
 1413SOL    HW214574   2.451   3.604   1.451 -0.6083  0.9256  0.4323
 1414SOL     OW14575   7.865   2.492   3.367 -0.0906 -0.3692 -0.7762
 1414SOL    HW114576   7.882   2.510   3.464 -0.1197 -2.7481 -0.2930
 1414SOL    HW214577   7.774   2.454   3.356  0.0920 -0.5508 -1.6841
 1415SOL     OW14578   9.761   0.538   2.638  0.3056 -0.5053  0.8011
 1415SOL    HW114579   9.804   0.626   2.613  1.5320 -0.6329  2.3762
 1415SOL    HW214580   9.789   0.513   2.731 -0.8120 -2.1003  0.7176
 1416SOL     OW14581   1.130   8.313   3.180  0.3698 -0.4829 -0.1672
 1416SOL    HW114582   1.167   8.221   3.165  0.5955 -0.0684 -2.3362
 1416SOL    HW214583   1.031   8.307   3.198  0.2436 -1.1055 -1.0448
 1417SOL     OW14584   8.590   0.107   2.266  0.3815  0.1042 -0.7820
 1417SOL    HW114585   8.563   0.172   2.337  2.2180  1.1549 -1.0086
 1417SOL    HW214586   8.635   0.156   2.191  3.3149 -1.5830 -0.1998
 1418SOL     OW14587   4.733   8.614   0.154  0.3023  0.1572 -0.3204
 1418SOL    HW114588   4.648   8.666   0.151  0.7983  0.9633 -0.3508
 1418SOL    HW214589   4.711   8.516   0.154 -0.5245  0.2992 -3.3841
 1419SOL     OW14590   3.213   3.756   3.868  0.3372 -0.0980  0.1138
 1419SOL    HW114591   3.166   3.807   3.940  0.3910  0.2252 -0.0788
 1419SOL    HW214592   3.150   3.689   3.828  0.5287 -0.7979  0.9684
 1420SOL     OW14593   3.648   2.515   2.786 -0.8586 -0.6206  0.3903
 1420SOL    HW114594   3.730   2.465   2.812 -0.3990 -0.7118 -1.1822
 1420SOL    HW214595   3.578   2.451   2.754  0.1697 -0.2403 -2.8097
 1421SOL     OW14596   7.176   9.043   1.943  0.3571  0.3375  0.0063
 1421SOL    HW114597   7.080   9.023   1.959  0.9862 -1.3845  1.7626
 1421SOL    HW214598   7.197   9.030   1.846 -0.0645 -4.3499  0.4545
 1422SOL     OW14599   3.510   9.619   3.465  0.6277  0.1553  0.0615
 1422SOL    HW114600   3.439   9.623   3.536  1.2806 -0.9670  0.7824
 1422SOL    HW214601   3.568   9.700   3.471 -0.8217  1.2931 -0.7973
 1423SOL     OW14602   7.563   8.691   1.862  0.0617 -0.1167  0.0874
 1423SOL    HW114603   7.570   8.591   1.866  0.7398  0.0138  3.4418
 1423SOL    HW214604   7.467   8.717   1.847 -0.2729 -1.2712  0.1507
 1424SOL     OW14605   0.241   7.676   3.592 -0.0481  0.1114 -0.2160
 1424SOL    HW114606   0.238   7.636   3.684  2.1526  1.3135  0.4078
 1424SOL    HW214607   0.322   7.644   3.544 -1.1398 -0.4195 -1.7046
 1425SOL     OW14608   3.802   3.602   2.456 -0.3507  0.6820 -0.2868
 1425SOL    HW114609   3.764   3.511   2.437 -1.3528  1.3097 -1.3842
 1425SOL    HW214610   3.892   3.610   2.413  0.6784 -0.5241  1.6136
 1426SOL     OW14611   2.611   2.622   2.573 -0.0425 -0.3915 -0.1676
 1426SOL    HW114612   2.550   2.557   2.527 -0.7338  1.5409 -2.0645
 1426SOL    HW214613   2.698   2.627   2.524 -0.0226  0.1761 -0.0751
 1427SOL     OW14614   7.804   1.124   1.176  0.0965 -0.4732 -0.7097
 1427SOL    HW114615   7.826   1.171   1.091  1.2544  1.7140  0.7391
 1427SOL    HW214616   7.732   1.173   1.225  0.0287 -1.2322 -0.0157
 1428SOL     OW14617   3.560   5.188   3.942 -0.0002  0.6521  0.1988
 1428SOL    HW114618   3.625   5.205   4.016 -0.5879  2.7706  0.2753
 1428SOL    HW214619   3.497   5.265   3.936 -1.0214 -0.2896 -1.4230
 1429SOL     OW14620   5.464   8.004   3.513  0.0844  0.0991  0.1957
 1429SOL    HW114621   5.402   8.041   3.583 -1.2698 -1.6782 -0.0259
 1429SOL    HW214622   5.424   7.922   3.473  1.2755  0.5742 -2.0503
 1430SOL     OW14623   1.047   3.119   0.179 -0.3647 -0.3157  0.0233
 1430SOL    HW114624   1.030   3.212   0.212 -0.8448 -0.2069 -0.5301
 1430SOL    HW214625   0.994   3.054   0.233 -2.8238  0.0459 -1.8865
 1431SOL     OW14626   1.975   9.464   2.953 -0.0321 -0.2309 -0.0342
 1431SOL    HW114627   2.026   9.511   2.880  0.4584 -1.8362 -0.7367
 1431SOL    HW214628   1.996   9.367   2.951 -0.1545 -0.3162  2.1636
 1432SOL     OW14629   3.600   5.818   2.396  0.7709 -0.1898 -0.4903
 1432SOL    HW114630   3.643   5.880   2.462  0.0799 -0.5754  0.3373
 1432SOL    HW214631   3.645   5.729   2.399  1.3658  0.0832 -1.2391
 1433SOL     OW14632   8.201   2.471   2.797 -0.0706  0.1027  0.0553
 1433SOL    HW114633   8.198   2.555   2.851 -1.4378  0.6036 -0.7928
 1433SOL    HW214634   8.261   2.484   2.718  0.3205  0.0277  0.3384
 1434SOL     OW14635   0.236   7.931   0.943  0.4184  0.0618 -0.3202
 1434SOL    HW114636   0.328   7.898   0.922  0.2402 -1.6884  1.5133
 1434SOL    HW214637   0.234   7.966   1.037 -0.7873  0.0972 -0.3527
 1435SOL     OW14638   4.500   0.536   2.753 -0.5482 -0.0764 -0.1253
 1435SOL    HW114639   4.445   0.453   2.753  1.0025 -1.1157 -0.7499
 1435SOL    HW214640   4.500   0.576   2.845 -0.3927 -1.3619  0.4412
 1436SOL     OW14641   1.570   4.098   3.561 -0.0921  0.3642 -0.4820
 1436SOL    HW114642   1.482   4.069   3.600  0.6182  0.8344  1.5355
 1436SOL    HW214643   1.632   4.020   3.556  0.0094  0.4163 -0.0951
 1437SOL     OW14644   0.868   2.729   1.071 -0.3049  0.4852  0.6327
 1437SOL    HW114645   0.921   2.674   1.135  0.2199  0.4733  0.1841
 1437SOL    HW214646   0.927   2.793   1.023 -0.4815 -0.3488 -0.7366
 1438SOL     OW14647   1.743   0.954   3.471  0.3758 -0.0566  0.3571
 1438SOL    HW114648   1.784   0.893   3.540 -2.3047 -0.0041  2.0744
 1438SOL    HW214649   1.646   0.964   3.490 -0.0003  1.6435 -2.2745
 1439SOL     OW14650   3.467   6.658   4.014 -0.9242  0.2659  0.4419
 1439SOL    HW114651   3.547   6.718   4.017 -1.5320  1.1019  0.1261
 1439SOL    HW214652   3.496   6.563   4.025  0.0217  0.6383  1.1809
 1440SOL     OW14653   1.491   0.949   1.420 -0.1999 -0.1577  0.0958
 1440SOL    HW114654   1.475   0.882   1.347 -1.0120  1.1893 -0.9789
 1440SOL    HW214655   1.578   0.995   1.404 -1.1604  1.3278 -0.9831
 1441SOL     OW14656   2.620   0.608   0.257 -0.4653  0.8271  0.2059
 1441SOL    HW114657   2.677   0.550   0.199 -0.0469  1.2674  0.1739
 1441SOL    HW214658   2.656   0.701   0.257 -1.2993  1.1600  0.0236
 1442SOL     OW14659   1.957   2.442   2.913  0.4996  0.2006 -0.4610
 1442SOL    HW114660   1.902   2.473   2.835 -0.6127  0.7766  0.5255
 1442SOL    HW214661   1.896   2.406   2.984  1.4421  0.3505  0.4322
 1443SOL     OW14662   1.987   4.170   0.398 -0.4630 -0.1872 -0.1628
 1443SOL    HW114663   2.061   4.237   0.395 -1.3664  0.8563  0.3261
 1443SOL    HW214664   1.980   4.124   0.310 -0.1229  0.6910 -0.6579
 1444SOL     OW14665   1.286   8.322   1.318 -0.2849  0.2207  0.3326
 1444SOL    HW114666   1.328   8.375   1.244 -2.0478  0.3127 -0.6420
 1444SOL    HW214667   1.236   8.384   1.378 -3.4539 -0.3650 -1.5437
 1445SOL     OW14668   8.843   7.541   0.957 -0.6832  0.8879 -0.2437
 1445SOL    HW114669   8.794   7.456   0.979 -0.1790  0.4139 -0.9209
 1445SOL    HW214670   8.884   7.578   1.041 -2.3496  1.3954  0.3587
 1446SOL     OW14671   1.212   7.405   2.664  0.7729  0.2113 -0.4458
 1446SOL    HW114672   1.286   7.430   2.727  2.3495 -0.8053 -1.8348
 1446SOL    HW214673   1.220   7.460   2.581  0.6358 -0.6926 -1.0549
 1447SOL     OW14674   8.456   8.909   3.075  0.0299  0.2406 -0.4590
 1447SOL    HW114675   8.385   8.978   3.066 -0.5763 -0.6280 -2.5016
 1447SOL    HW214676   8.478   8.871   2.985  0.7339 -1.8490  0.5583
 1448SOL     OW14677   8.699   7.768   3.928 -0.5106  0.2923 -0.2724
 1448SOL    HW114678   8.641   7.847   3.949  0.1104  1.4439 -2.6126
 1448SOL    HW214679   8.751   7.787   3.844  1.0922 -1.8589  0.1852
 1449SOL     OW14680   1.144   9.020   0.668  0.1869  0.2609 -0.0189
 1449SOL    HW114681   1.089   9.093   0.709 -0.3483 -1.7108  2.9433
 1449SOL    HW214682   1.228   9.059   0.630 -1.6199  2.8475 -1.5781
 1450SOL     OW14683   3.402   3.765   2.126  0.0904  0.0993 -0.1398
 1450SOL    HW114684   3.326   3.712   2.090  0.9124 -2.0358  1.2283
 1450SOL    HW214685   3.366   3.841   2.181 -1.0558  0.1734 -0.9599
 1451SOL     OW14686   8.679   4.038   4.008  0.1054  0.1819 -0.0608
 1451SOL    HW114687   8.628   4.086   3.937 -0.5817 -0.5949 -0.0972
 1451SOL    HW214688   8.643   3.945   4.018  0.6738  0.0499  0.7976
 1452SOL     OW14689   1.049   9.563   1.379  0.2896  0.3088 -0.4725
 1452SOL    HW114690   1.132   9.597   1.424  0.0652  0.2782 -0.0372
 1452SOL    HW214691   0.972   9.568   1.442  0.3739 -1.6085 -0.1776
 1453SOL     OW14692   8.923   9.720   0.382 -0.0956  0.3527 -0.1184
 1453SOL    HW114693   8.935   9.624   0.354  0.9287  0.6783 -0.8452
 1453SOL    HW214694   8.881   9.724   0.472  1.1369 -0.8142  0.5318
 1454SOL     OW14695   3.233   3.423   3.060 -0.4024 -0.1678  0.1009
 1454SOL    HW114696   3.233   3.493   2.989 -1.7289  0.9186  1.1369
 1454SOL    HW214697   3.327   3.395   3.079 -0.0950 -1.1477 -2.6979
 1455SOL     OW14698   3.406   0.455   1.136 -0.0491  0.6629  0.3329
 1455SOL    HW114699   3.404   0.554   1.123  0.3940  0.8234  1.4958
 1455SOL    HW214700   3.358   0.431   1.221 -1.5265 -0.2578 -0.7189
 1456SOL     OW14701   3.004   7.419   2.032 -0.0762 -0.1639  0.1212
 1456SOL    HW114702   2.983   7.517   2.021 -0.4793 -0.3948 -1.3315
 1456SOL    HW214703   2.985   7.391   2.125 -0.5801  1.0070  0.3836
 1457SOL     OW14704   8.728   3.061   0.163 -0.6158 -0.2465  0.2887
 1457SOL    HW114705   8.729   2.979   0.221 -0.5626  0.3664  1.1612
 1457SOL    HW214706   8.806   3.119   0.187  0.4375 -0.8388 -1.6352
 1458SOL     OW14707   3.117   9.485   3.240 -0.6035 -0.4015  0.0509
 1458SOL    HW114708   3.080   9.474   3.148 -2.4858 -0.4031  0.7903
 1458SOL    HW214709   3.085   9.411   3.299  1.8271 -1.2704  0.3522
 1459SOL     OW14710   1.416   1.973   0.073 -0.2785  0.0663  0.4434
 1459SOL    HW114711   1.379   2.018   0.154 -0.1208  2.4959 -0.8141
 1459SOL    HW214712   1.449   1.882   0.099 -0.3286  0.7457  3.0796
 1460SOL     OW14713   4.405   9.426   1.854  0.5373 -1.3355  0.7911
 1460SOL    HW114714   4.450   9.468   1.775  1.8024 -1.4988  1.4157
 1460SOL    HW214715   4.387   9.496   1.923 -1.3504 -1.0327  0.0276
 1461SOL     OW14716   0.188   2.896   1.706  0.1552 -0.2432 -0.3402
 1461SOL    HW114717   0.185   2.882   1.804  1.8983 -0.5887 -0.3271
 1461SOL    HW214718   0.096   2.918   1.673 -0.1339  1.5822  1.6001
 1462SOL     OW14719   9.825   1.511   3.963  0.0218 -0.3390  0.4366
 1462SOL    HW114720   9.907   1.459   3.939 -0.8803 -2.5719  2.0162
 1462SOL    HW214721   9.851   1.590   4.019  1.3370  0.5746 -1.4051
 1463SOL     OW14722   4.368   1.330   1.028  0.6683 -0.1010 -0.2467
 1463SOL    HW114723   4.423   1.298   0.951  1.4142  0.7294 -0.0604
 1463SOL    HW214724   4.422   1.325   1.112  0.2722  0.1915  0.0254
 1464SOL     OW14725   2.471   2.438   2.453  0.3534 -0.1329 -0.5765
 1464SOL    HW114726   2.404   2.437   2.379 -1.3987  0.7500  0.9354
 1464SOL    HW214727   2.435   2.388   2.532  2.4233 -1.5446 -0.4817
 1465SOL     OW14728   1.614   2.628   0.370 -0.1119 -0.0053 -0.1931
 1465SOL    HW114729   1.623   2.529   0.384 -0.5108  0.2109  1.7868
 1465SOL    HW214730   1.668   2.656   0.291  1.5112 -1.5227  0.3426
 1466SOL     OW14731   9.361   7.528   1.037 -0.1091  0.6917  0.1575
 1466SOL    HW114732   9.272   7.492   1.008 -0.4001  2.0441 -0.6737
 1466SOL    HW214733   9.351   7.625   1.061  0.9225  0.5694  1.1210
 1467SOL     OW14734   1.653   0.817   2.716  0.5228  0.5772 -0.4491
 1467SOL    HW114735   1.602   0.827   2.631 -0.9453 -1.9495  0.0746
 1467SOL    HW214736   1.597   0.845   2.793  0.8378  0.2218 -0.0836
 1468SOL     OW14737   8.640   4.856   1.114  0.1235  0.0960 -0.0122
 1468SOL    HW114738   8.656   4.815   1.024  2.0310  3.7619 -1.4188
 1468SOL    HW214739   8.695   4.808   1.182 -0.1423 -1.7112 -1.0212
 1469SOL     OW14740   1.493   9.391   2.242  0.4763  0.4423  0.1740
 1469SOL    HW114741   1.455   9.325   2.307 -1.0089 -0.2408 -1.3808
 1469SOL    HW214742   1.591   9.400   2.260  0.1386  0.1577  2.4160
 1470SOL     OW14743   9.180   3.472   2.678  0.1173  0.0134  0.5797
 1470SOL    HW114744   9.271   3.452   2.714  0.8617 -0.2552 -1.3695
 1470SOL    HW214745   9.189   3.535   2.601 -1.5875  2.1256  2.0540
 1471SOL     OW14746   9.533   0.074   3.529 -0.0516 -0.9899  0.5999
 1471SOL    HW114747   9.478   0.043   3.451  0.6853  0.8979 -0.6845
 1471SOL    HW214748   9.630   0.061   3.508  0.2154  1.0399  0.5172
 1472SOL     OW14749   0.491   2.919   1.258  1.1234  0.0396  0.0785
 1472SOL    HW114750   0.525   2.901   1.166  0.1239  1.2124 -0.5354
 1472SOL    HW214751   0.455   2.835   1.298 -1.5247  0.1872 -1.9108
 1473SOL     OW14752   0.949   1.384   3.241 -0.1866 -0.5499  0.5389
 1473SOL    HW114753   0.884   1.353   3.171 -0.9777  0.6724  0.7136
 1473SOL    HW214754   1.036   1.407   3.197 -1.6620  3.3615 -0.6160
 1474SOL     OW14755   2.992   8.607   1.344  0.1545 -0.4636  0.2034
 1474SOL    HW114756   3.016   8.624   1.249  0.0220 -1.6599 -0.0482
 1474SOL    HW214757   3.068   8.563   1.391 -0.6993 -2.2381 -0.0263
 1475SOL     OW14758   1.017   1.253   3.472  0.0546 -0.1052 -0.1226
 1475SOL    HW114759   1.013   1.311   3.391  0.2267 -1.3166 -1.0054
 1475SOL    HW214760   1.111   1.248   3.505  0.1367 -0.4044 -0.4130
 1476SOL     OW14761   3.002   5.196   1.583 -0.0776 -0.0588 -0.4781
 1476SOL    HW114762   2.989   5.176   1.486 -0.1876  0.8372 -0.6522
 1476SOL    HW214763   3.019   5.110   1.633 -0.3219 -0.5525 -1.2344
 1477SOL     OW14764   0.901   1.054   1.602  0.2422  0.2130 -0.4742
 1477SOL    HW114765   0.928   0.958   1.601 -0.8164 -0.0966 -0.6675
 1477SOL    HW214766   0.823   1.065   1.665 -0.5898  0.6665 -1.5695
 1478SOL     OW14767   3.923   4.315   2.545 -0.1695  0.0753 -0.1679
 1478SOL    HW114768   3.925   4.307   2.445 -0.1927 -1.6216 -0.0467
 1478SOL    HW214769   3.969   4.399   2.572  0.8665 -0.0139 -1.5555
 1479SOL     OW14770   8.828   8.481   3.317 -0.0999  0.6770 -0.0007
 1479SOL    HW114771   8.794   8.488   3.224 -1.9071 -1.8819  0.4079
 1479SOL    HW214772   8.752   8.489   3.381  0.5461 -1.4764  1.0880
 1480SOL     OW14773   9.346   8.141   1.203 -0.1373 -0.0819 -0.3783
 1480SOL    HW114774   9.425   8.120   1.146  0.6248 -1.1289  1.0286
 1480SOL    HW214775   9.343   8.079   1.282 -1.0627  1.4124  0.8172
 1481SOL     OW14776   2.704   9.987   1.912  0.6929 -0.0299  0.0702
 1481SOL    HW114777   2.691  10.025   1.821  0.4483  1.5831  0.7624
 1481SOL    HW214778   2.616   9.975   1.957  0.7001 -2.2230 -0.4340
 1482SOL     OW14779   2.287   0.677   1.919 -0.3491  0.3699  0.2609
 1482SOL    HW114780   2.372   0.696   1.869 -0.7690  1.7121  0.0322
 1482SOL    HW214781   2.302   0.695   2.016 -1.3340  4.1716 -0.1956
 1483SOL     OW14782   2.534   7.364   3.721  0.3140  0.6127  0.6640
 1483SOL    HW114783   2.626   7.361   3.683  0.2811  0.2070  0.6173
 1483SOL    HW214784   2.511   7.276   3.762 -0.2920  0.5003  0.0974
 1484SOL     OW14785   9.337   1.670   2.503 -0.1835 -0.0031 -0.1187
 1484SOL    HW114786   9.387   1.735   2.446  0.0812  0.8105  1.0260
 1484SOL    HW214787   9.239   1.686   2.493 -0.0994  1.0346  0.7012
 1485SOL     OW14788   8.329   2.453   3.570  0.2485  0.2435 -0.1135
 1485SOL    HW114789   8.396   2.485   3.503  0.2613  0.9293  0.2139
 1485SOL    HW214790   8.300   2.360   3.548  0.3375  0.4263 -0.9987
 1486SOL     OW14791   2.194   1.956   0.250 -0.0104 -0.3584  0.1093
 1486SOL    HW114792   2.162   1.997   0.165 -0.5111 -0.2760  0.3391
 1486SOL    HW214793   2.117   1.916   0.299  0.3578 -0.8875  0.2632
 1487SOL     OW14794   2.680   2.461   3.255  0.4531 -0.3635  0.1931
 1487SOL    HW114795   2.696   2.462   3.354  0.3986 -0.9386  0.2068
 1487SOL    HW214796   2.667   2.367   3.224  1.9579 -0.3245 -0.5939
 1488SOL     OW14797   8.373   0.329   2.959 -0.6878 -0.1956  0.3403
 1488SOL    HW114798   8.464   0.309   2.923 -0.7964  0.9202 -0.5827
 1488SOL    HW214799   8.380   0.342   3.058  0.3816  1.0770  0.1221
 1489SOL     OW14800   4.780   8.988   0.257  0.1416  0.0129  0.4474
 1489SOL    HW114801   4.848   8.926   0.218  0.2776 -0.0297  0.7496
 1489SOL    HW214802   4.712   8.935   0.309  0.4000  0.1345  0.9171
 1490SOL     OW14803   1.240   3.889   1.536 -0.0653 -0.3339  0.2390
 1490SOL    HW114804   1.156   3.865   1.584  0.6690 -2.1015  0.6824
 1490SOL    HW214805   1.265   3.816   1.473  1.2153  0.0984  0.2167
 1491SOL     OW14806   8.665   0.566   2.029 -0.2030 -0.2707 -0.3277
 1491SOL    HW114807   8.667   0.528   1.936  1.1650  1.7854 -1.1701
 1491SOL    HW214808   8.687   0.663   2.025  1.1452 -0.4413  2.2972
 1492SOL     OW14809   3.207   5.649   1.287 -0.7525  0.1739 -0.1017
 1492SOL    HW114810   3.189   5.733   1.338 -1.1856 -1.0756  1.8380
 1492SOL    HW214811   3.148   5.576   1.321  1.3211 -1.5578 -0.1080
 1493SOL     OW14812   3.562   5.112   1.555 -0.2923 -0.3199 -0.5950
 1493SOL    HW114813   3.592   5.152   1.641 -3.0788 -2.5442  1.5144
 1493SOL    HW214814   3.494   5.171   1.512  1.8862  1.3229 -1.8898
 1494SOL     OW14815   1.253   3.997   2.670 -0.2246 -0.7587  0.0396
 1494SOL    HW114816   1.338   3.964   2.711 -0.7301 -0.2618  1.5093
 1494SOL    HW214817   1.223   3.933   2.599 -0.1474 -2.4521  1.4958
 1495SOL     OW14818   1.051   2.465   0.257  0.0669 -0.4114  0.4743
 1495SOL    HW114819   1.135   2.416   0.236  2.2200  4.0702 -2.0582
 1495SOL    HW214820   0.983   2.447   0.186  1.0883  0.6938 -0.8176
 1496SOL     OW14821   1.840   3.774   0.820  0.5655 -0.0303 -0.2508
 1496SOL    HW114822   1.937   3.754   0.810  0.4333 -1.2692  0.8263
 1496SOL    HW214823   1.791   3.740   0.740  1.2555  2.4017 -1.7575
 1497SOL     OW14824   6.545   9.442   1.791 -0.0669 -0.5384 -0.5055
 1497SOL    HW114825   6.513   9.356   1.751 -1.0045 -0.8000  0.7611
 1497SOL    HW214826   6.643   9.452   1.775 -0.2513 -1.0681 -2.0460
 1498SOL     OW14827   8.504   9.670   2.062 -0.5466  0.1614  0.2790
 1498SOL    HW114828   8.592   9.626   2.081 -0.4614  0.6614  1.0413
 1498SOL    HW214829   8.474   9.645   1.970 -0.0483 -0.7463  0.3566
 1499SOL     OW14830   9.729   0.769   2.866 -0.1065  0.9306  0.4587
 1499SOL    HW114831   9.798   0.836   2.838 -1.0266  1.9507  0.5840
 1499SOL    HW214832   9.774   0.688   2.901  1.0498  0.7544 -1.3621
 1500SOL     OW14833   3.451   7.865   0.983  0.0945 -0.0973 -0.4855
 1500SOL    HW114834   3.353   7.853   0.997 -0.3179  1.3600 -1.9409
 1500SOL    HW214835   3.487   7.788   0.931 -0.0191 -1.2473  1.0926
 1501SOL     OW14836   3.647   1.925   2.791  0.0312 -0.0856 -0.2279
 1501SOL    HW114837   3.652   1.854   2.722  0.9184 -0.4481  0.2004
 1501SOL    HW214838   3.674   2.013   2.751  1.8417 -0.5294 -0.0311
 1502SOL     OW14839   3.492   1.048   0.799 -0.6470 -0.2709 -0.4477
 1502SOL    HW114840   3.512   1.012   0.708 -2.0099 -2.0547 -0.0741
 1502SOL    HW214841   3.538   0.992   0.868 -0.6225  0.3232  0.0213
 1503SOL     OW14842   3.783   8.393   1.408 -0.2222  0.9363  0.3118
 1503SOL    HW114843   3.859   8.328   1.407  0.1380  1.3630 -0.5658
 1503SOL    HW214844   3.789   8.452   1.328 -2.9898 -0.7758 -1.2305
 1504SOL     OW14845   3.676   3.852   2.982  0.4779 -0.2657 -0.0259
 1504SOL    HW114846   3.632   3.941   2.982 -0.4891 -0.6901 -2.1904
 1504SOL    HW214847   3.610   3.782   2.953  1.7537 -1.3717 -0.3443
 1505SOL     OW14848   1.377   9.180   0.548 -0.1863 -0.2445 -0.0444
 1505SOL    HW114849   1.357   9.269   0.589  0.6651 -0.0259 -0.0962
 1505SOL    HW214850   1.341   9.177   0.455  0.9014  0.5134 -0.4946
 1506SOL     OW14851   0.489   8.256   3.657  0.6970  0.0812 -0.0109
 1506SOL    HW114852   0.446   8.312   3.728 -1.8767  0.5827 -1.8881
 1506SOL    HW214853   0.563   8.308   3.614  1.5301  0.1834  1.4875
 1507SOL     OW14854   3.802   6.791   2.205  0.1788 -0.0959 -0.2635
 1507SOL    HW114855   3.820   6.705   2.251  0.4471  0.8274  1.3904
 1507SOL    HW214856   3.707   6.819   2.222  0.7616  1.0877  1.1894
 1508SOL     OW14857   1.310   8.374   0.338 -0.3461 -0.0522  0.1963
 1508SOL    HW114858   1.332   8.280   0.365 -0.3536 -0.3635 -0.8304
 1508SOL    HW214859   1.355   8.439   0.399  0.7770 -0.7094  0.0777
 1509SOL     OW14860   8.668   9.391   0.701 -0.0408 -0.0826  0.1421
 1509SOL    HW114861   8.571   9.367   0.690 -0.0030  0.3663 -1.3529
 1509SOL    HW214862   8.723   9.330   0.644  0.7173 -1.4693  2.3264
 1510SOL     OW14863   2.418   5.503   0.253  0.4060 -0.3526 -0.5440
 1510SOL    HW114864   2.390   5.439   0.182 -0.2064 -0.6812 -0.0139
 1510SOL    HW214865   2.426   5.454   0.340  1.0390  0.0701 -0.3617
 1511SOL     OW14866   1.548   3.570   1.425 -1.1096  0.0722 -0.5514
 1511SOL    HW114867   1.597   3.651   1.456 -0.7590 -0.1707 -0.4676
 1511SOL    HW214868   1.599   3.488   1.451 -0.6428 -0.1301 -2.0214
 1512SOL     OW14869   7.349   8.459   3.784 -0.2839 -0.3111  0.1169
 1512SOL    HW114870   7.411   8.498   3.715  0.8105 -3.4817 -0.7665
 1512SOL    HW214871   7.293   8.532   3.823  2.3736  2.2836 -0.7265
 1513SOL     OW14872   9.210   8.943   3.754 -0.3183 -0.2001  0.7138
 1513SOL    HW114873   9.305   8.918   3.739 -0.0095  0.6482  1.2097
 1513SOL    HW214874   9.199   9.041   3.742 -1.1320 -0.2933  0.6639
 1514SOL     OW14875   8.393   0.527   3.692 -0.1157 -0.0591 -0.4950
 1514SOL    HW114876   8.468   0.482   3.643 -0.3831  1.4182 -2.3019
 1514SOL    HW214877   8.372   0.614   3.648  0.0500  1.6255  2.6253
 1515SOL     OW14878   9.265   1.678   3.559 -0.5329  0.1174 -0.3340
 1515SOL    HW114879   9.177   1.715   3.587 -1.0901 -0.4482 -1.3229
 1515SOL    HW214880   9.335   1.750   3.563 -1.3069  0.8979 -0.8674
 1516SOL     OW14881   0.198   8.027   3.919  0.0811  0.0863 -0.2137
 1516SOL    HW114882   0.256   8.010   3.998  1.6922  1.4557 -1.0472
 1516SOL    HW214883   0.244   7.994   3.836 -0.0765  1.5984 -0.9379
 1517SOL     OW14884   0.748   7.699   2.525  0.5649  0.2310 -0.4034
 1517SOL    HW114885   0.711   7.626   2.467  1.5271 -0.6379  0.0702
 1517SOL    HW214886   0.712   7.787   2.494  0.7970 -0.2573 -2.0964
 1518SOL     OW14887   0.287   8.148   3.501 -0.0905 -0.2552  0.6360
 1518SOL    HW114888   0.373   8.180   3.540  0.7103 -1.9054  0.2496
 1518SOL    HW214889   0.240   8.225   3.457  1.7504  0.4210 -0.1939
 1519SOL     OW14890   2.402   4.422   1.041  0.1787 -1.1475  0.1168
 1519SOL    HW114891   2.341   4.369   1.099 -0.2033 -1.6171 -0.7004
 1519SOL    HW214892   2.495   4.418   1.077 -0.5930  1.3201  2.5821
 1520SOL     OW14893   3.707   9.969   2.852  0.1103  0.5970  0.5744
 1520SOL    HW114894   3.675  10.029   2.778  0.4864  1.5018  1.1380
 1520SOL    HW214895   3.780   9.910   2.817  0.3397  1.0733  0.2398
 1521SOL     OW14896   2.474   6.244   2.878 -0.1371 -0.2907  0.1969
 1521SOL    HW114897   2.497   6.197   2.792 -0.7091 -0.0975 -0.0657
 1521SOL    HW214898   2.507   6.338   2.874  1.0129 -0.6688  0.7245
 1522SOL     OW14899   3.256   0.118   3.317  0.2638 -0.1338 -0.3526
 1522SOL    HW114900   3.274   0.157   3.227 -0.3367 -0.2027 -0.5080
 1522SOL    HW214901   3.172   0.063   3.314 -0.0011  0.2140  0.3419
 1523SOL     OW14902   3.744   2.729   1.757 -0.5389 -0.0829  0.1835
 1523SOL    HW114903   3.786   2.690   1.840 -1.0838 -0.3470  0.3397
 1523SOL    HW214904   3.745   2.828   1.763 -0.2764 -0.0949  0.3613
 1524SOL     OW14905   4.835   8.771   3.154 -0.5914  0.4336 -0.0219
 1524SOL    HW114906   4.848   8.693   3.216  0.9552 -0.8156 -1.8801
 1524SOL    HW214907   4.740   8.772   3.123  0.1152 -2.7656 -2.5787
 1525SOL     OW14908   8.156   9.108   3.082 -0.0663 -0.0532 -0.3176
 1525SOL    HW114909   8.228   9.175   3.065  0.3342 -0.1434  0.9554
 1525SOL    HW214910   8.145   9.096   3.181 -0.5681 -1.4100 -0.5334
 1526SOL     OW14911   5.474   9.597   2.645 -0.1961 -0.3092 -0.2475
 1526SOL    HW114912   5.450   9.665   2.575  1.1282 -0.2574 -0.6669
 1526SOL    HW214913   5.397   9.586   2.708 -0.5234  1.3965 -0.3176
 1527SOL     OW14914   3.113   6.425   2.631  0.0161  0.1279  0.3098
 1527SOL    HW114915   3.086   6.346   2.576 -1.3709  1.4122 -0.9006
 1527SOL    HW214916   3.045   6.440   2.703  0.9122 -0.5010  1.2897
 1528SOL     OW14917   7.588   8.855   0.568 -0.2128 -0.1050 -0.0418
 1528SOL    HW114918   7.670   8.817   0.610  0.8191  0.5144 -1.4285
 1528SOL    HW214919   7.606   8.872   0.471 -1.8383  0.4675 -0.2551
 1529SOL     OW14920   0.928   0.177   1.935  0.4239  0.2782  0.4281
 1529SOL    HW114921   0.974   0.189   1.846  1.2957 -0.5142  0.7661
 1529SOL    HW214922   0.871   0.257   1.954 -0.5608  0.0140 -1.3137
 1530SOL     OW14923   2.746   9.418   3.055 -0.6918 -0.7270  0.1502
 1530SOL    HW114924   2.833   9.415   3.005 -0.1757 -0.9873  1.0449
 1530SOL    HW214925   2.690   9.340   3.029 -0.4792 -0.7930 -0.1173
 1531SOL     OW14926   1.849   9.751   0.852 -0.0027 -0.1293  0.0910
 1531SOL    HW114927   1.932   9.712   0.811 -0.5577  0.5598 -1.7106
 1531SOL    HW214928   1.873   9.794   0.939  1.3451 -0.8847  0.1108
 1532SOL     OW14929   3.178   4.615   0.010 -0.1865 -0.0177 -0.5262
 1532SOL    HW114930   3.210   4.652   0.097  2.0912 -3.0105  0.0012
 1532SOL    HW214931   3.239   4.646  -0.064  0.7188 -1.2811 -0.3279
 1533SOL     OW14932   6.281   8.219   3.084 -0.0493  0.4250 -0.2173
 1533SOL    HW114933   6.286   8.243   3.182 -2.9158  0.5128 -0.0472
 1533SOL    HW214934   6.288   8.120   3.073  0.7487  0.4508  0.0336
 1534SOL     OW14935   7.660   0.411   1.312 -0.4639 -0.1193 -0.1520
 1534SOL    HW114936   7.688   0.335   1.370 -0.8992  0.7306  1.2004
 1534SOL    HW214937   7.734   0.479   1.308  0.9833 -1.7510 -3.4590
 1535SOL     OW14938   3.495   4.011   1.797  0.5827  0.4475  0.2578
 1535SOL    HW114939   3.414   3.972   1.839 -0.5017  0.6071 -1.6096
 1535SOL    HW214940   3.540   4.073   1.861 -0.5705  0.0852  1.4271
 1536SOL     OW14941   3.328   9.487   1.639 -0.4149 -0.4209 -0.4551
 1536SOL    HW114942   3.282   9.507   1.725  1.4680 -0.3902  0.5844
 1536SOL    HW214943   3.262   9.453   1.572 -1.6580 -1.9876  1.5064
 1537SOL     OW14944   9.236   0.998   2.452 -0.5134 -0.4180 -0.1097
 1537SOL    HW114945   9.245   0.938   2.531 -1.2392  0.1162  0.3888
 1537SOL    HW214946   9.271   1.089   2.475 -2.2689  0.2129  0.1602
 1538SOL     OW14947   7.499   8.689   0.017  0.3839 -0.8485  0.3478
 1538SOL    HW114948   7.456   8.730  -0.064  1.7103 -1.4737 -0.6887
 1538SOL    HW214949   7.557   8.613  -0.011  2.4753  0.2359  1.6798
 1539SOL     OW14950   0.306   7.730   2.914  0.4270  0.7482 -0.3073
 1539SOL    HW114951   0.319   7.816   2.864 -1.7133  0.5961 -1.1720
 1539SOL    HW214952   0.253   7.666   2.858  0.8315 -0.6537  0.8683
 1540SOL     OW14953   2.868   3.702   3.544 -0.3851  0.2495  0.6953
 1540SOL    HW114954   2.891   3.686   3.448 -0.2444  0.6951  0.6563
 1540SOL    HW214955   2.838   3.796   3.557  0.6621  0.5072  1.2907
 1541SOL     OW14956   7.633   8.692   2.547 -0.1600  0.0502  0.0676
 1541SOL    HW114957   7.720   8.735   2.525 -1.7861  2.3949 -2.1721
 1541SOL    HW214958   7.633   8.662   2.642  1.9821  2.8729  1.0397
 1542SOL     OW14959   1.648   6.897   3.791 -0.0468 -0.8654 -0.0553
 1542SOL    HW114960   1.595   6.926   3.871  0.2348 -1.4250  0.3353
 1542SOL    HW214961   1.738   6.863   3.821  1.0147  1.2009 -0.8049
 1543SOL     OW14962   4.270   7.556   2.675  0.0775 -1.1314 -0.2118
 1543SOL    HW114963   4.353   7.539   2.729  0.0955  1.4558  0.6461
 1543SOL    HW214964   4.293   7.550   2.578  0.6165 -3.2445  0.0179
 1544SOL     OW14965   3.462   7.055   3.397  0.2665 -0.2349 -0.3465
 1544SOL    HW114966   3.379   7.000   3.401  0.1139  0.0129 -0.0904
 1544SOL    HW214967   3.493   7.062   3.302  0.7564 -1.4560 -0.2807
 1545SOL     OW14968   8.749   9.087   1.919 -0.7699  0.3602 -0.3165
 1545SOL    HW114969   8.664   9.047   1.885 -0.1936 -1.4193  0.2810
 1545SOL    HW214970   8.826   9.029   1.894  0.1328  1.2995  0.2485
 1546SOL     OW14971   2.565   1.262   0.506  0.2383  0.2893 -0.1062
 1546SOL    HW114972   2.505   1.241   0.429  0.4450  1.8518 -0.7133
 1546SOL    HW214973   2.635   1.191   0.514  0.0589 -0.0287 -1.2026
 1547SOL     OW14974   1.463   0.391   0.369  0.2226 -0.5818  0.1500
 1547SOL    HW114975   1.442   0.446   0.289 -0.9455 -0.0325  0.8115
 1547SOL    HW214976   1.378   0.369   0.417  0.9519 -0.4263  1.5422
 1548SOL     OW14977   2.528   1.957   1.086 -0.5702 -0.1754 -0.5229
 1548SOL    HW114978   2.552   1.891   1.016  2.2277  0.5239 -0.2829
 1548SOL    HW214979   2.495   1.909   1.168 -0.0588 -1.1973 -0.9114
 1549SOL     OW14980   8.871   0.983   1.736  0.2068  0.1747 -0.2381
 1549SOL    HW114981   8.818   1.067   1.730  1.6288  1.2138  1.3758
 1549SOL    HW214982   8.814   0.905   1.708 -1.4775  1.5090 -0.5758
 1550SOL     OW14983   1.565   5.413   3.415  0.7885 -0.0665  0.4963
 1550SOL    HW114984   1.633   5.474   3.456 -0.1711  1.4721 -0.1656
 1550SOL    HW214985   1.480   5.463   3.401  0.1772 -1.4052 -0.6398
 1551SOL     OW14986   7.635   8.925   1.201 -0.2373 -0.5449 -0.5057
 1551SOL    HW114987   7.667   9.018   1.180 -1.9701  0.4003  0.8830
 1551SOL    HW214988   7.586   8.926   1.288  1.0615 -3.0877  0.3186
 1552SOL     OW14989   3.252   1.798   2.879  0.3436  0.1675 -0.4644
 1552SOL    HW114990   3.342   1.783   2.837  0.1433 -1.8203 -0.2169
 1552SOL    HW214991   3.265   1.823   2.975  0.6553  0.2620 -0.5292
 1553SOL     OW14992   5.359   8.339   2.642  0.4424  0.2654 -0.4833
 1553SOL    HW114993   5.353   8.368   2.546  0.1788 -1.6027 -1.0476
 1553SOL    HW214994   5.430   8.269   2.650 -0.2001 -0.2666  0.5206
 1554SOL     OW14995   1.794   5.154   3.627 -0.8922  0.0414 -0.8959
 1554SOL    HW114996   1.812   5.212   3.549  0.1245 -0.8149 -1.3084
 1554SOL    HW214997   1.720   5.090   3.605  0.2366 -1.0329 -1.5977
 1555SOL     OW14998   1.170   3.168   3.239  0.1358  0.6254  0.7122
 1555SOL    HW114999   1.083   3.178   3.189  0.4283 -0.6208 -0.0627
 1555SOL    HW215000   1.151   3.153   3.336 -0.5056  0.4581  0.5643
 1556SOL     OW15001   4.706   8.345   0.146 -0.0670 -0.4421  0.4284
 1556SOL    HW115002   4.696   8.340   0.047 -0.9362 -1.2054  0.5503
 1556SOL    HW215003   4.658   8.268   0.189  0.6439 -0.3492  1.4206
 1557SOL     OW15004   1.473   5.066   2.188 -0.0507 -0.1737 -0.0064
 1557SOL    HW115005   1.500   5.037   2.097  1.3031  1.2803 -0.0851
 1557SOL    HW215006   1.444   4.987   2.242  1.0289 -1.2851 -1.0595
 1558SOL     OW15007   8.709   0.437   1.781  0.3548  0.1004 -0.1135
 1558SOL    HW115008   8.726   0.534   1.765  0.2611 -0.0077 -0.9387
 1558SOL    HW215009   8.705   0.390   1.692  0.4911 -0.6669  0.2867
 1559SOL     OW15010   2.501   6.897   4.007  0.2707  0.2031  0.4133
 1559SOL    HW115011   2.559   6.853   4.075 -1.7443 -0.1680  1.9599
 1559SOL    HW215012   2.422   6.939   4.053 -0.4177  1.1395 -1.5574
 1560SOL     OW15013   3.636   1.576   3.268 -0.1721  0.2742  0.4484
 1560SOL    HW115014   3.714   1.515   3.254  0.7488  1.2885  1.1067
 1560SOL    HW215015   3.569   1.562   3.195  0.0740 -1.4294  0.5191
 1561SOL     OW15016   3.541   7.616   0.884  0.1229 -0.4628 -0.1577
 1561SOL    HW115017   3.464   7.569   0.843 -0.1255 -1.0039  0.9050
 1561SOL    HW215018   3.557   7.580   0.976  0.7700  0.5993  0.1563
 1562SOL     OW15019   6.785   9.552   2.977  0.4183 -0.3408  0.1879
 1562SOL    HW115020   6.822   9.570   3.069  2.2355  1.8785 -0.9225
 1562SOL    HW215021   6.846   9.592   2.909 -1.8137 -0.4800 -1.9383
 1563SOL     OW15022   3.002   5.618   1.794 -0.9880  0.4241  0.3137
 1563SOL    HW115023   2.925   5.607   1.857 -1.5914 -1.8193 -0.7718
 1563SOL    HW215024   3.046   5.529   1.780  0.1801  1.2134 -1.1299
 1564SOL     OW15025   2.594   6.489   1.965 -0.1448  0.1641 -0.0816
 1564SOL    HW115026   2.520   6.469   2.030  0.6930  1.2981  1.2425
 1564SOL    HW215027   2.568   6.566   1.908  1.1034  2.3731  2.2508
 1565SOL     OW15028   3.753   1.067   3.245 -0.7998 -0.5942  0.1707
 1565SOL    HW115029   3.800   1.026   3.323 -0.3439  0.7567  0.6024
 1565SOL    HW215030   3.750   1.000   3.170  0.3276 -1.2694  0.7123
 1566SOL     OW15031   4.728   0.484   1.618 -0.0179 -0.6521  0.2006
 1566SOL    HW115032   4.776   0.469   1.704  1.4764  0.2436 -0.4426
 1566SOL    HW215033   4.754   0.412   1.553 -0.5498 -0.9022  0.2705
 1567SOL     OW15034   7.166   9.081   2.989 -0.3039  0.1342  0.3066
 1567SOL    HW115035   7.196   9.176   2.990  1.5737 -0.4254 -0.5691
 1567SOL    HW215036   7.080   9.074   2.937 -0.4681  1.3397  0.3964
 1568SOL     OW15037   3.824   7.796   0.123 -0.3279 -0.3697  0.2104
 1568SOL    HW115038   3.774   7.812   0.208 -0.6554  0.9871 -0.2265
 1568SOL    HW215039   3.792   7.860   0.053 -0.2890 -1.6873 -1.0362
 1569SOL     OW15040   8.770   9.001   2.793 -0.1511 -0.3245 -0.2053
 1569SOL    HW115041   8.754   9.053   2.709 -0.6348 -1.0929 -0.5930
 1569SOL    HW215042   8.713   8.919   2.793  1.1721 -1.2555  0.0528
 1570SOL     OW15043   0.022   9.301   1.145 -0.0214  1.3368 -0.5533
 1570SOL    HW115044   0.032   9.219   1.200  0.8423  2.2463  0.6671
 1570SOL    HW215045  -0.062   9.296   1.092  0.2395 -0.5113 -0.7999
 1571SOL     OW15046   1.106   9.632   3.157 -0.1272 -0.1144 -0.6917
 1571SOL    HW115047   1.085   9.675   3.070  1.4758 -0.1123 -1.1006
 1571SOL    HW215048   1.071   9.539   3.158  0.2577 -0.2731 -1.5268
 1572SOL     OW15049   2.777   5.792   1.331 -0.3187 -0.1823  0.0005
 1572SOL    HW115050   2.866   5.801   1.287  0.5194  0.2363  1.7393
 1572SOL    HW215051   2.787   5.739   1.415 -1.8777 -0.9151 -0.2546
 1573SOL     OW15052   1.908   0.018   3.034  0.2609  0.0144 -0.3138
 1573SOL    HW115053   2.003   0.025   3.004  0.1956  0.7437 -0.3548
 1573SOL    HW215054   1.905  -0.024   3.125  0.5529 -0.8894 -0.7108
 1574SOL     OW15055   4.026   1.187   3.910  0.2943 -0.6019 -0.2247
 1574SOL    HW115056   3.958   1.182   3.837  0.1222 -1.3820 -0.0126
 1574SOL    HW215057   3.990   1.242   3.985  0.3233 -0.1145 -0.5664
 1575SOL     OW15058   3.603   8.006   3.084 -0.5507 -0.1922 -0.2544
 1575SOL    HW115059   3.678   7.950   3.118 -0.0057  0.7064  0.0335
 1575SOL    HW215060   3.535   8.019   3.157 -1.0362 -1.0626 -0.5356
 1576SOL     OW15061   8.433   9.909   2.164  0.3915  0.2432 -0.0448
 1576SOL    HW115062   8.508   9.958   2.208  0.8611 -1.0751  0.6229
 1576SOL    HW215063   8.467   9.825   2.122 -0.8708 -0.8999  1.1629
 1577SOL     OW15064   0.951   3.600   0.310 -0.1555 -0.6594 -0.1058
 1577SOL    HW115065   1.042   3.622   0.275 -1.3849  0.9164 -2.4552
 1577SOL    HW215066   0.896   3.561   0.236 -1.0561 -2.7278  1.5933
 1578SOL     OW15067   5.815   9.236   2.056 -0.5146  0.2988 -0.3961
 1578SOL    HW115068   5.873   9.308   2.094 -0.4665 -0.6989  1.4967
 1578SOL    HW215069   5.844   9.217   1.962  1.1143  1.0081 -0.0668
 1579SOL     OW15070   9.585   3.111   3.932 -0.2774 -0.0461 -0.2662
 1579SOL    HW115071   9.539   3.162   4.005 -0.6679 -1.6777  0.6498
 1579SOL    HW215072   9.586   3.166   3.849 -2.2274  0.7781  0.2182
 1580SOL     OW15073   3.189   3.864   3.159  0.3963 -0.6729 -0.2711
 1580SOL    HW115074   3.253   3.941   3.158 -0.4248  0.1113  2.4755
 1580SOL    HW215075   3.096   3.898   3.141  0.0577 -1.0391  0.7531
 1581SOL     OW15076   9.169   2.089   3.947  0.2317  0.3747  0.2672
 1581SOL    HW115077   9.070   2.097   3.957  0.2346 -0.6780  1.2083
 1581SOL    HW215078   9.213   2.159   4.004  0.0834 -1.0038  2.0966
 1582SOL     OW15079   0.503   2.116   3.551 -0.6031 -0.1559  0.0998
 1582SOL    HW115080   0.518   2.033   3.605  0.0606  0.0939  0.2988
 1582SOL    HW215081   0.545   2.104   3.461  0.0021  0.1862  0.3331
 1583SOL     OW15082   3.962   8.205   1.695 -0.2273 -0.1794 -0.0680
 1583SOL    HW115083   3.920   8.295   1.704 -3.2405 -1.4757 -0.3483
 1583SOL    HW215084   3.990   8.190   1.600  0.4424  0.5237  0.0186
 1584SOL     OW15085   8.282   1.019   0.765 -0.3796 -0.2068  0.0097
 1584SOL    HW115086   8.338   0.950   0.720 -0.1690 -0.3953  0.5537
 1584SOL    HW215087   8.334   1.103   0.775  0.0575 -0.6011  1.1450
 1585SOL     OW15088   0.409   8.137   2.589  0.2262 -0.1575 -0.0032
 1585SOL    HW115089   0.369   8.184   2.511  1.5930 -0.6269 -0.9998
 1585SOL    HW215090   0.464   8.201   2.643 -1.1263  0.2875  0.8994
 1586SOL     OW15091   2.733   9.559   2.516 -0.3706 -0.4299  0.0832
 1586SOL    HW115092   2.668   9.592   2.584 -0.4913 -1.6576  0.5748
 1586SOL    HW215093   2.820   9.538   2.561 -0.2618 -0.6695 -0.2364
 1587SOL     OW15094   6.452   8.695   2.150  0.6017  0.5275 -0.2788
 1587SOL    HW115095   6.368   8.746   2.166  0.7974  1.5464 -2.2757
 1587SOL    HW215096   6.527   8.734   2.203  0.1751  0.6578  0.2211
 1588SOL     OW15097   7.353   8.779   3.190  0.3675  0.0245  0.4620
 1588SOL    HW115098   7.393   8.870   3.178  1.1010 -0.4680 -0.9062
 1588SOL    HW215099   7.293   8.780   3.271 -0.3704  1.9713 -0.0652
 1589SOL     OW15100   7.802   0.405   0.511  0.9082 -0.2150  0.3937
 1589SOL    HW115101   7.828   0.457   0.592  0.2576 -0.2406  0.6180
 1589SOL    HW215102   7.821   0.459   0.429  0.7761  0.1452  0.6016
 1590SOL     OW15103   3.468   4.200   0.893  0.2745 -0.0361 -0.5742
 1590SOL    HW115104   3.473   4.249   0.806  1.7347 -1.5674 -1.3670
 1590SOL    HW215105   3.559   4.191   0.932 -0.4596  1.4618  1.6141
 1591SOL     OW15106   8.589   0.433   0.890  1.2555  0.0405  0.0655
 1591SOL    HW115107   8.565   0.403   0.798  0.6017  0.1227  0.2085
 1591SOL    HW215108   8.506   0.453   0.942  1.6331  0.4183  0.5324
 1592SOL     OW15109   2.451   1.856   0.156 -0.1563 -0.7108  0.0297
 1592SOL    HW115110   2.524   1.924   0.158  0.6730 -1.6140  1.3529
 1592SOL    HW215111   2.367   1.896   0.194  0.5654 -0.6923  1.6154
 1593SOL     OW15112   1.646   8.090   0.524 -0.2208 -0.2625  0.2145
 1593SOL    HW115113   1.620   7.997   0.549 -0.8428  0.2892  1.6770
 1593SOL    HW215114   1.653   8.146   0.607  1.2667  0.7101 -0.5481
 1594SOL     OW15115   1.048   1.126   2.119  0.5061  0.3259  0.2894
 1594SOL    HW115116   1.116   1.065   2.077  0.1948  0.3156 -0.2146
 1594SOL    HW215117   1.092   1.183   2.188  1.1393  0.7051 -0.4200
 1595SOL     OW15118   2.425   6.034   2.262 -0.0130  0.6050  0.1975
 1595SOL    HW115119   2.403   6.104   2.330 -1.0462  0.4349  0.0415
 1595SOL    HW215120   2.404   6.069   2.171 -1.5482 -0.2847  0.1959
 1596SOL     OW15121   9.586   9.354   1.193 -0.5678 -0.4885  0.4249
 1596SOL    HW115122   9.629   9.315   1.274  0.5131 -0.9841 -0.3614
 1596SOL    HW215123   9.537   9.437   1.217 -1.8207 -1.6295  1.9087
 1597SOL     OW15124   8.295   9.728   0.594  0.5503 -0.0661 -0.0824
 1597SOL    HW115125   8.291   9.813   0.647  3.0783 -1.1505  1.9428
 1597SOL    HW215126   8.208   9.679   0.602  1.4348 -1.0296  4.5389
 1598SOL     OW15127   0.377   8.545   2.274  0.2915 -0.4450  0.2230
 1598SOL    HW115128   0.447   8.614   2.297 -0.0817 -0.4292  1.3553
 1598SOL    HW215129   0.416   8.478   2.212  0.5639  0.9787 -1.1746
 1599SOL     OW15130   3.196   0.703   0.994  0.0932 -1.1100  0.2356
 1599SOL    HW115131   3.189   0.678   1.090  3.1206 -1.5902  0.3531
 1599SOL    HW215132   3.233   0.795   0.986 -0.9190 -0.7494 -0.4795
 1600SOL     OW15133   2.200   0.044   2.956 -0.0729  0.3273 -0.2049
 1600SOL    HW115134   2.222   0.046   3.054  1.5767  1.2695 -0.5939
 1600SOL    HW215135   2.214  -0.049   2.921 -0.5151  0.0212  0.3976
 1601SOL     OW15136   2.466   7.642   1.338  0.5248  0.6236  0.2493
 1601SOL    HW115137   2.377   7.684   1.358 -0.3735 -1.5862  1.0713
 1601SOL    HW215138   2.519   7.634   1.422 -0.0975 -1.5694  0.4802
 1602SOL     OW15139   7.370   8.897   2.268 -0.1145  0.7876 -0.0343
 1602SOL    HW115140   7.456   8.846   2.276  0.7366  2.1149 -0.5719
 1602SOL    HW215141   7.390   8.991   2.241 -1.9320  0.2821 -3.4174
 1603SOL     OW15142   0.071   2.487   2.463 -0.2034 -0.0067  0.1673
 1603SOL    HW115143   0.121   2.412   2.508 -1.1262 -0.5141  0.3610
 1603SOL    HW215144   0.111   2.504   2.373  0.6708 -0.0330  0.5443
 1604SOL     OW15145   8.728   1.558   2.547  0.6064 -0.0222 -0.2348
 1604SOL    HW115146   8.817   1.541   2.589  0.8069 -1.6939 -1.2914
 1604SOL    HW215147   8.674   1.474   2.548 -0.3111  0.5460 -1.1279
 1605SOL     OW15148   2.514   8.117   1.263  0.1249 -0.0633 -0.1244
 1605SOL    HW115149   2.555   8.136   1.173  0.0585  0.7214  0.0096
 1605SOL    HW215150   2.586   8.090   1.327  0.3006  0.3425 -0.1515
 1606SOL     OW15151   4.185   2.585   0.832 -0.6525 -0.2366  0.0540
 1606SOL    HW115152   4.086   2.597   0.824 -0.7126 -1.4047 -1.2878
 1606SOL    HW215153   4.225   2.580   0.740  0.8403  1.5812  0.5686
 1607SOL     OW15154   1.110   5.346   3.780  0.8024 -0.0495  0.2922
 1607SOL    HW115155   1.119   5.445   3.777  0.1459  0.0345  0.9010
 1607SOL    HW215156   1.143   5.312   3.868 -1.7122 -0.0458  1.2990
 1608SOL     OW15157   8.216   0.068   3.189 -0.0471  0.0836  0.1778
 1608SOL    HW115158   8.139   0.047   3.129 -0.6153  1.2234  0.4958
 1608SOL    HW215159   8.293   0.010   3.166 -0.7389 -0.4944 -0.6949
 1609SOL     OW15160   2.509   2.009   3.636  0.1865  0.2593  0.3755
 1609SOL    HW115161   2.583   1.978   3.576 -0.3193 -1.6453  0.6973
 1609SOL    HW215162   2.497   2.107   3.625  1.9090  0.3918 -0.6290
 1610SOL     OW15163   4.563   7.695   0.769 -0.7701 -0.1880  0.0703
 1610SOL    HW115164   4.632   7.723   0.703 -0.7236  1.5725  0.8497
 1610SOL    HW215165   4.519   7.611   0.736  0.5974 -0.4359 -1.2188
 1611SOL     OW15166   3.118   7.240   2.438  0.0481  0.5491 -0.0805
 1611SOL    HW115167   3.169   7.181   2.376 -0.4777 -0.3271  0.3223
 1611SOL    HW215168   3.182   7.293   2.494  0.5221  1.3281 -1.3462
 1612SOL     OW15169   0.122   1.853   2.383  0.1413 -0.1936 -0.2829
 1612SOL    HW115170   0.205   1.818   2.428 -1.2642  0.7616  3.2676
 1612SOL    HW215171   0.142   1.943   2.344  0.8408 -0.0151  0.4507
 1613SOL     OW15172   2.834   4.000   0.925  0.0556  0.3808  0.1231
 1613SOL    HW115173   2.897   3.998   0.848  0.6197  0.1274  0.5865
 1613SOL    HW215174   2.766   4.072   0.911 -1.5696 -1.4856 -1.9767
 1614SOL     OW15175   8.468   8.638   3.237 -0.8912 -0.4915  0.1507
 1614SOL    HW115176   8.458   8.735   3.213  0.5392 -0.7503 -1.5984
 1614SOL    HW215177   8.429   8.622   3.328 -0.0638  1.9645  0.9778
 1615SOL     OW15178   9.332   9.060   0.160  0.4549  0.0745 -0.1288
 1615SOL    HW115179   9.238   9.027   0.150  0.4520 -0.1939  0.7774
 1615SOL    HW215180   9.375   9.066   0.069 -0.8400  1.4190 -0.6760
 1616SOL     OW15181   5.811   9.109   2.743 -0.0439 -0.3698 -0.1416
 1616SOL    HW115182   5.878   9.035   2.754 -0.6526 -0.8288  0.5651
 1616SOL    HW215183   5.729   9.087   2.796 -0.3786  0.6409 -0.2385
 1617SOL     OW15184   4.460   8.978   2.613 -0.6865 -0.3855  0.4087
 1617SOL    HW115185   4.432   9.055   2.671  0.4711  0.3877 -0.0434
 1617SOL    HW215186   4.540   9.005   2.559 -1.4665 -1.2507 -1.1936
 1618SOL     OW15187   3.941   2.052   0.631 -0.0108  0.0085 -0.4540
 1618SOL    HW115188   3.885   2.075   0.710  0.4110  2.1228 -0.7584
 1618SOL    HW215189   3.895   2.080   0.547  1.1266  0.9982 -0.7528
 1619SOL     OW15190   1.808   3.000   0.251 -0.3963 -0.3653 -0.1371
 1619SOL    HW115191   1.777   3.068   0.318  1.4332  0.1083  0.2691
 1619SOL    HW215192   1.834   3.046   0.166  1.1430 -0.5011  0.2439
 1620SOL     OW15193   1.182   9.729   0.340 -0.3844  0.1641 -0.1858
 1620SOL    HW115194   1.263   9.722   0.283 -0.3678 -0.2732 -0.1125
 1620SOL    HW215195   1.125   9.648   0.327  0.1016 -0.4158  1.1414
 1621SOL     OW15196   8.392   7.260   3.981  0.4015 -0.2347 -0.0572
 1621SOL    HW115197   8.376   7.310   3.896  0.2402 -1.3082 -0.6721
 1621SOL    HW215198   8.486   7.228   3.984  0.2974 -0.5383 -0.0155
 1622SOL     OW15199   4.562   1.492   2.383  0.3041  0.2398  0.3068
 1622SOL    HW115200   4.531   1.532   2.297 -1.7880  2.1032  1.8494
 1622SOL    HW215201   4.492   1.431   2.419 -0.3711  2.1373  2.3419
 1623SOL     OW15202   3.208   8.600   1.785 -0.1594  0.2922 -0.1692
 1623SOL    HW115203   3.295   8.553   1.801 -1.7297 -1.8831  2.5107
 1623SOL    HW215204   3.214   8.695   1.815  1.9261  0.7775 -2.0628
 1624SOL     OW15205   2.828   8.613   2.332  0.2514  0.0552  0.3635
 1624SOL    HW115206   2.834   8.519   2.299 -1.4934 -0.1880  0.7363
 1624SOL    HW215207   2.870   8.619   2.422 -0.2783 -0.5217  0.6507
 1625SOL     OW15208   3.489   9.230   2.622 -0.3537 -0.3381 -0.5202
 1625SOL    HW115209   3.407   9.250   2.568  0.1443 -0.6848 -1.4161
 1625SOL    HW215210   3.570   9.262   2.573  0.1762 -1.5206 -0.4270
 1626SOL     OW15211   8.072   3.409   1.165 -0.4540 -0.9919  0.4773
 1626SOL    HW115212   8.070   3.437   1.069  1.4356 -1.3261  0.3292
 1626SOL    HW215213   7.993   3.350   1.183 -0.3096 -1.7153 -1.1255
 1627SOL     OW15214   4.155   7.310   2.283  0.0070 -0.0876  0.4722
 1627SOL    HW115215   4.158   7.400   2.326  0.9293  0.4861 -0.7428
 1627SOL    HW215216   4.065   7.269   2.297 -0.7518  1.4589  0.1961
 1628SOL     OW15217   1.332   9.195   3.429  0.0649 -0.5156  0.2820
 1628SOL    HW115218   1.355   9.255   3.506  1.3666 -0.6983  0.0452
 1628SOL    HW215219   1.350   9.100   3.454 -1.2562 -0.7512  0.3810
 1629SOL     OW15220   1.424   9.890   2.156 -0.1283  0.4993  0.0384
 1629SOL    HW115221   1.333   9.856   2.179 -0.1151  0.4839  0.0671
 1629SOL    HW215222   1.483   9.813   2.133 -0.1462  0.5170 -0.0653
 1630SOL     OW15223   3.255   8.733   2.847  0.3469 -0.2227  0.7980
 1630SOL    HW115224   3.281   8.642   2.813 -0.2541 -0.2195  0.3128
 1630SOL    HW215225   3.306   8.753   2.930  0.9276 -0.7591  0.5798
 1631SOL     OW15226   4.626   7.770   3.566 -0.3743  0.2592 -0.0655
 1631SOL    HW115227   4.709   7.722   3.538  0.8064  0.0713  3.5104
 1631SOL    HW215228   4.641   7.869   3.561 -0.2141  0.2314 -0.1339
 1632SOL     OW15229   2.498   7.311   1.687 -0.8482 -0.0359 -0.0741
 1632SOL    HW115230   2.490   7.314   1.588 -0.7005  1.2906 -0.0546
 1632SOL    HW215231   2.592   7.332   1.714 -1.4525  2.2644  0.4229
 1633SOL     OW15232   0.625   3.108   2.610 -0.3746 -0.7631 -0.8703
 1633SOL    HW115233   0.572   3.082   2.530  1.3822 -0.4212 -2.1653
 1633SOL    HW215234   0.649   3.026   2.662 -0.5178 -1.0905 -1.3200
 1634SOL     OW15235   7.619   1.107   3.753  0.2210 -0.6003 -0.0866
 1634SOL    HW115236   7.639   1.040   3.682  0.9723 -0.4389 -0.0288
 1634SOL    HW215237   7.523   1.099   3.781  0.5216 -2.1872  0.5016
 1635SOL     OW15238   9.462   9.366   0.706 -0.3341  0.1449 -0.0453
 1635SOL    HW115239   9.375   9.390   0.749  0.7412  1.6223  1.3950
 1635SOL    HW215240   9.469   9.267   0.697 -1.9492 -0.0048  0.2860
 1636SOL     OW15241   8.181   8.566   3.160 -0.0336  0.0534  0.0331
 1636SOL    HW115242   8.181   8.642   3.095 -1.6397  1.9346  2.1259
 1636SOL    HW215243   8.272   8.557   3.200  0.1081  1.1153 -0.0189
 1637SOL     OW15244   8.224   8.711   2.934 -0.2840  0.1111  0.1852
 1637SOL    HW115245   8.131   8.730   2.904  0.1136  0.1489 -1.0650
 1637SOL    HW215246   8.288   8.763   2.877  0.6255 -1.9268 -0.6877
 1638SOL     OW15247   8.854   8.799   0.857 -0.3869 -0.3249  0.0601
 1638SOL    HW115248   8.817   8.832   0.944  1.6666  0.9816  0.4630
 1638SOL    HW215249   8.779   8.787   0.792 -1.6750  1.0969  1.2426
 1639SOL     OW15250   2.146   5.045   0.364 -0.2952 -1.1290  0.4495
 1639SOL    HW115251   2.113   4.982   0.294  0.7575 -1.2273  0.0298
 1639SOL    HW215252   2.229   5.090   0.332 -0.0838 -0.8019  1.4364
 1640SOL     OW15253   4.333   3.136   1.384  0.3131  0.4576  0.0298
 1640SOL    HW115254   4.283   3.182   1.457  1.1861  0.1319  0.8498
 1640SOL    HW215255   4.408   3.194   1.352 -0.8578  1.1415 -1.5220
 1641SOL     OW15256   0.317   2.273   1.989 -0.1503 -0.0704 -0.2598
 1641SOL    HW115257   0.321   2.192   1.930 -1.0648 -2.1327  2.4091
 1641SOL    HW215258   0.222   2.290   2.017  0.4214  0.0141  1.7348
 1642SOL     OW15259   4.076   2.908   0.323  0.0319 -0.2561  0.3445
 1642SOL    HW115260   4.102   2.844   0.251  0.0564 -0.1544  0.2634
 1642SOL    HW215261   3.982   2.939   0.307  0.6581  1.1464 -0.6359
 1643SOL     OW15262   0.646   7.539   1.158  0.1785  0.1624  0.0463
 1643SOL    HW115263   0.724   7.485   1.127  0.1751 -0.0663  0.4300
 1643SOL    HW215264   0.584   7.555   1.081 -0.9473 -2.3116  0.3872
 1644SOL     OW15265   2.977   5.734   0.383  0.0726  0.1792 -0.0700
 1644SOL    HW115266   2.928   5.679   0.450 -1.1131  1.4360  0.1175
 1644SOL    HW215267   2.923   5.815   0.360  0.5566 -0.1115 -2.3759
 1645SOL     OW15268   0.636   2.483   0.502  0.1991 -0.0214  0.0934
 1645SOL    HW115269   0.625   2.384   0.513  0.0289 -0.0835 -0.5941
 1645SOL    HW215270   0.731   2.508   0.520  0.8885 -0.7042 -2.3682
 1646SOL     OW15271   4.070   9.705   0.683 -0.4428 -0.0772 -0.0341
 1646SOL    HW115272   4.140   9.661   0.739 -1.3287 -0.0300  1.1229
 1646SOL    HW215273   4.056   9.652   0.599  1.0580 -0.0174 -0.3349
 1647SOL     OW15274   0.023   1.046   1.696  0.0501  0.2069 -0.0223
 1647SOL    HW115275   0.047   1.141   1.673  0.5996  0.6929  2.4863
 1647SOL    HW215276   0.041   1.029   1.792 -1.4264 -2.0554 -0.1085
 1648SOL     OW15277   2.420   4.334   0.238  0.2782 -0.2857 -0.0409
 1648SOL    HW115278   2.321   4.342   0.232  0.3042 -0.8646 -1.1639
 1648SOL    HW215279   2.443   4.260   0.301  0.0133  0.8967  1.4792
 1649SOL     OW15280   3.320   1.705   0.815  0.2319  0.1581 -0.2738
 1649SOL    HW115281   3.266   1.786   0.837  1.6816  1.1004 -0.1338
 1649SOL    HW215282   3.262   1.638   0.769 -1.4396  0.5112  1.2454
 1650SOL     OW15283   1.919   0.093   1.383  0.1864  0.5194 -0.0829
 1650SOL    HW115284   1.902   0.155   1.459 -0.2928  2.8591 -2.0208
 1650SOL    HW215285   2.012   0.108   1.348 -1.0057  2.5330 -2.5954
 1651SOL     OW15286   0.563   1.690   2.271 -0.5232 -0.0665 -1.2093
 1651SOL    HW115287   0.522   1.659   2.357  0.7173  2.2053  0.2353
 1651SOL    HW215288   0.648   1.640   2.254 -0.0353  0.4666 -0.3745
 1652SOL     OW15289   0.654   3.334   3.447  0.5316 -0.2763  0.2326
 1652SOL    HW115290   0.561   3.364   3.426  1.1717  0.6083 -1.4275
 1652SOL    HW215291   0.690   3.388   3.523  0.2748  0.5076 -0.2019
 1653SOL     OW15292   1.255   2.457   4.002 -0.6176 -0.9413  0.4762
 1653SOL    HW115293   1.355   2.456   4.000 -0.6405 -2.0132 -0.9673
 1653SOL    HW215294   1.223   2.549   3.980  0.0558 -0.8002  0.0559
 1654SOL     OW15295   8.083   0.535   3.482  0.6666 -0.3808 -0.3473
 1654SOL    HW115296   8.105   0.463   3.416  2.9488 -1.0583  1.0735
 1654SOL    HW215297   8.160   0.598   3.489 -0.5644  1.1243 -0.1813
 1655SOL     OW15298   2.180   8.385   0.880  0.2273 -0.2778  0.3749
 1655SOL    HW115299   2.108   8.453   0.870  0.7151  0.5050  2.0838
 1655SOL    HW215300   2.158   8.325   0.957  0.6997 -0.9374  0.0020
 1656SOL     OW15301   9.968   9.758   1.089  0.4201  0.3629  0.3862
 1656SOL    HW115302  10.028   9.733   1.165  0.7646  2.9175  0.9972
 1656SOL    HW215303  10.017   9.821   1.028  0.0436 -1.4032 -1.8033
 1657SOL     OW15304   3.959   4.620   3.099  0.2152  0.3908 -0.2438
 1657SOL    HW115305   3.976   4.672   3.015  0.9083  1.5669  0.6089
 1657SOL    HW215306   3.863   4.593   3.102 -0.4341  2.5489 -0.2362
 1658SOL     OW15307   9.857   8.896   3.473 -0.2622 -0.2290 -0.1584
 1658SOL    HW115308   9.809   8.922   3.390 -1.1834 -1.1972  0.0554
 1658SOL    HW215309   9.946   8.941   3.476  0.0740 -0.7330 -2.0100
 1659SOL     OW15310   7.676   8.309   1.112  0.3905 -0.0408 -0.0779
 1659SOL    HW115311   7.631   8.376   1.171  1.5578 -0.1605  0.9893
 1659SOL    HW215312   7.753   8.268   1.162  2.1594  0.7200 -2.0850
 1660SOL     OW15313   3.347   2.268   2.006  0.4208  0.6980 -0.4677
 1660SOL    HW115314   3.386   2.303   2.091  0.3068  1.6525 -0.8044
 1660SOL    HW215315   3.289   2.338   1.965 -2.4935 -1.0237  0.5465
 1661SOL     OW15316   3.462   1.652   2.188  0.5967 -0.1968 -0.2391
 1661SOL    HW115317   3.546   1.639   2.135  0.6997  1.2464 -0.4586
 1661SOL    HW215318   3.448   1.749   2.205  1.1278 -0.6859  3.3164
 1662SOL     OW15319   2.507   6.756   2.213  0.2353  0.3821  0.0474
 1662SOL    HW115320   2.501   6.806   2.127  0.5067 -1.1186 -0.8733
 1662SOL    HW215321   2.483   6.660   2.197 -2.1586  0.5840  2.1318
 1663SOL     OW15322   0.561   8.500   0.288 -0.0131  0.6630  0.3921
 1663SOL    HW115323   0.511   8.573   0.335  1.3734  2.9296 -1.5786
 1663SOL    HW215324   0.644   8.538   0.247  1.1563 -2.2114  0.0247
 1664SOL     OW15325   1.783   4.155   2.018  0.3045  0.2521 -0.2742
 1664SOL    HW115326   1.727   4.167   1.936  1.7822 -2.1542 -1.7152
 1664SOL    HW215327   1.821   4.063   2.019  3.0983  1.3613  1.3928
 1665SOL     OW15328   2.543   7.702   2.537  0.2836 -0.5931 -0.1746
 1665SOL    HW115329   2.502   7.647   2.610 -0.8773 -1.2925 -1.3416
 1665SOL    HW215330   2.488   7.695   2.454  1.5054  0.3173 -1.0916
 1666SOL     OW15331   4.511   0.942   2.325 -0.5768  0.2201  0.0579
 1666SOL    HW115332   4.460   0.918   2.407 -2.5345  0.9032 -0.9381
 1666SOL    HW215333   4.571   0.865   2.300 -0.3896 -0.2158  1.7658
 1667SOL     OW15334   9.738   1.206   3.369  0.0136  0.1796 -0.1039
 1667SOL    HW115335   9.642   1.215   3.397 -0.0817  1.0909 -0.6960
 1667SOL    HW215336   9.743   1.207   3.269  0.7698  1.5261 -0.0566
 1668SOL     OW15337   8.537   8.828   3.586 -0.2034 -0.3628  0.4348
 1668SOL    HW115338   8.605   8.756   3.602  0.8193  0.4896 -0.0240
 1668SOL    HW215339   8.583   8.911   3.556 -1.5450 -0.0834 -0.8940
 1669SOL     OW15340   1.595   4.801   0.828 -0.0036 -0.2428 -0.5963
 1669SOL    HW115341   1.571   4.712   0.867 -1.9993 -0.0542 -1.3579
 1669SOL    HW215342   1.575   4.873   0.894 -0.6433 -0.1627 -0.8780
 1670SOL     OW15343   8.898   8.627   1.502  0.4172  0.0126 -0.1711
 1670SOL    HW115344   8.858   8.718   1.499 -0.0717 -0.1658  0.7127
 1670SOL    HW215345   8.988   8.631   1.545  0.2172  0.0254  0.2547
 1671SOL     OW15346   3.671   4.501   2.888  0.2366  0.0291  0.2911
 1671SOL    HW115347   3.725   4.419   2.867 -0.2245 -0.5500  1.3379
 1671SOL    HW215348   3.678   4.521   2.985  0.4655  1.3296  0.0126
 1672SOL     OW15349   5.613   8.189   2.347  0.1030 -0.3262  0.9546
 1672SOL    HW115350   5.622   8.289   2.355 -2.0535 -0.1332  1.4614
 1672SOL    HW215351   5.687   8.153   2.291  0.4514  1.6803  0.0624
 1673SOL     OW15352   1.779   0.854   3.951  0.3709 -0.5229  0.3195
 1673SOL    HW115353   1.700   0.795   3.934 -0.1897  0.0946  0.7102
 1673SOL    HW215354   1.767   0.900   4.040 -0.4852  2.1754 -1.1320
 1674SOL     OW15355   3.438   3.518   0.414 -0.0554 -0.3554  0.5796
 1674SOL    HW115356   3.403   3.465   0.337  1.3704  0.4457 -0.6378
 1674SOL    HW215357   3.532   3.491   0.434  0.6521  1.5980  0.0157
 1675SOL     OW15358   0.148   8.506   0.841 -0.1064 -0.6242 -0.3384
 1675SOL    HW115359   0.066   8.489   0.895 -0.2230 -1.6191 -0.8073
 1675SOL    HW215360   0.133   8.475   0.747  1.0053 -1.3815 -0.2876
 1676SOL     OW15361   0.517   2.884   0.348 -0.8554  0.2619  0.0917
 1676SOL    HW115362   0.560   2.841   0.269 -0.0305  1.5124 -0.1488
 1676SOL    HW215363   0.531   2.826   0.429  3.4727  1.7528  0.5531
 1677SOL     OW15364   1.625   6.832   0.309  0.0117  0.8542  0.0161
 1677SOL    HW115365   1.685   6.888   0.251  0.5438  0.2667 -0.0117
 1677SOL    HW215366   1.548   6.887   0.339  0.8905  1.8129  0.5754
 1678SOL     OW15367   0.846   0.563   2.525  0.0372 -0.4651 -0.3820
 1678SOL    HW115368   0.766   0.511   2.556  0.0290 -2.7220 -3.9356
 1678SOL    HW215369   0.929   0.513   2.548  0.2320 -0.1237 -0.3392
 1679SOL     OW15370   7.061   8.574   2.285 -0.3381 -0.5463  0.2438
 1679SOL    HW115371   7.160   8.591   2.277 -0.1666 -1.8012 -0.4989
 1679SOL    HW215372   7.036   8.573   2.381 -0.1863  2.7333  0.3758
 1680SOL     OW15373   2.184   3.894   2.915  0.9848 -0.2849 -0.0209
 1680SOL    HW115374   2.139   3.958   2.854  0.1020 -1.0223 -0.1438
 1680SOL    HW215375   2.172   3.924   3.010 -1.3611 -1.4744  0.0746
 1681SOL     OW15376   2.652   3.645   1.984 -0.0943 -0.3741 -0.1977
 1681SOL    HW115377   2.613   3.580   2.049 -1.8779  1.4138  0.6032
 1681SOL    HW215378   2.594   3.648   1.902  0.6354 -0.6582 -0.7232
 1682SOL     OW15379   1.500   0.868   0.366  0.5165 -0.5804 -0.5073
 1682SOL    HW115380   1.509   0.934   0.291 -0.2607  0.3818  0.2328
 1682SOL    HW215381   1.548   0.784   0.342  1.9125  0.4197 -1.2609
 1683SOL     OW15382   1.663   2.968   3.624 -0.2425 -0.6567  0.0574
 1683SOL    HW115383   1.666   3.048   3.684  1.4591 -0.4152 -0.3117
 1683SOL    HW215384   1.654   2.998   3.529 -1.6593 -0.9959  0.0666
 1684SOL     OW15385   8.747   3.469   3.598 -0.2467 -0.1916 -0.4323
 1684SOL    HW115386   8.821   3.521   3.640 -0.6722 -0.1669  0.2992
 1684SOL    HW215387   8.750   3.480   3.499  1.0361 -0.6028 -0.4537
 1685SOL     OW15388   8.413   4.951   0.664 -0.6863 -0.7814  0.0883
 1685SOL    HW115389   8.345   4.995   0.722 -1.1083 -1.7734  0.3540
 1685SOL    HW215390   8.502   4.952   0.710 -0.6527 -0.0170 -0.0007
 1686SOL     OW15391   8.602   9.738   1.772  0.7078  0.1674  0.6000
 1686SOL    HW115392   8.611   9.832   1.740  5.2801 -0.0540  0.9021
 1686SOL    HW215393   8.536   9.689   1.715 -0.8949  3.2044 -0.2569
 1687SOL     OW15394   2.262   8.691   0.071  0.3395 -0.6781 -0.3944
 1687SOL    HW115395   2.201   8.748   0.126  0.1651 -2.0228  0.8251
 1687SOL    HW215396   2.347   8.740   0.053  0.3639 -0.2034  1.0071
 1688SOL     OW15397   2.555   5.552   3.685 -0.2917  0.3048 -0.3612
 1688SOL    HW115398   2.496   5.603   3.747 -0.1314  1.1825 -0.9251
 1688SOL    HW215399   2.650   5.566   3.710 -0.2709 -0.1801 -0.1644
 1689SOL     OW15400   8.437   6.665   0.719  0.6783  0.1874 -0.1399
 1689SOL    HW115401   8.506   6.627   0.658 -0.6390 -2.0188 -0.3216
 1689SOL    HW215402   8.423   6.604   0.797 -2.1817 -0.2648 -0.9352
 1690SOL     OW15403   0.856   2.416   3.137 -0.5753  0.3382  0.7013
 1690SOL    HW115404   0.909   2.393   3.055  0.2634 -0.2563  1.3998
 1690SOL    HW215405   0.883   2.506   3.170 -1.4021  0.8759 -0.0576
 1691SOL     OW15406   5.746   9.598   2.739 -0.2201  0.5604 -0.2428
 1691SOL    HW115407   5.655   9.582   2.700  0.6143 -0.2736 -1.8886
 1691SOL    HW215408   5.775   9.516   2.788  0.6385 -0.0538 -1.7553
 1692SOL     OW15409   9.915   8.871   0.327 -1.2074  0.1840  0.0463
 1692SOL    HW115410   9.915   8.970   0.317  1.6652 -0.0021 -2.7080
 1692SOL    HW215411   9.958   8.845   0.413 -2.8720  1.3073  1.2436
 1693SOL     OW15412   8.684   9.509   0.285 -0.0173  0.2420 -0.2008
 1693SOL    HW115413   8.670   9.562   0.369 -1.7207 -1.3067  0.5151
 1693SOL    HW215414   8.769   9.456   0.293 -0.1991  0.0660  0.5549
 1694SOL     OW15415   1.271   2.864   0.420  0.6428  0.3274 -0.6026
 1694SOL    HW115416   1.189   2.808   0.412  0.2127  0.9914 -0.8261
 1694SOL    HW215417   1.301   2.892   0.329  2.1203 -1.3536 -0.6749
 1695SOL     OW15418   0.510   0.727   3.644 -0.3409  0.5396  0.2737
 1695SOL    HW115419   0.508   0.635   3.683 -0.5140  0.7945  0.8799
 1695SOL    HW215420   0.542   0.723   3.550 -0.6428 -0.1771  0.1999
 1696SOL     OW15421   2.351   1.960   2.146 -0.4186  0.1072 -0.0344
 1696SOL    HW115422   2.354   2.060   2.141  0.1025  0.0465 -1.1963
 1696SOL    HW215423   2.442   1.923   2.127  0.1573 -0.5133  3.5847
 1697SOL     OW15424   2.900   9.623   0.646  0.1335  0.2221 -0.6394
 1697SOL    HW115425   2.809   9.599   0.612 -0.3832 -1.0759  1.5651
 1697SOL    HW215426   2.911   9.723   0.643 -0.5344  0.2727 -2.8503
 1698SOL     OW15427   1.235   9.811   1.668 -0.1519  0.2929 -0.5932
 1698SOL    HW115428   1.214   9.889   1.727 -1.0316 -1.3355  1.2829
 1698SOL    HW215429   1.277   9.844   1.583 -0.6769  2.8080  0.0919
 1699SOL     OW15430   9.536   9.082   0.661  0.0210  0.6011  0.0855
 1699SOL    HW115431   9.498   9.101   0.571  0.8031  0.2441 -0.3310
 1699SOL    HW215432   9.632   9.055   0.651 -0.0138  0.1255  0.9826
 1700SOL     OW15433   3.325   3.030   1.917 -0.0060 -0.0872  0.1248
 1700SOL    HW115434   3.244   2.998   1.868 -0.0145  1.2067 -0.7373
 1700SOL    HW215435   3.361   3.111   1.872  1.6946 -0.5622  0.5988
 1701SOL     OW15436   0.731   9.577   0.270  0.1022 -0.2012  0.2270
 1701SOL    HW115437   0.652   9.543   0.218  0.1045  0.3520 -0.1399
 1701SOL    HW215438   0.700   9.609   0.360 -0.2496  0.9077 -0.2774
 1702SOL     OW15439   0.173   8.652   3.269  0.4337  0.3085  0.1103
 1702SOL    HW115440   0.208   8.738   3.232  1.1703  0.0356  0.1544
 1702SOL    HW215441   0.083   8.632   3.230  0.7318  0.5628 -0.7063
 1703SOL     OW15442   8.859   8.608   0.185  0.3024  0.0132 -0.0600
 1703SOL    HW115443   8.891   8.679   0.248  0.8692 -0.5728  0.3119
 1703SOL    HW215444   8.759   8.603   0.189  0.4395 -1.5080  2.4331
 1704SOL     OW15445   8.260   9.739   3.622  0.6716 -0.1224 -0.4843
 1704SOL    HW115446   8.290   9.751   3.717 -0.3374 -0.6490 -0.0961
 1704SOL    HW215447   8.163   9.762   3.614  0.4471 -1.2500 -1.1376
 1705SOL     OW15448   8.453   8.424   0.451  0.0977  0.2701 -0.4257
 1705SOL    HW115449   8.363   8.430   0.409 -0.1017  1.2199  0.1094
 1705SOL    HW215450   8.455   8.482   0.533  1.6336  1.4250 -1.2448
 1706SOL     OW15451   3.012   8.361   2.502 -0.1467 -0.5713 -0.1135
 1706SOL    HW115452   2.952   8.284   2.522 -0.0305 -1.3511 -2.5353
 1706SOL    HW215453   3.078   8.334   2.432 -0.1726  1.7408 -1.0691
 1707SOL     OW15454   1.562   1.377   3.552  0.0511 -0.2099  0.5388
 1707SOL    HW115455   1.600   1.343   3.466  0.7492  1.2045  0.2739
 1707SOL    HW215456   1.560   1.477   3.550  0.0162 -0.1701  2.1481
 1708SOL     OW15457   8.991   2.782   1.287  0.6153 -0.0731 -0.0382
 1708SOL    HW115458   9.047   2.856   1.252 -1.0082  0.9158 -0.6071
 1708SOL    HW215459   8.983   2.710   1.218  0.5312  0.1538 -0.2663
 1709SOL     OW15460   1.302   3.625   1.768  0.4460  0.5512 -0.2410
 1709SOL    HW115461   1.303   3.725   1.770 -1.6442  0.5755  0.7733
 1709SOL    HW215462   1.219   3.593   1.722  1.4377 -0.7269 -1.1922
 1710SOL     OW15463   9.616   3.181   1.584  0.1802  0.0993  0.1019
 1710SOL    HW115464   9.521   3.210   1.590  0.6680  1.5878  0.9299
 1710SOL    HW215465   9.662   3.230   1.510 -0.2069 -2.1876 -1.7300
 1711SOL     OW15466   0.374   9.704   1.715 -0.4593  0.5331 -0.3031
 1711SOL    HW115467   0.426   9.647   1.780  1.0403  2.0514 -0.1498
 1711SOL    HW215468   0.376   9.799   1.745  0.0631  1.2231 -2.4474
 1712SOL     OW15469   0.134   2.820   3.655  0.0701 -0.0069 -0.0202
 1712SOL    HW115470   0.136   2.839   3.753 -0.2617  0.7957 -0.1703
 1712SOL    HW215471   0.105   2.901   3.606 -2.1293 -1.1150 -0.6009
 1713SOL     OW15472   0.806   3.127   3.358 -0.4300 -0.0184  0.3502
 1713SOL    HW115473   0.803   3.040   3.407  0.0421 -0.8185 -1.0053
 1713SOL    HW215474   0.763   3.199   3.414 -2.2400 -1.4323  0.8094
 1714SOL     OW15475   3.361   1.124   3.548 -0.3317 -0.3267 -0.0876
 1714SOL    HW115476   3.363   1.134   3.449 -1.6901 -1.2761 -0.2244
 1714SOL    HW215477   3.452   1.101   3.581  0.4957  1.6532 -0.9227
 1715SOL     OW15478   2.933   2.452   1.456  0.4617 -0.0674  0.0370
 1715SOL    HW115479   2.896   2.434   1.547  1.0983 -0.8637  0.1419
 1715SOL    HW215480   2.861   2.492   1.398 -0.6981 -1.9785  0.1078
 1716SOL     OW15481   3.928   9.229   2.795 -0.1641 -0.1422 -0.4039
 1716SOL    HW115482   3.939   9.149   2.854 -0.9754  0.2955  0.3481
 1716SOL    HW215483   3.934   9.313   2.850 -1.2572  0.2611 -0.8807
 1717SOL     OW15484   9.242   0.785   2.640  0.0031 -0.2623  0.0913
 1717SOL    HW115485   9.163   0.729   2.614 -1.0921  1.5028 -0.4957
 1717SOL    HW215486   9.293   0.739   2.713 -1.6536 -1.3604  0.5832
 1718SOL     OW15487   0.260   2.047   3.892  0.4513  0.4815 -0.0262
 1718SOL    HW115488   0.232   2.138   3.861 -0.9949 -0.0666 -0.3277
 1718SOL    HW215489   0.211   2.023   3.976 -0.0641 -0.5284 -0.6175
 1719SOL     OW15490   1.489   0.308   3.931  0.1184 -0.4633 -0.1975
 1719SOL    HW115491   1.409   0.355   3.967 -1.5331 -2.3610 -1.2563
 1719SOL    HW215492   1.488   0.312   3.831  1.0187 -0.9763 -0.2324
 1720SOL     OW15493   3.629   0.662   2.700 -0.2690  0.3657  0.1349
 1720SOL    HW115494   3.540   0.697   2.728  1.2164  2.4665  2.4044
 1720SOL    HW215495   3.686   0.736   2.665  1.1585 -0.6482  0.2157
 1721SOL     OW15496   1.039   1.731   3.285 -0.0428 -0.6415 -0.5650
 1721SOL    HW115497   1.064   1.805   3.347 -0.7622 -0.5575 -0.3746
 1721SOL    HW215498   0.970   1.673   3.328  1.3533 -2.1086 -0.2407
 1722SOL     OW15499   4.523   9.424   3.244  0.7952 -0.4654 -0.2496
 1722SOL    HW115500   4.559   9.424   3.337  1.1799 -0.5015 -0.3960
 1722SOL    HW215501   4.550   9.508   3.198  2.2724 -1.3139 -0.9588
 1723SOL     OW15502   3.437   2.502   0.958 -0.3006 -0.3133 -0.2064
 1723SOL    HW115503   3.432   2.423   0.898 -1.9625 -0.2699 -0.1464
 1723SOL    HW215504   3.346   2.522   0.994  0.4277  0.5115  1.2186
 1724SOL     OW15505   1.546   7.425   0.959 -0.6226 -0.5454  0.2758
 1724SOL    HW115506   1.470   7.426   1.024 -0.1875  0.7072  0.7711
 1724SOL    HW215507   1.524   7.362   0.884 -2.0290 -0.4064  0.5513
 1725SOL     OW15508   2.052   1.969   3.398  0.0675  0.6642 -0.5320
 1725SOL    HW115509   2.141   1.950   3.439  0.8753  2.9217 -1.1683
 1725SOL    HW215510   1.992   2.012   3.466 -0.4322 -0.4942 -0.2184
 1726SOL     OW15511   3.474   7.821   2.452 -0.2214  0.0857 -0.1559
 1726SOL    HW115512   3.443   7.790   2.542  0.2060  1.5885  0.5190
 1726SOL    HW215513   3.565   7.784   2.434 -0.7200 -1.0298 -0.4007
 1727SOL     OW15514   9.157   1.235   3.273 -0.7180 -0.0672  0.1343
 1727SOL    HW115515   9.121   1.201   3.359 -1.0810 -0.0447 -0.0078
 1727SOL    HW215516   9.163   1.160   3.207 -0.5556 -0.0607  0.1412
 1728SOL     OW15517   3.717   7.716   3.128 -0.2479  0.2541  0.0603
 1728SOL    HW115518   3.792   7.652   3.145 -0.3580  0.1598  0.1891
 1728SOL    HW215519   3.710   7.734   3.030 -0.6702 -0.4689 -0.0438
 1729SOL     OW15520   1.719   5.328   3.829  0.0371 -0.2321 -0.5829
 1729SOL    HW115521   1.749   5.247   3.778 -1.8375 -2.7353  2.1519
 1729SOL    HW215522   1.639   5.367   3.784  0.4728 -0.3260 -1.4659
 1730SOL     OW15523   2.208   5.376   0.976 -0.4956  0.5103  0.0296
 1730SOL    HW115524   2.132   5.398   1.036 -0.3200  1.5712 -0.1278
 1730SOL    HW215525   2.179   5.306   0.910 -1.5616  1.4616 -0.5225
 1731SOL     OW15526   3.500   7.533   0.176  0.1052 -0.5937  0.2361
 1731SOL    HW115527   3.475   7.615   0.124  0.8911  0.9510  2.2083
 1731SOL    HW215528   3.600   7.526   0.180  0.0412 -1.1508  0.8485
 1732SOL     OW15529   3.968   9.949   0.607  0.1257  0.0257  0.1945
 1732SOL    HW115530   4.008   9.892   0.680 -0.7231  1.0863  1.5093
 1732SOL    HW215531   3.869   9.943   0.611  0.0427  1.3413  0.1324
 1733SOL     OW15532   0.400   3.225   0.600 -0.8663  0.0960  0.1073
 1733SOL    HW115533   0.433   3.246   0.692  1.8257 -0.2971 -0.7335
 1733SOL    HW215534   0.355   3.305   0.561  2.8454  2.1305 -0.2742
 1734SOL     OW15535   2.394   7.584   2.848 -0.0877 -0.1839 -0.3028
 1734SOL    HW115536   2.383   7.560   2.945 -0.0931 -2.3709 -0.8283
 1734SOL    HW215537   2.443   7.671   2.841 -1.4694  0.8105  1.6893
 1735SOL     OW15538   1.053   7.681   2.178  0.0521 -0.4987  0.1341
 1735SOL    HW115539   1.060   7.661   2.080  0.2652 -1.8895  0.4273
 1735SOL    HW215540   1.024   7.599   2.227  0.7588 -0.0393  1.3452
 1736SOL     OW15541   1.315   8.054   0.605  0.0412 -0.2004 -0.2370
 1736SOL    HW115542   1.311   8.151   0.628 -2.4677  0.0984 -1.7263
 1736SOL    HW215543   1.345   8.002   0.685 -1.0881  1.5587  1.3738
 1737SOL     OW15544   8.587   0.344   3.544  0.2718 -0.5000  0.9776
 1737SOL    HW115545   8.663   0.341   3.609 -0.1323  0.1915  1.4806
 1737SOL    HW215546   8.616   0.394   3.462  0.2959 -0.0485  1.2575
 1738SOL     OW15547   1.428   0.257   1.741 -0.3330  0.7563 -0.0526
 1738SOL    HW115548   1.460   0.179   1.796  0.0316  2.7280  2.6456
 1738SOL    HW215549   1.490   0.272   1.665  2.7914  1.8301  2.6169
 1739SOL     OW15550   3.201   7.710   1.439  0.0327  0.3847 -0.0166
 1739SOL    HW115551   3.218   7.809   1.438  0.8701  0.2649 -3.3895
 1739SOL    HW215552   3.105   7.694   1.463 -0.3190  2.0690 -0.1918
 1740SOL     OW15553   2.725   3.219   1.895 -0.0005 -0.3441  0.0397
 1740SOL    HW115554   2.693   3.144   1.838  1.6789 -0.6547 -0.5193
 1740SOL    HW215555   2.654   3.243   1.962 -0.9733 -1.6757 -0.4946
 1741SOL     OW15556   1.802   8.219   0.143 -0.0433 -0.7592  0.0188
 1741SOL    HW115557   1.844   8.134   0.109  0.0255 -1.4408  1.7500
 1741SOL    HW215558   1.870   8.272   0.192  0.2610  0.9879 -2.1925
 1742SOL     OW15559   4.558   1.657   1.849  0.0828  0.0441  0.2825
 1742SOL    HW115560   4.655   1.642   1.832 -0.1317 -1.2895  0.1197
 1742SOL    HW215561   4.515   1.569   1.870 -1.4180  0.3647 -1.3829
 1743SOL     OW15562   3.662   3.806   2.011  0.1654 -0.2602 -0.2436
 1743SOL    HW115563   3.641   3.845   1.922  0.1461 -1.3821 -0.7380
 1743SOL    HW215564   3.579   3.766   2.050  0.4280 -0.8115 -0.2466
 1744SOL     OW15565   1.135   9.316   1.320 -0.7884  0.3321  0.4732
 1744SOL    HW115566   1.099   9.409   1.323 -1.2951  0.1215  1.0919
 1744SOL    HW215567   1.232   9.319   1.296 -1.3768  0.8527 -1.9288
 1745SOL     OW15568   1.284   2.023   0.992  0.2082 -0.3817  0.2964
 1745SOL    HW115569   1.319   2.102   1.042  2.1126 -0.6291 -0.5934
 1745SOL    HW215570   1.201   1.989   1.036 -1.3945  2.9299 -0.0806
 1746SOL     OW15571   1.332   2.872   2.611 -0.7127 -0.0953  0.2450
 1746SOL    HW115572   1.404   2.939   2.632 -0.3128 -0.6884  0.7605
 1746SOL    HW215573   1.370   2.780   2.614 -1.4227 -0.3912  0.1947
 1747SOL     OW15574   8.627   0.556   3.338  0.6099  0.7296 -0.0019
 1747SOL    HW115575   8.677   0.561   3.251  1.3527  1.0296  0.4430
 1747SOL    HW215576   8.534   0.589   3.324  1.2383  2.4096 -0.3118
 1748SOL     OW15577   7.948   0.027   2.637  0.1389  0.5712 -0.0585
 1748SOL    HW115578   7.899   0.057   2.556  0.1484  1.7829  0.3723
 1748SOL    HW215579   8.046   0.043   2.625  0.3180 -0.8144 -0.4774
 1749SOL     OW15580   8.260   5.191   1.066  0.0353 -0.3127 -0.2636
 1749SOL    HW115581   8.217   5.174   1.154 -1.3543  0.5223 -0.7651
 1749SOL    HW215582   8.344   5.138   1.059  0.5436  0.1674  1.8511
 1750SOL     OW15583   8.175   2.651   0.582 -0.1095 -0.0026  0.3837
 1750SOL    HW115584   8.125   2.731   0.612  1.3345  0.1545  2.4875
 1750SOL    HW215585   8.264   2.679   0.546  0.1676 -0.6029  0.5904
 1751SOL     OW15586   1.529   5.821   3.320  0.0141 -0.3745  0.6858
 1751SOL    HW115587   1.506   5.726   3.338 -0.7889 -0.1298  0.9747
 1751SOL    HW215588   1.447   5.878   3.330  0.5072  0.3584  0.6179
 1752SOL     OW15589   9.722   2.027   3.045  0.4548 -0.5172  0.3556
 1752SOL    HW115590   9.812   1.985   3.059 -0.0882 -1.1437  2.0959
 1752SOL    HW215591   9.734   2.120   3.009  1.8110 -0.5216  0.7718
 1753SOL     OW15592   0.764   7.984   3.709 -0.0801  0.6924  1.0172
 1753SOL    HW115593   0.715   8.033   3.781 -1.6488 -0.0378  0.4729
 1753SOL    HW215594   0.719   8.002   3.621 -2.7261 -4.2726  1.2037
 1754SOL     OW15595   1.405   5.565   3.037 -0.2852  0.3361  0.4313
 1754SOL    HW115596   1.502   5.560   3.010 -0.1925  1.0875  0.6084
 1754SOL    HW215597   1.349   5.590   2.958  0.0908  3.4495  1.0650
 1755SOL     OW15598   8.890   8.677   2.819 -0.2483  0.1123  0.1608
 1755SOL    HW115599   8.882   8.758   2.877  0.6710 -0.0621  0.5321
 1755SOL    HW215600   8.977   8.631   2.836 -0.0117 -0.0042 -1.2805
 1756SOL     OW15601   7.754   2.625   3.862 -0.0734 -0.0518  0.0342
 1756SOL    HW115602   7.709   2.557   3.919  0.3120 -0.8081 -0.5602
 1756SOL    HW215603   7.810   2.580   3.792 -0.0115  0.8643 -0.5264
 1757SOL     OW15604   0.430   7.219   1.584 -0.1760  0.1143 -0.4068
 1757SOL    HW115605   0.511   7.252   1.537 -0.5513 -0.7695 -1.6960
 1757SOL    HW215606   0.348   7.245   1.532 -0.8675  2.6667  1.8496
 1758SOL     OW15607   9.942   3.090   0.769  0.3624  0.1641  0.3175
 1758SOL    HW115608   9.929   3.173   0.823  0.3867 -0.1122  0.7496
 1758SOL    HW215609   9.859   3.071   0.716  0.2882  0.3558  0.3649
 1759SOL     OW15610   1.748   6.088   2.500  0.1805  0.5659 -0.6753
 1759SOL    HW115611   1.755   6.065   2.403 -0.9901  1.2988 -0.9508
 1759SOL    HW215612   1.807   6.167   2.519  1.6723 -0.5882 -0.4268
 1760SOL     OW15613   2.015   9.618   1.767 -0.7028  0.1549  0.0841
 1760SOL    HW115614   1.980   9.529   1.737 -1.1944 -0.8588  3.5065
 1760SOL    HW215615   2.094   9.643   1.710 -0.8666 -2.2061 -1.2560
 1761SOL     OW15616   4.316   2.459   0.225  0.1135 -0.2253 -0.1471
 1761SOL    HW115617   4.253   2.457   0.303  0.5732  0.7357  0.2540
 1761SOL    HW215618   4.274   2.411   0.147 -1.1146  0.4211  0.1068
 1762SOL     OW15619   4.868   9.643   3.229  0.0239  0.3741 -0.1987
 1762SOL    HW115620   4.844   9.740   3.233  1.4401  0.6749  1.5466
 1762SOL    HW215621   4.966   9.634   3.211  0.2019 -0.7128  1.3127
 1763SOL     OW15622   0.840   2.042   0.746  0.3907 -0.1014 -0.4302
 1763SOL    HW115623   0.859   2.027   0.649 -1.5691 -0.4435 -0.7775
 1763SOL    HW215624   0.835   1.954   0.793  0.3966  0.0238 -0.1933
 1764SOL     OW15625   0.225   0.915   0.030 -0.2858  0.3613 -0.4665
 1764SOL    HW115626   0.138   0.885  -0.009  0.1141 -1.5276  0.0713
 1764SOL    HW215627   0.290   0.934  -0.044 -1.0724  1.5574 -0.8619
 1765SOL     OW15628   8.940   1.545   1.762  0.5414  0.8840  0.2625
 1765SOL    HW115629   9.037   1.520   1.762  0.4496  0.5283  0.2293
 1765SOL    HW215630   8.931   1.644   1.773  0.9104  0.9250  0.1941
 1766SOL     OW15631   1.873   4.767   2.916 -0.1794 -0.4072  0.0222
 1766SOL    HW115632   1.908   4.855   2.882  0.4444 -1.0277 -0.9499
 1766SOL    HW215633   1.806   4.731   2.851  1.0078 -1.5894 -0.5767
 1767SOL     OW15634   8.235   2.301   1.312  0.4065  0.5422 -0.2755
 1767SOL    HW115635   8.224   2.255   1.224  0.3384  2.2439 -1.1826
 1767SOL    HW215636   8.284   2.387   1.299  2.3698 -0.2257  1.6886
 1768SOL     OW15637   2.484   2.339   2.877  0.4073 -0.0162 -0.4707
 1768SOL    HW115638   2.519   2.286   2.954 -1.1080 -0.9695 -0.4218
 1768SOL    HW215639   2.384   2.343   2.881  0.5308  4.7278  0.7853
 1769SOL     OW15640   0.278   0.950   0.980  0.0362  0.4186  0.0304
 1769SOL    HW115641   0.357   0.895   1.008  0.3019  0.3199 -0.8897
 1769SOL    HW215642   0.210   0.950   1.053  0.5124 -0.2136  0.4846
 1770SOL     OW15643   3.182   8.985   0.561  0.1054  0.0978 -0.0331
 1770SOL    HW115644   3.234   9.051   0.615 -0.3553 -0.1131  0.6755
 1770SOL    HW215645   3.123   8.931   0.622 -0.1657 -0.3730 -0.7058
 1771SOL     OW15646   8.158   9.157   0.514  0.4393  0.0396  0.3180
 1771SOL    HW115647   8.135   9.244   0.557  1.0025  0.3709 -0.0500
 1771SOL    HW215648   8.153   9.083   0.581  0.2325  0.3975  0.6907
 1772SOL     OW15649   2.526   9.384   1.867 -0.0762 -0.3243  0.1842
 1772SOL    HW115650   2.550   9.338   1.952  2.3824 -1.2738 -0.9958
 1772SOL    HW215651   2.529   9.319   1.791 -0.9511  0.8049 -0.8496
 1773SOL     OW15652   0.085   3.244   3.127 -0.0330  0.1701 -0.0014
 1773SOL    HW115653   0.100   3.153   3.166 -0.4932  0.2162  0.2879
 1773SOL    HW215654   0.173   3.292   3.119  0.0377  0.2630  1.2389
 1774SOL     OW15655   3.883   9.521   3.992  0.6348  0.6831  0.0522
 1774SOL    HW115656   3.921   9.612   4.010  0.3174  0.5451  1.4752
 1774SOL    HW215657   3.789   9.516   4.026 -0.4506  0.7872 -2.8062
 1775SOL     OW15658   9.837   0.451   1.012 -0.6192  0.1310  0.0010
 1775SOL    HW115659   9.887   0.535   1.034 -1.0226  0.9249 -1.9684
 1775SOL    HW215660   9.903   0.378   0.990 -0.2464  1.3913 -3.3571
 1776SOL     OW15661   6.670   8.759   2.324 -0.2160 -0.5175 -0.2316
 1776SOL    HW115662   6.722   8.769   2.409  0.0772 -3.1446 -0.0553
 1776SOL    HW215663   6.732   8.750   2.247 -0.4462 -1.0224 -0.3590
 1777SOL     OW15664   8.530   1.889   1.241 -0.2424 -0.3382 -0.2904
 1777SOL    HW115665   8.435   1.858   1.232 -0.3407 -0.5329  1.2747
 1777SOL    HW215666   8.591   1.825   1.193 -0.8906 -0.2325 -1.2670
 1778SOL     OW15667   0.668   3.488   0.632  0.4484 -0.2933  0.1434
 1778SOL    HW115668   0.634   3.442   0.550 -0.3206  0.7426 -0.1281
 1778SOL    HW215669   0.725   3.566   0.605 -0.6326  0.6561  0.5917
 1779SOL     OW15670   2.542   8.976   0.958 -0.4620  0.0395  0.0474
 1779SOL    HW115671   2.484   8.982   0.876 -0.3616  0.3990 -0.0009
 1779SOL    HW215672   2.615   9.044   0.951  1.2143 -1.8013 -0.8693
 1780SOL     OW15673   7.831   0.612   1.372 -0.0596  0.5655 -0.1974
 1780SOL    HW115674   7.766   0.648   1.305  1.7363  1.6219 -1.4198
 1780SOL    HW215675   7.845   0.680   1.444 -0.4009  0.2783  0.1430
 1781SOL     OW15676   4.404   7.971   2.932  0.5400 -0.3537 -0.1179
 1781SOL    HW115677   4.313   7.928   2.929  0.0669  0.0998  4.5914
 1781SOL    HW215678   4.394   8.069   2.950  1.9583 -0.0367 -0.9460
 1782SOL     OW15679   0.644   2.754   1.773  0.7558  0.6877  0.3408
 1782SOL    HW115680   0.636   2.842   1.725 -0.5968  1.2003  1.4384
 1782SOL    HW215681   0.712   2.697   1.728  1.5556  2.2538 -0.4755
 1783SOL     OW15682   2.953   3.525   1.525 -0.4915 -0.1729  0.1808
 1783SOL    HW115683   3.043   3.540   1.566 -0.5086  0.3257  0.0336
 1783SOL    HW215684   2.958   3.446   1.463  0.1894  0.6737 -0.8654
 1784SOL     OW15685   0.926   1.451   1.748 -0.8178 -0.1131  0.2356
 1784SOL    HW115686   1.005   1.442   1.809 -0.7996 -0.7617  0.1130
 1784SOL    HW215687   0.878   1.537   1.769 -1.0543 -0.5318  1.4599
 1785SOL     OW15688   9.555   2.973   0.344  0.4326  0.1209  0.3910
 1785SOL    HW115689   9.608   2.926   0.415  0.6736 -0.5168 -0.2063
 1785SOL    HW215690   9.499   2.906   0.295  0.8753  0.4403 -0.5544
 1786SOL     OW15691   0.014   2.967   4.036  0.3232 -0.0941  0.1304
 1786SOL    HW115692   0.027   2.901   4.110 -0.1654  0.5953  0.8395
 1786SOL    HW215693   0.102   3.004   4.009  0.4516  0.0024  0.6863
 1787SOL     OW15694   1.215   2.509   1.538 -0.6992  0.7957  0.0531
 1787SOL    HW115695   1.282   2.435   1.546 -0.0729  1.4418  0.8837
 1787SOL    HW215696   1.123   2.470   1.528 -0.0032 -0.1069 -3.2204
 1788SOL     OW15697   0.234   2.296   3.776 -0.6428  0.2915  0.2256
 1788SOL    HW115698   0.330   2.285   3.751 -0.4554 -0.3967  1.2169
 1788SOL    HW215699   0.195   2.372   3.724  0.5762  0.9110  0.1871
 1789SOL     OW15700   1.412   9.376   3.620  0.1047 -0.1607 -0.2292
 1789SOL    HW115701   1.454   9.396   3.709  0.2142 -1.2788 -0.0160
 1789SOL    HW215702   1.392   9.461   3.573  1.6954  0.4188  0.1006
 1790SOL     OW15703   0.837   0.914   0.155  0.2613  0.0059 -0.3317
 1790SOL    HW115704   0.772   0.838   0.153  0.5353 -0.2474  0.2886
 1790SOL    HW215705   0.819   0.976   0.079 -1.1048  0.2695  0.2010
 1791SOL     OW15706   4.440   9.735   0.954  0.3103 -0.2797 -0.1328
 1791SOL    HW115707   4.367   9.700   0.894 -0.7283  0.1814  0.8472
 1791SOL    HW215708   4.449   9.674   1.032 -1.4893  1.5754  1.5767
 1792SOL     OW15709   2.781   3.454   1.733  0.5061  0.0283  0.4461
 1792SOL    HW115710   2.780   3.357   1.757  3.2518  0.0182  0.6877
 1792SOL    HW215711   2.803   3.464   1.636 -2.2451  0.3751 -0.2021
 1793SOL     OW15712   3.503   4.320   2.308 -0.1464  0.6370 -0.0653
 1793SOL    HW115713   3.532   4.367   2.391 -2.2401  0.9459  0.5203
 1793SOL    HW215714   3.522   4.222   2.317  2.6663  1.0833 -0.6045
 1794SOL     OW15715   8.708   1.262   2.786  0.2469 -0.5103 -0.1093
 1794SOL    HW115716   8.714   1.341   2.847  1.1696  0.3286 -1.2827
 1794SOL    HW215717   8.713   1.292   2.691 -0.0164 -1.9228 -0.5803
 1795SOL     OW15718   8.215   2.059   2.752 -0.4325  0.4796 -0.2187
 1795SOL    HW115719   8.259   2.100   2.832  0.3901  0.1398 -0.4915
 1795SOL    HW215720   8.272   1.985   2.716 -1.6761 -0.6019 -0.0194
 1796SOL     OW15721   0.988   1.069   1.093  0.1238  0.2793 -0.3172
 1796SOL    HW115722   0.993   1.102   1.187 -1.0785 -0.4863  0.0309
 1796SOL    HW215723   1.026   0.976   1.088  1.3144  0.7816 -0.8344
 1797SOL     OW15724   4.244   4.566   0.876 -0.0131  0.2126  0.2671
 1797SOL    HW115725   4.314   4.613   0.823  0.7661 -0.1254  0.9943
 1797SOL    HW215726   4.270   4.564   0.972 -1.6720  1.2914  0.7616
 1798SOL     OW15727   4.248   0.781   0.447 -0.0558  0.4755  0.4174
 1798SOL    HW115728   4.303   0.699   0.433  0.9708  1.3680 -0.8634
 1798SOL    HW215729   4.210   0.780   0.540 -0.0738 -1.4484  0.4020
 1799SOL     OW15730   3.085   7.394   3.354 -0.0979 -0.2165 -0.9994
 1799SOL    HW115731   3.170   7.426   3.312 -1.0148  0.0701 -2.6876
 1799SOL    HW215732   3.044   7.469   3.406  0.3153 -0.1395 -0.7863
 1800SOL     OW15733   8.929   9.862   2.487 -0.1574 -0.5938  0.1389
 1800SOL    HW115734   8.942   9.771   2.525 -0.5802 -1.8235 -2.5682
 1800SOL    HW215735   9.002   9.881   2.420  1.3848  2.0620  2.4541
 1801SOL     OW15736   1.012   9.771   2.945 -0.2643 -0.0115 -0.2248
 1801SOL    HW115737   1.056   9.823   2.871  0.1284 -0.5156 -0.3454
 1801SOL    HW215738   0.927   9.816   2.970  0.6250  1.3341  0.4391
 1802SOL     OW15739   7.480   2.069   1.255 -0.1479  0.1715 -0.1368
 1802SOL    HW115740   7.501   1.972   1.262  0.8826  0.4056  0.1831
 1802SOL    HW215741   7.484   2.110   1.347 -0.9238  0.4382 -0.2247
 1803SOL     OW15742   3.714   0.640   3.581 -0.3729  0.1984 -0.2560
 1803SOL    HW115743   3.683   0.546   3.571  0.5351  0.1254 -2.7284
 1803SOL    HW215744   3.804   0.641   3.625 -0.7780 -0.0272  0.5811
 1804SOL     OW15745   0.140   2.865   1.066  0.1091  0.0101 -0.4562
 1804SOL    HW115746   0.155   2.926   0.988  0.3960 -0.7597 -1.0084
 1804SOL    HW215747   0.175   2.774   1.045 -3.1310 -1.2211 -0.8492
 1805SOL     OW15748   1.807   0.411   1.996 -0.6611 -0.1722  0.1674
 1805SOL    HW115749   1.891   0.460   1.974 -0.3311 -0.1463  1.4427
 1805SOL    HW215750   1.729   0.474   1.987 -0.4519  0.0430 -0.1590
 1806SOL     OW15751   9.965   9.725   3.037 -0.2468  0.4700 -0.0516
 1806SOL    HW115752   9.958   9.820   3.009 -1.3801  0.6192  0.7092
 1806SOL    HW215753  10.016   9.719   3.123  0.1227  0.3477 -0.2761
 1807SOL     OW15754   4.624   3.741   1.216 -0.4829 -0.6911 -0.3031
 1807SOL    HW115755   4.691   3.685   1.264 -2.6187 -2.3449  0.8481
 1807SOL    HW215756   4.637   3.732   1.117  1.2611 -0.6300 -0.0849
 1808SOL     OW15757   1.329   4.348   2.501  0.0280 -0.1347  0.3308
 1808SOL    HW115758   1.266   4.313   2.571 -0.7887 -0.4432 -0.5427
 1808SOL    HW215759   1.301   4.313   2.411  0.9675  0.3928 -0.1688
 1809SOL     OW15760   8.462   0.276   1.132  0.5930 -0.2313 -0.7604
 1809SOL    HW115761   8.467   0.186   1.175 -0.0824 -0.8975 -2.0536
 1809SOL    HW215762   8.518   0.341   1.184 -0.5935 -0.8791  1.4296
 1810SOL     OW15763   0.449   8.625   2.671  0.2081  0.2205  0.2986
 1810SOL    HW115764   0.474   8.720   2.657  0.9521  0.0808  0.6924
 1810SOL    HW215765   0.531   8.570   2.686  0.0605 -0.9877 -2.8844
 1811SOL     OW15766   2.508   2.621   3.151 -0.1158 -0.1473 -0.2265
 1811SOL    HW115767   2.577   2.562   3.193 -1.3061 -3.0028 -2.1437
 1811SOL    HW215768   2.553   2.700   3.109  1.5562  0.1395  2.0336
 1812SOL     OW15769   1.655   5.331   2.981  0.0280  0.9836  0.1189
 1812SOL    HW115770   1.663   5.423   2.944  1.6590 -0.6107 -3.6867
 1812SOL    HW215771   1.588   5.280   2.928 -0.1050 -0.3660  1.5513
 1813SOL     OW15772   2.085   6.077   2.655 -0.0021  0.3690  0.0647
 1813SOL    HW115773   2.056   5.989   2.693  2.2242  0.0609  1.1267
 1813SOL    HW215774   2.005   6.125   2.617 -1.3733 -1.7223  0.2276
 1814SOL     OW15775   9.148   0.471   2.935  0.0575 -0.1458  0.9132
 1814SOL    HW115776   9.163   0.399   3.002 -1.8311  0.1394  1.6813
 1814SOL    HW215777   9.223   0.537   2.938  0.5301 -0.7299  1.9634
 1815SOL     OW15778   3.057   3.232   2.977  0.5132  0.1331 -0.5589
 1815SOL    HW115779   3.124   3.290   3.023  0.0724 -0.3680  0.7477
 1815SOL    HW215780   3.047   3.146   3.027 -1.2854  0.3106 -0.5768
 1816SOL     OW15781   2.293   1.569   0.349  0.6804 -0.6496 -0.0411
 1816SOL    HW115782   2.382   1.611   0.328  2.0164 -2.7625  1.1864
 1816SOL    HW215783   2.241   1.632   0.407  1.8542  0.1453  0.1913
 1817SOL     OW15784   9.946   2.325   0.197 -0.0873 -0.9474  0.7104
 1817SOL    HW115785   9.988   2.342   0.108  1.3429  0.9509  1.7062
 1817SOL    HW215786   9.849   2.347   0.192  0.2463  0.4537 -0.0448
 1818SOL     OW15787   2.914   4.494   1.942 -0.5997  0.2317  0.3360
 1818SOL    HW115788   2.907   4.404   1.985  0.1335 -0.6317 -1.2956
 1818SOL    HW215789   2.872   4.491   1.851  1.3849  0.8963 -0.6464
 1819SOL     OW15790   1.996   8.211   1.062 -0.1748  0.4201  0.2946
 1819SOL    HW115791   1.912   8.267   1.057 -2.1308 -2.1634  2.5734
 1819SOL    HW215792   1.982   8.126   1.011  1.4671  0.3963 -0.1352
 1820SOL     OW15793   1.513   6.609   1.497  0.7368  0.3422 -0.0909
 1820SOL    HW115794   1.564   6.529   1.528 -0.8052 -0.2130  1.0387
 1820SOL    HW215795   1.523   6.619   1.398  1.1088 -1.1182 -0.2107
 1821SOL     OW15796   0.118   3.079   2.327  0.3823 -0.7028  0.1294
 1821SOL    HW115797   0.170   3.092   2.242 -1.6832  0.6533 -0.9703
 1821SOL    HW215798   0.046   3.011   2.311 -0.9968  0.6960  0.3285
 1822SOL     OW15799   2.265   5.628   3.437  0.2510  0.2422 -0.2248
 1822SOL    HW115800   2.183   5.573   3.454  0.8886 -0.3443  1.0092
 1822SOL    HW215801   2.263   5.709   3.496  1.9483 -1.2495  1.9649
 1823SOL     OW15802   3.168   0.613   3.533 -0.1284 -0.2881  0.2999
 1823SOL    HW115803   3.200   0.519   3.520  0.0300 -0.1989  0.0571
 1823SOL    HW215804   3.244   0.671   3.562 -0.3851 -0.3951  1.2135
 1824SOL     OW15805   4.773   3.493   0.617  0.0695  0.2049 -0.5227
 1824SOL    HW115806   4.677   3.464   0.617  0.6625 -1.8682 -2.2137
 1824SOL    HW215807   4.823   3.443   0.546  2.2838  1.7011 -0.0635
 1825SOL     OW15808   9.486   8.132   0.224 -0.9242  0.2941  0.2208
 1825SOL    HW115809   9.511   8.196   0.297 -0.6826 -1.0410  1.3120
 1825SOL    HW215810   9.549   8.055   0.224 -1.3639 -0.0820 -0.9444
 1826SOL     OW15811   8.208   2.215   3.523 -0.1935  0.1747  0.0494
 1826SOL    HW115812   8.139   2.231   3.452  0.2888 -2.1065 -0.9510
 1826SOL    HW215813   8.185   2.132   3.574  2.1665 -1.0178 -0.7605
 1827SOL     OW15814   4.677   8.430   0.798  0.1499 -0.8422  0.1790
 1827SOL    HW115815   4.608   8.391   0.737  0.0994  1.6359 -1.4231
 1827SOL    HW215816   4.766   8.431   0.753  0.0827  1.1638  0.0254
 1828SOL     OW15817   0.974   9.829   2.417 -0.3700 -0.0741 -0.4554
 1828SOL    HW115818   0.896   9.807   2.476  0.5066  0.2779  0.8442
 1828SOL    HW215819   1.058   9.830   2.471  0.8363 -2.4299 -2.2197
 1829SOL     OW15820   5.718   9.425   2.347 -0.5228 -0.2106  0.3499
 1829SOL    HW115821   5.785   9.397   2.279  0.6017 -2.3253  2.2501
 1829SOL    HW215822   5.758   9.493   2.408 -0.7554 -0.0570  0.3354
 1830SOL     OW15823   3.290   8.112   0.892 -0.2030 -0.1358 -0.5002
 1830SOL    HW115824   3.241   8.025   0.889  2.1128 -1.4897 -0.6109
 1830SOL    HW215825   3.318   8.132   0.986 -0.5262  0.3870 -0.5111
 1831SOL     OW15826   3.526   0.727   3.410  0.3858  0.2379  0.3107
 1831SOL    HW115827   3.519   0.826   3.410  2.1721  0.3792 -0.5763
 1831SOL    HW215828   3.605   0.699   3.465  0.6150 -0.6241 -0.4383
 1832SOL     OW15829   9.231   0.776   0.307 -0.1656  0.3261 -0.0547
 1832SOL    HW115830   9.142   0.821   0.306 -0.8943 -1.1036 -0.9475
 1832SOL    HW215831   9.270   0.777   0.215  0.9017  1.2516  0.4023
 1833SOL     OW15832   2.843   0.209   0.745  0.2116  0.5235 -0.0580
 1833SOL    HW115833   2.800   0.212   0.835 -0.1430 -0.3578 -0.1856
 1833SOL    HW215834   2.773   0.223   0.674  0.4396  0.9232 -0.2048
 1834SOL     OW15835   2.660   6.041   3.333 -0.0705  0.3625  0.7455
 1834SOL    HW115836   2.592   6.044   3.260  0.0061 -1.4144  0.5703
 1834SOL    HW215837   2.665   5.948   3.369  3.9597 -0.1072 -0.8256
 1835SOL     OW15838   7.975   5.110   0.683 -0.7701  0.1601 -0.0151
 1835SOL    HW115839   7.888   5.160   0.690 -0.5951  0.3861  0.6041
 1835SOL    HW215840   7.979   5.063   0.595 -1.6458 -0.0802  0.0620
 1836SOL     OW15841   8.248   1.301   2.572  0.1444  0.2722 -0.6928
 1836SOL    HW115842   8.199   1.264   2.651 -0.0969 -0.0990 -1.0089
 1836SOL    HW215843   8.346   1.285   2.583  0.1900  1.0004 -0.0672
 1837SOL     OW15844   4.577   0.600   3.009 -0.4873  0.4819 -0.0577
 1837SOL    HW115845   4.519   0.655   3.070 -1.2202 -0.4867  0.1412
 1837SOL    HW215846   4.672   0.626   3.021 -0.5254 -0.1987  2.0901
 1838SOL     OW15847   2.944   1.823   3.064  0.1811  0.6584  0.0636
 1838SOL    HW115848   3.033   1.817   3.110 -0.0056  1.8817  0.5923
 1838SOL    HW215849   2.942   1.758   2.988  0.0403 -2.2899  2.4859
 1839SOL     OW15850   1.401   7.029   1.092 -0.0844  0.4963  0.5203
 1839SOL    HW115851   1.301   7.023   1.087  0.0958 -2.1833 -1.1233
 1839SOL    HW215852   1.428   7.060   1.183 -2.3366 -1.2473  1.8539
 1840SOL     OW15853   4.304   9.876   2.939  0.7514 -0.0846 -0.0644
 1840SOL    HW115854   4.237   9.842   3.005 -1.2858  1.5295 -1.2588
 1840SOL    HW215855   4.396   9.871   2.979 -0.4453  1.0005  2.9402
 1841SOL     OW15856   5.586   9.049   2.851  0.2684  0.2604 -0.2165
 1841SOL    HW115857   5.549   8.966   2.893  0.7000 -0.2000 -0.7282
 1841SOL    HW215858   5.514   9.118   2.842 -0.9501 -1.2716 -2.8733
 1842SOL     OW15859   8.679   0.058   0.057  0.2961  0.2467  0.0977
 1842SOL    HW115860   8.713  -0.034   0.078 -0.7434 -0.5405 -1.5183
 1842SOL    HW215861   8.614   0.086   0.128 -0.5635 -0.9342 -0.1974
 1843SOL     OW15862   2.013   5.401   0.558 -0.3963 -0.1440 -0.0310
 1843SOL    HW115863   1.957   5.431   0.635 -1.0911  0.4644 -0.7656
 1843SOL    HW215864   1.979   5.313   0.524 -0.2913 -0.2540  0.1479
 1844SOL     OW15865   2.221   0.850   3.634  0.2191  0.0728  0.2323
 1844SOL    HW115866   2.218   0.903   3.549 -0.6191 -1.1028 -0.4858
 1844SOL    HW215867   2.290   0.889   3.696  1.5985  0.2698 -1.4131
 1845SOL     OW15868   0.918   1.252   2.485  0.2365 -0.7311 -0.3482
 1845SOL    HW115869   0.901   1.159   2.517 -1.2049 -0.3009  0.1532
 1845SOL    HW215870   0.897   1.318   2.557  0.2058  0.0567 -1.0583
 1846SOL     OW15871   3.012   3.061   1.259 -0.0009  0.7667  0.0220
 1846SOL    HW115872   3.074   3.013   1.197 -0.4257  1.3031 -0.8355
 1846SOL    HW215873   3.064   3.103   1.334  0.5104  0.0604  0.0615
 1847SOL     OW15874   3.579   1.115   0.252 -0.2277  0.6949 -0.3054
 1847SOL    HW115875   3.495   1.062   0.247  0.0886  0.2100 -0.5442
 1847SOL    HW215876   3.654   1.063   0.211 -0.3435  2.2102 -2.5482
 1848SOL     OW15877   1.091   1.413   3.977  0.3691 -0.2462 -0.4099
 1848SOL    HW115878   0.992   1.404   3.983  0.6008 -1.4263  3.0034
 1848SOL    HW215879   1.116   1.510   3.974 -0.8178  0.0943  0.4448
 1849SOL     OW15880   8.542   8.738   2.157  0.6287 -0.0837 -0.2240
 1849SOL    HW115881   8.640   8.725   2.142  0.0415 -3.3957 -1.6589
 1849SOL    HW215882   8.492   8.710   2.075 -1.7057 -1.9331  1.7431
 1850SOL     OW15883   0.338   7.802   3.184 -0.2468 -0.2504  0.3198
 1850SOL    HW115884   0.332   7.772   3.089  0.7382 -1.8039  0.7322
 1850SOL    HW215885   0.251   7.787   3.229 -0.6756  0.3585 -0.2982
 1851SOL     OW15886   1.488   4.198   0.627 -0.0784  0.3996 -0.1232
 1851SOL    HW115887   1.582   4.214   0.597 -0.1185 -1.7345 -1.5027
 1851SOL    HW215888   1.425   4.254   0.574  0.3169  0.9061 -0.0562
 1852SOL     OW15889   1.415   4.825   0.009 -0.3860  0.1599  0.7182
 1852SOL    HW115890   1.419   4.738   0.058 -1.0413 -0.3228 -0.0751
 1852SOL    HW215891   1.361   4.891   0.062 -2.4430 -0.8529 -0.0956
 1853SOL     OW15892   2.766   8.527   4.014  0.1700  0.5798  0.8377
 1853SOL    HW115893   2.687   8.588   4.008  0.4507  0.9090  0.4143
 1853SOL    HW215894   2.843   8.568   3.964  0.1540 -0.4569 -0.0258
 1854SOL     OW15895   9.321   1.912   0.756 -0.1885  0.6258  0.3169
 1854SOL    HW115896   9.403   1.964   0.778  0.4703  0.6700 -2.0755
 1854SOL    HW215897   9.259   1.912   0.835 -0.3006  5.1647  0.3317
 1855SOL     OW15898   0.815   0.206   0.522  0.1536 -0.3844 -0.5457
 1855SOL    HW115899   0.883   0.233   0.454  0.7518 -0.9854 -0.1977
 1855SOL    HW215900   0.850   0.225   0.614  0.5351 -2.1697 -0.3024
 1856SOL     OW15901   8.184   2.061   1.924  0.4154 -0.1904 -0.0573
 1856SOL    HW115902   8.195   2.079   2.022  0.4776 -0.7393  0.0362
 1856SOL    HW215903   8.121   1.984   1.912 -1.3797  1.2967 -0.5020
 1857SOL     OW15904   3.987   3.313   1.027 -0.1187  0.1182  0.3664
 1857SOL    HW115905   4.038   3.392   1.062  0.5025  0.3059 -0.9470
 1857SOL    HW215906   4.019   3.291   0.935 -0.7776 -1.2366  0.4539
 1858SOL     OW15907   5.149   9.578   3.277  0.3612 -0.1499 -0.5271
 1858SOL    HW115908   5.231   9.522   3.266  1.9778  2.2231 -1.0035
 1858SOL    HW215909   5.150   9.622   3.367 -0.7533 -0.6368 -0.2620
 1859SOL     OW15910   9.499   8.353   0.015  0.4136 -0.2677 -0.4495
 1859SOL    HW115911   9.454   8.285   0.072 -0.6446  0.3040 -0.6016
 1859SOL    HW215912   9.505   8.440   0.065  2.9765 -0.8044  0.2799
 1860SOL     OW15913   9.614   7.682   0.650 -0.6978 -0.6961 -0.0610
 1860SOL    HW115914   9.593   7.604   0.709 -0.5907  3.7220  6.2262
 1860SOL    HW215915   9.713   7.689   0.637 -0.5252 -0.1427  1.5204
 1861SOL     OW15916   4.464   9.885   3.169  0.1670  0.2979 -0.7806
 1861SOL    HW115917   4.475   9.963   3.107 -2.0429 -0.8164 -2.6554
 1861SOL    HW215918   4.369   9.882   3.201  0.2497 -1.5936 -0.7025
 1862SOL     OW15919   3.008   7.494   0.289 -0.7613 -0.5794  0.3115
 1862SOL    HW115920   3.066   7.493   0.207 -0.6895  0.0696  0.3544
 1862SOL    HW215921   3.066   7.485   0.370 -0.5201  2.0553  0.4645
 1863SOL     OW15922   7.925   2.455   2.764 -0.1140  0.4095  0.5343
 1863SOL    HW115923   8.019   2.440   2.796  0.0845  0.0144 -0.2186
 1863SOL    HW215924   7.870   2.374   2.782  0.4310 -0.5003 -1.6365
 1864SOL     OW15925   1.707   7.332   1.445 -0.4365 -0.3959 -0.1816
 1864SOL    HW115926   1.802   7.323   1.413 -0.0672  0.8202  0.5352
 1864SOL    HW215927   1.670   7.241   1.465 -0.3939 -1.1154 -3.1760
 1865SOL     OW15928   3.283   8.291   2.322  0.3072  0.0006 -0.0579
 1865SOL    HW115929   3.323   8.200   2.323  2.0778  0.7520 -0.4370
 1865SOL    HW215930   3.291   8.333   2.412  0.5135  0.2057 -0.1700
 1866SOL     OW15931   8.770   2.582   2.258  0.2165 -0.4782  0.4740
 1866SOL    HW115932   8.755   2.680   2.256  2.6736 -0.0768  0.0417
 1866SOL    HW215933   8.755   2.547   2.350 -1.6468  0.1072  0.4165
 1867SOL     OW15934   7.964   1.314   2.171 -0.6698 -0.6991 -0.0594
 1867SOL    HW115935   7.880   1.300   2.224 -0.0119 -1.5155  0.7808
 1867SOL    HW215936   7.941   1.323   2.074 -1.7308 -0.9050  0.1671
 1868SOL     OW15937   2.001   3.288   0.277 -0.2538  0.0632  0.3450
 1868SOL    HW115938   2.095   3.321   0.268  0.3512 -1.6932 -0.0824
 1868SOL    HW215939   1.993   3.229   0.357 -0.2283 -2.2075 -1.2655
 1869SOL     OW15940   1.484   5.963   3.736  0.1191 -0.0328  0.2659
 1869SOL    HW115941   1.548   5.886   3.738 -0.9350 -0.9197 -0.1582
 1869SOL    HW215942   1.524   6.038   3.684  0.6479 -0.7326 -0.3415
 1870SOL     OW15943   4.465   9.465   2.387  0.1264  0.2341 -0.1288
 1870SOL    HW115944   4.428   9.384   2.341 -0.7600  0.8184 -0.4666
 1870SOL    HW215945   4.539   9.504   2.331  1.0212 -0.7269  0.3690
 1871SOL     OW15946   0.927   9.188   0.770  0.8514 -0.3117 -0.4801
 1871SOL    HW115947   0.924   9.144   0.860  2.1426  0.1366 -0.2108
 1871SOL    HW215948   0.908   9.286   0.779 -0.7873 -0.5644 -0.9300
 1872SOL     OW15949   9.246   2.706   2.731  0.4880  0.2310  0.3457
 1872SOL    HW115950   9.321   2.639   2.736  1.1818  0.9359 -0.4918
 1872SOL    HW215951   9.159   2.658   2.722  0.9387 -0.5708  0.2436
 1873SOL     OW15952   3.913   3.350   1.874 -0.0818  0.6763  0.3359
 1873SOL    HW115953   3.862   3.430   1.907  0.4744  1.5471 -0.8573
 1873SOL    HW215954   3.978   3.321   1.944 -1.8456 -0.1336  1.6606
 1874SOL     OW15955   0.747   0.096   3.599 -0.9879  0.0853 -0.2991
 1874SOL    HW115956   0.783   0.010   3.562 -0.7826  0.5247 -1.1257
 1874SOL    HW215957   0.703   0.078   3.687 -2.0202 -1.0665 -1.0349
 1875SOL     OW15958   1.429   8.419   2.346  0.0534 -0.4987 -0.1601
 1875SOL    HW115959   1.355   8.486   2.353  0.3707 -0.0743 -0.8402
 1875SOL    HW215960   1.418   8.350   2.417 -0.1629  0.3857  0.6841
 1876SOL     OW15961   2.681   9.663   3.155  0.1531  0.1747  0.3166
 1876SOL    HW115962   2.687   9.738   3.090 -1.6879 -0.2193 -0.3238
 1876SOL    HW215963   2.701   9.577   3.108 -2.2442 -0.2365 -0.0125
 1877SOL     OW15964   2.954   7.200   1.875  0.3155  0.2489 -0.2821
 1877SOL    HW115965   2.976   7.286   1.920  0.4861 -0.4363  0.9611
 1877SOL    HW215966   2.888   7.217   1.801  0.3360  1.4285 -0.0356
 1878SOL     OW15967   4.717   2.245   0.755  0.2432 -0.4862 -0.1444
 1878SOL    HW115968   4.795   2.222   0.697  0.9471 -1.1243  1.0588
 1878SOL    HW215969   4.703   2.173   0.823 -1.0613 -0.1142 -0.0022
 1879SOL     OW15970   4.844   8.400   2.874 -0.1844  0.4300  0.4585
 1879SOL    HW115971   4.895   8.474   2.917  1.2878  1.5945 -3.1256
 1879SOL    HW215972   4.893   8.314   2.887 -0.1893  0.6158  1.7641
 1880SOL     OW15973   3.194   1.957   0.447 -0.3798 -0.1006  0.0861
 1880SOL    HW115974   3.100   1.923   0.448  0.2167 -1.9157  2.7371
 1880SOL    HW215975   3.256   1.880   0.433  0.7769  0.7691  0.4015
 1881SOL     OW15976   0.889   2.363   2.261  0.5714 -0.1131 -0.7411
 1881SOL    HW115977   0.861   2.383   2.167 -1.0498  1.5538  0.0764
 1881SOL    HW215978   0.949   2.437   2.294 -2.8014  1.8824  1.1702
 1882SOL     OW15979   8.641   1.802   2.644  0.0802 -0.2302  0.2789
 1882SOL    HW115980   8.707   1.877   2.639 -0.8902  0.6548  0.5287
 1882SOL    HW215981   8.684   1.718   2.614  1.3195  0.3418  0.4248
 1883SOL     OW15982   8.945   8.857   3.203  0.4766 -0.2727  0.2044
 1883SOL    HW115983   8.984   8.901   3.122  1.1354  0.3335  0.8407
 1883SOL    HW215984   9.002   8.780   3.230  0.8562  0.1800  0.7160
 1884SOL     OW15985   0.956   9.133   0.035  0.1926  0.3648 -0.0352
 1884SOL    HW115986   0.953   9.105  -0.060 -1.2513  1.6025 -0.3677
 1884SOL    HW215987   0.916   9.224   0.045 -1.2446 -0.4476  2.0054
 1885SOL     OW15988   1.796   9.861   3.260  0.4362 -0.6601  0.2422
 1885SOL    HW115989   1.750   9.779   3.226  0.2473 -0.4589  0.0038
 1885SOL    HW215990   1.728   9.933   3.275  1.0402  0.7432 -3.3240
 1886SOL     OW15991   0.290   2.467   0.832  0.5972 -0.2096 -0.5550
 1886SOL    HW115992   0.322   2.435   0.921 -1.8079 -1.6004 -0.1526
 1886SOL    HW215993   0.296   2.393   0.766  1.7296  0.6242 -1.4135
 1887SOL     OW15994   1.197   2.715   3.985  0.2264 -0.4056  0.0181
 1887SOL    HW115995   1.245   2.775   4.049 -0.5583 -2.1586  2.3609
 1887SOL    HW215996   1.102   2.704   4.016  0.2302 -2.4385 -0.6077
 1888SOL     OW15997   9.067   1.054   3.494 -0.0752 -0.0603 -0.0804
 1888SOL    HW115998   9.034   1.089   3.581 -0.1004  0.1532 -0.1745
 1888SOL    HW215999   9.149   0.999   3.509 -0.2647 -0.2880  0.1127
 1889SOL     OW16000   0.227   7.652   0.621  0.3234  0.0444 -0.0634
 1889SOL    HW116001   0.210   7.734   0.566 -0.4166 -0.2828 -0.3398
 1889SOL    HW216002   0.321   7.621   0.607 -0.1932 -0.7157 -2.0901
 1890SOL     OW16003   3.843   1.330   0.462  0.1891 -0.0822  0.2217
 1890SOL    HW116004   3.873   1.422   0.488  1.7369 -0.6742  0.6289
 1890SOL    HW216005   3.923   1.276   0.434 -0.7545 -1.1781 -0.3779
 1891SOL     OW16006   2.297   6.860   3.642 -0.4392 -0.9233  0.5481
 1891SOL    HW116007   2.372   6.911   3.600  0.3801 -2.4749  0.0803
 1891SOL    HW216008   2.235   6.827   3.570  1.0231 -3.6778  0.4578
 1892SOL     OW16009   3.452   2.855   3.391 -0.4510 -0.3071  0.4351
 1892SOL    HW116010   3.392   2.786   3.349  0.1075  0.2051 -1.2313
 1892SOL    HW216011   3.493   2.816   3.473 -0.8250 -1.6717  0.0022
 1893SOL     OW16012   1.399   6.695   3.836  0.5081 -0.0894  0.6441
 1893SOL    HW116013   1.469   6.668   3.770 -0.3959  1.4466 -0.9641
 1893SOL    HW216014   1.428   6.778   3.884 -0.1698  0.5163  0.0182
 1894SOL     OW16015   7.763   6.925   3.980 -0.0870  0.0113  0.0698
 1894SOL    HW116016   7.734   7.008   4.028 -1.6358 -1.1876  1.2658
 1894SOL    HW216017   7.683   6.873   3.950  0.7662 -2.6557  2.1545
 1895SOL     OW16018   1.315   0.832   2.730 -0.8019  0.6477 -0.3870
 1895SOL    HW116019   1.340   0.737   2.714 -1.1304  0.4405  0.3099
 1895SOL    HW216020   1.381   0.873   2.793 -2.5623 -0.0897  1.9909
 1896SOL     OW16021   2.972   8.625   3.452 -0.5586  0.0080  0.3449
 1896SOL    HW116022   2.995   8.683   3.530  0.0637 -2.3832  1.9951
 1896SOL    HW216023   2.873   8.621   3.439 -0.7810 -1.1341  2.2677
 1897SOL     OW16024   2.420   6.288   3.829 -0.8253 -0.6490 -0.3630
 1897SOL    HW116025   2.452   6.381   3.846 -2.6384  0.1006 -0.9129
 1897SOL    HW216026   2.496   6.225   3.838  0.0212  0.6446  1.9955
 1898SOL     OW16027   7.824   3.604   0.954 -0.0842 -0.2764  0.1935
 1898SOL    HW116028   7.852   3.700   0.941 -0.0348 -0.4774 -1.3046
 1898SOL    HW216029   7.900   3.544   0.930 -0.0767 -0.6900  1.2532
 1899SOL     OW16030   8.059   8.906   2.654  0.0039 -0.0177  0.0271
 1899SOL    HW116031   8.063   8.983   2.717 -1.5749  0.0104  0.1133
 1899SOL    HW216032   8.131   8.915   2.585 -0.1946  1.5368  0.0175
 1900SOL     OW16033   3.667   0.812   2.117  0.2723 -0.0217 -0.0328
 1900SOL    HW116034   3.596   0.870   2.156 -0.5152 -0.9482 -0.0705
 1900SOL    HW216035   3.638   0.782   2.026  0.9828  0.0818 -0.2946
 1901SOL     OW16036   2.276   3.038   1.257 -0.2839 -0.2961  0.3437
 1901SOL    HW116037   2.338   3.042   1.179  0.8752 -0.3934  1.2366
 1901SOL    HW216038   2.254   3.131   1.287  1.4625 -0.2548  1.5786
 1902SOL     OW16039   3.452   1.579   1.086  0.0666  0.0865 -0.0126
 1902SOL    HW116040   3.416   1.629   1.007 -1.3366 -0.2986  0.3626
 1902SOL    HW216041   3.535   1.624   1.119 -1.1615  2.1869  0.3007
 1903SOL     OW16042   1.487   9.575   1.487 -0.3798 -0.2760  0.3424
 1903SOL    HW116043   1.460   9.502   1.551 -1.4500 -0.3962 -0.2316
 1903SOL    HW216044   1.447   9.557   1.398  0.0666  0.5717 -0.0323
 1904SOL     OW16045   9.089   8.951   0.141  0.3650 -0.5233 -0.4064
 1904SOL    HW116046   9.049   8.936   0.051  1.3357 -1.4324 -0.6949
 1904SOL    HW216047   9.032   8.907   0.210 -0.8851  0.9685 -0.4637
 1905SOL     OW16048   0.151   1.264   1.596 -0.2527 -0.2510  0.0129
 1905SOL    HW116049   0.227   1.198   1.600 -0.2061 -0.2188 -0.3308
 1905SOL    HW216050   0.160   1.329   1.672 -0.0639 -0.3854  0.1077
 1906SOL     OW16051   8.661   0.735   1.750  0.0108 -0.4929 -0.4475
 1906SOL    HW116052   8.580   0.772   1.705 -0.9489 -1.8337  0.1489
 1906SOL    HW216053   8.668   0.772   1.843 -0.5568 -1.2338 -0.1015
 1907SOL     OW16054   8.470   9.741   0.281 -0.0117  0.2455  0.4409
 1907SOL    HW116055   8.525   9.694   0.350 -0.6761  1.3228  1.7315
 1907SOL    HW216056   8.434   9.675   0.216  0.7974 -0.7624  1.0008
 1908SOL     OW16057   3.868   2.600   0.774 -0.1324  0.3110  0.3888
 1908SOL    HW116058   3.867   2.519   0.832  1.0397  0.7607  1.0484
 1908SOL    HW216059   3.778   2.643   0.775 -0.5687 -0.6033  0.5689
 1909SOL     OW16060   0.754   2.368   1.984 -0.3798 -0.7433 -0.3025
 1909SOL    HW116061   0.760   2.268   1.988 -0.1634 -0.7513 -0.8067
 1909SOL    HW216062   0.670   2.398   2.029  0.3636 -1.0424  1.3181
 1910SOL     OW16063   1.243   5.797   1.261  0.2814  0.1926 -0.2730
 1910SOL    HW116064   1.337   5.764   1.271  1.2012  2.2582 -1.7078
 1910SOL    HW216065   1.200   5.750   1.184  0.8579  0.7099 -0.9252
 1911SOL     OW16066   3.516   3.446   2.126  0.0035  0.0736 -0.2467
 1911SOL    HW116067   3.452   3.503   2.177 -0.2710 -0.0383 -0.4671
 1911SOL    HW216068   3.554   3.376   2.187 -1.3678 -0.9280 -0.5356
 1912SOL     OW16069   5.080   8.634   1.767  0.3042  0.0645  0.6080
 1912SOL    HW116070   5.039   8.650   1.857  1.2670  0.5610  0.9632
 1912SOL    HW216071   5.179   8.647   1.773  0.2778  0.9213 -0.7097
 1913SOL     OW16072   2.964   1.156   3.436 -0.2456 -0.2438  0.5605
 1913SOL    HW116073   2.895   1.086   3.459 -0.5277 -0.4749 -0.9327
 1913SOL    HW216074   3.026   1.119   3.367  0.8787  0.2689  1.2908
 1914SOL     OW16075   2.464   4.601   0.173  0.4271 -0.3871  0.7438
 1914SOL    HW116076   2.462   4.511   0.218 -2.0091  0.6759  2.8579
 1914SOL    HW216077   2.406   4.600   0.092  0.7377 -0.8063  0.5216
 1915SOL     OW16078   0.595   8.354   0.948 -0.3023 -0.1858 -0.2008
 1915SOL    HW116079   0.576   8.436   1.004  0.2788 -0.1584 -0.0423
 1915SOL    HW216080   0.692   8.331   0.955 -0.2278 -0.1853 -1.2048
 1916SOL     OW16081   3.259   1.910   3.544 -0.1449 -0.6908 -0.5153
 1916SOL    HW116082   3.282   1.814   3.528 -1.3011 -0.8148 -1.4449
 1916SOL    HW216083   3.271   1.931   3.641  1.2128 -1.4668 -0.5009
 1917SOL     OW16084   1.571   7.683   2.514 -0.8172 -0.3530 -0.1362
 1917SOL    HW116085   1.503   7.686   2.587 -0.3032 -1.8847  0.4107
 1917SOL    HW216086   1.574   7.592   2.474  0.7122 -0.2320 -0.3454
 1918SOL     OW16087   8.768   1.621   0.232 -0.2424  0.2545  0.4686
 1918SOL    HW116088   8.670   1.620   0.216 -0.1856 -1.5491  0.0905
 1918SOL    HW216089   8.815   1.582   0.153  0.9946  3.5822 -0.5102
 1919SOL     OW16090   2.906   3.918   2.258  0.2891  0.0849  0.2032
 1919SOL    HW116091   2.837   3.990   2.246 -0.1641 -0.1953  1.1629
 1919SOL    HW216092   2.887   3.844   2.194  0.4696  0.5950 -0.4484
 1920SOL     OW16093   3.697   1.866   1.787  0.1813  0.1067 -0.2801
 1920SOL    HW116094   3.598   1.851   1.781  0.3070 -0.4963 -0.9449
 1920SOL    HW216095   3.740   1.834   1.702  0.7209  2.2130 -0.8084
 1921SOL     OW16096   2.538   6.575   3.986  0.4718  0.3747 -0.2184
 1921SOL    HW116097   2.530   6.585   4.085  1.3663  0.1833 -0.1208
 1921SOL    HW216098   2.449   6.593   3.943  0.4483  2.0394  0.4833
 1922SOL     OW16099   1.232   3.081   3.787  0.5074  0.2327  0.4568
 1922SOL    HW116100   1.267   3.142   3.715  3.3535 -0.8483  0.8548
 1922SOL    HW216101   1.159   3.024   3.749 -0.3769  2.0280 -0.6348
 1923SOL     OW16102   3.758   3.485   0.385 -0.0532 -0.0005  0.2153
 1923SOL    HW116103   3.772   3.547   0.463 -0.8205  0.2990  0.1208
 1923SOL    HW216104   3.777   3.534   0.300  0.6955 -0.3023  0.2017
 1924SOL     OW16105   8.296   3.590   3.875  0.1568  0.2116 -0.0157
 1924SOL    HW116106   8.280   3.614   3.779 -0.1034  0.6643  0.1375
 1924SOL    HW216107   8.246   3.654   3.934 -1.4976 -1.3912  0.3853
 1925SOL     OW16108   4.434   6.636   2.730 -0.5317 -0.1282 -0.1255
 1925SOL    HW116109   4.362   6.583   2.685 -2.7062  2.4033  0.2910
 1925SOL    HW216110   4.460   6.713   2.672  0.5248  0.0766  0.5963
 1926SOL     OW16111   4.173   7.517   0.481  0.1514  0.0156  0.2058
 1926SOL    HW116112   4.108   7.547   0.411  0.2281 -1.4924 -0.5418
 1926SOL    HW216113   4.122   7.487   0.562  0.0418  1.3353  0.6342
 1927SOL     OW16114   2.636   4.161   2.498 -0.0607 -0.2024 -0.0397
 1927SOL    HW116115   2.551   4.213   2.491  1.6389  3.0539  2.2261
 1927SOL    HW216116   2.658   4.146   2.595  1.6253 -1.5611 -0.6172
 1928SOL     OW16117   2.131   0.987   0.151 -0.0375 -0.1026 -0.2624
 1928SOL    HW116118   2.087   0.944   0.229 -0.0741  0.6465  0.1322
 1928SOL    HW216119   2.209   0.932   0.122  0.9030  0.4035  1.2645
 1929SOL     OW16120   0.600   8.080   2.831  0.2493  0.0092  0.0052
 1929SOL    HW116121   0.556   8.035   2.753  0.3644  0.0867 -0.1054
 1929SOL    HW216122   0.672   8.020   2.867 -0.5615 -0.5094  0.7692
 1930SOL     OW16123   9.134   2.304   0.809  0.2779  0.4409 -0.2012
 1930SOL    HW116124   9.050   2.356   0.824  0.3267  0.4866 -0.0806
 1930SOL    HW216125   9.116   2.207   0.824 -0.1822  0.2380 -1.8990
 1931SOL     OW16126   0.649   0.412   2.603  0.0672 -0.2769  1.2290
 1931SOL    HW116127   0.634   0.361   2.518  0.4847  2.5340 -0.5856
 1931SOL    HW216128   0.571   0.400   2.664 -2.0454  0.8726 -1.2006
 1932SOL     OW16129   3.809   9.641   2.558  0.4933 -0.3210 -0.2710
 1932SOL    HW116130   3.825   9.710   2.629  0.4238  0.7025 -1.2291
 1932SOL    HW216131   3.710   9.634   2.541  0.5756  0.0809 -0.9003
 1933SOL     OW16132   4.286   1.798   2.570 -0.4341  0.0510  0.0387
 1933SOL    HW116133   4.252   1.886   2.604 -0.7607 -0.2418  0.4863
 1933SOL    HW216134   4.384   1.805   2.551 -0.1691  0.1229  1.3995
 1934SOL     OW16135   2.523   2.738   0.236  0.2071  0.0062  0.5316
 1934SOL    HW116136   2.572   2.764   0.152 -0.1149 -1.3646 -0.0939
 1934SOL    HW216137   2.519   2.817   0.297 -1.0354  1.5237 -1.4403
 1935SOL     OW16138   2.635   8.425   2.535  0.4197  0.2258 -0.1660
 1935SOL    HW116139   2.713   8.372   2.570  0.1035 -0.8589 -1.0894
 1935SOL    HW216140   2.665   8.479   2.457 -0.2565 -1.9123 -1.9423
 1936SOL     OW16141   1.701   2.257   1.963 -0.1247  0.2514 -0.1885
 1936SOL    HW116142   1.689   2.356   1.965  1.2392  0.4482 -0.9540
 1936SOL    HW216143   1.765   2.233   1.890 -0.3401 -1.1847  0.0831
 1937SOL     OW16144   1.660   5.741   3.795 -0.3858 -0.0281 -0.0754
 1937SOL    HW116145   1.749   5.697   3.785 -0.4919 -0.1893 -0.3100
 1937SOL    HW216146   1.657   5.789   3.882 -0.1332 -0.1696  0.0135
 1938SOL     OW16147   9.381   7.984   2.462  0.1097  0.3931  0.3891
 1938SOL    HW116148   9.451   8.054   2.475 -1.9401  2.7198 -0.5874
 1938SOL    HW216149   9.400   7.933   2.378 -0.1484  2.0805 -0.7430
 1939SOL     OW16150   8.694   1.995   0.670 -0.4235  0.4668  0.5966
 1939SOL    HW116151   8.649   1.935   0.736 -1.5924 -0.0591 -0.6545
 1939SOL    HW216152   8.779   2.029   0.709 -0.9415 -0.0791  2.2549
 1940SOL     OW16153   3.198   8.705   0.438 -0.2682 -0.4412  0.3206
 1940SOL    HW116154   3.280   8.711   0.494 -0.2373 -1.3058  0.3726
 1940SOL    HW216155   3.121   8.747   0.486 -0.4104 -1.8174  1.3414
 1941SOL     OW16156   4.047   4.539   3.368  0.0536 -0.1765 -0.2009
 1941SOL    HW116157   4.128   4.480   3.360 -0.9399 -1.5876  0.0168
 1941SOL    HW216158   4.018   4.568   3.276  1.0935  0.7671 -0.2531
 1942SOL     OW16159   8.507   0.959   2.658  0.3466  0.9199 -0.2850
 1942SOL    HW116160   8.468   1.042   2.698 -0.7717  0.2164  0.1175
 1942SOL    HW216161   8.533   0.976   2.563  1.0166  1.9987  0.0875
 1943SOL     OW16162   4.072   9.505   0.422 -0.9482 -0.0023  0.5807
 1943SOL    HW116163   4.057   9.586   0.365 -0.0456 -1.1473 -1.3433
 1943SOL    HW216164   4.169   9.497   0.444 -1.2806  0.3826  2.2327
 1944SOL     OW16165   3.566   9.791   3.172 -0.5942 -0.8264 -0.1637
 1944SOL    HW116166   3.609   9.700   3.168 -0.8101 -0.9315 -0.1103
 1944SOL    HW216167   3.567   9.824   3.267 -1.0206 -1.0178 -0.0912
 1945SOL     OW16168   8.309   1.526   2.732  0.3174 -0.5797  0.2633
 1945SOL    HW116169   8.295   1.452   2.666 -0.0214  0.4405 -0.8126
 1945SOL    HW216170   8.224   1.544   2.781  0.8205 -2.0063  1.6947
 1946SOL     OW16171   4.222   1.539   2.473  0.3491  1.0058 -0.3711
 1946SOL    HW116172   4.250   1.613   2.534  1.5272  1.4003 -1.3764
 1946SOL    HW216173   4.302   1.484   2.450 -0.6299 -1.0448  0.9657
 1947SOL     OW16174   3.146   1.748   1.504  0.1217 -0.5562  0.2920
 1947SOL    HW116175   3.223   1.813   1.509 -1.6841  1.7104 -0.4379
 1947SOL    HW216176   3.152   1.696   1.419  0.4445  0.1447 -0.1253
 1948SOL     OW16177   2.892   6.194   3.353 -0.2589  0.0623 -0.1015
 1948SOL    HW116178   2.812   6.136   3.339 -0.4238  0.4720 -0.8990
 1948SOL    HW216179   2.864   6.284   3.386  0.0511 -0.5305  1.8125
 1949SOL     OW16180   8.058   9.299   0.169 -0.4548 -0.0622 -0.1875
 1949SOL    HW116181   8.149   9.259   0.158 -0.7935 -0.9099  0.0461
 1949SOL    HW216182   8.028   9.288   0.264 -0.8753  0.0392 -0.3054
 1950SOL     OW16183   1.653   6.570   2.594  0.2202  0.4165  1.3528
 1950SOL    HW116184   1.700   6.567   2.506 -0.8950  1.1606  0.7183
 1950SOL    HW216185   1.686   6.647   2.647  2.3968 -1.2338  2.4698
 1951SOL     OW16186   1.978   7.000   2.601 -0.0130 -0.2440 -0.3256
 1951SOL    HW116187   2.035   6.997   2.683  1.0633  0.5078 -1.0350
 1951SOL    HW216188   1.883   6.978   2.625  0.3079 -0.1086  1.0954
 1952SOL     OW16189   2.803   0.528   0.776 -0.4979  0.0399  0.2128
 1952SOL    HW116190   2.877   0.480   0.729  0.4335 -0.4288  2.1016
 1952SOL    HW216191   2.841   0.600   0.834 -1.6636  0.9845 -0.1810
 1953SOL     OW16192   7.351   8.764   2.522  0.5332 -0.1147 -0.3338
 1953SOL    HW116193   7.446   8.733   2.525  0.4458 -0.3133  0.6086
 1953SOL    HW216194   7.332   8.806   2.434  1.1265 -1.2427 -1.0112
 1954SOL     OW16195   2.654   2.087   2.664 -0.1061  0.0675  0.6779
 1954SOL    HW116196   2.743   2.041   2.661 -0.2365 -0.2522  1.6762
 1954SOL    HW216197   2.643   2.132   2.752 -1.0242 -0.0474  0.6191
 1955SOL     OW16198   2.488   8.206   0.087  0.0288  0.7392 -0.0355
 1955SOL    HW116199   2.479   8.236   0.182  1.7748  0.8484  0.1132
 1955SOL    HW216200   2.493   8.285   0.027 -0.2304  0.6784 -0.1398
 1956SOL     OW16201   7.796   2.713   0.929  0.3571  0.1880  0.2870
 1956SOL    HW116202   7.719   2.769   0.898  0.6926  1.4063  1.5798
 1956SOL    HW216203   7.829   2.748   1.017  1.7716 -0.9105  0.2122
 1957SOL     OW16204   4.847   9.236   1.129 -0.3827  0.2471 -0.3180
 1957SOL    HW116205   4.851   9.288   1.214  1.9899  0.5680 -0.5968
 1957SOL    HW216206   4.817   9.142   1.149  0.3781  0.2575  0.9011
 1958SOL     OW16207   0.267   2.291   2.793 -0.4604 -0.8843 -0.0215
 1958SOL    HW116208   0.277   2.220   2.723  2.0916 -2.6577  2.0311
 1958SOL    HW216209   0.211   2.256   2.868 -2.9501  0.9135 -0.9639
 1959SOL     OW16210   1.867   2.596   1.535  0.4046 -0.5673 -0.3275
 1959SOL    HW116211   1.842   2.508   1.493  0.8140 -0.8604  0.0431
 1959SOL    HW216212   1.943   2.636   1.484  2.1877 -1.8458  1.2921
 1960SOL     OW16213   9.100   9.516   1.895  0.6054 -0.0639 -0.2774
 1960SOL    HW116214   9.172   9.553   1.954  1.0684 -0.7496 -0.4112
 1960SOL    HW216215   9.020   9.575   1.900  1.2339  0.8011 -0.2533
 1961SOL     OW16216   4.556   7.320   3.125  0.0799 -0.0243  0.6278
 1961SOL    HW116217   4.550   7.420   3.124 -0.3940 -0.0562 -0.9104
 1961SOL    HW216218   4.487   7.282   3.064  1.1316 -1.2585  0.1865
 1962SOL     OW16219   9.360   1.358   0.673  0.4762  0.1433  0.3236
 1962SOL    HW116220   9.310   1.438   0.707  0.1325 -0.7557  1.9589
 1962SOL    HW216221   9.397   1.307   0.749  3.6881  0.6073 -0.8459
 1963SOL     OW16222   4.261   9.811   1.664 -0.4176 -0.1768  0.4726
 1963SOL    HW116223   4.221   9.815   1.572  1.8793 -1.3246 -0.6234
 1963SOL    HW216224   4.339   9.873   1.669 -0.1696 -0.5623  1.4819
 1964SOL     OW16225   0.208   3.255   0.884 -0.4385  0.1004 -0.5453
 1964SOL    HW116226   0.300   3.293   0.888 -0.9389  1.2359  0.6112
 1964SOL    HW216227   0.213   3.159   0.856  1.0896  0.1529 -0.5104
 1965SOL     OW16228   9.691   2.369   1.263 -0.6105 -0.0111 -0.2569
 1965SOL    HW116229   9.707   2.279   1.303 -0.6961  0.6171  1.2094
 1965SOL    HW216230   9.615   2.413   1.310 -0.4319  0.9179 -0.8318
 1966SOL     OW16231   2.700   6.113   0.955 -0.4117  0.0363 -0.7458
 1966SOL    HW116232   2.658   6.198   0.986 -0.2123 -0.1845  0.1287
 1966SOL    HW216233   2.658   6.084   0.869 -3.2593 -1.0876  0.9760
 1967SOL     OW16234   2.144   8.508   2.297  0.0192  0.3011  0.1649
 1967SOL    HW116235   2.201   8.539   2.373  1.3857 -0.8017 -0.3794
 1967SOL    HW216236   2.160   8.566   2.217 -1.2066  1.2836  0.6050
 1968SOL     OW16237   9.986   9.633   0.402  0.0711 -0.2280 -0.4836
 1968SOL    HW116238  10.075   9.674   0.381  0.2172 -0.7832 -0.9408
 1968SOL    HW216239   9.937   9.692   0.466  1.1172 -0.3379  0.4348
 1969SOL     OW16240   1.294   8.873   0.263  0.5520 -0.0677 -0.5945
 1969SOL    HW116241   1.337   8.805   0.203  1.2520 -0.0406 -0.1210
 1969SOL    HW216242   1.195   8.876   0.244  0.6301 -0.6909 -1.1256
 1970SOL     OW16243   3.098   8.856   2.632 -0.3386 -0.1975 -0.1367
 1970SOL    HW116244   3.157   8.826   2.707  0.3142  0.8039 -0.2418
 1970SOL    HW216245   3.053   8.777   2.591 -1.4009 -0.6836  1.8841
 1971SOL     OW16246   6.714   8.918   1.899 -0.1239 -0.3716  0.0331
 1971SOL    HW116247   6.697   8.832   1.945  0.2724 -0.1639  0.5654
 1971SOL    HW216248   6.742   8.901   1.804 -1.1307 -0.7840 -0.1947
 1972SOL     OW16249   8.306   9.624   0.892 -0.0434  0.0434  0.4946
 1972SOL    HW116250   8.266   9.545   0.938  1.4094 -0.7091  0.4883
 1972SOL    HW216251   8.233   9.681   0.854 -1.1099 -1.1345  0.7536
 1973SOL     OW16252   8.734   2.849   2.269  0.1534 -0.5318  0.0715
 1973SOL    HW116253   8.750   2.846   2.170 -2.3451  2.2392 -0.4932
 1973SOL    HW216254   8.725   2.944   2.298  0.5507 -1.3407  2.9373
 1974SOL     OW16255   2.466   1.369   3.992  0.2494 -0.0485 -0.3004
 1974SOL    HW116256   2.458   1.467   3.975 -0.9976 -0.1471 -0.3169
 1974SOL    HW216257   2.387   1.321   3.954  1.1041 -1.1314 -0.7596
 1975SOL     OW16258   9.428   8.924   2.313 -0.2988  0.3272 -0.0112
 1975SOL    HW116259   9.528   8.920   2.311 -0.3475 -1.2194  0.7453
 1975SOL    HW216260   9.392   8.917   2.220  0.2768  0.7255 -0.2660
 1976SOL     OW16261   1.557   6.558   0.627 -0.9333 -0.4570 -0.2565
 1976SOL    HW116262   1.463   6.582   0.602 -0.7853 -0.0132 -0.3968
 1976SOL    HW216263   1.594   6.492   0.562 -0.2590  1.3105 -1.7311
 1977SOL     OW16264   8.743   1.200   1.369  0.5345  0.0415  0.5271
 1977SOL    HW116265   8.665   1.140   1.352  0.2570  0.8337 -1.1254
 1977SOL    HW216266   8.730   1.248   1.456 -1.3185  0.9289 -0.2296
 1978SOL     OW16267   4.201   9.918   3.306 -0.0919 -0.3286  0.3882
 1978SOL    HW116268   4.156   9.894   3.392 -1.5998  1.7096  0.2197
 1978SOL    HW216269   4.258   9.999   3.319 -0.5869  0.1926 -0.5790
 1979SOL     OW16270   3.796   3.915   0.818 -0.0483 -0.6068  1.0777
 1979SOL    HW116271   3.865   3.856   0.861 -1.5074 -0.8651  3.1586
 1979SOL    HW216272   3.776   3.882   0.726  1.9717 -1.0369  0.7795
 1980SOL     OW16273   8.946   2.797   2.479 -0.0466 -0.0074  0.4979
 1980SOL    HW116274   8.863   2.785   2.426  0.2330 -1.0777  0.3025
 1980SOL    HW216275   9.020   2.744   2.438  1.1129  2.0597 -0.1626
 1981SOL     OW16276   2.551   2.587   3.927  0.2695 -0.4379  0.1102
 1981SOL    HW116277   2.576   2.676   3.965  0.0212  0.9461 -2.8007
 1981SOL    HW216278   2.451   2.581   3.917  0.3961 -0.2874 -1.3833
 1982SOL     OW16279   8.205   2.948   0.859  0.1381 -0.3090 -0.2749
 1982SOL    HW116280   8.138   2.928   0.788 -1.0748  0.2270  0.7042
 1982SOL    HW216281   8.260   2.866   0.878 -1.2789 -1.1967  0.0217
 1983SOL     OW16282   2.905   6.810   0.861  0.5812  0.4040 -0.0333
 1983SOL    HW116283   2.971   6.812   0.785  0.1312 -0.8315 -0.4698
 1983SOL    HW216284   2.814   6.829   0.826  0.5905  1.3510  0.4530
 1984SOL     OW16285   0.061   3.052   3.552 -0.4406 -0.0124  0.2530
 1984SOL    HW116286   0.113   3.118   3.605  2.7836 -1.6773 -0.7119
 1984SOL    HW216287   0.002   3.100   3.488  2.0388  1.9952 -0.6093
 1985SOL     OW16288   0.047   0.217   0.756  0.4317 -0.0959  0.5341
 1985SOL    HW116289  -0.048   0.189   0.740  0.0297  2.0911 -1.0705
 1985SOL    HW216290   0.058   0.241   0.853 -0.7742  0.0831  0.6430
 1986SOL     OW16291   0.135   8.972   2.889  0.2136 -0.0504  0.1952
 1986SOL    HW116292   0.226   8.948   2.923  0.3205  1.3724  0.9658
 1986SOL    HW216293   0.068   8.907   2.924  1.1540 -2.1950 -1.8456
 1987SOL     OW16294   7.707   0.988   0.219 -0.5721 -0.7666  0.1959
 1987SOL    HW116295   7.630   1.026   0.270 -0.8378 -1.4674  0.3105
 1987SOL    HW216296   7.791   1.002   0.271 -0.6827 -0.4185  0.2828
 1988SOL     OW16297   0.885   8.336   1.848  0.4966 -0.2972 -0.1864
 1988SOL    HW116298   0.884   8.433   1.823  0.4093  0.2828  1.9473
 1988SOL    HW216299   0.866   8.280   1.767 -0.0784  1.4870 -1.3099
 1989SOL     OW16300   1.119   4.680   1.264  0.4133  0.4031 -0.5220
 1989SOL    HW116301   1.179   4.631   1.201  0.9810 -0.6585  0.8106
 1989SOL    HW216302   1.025   4.646   1.254  0.2145  1.3017 -1.8392
 1990SOL     OW16303   2.829   1.025   1.984  0.2781 -0.3130 -0.3755
 1990SOL    HW116304   2.737   1.038   2.021  0.0555  0.5251 -1.2283
 1990SOL    HW216305   2.890   0.995   2.058 -0.7200 -1.1023  0.1457
 1991SOL     OW16306   7.953   1.084   3.420  0.3738  0.2659  0.0203
 1991SOL    HW116307   7.958   1.103   3.518  0.1807 -2.5522  0.6356
 1991SOL    HW216308   8.011   1.005   3.398 -1.8203 -0.9667 -1.5763
 1992SOL     OW16309   0.661   1.292   3.871 -0.1908 -0.1087  0.2021
 1992SOL    HW116310   0.562   1.280   3.877 -0.0439 -2.1915 -1.1990
 1992SOL    HW216311   0.690   1.280   3.776  1.1121  3.0441  0.1205
 1993SOL     OW16312   2.290   2.834   2.690  0.1993 -0.1667  0.3117
 1993SOL    HW116313   2.341   2.763   2.739  2.0177  1.7721  1.3043
 1993SOL    HW216314   2.341   2.859   2.607 -1.3432 -1.2577 -1.0011
 1994SOL     OW16315   7.607   9.538   3.430  0.2036  0.3230 -0.1264
 1994SOL    HW116316   7.577   9.600   3.503 -0.0211 -1.4420  1.3070
 1994SOL    HW216317   7.706   9.548   3.417  0.3513  0.1794  0.8622
 1995SOL     OW16318   1.376   5.766   0.415 -0.1196 -0.4760  0.1796
 1995SOL    HW116319   1.464   5.720   0.403  1.3285  1.4915  2.8357
 1995SOL    HW216320   1.339   5.745   0.506 -1.6555 -0.0541 -0.3279
 1996SOL     OW16321   9.575   9.667   1.256  0.1998  0.0580  0.6712
 1996SOL    HW116322   9.569   9.605   1.334  0.6624 -0.9828 -0.1052
 1996SOL    HW216323   9.493   9.657   1.199  0.8234 -0.7411 -0.1038
 1997SOL     OW16324   4.293   1.302   1.422  0.3233 -0.4564 -0.0529
 1997SOL    HW116325   4.350   1.337   1.496 -0.7088  0.3777  0.3579
 1997SOL    HW216326   4.199   1.333   1.434  0.4989  1.3455 -2.7760
 1998SOL     OW16327   8.473   3.120   2.765  0.1350  0.1565  0.3900
 1998SOL    HW116328   8.544   3.063   2.725 -0.3940 -0.7830  0.7674
 1998SOL    HW216329   8.515   3.195   2.816  0.8104  0.9124 -1.2647
 1999SOL     OW16330   0.874   3.608   3.222 -0.0229  0.6257  0.2231
 1999SOL    HW116331   0.931   3.554   3.284  0.7587  0.1460 -0.9041
 1999SOL    HW216332   0.779   3.576   3.228 -0.1461  1.2745  1.9273
 2000SOL     OW16333   3.387   4.011   3.600 -0.2893 -0.2540  0.5930
 2000SOL    HW116334   3.397   3.914   3.580  1.1177 -0.1394  0.6391
 2000SOL    HW216335   3.439   4.064   3.533  2.9378  0.2057  3.2885
 2001SOL     OW16336   9.447   4.018   0.985 -0.3120  0.0538  0.2374
 2001SOL    HW116337   9.401   3.960   0.917 -1.1694 -0.8985  1.5898
 2001SOL    HW216338   9.463   4.109   0.946 -3.0797  0.3209 -0.3724
 2002SOL     OW16339   4.168   7.259   0.876  0.1736  0.3911  0.3224
 2002SOL    HW116340   4.233   7.307   0.936  0.2231 -0.5366  1.0139
 2002SOL    HW216341   4.078   7.301   0.885 -0.4345 -1.3424  3.0386
 2003SOL     OW16342   9.369   3.272   1.565  0.5204  0.4796  0.0388
 2003SOL    HW116343   9.317   3.267   1.651  0.8976  0.9725  0.2966
 2003SOL    HW216344   9.312   3.314   1.495  0.3286  0.3793  0.1318
 2004SOL     OW16345   0.790   1.497   2.092  0.0057  0.2232 -0.2076
 2004SOL    HW116346   0.806   1.565   2.020 -1.4003  0.7131 -0.0680
 2004SOL    HW216347   0.859   1.508   2.164  0.8821  0.3102 -1.0510
 2005SOL     OW16348   2.473   1.731   1.695  0.0629 -0.4019  0.2245
 2005SOL    HW116349   2.403   1.659   1.692 -0.3467  0.0401 -0.8650
 2005SOL    HW216350   2.513   1.734   1.787  0.5622 -2.4663  0.0952
 2006SOL     OW16351   0.718   8.764   3.679  0.2706 -0.3422 -0.4127
 2006SOL    HW116352   0.625   8.796   3.691 -0.1910 -2.2410  1.2883
 2006SOL    HW216353   0.729   8.675   3.722  2.2005 -1.3226 -2.7612
 2007SOL     OW16354   1.963   2.279   0.886  0.3802 -0.1048 -0.0891
 2007SOL    HW116355   1.906   2.196   0.889  0.2179  0.0001 -0.2798
 2007SOL    HW216356   1.917   2.348   0.830 -0.0331  0.5222  1.0110
 2008SOL     OW16357   0.168   9.219   3.291 -0.0504  0.0136 -0.4028
 2008SOL    HW116358   0.215   9.307   3.299  1.3449 -0.7549 -0.0194
 2008SOL    HW216359   0.147   9.183   3.382 -1.8044  0.5618 -0.5746
 2009SOL     OW16360   4.760   2.367   1.480  0.4113  0.0197 -0.1214
 2009SOL    HW116361   4.721   2.304   1.548 -0.5109 -1.3416 -1.8605
 2009SOL    HW216362   4.715   2.456   1.488  3.4835  1.3753  4.0743
 2010SOL     OW16363   2.837   4.694   1.679 -0.4981 -0.0125 -0.0886
 2010SOL    HW116364   2.793   4.767   1.731  1.3602  0.8853  0.2543
 2010SOL    HW216365   2.934   4.690   1.702 -0.1580 -1.2737 -1.6214
 2011SOL     OW16366   1.656   7.164   3.982  0.1301 -0.6441  0.6840
 2011SOL    HW116367   1.609   7.251   3.999 -2.2178 -2.0039  1.3183
 2011SOL    HW216368   1.684   7.160   3.887 -3.5388 -0.9071 -0.4764
 2012SOL     OW16369   8.736   9.633   0.017 -0.3053  1.1016 -0.3034
 2012SOL    HW116370   8.659   9.629  -0.047 -0.4065 -1.1696 -0.0567
 2012SOL    HW216371   8.709   9.593   0.104  1.4239 -0.5203 -0.4937
 2013SOL     OW16372   4.679   9.666   1.937 -0.2326 -0.1369 -0.5241
 2013SOL    HW116373   4.717   9.624   1.855 -1.3729  0.8671 -1.5826
 2013SOL    HW216374   4.705   9.762   1.940 -1.2000  0.1243 -0.3397
 2014SOL     OW16375   2.700   3.025   1.721 -0.4346  0.1926  0.3438
 2014SOL    HW116376   2.755   2.955   1.766 -0.6618  0.8595  1.6662
 2014SOL    HW216377   2.747   3.058   1.639 -0.1002 -1.1401 -0.0087
 2015SOL     OW16378   9.688   2.346   0.081  0.4586 -0.4751 -0.1010
 2015SOL    HW116379   9.735   2.318  -0.003  1.0310  0.2831 -0.0412
 2015SOL    HW216380   9.677   2.445   0.081  1.1358 -0.3862  1.0544
 2016SOL     OW16381   2.679   8.094   2.067 -0.2234  0.0888  0.4854
 2016SOL    HW116382   2.738   8.083   1.987  0.0489  1.5766  0.4630
 2016SOL    HW216383   2.733   8.085   2.150 -0.0747  0.7694  0.4698
 2017SOL     OW16384   0.539   7.226   2.140  0.2201 -0.3943 -0.1050
 2017SOL    HW116385   0.606   7.298   2.123  0.6999 -0.1503  2.5983
 2017SOL    HW216386   0.462   7.237   2.078  1.4979  0.8356 -1.5258
 2018SOL     OW16387   2.851   5.576   0.900 -0.6281  0.6405  0.2484
 2018SOL    HW116388   2.774   5.617   0.950 -0.4644  1.0218  0.1900
 2018SOL    HW216389   2.883   5.495   0.950 -1.4876  0.0997 -0.0693
 2019SOL     OW16390   6.423   8.229   2.782 -0.3187 -0.4975 -0.1718
 2019SOL    HW116391   6.348   8.206   2.844 -2.3945  1.5803 -1.7873
 2019SOL    HW216392   6.457   8.320   2.803  0.1526 -0.4863 -0.9545
 2020SOL     OW16393   9.917   7.867   3.468  0.1982 -0.0702 -0.0395
 2020SOL    HW116394   9.871   7.922   3.538  1.5711  1.2425 -0.1161
 2020SOL    HW216395   9.891   7.901   3.377  0.5343  0.0250 -0.1003
 2021SOL     OW16396   0.463   2.690   2.559  0.2981  0.4221 -0.3978
 2021SOL    HW116397   0.546   2.744   2.576  0.2908  0.5291 -0.6847
 2021SOL    HW216398   0.398   2.703   2.633 -0.5160  2.3856 -1.4201
 2022SOL     OW16399   0.907   7.356   3.342  0.6015  0.8306  0.2818
 2022SOL    HW116400   0.912   7.408   3.256  0.0021  0.9217  0.3058
 2022SOL    HW216401   0.851   7.406   3.408 -0.0287  0.1244  0.2809
 2023SOL     OW16402   3.129   4.776   3.474 -0.1957  0.1631 -0.7185
 2023SOL    HW116403   3.154   4.681   3.489 -0.6174 -0.0650 -1.4612
 2023SOL    HW216404   3.030   4.786   3.479 -0.0969  0.7517  0.4017
 2024SOL     OW16405   4.645   7.206   0.787  0.0886  0.1487 -0.1252
 2024SOL    HW116406   4.576   7.152   0.739 -0.1681 -0.2886  0.7168
 2024SOL    HW216407   4.731   7.156   0.787 -0.1653 -0.3034  0.7091
 2025SOL     OW16408   2.104   0.136   1.184 -0.5355 -0.7005 -0.7128
 2025SOL    HW116409   2.137   0.211   1.126  2.9432 -0.8798  0.9174
 2025SOL    HW216410   2.104   0.051   1.131 -0.4773 -0.2989 -1.3626
 2026SOL     OW16411   8.555   9.333   0.056 -0.4864  0.0779 -0.3159
 2026SOL    HW116412   8.590   9.272   0.127 -2.6857 -2.5252 -1.3937
 2026SOL    HW216413   8.514   9.414   0.098  1.3235  0.2427  1.1962
 2027SOL     OW16414   1.424   0.346   3.105  0.3144 -0.4917  0.4424
 2027SOL    HW116415   1.493   0.417   3.116  0.1728 -0.3719  0.5665
 2027SOL    HW216416   1.432   0.305   3.014  1.7291 -1.7516  1.1277
 2028SOL     OW16417   9.748   7.486   1.754 -0.5454  0.1222 -0.3899
 2028SOL    HW116418   9.649   7.475   1.756 -0.5073 -0.0784  1.9613
 2028SOL    HW216419   9.787   7.427   1.683 -1.9171 -1.6367  0.2909
 2029SOL     OW16420   2.553   3.958   1.872  0.0491 -0.4373  0.0003
 2029SOL    HW116421   2.501   3.880   1.905 -0.3215 -0.2346 -0.1003
 2029SOL    HW216422   2.629   3.927   1.815 -0.8300 -0.6660 -1.0538
 2030SOL     OW16423   9.271   3.087   3.794 -0.0743  0.5857  0.3090
 2030SOL    HW116424   9.358   3.047   3.763 -0.1836  1.3769 -1.0067
 2030SOL    HW216425   9.281   3.186   3.801 -0.6568  0.6046  0.8929
 2031SOL     OW16426   8.219   6.773   0.608  0.1702 -0.5848  0.2547
 2031SOL    HW116427   8.242   6.870   0.618  0.7756 -0.9221  2.4859
 2031SOL    HW216428   8.291   6.717   0.649 -0.2627 -1.9845 -0.8504
 2032SOL     OW16429   1.599   6.082   2.952  0.1600  0.2251 -0.2500
 2032SOL    HW116430   1.612   5.983   2.943  0.0719  0.3887 -2.4209
 2032SOL    HW216431   1.635   6.127   2.871  0.2652  2.0013  0.7714
 2033SOL     OW16432   1.609   1.211   0.384 -0.9253 -0.4547  0.0126
 2033SOL    HW116433   1.689   1.152   0.377  0.1276  1.1899 -2.3389
 2033SOL    HW216434   1.527   1.154   0.396  0.3835 -2.2174  0.8683
 2034SOL     OW16435   3.502   0.075   1.375  0.1398 -0.3821  1.0474
 2034SOL    HW116436   3.588   0.024   1.383  0.3013 -0.1854  0.5654
 2034SOL    HW216437   3.426   0.015   1.397  0.4911 -0.1770  2.9011
 2035SOL     OW16438   0.703   9.615   1.516  0.5314  0.6489  0.2887
 2035SOL    HW116439   0.615   9.616   1.469  0.3056 -0.3314  0.6808
 2035SOL    HW216440   0.702   9.546   1.589  1.0901  1.7170  1.3273
 2036SOL     OW16441   2.733   8.002   2.726 -0.2808 -0.2536 -0.1534
 2036SOL    HW116442   2.746   7.959   2.815  1.1313 -0.3322 -0.3796
 2036SOL    HW216443   2.666   7.950   2.673  1.2913 -2.1429 -0.3669
 2037SOL     OW16444   4.443   0.322   0.189  0.5937 -0.9589 -0.0993
 2037SOL    HW116445   4.537   0.334   0.157  0.2439 -1.0348 -1.1459
 2037SOL    HW216446   4.436   0.357   0.283  0.9912  1.6773 -1.0202
 2038SOL     OW16447   8.976   0.949   1.161  0.5931  0.4055 -0.2709
 2038SOL    HW116448   8.907   0.953   1.088  0.8402 -1.5244 -0.6309
 2038SOL    HW216449   9.049   0.887   1.134  0.0365 -1.3775  2.1426
 2039SOL     OW16450   2.832   7.907   1.419  0.5272 -0.6582 -0.4150
 2039SOL    HW116451   2.755   7.920   1.482  1.0793  0.3540  0.0703
 2039SOL    HW216452   2.814   7.828   1.360 -1.7869  0.6719 -1.6204
 2040SOL     OW16453   2.275   1.060   2.791  0.3586  0.2389 -0.2857
 2040SOL    HW116454   2.196   1.121   2.793  0.1010 -0.0861 -0.6043
 2040SOL    HW216455   2.359   1.115   2.784  0.2261  0.6245  0.9415
 2041SOL     OW16456   9.193   9.561   0.426 -0.1260  0.0853  0.4654
 2041SOL    HW116457   9.152   9.497   0.361  0.2031  1.9549 -1.6501
 2041SOL    HW216458   9.292   9.564   0.413  0.3307 -1.6992  3.1032
 2042SOL     OW16459   9.207   3.871   3.945 -0.6027  0.2151  0.3207
 2042SOL    HW116460   9.124   3.905   3.990 -0.1949 -0.7038  1.8270
 2042SOL    HW216461   9.288   3.901   3.996 -0.0675  0.1068 -0.4508
 2043SOL     OW16462   2.271   3.126   4.005  0.2123 -0.2951 -0.2412
 2043SOL    HW116463   2.190   3.151   3.952  0.5217 -0.8532 -0.9853
 2043SOL    HW216464   2.265   3.165   4.097 -0.4105  0.5314 -0.6334
 2044SOL     OW16465   4.728   3.768   0.953 -0.3757 -0.6595 -0.3360
 2044SOL    HW116466   4.788   3.690   0.937  0.5629 -0.0944  0.3826
 2044SOL    HW216467   4.783   3.851   0.960 -1.2316 -0.1653  0.5602
 2045SOL     OW16468   8.603   6.550   0.322  0.5764  0.2369 -0.4987
 2045SOL    HW116469   8.526   6.492   0.295  2.0624 -2.2948  0.5374
 2045SOL    HW216470   8.622   6.616   0.249 -1.3735 -0.3129 -1.5517
 2046SOL     OW16471   3.715   6.954   3.528  0.4384 -0.3525 -0.1003
 2046SOL    HW116472   3.643   6.950   3.458  0.0273 -0.8917  0.3488
 2046SOL    HW216473   3.787   7.016   3.498  0.2835 -0.6113 -1.0277
 2047SOL     OW16474   1.779   0.147   1.987  0.3984  0.2992  0.5078
 2047SOL    HW116475   1.771   0.247   1.986 -1.6965  0.1424 -0.9512
 2047SOL    HW216476   1.871   0.121   1.957  0.4916  1.7727 -0.5514
 2048SOL     OW16477   9.487   0.574   2.619 -0.0111  0.3707  0.1474
 2048SOL    HW116478   9.464   0.629   2.698 -0.6528 -0.8076  0.7908
 2048SOL    HW216479   9.587   0.567   2.611  0.0721  1.5860  0.0684
 2049SOL     OW16480   2.891   5.614   0.624  0.2137  0.2843 -0.2086
 2049SOL    HW116481   2.908   5.612   0.722  0.5461  0.0445 -0.2701
 2049SOL    HW216482   2.853   5.526   0.595 -0.3051  0.5118 -0.2187
 2050SOL     OW16483   9.185   7.859   0.869  0.3929  0.1147  0.0694
 2050SOL    HW116484   9.217   7.934   0.811  1.6173 -0.1571  0.3860
 2050SOL    HW216485   9.087   7.845   0.854  0.2350  1.5237 -0.2735
 2051SOL     OW16486   3.434   2.101   3.461  0.1095  0.3882 -0.1174
 2051SOL    HW116487   3.527   2.065   3.470 -0.0458  0.4188  2.0718
 2051SOL    HW216488   3.368   2.030   3.487 -0.3438  1.1416  0.8562
 2052SOL     OW16489   3.217   7.944   2.138 -0.1404 -0.2106  0.4360
 2052SOL    HW116490   3.148   7.945   2.210  0.4589  2.3089  1.0292
 2052SOL    HW216491   3.307   7.961   2.177  0.9589 -3.8110 -0.2856
 2053SOL     OW16492   3.351   4.595   3.131 -0.2252  0.3622 -0.2062
 2053SOL    HW116493   3.275   4.562   3.188  0.4065 -0.0765  0.3790
 2053SOL    HW216494   3.361   4.535   3.051 -1.1860  1.0469 -0.8564
 2054SOL     OW16495   1.586   4.387   2.108 -0.0003 -0.1147 -0.4205
 2054SOL    HW116496   1.619   4.325   2.179 -0.6189 -1.4127 -1.2436
 2054SOL    HW216497   1.603   4.482   2.136  2.7796 -0.6920 -0.0536
 2055SOL     OW16498   5.405   9.232   2.667  0.0565  0.2628  0.2728
 2055SOL    HW116499   5.466   9.159   2.636 -1.1365 -1.0381  0.9243
 2055SOL    HW216500   5.404   9.306   2.600  2.0028  0.1022  0.0490
 2056SOL     OW16501   9.511   9.485   1.803  0.5299 -0.2694 -0.2020
 2056SOL    HW116502   9.609   9.468   1.795  0.6426 -0.3272  1.3004
 2056SOL    HW216503   9.496   9.576   1.842 -0.0200 -0.2319 -0.4914
 2057SOL     OW16504   1.550   4.528   0.824  0.0827 -0.3116 -0.0968
 2057SOL    HW116505   1.633   4.484   0.791 -1.3217 -2.6523 -0.6077
 2057SOL    HW216506   1.492   4.552   0.746  0.5785  2.0442  0.2006
 2058SOL     OW16507   4.519   3.067   3.050 -0.3460 -0.4130  0.2479
 2058SOL    HW116508   4.482   3.129   2.981 -1.4758  0.8655  1.9464
 2058SOL    HW216509   4.492   2.973   3.029 -1.5564  0.0870 -0.4890
 2059SOL     OW16510   8.367   9.562   0.081 -0.0459  0.0375 -0.3507
 2059SOL    HW116511   8.394   9.584  -0.012 -0.7137 -1.5307 -0.9410
 2059SOL    HW216512   8.270   9.537   0.082  0.3555 -1.5637  0.4658
 2060SOL     OW16513   4.146   2.623   3.697 -0.2168  0.4065  0.4534
 2060SOL    HW116514   4.203   2.668   3.766 -1.2637  0.7189  1.1212
 2060SOL    HW216515   4.059   2.672   3.688  0.2623  0.9190 -1.7464
 2061SOL     OW16516   1.047   0.824   0.345 -0.1954  0.3980  0.1775
 2061SOL    HW116517   0.986   0.855   0.273 -1.1048 -0.3794  0.6052
 2061SOL    HW216518   1.064   0.726   0.336 -1.1122  0.0910  1.5942
 2062SOL     OW16519   8.617   9.479   3.332  0.0945  0.0625  0.6175
 2062SOL    HW116520   8.707   9.523   3.326 -0.6879  1.9779  2.4315
 2062SOL    HW216521   8.599   9.428   3.247  1.8181  1.7149 -0.7803
 2063SOL     OW16522   4.332   9.921   2.648 -0.9061 -0.1117  0.2426
 2063SOL    HW116523   4.296   9.906   2.741  0.3563  0.1161  0.7763
 2063SOL    HW216524   4.390   9.844   2.622 -1.3274 -0.2133 -0.3913
 2064SOL     OW16525   9.859   8.667   1.255  0.1667 -0.5085  0.5221
 2064SOL    HW116526   9.809   8.608   1.319  0.8347  1.8316  3.2854
 2064SOL    HW216527   9.805   8.749   1.236  1.0939 -0.0024  0.0703
 2065SOL     OW16528   3.375   1.329   2.730 -0.2166  0.2354 -0.0865
 2065SOL    HW116529   3.400   1.426   2.726 -0.4763  0.2905 -0.4647
 2065SOL    HW216530   3.348   1.305   2.823 -0.4848  0.6153 -0.0639
 2066SOL     OW16531   3.722   1.483   1.974 -0.6249 -0.3582  0.2918
 2066SOL    HW116532   3.707   1.570   1.926 -0.3966  0.8676  2.3827
 2066SOL    HW216533   3.772   1.420   1.914 -1.9653  0.4421 -1.7446
 2067SOL     OW16534   3.464   2.740   1.704 -0.0459  0.0724  0.2896
 2067SOL    HW116535   3.550   2.700   1.735  1.2996  1.3591 -1.7234
 2067SOL    HW216536   3.482   2.827   1.657 -2.4771  0.5800  0.2281
 2068SOL     OW16537   9.299   9.531   3.373 -0.3471  0.4787 -0.4030
 2068SOL    HW116538   9.244   9.449   3.384  1.3735 -0.7001 -0.3260
 2068SOL    HW216539   9.343   9.554   3.460 -1.3628  1.8851 -0.2540
 2069SOL     OW16540   9.012   1.132   3.742 -0.8073  0.3447  0.4596
 2069SOL    HW116541   9.011   1.231   3.731  2.5467  0.1966 -2.3310
 2069SOL    HW216542   9.067   1.107   3.821  3.0673  0.6907 -1.9766
 2070SOL     OW16543   2.832   8.519   1.512 -0.4201 -0.1680 -0.0877
 2070SOL    HW116544   2.891   8.449   1.553  0.1912  0.9690  0.9997
 2070SOL    HW216545   2.883   8.569   1.442 -0.7275 -0.5004 -0.5598
 2071SOL     OW16546   7.957   3.539   3.929  0.0791 -0.4066  0.0578
 2071SOL    HW116547   7.945   3.440   3.940 -2.2890 -0.1213  0.2903
 2071SOL    HW216548   7.958   3.583   4.019 -0.3565 -0.0820 -0.0894
 2072SOL     OW16549   2.789   7.820   3.607  0.0578 -0.1292 -0.5347
 2072SOL    HW116550   2.846   7.737   3.607 -1.8493 -1.4793  0.4247
 2072SOL    HW216551   2.777   7.852   3.700 -1.2099 -0.1952 -0.6653
 2073SOL     OW16552   4.652   7.796   1.003  0.2908  0.1803 -0.1438
 2073SOL    HW116553   4.587   7.756   0.938 -0.9729  1.3158  0.3775
 2073SOL    HW216554   4.638   7.756   1.093  1.5280 -0.8421 -0.3935
 2074SOL     OW16555   1.673   3.191   3.774  0.0796 -0.3437 -0.4756
 2074SOL    HW116556   1.700   3.235   3.860 -0.3085  0.1456 -0.5984
 2074SOL    HW216557   1.669   3.260   3.701 -1.3635 -0.4089 -0.4853
 2075SOL     OW16558   0.642   9.297   1.140 -0.3220  0.1655  0.0481
 2075SOL    HW116559   0.627   9.371   1.076 -1.1909  0.3958  0.5057
 2075SOL    HW216560   0.645   9.210   1.091 -0.6951  0.3667 -0.3304
 2076SOL     OW16561   9.697   7.903   3.727  0.3148 -0.4525 -0.2748
 2076SOL    HW116562   9.718   7.989   3.774  1.3725 -1.5282  1.2781
 2076SOL    HW216563   9.638   7.847   3.785  0.9786 -1.4680 -0.5758
 2077SOL     OW16564   3.369   0.962   3.257 -0.0104 -0.1843  0.2216
 2077SOL    HW116565   3.404   0.892   3.194 -0.6134 -0.6498  0.3977
 2077SOL    HW216566   3.432   1.038   3.260 -0.5210  0.3622 -1.8560
 2078SOL     OW16567   8.832   9.363   2.681 -0.0875 -0.9013  0.2219
 2078SOL    HW116568   8.793   9.418   2.755 -1.1797 -1.9371  0.4154
 2078SOL    HW216569   8.766   9.294   2.652  0.6103 -0.9693 -1.2325
 2079SOL     OW16570   9.897   0.855   3.714 -0.3681 -0.0911 -0.3878
 2079SOL    HW116571   9.866   0.922   3.647  0.3051  1.2648  0.6317
 2079SOL    HW216572   9.918   0.769   3.668  0.1317  0.8322 -1.9126
 2080SOL     OW16573   4.287   0.463   1.482 -0.4703 -0.4801 -0.0265
 2080SOL    HW116574   4.221   0.473   1.556  0.6529 -2.6429  1.3106
 2080SOL    HW216575   4.341   0.381   1.497  1.4556  0.4024 -1.9517
 2081SOL     OW16576   8.549   6.940   0.728  0.7197 -0.2544  0.4187
 2081SOL    HW116577   8.623   6.891   0.683  0.2447 -0.8753  0.3058
 2081SOL    HW216578   8.487   6.875   0.771 -0.5286  0.1729 -0.6773
 2082SOL     OW16579   3.233   5.808   1.669 -0.0738 -0.1862  0.0105
 2082SOL    HW116580   3.187   5.852   1.592 -0.0469  1.3372  0.8522
 2082SOL    HW216581   3.164   5.773   1.733 -0.1156  1.5028  0.9355
 2083SOL     OW16582   7.539   9.743   1.462 -0.0300  0.2674  0.1281
 2083SOL    HW116583   7.604   9.692   1.405 -1.5878 -1.6953  0.0184
 2083SOL    HW216584   7.527   9.696   1.549 -0.7852  0.9677  0.4144
 2084SOL     OW16585   1.900   6.248   0.829  0.6416 -0.4995 -0.0455
 2084SOL    HW116586   1.951   6.325   0.866 -0.9765  0.7985 -0.4571
 2084SOL    HW216587   1.953   6.204   0.756  0.2133  2.2797 -2.1049
 2085SOL     OW16588   2.423   2.233   2.061 -0.2870 -0.1468  0.5101
 2085SOL    HW116589   2.402   2.270   1.971 -0.1942  5.5676  2.6577
 2085SOL    HW216590   2.521   2.212   2.066 -0.0956  0.5163 -0.3787
 2086SOL     OW16591   2.819   2.011   2.920  0.0887  0.2332 -0.4069
 2086SOL    HW116592   2.861   2.102   2.919  1.4222 -0.3656 -2.5593
 2086SOL    HW216593   2.874   1.950   2.977  0.7481  0.0818 -1.2017
 2087SOL     OW16594   1.474   6.716   3.457 -0.1884 -0.0918 -0.0404
 2087SOL    HW116595   1.458   6.627   3.501 -0.1870  0.5504  1.2598
 2087SOL    HW216596   1.527   6.702   3.373 -0.2896 -1.3352  0.0923
 2088SOL     OW16597   2.526   5.317   0.680  0.2058 -0.1532 -0.2203
 2088SOL    HW116598   2.474   5.253   0.623 -0.1108  0.1696 -0.2908
 2088SOL    HW216599   2.497   5.308   0.775  1.5602 -1.5410  0.0945
 2089SOL     OW16600   0.378   7.163   0.618  0.0637  0.0888 -0.5598
 2089SOL    HW116601   0.455   7.210   0.576  0.5597  0.7276  1.0460
 2089SOL    HW216602   0.293   7.209   0.593  0.2922  0.0731 -1.3852
 2090SOL     OW16603   7.743   3.879   0.597 -0.3942 -0.1197 -0.0798
 2090SOL    HW116604   7.811   3.835   0.655  0.4074 -0.5278 -1.3100
 2090SOL    HW216605   7.655   3.834   0.609  0.0201 -0.9161 -0.0147
 2091SOL     OW16606   1.427   7.062   1.780 -0.0074 -0.1346 -0.3923
 2091SOL    HW116607   1.445   7.000   1.856  0.2710 -0.3178 -0.6061
 2091SOL    HW216608   1.501   7.128   1.772  1.2267 -1.6703 -2.0499
 2092SOL     OW16609   8.761   3.649   0.440 -0.0464  0.0021  0.4916
 2092SOL    HW116610   8.743   3.570   0.382  0.7097 -0.0907  0.3804
 2092SOL    HW216611   8.787   3.618   0.531  2.6391  0.0529 -0.2231
 2093SOL     OW16612   0.578   2.040   1.688  0.6179  0.5827 -0.6305
 2093SOL    HW116613   0.600   2.081   1.776  1.9683  0.6278 -0.9783
 2093SOL    HW216614   0.553   2.111   1.623  1.6771  0.7513 -0.8647
 2094SOL     OW16615   8.988   3.368   2.180 -0.0397 -0.2353  0.4604
 2094SOL    HW116616   8.889   3.368   2.196  0.1598  1.2341  1.9528
 2094SOL    HW216617   9.016   3.458   2.145  0.5057 -1.3021 -1.9489
 2095SOL     OW16618   1.892   5.185   0.054  0.5690 -0.0365  0.6249
 2095SOL    HW116619   1.940   5.181  -0.033  1.2082 -0.6484  1.0046
 2095SOL    HW216620   1.851   5.276   0.065  0.3314 -0.0134 -0.3880
 2096SOL     OW16621   0.935   9.749   1.193  0.8027 -0.4209  0.1342
 2096SOL    HW116622   0.980   9.661   1.211  0.8104 -0.3819  0.3099
 2096SOL    HW216623   0.977   9.820   1.250  1.1716 -0.1944 -0.4104
 2097SOL     OW16624   6.252   8.554   2.590 -0.0453 -0.2089  0.5893
 2097SOL    HW116625   6.280   8.568   2.685  1.4156  0.8177  0.0239
 2097SOL    HW216626   6.332   8.562   2.530 -1.1370  0.2871 -0.8296
 2098SOL     OW16627   2.877   0.165   0.317 -0.1104 -0.9382 -0.5325
 2098SOL    HW116628   2.878   0.265   0.323 -1.0016 -0.9395 -0.3058
 2098SOL    HW216629   2.967   0.129   0.340  0.4959 -0.1282 -1.6211
 2099SOL     OW16630   7.334   1.226   0.654  0.0735 -0.1651  0.7496
 2099SOL    HW116631   7.396   1.293   0.694 -0.1230 -0.5081  1.6359
 2099SOL    HW216632   7.240   1.251   0.675 -0.0323 -0.3518  0.4990
 2100SOL     OW16633   2.247   4.275   1.234 -0.7053 -0.2578 -0.4232
 2100SOL    HW116634   2.262   4.269   1.333 -0.0338 -1.2142 -0.5763
 2100SOL    HW216635   2.186   4.201   1.205 -0.3803 -0.3661 -0.8271
 2101SOL     OW16636   3.168   5.792   2.423  0.0189  0.2867  0.1876
 2101SOL    HW116637   3.134   5.862   2.360 -2.1719 -1.8041 -1.0523
 2101SOL    HW216638   3.158   5.824   2.517 -0.5596  1.7866 -0.3633
 2102SOL     OW16639   8.909   2.250   3.904  0.7093  0.1904  0.3941
 2102SOL    HW116640   8.829   2.198   3.875  0.9464 -0.0716  0.2027
 2102SOL    HW216641   8.881   2.323   3.967  0.1576  0.9180 -0.6741
 2103SOL     OW16642   0.362   7.178   0.914  0.2448  0.1038  0.0927
 2103SOL    HW116643   0.349   7.275   0.896  0.7654  0.2657  0.5761
 2103SOL    HW216644   0.370   7.128   0.827 -3.0756  0.0480 -0.2327
 2104SOL     OW16645   8.652   5.993   0.642 -0.2380  0.4730  0.2058
 2104SOL    HW116646   8.586   5.921   0.664  0.9208 -1.7869 -3.3333
 2104SOL    HW216647   8.745   5.956   0.651  0.3862  1.7843 -0.7762
 2105SOL     OW16648   8.908   0.673   2.522 -0.0081  0.2109 -0.5431
 2105SOL    HW116649   8.867   0.727   2.596 -0.3441 -0.2280 -0.4057
 2105SOL    HW216650   8.925   0.580   2.554 -0.5242 -0.0909 -1.1393
 2106SOL     OW16651   3.622   9.831   4.012 -0.0254 -0.4725  0.3780
 2106SOL    HW116652   3.704   9.883   3.989  0.4212 -1.4859 -0.3330
 2106SOL    HW216653   3.585   9.864   4.099 -0.4226  1.8405 -0.6185
 2107SOL     OW16654   2.691   9.479   3.750  0.1707  0.5427  0.3935
 2107SOL    HW116655   2.721   9.479   3.845 -0.3579  2.0882  0.5815
 2107SOL    HW216656   2.592   9.491   3.746 -0.2873 -2.9371 -0.2704
 2108SOL     OW16657   4.205   7.860   1.776  0.2270 -0.3429 -0.0244
 2108SOL    HW116658   4.167   7.939   1.824  0.9913 -0.0121  0.0444
 2108SOL    HW216659   4.219   7.785   1.841 -0.7914 -0.6436 -0.1489
 2109SOL     OW16660   7.855   9.758   3.083 -0.4936  0.2910 -0.4442
 2109SOL    HW116661   7.853   9.659   3.066 -2.2139 -0.0444  1.5450
 2109SOL    HW216662   7.776   9.801   3.039 -0.8089  0.4950  0.3177
 2110SOL     OW16663   3.657   5.558   2.467 -0.9532 -0.2205  0.1142
 2110SOL    HW116664   3.687   5.531   2.559 -0.4379 -0.0059  0.0119
 2110SOL    HW216665   3.649   5.476   2.410 -1.2188 -0.3476  0.3356
 2111SOL     OW16666   9.368   1.441   3.643  0.0979  0.2222  0.3626
 2111SOL    HW116667   9.414   1.362   3.602  1.8591  0.6974  1.4134
 2111SOL    HW216668   9.323   1.493   3.571  3.8858  1.5333 -1.1865
 2112SOL     OW16669   0.295   3.758   0.916  0.1285  0.2393 -0.2962
 2112SOL    HW116670   0.325   3.669   0.950 -0.0533  0.3919  0.2767
 2112SOL    HW216671   0.198   3.754   0.890 -0.2029  0.5756  0.8546
 2113SOL     OW16672   9.035   1.999   2.861  0.1989  0.4183 -0.2669
 2113SOL    HW116673   9.055   2.039   2.950  0.3306  1.8342 -0.9235
 2113SOL    HW216674   9.070   1.905   2.858  2.8619  1.3728  0.1143
 2114SOL     OW16675   3.523   1.543   1.462  0.0865 -0.8999 -0.1933
 2114SOL    HW116676   3.548   1.472   1.397 -1.1007 -0.1230 -1.5268
 2114SOL    HW216677   3.588   1.619   1.455 -1.2894  0.1348 -2.0509
 2115SOL     OW16678   7.847   1.903   1.712  0.1335  0.0783  0.1612
 2115SOL    HW116679   7.793   1.953   1.645  0.7332 -0.4681 -0.7444
 2115SOL    HW216680   7.821   1.807   1.710  1.3222 -0.2412 -0.4856
 2116SOL     OW16681   0.452   8.907   0.008 -0.1294  0.1924  0.0705
 2116SOL    HW116682   0.434   8.949   0.097 -1.6967 -0.8751  0.2791
 2116SOL    HW216683   0.444   8.807   0.016 -1.7658  0.1651 -1.5723
 2117SOL     OW16684   9.717   3.346   1.317 -0.1984 -0.0977  0.1161
 2117SOL    HW116685   9.697   3.414   1.387  0.7221 -1.3797  1.6561
 2117SOL    HW216686   9.742   3.392   1.232 -2.8723  1.4936  0.1343
 2118SOL     OW16687   6.561   9.163   1.790 -0.0722 -0.2313 -0.2626
 2118SOL    HW116688   6.470   9.144   1.825 -0.4855 -1.7845 -2.1142
 2118SOL    HW216689   6.622   9.087   1.811  0.2692 -0.1238 -0.8501
 2119SOL     OW16690   2.385   8.629   1.477 -0.2303  0.3118 -0.4929
 2119SOL    HW116691   2.466   8.581   1.510 -0.7757 -1.0809 -1.1787
 2119SOL    HW216692   2.353   8.692   1.548  0.2432 -0.6427  0.5810
 2120SOL     OW16693   4.895   0.599   3.639 -0.2440 -0.0122 -0.8452
 2120SOL    HW116694   4.983   0.588   3.593  0.4735  0.5461  0.3572
 2120SOL    HW216695   4.836   0.520   3.618  0.8674 -0.8324 -0.9397
 2121SOL     OW16696   9.143   8.921   0.590  0.1945  0.3225  0.6105
 2121SOL    HW116697   9.220   8.976   0.623 -1.0247  2.2529  0.2802
 2121SOL    HW216698   9.179   8.847   0.531  1.8279  0.8949  0.8538
 2122SOL     OW16699   5.888   9.952   3.480  0.3279 -0.1625  0.0004
 2122SOL    HW116700   5.872   9.908   3.392  0.3723 -0.9565  0.3761
 2122SOL    HW216701   5.981   9.987   3.484  1.0495 -2.0543  0.5180
 2123SOL     OW16702   7.919   6.768   0.331 -0.2480  0.0600 -0.4861
 2123SOL    HW116703   7.840   6.821   0.299  1.2668  1.1616 -2.5993
 2123SOL    HW216704   7.991   6.832   0.359  1.1613 -0.8982 -1.9029
 2124SOL     OW16705   0.544   1.986   3.826  0.0050 -0.0755 -0.2663
 2124SOL    HW116706   0.591   2.043   3.893  0.4970 -0.7874  0.0071
 2124SOL    HW216707   0.446   1.985   3.846 -0.1884  1.7068 -1.0611
 2125SOL     OW16708   9.195   7.442   0.045  0.6031 -0.5968  0.1854
 2125SOL    HW116709   9.176   7.512  -0.025  1.3907 -1.4280 -0.8664
 2125SOL    HW216710   9.261   7.478   0.110  0.9274 -0.3142 -0.2946
 2126SOL     OW16711   2.794   8.732   2.822 -0.0672  0.4016  0.0121
 2126SOL    HW116712   2.730   8.721   2.898  1.6949  2.4777  1.8457
 2126SOL    HW216713   2.762   8.805   2.761 -0.2324  0.3659  0.0546
 2127SOL     OW16714   7.684   1.830   3.237 -0.4846  0.2510  0.0292
 2127SOL    HW116715   7.629   1.749   3.257 -0.2715 -0.1370 -0.9099
 2127SOL    HW216716   7.729   1.818   3.148  0.1885  1.0545  0.2572
 2128SOL     OW16717   1.934   7.971   0.918  0.1263  0.1493 -0.5568
 2128SOL    HW116718   1.892   7.991   0.829 -0.9393 -0.3636 -0.1813
 2128SOL    HW216719   2.000   7.896   0.906  1.2198  1.2048 -1.2177
 2129SOL     OW16720   3.375   4.057   3.255  0.3273 -0.9049 -0.2598
 2129SOL    HW116721   3.346   4.148   3.285 -0.5683 -1.1085 -0.5115
 2129SOL    HW216722   3.442   4.021   3.320  0.4446 -0.1978  0.0159
 2130SOL     OW16723   4.479   6.820   2.549 -0.3821 -0.1095  0.2710
 2130SOL    HW116724   4.385   6.796   2.524 -0.9424  2.1331  0.1535
 2130SOL    HW216725   4.517   6.884   2.483  1.2302 -0.9712  0.3398
 2131SOL     OW16726   3.102   9.911   3.841 -0.4150  0.4869  0.6252
 2131SOL    HW116727   3.006   9.884   3.854 -0.0706 -0.7806  0.6052
 2131SOL    HW216728   3.113   9.953   3.751 -0.6143 -0.9914 -0.1050
 2132SOL     OW16729   1.552   7.393   3.629  0.5890 -0.3913 -0.0612
 2132SOL    HW116730   1.639   7.358   3.662 -0.5681 -2.2656  1.1126
 2132SOL    HW216731   1.490   7.316   3.610 -1.0202  0.9123 -0.2260
 2133SOL     OW16732   9.951   7.544   1.108  0.1470 -0.4449 -0.2295
 2133SOL    HW116733  10.050   7.554   1.094 -0.1470  0.4768 -1.6457
 2133SOL    HW216734   9.902   7.564   1.023 -1.2312 -1.4808  0.3037
 2134SOL     OW16735   2.105   7.067   2.880 -0.2071 -0.6625 -0.0584
 2134SOL    HW116736   2.071   7.016   2.959 -3.3127  1.1396 -0.1365
 2134SOL    HW216737   2.155   7.148   2.911 -1.2178 -0.0854  0.0870
 2135SOL     OW16738   1.931   3.230   1.645 -0.0220  0.1058 -0.2865
 2135SOL    HW116739   1.920   3.154   1.710  1.1313 -1.0077 -1.3601
 2135SOL    HW216740   1.979   3.197   1.564 -0.2483  1.8105 -1.1266
 2136SOL     OW16741   4.610   0.363   3.295  0.0669  0.0168  0.3871
 2136SOL    HW116742   4.653   0.451   3.316  2.3440 -1.1835  1.0384
 2136SOL    HW216743   4.660   0.290   3.343 -1.5541 -1.6643 -0.4174
 2137SOL     OW16744   1.336   1.425   0.886  0.1446 -0.1011 -0.7154
 2137SOL    HW116745   1.348   1.326   0.878  0.6829 -0.1471  0.5327
 2137SOL    HW216746   1.408   1.471   0.835  0.2045 -0.3562 -0.8616
 2138SOL     OW16747   7.795   5.553   0.535 -0.2008  0.2355 -0.6086
 2138SOL    HW116748   7.745   5.592   0.612  1.3680  1.2588 -0.0770
 2138SOL    HW216749   7.842   5.626   0.485  0.6316 -0.6741 -1.1853
 2139SOL     OW16750   1.164   0.141   1.171  0.7665  0.0689  0.0649
 2139SOL    HW116751   1.131   0.076   1.102  3.2346 -0.9027 -0.2583
 2139SOL    HW216752   1.154   0.101   1.262  0.5209 -0.0003  0.0068
 2140SOL     OW16753   3.369   3.105   2.401 -0.0441  0.1624 -0.0365
 2140SOL    HW116754   3.340   3.015   2.435 -1.1711  0.5224  0.0056
 2140SOL    HW216755   3.290   3.151   2.359  0.1128  1.7755  1.3639
 2141SOL     OW16756   2.764   4.318   0.415 -0.6774 -0.0459  0.0412
 2141SOL    HW116757   2.693   4.305   0.484 -1.7090 -0.7732 -1.1316
 2141SOL    HW216758   2.733   4.383   0.346 -0.3015 -0.5401 -0.6041
 2142SOL     OW16759   2.123   2.369   1.702  0.4678  0.0860  0.0381
 2142SOL    HW116760   2.109   2.457   1.747 -0.3903 -0.6500  1.2541
 2142SOL    HW216761   2.198   2.320   1.748 -1.7250 -1.5171  2.0290
 2143SOL     OW16762   2.737   2.547   1.302  0.2158  0.4138  0.1614
 2143SOL    HW116763   2.707   2.503   1.217 -0.4501  0.2288  0.4868
 2143SOL    HW216764   2.673   2.621   1.325  0.5960  0.6956  0.3074
 2144SOL     OW16765   3.087   9.414   0.647 -0.0130  0.5184 -0.0943
 2144SOL    HW116766   3.020   9.488   0.638  0.0105  0.2996 -2.3274
 2144SOL    HW216767   3.169   9.437   0.595  0.3013 -0.7593 -0.1716
 2145SOL     OW16768   3.594   0.111   2.613 -0.0663  0.4995 -0.1884
 2145SOL    HW116769   3.639   0.054   2.544 -1.3118  1.1010 -1.5308
 2145SOL    HW216770   3.624   0.205   2.602  1.3497  0.2649  1.4915
 2146SOL     OW16771   1.634   0.622   1.914  0.3099 -0.2782  0.0227
 2146SOL    HW116772   1.542   0.588   1.933  0.5283 -0.9980 -0.1717
 2146SOL    HW216773   1.633   0.722   1.909 -0.3842 -0.2650  0.4084
 2147SOL     OW16774   0.217   2.802   1.950 -0.3336 -0.1765  0.0972
 2147SOL    HW116775   0.302   2.752   1.965 -0.7865 -0.4515  1.8191
 2147SOL    HW216776   0.141   2.754   1.994 -1.3083  0.3067 -1.0296
 2148SOL     OW16777   0.432   1.200   2.149 -1.0004  0.3622 -0.3325
 2148SOL    HW116778   0.479   1.275   2.194 -0.0911 -0.2952 -0.1685
 2148SOL    HW216779   0.442   1.209   2.049  2.1968 -1.4567 -0.2438
 2149SOL     OW16780   9.058   2.481   1.962  0.2681 -0.2680  0.2077
 2149SOL    HW116781   9.071   2.437   2.051  0.2425 -0.0491  0.3207
 2149SOL    HW216782   8.980   2.544   1.966 -0.3150 -0.9630 -0.2379
 2150SOL     OW16783   0.551   3.763   3.412  0.0793  0.2049  0.1582
 2150SOL    HW116784   0.640   3.801   3.386  0.3490  0.3422  1.2784
 2150SOL    HW216785   0.561   3.709   3.495 -0.5972 -1.0496 -0.5647
 2151SOL     OW16786   9.649   0.606   3.911  0.8924 -0.3596  0.1708
 2151SOL    HW116787   9.681   0.585   4.003  0.3756  0.6632  0.6014
 2151SOL    HW216788   9.653   0.705   3.896  0.4950 -0.4680 -0.7250
 2152SOL     OW16789   0.852   3.311   0.765 -0.5670 -1.0000  0.7704
 2152SOL    HW116790   0.811   3.240   0.822 -1.0584  0.6188  2.4746
 2152SOL    HW216791   0.781   3.371   0.729 -0.0467 -0.6589  0.3051
 2153SOL     OW16792   3.741   6.922   3.030  0.5452 -0.2928 -0.4837
 2153SOL    HW116793   3.685   6.929   2.947  1.3428  0.7686 -0.9528
 2153SOL    HW216794   3.838   6.929   3.005  0.7837  0.2206  0.5554
 2154SOL     OW16795   8.495   9.432   1.077  0.9989 -0.2005  0.3234
 2154SOL    HW116796   8.593   9.433   1.094  1.6030 -1.0964 -2.6908
 2154SOL    HW216797   8.475   9.487   0.996 -1.1683  0.9662  1.6072
 2155SOL     OW16798   3.450   6.063   2.276  0.1658 -0.3130 -0.3003
 2155SOL    HW116799   3.381   6.025   2.215  0.3751 -0.9740 -0.1333
 2155SOL    HW216800   3.498   5.988   2.323  0.3202  0.1734  0.3232
 2156SOL     OW16801   8.269   4.716   0.590 -0.2841 -0.0985  0.0726
 2156SOL    HW116802   8.218   4.691   0.672 -0.9240  1.3194  0.1183
 2156SOL    HW216803   8.314   4.804   0.604  1.2539 -0.7863 -0.3864
 2157SOL     OW16804   8.583   8.604   0.219  0.1420 -0.1242 -0.0981
 2157SOL    HW116805   8.530   8.596   0.303  1.9874  0.2999  1.1217
 2157SOL    HW216806   8.561   8.690   0.174 -1.9025 -0.9804 -0.8261
 2158SOL     OW16807   8.117   9.310   2.530  0.1224  0.0329 -0.4509
 2158SOL    HW116808   8.113   9.277   2.625 -0.2698  2.8348  0.5347
 2158SOL    HW216809   8.099   9.234   2.468  0.2264 -1.8196  1.7182
 2159SOL     OW16810   9.486   0.665   0.303 -0.3671  0.1520  0.0096
 2159SOL    HW116811   9.405   0.714   0.334 -0.2126  0.4491 -0.0656
 2159SOL    HW216812   9.471   0.631   0.210 -0.4398  0.1262  0.0305
 2160SOL     OW16813   2.636   7.585   0.913 -0.3306 -0.2876  0.0223
 2160SOL    HW116814   2.605   7.533   0.834  2.9366 -0.1776 -1.3980
 2160SOL    HW216815   2.597   7.677   0.911  0.3792 -0.0269 -1.8987
 2161SOL     OW16816   1.578   8.697   0.569  0.5874  0.2067  0.0317
 2161SOL    HW116817   1.590   8.610   0.617 -0.3929  0.8087  1.3959
 2161SOL    HW216818   1.480   8.717   0.562  0.8830  2.3697  1.8452
 2162SOL     OW16819   4.042   1.233   3.316 -0.1462  0.3791 -0.5653
 2162SOL    HW116820   4.022   1.328   3.338 -1.2177 -0.0530  0.4016
 2162SOL    HW216821   3.962   1.177   3.337  0.9175 -0.9165  0.1080
 2163SOL     OW16822   4.802   9.003   3.334 -0.2931  0.4157  0.0109
 2163SOL    HW116823   4.825   8.918   3.286 -1.5805 -0.3607  0.7483
 2163SOL    HW216824   4.870   9.020   3.406 -0.3482 -0.2792  0.2285
 2164SOL     OW16825   8.762   1.294   0.298  0.1139  0.5107  0.5426
 2164SOL    HW116826   8.709   1.243   0.366 -0.1398 -0.4949 -0.3993
 2164SOL    HW216827   8.739   1.391   0.305 -0.7517  0.2749  1.1360
 2165SOL     OW16828   1.058   7.800   1.251  0.5462  0.1647 -0.1630
 2165SOL    HW116829   0.959   7.806   1.265  0.3075  0.0423 -1.7850
 2165SOL    HW216830   1.100   7.886   1.280 -0.2113  0.8175 -0.9772
 2166SOL     OW16831   2.662   4.246   2.785  0.0021 -0.1043 -0.0079
 2166SOL    HW116832   2.666   4.258   2.884 -0.5329  1.2716 -0.1343
 2166SOL    HW216833   2.584   4.188   2.762 -0.4233  0.3177  0.3353
 2167SOL     OW16834   9.727   9.457   3.871 -0.5114  0.2494  0.6302
 2167SOL    HW116835   9.801   9.524   3.886 -0.8276  0.8155 -0.2801
 2167SOL    HW216836   9.642   9.493   3.910 -0.6451  0.2983  0.2913
 2168SOL     OW16837   1.020   2.061   2.316 -0.1178 -0.2796 -0.4738
 2168SOL    HW116838   1.010   2.066   2.415 -3.0789  0.9078 -0.7826
 2168SOL    HW216839   1.030   2.153   2.279 -0.1064 -0.6429 -1.3914
 2169SOL     OW16840   8.418   2.064   0.120  0.6255 -0.1713 -0.2195
 2169SOL    HW116841   8.383   2.125   0.190 -0.6023 -3.3823  2.0756
 2169SOL    HW216842   8.347   1.998   0.094  2.4976 -1.9068 -1.1154
 2170SOL     OW16843   8.048   1.587   0.036  0.3335  0.0838 -0.0253
 2170SOL    HW116844   8.048   1.650  -0.041 -0.7914  0.4542  0.2734
 2170SOL    HW216845   8.102   1.627   0.111 -0.2148  0.6016  0.0944
 2171SOL     OW16846   4.454   9.560   1.632 -0.2219  0.6281 -0.2179
 2171SOL    HW116847   4.357   9.565   1.654 -0.6323  0.0997 -1.8748
 2171SOL    HW216848   4.484   9.646   1.590 -0.3521  0.2189 -1.1626
 2172SOL     OW16849   9.952   1.539   1.259 -0.8800 -0.1123  0.0918
 2172SOL    HW116850   9.888   1.487   1.203 -0.9787  0.8924 -0.7436
 2172SOL    HW216851   9.905   1.618   1.300 -0.3129  0.3303 -0.1013
 2173SOL     OW16852   1.620   9.493   2.639  0.0753 -0.8196  0.3802
 2173SOL    HW116853   1.645   9.530   2.729 -1.0798  0.5842  0.1526
 2173SOL    HW216854   1.600   9.568   2.577  1.9287 -1.7643 -1.4027
 2174SOL     OW16855   1.143   3.514   3.354  0.1125  0.4967 -0.0836
 2174SOL    HW116856   1.169   3.518   3.450 -1.6291 -0.5898  0.4715
 2174SOL    HW216857   1.142   3.418   3.324  0.3901  0.8082 -1.1134
 2175SOL     OW16858   2.314   6.145   2.493  0.1340  0.0209 -0.4451
 2175SOL    HW116859   2.252   6.130   2.570 -0.2028  0.6816 -0.5863
 2175SOL    HW216860   2.309   6.240   2.464  0.4211 -0.1739 -1.1484
 2176SOL     OW16861   1.308   7.384   1.104 -0.3436  0.3964 -0.6204
 2176SOL    HW116862   1.252   7.439   1.166 -0.3196  0.4728 -0.6658
 2176SOL    HW216863   1.255   7.307   1.070  0.0657 -0.4177  0.5516
 2177SOL     OW16864   9.261   2.100   1.744 -0.5337 -0.6171  0.0816
 2177SOL    HW116865   9.240   2.050   1.660 -1.1503 -0.0508 -0.1108
 2177SOL    HW216866   9.177   2.144   1.779  0.0343  0.4880  0.0924
 2178SOL     OW16867   8.745   0.388   0.537 -0.3977 -0.1036 -0.2499
 2178SOL    HW116868   8.761   0.350   0.628 -0.4028 -2.3267 -1.1498
 2178SOL    HW216869   8.824   0.369   0.479 -0.6446  0.7929 -0.8886
 2179SOL     OW16870   0.947   1.891   3.948  0.3813  0.0045 -0.3821
 2179SOL    HW116871   0.884   1.969   3.942  1.9606  1.2512 -1.0515
 2179SOL    HW216872   1.041   1.925   3.958  1.0448 -1.8225 -0.3318
 2180SOL     OW16873   4.041   8.882   1.649 -0.6086  0.2819  0.7489
 2180SOL    HW116874   4.082   8.791   1.653  1.0640  1.1074  2.8398
 2180SOL    HW216875   4.039   8.923   1.740 -0.9030  2.5415 -0.2329
 2181SOL     OW16876   4.211   1.718   1.783 -0.3822  0.0982  0.7762
 2181SOL    HW116877   4.304   1.753   1.771  0.1889 -1.5482  0.2774
 2181SOL    HW216878   4.197   1.694   1.879  0.3917 -1.4799  0.5149
 2182SOL     OW16879   9.745   2.407   2.328  0.0323  0.6911  0.2311
 2182SOL    HW116880   9.808   2.344   2.375 -1.3728  1.6358  3.5349
 2182SOL    HW216881   9.797   2.467   2.268  2.0142 -0.1179  1.0864
 2183SOL     OW16882   4.534   9.056   3.460  0.1367  0.1186  0.4582
 2183SOL    HW116883   4.631   9.040   3.447  0.0566 -0.8111  0.9666
 2183SOL    HW216884   4.507   9.140   3.413  1.1341  0.2583  0.1336
 2184SOL     OW16885   7.814   3.779   0.131 -0.4476 -0.2056 -0.1427
 2184SOL    HW116886   7.721   3.807   0.155 -0.4970 -0.0635 -0.5013
 2184SOL    HW216887   7.842   3.824   0.046 -0.0271 -0.1978 -0.0006
 2185SOL     OW16888   1.280   5.324   3.159  0.3386 -0.2026  0.5483
 2185SOL    HW116889   1.286   5.385   3.080  1.0807  0.1630  0.8872
 2185SOL    HW216890   1.332   5.363   3.235  2.3896 -2.1607  0.1910
 2186SOL     OW16891   1.447   8.254   2.809  0.0738  0.2138  0.1176
 2186SOL    HW116892   1.545   8.236   2.800 -0.0397 -0.3941  0.0754
 2186SOL    HW216893   1.431   8.317   2.885  0.5158  0.4856 -0.0162
 2187SOL     OW16894   8.373   1.276   0.805 -0.3833  0.9372  0.2867
 2187SOL    HW116895   8.463   1.303   0.771 -0.1185 -0.2541  0.0450
 2187SOL    HW216896   8.307   1.349   0.786  0.5850  1.9298  0.7079
 2188SOL     OW16897   2.414   7.019   0.697 -0.0948  0.0207  0.1751
 2188SOL    HW116898   2.418   7.056   0.790 -1.8505 -0.4311  0.4462
 2188SOL    HW216899   2.399   7.094   0.632  1.7659  0.4164  0.1717
 2189SOL     OW16900   0.712   4.672   3.143 -0.1741  0.0358 -0.1367
 2189SOL    HW116901   0.631   4.723   3.173  0.6072  0.5654  1.1500
 2189SOL    HW216902   0.693   4.626   3.057 -1.0156  2.2810 -1.2062
 2190SOL     OW16903   2.454   3.327   0.817  0.1630  0.3893 -0.3091
 2190SOL    HW116904   2.395   3.405   0.841 -0.1099  0.7913 -2.2148
 2190SOL    HW216905   2.550   3.355   0.826  0.1055  0.0507  1.7725
 2191SOL     OW16906   8.277   5.792   0.507 -0.0099 -0.3533  0.5661
 2191SOL    HW116907   8.204   5.779   0.441 -0.7417  1.0549  1.0927
 2191SOL    HW216908   8.250   5.755   0.596  0.3110 -0.7020  0.5251
 2192SOL     OW16909   0.737   4.147   0.184 -0.2532  0.1790  0.4573
 2192SOL    HW116910   0.823   4.129   0.231 -0.1155 -0.4413 -0.0267
 2192SOL    HW216911   0.716   4.071   0.122 -1.6138 -0.1055  1.2525
 2193SOL     OW16912   0.209   7.386   0.543 -0.7831 -1.5350  0.8819
 2193SOL    HW116913   0.116   7.401   0.510 -0.3245 -1.0531 -0.1972
 2193SOL    HW216914   0.242   7.469   0.589 -1.3844 -2.1699  2.4830
 2194SOL     OW16915   3.990   3.378   1.606  0.3141  0.0733  0.2634
 2194SOL    HW116916   3.962   3.368   1.701 -0.1570  0.5698  0.1832
 2194SOL    HW216917   3.947   3.460   1.567  0.3265 -0.2421 -0.4355
 2195SOL     OW16918   7.973   9.842   3.617 -0.4377 -0.4940  0.1683
 2195SOL    HW116919   7.935   9.823   3.708  0.4532 -0.2654  0.5908
 2195SOL    HW216920   8.014   9.933   3.616  1.1709 -1.1986  0.0688
 2196SOL     OW16921   2.329   9.340   2.178 -0.0146  0.1574 -0.7581
 2196SOL    HW116922   2.335   9.439   2.191 -2.0206  0.2912 -0.7193
 2196SOL    HW216923   2.420   9.304   2.156  0.4954  2.2071 -2.1540
 2197SOL     OW16924   2.671   5.847   1.052 -0.3903  0.0120  0.2648
 2197SOL    HW116925   2.703   5.921   0.992  0.6781 -1.1334 -0.5973
 2197SOL    HW216926   2.744   5.822   1.116  0.1666 -1.9945 -1.1141
 2198SOL     OW16927   0.620   2.253   3.132  1.0605  0.4608 -0.5430
 2198SOL    HW116928   0.702   2.308   3.143  1.4776 -0.1869 -0.3866
 2198SOL    HW216929   0.606   2.230   3.036  0.6569  1.1819 -0.6606
 2199SOL     OW16930   3.107   2.214   1.448 -0.0354 -0.2010  0.3429
 2199SOL    HW116931   3.192   2.255   1.413 -1.0319  0.8100 -0.9610
 2199SOL    HW216932   3.033   2.281   1.440 -1.2312 -1.5262  0.2255
 2200SOL     OW16933   7.403   1.670   3.322 -0.5113 -0.5957  0.3980
 2200SOL    HW116934   7.415   1.706   3.415 -0.0094  0.2136  0.0300
 2200SOL    HW216935   7.488   1.625   3.293 -0.6295 -0.7484  0.2926
 2201SOL     OW16936   2.636   4.335   1.170 -0.1629 -0.0549  0.4167
 2201SOL    HW116937   2.572   4.340   1.247 -0.1856  2.3071  0.2803
 2201SOL    HW216938   2.729   4.324   1.205 -0.4434 -1.8169  0.6667
 2202SOL     OW16939   4.552   8.736   2.524  0.0543  0.3702  0.0454
 2202SOL    HW116940   4.540   8.735   2.425  1.0999 -0.6579 -0.0899
 2202SOL    HW216941   4.519   8.822   2.561  1.1393  1.4342 -1.4053
 2203SOL     OW16942   1.300   9.243   1.766 -0.0186 -0.0063  0.4422
 2203SOL    HW116943   1.247   9.159   1.773 -1.2092  0.7683  0.9091
 2203SOL    HW216944   1.368   9.246   1.840  1.2428 -1.3693 -0.6358
 2204SOL     OW16945   2.946   9.493   3.984  0.9685 -0.1169  0.2541
 2204SOL    HW116946   2.949   9.574   4.042 -2.5287  0.7813 -0.6793
 2204SOL    HW216947   2.987   9.513   3.896  2.0516 -0.0388  0.7694
 2205SOL     OW16948   1.884   8.338   1.287 -0.0197 -0.3837  0.4692
 2205SOL    HW116949   1.974   8.304   1.262 -0.3384 -1.4906  0.8048
 2205SOL    HW216950   1.865   8.315   1.383 -0.5724  0.0279  0.4608
 2206SOL     OW16951   4.191   8.868   2.349 -0.2014 -0.3200 -0.2054
 2206SOL    HW116952   4.188   8.937   2.276 -2.1606 -1.4457 -1.2357
 2206SOL    HW216953   4.192   8.776   2.308 -2.7798 -1.0039  1.1385
 2207SOL     OW16954   1.148   3.456   3.630 -0.1298  0.1111  0.3413
 2207SOL    HW116955   1.192   3.524   3.689 -1.3939  0.3156  1.0441
 2207SOL    HW216956   1.049   3.465   3.636 -0.3200 -2.0643  0.7313
 2208SOL     OW16957   1.694   9.634   0.089 -0.2017 -0.5532 -0.4452
 2208SOL    HW116958   1.755   9.690   0.145 -1.0483  1.1129 -1.1598
 2208SOL    HW216959   1.678   9.680   0.002 -0.4955 -2.1792 -1.2612
 2209SOL     OW16960   9.824   7.977   2.150  0.1140 -0.0787 -0.4390
 2209SOL    HW116961   9.817   7.918   2.069 -0.1557  0.0603 -0.5181
 2209SOL    HW216962   9.873   8.061   2.126 -0.0538  0.0076 -0.4853
 2210SOL     OW16963   9.650   7.873   0.333  0.1221 -0.3661 -0.5464
 2210SOL    HW116964   9.716   7.844   0.264 -0.0292 -1.5658 -0.2027
 2210SOL    HW216965   9.596   7.794   0.363 -0.6933  0.3844  0.0065
 2211SOL     OW16966   1.082   8.729   1.034 -0.2405  0.6444 -0.5492
 2211SOL    HW116967   0.989   8.766   1.042 -0.2920  0.2344  0.9462
 2211SOL    HW216968   1.084   8.636   1.071  1.3864  1.7128  2.1847
 2212SOL     OW16969   2.131   6.005   0.216 -0.0505  0.1958 -0.3324
 2212SOL    HW116970   2.120   6.104   0.207 -1.0096  0.0140 -1.2975
 2212SOL    HW216971   2.228   5.981   0.207  0.3134  1.1481  1.0321
 2213SOL     OW16972   8.582   9.778   1.296 -0.3506  0.0855  0.2316
 2213SOL    HW116973   8.546   9.762   1.204  2.0032 -0.8755 -0.5538
 2213SOL    HW216974   8.512   9.756   1.363 -1.0842 -2.1490 -1.2253
 2214SOL     OW16975   9.241   0.284   2.332 -0.5893 -0.0139 -0.4194
 2214SOL    HW116976   9.287   0.349   2.271 -2.0508  1.2354 -0.2342
 2214SOL    HW216977   9.218   0.201   2.282  1.8878 -0.6890 -0.4998
 2215SOL     OW16978   0.058   0.577   2.419  0.1118 -0.0161 -0.6855
 2215SOL    HW116979  -0.034   0.539   2.414  0.0144 -0.0567  1.1941
 2215SOL    HW216980   0.055   0.674   2.394 -0.7585  0.4562  1.1940
 2216SOL     OW16981   6.665   9.436   3.222  0.1054 -0.8444 -0.3261
 2216SOL    HW116982   6.623   9.402   3.306  0.6741 -0.9109 -0.0635
 2216SOL    HW216983   6.751   9.482   3.244 -1.0316  1.4469 -0.6106
 2217SOL     OW16984   3.675   9.037   1.258  0.1187  0.0636  0.3252
 2217SOL    HW116985   3.638   9.117   1.305  0.1863 -0.3454  1.0806
 2217SOL    HW216986   3.753   9.000   1.309 -0.0051 -0.5777  0.0627
 2218SOL     OW16987   0.990   9.152   2.482 -0.1582  0.0050 -0.2295
 2218SOL    HW116988   1.007   9.110   2.393  1.7241 -0.0508  0.1448
 2218SOL    HW216989   0.939   9.088   2.540 -0.8479 -0.1908 -1.0398
 2219SOL     OW16990   9.413   8.425   2.418 -0.1349  0.4842 -0.1564
 2219SOL    HW116991   9.372   8.477   2.493 -0.0237  0.0816  0.1868
 2219SOL    HW216992   9.380   8.331   2.421  0.6627  0.2057  0.0048
 2220SOL     OW16993   9.098   9.285   2.387 -0.2421  0.0348  0.4925
 2220SOL    HW116994   9.022   9.341   2.355  1.2070  1.7920  0.0006
 2220SOL    HW216995   9.064   9.214   2.448 -2.2073  1.0964  0.6855
 2221SOL     OW16996   8.108   0.981   2.784 -0.3444  0.1381 -0.8057
 2221SOL    HW116997   8.167   0.937   2.715 -0.8439  0.4265 -1.4232
 2221SOL    HW216998   8.038   1.035   2.738  0.4913  1.8895 -0.0327
 2222SOL     OW16999   1.843   0.662   0.740 -0.8655  0.7094 -0.4204
 2222SOL    HW117000   1.825   0.727   0.813 -0.8867  1.7363 -1.3206
 2222SOL    HW217001   1.858   0.712   0.654 -0.9515 -0.4748 -1.1367
 2223SOL     OW17002   2.048   5.163   2.079 -0.1715  0.0506  0.2964
 2223SOL    HW117003   2.010   5.195   2.166 -1.1668  1.1272 -0.5208
 2223SOL    HW217004   2.085   5.071   2.091 -2.4524 -0.7804  1.2978
 2224SOL     OW17005   1.797   9.139   3.768 -0.2403 -0.0913  0.3541
 2224SOL    HW117006   1.864   9.209   3.792 -0.0848 -0.0999 -0.0449
 2224SOL    HW217007   1.740   9.119   3.847  0.6227 -0.5284  0.8677
 2225SOL     OW17008   2.294   3.985   0.201 -0.6658 -0.5810 -0.2207
 2225SOL    HW117009   2.371   4.036   0.238 -0.7962 -0.9751  0.5956
 2225SOL    HW217010   2.327   3.903   0.154 -0.4321  0.3718 -1.7880
 2226SOL     OW17011   2.711   8.986   3.151 -0.1571  0.0186  0.0891
 2226SOL    HW117012   2.796   8.979   3.203 -0.3474 -0.1180  0.3787
 2226SOL    HW217013   2.689   8.897   3.111 -0.2880 -0.0001  0.2045
 2227SOL     OW17014   3.307   1.247   2.454 -1.2012 -0.7486  0.1390
 2227SOL    HW117015   3.334   1.265   2.549  1.2469 -1.4195 -0.4037
 2227SOL    HW217016   3.319   1.329   2.399  0.9419 -1.3748 -0.3548
 2228SOL     OW17017   1.794   5.049   3.261  0.2807 -0.3018  0.1007
 2228SOL    HW117018   1.742   5.024   3.180  0.2929 -0.6470  0.1981
 2228SOL    HW217019   1.779   5.146   3.282  0.7572 -0.0580 -0.6641
 2229SOL     OW17020   7.333   0.339   2.508  0.1508 -0.1511  0.3213
 2229SOL    HW117021   7.245   0.293   2.503  0.5229 -1.2740  3.0666
 2229SOL    HW217022   7.382   0.307   2.589  3.2471  0.1931 -1.3686
 2230SOL     OW17023   8.944   3.671   3.806 -0.4111  0.8267  0.2203
 2230SOL    HW117024   8.895   3.598   3.853  1.5588 -0.2325  0.6656
 2230SOL    HW217025   8.977   3.738   3.873 -0.8551  1.2930 -0.0281
 2231SOL     OW17026   3.577   1.521   2.985 -0.0071 -0.4096 -0.0047
 2231SOL    HW117027   3.667   1.545   2.949  0.4429 -0.7666  0.8586
 2231SOL    HW217028   3.565   1.422   2.981 -0.9673 -0.2468 -1.5013
 2232SOL     OW17029   2.462   1.797   3.299 -0.1413  0.0086  0.4624
 2232SOL    HW117030   2.413   1.867   3.247 -1.4895 -2.1872 -1.2720
 2232SOL    HW217031   2.402   1.761   3.371  0.7032  0.9165  1.6434
 2233SOL     OW17032   0.553   9.648   3.677 -0.6598 -0.3384 -0.0263
 2233SOL    HW117033   0.591   9.560   3.647 -1.0494 -0.7052  0.5493
 2233SOL    HW217034   0.555   9.713   3.601 -0.2491 -0.8073 -0.4188
 2234SOL     OW17035   2.196   5.895   1.448  0.3051  0.3450 -0.3176
 2234SOL    HW117036   2.193   5.842   1.363  0.8643 -1.5862  0.8426
 2234SOL    HW217037   2.290   5.897   1.483  0.2208  1.7860 -0.1378
 2235SOL     OW17038   0.553   2.674   0.175 -0.2284  0.1783 -0.3361
 2235SOL    HW117039   0.536   2.614   0.253  0.0474 -0.3224 -0.6543
 2235SOL    HW217040   0.548   2.621   0.090 -0.1716  0.6451 -0.6357
 2236SOL     OW17041   3.655   8.900   3.749 -0.1577 -0.0879  0.3419
 2236SOL    HW117042   3.679   8.980   3.803 -3.5881  0.9088  0.5125
 2236SOL    HW217043   3.603   8.836   3.805  0.4267 -1.2679 -0.4526
 2237SOL     OW17044   1.717   2.296   3.355 -0.0245 -0.3274 -0.6156
 2237SOL    HW117045   1.627   2.258   3.333 -0.6103 -0.7782  2.3039
 2237SOL    HW217046   1.710   2.395   3.362 -0.1276 -0.2975 -1.1076
 2238SOL     OW17047   1.551   9.667   2.436 -0.0455 -0.8909 -0.4741
 2238SOL    HW117048   1.508   9.757   2.448  0.6717 -0.8613  2.3066
 2238SOL    HW217049   1.614   9.670   2.358 -3.2179 -0.2607 -3.0957
 2239SOL     OW17050   3.853   3.589   1.273 -0.2211  0.1194 -0.1916
 2239SOL    HW117051   3.801   3.589   1.188 -0.1084  3.1078 -0.2941
 2239SOL    HW217052   3.851   3.680   1.314  0.9298 -0.9124  2.2819
 2240SOL     OW17053   1.426   3.881   2.370  0.3081  0.0741  0.0393
 2240SOL    HW117054   1.470   3.918   2.452 -1.8149  0.1866  1.1430
 2240SOL    HW217055   1.496   3.837   2.313  1.6754 -0.9206  2.3888
 2241SOL     OW17056   3.231   1.407   3.697 -0.1438  0.4578  0.4712
 2241SOL    HW117057   3.202   1.324   3.650  0.4479  0.9253 -0.7377
 2241SOL    HW217058   3.320   1.391   3.740 -0.0586  0.4377  0.2899
 2242SOL     OW17059   0.595   9.280   3.158  0.7082 -0.6977  0.1126
 2242SOL    HW117060   0.680   9.334   3.161  0.5092 -0.3957  0.3003
 2242SOL    HW217061   0.541   9.309   3.079  1.7233 -2.3163 -1.2328
 2243SOL     OW17062   3.413   1.443   0.173  0.6482 -0.4503  0.1336
 2243SOL    HW117063   3.332   1.385   0.172 -0.3778  0.9413 -0.1823
 2243SOL    HW217064   3.437   1.467   0.267  0.4925 -0.5938  0.2085
 2244SOL     OW17065   4.108   4.568   2.550 -0.1809 -0.2710 -0.0207
 2244SOL    HW117066   4.128   4.575   2.452  0.1700  0.4038  0.0933
 2244SOL    HW217067   4.138   4.652   2.595  2.0009 -1.5804  1.0606
 2245SOL     OW17068   7.764   1.409   2.526 -0.0205  0.0752 -0.0748
 2245SOL    HW117069   7.717   1.490   2.489  0.0108 -0.2474 -0.8242
 2245SOL    HW217070   7.835   1.439   2.589 -0.0496  0.6365 -0.2986
 2246SOL     OW17071   8.064   9.966   4.019  0.6121 -0.0527  0.4086
 2246SOL    HW117072   8.073  10.063   3.997  1.0806 -0.5665 -1.7597
 2246SOL    HW217073   7.976   9.932   3.986  0.6232 -0.4715  0.8046
 2247SOL     OW17074   3.869   4.324   0.013 -0.1578  0.6224  0.1390
 2247SOL    HW117075   3.776   4.360   0.026 -0.5178  0.0020 -0.6547
 2247SOL    HW217076   3.875   4.234   0.056  0.0746  0.6579  0.1786
 2248SOL     OW17077   3.273   0.200   2.348 -0.1387  0.4048 -0.0877
 2248SOL    HW117078   3.224   0.267   2.291 -1.2104 -0.6136 -0.3771
 2248SOL    HW217079   3.238   0.108   2.329  1.2977 -0.2415  0.3354
 2249SOL     OW17080   4.385   9.633   2.031  0.0073 -0.2718 -0.0750
 2249SOL    HW117081   4.476   9.662   2.061 -0.3795  1.1379 -0.2145
 2249SOL    HW217082   4.317   9.700   2.062 -1.0495 -1.5453  0.4299
 2250SOL     OW17083   8.720   9.390   1.831 -0.0297 -0.3692 -0.1004
 2250SOL    HW117084   8.652   9.359   1.897  0.1062 -0.8266 -0.1688
 2250SOL    HW217085   8.797   9.432   1.880 -0.9502  1.3563 -0.0926
 2251SOL     OW17086   3.358   0.393   2.124 -0.6352  0.0551  0.7868
 2251SOL    HW117087   3.381   0.382   2.221 -3.0290  2.1422  1.6690
 2251SOL    HW217088   3.433   0.440   2.077  1.7613 -3.4722  0.9454
 2252SOL     OW17089   1.058   2.646   1.261 -0.0420  0.2745 -0.1678
 2252SOL    HW117090   1.150   2.669   1.229 -0.1727  0.0825 -0.6907
 2252SOL    HW217091   1.056   2.551   1.292 -0.2363  0.0682 -0.8137
 2253SOL     OW17092   9.415   2.100   0.158 -0.3093 -0.5542  0.5528
 2253SOL    HW117093   9.507   2.100   0.196  0.2683 -4.1185 -0.6370
 2253SOL    HW217094   9.415   2.149   0.070  0.1625  0.5095  1.1434
 2254SOL     OW17095   3.351   8.869   3.644  0.1477  0.0193 -0.3315
 2254SOL    HW117096   3.421   8.816   3.597 -0.4053 -1.4015  0.4325
 2254SOL    HW217097   3.380   8.887   3.738 -0.4357 -0.4279 -0.0626
 2255SOL     OW17098   8.746   0.834   2.001  0.2860 -0.0997 -0.1891
 2255SOL    HW117099   8.834   0.797   1.971  0.9244  1.3172 -0.1278
 2255SOL    HW217100   8.751   0.859   2.097 -0.0650  0.3441 -0.2826
 2256SOL     OW17101   2.092   6.643   3.947 -0.3349 -0.6481 -0.0536
 2256SOL    HW117102   2.073   6.599   3.859 -1.2176 -1.4292  0.5102
 2256SOL    HW217103   2.182   6.686   3.944  0.1552 -1.6877 -0.9452
 2257SOL     OW17104   3.069   4.511   0.755  0.0119 -0.1657 -0.1530
 2257SOL    HW117105   3.165   4.509   0.783  0.5416  1.0339 -1.8498
 2257SOL    HW217106   3.055   4.444   0.682 -0.2974  0.1208 -0.3529
 2258SOL     OW17107   1.732   9.087   3.002  0.5083 -0.2839 -1.3265
 2258SOL    HW117108   1.702   9.180   3.019  2.8573  0.2100  0.4753
 2258SOL    HW217109   1.688   9.025   3.067 -0.0846 -0.2562 -1.6974
 2259SOL     OW17110   8.743   0.289   2.058 -0.2001  0.0720 -0.4326
 2259SOL    HW117111   8.762   0.247   1.969  0.2471 -2.3422  0.7691
 2259SOL    HW217112   8.728   0.387   2.046  1.0476 -0.0137 -3.0099
 2260SOL     OW17113   1.112   3.924   2.945  0.1708 -0.5543  0.3821
 2260SOL    HW117114   1.131   3.989   2.871 -1.5283  0.1922  0.5948
 2260SOL    HW217115   1.107   3.831   2.907 -0.6308 -0.1818 -0.4281
 2261SOL     OW17116   2.451   5.322   3.795  0.3950 -0.5925 -0.3093
 2261SOL    HW117117   2.468   5.240   3.741  2.2171 -0.4651  0.0419
 2261SOL    HW217118   2.484   5.402   3.746  0.4130 -0.2880  0.1920
 2262SOL     OW17119   3.749   4.168   3.711 -0.0283  0.3199 -0.5167
 2262SOL    HW117120   3.683   4.232   3.750 -0.3049 -0.2195 -0.0884
 2262SOL    HW217121   3.724   4.148   3.616 -1.8684 -1.7143  0.3523
 2263SOL     OW17122   8.119   1.662   1.408  0.1863  0.1229  0.7311
 2263SOL    HW117123   8.105   1.709   1.496 -0.2787 -1.2130  1.3834
 2263SOL    HW217124   8.031   1.644   1.366  0.3362 -0.6190  0.7311
 2264SOL     OW17125   2.842   3.642   0.691 -0.1965  0.1210  0.2862
 2264SOL    HW117126   2.858   3.547   0.662 -1.5169 -0.0600  0.1246
 2264SOL    HW217127   2.927   3.694   0.681 -0.2047 -0.3190 -2.4885
 2265SOL     OW17128   2.737   7.091   3.410 -0.2827  0.1810  0.4766
 2265SOL    HW117129   2.807   7.076   3.480  1.6846  1.6894 -1.1041
 2265SOL    HW217130   2.763   7.042   3.326 -1.4704  0.2157  0.0808
 2266SOL     OW17131   8.233   9.302   3.852  0.1575  0.5258 -0.3775
 2266SOL    HW117132   8.247   9.262   3.761  0.7184 -0.5536  0.1644
 2266SOL    HW217133   8.145   9.348   3.856  0.3619  1.0268 -1.6299
 2267SOL     OW17134   4.768   9.457   2.716 -0.0592  0.3119 -0.0129
 2267SOL    HW117135   4.687   9.495   2.760  0.5025  2.0262 -0.4139
 2267SOL    HW217136   4.832   9.424   2.786 -1.1462 -1.2028  0.2943
 2268SOL     OW17137   8.347   9.885   3.923  0.5585  0.5118 -0.2671
 2268SOL    HW117138   8.268   9.862   3.979  0.2279  0.8838 -0.5684
 2268SOL    HW217139   8.383   9.974   3.951 -0.6693  1.5004 -1.7721
 2269SOL     OW17140   1.731   2.833   1.645  0.2023  0.5966  0.1734
 2269SOL    HW117141   1.787   2.761   1.604 -1.3682 -1.0176  0.7845
 2269SOL    HW217142   1.654   2.854   1.585  0.2389  1.2477  0.3468
 2270SOL     OW17143   0.606   8.037   3.497  0.0209  0.1579 -0.3481
 2270SOL    HW117144   0.559   8.116   3.538 -2.6925 -1.2602 -0.6384
 2270SOL    HW217145   0.579   8.029   3.401  2.5351  0.5413 -1.1199
 2271SOL     OW17146   5.864   8.793   2.275 -0.0264 -0.0847 -0.1295
 2271SOL    HW117147   5.906   8.703   2.260  0.6261  0.3475 -0.9736
 2271SOL    HW217148   5.776   8.781   2.320  0.6321 -1.0638  0.9296
 2272SOL     OW17149   3.770   9.450   1.633  0.2291  0.1355 -0.8242
 2272SOL    HW117150   3.852   9.399   1.657 -0.7088 -1.3687 -0.7554
 2272SOL    HW217151   3.699   9.387   1.601 -1.6896  1.1240  1.3034
 2273SOL     OW17152   8.413   9.124   0.705  0.1307 -0.2664  0.6718
 2273SOL    HW117153   8.373   9.193   0.645  1.3853 -0.5249 -0.4986
 2273SOL    HW217154   8.341   9.064   0.740 -0.9533  1.6127  1.6960
 2274SOL     OW17155   8.240   9.193   3.581 -0.6511  0.2347 -0.1273
 2274SOL    HW117156   8.206   9.099   3.574 -0.2882  0.0680  0.2746
 2274SOL    HW217157   8.338   9.191   3.602 -0.8801  0.6922  1.0174
 2275SOL     OW17158   9.179   3.173   1.724 -0.0042  0.3764  0.4777
 2275SOL    HW117159   9.164   3.080   1.689  0.3328  0.3577  0.3835
 2275SOL    HW217160   9.152   3.177   1.820  0.2708  0.1021  0.5652
 2276SOL     OW17161   3.575   1.714   0.756  0.3031 -0.3693 -0.6850
 2276SOL    HW117162   3.596   1.629   0.805  1.7780  0.9784  1.1094
 2276SOL    HW217163   3.478   1.735   0.767  0.0125 -1.6279 -0.8129
 2277SOL     OW17164   2.291   5.962   3.857  0.1789  0.5280 -0.0549
 2277SOL    HW117165   2.310   5.864   3.865  0.1002  0.4440 -0.8181
 2277SOL    HW217166   2.351   6.013   3.918 -0.3803 -0.0596  0.9906
 2278SOL     OW17167   3.663   2.149   1.468 -1.0019  0.3756 -0.3812
 2278SOL    HW117168   3.584   2.141   1.528 -1.0154  1.6910 -0.2075
 2278SOL    HW217169   3.723   2.222   1.501 -1.0413  1.1535 -1.9703
 2279SOL     OW17170   9.667   3.364   3.521  0.1184 -0.0211 -0.0251
 2279SOL    HW117171   9.616   3.415   3.452  0.5617 -0.5517 -0.7502
 2279SOL    HW217172   9.766   3.377   3.507  0.2778 -2.0033 -0.9570
 2280SOL     OW17173   4.051   3.672   0.689  0.2006 -0.3475 -0.1297
 2280SOL    HW117174   4.115   3.746   0.667 -1.1459  1.2551  1.2085
 2280SOL    HW217175   4.024   3.679   0.785 -0.2817 -2.3403 -0.1099
 2281SOL     OW17176   7.516   2.039   0.162 -0.4438 -0.2519  0.3681
 2281SOL    HW117177   7.481   1.946   0.162  0.3560 -0.5500 -0.1565
 2281SOL    HW217178   7.508   2.078   0.069  0.0508 -0.1046  0.3888
 2282SOL     OW17179   1.391   7.165   3.006 -0.4364  0.3046  0.3504
 2282SOL    HW117180   1.481   7.180   3.046  0.1043  1.5946 -1.3206
 2282SOL    HW217181   1.359   7.248   2.961 -2.3839 -0.1882  0.7474
 2283SOL     OW17182   2.997   9.283   1.397 -0.3487 -0.3425 -0.3964
 2283SOL    HW117183   2.996   9.303   1.495  1.4256 -1.3494 -0.1482
 2283SOL    HW217184   2.938   9.205   1.378  0.7703 -1.3445  0.1686
 2284SOL     OW17185   9.759   3.588   3.159 -0.1121 -0.0779  0.8395
 2284SOL    HW117186   9.674   3.585   3.211 -0.8161  0.4161 -0.2720
 2284SOL    HW217187   9.743   3.557   3.065  1.2193 -1.2751  0.9861
 2285SOL     OW17188   3.695   3.600   1.043  0.3991  0.2959  0.5380
 2285SOL    HW117189   3.687   3.528   0.974  0.2483  1.4132 -0.6384
 2285SOL    HW217190   3.604   3.628   1.073  0.4306  0.5191  0.4286
 2286SOL     OW17191   9.486   9.357   3.765 -0.0971  0.1239 -0.6572
 2286SOL    HW117192   9.578   9.390   3.788 -0.5747  2.5213 -2.0328
 2286SOL    HW217193   9.420   9.397   3.828 -0.1614 -2.1353  0.7586
 2287SOL     OW17194   2.283   0.736   0.052  0.4782  0.5342 -0.7371
 2287SOL    HW117195   2.375   0.704   0.029  0.6909  0.5123  0.1252
 2287SOL    HW217196   2.232   0.755  -0.032  1.3838  0.8720 -1.2185
 2288SOL     OW17197   7.802   2.046   3.019 -0.2070 -0.1208 -0.1747
 2288SOL    HW117198   7.779   1.954   2.985 -1.8569  0.2555 -0.1531
 2288SOL    HW217199   7.724   2.107   3.003  0.0792  0.7658  1.6797
 2289SOL     OW17200   8.772   0.799   2.696 -0.3242 -0.6268 -0.1073
 2289SOL    HW117201   8.795   0.896   2.698 -2.8965  0.0233 -0.0238
 2289SOL    HW217202   8.690   0.783   2.751  0.1116 -2.8563 -0.0606
 2290SOL     OW17203   1.295   1.847   0.331  0.1971  0.1331  0.3675
 2290SOL    HW117204   1.322   1.940   0.355 -0.2330  0.3286  0.0919
 2290SOL    HW217205   1.215   1.850   0.271  0.8876 -0.3725 -0.5800
 2291SOL     OW17206   4.161   4.497   2.271 -0.2788 -0.5388 -0.2887
 2291SOL    HW117207   4.233   4.434   2.301  1.0469  0.8236 -0.4981
 2291SOL    HW217208   4.075   4.448   2.262  0.6785 -2.2731 -0.2588
 2292SOL     OW17209   0.530   0.140   1.863 -0.0791 -0.5489 -0.7152
 2292SOL    HW117210   0.548   0.193   1.780 -0.7785  0.1760 -0.4041
 2292SOL    HW217211   0.514   0.044   1.838 -0.4174 -0.3120 -1.4299
 2293SOL     OW17212   2.817   2.047   3.866  0.2527 -0.1578  0.5281
 2293SOL    HW117213   2.736   2.001   3.902  0.5622  0.1455  1.6224
 2293SOL    HW217214   2.893   1.982   3.862 -0.0822 -0.4908 -0.6729
 2294SOL     OW17215   2.909   4.768   2.025 -0.1285 -0.5764 -0.3230
 2294SOL    HW117216   2.913   4.669   2.006  0.9557 -0.3757 -1.2147
 2294SOL    HW217217   3.002   4.801   2.045 -0.3083  0.5062 -1.2681
 2295SOL     OW17218   9.116   8.414   0.701 -0.4828  0.4167  0.3579
 2295SOL    HW117219   9.155   8.382   0.788 -2.2986 -0.8401  0.7168
 2295SOL    HW217220   9.078   8.505   0.714  1.0866  1.1042  0.3363
 2296SOL     OW17221   2.552   0.523   0.684  0.1792 -0.6114  0.3653
 2296SOL    HW117222   2.645   0.526   0.720  0.1595 -0.6158  0.4153
 2296SOL    HW217223   2.496   0.593   0.729 -0.3166 -1.8037  1.6329
 2297SOL     OW17224   3.698   7.476   2.223 -0.3914 -0.5670  0.4389
 2297SOL    HW117225   3.754   7.403   2.263 -1.4282 -0.6072  1.8565
 2297SOL    HW217226   3.622   7.436   2.173  0.5607 -0.5006 -1.0962
 2298SOL     OW17227   1.850   7.009   0.064  0.2118  0.7427 -0.1205
 2298SOL    HW117228   1.778   7.070   0.033  0.8301  0.2145 -2.7567
 2298SOL    HW217229   1.867   6.940  -0.006  1.3765 -0.8127  1.6529
 2299SOL     OW17230   9.181   9.016   1.228  0.2724 -0.2362  0.4230
 2299SOL    HW117231   9.195   9.082   1.302 -0.0352 -1.7412  1.8330
 2299SOL    HW217232   9.163   8.926   1.266  1.2301 -1.2722 -1.4976
 2300SOL     OW17233   0.167   2.432   1.481 -0.1866 -0.3124 -0.2046
 2300SOL    HW117234   0.186   2.461   1.574  2.0624  1.0392 -1.0513
 2300SOL    HW217235   0.115   2.503   1.433 -1.0508 -0.8612 -0.0912
 2301SOL     OW17236   9.737   2.954   2.694 -0.3530 -0.5103 -0.3450
 2301SOL    HW117237   9.737   3.044   2.651  2.0791 -0.6769 -0.7947
 2301SOL    HW217238   9.758   2.885   2.625  0.9551 -1.0602  0.5650
 2302SOL     OW17239   3.163   5.508   2.638 -0.0728 -0.2921 -0.0427
 2302SOL    HW117240   3.189   5.453   2.717  1.7746 -0.9590 -1.0851
 2302SOL    HW217241   3.114   5.450   2.572 -1.5423  0.2427  0.5651
 2303SOL     OW17242   4.058   8.191   3.019 -0.2762 -0.1936  0.1225
 2303SOL    HW117243   3.959   8.195   3.032 -0.4029 -1.9016 -0.1910
 2303SOL    HW217244   4.079   8.200   2.922 -0.2292 -1.1920  0.0309
 2304SOL     OW17245   8.759   2.411   0.055  0.1984  0.1934 -0.2637
 2304SOL    HW117246   8.743   2.362   0.141  1.2138 -0.0484 -0.2016
 2304SOL    HW217247   8.783   2.506   0.074 -2.2757  0.8577 -0.4075
 2305SOL     OW17248   3.860   4.145   2.010  0.0542  0.2099 -0.1369
 2305SOL    HW117249   3.947   4.145   1.961  0.3498 -1.9198  0.3405
 2305SOL    HW217250   3.865   4.081   2.087 -0.7420  2.7056  2.0896
 2306SOL     OW17251   4.315   0.682   4.038  0.0021 -0.2954 -0.2901
 2306SOL    HW117252   4.414   0.668   4.040  0.0259 -0.4207 -1.6971
 2306SOL    HW217253   4.269   0.593   4.037 -0.1681 -0.2409  1.4836
 2307SOL     OW17254   9.312   1.840   0.123  0.8029 -0.2507 -0.1766
 2307SOL    HW117255   9.350   1.767   0.180 -0.5151  1.4541  3.0118
 2307SOL    HW217256   9.336   1.929   0.162 -2.9565  0.9359 -0.3478
 2308SOL     OW17257   2.768   3.367   0.904 -0.1657  0.3380  0.9032
 2308SOL    HW117258   2.720   3.414   0.978 -1.4387 -0.4959  0.6197
 2308SOL    HW217259   2.867   3.372   0.920 -0.3031  2.6426  1.1451
 2309SOL     OW17260   2.814   7.696   0.039  0.4827 -0.1259 -0.6898
 2309SOL    HW117261   2.746   7.686  -0.034  1.7306 -1.8299 -1.6654
 2309SOL    HW217262   2.887   7.629   0.025  0.4957 -0.8115  2.4147
 2310SOL     OW17263   2.150   3.400   1.926 -0.4964  0.5690 -0.1152
 2310SOL    HW117264   2.246   3.375   1.938 -0.1726  2.8548  2.4158
 2310SOL    HW217265   2.094   3.317   1.929  1.3699 -0.8440 -1.9925
 2311SOL     OW17266   8.269   4.768   1.042 -0.3362  0.1597 -0.3320
 2311SOL    HW117267   8.322   4.703   1.096 -2.5285 -0.5205  1.0735
 2311SOL    HW217268   8.291   4.862   1.070 -0.5186 -0.1510  0.8444
 2312SOL     OW17269   9.620   7.333   0.170  0.0440  0.1507  0.5130
 2312SOL    HW117270   9.610   7.396   0.247  1.3042  0.6001  0.3308
 2312SOL    HW217271   9.626   7.386   0.085 -0.7200 -0.3145  0.1702
 2313SOL     OW17272   0.176   0.303   1.934 -0.4447  0.6572 -0.5144
 2313SOL    HW117273   0.205   0.237   1.864  0.8898 -1.1477  1.6782
 2313SOL    HW217274   0.207   0.272   2.024  1.1093  4.7897  0.4816
 2314SOL     OW17275   8.115   4.682   0.816 -0.0912 -0.3218  0.4218
 2314SOL    HW117276   8.088   4.587   0.832 -2.5884  0.3137  0.2057
 2314SOL    HW217277   8.179   4.711   0.887 -0.8031 -1.5824  1.5980
 2315SOL     OW17278   2.017   8.744   1.698  0.0561 -0.5411  0.6035
 2315SOL    HW117279   1.965   8.706   1.622  1.2527  1.5233 -1.2710
 2315SOL    HW217280   2.103   8.693   1.709  1.4960  1.2936 -1.6897
 2316SOL     OW17281   8.926   1.145   0.135 -0.7525  0.3645  0.2204
 2316SOL    HW117282   8.979   1.202   0.072 -2.1723  0.9750 -0.4350
 2316SOL    HW217283   8.859   1.201   0.183 -2.2264 -0.7533 -0.4954
 2317SOL     OW17284   8.701   1.461   1.782 -0.2580  0.2428 -0.0794
 2317SOL    HW117285   8.678   1.441   1.687 -0.2239 -1.2715  0.2211
 2317SOL    HW217286   8.798   1.485   1.788 -0.6497  2.0977 -0.6650
 2318SOL     OW17287   8.646   2.014   4.029 -0.5945  0.2329 -0.7589
 2318SOL    HW117288   8.673   2.056   3.943  1.9016  0.0009 -0.1359
 2318SOL    HW217289   8.553   2.041   4.052  0.2197  3.8755 -1.3531
 2319SOL     OW17290   3.557   8.007   0.764 -0.0607 -0.0606 -0.1265
 2319SOL    HW117291   3.516   7.984   0.853  0.1936 -0.9395 -0.2384
 2319SOL    HW217292   3.611   7.930   0.731  0.6283  0.6224 -0.5962
 2320SOL     OW17293   2.042   0.237   2.629  0.0317 -0.1983  0.3756
 2320SOL    HW117294   2.079   0.326   2.655 -0.9335  0.3668 -0.1158
 2320SOL    HW217295   1.942   0.241   2.632 -0.0858 -0.5073 -1.9979
 2321SOL     OW17296   9.368   7.164   0.181  0.5490 -0.5731  0.0188
 2321SOL    HW117297   9.447   7.222   0.164  1.0506 -1.2877 -0.1024
 2321SOL    HW217298   9.316   7.152   0.096  0.1878  0.0701  0.1459
 2322SOL     OW17299   8.351   1.827   2.640  0.0695  0.0075 -0.1542
 2322SOL    HW117300   8.284   1.754   2.659 -0.1653  0.1964 -0.2531
 2322SOL    HW217301   8.442   1.797   2.669  0.0859 -0.5953 -0.8098
 2323SOL     OW17302   1.747   7.977   1.670  0.0030  0.4920 -0.2951
 2323SOL    HW117303   1.687   8.057   1.678 -0.1323  0.4171 -0.5855
 2323SOL    HW217304   1.756   7.951   1.574 -1.1300 -0.7411 -0.0742
 2324SOL     OW17305   4.622   1.201   2.700  0.7413  0.0635  0.6810
 2324SOL    HW117306   4.585   1.211   2.793 -1.8668  2.4606 -0.5449
 2324SOL    HW217307   4.585   1.117   2.659  2.1165 -1.1521  1.8601
 2325SOL     OW17308   2.043   4.025   0.122  0.1210  0.4012  0.0216
 2325SOL    HW117309   2.030   4.103   0.061 -0.6537 -0.5313 -1.0218
 2325SOL    HW217310   2.141   4.013   0.141  0.6205 -0.7706 -3.0109
 2326SOL     OW17311   0.082   8.946   2.373  0.0010 -1.3707 -0.3281
 2326SOL    HW117312   0.007   9.002   2.338 -0.9948 -1.1077  2.1531
 2326SOL    HW217313   0.045   8.873   2.431  1.6593 -0.9411  1.3219
 2327SOL     OW17314   9.944   9.843   2.023  0.9429 -0.6900 -0.1743
 2327SOL    HW117315   9.920   9.747   2.033 -0.1697 -0.4630 -0.6084
 2327SOL    HW217316   9.970   9.862   1.928  2.0781 -0.7572  0.1132
 2328SOL     OW17317   7.189   8.907   0.453  0.0053  0.1719 -0.2411
 2328SOL    HW117318   7.150   8.958   0.530 -0.6050  1.0616 -1.1335
 2328SOL    HW217319   7.226   8.821   0.487 -0.8779  0.2373  0.9548
 2329SOL     OW17320   1.524   8.204   1.989  0.0440 -0.3714 -0.1110
 2329SOL    HW117321   1.617   8.239   2.002 -1.0945  2.1295  1.6824
 2329SOL    HW217322   1.503   8.139   2.062  0.4921 -1.2164 -0.7257
 2330SOL     OW17323   0.395   3.722   3.007 -0.5288 -0.0389 -0.0188
 2330SOL    HW117324   0.348   3.771   3.080  0.1865 -0.0141  0.4245
 2330SOL    HW217325   0.465   3.780   2.967 -0.8113 -0.1103 -0.6209
 2331SOL     OW17326   1.373   0.626   2.951  0.2113 -0.0180 -0.2673
 2331SOL    HW117327   1.373   0.560   3.026  2.9812  1.3733  1.0539
 2331SOL    HW217328   1.353   0.717   2.988 -1.2932  0.2522 -1.7053
 2332SOL     OW17329   4.556   1.738   2.497  0.3741 -0.0017 -0.2223
 2332SOL    HW117330   4.623   1.812   2.486 -0.0246  0.1670 -1.7239
 2332SOL    HW217331   4.591   1.655   2.452  0.6658 -0.6357  1.1517
 2333SOL     OW17332   9.953   9.551   1.335 -0.3669  0.4849  0.1545
 2333SOL    HW117333   9.917   9.474   1.284 -0.3579  0.7084 -0.1901
 2333SOL    HW217334  10.022   9.519   1.400 -0.3878  0.2006  0.0366
 2334SOL     OW17335   4.279   8.109   2.352 -0.0265  0.3951  0.0154
 2334SOL    HW117336   4.345   8.177   2.386  2.1952 -2.0461  0.7178
 2334SOL    HW217337   4.304   8.083   2.259 -0.5233  0.0663 -0.0258
 2335SOL     OW17338   3.895   0.963   2.088  0.1510  0.3871 -0.4823
 2335SOL    HW117339   3.834   0.905   2.143 -1.3515  2.1280 -0.2694
 2335SOL    HW217340   3.840   1.016   2.023  1.5293  1.4901 -0.7550
 2336SOL     OW17341   3.987   3.534   3.462  0.0319  0.3745  0.5078
 2336SOL    HW117342   3.907   3.553   3.405 -1.2257  0.4532  2.2329
 2336SOL    HW217343   3.966   3.559   3.557  1.6975 -0.7415  1.1864
 2337SOL     OW17344   3.302   6.643   2.682 -0.3012  0.4481 -0.2546
 2337SOL    HW117345   3.242   6.562   2.680  1.7397 -1.1219  0.2445
 2337SOL    HW217346   3.362   6.638   2.762  1.3508  1.3530 -1.4132
 2338SOL     OW17347   7.155   9.009   0.725  0.3312 -0.3017  0.3134
 2338SOL    HW117348   7.252   9.030   0.741 -0.1886  1.6141  1.1060
 2338SOL    HW217349   7.107   9.000   0.812 -0.2299 -1.1673 -0.0779
 2339SOL     OW17350   8.750   2.202   0.286 -0.4936 -0.3672  0.6009
 2339SOL    HW117351   8.741   2.103   0.294 -0.3978 -0.5035 -0.7952
 2339SOL    HW217352   8.709   2.246   0.366  0.6809 -1.5752  1.9042
 2340SOL     OW17353   1.050   1.615   2.662  0.5984  0.1138 -0.4683
 2340SOL    HW117354   1.149   1.629   2.669  0.7384 -2.0346  2.3534
 2340SOL    HW217355   1.004   1.661   2.738 -0.8012  2.5217 -2.6661
 2341SOL     OW17356   9.748   2.993   2.967  0.8232  0.0239  0.1183
 2341SOL    HW117357   9.705   2.935   2.898 -0.2375  1.6711 -0.6152
 2341SOL    HW217358   9.831   3.033   2.930  2.8702 -2.8526  1.4085
 2342SOL     OW17359   3.670   2.297   3.126  0.2957  0.2142  0.2735
 2342SOL    HW117360   3.710   2.376   3.172  1.3954 -0.6923  0.9368
 2342SOL    HW217361   3.692   2.214   3.178 -1.7845 -0.4029  0.1862
 2343SOL     OW17362   2.376   7.937   2.750 -0.4414  0.1460  0.0828
 2343SOL    HW117363   2.361   7.949   2.651  1.0693  0.9323 -0.0719
 2343SOL    HW217364   2.438   8.008   2.783  0.4670 -1.1616  1.2464
 2344SOL     OW17365   8.100   2.573   3.197 -0.0090 -0.5516  0.3608
 2344SOL    HW117366   8.018   2.539   3.243 -0.2420 -0.0218  0.3389
 2344SOL    HW217367   8.155   2.496   3.165 -0.9998 -0.8922 -0.5291
 2345SOL     OW17368   4.173   9.016   1.867  0.3334 -0.2262 -0.2058
 2345SOL    HW117369   4.228   8.933   1.870  1.9427  0.8434  0.5701
 2345SOL    HW217370   4.221   9.087   1.816 -0.6478  0.4899 -0.1556
 2346SOL     OW17371   3.066   0.304   2.189  0.1620  0.7737 -0.1987
 2346SOL    HW117372   2.996   0.285   2.258  1.1527  0.7839  0.8218
 2346SOL    HW217373   3.022   0.333   2.104 -1.0589  1.1984  0.5692
 2347SOL     OW17374   0.654   9.028   1.740  0.4007  0.2332 -0.0962
 2347SOL    HW117375   0.711   8.969   1.798  0.4907  1.2374  0.8636
 2347SOL    HW217376   0.613   9.099   1.796 -1.4843 -0.2243 -0.8632
 2348SOL     OW17377   9.336   0.790   0.055 -0.3433 -0.0992 -0.0266
 2348SOL    HW117378   9.331   0.737  -0.030 -0.4209 -0.0836 -0.0315
 2348SOL    HW217379   9.399   0.867   0.042 -1.0642  0.4441 -0.3656
 2349SOL     OW17380   0.440   7.010   1.954 -0.9601  0.4468 -0.8106
 2349SOL    HW117381   0.518   6.983   2.009 -1.2665  2.2218  0.5163
 2349SOL    HW217382   0.455   6.982   1.859  1.5745  1.3992 -0.7106
 2350SOL     OW17383   0.998   7.345   1.453 -0.1436 -0.1420 -0.2164
 2350SOL    HW117384   1.073   7.282   1.430 -0.3765 -1.3114  2.0630
 2350SOL    HW217385   0.914   7.313   1.410  0.0706 -0.4320 -0.4293
 2351SOL     OW17386   3.904   4.372   2.259 -0.1660  0.9594 -0.1485
 2351SOL    HW117387   3.883   4.320   2.176 -1.2962 -1.1679  1.4162
 2351SOL    HW217388   3.840   4.448   2.268  0.7416  1.9587 -1.8301
 2352SOL     OW17389   0.703   1.553   0.677 -0.2597  0.3796  0.2355
 2352SOL    HW117390   0.605   1.550   0.657 -0.1112  2.7177 -0.9723
 2352SOL    HW217391   0.733   1.463   0.708 -2.6213 -0.5823 -0.1574
 2353SOL     OW17392   0.884   0.244   0.778  0.0364 -0.1612 -0.1774
 2353SOL    HW117393   0.911   0.267   0.872 -2.8206  1.7663  0.2239
 2353SOL    HW217394   0.815   0.173   0.780 -0.7516  0.5767 -0.7410
 2354SOL     OW17395   8.416   3.299   0.076  0.5858 -0.2956  0.2001
 2354SOL    HW117396   8.500   3.331   0.031 -0.0022  0.1329 -0.6148
 2354SOL    HW217397   8.338   3.348   0.037  0.0070 -0.3435  1.2958
 2355SOL     OW17398   1.377   5.583   3.327 -0.0771 -0.1287 -0.1742
 2355SOL    HW117399   1.307   5.645   3.363 -0.3104  0.8928 -2.2803
 2355SOL    HW217400   1.375   5.587   3.227  3.3741  0.3255 -0.2670
 2356SOL     OW17401   3.474   5.136   2.565  0.6764 -1.1414  0.1461
 2356SOL    HW117402   3.545   5.173   2.625 -0.2781 -0.8852  1.1513
 2356SOL    HW217403   3.477   5.037   2.566  1.3090 -1.1242 -0.1647
 2357SOL     OW17404   0.507   2.476   2.357 -0.4713  0.0272  0.1584
 2357SOL    HW117405   0.534   2.385   2.388 -2.8101 -1.1557 -1.1173
 2357SOL    HW217406   0.486   2.533   2.436 -0.8948 -1.1780  0.9330
 2358SOL     OW17407   3.131   1.250   0.927 -0.2669  0.0835  0.1979
 2358SOL    HW117408   3.111   1.153   0.913 -1.1972  0.1132  1.2619
 2358SOL    HW217409   3.049   1.296   0.960  0.4380  1.0486  0.6267
 2359SOL     OW17410   7.191   0.463   2.800  0.3273  0.0209  0.1185
 2359SOL    HW117411   7.123   0.479   2.871  0.5706 -0.3475  0.4385
 2359SOL    HW217412   7.223   0.368   2.806 -1.2381 -0.6661 -1.8585
 2360SOL     OW17413   0.781   1.972   2.931  0.6654  0.2213  0.0537
 2360SOL    HW117414   0.825   1.976   3.021 -0.8905  1.8174  0.7734
 2360SOL    HW217415   0.748   2.063   2.906 -0.4428 -0.5558 -1.3662
 2361SOL     OW17416   0.697   1.604   1.445 -0.2154 -0.3259 -0.3545
 2361SOL    HW117417   0.723   1.690   1.488  3.2899 -2.3712  1.8804
 2361SOL    HW217418   0.625   1.560   1.499  0.3827 -0.3500  0.4371
 2362SOL     OW17419   8.097   0.307   2.309  0.4356 -0.1085 -0.1030
 2362SOL    HW117420   8.092   0.302   2.409 -1.1710  0.6016 -0.1320
 2362SOL    HW217421   8.009   0.336   2.273  1.3950  0.9845 -1.6418
 2363SOL     OW17422   2.634   2.807   4.034 -0.1279 -0.4475 -0.3460
 2363SOL    HW117423   2.572   2.886   4.029 -0.5251 -0.8578 -1.9956
 2363SOL    HW217424   2.717   2.827   3.982 -0.8243 -1.6321 -1.9553
 2364SOL     OW17425   3.676   2.224   3.665  0.3621  0.5527  0.6076
 2364SOL    HW117426   3.579   2.224   3.639  0.4908 -0.3823  0.0698
 2364SOL    HW217427   3.702   2.314   3.700 -0.9134  0.5576  1.5736
 2365SOL     OW17428   8.100   2.391   3.957  0.1633 -0.0285 -0.6598
 2365SOL    HW117429   8.159   2.457   3.910  0.0314  0.0115 -0.7729
 2365SOL    HW217430   8.090   2.417   4.053 -0.2437  0.3678 -0.8044
 2366SOL     OW17431   1.840   4.195   3.184 -0.2212 -0.0984 -0.3186
 2366SOL    HW117432   1.746   4.182   3.215  0.8936  1.7363  4.2869
 2366SOL    HW217433   1.850   4.288   3.147  0.1232  0.2884  0.7274
 2367SOL     OW17434   3.774   2.956   3.556 -0.0917 -0.3180  0.1051
 2367SOL    HW117435   3.824   2.949   3.469  1.3505  0.8682  0.8190
 2367SOL    HW217436   3.751   3.052   3.573  0.1038 -0.4747  1.2791
 2368SOL     OW17437   1.328   4.349   1.998  0.2503 -0.2668 -0.1016
 2368SOL    HW117438   1.422   4.369   2.024  1.0769 -2.4918 -1.2034
 2368SOL    HW217439   1.327   4.300   1.910 -1.9632  0.1500 -0.3520
 2369SOL     OW17440   1.140   6.252   0.123  0.0384  0.5855  0.3163
 2369SOL    HW117441   1.228   6.209   0.105  0.1732  1.3555 -0.9436
 2369SOL    HW217442   1.079   6.237   0.045 -0.7917  0.4555  0.9819
 2370SOL     OW17443   8.244   0.676   1.463 -0.3176 -0.3618  0.0855
 2370SOL    HW117444   8.332   0.680   1.415  1.3565  0.2177  3.0888
 2370SOL    HW217445   8.196   0.592   1.437  1.0546 -0.6400 -1.6697
 2371SOL     OW17446   9.553   8.282   0.459  0.6806  0.3043 -0.1883
 2371SOL    HW117447   9.606   8.315   0.538  0.3833 -1.6438  0.8608
 2371SOL    HW217448   9.458   8.312   0.468  0.6838  0.2303  0.1138
 2372SOL     OW17449   0.309   0.750   3.035 -0.0171  0.0304 -0.8084
 2372SOL    HW117450   0.329   0.662   3.079  7.3686  2.3856  1.0986
 2372SOL    HW217451   0.239   0.798   3.088  0.2490 -2.1193  1.6009
 2373SOL     OW17452   4.471   2.625   1.241 -0.0572  0.4918 -0.3635
 2373SOL    HW117453   4.546   2.600   1.302  0.3162 -0.8036 -1.3453
 2373SOL    HW217454   4.418   2.699   1.283  0.7127  0.2226  1.1271
 2374SOL     OW17455   8.455   9.660   2.672  0.0097  0.6461  0.6887
 2374SOL    HW117456   8.412   9.623   2.589 -0.0917  1.0781  0.5459
 2374SOL    HW217457   8.459   9.760   2.665 -0.6139  0.7331  1.4934
 2375SOL     OW17458   3.134   9.220   2.765  0.1405 -0.2668  0.1985
 2375SOL    HW117459   3.147   9.181   2.674  0.3498 -0.2530  0.2241
 2375SOL    HW217460   3.105   9.148   2.828 -1.4596 -0.0158 -0.2026
 2376SOL     OW17461   2.196   2.841   0.050  0.2157 -0.2754 -0.1891
 2376SOL    HW117462   2.236   2.926   0.018  0.1780  0.2154  1.0332
 2376SOL    HW217463   2.136   2.804  -0.021 -0.3499  1.1031 -0.4569
 2377SOL     OW17464   2.682   6.844   2.438 -0.2256 -0.0934 -0.1077
 2377SOL    HW117465   2.609   6.817   2.375 -0.7611  3.0784 -0.9626
 2377SOL    HW217466   2.761   6.876   2.386  0.0418  0.7490  0.7956
 2378SOL     OW17467   3.731   7.145   0.892  0.2367 -0.0185 -0.1580
 2378SOL    HW117468   3.650   7.086   0.895  0.4578 -0.3499 -0.6421
 2378SOL    HW217469   3.811   7.090   0.867  0.6227  0.2969  0.3873
 2379SOL     OW17470   0.848   1.549   2.521  0.1282  0.2729  0.2638
 2379SOL    HW117471   0.785   1.625   2.533  2.1856  2.4953 -2.1991
 2379SOL    HW217472   0.934   1.570   2.570 -0.2157 -1.7022  1.7591
 2380SOL     OW17473   7.898   0.115   0.705 -0.2238  0.4904  0.1376
 2380SOL    HW117474   7.901   0.199   0.650 -0.9132 -0.0943 -0.8155
 2380SOL    HW217475   7.818   0.061   0.679  0.4614 -0.6818  0.4075
 2381SOL     OW17476   1.518   8.624   1.362 -0.5583  0.5669 -0.3133
 2381SOL    HW117477   1.449   8.648   1.294 -0.2433 -0.3894 -0.9898
 2381SOL    HW217478   1.479   8.631   1.453 -1.1911  1.1999 -0.6288
 2382SOL     OW17479   1.385   8.390   3.025 -0.1406  0.0903 -0.2657
 2382SOL    HW117480   1.356   8.485   3.028 -0.3847  0.0108 -0.0930
 2382SOL    HW217481   1.424   8.364   3.114 -0.2972 -0.0417 -0.2357
 2383SOL     OW17482   1.506   9.439   0.773  0.1950  0.3066 -0.2726
 2383SOL    HW117483   1.602   9.455   0.748 -0.2523  0.4600 -1.9361
 2383SOL    HW217484   1.488   9.482   0.862  1.3159  1.4580 -0.5766
 2384SOL     OW17485   0.875   3.104   1.231  0.2357 -0.0969 -0.3928
 2384SOL    HW117486   0.835   3.190   1.199  0.3009  0.0108 -0.1863
 2384SOL    HW217487   0.805   3.049   1.277 -0.2135 -0.9020 -2.0060
 2385SOL     OW17488   9.905   8.795   3.873 -0.2855 -0.7643 -0.8825
 2385SOL    HW117489   9.992   8.747   3.876 -1.1296 -2.3512 -1.3410
 2385SOL    HW217490   9.863   8.794   3.964  0.6019  0.8545 -0.4279
 2386SOL     OW17491   1.897   8.197   3.831 -0.9853  0.1422  0.3530
 2386SOL    HW117492   1.910   8.141   3.913 -1.4480 -1.1098 -0.4025
 2386SOL    HW217493   1.902   8.138   3.750  1.5830  1.6875 -0.6429
 2387SOL     OW17494   6.893   9.577   3.233 -0.0623  0.3741  0.0440
 2387SOL    HW117495   6.967   9.632   3.196  1.2452 -0.9937  0.5614
 2387SOL    HW217496   6.931   9.494   3.275 -1.9418 -0.7963 -0.4926
 2388SOL     OW17497   1.329   3.654   1.004  0.2076  0.1166  0.8949
 2388SOL    HW117498   1.371   3.744   1.014  1.3595 -0.3325  0.2049
 2388SOL    HW217499   1.347   3.618   0.913 -0.2399 -0.8051  1.1607
 2389SOL     OW17500   2.291   3.460   3.130 -0.3332 -0.1842  0.1511
 2389SOL    HW117501   2.294   3.386   3.063  0.4401  0.0342 -0.0549
 2389SOL    HW217502   2.384   3.486   3.156 -0.6174 -0.5100  1.5803
 2390SOL     OW17503   3.356   5.611   3.233  0.5619 -0.0888 -0.1568
 2390SOL    HW117504   3.346   5.623   3.332 -2.1462  1.0617 -0.5395
 2390SOL    HW217505   3.443   5.649   3.204 -0.2900  3.0756  1.2462
 2391SOL     OW17506   5.217   0.031   2.487  0.0283  0.6314 -0.1212
 2391SOL    HW117507   5.153   0.038   2.410  1.3087  0.3504 -1.2252
 2391SOL    HW217508   5.165   0.021   2.572 -1.3777 -1.5319 -1.1985
 2392SOL     OW17509   3.129   1.568   3.324 -0.4384  0.4999 -0.0065
 2392SOL    HW117510   3.034   1.588   3.350  0.2047  1.1567  1.9066
 2392SOL    HW217511   3.191   1.611   3.389  1.2440  1.7879 -2.3900
 2393SOL     OW17512   2.017   4.960   1.424  0.1144 -0.1457  0.2589
 2393SOL    HW117513   2.113   4.965   1.396  0.2249 -0.2323  0.6156
 2393SOL    HW217514   2.009   4.903   1.506 -0.2874 -0.4321  0.0285
 2394SOL     OW17515   1.235   2.262   2.018 -0.0934 -0.2812  0.0057
 2394SOL    HW117516   1.273   2.353   2.003 -0.7677  0.2214  1.2918
 2394SOL    HW217517   1.227   2.244   2.116 -0.9308 -1.3120 -0.2378
 2395SOL     OW17518   3.484   9.796   2.905 -0.0453  0.2664 -0.0835
 2395SOL    HW117519   3.549   9.865   2.872 -0.7341  1.3867  0.8628
 2395SOL    HW217520   3.497   9.782   3.003 -0.8321  0.0653 -0.0029
 2396SOL     OW17521   0.314   8.649   3.662  0.2095  0.7072 -0.1196
 2396SOL    HW117522   0.279   8.603   3.581  2.6429 -1.4904 -0.0045
 2396SOL    HW217523   0.246   8.644   3.736 -1.4448  1.5043 -1.5616
 2397SOL     OW17524   0.968   7.917   3.986 -0.2099  0.7137 -0.0647
 2397SOL    HW117525   0.922   7.842   3.939 -1.1274  0.3755  1.3427
 2397SOL    HW217526   0.939   8.004   3.946 -1.1844  0.4482  0.0596
 2398SOL     OW17527   1.699   4.267   3.746  0.2336 -0.5009  0.5756
 2398SOL    HW117528   1.628   4.306   3.806 -0.4924 -2.4562  1.0110
 2398SOL    HW217529   1.657   4.206   3.680  1.2767  0.0786 -0.6349
 2399SOL     OW17530   3.127   2.399   2.522  0.3341 -0.0456  0.4588
 2399SOL    HW117531   3.212   2.452   2.524  0.5202 -0.2894 -0.7337
 2399SOL    HW217532   3.102   2.380   2.427 -2.4195  2.2223  0.6546
 2400SOL     OW17533   8.294   1.103   1.685  0.2625 -0.3163 -0.0325
 2400SOL    HW117534   8.235   1.039   1.636 -1.3697  0.4476  0.8881
 2400SOL    HW217535   8.307   1.186   1.630 -1.5778  0.5462  0.7660
 2401SOL     OW17536   1.514   5.103   3.656 -0.7558 -0.2913 -0.7334
 2401SOL    HW117537   1.437   5.115   3.593 -0.6181 -0.7007 -0.9762
 2401SOL    HW217538   1.501   5.020   3.710 -1.4776  0.6809  0.6352
 2402SOL     OW17539   3.878   8.574   1.954 -0.1214  0.1516  0.0697
 2402SOL    HW117540   3.885   8.475   1.972 -0.1537  0.0502 -0.4743
 2402SOL    HW217541   3.937   8.623   2.018  0.4869 -0.2756 -0.1549
 2403SOL     OW17542   8.354   0.604   3.280 -0.1319 -0.5994  0.4664
 2403SOL    HW117543   8.373   0.639   3.189 -2.3255  0.9544  0.5545
 2403SOL    HW217544   8.339   0.505   3.275 -0.1994 -0.5349 -0.8626
 2404SOL     OW17545   1.682   7.013   1.050  0.0275 -0.0841 -0.0943
 2404SOL    HW117546   1.698   7.103   1.089  2.1944 -0.6759  0.4920
 2404SOL    HW217547   1.585   7.001   1.031 -0.1166  2.8818 -1.4952
 2405SOL     OW17548   8.082   9.450   3.230 -0.3179  0.1596  0.0375
 2405SOL    HW117549   8.142   9.381   3.191 -0.4578 -0.1016  0.2813
 2405SOL    HW217550   8.046   9.417   3.317 -3.3678 -1.0436 -1.6047
 2406SOL     OW17551   9.105   1.064   1.772  0.0700  0.3059  0.6239
 2406SOL    HW117552   9.020   1.011   1.767  0.6261 -0.5243 -0.1813
 2406SOL    HW217553   9.159   1.049   1.689  0.9787  0.8737  1.1001
 2407SOL     OW17554   4.245   2.840   2.343 -0.5710  0.3295  0.1149
 2407SOL    HW117555   4.299   2.863   2.424  0.5620 -0.6874 -0.3473
 2407SOL    HW217556   4.148   2.834   2.369 -0.1117 -0.9439  1.6024
 2408SOL     OW17557   7.036   9.102   1.269 -0.1336 -0.1004  0.3726
 2408SOL    HW117558   7.112   9.136   1.215  1.2768  0.1196  2.4171
 2408SOL    HW217559   6.979   9.179   1.300 -1.4380 -0.2969 -1.4834
 2409SOL     OW17560   3.404   5.284   3.221  0.2861 -0.0664  0.7122
 2409SOL    HW117561   3.407   5.374   3.178 -0.3362 -0.6004 -0.4732
 2409SOL    HW217562   3.332   5.283   3.291 -1.6107 -0.4540 -1.1830
 2410SOL     OW17563   1.051   9.121   1.690 -0.3000 -0.3755 -0.6458
 2410SOL    HW117564   0.978   9.154   1.631 -0.0763  0.0550 -0.6842
 2410SOL    HW217565   1.072   9.026   1.668 -1.0570 -0.5952 -0.4219
 2411SOL     OW17566   3.406   7.774   0.060 -0.0455  0.0168 -0.0408
 2411SOL    HW117567   3.413   7.863   0.106 -1.8846 -0.2011  0.7199
 2411SOL    HW217568   3.388   7.789  -0.037 -0.0990  0.4738  0.0366
 2412SOL     OW17569   4.244   8.380   1.364 -0.4118 -0.0751 -0.1761
 2412SOL    HW117570   4.326   8.324   1.354  0.0609  0.8440 -1.6640
 2412SOL    HW217571   4.196   8.385   1.277 -1.9653 -0.4524  0.6421
 2413SOL     OW17572   1.725   5.673   0.787 -0.2593 -0.0475 -0.0698
 2413SOL    HW117573   1.762   5.766   0.790 -2.6313  0.8979  1.2809
 2413SOL    HW217574   1.679   5.658   0.700 -1.7267  0.7950  0.5535
 2414SOL     OW17575   2.168   7.419   0.081 -0.4189  0.3236  0.1643
 2414SOL    HW117576   2.148   7.327   0.049  0.3090 -0.1412  1.0479
 2414SOL    HW217577   2.179   7.480   0.002 -1.9150 -0.1126 -0.4109
 2415SOL     OW17578   7.540   4.556   1.053  0.3106  0.6360 -0.5363
 2415SOL    HW117579   7.618   4.587   0.998  1.9822  1.2015  2.0465
 2415SOL    HW217580   7.545   4.457   1.064  0.0697  0.5440 -1.2748
 2416SOL     OW17581   0.504   4.059   3.182  0.4883 -0.1347  0.2683
 2416SOL    HW117582   0.547   4.023   3.099 -0.6063 -0.7262 -0.0506
 2416SOL    HW217583   0.426   4.001   3.207  0.2845  0.5426  1.2165
 2417SOL     OW17584   1.278   2.241   2.808 -0.0491  0.5574  0.0191
 2417SOL    HW117585   1.293   2.196   2.719 -0.4786  0.8537 -0.2030
 2417SOL    HW217586   1.245   2.334   2.793 -0.7858  0.3721  0.4981
 2418SOL     OW17587   5.050   0.038   2.251  0.3892  0.3434  0.2429
 2418SOL    HW117588   5.017  -0.046   2.295 -0.6739  0.6761  0.0987
 2418SOL    HW217589   4.978   0.107   2.253  1.1883  1.1890  0.1763
 2419SOL     OW17590   0.875   9.125   3.518  0.3877 -0.3101 -0.4512
 2419SOL    HW117591   0.951   9.067   3.547  0.5024 -0.2055 -0.5466
 2419SOL    HW217592   0.832   9.085   3.437  1.2460  0.4001 -1.2621
 2420SOL     OW17593   1.703   5.832   3.077  0.1955  0.5826 -0.9929
 2420SOL    HW117594   1.785   5.865   3.123  0.1980  0.6334 -1.0341
 2420SOL    HW217595   1.623   5.846   3.136  0.0337  1.6900 -1.4636
 2421SOL     OW17596   3.922   9.223   2.531  0.0241  0.0831 -0.5774
 2421SOL    HW117597   3.923   9.203   2.629  0.0611  0.9212 -0.4040
 2421SOL    HW217598   4.014   9.246   2.500  0.0370 -0.3147 -0.8404
 2422SOL     OW17599   4.456   3.964   1.443  0.0666 -0.4185  0.3406
 2422SOL    HW117600   4.361   3.987   1.463  0.1427 -0.6347  0.9452
 2422SOL    HW217601   4.459   3.879   1.391 -0.1376  0.2230 -0.7447
 2423SOL     OW17602   9.826   9.581   2.009  0.2310 -0.1557 -0.4436
 2423SOL    HW117603   9.760   9.529   2.063  0.3271  0.2229  0.0395
 2423SOL    HW217604   9.805   9.569   1.911  0.9276 -1.9895 -0.3853
 2424SOL     OW17605   0.081   9.068   3.541  0.5340  0.5444 -0.2291
 2424SOL    HW117606   0.105   9.017   3.623  1.7865  1.0279 -0.2813
 2424SOL    HW217607   0.047   9.159   3.566  0.3075  0.4610 -0.2285
 2425SOL     OW17608   0.817   8.534   0.897 -0.0529 -0.1135 -0.0559
 2425SOL    HW117609   0.875   8.499   0.970  1.4914 -0.9373 -1.6248
 2425SOL    HW217610   0.875   8.578   0.828 -1.4406  0.2521 -1.0016
 2426SOL     OW17611   2.512   3.040   1.129 -0.7816  0.3320  0.0861
 2426SOL    HW117612   2.525   2.973   1.203 -2.1684  1.0409  0.9856
 2426SOL    HW217613   2.599   3.086   1.111  0.0569 -1.3031 -0.1506
 2427SOL     OW17614   2.147   9.531   2.413  0.2135  0.2640  0.0003
 2427SOL    HW117615   2.120   9.625   2.433 -1.9550 -0.1764 -0.7236
 2427SOL    HW217616   2.247   9.525   2.411  0.3928  2.7698 -0.9434
 2428SOL     OW17617   2.895   9.764   0.067 -0.2714 -0.6413  0.3662
 2428SOL    HW117618   2.799   9.791   0.076 -0.5850 -1.2534 -1.0094
 2428SOL    HW217619   2.929   9.734   0.156 -1.6742 -1.4330  0.6673
 2429SOL     OW17620   8.957   8.931   3.518  0.1005  0.1620  0.2395
 2429SOL    HW117621   9.045   8.884   3.522  0.5531  0.9304 -0.5463
 2429SOL    HW217622   8.886   8.866   3.490  0.4684 -0.3879  0.5750
 2430SOL     OW17623   4.610   7.889   2.737  0.0501  0.3633 -0.6342
 2430SOL    HW117624   4.656   7.966   2.693  0.2505  1.3886  1.2952
 2430SOL    HW217625   4.517   7.916   2.763  0.1731  0.0174  0.1886
 2431SOL     OW17626   7.308   1.575   0.502 -0.1728 -0.0543  0.3415
 2431SOL    HW117627   7.286   1.558   0.598 -2.0878  0.4195  0.0074
 2431SOL    HW217628   7.309   1.488   0.452  0.2997 -0.2457  0.6771
 2432SOL     OW17629   8.596   3.563   3.857 -0.0737 -0.0244 -0.1679
 2432SOL    HW117630   8.637   3.533   3.772 -1.8790 -2.1670 -0.3367
 2432SOL    HW217631   8.499   3.583   3.842 -0.8341 -2.0545  1.6513
 2433SOL     OW17632   2.029   9.491   0.102 -0.2535 -0.2683 -0.2075
 2433SOL    HW117633   1.933   9.492   0.132 -0.3099 -0.9059 -0.3465
 2433SOL    HW217634   2.058   9.584   0.080 -1.0966 -0.1633 -0.9572
 2434SOL     OW17635   3.077   7.962   3.514 -0.1849 -0.4746  0.0100
 2434SOL    HW117636   3.090   8.018   3.596 -0.5332 -0.6876  0.2134
 2434SOL    HW217637   2.989   7.913   3.521 -0.1207 -0.6468 -0.3972
 2435SOL     OW17638   2.924   4.143   3.324  0.5577  0.6657  0.1943
 2435SOL    HW117639   2.863   4.079   3.277  2.1310 -1.3346  0.7994
 2435SOL    HW217640   2.971   4.096   3.399  1.0691  2.7752  1.2347
 2436SOL     OW17641   2.278   9.372   3.494  0.4497 -0.3101  0.4412
 2436SOL    HW117642   2.223   9.332   3.421  1.4881  0.3367 -0.7234
 2436SOL    HW217643   2.366   9.401   3.456  0.7186  0.6834  1.8118
 2437SOL     OW17644   1.168   8.781   3.985 -0.2451  0.4637 -0.1011
 2437SOL    HW117645   1.249   8.742   4.029 -0.4928 -0.6614 -0.6218
 2437SOL    HW217646   1.096   8.795   4.053 -0.0240  0.3540  0.1553
 2438SOL     OW17647   8.147   2.273   1.065  0.5076 -0.2335  0.2681
 2438SOL    HW117648   8.079   2.346   1.058  1.0034  0.2316  0.2727
 2438SOL    HW217649   8.200   2.268   0.980  1.8348  0.7607  1.0217
 2439SOL     OW17650   0.744   7.417   2.139  0.0905  0.3351  0.7206
 2439SOL    HW117651   0.783   7.427   2.047  2.9701  0.3272  1.9183
 2439SOL    HW217652   0.695   7.500   2.164  1.0950  1.1431  0.0138
 2440SOL     OW17653   9.814   0.377   1.875  0.0017 -0.2812 -0.4310
 2440SOL    HW117654   9.910   0.402   1.863 -0.1117  0.4051  0.0695
 2440SOL    HW217655   9.802   0.334   1.965 -0.7020  2.4103  0.7996
 2441SOL     OW17656   1.268   9.159   2.159  0.0653  0.2010 -0.2825
 2441SOL    HW117657   1.348   9.162   2.098  0.1760 -1.1201 -0.2103
 2441SOL    HW217658   1.216   9.076   2.141 -1.1487  0.9140 -0.1202
 2442SOL     OW17659   0.868   2.687   3.324  0.6716  0.5323 -0.0515
 2442SOL    HW117660   0.776   2.681   3.285  0.5949 -0.2857  0.2696
 2442SOL    HW217661   0.924   2.745   3.265 -0.3612  1.9923  0.3526
 2443SOL     OW17662   1.767   1.954   2.973 -0.2722  0.5035 -0.1514
 2443SOL    HW117663   1.851   1.966   2.920 -0.6513 -1.6100 -1.2939
 2443SOL    HW217664   1.789   1.954   3.070  0.8303  1.4900 -0.3846
 2444SOL     OW17665   0.636   1.541   3.668 -0.7481 -0.3101 -0.0136
 2444SOL    HW117666   0.682   1.612   3.720 -1.9274 -0.2298  0.9541
 2444SOL    HW217667   0.697   1.463   3.656  0.7159  1.0363 -1.4949
 2445SOL     OW17668   2.316   7.985   1.858  0.0641 -0.3384 -0.4019
 2445SOL    HW117669   2.323   8.081   1.885  0.4300 -0.1379 -1.2161
 2445SOL    HW217670   2.397   7.935   1.887 -0.3016 -0.4898  0.3717
 2446SOL     OW17671   3.258   3.085   3.861  0.8101 -0.0248 -0.0571
 2446SOL    HW117672   3.349   3.045   3.873  0.1215 -2.2036 -1.8701
 2446SOL    HW217673   3.200   3.023   3.809 -1.1552  2.1664 -0.5952
 2447SOL     OW17674   0.813   9.402   2.242  0.8578 -0.2190 -0.0879
 2447SOL    HW117675   0.764   9.325   2.201 -0.5965  0.4395  0.3796
 2447SOL    HW217676   0.903   9.411   2.199  1.8492 -3.3822  1.2060
 2448SOL     OW17677   3.942   4.905   1.808 -0.1189 -0.4941  0.2080
 2448SOL    HW117678   3.996   4.881   1.888 -2.4835 -0.2322  1.9557
 2448SOL    HW217679   3.928   4.823   1.752 -0.8158 -1.3368  1.5754
 2449SOL     OW17680   0.173   1.361   0.147  0.0341 -0.1037 -0.3352
 2449SOL    HW117681   0.134   1.282   0.101 -0.7964 -0.1383  0.4008
 2449SOL    HW217682   0.099   1.419   0.181  0.6358  0.3910  0.1425
 2450SOL     OW17683   0.873   8.767   2.549  0.3495 -0.2189 -0.0763
 2450SOL    HW117684   0.965   8.806   2.559  1.3154 -1.9793 -1.7218
 2450SOL    HW217685   0.859   8.740   2.454 -0.8864 -2.3252  0.6672
 2451SOL     OW17686   4.036   7.001   3.973  0.3703 -0.1702  0.7540
 2451SOL    HW117687   4.124   7.016   3.929 -0.0414 -0.1530 -0.0627
 2451SOL    HW217688   3.965   6.992   3.904 -0.0597 -1.5733  1.3520
 2452SOL     OW17689   2.124   1.506   2.432  0.1988  0.7909 -0.0464
 2452SOL    HW117690   2.169   1.586   2.471  0.3179  1.1858 -0.9719
 2452SOL    HW217691   2.030   1.501   2.466  0.4950  0.7739  0.7704
 2453SOL     OW17692   9.517   2.388   2.179 -0.0533 -0.3578  0.8248
 2453SOL    HW117693   9.464   2.472   2.180 -0.1864 -0.4224 -0.4437
 2453SOL    HW217694   9.598   2.399   2.238 -0.5582  0.3229  1.3997
 2454SOL     OW17695   8.579   4.010   0.250 -0.2040  0.0549 -0.5197
 2454SOL    HW117696   8.660   4.054   0.290 -0.9496  1.0947 -0.1249
 2454SOL    HW217697   8.592   4.000   0.152  0.8249 -0.7105 -0.3090
 2455SOL     OW17698   4.646   9.008   1.264  0.2902  0.1566  0.0482
 2455SOL    HW117699   4.649   8.929   1.325  1.5816  0.3055  0.1912
 2455SOL    HW217700   4.568   9.066   1.288 -0.7698 -1.1488 -0.1715
 2456SOL     OW17701   1.878   8.978   0.058 -0.0895 -0.7066  0.4065
 2456SOL    HW117702   1.934   8.897   0.075 -0.1204 -0.4725  1.6801
 2456SOL    HW217703   1.936   9.058   0.047 -0.0088 -1.0056 -1.6986
 2457SOL     OW17704   3.389   1.403   2.017  0.9473 -0.0586  0.0942
 2457SOL    HW117705   3.362   1.488   2.062 -0.3676 -1.2822  1.6805
 2457SOL    HW217706   3.442   1.424   1.934 -0.7812  2.3179 -0.4538
 2458SOL     OW17707   2.057   7.715   3.207 -0.2816 -0.7393 -0.4874
 2458SOL    HW117708   1.975   7.676   3.165 -0.6056  1.2567 -1.7986
 2458SOL    HW217709   2.094   7.786   3.147  1.6126 -0.6574  0.7438
 2459SOL     OW17710   5.299   1.345   2.155  0.0082 -0.1775  0.4112
 2459SOL    HW117711   5.293   1.255   2.199 -1.5898 -0.6310 -0.6664
 2459SOL    HW217712   5.212   1.393   2.166  0.5075  0.8149  0.0737
 2460SOL     OW17713   1.549   7.886   3.584  0.4562 -1.2262 -0.1999
 2460SOL    HW117714   1.523   7.945   3.660 -0.4924 -0.3120 -1.2182
 2460SOL    HW217715   1.648   7.874   3.584  0.4754 -1.1241  1.1007
 2461SOL     OW17716   9.336   0.517   2.155 -0.1928 -0.1793  0.2376
 2461SOL    HW117717   9.246   0.485   2.124 -0.8290  1.6468  0.1227
 2461SOL    HW217718   9.329   0.613   2.184  1.3177 -0.5751  1.9934
 2462SOL     OW17719   9.434   3.363   2.750  0.0787 -0.2147 -0.1869
 2462SOL    HW117720   9.408   3.283   2.805  0.2728  1.8236  3.0689
 2462SOL    HW217721   9.533   3.373   2.750 -0.0625  1.8130  2.2713
 2463SOL     OW17722   8.090   9.330   1.713 -0.5027  0.6523  0.2031
 2463SOL    HW117723   8.119   9.367   1.625 -1.4658  0.8027 -0.0491
 2463SOL    HW217724   8.153   9.363   1.784  0.6478  0.0167 -0.5011
 2464SOL     OW17725   7.929   1.453   3.866 -0.0863  0.0062 -0.0356
 2464SOL    HW117726   8.009   1.394   3.858  0.3011  0.6833 -1.2666
 2464SOL    HW217727   7.937   1.509   3.948  1.5723  1.3112 -1.0460
 2465SOL     OW17728   7.166   1.085   2.927  0.1169  0.3456 -0.0708
 2465SOL    HW117729   7.073   1.055   2.910  1.2516 -2.4517 -1.6728
 2465SOL    HW217730   7.230   1.021   2.884  2.8538  0.5840  3.4577
 2466SOL     OW17731   1.439   8.697   3.757 -0.1169 -0.2220  0.5350
 2466SOL    HW117732   1.443   8.779   3.813  0.2280 -0.4783  0.8905
 2466SOL    HW217733   1.499   8.709   3.677 -0.5646  0.1185  0.2523
 2467SOL     OW17734   8.451   0.049   1.261  0.3605 -0.3505  0.2302
 2467SOL    HW117735   8.461  -0.051   1.260 -0.3693 -0.4334 -1.3819
 2467SOL    HW217736   8.498   0.087   1.340 -0.3115 -2.0717  1.4829
 2468SOL     OW17737   1.197   7.747   1.674 -0.0438  0.2643 -0.0007
 2468SOL    HW117738   1.252   7.813   1.623 -0.0547  1.1193  1.0697
 2468SOL    HW217739   1.226   7.654   1.651  0.0818  0.6364 -1.4036
 2469SOL     OW17740   8.272   6.143   0.208 -0.1885  0.8360  0.0437
 2469SOL    HW117741   8.201   6.075   0.189 -0.7754  1.6336 -0.6290
 2469SOL    HW217742   8.330   6.154   0.128  1.0679 -0.2259  0.7733
 2470SOL     OW17743   7.985   0.321   1.915  0.2918  0.3520 -0.3839
 2470SOL    HW117744   8.013   0.363   1.829 -1.4830  2.1087 -0.1694
 2470SOL    HW217745   8.065   0.287   1.964  1.5785  1.5112 -1.6284
 2471SOL     OW17746   9.000   2.405   2.745 -0.2438  0.3789  0.3195
 2471SOL    HW117747   9.055   2.337   2.793  1.6365  1.7922  0.2358
 2471SOL    HW217748   8.966   2.367   2.659  2.4959  0.1752 -0.7052
 2472SOL     OW17749   1.838   4.717   0.661 -0.3693 -0.2301 -0.4450
 2472SOL    HW117750   1.803   4.751   0.573  2.4782  2.1121 -0.7367
 2472SOL    HW217751   1.816   4.783   0.733  1.0494 -0.0426 -0.1734
 2473SOL     OW17752   7.589   1.674   0.170 -0.1036 -0.5931  0.8305
 2473SOL    HW117753   7.674   1.621   0.177  0.8467  0.5558 -1.3744
 2473SOL    HW217754   7.530   1.633   0.102 -0.0895  0.2006  0.3292
 2474SOL     OW17755   8.119   8.112   0.337 -0.0555  0.1238 -0.2710
 2474SOL    HW117756   8.148   8.031   0.286 -1.7434 -0.4224 -0.3846
 2474SOL    HW217757   8.042   8.155   0.291  0.5303  1.5410  0.0454
 2475SOL     OW17758   8.249   8.975   1.765 -0.3482 -0.1992  0.4149
 2475SOL    HW117759   8.151   8.962   1.781 -0.2459 -1.1640  0.2634
 2475SOL    HW217760   8.263   9.014   1.674 -0.6416  0.8877  0.8210
 2476SOL     OW17761   0.598   3.377   0.397 -0.3486 -0.2340 -0.3905
 2476SOL    HW117762   0.508   3.415   0.374  0.1146 -0.1965 -2.2726
 2476SOL    HW217763   0.589   3.279   0.415 -1.0822  0.1686  1.5057
 2477SOL     OW17764   2.851   0.798   4.014  0.7399 -0.3302 -0.9637
 2477SOL    HW117765   2.919   0.728   4.032  0.1289 -0.1724  2.2174
 2477SOL    HW217766   2.896   0.878   3.973  2.3274 -0.5733  0.2446
 2478SOL     OW17767   1.371   1.484   2.990  0.1914 -0.5293  0.5051
 2478SOL    HW117768   1.416   1.395   2.986  0.0619 -0.6246  1.1426
 2478SOL    HW217769   1.330   1.496   3.080 -1.5059 -0.6769 -0.2287
 2479SOL     OW17770   3.462   7.612   1.398 -0.3032 -0.0573  0.4954
 2479SOL    HW117771   3.513   7.566   1.471  2.5709  2.2830  0.0505
 2479SOL    HW217772   3.381   7.655   1.436 -0.0710 -0.8376  1.9017
 2480SOL     OW17773   2.567   8.683   2.248 -1.0506 -0.7070  0.5290
 2480SOL    HW117774   2.526   8.768   2.282 -1.7338 -0.5100 -0.7657
 2480SOL    HW217775   2.662   8.678   2.278 -1.0435  0.4689  0.7199
 2481SOL     OW17776   3.592   8.631   3.865 -0.6942 -0.5124 -0.0114
 2481SOL    HW117777   3.551   8.580   3.789 -1.4702 -0.2924  0.2546
 2481SOL    HW217778   3.524   8.642   3.938  0.0563 -0.7528  0.7301
 2482SOL     OW17779   8.900   9.280   3.943 -0.5540  0.4543 -0.2055
 2482SOL    HW117780   8.969   9.273   3.870  0.2963  0.1993  0.6241
 2482SOL    HW217781   8.921   9.358   4.001 -0.3186 -0.3045  0.7316
 2483SOL     OW17782   0.388   8.297   3.230 -0.2550 -0.1632  0.0922
 2483SOL    HW117783   0.396   8.258   3.139  0.8084 -0.3145  0.2405
 2483SOL    HW217784   0.465   8.360   3.247 -1.0910  0.7895  0.4364
 2484SOL     OW17785   9.091   8.631   3.239  0.4061 -0.3170  0.2456
 2484SOL    HW117786   9.175   8.576   3.238  0.5866 -0.0321 -1.0457
 2484SOL    HW217787   9.014   8.574   3.268  1.0677 -0.5377  1.6288
 2485SOL     OW17788   1.290   4.464   3.944  0.0210  0.7281  0.5724
 2485SOL    HW117789   1.325   4.504   3.859 -0.8046 -0.1772 -0.2037
 2485SOL    HW217790   1.190   4.470   3.946  0.1193  2.3543  2.3040
 2486SOL     OW17791   1.130   3.542   1.135  0.1421 -0.1510  0.4543
 2486SOL    HW117792   1.161   3.472   1.200 -0.1692 -1.9632 -1.2813
 2486SOL    HW217793   1.208   3.574   1.082  0.1302  0.1765  0.6316
 2487SOL     OW17794   3.435   3.632   1.146  0.7712 -0.9319  0.8871
 2487SOL    HW117795   3.369   3.638   1.071 -0.5660 -2.1192  1.9317
 2487SOL    HW217796   3.413   3.701   1.215  1.6443 -0.2280  0.4679
 2488SOL     OW17797   2.481   8.727   1.839  0.1685 -0.4491 -0.1303
 2488SOL    HW117798   2.536   8.775   1.907  0.5694  1.7087 -1.8857
 2488SOL    HW217799   2.541   8.687   1.770 -0.3037 -1.0087 -0.2171
 2489SOL     OW17800   7.772   0.366   2.490  0.2967 -0.2554  0.0468
 2489SOL    HW117801   7.714   0.330   2.416 -1.9556 -0.7980  2.0049
 2489SOL    HW217802   7.761   0.309   2.571 -0.9187  2.9701  2.2746
 2490SOL     OW17803   4.760   0.522   3.882  0.6910  0.0628 -0.0021
 2490SOL    HW117804   4.795   0.433   3.912 -1.2770 -1.1589 -1.1919
 2490SOL    HW217805   4.823   0.561   3.815  1.7917 -0.2162  0.8514
 2491SOL     OW17806   0.156   0.962   2.595 -0.1424 -0.4421  0.3405
 2491SOL    HW117807   0.204   1.046   2.571 -0.3240 -0.0729  1.2336
 2491SOL    HW217808   0.103   0.930   2.516 -0.2323  0.3952  0.0562
 2492SOL     OW17809   1.751   5.315   3.242 -0.0927  0.0960 -0.2316
 2492SOL    HW117810   1.725   5.325   3.146 -0.7069 -0.4591 -0.1219
 2492SOL    HW217811   1.675   5.343   3.300  0.0234 -0.2563  0.0937
 2493SOL     OW17812   7.413   0.451   3.109 -0.2107  0.6834  0.0397
 2493SOL    HW117813   7.399   0.355   3.084 -0.0060  0.8794 -0.8483
 2493SOL    HW217814   7.503   0.481   3.077  1.3263  0.1111  3.6039
 2494SOL     OW17815   2.384   7.582   3.114 -0.0534  0.1999 -0.7559
 2494SOL    HW117816   2.360   7.510   3.179 -1.4212  0.6552 -0.7354
 2494SOL    HW217817   2.470   7.624   3.142 -1.0689  0.9928  1.2964
 2495SOL     OW17818   2.937   2.892   0.472 -0.0374  0.2750 -0.8106
 2495SOL    HW117819   2.841   2.895   0.445 -0.0325 -1.9981 -1.1538
 2495SOL    HW217820   2.944   2.855   0.565  0.5015  0.6656 -0.6917
 2496SOL     OW17821   8.123   1.898   1.610  0.2480 -0.5483 -0.7635
 2496SOL    HW117822   8.040   1.878   1.662  0.4751  1.2842  0.3392
 2496SOL    HW217823   8.100   1.959   1.534  0.4978 -0.4757 -0.7799
 2497SOL     OW17824   3.666   8.165   0.260 -0.2032  0.0240  0.3390
 2497SOL    HW117825   3.640   8.242   0.319  1.1689  0.0011  0.9939
 2497SOL    HW217826   3.632   8.182   0.168 -1.5704  0.5039  0.9256
 2498SOL     OW17827   2.951   7.788   1.130  0.1643  0.3029 -0.1038
 2498SOL    HW117828   2.860   7.812   1.098 -0.2837  0.9004  1.5489
 2498SOL    HW217829   2.954   7.691   1.156  0.2637  0.0580 -1.0246
 2499SOL     OW17830   1.555   5.339   1.024  0.3110  0.9116  0.9045
 2499SOL    HW117831   1.529   5.431   0.997  1.5735  0.7951 -0.7508
 2499SOL    HW217832   1.606   5.343   1.111  0.7633  1.8183  0.6056
 2500SOL     OW17833   3.385   4.449   2.863 -0.4338 -0.1159 -0.2856
 2500SOL    HW117834   3.485   4.450   2.858 -0.4639  0.0186 -0.8485
 2500SOL    HW217835   3.348   4.530   2.818 -0.6946  1.4189  2.5627
 2501SOL     OW17836   0.987   0.946   3.732  0.1776 -0.2732  0.2461
 2501SOL    HW117837   0.890   0.967   3.743  0.1656  0.9329 -1.8563
 2501SOL    HW217838   1.042   1.003   3.793 -0.2726  1.1128 -0.6300
 2502SOL     OW17839   2.842   4.610   2.403 -0.2472 -0.3818 -0.0142
 2502SOL    HW117840   2.882   4.520   2.419 -0.0152  0.1380  2.5407
 2502SOL    HW217841   2.913   4.673   2.373 -0.3411 -0.9376 -1.4460
 2503SOL     OW17842   4.089   2.957   2.984 -0.3600 -0.2898 -0.2909
 2503SOL    HW117843   4.042   2.938   3.070  1.0174 -0.0045  0.5394
 2503SOL    HW217844   4.142   2.876   2.956  1.3643  0.5182  0.5576
 2504SOL     OW17845   3.358   5.989   1.826 -0.3103 -0.4662  0.2535
 2504SOL    HW117846   3.415   6.059   1.783  1.0453 -0.8613  1.3701
 2504SOL    HW217847   3.322   5.928   1.755 -0.3949  0.5589 -0.5901
 2505SOL     OW17848   8.529   2.015   0.454  0.0081 -0.2176 -0.2824
 2505SOL    HW117849   8.591   1.996   0.530 -2.3094  0.8651  1.9841
 2505SOL    HW217850   8.563   1.972   0.371  2.1244 -2.2471  1.5707
 2506SOL     OW17851   0.894   8.131   2.722 -0.2445 -0.2799 -0.2581
 2506SOL    HW117852   0.989   8.158   2.739 -0.4676 -0.3971  1.2027
 2506SOL    HW217853   0.880   8.036   2.752 -0.4779 -0.7174 -1.7260
 2507SOL     OW17854   9.875   3.133   1.196 -0.1681  0.3333 -0.0642
 2507SOL    HW117855   9.834   3.042   1.187 -0.4673  0.2321  2.1365
 2507SOL    HW217856   9.807   3.198   1.230  0.8505  0.6766  1.3772
 2508SOL     OW17857   2.427   7.318   2.531  0.1778 -0.4434 -0.2073
 2508SOL    HW117858   2.367   7.313   2.451  0.0323 -1.5802 -0.0265
 2508SOL    HW217859   2.375   7.303   2.614  0.6372 -0.9856 -0.0162
 2509SOL     OW17860   2.862   0.162   2.708 -0.3615  0.6776 -0.2716
 2509SOL    HW117861   2.864   0.109   2.623 -0.6323 -0.2119  0.2658
 2509SOL    HW217862   2.796   0.236   2.699 -0.0570  0.8677 -1.0007
 2510SOL     OW17863   9.822   1.290   0.188  0.0602 -0.0703  0.0336
 2510SOL    HW117864   9.871   1.377   0.184  0.1556 -0.1585 -0.8618
 2510SOL    HW217865   9.881   1.217   0.154  0.2207 -0.6019  1.4242
 2511SOL     OW17866   8.636   9.371   3.834 -0.2793  0.5735  0.2845
 2511SOL    HW117867   8.731   9.343   3.843 -0.8250 -1.6107 -0.3905
 2511SOL    HW217868   8.589   9.358   3.921 -0.1323  1.0007  0.4292
 2512SOL     OW17869   1.682   6.114   0.095 -0.4110 -0.3044  0.3320
 2512SOL    HW117870   1.644   6.117   0.187  0.0053  0.9464  0.4753
 2512SOL    HW217871   1.699   6.207   0.063 -2.9965 -0.5881 -2.0476
 2513SOL     OW17872   7.861   0.925   2.209  0.1671 -0.9265  0.8083
 2513SOL    HW117873   7.790   0.945   2.277  0.1551  1.9525  0.0146
 2513SOL    HW217874   7.951   0.928   2.253 -0.0257 -2.1981  1.3172
 2514SOL     OW17875   0.236   8.118   0.741  0.4599 -0.3221 -0.2414
 2514SOL    HW117876   0.164   8.162   0.687  1.0528  0.1989 -0.6107
 2514SOL    HW217877   0.196   8.078   0.823 -0.2436  0.0125 -0.4156
 2515SOL     OW17878   9.623   0.504   2.190  0.2171  0.2111  0.7330
 2515SOL    HW117879   9.659   0.570   2.123  2.0892 -1.6407 -0.1407
 2515SOL    HW217880   9.535   0.470   2.158  1.1212 -0.6913 -0.8683
 2516SOL     OW17881   0.743   9.039   2.604 -0.1316 -0.3132  0.0047
 2516SOL    HW117882   0.756   8.940   2.594  1.6008 -0.2615  1.4339
 2516SOL    HW217883   0.676   9.071   2.537  0.5322 -2.1770 -1.5916
 2517SOL     OW17884   0.348   1.483   2.379 -0.2444 -0.6981 -0.0608
 2517SOL    HW117885   0.432   1.454   2.333 -2.4604 -3.0458 -2.8212
 2517SOL    HW217886   0.314   1.408   2.435 -1.5634 -0.4427 -0.5225
 2518SOL     OW17887   2.251   3.235   2.986  0.2093 -0.5781  0.0558
 2518SOL    HW117888   2.179   3.209   2.922 -1.1297  1.5268  0.6425
 2518SOL    HW217889   2.241   3.185   3.072  0.4683 -1.5202 -0.4615
 2519SOL     OW17890   1.016   0.685   3.697 -0.1384  0.2001 -0.1310
 2519SOL    HW117891   0.994   0.783   3.698  2.0737  0.7262  0.9774
 2519SOL    HW217892   1.055   0.660   3.608  0.3632  0.5858 -0.0204
 2520SOL     OW17893   0.989   8.156   1.469  0.0863  0.4044 -0.9309
 2520SOL    HW117894   1.034   8.116   1.549  0.2021  3.4413  0.6045
 2520SOL    HW217895   1.046   8.142   1.389  1.7783  0.5358  0.2177
 2521SOL     OW17896   1.445   8.924   3.912 -0.1881  0.4949  0.0063
 2521SOL    HW117897   1.537   8.946   3.945 -0.5087  0.8117  0.7061
 2521SOL    HW217898   1.378   8.984   3.957 -0.6488  0.8853 -1.1695
 2522SOL     OW17899   4.195   1.721   2.287 -0.1754 -0.6180 -0.0339
 2522SOL    HW117900   4.178   1.663   2.367  0.2467  0.8704  1.1494
 2522SOL    HW217901   4.255   1.797   2.312 -0.1481 -0.0519 -1.7359
 2523SOL     OW17902   0.036   3.695   0.113 -0.2348  0.1669  0.1136
 2523SOL    HW117903   0.054   3.604   0.076 -0.0970  0.4159 -0.4223
 2523SOL    HW217904  -0.051   3.729   0.077 -0.4686  0.0971  0.5991
 2524SOL     OW17905   9.088   3.153   0.045  0.3272  0.0655 -0.4984
 2524SOL    HW117906   9.066   3.239   0.091  0.2452  0.4917 -1.3206
 2524SOL    HW217907   9.160   3.168  -0.022 -2.5763  0.4092 -3.6633
 2525SOL     OW17908   3.752   3.111   1.812 -0.2893 -0.1418  0.6739
 2525SOL    HW117909   3.683   3.143   1.747 -1.7822 -0.6320  1.9850
 2525SOL    HW217910   3.804   3.189   1.846 -1.1445  0.4037  0.7442
 2526SOL     OW17911   9.770   2.939   3.626  0.2042  0.6073  0.5015
 2526SOL    HW117912   9.674   2.966   3.632  0.0712 -0.2372  2.5160
 2526SOL    HW217913   9.822   3.009   3.577 -1.3708  1.2384 -0.2832
 2527SOL     OW17914   1.419   1.813   0.905  0.0553 -0.3465  0.1833
 2527SOL    HW117915   1.351   1.881   0.933 -0.8777 -1.4320  0.6294
 2527SOL    HW217916   1.381   1.757   0.831  0.1378 -1.4856  0.9886
 2528SOL     OW17917   1.522   3.432   0.800 -1.2337 -0.2201 -0.1539
 2528SOL    HW117918   1.458   3.355   0.807 -3.2951  1.3273 -1.2270
 2528SOL    HW217919   1.478   3.507   0.751  0.6643  1.7288  1.0440
 2529SOL     OW17920   3.298   0.794   0.061  0.2871  0.2457 -0.2592
 2529SOL    HW117921   3.359   0.753   0.128 -1.1653  0.3967  1.1895
 2529SOL    HW217922   3.343   0.871   0.017  2.2363 -1.5000 -1.4214
 2530SOL     OW17923   8.657   2.970   2.626  0.2362 -0.0898  0.7179
 2530SOL    HW117924   8.614   2.939   2.541 -1.8072 -0.1443  1.7310
 2530SOL    HW217925   8.748   3.006   2.606 -0.0933 -0.3685 -1.4461
 2531SOL     OW17926   8.329   5.595   0.891 -0.2111  0.4113 -0.0803
 2531SOL    HW117927   8.275   5.677   0.911 -1.2472  0.0886 -1.4762
 2531SOL    HW217928   8.267   5.517   0.879  0.8789 -1.1296  3.6490
 2532SOL     OW17929   2.631   3.709   3.796 -0.2938 -0.1336  0.6494
 2532SOL    HW117930   2.703   3.763   3.839  1.8318 -0.5411 -2.2489
 2532SOL    HW217931   2.569   3.770   3.746  0.5510 -0.1220 -0.4020
 2533SOL     OW17932   0.188   0.515   2.646 -0.1097 -0.3397 -0.4207
 2533SOL    HW117933   0.136   0.573   2.583  0.7915  1.4692  0.4646
 2533SOL    HW217934   0.214   0.430   2.599  0.3912  0.8825 -2.4115
 2534SOL     OW17935   0.385   7.433   2.651 -0.3324  0.3152 -0.7289
 2534SOL    HW117936   0.475   7.456   2.690  0.0156  0.1552 -1.4348
 2534SOL    HW217937   0.398   7.377   2.570 -1.0669  0.5444 -1.0006
 2535SOL     OW17938   4.344   2.706   2.141  0.1826  0.1568 -0.1526
 2535SOL    HW117939   4.359   2.763   2.061 -0.9889  1.6183  0.6564
 2535SOL    HW217940   4.289   2.755   2.208 -1.7343 -2.2828  0.1416
 2536SOL     OW17941   0.546   2.745   0.582  0.1130 -0.0402  0.3312
 2536SOL    HW117942   0.470   2.718   0.641  2.1626 -1.5970  2.3476
 2536SOL    HW217943   0.609   2.667   0.571  0.7290  0.7830 -2.4423
 2537SOL     OW17944   2.531   3.837   3.399 -0.5138 -0.0295  0.3345
 2537SOL    HW117945   2.463   3.765   3.412  1.6937 -1.9130  1.7160
 2537SOL    HW217946   2.539   3.891   3.484  0.2258 -0.2600  0.4120
 2538SOL     OW17947   1.580   6.474   3.081 -0.7507  0.3578  0.0976
 2538SOL    HW117948   1.546   6.393   3.127 -0.7889  0.6465  0.5824
 2538SOL    HW217949   1.561   6.467   2.983  0.5362 -0.8728 -0.0764
 2539SOL     OW17950   1.205   1.341   2.739 -0.2828  0.0697  0.0535
 2539SOL    HW117951   1.216   1.404   2.816  0.9744 -1.0553  0.8208
 2539SOL    HW217952   1.130   1.372   2.682 -1.6307  0.6134  2.0479
 2540SOL     OW17953   9.284   1.930   1.140 -0.1319 -0.3484 -0.0496
 2540SOL    HW117954   9.340   1.849   1.125 -0.4305 -0.4169 -0.8032
 2540SOL    HW217955   9.333   1.995   1.198  0.7912 -0.3297 -0.8524
 2541SOL     OW17956   4.725   6.982   2.075 -0.3734 -0.1174  0.0186
 2541SOL    HW117957   4.651   6.915   2.076 -2.4052  2.0798  1.3554
 2541SOL    HW217958   4.791   6.959   2.147 -1.9198  0.2146  1.5840
 2542SOL     OW17959   1.440   3.853   3.724  0.0300  0.4574  0.8450
 2542SOL    HW117960   1.384   3.914   3.668 -0.3461  0.2817  1.0326
 2542SOL    HW217961   1.388   3.771   3.747  0.1720  0.5525  1.5016
 2543SOL     OW17962   4.870   0.237   2.260  0.6690 -0.1001 -0.8191
 2543SOL    HW117963   4.785   0.225   2.311  1.8255 -0.7870  0.9873
 2543SOL    HW217964   4.883   0.334   2.240 -0.2694  0.0675 -0.6584
 2544SOL     OW17965   2.662   4.237   3.068  0.4198 -0.1505  0.1399
 2544SOL    HW117966   2.747   4.290   3.060  0.9921 -1.4659 -3.2004
 2544SOL    HW217967   2.680   4.154   3.121  0.9924 -0.0099  0.1733
 2545SOL     OW17968   9.146   3.399   3.218  0.0900 -0.0299 -0.0142
 2545SOL    HW117969   9.244   3.410   3.200 -0.0822  3.8981  0.8633
 2545SOL    HW217970   9.107   3.334   3.154  2.6538  0.9055 -2.6341
 2546SOL     OW17971   9.607   2.692   1.940 -0.1751 -0.3446  0.7727
 2546SOL    HW117972   9.662   2.774   1.923 -1.0340  0.5288  2.1750
 2546SOL    HW217973   9.512   2.711   1.917 -0.2296 -1.2433  0.2429
 2547SOL     OW17974   0.063   2.434   3.956 -0.2994  0.0492  0.7369
 2547SOL    HW117975   0.004   2.488   3.896 -1.4983 -1.1941  0.7863
 2547SOL    HW217976   0.133   2.388   3.901 -0.6889 -0.1638  0.4129
 2548SOL     OW17977   2.438   6.289   0.596  0.3209  0.0015  0.5334
 2548SOL    HW117978   2.502   6.212   0.601  1.0914  0.6970  1.5336
 2548SOL    HW217979   2.407   6.300   0.502 -1.4487 -2.8566  0.7278
 2549SOL     OW17980   9.073   9.824   3.858  0.4141 -0.0367  0.2438
 2549SOL    HW117981   9.016   9.903   3.835 -1.4866 -1.0956  1.2535
 2549SOL    HW217982   9.059   9.752   3.790 -0.0016 -0.5655  0.8831
 2550SOL     OW17983   3.749   8.773   0.654  0.0535 -0.4173  0.4024
 2550SOL    HW117984   3.844   8.759   0.624  0.2015 -1.0842  1.1540
 2550SOL    HW217985   3.733   8.722   0.739 -0.2734  1.6176  1.6169
 2551SOL     OW17986   2.858   9.634   3.623 -0.4458  0.6152  0.2929
 2551SOL    HW117987   2.883   9.629   3.526  0.8971 -0.5609  0.6851
 2551SOL    HW217988   2.802   9.555   3.647  1.0901 -0.2813  0.9844
 2552SOL     OW17989   9.460   8.785   3.428  0.5179  0.1627  0.3748
 2552SOL    HW117990   9.416   8.714   3.373 -1.1314  1.0825  0.4648
 2552SOL    HW217991   9.446   8.766   3.525 -2.1863  1.9335  0.3859
 2553SOL     OW17992   4.267   6.881   2.820 -0.4855  0.2058  0.3817
 2553SOL    HW117993   4.176   6.906   2.785 -0.8624 -0.0418  1.1793
 2553SOL    HW217994   4.303   6.804   2.767 -0.8531  0.1301  0.2398
 2554SOL     OW17995   3.094   9.029   2.931  0.0571  0.1492 -0.1238
 2554SOL    HW117996   3.048   8.941   2.948 -1.6676  0.8773 -0.9089
 2554SOL    HW217997   3.193   9.017   2.941 -0.0616 -2.1224 -1.2363
 2555SOL     OW17998   0.156   1.321   0.602 -0.0748  0.3606  0.8398
 2555SOL    HW117999   0.245   1.351   0.636 -0.3477 -0.5652  2.4083
 2555SOL    HW218000   0.168   1.251   0.532  0.4809  1.9167 -0.6493
 2556SOL     OW18001   7.778   9.662   3.710 -0.4047  0.0286 -0.7033
 2556SOL    HW118002   7.825   9.631   3.793 -1.1268  1.9119  0.4277
 2556SOL    HW218003   7.839   9.650   3.632  0.8577 -0.3319  0.3083
 2557SOL     OW18004   1.590   1.971   0.735 -0.4254  0.4043  0.0131
 2557SOL    HW118005   1.558   2.066   0.733  0.2204  0.6946  2.4167
 2557SOL    HW218006   1.535   1.919   0.800 -0.0801 -0.6319 -0.5109
 2558SOL     OW18007   8.459   7.686   0.043 -0.3281  0.3330  0.5252
 2558SOL    HW118008   8.386   7.709  -0.021  0.0903  0.2236  0.0059
 2558SOL    HW218009   8.543   7.734   0.018  0.1523 -0.6155  0.3012
 2559SOL     OW18010   4.686   0.213   1.491 -0.5872 -0.0619 -0.9317
 2559SOL    HW118011   4.714   0.155   1.568  1.5289  1.2882 -0.6599
 2559SOL    HW218012   4.724   0.178   1.406 -2.5047 -1.2576 -1.3325
 2560SOL     OW18013   9.674   7.455   3.962  0.6003 -0.2476  0.1584
 2560SOL    HW118014   9.748   7.520   3.944  1.5537 -0.9514  1.5070
 2560SOL    HW218015   9.677   7.381   3.895 -0.1406  0.7906 -1.0373
 2561SOL     OW18016   0.008   8.376   3.537  0.4098  0.0245  0.8846
 2561SOL    HW118017   0.098   8.402   3.501 -0.1662 -0.7518 -1.1441
 2561SOL    HW218018  -0.050   8.457   3.541  0.5390  0.1554  0.2415
 2562SOL     OW18019   3.731   3.530   1.966  0.5675 -0.0556  0.3622
 2562SOL    HW118020   3.658   3.497   2.025 -1.5020  0.4527 -1.8441
 2562SOL    HW218021   3.766   3.617   2.002 -0.6456  0.2350  0.8714
 2563SOL     OW18022   1.650   1.375   0.618 -0.3408  0.3918  0.6239
 2563SOL    HW118023   1.633   1.335   0.528 -0.6751  0.1814  0.7798
 2563SOL    HW218024   1.749   1.377   0.636 -0.1548  2.0020 -0.4653
 2564SOL     OW18025   9.158   0.656   1.508  0.3396  0.0727  0.2531
 2564SOL    HW118026   9.109   0.743   1.503  2.4677  1.4204  2.2026
 2564SOL    HW218027   9.138   0.612   1.596  1.8556  0.1707  0.6475
 2565SOL     OW18028   1.473   1.691   1.155  0.1695  0.2078 -0.4636
 2565SOL    HW118029   1.495   1.593   1.151 -2.8547 -0.5545  0.6260
 2565SOL    HW218030   1.431   1.719   1.069  0.1776  0.3448 -0.4221
 2566SOL     OW18031   1.827   4.162   1.643  0.1681 -0.4256 -0.3857
 2566SOL    HW118032   1.774   4.203   1.717  0.7338  0.5508 -0.5033
 2566SOL    HW218033   1.770   4.153   1.561 -0.0538 -0.1543 -0.2615
 2567SOL     OW18034   4.564   7.547   2.365 -0.0062  0.0686  0.0176
 2567SOL    HW118035   4.664   7.550   2.360  0.0081  0.1974  0.4419
 2567SOL    HW218036   4.530   7.484   2.295  0.3282  0.5987 -0.6301
 2568SOL     OW18037   9.807   0.416   2.392 -0.5977  0.0191 -0.1213
 2568SOL    HW118038   9.758   0.438   2.477 -0.2928  0.4039 -0.0446
 2568SOL    HW218039   9.744   0.422   2.315 -0.1951  2.5176 -0.2677
 2569SOL     OW18040   1.418   7.113   1.358  0.0785  0.1567  0.0067
 2569SOL    HW118041   1.444   7.038   1.418 -0.3069 -0.8850 -1.0918
 2569SOL    HW218042   1.318   7.119   1.353  0.0713 -0.8062 -1.7297
 2570SOL     OW18043   1.038   4.214   3.025  0.0118  0.1467  0.2221
 2570SOL    HW118044   1.035   4.290   3.090 -3.6178  0.2832  0.0298
 2570SOL    HW218045   1.009   4.130   3.071  2.3209 -0.7813  0.0023
 2571SOL     OW18046   3.439   8.030   2.239 -0.7423  0.4283 -0.3306
 2571SOL    HW118047   3.525   8.016   2.189 -0.3280  0.2756  0.4196
 2571SOL    HW218048   3.438   7.972   2.320 -1.8584 -0.0830 -0.6996
 2572SOL     OW18049   0.604   0.902   2.409 -0.2026 -0.0402 -0.3232
 2572SOL    HW118050   0.651   0.961   2.344 -1.0293  0.0673 -0.8410
 2572SOL    HW218051   0.544   0.839   2.359 -0.4710 -0.2875  0.3051
 2573SOL     OW18052   3.252   3.880   0.208 -0.2883 -0.1190 -0.3678
 2573SOL    HW118053   3.260   3.832   0.295 -0.3766  0.3697 -0.0870
 2573SOL    HW218054   3.328   3.944   0.198  0.1270 -0.7018 -0.9863
 2574SOL     OW18055   2.034   2.636   1.829  0.8561  0.0258  0.0088
 2574SOL    HW118056   2.002   2.709   1.769 -2.3953 -1.1276  0.2833
 2574SOL    HW218057   2.084   2.676   1.906 -1.8282  2.0984  0.7592
 2575SOL     OW18058   0.442   0.397   2.339 -0.0343 -0.2094 -0.0480
 2575SOL    HW118059   0.458   0.393   2.240  1.4251 -0.7489  0.2071
 2575SOL    HW218060   0.447   0.492   2.369  0.8628 -0.1780 -0.2768
 2576SOL     OW18061   3.232   9.876   0.065 -0.1209 -0.0756 -0.2101
 2576SOL    HW118062   3.172   9.874   0.145  0.2585 -0.6063  0.0647
 2576SOL    HW218063   3.180   9.906  -0.015 -0.7854 -0.6647 -0.0044
 2577SOL     OW18064   0.794   3.947   0.012 -0.2597 -0.1467  0.2684
 2577SOL    HW118065   0.819   3.975  -0.081  1.3091  1.1260  1.0501
 2577SOL    HW218066   0.796   3.847   0.019 -0.5455 -0.2559 -1.0985
 2578SOL     OW18067   1.703   5.166   1.660  0.9750 -0.2020  0.2916
 2578SOL    HW118068   1.773   5.142   1.727  1.6785 -0.2037 -0.4482
 2578SOL    HW218069   1.734   5.244   1.606 -0.5376  1.2798  1.4808
 2579SOL     OW18070   2.719   7.683   1.278 -0.4242  0.7655 -0.2908
 2579SOL    HW118071   2.625   7.697   1.308 -0.6421 -0.0161 -0.5978
 2579SOL    HW218072   2.720   7.659   1.181  0.1383  1.3930 -0.4427
 2580SOL     OW18073   2.723   4.314   3.456  0.3830  0.3480  0.0459
 2580SOL    HW118074   2.637   4.316   3.406  0.9201  0.0756 -0.9142
 2580SOL    HW218075   2.782   4.244   3.416  0.8627  0.2052  1.0010
 2581SOL     OW18076   4.596   2.497   2.331 -0.1506  0.2006  0.7105
 2581SOL    HW118077   4.556   2.407   2.343  3.3564 -1.0213  4.3443
 2581SOL    HW218078   4.568   2.557   2.407  0.5350  1.0081  0.3388
 2582SOL     OW18079   4.906   8.385   3.778 -0.5793  0.1445 -0.2329
 2582SOL    HW118080   4.879   8.327   3.855 -1.4257  1.0260  0.1481
 2582SOL    HW218081   4.882   8.480   3.798  0.2384  0.5500 -1.1048
 2583SOL     OW18082   1.542   3.538   2.333  0.4755 -0.1443 -0.0533
 2583SOL    HW118083   1.588   3.469   2.277  0.7290 -0.1991  0.2242
 2583SOL    HW218084   1.475   3.586   2.277  1.1407  0.1980 -0.5647
 2584SOL     OW18085   0.734   9.374   1.413 -0.1126  0.2344  0.0949
 2584SOL    HW118086   0.729   9.474   1.424 -1.5250  0.2736 -0.8304
 2584SOL    HW218087   0.716   9.351   1.317  1.9810 -0.7889 -0.0794
 2585SOL     OW18088   8.571   9.570   3.636  0.7039 -0.7188  0.0516
 2585SOL    HW118089   8.552   9.529   3.547  0.7228 -0.8423  0.1050
 2585SOL    HW218090   8.585   9.498   3.704  1.7088 -0.6214 -0.0577
 2586SOL     OW18091   3.753   0.889   2.638 -0.6336 -0.1455  0.0440
 2586SOL    HW118092   3.837   0.909   2.587 -0.4605  0.6332  0.6228
 2586SOL    HW218093   3.690   0.966   2.630 -0.6189 -0.0306  0.9751
 2587SOL     OW18094   1.480   6.907   4.020  0.3530 -0.2573 -0.2931
 2587SOL    HW118095   1.463   7.002   4.046  0.2219 -0.0853 -1.0103
 2587SOL    HW218096   1.512   6.856   4.100  0.0164  0.2890  0.1890
 2588SOL     OW18097   6.229   9.437   2.038 -0.3338  0.5313  0.2294
 2588SOL    HW118098   6.302   9.505   2.034 -1.5819  1.8894 -0.0945
 2588SOL    HW218099   6.267   9.346   2.021  1.5180  1.0063  1.5605
 2589SOL     OW18100   1.806   1.403   1.563  0.2379  0.3517  0.7862
 2589SOL    HW118101   1.785   1.484   1.509  1.6105  0.4146  0.3138
 2589SOL    HW218102   1.819   1.430   1.659 -1.7144  0.3126  1.0652
 2590SOL     OW18103   4.386   8.229   0.873 -0.1115  0.1718 -0.2396
 2590SOL    HW118104   4.315   8.167   0.906 -0.3542  1.3221  1.4700
 2590SOL    HW218105   4.441   8.182   0.803 -1.8507 -1.0920 -0.8151
 2591SOL     OW18106   7.342   0.360   3.957 -0.8285 -0.2061 -0.0783
 2591SOL    HW118107   7.394   0.324   4.034 -1.2818 -1.6623 -0.4297
 2591SOL    HW218108   7.405   0.401   3.890 -0.4193  0.8388  0.9432
 2592SOL     OW18109   9.727   8.213   1.696  0.1400  0.2574 -0.0257
 2592SOL    HW118110   9.728   8.312   1.688 -0.7968  0.3676  1.0495
 2592SOL    HW218111   9.819   8.180   1.717  0.3377  0.9542  0.1982
 2593SOL     OW18112   3.954   8.095   3.912  0.2736 -0.5339  0.4759
 2593SOL    HW118113   4.026   8.026   3.918  2.4435  1.5100 -1.0254
 2593SOL    HW218114   3.907   8.087   3.825  1.1124  0.3940 -0.0755
 2594SOL     OW18115   9.138   3.196   2.342 -0.0174 -0.1563  0.3438
 2594SOL    HW118116   9.083   3.144   2.407  0.0329  0.1543  0.6408
 2594SOL    HW218117   9.081   3.266   2.299 -0.2921 -1.0210 -0.6936
 2595SOL     OW18118   1.957   7.134   3.441  0.0271  0.0279 -0.0922
 2595SOL    HW118119   1.877   7.173   3.395 -1.7262 -1.4805  1.5492
 2595SOL    HW218120   2.025   7.107   3.373 -1.3933  0.2100 -1.6250
 2596SOL     OW18121   3.244   8.240   1.823 -0.1357 -0.2362  0.1425
 2596SOL    HW118122   3.239   8.297   1.905 -1.5520  0.1984 -0.2355
 2596SOL    HW218123   3.340   8.226   1.799  0.2804  0.2490  1.4404
 2597SOL     OW18124   7.476   2.750   0.667  0.4181  0.3075  0.0634
 2597SOL    HW118125   7.539   2.686   0.623  0.6524  1.0758 -0.7378
 2597SOL    HW218126   7.400   2.700   0.708  1.3070 -0.5870  0.6327
 2598SOL     OW18127   1.954   8.012   0.020 -0.0065  0.5448 -0.3559
 2598SOL    HW118128   2.053   8.025   0.009  0.2044 -0.8789 -0.2319
 2598SOL    HW218129   1.937   7.927   0.070 -1.2971  0.8078 -0.3381
 2599SOL     OW18130   0.154   9.211   2.774 -0.2035 -0.4006  0.1438
 2599SOL    HW118131   0.127   9.127   2.820 -1.0795 -0.2414 -0.0750
 2599SOL    HW218132   0.221   9.260   2.830  1.1406 -1.7733 -0.2211
 2600SOL     OW18133   4.428   8.360   2.448 -0.6974 -0.4732  0.0834
 2600SOL    HW118134   4.437   8.444   2.395  0.8916 -1.1398 -0.7453
 2600SOL    HW218135   4.473   8.371   2.537  2.7976 -1.5795 -1.4347
 2601SOL     OW18136   8.811   2.578   1.642  0.4823  0.4437 -0.0619
 2601SOL    HW118137   8.719   2.601   1.676  0.3570 -0.0444 -0.0612
 2601SOL    HW218138   8.820   2.478   1.638  0.2242  0.4781 -2.1728
 2602SOL     OW18139   2.096   3.466   1.075 -0.1003 -0.3097 -0.4324
 2602SOL    HW118140   2.077   3.544   1.135  2.4526  0.3599 -0.4480
 2602SOL    HW218141   2.136   3.391   1.128  0.4194 -0.4118 -0.9617
 2603SOL     OW18142   0.743   3.327   1.177 -0.2000  0.2609  0.2222
 2603SOL    HW118143   0.789   3.415   1.171  0.0090  0.0661 -1.4002
 2603SOL    HW218144   0.675   3.329   1.250  1.5200  0.9478  1.8404
 2604SOL     OW18145   1.118   3.202   1.114  0.0462 -0.1351 -0.3299
 2604SOL    HW118146   1.038   3.158   1.155 -0.1804  0.6582  0.0867
 2604SOL    HW218147   1.164   3.258   1.183  1.4256 -1.2166 -0.3434
 2605SOL     OW18148   6.906   9.112   2.572  0.0633 -0.0333 -0.3412
 2605SOL    HW118149   6.882   9.020   2.541 -1.2815  0.9267 -2.2632
 2605SOL    HW218150   6.892   9.177   2.497  1.0815  1.7313  0.9632
 2606SOL     OW18151   4.074   3.772   2.097  1.0488  0.1393  0.4499
 2606SOL    HW118152   4.162   3.818   2.086  0.1098  1.8252 -0.1780
 2606SOL    HW218153   4.007   3.837   2.132 -0.1097 -0.9707  0.3214
 2607SOL     OW18154   9.569   3.314   3.766  0.2614 -0.4767 -0.5399
 2607SOL    HW118155   9.602   3.350   3.678 -0.5261  1.4236 -0.0771
 2607SOL    HW218156   9.474   3.343   3.780 -0.3450 -2.6134 -0.0509
 2608SOL     OW18157   8.214   0.283   1.217 -0.3925  0.4939 -0.2328
 2608SOL    HW118158   8.298   0.325   1.184 -1.1346  2.4006  0.2673
 2608SOL    HW218159   8.144   0.289   1.145  0.0457 -1.6093 -0.8685
 2609SOL     OW18160   6.894   8.856   2.474 -0.2940  0.4010  0.3658
 2609SOL    HW118161   6.917   8.794   2.550 -1.4221 -0.7973 -0.2469
 2609SOL    HW218162   6.978   8.895   2.437  0.4337 -0.6955  0.8205
 2610SOL     OW18163   8.398   9.176   2.182  0.0080 -0.4524 -0.1634
 2610SOL    HW118164   8.314   9.230   2.191  1.1291  1.7146 -2.0498
 2610SOL    HW218165   8.466   9.209   2.247 -0.2672 -1.5886  0.7177
 2611SOL     OW18166   7.503   2.578   1.074 -0.3291  0.3663 -0.3504
 2611SOL    HW118167   7.577   2.612   1.132 -0.3214 -0.7162  0.2999
 2611SOL    HW218168   7.517   2.480   1.056 -1.4142  0.2288 -0.5056
 2612SOL     OW18169   0.390   3.953   1.131 -0.2660 -0.2273  0.1403
 2612SOL    HW118170   0.326   3.941   1.056  0.3451 -2.1216 -0.0820
 2612SOL    HW218171   0.350   3.917   1.215  0.9841 -2.6164 -0.2483
 2613SOL     OW18172   2.509   7.866   0.283  0.0528 -0.0258 -0.5599
 2613SOL    HW118173   2.496   7.890   0.186  1.3616  1.6567 -0.3356
 2613SOL    HW218174   2.538   7.947   0.334 -1.8043 -0.6023  1.4934
 2614SOL     OW18175   4.768   8.223   2.147  0.2725 -0.4085  0.4322
 2614SOL    HW118176   4.838   8.225   2.219 -0.1983  0.6330  0.8668
 2614SOL    HW218177   4.796   8.159   2.076  1.4216 -0.3931  0.8523
 2615SOL     OW18178   4.401   7.033   2.036 -0.0369  0.1844 -0.0567
 2615SOL    HW118179   4.411   7.112   2.097  0.4491 -0.0081  0.1146
 2615SOL    HW218180   4.359   7.063   1.950  2.1057  1.0364 -0.8363
 2616SOL     OW18181   8.547   8.506   1.581  0.4011  0.4743 -0.3559
 2616SOL    HW118182   8.579   8.486   1.673 -0.6210  1.5266  0.2518
 2616SOL    HW218183   8.530   8.605   1.572 -2.0372  0.0618 -0.8026
 2617SOL     OW18184   9.789   3.597   2.015  0.0383  0.6549 -0.1451
 2617SOL    HW118185   9.771   3.673   2.079  0.6040 -0.1426  0.9727
 2617SOL    HW218186   9.854   3.533   2.056 -0.7334 -0.6497 -0.9276
 2618SOL     OW18187   1.586   9.872   1.254  0.5767 -0.4018  0.1554
 2618SOL    HW118188   1.518   9.853   1.183  0.7445  1.6382 -0.5829
 2618SOL    HW218189   1.676   9.885   1.212  0.6296  1.0835  0.6958
 2619SOL     OW18190   1.914   5.652   3.796 -0.0440  0.1026  0.5190
 2619SOL    HW118191   1.989   5.718   3.788 -0.1049  0.2160  0.8734
 2619SOL    HW218192   1.938   5.584   3.866 -0.8517  0.9238  1.6091
 2620SOL     OW18193   8.502   1.568   0.152 -0.0731  0.0761  0.3649
 2620SOL    HW118194   8.486   1.492   0.215 -0.8110  0.3224  0.4846
 2620SOL    HW218195   8.491   1.536   0.058 -2.5916  0.5084  0.4723
 2621SOL     OW18196   0.630   8.907   2.878  0.3703  0.5792  0.3164
 2621SOL    HW118197   0.688   8.826   2.866 -0.9002 -0.4526  1.0040
 2621SOL    HW218198   0.667   8.962   2.953  1.8844  1.2443 -0.8812
 2622SOL     OW18199   1.873   5.013   0.705 -0.1020  0.1362  0.2178
 2622SOL    HW118200   1.827   5.099   0.726  0.5253  1.0284 -1.8791
 2622SOL    HW218201   1.972   5.027   0.704  0.0513 -0.8651  0.9441
 2623SOL     OW18202   3.942   8.929   3.669 -0.0372  0.2914 -0.4015
 2623SOL    HW118203   3.961   8.903   3.764 -1.6979  0.2551 -0.0583
 2623SOL    HW218204   3.843   8.931   3.655  0.2114 -0.0621 -2.2420
 2624SOL     OW18205   7.392   3.675   0.334 -0.1178  0.6589  0.7149
 2624SOL    HW118206   7.327   3.750   0.320 -0.7962  0.3806  2.3360
 2624SOL    HW218207   7.346   3.587   0.322 -0.1461  0.4525  2.1867
 2625SOL     OW18208   9.634   3.187   3.125  0.5087 -0.2160  0.1616
 2625SOL    HW118209   9.595   3.152   3.211  0.1132 -0.4428 -0.1095
 2625SOL    HW218210   9.663   3.110   3.068 -0.7336 -0.1155 -0.6116
 2626SOL     OW18211   8.925   8.292   1.406 -0.2968 -0.1871  0.2630
 2626SOL    HW118212   8.873   8.226   1.461  0.0493 -0.3900  0.3498
 2626SOL    HW218213   9.017   8.300   1.442  0.5889 -1.8756 -1.5375
 2627SOL     OW18214   8.893   1.208   2.108 -0.3292 -0.0052 -0.4666
 2627SOL    HW118215   8.954   1.263   2.051 -0.3013 -0.7749 -1.1951
 2627SOL    HW218216   8.809   1.188   2.057 -0.3720 -0.5683 -0.1835
 2628SOL     OW18217   4.362   4.966   1.699 -0.5128 -0.0980  0.4619
 2628SOL    HW118218   4.367   4.935   1.794  0.5722 -0.6064  0.2554
 2628SOL    HW218219   4.285   5.029   1.687 -2.3438 -2.1912  1.0486
 2629SOL     OW18220   7.802   7.975   0.823 -0.1857  0.2381 -0.3245
 2629SOL    HW118221   7.868   8.049   0.812  0.9043 -0.8044 -1.0386
 2629SOL    HW218222   7.822   7.925   0.908  1.4471 -1.5003 -1.6758
 2630SOL     OW18223   4.655   0.308   1.153  0.1084 -0.2428 -0.1043
 2630SOL    HW118224   4.683   0.213   1.169 -1.5683 -0.4957  1.3979
 2630SOL    HW218225   4.615   0.315   1.062 -0.2901 -1.1086 -0.0060
 2631SOL     OW18226   7.889   2.780   1.186 -0.6066  0.0130 -0.2852
 2631SOL    HW118227   7.963   2.724   1.223  0.0212 -0.3232 -2.0228
 2631SOL    HW218228   7.874   2.859   1.246  0.1358 -0.7079  0.8754
 2632SOL     OW18229   0.996   3.779   1.629 -0.4667 -0.1709  0.3345
 2632SOL    HW118230   0.937   3.778   1.548  0.5570  0.7683 -0.4500
 2632SOL    HW218231   0.966   3.709   1.693 -2.0771 -0.0784 -0.2934
 2633SOL     OW18232   2.641   7.083   2.688  0.3701 -0.1875  0.3566
 2633SOL    HW118233   2.707   7.098   2.615 -1.5283  1.5195 -1.0647
 2633SOL    HW218234   2.599   6.993   2.678  0.3850 -0.1056 -0.4695
 2634SOL     OW18235   3.471   6.347   2.711 -0.7412 -0.3060 -0.1769
 2634SOL    HW118236   3.378   6.364   2.679 -0.7835 -1.7758 -0.8720
 2634SOL    HW218237   3.493   6.410   2.786 -2.2650  0.0843 -0.0509
 2635SOL     OW18238   9.127   8.390   2.336  0.8564 -0.1572 -0.1850
 2635SOL    HW118239   9.156   8.481   2.306 -1.1458  0.4575 -0.3811
 2635SOL    HW218240   9.078   8.398   2.423 -0.6251 -0.8238 -0.9418
 2636SOL     OW18241   9.717   8.704   3.127 -0.0354 -0.2337  0.6750
 2636SOL    HW118242   9.723   8.626   3.189 -2.5015 -1.2858 -0.3434
 2636SOL    HW218243   9.659   8.680   3.049  0.4473  2.1084 -0.4447
 2637SOL     OW18244   0.472   8.318   2.122 -0.2052  0.1092  0.1012
 2637SOL    HW118245   0.443   8.261   2.199 -0.2894 -0.5847 -0.4422
 2637SOL    HW218246   0.568   8.301   2.102  0.0488  0.9283  0.6065
 2638SOL     OW18247   6.840   8.635   3.230  0.1672  0.7101  0.0895
 2638SOL    HW118248   6.828   8.666   3.135 -1.3771 -0.2172 -0.0255
 2638SOL    HW218249   6.932   8.659   3.260  0.4145  1.7253 -1.3783
 2639SOL     OW18250   3.199   7.044   2.935 -0.2183  0.4847 -0.6370
 2639SOL    HW118251   3.136   7.032   3.012  0.7571  0.2092  0.1365
 2639SOL    HW218252   3.173   6.983   2.861 -0.3056 -0.3104  0.0395
 2640SOL     OW18253   3.968   0.839   1.109 -0.2724  0.5259  0.0565
 2640SOL    HW118254   3.906   0.908   1.072  0.1711  0.7868 -0.1944
 2640SOL    HW218255   4.047   0.884   1.150 -1.4237  0.3249  2.5925
 2641SOL     OW18256   1.121   4.499   2.067  0.1084  0.9303  0.0461
 2641SOL    HW118257   1.209   4.456   2.048 -0.2244  0.4937 -0.5219
 2641SOL    HW218258   1.059   4.485   1.989 -0.6021  0.8652  0.6174
 2642SOL     OW18259   2.167   0.880   1.068 -0.1934  0.7811  0.0488
 2642SOL    HW118260   2.149   0.969   1.110 -0.1771 -0.5018  2.9482
 2642SOL    HW218261   2.248   0.839   1.111  0.0554 -0.4572 -1.5455
 2643SOL     OW18262   9.449   8.755   3.677 -0.5268 -0.2367  0.2919
 2643SOL    HW118263   9.527   8.809   3.707  0.7689 -0.9715 -1.6241
 2643SOL    HW218264   9.437   8.676   3.737  0.6689 -0.5230  0.1597
 2644SOL     OW18265   9.048   0.136   0.741  0.2095 -0.2267 -0.4030
 2644SOL    HW118266   9.026   0.086   0.658  3.4624 -2.3012 -0.1175
 2644SOL    HW218267   9.115   0.207   0.721  1.4643 -1.1288  0.4970
 2645SOL     OW18268   6.649   0.137   2.807 -0.7641 -0.1256 -0.1346
 2645SOL    HW118269   6.658   0.047   2.764  0.7734 -0.2557  0.4222
 2645SOL    HW218270   6.643   0.126   2.906 -0.5058  0.3962 -0.0639
 2646SOL     OW18271   8.162   0.000   0.685 -0.3195 -0.2240  0.6107
 2646SOL    HW118272   8.079   0.055   0.698 -1.3693 -1.3961 -0.9196
 2646SOL    HW218273   8.231   0.028   0.752 -1.8103  1.0226  1.6783
 2647SOL     OW18274   9.899   0.054   0.388 -0.1413 -0.0152 -0.1839
 2647SOL    HW118275   9.871  -0.038   0.361  1.3258  0.5539 -3.9570
 2647SOL    HW218276   9.865   0.120   0.322 -0.8254  2.1312  2.2705
 2648SOL     OW18277   0.084   3.430   4.036  0.5581  0.6075  0.9112
 2648SOL    HW118278   0.012   3.421   3.968 -0.9327  3.2692  2.0384
 2648SOL    HW218279   0.069   3.364   4.110 -0.5752  0.9492  0.9958
 2649SOL     OW18280   8.696   3.369   0.332 -0.1708  0.4206  0.1914
 2649SOL    HW118281   8.679   3.323   0.420  1.4562 -0.9537 -0.1766
 2649SOL    HW218282   8.614   3.363   0.275  0.5254 -3.7820 -0.5680
 2650SOL     OW18283   4.892   7.794   2.559  0.2620  0.1156 -0.0583
 2650SOL    HW118284   4.857   7.758   2.646  0.4494  0.1289  0.0217
 2650SOL    HW218285   4.830   7.866   2.527  0.0124 -0.1170 -0.1032
 2651SOL     OW18286   1.022   2.523   0.805  0.0232 -0.2818 -0.1318
 2651SOL    HW118287   1.086   2.457   0.845  2.2128  1.1164 -1.2233
 2651SOL    HW218288   1.049   2.616   0.831 -1.2454  0.3699 -1.0695
 2652SOL     OW18289   7.769   2.147   0.523 -0.3266  0.1731 -0.8164
 2652SOL    HW118290   7.827   2.066   0.517  0.2199  0.4951 -0.0108
 2652SOL    HW218291   7.815   2.225   0.481 -1.5260 -0.2816 -3.0179
 2653SOL     OW18292   9.319   8.128   2.990  0.4900 -0.2165  0.6506
 2653SOL    HW118293   9.339   8.047   3.044  1.5039 -0.1591  0.3635
 2653SOL    HW218294   9.294   8.204   3.050 -2.7772 -1.3493  0.8314
 2654SOL     OW18295   3.527   1.918   2.226 -0.1139  0.0161 -0.1865
 2654SOL    HW118296   3.458   1.933   2.297  0.3120  2.1394 -0.1909
 2654SOL    HW218297   3.618   1.940   2.262  0.3987 -1.2285 -0.6703
 2655SOL     OW18298   3.855   0.615   1.577  0.2130 -0.3384 -0.1048
 2655SOL    HW118299   3.846   0.634   1.480 -1.2270  2.6130  0.5734
 2655SOL    HW218300   3.783   0.551   1.605 -1.4741  1.4013 -0.3478
 2656SOL     OW18301   9.454   8.892   1.787  0.6444 -0.0203 -0.3424
 2656SOL    HW118302   9.475   8.795   1.803  1.9061  0.2558 -0.2602
 2656SOL    HW218303   9.540   8.943   1.777 -0.0281  0.9817 -1.0346
 2657SOL     OW18304   8.180   8.329   0.957  0.0587  0.0323 -0.0774
 2657SOL    HW118305   8.162   8.288   1.047  2.1939  0.5953  0.6247
 2657SOL    HW218306   8.145   8.423   0.957 -1.7504 -0.6180 -0.5366
 2658SOL     OW18307   2.973   0.224   3.569 -0.3883  0.1273  0.6650
 2658SOL    HW118308   2.965   0.289   3.644 -0.6508  0.4545  0.3614
 2658SOL    HW218309   2.952   0.270   3.483 -1.5851 -0.5928  0.5539
 2659SOL     OW18310   1.476   4.823   2.343  0.7338  0.4154 -0.4001
 2659SOL    HW118311   1.414   4.750   2.375 -0.6423  1.9096  0.3957
 2659SOL    HW218312   1.534   4.852   2.418  1.3664  0.0705 -0.7528
 2660SOL     OW18313   2.470   1.355   3.163  0.1299 -0.0829 -0.3764
 2660SOL    HW118314   2.538   1.428   3.157  0.3779 -0.1813  1.2042
 2660SOL    HW218315   2.509   1.276   3.211 -1.3029  0.1294  1.1851
 2661SOL     OW18316   4.634   0.953   3.025  0.0427  0.3062 -0.0125
 2661SOL    HW118317   4.654   1.026   2.960  1.3371  0.6125  0.7073
 2661SOL    HW218318   4.570   0.986   3.095 -0.1402  0.4451 -0.2453
 2662SOL     OW18319   2.826   1.349   0.328 -0.0043 -0.5915 -0.1066
 2662SOL    HW118320   2.753   1.357   0.260  0.7229 -0.1094 -0.8439
 2662SOL    HW218321   2.910   1.391   0.292  0.8218 -1.7166  0.4550
 2663SOL     OW18322   2.276   2.559   3.888  0.4183  0.1761 -0.0306
 2663SOL    HW118323   2.235   2.583   3.976 -1.2206 -0.6581 -0.5539
 2663SOL    HW218324   2.221   2.489   3.843  1.2980  0.5039 -1.6679
 2664SOL     OW18325   1.399   7.638   3.947  0.0660 -0.9331 -0.2547
 2664SOL    HW118326   1.449   7.643   3.860  0.4342 -1.0848 -0.0572
 2664SOL    HW218327   1.456   7.676   4.020 -0.9972  0.9598 -0.3880
 2665SOL     OW18328   7.300   9.332   3.220 -0.6489 -0.4731  0.1368
 2665SOL    HW118329   7.293   9.415   3.275  0.1675 -0.6253  0.4826
 2665SOL    HW218330   7.280   9.253   3.277  1.4465 -0.7319  0.5630
 2666SOL     OW18331   1.877   3.885   1.708  0.8278  0.2146 -0.9737
 2666SOL    HW118332   1.965   3.838   1.699  1.5650  1.4176 -0.1856
 2666SOL    HW218333   1.873   3.960   1.642  0.1655 -0.1495 -1.3607
 2667SOL     OW18334   2.022   7.411   2.961  0.4593  0.4891  0.3122
 2667SOL    HW118335   2.047   7.496   3.008  1.2498 -0.3097  1.3747
 2667SOL    HW218336   2.103   7.353   2.952 -0.3826 -0.8177  0.9907
 2668SOL     OW18337   8.522   9.321   2.398  0.5961 -0.3148 -0.7418
 2668SOL    HW118338   8.473   9.405   2.421  0.9180 -0.0476 -1.0353
 2668SOL    HW218339   8.478   9.244   2.445  0.2724  0.0063 -0.5090
 2669SOL     OW18340   1.713   2.187   2.384  0.0992 -0.3427 -0.0802
 2669SOL    HW118341   1.773   2.162   2.308  1.0990  0.1135  0.5517
 2669SOL    HW218342   1.706   2.110   2.447 -0.5016 -0.6200 -0.4776
 2670SOL     OW18343   3.046   3.137   0.514  0.6123 -0.1912 -0.6750
 2670SOL    HW118344   2.981   3.062   0.499  0.5031 -0.5317  1.3153
 2670SOL    HW218345   3.113   3.109   0.584  2.3949  0.4702 -2.0819
 2671SOL     OW18346   1.182   8.060   1.309  0.4253  0.1086  0.2137
 2671SOL    HW118347   1.228   8.145   1.335 -1.2847  0.8161  0.9605
 2671SOL    HW218348   1.189   8.049   1.209  3.2925 -0.4656  0.4149
 2672SOL     OW18349   2.683   4.957   2.992 -0.1573 -0.2946  0.1450
 2672SOL    HW118350   2.611   4.918   2.935 -0.1998 -0.4299  0.2916
 2672SOL    HW218351   2.769   4.909   2.975 -0.0078  0.1306 -0.3261
 2673SOL     OW18352   9.259   8.176   2.210  0.2351  0.1583 -0.2374
 2673SOL    HW118353   9.207   8.229   2.278 -0.6936 -0.7443 -0.2229
 2673SOL    HW218354   9.265   8.081   2.240  0.9496  0.0262 -0.7926
 2674SOL     OW18355   2.575   9.547   0.008 -0.2578 -0.0961 -0.1615
 2674SOL    HW118356   2.640   9.621   0.025 -1.3674  0.7210  0.5583
 2674SOL    HW218357   2.482   9.583   0.010 -0.8276 -1.6050  0.6820
 2675SOL     OW18358   0.831   2.920   0.699 -0.4235  0.5202  0.5599
 2675SOL    HW118359   0.833   3.004   0.645  0.6448 -0.5359 -1.0751
 2675SOL    HW218360   0.737   2.899   0.725 -0.6266  2.6354  1.6927
 2676SOL     OW18361   2.150   0.966   2.087 -0.4789  0.3635 -0.3604
 2676SOL    HW118362   2.069   0.915   2.116 -0.8482  1.4551  0.5764
 2676SOL    HW218363   2.134   1.064   2.099  1.9090  0.5105  2.3865
 2677SOL     OW18364   3.565   9.739   0.968 -0.1686  0.1199  0.1427
 2677SOL    HW118365   3.487   9.706   0.915 -0.6040  0.1551  0.7558
 2677SOL    HW218366   3.628   9.663   0.986  0.6071  0.3590 -1.4767
 2678SOL     OW18367   3.382   5.976   2.651 -0.1365  0.0019  0.6440
 2678SOL    HW118368   3.338   6.041   2.712 -0.3101  2.0439 -1.6047
 2678SOL    HW218369   3.467   6.015   2.615 -0.2181 -1.0137 -0.7058
 2679SOL     OW18370   6.034   9.576   2.379 -0.2500  0.3001  0.2747
 2679SOL    HW118371   6.003   9.671   2.388 -0.0498  0.4090 -0.1676
 2679SOL    HW218372   5.999   9.522   2.455  0.3717  0.9281  1.0060
 2680SOL     OW18373   0.259   0.268   2.518  0.0607  0.1274  0.5629
 2680SOL    HW118374   0.313   0.310   2.444  0.9199  0.9515  1.6343
 2680SOL    HW218375   0.320   0.218   2.579 -0.7714 -1.3559  0.2029
 2681SOL     OW18376   2.461   9.792   3.270 -0.3381 -0.5067  0.2138
 2681SOL    HW118377   2.484   9.820   3.363 -1.2038 -2.3642  1.0188
 2681SOL    HW218378   2.517   9.714   3.245  1.0120  0.9585 -1.4427
 2682SOL     OW18379   7.624   1.523   0.467 -0.4276  0.3357 -0.5948
 2682SOL    HW118380   7.706   1.580   0.471 -1.7657  2.2231  0.6336
 2682SOL    HW218381   7.554   1.569   0.414 -2.2720  0.8543  2.1858
 2683SOL     OW18382   1.510   2.762   0.827  0.0908 -0.2950  0.0747
 2683SOL    HW118383   1.575   2.689   0.847  1.2116  1.0205  1.3709
 2683SOL    HW218384   1.451   2.735   0.751  0.3329 -2.6193  0.6915
 2684SOL     OW18385   5.116   8.741   2.475 -0.1111  0.4803  0.1614
 2684SOL    HW118386   5.136   8.661   2.419  0.1119 -0.0917  1.0553
 2684SOL    HW218387   5.201   8.773   2.518  0.0624  2.0010 -1.2366
 2685SOL     OW18388   0.584   3.557   2.041 -0.8556  0.3877  0.1409
 2685SOL    HW118389   0.615   3.508   1.959 -1.0662  0.8023 -0.1912
 2685SOL    HW218390   0.614   3.508   2.123  1.5020  1.2490 -0.1437
 2686SOL     OW18391   8.038   1.817   0.712  0.6370  0.1999 -0.4411
 2686SOL    HW118392   8.096   1.865   0.777  0.5716 -0.2336 -0.0598
 2686SOL    HW218393   8.027   1.722   0.741  0.6190  0.0006 -1.0906
 2687SOL     OW18394   8.503   1.247   1.032 -0.0538  0.3617 -0.3489
 2687SOL    HW118395   8.589   1.298   1.027  1.7214 -2.6224 -1.4163
 2687SOL    HW218396   8.460   1.246   0.942  0.9287 -1.6534 -0.8187
 2688SOL     OW18397   8.836   2.181   2.249 -0.2572 -0.5885  0.3350
 2688SOL    HW118398   8.844   2.113   2.176  1.7531 -0.9642  0.8605
 2688SOL    HW218399   8.740   2.207   2.261 -0.6937 -1.0676 -1.9252
 2689SOL     OW18400   8.901   3.318   2.817  0.4506  0.3050  0.6428
 2689SOL    HW118401   8.955   3.332   2.901  0.6436  2.6192  0.1762
 2689SOL    HW218402   8.955   3.266   2.751  1.3316  0.7967  0.9652
 2690SOL     OW18403   1.234   5.026   1.739 -0.5167  0.3218  0.0468
 2690SOL    HW118404   1.153   4.967   1.735  0.3441 -0.8750  0.0339
 2690SOL    HW218405   1.302   4.994   1.673  0.4443  0.5770  0.8992
 2691SOL     OW18406   9.298   8.683   0.899  0.3201  0.2481  0.2584
 2691SOL    HW118407   9.264   8.651   0.988  0.3062 -1.2055 -0.2643
 2691SOL    HW218408   9.224   8.680   0.832  0.5915  0.3861 -0.0451
 2692SOL     OW18409   3.040   7.873   2.346  0.2832 -0.2214 -0.2654
 2692SOL    HW118410   3.020   7.935   2.422  2.5319  1.4307 -0.9888
 2692SOL    HW218411   3.037   7.778   2.379 -0.9974  0.3471  1.3421
 2693SOL     OW18412   1.298   7.203   3.898 -0.3217  0.1159  0.6311
 2693SOL    HW118413   1.285   7.155   3.811  0.4474  2.1873 -0.6742
 2693SOL    HW218414   1.210   7.213   3.944 -0.6603 -1.4615  0.3604
 2694SOL     OW18415   8.515   8.967   1.838  0.0186 -0.4799 -0.0481
 2694SOL    HW118416   8.421   8.994   1.818  0.4999  1.2250 -0.0946
 2694SOL    HW218417   8.522   8.867   1.837 -1.4884 -0.5913 -1.3495
 2695SOL     OW18418   9.204   0.887   1.011  0.6721  0.2319 -0.2819
 2695SOL    HW118419   9.268   0.947   1.059  0.4929  0.0155  0.2382
 2695SOL    HW218420   9.251   0.803   0.983  0.4965 -0.1600  0.5693
 2696SOL     OW18421   1.855   8.558   1.484  0.1533 -0.2334  0.0654
 2696SOL    HW118422   1.819   8.467   1.506  1.4413 -0.8148 -0.1157
 2696SOL    HW218423   1.837   8.579   1.388 -0.3324 -0.2083  0.1613
 2697SOL     OW18424   4.016   4.334   3.072 -0.6821  0.3188 -0.5207
 2697SOL    HW118425   4.009   4.432   3.090 -1.4171  0.2666 -0.5267
 2697SOL    HW218426   3.983   4.315   2.979  0.3770  0.1962 -0.8833
 2698SOL     OW18427   3.819   6.581   2.848 -0.1001 -0.7837  0.1288
 2698SOL    HW118428   3.792   6.589   2.752  0.1988 -1.2970  0.0018
 2698SOL    HW218429   3.900   6.523   2.855 -0.0398 -0.6327  0.6791
 2699SOL     OW18430   8.863   2.852   0.471  0.4231  0.4687  0.0586
 2699SOL    HW118431   8.802   2.798   0.413 -0.5890  0.7816  0.8098
 2699SOL    HW218432   8.911   2.920   0.416 -0.3358  0.5961 -0.4547
 2700SOL     OW18433   3.041   6.752   0.228  0.5831 -0.6466  0.0175
 2700SOL    HW118434   3.000   6.736   0.317 -0.4155  0.9510 -0.1281
 2700SOL    HW218435   3.131   6.795   0.240  0.6766 -0.9172  0.2717
 2701SOL     OW18436   3.151   5.734   2.979 -0.2400  0.0414 -0.0742
 2701SOL    HW118437   3.196   5.692   2.901 -0.9257  0.1090 -0.5048
 2701SOL    HW218438   3.093   5.667   3.025  0.6391 -0.1745  0.7606
 2702SOL     OW18439   3.112   1.085   1.699  0.1407 -0.0682 -0.1077
 2702SOL    HW118440   3.041   1.151   1.724 -1.0101 -0.9053 -1.1361
 2702SOL    HW218441   3.156   1.052   1.782  0.8510  2.1131  0.4099
 2703SOL     OW18442   9.373   1.678   1.119 -0.1970 -0.6593  0.9624
 2703SOL    HW118443   9.466   1.687   1.084 -0.9390 -0.5007 -1.0512
 2703SOL    HW218444   9.375   1.630   1.207  1.8014 -0.3455  1.1177
 2704SOL     OW18445   8.922   1.483   1.151  0.0345  0.4367 -0.0926
 2704SOL    HW118446   8.852   1.429   1.198  0.3557  1.0429  1.1213
 2704SOL    HW218447   8.994   1.423   1.117  0.9692  0.1661  2.2364
 2705SOL     OW18448   3.226   2.885   0.461  0.5034  0.9062  0.7335
 2705SOL    HW118449   3.147   2.945   0.477 -0.1256  0.4175 -0.4566
 2705SOL    HW218450   3.230   2.815   0.533  1.3440  2.4593  2.2325
 2706SOL     OW18451   1.237   7.965   3.747  0.7303 -0.5162 -0.4444
 2706SOL    HW118452   1.227   7.914   3.833  0.9049 -0.0450 -0.1472
 2706SOL    HW218453   1.325   8.012   3.745 -0.1058  1.1070 -0.0022
 2707SOL     OW18454   2.861   4.084   0.198 -0.1691 -0.3197 -0.2034
 2707SOL    HW118455   2.794   4.038   0.256 -1.4996  0.8080 -0.8243
 2707SOL    HW218456   2.819   4.165   0.156  2.1980  1.6106  1.0534
 2708SOL     OW18457   4.776   0.125   3.442  0.0256 -0.4371 -0.2671
 2708SOL    HW118458   4.807   0.057   3.509  1.2568 -0.1459 -0.5162
 2708SOL    HW218459   4.784   0.085   3.350 -2.0117 -0.9719 -0.2446
 2709SOL     OW18460   1.919   1.294   1.161  0.1132 -0.1394  0.2704
 2709SOL    HW118461   1.925   1.240   1.245  0.6128 -0.3243  0.1166
 2709SOL    HW218462   1.882   1.384   1.181  0.0685 -0.2458  0.6598
 2710SOL     OW18463   2.406   5.553   0.885 -0.1707  0.1288 -0.3119
 2710SOL    HW118464   2.435   5.458   0.877 -0.2820 -0.0130  1.0037
 2710SOL    HW218465   2.336   5.561   0.956  1.4294  1.5512  1.1397
 2711SOL     OW18466   3.796   2.048   2.191 -0.3053 -0.2169  0.3162
 2711SOL    HW118467   3.826   2.136   2.229 -0.3880 -0.7038  1.5540
 2711SOL    HW218468   3.788   2.055   2.092 -1.3711  1.4920  0.5062
 2712SOL     OW18469   2.472   5.950   3.141 -0.1168  0.0260 -0.1993
 2712SOL    HW118470   2.532   5.871   3.156  1.8727  1.6505  0.6031
 2712SOL    HW218471   2.401   5.925   3.075  0.7956 -2.2663 -0.3779
 2713SOL     OW18472   0.659   1.536   2.900  0.4100 -0.5903  0.2183
 2713SOL    HW118473   0.667   1.574   2.992 -0.8768  0.5750 -0.1353
 2713SOL    HW218474   0.694   1.443   2.899 -0.1733 -0.8467  2.0503
 2714SOL     OW18475   2.787   2.036   1.899 -0.4057 -0.1865  0.0162
 2714SOL    HW118476   2.716   1.988   1.847 -0.1216  1.8857 -2.3875
 2714SOL    HW218477   2.874   2.031   1.850  0.0039  1.3286  0.5556
 2715SOL     OW18478   0.190   3.912   3.968  0.6936 -0.1799 -0.6368
 2715SOL    HW118479   0.288   3.908   3.989  0.9408 -0.9802 -1.9108
 2715SOL    HW218480   0.139   3.931   4.052  1.9570  0.4755 -0.0095
 2716SOL     OW18481   4.395   0.854   3.543  0.1226 -0.6996  0.1198
 2716SOL    HW118482   4.357   0.943   3.568 -1.1987 -0.7995 -1.4543
 2716SOL    HW218483   4.330   0.805   3.484  2.0442 -1.5120 -1.3898
 2717SOL     OW18484   1.873   6.595   2.423  0.2227 -0.0635  0.2396
 2717SOL    HW118485   1.911   6.573   2.513 -0.6414 -2.1173  0.1224
 2717SOL    HW218486   1.890   6.691   2.403  1.5040  0.1270  2.0683
 2718SOL     OW18487   1.109   6.912   1.583  0.1718 -0.0924  0.9069
 2718SOL    HW118488   1.133   6.974   1.658  1.6101  1.2265 -0.6405
 2718SOL    HW218489   1.164   6.829   1.590  1.1448  0.5293  0.6273
 2719SOL     OW18490   2.091   8.751   3.270 -0.3203 -0.7553  0.1435
 2719SOL    HW118491   2.018   8.710   3.325  0.8350 -1.7338  0.9668
 2719SOL    HW218492   2.051   8.794   3.189 -1.6666 -2.7255 -0.2786
 2720SOL     OW18493   3.140   2.613   2.079  0.4787  0.0232  0.3706
 2720SOL    HW118494   3.232   2.650   2.068  1.0823 -1.9402 -1.5349
 2720SOL    HW218495   3.077   2.662   2.019  0.8556 -0.5572 -0.5118
 2721SOL     OW18496   2.111   1.222   2.119  0.2058  0.1008  0.1678
 2721SOL    HW118497   2.039   1.221   2.189  1.4880 -3.0138  1.5428
 2721SOL    HW218498   2.171   1.300   2.135 -0.1176  0.0181  1.9689
 2722SOL     OW18499   2.615   4.607   2.241  0.9325 -0.3015  0.0707
 2722SOL    HW118500   2.592   4.511   2.257  0.6955 -0.0157  1.4990
 2722SOL    HW218501   2.707   4.626   2.275  1.5029 -0.3305 -1.4164
 2723SOL     OW18502   0.923   9.379   3.125  0.2260 -0.3614 -0.3742
 2723SOL    HW118503   0.962   9.331   3.204  2.5586  0.4572 -0.9692
 2723SOL    HW218504   0.953   9.333   3.041 -0.6042 -0.0596 -0.8400
 2724SOL     OW18505   2.880   2.280   2.956  0.2076 -0.1101 -0.8498
 2724SOL    HW118506   2.943   2.277   2.879 -0.2430 -1.1287 -1.1943
 2724SOL    HW218507   2.861   2.375   2.981  0.9750  0.2083 -1.4764
 2725SOL     OW18508   0.800   9.142   1.546  0.3122 -0.3711  0.3095
 2725SOL    HW118509   0.740   9.110   1.619  1.5571 -0.7373  1.1766
 2725SOL    HW218510   0.762   9.226   1.506  0.3397  0.6135  2.3142
 2726SOL     OW18511   7.793   9.886   3.972 -0.1799 -0.2821 -0.0892
 2726SOL    HW118512   7.766   9.922   3.883 -1.6707 -0.8824  0.1004
 2726SOL    HW218513   7.724   9.822   4.004  0.6661 -0.5636  1.2123
 2727SOL     OW18514   1.960   1.078   0.790 -0.3961  0.2284 -0.0980
 2727SOL    HW118515   1.966   1.022   0.707  0.2665 -2.3321  1.6619
 2727SOL    HW218516   1.905   1.031   0.859  0.2991  1.6821  1.4869
 2728SOL     OW18517   9.120   0.096   3.101  0.4374  0.1008  0.1056
 2728SOL    HW118518   9.120   0.094   3.001  0.2758  1.3106  0.0627
 2728SOL    HW218519   9.105   0.004   3.137  0.3158 -0.3130 -0.9814
 2729SOL     OW18520   0.771   7.806   1.281  0.2912 -0.4775  0.1772
 2729SOL    HW118521   0.767   7.793   1.380 -0.3066 -0.2796  0.1798
 2729SOL    HW218522   0.722   7.731   1.236 -0.2990 -0.0262  0.0693
 2730SOL     OW18523   2.529   8.938   2.316 -0.8906  0.0767 -0.0715
 2730SOL    HW118524   2.620   8.965   2.345 -0.7434 -0.4234 -0.0570
 2730SOL    HW218525   2.465   9.013   2.330 -0.0708  1.1882 -2.0804
 2731SOL     OW18526   3.802   1.360   3.188 -0.5510 -0.1156 -0.4121
 2731SOL    HW118527   3.869   1.353   3.114 -0.1600  0.6675 -0.1308
 2731SOL    HW218528   3.770   1.268   3.212  0.1128 -0.4615 -0.8284
 2732SOL     OW18529   3.489   5.494   1.935  0.6522  0.3593  0.8472
 2732SOL    HW118530   3.589   5.499   1.939  0.6516  1.1122 -0.2498
 2732SOL    HW218531   3.456   5.531   1.849 -0.4662 -1.5590  0.4099
 2733SOL     OW18532   2.403   7.985   3.545 -0.6976  0.1122  0.4737
 2733SOL    HW118533   2.472   8.046   3.506 -0.7833  0.4433  0.8385
 2733SOL    HW218534   2.319   7.992   3.492 -0.2911 -0.6946 -0.3016
 2734SOL     OW18535   0.770   7.477   1.867  0.2230 -0.2956  0.2633
 2734SOL    HW118536   0.828   7.396   1.854 -0.1864 -0.5743  0.1987
 2734SOL    HW218537   0.817   7.557   1.830  2.3634  0.1773  3.7457
 2735SOL     OW18538   3.832   3.973   3.180 -0.1428  0.5794  0.8139
 2735SOL    HW118539   3.768   3.920   3.124 -1.1003  1.4283  1.0845
 2735SOL    HW218540   3.847   3.926   3.267  1.4972 -0.8435 -0.1848
 2736SOL     OW18541   2.907   4.706   0.831  0.7350  0.2456 -0.2799
 2736SOL    HW118542   2.822   4.698   0.780  1.1101  1.3772 -1.1213
 2736SOL    HW218543   2.964   4.626   0.813  0.2463 -0.0639 -0.4656
 2737SOL     OW18544   8.582   1.768   3.449  0.0548  0.0208  0.0083
 2737SOL    HW118545   8.562   1.860   3.417  1.9838 -0.0781 -1.5850
 2737SOL    HW218546   8.655   1.771   3.517  0.9072 -0.4363 -0.8828
 2738SOL     OW18547   2.154   4.876   3.804  0.1998 -0.3866  0.0045
 2738SOL    HW118548   2.130   4.814   3.879  1.0135 -0.1826  0.4531
 2738SOL    HW218549   2.135   4.833   3.716 -0.7508 -0.6360  0.3329
 2739SOL     OW18550   9.389   1.790   3.298  0.3990  0.3006  0.3562
 2739SOL    HW118551   9.429   1.812   3.209  0.4680 -0.5090  0.1894
 2739SOL    HW218552   9.344   1.872   3.334  0.7456  0.7552 -0.2177
 2740SOL     OW18553   4.072   3.120   1.555 -1.0285 -0.2282 -0.0312
 2740SOL    HW118554   4.031   3.073   1.477 -0.7535 -0.6180  0.0540
 2740SOL    HW218555   4.013   3.194   1.585 -3.7345 -3.3630  2.7402
 2741SOL     OW18556   9.499   8.592   0.236  0.0685 -0.4158  0.0136
 2741SOL    HW118557   9.555   8.654   0.292 -1.1697 -1.3371  2.3610
 2741SOL    HW218558   9.424   8.643   0.194  0.0969  0.0063  0.4727
 2742SOL     OW18559   2.361   2.715   2.182 -0.1445 -0.6041  0.4611
 2742SOL    HW118560   2.269   2.726   2.143  0.7733  2.6658 -0.9692
 2742SOL    HW218561   2.369   2.772   2.263  0.4158 -1.4432  0.9979
 2743SOL     OW18562   2.460   5.450   3.460  0.5168  0.0233  0.1967
 2743SOL    HW118563   2.499   5.475   3.549  0.4641 -0.0974  0.2539
 2743SOL    HW218564   2.391   5.519   3.434  0.5479  0.0706  0.2389
 2744SOL     OW18565   9.838   3.118   3.389  0.3654 -0.1903  0.7003
 2744SOL    HW118566   9.863   3.207   3.350  0.2627  0.5608  2.2896
 2744SOL    HW218567   9.740   3.116   3.407  0.4881 -0.3207  1.3808
 2745SOL     OW18568   3.049   9.424   2.956 -0.0653  0.8021  0.0108
 2745SOL    HW118569   3.079   9.361   2.885  0.2148  1.9656 -0.9247
 2745SOL    HW218570   3.012   9.507   2.914 -1.3716  0.8449  1.2064
 2746SOL     OW18571   2.819   1.995   0.682  0.3492 -0.2584 -0.2761
 2746SOL    HW118572   2.765   2.074   0.709  0.0458 -0.0290 -1.5383
 2746SOL    HW218573   2.767   1.911   0.699  1.0425 -0.2622  1.9655
 2747SOL     OW18574   7.864   8.352   0.624 -0.3083  0.7349  0.2924
 2747SOL    HW118575   7.927   8.395   0.560  0.4940 -0.4816  0.2522
 2747SOL    HW218576   7.909   8.273   0.667 -1.9326 -0.3574  0.0002
 2748SOL     OW18577   7.198   9.196   3.764 -0.4417  0.4624 -0.1997
 2748SOL    HW118578   7.137   9.237   3.696  0.3909 -0.3936 -1.4708
 2748SOL    HW218579   7.143   9.151   3.835 -1.3048  1.3255 -0.3059
 2749SOL     OW18580   2.818   2.841   1.264 -0.1141 -0.5093  0.7043
 2749SOL    HW118581   2.876   2.921   1.246  0.5236 -0.9589  0.7379
 2749SOL    HW218582   2.868   2.758   1.241 -1.1303 -0.8620 -0.2807
 2750SOL     OW18583   2.679   9.519   1.528 -0.2482 -0.2989  0.2653
 2750SOL    HW118584   2.699   9.431   1.572  1.7994 -0.5956 -1.1794
 2750SOL    HW218585   2.737   9.590   1.569 -0.9862  0.1466  0.5523
 2751SOL     OW18586   2.366   1.225   0.940  0.4020  0.5766 -0.3679
 2751SOL    HW118587   2.399   1.132   0.924 -0.7160  0.1758 -0.3709
 2751SOL    HW218588   2.267   1.223   0.954  0.0604  2.0165 -2.4624
 2752SOL     OW18589   3.745   3.404   0.830 -0.2004  0.0647  0.2405
 2752SOL    HW118590   3.841   3.405   0.801 -0.2906  1.0488 -0.0253
 2752SOL    HW218591   3.718   3.309   0.850  0.7140 -0.2647 -0.0304
 2753SOL     OW18592   8.899   9.907   2.062  0.7910  0.5694 -0.2280
 2753SOL    HW118593   8.884   9.906   1.964  0.1938 -0.0954 -0.1359
 2753SOL    HW218594   8.858   9.988   2.102  0.8652  0.7414 -0.5021
 2754SOL     OW18595   1.971   6.321   4.018 -0.2683 -0.1997 -0.0251
 2754SOL    HW118596   1.992   6.322   3.920 -0.1324 -0.2011  0.0035
 2754SOL    HW218597   1.878   6.354   4.033 -0.1278  0.2413 -0.1181
 2755SOL     OW18598   7.556   9.799   1.937  0.2955  0.0029 -0.3407
 2755SOL    HW118599   7.628   9.809   2.005 -0.6689 -1.1765  0.8739
 2755SOL    HW218600   7.481   9.862   1.959  0.7058  0.8211 -1.2750
 2756SOL     OW18601   9.761   0.080   0.618  0.6040  0.0481  0.1499
 2756SOL    HW118602   9.827   0.069   0.544  0.1244 -0.7313 -0.1683
 2756SOL    HW218603   9.793   0.034   0.700  0.3319 -0.5685 -0.0863
 2757SOL     OW18604   1.730   7.046   1.521  0.0437 -0.0687  0.1209
 2757SOL    HW118605   1.785   7.005   1.449 -1.0730 -2.6517  0.6720
 2757SOL    HW218606   1.637   7.009   1.518  0.1161 -0.6709  3.1915
 2758SOL     OW18607   9.645   9.438   2.138  0.1301  0.1409 -0.4478
 2758SOL    HW118608   9.674   9.504   2.207 -1.2410  0.4771 -0.1778
 2758SOL    HW218609   9.562   9.392   2.170  0.1115 -0.4862 -1.3942
 2759SOL     OW18610   3.911   9.402   2.111  0.0051  0.0002 -0.7100
 2759SOL    HW118611   3.920   9.325   2.048  1.1680 -0.4722  0.0138
 2759SOL    HW218612   3.814   9.419   2.129 -0.2719 -1.2071 -0.9910
 2760SOL     OW18613   4.837   9.874   4.037  0.1259  0.0210  0.2267
 2760SOL    HW118614   4.786   9.795   4.004 -0.3149  0.9843 -1.4627
 2760SOL    HW218615   4.908   9.897   3.970 -0.5493  1.8043  0.1141
 2761SOL     OW18616   2.950   3.357   3.943 -0.3443 -0.2469 -0.6725
 2761SOL    HW118617   3.034   3.372   3.891 -0.0301 -0.1306 -0.1343
 2761SOL    HW218618   2.871   3.384   3.888  0.0726  1.2614 -0.5565
 2762SOL     OW18619   9.871   2.673   1.091 -0.2827 -0.6087  0.3825
 2762SOL    HW118620   9.956   2.697   1.045 -0.5847 -1.4647 -0.6290
 2762SOL    HW218621   9.887   2.598   1.155 -0.3738 -1.1163 -0.1848
 2763SOL     OW18622   8.150   1.316   3.406  0.0692 -0.2461 -0.5200
 2763SOL    HW118623   8.234   1.320   3.460  0.5718  1.2074 -1.3745
 2763SOL    HW218624   8.151   1.234   3.348  1.3570  0.2663 -1.2391
 2764SOL     OW18625   7.726   8.688   0.753  0.0825  0.2603  0.2614
 2764SOL    HW118626   7.626   8.680   0.759 -0.0593  1.3713 -0.5116
 2764SOL    HW218627   7.768   8.600   0.777 -1.1652 -0.9536 -1.8429
 2765SOL     OW18628   1.406   8.030   2.177 -0.0633 -0.4455 -0.1362
 2765SOL    HW118629   1.318   7.986   2.157 -1.0687  0.9985  1.0000
 2765SOL    HW218630   1.422   8.030   2.276  1.0227 -0.3371 -0.3083
 2766SOL     OW18631   2.271   3.632   0.307  0.1035  0.3141  0.1336
 2766SOL    HW118632   2.274   3.581   0.393  0.0462 -1.3499 -0.8379
 2766SOL    HW218633   2.178   3.665   0.291  0.1317  0.6962  0.7474
 2767SOL     OW18634   2.314   5.368   2.809 -0.1472 -0.2934  0.1136
 2767SOL    HW118635   2.325   5.315   2.725  0.7233 -2.1663  1.3897
 2767SOL    HW218636   2.282   5.308   2.882 -3.7894  1.8942  0.4472
 2768SOL     OW18637   0.706   0.915   1.039 -0.3129 -0.1198 -0.1725
 2768SOL    HW118638   0.800   0.914   1.005 -0.1277  1.9226  0.2396
 2768SOL    HW218639   0.692   0.994   1.098 -1.6819 -1.5853  1.5674
 2769SOL     OW18640   0.540   9.817   3.402  0.0747 -0.4695 -0.0405
 2769SOL    HW118641   0.623   9.852   3.446 -0.2771 -0.6217  0.7695
 2769SOL    HW218642   0.521   9.870   3.320 -0.2678  1.0808  1.0040
 2770SOL     OW18643   0.457   2.679   1.971  0.5313  0.3509 -0.1125
 2770SOL    HW118644   0.493   2.594   2.009 -0.4884  0.4092  1.0274
 2770SOL    HW218645   0.516   2.710   1.896 -0.0026 -2.2296 -1.6640
 2771SOL     OW18646   2.345   3.640   3.430  0.0683 -0.2221 -0.4862
 2771SOL    HW118647   2.370   3.590   3.513  0.4269 -0.7607 -0.9226
 2771SOL    HW218648   2.249   3.621   3.408  0.1434 -0.5495 -0.5344
 2772SOL     OW18649   7.356   9.492   1.886  0.0534 -0.6381 -0.5237
 2772SOL    HW118650   7.344   9.542   1.971 -2.2553  0.0353 -1.2153
 2772SOL    HW218651   7.420   9.542   1.827  1.1055 -0.7461  0.5104
 2773SOL     OW18652   8.094   2.179   0.531 -0.2618  0.2442 -0.4253
 2773SOL    HW118653   8.176   2.151   0.580 -0.6273 -0.5683 -0.2642
 2773SOL    HW218654   8.058   2.263   0.572 -0.9121 -0.7496  1.1200
 2774SOL     OW18655   2.246   4.264   0.554  0.4622  0.1852 -0.0524
 2774SOL    HW118656   2.191   4.197   0.604 -1.5202  1.6433 -0.2181
 2774SOL    HW218657   2.251   4.350   0.606  1.8356  0.3781 -0.4671
 2775SOL     OW18658   0.791   2.768   2.007  0.6274 -0.6987 -0.0059
 2775SOL    HW118659   0.746   2.739   1.922  0.9244  0.0813 -0.4364
 2775SOL    HW218660   0.790   2.868   2.013  0.6633 -0.7451  0.8823
 2776SOL     OW18661   6.095   9.094   2.064 -0.0706 -1.0765  0.1194
 2776SOL    HW118662   6.103   9.139   2.153  0.2419  1.1862 -0.9988
 2776SOL    HW218663   5.999   9.093   2.035 -0.0269 -0.7078 -0.0454
 2777SOL     OW18664   2.889   2.312   3.945 -0.8522  0.0431 -0.0834
 2777SOL    HW118665   2.809   2.355   3.987 -1.4249  0.1187 -1.2262
 2777SOL    HW218666   2.863   2.222   3.909  0.1751 -0.9881  1.6937
 2778SOL     OW18667   8.791   2.544   2.781 -0.1131 -0.6839 -0.1259
 2778SOL    HW118668   8.764   2.584   2.694  0.9801  1.5537  0.5369
 2778SOL    HW218669   8.874   2.488   2.768 -1.0842 -1.9829 -0.8640
 2779SOL     OW18670   8.792   9.206   1.614 -0.1261  0.0225  0.0640
 2779SOL    HW118671   8.772   9.267   1.691  0.5270 -0.3712  0.5497
 2779SOL    HW218672   8.775   9.255   1.528  0.4448  0.9062  0.4473
 2780SOL     OW18673   1.212   2.741   2.110  0.0234 -0.1565 -0.2838
 2780SOL    HW118674   1.275   2.766   2.184 -0.0948 -0.7471  0.0103
 2780SOL    HW218675   1.252   2.667   2.056 -0.4655 -0.5906 -0.0432
 2781SOL     OW18676   3.496   3.392   3.038  0.4090  0.6301 -0.0563
 2781SOL    HW118677   3.472   3.297   3.019  0.3584  0.5835  0.2334
 2781SOL    HW218678   3.594   3.398   3.057  0.4971  0.7077 -0.5261
 2782SOL     OW18679   3.657   5.412   3.203 -0.3520  0.5731 -0.8304
 2782SOL    HW118680   3.743   5.408   3.152 -0.4827  3.2301 -1.2796
 2782SOL    HW218681   3.600   5.334   3.178  2.2929 -1.8084  0.2032
 2783SOL     OW18682   0.871   1.590   3.450 -0.6902  0.2254  0.0088
 2783SOL    HW118683   0.867   1.573   3.548 -1.5830  0.7599  0.0693
 2783SOL    HW218684   0.891   1.505   3.402  2.8488  0.5112  0.8491
 2784SOL     OW18685   9.098   3.616   1.495  0.3560  0.4309  0.2019
 2784SOL    HW118686   9.106   3.549   1.421 -0.3218  0.6363 -0.0626
 2784SOL    HW218687   9.034   3.583   1.563 -0.2336  0.9558 -0.0929
 2785SOL     OW18688   6.806   9.262   4.041  0.0089 -0.3605  0.2959
 2785SOL    HW118689   6.711   9.231   4.035 -0.4026  0.2795  3.1051
 2785SOL    HW218690   6.818   9.345   3.986 -0.7827 -0.9848 -0.8502
 2786SOL     OW18691   8.537   7.056   0.474  0.3586  0.3756  0.0251
 2786SOL    HW118692   8.581   7.009   0.398  0.5317  1.5447 -0.6125
 2786SOL    HW218693   8.568   7.016   0.560  1.2042 -0.0615 -0.4691
 2787SOL     OW18694   8.982   4.057   0.344  0.7081  0.4094 -0.0486
 2787SOL    HW118695   8.950   4.117   0.271  0.6465  1.3272  0.7198
 2787SOL    HW218696   9.082   4.055   0.344  0.6905 -0.3173 -0.7430
 2788SOL     OW18697   8.641   4.507   0.540 -0.2793  0.1583  0.1942
 2788SOL    HW118698   8.717   4.443   0.537  0.6724  1.2542  0.5128
 2788SOL    HW218699   8.675   4.600   0.558 -1.7556  0.5259  1.2604
 2789SOL     OW18700   0.636   0.731   0.543  0.5025  0.1171  0.4732
 2789SOL    HW118701   0.622   0.822   0.581 -1.8908 -0.3388  0.8081
 2789SOL    HW218702   0.718   0.690   0.583  0.0019  1.0136  2.5003
 2790SOL     OW18703   0.486   9.634   2.577 -0.5519  0.1370 -0.7917
 2790SOL    HW118704   0.387   9.647   2.583 -0.6866  0.8591 -3.6550
 2790SOL    HW218705   0.507   9.537   2.572 -1.0216 -0.0615  0.9566
 2791SOL     OW18706   1.989   8.090   0.655  0.3773  0.4103 -0.4856
 2791SOL    HW118707   2.086   8.111   0.669  1.0031 -0.9711 -2.4548
 2791SOL    HW218708   1.953   8.149   0.583 -0.8165  2.3061  1.5969
 2792SOL     OW18709   9.948   1.997   2.027  0.4119 -0.0845  0.4825
 2792SOL    HW118710   9.899   1.971   1.943  0.6135 -0.9240  0.6191
 2792SOL    HW218711   9.912   2.084   2.061 -0.9875 -0.6787  0.5691
 2793SOL     OW18712   2.187   0.653   3.835  0.3220 -0.4976  1.0101
 2793SOL    HW118713   2.185   0.718   3.758 -0.6022 -0.8383  0.7367
 2793SOL    HW218714   2.258   0.585   3.819  1.2654  0.4052  1.2727
 2794SOL     OW18715   4.341   7.252   2.958 -0.2608  0.2364 -0.4840
 2794SOL    HW118716   4.267   7.262   2.892 -0.4840 -1.3281 -0.5043
 2794SOL    HW218717   4.370   7.156   2.960  0.5522  0.4991  0.8262
 2795SOL     OW18718   9.652   1.699   1.200  0.0687  0.1246 -0.9605
 2795SOL    HW118719   9.691   1.610   1.224 -1.1834  0.4296  2.6157
 2795SOL    HW218720   9.689   1.768   1.262 -3.7452  0.9375  0.5717
 2796SOL     OW18721   8.272   0.083   0.443 -0.3126 -0.3087 -0.2948
 2796SOL    HW118722   8.227   0.033   0.517 -2.1312  1.2487 -0.3384
 2796SOL    HW218723   8.228   0.062   0.357  0.5404 -0.5570 -0.6811
 2797SOL     OW18724   3.796   0.060   3.106  0.0298 -0.1158 -0.2783
 2797SOL    HW118725   3.769   0.029   3.015  1.5286 -0.9506 -0.4613
 2797SOL    HW218726   3.820  -0.020   3.162 -2.0239  0.3007  1.2449
 2798SOL     OW18727   2.567   3.334   2.473  0.3961 -0.4175 -0.1507
 2798SOL    HW118728   2.557   3.433   2.487  1.0507 -0.0445 -2.2292
 2798SOL    HW218729   2.567   3.289   2.562 -1.9223  1.2389  0.7483
 2799SOL     OW18730   9.303   9.211   3.186  0.4610  0.2715  0.0372
 2799SOL    HW118731   9.205   9.232   3.185 -0.1069 -2.0764 -2.8945
 2799SOL    HW218732   9.322   9.147   3.259 -0.4506 -0.2501 -0.1649
 2800SOL     OW18733   3.249   4.010   1.042  0.2145 -0.5437 -0.2038
 2800SOL    HW118734   3.315   4.029   0.968 -0.2644 -1.7916 -0.9648
 2800SOL    HW218735   3.298   4.001   1.128  0.6523  2.3294 -0.0959
 2801SOL     OW18736   4.662   1.104   1.784  0.1029  0.1129 -0.1555
 2801SOL    HW118737   4.726   1.063   1.719  0.1243  0.6012 -0.4496
 2801SOL    HW218738   4.697   1.092   1.877  0.1853 -0.3947 -0.2521
 2802SOL     OW18739   0.010   0.360   3.363 -0.1732 -0.2870 -0.0384
 2802SOL    HW118740   0.031   0.342   3.267  1.5823 -0.7509  0.4052
 2802SOL    HW218741   0.017   0.458   3.381  0.6376 -0.3281 -0.1241
 2803SOL     OW18742   9.455   8.146   1.742 -0.2846  0.1425 -0.4408
 2803SOL    HW118743   9.545   8.177   1.711 -0.5514  0.0886 -1.2953
 2803SOL    HW218744   9.454   8.141   1.841  0.2856  1.2871 -0.3609
 2804SOL     OW18745   8.160   8.386   0.424  0.6445  0.2649  0.2050
 2804SOL    HW118746   8.153   8.286   0.427 -0.8126  0.3514 -0.2278
 2804SOL    HW218747   8.168   8.416   0.329 -0.0412  0.6349  0.2622
 2805SOL     OW18748   8.539   0.040   1.941 -0.1462  0.1077  0.5798
 2805SOL    HW118749   8.495   0.129   1.939  1.2088  0.8054  1.2989
 2805SOL    HW218750   8.506  -0.013   2.019 -2.5963 -0.9169 -1.0642
 2806SOL     OW18751   9.481   0.953   0.672  0.2681 -0.5122 -0.2950
 2806SOL    HW118752   9.532   0.933   0.588  0.8944 -0.1522 -0.0118
 2806SOL    HW218753   9.396   0.902   0.673  0.6586 -1.1827 -0.7554
 2807SOL     OW18754   3.185   8.673   1.153  0.0100  0.0727 -0.7876
 2807SOL    HW118755   3.181   8.695   1.056 -1.7551  2.1957 -0.2890
 2807SOL    HW218756   3.243   8.593   1.168 -1.0389 -1.2583 -3.7344
 2808SOL     OW18757   4.717   1.109   2.256  0.0111  0.2792 -0.6267
 2808SOL    HW118758   4.651   1.037   2.279  1.0724 -0.6422 -0.4470
 2808SOL    HW218759   4.745   1.100   2.161  1.6200 -0.7563 -0.0764
 2809SOL     OW18760   8.243   2.725   2.424  0.8374 -0.0910  0.1631
 2809SOL    HW118761   8.183   2.745   2.501  0.2124  2.1697 -0.8732
 2809SOL    HW218762   8.222   2.634   2.388 -1.1261  0.1718  0.5991
 2810SOL     OW18763   3.422   4.927   2.050  0.3486 -0.0483 -0.3124
 2810SOL    HW118764   3.406   4.974   1.962  0.5374 -1.0241 -0.8754
 2810SOL    HW218765   3.499   4.864   2.040  1.2488  0.8239  0.9451
 2811SOL     OW18766   4.482   9.527   1.138 -0.1319  0.1746 -0.0019
 2811SOL    HW118767   4.436   9.458   1.082 -0.7309  1.6385 -1.3492
 2811SOL    HW218768   4.549   9.482   1.196 -1.8814 -1.7697  0.5836
 2812SOL     OW18769   2.422   1.468   2.517 -0.3348  0.0685  0.1375
 2812SOL    HW118770   2.506   1.520   2.527 -0.4536  0.4553 -0.7654
 2812SOL    HW218771   2.350   1.509   2.573 -0.0281 -0.0156  0.5883
 2813SOL     OW18772   4.568   8.732   3.059 -0.2830 -0.9004  0.2723
 2813SOL    HW118773   4.544   8.725   2.962 -1.9372  0.8753  0.5176
 2813SOL    HW218774   4.484   8.743   3.113  0.7034 -0.6036  1.7754
 2814SOL     OW18775   1.308   6.707   0.565 -0.2300  0.5263 -0.1740
 2814SOL    HW118776   1.223   6.713   0.512 -1.0179 -0.7755  0.9142
 2814SOL    HW218777   1.288   6.723   0.661  0.8895  0.9865 -0.0199
 2815SOL     OW18778   2.102   5.468   2.338  0.3266 -0.6412 -0.8731
 2815SOL    HW118779   2.007   5.450   2.314  1.3339 -4.0842 -2.5612
 2815SOL    HW218780   2.151   5.502   2.258  0.2894  2.3213  0.3043
 2816SOL     OW18781   2.161   7.441   1.200  0.1826 -0.5239  0.5859
 2816SOL    HW118782   2.196   7.430   1.107 -0.0699  0.2717  0.3934
 2816SOL    HW218783   2.230   7.409   1.265 -0.0528 -2.0456  0.0938
 2817SOL     OW18784   2.213   7.412   2.318  0.1193  0.0863 -0.2051
 2817SOL    HW118785   2.164   7.442   2.236  0.5110  1.3022 -0.0010
 2817SOL    HW218786   2.150   7.365   2.380 -0.5077  0.5110 -0.5179
 2818SOL     OW18787   9.040   0.014   1.534 -0.1639  0.3931 -0.2554
 2818SOL    HW118788   9.052  -0.010   1.438 -1.6885 -0.6946 -0.1950
 2818SOL    HW218789   9.004   0.107   1.541 -1.8307 -0.1805 -0.8416
 2819SOL     OW18790   3.323   9.151   3.588  0.1835 -0.4651 -0.4584
 2819SOL    HW118791   3.422   9.158   3.583  0.0659  0.8713 -1.4308
 2819SOL    HW218792   3.294   9.059   3.563  1.1504 -0.7415 -0.5622
 2820SOL     OW18793   9.076   0.414   1.386  0.2831  0.2715 -0.9877
 2820SOL    HW118794   9.144   0.478   1.421 -0.2221  1.6593 -2.4702
 2820SOL    HW218795   9.068   0.424   1.287 -0.6979 -1.2262 -1.0787
 2821SOL     OW18796   1.034   9.876   3.284 -0.0469 -0.2129 -0.3519
 2821SOL    HW118797   1.004   9.926   3.203 -1.2663 -1.2389 -0.5568
 2821SOL    HW218798   1.037   9.778   3.263 -2.3301 -0.7220  1.3768
 2822SOL     OW18799   9.969   9.062   3.141  0.4284 -0.2003  0.1937
 2822SOL    HW118800  10.003   8.970   3.123 -1.6103 -0.7287 -1.0890
 2822SOL    HW218801  10.038   9.113   3.194  1.5944 -2.4137  0.8813
 2823SOL     OW18802   4.204   2.182   0.584  0.1893 -0.2582  0.1817
 2823SOL    HW118803   4.294   2.207   0.619  1.0762 -0.4137 -1.9015
 2823SOL    HW218804   4.166   2.108   0.640  0.4225  1.2178  2.3386
 2824SOL     OW18805   1.388   4.945   3.357  0.1380 -0.2543  0.0369
 2824SOL    HW118806   1.378   5.044   3.353  1.0222 -0.1199  0.8855
 2824SOL    HW218807   1.313   4.906   3.411 -0.7536 -0.1566 -1.1065
 2825SOL     OW18808   6.886   9.608   3.623 -0.5684  0.1282  0.6293
 2825SOL    HW118809   6.952   9.681   3.638 -1.3179  1.0247 -0.3051
 2825SOL    HW218810   6.821   9.636   3.553 -0.9549 -1.3913  0.3498
 2826SOL     OW18811   3.554   3.593   3.262 -0.2549  0.2031  0.1423
 2826SOL    HW118812   3.496   3.536   3.204 -0.2283  0.6530 -0.3239
 2826SOL    HW218813   3.498   3.659   3.311 -0.2356  0.0609  0.3581
 2827SOL     OW18814   1.652   5.694   0.334 -0.0802  0.2445 -0.0706
 2827SOL    HW118815   1.635   5.698   0.236  0.3432  0.5910 -0.1272
 2827SOL    HW218816   1.739   5.738   0.355 -0.0566 -0.0401  0.4311
 2828SOL     OW18817   3.863   2.539   0.249 -0.2213 -0.0671  0.6164
 2828SOL    HW118818   3.851   2.502   0.341 -0.9936  0.1885  0.6257
 2828SOL    HW218819   3.875   2.464   0.184  0.8463 -0.2277  0.9939
 2829SOL     OW18820   2.580   8.747   3.017  0.0122 -0.4866 -0.2254
 2829SOL    HW118821   2.585   8.715   3.111 -0.2862 -0.7906 -0.3142
 2829SOL    HW218822   2.515   8.824   3.011 -1.1420 -1.4653 -0.4616
 2830SOL     OW18823   3.774   1.091   1.883  1.0071 -0.2033  0.4218
 2830SOL    HW118824   3.682   1.084   1.922  1.2428  1.9390  1.4302
 2830SOL    HW218825   3.778   1.039   1.798 -1.9626  1.8945 -1.0791
 2831SOL     OW18826   1.590   1.901   2.770 -0.4098  0.5808 -0.3484
 2831SOL    HW118827   1.566   1.804   2.759 -1.8065  1.1377 -2.4976
 2831SOL    HW218828   1.664   1.909   2.836 -0.1984 -1.9718 -0.2063
 2832SOL     OW18829   2.078   8.544   2.983 -0.1315 -0.4004 -0.4829
 2832SOL    HW118830   2.172   8.537   3.019 -0.5558 -2.2713  0.3294
 2832SOL    HW218831   2.077   8.516   2.887  0.4853  1.6350 -1.0970
 2833SOL     OW18832   8.801   2.477   3.063 -0.2532  0.1124 -0.6150
 2833SOL    HW118833   8.724   2.417   3.084 -1.5977  1.8488 -0.4519
 2833SOL    HW218834   8.790   2.515   2.972 -0.4905  1.7177  0.0703
 2834SOL     OW18835   4.326   9.488   0.474  0.1865  0.2284  0.5176
 2834SOL    HW118836   4.356   9.438   0.556 -0.8241  0.8195  1.2642
 2834SOL    HW218837   4.369   9.448   0.393 -1.1049 -2.3114  1.0247
 2835SOL     OW18838   7.456   0.247   1.412 -0.1770 -0.4385 -0.4512
 2835SOL    HW118839   7.435   0.327   1.356 -0.9241 -0.3784 -0.1002
 2835SOL    HW218840   7.554   0.227   1.407  0.0705  0.6992 -0.2705
 2836SOL     OW18841   0.008   1.065   3.175 -0.3909  0.1558  0.4398
 2836SOL    HW118842  -0.081   1.023   3.160  0.3997 -1.4279  0.1158
 2836SOL    HW218843   0.031   1.123   3.096  1.0879 -3.4445 -1.9011
 2837SOL     OW18844   9.689   9.621   2.336 -0.1698  0.4305 -0.2639
 2837SOL    HW118845   9.612   9.642   2.396  0.0170  1.1708 -0.2848
 2837SOL    HW218846   9.774   9.620   2.389 -0.2197 -0.6356 -0.1940
 2838SOL     OW18847   0.819   7.127   2.255  0.3139 -0.4185 -0.4902
 2838SOL    HW118848   0.796   7.225   2.258  1.2514 -0.2460  1.8633
 2838SOL    HW218849   0.736   7.074   2.235 -0.1397  0.8420 -2.1464
 2839SOL     OW18850   8.718   3.651   0.917  0.9152 -0.1818  0.1129
 2839SOL    HW118851   8.658   3.585   0.963  0.3781  0.3884  0.2432
 2839SOL    HW218852   8.778   3.694   0.984 -0.4339  1.2474  0.4293
 2840SOL     OW18853   2.911   0.543   1.622  0.4329  0.0301  0.1631
 2840SOL    HW118854   2.925   0.526   1.720  0.9794  1.3284  0.3318
 2840SOL    HW218855   2.989   0.506   1.571  0.9651  0.8202  0.3901
 2841SOL     OW18856   3.219   5.353   1.971  0.3941  0.0901  0.2733
 2841SOL    HW118857   3.293   5.417   1.993 -0.6054  1.3293  0.0738
 2841SOL    HW218858   3.169   5.386   1.891 -0.3465 -0.7670  0.3746
 2842SOL     OW18859   9.252   3.761   0.372  0.4914  0.5365  0.6030
 2842SOL    HW118860   9.194   3.703   0.314  1.5891 -0.2512  0.2698
 2842SOL    HW218861   9.241   3.736   0.468 -0.7848  1.3504  0.6783
 2843SOL     OW18862   2.603   8.400   1.481  0.4782 -0.7996 -0.0229
 2843SOL    HW118863   2.697   8.433   1.468  0.4342  0.0918  1.7472
 2843SOL    HW218864   2.605   8.312   1.529  0.3852  0.0831  1.6547
 2844SOL     OW18865   7.808   1.653   2.229 -0.2835  0.2978 -0.0687
 2844SOL    HW118866   7.814   1.601   2.143  0.3583  1.6588 -0.8643
 2844SOL    HW218867   7.718   1.639   2.270 -0.0868 -1.5052 -0.2263
 2845SOL     OW18868   1.370   7.679   1.158  0.2498 -0.3597 -0.0954
 2845SOL    HW118869   1.412   7.595   1.193  0.4674 -0.7559 -1.2976
 2845SOL    HW218870   1.275   7.684   1.189 -0.1338 -1.6608 -1.0108
 2846SOL     OW18871   8.993   2.929   2.916  0.2535  0.0591 -0.2497
 2846SOL    HW118872   8.899   2.896   2.903  0.0646  0.7624 -0.6473
 2846SOL    HW218873   9.049   2.902   2.838 -0.2618  2.0042 -1.2971
 2847SOL     OW18874   0.654   2.076   1.125 -0.4992  0.3560 -0.2869
 2847SOL    HW118875   0.622   1.990   1.165 -0.8904  0.3536 -0.6023
 2847SOL    HW218876   0.738   2.106   1.171 -0.2456 -0.3049 -0.3240
 2848SOL     OW18877   4.522   8.651   0.802  0.8800 -0.0291 -0.3236
 2848SOL    HW118878   4.480   8.660   0.892 -3.8594  0.2951 -2.3848
 2848SOL    HW218879   4.559   8.558   0.792  3.1713  0.5202  2.5580
 2849SOL     OW18880   4.590   0.646   0.004 -0.0619  0.3774  0.0634
 2849SOL    HW118881   4.642   0.576  -0.046  0.5448  1.0265 -0.2229
 2849SOL    HW218882   4.643   0.731   0.007 -0.6414  0.7194  0.7225
 2850SOL     OW18883   0.020   0.326   3.091 -0.2190  0.6299 -0.0288
 2850SOL    HW118884   0.067   0.375   3.018 -1.1340  2.2871  0.4794
 2850SOL    HW218885  -0.031   0.249   3.053  0.4306  0.6535 -0.9562
 2851SOL     OW18886   9.605   0.041   3.927  0.2858  0.4294 -0.1279
 2851SOL    HW118887   9.601  -0.017   3.846  1.5030  1.1665 -0.7145
 2851SOL    HW218888   9.534   0.012   3.991  0.4270 -1.2630 -0.7100
 2852SOL     OW18889   7.213   8.721   0.850  0.7856  0.2118 -0.2619
 2852SOL    HW118890   7.201   8.780   0.930 -1.0635 -1.4537  0.7591
 2852SOL    HW218891   7.160   8.758   0.774 -0.7353 -0.2907  0.5071
 2853SOL     OW18892   4.950   7.798   1.362  0.6468 -0.5688 -0.1645
 2853SOL    HW118893   4.942   7.832   1.269  0.1498  0.0280  0.0943
 2853SOL    HW218894   4.957   7.874   1.426  1.6192 -0.9821  0.2340
 2854SOL     OW18895   0.772   4.073   2.096  0.0630  0.3523 -0.3637
 2854SOL    HW118896   0.785   4.173   2.099  2.4413  0.1076 -1.6243
 2854SOL    HW218897   0.806   4.038   2.009 -1.8756 -1.4307 -0.4111
 2855SOL     OW18898   9.829   9.955   0.849 -0.7735 -0.6089 -0.1526
 2855SOL    HW118899   9.774   9.950   0.932  0.5084 -1.4229  0.6687
 2855SOL    HW218900   9.925   9.939   0.872  0.0207  2.1456 -1.3631
 2856SOL     OW18901   2.978   4.399   2.490 -0.3730  0.3468  0.2745
 2856SOL    HW118902   3.062   4.431   2.536 -0.6878 -1.0610  1.8870
 2856SOL    HW218903   2.950   4.312   2.530 -1.9356  0.1992 -1.1106
 2857SOL     OW18904   2.858   3.999   3.690 -0.4610 -0.1331 -0.0718
 2857SOL    HW118905   2.849   4.095   3.715 -0.7686 -0.6531  1.8838
 2857SOL    HW218906   2.951   3.981   3.659 -0.2400  0.6712  0.1263
 2858SOL     OW18907   0.398   9.882   0.538 -0.1022  0.1102  0.1012
 2858SOL    HW118908   0.466   9.939   0.492 -0.0079 -0.1035 -0.0254
 2858SOL    HW218909   0.317   9.937   0.557  0.0905  0.3570  0.2202
 2859SOL     OW18910   4.218   1.178   1.203 -0.3656 -0.1241 -0.1034
 2859SOL    HW118911   4.257   1.204   1.291 -2.3425  1.2511  0.4099
 2859SOL    HW218912   4.275   1.212   1.129  1.6682 -1.8629  0.6265
 2860SOL     OW18913   4.195   8.778   2.099 -0.1341 -0.0048 -0.2721
 2860SOL    HW118914   4.103   8.810   2.075 -0.4282  0.2418  1.1348
 2860SOL    HW218915   4.254   8.783   2.019 -1.5395 -0.8740 -1.3815
 2861SOL     OW18916   9.363   1.721   1.730 -0.2748  0.5318 -0.2900
 2861SOL    HW118917   9.299   1.769   1.791 -0.2978 -2.0333  1.7627
 2861SOL    HW218918   9.455   1.725   1.768 -0.0161  0.1946 -0.8723
 2862SOL     OW18919   7.340   1.170   3.797 -0.5745  0.0348 -0.2107
 2862SOL    HW118920   7.343   1.267   3.774  1.3671 -0.5363 -2.5718
 2862SOL    HW218921   7.283   1.122   3.731  0.4534 -0.7868 -0.5213
 2863SOL     OW18922   8.573   2.629   1.059  0.4910  0.0175  0.0040
 2863SOL    HW118923   8.620   2.550   1.098  1.1263  0.3703 -0.0461
 2863SOL    HW218924   8.599   2.712   1.108  2.6226  0.7273 -2.1889
 2864SOL     OW18925   8.521   2.017   2.251 -0.2171 -0.2678  0.4653
 2864SOL    HW118926   8.544   2.001   2.155  0.9506 -0.9378  0.8449
 2864SOL    HW218927   8.553   1.940   2.306 -2.6675 -0.8444  1.1451
 2865SOL     OW18928   8.802   8.526   2.237  0.1897  0.1607 -0.0800
 2865SOL    HW118929   8.835   8.447   2.184 -0.7093 -0.6844  0.6018
 2865SOL    HW218930   8.793   8.500   2.333 -0.9839  0.8180 -0.0046
 2866SOL     OW18931   4.211   8.576   2.943  0.3425  0.0415  0.0905
 2866SOL    HW118932   4.274   8.580   2.865  1.0650 -1.3676  0.5772
 2866SOL    HW218933   4.249   8.629   3.019  0.0399  0.7272 -0.2354
 2867SOL     OW18934   2.938   9.265   2.456  0.6423  0.3246  0.1328
 2867SOL    HW118935   2.938   9.193   2.525 -0.3360 -0.1707 -0.3794
 2867SOL    HW218936   2.930   9.354   2.500  1.3880  0.0964  0.7360
 2868SOL     OW18937   4.615   8.443   3.212 -0.1664 -0.6058  0.0606
 2868SOL    HW118938   4.601   8.533   3.172  1.3159 -0.4197 -0.0448
 2868SOL    HW218939   4.537   8.421   3.271 -2.2048 -0.7269 -2.5670
 2869SOL     OW18940   0.519   0.265   3.533  0.2321 -0.1688  0.3330
 2869SOL    HW118941   0.508   0.275   3.434  0.3825  2.2299  0.5225
 2869SOL    HW218942   0.592   0.199   3.552  0.9701  0.1776 -1.1696
 2870SOL     OW18943   9.203   9.424   2.650  0.9300 -0.6325  0.9194
 2870SOL    HW118944   9.263   9.360   2.698  3.8973  0.6217 -0.9605
 2870SOL    HW218945   9.187   9.391   2.557 -0.4330 -0.4208  1.0739
 2871SOL     OW18946   1.787   3.615   3.493  0.2078 -0.0082  0.1291
 2871SOL    HW118947   1.856   3.584   3.557  0.7058 -1.2641 -0.9850
 2871SOL    HW218948   1.758   3.708   3.517  1.9469  0.3664  0.8674
 2872SOL     OW18949   1.910   0.079   3.933  0.2935 -0.4203 -0.2851
 2872SOL    HW118950   1.862  -0.008   3.941  0.4931 -0.5069 -0.0307
 2872SOL    HW218951   1.851   0.153   3.966 -0.9740 -0.0965 -3.1319
 2873SOL     OW18952   3.367   7.231   1.486  0.2962  0.2095  0.3814
 2873SOL    HW118953   3.304   7.294   1.440  0.6330  1.0667  1.0589
 2873SOL    HW218954   3.356   7.241   1.585 -1.3893 -2.5973  0.5232
 2874SOL     OW18955   3.724   7.701   2.402 -0.3225  0.3071  0.2309
 2874SOL    HW118956   3.798   7.737   2.345  1.0625 -0.4243  1.5265
 2874SOL    HW218957   3.676   7.630   2.353  0.0008  0.6133 -0.5387
 2875SOL     OW18958   2.408   0.800   1.190 -0.2624  0.5280  0.3997
 2875SOL    HW118959   2.484   0.756   1.141 -0.2316  1.2652 -0.2173
 2875SOL    HW218960   2.430   0.896   1.207 -0.4444  0.3808  1.5185
 2876SOL     OW18961   1.097   7.563   3.967  0.0104 -0.2145 -0.4137
 2876SOL    HW118962   1.062   7.490   3.910 -1.4000  2.0691 -2.5566
 2876SOL    HW218963   1.195   7.575   3.950 -0.4176  0.5029 -2.4344
 2877SOL     OW18964   3.871   8.742   2.317  0.0903 -0.3039 -0.0460
 2877SOL    HW118965   3.949   8.691   2.353 -0.1373 -0.3871  0.3328
 2877SOL    HW218966   3.853   8.821   2.375  1.5303  1.2102 -1.5918
 2878SOL     OW18967   1.774   3.964   0.156  0.7474  0.0488 -0.1110
 2878SOL    HW118968   1.873   3.963   0.169  0.8029 -0.8410 -0.5717
 2878SOL    HW218969   1.750   3.906   0.078 -0.0376  1.1828 -0.7391
 2879SOL     OW18970   0.334   9.386   2.047 -0.6415  0.1188  0.3738
 2879SOL    HW118971   0.302   9.336   2.128 -2.0890  0.2985 -0.0714
 2879SOL    HW218972   0.313   9.483   2.057  2.4705  0.7289  1.3864
 2880SOL     OW18973   4.574   9.309   2.969  0.0383  0.0394  0.4535
 2880SOL    HW118974   4.672   9.292   2.958 -0.7883 -3.6413 -2.1897
 2880SOL    HW218975   4.553   9.318   3.066  3.3008  3.4377  0.9713
 2881SOL     OW18976   1.294   3.161   2.326  0.1433 -0.1683  0.2920
 2881SOL    HW118977   1.244   3.224   2.385 -0.5519 -1.0356  0.6464
 2881SOL    HW218978   1.392   3.167   2.345  0.1095  0.9801  0.1390
 2882SOL     OW18979   2.993   9.568   2.049 -0.0010  0.1337  0.0148
 2882SOL    HW118980   2.922   9.501   2.025  0.2781 -0.4673  0.8715
 2882SOL    HW218981   2.950   9.657   2.063 -0.2992  0.2943 -1.7548
 2883SOL     OW18982   3.643   0.245   3.274 -0.0625 -0.1337 -0.3786
 2883SOL    HW118983   3.696   0.184   3.215 -0.2710  0.5665 -1.3117
 2883SOL    HW218984   3.553   0.204   3.292  0.2516 -0.6585  0.0112
 2884SOL     OW18985   3.405   5.154   1.857 -1.2699 -0.6248  0.1025
 2884SOL    HW118986   3.496   5.191   1.841 -0.9591 -1.1028  0.7527
 2884SOL    HW218987   3.347   5.224   1.898 -1.4680 -0.0364 -1.1580
 2885SOL     OW18988   7.329   9.275   1.696 -0.1183 -0.0559  0.6789
 2885SOL    HW118989   7.277   9.199   1.735 -0.2094 -0.5414 -0.3856
 2885SOL    HW218990   7.351   9.341   1.768 -0.1500 -1.0266  1.5825
 2886SOL     OW18991   7.829   2.147   1.247  0.0745  0.4134 -0.2166
 2886SOL    HW118992   7.811   2.245   1.236  1.1086  0.6324  0.0021
 2886SOL    HW218993   7.857   2.108   1.159 -0.2482  0.3294 -0.2833
 2887SOL     OW18994   8.571   9.659   0.523 -0.0242 -0.0507  0.0015
 2887SOL    HW118995   8.613   9.638   0.611  1.3775 -0.9620 -0.8639
 2887SOL    HW218996   8.496   9.724   0.536  0.8200  0.5923  1.7375
 2888SOL     OW18997   2.029   1.824   2.060 -0.2543  0.1031 -0.5129
 2888SOL    HW118998   2.045   1.736   2.016 -1.9797 -1.4221  1.7769
 2888SOL    HW218999   2.096   1.837   2.133 -1.8308 -0.7469  1.1317
 2889SOL     OW19000   6.103   0.062   3.151  0.4915 -0.6937  0.2561
 2889SOL    HW119001   6.177   0.003   3.121  0.3081 -1.4962  1.3643
 2889SOL    HW219002   6.060   0.104   3.071  1.1806 -1.3716 -0.4816
 2890SOL     OW19003   3.926   9.848   2.729 -0.0529 -0.1062 -0.1038
 2890SOL    HW119004   3.980   9.779   2.777 -1.6755 -0.4996  1.2371
 2890SOL    HW219005   3.984   9.899   2.666  1.4206 -1.9007 -0.2439
 2891SOL     OW19006   1.073   0.155   3.845 -0.0872 -0.4998 -0.2445
 2891SOL    HW119007   1.055   0.069   3.893 -0.3662 -0.1781  0.2340
 2891SOL    HW219008   1.137   0.138   3.770  0.8146 -0.9241  0.5918
 2892SOL     OW19009   7.189   1.544   1.791 -0.4879  0.0231  0.3657
 2892SOL    HW119010   7.107   1.532   1.847 -0.3198 -0.6520  0.4745
 2892SOL    HW219011   7.232   1.454   1.775  1.5443  0.6082  2.2814
 2893SOL     OW19012   8.438   8.722   0.927 -0.1219 -0.5636 -0.5344
 2893SOL    HW119013   8.501   8.798   0.948  1.8364 -1.8786 -1.5245
 2893SOL    HW219014   8.427   8.665   1.009  0.5049 -0.6985 -0.5402
 2894SOL     OW19015   1.326   4.625   1.485  0.0070  0.2658 -0.4206
 2894SOL    HW119016   1.409   4.571   1.470  0.8933  1.7584 -0.9832
 2894SOL    HW219017   1.280   4.640   1.397 -1.1730 -1.0210 -0.0430
 2895SOL     OW19018   1.594   5.862   2.268 -0.4076 -0.1542 -0.4258
 2895SOL    HW119019   1.558   5.781   2.222 -2.0987  0.3870 -0.0824
 2895SOL    HW219020   1.647   5.917   2.203 -3.6475  1.1534 -2.0774
 2896SOL     OW19021   1.078   8.852   1.655 -0.0047  0.0309  0.1917
 2896SOL    HW119022   1.038   8.808   1.574  1.0648 -0.9694  0.2072
 2896SOL    HW219023   1.125   8.784   1.710  2.2676  1.2829 -0.1294
 2897SOL     OW19024   3.121   0.179   2.829  0.3705 -0.5020 -0.0563
 2897SOL    HW119025   3.030   0.161   2.791  0.7909 -0.6444 -0.9997
 2897SOL    HW219026   3.187   0.116   2.790  0.8838 -0.3875  0.6171
 2898SOL     OW19027   0.724   2.482   1.098  0.1934 -0.7403  0.1252
 2898SOL    HW119028   0.792   2.555   1.087  0.4900 -1.3128 -1.9296
 2898SOL    HW219029   0.720   2.427   1.015 -2.5348 -0.9495  0.3591
 2899SOL     OW19030   0.053   2.141   2.964 -0.9075 -0.5585 -0.5025
 2899SOL    HW119031   0.122   2.170   3.030 -3.4490  2.4041  0.9757
 2899SOL    HW219032   0.059   2.042   2.950 -0.6304 -1.3630  4.5342
 2900SOL     OW19033   2.055   7.279   2.480  0.4183  0.1122 -0.3040
 2900SOL    HW119034   1.980   7.345   2.473  1.3063  1.0497 -1.1955
 2900SOL    HW219035   2.040   7.220   2.559 -0.3327  1.4524  0.5779
 2901SOL     OW19036   3.573   7.273   0.272 -0.1213  0.1017  0.4394
 2901SOL    HW119037   3.577   7.221   0.186 -0.2632 -0.0823  0.5433
 2901SOL    HW219038   3.524   7.359   0.257  1.1122  0.7329 -0.0040
 2902SOL     OW19039   9.991   7.490   0.426 -0.1051 -0.4419 -0.0282
 2902SOL    HW119040   9.968   7.552   0.501  1.0529 -2.0690  1.7222
 2902SOL    HW219041   9.907   7.455   0.386 -0.7741  2.2881 -1.0988
 2903SOL     OW19042   0.393   3.681   1.780 -0.4720 -0.3648 -0.2101
 2903SOL    HW119043   0.393   3.760   1.841 -0.6131  0.2623 -1.0255
 2903SOL    HW219044   0.465   3.617   1.809 -0.9570 -0.3779  1.0014
 2904SOL     OW19045   2.722   0.370   2.589 -0.4028  0.2384  0.0696
 2904SOL    HW119046   2.622   0.379   2.587 -0.2121  2.9574  0.8820
 2904SOL    HW219047   2.760   0.405   2.503 -0.2465 -2.9731 -1.2379
 2905SOL     OW19048   0.537   2.830   2.892  0.2268 -0.2389 -0.2630
 2905SOL    HW119049   0.538   2.731   2.906 -0.0314 -0.0072  1.6265
 2905SOL    HW219050   0.443   2.864   2.898  0.5278  0.3845  1.4477
 2906SOL     OW19051   7.591   8.350   0.158 -0.6453 -0.0938  0.4085
 2906SOL    HW119052   7.590   8.340   0.258 -4.2890  1.8796  0.6650
 2906SOL    HW219053   7.561   8.264   0.116  0.1178 -0.6705  1.0074
 2907SOL     OW19054   4.071   2.458   0.016 -0.4259  0.5389 -0.0849
 2907SOL    HW119055   4.063   2.445  -0.083 -1.9152  1.5903 -0.1226
 2907SOL    HW219056   4.034   2.378   0.063  0.8950 -0.2473 -0.3809
 2908SOL     OW19057   1.285   5.248   2.125  0.2106 -0.1792 -0.3494
 2908SOL    HW119058   1.241   5.250   2.035 -0.7605 -3.1880  0.0122
 2908SOL    HW219059   1.351   5.174   2.128 -1.5439 -1.6915  2.1975
 2909SOL     OW19060   3.826   1.082   1.015  0.2095 -0.6096 -0.8089
 2909SOL    HW119061   3.920   1.100   0.988  0.5397 -0.1747  0.5821
 2909SOL    HW219062   3.784   1.166   1.050 -0.3109 -1.0627 -0.3247
 2910SOL     OW19063   8.115   2.188   2.440  0.3140 -0.2164  0.2524
 2910SOL    HW119064   8.176   2.166   2.516 -1.1822 -2.4411  0.8682
 2910SOL    HW219065   8.023   2.155   2.462 -1.0458  2.8149 -0.7818
 2911SOL     OW19066   7.855   9.283   0.999 -0.4712  0.6321 -0.5441
 2911SOL    HW119067   7.833   9.255   0.905  0.5277 -0.0847 -0.5700
 2911SOL    HW219068   7.774   9.323   1.042 -1.9600 -2.3048 -0.5066
 2912SOL     OW19069   0.769   3.458   0.184  0.0373  0.1281  0.2562
 2912SOL    HW119070   0.727   3.449   0.274  1.5061  0.0330  0.9516
 2912SOL    HW219071   0.724   3.397   0.120 -0.5870 -0.3023  1.0991
 2913SOL     OW19072   1.774   8.115   2.292 -0.1242  0.2513  0.2417
 2913SOL    HW119073   1.721   8.169   2.358 -0.5145 -1.6451  1.5240
 2913SOL    HW219074   1.802   8.173   2.216 -0.6258  2.2212  1.5356
 2914SOL     OW19075   8.132   9.693   2.709 -0.0530 -0.2725 -0.5772
 2914SOL    HW119076   8.185   9.637   2.773  0.4431 -1.3000 -1.8830
 2914SOL    HW219077   8.036   9.694   2.739  0.7628  2.2200  2.2275
 2915SOL     OW19078   1.803   2.734   0.172  0.0769 -0.1920 -0.0516
 2915SOL    HW119079   1.895   2.711   0.204 -0.5457 -0.6301  1.4647
 2915SOL    HW219080   1.780   2.827   0.200 -0.1305 -0.2620  0.0109
 2916SOL     OW19081   1.781   0.082   1.150  0.3365 -0.5332 -0.1212
 2916SOL    HW119082   1.828   0.106   1.235 -1.9574 -0.8416  1.2539
 2916SOL    HW219083   1.807   0.147   1.078  0.5368  1.1042  1.4020
 2917SOL     OW19084   1.740   5.978   0.545  0.2770 -0.4287 -0.1423
 2917SOL    HW119085   1.827   5.928   0.539 -0.7735 -2.1795 -1.0574
 2917SOL    HW219086   1.701   5.967   0.637  0.3409 -0.7824 -0.1589
 2918SOL     OW19087   1.736   0.592   2.355  0.1317 -0.0247  0.2724
 2918SOL    HW119088   1.831   0.619   2.368  0.5935  0.2138 -3.1185
 2918SOL    HW219089   1.676   0.657   2.402  1.6244  0.1266  1.9890
 2919SOL     OW19090   9.752   1.856   2.284 -0.0433 -0.1280  0.1692
 2919SOL    HW119091   9.790   1.774   2.242  0.6730 -0.6222  1.7602
 2919SOL    HW219092   9.769   1.854   2.382  0.0033  1.9506  0.2131
 2920SOL     OW19093   3.053   3.571   3.724 -0.0364  0.0209  0.2622
 2920SOL    HW119094   3.108   3.504   3.674 -0.5826  0.4936 -0.9819
 2920SOL    HW219095   2.976   3.600   3.668 -0.2959  1.0523  1.1296
 2921SOL     OW19096   3.321   2.069   0.050 -0.0686  0.0097 -0.2872
 2921SOL    HW119097   3.399   2.106  -0.000 -0.5211 -0.0686 -1.0533
 2921SOL    HW219098   3.322   2.103   0.144 -0.7358  2.3563 -1.0959
 2922SOL     OW19099   4.600   0.924   1.150  0.0523  0.3277 -0.7840
 2922SOL    HW119100   4.534   0.921   1.075  0.6006 -1.6718 -1.2162
 2922SOL    HW219101   4.648   0.837   1.156  2.8874  1.8283 -0.6567
 2923SOL     OW19102   7.276   9.514   1.544 -0.0617 -0.3839  0.0423
 2923SOL    HW119103   7.285   9.539   1.640  0.4796 -1.4355  0.2670
 2923SOL    HW219104   7.294   9.416   1.532  1.1191 -0.0229 -1.3016
 2924SOL     OW19105   0.031   3.784   0.936 -0.2892 -0.0204 -0.1684
 2924SOL    HW119106  -0.038   3.762   0.867 -0.0139 -2.6158  0.3204
 2924SOL    HW219107  -0.014   3.814   1.020 -0.7783 -0.3848 -0.2969
 2925SOL     OW19108   7.526   9.631   1.734 -1.2630  0.3756  0.2302
 2925SOL    HW119109   7.523   9.711   1.794  2.3855  0.6443  0.1518
 2925SOL    HW219110   7.578   9.558   1.779 -1.0509 -0.4845 -1.3909
 2926SOL     OW19111   3.181   5.045   0.636  0.1432 -0.0133 -0.5170
 2926SOL    HW119112   3.268   5.083   0.604  0.5524  0.3791  1.0300
 2926SOL    HW219113   3.105   5.098   0.597  0.6128 -0.1144 -1.5622
 2927SOL     OW19114   7.459   9.128   1.006  0.3413 -0.4978 -0.0899
 2927SOL    HW119115   7.524   9.195   0.968  0.0817  0.6612  1.4615
 2927SOL    HW219116   7.441   9.057   0.938  0.7820  0.9035 -1.7011
 2928SOL     OW19117   0.668   9.901   3.845  0.1997  0.4050  0.0330
 2928SOL    HW119118   0.604   9.828   3.870  0.4811  0.0282 -0.3278
 2928SOL    HW219119   0.742   9.862   3.789  1.7110  0.4937  1.9224
 2929SOL     OW19120   3.190   1.603   1.285 -0.2182  0.0527 -0.2317
 2929SOL    HW119121   3.273   1.634   1.240  0.2470  0.7304  1.0866
 2929SOL    HW219122   3.177   1.505   1.267  0.0583  0.2602 -1.6547
 2930SOL     OW19123   0.465   9.078   3.297 -0.8920  0.3152 -0.0966
 2930SOL    HW119124   0.550   9.046   3.337 -1.4649 -0.5456  0.4545
 2930SOL    HW219125   0.482   9.159   3.242  0.2565  0.2226  0.1202
 2931SOL     OW19126   4.056   9.887   3.528  0.3043 -0.5296  0.3674
 2931SOL    HW119127   3.967   9.881   3.573  0.4545  0.9067  0.8608
 2931SOL    HW219128   4.126   9.911   3.595  0.6408  0.9468 -0.5029
 2932SOL     OW19129   7.670   3.387   0.363 -0.0514  0.5100  0.1896
 2932SOL    HW119130   7.732   3.459   0.332  0.0723  0.5056  0.4288
 2932SOL    HW219131   7.611   3.423   0.435  0.5903  0.1301  0.9080
 2933SOL     OW19132   4.009   1.172   0.318 -0.0737  0.2091 -0.2079
 2933SOL    HW119133   4.032   1.077   0.301  1.5049  0.4970  0.3043
 2933SOL    HW219134   3.958   1.208   0.239  0.2733 -0.7369 -0.8770
 2934SOL     OW19135   8.380   8.545   3.475  0.5208 -0.0362  0.2178
 2934SOL    HW119136   8.355   8.448   3.477 -0.2358  0.1612  0.3849
 2934SOL    HW219137   8.328   8.594   3.545 -0.5282  0.8303 -1.1333
 2935SOL     OW19138   1.243   1.866   1.280  0.0158  0.0856 -0.4417
 2935SOL    HW119139   1.169   1.812   1.320  0.4312 -0.0958  0.0790
 2935SOL    HW219140   1.329   1.815   1.284  0.0468  0.0403 -1.6318
 2936SOL     OW19141   1.501   2.883   1.498 -0.5624 -0.5057 -0.0357
 2936SOL    HW119142   1.443   2.887   1.579 -0.5651  1.1347 -0.1046
 2936SOL    HW219143   1.506   2.789   1.465 -0.6900 -1.1645  1.7720
 2937SOL     OW19144   7.425   1.539   2.706 -0.5163 -0.1373 -0.4941
 2937SOL    HW119145   7.400   1.459   2.652 -2.1131  0.4848 -0.6963
 2937SOL    HW219146   7.372   1.618   2.675  0.8437  0.9530 -0.1184
 2938SOL     OW19147   2.502   4.097   0.362  0.1559  0.6544  0.0334
 2938SOL    HW119148   2.561   4.023   0.395 -0.0530  0.5819  0.2501
 2938SOL    HW219149   2.457   4.140   0.440  1.8720  2.3937  0.0991
 2939SOL     OW19150   0.382   7.297   1.859  0.3207  0.4375  0.3325
 2939SOL    HW119151   0.356   7.228   1.927 -1.1307  0.5841 -0.0549
 2939SOL    HW219152   0.381   7.256   1.768  1.9505  0.3263  0.3442
 2940SOL     OW19153   9.541   9.752   1.966  0.4170  0.0111 -0.0594
 2940SOL    HW119154   9.582   9.827   2.018 -0.6732  0.3245  0.3454
 2940SOL    HW219155   9.477   9.789   1.898  0.2922 -0.5180 -0.2347
 2941SOL     OW19156   0.835   1.712   1.861 -0.1665 -0.0349  0.4430
 2941SOL    HW119157   0.853   1.806   1.833  1.0218 -0.9530 -2.1225
 2941SOL    HW219158   0.736   1.694   1.859 -0.2898  0.7413 -0.5409
 2942SOL     OW19159   9.846   0.881   2.146  0.4235 -0.1911  0.0392
 2942SOL    HW119160   9.882   0.789   2.157 -0.9341 -0.6664  0.5256
 2942SOL    HW219161   9.808   0.913   2.232 -0.3508  0.2923 -0.4790
 2943SOL     OW19162   9.812   0.548   0.085  0.5290 -0.3024  0.3253
 2943SOL    HW119163   9.792   0.646   0.088 -0.3228 -0.4006 -1.4162
 2943SOL    HW219164   9.911   0.535   0.075  0.4415  0.4653 -1.9593
 2944SOL     OW19165   5.196   8.573   2.275  0.5733 -0.0337 -0.2673
 2944SOL    HW119166   5.258   8.496   2.283 -0.1478 -0.4769  1.3338
 2944SOL    HW219167   5.191   8.603   2.180 -0.5773 -3.1521 -1.2431
 2945SOL     OW19168   2.627   6.308   2.412 -0.3613 -0.0858 -0.0762
 2945SOL    HW119169   2.692   6.316   2.336  0.6229 -0.1995  0.7331
 2945SOL    HW219170   2.605   6.398   2.447  0.2663 -0.1065  0.3872
 2946SOL     OW19171   7.726   3.253   1.395  0.1053  0.0242 -0.6079
 2946SOL    HW119172   7.739   3.159   1.426  2.2886  0.4934 -0.0382
 2946SOL    HW219173   7.691   3.252   1.301 -2.2079 -1.3574  0.2364
 2947SOL     OW19174   2.160   8.911   1.427 -0.4704  0.3547  0.2891
 2947SOL    HW119175   2.249   8.890   1.386 -0.0793  2.0287  0.2309
 2947SOL    HW219176   2.167   8.902   1.527 -0.1508  0.7701  0.3057
 2948SOL     OW19177   0.868   7.637   0.047 -0.7669  0.1732 -0.1674
 2948SOL    HW119178   0.793   7.621  -0.017 -1.5253 -0.0828  0.7764
 2948SOL    HW219179   0.955   7.630  -0.001 -1.2509 -1.9273 -0.7774
 2949SOL     OW19180   1.642   3.092   2.041 -0.2898 -0.3258  0.3381
 2949SOL    HW119181   1.668   3.025   2.110  0.0496 -0.7959 -0.2399
 2949SOL    HW219182   1.561   3.061   1.991  0.9940 -1.2440 -1.2312
 2950SOL     OW19183   4.395   8.708   0.185  0.0720  0.3001  0.5673
 2950SOL    HW119184   4.346   8.631   0.228 -0.2520 -0.4405 -1.0746
 2950SOL    HW219185   4.331   8.761   0.130  0.8260  0.1840 -0.4294
 2951SOL     OW19186   2.758   1.292   3.241 -0.0289 -0.5792  0.4642
 2951SOL    HW119187   2.844   1.244   3.227 -0.0894 -0.2680 -0.9816
 2951SOL    HW219188   2.753   1.325   3.336  0.3966 -2.6255  1.2064
 2952SOL     OW19189   7.211   9.140   3.425  0.8846 -0.2075  0.0203
 2952SOL    HW119190   7.154   9.112   3.503 -0.3603  1.3747 -0.3055
 2952SOL    HW219191   7.189   9.084   3.345  1.2178 -0.9256  0.4182
 2953SOL     OW19192   3.853   1.602   2.945  0.0483  0.0081  0.0476
 2953SOL    HW119193   3.921   1.542   2.988 -1.2808 -2.1482 -0.7801
 2953SOL    HW219194   3.888   1.632   2.856 -0.2251 -1.4722 -0.5854
 2954SOL     OW19195   9.017   8.798   2.454  0.3824  0.0422  0.1591
 2954SOL    HW119196   9.017   8.896   2.476 -0.3462  0.1495 -0.3004
 2954SOL    HW219197   8.972   8.784   2.366 -1.0153 -0.8658  0.9942
 2955SOL     OW19198   0.897   2.089   1.247  0.4533 -0.8297  0.1259
 2955SOL    HW119199   0.936   2.008   1.204 -2.3575 -2.8279  1.1450
 2955SOL    HW219200   0.922   2.091   1.344  0.9182 -0.2204 -0.0066
 2956SOL     OW19201   3.348   2.133   0.316  0.5856 -0.3213 -0.2126
 2956SOL    HW119202   3.335   2.229   0.339  1.2648  0.4236 -2.7982
 2956SOL    HW219203   3.271   2.079   0.350  0.4185  1.0566  1.6242
 2957SOL     OW19204   1.732   6.895   2.932  0.7144 -0.1426  0.0770
 2957SOL    HW119205   1.651   6.921   2.984  0.9354  1.4471 -0.3548
 2957SOL    HW219206   1.717   6.916   2.835  1.2890 -0.7354 -0.1450
 2958SOL     OW19207   2.289   7.425   0.343  0.5959  0.0817  0.1062
 2958SOL    HW119208   2.242   7.476   0.414  1.6440  0.1593  0.7607
 2958SOL    HW219209   2.250   7.448   0.254 -0.9379 -0.2703  0.6767
 2959SOL     OW19210   4.244   3.946   3.664 -0.1999 -0.5142 -0.1869
 2959SOL    HW119211   4.208   4.038   3.678 -1.4009 -0.9823 -0.0986
 2959SOL    HW219212   4.211   3.910   3.577  0.6018 -0.7046 -0.4117
 2960SOL     OW19213   3.245   3.103   0.126  0.5067  0.2663  0.1354
 2960SOL    HW119214   3.309   3.165   0.170  1.0289 -1.2010  1.5210
 2960SOL    HW219215   3.248   3.115   0.027  1.8664  1.2108  0.2843
 2961SOL     OW19216   0.023   8.443   1.303  0.2836  0.2609  0.1462
 2961SOL    HW119217   0.060   8.512   1.364 -0.4005  0.6207  0.1662
 2961SOL    HW219218   0.096   8.381   1.273  0.8901  0.9556  0.1726
 2962SOL     OW19219   9.005   1.888   0.591 -0.1722 -0.0587  0.6096
 2962SOL    HW119220   9.026   1.841   0.505  1.2783  2.1440 -0.2825
 2962SOL    HW219221   8.909   1.872   0.615 -0.1633 -2.0311 -0.5447
 2963SOL     OW19222   3.316   9.774   3.579  0.6376  0.0025 -0.3312
 2963SOL    HW119223   3.295   9.862   3.537  1.6122  0.0699 -0.6861
 2963SOL    HW219224   3.329   9.785   3.677 -0.7939 -0.0090 -0.1292
 2964SOL     OW19225   9.746   8.375   1.368 -0.1798  0.5905  0.1242
 2964SOL    HW119226   9.727   8.430   1.450 -0.9518  2.3877 -1.2167
 2964SOL    HW219227   9.841   8.387   1.341 -0.6687  2.3574 -0.9072
 2965SOL     OW19228   1.906   4.056   3.690 -0.1727 -0.8439 -0.2961
 2965SOL    HW119229   1.856   4.138   3.717 -0.0640 -0.9921  0.3671
 2965SOL    HW219230   1.902   4.045   3.591 -0.0193  0.0657 -0.4006
 2966SOL     OW19231   7.276   9.940   1.971  0.7272 -0.3146 -0.1606
 2966SOL    HW119232   7.196   9.896   1.929 -0.0753  0.1883  0.8330
 2966SOL    HW219233   7.281   9.916   2.068  2.7075 -1.6553 -0.5550
 2967SOL     OW19234   8.586   8.141   0.796 -0.2862 -0.3533 -0.2481
 2967SOL    HW119235   8.686   8.139   0.789 -0.3067  0.9613 -0.9803
 2967SOL    HW219236   8.548   8.065   0.743  0.3641 -1.7171  1.1970
 2968SOL     OW19237   9.817   1.099   3.595 -0.1549  0.7062  0.3541
 2968SOL    HW119238   9.827   1.158   3.675  0.0730  3.0756 -1.3799
 2968SOL    HW219239   9.791   1.153   3.515 -1.4799 -1.7648 -0.9796
 2969SOL     OW19240   3.417   8.915   3.915  0.5336  0.2445  0.2587
 2969SOL    HW119241   3.350   8.857   3.962 -0.2492 -0.9963 -2.2856
 2969SOL    HW219242   3.426   9.002   3.964 -0.3980 -0.8892  2.5362
 2970SOL     OW19243   4.882   8.237   0.926 -0.2423 -0.2703  0.0305
 2970SOL    HW119244   4.790   8.271   0.905 -0.4538 -1.2861 -0.7605
 2970SOL    HW219245   4.947   8.274   0.861 -0.1331  0.2231  0.4170
 2971SOL     OW19246   3.214   1.284   2.935  0.5849 -0.0942  0.2365
 2971SOL    HW119247   3.215   1.325   3.026  3.3807 -0.0125  0.2090
 2971SOL    HW219248   3.261   1.196   2.937  0.1482 -0.3685 -1.0068
 2972SOL     OW19249   7.346   8.715   0.572 -0.3270  0.2593 -0.1216
 2972SOL    HW119250   7.371   8.622   0.544 -2.3900 -0.0204 -1.1558
 2972SOL    HW219251   7.429   8.767   0.591  1.0367 -0.7060 -3.0903
 2973SOL     OW19252   1.137   7.105   1.355 -0.1792  1.2362  0.0086
 2973SOL    HW119253   1.115   7.037   1.424  0.1609  1.9549  0.8340
 2973SOL    HW219254   1.112   7.070   1.265  1.6491 -0.7217  0.2236
 2974SOL     OW19255   9.001   2.158   0.140  0.4582 -0.2289 -0.2000
 2974SOL    HW119256   9.010   2.060   0.157 -1.2678 -0.2317  0.7654
 2974SOL    HW219257   8.910   2.189   0.168  0.7840  1.5413 -1.0305
 2975SOL     OW19258   9.206   1.503   1.697 -0.3074  0.5472 -0.5108
 2975SOL    HW119259   9.193   1.473   1.602  0.1132  0.9063 -0.6840
 2975SOL    HW219260   9.262   1.586   1.698 -2.1842  1.8136 -0.0855
 2976SOL     OW19261   2.004   6.962   3.666  0.0039 -0.8776  0.5956
 2976SOL    HW119262   2.091   6.916   3.646 -0.3931 -1.4621  0.2040
 2976SOL    HW219263   1.976   7.016   3.587 -0.4864 -1.4863  0.3428
 2977SOL     OW19264   0.815   0.184   2.943 -0.0414  0.3536  0.7488
 2977SOL    HW119265   0.726   0.160   2.904 -0.6338  2.0036  1.0427
 2977SOL    HW219266   0.818   0.158   3.039  0.7397 -2.0128  0.1225
 2978SOL     OW19267   8.224   1.127   2.981 -0.1285 -0.4242  0.0152
 2978SOL    HW119268   8.156   1.188   3.022  0.9889  3.1596 -3.1702
 2978SOL    HW219269   8.179   1.059   2.924 -1.2235 -0.0744  0.4601
 2979SOL     OW19270   1.603   0.556   3.156 -0.1520 -0.3361  0.0996
 2979SOL    HW119271   1.682   0.569   3.096 -1.0248  1.7094 -0.6537
 2979SOL    HW219272   1.633   0.552   3.251  0.7138  2.2005 -0.0344
 2980SOL     OW19273   8.000   8.845   1.822  0.2385  0.4573  0.4230
 2980SOL    HW119274   7.903   8.862   1.839  0.3154  0.6342  0.6868
 2980SOL    HW219275   8.009   8.769   1.757 -0.0609 -0.1511  1.0863
 2981SOL     OW19276   8.580   0.046   2.996 -0.6996 -0.2146 -0.3594
 2981SOL    HW119277   8.507   0.002   3.047  0.8868 -2.0006  0.4027
 2981SOL    HW219278   8.662   0.053   3.052  0.0913  0.7263 -1.5834
 2982SOL     OW19279   9.720   1.140   1.283  0.5516 -0.1524  0.4514
 2982SOL    HW119280   9.668   1.070   1.332 -0.3266 -0.3419 -0.7338
 2982SOL    HW219281   9.811   1.150   1.325  1.2464 -3.0409 -0.2744
 2983SOL     OW19282   0.908   8.422   2.835  0.3698 -0.5978  0.5759
 2983SOL    HW119283   0.996   8.420   2.882  0.2805 -1.3083  0.7308
 2983SOL    HW219284   0.882   8.328   2.810  0.0611 -0.3016 -0.2203
 2984SOL     OW19285   0.824   8.826   1.029 -0.6358  0.1802 -0.1310
 2984SOL    HW119286   0.789   8.815   0.936 -1.0288 -0.7737  0.1322
 2984SOL    HW219287   0.771   8.897   1.076 -1.2484 -0.2051 -0.2301
 2985SOL     OW19288   8.335   7.456   0.584  0.4443  0.1927 -0.0619
 2985SOL    HW119289   8.419   7.420   0.543  2.4376  3.1386  1.2419
 2985SOL    HW219290   8.329   7.555   0.566 -2.4396  0.1530  0.4364
 2986SOL     OW19291   7.206   0.159   2.822  0.6001 -0.0383 -0.1851
 2986SOL    HW119292   7.227   0.085   2.758 -0.9401 -1.6132  1.0920
 2986SOL    HW219293   7.108   0.156   2.845  1.1526  0.4549  2.2879
 2987SOL     OW19294   9.955   0.964   2.802 -0.5929  0.2724  0.5546
 2987SOL    HW119295   9.898   1.041   2.769  0.3445  0.7787  0.1062
 2987SOL    HW219296  10.027   0.946   2.736 -0.5266 -0.7001  0.8961
 2988SOL     OW19297   0.686   8.400   3.573 -0.1196  0.0135  0.2439
 2988SOL    HW119298   0.685   8.439   3.480  1.5410 -0.4986 -0.0126
 2988SOL    HW219299   0.777   8.365   3.593 -0.0611  1.4698  2.6619
 2989SOL     OW19300   8.932   8.472   1.150  0.6307 -0.3347 -0.2870
 2989SOL    HW119301   8.834   8.464   1.129  0.4237  1.7971 -0.1816
 2989SOL    HW219302   8.950   8.430   1.239 -0.0717 -1.2236 -0.5429
 2990SOL     OW19303   4.642   7.988   3.078 -0.3353 -0.2429  0.2516
 2990SOL    HW119304   4.562   7.956   3.025 -1.7642  0.8283  1.7102
 2990SOL    HW219305   4.683   8.066   3.031 -1.5263  0.6325  0.6569
 2991SOL     OW19306   8.282   8.694   3.686 -0.2950 -0.1019  0.0218
 2991SOL    HW119307   8.185   8.713   3.673 -0.1683  0.8503  0.4212
 2991SOL    HW219308   8.323   8.767   3.739  0.5230 -0.7974  0.3577
 2992SOL     OW19309   1.407   4.634   2.988 -0.4657  0.0727  0.1352
 2992SOL    HW119310   1.382   4.625   3.084  0.6074 -0.8090  0.3451
 2992SOL    HW219311   1.357   4.711   2.947  0.8561  1.9748  2.0135
 2993SOL     OW19312   6.637   8.441   3.341 -0.1565  0.3422 -0.1011
 2993SOL    HW119313   6.670   8.390   3.420 -1.5748 -1.1414 -0.4332
 2993SOL    HW219314   6.706   8.508   3.313  1.0321 -0.2417  1.3773
 2994SOL     OW19315   1.225   7.589   2.447 -0.4349 -0.7620  0.5849
 2994SOL    HW119316   1.274   7.602   2.360 -1.1782 -0.7716  0.1651
 2994SOL    HW219317   1.131   7.563   2.428 -0.2240 -2.1308  1.4114
 2995SOL     OW19318   9.025   3.601   2.031 -0.5287 -0.1491  0.0111
 2995SOL    HW119319   9.115   3.560   2.041 -1.0882 -1.3187  0.2897
 2995SOL    HW219320   9.031   3.682   1.973  0.3317 -1.4659 -1.7554
 2996SOL     OW19321   9.971   2.724   2.540  0.4702  0.6810  0.4280
 2996SOL    HW119322   9.872   2.740   2.542  0.2927  0.2675 -2.5594
 2996SOL    HW219323   9.989   2.626   2.531  1.1046  0.8869 -0.6281
 2997SOL     OW19324   6.164   8.877   2.735 -0.4824  0.0326 -0.3019
 2997SOL    HW119325   6.097   8.879   2.660 -1.0680  0.0418  0.2091
 2997SOL    HW219326   6.248   8.921   2.706 -0.9049  0.5413 -0.7772
 2998SOL     OW19327   2.544   6.169   2.626  0.3566 -0.0639  0.1379
 2998SOL    HW119328   2.451   6.143   2.602 -0.6510  2.5352  1.0158
 2998SOL    HW219329   2.585   6.219   2.550  0.9157 -0.8721 -0.0997
 2999SOL     OW19330   8.638   3.300   2.885 -0.3491  0.1241  0.1216
 2999SOL    HW119331   8.728   3.315   2.844 -0.7904 -0.9403 -1.2439
 2999SOL    HW219332   8.627   3.361   2.964  1.6904  0.0390  0.4998
 3000SOL     OW19333   7.796   0.118   2.006  0.5131 -0.4572  0.5651
 3000SOL    HW119334   7.862   0.059   2.054 -0.8325 -1.2532  1.4775
 3000SOL    HW219335   7.836   0.208   1.992  1.7103 -0.8567  1.3329
 3001SOL     OW19336   2.558   6.308   1.089 -0.1162  0.2032 -0.0548
 3001SOL    HW119337   2.472   6.292   1.041 -0.3974  1.5019  0.0055
 3001SOL    HW219338   2.574   6.406   1.098  1.4116 -0.0167 -0.1414
 3002SOL     OW19339   0.585   0.769   0.002  0.0525  0.2886 -0.2232
 3002SOL    HW119340   0.515   0.698   0.002  0.5601 -0.2089  0.0296
 3002SOL    HW219341   0.659   0.743  -0.060 -0.5339  1.3559 -1.4081
 3003SOL     OW19342   3.868   4.300   2.825 -0.2988 -0.3332 -0.4814
 3003SOL    HW119343   3.863   4.207   2.862  3.3248 -0.3739  0.0988
 3003SOL    HW219344   3.861   4.296   2.725 -0.7649 -1.1883 -0.4187
 3004SOL     OW19345   9.902   0.976   0.475 -0.7116  0.0061 -0.4973
 3004SOL    HW119346   9.808   0.955   0.449 -1.2102  3.1046 -1.5012
 3004SOL    HW219347   9.965   0.927   0.415 -1.6320 -2.6836  0.6754
 3005SOL     OW19348   0.858   3.947   2.351 -0.3089 -0.2869  0.2007
 3005SOL    HW119349   0.809   4.015   2.296  0.2425  0.4299  0.5808
 3005SOL    HW219350   0.924   3.994   2.410 -0.9660 -1.0502  1.5446
 3006SOL     OW19351   4.341   8.213   3.035 -0.3726  0.4994  0.5117
 3006SOL    HW119352   4.363   8.266   3.117 -1.8390  2.6369 -0.4517
 3006SOL    HW219353   4.242   8.204   3.027 -0.1840 -1.1045 -0.1605
 3007SOL     OW19354   7.745   8.407   3.705  0.1598  0.0907  0.0132
 3007SOL    HW119355   7.822   8.346   3.684 -0.1204 -0.2377 -0.0631
 3007SOL    HW219356   7.739   8.420   3.804  0.5927  0.4812 -0.0095
 3008SOL     OW19357   2.286   4.168   3.181  0.2991 -0.1249 -0.7098
 3008SOL    HW119358   2.281   4.119   3.268  1.7999 -0.8978 -1.0490
 3008SOL    HW219359   2.198   4.161   3.133 -0.2760 -0.3751  0.3655
 3009SOL     OW19360   1.470   4.731   2.671 -0.0086  0.0895  0.4213
 3009SOL    HW119361   1.411   4.777   2.737  0.0165 -0.2168  0.6601
 3009SOL    HW219362   1.413   4.691   2.598  0.0181  1.0239 -0.1203
 3010SOL     OW19363   5.094   7.722   2.209 -0.0814  0.4131 -0.8589
 3010SOL    HW119364   5.088   7.717   2.110 -0.5752  0.8849 -0.8474
 3010SOL    HW219365   5.056   7.808   2.242 -3.2509 -1.2590  0.0282
 3011SOL     OW19366   1.982   9.938   2.591 -0.2121 -0.2662  0.1004
 3011SOL    HW119367   1.915   9.912   2.660 -2.1486  2.5204 -0.6600
 3011SOL    HW219368   1.973  10.035   2.570  4.1360  0.2029  0.0022
 3012SOL     OW19369   2.379   3.803   0.872  0.2087  0.3115  0.3465
 3012SOL    HW119370   2.358   3.900   0.879  0.9273  0.6060 -1.2502
 3012SOL    HW219371   2.476   3.791   0.849 -0.5133 -0.6395 -2.4408
 3013SOL     OW19372   1.921   5.822   0.328 -0.2471 -0.1538 -0.1120
 3013SOL    HW119373   1.993   5.889   0.312 -0.4883  0.0869 -0.2029
 3013SOL    HW219374   1.926   5.750   0.259  0.9151 -1.0042  0.8550
 3014SOL     OW19375   3.815   1.841   0.338  0.1360 -1.2114  0.0795
 3014SOL    HW119376   3.792   1.936   0.357 -1.0349 -1.5615  0.4192
 3014SOL    HW219377   3.810   1.787   0.422  2.6041 -1.2294  0.2549
 3015SOL     OW19378   7.234   0.208   2.059  0.0322 -0.4202 -0.0861
 3015SOL    HW119379   7.245   0.121   2.010  1.5590 -0.6400  0.6396
 3015SOL    HW219380   7.309   0.269   2.035  0.5229 -0.3538  1.6039
 3016SOL     OW19381   0.512   2.522   3.411 -0.6558  0.1546  0.0889
 3016SOL    HW119382   0.451   2.583   3.460  0.2660 -0.3696  1.9295
 3016SOL    HW219383   0.469   2.494   3.325 -3.3723 -0.8773  1.7076
 3017SOL     OW19384   2.970   2.262   0.443  0.1213  0.5157  0.0649
 3017SOL    HW119385   3.022   2.199   0.384 -0.2451 -0.1748  0.4736
 3017SOL    HW219386   2.923   2.329   0.386 -0.6916 -0.4989 -0.4739
 3018SOL     OW19387   0.872   2.622   3.716 -0.6721  0.4814 -0.6051
 3018SOL    HW119388   0.837   2.554   3.651  2.1239 -2.1340  0.5091
 3018SOL    HW219389   0.942   2.678   3.671 -0.4565  0.2780 -0.5220
 3019SOL     OW19390   0.177   2.978   0.799 -0.8337 -0.4444  0.5936
 3019SOL    HW119391   0.215   3.023   0.718 -0.9343 -1.0864  0.1875
 3019SOL    HW219392   0.077   2.978   0.793 -0.8167 -1.2753  0.2899
 3020SOL     OW19393   7.746   8.429   3.990 -0.6972 -0.1523 -0.0579
 3020SOL    HW119394   7.677   8.410   4.061 -1.2957 -0.9308 -0.8412
 3020SOL    HW219395   7.829   8.377   4.010 -1.2159 -1.1481 -0.4679
 3021SOL     OW19396   8.411   9.689   3.348  0.2299 -0.3966 -0.0144
 3021SOL    HW119397   8.368   9.718   3.433  1.8579  0.3745  0.5511
 3021SOL    HW219398   8.474   9.614   3.366  0.6068 -0.2087 -0.5357
 3022SOL     OW19399   8.223   1.919   0.356  0.2638  0.1280 -0.3104
 3022SOL    HW119400   8.248   1.861   0.434 -1.1187  1.3250  1.0743
 3022SOL    HW219401   8.244   2.015   0.378 -1.4416  0.6376 -0.8148
 3023SOL     OW19402   2.079   3.726   0.095  0.5221  0.0953 -0.4812
 3023SOL    HW119403   2.057   3.822   0.075 -0.0906 -0.0814 -0.6581
 3023SOL    HW219404   2.128   3.687   0.017  1.3996  0.4608 -0.1243
 3024SOL     OW19405   7.897   8.668   1.158  0.2848 -0.2495 -0.2537
 3024SOL    HW119406   7.892   8.765   1.183  0.1660 -0.2343 -0.3373
 3024SOL    HW219407   7.820   8.619   1.198 -1.8847  0.4156 -3.4253
 3025SOL     OW19408   0.741   8.988   3.270 -0.3105 -0.0371  0.0003
 3025SOL    HW119409   0.698   8.904   3.236 -0.4139 -0.6451  1.5882
 3025SOL    HW219410   0.816   9.013   3.209  0.4886 -1.9760  0.1327
 3026SOL     OW19411   0.974   7.523   0.879 -0.1503 -0.2813  0.8661
 3026SOL    HW119412   1.046   7.515   0.810 -0.4246  0.3548  0.5018
 3026SOL    HW219413   0.912   7.445   0.872 -0.7823  0.3103 -0.3121
 3027SOL     OW19414   1.345   7.262   2.450  0.0369 -0.1884 -0.4779
 3027SOL    HW119415   1.270   7.224   2.395 -1.8109  1.6178  0.7113
 3027SOL    HW219416   1.314   7.273   2.545  1.3141  1.9492 -0.2812
 3028SOL     OW19417   5.876   9.633   3.566  0.1689 -0.0679  0.1658
 3028SOL    HW119418   5.810   9.649   3.493 -1.3217  1.6160  1.8286
 3028SOL    HW219419   5.833   9.577   3.637  1.4375 -1.2654  0.0098
 3029SOL     OW19420   3.017   4.047   0.730  0.2246 -0.7509  0.2530
 3029SOL    HW119421   2.997   4.066   0.634 -0.5658 -0.3095  0.4969
 3029SOL    HW219422   3.094   4.103   0.760 -1.0409  0.8975  0.5079
 3030SOL     OW19423   3.765   1.981   1.299  0.4026 -0.1940  0.6962
 3030SOL    HW119424   3.712   2.015   1.377 -3.5040  0.4155 -2.0702
 3030SOL    HW219425   3.780   2.056   1.234  0.6333 -1.4247 -0.6981
 3031SOL     OW19426   2.411   2.799   3.693 -0.3392  0.5244  0.8444
 3031SOL    HW119427   2.385   2.749   3.775  2.4010  0.3289  1.6164
 3031SOL    HW219428   2.424   2.735   3.617  0.1699  0.3866  1.0491
 3032SOL     OW19429   2.141   4.932   1.814 -0.1676  0.5205  0.5139
 3032SOL    HW119430   2.137   4.900   1.909  2.5038 -1.4070  0.0466
 3032SOL    HW219431   2.202   5.010   1.808 -0.1090  0.4598  0.3276
 3033SOL     OW19432   3.068   8.790   3.630 -0.6894 -0.1308  0.1190
 3033SOL    HW119433   3.164   8.811   3.611 -0.1971 -0.2522  2.4029
 3033SOL    HW219434   3.020   8.873   3.656 -1.6453  0.2418 -2.6481
 3034SOL     OW19435   1.786   2.501   2.709  0.1431  0.4749 -0.3225
 3034SOL    HW119436   1.697   2.470   2.743 -0.3064  0.8254 -1.1689
 3034SOL    HW219437   1.789   2.601   2.709  1.1679  0.4683  1.3045
 3035SOL     OW19438   2.784   7.355   3.595  0.2870 -0.0252 -0.7065
 3035SOL    HW119439   2.750   7.301   3.517  0.5550 -0.9018 -0.2238
 3035SOL    HW219440   2.843   7.298   3.651 -0.1249  0.5276  0.2944
 3036SOL     OW19441   3.326   4.401   0.165 -0.2644 -0.2013  0.8391
 3036SOL    HW119442   3.321   4.501   0.165 -1.5810 -0.2439 -0.4451
 3036SOL    HW219443   3.279   4.366   0.084 -1.3745 -1.9330  2.1943
 3037SOL     OW19444   2.690   1.599   0.689  0.9261  0.2137  0.0903
 3037SOL    HW119445   2.781   1.560   0.676 -0.2044 -2.9138  0.9402
 3037SOL    HW219446   2.633   1.533   0.738 -2.0406  1.7666 -1.1602
 3038SOL     OW19447   0.299   2.260   0.600 -0.0575 -0.2496 -0.0933
 3038SOL    HW119448   0.340   2.171   0.578  2.2313  0.9331 -0.7605
 3038SOL    HW219449   0.261   2.300   0.517  0.2323  0.0297 -0.0954
 3039SOL     OW19450   4.248   0.283   0.006 -0.0031  0.3389 -0.2663
 3039SOL    HW119451   4.326   0.289   0.069 -1.4104  1.3866  1.4284
 3039SOL    HW219452   4.226   0.187  -0.011 -0.4103  0.0156  1.9027
 3040SOL     OW19453   1.295   2.852   2.347  0.3645 -0.2711  0.2915
 3040SOL    HW119454   1.275   2.945   2.315 -1.4173 -1.3270 -1.8665
 3040SOL    HW219455   1.286   2.848   2.446 -2.4085  1.2596  0.1684
 3041SOL     OW19456   0.098   1.483   3.815 -0.0983 -0.5628  0.4344
 3041SOL    HW119457   0.135   1.521   3.900  1.2033 -3.3523  1.1645
 3041SOL    HW219458   0.167   1.426   3.771 -1.0057  0.2749 -2.1715
 3042SOL     OW19459   2.362   5.018   3.926 -0.6550 -0.1789  1.0858
 3042SOL    HW119460   2.399   5.096   3.875  1.9071 -1.3204  1.1035
 3042SOL    HW219461   2.297   4.969   3.868 -1.7001  1.4773  0.7954
 3043SOL     OW19462   4.249   0.670   3.377  0.2519  0.3778  0.1962
 3043SOL    HW119463   4.216   0.672   3.283 -0.3695  1.5747  0.4231
 3043SOL    HW219464   4.198   0.603   3.430 -0.4295  0.7751  0.0474
 3044SOL     OW19465   8.737   0.655   0.991 -0.7815  0.4606 -0.1717
 3044SOL    HW119466   8.698   0.575   0.946 -1.1496  0.5637 -0.0432
 3044SOL    HW219467   8.767   0.631   1.083 -0.3601  0.3357 -0.3381
 3045SOL     OW19468   5.193   9.795   2.934 -0.1968  0.2046  0.1806
 3045SOL    HW119469   5.178   9.816   3.030 -1.3186 -1.1996  0.3372
 3045SOL    HW219470   5.275   9.843   2.901  1.3066 -0.7781  2.3365
 3046SOL     OW19471   3.558   7.785   3.457  0.1339  0.6222 -0.2428
 3046SOL    HW119472   3.544   7.769   3.360 -0.8944 -1.1391  0.1840
 3046SOL    HW219473   3.481   7.837   3.494  2.0175  4.1558 -0.9788
 3047SOL     OW19474   8.861   1.603   0.653 -0.3151  0.0622  0.9876
 3047SOL    HW119475   8.777   1.656   0.635 -0.6584 -0.1456  1.9866
 3047SOL    HW219476   8.876   1.539   0.578 -0.6144  0.6531  0.4140
 3048SOL     OW19477   6.226   9.073   2.428 -0.6792 -0.1280  0.2684
 3048SOL    HW119478   6.175   9.148   2.385 -1.1716 -1.0307 -0.7340
 3048SOL    HW219479   6.324   9.088   2.414 -0.7268  0.7906  0.8492
 3049SOL     OW19480   1.440   1.327   3.785 -0.6099 -0.0189 -0.0601
 3049SOL    HW119481   1.494   1.331   3.701  1.7706  0.5121  1.4317
 3049SOL    HW219482   1.383   1.409   3.792  0.4968  0.7855 -0.3317
 3050SOL     OW19483   0.000   8.758   0.545  0.5795 -0.0761 -0.3370
 3050SOL    HW119484   0.022   8.662   0.527 -1.1734 -0.7190  0.8942
 3050SOL    HW219485   0.050   8.789   0.626  0.2511 -0.2788 -0.0584
 3051SOL     OW19486   5.260   8.313   3.060 -0.3702 -0.1467 -0.6804
 3051SOL    HW119487   5.297   8.326   3.152 -1.8644  0.7736 -0.1884
 3051SOL    HW219488   5.302   8.233   3.018  1.6247  0.4534  0.1249
 3052SOL     OW19489   1.355   0.275   1.058  0.1902 -0.1913 -0.3813
 3052SOL    HW119490   1.352   0.359   1.112  0.9796 -1.2699  1.3858
 3052SOL    HW219491   1.286   0.211   1.093  1.3453 -1.2543 -0.0440
 3053SOL     OW19492   5.056   9.296   0.956 -0.2028 -0.1717  0.2791
 3053SOL    HW119493   4.988   9.290   1.029 -1.0037  0.4479 -0.4029
 3053SOL    HW219494   5.138   9.341   0.991 -0.8523  0.7768  0.6162
 3054SOL     OW19495   1.883   7.628   0.140 -0.2641  0.4777  0.2663
 3054SOL    HW119496   1.890   7.536   0.177 -1.2074  0.8360  1.3531
 3054SOL    HW219497   1.961   7.683   0.171  1.0271 -0.3105 -1.4810
 3055SOL     OW19498   0.974   2.607   2.168 -0.6396  0.2465  0.2277
 3055SOL    HW119499   0.905   2.650   2.110 -1.6035  1.0164  1.9141
 3055SOL    HW219500   1.060   2.657   2.160 -0.3718 -0.4717 -1.5707
 3056SOL     OW19501   4.465   1.020   3.228  0.7096 -0.4605  0.0690
 3056SOL    HW119502   4.481   0.925   3.257  0.4685 -0.8017 -0.9025
 3056SOL    HW219503   4.394   1.061   3.285  1.4207 -0.5775  1.0649
 3057SOL     OW19504   2.368   4.612   3.044 -0.5192 -0.0905  0.2503
 3057SOL    HW119505   2.440   4.560   2.999 -0.6415  0.3381 -0.4527
 3057SOL    HW219506   2.279   4.587   3.004 -0.6687  0.0118  0.5172
 3058SOL     OW19507   1.604   6.461   3.828  0.7328  0.5085 -0.2884
 3058SOL    HW119508   1.661   6.408   3.765  1.3166  0.6807  0.0953
 3058SOL    HW219509   1.508   6.433   3.818  0.9901 -0.3515 -0.3521
 3059SOL     OW19510   3.708   8.610   0.888 -0.2915  0.0087 -0.5900
 3059SOL    HW119511   3.630   8.664   0.922 -0.1111 -0.0391 -0.0928
 3059SOL    HW219512   3.745   8.555   0.963 -2.0891 -2.7760 -1.6798
 3060SOL     OW19513   3.301   1.185   2.136  0.7869  0.3582  0.1707
 3060SOL    HW119514   3.334   1.266   2.088  0.1016 -0.2739 -1.4253
 3060SOL    HW219515   3.223   1.210   2.193  1.5005  1.0890  0.8479
 3061SOL     OW19516   0.220   7.863   1.808 -0.0238  0.2931  0.5402
 3061SOL    HW119517   0.197   7.772   1.843  1.5331  0.1911  1.3253
 3061SOL    HW219518   0.203   7.866   1.710 -0.4762 -0.7217  0.5819
 3062SOL     OW19519   1.844   2.906   0.534  1.0743 -0.0054  0.0418
 3062SOL    HW119520   1.887   2.821   0.564  0.7578 -0.4423 -0.7608
 3062SOL    HW219521   1.834   2.906   0.435  3.2703  1.9596 -0.2553
 3063SOL     OW19522   3.855   4.165   1.197  0.5077 -0.2220  0.0685
 3063SOL    HW119523   3.862   4.263   1.179  1.1937 -0.0484  1.2014
 3063SOL    HW219524   3.930   4.137   1.257 -1.8955 -0.6780  2.9669
 3064SOL     OW19525   2.171   5.142   0.829 -0.1343 -0.6314 -0.3109
 3064SOL    HW119526   2.195   5.092   0.912  1.0990 -0.5076 -0.5879
 3064SOL    HW219527   2.193   5.087   0.749 -1.0453 -0.6273 -0.5759
 3065SOL     OW19528   4.211   0.887   0.180 -0.4493  0.1809 -0.4004
 3065SOL    HW119529   4.262   0.861   0.262  1.0700  0.8602 -1.1143
 3065SOL    HW219530   4.247   0.838   0.101 -0.1395  1.5092 -1.0987
 3066SOL     OW19531   5.175   8.389   3.686  0.2255 -0.2273  0.1742
 3066SOL    HW119532   5.076   8.401   3.696  0.0256 -0.3903 -1.5482
 3066SOL    HW219533   5.213   8.465   3.633  0.6468 -1.4140 -1.2424
 3067SOL     OW19534   9.965   1.840   3.221  0.1833  0.5165 -0.3816
 3067SOL    HW119535   9.936   1.753   3.261 -0.3390  0.1666 -1.4886
 3067SOL    HW219536   9.954   1.913   3.288 -1.5173  0.0877 -0.1662
 3068SOL     OW19537   0.933   7.488   2.793 -0.2308 -0.2915  0.3231
 3068SOL    HW119538   0.951   7.580   2.758 -0.7043 -1.2419 -2.5312
 3068SOL    HW219539   1.008   7.427   2.766 -0.3894 -0.9512  1.3624
 3069SOL     OW19540   2.627   8.774   3.925 -0.1377  0.2761 -0.3802
 3069SOL    HW119541   2.649   8.867   3.895  1.4105 -0.2021 -0.7609
 3069SOL    HW219542   2.660   8.760   4.018 -1.2935  0.4342  0.0591
 3070SOL     OW19543   1.507   4.457   1.069 -0.1988 -0.0518 -0.0550
 3070SOL    HW119544   1.540   4.490   0.981 -0.5838 -0.9127 -0.5267
 3070SOL    HW219545   1.546   4.513   1.142  1.5304 -0.4212 -0.6602
 3071SOL     OW19546   3.353   8.501   0.004 -0.2041  0.1218 -0.2306
 3071SOL    HW119547   3.346   8.596   0.035  0.7471 -0.0079  0.4017
 3071SOL    HW219548   3.263   8.467  -0.021 -0.6638  0.9400  0.2987
 3072SOL     OW19549   2.784   5.526   1.935  0.1006  0.0577  0.5035
 3072SOL    HW119550   2.705   5.466   1.922 -0.7018  0.8945  1.3853
 3072SOL    HW219551   2.789   5.553   2.031 -0.0199  2.0128 -0.0095
 3073SOL     OW19552   4.203   3.307   3.546 -0.0578  0.0815 -0.0329
 3073SOL    HW119553   4.144   3.230   3.524  0.0934 -0.5553  1.7533
 3073SOL    HW219554   4.272   3.318   3.474  0.4031 -1.9141  0.0934
 3074SOL     OW19555   1.513   7.671   1.514 -0.4127  0.4773 -0.1500
 3074SOL    HW119556   1.455   7.641   1.438 -2.4867  1.7510  0.8795
 3074SOL    HW219557   1.516   7.600   1.584 -1.7551  0.8785  0.3335
 3075SOL     OW19558   1.889   3.611   1.283 -0.2382  0.0821 -0.0629
 3075SOL    HW119559   1.846   3.701   1.273 -0.3253  0.0327 -0.1265
 3075SOL    HW219560   1.826   3.540   1.252 -0.3937 -0.0454  0.5382
 3076SOL     OW19561   1.748   0.219   2.943  0.1318  0.3961  0.1901
 3076SOL    HW119562   1.680   0.167   2.891 -0.1327 -0.1352  1.0690
 3076SOL    HW219563   1.815   0.157   2.983  0.0459  0.7633  0.9095
 3077SOL     OW19564   8.784   2.108   1.195 -0.1731  0.4658  0.7607
 3077SOL    HW119565   8.726   2.067   1.124 -0.2161  2.3185 -0.3189
 3077SOL    HW219566   8.745   2.090   1.285 -0.8576 -0.7682  0.2232
 3078SOL     OW19567   4.541   9.922   3.854  0.5421  0.5035  0.5562
 3078SOL    HW119568   4.467   9.891   3.795  0.1810 -1.7251  2.1245
 3078SOL    HW219569   4.504   9.959   3.939  1.2084 -0.2841  1.1940
 3079SOL     OW19570   8.189   9.714   2.190 -0.2276  0.4144  0.7458
 3079SOL    HW119571   8.254   9.790   2.182 -0.6322  0.7898  1.0107
 3079SOL    HW219572   8.096   9.749   2.185 -0.4163 -0.1015  0.5949
 3080SOL     OW19573   0.485   7.593   0.561  0.6684  0.0766  0.1270
 3080SOL    HW119574   0.541   7.665   0.600  0.2618  0.4246  0.0732
 3080SOL    HW219575   0.532   7.552   0.483  0.4371  1.0146 -0.5133
 3081SOL     OW19576   3.794   8.174   2.226 -0.2179  0.3677 -0.1801
 3081SOL    HW119577   3.834   8.151   2.315  0.1617  1.0812 -0.1654
 3081SOL    HW219578   3.860   8.226   2.172 -0.9165  1.0446 -0.3822
 3082SOL     OW19579   8.245   1.454   1.302 -0.0104 -0.2417 -0.2488
 3082SOL    HW119580   8.201   1.532   1.347  0.1870 -0.6706  0.6959
 3082SOL    HW219581   8.341   1.475   1.287 -0.3107  0.3167 -1.4387
 3083SOL     OW19582   1.376   4.684   1.961  0.4419  0.9680 -0.2119
 3083SOL    HW119583   1.348   4.638   1.877  3.5301 -0.0218 -0.7804
 3083SOL    HW219584   1.325   4.646   2.038 -2.5199  1.9905 -1.6232
 3084SOL     OW19585   2.980   5.600   3.983  0.1598 -0.5126  0.1152
 3084SOL    HW119586   3.042   5.679   3.986 -1.6919  1.0708 -1.3117
 3084SOL    HW219587   3.023   5.525   3.933  0.4982  0.9884 -1.9141
 3085SOL     OW19588   0.218   3.571   3.291 -0.0542  0.4898  0.1026
 3085SOL    HW119589   0.131   3.621   3.286  0.5369  1.4394 -1.0441
 3085SOL    HW219590   0.241   3.537   3.200  0.5480 -0.1662  0.4992
 3086SOL     OW19591   2.831   2.589   2.256 -0.4065  0.1625  0.1305
 3086SOL    HW119592   2.897   2.514   2.270 -0.3636  0.1954  0.1049
 3086SOL    HW219593   2.745   2.552   2.220 -0.3675  0.1324  0.0680
 3087SOL     OW19594   8.898   3.056   3.338 -0.4904  0.2270  0.2208
 3087SOL    HW119595   8.931   3.136   3.388  3.0350 -0.5546 -0.7418
 3087SOL    HW219596   8.913   2.974   3.392 -2.2278 -0.0376  0.3426
 3088SOL     OW19597   8.428   1.446   3.933 -0.1702  0.3649 -0.8514
 3088SOL    HW119598   8.403   1.526   3.879  2.6582  1.3940 -0.7269
 3088SOL    HW219599   8.459   1.373   3.873 -1.8213 -0.3066 -0.9034
 3089SOL     OW19600   8.707   6.810   0.551 -0.2326  0.6976 -0.0783
 3089SOL    HW119601   8.703   6.710   0.546  0.5541  0.6306  0.5200
 3089SOL    HW219602   8.697   6.849   0.460  0.8366  0.0188 -0.4959
 3090SOL     OW19603   2.713   9.272   1.627  0.1521 -0.0992  0.3592
 3090SOL    HW119604   2.618   9.246   1.610  0.6574 -1.8517  0.1509
 3090SOL    HW219605   2.772   9.191   1.619  2.0218  1.4643 -2.2856
 3091SOL     OW19606   3.366   0.854   3.672  0.0367  0.0114  0.0169
 3091SOL    HW119607   3.444   0.908   3.641  0.0821 -0.9385 -1.5295
 3091SOL    HW219608   3.287   0.873   3.613 -0.4211 -0.3355  0.5144
 3092SOL     OW19609   9.570   9.145   1.717 -0.1327  0.4232  0.3997
 3092SOL    HW119610   9.505   9.193   1.658  0.0858  1.4290  0.9672
 3092SOL    HW219611   9.562   9.179   1.811  1.6408  1.0298  0.3588
 3093SOL     OW19612   0.239   8.446   3.421  0.3806 -0.1109  0.1605
 3093SOL    HW119613   0.219   8.521   3.358  2.3196 -0.5195 -0.9618
 3093SOL    HW219614   0.296   8.378   3.375  2.1478 -0.2260  2.4562
 3094SOL     OW19615   3.389   2.657   0.641 -0.4999  0.4849  0.3116
 3094SOL    HW119616   3.338   2.577   0.673 -0.0574 -0.0936 -0.3965
 3094SOL    HW219617   3.464   2.676   0.704  1.4219 -1.7026 -1.2546
 3095SOL     OW19618   2.222   4.359   2.733 -0.5426 -0.1592 -0.3829
 3095SOL    HW119619   2.247   4.417   2.811 -0.5434 -1.2858  0.4708
 3095SOL    HW219620   2.286   4.375   2.658 -0.2931  0.6362 -0.0115
 3096SOL     OW19621   9.263   9.875   3.603  0.3054 -0.0519  0.1092
 3096SOL    HW119622   9.174   9.833   3.583  0.5150 -0.8313  0.7643
 3096SOL    HW219623   9.310   9.896   3.517 -0.0847 -0.5662 -0.2372
 3097SOL     OW19624   1.859   7.479   2.473  0.1811 -0.1586  0.3878
 3097SOL    HW119625   1.763   7.451   2.474 -0.0267  0.5538  0.3515
 3097SOL    HW219626   1.884   7.513   2.382  0.3195  0.1673  0.5455
 3098SOL     OW19627   0.684   3.147   0.952  0.7593 -0.2204  0.0720
 3098SOL    HW119628   0.664   3.058   0.992 -2.1374  0.0712 -0.5568
 3098SOL    HW219629   0.692   3.215   1.024  1.0347 -0.6654  0.4593
 3099SOL     OW19630   1.645   0.632   0.395  0.2963  0.6621  0.1767
 3099SOL    HW119631   1.612   0.624   0.489  1.5905  1.6289  0.7252
 3099SOL    HW219632   1.624   0.547   0.345 -2.1980  0.9079  0.7336
 3100SOL     OW19633   9.035   9.146   0.393 -0.1250 -0.0458 -0.3571
 3100SOL    HW119634   9.053   9.085   0.316  1.4947 -0.0204 -0.0149
 3100SOL    HW219635   9.103   9.131   0.465 -0.3517  1.3942  0.1884
 3101SOL     OW19636   7.939   1.922   0.485  0.3336  0.2822  0.3989
 3101SOL    HW119637   7.978   1.868   0.560  1.1485  0.8566  0.3938
 3101SOL    HW219638   8.011   1.942   0.418 -0.2199  0.4246 -0.1557
 3102SOL     OW19639   9.113   9.676   2.676  0.0515  0.1728 -0.2972
 3102SOL    HW119640   9.189   9.734   2.702  0.2319 -0.1867 -0.0120
 3102SOL    HW219641   9.143   9.581   2.673 -0.6445 -0.1108  0.9127
 3103SOL     OW19642   8.919   3.058   2.515  0.1900 -0.4329 -0.6123
 3103SOL    HW119643   8.916   2.960   2.536 -0.4442 -0.0281  1.2994
 3103SOL    HW219644   8.979   3.104   2.581  2.3198  0.1683 -2.8675
 3104SOL     OW19645   1.208   8.508   1.497 -0.4890 -0.6039  0.4056
 3104SOL    HW119646   1.202   8.443   1.572  2.0942 -0.4810  0.7511
 3104SOL    HW219647   1.288   8.567   1.509 -2.1863  1.9563 -0.4603
 3105SOL     OW19648   6.498   9.035   2.347  0.2743  0.1304 -0.0343
 3105SOL    HW119649   6.569   8.973   2.314  1.0256 -0.2958  2.2602
 3105SOL    HW219650   6.517   9.128   2.316  1.9132  0.0357  0.6378
 3106SOL     OW19651   0.280   7.911   0.493 -0.1839  0.3238 -0.3933
 3106SOL    HW119652   0.379   7.923   0.491 -0.3263  1.4947 -0.6708
 3106SOL    HW219653   0.239   7.978   0.555 -0.8137 -0.0680 -0.3775
 3107SOL     OW19654   7.651   8.642   2.891  0.2003 -0.7309 -0.1472
 3107SOL    HW119655   7.561   8.661   2.930  0.4804  0.4176 -0.0495
 3107SOL    HW219656   7.703   8.585   2.954  0.6680  1.1533  1.2133
 3108SOL     OW19657   8.061   3.316   0.677 -0.1269 -0.1224  0.8308
 3108SOL    HW119658   8.142   3.273   0.638 -0.0285  0.1783  0.6956
 3108SOL    HW219659   7.983   3.254   0.672  0.3742 -0.8455  2.0150
 3109SOL     OW19660   6.669   0.435   2.989 -0.4026  0.2402  0.4562
 3109SOL    HW119661   6.748   0.437   3.050  0.1732  0.4218 -0.2867
 3109SOL    HW219662   6.675   0.511   2.924 -0.6250 -0.3960 -0.3095
 3110SOL     OW19663   1.611   9.779   1.921 -0.4146  0.2198  1.0053
 3110SOL    HW119664   1.545   9.734   1.861 -0.0969 -0.4674  1.1650
 3110SOL    HW219665   1.696   9.794   1.871 -0.1307 -0.4017  1.3039
 3111SOL     OW19666   2.811   0.477   3.010 -0.9618 -0.2784  0.3463
 3111SOL    HW119667   2.811   0.574   3.031 -0.2890 -0.5643  1.7436
 3111SOL    HW219668   2.901   0.449   2.978 -0.5950 -0.7829  1.7422
 3112SOL     OW19669   2.483   6.581   1.059  0.2689  0.3371  0.1426
 3112SOL    HW119670   2.513   6.674   1.081  2.1151  0.0019 -0.8121
 3112SOL    HW219671   2.525   6.552   0.973 -1.4109 -0.8691 -0.3010
 3113SOL     OW19672   1.902   6.926   1.356  0.5939  0.3123 -0.2316
 3113SOL    HW119673   1.858   6.857   1.300  0.4645  0.8925 -0.8482
 3113SOL    HW219674   1.968   6.882   1.418  0.4766 -0.3597 -0.5809
 3114SOL     OW19675   4.454   1.900   2.211 -0.5811  0.1743 -0.8810
 3114SOL    HW119676   4.455   1.957   2.129 -0.6635 -0.6930 -1.4832
 3114SOL    HW219677   4.501   1.814   2.193  1.7932  1.0589  0.7706
 3115SOL     OW19678   0.792   7.832   2.231 -0.3091  0.3613 -0.3010
 3115SOL    HW119679   0.777   7.910   2.292 -0.5778 -0.0815  0.2144
 3115SOL    HW219680   0.890   7.815   2.222 -0.2819  0.0511  0.5162
 3116SOL     OW19681   0.919   7.410   0.216  0.1424 -0.2593  0.5863
 3116SOL    HW119682   0.894   7.500   0.181  0.3445 -0.9796 -1.4474
 3116SOL    HW219683   1.018   7.398   0.211  0.2538 -0.0678  2.1637
 3117SOL     OW19684   9.367   3.008   1.466  0.0449 -0.1567  0.2405
 3117SOL    HW119685   9.432   2.995   1.391 -0.6758 -3.1042  0.0622
 3117SOL    HW219686   9.361   3.105   1.488  0.5980  0.7473 -3.2403
 3118SOL     OW19687   1.866   8.230   0.455  0.2260  0.1976 -0.5239
 3118SOL    HW119688   1.823   8.316   0.427  1.2321  1.4777  1.6552
 3118SOL    HW219689   1.796   8.166   0.486 -0.7359 -0.6277 -4.1940
 3119SOL     OW19690   3.315   4.739   3.871  0.1982  1.1213  0.0617
 3119SOL    HW119691   3.382   4.732   3.797  1.8784  3.0316  1.3600
 3119SOL    HW219692   3.239   4.798   3.842 -0.3279 -0.0397 -0.9626
 3120SOL     OW19693   2.736   0.169   3.225  0.3743  0.5501  0.3107
 3120SOL    HW119694   2.648   0.213   3.211  1.0634  2.1662  0.9372
 3120SOL    HW219695   2.767   0.127   3.140 -0.3783  1.1279 -0.2457
 3121SOL     OW19696   9.945   8.859   1.489  0.0725  0.2769  0.2065
 3121SOL    HW119697  10.030   8.855   1.543  0.0065  1.8191  0.4400
 3121SOL    HW219698   9.967   8.848   1.392  0.6516  1.6355  0.1769
 3122SOL     OW19699   7.073   1.205   2.687 -0.6855 -0.7060  0.7343
 3122SOL    HW119700   7.140   1.243   2.623 -2.3794 -2.7779 -2.3994
 3122SOL    HW219701   7.118   1.186   2.775  2.3686 -0.3207 -0.6617
 3123SOL     OW19702   2.390   0.193   0.834 -0.1491 -0.3342 -0.1982
 3123SOL    HW119703   2.369   0.254   0.757  1.2347 -0.1575 -0.4489
 3123SOL    HW219704   2.407   0.101   0.800  3.6292  0.3878 -0.5310
 3124SOL     OW19705   8.651   1.629   3.727  0.4036 -0.1415  0.8481
 3124SOL    HW119706   8.658   1.689   3.807  0.1998 -0.5521  1.1747
 3124SOL    HW219707   8.556   1.624   3.697  0.6692  1.0784 -0.2448
 3125SOL     OW19708   1.466   5.411   3.738 -0.3866 -0.0131  1.0108
 3125SOL    HW119709   1.488   5.462   3.655 -1.7684  1.5049  1.5649
 3125SOL    HW219710   1.404   5.336   3.715 -0.6660  0.3234  0.6622
 3126SOL     OW19711   8.237   2.056   2.207 -0.6215  0.0454 -0.2726
 3126SOL    HW119712   8.181   2.114   2.267 -0.7389  0.1677 -0.5026
 3126SOL    HW219713   8.331   2.056   2.240 -0.7736 -0.2342  0.1706
 3127SOL     OW19714   3.658   2.059   0.736  0.0622  0.0168  0.3953
 3127SOL    HW119715   3.617   2.024   0.820  0.7481  0.2406  0.8161
 3127SOL    HW219716   3.649   1.990   0.664 -0.0906 -0.3583  0.7733
 3128SOL     OW19717   0.045   9.541   2.199 -0.0178 -0.4784 -0.0381
 3128SOL    HW119718  -0.020   9.536   2.123 -0.3621 -1.1518  0.2991
 3128SOL    HW219719  -0.003   9.522   2.285  0.3612  0.3297  0.3545
 3129SOL     OW19720   5.155   9.240   2.353  0.4565 -0.3775 -0.2479
 3129SOL    HW119721   5.138   9.332   2.318  0.6721 -0.8121 -1.5309
 3129SOL    HW219722   5.213   9.245   2.434  1.1049  0.5586 -0.7614
 3130SOL     OW19723   2.636   9.798   0.090  0.4271  0.6041  0.0879
 3130SOL    HW119724   2.539   9.798   0.065 -0.1407 -0.8421  2.1485
 3130SOL    HW219725   2.661   9.887   0.128 -0.3386  0.6811  0.4070
 3131SOL     OW19726   1.714   5.603   1.390 -0.4671  0.3772  0.2980
 3131SOL    HW119727   1.809   5.605   1.359 -0.6343  1.4232 -0.1430
 3131SOL    HW219728   1.700   5.673   1.459 -1.3985  1.5177 -1.0341
 3132SOL     OW19729   2.672   1.262   2.735  0.6621 -0.1953 -0.9606
 3132SOL    HW119730   2.695   1.343   2.682  0.1535  0.4733 -0.1737
 3132SOL    HW219731   2.756   1.213   2.759  1.2182  1.5817  0.8733
 3133SOL     OW19732   2.081   6.312   1.572 -0.0079 -0.0314  0.0229
 3133SOL    HW119733   2.073   6.387   1.507  0.5789  1.1104  1.2509
 3133SOL    HW219734   2.035   6.336   1.657  1.6625 -0.3356  1.0466
 3134SOL     OW19735   8.879   8.186   1.042 -0.4762  0.3518 -0.6918
 3134SOL    HW119736   8.824   8.267   1.021  0.3005  1.5030  1.5083
 3134SOL    HW219737   8.823   8.121   1.094  0.1234  1.4544  1.4087
 3135SOL     OW19738   8.926   7.795   0.824  0.1541 -0.3835  0.2917
 3135SOL    HW119739   8.841   7.799   0.771  0.4468 -0.9407 -0.2241
 3135SOL    HW219740   8.943   7.701   0.852  2.2165 -0.8336 -2.2716
 3136SOL     OW19741   9.973   1.520   0.210  0.2815  0.4806  0.1748
 3136SOL    HW119742   9.957   1.605   0.159  1.3159  0.3948 -0.3035
 3136SOL    HW219743   9.965   1.538   0.308 -0.4646  0.9237  0.0304
 3137SOL     OW19744   3.022   2.287   1.726  0.2644 -0.0350  0.4533
 3137SOL    HW119745   2.924   2.304   1.734  0.6567  2.1251  1.0958
 3137SOL    HW219746   3.046   2.273   1.630 -0.6552 -0.5918  0.2935
 3138SOL     OW19747   0.464   3.329   3.779  0.2192  0.3495  0.4530
 3138SOL    HW119748   0.563   3.345   3.783  0.3740 -0.8500  1.5089
 3138SOL    HW219749   0.428   3.316   3.872 -1.1008  1.7417  0.1640
 3139SOL     OW19750   4.119   7.781   3.156 -0.2242 -0.2543  0.4008
 3139SOL    HW119751   4.114   7.809   3.060  2.7729  1.4474  0.6876
 3139SOL    HW219752   4.064   7.844   3.211  0.3728  0.5112  0.1276
 3140SOL     OW19753   7.729   0.009   2.474 -0.6286  0.2756  0.4569
 3140SOL    HW119754   7.658   0.051   2.417  0.2150  0.4121 -0.5251
 3140SOL    HW219755   7.693  -0.072   2.519 -0.7825 -0.9887 -1.8559
 3141SOL     OW19756   1.605   4.483   3.922 -0.6104  0.0386  0.2416
 3141SOL    HW119757   1.548   4.537   3.860 -0.9622  0.2422  0.7478
 3141SOL    HW219758   1.624   4.535   4.005  1.2248  0.3992 -0.3855
 3142SOL     OW19759   0.846   8.920   1.904 -0.0273 -0.4917 -0.2854
 3142SOL    HW119760   0.922   8.965   1.859 -0.2244  0.3398  0.1977
 3142SOL    HW219761   0.876   8.886   1.993  0.4095 -2.2841 -1.0991
 3143SOL     OW19762   9.772   3.456   3.937 -0.0030 -0.1880 -0.8368
 3143SOL    HW119763   9.736   3.457   4.030  1.1854  0.1718 -0.3646
 3143SOL    HW219764   9.720   3.391   3.881 -0.1418 -1.1057  0.3319
 3144SOL     OW19765   7.671   9.519   0.377  0.1017  0.1890  0.6666
 3144SOL    HW119766   7.629   9.428   0.381  0.4900  0.0407  1.5538
 3144SOL    HW219767   7.766   9.511   0.347  0.4657  0.1865  1.8127
 3145SOL     OW19768   0.626   0.781   2.668 -0.9768 -0.1646 -0.3807
 3145SOL    HW119769   0.703   0.739   2.620 -0.4597 -0.8904  1.0591
 3145SOL    HW219770   0.561   0.817   2.601  2.0029  3.0914 -1.7062
 3146SOL     OW19771   4.473   9.426   0.252  0.1343  0.2859  0.3163
 3146SOL    HW119772   4.420   9.447   0.171 -1.4277 -2.6052  0.4989
 3146SOL    HW219773   4.546   9.362   0.228  0.8199  0.8579  0.8548
 3147SOL     OW19774   3.465   0.783   3.052 -0.1627 -0.1075 -0.2627
 3147SOL    HW119775   3.406   0.704   3.070 -1.6073  0.9823 -0.1633
 3147SOL    HW219776   3.549   0.751   3.008 -1.1100 -1.6165 -1.0415
 3148SOL     OW19777   3.648   9.620   0.329 -0.2825 -0.9181 -0.3628
 3148SOL    HW119778   3.594   9.680   0.388 -0.2887 -1.6621  0.4045
 3148SOL    HW219779   3.743   9.651   0.328 -0.0483 -1.5343  0.9310
 3149SOL     OW19780   2.652   9.638   1.872 -0.0958  0.2981  0.2900
 3149SOL    HW119781   2.578   9.572   1.859 -0.2011  0.5479 -0.3639
 3149SOL    HW219782   2.690   9.627   1.964 -0.5119 -0.2680  0.3963
 3150SOL     OW19783   1.089   0.821   2.167  0.6476 -0.5490  0.1073
 3150SOL    HW119784   1.069   0.729   2.201  0.5226 -0.9017 -0.8952
 3150SOL    HW219785   1.007   0.877   2.175  0.9630 -0.2606  1.5243
 3151SOL     OW19786   0.573   2.340   1.505 -0.4031  0.0413 -0.2485
 3151SOL    HW119787   0.522   2.309   1.424 -0.2690 -0.4715 -0.1374
 3151SOL    HW219788   0.603   2.434   1.491 -0.8523  0.1432 -0.5718
 3152SOL     OW19789   1.895   8.499   0.998  0.3003 -0.1934  0.4577
 3152SOL    HW119790   1.975   8.513   1.056  0.2820  0.4234  0.3314
 3152SOL    HW219791   1.814   8.533   1.045 -0.0037 -1.5294  0.9126
 3153SOL     OW19792   4.394   1.152   1.713  0.6440 -0.4177  0.3125
 3153SOL    HW119793   4.379   1.113   1.623  1.9092  1.1944 -0.6128
 3153SOL    HW219794   4.492   1.159   1.731  0.4837  2.4912  0.3568
 3154SOL     OW19795   9.222   8.131   1.589 -0.3923  0.0090 -0.1636
 3154SOL    HW119796   9.299   8.144   1.651 -0.9460  0.1173  0.4972
 3154SOL    HW219797   9.256   8.092   1.503  0.4325  0.2674  0.0362
 3155SOL     OW19798   9.363   7.805   1.049 -0.3813  0.0864 -0.1409
 3155SOL    HW119799   9.422   7.885   1.048  0.1615 -0.3248 -2.1323
 3155SOL    HW219800   9.288   7.818   0.984  0.6277 -1.6799 -1.6944
 3156SOL     OW19801   4.111   9.766   3.099 -0.1863 -0.6964 -0.0496
 3156SOL    HW119802   4.149   9.690   3.151  1.2402  0.2679  0.3609
 3156SOL    HW219803   4.096   9.844   3.161 -1.8036 -0.6810 -0.4240
 3157SOL     OW19804   3.361   9.214   0.685  0.1418  0.8605 -0.2891
 3157SOL    HW119805   3.289   9.271   0.723  1.6872  3.0024 -0.4799
 3157SOL    HW219806   3.396   9.256   0.602  0.0564 -1.3442 -1.4777
 3158SOL     OW19807   0.664   0.917   3.179 -0.1295  0.0311 -0.0997
 3158SOL    HW119808   0.757   0.944   3.157  0.5155 -0.6117  1.7501
 3158SOL    HW219809   0.627   0.860   3.106  0.5204  1.1997 -1.3592
 3159SOL     OW19810   2.575   1.355   0.186 -0.3986 -0.2713  0.3169
 3159SOL    HW119811   2.542   1.356   0.092 -0.2404  0.4328  0.2616
 3159SOL    HW219812   2.545   1.272   0.232 -2.8820  0.6862  0.4932
 3160SOL     OW19813   8.815   1.073   0.518 -0.2943 -0.6405 -0.4479
 3160SOL    HW119814   8.874   1.128   0.577 -1.1805  0.0769 -0.2213
 3160SOL    HW219815   8.826   0.976   0.542 -0.7059 -0.3523  0.9722
 3161SOL     OW19816   3.545   2.157   2.926  0.2176 -0.1284  0.3806
 3161SOL    HW119817   3.590   2.209   2.999  2.8009  1.2769 -2.1000
 3161SOL    HW219818   3.568   2.060   2.935  0.8760  0.0936  1.1499
 3162SOL     OW19819   7.530   9.964   2.778 -0.6224 -0.0806 -0.2657
 3162SOL    HW119820   7.432   9.946   2.770 -0.5669  0.8742 -4.4419
 3162SOL    HW219821   7.581   9.901   2.719  1.1321  0.7082  0.3580
 3163SOL     OW19822   8.437   3.991   1.112 -0.1556  0.5542 -0.5405
 3163SOL    HW119823   8.423   4.006   1.209 -2.0782  2.1061 -1.0221
 3163SOL    HW219824   8.482   4.071   1.072  1.2494 -0.3575 -0.8209
 3164SOL     OW19825   2.410   0.267   1.824  0.3352 -0.2056  0.7813
 3164SOL    HW119826   2.346   0.314   1.763  0.4238  1.5105  1.9794
 3164SOL    HW219827   2.389   0.291   1.919  1.5257 -1.2053  1.3123
 3165SOL     OW19828   0.468   0.558   2.765 -0.2702  0.4644 -0.2628
 3165SOL    HW119829   0.392   0.570   2.700 -0.4142  0.3807 -0.1113
 3165SOL    HW219830   0.542   0.621   2.741  0.8872 -1.5874 -2.2541
 3166SOL     OW19831   6.851   9.489   3.877  0.1627 -0.0083 -0.5248
 3166SOL    HW119832   6.831   9.519   3.784 -0.5345  3.3146  0.6035
 3166SOL    HW219833   6.938   9.530   3.907  1.4226 -2.6962 -0.3852
 3167SOL     OW19834   2.334   0.227   0.109  0.2718 -0.0546 -0.5308
 3167SOL    HW119835   2.365   0.217   0.204  1.0756  0.3287 -0.7421
 3167SOL    HW219836   2.414   0.241   0.050 -0.2117 -0.4584 -1.2857
 3168SOL     OW19837   1.619   1.288   3.280 -0.3679 -0.0484 -0.4225
 3168SOL    HW119838   1.653   1.322   3.192  0.5511 -0.3383 -0.1821
 3168SOL    HW219839   1.580   1.197   3.268  0.6346 -0.4893 -0.3488
 3169SOL     OW19840   2.605   7.630   1.562  0.4363 -0.2876 -0.3928
 3169SOL    HW119841   2.693   7.582   1.555  0.2587 -0.7586  0.6262
 3169SOL    HW219842   2.574   7.631   1.657  0.3747  1.7468 -0.4032
 3170SOL     OW19843   7.993   9.128   2.345 -0.0496 -0.6669  0.3766
 3170SOL    HW119844   7.936   9.049   2.322 -0.2982 -0.9038  1.7480
 3170SOL    HW219845   7.964   9.207   2.291  1.5392 -1.9879 -2.5124
 3171SOL     OW19846   7.867   0.545   2.313 -0.3350  0.7993 -0.0002
 3171SOL    HW119847   7.959   0.582   2.327  0.5731 -1.0691 -0.9215
 3171SOL    HW219848   7.843   0.485   2.389 -0.7246  1.1180  0.1328
 3172SOL     OW19849   5.670   8.479   2.353  0.0031  0.6880 -0.1466
 3172SOL    HW119850   5.651   8.535   2.433 -0.3419  2.3019 -1.3431
 3172SOL    HW219851   5.766   8.491   2.325 -0.0405  0.6042 -0.3365
 3173SOL     OW19852   3.239   8.871   2.191 -0.0974  0.3031  0.2073
 3173SOL    HW119853   3.190   8.948   2.232 -2.6187 -1.2578  0.2061
 3173SOL    HW219854   3.239   8.793   2.253  3.4019  0.5852  0.6641
 3174SOL     OW19855   1.039   7.966   2.452  0.1126  0.0834  0.2999
 3174SOL    HW119856   1.067   7.998   2.361  3.3535 -3.5104 -0.0788
 3174SOL    HW219857   1.120   7.942   2.506 -1.7906  1.5988  3.9996
 3175SOL     OW19858   9.398   0.693   3.820 -0.1680  0.5308  0.1575
 3175SOL    HW119859   9.489   0.653   3.828 -0.4176  0.3495  2.8261
 3175SOL    HW219860   9.331   0.621   3.805 -0.0902  0.4332  0.2693
 3176SOL     OW19861   4.323   8.783   3.165 -0.2627 -0.4562  0.1831
 3176SOL    HW119862   4.300   8.830   3.250  0.5732 -1.8546  1.2090
 3176SOL    HW219863   4.295   8.839   3.087  0.9725  1.8830  1.3632
 3177SOL     OW19864   9.340   7.874   3.831 -0.5253 -0.0157 -0.3451
 3177SOL    HW119865   9.422   7.848   3.881  0.2902 -1.5494 -2.3759
 3177SOL    HW219866   9.271   7.802   3.841 -0.7421  0.1634 -0.5403
 3178SOL     OW19867   2.303   8.304   1.224  0.0724 -0.2575  0.1669
 3178SOL    HW119868   2.243   8.356   1.285 -0.1316 -0.1526 -0.1233
 3178SOL    HW219869   2.376   8.261   1.278 -0.3440 -0.5061  0.5385
 3179SOL     OW19870   3.513   3.637   2.901  0.0036  0.5160 -0.4308
 3179SOL    HW119871   3.523   3.557   2.960 -1.1442  0.8847  0.2738
 3179SOL    HW219872   3.571   3.626   2.820 -0.9256 -1.5121 -0.8708
 3180SOL     OW19873   1.239   5.872   3.325 -0.6326 -0.3726  0.0808
 3180SOL    HW119874   1.231   5.882   3.425 -0.6655  0.0747  0.0375
 3180SOL    HW219875   1.224   5.961   3.282  1.4659 -0.1335 -0.2059
 3181SOL     OW19876   2.484   3.309   3.808  0.2284  0.5547  0.5222
 3181SOL    HW119877   2.474   3.214   3.779 -0.7932  0.6693  0.5079
 3181SOL    HW219878   2.420   3.330   3.881  1.0356  1.0027  1.1168
 3182SOL     OW19879   1.449   1.817   3.049 -0.2247  0.3949  0.0325
 3182SOL    HW119880   1.418   1.849   2.960  0.3902  1.3907  0.1652
 3182SOL    HW219881   1.549   1.807   3.049 -0.4249 -2.0665 -0.1651
 3183SOL     OW19882   0.480   0.771   1.005  0.0237 -0.4020 -0.5960
 3183SOL    HW119883   0.567   0.821   1.000  0.0894 -0.6238 -2.0718
 3183SOL    HW219884   0.482   0.695   0.939 -1.2977 -0.3956 -0.6589
 3184SOL     OW19885   3.852   8.449   1.655  0.7207  0.0256 -0.1533
 3184SOL    HW119886   3.814   8.440   1.563 -0.0774 -2.4336  0.3766
 3184SOL    HW219887   3.798   8.516   1.707  0.1055  0.1448 -0.9282
 3185SOL     OW19888   8.828   3.202   3.649  0.2171  0.1099  0.1769
 3185SOL    HW119889   8.770   3.137   3.600 -1.4299  0.9000  1.0732
 3185SOL    HW219890   8.799   3.295   3.630  1.1436  0.5192  0.7013
 3186SOL     OW19891   8.758   0.107   0.477 -0.4857 -0.2793 -0.6855
 3186SOL    HW119892   8.730   0.138   0.568 -0.7323 -1.3682 -0.3738
 3186SOL    HW219893   8.677   0.086   0.423 -0.3249 -1.6012 -0.4411
 3187SOL     OW19894   3.903   7.785   2.100 -0.3156 -0.2991  0.5906
 3187SOL    HW119895   3.904   7.699   2.048 -0.1846 -1.0251  1.7665
 3187SOL    HW219896   3.811   7.824   2.097  0.3781  1.2773 -2.7179
 3188SOL     OW19897   2.724   5.754   2.462  0.2712 -0.4268 -0.0302
 3188SOL    HW119898   2.752   5.850   2.455  0.5490 -0.5542 -0.7854
 3188SOL    HW219899   2.803   5.699   2.489 -0.3387 -0.1993  2.2677
 3189SOL     OW19900   0.853   2.666   1.556  0.1091 -0.1621 -0.0800
 3189SOL    HW119901   0.815   2.670   1.463 -3.5300  0.6933  1.3694
 3189SOL    HW219902   0.818   2.585   1.603  0.9149  0.1005  0.9924
 3190SOL     OW19903   2.000   1.423   3.253 -0.4129  0.0195  0.3038
 3190SOL    HW119904   2.084   1.378   3.223 -0.4097  0.2730 -0.0734
 3190SOL    HW219905   1.936   1.429   3.177 -2.2066 -3.3844  1.4646
 3191SOL     OW19906   8.568   0.909   3.224  0.2139 -0.1806 -1.0848
 3191SOL    HW119907   8.601   0.967   3.150 -1.7665  0.9122 -1.1426
 3191SOL    HW219908   8.628   0.919   3.304 -0.3862  2.3521 -0.9303
 3192SOL     OW19909   3.961   0.802   0.619 -0.2434 -0.1093  0.1413
 3192SOL    HW119910   3.977   0.900   0.629 -0.9196 -0.1373  1.5320
 3192SOL    HW219911   3.918   0.766   0.702 -0.6194 -1.4529 -0.6188
 3193SOL     OW19912   3.763   4.473   1.390  0.2266 -0.6408  0.0529
 3193SOL    HW119913   3.677   4.463   1.339  1.0114 -0.8048 -1.2734
 3193SOL    HW219914   3.775   4.568   1.417  0.7923 -0.1286 -1.9092
 3194SOL     OW19915   2.305   2.746   1.139 -0.3938 -0.2794 -0.0749
 3194SOL    HW119916   2.265   2.836   1.154 -0.4952 -0.4897  0.9698
 3194SOL    HW219917   2.392   2.739   1.188  1.5703  0.5944 -3.2828
 3195SOL     OW19918   8.429   2.936   1.970  0.0248  0.5288 -0.4640
 3195SOL    HW119919   8.330   2.934   1.981  0.1731  0.7487  1.0331
 3195SOL    HW219920   8.459   3.031   1.961  0.3693  0.6484  1.8199
 3196SOL     OW19921   7.617   9.496   2.099 -0.0029 -0.3228  0.1618
 3196SOL    HW119922   7.627   9.568   2.168  1.9190 -1.0386  0.6701
 3196SOL    HW219923   7.530   9.449   2.113 -1.3322  1.9505 -0.2446
 3197SOL     OW19924   9.010   1.186   1.306  0.7241  0.2165 -0.0030
 3197SOL    HW119925   8.914   1.191   1.332  0.1362 -1.4801 -1.7194
 3197SOL    HW219926   9.021   1.119   1.232  3.3739 -0.4243  0.9106
 3198SOL     OW19927   1.871   1.227   2.300 -0.2782 -0.2901  0.7857
 3198SOL    HW119928   1.890   1.157   2.368  0.4026 -2.1747 -1.2688
 3198SOL    HW219929   1.779   1.214   2.263 -0.7673  0.9161  1.5711
 3199SOL     OW19930   9.045   1.586   2.415 -0.1488 -0.0787 -0.5059
 3199SOL    HW119931   9.001   1.567   2.327 -1.5776  0.9921 -0.0449
 3199SOL    HW219932   9.038   1.684   2.435  1.0230 -0.1589  0.3453
 3200SOL     OW19933   9.728   8.934   3.724  0.0277 -0.1496 -0.9536
 3200SOL    HW119934   9.789   8.881   3.784 -1.0593 -0.8461 -0.4516
 3200SOL    HW219935   9.776   8.953   3.638  1.7861  1.2901  0.2868
 3201SOL     OW19936   3.691   7.968   2.051 -0.2090  0.0667  0.2846
 3201SOL    HW119937   3.742   8.018   2.121  1.6493 -0.9045 -0.3262
 3201SOL    HW219938   3.707   8.010   1.961  0.7678 -1.1481 -0.1242
 3202SOL     OW19939   0.961   0.753   1.657  0.8695 -0.3404  0.5560
 3202SOL    HW119940   0.919   0.663   1.642  0.8051 -0.2723  0.3313
 3202SOL    HW219941   0.955   0.776   1.754  0.7384 -0.5064  0.5878
 3203SOL     OW19942   3.794   7.862   3.538 -0.2984 -0.2850 -0.2874
 3203SOL    HW119943   3.699   7.847   3.510 -0.7108  1.8749 -0.0862
 3203SOL    HW219944   3.806   7.956   3.570  1.3911 -1.1737  1.8601
 3204SOL     OW19945   0.670   3.025   1.422 -0.6622  0.3443  1.0897
 3204SOL    HW119946   0.601   2.993   1.356  0.0089  0.0395  0.5358
 3204SOL    HW219947   0.637   3.006   1.515 -0.4530 -1.6262  0.7838
 3205SOL     OW19948   2.656   2.102   0.212  0.1384  0.6174 -0.4486
 3205SOL    HW119949   2.655   2.189   0.162  2.4559  1.8040  1.4471
 3205SOL    HW219950   2.616   2.116   0.303  0.6979 -0.2601 -0.0650
 3206SOL     OW19951   9.106   2.878   4.036 -0.2334 -0.9798 -0.1629
 3206SOL    HW119952   9.061   2.862   3.949 -0.1582  0.3251 -0.4600
 3206SOL    HW219953   9.087   2.972   4.066  0.3326 -1.1897  0.8588
 3207SOL     OW19954   7.850   8.592   0.344  0.0608  0.2340 -0.4422
 3207SOL    HW119955   7.921   8.599   0.414 -0.2977  0.9023 -0.1457
 3207SOL    HW219956   7.766   8.556   0.385  0.7504 -2.3189 -1.1576
 3208SOL     OW19957   4.046   9.000   3.002  0.6862 -0.1782  0.6192
 3208SOL    HW119958   4.127   8.967   2.953  0.6437 -1.0958  1.1462
 3208SOL    HW219959   4.069   9.011   3.099  0.1796 -0.4575  0.7701
 3209SOL     OW19960   9.499   9.634   3.887 -0.4246  0.0570 -0.3657
 3209SOL    HW119961   9.405   9.663   3.903 -0.4185  0.2020 -0.5914
 3209SOL    HW219962   9.537   9.685   3.810  0.1468  0.6843  0.3200
 3210SOL     OW19963   4.307   8.896   3.406 -0.4335 -0.3422 -0.3848
 3210SOL    HW119964   4.301   8.826   3.477 -0.6521 -2.0628 -2.0379
 3210SOL    HW219965   4.386   8.955   3.423 -1.2721  0.1417  2.0003
 3211SOL     OW19966   2.504   4.488   2.847 -0.9136  0.7294 -0.1086
 3211SOL    HW119967   2.527   4.391   2.860  0.8444  1.3099  1.3568
 3211SOL    HW219968   2.565   4.527   2.778 -2.7756  0.4073 -1.9955
 3212SOL     OW19969   2.064   4.754   2.272  0.6408  0.4606 -0.4000
 3212SOL    HW119970   2.082   4.753   2.370  0.1450  1.8748 -0.2816
 3212SOL    HW219971   2.008   4.675   2.247 -0.5671  0.9373  0.7264
 3213SOL     OW19972   0.015   1.991   1.344  0.2717  0.4510  0.4793
 3213SOL    HW119973   0.079   1.959   1.274  0.8582  3.0001 -0.1777
 3213SOL    HW219974   0.066   2.035   1.418 -0.4941 -0.5286  1.6082
 3214SOL     OW19975   3.029   0.835   0.743 -0.0191 -0.0042  0.2659
 3214SOL    HW119976   3.088   0.914   0.729 -0.7615  0.6077  0.5299
 3214SOL    HW219977   2.998   0.833   0.838 -1.6388  0.5434 -0.2411
 3215SOL     OW19978   0.161   7.851   1.538  0.0741  0.2608  0.1848
 3215SOL    HW119979   0.136   7.880   1.446  0.7330 -1.4473 -0.5574
 3215SOL    HW219980   0.121   7.761   1.557  0.9599  0.0460  1.0902
 3216SOL     OW19981   8.638   8.193   0.434 -0.1973 -0.1155  0.4682
 3216SOL    HW119982   8.735   8.217   0.445  0.1086 -0.6465 -1.0307
 3216SOL    HW219983   8.583   8.275   0.446  0.5089  0.3855  0.3543
 3217SOL     OW19984   1.267   0.555   2.387  0.8611  0.2137 -0.4690
 3217SOL    HW119985   1.177   0.515   2.373  1.1862 -0.2362 -1.2812
 3217SOL    HW219986   1.258   0.654   2.400  0.1429  0.0072  0.6957
 3218SOL     OW19987   3.545   8.260   1.501  0.0896  0.0474  0.1502
 3218SOL    HW119988   3.530   8.162   1.491 -0.0540  0.0475  0.3403
 3218SOL    HW219989   3.637   8.284   1.470 -0.3526  0.0615 -1.1889
 3219SOL     OW19990   6.633   8.948   3.328 -0.3034 -0.1844  0.1409
 3219SOL    HW119991   6.650   8.893   3.246  1.0862 -0.6731  0.7445
 3219SOL    HW219992   6.538   8.936   3.357 -0.3157 -1.3643 -0.3791
 3220SOL     OW19993   2.459   1.109   1.198 -0.0669 -0.0180 -0.3896
 3220SOL    HW119994   2.531   1.105   1.267  0.1753  0.0691 -0.6364
 3220SOL    HW219995   2.471   1.191   1.142  1.4258 -1.5614 -2.3777
 3221SOL     OW19996   8.644   0.462   0.089  0.3453  0.4781 -0.0827
 3221SOL    HW119997   8.729   0.410   0.086 -0.5618 -1.0597  0.3943
 3221SOL    HW219998   8.664   0.557   0.114  1.9728  0.2985 -0.6138
 3222SOL     OW19999   0.715   9.876   2.114  0.3584  0.4698  0.7098
 3222SOL    HW120000   0.639   9.812   2.121 -1.1307  2.2843  1.5906
 3222SOL    HW220001   0.780   9.844   2.044 -1.7582 -0.5477 -0.8378
 3223SOL     OW20002   9.052   9.062   2.536 -1.0928 -0.3187 -0.0759
 3223SOL    HW120003   9.010   9.067   2.627  0.2638  0.0278  0.5468
 3223SOL    HW220004   9.150   9.046   2.546 -1.0428 -1.0054 -1.5040
 3224SOL     OW20005   2.897   0.707   1.955  0.6098 -0.5405 -0.1050
 3224SOL    HW120006   2.969   0.730   2.020 -1.5763  0.5791  2.0022
 3224SOL    HW220007   2.905   0.765   1.873  0.7347  1.1810  1.1075
 3225SOL     OW20008   0.027   1.665   3.615  0.6843  0.3809  0.1708
 3225SOL    HW120009  -0.046   1.641   3.550 -2.1881  1.6121  2.8223
 3225SOL    HW220010   0.046   1.587   3.674 -0.2002  0.8200  1.0412
 3226SOL     OW20011   0.522   9.476   2.971 -0.5409  0.6528  0.5039
 3226SOL    HW120012   0.443   9.419   2.994 -1.5178  1.5127 -0.6673
 3226SOL    HW220013   0.521   9.558   3.028  0.4400 -0.0988  1.6445
 3227SOL     OW20014   6.982   6.610   0.073 -0.4703  0.2551 -0.0760
 3227SOL    HW120015   6.961   6.533   0.013 -0.4332  0.3301 -0.1866
 3227SOL    HW220016   6.912   6.681   0.063 -0.5941  0.1622  0.1509
 3228SOL     OW20017   2.548   0.327   4.003  0.3655  0.3720 -0.0365
 3228SOL    HW120018   2.579   0.385   4.078 -0.2641  1.4962 -0.6335
 3228SOL    HW220019   2.624   0.271   3.971  0.9214  0.6877  0.7113
 3229SOL     OW20020   3.568   1.231   2.995  0.1570  0.2607 -0.3404
 3229SOL    HW120021   3.648   1.206   2.941  1.1370 -1.5367  1.8729
 3229SOL    HW220022   3.490   1.176   2.966  0.2386  0.5200 -1.0688
 3230SOL     OW20023   2.430   0.621   0.446 -0.2700 -0.5091  0.0445
 3230SOL    HW120024   2.463   0.591   0.536 -0.3861  0.0849  0.2899
 3230SOL    HW220025   2.495   0.592   0.376 -0.7842 -2.0380  0.1782
 3231SOL     OW20026   9.665   1.111   2.211 -0.1017  0.0241  0.1957
 3231SOL    HW120027   9.599   1.186   2.224 -0.6927 -0.2935 -0.9031
 3231SOL    HW220028   9.626   1.044   2.148  1.2093 -0.2628 -0.3103
 3232SOL     OW20029   1.752   9.480   1.430  0.1587  0.2017  0.1015
 3232SOL    HW120030   1.756   9.474   1.330 -0.8137  0.5767  0.0309
 3232SOL    HW220031   1.664   9.521   1.457  0.0345 -0.7334  1.1393
 3233SOL     OW20032   0.116   2.688   0.497 -0.0881 -0.2703  0.4482
 3233SOL    HW120033   0.056   2.767   0.484 -1.1343 -0.8068  1.8820
 3233SOL    HW220034   0.189   2.689   0.428 -2.5963 -0.4282 -2.3078
 3234SOL     OW20035   4.512   7.641   1.692 -0.4617  0.1661 -0.0565
 3234SOL    HW120036   4.564   7.597   1.619  1.0827 -1.6437  2.0944
 3234SOL    HW220037   4.444   7.577   1.729 -1.4048  1.1539 -0.0373
 3235SOL     OW20038   8.497   2.848   2.428  0.3766 -0.0845  0.8178
 3235SOL    HW120039   8.402   2.816   2.427 -0.0140  1.0315  0.9196
 3235SOL    HW220040   8.543   2.819   2.344 -0.6213  0.9902 -0.1239
 3236SOL     OW20041   0.126   3.244   0.196  0.2155  0.3851 -0.4052
 3236SOL    HW120042   0.030   3.238   0.223  0.0234 -0.7174 -1.3508
 3236SOL    HW220043   0.179   3.175   0.245  0.3248  0.1710 -0.8282
 3237SOL     OW20044   8.653   8.599   3.589 -0.3970 -0.3727 -0.4117
 3237SOL    HW120045   8.573   8.595   3.530  0.4251 -2.3617 -1.4642
 3237SOL    HW220046   8.657   8.516   3.645  1.3486 -0.6942 -0.9736
 3238SOL     OW20047   8.401   8.555   1.132 -0.4571 -0.6981 -0.3993
 3238SOL    HW120048   8.428   8.482   1.069  0.8724 -2.2237  1.8888
 3238SOL    HW220049   8.329   8.521   1.193 -1.5673  0.6950 -0.8928
 3239SOL     OW20050   2.596   4.964   3.440  0.0193 -0.1834 -0.4648
 3239SOL    HW120051   2.631   4.872   3.457 -0.8529 -0.6099 -0.9139
 3239SOL    HW220052   2.642   5.003   3.360  1.6046  0.4452  0.7492
 3240SOL     OW20053   0.682   0.720   0.277 -0.0527 -0.2657  0.0783
 3240SOL    HW120054   0.656   0.751   0.368  2.3679  1.0688  0.3752
 3240SOL    HW220055   0.602   0.722   0.217 -1.5847 -0.8040  2.0690
 3241SOL     OW20056   1.819   6.834   1.857 -0.1396  0.9530  0.1148
 3241SOL    HW120057   1.800   6.840   1.955  1.6564 -1.0189  0.6311
 3241SOL    HW220058   1.733   6.819   1.808 -0.8173 -0.4545  1.6490
 3242SOL     OW20059   0.651   7.638   3.915 -0.9748 -0.6915 -0.4722
 3242SOL    HW120060   0.651   7.725   3.866  0.3417 -0.7888 -0.6808
 3242SOL    HW220061   0.557   7.610   3.935 -1.4292  0.4334 -1.0096
 3243SOL     OW20062   0.564   9.967   2.560 -0.0698 -0.1358  0.4276
 3243SOL    HW120063   0.616   9.893   2.603  0.9060 -0.7965 -1.7932
 3243SOL    HW220064   0.469   9.963   2.589 -0.7055 -4.1137 -1.8651
 3244SOL     OW20065   0.993   8.814   0.644  0.1064  0.6591  0.7190
 3244SOL    HW120066   0.903   8.840   0.679  0.3712  2.7096 -0.0483
 3244SOL    HW220067   1.056   8.891   0.654  0.4548  0.9904 -3.2355
 3245SOL     OW20068   8.385   3.294   1.567  0.3371  0.1585  0.3505
 3245SOL    HW120069   8.472   3.290   1.617 -0.5306 -0.2329  1.8606
 3245SOL    HW220070   8.399   3.266   1.472  1.8587  0.1294  0.5759
 3246SOL     OW20071   4.221   2.737   1.484 -0.0216  0.1745 -0.1793
 3246SOL    HW120072   4.167   2.806   1.436 -1.1902  0.1346  1.0403
 3246SOL    HW220073   4.203   2.744   1.582 -1.4360 -2.9091 -0.1445
 3247SOL     OW20074   1.397   1.823   1.849 -0.8178 -0.0550  0.3224
 3247SOL    HW120075   1.462   1.892   1.883 -2.2938  1.0733  0.9241
 3247SOL    HW220076   1.376   1.759   1.923 -1.6212  0.5350  0.6059
 3248SOL     OW20077   2.068   6.535   1.397 -0.1522  0.2998 -0.1492
 3248SOL    HW120078   2.068   6.631   1.423 -1.4317  0.2653  0.0234
 3248SOL    HW220079   2.121   6.523   1.313 -0.3338  1.2242 -0.4032
 3249SOL     OW20080   9.287   8.949   2.029 -0.4557  0.1386 -0.5748
 3249SOL    HW120081   9.262   9.043   2.051 -1.0481 -0.0982 -0.2276
 3249SOL    HW220082   9.349   8.949   1.950 -0.2249  0.8323 -0.3988
 3250SOL     OW20083   2.632   3.793   0.785 -0.2955  0.2187  0.1349
 3250SOL    HW120084   2.667   3.817   0.875 -0.6497  2.0408 -0.1850
 3250SOL    HW220085   2.697   3.734   0.738  0.2653 -0.0695  1.2641
 3251SOL     OW20086   4.793   8.100   2.648 -0.0111  0.3326  0.1893
 3251SOL    HW120087   4.776   8.197   2.665 -0.5098  0.2038  0.4061
 3251SOL    HW220088   4.853   8.091   2.568  0.5167  0.8403  0.5167
 3252SOL     OW20089   8.719   7.648   0.659  0.5052 -0.2504  0.0475
 3252SOL    HW120090   8.646   7.686   0.716  0.7203  0.1795  0.0467
 3252SOL    HW220091   8.743   7.557   0.692 -0.7759 -0.8488 -0.6390
 3253SOL     OW20092   0.075   1.757   1.669 -0.2225  0.0824 -0.2720
 3253SOL    HW120093   0.163   1.800   1.686 -0.2617 -0.2588  0.8665
 3253SOL    HW220094   0.086   1.683   1.602  0.2297  0.4579 -0.6152
 3254SOL     OW20095   1.912   5.965   0.044 -0.3881  0.0205 -0.3953
 3254SOL    HW120096   1.834   6.014   0.082  0.2285  0.5688  0.1854
 3254SOL    HW220097   1.991   5.978   0.104 -0.6036 -2.9515  0.6276
 3255SOL     OW20098   3.192   0.341   1.863 -0.1728 -0.3421 -0.2552
 3255SOL    HW120099   3.258   0.388   1.921 -0.1132 -0.2446 -0.4030
 3255SOL    HW220100   3.108   0.395   1.859 -0.6563 -0.9912  0.8112
 3256SOL     OW20101   4.270   8.882   2.893 -0.0261  0.1985  0.0833
 3256SOL    HW120102   4.335   8.958   2.889  0.6737 -0.4454 -1.1039
 3256SOL    HW220103   4.243   8.857   2.800 -1.5668  0.1052  0.5421
 3257SOL     OW20104   3.219   9.789   1.844 -0.2429 -0.6448 -0.5365
 3257SOL    HW120105   3.188   9.783   1.749  0.3050 -1.4879 -0.6642
 3257SOL    HW220106   3.271   9.707   1.867  0.8618  0.2220  0.0511
 3258SOL     OW20107   9.457   2.793   0.170  0.0942  0.3780 -0.2180
 3258SOL    HW120108   9.461   2.803   0.070 -2.8566 -2.3082 -0.6713
 3258SOL    HW220109   9.362   2.795   0.200  0.7870 -1.4015  2.2255
 3259SOL     OW20110   0.418   0.304   0.184 -0.4365 -0.2508  0.6687
 3259SOL    HW120111   0.328   0.292   0.143 -0.0559 -2.3013  0.3603
 3259SOL    HW220112   0.409   0.306   0.284 -1.0775  2.0917  0.5847
 3260SOL     OW20113   3.856   9.473   2.926  0.1323  0.4155 -0.4695
 3260SOL    HW120114   3.765   9.489   2.889  1.1581 -1.6632 -4.0728
 3260SOL    HW220115   3.922   9.533   2.880  0.8932  0.4402  0.6331
 3261SOL     OW20116   2.230   7.916   2.518 -0.5706  0.0161  0.2649
 3261SOL    HW120117   2.145   7.965   2.499 -0.0790  1.4991  1.7232
 3261SOL    HW220118   2.228   7.826   2.474 -1.5324  1.2874 -2.3915
 3262SOL     OW20119   2.802   1.788   2.067 -0.1592  0.0663  0.2922
 3262SOL    HW120120   2.783   1.846   1.988 -0.3662 -1.3416 -0.7189
 3262SOL    HW220121   2.894   1.808   2.101  0.1396  0.3105 -0.6413
 3263SOL     OW20122   8.777   1.606   0.909  0.0435 -0.1356  0.0786
 3263SOL    HW120123   8.822   1.631   0.823  0.0473 -1.1284 -0.2224
 3263SOL    HW220124   8.834   1.540   0.958 -0.7979 -0.9570 -0.0271
 3264SOL     OW20125   9.825   2.144   2.395 -0.1295  0.7737 -0.2083
 3264SOL    HW120126   9.785   2.120   2.484  1.4263  0.4953  0.4373
 3264SOL    HW220127   9.761   2.121   2.322  0.0694 -2.5584  0.5955
 3265SOL     OW20128   2.759   9.366   2.278  0.2350  0.0771  0.0682
 3265SOL    HW120129   2.818   9.308   2.333  0.2494  0.2565  0.2424
 3265SOL    HW220130   2.736   9.449   2.329 -1.4524 -0.7081  0.6412
 3266SOL     OW20131   6.830   9.488   1.763 -0.3378 -0.2869 -0.3623
 3266SOL    HW120132   6.889   9.557   1.722  2.5581 -1.9905  0.7899
 3266SOL    HW220133   6.836   9.403   1.709 -0.0053 -1.1476  0.9981
 3267SOL     OW20134   1.978   2.609   3.842 -0.1209 -0.4510 -0.4814
 3267SOL    HW120135   2.013   2.701   3.824  1.0076 -0.8019 -0.1557
 3267SOL    HW220136   1.991   2.552   3.761 -0.2430 -0.4858 -0.4756
 3268SOL     OW20137   3.209   7.357   0.110  0.2727 -0.0859 -0.5826
 3268SOL    HW120138   3.250   7.283   0.162  1.0258  0.1859 -0.7891
 3268SOL    HW220139   3.221   7.341   0.012 -1.7603 -0.9567 -0.7235
 3269SOL     OW20140   3.746   0.138   0.146 -0.3682  0.0582 -0.2692
 3269SOL    HW120141   3.697   0.213   0.190 -0.5832 -0.3053  0.1052
 3269SOL    HW220142   3.761   0.064   0.211  0.3979  0.0315 -0.4683
 3270SOL     OW20143   4.074   1.152   0.957  0.2405  0.1051 -0.1867
 3270SOL    HW120144   4.112   1.207   0.883 -1.9788  2.2868  0.2516
 3270SOL    HW220145   4.132   1.160   1.038 -0.5502  2.6424  0.1749
 3271SOL     OW20146   1.606   0.376   2.338 -0.4145 -0.0313  0.0142
 3271SOL    HW120147   1.662   0.457   2.324 -0.5518  0.1812  0.6686
 3271SOL    HW220148   1.546   0.362   2.259  0.2712 -0.0310 -0.5095
 3272SOL     OW20149   1.528   3.066   2.654  0.2248  0.3214  0.2379
 3272SOL    HW120150   1.555   3.095   2.563 -0.3161  0.4035  0.1006
 3272SOL    HW220151   1.492   3.144   2.704  2.1190  0.6568  1.1305
 3273SOL     OW20152   3.504   3.102   2.667  0.4941 -0.0654 -0.4325
 3273SOL    HW120153   3.507   3.197   2.697  3.1484 -0.5180  0.8822
 3273SOL    HW220154   3.463   3.097   2.576 -0.1292  2.2770 -0.3098
 3274SOL     OW20155   9.910   1.226   1.456  0.1924  0.2225  0.0322
 3274SOL    HW120156   9.850   1.270   1.522  0.2906  0.5187 -0.0758
 3274SOL    HW220157  10.004   1.226   1.491  0.2276  0.2864 -0.0615
 3275SOL     OW20158   3.366   4.986   3.984 -0.0058  0.2346 -0.2622
 3275SOL    HW120159   3.451   5.039   3.994 -1.2205  2.5601 -1.7259
 3275SOL    HW220160   3.386   4.899   3.938  1.9851 -0.4902  1.8969
 3276SOL     OW20161   1.508   1.569   2.288 -0.3388  0.0710 -0.2229
 3276SOL    HW120162   1.441   1.622   2.236 -0.7060 -1.4940 -1.3885
 3276SOL    HW220163   1.599   1.608   2.275 -0.7457  1.0198 -0.2388
 3277SOL     OW20164   8.170   2.438   0.168 -1.0433 -0.2131  0.3932
 3277SOL    HW120165   8.213   2.363   0.217 -0.4215 -1.0533 -1.3774
 3277SOL    HW220166   8.234   2.515   0.160 -1.8997  0.8029  2.7697
 3278SOL     OW20167   3.789   1.842   2.387 -0.8710 -0.2852 -0.4487
 3278SOL    HW120168   3.798   1.921   2.326 -0.6761  0.0729  0.0337
 3278SOL    HW220169   3.787   1.758   2.333  0.0289 -0.0236 -0.9059
 3279SOL     OW20170   8.408   1.309   3.523  0.3065  0.3812  0.0105
 3279SOL    HW120171   8.397   1.406   3.505  1.3557  0.6650  0.8751
 3279SOL    HW220172   8.477   1.271   3.462 -0.3731  0.0971 -0.5838
 3280SOL     OW20173   1.341   6.543   0.007  0.0087  0.6005 -0.5336
 3280SOL    HW120174   1.347   6.610  -0.066  0.8511  2.2886  1.0613
 3280SOL    HW220175   1.302   6.585   0.089 -2.6940 -1.7276 -0.5141
 3281SOL     OW20176   8.031   8.529   0.173 -0.4924  0.0131 -0.5534
 3281SOL    HW120177   7.947   8.548   0.225 -0.2650 -0.8860  0.1616
 3281SOL    HW220178   8.107   8.581   0.212 -0.0582 -1.5983  0.8359
 3282SOL     OW20179   1.512   1.018   1.668  0.2168  0.2221  0.1227
 3282SOL    HW120180   1.435   0.992   1.727  1.1502 -0.3139  1.1317
 3282SOL    HW220181   1.489   1.000   1.573 -1.5170  1.5810  0.2658
 3283SOL     OW20182   2.056   6.102   0.632 -0.3074  0.2261  0.1899
 3283SOL    HW120183   2.006   6.021   0.601  0.9248  0.0328 -1.3878
 3283SOL    HW220184   2.129   6.074   0.695  0.2468  0.0706 -0.5119
 3284SOL     OW20185   9.466   3.232   1.265  0.6431 -0.7326 -0.2454
 3284SOL    HW120186   9.480   3.134   1.248  0.2669 -0.7777 -0.2945
 3284SOL    HW220187   9.550   3.271   1.303  0.6468 -1.1735  0.2078
 3285SOL     OW20188   4.475   3.272   0.879 -0.1698 -0.1508 -0.2239
 3285SOL    HW120189   4.461   3.331   0.800  2.6915 -2.0416 -2.2643
 3285SOL    HW220190   4.419   3.190   0.869  0.3445 -0.4815 -0.4177
 3286SOL     OW20191   9.441   1.683   0.290  0.2273 -0.1114  0.2385
 3286SOL    HW120192   9.477   1.597   0.327  1.6332 -0.6890 -2.3207
 3286SOL    HW220193   9.450   1.755   0.359 -1.2597 -2.0403  2.5346
 3287SOL     OW20194   1.616   4.230   1.797 -0.2577 -0.3759 -0.5457
 3287SOL    HW120195   1.602   4.328   1.810  2.8940  0.2064 -1.3218
 3287SOL    HW220196   1.545   4.195   1.735 -0.6830  1.6359 -1.2533
 3288SOL     OW20197   3.271   0.196   3.063  0.2657 -0.1988  0.3127
 3288SOL    HW120198   3.189   0.169   3.013 -0.3892  0.2541  1.1211
 3288SOL    HW220199   3.351   0.151   3.024 -0.6180 -2.1810  0.7200
 3289SOL     OW20200   8.429   2.509   0.771  0.2696 -0.6474  0.2402
 3289SOL    HW120201   8.453   2.449   0.848  1.2941  0.8801  1.1391
 3289SOL    HW220202   8.331   2.528   0.773 -0.4776 -4.0253 -1.3383
 3290SOL     OW20203   6.234   9.368   2.938  0.5086  0.2140 -0.3187
 3290SOL    HW120204   6.220   9.270   2.951 -0.4770  0.4385  0.4191
 3290SOL    HW220205   6.319   9.396   2.983 -0.9517  0.2876  2.5316
 3291SOL     OW20206   7.922   0.587   0.690  0.1609  0.1407  0.2385
 3291SOL    HW120207   7.942   0.680   0.659  0.3215 -0.1302 -0.4908
 3291SOL    HW220208   7.993   0.525   0.656 -0.6396 -0.4531 -0.3815
 3292SOL     OW20209   8.613   1.351   0.735 -0.3062 -0.2426 -0.1312
 3292SOL    HW120210   8.693   1.335   0.793 -0.3954 -1.3686 -0.3134
 3292SOL    HW220211   8.622   1.298   0.651 -0.2894  1.1942 -1.0663
 3293SOL     OW20212   8.866   9.968   3.612 -0.0086  0.3753  0.0209
 3293SOL    HW120213   8.873  10.025   3.531 -0.0070  1.1187  0.5435
 3293SOL    HW220214   8.832  10.022   3.689 -0.8995 -0.5346  0.2889
 3294SOL     OW20215   1.725   0.490   0.899 -0.2051 -0.3814  0.2183
 3294SOL    HW120216   1.762   0.543   0.823  0.1701  1.6390  1.7598
 3294SOL    HW220217   1.645   0.537   0.936 -0.2042 -1.1895  1.2573
 3295SOL     OW20218   5.150   9.861   3.227 -0.6369  0.1492  0.0897
 3295SOL    HW120219   5.161   9.771   3.270  1.8133 -0.4551 -1.6745
 3295SOL    HW220220   5.232   9.915   3.243 -1.6863  1.7025  0.2547
 3296SOL     OW20221   2.341   4.631   3.989 -0.0071 -0.3122 -0.2028
 3296SOL    HW120222   2.243   4.640   3.975 -0.4002  1.1566  3.1631
 3296SOL    HW220223   2.375   4.554   3.935 -2.9524 -0.7858 -1.4771
 3297SOL     OW20224   2.126   0.032   0.866 -0.5132  0.3714  0.1491
 3297SOL    HW120225   2.225   0.021   0.875 -0.4072  1.3118  0.1790
 3297SOL    HW220226   2.080  -0.049   0.901  0.3427 -1.3524 -2.6007
 3298SOL     OW20227   4.034   7.255   3.061  0.1168  0.1136  0.7017
 3298SOL    HW120228   4.130   7.276   3.079  0.5152 -1.0222 -0.0264
 3298SOL    HW220229   3.981   7.266   3.145  1.0994 -0.4234  1.4138
 3299SOL     OW20230   8.578   0.378   1.525 -0.0602  0.0350 -0.4833
 3299SOL    HW120231   8.593   0.401   1.428  1.8455 -0.9573 -0.4560
 3299SOL    HW220232   8.542   0.285   1.531  0.7200 -0.2541 -0.2100
 3300SOL     OW20233   2.517   3.951   1.292  0.5477  0.1379  0.2557
 3300SOL    HW120234   2.515   3.986   1.386  1.8566  0.8155  0.0460
 3300SOL    HW220235   2.424   3.928   1.263  0.3151 -1.6063  2.2642
 3301SOL     OW20236   4.826   0.046   3.791  0.0211  0.2267  0.0534
 3301SOL    HW120237   4.733   0.011   3.781 -0.6075  2.1327 -1.0629
 3301SOL    HW220238   4.887  -0.003   3.730 -0.0490 -1.6632  1.4503
 3302SOL     OW20239   2.362   6.675   3.299  0.1197 -0.1006  0.2100
 3302SOL    HW120240   2.293   6.707   3.364  0.6149 -0.4356  0.9108
 3302SOL    HW220241   2.321   6.610   3.235 -0.2931 -0.0241  0.3965
 3303SOL     OW20242   9.049   3.550   2.957 -0.2226 -0.1273  0.1296
 3303SOL    HW120243   9.119   3.598   3.009  0.0795 -2.7043  2.2453
 3303SOL    HW220244   9.080   3.538   2.863  0.6521  1.8019  0.1534
 3304SOL     OW20245   8.194   2.319   3.093  0.1336  0.0015  0.0168
 3304SOL    HW120246   8.147   2.314   3.005  0.7949 -0.4069 -0.3224
 3304SOL    HW220247   8.291   2.296   3.081  1.2756  4.3207  0.0702
 3305SOL     OW20248   2.019   6.656   0.172  0.2658 -0.0171 -0.3066
 3305SOL    HW120249   1.931   6.608   0.168  0.9527 -1.6008  2.1248
 3305SOL    HW220250   2.075   6.631   0.093 -0.1432 -1.7893 -0.0556
 3306SOL     OW20251   8.819   0.968   2.243 -0.0824 -0.0422 -0.0103
 3306SOL    HW120252   8.841   1.054   2.196 -2.0977 -0.7705 -2.3847
 3306SOL    HW220253   8.902   0.913   2.251  0.8170  1.2231 -0.4109
 3307SOL     OW20254   1.650   9.640   3.839  0.1263 -0.0718  0.1890
 3307SOL    HW120255   1.608   9.550   3.850  1.2544 -0.6990 -0.5316
 3307SOL    HW220256   1.687   9.648   3.746 -1.0426  1.6023 -0.1593
 3308SOL     OW20257   9.820   2.201   2.837 -0.3154  0.2387 -0.4460
 3308SOL    HW120258   9.906   2.192   2.887 -0.6338  1.6668  0.3741
 3308SOL    HW220259   9.810   2.124   2.775 -0.3548 -2.1206  2.3637
 3309SOL     OW20260   4.417   0.699   2.549 -0.1915  0.5607  0.0125
 3309SOL    HW120261   4.437   0.655   2.636  0.4006 -1.8010 -1.2720
 3309SOL    HW220262   4.330   0.665   2.514  1.7115 -2.0484 -2.4571
 3310SOL     OW20263   2.845   3.944   2.530 -0.1893  0.2960  0.3001
 3310SOL    HW120264   2.847   3.933   2.431 -0.1746  0.8605  0.2338
 3310SOL    HW220265   2.783   3.877   2.570  0.5209 -0.5508 -0.0028
 3311SOL     OW20266   2.676   1.107   3.649  0.4064 -0.2436 -0.2968
 3311SOL    HW120267   2.680   1.182   3.716  0.9994 -0.7194  0.2035
 3311SOL    HW220268   2.623   1.137   3.570  0.1416  0.5094  0.1525
 3312SOL     OW20269   3.851   7.577   2.635  0.0124 -0.2133  0.1283
 3312SOL    HW120270   3.785   7.582   2.559  0.0259 -1.3994  0.0318
 3312SOL    HW220271   3.918   7.506   2.615  0.6477  0.2118  0.7639
 3313SOL     OW20272   0.560   7.962   1.243  0.3396 -0.1931  0.5516
 3313SOL    HW120273   0.646   7.918   1.268  0.3449 -0.5327 -0.0466
 3313SOL    HW220274   0.556   7.974   1.144  0.8664  2.2804  0.8132
 3314SOL     OW20275   0.877   3.588   1.212  1.2101  0.4402 -0.1760
 3314SOL    HW120276   0.966   3.563   1.175  0.8673 -0.8073 -0.1792
 3314SOL    HW220277   0.888   3.630   1.302  1.6387 -2.3941  1.1568
 3315SOL     OW20278   8.806   1.273   0.886 -0.3000 -0.8765  0.3371
 3315SOL    HW120279   8.845   1.279   0.978 -2.6044 -1.1679  1.3689
 3315SOL    HW220280   8.878   1.250   0.821  1.2837 -1.1432  2.1343
 3316SOL     OW20281   1.467   4.017   1.654  0.0855 -0.0773  0.1987
 3316SOL    HW120282   1.394   3.967   1.608 -0.8082  0.2417  1.2522
 3316SOL    HW220283   1.503   3.963   1.730 -0.0789  0.3937  0.6140
 3317SOL     OW20284   7.238   1.575   3.830  0.0521  0.6394  0.2905
 3317SOL    HW120285   7.163   1.537   3.884 -0.0878  0.0354 -0.3256
 3317SOL    HW220286   7.279   1.503   3.773  0.1790  1.2751 -0.4298
 3318SOL     OW20287   1.710   5.021   2.782 -0.3388 -0.8745  0.1227
 3318SOL    HW120288   1.664   4.986   2.863  0.7530 -0.8628  0.7620
 3318SOL    HW220289   1.772   5.096   2.808  2.1615 -2.7352 -0.2727
 3319SOL     OW20290   1.831   1.300   3.996 -0.1839  0.6528 -0.0835
 3319SOL    HW120291   1.855   1.329   3.903  1.4835  2.7084  0.9372
 3319SOL    HW220292   1.889   1.223   4.023 -0.0390  0.6449 -0.4145
 3320SOL     OW20293   8.002   2.150   0.040 -0.3951 -0.0619 -0.6189
 3320SOL    HW120294   8.016   2.235  -0.011 -0.7279  0.3432 -0.0316
 3320SOL    HW220295   8.072   2.084   0.013  0.3891  0.6912 -0.4444
 3321SOL     OW20296   3.333   8.425   1.090 -0.6622  0.6892 -0.3720
 3321SOL    HW120297   3.337   8.326   1.098 -2.5049  0.7020  0.8266
 3321SOL    HW220298   3.335   8.451   0.993  1.3774 -0.4252 -0.6386
 3322SOL     OW20299   2.921   9.047   2.627  0.1236  0.1738 -0.3979
 3322SOL    HW120300   2.850   9.039   2.697  0.1374 -0.6185 -0.4685
 3322SOL    HW220301   2.987   8.973   2.638  0.0904  0.0106 -1.2876
 3323SOL     OW20302   1.421   4.248   0.284 -0.9073 -0.6713 -0.4178
 3323SOL    HW120303   1.388   4.155   0.299  0.9612 -0.9174  2.5663
 3323SOL    HW220304   1.368   4.312   0.339  0.3641 -0.4636  0.5719
 3324SOL     OW20305   2.086   3.463   1.678  0.3098 -0.4098 -0.0067
 3324SOL    HW120306   2.117   3.450   1.772 -1.0448  0.3097  0.5598
 3324SOL    HW220307   2.027   3.388   1.651  1.6914 -1.2565 -0.7302
 3325SOL     OW20308   0.475   3.521   0.125  0.4393  0.7575 -0.9064
 3325SOL    HW120309   0.415   3.495   0.201  1.5614 -0.7265 -0.5087
 3325SOL    HW220310   0.516   3.610   0.144  0.1699  0.7133 -0.1078
 3326SOL     OW20311   2.056   2.524   3.300 -0.3356 -0.1097 -0.1035
 3326SOL    HW120312   2.132   2.477   3.256 -1.0908 -0.9915 -0.4910
 3326SOL    HW220313   2.003   2.574   3.231  0.5402  1.4509  0.3226
 3327SOL     OW20314   2.973   7.968   2.595 -0.4133 -0.0251 -0.0736
 3327SOL    HW120315   3.060   7.978   2.644  0.1282 -0.7853 -0.8718
 3327SOL    HW220316   2.897   7.986   2.658  0.2515 -1.5844  1.1947
 3328SOL     OW20317   3.218   5.679   0.227  0.0836 -0.1949  0.1363
 3328SOL    HW120318   3.151   5.691   0.300 -2.0409 -0.7003 -1.6334
 3328SOL    HW220319   3.257   5.768   0.202  0.8650 -0.0370  1.8931
 3329SOL     OW20320   1.393   4.888   1.576 -0.2585  0.4615 -0.3288
 3329SOL    HW120321   1.374   4.796   1.542 -0.4493  0.0278  0.9048
 3329SOL    HW220322   1.489   4.911   1.560 -0.4623  0.4630 -1.5745
 3330SOL     OW20323   8.846   0.454   3.107  0.0880 -0.5011  0.0615
 3330SOL    HW120324   8.916   0.464   3.178 -1.2305 -0.2649  1.3677
 3330SOL    HW220325   8.853   0.531   3.043 -0.4888  0.8483  1.5631
 3331SOL     OW20326   4.714   9.573   0.181  1.1343  0.1494  0.3414
 3331SOL    HW120327   4.782   9.575   0.255  0.3711 -1.1124  1.0945
 3331SOL    HW220328   4.623   9.558   0.219  0.8485 -1.5317 -0.9136
 3332SOL     OW20329   7.894   2.426   0.226  0.1692 -0.3736 -0.6109
 3332SOL    HW120330   7.992   2.406   0.233 -0.0960 -0.8644  2.3288
 3332SOL    HW220331   7.844   2.343   0.201  0.2718 -0.6936  0.2343
 3333SOL     OW20332   6.972   9.209   0.609  0.0078 -0.0559  0.4496
 3333SOL    HW120333   7.007   9.228   0.517 -0.2568  0.5592  0.4704
 3333SOL    HW220334   7.020   9.130   0.647 -1.6753 -1.9077 -1.1933
 3334SOL     OW20335   1.092   3.271   0.588  0.3337 -0.2622 -0.3708
 3334SOL    HW120336   1.184   3.232   0.578 -0.8852 -3.2843 -0.3164
 3334SOL    HW220337   1.074   3.290   0.684  1.4537  1.7825 -0.5528
 3335SOL     OW20338   1.121   5.247   2.349 -0.2808  0.0493 -0.1226
 3335SOL    HW120339   1.024   5.258   2.325 -0.7540  0.8700  2.0843
 3335SOL    HW220340   1.175   5.244   2.265 -2.1018  0.7252 -1.3566
 3336SOL     OW20341   0.503   9.107   0.925 -0.1023  0.2573 -0.0888
 3336SOL    HW120342   0.422   9.161   0.904 -0.8411 -0.2835  1.3041
 3336SOL    HW220343   0.475   9.020   0.967  1.2537  1.1944  2.9402
 3337SOL     OW20344   3.955   9.661   1.513 -0.1663 -0.5710 -0.1181
 3337SOL    HW120345   4.019   9.598   1.468 -0.6973 -0.7000 -0.7090
 3337SOL    HW220346   3.900   9.610   1.579 -2.0690 -1.1947 -2.1123
 3338SOL     OW20347   0.551   8.107   1.575  0.0762 -0.5434  0.6267
 3338SOL    HW120348   0.486   8.106   1.499 -0.4971  1.7025  1.0541
 3338SOL    HW220349   0.501   8.111   1.662  0.7817  0.0123  1.0106
 3339SOL     OW20350   1.079   8.530   0.606  0.0942  0.1647 -0.1230
 3339SOL    HW120351   1.066   8.614   0.657  1.5077  0.3161  0.0056
 3339SOL    HW220352   0.990   8.490   0.584 -0.5525  1.0089  0.9292
 3340SOL     OW20353   8.298   3.917   1.574 -0.1375  0.3013 -0.5927
 3340SOL    HW120354   8.342   3.847   1.630  0.7316  1.8332  0.6896
 3340SOL    HW220355   8.212   3.882   1.537 -0.2467 -1.0633  0.9355
 3341SOL     OW20356   2.894   3.737   2.052 -0.5250  0.2365  0.0629
 3341SOL    HW120357   2.948   3.769   1.974  0.3726  1.0591  1.0076
 3341SOL    HW220358   2.804   3.708   2.020  0.4873 -1.2148 -1.5416
 3342SOL     OW20359   9.214   7.906   0.534 -0.8088 -0.5240 -0.3741
 3342SOL    HW120360   9.219   7.983   0.598 -0.1925  0.6201 -1.7876
 3342SOL    HW220361   9.125   7.905   0.490 -0.4113  0.0625 -1.1965
 3343SOL     OW20362   8.069   1.563   1.738  0.5514 -0.1052  0.0241
 3343SOL    HW120363   8.064   1.479   1.684 -0.3294 -0.7066  1.0319
 3343SOL    HW220364   8.165   1.584   1.758  0.7903 -0.6717 -0.5328
 3344SOL     OW20365   4.763   9.259   0.281  0.4231 -0.4906 -0.0555
 3344SOL    HW120366   4.811   9.171   0.272 -0.7906 -1.1244 -0.5409
 3344SOL    HW220367   4.702   9.271   0.202 -2.0279 -0.8476  1.7142
 3345SOL     OW20368   2.992   0.129   0.058  0.2570 -0.5057  0.1796
 3345SOL    HW120369   2.991   0.038   0.100  0.2722  0.5904  2.6899
 3345SOL    HW220370   2.937   0.191   0.114  0.2956  1.0450 -1.4743
 3346SOL     OW20371   9.904   1.188   0.639 -0.3378 -0.3449 -0.2605
 3346SOL    HW120372   9.991   1.236   0.627  0.0460 -0.7092  0.9826
 3346SOL    HW220373   9.899   1.111   0.576  0.6658 -0.9105  0.3461
 3347SOL     OW20374   1.985   0.660   0.254 -0.0446  0.6254 -0.0741
 3347SOL    HW120375   1.988   0.621   0.162 -0.4705 -2.3861  1.1457
 3347SOL    HW220376   2.070   0.638   0.303 -1.2607 -0.8436  1.4297
 3348SOL     OW20377   0.334   1.074   1.705  0.0014 -0.1180  0.0091
 3348SOL    HW120378   0.328   1.047   1.801 -0.6256  0.5457  0.1629
 3348SOL    HW220379   0.379   1.001   1.653  0.0505 -0.6255  0.7454
 3349SOL     OW20380   2.150   0.932   0.430  0.0299  0.0328 -1.0945
 3349SOL    HW120381   2.156   0.845   0.479  2.2658 -0.0929 -1.5052
 3349SOL    HW220382   2.194   1.003   0.485 -3.5006  1.3681  0.1305
 3350SOL     OW20383   7.223   8.632   2.726  0.2477  0.2733  0.2798
 3350SOL    HW120384   7.213   8.675   2.816  0.4377  0.1527  0.3573
 3350SOL    HW220385   7.280   8.690   2.668 -0.1675  0.5262  0.1192
 3351SOL     OW20386   1.022   8.893   0.177  0.0627  0.1370  0.0656
 3351SOL    HW120387   0.942   8.944   0.146 -0.1217  0.7719  1.5380
 3351SOL    HW220388   0.996   8.799   0.199 -0.1728  0.1942  0.0289
 3352SOL     OW20389   3.992   1.462   2.359  0.4455  0.6670 -0.4381
 3352SOL    HW120390   3.909   1.514   2.377 -0.5997 -2.0423  3.1269
 3352SOL    HW220391   4.062   1.485   2.427 -0.0484 -2.4494  1.2475
 3353SOL     OW20392   8.900   0.581   0.268  0.6565 -0.3228 -0.2108
 3353SOL    HW120393   8.890   0.485   0.296  2.5324 -0.2119  0.9345
 3353SOL    HW220394   8.810   0.625   0.269 -0.2355 -2.0649 -0.7651
 3354SOL     OW20395   9.842   1.680   1.836 -0.5729 -0.0908  0.4990
 3354SOL    HW120396   9.924   1.675   1.779 -1.1770 -0.8258 -0.3136
 3354SOL    HW220397   9.852   1.620   1.915 -0.8591 -1.1679 -0.2846
 3355SOL     OW20398   1.341   8.293   3.583 -0.0280 -0.5129  0.2231
 3355SOL    HW120399   1.348   8.366   3.515  1.0747 -0.1130  0.7549
 3355SOL    HW220400   1.256   8.304   3.635 -0.4970 -0.3665 -0.5550
 3356SOL     OW20401   3.360   9.297   0.431 -0.0031  0.0420  0.3416
 3356SOL    HW120402   3.307   9.233   0.374 -2.2683  2.9272 -0.9364
 3356SOL    HW220403   3.433   9.337   0.376 -1.0014  1.3918 -0.0449
 3357SOL     OW20404   9.075   9.638   0.647  0.2885  0.0680 -0.0567
 3357SOL    HW120405   9.125   9.619   0.563  1.2755 -0.0502  0.5445
 3357SOL    HW220406   9.138   9.674   0.716 -0.4810  0.0450  0.6692
 3358SOL     OW20407   2.615   6.609   2.580 -0.1436 -0.0194 -0.1257
 3358SOL    HW120408   2.664   6.673   2.521 -1.4266  0.6399 -0.5106
 3358SOL    HW220409   2.678   6.567   2.645  1.0405  0.2554 -1.0878
 3359SOL     OW20410   1.933   8.292   3.069 -0.2854  0.3226  0.1982
 3359SOL    HW120411   2.011   8.341   3.107  0.1286  0.1809 -0.4519
 3359SOL    HW220412   1.848   8.341   3.091  0.0272  0.7120  0.5327
 3360SOL     OW20413   9.207   2.779   3.385 -0.0422  0.8872  0.2068
 3360SOL    HW120414   9.298   2.783   3.426 -0.1101  0.7912  0.3706
 3360SOL    HW220415   9.212   2.810   3.290  0.1290  1.0543  0.2691
 3361SOL     OW20416   1.235   6.759   2.380  0.2338 -0.9593 -0.1020
 3361SOL    HW120417   1.317   6.703   2.391  1.4580  0.6043 -0.9270
 3361SOL    HW220418   1.179   6.754   2.463  1.4177 -1.6421  0.6699
 3362SOL     OW20419   8.303   0.812   2.280  0.0068 -0.1736  0.1689
 3362SOL    HW120420   8.348   0.863   2.207 -1.2473 -1.2765 -1.4087
 3362SOL    HW220421   8.371   0.755   2.328  0.8708  0.7059 -0.0025
 3363SOL     OW20422   3.116   3.973   3.556 -0.4420 -0.0360  0.0808
 3363SOL    HW120423   3.128   3.877   3.532 -1.5384 -0.1434 -0.0592
 3363SOL    HW220424   3.204   4.013   3.581  0.2351 -0.6987 -1.2349
 3364SOL     OW20425   1.766   9.220   0.269  0.2600  0.1018  0.0338
 3364SOL    HW120426   1.860   9.201   0.298 -0.7002 -2.8416  1.3774
 3364SOL    HW220427   1.709   9.235   0.350 -0.4324  1.9566 -0.7816
 3365SOL     OW20428   8.525   2.336   1.957 -0.1929 -0.0894 -0.1576
 3365SOL    HW120429   8.609   2.390   1.948  1.1464 -2.0267  0.4148
 3365SOL    HW220430   8.487   2.348   2.049  0.1445 -0.1822 -0.0067
 3366SOL     OW20431   2.201   0.560   1.296 -0.4617  0.0727 -0.7683
 3366SOL    HW120432   2.189   0.616   1.378 -4.7334 -0.6193 -0.7793
 3366SOL    HW220433   2.123   0.575   1.235  1.7741 -0.7308 -3.9339
 3367SOL     OW20434   1.912   5.946   3.255  0.8070  0.2706 -0.1127
 3367SOL    HW120435   1.884   5.885   3.329 -1.6723  0.8527 -0.5375
 3367SOL    HW220436   1.886   6.040   3.278 -0.8505  0.3247 -2.1375
 3368SOL     OW20437   9.718   2.429   2.756  0.3018  0.0385  0.1040
 3368SOL    HW120438   9.716   2.493   2.833 -2.3449 -1.8386  1.7065
 3368SOL    HW220439   9.749   2.339   2.789 -1.8550 -1.0595 -0.7369
 3369SOL     OW20440   0.195   9.548   2.506  0.3542 -0.1764 -0.1944
 3369SOL    HW120441   0.196   9.640   2.467 -0.0229 -0.2850 -0.4621
 3369SOL    HW220442   0.106   9.506   2.491 -0.2033  0.2261  1.8510
 3370SOL     OW20443   1.167   8.334   1.696 -0.6346  0.4001  0.1013
 3370SOL    HW120444   1.232   8.294   1.761  0.8209  0.1993 -1.4308
 3370SOL    HW220445   1.099   8.265   1.671  1.3333 -0.9482 -1.8336
 3371SOL     OW20446   7.641   0.842   1.753 -0.0614  0.1191  0.4351
 3371SOL    HW120447   7.704   0.801   1.687 -0.3995 -0.3140  0.3751
 3371SOL    HW220448   7.660   0.805   1.844  0.0581  0.3178  0.4904
 3372SOL     OW20449   3.669   2.450   1.056  0.2519 -0.2490  0.5597
 3372SOL    HW120450   3.709   2.392   0.985 -1.6211 -1.7478  0.7018
 3372SOL    HW220451   3.578   2.480   1.027 -0.1266 -0.0625  1.9047
 3373SOL     OW20452   1.558   2.196   2.875 -0.0742 -0.0848 -0.2224
 3373SOL    HW120453   1.606   2.108   2.871 -1.1077 -0.6860  0.2547
 3373SOL    HW220454   1.459   2.179   2.870 -0.2500  1.1060 -0.8592
 3374SOL     OW20455   2.282   6.408   2.414 -0.4733 -0.2493  0.6086
 3374SOL    HW120456   2.272   6.477   2.486  0.9594  0.3979  0.2106
 3374SOL    HW220457   2.196   6.399   2.364 -1.8151 -1.4151  3.0151
 3375SOL     OW20458   2.024   4.393   3.517  0.1869  0.1712  0.5442
 3375SOL    HW120459   2.052   4.456   3.445 -1.9531 -1.1809 -1.5214
 3375SOL    HW220460   1.969   4.319   3.478 -0.4192 -0.9957  3.4562
 3376SOL     OW20461   2.994   6.791   3.525  0.4448  0.0293 -0.0897
 3376SOL    HW120462   2.944   6.868   3.566  0.3137 -0.3642  0.5010
 3376SOL    HW220463   3.001   6.717   3.592  0.2546 -0.6110 -0.7695
 3377SOL     OW20464   0.122   1.281   3.024 -0.5615  0.0979  0.4414
 3377SOL    HW120465   0.139   1.344   3.100 -1.4310  1.2206 -0.2660
 3377SOL    HW220466   0.204   1.273   2.967 -0.8817  1.7870 -0.3008
 3378SOL     OW20467   0.125   2.942   2.556  0.2260  0.0871  0.3269
 3378SOL    HW120468   0.073   2.857   2.554  1.6074 -0.7677  0.2161
 3378SOL    HW220469   0.099   2.999   2.477 -0.7105 -0.2193  0.4126
 3379SOL     OW20470   4.648   8.968   0.790  0.6261  0.2092  0.2046
 3379SOL    HW120471   4.735   8.921   0.805  0.5570  0.0164  0.0136
 3379SOL    HW220472   4.590   8.957   0.871  0.7635  0.2998  0.3140
 3380SOL     OW20473   1.294   3.296   1.553  0.2033 -0.5930  0.1844
 3380SOL    HW120474   1.368   3.271   1.616 -0.1026 -1.3853  0.2408
 3380SOL    HW220475   1.223   3.225   1.557 -0.8053  0.4343  0.5431
 3381SOL     OW20476   0.301   3.568   1.521 -0.4575  0.2825  0.2907
 3381SOL    HW120477   0.286   3.479   1.564 -1.1372  0.8066  1.1540
 3381SOL    HW220478   0.342   3.631   1.587  0.8135  0.3821 -0.5584
 3382SOL     OW20479   8.070   9.532   3.705 -0.1846 -0.3676  0.3207
 3382SOL    HW120480   8.043   9.477   3.627  1.3077  1.3374 -1.4808
 3382SOL    HW220481   8.158   9.577   3.685 -0.2031  0.7899  2.6287
 3383SOL     OW20482   1.478   7.369   4.014  0.2345 -0.2798 -0.4373
 3383SOL    HW120483   1.410   7.307   3.976 -1.5164  1.8318 -0.8591
 3383SOL    HW220484   1.453   7.463   3.992  2.6636  0.6134  0.4424
 3384SOL     OW20485   0.958   4.149   0.977 -0.7081  0.1217  0.1047
 3384SOL    HW120486   0.994   4.065   1.017 -1.1084  0.1634  0.5444
 3384SOL    HW220487   0.946   4.136   0.878 -0.3745 -0.1970  0.1033
 3385SOL     OW20488   1.520   9.406   3.875 -0.0416  0.0712  0.3896
 3385SOL    HW120489   1.430   9.449   3.886 -0.7475 -1.4501  0.5900
 3385SOL    HW220490   1.547   9.363   3.961  2.0254  2.6508  1.1054
 3386SOL     OW20491   9.776   1.022   3.899  0.4441 -0.0355  0.1093
 3386SOL    HW120492   9.855   0.991   3.846  0.3346 -1.2638  0.6574
 3386SOL    HW220493   9.695   0.970   3.871 -0.2377  1.3787 -0.6177
 3387SOL     OW20494   3.049   2.437   2.257 -0.1856  0.4147  0.0799
 3387SOL    HW120495   3.087   2.350   2.229 -1.6589 -0.2800  0.1883
 3387SOL    HW220496   3.093   2.511   2.206  1.9765 -0.2645  0.9062
 3388SOL     OW20497   9.630   0.928   0.406 -0.1409 -0.3765  0.3170
 3388SOL    HW120498   9.627   1.000   0.337  2.3741 -0.2807  0.2363
 3388SOL    HW220499   9.589   0.845   0.370 -0.7679  0.2871 -0.5106
 3389SOL     OW20500   4.426   8.396   3.416  0.0237 -0.0800 -0.2198
 3389SOL    HW120501   4.331   8.365   3.421 -0.2421  0.7764  0.2224
 3389SOL    HW220502   4.462   8.408   3.508  1.5503 -3.2854 -0.3332
 3390SOL     OW20503   8.577   1.229   3.344  0.0442  0.0886  0.1073
 3390SOL    HW120504   8.619   1.139   3.355  0.0164  0.2118  1.2263
 3390SOL    HW220505   8.577   1.254   3.247  2.2804 -0.0335  0.0683
 3391SOL     OW20506   3.819   9.495   3.511 -0.1820 -0.3703  0.3746
 3391SOL    HW120507   3.892   9.487   3.443 -0.5802  0.5526 -0.1783
 3391SOL    HW220508   3.731   9.500   3.464 -0.4402  0.5473  0.9372
 3392SOL     OW20509   9.701   8.870   2.273  0.1216 -0.3143  0.5984
 3392SOL    HW120510   9.725   8.815   2.353 -0.0897  0.6894  1.3572
 3392SOL    HW220511   9.769   8.943   2.261  0.0206 -0.3174  0.0015
 3393SOL     OW20512   0.656   3.151   1.926 -0.1270 -0.5027  0.0596
 3393SOL    HW120513   0.612   3.102   2.002  1.6423 -3.6188 -0.8257
 3393SOL    HW220514   0.753   3.127   1.922 -0.5362 -1.9498 -4.2728
 3394SOL     OW20515   3.779   2.573   2.252 -0.6139 -0.0519 -0.4810
 3394SOL    HW120516   3.817   2.481   2.242  0.6944  0.3927  0.2549
 3394SOL    HW220517   3.718   2.576   2.331  0.8605  0.1721  0.6757
 3395SOL     OW20518   9.483   1.823   2.335  0.0880  0.1133 -0.2552
 3395SOL    HW120519   9.441   1.749   2.282  0.2597 -1.1091  1.2588
 3395SOL    HW220520   9.582   1.818   2.325  0.0266  1.2061 -1.5095
 3396SOL     OW20521   1.428   9.636   1.781  0.3662  0.3975  0.0131
 3396SOL    HW120522   1.348   9.610   1.834 -0.0448  0.1976 -0.6976
 3396SOL    HW220523   1.400   9.693   1.704  0.2856 -3.3545 -2.9191
 3397SOL     OW20524   2.691   8.190   1.052 -0.0420 -0.4422 -0.0035
 3397SOL    HW120525   2.736   8.150   0.972 -2.6237 -0.6759 -1.3721
 3397SOL    HW220526   2.631   8.264   1.023  0.8827  1.1450  2.0046
 3398SOL     OW20527   1.376   8.251   2.561  0.2551  0.1158  0.0952
 3398SOL    HW120528   1.384   8.251   2.660 -0.4170 -0.0555  0.1562
 3398SOL    HW220529   1.413   8.165   2.524  1.1592  0.4831  0.1320
 3399SOL     OW20530   1.923   5.647   2.106 -0.0383 -0.0133  0.3614
 3399SOL    HW120531   1.823   5.647   2.112 -0.2658  0.8073 -2.6853
 3399SOL    HW220532   1.954   5.560   2.067  0.3572  0.2212  0.1537
 3400SOL     OW20533   0.143   8.649   3.868 -0.5923  0.6825 -0.1006
 3400SOL    HW120534   0.158   8.687   3.960 -1.9502  0.9611  0.0240
 3400SOL    HW220535   0.139   8.550   3.874  1.3315  0.5785 -0.1770
 3401SOL     OW20536   3.816   7.833   1.561 -0.2273  0.4623 -0.0316
 3401SOL    HW120537   3.915   7.828   1.547 -0.2462  1.1255 -0.4250
 3401SOL    HW220538   3.769   7.806   1.477 -0.3574  2.0766 -0.4963
 3402SOL     OW20539   9.609   9.906   1.407  0.0074 -0.3960 -0.4505
 3402SOL    HW120540   9.573   9.980   1.349 -0.4045 -0.0623  0.2205
 3402SOL    HW220541   9.586   9.818   1.366 -1.6564 -0.1839 -0.0110
 3403SOL     OW20542   8.445   0.709   3.063  0.2042 -0.1520 -0.3185
 3403SOL    HW120543   8.448   0.715   2.964 -0.5470  1.2867 -0.2706
 3403SOL    HW220544   8.484   0.793   3.103 -2.3283  0.6672  0.5517
 3404SOL     OW20545   1.889   4.700   1.943 -0.1185  0.0208 -0.0874
 3404SOL    HW120546   1.931   4.778   1.990  0.9411 -0.1101 -0.7850
 3404SOL    HW220547   1.811   4.731   1.889  2.0512  1.1188 -2.6893
 3405SOL     OW20548   8.465   2.661   2.029 -0.1781 -0.2419 -0.2069
 3405SOL    HW120549   8.431   2.750   1.998  0.4197  0.6351  1.5432
 3405SOL    HW220550   8.563   2.667   2.046 -0.1853 -1.1522  0.2063
 3406SOL     OW20551   3.377   3.236   0.343  0.3281  0.6661  0.4133
 3406SOL    HW120552   3.285   3.212   0.373 -0.8536  1.9982 -1.9873
 3406SOL    HW220553   3.433   3.153   0.338 -0.6647 -0.1206  2.1178
 3407SOL     OW20554   2.024   0.634   1.049  0.0048 -0.8070  0.9272
 3407SOL    HW120555   2.070   0.722   1.062 -1.1586 -0.1286  0.5009
 3407SOL    HW220556   2.058   0.590   0.966  1.2906 -1.2263  1.6545
 3408SOL     OW20557   5.596   8.119   3.161  0.4317 -0.0110 -0.2356
 3408SOL    HW120558   5.617   8.129   3.064 -0.0994  0.2243 -0.3277
 3408SOL    HW220559   5.503   8.085   3.171  0.8810 -1.1398  0.1679
 3409SOL     OW20560   9.769   0.073   3.206  0.1936 -0.0343  0.4880
 3409SOL    HW120561   9.743  -0.017   3.242  0.1678  0.7140  2.3993
 3409SOL    HW220562   9.707   0.142   3.242  0.0289  0.7426 -1.2110
 3410SOL     OW20563   9.803   2.583   1.461  0.1843  0.0935  0.3686
 3410SOL    HW120564   9.847   2.531   1.388  0.3447 -0.1812  0.6573
 3410SOL    HW220565   9.873   2.624   1.519  0.0645 -0.7129  1.0910
 3411SOL     OW20566   4.340   3.399   3.099  0.3125 -0.6279 -0.4426
 3411SOL    HW120567   4.375   3.337   3.029  1.4325  0.2267 -0.6460
 3411SOL    HW220568   4.353   3.494   3.070 -0.8547 -0.2745  0.1282
 3412SOL     OW20569   4.297   9.675   3.424 -0.0972 -0.2501  0.3151
 3412SOL    HW120570   4.343   9.762   3.409 -0.3312  0.0467  1.2715
 3412SOL    HW220571   4.311   9.615   3.345 -0.6062  0.9390 -0.6752
 3413SOL     OW20572   4.114   8.607   2.497 -0.4391 -0.2625  0.0513
 3413SOL    HW120573   4.117   8.702   2.529 -0.6042 -0.0611 -0.5306
 3413SOL    HW220574   4.123   8.545   2.576  0.6093  0.2354  0.3304
 3414SOL     OW20575   1.505   5.339   0.492  0.3315 -0.4174 -0.1738
 3414SOL    HW120576   1.467   5.266   0.549  2.2276 -1.2079  0.1142
 3414SOL    HW220577   1.583   5.303   0.440 -0.6912  0.5691 -2.4643
 3415SOL     OW20578   1.015   4.849   1.630  0.3870 -1.0653  0.4614
 3415SOL    HW120579   1.084   4.811   1.568 -1.4042 -1.0128 -1.6054
 3415SOL    HW220580   0.929   4.800   1.620 -0.5449  0.3395  1.3607
 3416SOL     OW20581   3.091   1.564   0.637  0.0343  0.5700  0.1356
 3416SOL    HW120582   3.107   1.602   0.545  1.3278 -0.7663 -0.2065
 3416SOL    HW220583   3.001   1.521   0.640  0.0646  0.4497 -0.5640
 3417SOL     OW20584   7.519   4.235   0.275 -0.0449  0.1551  0.8854
 3417SOL    HW120585   7.562   4.276   0.194 -0.7952 -1.8788 -0.5927
 3417SOL    HW220586   7.557   4.276   0.358 -1.4825  4.5729 -0.4923
 3418SOL     OW20587   3.626   5.020   2.998  0.0106 -0.3218  0.5118
 3418SOL    HW120588   3.549   5.076   2.967  0.6178 -0.0659 -0.6027
 3418SOL    HW220589   3.595   4.952   3.064 -0.9891  0.4189  0.8075
 3419SOL     OW20590   1.903   1.609   0.687 -0.2481  0.0693 -1.0195
 3419SOL    HW120591   1.837   1.622   0.761 -0.6820  1.5086 -1.6308
 3419SOL    HW220592   1.915   1.511   0.669 -0.4854 -0.2691  0.6257
 3420SOL     OW20593   4.442   0.366   0.686 -0.2208 -0.3812 -0.3800
 3420SOL    HW120594   4.409   0.273   0.670 -0.4797 -0.5687  1.1433
 3420SOL    HW220595   4.516   0.364   0.753 -0.9059  0.6089  0.4220
 3421SOL     OW20596   8.666   1.754   3.983  0.2610  0.0968  0.2337
 3421SOL    HW120597   8.654   1.852   3.998  0.7681  0.0131  1.2719
 3421SOL    HW220598   8.728   1.717   4.053  0.1840 -0.9329 -0.2322
 3422SOL     OW20599   0.728   2.461   1.699 -0.1591 -0.3864  0.3967
 3422SOL    HW120600   0.756   2.444   1.794  0.4303 -2.0714 -0.0698
 3422SOL    HW220601   0.667   2.389   1.668 -0.4950  0.2549 -0.4586
 3423SOL     OW20602   1.158   4.738   2.175 -0.5106 -0.4006  0.3310
 3423SOL    HW120603   1.126   4.652   2.136  0.1135 -1.2247  1.6338
 3423SOL    HW220604   1.118   4.814   2.123  1.3789 -1.4723 -2.8236
 3424SOL     OW20605   9.756   0.437   3.700  0.6011 -0.4477 -0.4791
 3424SOL    HW120606   9.717   0.488   3.777  0.9342  0.0551 -0.6426
 3424SOL    HW220607   9.809   0.360   3.735 -1.2944 -1.6934 -0.2780
 3425SOL     OW20608   1.305   4.871   2.853 -0.1365  0.2847 -0.6744
 3425SOL    HW120609   1.324   4.947   2.915 -0.7916 -0.8393  0.9635
 3425SOL    HW220610   1.212   4.880   2.817 -0.6540 -0.3607  0.4719
 3426SOL     OW20611   1.664   7.189   1.744 -0.4647 -0.6609  0.5229
 3426SOL    HW120612   1.700   7.138   1.666 -0.1561 -0.8299  0.7806
 3426SOL    HW220613   1.711   7.161   1.827 -0.2655  0.0709  0.6573
 3427SOL     OW20614   1.853   2.040   0.807  0.1788 -1.1001  0.3930
 3427SOL    HW120615   1.915   2.053   0.729  1.0010 -0.5044  1.1225
 3427SOL    HW220616   1.759   2.034   0.774  0.5569 -1.3482 -0.6845
 3428SOL     OW20617   0.122   2.509   3.639  0.4025 -0.3912  0.3827
 3428SOL    HW120618   0.084   2.481   3.551  0.7110  1.8725 -0.5172
 3428SOL    HW220619   0.133   2.608   3.640  1.6212 -0.5193  2.4984
 3429SOL     OW20620   1.655   8.079   0.993 -0.7518 -0.2475  0.7882
 3429SOL    HW120621   1.660   8.130   1.079 -0.7893  0.2691  0.4910
 3429SOL    HW220622   1.745   8.039   0.973 -0.1279  1.5290 -0.0620
 3430SOL     OW20623   4.257   8.934   0.805 -0.2583  0.0921  0.1925
 3430SOL    HW120624   4.332   8.941   0.870  0.8783 -2.2171 -0.8454
 3430SOL    HW220625   4.201   8.854   0.826 -1.3921  0.7764 -0.1422
 3431SOL     OW20626   2.694   5.996   2.319  0.1160 -0.3281 -0.5063
 3431SOL    HW120627   2.704   6.077   2.376  0.3144 -1.2784  0.8275
 3431SOL    HW220628   2.601   5.991   2.284 -0.4895 -0.6479  1.1291
 3432SOL     OW20629   1.176   5.040   3.756  0.0744 -0.0566 -0.3098
 3432SOL    HW120630   1.213   5.045   3.849  0.5107  0.0912 -0.4894
 3432SOL    HW220631   1.118   5.119   3.739 -2.2183 -1.4531  0.7740
 3433SOL     OW20632   8.154   3.010   2.339 -0.5895 -0.3697 -0.1568
 3433SOL    HW120633   8.231   3.074   2.343 -2.6418  2.2571 -0.6424
 3433SOL    HW220634   8.161   2.946   2.415  1.3908  0.6361  0.5657
 3434SOL     OW20635   7.301   1.946   2.812 -0.2309 -0.2038 -0.4512
 3434SOL    HW120636   7.375   1.993   2.860 -1.8962  2.0393 -0.0121
 3434SOL    HW220637   7.254   1.885   2.876  0.7387 -1.0563 -0.5405
 3435SOL     OW20638   4.835   3.511   0.885  0.2263  0.4433  0.9040
 3435SOL    HW120639   4.790   3.505   0.796  0.4187  0.5764  0.7982
 3435SOL    HW220640   4.931   3.484   0.877  0.2943  0.6374  1.0306
 3436SOL     OW20641   9.046   3.765   1.054  0.0103  0.5459  0.4080
 3436SOL    HW120642   9.120   3.825   1.084  0.6620  0.8366 -1.6993
 3436SOL    HW220643   8.976   3.818   1.007 -0.1866 -0.1090 -0.0503
 3437SOL     OW20644   0.095   7.927   1.269 -0.1648 -0.6683 -0.1931
 3437SOL    HW120645   0.050   7.991   1.206  0.3678 -0.9188 -0.8325
 3437SOL    HW220646   0.054   7.837   1.260 -0.0436 -0.7195 -0.2245
 3438SOL     OW20647   1.656   4.670   2.169 -0.3649 -0.0875 -0.0404
 3438SOL    HW120648   1.630   4.713   2.083 -1.0031  0.1389  0.2615
 3438SOL    HW220649   1.624   4.727   2.246  1.6716  0.5812  0.3393
 3439SOL     OW20650   3.634   8.524   2.353 -0.6595 -0.6051 -0.5280
 3439SOL    HW120651   3.646   8.437   2.306  1.7441 -1.8602  2.2455
 3439SOL    HW220652   3.717   8.579   2.343 -0.8417 -0.1078  0.6337
 3440SOL     OW20653   2.678   6.181   3.079 -0.1744  0.0712  0.6053
 3440SOL    HW120654   2.601   6.179   3.015 -1.3882  0.4533  2.0095
 3440SOL    HW220655   2.706   6.087   3.100 -0.6134 -0.0880  0.4888
 3441SOL     OW20656   2.909   0.343   3.333 -0.9949  0.0683  0.1516
 3441SOL    HW120657   2.866   0.269   3.281  0.2421  0.0137 -0.8129
 3441SOL    HW220658   2.961   0.402   3.271 -0.5804  0.7741  1.1455
 3442SOL     OW20659   1.227   7.016   0.708  0.3452  0.1197  0.1791
 3442SOL    HW120660   1.154   6.992   0.644 -0.4222 -1.2205  1.4936
 3442SOL    HW220661   1.261   6.932   0.751  1.6248  0.8910  0.6793
 3443SOL     OW20662   2.080   0.340   3.452  0.2394 -0.1367 -0.2904
 3443SOL    HW120663   2.125   0.392   3.524 -0.9725  0.8743 -0.2404
 3443SOL    HW220664   2.104   0.379   3.363  0.8508 -0.6932 -0.3734
 3444SOL     OW20665   8.530   2.273   2.350 -0.0271 -0.3797 -0.0988
 3444SOL    HW120666   8.490   2.336   2.283  0.6561 -0.0728 -0.2225
 3444SOL    HW220667   8.485   2.184   2.343 -1.7130  0.3782  0.7832
 3445SOL     OW20668   3.231   4.746   1.615  0.0391 -0.2009 -0.2043
 3445SOL    HW120669   3.200   4.808   1.686  1.1174  0.6206 -0.4349
 3445SOL    HW220670   3.269   4.663   1.657 -2.3496 -1.1962  0.0768
 3446SOL     OW20671   0.352   9.966   1.681 -0.0041  0.1211 -0.3349
 3446SOL    HW120672   0.257   9.996   1.688  0.4645  1.0883  2.1059
 3446SOL    HW220673   0.381   9.971   1.585 -1.7431  1.8283 -0.7963
 3447SOL     OW20674   1.893   1.479   2.166 -0.2795 -0.1246 -0.0353
 3447SOL    HW120675   1.884   1.387   2.203 -1.1483  0.1798  0.5105
 3447SOL    HW220676   1.928   1.474   2.072 -1.6650 -1.0839 -0.5138
 3448SOL     OW20677   4.054   1.082   2.996  0.0712  0.9892 -0.3753
 3448SOL    HW120678   4.066   0.994   3.043  0.4838  0.2617 -1.8143
 3448SOL    HW220679   3.962   1.086   2.957  0.1116  1.1370 -0.4545
 3449SOL     OW20680   8.137   3.147   1.910  0.0901  0.1199  0.2383
 3449SOL    HW120681   8.186   3.195   1.982  1.5388 -1.6640  0.4774
 3449SOL    HW220682   8.143   3.198   1.824  2.6043 -0.1996  0.2051
 3450SOL     OW20683   3.900   8.680   3.110  0.1975 -0.3735  0.2274
 3450SOL    HW120684   3.833   8.616   3.149 -1.9563  2.4750  1.3846
 3450SOL    HW220685   3.978   8.689   3.173  1.0515 -2.6228 -0.4602
 3451SOL     OW20686   4.580   1.375   1.193 -0.2423 -0.6248 -0.2541
 3451SOL    HW120687   4.627   1.290   1.171 -1.1767 -1.4638  0.9238
 3451SOL    HW220688   4.557   1.376   1.291  0.5953  1.3985 -0.0670
 3452SOL     OW20689   4.176   9.198   1.163 -0.0667 -0.5213 -0.4408
 3452SOL    HW120690   4.268   9.218   1.131  0.5570 -3.3626 -0.5388
 3452SOL    HW220691   4.110   9.215   1.089  0.7793 -1.8648 -1.5199
 3453SOL     OW20692   8.498   7.493   1.005 -0.8195 -0.0074  0.0094
 3453SOL    HW120693   8.585   7.497   1.054  0.3689 -1.6921 -1.8605
 3453SOL    HW220694   8.481   7.579   0.958  0.1596  0.0975 -0.1453
 3454SOL     OW20695   2.687   6.721   3.731  0.8651  0.2209  0.2021
 3454SOL    HW120696   2.698   6.812   3.691 -2.6232  0.6796  0.1210
 3454SOL    HW220697   2.658   6.730   3.826 -2.9372 -0.6655 -0.7782
 3455SOL     OW20698   9.951   3.245   2.868  0.8260 -0.2370 -0.1437
 3455SOL    HW120699   9.979   3.149   2.859 -1.6422 -0.8479 -1.5463
 3455SOL    HW220700   9.995   3.284   2.950  1.0167 -2.8594  1.0659
 3456SOL     OW20701   1.911   6.288   2.570  0.2235 -0.7775 -0.0371
 3456SOL    HW120702   1.914   6.381   2.605  1.3624 -0.5816 -0.6544
 3456SOL    HW220703   1.950   6.285   2.477 -1.6718 -1.4960 -0.8403
 3457SOL     OW20704   2.080   7.521   2.090  0.0803  0.3857 -0.2067
 3457SOL    HW120705   2.000   7.539   2.147  0.1061 -0.2215  0.0263
 3457SOL    HW220706   2.050   7.495   1.998  0.0518  2.1562 -0.7223
 3458SOL     OW20707   3.236   0.921   1.875  0.0810  0.3424 -0.3541
 3458SOL    HW120708   3.200   0.901   1.966  0.7586 -2.2776 -0.6245
 3458SOL    HW220709   3.329   0.955   1.883  0.7873 -1.5916 -0.1421
 3459SOL     OW20710   1.823   0.198   0.751  0.0330 -0.2224  0.2928
 3459SOL    HW120711   1.835   0.221   0.848 -0.9749 -0.7696  0.5529
 3459SOL    HW220712   1.753   0.257   0.711 -0.9279 -1.2894  0.3882
 3460SOL     OW20713   1.645   2.268   1.604  0.4510  0.0219 -0.7009
 3460SOL    HW120714   1.728   2.320   1.582 -0.0180  0.6285 -1.0734
 3460SOL    HW220715   1.655   2.174   1.571  0.3111  0.5580 -2.3237
 3461SOL     OW20716   2.125   7.217   1.580  0.2102 -0.2694  0.4064
 3461SOL    HW120717   2.056   7.149   1.607  0.7809 -0.3479  1.7253
 3461SOL    HW220718   2.202   7.212   1.643  1.2439  0.1026 -0.8191
 3462SOL     OW20719   9.521   2.976   1.211  0.1693  0.3283  0.4937
 3462SOL    HW120720   9.485   2.936   1.127  0.8557 -0.1961  0.4457
 3462SOL    HW220721   9.607   2.931   1.236  0.5991  1.3085  0.8115
 3463SOL     OW20722   9.289   0.441   3.293 -0.4108  0.1361 -0.2877
 3463SOL    HW120723   9.333   0.531   3.286  1.1767 -0.5980  0.1070
 3463SOL    HW220724   9.342   0.374   3.242 -0.9782 -0.8064  0.3604
 3464SOL     OW20725   7.381   9.679   0.622  0.0887  0.0746  0.0780
 3464SOL    HW120726   7.431   9.620   0.686 -1.4954 -0.4100  0.9100
 3464SOL    HW220727   7.296   9.634   0.596  0.2957  0.6787 -1.6977
 3465SOL     OW20728   2.330   2.129   0.924 -0.3396 -0.3921  0.7704
 3465SOL    HW120729   2.268   2.052   0.911  0.2773 -1.1010  1.8937
 3465SOL    HW220730   2.400   2.103   0.991  1.3389  0.2847 -0.7073
 3466SOL     OW20731   1.558   4.031   3.933  0.1274  0.2049  0.0133
 3466SOL    HW120732   1.504   4.104   3.972 -1.9251 -1.1637 -0.1882
 3466SOL    HW220733   1.506   3.985   3.861  0.6539 -2.5802  1.3344
 3467SOL     OW20734   0.199   7.608   1.070  0.4431  0.2990 -0.0546
 3467SOL    HW120735   0.186   7.700   1.035  0.6504 -0.2691 -1.6436
 3467SOL    HW220736   0.271   7.609   1.140  1.3160  1.1415 -0.9436
 3468SOL     OW20737   3.275   4.700   2.738  0.3390  0.2658 -0.1194
 3468SOL    HW120738   3.176   4.690   2.751  0.5713  0.1875  1.6006
 3468SOL    HW220739   3.311   4.768   2.801  1.2352  1.0441 -1.4525
 3469SOL     OW20740   6.490   9.733   3.085 -0.2693 -0.3865 -0.1281
 3469SOL    HW120741   6.503   9.635   3.076  0.8992 -0.2472 -0.0137
 3469SOL    HW220742   6.542   9.780   3.014 -0.9767  0.1453 -0.3023
 3470SOL     OW20743   8.585   1.308   3.086 -0.0190  0.0285 -0.0872
 3470SOL    HW120744   8.488   1.332   3.088 -0.2697 -0.9430 -0.3895
 3470SOL    HW220745   8.634   1.371   3.026 -0.2614  1.2294  0.9608
 3471SOL     OW20746   4.799   9.462   0.433  0.3311 -0.6030  0.2099
 3471SOL    HW120747   4.866   9.425   0.497  0.8748  0.0179  0.0031
 3471SOL    HW220748   4.791   9.402   0.354  0.5871 -0.7199  0.2721
 3472SOL     OW20749   1.755   7.553   3.358 -0.1113  0.1656 -0.0840
 3472SOL    HW120750   1.680   7.618   3.373  0.9204  1.3736 -0.0316
 3472SOL    HW220751   1.747   7.477   3.422 -0.0630  1.4204  1.4477
 3473SOL     OW20752   0.285   1.243   2.569  0.3321 -0.1691 -0.1247
 3473SOL    HW120753   0.380   1.216   2.584 -0.5066 -2.6723  1.0850
 3473SOL    HW220754   0.254   1.301   2.645  0.6474 -0.0597 -0.0783
 3474SOL     OW20755   5.074   8.889   2.984  0.1639 -0.1118  0.7019
 3474SOL    HW120756   5.147   8.836   2.940  0.7362  0.6060  0.7737
 3474SOL    HW220757   5.018   8.828   3.040 -0.4818 -1.0127 -0.8759
 3475SOL     OW20758   2.439   7.272   2.810 -0.1727  0.2798 -0.4448
 3475SOL    HW120759   2.458   7.370   2.807 -0.5287  0.3865  0.8191
 3475SOL    HW220760   2.523   7.222   2.788  0.1077  0.8549 -0.7205
 3476SOL     OW20761   2.435   4.074   2.780 -0.1375 -0.2259  0.4196
 3476SOL    HW120762   2.489   3.990   2.782 -0.9700 -0.8040 -0.5557
 3476SOL    HW220763   2.339   4.053   2.800 -0.3482  0.4892  0.1976
 3477SOL     OW20764   2.390   7.355   3.269  0.3954 -0.4437 -0.0138
 3477SOL    HW120765   2.350   7.281   3.323 -0.8273  0.4985  0.4154
 3477SOL    HW220766   2.464   7.398   3.321  0.9565 -1.2184 -0.1724
 3478SOL     OW20767   3.283   2.857   2.448  0.2564 -0.3052 -0.2570
 3478SOL    HW120768   3.301   2.817   2.538  2.6647 -1.6241 -1.2715
 3478SOL    HW220769   3.184   2.863   2.433 -0.1642 -1.1116  1.9880
 3479SOL     OW20770   2.012   7.632   3.507 -0.7706  0.2620  0.1329
 3479SOL    HW120771   2.025   7.535   3.530  1.5038  0.7595  1.0958
 3479SOL    HW220772   2.023   7.644   3.408  1.0464 -0.1504  0.2724
 3480SOL     OW20773   9.866   3.588   1.697  0.5182 -0.5282  0.3756
 3480SOL    HW120774   9.870   3.606   1.796  1.2178 -0.9960  0.4416
 3480SOL    HW220775   9.906   3.498   1.679  0.9913 -0.1633 -0.4129
 3481SOL     OW20776   7.962   9.114   4.000  0.1577 -0.6897 -0.2621
 3481SOL    HW120777   7.985   9.185   4.067  0.6855  0.8420 -2.0315
 3481SOL    HW220778   8.041   9.055   3.986  0.5005 -0.1666 -0.5554
 3482SOL     OW20779   2.987   9.267   0.846  0.3337  0.0954 -0.3489
 3482SOL    HW120780   2.964   9.343   0.907 -2.1223  1.0190 -2.3129
 3482SOL    HW220781   3.033   9.302   0.765  0.2433 -0.6522 -0.7245
 3483SOL     OW20782   0.379   7.621   1.467  0.0187  0.4330 -0.1315
 3483SOL    HW120783   0.312   7.563   1.514  0.9311  0.7734  1.6358
 3483SOL    HW220784   0.464   7.569   1.455  0.2158  0.7807 -0.2324
 3484SOL     OW20785   3.254   1.883   3.832 -0.1012 -0.1164 -0.2721
 3484SOL    HW120786   3.307   1.964   3.809 -0.6340 -0.3726 -2.4928
 3484SOL    HW220787   3.163   1.910   3.865 -0.0606  0.2027 -0.4257
 3485SOL     OW20788   1.819   5.828   1.571  0.0002  0.5332  0.5450
 3485SOL    HW120789   1.774   5.767   1.636 -0.2399 -0.7832 -0.8326
 3485SOL    HW220790   1.916   5.804   1.564 -0.1023  0.2788 -0.0267
 3486SOL     OW20791   2.234   6.627   0.350  0.3858  0.1347  0.5036
 3486SOL    HW120792   2.155   6.633   0.290  0.8751  2.7254  0.0708
 3486SOL    HW220793   2.314   6.666   0.304  1.4689 -0.6683  1.6770
 3487SOL     OW20794   2.062   3.943   2.095 -0.3875 -0.8269 -0.4438
 3487SOL    HW120795   2.131   3.980   2.033 -0.9376  0.3955 -0.3428
 3487SOL    HW220796   1.993   3.893   2.043  0.3169 -1.6561 -0.5901
 3488SOL     OW20797   9.766   1.353   0.444  0.3526 -0.7176 -0.0993
 3488SOL    HW120798   9.822   1.300   0.507  0.5154 -0.8556 -0.3615
 3488SOL    HW220799   9.784   1.324   0.350  0.1552 -0.4704 -0.2150
 3489SOL     OW20800   2.966   6.644   4.015  0.0113  0.3999 -0.2285
 3489SOL    HW120801   3.000   6.693   3.934 -0.1406  0.5495 -0.2025
 3489SOL    HW220802   3.009   6.683   4.097  0.0414  0.3573 -0.2242
 3490SOL     OW20803   0.477   9.783   0.787  0.3116 -0.6713 -1.1347
 3490SOL    HW120804   0.413   9.745   0.853  0.3243 -1.7175 -1.7228
 3490SOL    HW220805   0.443   9.770   0.694  0.4354  0.5322 -1.3702
 3491SOL     OW20806   2.022   3.439   2.787  0.0180  0.1699  0.4081
 3491SOL    HW120807   2.082   3.483   2.853  0.1975  0.2483  0.1943
 3491SOL    HW220808   1.936   3.490   2.780  0.4280  0.7828 -0.2196
 3492SOL     OW20809   4.454   2.080   1.988  0.0753 -0.1951 -0.3175
 3492SOL    HW120810   4.363   2.111   2.017 -0.2958 -1.7295  0.2523
 3492SOL    HW220811   4.449   2.045   1.895 -0.0334 -0.6628 -0.1430
 3493SOL     OW20812   4.526   7.453   2.078  0.0601 -0.3462 -0.0498
 3493SOL    HW120813   4.534   7.544   2.037 -0.9334  0.1697  0.8647
 3493SOL    HW220814   4.602   7.395   2.047  1.4224  1.1822  0.3499
 3494SOL     OW20815   0.132   0.650   3.378 -0.0148 -0.0900 -0.1402
 3494SOL    HW120816   0.179   0.638   3.465 -1.5008 -0.9137  0.5768
 3494SOL    HW220817   0.164   0.734   3.333 -0.1112  0.9880  1.7803
 3495SOL     OW20818   5.789   8.178   2.142 -0.1396  0.1053 -0.4949
 3495SOL    HW120819   5.822   8.232   2.065 -0.4642  1.2620  0.1637
 3495SOL    HW220820   5.861   8.168   2.211 -0.6554  1.3092  0.2362
 3496SOL     OW20821   2.255   8.626   0.471  0.9644 -0.6700  0.1867
 3496SOL    HW120822   2.283   8.556   0.404  0.3445 -1.1204  0.3867
 3496SOL    HW220823   2.298   8.606   0.559  0.5625 -0.9710  0.3181
 3497SOL     OW20824   2.173   2.286   3.504  0.0455  0.0124  0.1533
 3497SOL    HW120825   2.077   2.302   3.530 -0.0771  2.2470 -1.6191
 3497SOL    HW220826   2.188   2.315   3.410  2.1634 -1.6151 -0.0451
 3498SOL     OW20827   1.188   1.678   3.969  0.3191  0.2656 -0.0104
 3498SOL    HW120828   1.185   1.777   3.958 -0.0439  0.1817 -0.6961
 3498SOL    HW220829   1.283   1.647   3.966  0.5012  0.7016  1.2220
 3499SOL     OW20830   2.786   6.930   3.166 -0.0315  0.8092  0.0184
 3499SOL    HW120831   2.742   7.001   3.112  0.0462 -0.0067 -1.1177
 3499SOL    HW220832   2.728   6.849   3.170 -0.3169  1.0676  1.6770
 3500SOL     OW20833   4.161   8.556   1.857  0.3188  0.1570  0.0948
 3500SOL    HW120834   4.207   8.524   1.774 -2.1126 -1.4978 -0.6605
 3500SOL    HW220835   4.066   8.525   1.857 -0.2357  1.6918  2.6397
 3501SOL     OW20836   9.663   2.618   0.114 -0.0600 -0.7087 -0.3201
 3501SOL    HW120837   9.604   2.696   0.137  0.4094  0.2297 -2.2041
 3501SOL    HW220838   9.752   2.652   0.082  0.3553 -2.0338 -0.5879
 3502SOL     OW20839   3.300   4.375   0.458 -0.1655 -0.4634 -0.2878
 3502SOL    HW120840   3.313   4.395   0.361  0.7702  0.8659  0.0958
 3502SOL    HW220841   3.386   4.343   0.497  0.1763  1.5896  0.6926
 3503SOL     OW20842   4.232   0.369   3.702  0.2912  0.2279 -0.2127
 3503SOL    HW120843   4.316   0.390   3.652  0.9091 -0.2221  0.6152
 3503SOL    HW220844   4.236   0.411   3.793  0.2240 -0.9219  0.3385
 3504SOL     OW20845   2.363   9.697   1.971  0.3184 -0.5739 -0.1784
 3504SOL    HW120846   2.378   9.690   1.872 -0.3960  1.0417 -0.4193
 3504SOL    HW220847   2.268   9.673   1.992 -0.1169  1.1158 -0.1497
 3505SOL     OW20848   2.787   9.086   1.328 -0.1204 -0.1365  0.1268
 3505SOL    HW120849   2.706   9.072   1.384  0.3980 -0.9536  0.6798
 3505SOL    HW220850   2.762   9.138   1.246 -0.8114  1.4050  1.2863
 3506SOL     OW20851   0.995   4.998   0.244  0.5041 -0.5147 -0.1391
 3506SOL    HW120852   0.955   5.090   0.237  1.9856  0.1561 -0.1923
 3506SOL    HW220853   1.078   4.994   0.187  1.8730 -1.0685  1.8410
 3507SOL     OW20854   1.559   1.243   4.025  0.2879 -0.2024  0.2923
 3507SOL    HW120855   1.517   1.281   3.942 -1.8372  1.7152  2.1791
 3507SOL    HW220856   1.658   1.258   4.021 -0.3175  4.5692  0.3731
 3508SOL     OW20857   2.927   6.120   0.382 -0.0451  0.3877 -0.2990
 3508SOL    HW120858   2.869   6.057   0.330  1.0360 -0.5541 -0.3732
 3508SOL    HW220859   3.007   6.145   0.327 -0.5933  2.0444 -0.3718
 3509SOL     OW20860   7.845   5.988   0.040  0.0955 -0.2578 -0.0967
 3509SOL    HW120861   7.847   6.085   0.064 -0.4846 -0.0964 -0.6841
 3509SOL    HW220862   7.755   5.964   0.004  0.8493 -0.5760 -1.7895
 3510SOL     OW20863   1.546   2.274   0.712 -0.5452 -0.0218 -0.5512
 3510SOL    HW120864   1.584   2.310   0.797 -0.9343  0.4078 -0.5556
 3510SOL    HW220865   1.459   2.320   0.692 -1.2151 -1.1882 -0.3971
 3511SOL     OW20866   4.341   8.219   1.716 -0.2880 -0.4686 -0.2666
 3511SOL    HW120867   4.340   8.319   1.705 -2.1954 -0.1737  2.1671
 3511SOL    HW220868   4.276   8.193   1.788  1.4659 -3.3144  0.3516
 3512SOL     OW20869   3.847   3.865   3.433 -0.2994  0.1855 -0.2925
 3512SOL    HW120870   3.867   3.869   3.531  1.7722 -2.9274 -0.5111
 3512SOL    HW220871   3.805   3.777   3.412  0.5683  0.2781 -2.4428
 3513SOL     OW20872   0.852   0.538   1.209  0.4068 -0.0267 -0.0257
 3513SOL    HW120873   0.915   0.539   1.287 -0.6429 -1.3827  0.8755
 3513SOL    HW220874   0.770   0.592   1.231  1.2492  1.7796 -1.2150
 3514SOL     OW20875   3.530   2.226   3.954  0.1451  0.0635 -0.0503
 3514SOL    HW120876   3.583   2.213   3.870  1.1502  0.2534  0.5557
 3514SOL    HW220877   3.467   2.303   3.941  0.9634  0.6992 -0.3053
 3515SOL     OW20878   3.667   7.803   1.315  0.2328  0.3927  0.0554
 3515SOL    HW120879   3.593   7.737   1.304 -0.2980  0.6013  2.2735
 3515SOL    HW220880   3.672   7.861   1.233 -2.1753  0.4957 -0.0628
 3516SOL     OW20881   1.177   8.001   3.194  0.4816 -0.2666  0.2461
 3516SOL    HW120882   1.226   7.972   3.111 -0.2464  0.2220 -0.3652
 3516SOL    HW220883   1.218   7.958   3.274  1.0869 -0.8793 -0.3898
 3517SOL     OW20884   3.099   2.616   3.126  0.1446  0.2254 -0.2628
 3517SOL    HW120885   3.103   2.552   3.203 -0.9363  2.0145  1.3101
 3517SOL    HW220886   3.010   2.609   3.082  0.5337 -0.3350 -0.9773
 3518SOL     OW20887   8.109   5.407   0.997 -0.6125  0.0737  0.9555
 3518SOL    HW120888   8.117   5.473   1.072  1.8323  0.5451  0.2981
 3518SOL    HW220889   8.160   5.324   1.020  1.3405  0.7585 -0.7451
 3519SOL     OW20890   3.373   2.264   0.803 -0.4195 -0.9011  0.3157
 3519SOL    HW120891   3.311   2.197   0.761 -0.8543  0.6356 -1.6245
 3519SOL    HW220892   3.459   2.266   0.752 -1.0239  1.1292 -0.6976
 3520SOL     OW20893   3.965   0.478   2.686 -0.2893  0.3030  0.4052
 3520SOL    HW120894   3.941   0.381   2.693 -0.7148  0.3574 -0.2597
 3520SOL    HW220895   3.915   0.520   2.610  0.3369  0.9077  0.3164
 3521SOL     OW20896   8.255   7.245   0.759  0.0297 -0.0574 -0.2421
 3521SOL    HW120897   8.227   7.243   0.855 -0.8184  0.0244 -0.4816
 3521SOL    HW220898   8.263   7.340   0.728  0.3936 -0.0832 -0.2260
 3522SOL     OW20899   1.936   4.913   0.185 -0.2797 -0.2706 -0.8184
 3522SOL    HW120900   1.911   5.000   0.142  1.4215  0.8352  0.3363
 3522SOL    HW220901   2.020   4.878   0.143  0.3751 -0.1073  0.3141
 3523SOL     OW20902   7.867   1.005   0.871  0.2838  0.7044 -0.3502
 3523SOL    HW120903   7.781   1.037   0.831 -0.3432 -0.6364 -0.0972
 3523SOL    HW220904   7.925   0.966   0.799 -0.8540 -1.7289  0.0334
 3524SOL     OW20905   3.168   1.173   3.981  0.8560  0.1636 -0.6276
 3524SOL    HW120906   3.084   1.120   3.989  2.4088 -2.1725  0.6677
 3524SOL    HW220907   3.198   1.174   3.885  1.4222 -2.3400 -0.5155
 3525SOL     OW20908   1.981   7.324   1.370 -0.0712 -0.3500 -0.0368
 3525SOL    HW120909   2.038   7.388   1.318 -0.4369 -0.0279 -0.0495
 3525SOL    HW220910   2.033   7.286   1.446  0.5217 -0.9472 -0.7320
 3526SOL     OW20911   0.870   3.290   2.364  0.3355  0.2015  0.1359
 3526SOL    HW120912   0.800   3.356   2.390  0.0367  0.0265 -0.2284
 3526SOL    HW220913   0.827   3.206   2.331  0.7139  0.4505 -1.0112
 3527SOL     OW20914   2.427   1.164   0.290 -0.1027 -0.0586  0.5049
 3527SOL    HW120915   2.340   1.185   0.246  0.3473  0.7847  0.0068
 3527SOL    HW220916   2.441   1.065   0.291 -0.0042 -0.0860 -1.5004
 3528SOL     OW20917   0.605   0.034   0.393 -0.0355 -0.1254 -0.4448
 3528SOL    HW120918   0.617   0.073   0.302 -0.9448 -0.9089 -0.9033
 3528SOL    HW220919   0.672   0.074   0.455 -1.7726  3.1858 -0.5976
 3529SOL     OW20920   2.774   5.382   0.540 -0.5875 -0.6718  0.4490
 3529SOL    HW120921   2.695   5.375   0.601 -0.1863  1.0885  1.2094
 3529SOL    HW220922   2.742   5.387   0.445 -1.5266  1.4817  0.8276
 3530SOL     OW20923   3.370   7.233   2.569 -0.0721  0.0515  0.1768
 3530SOL    HW120924   3.406   7.146   2.601 -0.2935  0.2503  0.9853
 3530SOL    HW220925   3.418   7.260   2.485 -0.6429 -1.2817 -0.5889
 3531SOL     OW20926   1.682   5.601   2.935 -0.0351  0.1063 -0.7970
 3531SOL    HW120927   1.702   5.675   2.999 -0.3585 -1.1027  0.7333
 3531SOL    HW220928   1.696   5.633   2.842  0.3057  1.9427 -0.1351
 3532SOL     OW20929   0.705   3.534   2.746 -0.6686  0.6042 -0.3988
 3532SOL    HW120930   0.777   3.465   2.741 -3.3657 -2.6878  3.5318
 3532SOL    HW220931   0.724   3.598   2.821 -1.5018  0.1303  0.2182
 3533SOL     OW20932   1.173   0.442   3.150 -0.4054 -0.2590  0.1511
 3533SOL    HW120933   1.140   0.485   3.066 -0.5986  1.3622  1.0454
 3533SOL    HW220934   1.267   0.409   3.136 -0.2425  0.4782 -0.5270
 3534SOL     OW20935   2.892   4.277   3.669 -0.6853 -0.2599 -0.1662
 3534SOL    HW120936   2.825   4.298   3.597  0.1010  1.7789 -0.3458
 3534SOL    HW220937   2.955   4.354   3.679  0.3759 -1.3049  1.4283
 3535SOL     OW20938   3.128   9.996   3.581 -0.1859 -0.2109 -0.5264
 3535SOL    HW120939   3.084   9.954   3.502 -0.7290 -0.5447 -0.0538
 3535SOL    HW220940   3.106  10.093   3.584 -0.3898 -0.2533 -0.6333
 3536SOL     OW20941   3.560   3.962   0.625 -0.2660 -0.0209  0.4201
 3536SOL    HW120942   3.501   3.934   0.701 -0.4637  1.7489  0.9282
 3536SOL    HW220943   3.539   4.055   0.598  1.6407  0.3035 -0.0453
 3537SOL     OW20944   3.924   8.835   1.053 -0.4170  0.2513 -0.3765
 3537SOL    HW120945   3.846   8.892   1.024  0.4388  1.2134 -0.8194
 3537SOL    HW220946   3.984   8.889   1.112  0.4519 -0.1668 -0.8681
 3538SOL     OW20947   1.099   6.918   1.102 -0.1075 -0.4543  0.3423
 3538SOL    HW120948   1.122   6.834   1.052 -1.8511  0.9043 -2.8207
 3538SOL    HW220949   1.008   6.949   1.076  1.2182  3.4418  0.0564
 3539SOL     OW20950   7.645   1.309   1.262 -0.3372 -0.1035  0.3076
 3539SOL    HW120951   7.700   1.338   1.341 -0.1307  2.1097 -0.5955
 3539SOL    HW220952   7.555   1.351   1.266 -1.9172 -3.4556  1.5960
 3540SOL     OW20953   3.444   8.479   1.615 -0.0739 -0.4711 -0.0456
 3540SOL    HW120954   3.486   8.396   1.579 -0.4711 -0.7552  0.1494
 3540SOL    HW220955   3.448   8.477   1.715 -1.0501 -0.7525 -0.0120
 3541SOL     OW20956   0.575   2.095   2.576  0.1043 -0.4560  0.5146
 3541SOL    HW120957   0.483   2.065   2.550  0.7161 -1.9111 -0.0331
 3541SOL    HW220958   0.626   2.123   2.494  0.7247 -1.3358  0.5854
 3542SOL     OW20959   2.241   8.161   0.751  0.1319  0.5190  0.0123
 3542SOL    HW120960   2.246   8.095   0.825 -1.3427 -0.0911 -0.4103
 3542SOL    HW220961   2.230   8.253   0.789  1.2239  0.4296  0.5716
 3543SOL     OW20962   2.315   5.420   2.056 -0.2723  0.4237  0.0770
 3543SOL    HW120963   2.355   5.510   2.074  0.1738 -0.0167  1.3949
 3543SOL    HW220964   2.375   5.349   2.093 -0.3256 -0.4545 -1.4841
 3544SOL     OW20965   3.834   4.439   3.505 -1.0272  0.9962 -0.4340
 3544SOL    HW120966   3.917   4.450   3.449 -0.2986 -1.5781  0.0584
 3544SOL    HW220967   3.769   4.382   3.455 -0.6943 -0.6511  0.9761
 3545SOL     OW20968   7.193   9.458   0.947  0.4408  0.0165  0.2549
 3545SOL    HW120969   7.211   9.554   0.971 -0.1574  0.2540 -0.2373
 3545SOL    HW220970   7.197   9.447   0.848  0.0318 -0.3689  0.2799
 3546SOL     OW20971   9.578   1.662   1.900  0.0945  0.1487 -0.1068
 3546SOL    HW120972   9.568   1.571   1.860  0.8194  0.0987 -0.1943
 3546SOL    HW220973   9.674   1.690   1.894 -0.4509  1.7357 -1.8094
 3547SOL     OW20974   0.529   3.174   3.258  0.1781  1.1900 -0.1684
 3547SOL    HW120975   0.578   3.100   3.212 -0.4502 -0.8141  2.2994
 3547SOL    HW220976   0.587   3.215   3.328 -0.8657  0.3743  1.1766
 3548SOL     OW20977   1.835   2.541   1.985 -0.8216 -0.1871  0.2350
 3548SOL    HW120978   1.890   2.568   1.906 -0.3306 -0.5930  0.4348
 3548SOL    HW220979   1.883   2.565   2.069 -1.7785  1.1236  0.4206
 3549SOL     OW20980   3.583   3.202   1.354 -0.0984 -0.2284 -0.2315
 3549SOL    HW120981   3.671   3.243   1.332  0.3589 -0.2424  1.5162
 3549SOL    HW220982   3.509   3.261   1.321  0.5594  0.1900 -0.9587
 3550SOL     OW20983   1.367   0.518   3.423  0.2846 -0.0984 -0.1028
 3550SOL    HW120984   1.466   0.524   3.441  0.1419  1.9730  0.0962
 3550SOL    HW220985   1.346   0.429   3.383  2.3449 -0.3302 -0.7452
 3551SOL     OW20986   2.043   2.940   2.666 -0.3563 -0.1062  0.3203
 3551SOL    HW120987   2.040   3.029   2.710 -0.5095 -0.1462  0.3926
 3551SOL    HW220988   2.133   2.900   2.677 -0.5318 -0.3165  0.9953
 3552SOL     OW20989   9.138   3.722   3.574  0.2050  0.1838  0.1807
 3552SOL    HW120990   9.101   3.678   3.656 -1.1809  0.2953 -0.3779
 3552SOL    HW220991   9.073   3.790   3.540  0.9619  0.4479 -0.7679
 3553SOL     OW20992   1.474   9.926   2.471  0.6333 -0.2032 -0.6728
 3553SOL    HW120993   1.514   9.975   2.548  1.9204 -0.8059 -0.9512
 3553SOL    HW220994   1.508   9.966   2.386 -2.2640  1.7206 -0.9988
 3554SOL     OW20995   8.689   7.270   0.105 -0.0896 -0.7020  0.1111
 3554SOL    HW120996   8.786   7.250   0.122  0.3404  2.0262  1.1535
 3554SOL    HW220997   8.633   7.217   0.168  0.9097  0.1956  1.7995
 3555SOL     OW20998   3.119   2.603   2.766 -0.0414  0.4515 -0.5541
 3555SOL    HW120999   3.105   2.506   2.781  0.3520  0.4681 -0.0829
 3555SOL    HW221000   3.054   2.636   2.697 -0.7615  0.0462 -0.0667
 3556SOL     OW21001   3.970   2.879   1.412 -0.2159 -0.1642  0.1758
 3556SOL    HW121002   3.918   2.798   1.437  0.7436 -0.8476 -0.0248
 3556SOL    HW221003   3.918   2.933   1.346 -1.1555 -0.2553  0.8388
 3557SOL     OW21004   1.384   4.585   0.145  0.3874 -0.2602  0.0767
 3557SOL    HW121005   1.448   4.547   0.212 -0.3669 -0.2478  0.8210
 3557SOL    HW221006   1.338   4.510   0.097  0.1094 -0.2884  0.3782
 3558SOL     OW21007   1.985   5.549   1.351 -0.4169 -0.4958 -0.4826
 3558SOL    HW121008   2.031   5.637   1.366 -1.1803 -0.2138  0.2910
 3558SOL    HW221009   2.053   5.476   1.346  0.2165  0.1283 -1.0019
 3559SOL     OW21010   1.858   8.472   2.425 -0.3602  0.1608 -0.0755
 3559SOL    HW121011   1.957   8.462   2.417 -0.4167 -0.2436 -0.3051
 3559SOL    HW221012   1.822   8.513   2.341 -0.6469 -1.7233 -0.9001
 3560SOL     OW21013   2.438   5.505   3.050 -0.2839 -0.5489 -0.8239
 3560SOL    HW121014   2.459   5.430   3.113  1.0578 -0.5022 -1.1951
 3560SOL    HW221015   2.410   5.468   2.961 -0.4492 -0.6116 -0.7454
 3561SOL     OW21016   1.573   8.879   0.830 -0.0564  0.4331  0.4706
 3561SOL    HW121017   1.480   8.866   0.797  0.0638 -1.6039  0.8540
 3561SOL    HW221018   1.634   8.894   0.753 -0.3385 -0.6675  0.0187
 3562SOL     OW21019   3.819   7.642   3.951  0.2070  0.1163 -0.1485
 3562SOL    HW121020   3.889   7.673   3.887  1.4666 -0.8337  0.7574
 3562SOL    HW221021   3.813   7.708   4.027  1.7150 -0.9486  0.9222
 3563SOL     OW21022   3.405   3.720   0.001 -0.0023  0.4885 -0.5892
 3563SOL    HW121023   3.341   3.743   0.074  1.2287  0.1958  0.6004
 3563SOL    HW221024   3.359   3.729  -0.087 -1.9851 -0.6967  0.2809
 3564SOL     OW21025   7.845   0.211   3.438  0.3121  0.1776  0.1608
 3564SOL    HW121026   7.904   0.130   3.446 -0.3010 -0.1255  1.8648
 3564SOL    HW221027   7.872   0.279   3.506 -0.3745  0.6470 -0.0288
 3565SOL     OW21028   4.631   7.578   3.070 -0.1150 -0.4898  0.0096
 3565SOL    HW121029   4.662   7.649   3.134 -0.7641  0.4352 -0.6900
 3565SOL    HW221030   4.675   7.591   2.981  0.5151 -1.5665  0.1481
 3566SOL     OW21031   4.468   0.247   1.986 -0.4657 -0.0501  0.3221
 3566SOL    HW121032   4.560   0.216   2.010 -0.0177  2.0754  1.4188
 3566SOL    HW221033   4.473   0.337   1.944 -2.0267 -0.0807  0.0477
 3567SOL     OW21034   2.096   1.223   0.984  0.0647  0.2608  0.2586
 3567SOL    HW121035   2.033   1.239   1.059  1.4512  0.6939  1.3499
 3567SOL    HW221036   2.052   1.165   0.915 -1.4422  0.4114  1.0827
 3568SOL     OW21037   3.322   0.310   0.112 -0.6940  0.1504 -0.2470
 3568SOL    HW121038   3.416   0.291   0.084 -1.2153 -2.8091 -0.1160
 3568SOL    HW221039   3.261   0.304   0.033 -1.1223 -0.6053  0.1348
 3569SOL     OW21040   3.692   0.259   1.456 -0.8464  0.0779  0.3286
 3569SOL    HW121041   3.613   0.217   1.411  0.1429 -1.0974 -0.3359
 3569SOL    HW221042   3.772   0.250   1.398 -0.0319  0.5008  1.3742
 3570SOL     OW21043   2.084   9.177   2.141 -0.2113 -0.0888 -0.0485
 3570SOL    HW121044   2.054   9.228   2.061 -2.5299  2.0650  2.0981
 3570SOL    HW221045   2.165   9.221   2.181  1.0660 -1.2769 -1.2566
 3571SOL     OW21046   1.623   9.155   3.332  0.0942 -0.0682 -0.5308
 3571SOL    HW121047   1.616   9.114   3.423  1.2395 -0.9619 -0.8202
 3571SOL    HW221048   1.604   9.085   3.263  1.3727  0.0526 -1.0195
 3572SOL     OW21049   3.563   8.538   1.171  0.3780 -0.1149 -0.1519
 3572SOL    HW121050   3.485   8.501   1.121  1.5516 -0.8991 -1.4278
 3572SOL    HW221051   3.533   8.567   1.262 -1.6923  0.8823 -1.1042
 3573SOL     OW21052   4.025   5.658   2.821 -0.1719 -0.7579 -0.4165
 3573SOL    HW121053   3.982   5.743   2.850  2.7843  0.7651 -0.2865
 3573SOL    HW221054   4.003   5.639   2.726  0.8938  1.3162 -1.0942
 3574SOL     OW21055   1.796   4.284   1.246  0.2052  0.8171  0.0830
 3574SOL    HW121056   1.835   4.201   1.206  0.1360  0.9770 -0.3242
 3574SOL    HW221057   1.734   4.260   1.321 -0.5267  0.4477 -0.6302
 3575SOL     OW21058   2.613   1.582   3.186 -0.2453  0.1316 -0.2819
 3575SOL    HW121059   2.702   1.579   3.231 -0.2944  1.0371 -0.1232
 3575SOL    HW221060   2.556   1.651   3.229 -1.5944 -1.5198  0.6350
 3576SOL     OW21061   7.888   6.503   0.245 -0.0801  0.7283  0.2273
 3576SOL    HW121062   7.883   6.598   0.277 -1.1807  0.0333  2.1969
 3576SOL    HW221063   7.903   6.442   0.323 -1.5870 -0.9122 -0.7128
 3577SOL     OW21064   8.525   7.967   0.572  0.0514  0.1517  0.2036
 3577SOL    HW121065   8.555   7.877   0.543  2.2533  0.4402  1.4544
 3577SOL    HW221066   8.570   8.037   0.517 -1.1758  0.5226 -0.3564
 3578SOL     OW21067   9.761   3.760   0.290  0.4675 -0.1713  0.1346
 3578SOL    HW121068   9.851   3.772   0.332  0.3528 -0.0295  0.3374
 3578SOL    HW221069   9.773   3.730   0.196  0.7131 -3.6542  1.2034
 3579SOL     OW21070   4.109   2.361   0.383  0.0594  0.1460  0.1964
 3579SOL    HW121071   4.119   2.295   0.457 -3.0122  0.7819  1.2821
 3579SOL    HW221072   4.077   2.448   0.421 -0.1039  0.9243 -1.6999
 3580SOL     OW21073   1.935   1.931   1.536  0.3632 -0.3605 -0.2099
 3580SOL    HW121074   1.983   1.941   1.623  0.5493  1.3911 -0.4999
 3580SOL    HW221075   1.840   1.958   1.546  0.1531 -1.0455 -0.3317
 3581SOL     OW21076   0.191   1.061   1.329 -0.0982  0.3767 -0.3962
 3581SOL    HW121077   0.270   1.115   1.358 -1.5138  1.0956  2.2342
 3581SOL    HW221078   0.167   0.995   1.400  0.0357 -2.0192 -2.4964
 3582SOL     OW21079   6.442   9.553   2.557  0.4438  0.3916 -0.5516
 3582SOL    HW121080   6.394   9.532   2.472 -1.0440 -0.2513  0.4176
 3582SOL    HW221081   6.375   9.583   2.626  1.4055 -0.8443  0.9414
 3583SOL     OW21082   2.442   2.333   0.403 -0.4185  0.1086  0.4800
 3583SOL    HW121083   2.492   2.257   0.445  0.1719 -0.1514 -0.6696
 3583SOL    HW221084   2.507   2.398   0.365 -0.9534  0.2498 -0.1913
 3584SOL     OW21085   3.679   3.550   1.689 -0.5005  0.6004  0.4634
 3584SOL    HW121086   3.589   3.579   1.658 -0.7288 -0.1084  0.4379
 3584SOL    HW221087   3.676   3.534   1.788 -0.5460  0.0649  0.3772
 3585SOL     OW21088   1.931   4.283   2.189  0.5063  0.8875  0.6762
 3585SOL    HW121089   1.869   4.267   2.112  0.1039  1.1348  0.9480
 3585SOL    HW221090   1.960   4.196   2.228  1.0976  0.7453 -0.0617
 3586SOL     OW21091   8.473   2.810   2.783  0.0769  0.3248 -0.1807
 3586SOL    HW121092   8.412   2.886   2.806 -2.5370 -1.5061 -0.7993
 3586SOL    HW221093   8.542   2.840   2.717 -1.9113  1.7589 -1.6525
 3587SOL     OW21094   8.134   0.386   1.660 -0.1003 -0.0178  0.2762
 3587SOL    HW121095   8.175   0.295   1.664  1.3498  0.6900  1.7268
 3587SOL    HW221096   8.120   0.411   1.564 -0.5058 -1.7454 -0.1480
 3588SOL     OW21097   2.506   4.334   3.261  0.1940 -0.6042  0.6081
 3588SOL    HW121098   2.412   4.302   3.253  0.3003 -0.5674 -1.0120
 3588SOL    HW221099   2.558   4.303   3.181  1.8095 -1.4762  1.9638
 3589SOL     OW21100   9.911   2.065   1.028  0.4873  0.2786 -0.3335
 3589SOL    HW121101   9.929   2.121   1.109 -0.0218 -1.2187  0.8431
 3589SOL    HW221102   9.921   2.121   0.946 -2.0810  2.6224  0.8757
 3590SOL     OW21103   2.023   1.224   1.676 -0.9491  0.3325 -0.0385
 3590SOL    HW121104   1.926   1.202   1.691 -0.9079  0.4810  0.4702
 3590SOL    HW221105   2.079   1.145   1.698 -1.0264 -0.0929 -1.3544
 3591SOL     OW21106   5.805   8.728   1.931 -0.4166 -0.3622  0.7367
 3591SOL    HW121107   5.724   8.785   1.946 -0.9376 -1.0279  0.5146
 3591SOL    HW221108   5.777   8.641   1.888  0.3650 -0.7560  1.0096
 3592SOL     OW21109   8.737   2.058   2.940 -0.0188 -0.0836  0.8081
 3592SOL    HW121110   8.717   1.973   2.989 -1.4520 -0.2904 -0.1131
 3592SOL    HW221111   8.833   2.057   2.910 -0.2135 -1.7215  0.1714
 3593SOL     OW21112   2.118   2.767   3.428 -0.2746 -0.5857  0.3121
 3593SOL    HW121113   2.111   2.674   3.393  1.6673 -0.1849 -1.2135
 3593SOL    HW221114   2.192   2.815   3.382 -2.5204  2.3865 -0.3865
 3594SOL     OW21115   9.979   3.715   3.258 -0.4907 -0.2189 -0.1047
 3594SOL    HW121116   9.950   3.803   3.295 -1.7896 -0.9287  0.6378
 3594SOL    HW221117   9.898   3.665   3.225  0.0115 -1.7770  0.9497
 3595SOL     OW21118   0.045   7.393   0.084 -0.5248 -0.2480 -0.1473
 3595SOL    HW121119  -0.041   7.348   0.062 -1.5958  1.3417  0.6586
 3595SOL    HW221120   0.095   7.339   0.152 -0.6701 -1.3993 -0.9467
 3596SOL     OW21121   1.230   4.197   2.281 -0.1920 -0.0294  0.1272
 3596SOL    HW121122   1.261   4.110   2.242  1.4225  0.2559  0.7126
 3596SOL    HW221123   1.245   4.270   2.214 -0.3586 -0.0154  0.1061
 3597SOL     OW21124   9.165   8.548   3.943 -0.3599 -0.2865  0.3340
 3597SOL    HW121125   9.097   8.502   4.000  0.6008  0.3526  1.9964
 3597SOL    HW221126   9.129   8.635   3.911 -1.2792 -1.0902 -0.8962
 3598SOL     OW21127   2.049   7.971   1.993 -0.2575  0.0199  0.7613
 3598SOL    HW121128   2.116   7.915   2.041  2.0489  1.7899 -0.3394
 3598SOL    HW221129   2.045   7.944   1.897  0.0762  1.0142  0.4639
 3599SOL     OW21130   3.978   8.279   0.832 -0.0832  0.6984 -0.3621
 3599SOL    HW121131   3.882   8.299   0.813 -0.1379  0.5130 -0.2752
 3599SOL    HW221132   4.026   8.262   0.746 -0.8696 -2.6355 -0.1771
 3600SOL     OW21133   1.973   5.777   0.609  0.7887 -0.4373  0.1313
 3600SOL    HW121134   2.060   5.739   0.640  0.4313 -1.9872 -0.7028
 3600SOL    HW221135   1.962   5.758   0.511 -0.5428 -0.3541  0.2652
 3601SOL     OW21136   1.942   7.028   1.684 -0.2083  1.2445  0.3602
 3601SOL    HW121137   1.872   7.038   1.612  0.1042  2.6939  0.2524
 3601SOL    HW221138   1.913   6.957   1.748 -0.5162 -0.0533 -1.1724
 3602SOL     OW21139   2.715   9.060   4.031  0.5891  0.2603  0.1574
 3602SOL    HW121140   2.720   8.995   4.107  2.5322  1.2662  0.9344
 3602SOL    HW221141   2.644   9.128   4.050 -1.1632 -1.3591 -0.4673
 3603SOL     OW21142   2.151   5.744   1.226  0.0376  0.0409 -0.5921
 3603SOL    HW121143   2.107   5.757   1.138 -1.3814  1.9126  0.3657
 3603SOL    HW221144   2.250   5.736   1.213 -0.1629  0.2887 -2.3438
 3604SOL     OW21145   4.361   8.113   2.098 -0.1072 -0.3550  0.2425
 3604SOL    HW121146   4.295   8.117   2.022 -0.7766 -2.2454  0.7063
 3604SOL    HW221147   4.426   8.189   2.089 -0.1938 -0.5242 -2.1920
 3605SOL     OW21148   9.772   2.541   3.757  0.1612 -0.2134  0.6358
 3605SOL    HW121149   9.762   2.533   3.658  1.3132 -0.1073  0.5145
 3605SOL    HW221150   9.830   2.619   3.780  0.4520 -0.6353  1.3694
 3606SOL     OW21151   0.142   9.978   3.081 -0.0103 -0.0282 -0.8795
 3606SOL    HW121152   0.155   9.930   3.167 -1.1388 -1.5712 -1.5508
 3606SOL    HW221153   0.217   9.956   3.018  1.1652  1.6157 -0.0858
 3607SOL     OW21154   1.587   7.819   2.124  0.0605  0.2442 -0.5682
 3607SOL    HW121155   1.680   7.851   2.113  0.1993 -0.9594 -3.2878
 3607SOL    HW221156   1.524   7.897   2.131  1.1302  1.0473  0.1736
 3608SOL     OW21157   1.659   8.147   3.013 -0.0806  0.8711  0.0468
 3608SOL    HW121158   1.720   8.081   3.057  1.1387  1.1158 -1.2427
 3608SOL    HW221159   1.682   8.155   2.916 -0.7166  2.6217  0.0132
 3609SOL     OW21160   7.845   7.146   0.462 -0.0040  0.4256 -0.0522
 3609SOL    HW121161   7.910   7.071   0.464  0.4079  0.6283 -3.2089
 3609SOL    HW221162   7.892   7.232   0.482  0.4958  0.4043 -1.0695
 3610SOL     OW21163   9.854   7.871   1.899 -0.3349  0.0199 -0.0655
 3610SOL    HW121164   9.921   7.938   1.868 -0.1270  0.1447  0.6580
 3610SOL    HW221165   9.892   7.779   1.890  1.1464  0.2518  3.2910
 3611SOL     OW21166   4.953   1.220   1.754 -0.3158  0.5895  0.1919
 3611SOL    HW121167   4.919   1.252   1.842  0.9460  0.6502  0.6701
 3611SOL    HW221168   5.039   1.170   1.767  0.0893  0.9265 -1.0473
 3612SOL     OW21169   3.518   0.692   0.182 -0.2642  0.4903  0.3744
 3612SOL    HW121170   3.551   0.649   0.098 -1.4024  0.0721  0.1388
 3612SOL    HW221171   3.593   0.741   0.225  0.3506  0.6447 -0.8473
 3613SOL     OW21172   3.036   7.777   3.770  0.2488  0.6374 -0.1230
 3613SOL    HW121173   2.972   7.850   3.793  1.1329  2.2311 -2.5239
 3613SOL    HW221174   3.127   7.800   3.805  0.1928 -0.1529  0.5791
 3614SOL     OW21175   8.977   0.153   3.428 -0.0889 -0.0061 -0.1470
 3614SOL    HW121176   9.025   0.189   3.508 -0.3268  0.7380 -0.3369
 3614SOL    HW221177   8.959   0.228   3.364  0.1338 -0.6096 -0.9112
 3615SOL     OW21178   1.741   0.970   1.275 -0.4835  0.0700  0.2524
 3615SOL    HW121179   1.815   1.016   1.325 -1.5689  0.2350  1.7422
 3615SOL    HW221180   1.739   1.003   1.181  1.3581  0.0424  0.1921
 3616SOL     OW21181   1.071   3.344   0.318 -0.4963 -0.0414  0.3863
 3616SOL    HW121182   1.083   3.317   0.413 -0.7876  1.7633  0.9546
 3616SOL    HW221183   1.022   3.431   0.314  0.1255  0.2500 -1.3919
 3617SOL     OW21184   8.324   1.411   3.131 -0.0998  0.1810 -0.0101
 3617SOL    HW121185   8.340   1.467   3.212 -3.2165  1.0687  0.0555
 3617SOL    HW221186   8.229   1.380   3.131  0.2908 -1.0890 -2.5499
 3618SOL     OW21187   2.505   8.203   0.641  0.2059 -0.2013 -0.6796
 3618SOL    HW121188   2.409   8.197   0.669 -0.3031  0.8694 -2.1651
 3618SOL    HW221189   2.536   8.297   0.650  1.4059 -0.6937  0.6402
 3619SOL     OW21190   8.031   1.331   1.578 -0.0076 -0.5614  0.7272
 3619SOL    HW121191   8.003   1.255   1.637  1.0285 -0.7527  0.9833
 3619SOL    HW221192   8.098   1.298   1.511  0.2455  0.0739  0.6689
 3620SOL     OW21193   2.911   1.879   0.455 -0.4496 -0.4769 -0.2371
 3620SOL    HW121194   2.851   1.800   0.444 -1.1703 -0.1632  1.2837
 3620SOL    HW221195   2.882   1.932   0.535  0.9662  0.4837 -0.3389
 3621SOL     OW21196   3.588   4.808   1.105  0.4548  0.2305  0.3483
 3621SOL    HW121197   3.513   4.810   1.171 -0.7521  0.6802 -1.0068
 3621SOL    HW221198   3.602   4.899   1.067 -0.0682 -0.3751 -1.3395
 3622SOL     OW21199   1.208   1.999   3.956  0.2636 -0.2906 -0.0608
 3622SOL    HW121200   1.213   2.083   3.902  0.8569 -0.3471 -0.0930
 3622SOL    HW221201   1.261   2.010   4.040  1.7203 -1.2159 -0.8404
 3623SOL     OW21202   4.037   4.167   3.301  0.2574 -0.1848  0.1125
 3623SOL    HW121203   4.046   4.221   3.217 -0.3664  0.1336  0.2417
 3623SOL    HW221204   3.973   4.092   3.285 -0.0640  0.0307  0.3755
 3624SOL     OW21205   2.635   2.231   3.124  0.0803 -0.3534  0.3848
 3624SOL    HW121206   2.712   2.196   3.070  0.0196 -0.1812  0.1882
 3624SOL    HW221207   2.583   2.154   3.161 -1.3186 -0.5097 -1.8219
 3625SOL     OW21208   8.703   2.315   1.599  0.1438  0.2450 -0.4425
 3625SOL    HW121209   8.611   2.351   1.582 -0.8578  0.4779  4.7252
 3625SOL    HW221210   8.703   2.216   1.583 -1.2250  0.1174  0.2414
 3626SOL     OW21211   0.619   2.937   3.122  0.2714  0.3311  0.1345
 3626SOL    HW121212   0.583   2.927   3.030 -1.9405  0.4653  0.9659
 3626SOL    HW221213   0.618   2.849   3.169  0.0750  0.5259  0.5017
 3627SOL     OW21214   3.324   3.105   3.398 -1.0010 -0.6011  0.5111
 3627SOL    HW121215   3.254   3.058   3.451 -0.6017 -0.1616  1.4429
 3627SOL    HW221216   3.408   3.050   3.399 -1.0611 -0.6978  0.1511
 3628SOL     OW21217   2.700   8.725   0.885  0.0705 -0.3001 -0.1521
 3628SOL    HW121218   2.664   8.818   0.897 -2.8891 -1.2364 -1.2087
 3628SOL    HW221219   2.711   8.683   0.975 -0.3077  0.4620  0.2620
 3629SOL     OW21220   1.750   3.188   1.000  0.3344  0.0662 -0.2825
 3629SOL    HW121221   1.814   3.224   0.932  0.2575 -1.3782 -1.1222
 3629SOL    HW221222   1.691   3.120   0.958 -0.4163 -0.0857  0.9841
 3630SOL     OW21223   1.983   0.691   2.351 -0.1747  0.9107 -0.4838
 3630SOL    HW121224   2.060   0.724   2.406  0.6727  0.2265 -1.2702
 3630SOL    HW221225   1.959   0.759   2.282  1.2199  0.1286 -1.7462
 3631SOL     OW21226   2.145   4.930   2.091 -0.1014 -0.5140 -0.1191
 3631SOL    HW121227   2.244   4.939   2.091 -0.2161  0.8284 -0.0107
 3631SOL    HW221228   2.117   4.862   2.159  0.6817 -0.2124  0.5107
 3632SOL     OW21229   0.381   9.380   3.578 -0.1826  0.2071 -0.4057
 3632SOL    HW121230   0.326   9.396   3.660 -0.9059 -0.9954 -0.6458
 3632SOL    HW221231   0.347   9.436   3.503  0.8802  1.7925  0.2743
 3633SOL     OW21232   8.275   2.745   3.550  0.0674  0.4951  0.2947
 3633SOL    HW121233   8.305   2.651   3.568 -0.1675  0.3445 -0.1047
 3633SOL    HW221234   8.353   2.807   3.560  0.4241  0.1544 -0.3245
 3634SOL     OW21235   3.542   9.505   3.228 -0.0523  0.2703  0.3266
 3634SOL    HW121236   3.462   9.523   3.171  0.1858  0.5733  0.0875
 3634SOL    HW221237   3.521   9.526   3.323  0.8852  3.9612 -0.1951
 3635SOL     OW21238   9.775   8.764   0.055  0.4035  0.4861 -0.2596
 3635SOL    HW121239   9.802   8.792   0.147 -0.0432  1.2446 -0.3511
 3635SOL    HW221240   9.675   8.762   0.050  0.4267 -0.8352 -0.3490
 3636SOL     OW21241   2.241   0.652   3.379 -0.9752 -0.5758 -0.2649
 3636SOL    HW121242   2.222   0.583   3.449  0.6300 -0.3494  0.4155
 3636SOL    HW221243   2.332   0.691   3.395 -1.3094  0.7066 -1.4663
 3637SOL     OW21244   1.778   6.329   3.672  0.5425 -0.0381 -0.3874
 3637SOL    HW121245   1.785   6.396   3.598  0.6083  0.5677  0.1669
 3637SOL    HW221246   1.862   6.275   3.676  0.4455 -0.2322 -0.9053
 3638SOL     OW21247   1.945   5.152   1.814 -0.2509  0.4184 -0.0491
 3638SOL    HW121248   1.935   5.148   1.913  2.3655  1.5870  0.3125
 3638SOL    HW221249   2.002   5.075   1.783  0.6739  1.2163 -0.3624
 3639SOL     OW21250   9.502   1.039   0.148 -0.3323  0.4029  0.0338
 3639SOL    HW121251   9.423   1.080   0.193 -1.3656  0.2046 -1.5378
 3639SOL    HW221252   9.549   1.109   0.093 -0.7557  0.0091 -0.8349
 3640SOL     OW21253   9.210   1.674   0.721 -0.4350  0.1524  0.7418
 3640SOL    HW121254   9.249   1.766   0.723 -0.9931  0.5498 -3.0729
 3640SOL    HW221255   9.124   1.675   0.670 -1.2026 -2.2582  1.8912
 3641SOL     OW21256   9.584   0.903   2.041 -0.3402 -0.0779  0.1212
 3641SOL    HW121257   9.662   0.869   2.094 -1.5347  0.3967  2.2345
 3641SOL    HW221258   9.559   0.835   1.971  2.3689  0.0620 -1.0502
 3642SOL     OW21259   8.381   0.531   2.403  0.4002 -0.2127  0.1976
 3642SOL    HW121260   8.399   0.434   2.387  0.4567  0.1518 -2.1232
 3642SOL    HW221261   8.467   0.579   2.419  0.4315 -0.4406  0.6979
 3643SOL     OW21262   8.052   1.640   3.170 -0.3401  0.4383 -0.0754
 3643SOL    HW121263   8.087   1.693   3.246  0.0644  0.1570 -0.0637
 3643SOL    HW221264   8.078   1.683   3.084  1.8060 -0.8523 -0.1117
 3644SOL     OW21265   0.254   8.272   2.409 -0.1154  0.2007 -0.3936
 3644SOL    HW121266   0.273   8.369   2.394 -0.5756  0.3233 -0.1737
 3644SOL    HW221267   0.160   8.260   2.440  0.1181 -0.2631  0.1509
 3645SOL     OW21268   9.874   0.202   3.779 -0.1773  0.8325 -0.7891
 3645SOL    HW121269   9.855   0.117   3.729  0.7649 -0.0067  0.2778
 3645SOL    HW221270   9.858   0.188   3.876 -0.3217  1.9808 -0.6366
 3646SOL     OW21271   7.805   2.200   2.771 -0.2946 -0.0324  0.1041
 3646SOL    HW121272   7.840   2.140   2.699 -0.9015  0.8293 -0.9261
 3646SOL    HW221273   7.834   2.166   2.861  0.8093 -0.8796 -0.5725
 3647SOL     OW21274   4.127   5.090   1.630 -0.3173 -0.4713 -0.5522
 3647SOL    HW121275   4.057   5.025   1.658  0.9225 -1.1291  1.1311
 3647SOL    HW221276   4.086   5.180   1.614 -1.3071 -0.3969  2.1705
 3648SOL     OW21277   2.595   2.822   0.824  0.2396  0.3681  0.1848
 3648SOL    HW121278   2.603   2.844   0.727  0.2197 -0.2256  0.0441
 3648SOL    HW221279   2.498   2.815   0.849  0.2378  1.0896  0.3803
 3649SOL     OW21280   0.654   1.689   3.140 -0.1970  0.3696 -0.7433
 3649SOL    HW121281   0.583   1.759   3.144  0.2942  0.8213  0.1918
 3649SOL    HW221282   0.673   1.656   3.232  0.1171 -0.4500 -1.0973
 3650SOL     OW21283   3.524   2.098   1.702 -0.1898  0.0122  0.5165
 3650SOL    HW121284   3.481   2.187   1.717  1.5857  1.0789 -0.6302
 3650SOL    HW221285   3.519   2.044   1.786 -1.2287  1.2012  1.2318
 3651SOL     OW21286   0.673   9.894   1.632  0.0888 -0.4004 -0.0823
 3651SOL    HW121287   0.723   9.904   1.718  0.1297 -0.2451 -0.1252
 3651SOL    HW221288   0.682   9.799   1.600 -0.3972 -0.6043  0.3756
 3652SOL     OW21289   8.500   9.969   2.721  0.0756 -0.4110  0.3285
 3652SOL    HW121290   8.498   9.999   2.816  1.2251 -0.5741  0.4145
 3652SOL    HW221291   8.579  10.011   2.675 -1.3307  0.8839 -0.9591
 3653SOL     OW21292   3.113   8.762   0.016 -0.7019  0.1340 -0.1869
 3653SOL    HW121293   3.079   8.851   0.044 -0.4767 -0.1415  0.9711
 3653SOL    HW221294   3.195   8.739   0.068 -1.1440 -1.0428  0.0093
 3654SOL     OW21295   1.224   7.920   2.695 -0.0699 -0.6063  0.1688
 3654SOL    HW121296   1.137   7.873   2.707 -0.5573 -0.0988 -1.2485
 3654SOL    HW221297   1.249   7.967   2.780 -1.1215 -0.8594  0.6251
 3655SOL     OW21298   3.970   9.755   0.031 -0.9016  0.5519 -0.0724
 3655SOL    HW121299   4.068   9.774   0.032 -0.5746 -1.0544  0.0221
 3655SOL    HW221300   3.921   9.834  -0.004  0.3468  1.7544  0.8424
 3656SOL     OW21301   0.615   2.223   0.589  0.0285  0.0465 -0.0474
 3656SOL    HW121302   0.554   2.247   0.665  0.3459 -0.6737  0.4348
 3656SOL    HW221303   0.570   2.156   0.530  0.9515 -1.6747  1.1737
 3657SOL     OW21304   7.338   1.301   0.082  0.1475 -0.0479 -0.5481
 3657SOL    HW121305   7.361   1.393   0.051 -1.1937 -0.1851 -1.9891
 3657SOL    HW221306   7.343   1.238   0.005 -0.2003 -0.9486  0.1631
 3658SOL     OW21307   9.083   7.187   1.024  0.5635  0.0531  0.0177
 3658SOL    HW121308   9.139   7.267   1.003 -1.5360  1.1585 -1.5877
 3658SOL    HW221309   9.058   7.140   0.939  1.8938 -2.4369  0.9474
 3659SOL     OW21310   0.190   3.427   0.583 -0.2380  0.0289  0.3642
 3659SOL    HW121311   0.101   3.468   0.606 -0.7849  0.3400 -2.1349
 3659SOL    HW221312   0.263   3.483   0.621 -1.0638  1.0524  0.4836
 3660SOL     OW21313   1.269   7.484   0.489  0.5020 -0.4255  0.2169
 3660SOL    HW121314   1.344   7.418   0.501  0.7821  0.0913  1.3740
 3660SOL    HW221315   1.295   7.572   0.529 -1.3126 -0.6747  2.0364
 3661SOL     OW21316   8.661   8.368   1.103  0.2757  0.0384  0.4569
 3661SOL    HW121317   8.580   8.365   1.044  1.9177  1.1466 -1.9144
 3661SOL    HW221318   8.632   8.368   1.199 -2.5508  1.0445 -0.3472
 3662SOL     OW21319   7.125   3.794   0.688  0.2133  0.1506 -0.4059
 3662SOL    HW121320   7.112   3.867   0.621 -1.0838  1.8216  1.5807
 3662SOL    HW221321   7.038   3.748   0.705  0.9046 -1.4908 -1.1980
 3663SOL     OW21322   1.371   7.184   0.556 -0.1873  0.0397  0.2952
 3663SOL    HW121323   1.387   7.127   0.475 -0.5273 -0.0646  0.3025
 3663SOL    HW221324   1.319   7.132   0.624 -0.6460  0.4172  0.2303
 3664SOL     OW21325   7.819   8.701   2.079 -0.1815 -0.0576 -0.1912
 3664SOL    HW121326   7.914   8.718   2.052  0.4422  1.4547  2.7288
 3664SOL    HW221327   7.758   8.758   2.025  0.5602 -0.9590 -2.0116
 3665SOL     OW21328   9.638   1.216   4.019 -1.0191  0.4392  0.7700
 3665SOL    HW121329   9.703   1.262   4.079  0.9481 -0.6778 -0.4440
 3665SOL    HW221330   9.686   1.147   3.965 -2.9921  0.4304 -1.0426
 3666SOL     OW21331   0.282   7.949   3.681 -0.1325  0.8260  0.7820
 3666SOL    HW121332   0.255   7.863   3.636  0.8231 -0.6292  2.9003
 3666SOL    HW221333   0.279   8.024   3.614 -1.1200 -0.8124 -1.0786
 3667SOL     OW21334   1.847   4.447   3.035  0.6977  0.3395  0.1765
 3667SOL    HW121335   1.856   4.545   3.052  0.5630  0.5923 -1.1781
 3667SOL    HW221336   1.872   4.427   2.940  1.4757 -1.0477  0.6705
 3668SOL     OW21337   3.265   1.105   1.228 -0.1921 -0.0195 -0.0012
 3668SOL    HW121338   3.314   1.184   1.191 -0.4913 -0.8788 -2.3072
 3668SOL    HW221339   3.291   1.023   1.178 -0.6481 -1.2297  1.7012
 3669SOL     OW21340   8.095   5.943   0.159  0.7191  0.6967 -0.6876
 3669SOL    HW121341   8.074   5.877   0.232  1.6239  1.2834  0.1124
 3669SOL    HW221342   8.016   5.951   0.099  0.0875 -0.0756  0.0120
 3670SOL     OW21343   0.485   7.811   0.827 -0.0209  0.1650  0.1404
 3670SOL    HW121344   0.541   7.893   0.816 -0.2731  0.3978  0.5731
 3670SOL    HW221345   0.534   7.745   0.884  1.0117 -0.7818 -1.7916
 3671SOL     OW21346   7.825   8.889   2.533 -0.2020  0.8432 -0.2911
 3671SOL    HW121347   7.762   8.918   2.605  0.0347  0.0840  0.2320
 3671SOL    HW221348   7.918   8.888   2.568  0.0827  1.8142 -1.0214
 3672SOL     OW21349   9.022   1.788   3.672  0.0520  0.2376 -0.2434
 3672SOL    HW121350   8.976   1.714   3.624  0.5173  0.6571 -1.3644
 3672SOL    HW221351   8.973   1.810   3.756 -0.2592 -1.1211 -0.0670
 3673SOL     OW21352   1.868   3.057   1.210  0.4465 -0.0050 -0.5378
 3673SOL    HW121353   1.809   2.981   1.238 -1.1226  1.0509 -0.9189
 3673SOL    HW221354   1.818   3.117   1.148  1.9064  0.9626 -0.8044
 3674SOL     OW21355   1.525   8.691   2.698 -0.1803  0.1185 -0.3590
 3674SOL    HW121356   1.431   8.672   2.726 -0.3486  0.6471 -0.5544
 3674SOL    HW221357   1.524   8.749   2.616  0.3174  0.2411 -0.2792
 3675SOL     OW21358   8.561   3.792   0.021  0.0675  0.5232  0.0654
 3675SOL    HW121359   8.492   3.747   0.079 -0.0646 -0.4448 -0.8092
 3675SOL    HW221360   8.615   3.722  -0.026  1.3275  1.2885  0.3647
 3676SOL     OW21361   0.208   1.121   0.445 -0.2052  0.2353 -0.2037
 3676SOL    HW121362   0.162   1.042   0.404  0.1036  0.4008 -0.8645
 3676SOL    HW221363   0.307   1.108   0.440 -0.1599  0.5001  0.0141
 3677SOL     OW21364   3.499   0.135   2.946  0.1120  0.0212  0.2871
 3677SOL    HW121365   3.574   0.068   2.944  1.2063  1.2258  0.5257
 3677SOL    HW221366   3.518   0.208   2.882 -0.8129  0.4010  0.4428
 3678SOL     OW21367   7.714   0.085   1.734  0.3532 -0.6989 -0.1701
 3678SOL    HW121368   7.764   0.098   1.820 -0.7362 -0.8253  0.4955
 3678SOL    HW221369   7.615   0.087   1.753  0.0923  0.6420 -1.6189
 3679SOL     OW21370   4.948   8.492   0.435  0.2070 -0.1375 -0.2802
 3679SOL    HW121371   4.854   8.522   0.451 -0.2659 -2.4390  1.5109
 3679SOL    HW221372   4.957   8.463   0.339 -0.6483  0.9375 -0.6985
 3680SOL     OW21373   4.696   0.107   2.593 -0.1947  0.3205  0.5067
 3680SOL    HW121374   4.673   0.167   2.516 -0.1490 -0.2060  0.0742
 3680SOL    HW221375   4.774   0.145   2.643  0.6064  0.0127 -0.4815
 3681SOL     OW21376   2.933   9.681   0.356  0.0180  0.1063  0.4139
 3681SOL    HW121377   3.025   9.675   0.394 -0.0453 -1.9572  0.3171
 3681SOL    HW221378   2.866   9.675   0.429 -0.0606 -0.6987  0.2810
 3682SOL     OW21379   0.001   9.409   1.612  0.6282 -0.2331 -0.9412
 3682SOL    HW121380   0.007   9.312   1.633  2.9950 -0.3355 -1.9472
 3682SOL    HW221381   0.036   9.462   1.690  0.2238 -0.2234 -0.7663
 3683SOL     OW21382   1.642   5.613   2.660 -0.2332  0.0031 -0.3636
 3683SOL    HW121383   1.702   5.533   2.652  1.1710  0.8755  1.0187
 3683SOL    HW221384   1.654   5.672   2.581 -0.1692 -0.4263 -0.6768
 3684SOL     OW21385   0.041   0.851   2.385  0.3904 -0.0390 -0.3856
 3684SOL    HW121386   0.050   0.856   2.285 -0.4481  0.6241 -0.4339
 3684SOL    HW221387  -0.047   0.890   2.412 -0.4117 -2.3479  0.4313
 3685SOL     OW21388   8.222   7.593   3.813 -0.1300 -0.1119  0.5407
 3685SOL    HW121389   8.151   7.587   3.884  0.5029  0.2700  1.2123
 3685SOL    HW221390   8.179   7.603   3.724 -0.9237  4.2739  1.3223
 3686SOL     OW21391   1.156   3.514   1.530 -0.5149 -0.0540  0.3228
 3686SOL    HW121392   1.205   3.589   1.486 -1.3921  0.4311  0.1534
 3686SOL    HW221393   1.209   3.430   1.523  0.1486  0.4030 -0.1154
 3687SOL     OW21394   7.476   9.152   2.242 -0.5970 -0.3762 -0.7333
 3687SOL    HW121395   7.507   9.153   2.337 -1.1156  0.6072 -0.5714
 3687SOL    HW221396   7.556   9.151   2.182 -0.2063  1.9131 -0.3125
 3688SOL     OW21397   7.585   9.387   1.062  0.2442  0.5328  0.1994
 3688SOL    HW121398   7.575   9.337   1.148 -4.0628  0.0872 -0.4264
 3688SOL    HW221399   7.575   9.485   1.079 -1.7440  0.3669  0.1215
 3689SOL     OW21400   3.312   3.469   2.407 -0.3179 -0.2888  0.0297
 3689SOL    HW121401   3.380   3.469   2.480 -1.1034  1.5627  0.8036
 3689SOL    HW221402   3.276   3.376   2.395  1.2267 -0.9809  0.6516
 3690SOL     OW21403   7.162   9.629   0.472  0.2554 -0.5963 -0.4674
 3690SOL    HW121404   7.177   9.616   0.374 -0.1026  1.1827 -0.7804
 3690SOL    HW221405   7.123   9.719   0.488 -0.7718 -1.3086  1.2222
 3691SOL     OW21406   8.458   1.161   2.205 -0.3071  0.7512 -0.8519
 3691SOL    HW121407   8.509   1.139   2.122  0.9587  2.6006 -0.5974
 3691SOL    HW221408   8.360   1.148   2.189  0.0388 -0.2680 -2.1763
 3692SOL     OW21409   2.585   0.224   3.523 -0.8836 -0.5243 -0.2534
 3692SOL    HW121410   2.629   0.221   3.434 -2.8846  0.3120 -1.3005
 3692SOL    HW221411   2.629   0.157   3.584  2.3120  0.8464 -0.9638
 3693SOL     OW21412   7.040   9.336   3.585 -0.8155  0.3594 -0.4180
 3693SOL    HW121413   7.023   9.329   3.487  1.1204  0.7900 -0.7969
 3693SOL    HW221414   7.016   9.427   3.617  1.2901  1.1646 -1.0708
 3694SOL     OW21415   2.807   3.698   3.060 -0.0687 -0.3228 -0.4046
 3694SOL    HW121416   2.759   3.666   3.141  0.4918  1.7218  0.7651
 3694SOL    HW221417   2.884   3.637   3.041  0.2178 -0.4204  1.0241
 3695SOL     OW21418   1.789   8.736   3.276 -0.5966 -0.0611  0.3008
 3695SOL    HW121419   1.761   8.699   3.365  3.4252  0.0450  1.6888
 3695SOL    HW221420   1.803   8.661   3.212 -0.9222 -0.3084  0.5152
 3696SOL     OW21421   1.586   5.763   1.847  0.3045  0.5084 -0.0217
 3696SOL    HW121422   1.660   5.701   1.820  1.3280  1.7087 -0.0816
 3696SOL    HW221423   1.505   5.711   1.871  1.0725 -0.8316 -0.2855
 3697SOL     OW21424   0.487   3.803   0.190  0.5036 -0.0654 -0.0387
 3697SOL    HW121425   0.521   3.856   0.268 -0.0103 -1.0260  0.8481
 3697SOL    HW221426   0.399   3.762   0.213 -0.2638  0.6717 -1.5821
 3698SOL     OW21427   2.612   0.328   2.924  0.7350  0.0580 -0.1947
 3698SOL    HW121428   2.572   0.363   2.838 -0.8463  0.6059  0.7445
 3698SOL    HW221429   2.682   0.391   2.955 -1.6976  2.1923  1.1724
 3699SOL     OW21430   0.996   9.233   0.323 -0.1969  0.1223  0.4611
 3699SOL    HW121431   0.997   9.177   0.241 -0.5703 -0.3736  0.7925
 3699SOL    HW221432   0.940   9.189   0.393 -2.8465  2.2846 -0.2182
 3700SOL     OW21433   3.654   7.893   3.937 -0.3715  0.4719  0.0094
 3700SOL    HW121434   3.607   7.969   3.893  0.8465  0.1898 -1.8694
 3700SOL    HW221435   3.590   7.816   3.949 -1.2084  1.2438  0.5087
 3701SOL     OW21436   7.484   9.630   2.453  0.5267  0.2594 -0.0535
 3701SOL    HW121437   7.398   9.589   2.482  0.1391  0.6907 -0.5851
 3701SOL    HW221438   7.466   9.702   2.386  1.4244 -0.8808 -1.5477
 3702SOL     OW21439   8.220   8.673   0.298 -0.5245  0.4546  0.3332
 3702SOL    HW121440   8.246   8.758   0.253  1.5554 -0.5361 -0.4339
 3702SOL    HW221441   8.222   8.685   0.397  2.6774  0.5435  0.3103
 3703SOL     OW21442   8.712   2.350   3.546 -0.2138 -0.0721  0.4256
 3703SOL    HW121443   8.798   2.381   3.586  0.1191  0.4901 -0.6990
 3703SOL    HW221444   8.660   2.429   3.513 -0.0346 -0.5712 -1.1135
 3704SOL     OW21445   0.819   9.866   3.454 -0.1471 -0.9329  0.2480
 3704SOL    HW121446   0.887   9.892   3.386 -1.6684 -1.7877 -1.6478
 3704SOL    HW221447   0.813   9.767   3.461 -0.9258 -0.8688  0.6735
 3705SOL     OW21448   1.228   4.264   1.264  0.5068 -0.5800 -0.3185
 3705SOL    HW121449   1.231   4.356   1.223  0.2739 -0.7037 -0.6160
 3705SOL    HW221450   1.204   4.197   1.193 -0.5043 -0.7197  0.1521
 3706SOL     OW21451   0.009   7.745   2.634 -0.2399 -0.2622 -0.5103
 3706SOL    HW121452  -0.003   7.668   2.571  0.5873  1.7366 -3.2342
 3706SOL    HW221453   0.079   7.721   2.702  1.2826 -1.3215 -2.3845
 3707SOL     OW21454   3.191   3.055   0.740 -0.1596 -0.1504  0.0391
 3707SOL    HW121455   3.288   3.055   0.766 -0.0167  0.6572 -0.5048
 3707SOL    HW221456   3.139   3.000   0.807  0.5279  0.1679  0.8436
 3708SOL     OW21457   9.280   8.737   2.456  0.1543 -0.1126 -0.1541
 3708SOL    HW121458   9.183   8.760   2.456  0.3151  0.5801 -0.4093
 3708SOL    HW221459   9.334   8.820   2.440  0.7194 -0.7384 -1.6088
 3709SOL     OW21460   2.183   4.318   3.753  0.1577 -0.2745  0.4101
 3709SOL    HW121461   2.175   4.404   3.805 -0.2516 -0.5026  0.7322
 3709SOL    HW221462   2.123   4.323   3.673  1.1723  0.2765 -0.3244
 3710SOL     OW21463   6.794   9.283   2.390  0.4527  0.2182 -0.4870
 3710SOL    HW121464   6.756   9.302   2.300 -0.4517 -1.7162 -0.5503
 3710SOL    HW221465   6.720   9.274   2.456  1.0970  1.3661  0.4038
 3711SOL     OW21466   4.427   0.752   1.379  0.0316 -0.5714  0.4376
 3711SOL    HW121467   4.373   0.669   1.396  1.3282 -1.9932 -2.1796
 3711SOL    HW221468   4.401   0.791   1.290  0.0239  1.4032  1.2698
 3712SOL     OW21469   2.367   8.604   2.077  0.0409 -0.2741  0.2217
 3712SOL    HW121470   2.435   8.631   2.146  0.7267 -0.1896 -0.4886
 3712SOL    HW221471   2.401   8.626   1.986 -0.5536 -1.0804 -0.1971
 3713SOL     OW21472   3.115   3.500   3.292 -0.4684 -0.3400 -0.1255
 3713SOL    HW121473   3.158   3.476   3.205  0.4671 -2.3642  0.8462
 3713SOL    HW221474   3.037   3.440   3.308 -0.1882 -0.4828  0.7609
 3714SOL     OW21475   8.005   6.369   0.505  0.4996 -0.0616 -0.7075
 3714SOL    HW121476   8.072   6.295   0.495  1.4450  0.7119 -0.1057
 3714SOL    HW221477   7.989   6.387   0.602  0.3076  0.5579 -0.8524
 3715SOL     OW21478   1.317   1.664   2.605 -0.1187  0.4481 -0.4811
 3715SOL    HW121479   1.296   1.609   2.525  0.9669 -0.4864 -0.1406
 3715SOL    HW221480   1.336   1.758   2.577 -1.1637  0.4701 -1.1516
 3716SOL     OW21481   4.166   3.125   3.973  0.0087  0.3211 -0.0251
 3716SOL    HW121482   4.238   3.147   3.907 -1.0156  0.9141 -0.9886
 3716SOL    HW221483   4.114   3.208   3.994 -0.0228  0.0207  1.1162
 3717SOL     OW21484   9.328   9.902   2.635 -0.0155  0.0986  0.2551
 3717SOL    HW121485   9.395   9.972   2.658  0.5579 -0.0890 -0.7948
 3717SOL    HW221486   9.266   9.937   2.565  2.2908 -1.4803 -2.7226
 3718SOL     OW21487   8.937   8.809   0.328  0.0867 -0.3709  0.5688
 3718SOL    HW121488   8.850   8.828   0.373  0.1893  1.0415  0.1801
 3718SOL    HW221489   8.991   8.748   0.385 -1.5436 -2.0525  0.3888
 3719SOL     OW21490   9.970   0.227   1.391 -0.3020 -0.3288  0.3056
 3719SOL    HW121491   9.901   0.281   1.440  1.2411  0.0078  2.1618
 3719SOL    HW221492   9.930   0.190   1.307 -1.7645  2.6105 -0.3452
 3720SOL     OW21493   8.248   2.956   2.923 -0.2074  0.2811  0.4868
 3720SOL    HW121494   8.289   3.037   2.881  2.0131 -0.9749  0.1348
 3720SOL    HW221495   8.263   2.958   3.022 -0.0623  0.2573  0.4658
 3721SOL     OW21496   1.218   9.473   1.598 -0.1572  0.6489 -0.0369
 3721SOL    HW121497   1.243   9.437   1.688 -0.5865  2.1264  0.6957
 3721SOL    HW221498   1.194   9.397   1.537  1.1155 -0.4326  0.7825
 3722SOL     OW21499   1.427   7.402   2.889  0.2131  0.2235 -0.1433
 3722SOL    HW121500   1.352   7.436   2.946 -1.7244  1.1739 -3.1352
 3722SOL    HW221501   1.496   7.473   2.880  0.1992  0.3176  0.4565
 3723SOL     OW21502   8.564   3.346   2.411 -0.0826 -0.3148  0.5721
 3723SOL    HW121503   8.470   3.312   2.406  0.1637 -0.8216 -0.8482
 3723SOL    HW221504   8.604   3.323   2.500 -1.3476  0.0556  1.2503
 3724SOL     OW21505   2.956   9.702   2.939 -0.1095  0.4425  0.5483
 3724SOL    HW121506   3.051   9.721   2.965 -0.1241  4.1328 -1.7231
 3724SOL    HW221507   2.895   9.759   2.993 -0.8377  0.3159 -0.1362
 3725SOL     OW21508   4.418   2.808   0.070 -0.4563 -0.3533  0.0424
 3725SOL    HW121509   4.487   2.774   0.133  2.1467  0.7831 -2.0593
 3725SOL    HW221510   4.451   2.892   0.027 -2.9649 -0.0344 -1.3622
 3726SOL     OW21511   0.674   0.725   1.776  0.1846 -0.5065 -0.3803
 3726SOL    HW121512   0.700   0.672   1.694 -1.2412  2.1588 -2.6211
 3726SOL    HW221513   0.579   0.705   1.800  0.8422 -1.9080  1.1899
 3727SOL     OW21514   9.790   8.545   3.797 -0.3221  0.1381  0.4973
 3727SOL    HW121515   9.805   8.641   3.819  2.1716 -0.0610 -0.1549
 3727SOL    HW221516   9.831   8.488   3.868 -2.2414 -0.4578  1.1482
 3728SOL     OW21517   1.440   0.604   1.475  0.0958  0.5423 -0.2703
 3728SOL    HW121518   1.528   0.650   1.468  0.0059  0.8950  0.7698
 3728SOL    HW221519   1.374   0.666   1.519 -0.4865  0.0306 -0.4141
 3729SOL     OW21520   3.736   0.860   1.694  0.4935 -0.2422 -0.0451
 3729SOL    HW121521   3.713   0.923   1.620 -0.0257 -0.6011 -0.1953
 3729SOL    HW221522   3.776   0.777   1.656  1.0985 -0.0411  0.1461
 3730SOL     OW21523   7.569   8.669   2.262 -0.4834  0.4704 -0.1801
 3730SOL    HW121524   7.622   8.668   2.347 -0.7706  1.2300  0.0116
 3730SOL    HW221525   7.631   8.653   2.185 -0.5443 -2.4120  0.3174
 3731SOL     OW21526   9.821   0.512   2.910 -0.1085 -0.0970  0.0289
 3731SOL    HW121527   9.918   0.490   2.913 -0.0381  0.2746  0.6378
 3731SOL    HW221528   9.770   0.442   2.960 -0.4947 -2.0265 -2.9469
 3732SOL     OW21529   2.232   3.305   1.292 -0.0196  0.4144 -0.4996
 3732SOL    HW121530   2.248   3.401   1.317  1.3550 -0.0528  0.4429
 3732SOL    HW221531   2.168   3.264   1.357 -0.9458  0.7895 -1.1518
 3733SOL     OW21532   1.820   0.229   1.622 -0.6082 -0.2495  0.6460
 3733SOL    HW121533   1.891   0.162   1.641 -0.6006 -0.3910  0.1115
 3733SOL    HW221534   1.814   0.294   1.698  0.2916 -0.0614  0.5555
 3734SOL     OW21535   1.569   6.186   1.362 -0.2438  0.3968 -0.5023
 3734SOL    HW121536   1.642   6.121   1.380 -0.5421  0.4365  0.9335
 3734SOL    HW221537   1.601   6.256   1.298  1.1764  0.7379  0.5454
 3735SOL     OW21538   2.224   7.752   2.058 -0.0070  0.0912 -0.3694
 3735SOL    HW121539   2.239   7.785   1.965 -3.8019  1.0163 -0.7423
 3735SOL    HW221540   2.189   7.659   2.056 -2.1368  0.8399 -0.0673
 3736SOL     OW21541   3.154   4.246   1.727  0.2977 -0.8178 -0.4614
 3736SOL    HW121542   3.121   4.331   1.769  1.5722 -1.1471  1.2064
 3736SOL    HW221543   3.117   4.240   1.634  2.3041  2.8970 -1.6383
 3737SOL     OW21544   0.652   2.589   1.372 -0.3489 -0.5048  0.1343
 3737SOL    HW121545   0.663   2.544   1.283 -0.1324 -2.0629  0.9427
 3737SOL    HW221546   0.558   2.623   1.380 -0.0576  0.6857 -1.1522
 3738SOL     OW21547   1.024   4.140   0.492 -0.4983  0.1724 -0.0488
 3738SOL    HW121548   1.030   4.110   0.397 -0.5379 -1.0657  0.3373
 3738SOL    HW221549   1.097   4.097   0.546 -0.7199  0.5576  0.5635
 3739SOL     OW21550   3.163   1.904   0.875 -0.4000 -0.2143 -0.3415
 3739SOL    HW121551   3.200   1.940   0.960 -0.3062 -1.9612  0.3714
 3739SOL    HW221552   3.153   1.978   0.809 -4.0521  1.8805  2.4204
 3740SOL     OW21553   2.397   4.787   2.418  0.0933  0.0256 -0.1114
 3740SOL    HW121554   2.414   4.830   2.330  1.0188 -0.5553 -0.2247
 3740SOL    HW221555   2.483   4.757   2.458 -0.4448 -0.9673  0.3462
 3741SOL     OW21556   9.652   2.759   0.911 -0.0798 -0.1278  0.1525
 3741SOL    HW121557   9.619   2.665   0.909 -0.3850 -0.0242 -3.0910
 3741SOL    HW221558   9.741   2.762   0.957  0.3218 -2.1426 -0.4264
 3742SOL     OW21559   4.067   2.667   1.191 -0.0663  0.0748  0.4154
 3742SOL    HW121560   4.032   2.729   1.261  0.1772  0.0877  0.5263
 3742SOL    HW221561   4.079   2.717   1.105 -0.5520  0.0125  0.3117
 3743SOL     OW21562   9.812   7.781   0.135 -0.2246  0.0493  0.1273
 3743SOL    HW121563   9.824   7.875   0.105  2.9593  0.6572  2.9852
 3743SOL    HW221564   9.866   7.720   0.077 -0.2159  0.3136 -0.1420
 3744SOL     OW21565   2.501   7.471   0.715  0.1053  0.2775  0.0758
 3744SOL    HW121566   2.475   7.378   0.740 -1.1471  0.8134  0.7833
 3744SOL    HW221567   2.429   7.513   0.661  0.8315  0.7132 -0.5672
 3745SOL     OW21568   9.454   0.543   1.479 -0.0421 -0.3034  0.5382
 3745SOL    HW121569   9.517   0.575   1.409 -0.5851  1.8638  0.9878
 3745SOL    HW221570   9.372   0.601   1.480 -1.4541 -2.2359  0.8667
 3746SOL     OW21571   4.046   9.290   0.259  0.2221 -0.1789  0.4135
 3746SOL    HW121572   4.072   9.201   0.297 -2.5121 -1.1858  0.0600
 3746SOL    HW221573   4.067   9.362   0.324  1.9373 -1.1449  0.9501
 3747SOL     OW21574   4.779   8.175   1.158  0.1519 -0.3153 -0.4745
 3747SOL    HW121575   4.836   8.197   1.079  1.3461  0.7334  0.6669
 3747SOL    HW221576   4.697   8.232   1.157 -0.0839 -0.6562 -1.2130
 3748SOL     OW21577   9.768   2.887   1.227  0.0735  0.4971 -0.8605
 3748SOL    HW121578   9.794   2.807   1.173 -3.1323 -0.5424 -0.9852
 3748SOL    HW221579   9.782   2.867   1.324  1.0939  0.5032 -1.0013
 3749SOL     OW21580   1.280   7.500   1.631  0.4617 -0.4393  0.1363
 3749SOL    HW121581   1.207   7.441   1.667  0.9902 -1.7936 -0.9687
 3749SOL    HW221582   1.366   7.479   1.679  0.1554  1.0781  1.3633
 3750SOL     OW21583   0.356   0.802   1.253 -0.1580  0.8294  0.7221
 3750SOL    HW121584   0.411   0.880   1.281 -0.1803  2.2947 -3.0143
 3750SOL    HW221585   0.390   0.766   1.166 -1.2451 -2.2526  1.4857
 3751SOL     OW21586   1.946   5.493   1.075 -0.6175 -0.3078  0.2356
 3751SOL    HW121587   1.937   5.478   1.174 -0.1387  0.8402  0.4707
 3751SOL    HW221588   1.972   5.588   1.059  0.5243 -0.7981 -0.9288
 3752SOL     OW21589   3.045   7.213   1.555  0.5577 -0.3085 -0.0073
 3752SOL    HW121590   3.145   7.208   1.558  0.5111  0.1025  3.2323
 3752SOL    HW221591   3.016   7.309   1.555  0.1182 -0.4424  0.3675
 3753SOL     OW21592   3.182   4.612   1.201 -0.3704  0.1766  0.1571
 3753SOL    HW121593   3.095   4.628   1.247  0.0019  0.1460  0.8696
 3753SOL    HW221594   3.175   4.529   1.146 -1.2808  1.0037 -1.0184
 3754SOL     OW21595   7.093   2.801   0.375  0.1640 -0.0223  0.6375
 3754SOL    HW121596   7.189   2.774   0.377  0.3556  0.6697  0.8053
 3754SOL    HW221597   7.076   2.858   0.295 -0.1981 -0.4846  0.3844
 3755SOL     OW21598   3.783   4.140   0.198  0.6649 -0.0991 -0.4350
 3755SOL    HW121599   3.721   4.149   0.120 -0.0783 -1.1789  0.0190
 3755SOL    HW221600   3.731   4.148   0.283  1.0743 -1.3999 -0.0442
 3756SOL     OW21601   7.953   2.863   0.273  0.1859  0.3627  0.8198
 3756SOL    HW121602   7.958   2.798   0.197 -0.4263  1.5294 -0.2360
 3756SOL    HW221603   8.044   2.878   0.310  0.5834  0.2883 -0.1179
 3757SOL     OW21604   2.719   5.082   3.219  0.1290  0.3299  0.2697
 3757SOL    HW121605   2.716   5.015   3.145 -0.5635 -0.2717  0.8339
 3757SOL    HW221606   2.649   5.152   3.203  1.5922  1.5788 -0.9130
 3758SOL     OW21607   2.708   2.329   3.561  0.3628  0.0190 -0.2718
 3758SOL    HW121608   2.614   2.302   3.583 -0.0984  1.3906 -0.4713
 3758SOL    HW221609   2.739   2.398   3.626  0.6530  0.7255 -1.1455
 3759SOL     OW21610   9.014   9.437   0.966  0.0665  0.0514  0.0346
 3759SOL    HW121611   9.041   9.533   0.973 -2.3309  0.6073  2.6689
 3759SOL    HW221612   9.073   9.381   1.024 -0.2621  0.3471  0.6642
 3760SOL     OW21613   2.136   5.573   2.961  0.0491 -0.4809 -0.2214
 3760SOL    HW121614   2.223   5.555   3.008  0.0193  0.9905  0.4083
 3760SOL    HW221615   2.135   5.524   2.874  1.0560 -1.3903  0.2676
 3761SOL     OW21616   7.207   9.021   1.682 -0.6234 -0.4907 -0.6612
 3761SOL    HW121617   7.264   8.945   1.649 -0.5242  0.8792 -3.8909
 3761SOL    HW221618   7.125   9.028   1.625  0.0022  2.5969 -1.3014
 3762SOL     OW21619   4.131   9.593   1.778  0.5978 -0.4665  0.1594
 3762SOL    HW121620   4.186   9.670   1.746  1.3833 -1.8824 -2.0223
 3762SOL    HW221621   4.115   9.601   1.876 -0.0734  2.9247 -0.1593
 3763SOL     OW21622   4.702   2.626   2.834 -0.2588 -0.0345 -0.0619
 3763SOL    HW121623   4.632   2.649   2.901  1.0029 -0.4828  1.4230
 3763SOL    HW221624   4.668   2.649   2.742 -1.8328  0.9612  0.7367
 3764SOL     OW21625   0.038   0.499   1.801 -0.3326 -0.1899  0.5772
 3764SOL    HW121626   0.051   0.594   1.775  0.0811 -0.2074  0.7143
 3764SOL    HW221627   0.115   0.469   1.858  0.0296 -0.8952 -0.2784
 3765SOL     OW21628   8.023   6.080   0.613  0.4287 -0.1833 -0.0003
 3765SOL    HW121629   7.998   6.159   0.670  0.5200 -2.1672  2.9083
 3765SOL    HW221630   8.122   6.069   0.614  0.5722  0.7025 -1.9091
 3766SOL     OW21631   0.131   3.212   1.170 -0.4145  0.1347  0.6641
 3766SOL    HW121632   0.035   3.190   1.184 -0.9472  2.2860  0.5819
 3766SOL    HW221633   0.145   3.244   1.077  0.3084  0.2203  0.8000
 3767SOL     OW21634   0.902   3.051   1.913  0.2783 -0.1380  0.1733
 3767SOL    HW121635   0.915   2.994   1.832 -3.3072 -1.6542  0.5691
 3767SOL    HW221636   0.939   3.004   1.993  1.4218  0.1756 -0.1565
 3768SOL     OW21637   7.980   2.056   1.051 -0.1879 -0.3318 -0.5129
 3768SOL    HW121638   7.950   2.060   0.955 -0.0723 -1.4578 -0.6002
 3768SOL    HW221639   8.048   2.128   1.067 -1.8713  1.3481 -0.6790
 3769SOL     OW21640   0.090   8.077   2.870 -0.2434 -0.5826 -0.6843
 3769SOL    HW121641   0.082   8.148   2.940 -1.0573 -0.7376 -0.6095
 3769SOL    HW221642  -0.000   8.037   2.853  0.1447 -1.3437 -0.9946
 3770SOL     OW21643   1.390   8.813   3.356 -0.5231  0.2250  1.1618
 3770SOL    HW121644   1.313   8.760   3.320 -0.1148 -0.0661  0.7033
 3770SOL    HW221645   1.441   8.758   3.422 -1.5843  0.9472  2.6004
 3771SOL     OW21646   1.240   1.050   1.350 -0.1834 -0.2585  0.5412
 3771SOL    HW121647   1.174   0.975   1.341 -1.7411  1.1330  0.2543
 3771SOL    HW221648   1.328   1.013   1.382 -1.2126 -2.0736  1.3334
 3772SOL     OW21649   6.936   9.712   2.213 -0.6263 -0.1129 -0.0680
 3772SOL    HW121650   6.837   9.711   2.223 -0.6174 -0.1596  0.0196
 3772SOL    HW221651   6.963   9.646   2.142 -0.9513  2.7030 -2.8789
 3773SOL     OW21652   9.529   9.900   0.579 -0.0683  0.2184  0.3924
 3773SOL    HW121653   9.586   9.982   0.573  1.3681 -0.8205 -0.1735
 3773SOL    HW221654   9.511   9.879   0.675  0.9321  0.2420  0.5855
 3774SOL     OW21655   8.810   2.997   0.911 -0.3769 -0.4849 -0.8201
 3774SOL    HW121656   8.737   3.016   0.845 -2.7038 -0.4720  1.6612
 3774SOL    HW221657   8.828   2.899   0.912 -1.0333 -0.6091 -0.7677
 3775SOL     OW21658   2.637   8.837   0.644  0.4759 -0.3871 -0.0831
 3775SOL    HW121659   2.709   8.853   0.577  0.1441  0.3021 -0.2810
 3775SOL    HW221660   2.664   8.763   0.705  0.6683 -1.2091 -1.1411
 3776SOL     OW21661   1.936   2.664   3.084 -1.0674  0.1377 -1.1007
 3776SOL    HW121662   1.897   2.747   3.043 -0.4763  0.2815 -1.3817
 3776SOL    HW221663   1.952   2.596   3.012 -0.4125  0.2378 -1.0602
 3777SOL     OW21664   0.890   2.185   0.164 -0.0858  0.5976 -0.4562
 3777SOL    HW121665   0.863   2.280   0.149 -0.8152  0.5168  0.3044
 3777SOL    HW221666   0.871   2.159   0.259 -0.6467 -0.5512 -0.8732
 3778SOL     OW21667   2.765   0.202   3.895 -0.3301  0.2386  0.0910
 3778SOL    HW121668   2.848   0.166   3.937 -0.6011 -0.2428  0.2229
 3778SOL    HW221669   2.771   0.193   3.796  0.2022  1.1391  0.0329
 3779SOL     OW21670   8.955   7.448   0.445  0.1255  0.1905  0.1213
 3779SOL    HW121671   9.016   7.486   0.515 -0.9984 -0.3257  1.4236
 3779SOL    HW221672   8.863   7.439   0.483  0.0611 -2.5482 -0.5625
 3780SOL     OW21673   4.485   0.722   3.258  0.1731  0.8569  0.2500
 3780SOL    HW121674   4.411   0.688   3.317 -1.1504  3.0949 -0.0323
 3780SOL    HW221675   4.570   0.675   3.280 -0.6529  0.4871  2.8059
 3781SOL     OW21676   3.037   8.169   2.061 -0.3070 -0.2594  0.3147
 3781SOL    HW121677   3.106   8.100   2.081  1.1215  0.3095 -2.3247
 3781SOL    HW221678   3.081   8.251   2.025 -2.2569  0.6618 -0.0704
 3782SOL     OW21679   0.790   2.839   0.095 -0.0234 -0.0683  0.3410
 3782SOL    HW121680   0.835   2.839   0.184  0.6330  1.2532  0.0184
 3782SOL    HW221681   0.708   2.781   0.099  0.0680 -0.1136  1.7631
 3783SOL     OW21682   3.530   1.068   1.994  0.3103 -0.0315 -0.3137
 3783SOL    HW121683   3.461   1.102   2.059 -0.2632  0.3356 -1.1031
 3783SOL    HW221684   3.512   1.106   1.903  1.9118  0.5284 -0.4112
 3784SOL     OW21685   2.284   0.022   3.203  0.6911 -0.0506 -0.3553
 3784SOL    HW121686   2.351  -0.052   3.212  0.1717 -0.4935 -0.0730
 3784SOL    HW221687   2.236   0.035   3.291  1.0782  0.9126 -0.2778
 3785SOL     OW21688   9.648   7.907   0.806 -0.3291 -0.2017  0.4756
 3785SOL    HW121689   9.641   7.954   0.718  1.1326 -0.2839  0.3007
 3785SOL    HW221690   9.645   7.808   0.791  1.6243 -0.2494  0.3397
 3786SOL     OW21691   2.696   2.681   2.886 -0.1816  0.5285  0.1705
 3786SOL    HW121692   2.646   2.751   2.937  0.1953 -0.1963  1.5482
 3786SOL    HW221693   2.633   2.630   2.827 -0.5523  1.6305 -0.4083
 3787SOL     OW21694   9.350   3.281   0.331 -0.5761  0.1531 -0.0365
 3787SOL    HW121695   9.305   3.338   0.400 -0.0925  1.0870 -0.4837
 3787SOL    HW221696   9.406   3.212   0.376  0.8438  1.6334  0.5371
 3788SOL     OW21697   1.850   6.430   3.025  0.0791  0.7172  0.3366
 3788SOL    HW121698   1.753   6.443   3.045  0.0507 -0.2155  0.8208
 3788SOL    HW221699   1.865   6.337   2.991  0.9536  0.5353  1.1985
 3789SOL     OW21700   1.043   1.658   0.960  0.0436 -0.0546  0.7197
 3789SOL    HW121701   1.073   1.585   1.021  1.7645  1.0833  1.2508
 3789SOL    HW221702   1.084   1.645   0.870 -0.8472 -0.5630  0.3746
 3790SOL     OW21703   7.736   1.654   1.634  0.0285 -0.2157  0.7755
 3790SOL    HW121704   7.785   1.567   1.622 -0.4096 -0.3093 -0.3866
 3790SOL    HW221705   7.655   1.654   1.576  1.2417  1.8985 -0.9695
 3791SOL     OW21706   4.023   9.346   1.667 -0.7222  0.0753 -0.1032
 3791SOL    HW121707   4.079   9.426   1.686  1.7871 -1.3726 -1.1105
 3791SOL    HW221708   4.008   9.294   1.751  4.1862 -2.4271 -0.5698
 3792SOL     OW21709   7.731   4.640   0.858  0.2341 -0.1505 -0.1187
 3792SOL    HW121710   7.744   4.739   0.852  2.0801 -0.3106  0.9037
 3792SOL    HW221711   7.764   4.597   0.774 -0.3461  0.0672 -0.4634
 3793SOL     OW21712   3.842   4.897   1.290 -0.1497  0.3749  0.1064
 3793SOL    HW121713   3.921   4.836   1.286 -0.5512 -0.0795 -1.0709
 3793SOL    HW221714   3.782   4.880   1.212 -0.9401  1.3648  0.4785
 3794SOL     OW21715   8.727   2.881   1.989 -0.1994 -0.7165  0.3812
 3794SOL    HW121716   8.761   2.976   1.994 -0.1846 -0.7744  1.5816
 3794SOL    HW221717   8.628   2.882   1.973 -0.1108 -0.5055 -0.1712
 3795SOL     OW21718   4.735   9.052   2.483  0.6681  0.1529 -0.2510
 3795SOL    HW121719   4.701   9.145   2.497 -1.9010 -0.8448  0.4181
 3795SOL    HW221720   4.769   9.016   2.570  2.1346  0.6407 -0.6180
 3796SOL     OW21721   3.504   8.921   0.667 -0.0562  0.0694  0.0387
 3796SOL    HW121722   3.599   8.892   0.653  0.4180  0.5054  2.1926
 3796SOL    HW221723   3.499   9.021   0.662 -0.2881  0.0831  0.5515
 3797SOL     OW21724   7.961   6.750   0.633 -0.3961  0.0600  0.2324
 3797SOL    HW121725   8.057   6.777   0.621 -1.0471  1.7996 -1.4107
 3797SOL    HW221726   7.920   6.735   0.543 -1.0896 -2.9345  0.9961
 3798SOL     OW21727   3.552   7.104   1.333 -0.8553  0.3872  0.3089
 3798SOL    HW121728   3.473   7.139   1.383 -0.0745  1.5607  0.7262
 3798SOL    HW221729   3.606   7.045   1.392 -0.5413  0.8749  0.5063
 3799SOL     OW21730   2.103   2.164   1.126 -0.8252 -0.6153 -0.3272
 3799SOL    HW121731   2.194   2.199   1.106 -0.9581 -0.2745 -0.3453
 3799SOL    HW221732   2.052   2.154   1.040 -1.7127  1.7185 -0.1147
 3800SOL     OW21733   3.594   6.102   3.052 -0.6889 -0.0948 -0.1771
 3800SOL    HW121734   3.592   6.055   3.140 -2.3444 -1.2842 -0.8198
 3800SOL    HW221735   3.564   6.197   3.064 -0.9140 -0.2522  0.5224
 3801SOL     OW21736   0.289   7.180   1.167  0.7070 -0.0984 -0.2073
 3801SOL    HW121737   0.237   7.094   1.168  0.6145 -0.0535 -1.2094
 3801SOL    HW221738   0.332   7.192   1.078 -1.5427  2.2695 -1.0560
 3802SOL     OW21739   8.170   6.564   0.389  0.0091  0.8740 -0.0663
 3802SOL    HW121740   8.197   6.627   0.462  1.6976  0.3330 -0.1953
 3802SOL    HW221741   8.085   6.517   0.415  0.7647  0.4361  1.7285
 3803SOL     OW21742   7.441   0.376   1.686 -0.1973  0.5440 -0.1677
 3803SOL    HW121743   7.384   0.372   1.603 -1.6648  1.8160  0.7633
 3803SOL    HW221744   7.513   0.307   1.680 -1.1099 -0.2824 -1.9076
 3804SOL     OW21745   8.830   2.057   1.745  0.4192  0.2794  0.0675
 3804SOL    HW121746   8.909   2.114   1.769  0.8691 -0.0369 -0.6398
 3804SOL    HW221747   8.756   2.073   1.811  1.1288  0.4537  0.8395
 3805SOL     OW21748   0.007   2.601   3.380 -0.1094 -0.0057 -0.3348
 3805SOL    HW121749   0.048   2.648   3.301 -2.4834 -0.0404 -1.6321
 3805SOL    HW221750  -0.073   2.653   3.412 -0.1042 -0.8236  1.0545
 3806SOL     OW21751   1.990   5.357   3.049  0.2434  0.7877  0.0556
 3806SOL    HW121752   1.923   5.371   3.122  1.7870  0.0422  1.6497
 3806SOL    HW221753   2.025   5.446   3.018 -1.7249  1.2020 -1.0651
 3807SOL     OW21754   8.066   5.594   1.215 -0.3024  0.3163  0.5218
 3807SOL    HW121755   8.028   5.676   1.173 -0.4711 -0.4231 -0.7871
 3807SOL    HW221756   8.089   5.614   1.310 -0.6671  1.7788  0.3258
 3808SOL     OW21757   7.663   1.479   2.018  0.6412 -0.3346 -0.3610
 3808SOL    HW121758   7.597   1.541   1.976  2.1490  0.6008 -1.3742
 3808SOL    HW221759   7.625   1.386   2.020 -1.1418  0.3758  0.0738
 3809SOL     OW21760   2.675   0.680   1.166 -0.0353  0.1735 -0.3079
 3809SOL    HW121761   2.739   0.668   1.090  0.8903 -1.1221  0.6477
 3809SOL    HW221762   2.715   0.641   1.249 -0.9844  1.6883  0.8813
 3810SOL     OW21763   9.780   3.751   0.730 -0.2063 -0.6440  1.0602
 3810SOL    HW121764   9.686   3.718   0.744 -0.8193  0.8858  0.7068
 3810SOL    HW221765   9.781   3.850   0.740  1.1837 -0.5434 -0.0720
 3811SOL     OW21766   9.962   1.451   2.242 -0.4569  0.2234 -0.0055
 3811SOL    HW121767   9.879   1.493   2.207  0.1518  1.2562 -0.2383
 3811SOL    HW221768   9.957   1.351   2.230 -1.7595  0.2614  0.2428
 3812SOL     OW21769   0.792   2.313   3.747  0.7865 -0.7029  0.2252
 3812SOL    HW121770   0.882   2.310   3.791  0.6713  1.4214  0.6988
 3812SOL    HW221771   0.799   2.366   3.662  0.0419 -0.8016  0.1029
 3813SOL     OW21772   1.722   8.958   1.335 -0.5498  0.1899  0.0119
 3813SOL    HW121773   1.754   9.046   1.372  1.0190 -0.0252 -0.7842
 3813SOL    HW221774   1.743   8.954   1.237 -0.4131 -1.1660  0.0893
 3814SOL     OW21775   1.599   6.689   3.226 -0.2310  0.0183  0.0798
 3814SOL    HW121776   1.588   6.603   3.176  0.5027  0.9024 -1.6226
 3814SOL    HW221777   1.594   6.766   3.162 -1.7642  1.3121  1.6957
 3815SOL     OW21778   4.735   3.128   0.882  0.4209  0.0111 -0.3018
 3815SOL    HW121779   4.754   3.079   0.967  2.3869  1.2981  0.0321
 3815SOL    HW221780   4.636   3.138   0.871  0.0555 -2.4497  0.5005
 3816SOL     OW21781   3.362   9.495   3.720 -0.3366  0.3695 -0.1144
 3816SOL    HW121782   3.306   9.463   3.643  0.4688 -0.9116 -0.1715
 3816SOL    HW221783   3.310   9.564   3.772 -1.9342 -0.7039 -0.2375
 3817SOL     OW21784   4.083   7.849   0.266  0.3856  0.7981  0.4668
 3817SOL    HW121785   4.067   7.902   0.349  0.7716  1.0495  0.3826
 3817SOL    HW221786   3.997   7.836   0.217 -0.0288 -0.2391  1.4387
 3818SOL     OW21787   0.113   2.337   1.061  0.0223  0.0891  0.0244
 3818SOL    HW121788   0.208   2.316   1.037  0.1323 -1.2056  1.5282
 3818SOL    HW221789   0.053   2.312   0.984  0.6825 -1.0706 -0.1216
 3819SOL     OW21790   3.817   2.978   0.391 -0.5591  0.1022 -0.4526
 3819SOL    HW121791   3.811   3.078   0.379  1.2025  0.0860 -1.7084
 3819SOL    HW221792   3.857   2.958   0.480 -1.5616  0.4908  0.0972
 3820SOL     OW21793   9.353   1.694   2.131  0.4622 -0.5016  0.3656
 3820SOL    HW121794   9.389   1.679   2.039  1.2046 -1.6022  0.8220
 3820SOL    HW221795   9.253   1.691   2.128  0.4587  0.3938 -0.5534
 3821SOL     OW21796   7.624   9.882   3.011  0.5067  0.2393  0.4615
 3821SOL    HW121797   7.612   9.900   2.913 -0.4488  0.6217  0.6386
 3821SOL    HW221798   7.546   9.829   3.044  0.4520  0.7613  1.1709
 3822SOL     OW21799   9.357   2.533   2.451  0.2671 -0.0294 -0.0583
 3822SOL    HW121800   9.400   2.574   2.370  0.0958 -0.4886 -0.3840
 3822SOL    HW221801   9.428   2.504   2.515  0.3716  1.5764  0.5733
 3823SOL     OW21802   0.268   2.749   0.254  0.6434 -0.2421  0.0892
 3823SOL    HW121803   0.309   2.659   0.243 -0.1892 -0.5374 -0.6123
 3823SOL    HW221804   0.340   2.818   0.259  1.2956 -0.9967  1.1360
 3824SOL     OW21805   3.148   0.273   3.945  0.3076 -0.2289 -0.0087
 3824SOL    HW121806   3.092   0.214   4.003  1.0799 -0.7381  0.2295
 3824SOL    HW221807   3.089   0.331   3.889 -0.4728  1.3815  2.3962
 3825SOL     OW21808   2.905   9.673   3.331 -0.4279 -0.1483  0.2167
 3825SOL    HW121809   2.828   9.680   3.268  0.6298  0.1835 -1.0399
 3825SOL    HW221810   2.981   9.626   3.287  0.7182  1.0591  0.8621
 3826SOL     OW21811   1.107   3.331   0.864 -0.3370  0.6216  0.1755
 3826SOL    HW121812   1.115   3.301   0.959 -0.5546 -0.3184 -0.0974
 3826SOL    HW221813   1.011   3.346   0.841 -0.4962 -1.3149 -0.5349
 3827SOL     OW21814   8.937   9.518   3.365  0.2775  0.4546  0.1969
 3827SOL    HW121815   8.949   9.611   3.331 -1.7621  0.3286 -0.9165
 3827SOL    HW221816   8.938   9.519   3.465  0.1226  1.6795  0.1939
 3828SOL     OW21817   8.451   1.766   2.375  0.3234  0.3048 -0.0731
 3828SOL    HW121818   8.378   1.759   2.307  1.6514  0.5413 -1.5580
 3828SOL    HW221819   8.411   1.779   2.466 -1.4762  0.1825 -0.8233
 3829SOL     OW21820   8.988   1.223   0.684 -0.3632 -0.0616 -0.0790
 3829SOL    HW121821   9.074   1.184   0.718 -0.5748 -0.1421  0.3669
 3829SOL    HW221822   9.008   1.295   0.618  0.0468 -0.1364 -0.0374
 3830SOL     OW21823   2.636   2.203   0.759  0.7226  0.2691  0.1014
 3830SOL    HW121824   2.644   2.299   0.731  1.2964  0.6008  1.3598
 3830SOL    HW221825   2.557   2.192   0.819 -0.2509 -0.3546 -1.2737
 3831SOL     OW21826   7.880   9.762   1.418 -0.7254 -0.0852 -0.7804
 3831SOL    HW121827   7.887   9.773   1.517  1.6793  0.4662 -1.0019
 3831SOL    HW221828   7.840   9.844   1.378  0.8613  0.7991 -0.5584
 3832SOL     OW21829   3.781   0.338   2.995 -0.0041  0.1877 -0.4983
 3832SOL    HW121830   3.789   0.254   3.048  1.0948  0.7388  0.2225
 3832SOL    HW221831   3.872   0.369   2.967 -0.3252  1.6183  0.0080
 3833SOL     OW21832   1.228   0.067   3.650  0.4159 -0.8877  0.4176
 3833SOL    HW121833   1.323   0.038   3.665  0.9171 -0.8005 -2.3892
 3833SOL    HW221834   1.219   0.106   3.558 -2.2922 -0.6648  0.7474
 3834SOL     OW21835   4.408   3.114   1.720  0.0168  0.3314 -0.1898
 3834SOL    HW121836   4.322   3.063   1.716  0.0114  0.3419 -0.2112
 3834SOL    HW221837   4.396   3.203   1.677 -0.0523  0.4592  0.0884
 3835SOL     OW21838   2.145   6.529   0.599 -0.1561  0.7746  0.3573
 3835SOL    HW121839   2.230   6.526   0.652  0.4029  1.2302 -0.4923
 3835SOL    HW221840   2.165   6.561   0.506 -0.9965 -0.6700 -0.3450
 3836SOL     OW21841   3.232   7.634   1.144 -0.0199  0.1164  0.2337
 3836SOL    HW121842   3.326   7.599   1.150  0.7328  1.9290 -0.5735
 3836SOL    HW221843   3.206   7.676   1.232  0.8544  1.8239 -0.2957
 3837SOL     OW21844   8.028   9.315   3.461  0.5015  0.5225  0.4813
 3837SOL    HW121845   7.943   9.263   3.473  0.4084  0.9921  1.8500
 3837SOL    HW221846   8.098   9.278   3.522  0.4273  2.0115  1.4908
 3838SOL     OW21847   2.463   8.930   1.228  0.3579 -0.2620 -0.6405
 3838SOL    HW121848   2.447   8.832   1.242 -0.5559 -0.2058 -1.2402
 3838SOL    HW221849   2.470   8.949   1.130  1.5450  0.1249 -0.4926
 3839SOL     OW21850   1.557   1.179   0.775  0.3868 -0.0582  0.1667
 3839SOL    HW121851   1.615   1.103   0.746 -0.2956 -1.0969  1.4627
 3839SOL    HW221852   1.582   1.261   0.724  2.1110 -0.7968 -0.2179
 3840SOL     OW21853   4.319   9.037   2.174  0.6169 -0.1997 -0.0759
 3840SOL    HW121854   4.391   8.972   2.198  0.3992 -1.0050 -1.5620
 3840SOL    HW221855   4.292   9.023   2.079 -2.1497 -0.5237  0.7360
 3841SOL     OW21856   1.647   7.241   3.081 -0.5515  0.7689 -0.1754
 3841SOL    HW121857   1.715   7.256   3.009  0.4432  0.3938  0.6687
 3841SOL    HW221858   1.674   7.292   3.163 -1.7819  1.3616 -0.1308
 3842SOL     OW21859   6.453   0.300   3.516  0.0086 -0.5003  0.2852
 3842SOL    HW121860   6.407   0.381   3.554 -0.2389 -1.3191  1.7529
 3842SOL    HW221861   6.403   0.218   3.541  0.6555 -1.1805 -0.6103
 3843SOL     OW21862   9.826   1.799   1.411  0.2139 -0.3862 -0.4013
 3843SOL    HW121863   9.818   1.798   1.511 -0.3310 -0.5782 -0.4426
 3843SOL    HW221864   9.892   1.869   1.383 -0.9059  0.8643  0.0059
 3844SOL     OW21865   7.672   6.415   3.964  0.2313 -0.1583 -0.3515
 3844SOL    HW121866   7.676   6.485   3.893 -0.0349 -1.6779 -1.8945
 3844SOL    HW221867   7.646   6.457   4.051  1.9512  1.9491 -0.8168
 3845SOL     OW21868   1.608   8.493   1.808 -0.7030 -0.1797 -0.2495
 3845SOL    HW121869   1.564   8.493   1.897  1.7064 -2.2903  1.0009
 3845SOL    HW221870   1.692   8.547   1.812 -0.0038 -1.1991 -0.9155
 3846SOL     OW21871   1.500   7.867   3.148 -0.0116  0.1235  0.1294
 3846SOL    HW121872   1.476   7.943   3.208  1.6891  1.1639 -0.4663
 3846SOL    HW221873   1.600   7.855   3.147 -0.2484 -2.0521  0.1280
 3847SOL     OW21874   4.214   2.059   2.596  0.1302 -0.2219  0.0693
 3847SOL    HW121875   4.226   2.090   2.502 -1.1314 -1.7073 -0.6067
 3847SOL    HW221876   4.268   2.116   2.657 -2.6684  3.8533 -1.0101
 3848SOL     OW21877   2.512   3.726   2.285  0.0688 -0.7129 -0.3513
 3848SOL    HW121878   2.594   3.721   2.228 -0.2886 -1.0038 -0.8435
 3848SOL    HW221879   2.502   3.819   2.322  0.1346 -0.4360 -1.0170
 3849SOL     OW21880   2.917   9.916   0.678 -0.4576 -0.0831  0.1267
 3849SOL    HW121881   2.920   9.880   0.772 -0.1167 -0.5466 -0.0603
 3849SOL    HW221882   2.904  10.015   0.681  2.8775  0.3942  0.7564
 3850SOL     OW21883   2.674   1.072   1.397  0.2165  0.1634 -0.2744
 3850SOL    HW121884   2.685   0.994   1.458 -0.8308 -0.1886 -0.5306
 3850SOL    HW221885   2.748   1.137   1.413  0.7695 -0.6044  0.3466
 3851SOL     OW21886   3.221   2.684   3.676  1.1155  0.1246 -0.2275
 3851SOL    HW121887   3.317   2.696   3.702  0.8295 -0.8887  1.3846
 3851SOL    HW221888   3.212   2.603   3.618  1.3417  0.7197 -1.1097
 3852SOL     OW21889   0.316   9.302   0.835  0.5084  0.0865 -0.4820
 3852SOL    HW121890   0.370   9.350   0.765 -0.0913  0.6578 -0.5589
 3852SOL    HW221891   0.237   9.358   0.860 -0.4441 -1.0588 -0.8863
 3853SOL     OW21892   2.512   1.845   1.412  0.0164 -0.0903  0.0511
 3853SOL    HW121893   2.501   1.804   1.503 -1.8539 -0.0807 -0.1544
 3853SOL    HW221894   2.484   1.940   1.415 -0.8061 -0.3072 -0.7217
 3854SOL     OW21895   7.572   9.336   1.342  0.4484 -0.2129  0.8141
 3854SOL    HW121896   7.514   9.315   1.421 -1.1769 -0.5069 -0.4311
 3854SOL    HW221897   7.644   9.399   1.370  1.1107 -1.8640  2.9766
 3855SOL     OW21898   3.077   2.916   3.731  0.8084 -0.1149 -0.5924
 3855SOL    HW121899   3.088   2.971   3.648 -2.1047 -0.3857 -1.2079
 3855SOL    HW221900   3.130   2.832   3.722  1.1753  0.2367 -1.8377
 3856SOL     OW21901   1.428   5.027   0.563  0.2390 -0.3888  0.2523
 3856SOL    HW121902   1.511   5.001   0.613  0.2928  1.0151  0.9075
 3856SOL    HW221903   1.349   4.982   0.605  0.0974  1.8785  2.5265
 3857SOL     OW21904   9.031   0.649   3.984  0.3480  0.3426 -0.5998
 3857SOL    HW121905   8.950   0.623   3.931  0.8165 -0.7586 -0.7909
 3857SOL    HW221906   9.004   0.709   4.059 -0.5375  0.6249 -1.1407
 3858SOL     OW21907   5.027   1.249   2.103 -0.0352 -0.1341 -0.0150
 3858SOL    HW121908   4.957   1.294   2.159  1.3688  0.3409  1.4061
 3858SOL    HW221909   5.084   1.319   2.059 -0.0042 -0.5149 -0.5783
 3859SOL     OW21910   0.506   2.972   3.866  0.0210 -0.1866  0.1391
 3859SOL    HW121911   0.494   2.874   3.850  2.0354 -0.3889 -0.2465
 3859SOL    HW221912   0.552   3.013   3.787 -3.0877  1.5670 -0.8304
 3860SOL     OW21913   8.110   4.357   0.334  0.6404  0.2665  0.6982
 3860SOL    HW121914   8.033   4.297   0.314  0.3351  0.6970  0.5573
 3860SOL    HW221915   8.191   4.303   0.353  0.6979 -0.1774 -0.7602
 3861SOL     OW21916   1.705   3.847   3.614  0.4225  0.0901  0.2512
 3861SOL    HW121917   1.769   3.891   3.677  0.0455  1.2590 -0.1837
 3861SOL    HW221918   1.621   3.824   3.663 -0.3754  2.1654 -0.1144
 3862SOL     OW21919   2.127   8.606   1.137 -0.0097  0.4317 -0.2501
 3862SOL    HW121920   2.143   8.567   1.228 -0.6800  1.2457  0.2219
 3862SOL    HW221921   2.081   8.694   1.147  0.3172  0.7269 -1.3654
 3863SOL     OW21922   9.756   9.560   3.417 -0.3381  0.0436 -0.3054
 3863SOL    HW121923   9.800   9.479   3.377  1.9376 -0.4453  2.9193
 3863SOL    HW221924   9.667   9.535   3.454 -0.0744 -0.7629 -0.2035
 3864SOL     OW21925   4.181   2.223   1.084 -0.5084  0.1690 -0.5915
 3864SOL    HW121926   4.115   2.290   1.119 -1.4525  0.2663 -2.5472
 3864SOL    HW221927   4.273   2.249   1.114 -1.1311  0.9978  0.6652
 3865SOL     OW21928   0.393   0.905   1.924  0.1553  0.1173 -0.2683
 3865SOL    HW121929   0.403   0.812   1.887 -2.1787 -0.2159 -0.0866
 3865SOL    HW221930   0.440   0.910   2.012  1.0506 -0.6246 -0.6784
 3866SOL     OW21931   1.649   8.915   0.242 -0.1752  0.0021  0.2674
 3866SOL    HW121932   1.719   8.970   0.196  0.9635 -0.6340  1.2018
 3866SOL    HW221933   1.576   8.975   0.276  1.6045  1.1186  2.2817
 3867SOL     OW21934   4.440   9.806   1.334 -0.4854  0.6046 -0.3084
 3867SOL    HW121935   4.370   9.876   1.350 -0.7499  0.5250 -1.1184
 3867SOL    HW221936   4.397   9.725   1.294  0.2779  1.0177 -1.9652
 3868SOL     OW21937   0.895   4.019   3.819 -0.2223 -0.1102 -0.3063
 3868SOL    HW121938   0.959   3.944   3.836  0.1408 -0.0689 -1.5238
 3868SOL    HW221939   0.858   4.011   3.727 -0.8476  0.7198 -0.1293
 3869SOL     OW21940   9.251   4.043   0.272 -0.0195  0.3200 -0.0604
 3869SOL    HW121941   9.302   4.050   0.186 -1.4922 -0.3177 -1.0043
 3869SOL    HW221942   9.264   3.951   0.310 -2.1502 -0.5992 -1.4243
 3870SOL     OW21943   9.068   9.875   3.285 -0.2817 -0.0544  0.5462
 3870SOL    HW121944   9.081   9.845   3.380 -1.3601 -0.7592  0.4865
 3870SOL    HW221945   8.970   9.873   3.263 -0.0255 -0.0288 -0.6213
 3871SOL     OW21946   3.668   2.696   1.233 -0.0191  0.0980  0.4497
 3871SOL    HW121947   3.677   2.597   1.223  0.6343  0.0610  1.3266
 3871SOL    HW221948   3.689   2.722   1.327 -1.7983  0.8902  0.6527
 3872SOL     OW21949   1.164   6.466   0.310 -0.5294  0.2382 -0.9032
 3872SOL    HW121950   1.152   6.392   0.244 -0.4916 -0.4433 -0.1359
 3872SOL    HW221951   1.183   6.429   0.400 -3.2884  1.1127  0.0820
 3873SOL     OW21952   3.313   7.347   2.230  0.0891 -0.3794 -0.0062
 3873SOL    HW121953   3.346   7.416   2.165  2.5311  0.8747  2.4470
 3873SOL    HW221954   3.282   7.393   2.313  1.1912 -2.1982  1.4369
 3874SOL     OW21955   3.337   1.342   1.126 -0.4635  0.9373 -0.0318
 3874SOL    HW121956   3.407   1.411   1.105 -0.8166  1.1954 -0.3501
 3874SOL    HW221957   3.269   1.339   1.053 -0.4871  0.2954  0.0109
 3875SOL     OW21958   2.550   9.940   1.327  0.2699  0.0976 -0.0552
 3875SOL    HW121959   2.605  10.021   1.349 -0.9050  0.7227  0.6489
 3875SOL    HW221960   2.563   9.870   1.397 -0.9499  0.8205  0.9171
 3876SOL     OW21961   1.711   6.377   0.013  0.2103 -0.0409  0.2827
 3876SOL    HW121962   1.663   6.397  -0.072  1.5585 -1.1661 -0.7613
 3876SOL    HW221963   1.722   6.462   0.065 -1.8689  0.4226  0.0234
 3877SOL     OW21964   9.242   8.899   2.826 -0.2038 -0.2331  0.4627
 3877SOL    HW121965   9.251   8.864   2.733  1.7165 -0.8019  0.8264
 3877SOL    HW221966   9.265   8.997   2.827  2.0271 -0.7180  0.6611
 3878SOL     OW21967   4.418   8.852   0.597 -0.1005  0.6236  0.1072
 3878SOL    HW121968   4.332   8.889   0.631 -1.1598 -1.2578 -0.3876
 3878SOL    HW221969   4.470   8.813   0.673  0.4248  1.9736  0.4412
 3879SOL     OW21970   0.127   2.964   3.156  0.2128  0.4508 -0.7012
 3879SOL    HW121971   0.031   2.948   3.177  0.3771  1.6527  1.0560
 3879SOL    HW221972   0.178   2.878   3.168  0.1098  0.8002  2.9317
 3880SOL     OW21973   4.965   0.656   2.010 -0.5573  0.7233  0.1592
 3880SOL    HW121974   4.913   0.711   1.944  2.3675  3.6163  0.1331
 3880SOL    HW221975   5.033   0.601   1.961  1.8866  3.1666  0.6150
 3881SOL     OW21976   9.273   8.068   0.031  0.4017  0.1535  0.0919
 3881SOL    HW121977   9.352   8.085   0.090 -0.5554  0.3657  1.3355
 3881SOL    HW221978   9.301   8.014  -0.049  1.1838 -2.5537  2.1397
 3882SOL     OW21979   2.058   1.599   3.655  0.1836 -0.1762 -0.2941
 3882SOL    HW121980   2.038   1.505   3.627 -1.9359 -0.0963  0.8600
 3882SOL    HW221981   2.155   1.607   3.678  0.5711 -1.8359 -1.2895
 3883SOL     OW21982   4.248   4.309   1.263 -0.3545 -0.2760  0.2613
 3883SOL    HW121983   4.254   4.254   1.180 -2.8638 -0.2631  0.0577
 3883SOL    HW221984   4.338   4.348   1.283  0.1531  0.2304 -2.7780
 3884SOL     OW21985   8.524   1.989   3.297 -0.4295 -0.0399  0.2767
 3884SOL    HW121986   8.515   2.063   3.363 -1.0836  0.6470 -0.5743
 3884SOL    HW221987   8.455   1.999   3.225 -0.0906 -1.0887 -0.2142
 3885SOL     OW21988   3.137   8.389   3.939  0.1215 -0.3602  0.1984
 3885SOL    HW121989   3.063   8.416   3.877  0.5716 -0.2678 -0.3055
 3885SOL    HW221990   3.100   8.373   4.031 -0.1360  2.3653  0.6284
 3886SOL     OW21991   3.217   3.953   1.498  0.1324 -0.0788  0.3583
 3886SOL    HW121992   3.120   3.975   1.505 -0.0348  0.4807 -2.7224
 3886SOL    HW221993   3.270   4.037   1.483  0.9542 -0.4922  0.8804
 3887SOL     OW21994   3.509   8.216   2.514  0.1212 -0.2550  0.1783
 3887SOL    HW121995   3.582   8.199   2.449  1.5067  0.5238  1.4876
 3887SOL    HW221996   3.532   8.296   2.570 -2.0896  0.4741  0.0931
 3888SOL     OW21997   3.731   1.724   3.710 -0.4950 -0.3074 -0.0549
 3888SOL    HW121998   3.656   1.745   3.773  0.6310 -0.7009  1.4595
 3888SOL    HW221999   3.817   1.721   3.761  0.4498 -0.6214 -1.6327
 3889SOL     OW22000   9.245   2.955   2.660  0.3500 -0.1239  0.6814
 3889SOL    HW122001   9.262   2.972   2.563  1.6219 -0.6300  0.8067
 3889SOL    HW222002   9.251   2.857   2.679  0.4449  0.0033  1.3318
 3890SOL     OW22003   1.494   8.186   1.469 -0.1234  0.4891  0.0459
 3890SOL    HW122004   1.553   8.178   1.389 -2.2899 -2.5588 -1.3225
 3890SOL    HW222005   1.426   8.257   1.454  0.2158  0.7380 -0.3136
 3891SOL     OW22006   6.868   9.726   2.785  0.4212  0.1375  0.2346
 3891SOL    HW122007   6.843   9.658   2.716 -0.5439  0.2252  0.4843
 3891SOL    HW222008   6.940   9.785   2.749  0.1609 -0.0276 -0.5676
 3892SOL     OW22009   8.128   5.138   1.310  0.0442  0.4321 -0.1356
 3892SOL    HW122010   8.067   5.068   1.348  1.3780 -1.1057 -0.7592
 3892SOL    HW222011   8.096   5.228   1.338 -0.6839 -0.5121  2.1902
 3893SOL     OW22012   9.703   8.390   3.223 -0.0717 -0.2335 -0.7069
 3893SOL    HW122013   9.800   8.368   3.236 -0.5311 -2.5861 -1.0697
 3893SOL    HW222014   9.651   8.306   3.209 -2.5484  0.8073  1.7402
 3894SOL     OW22015   3.954   2.249   0.131 -0.4366  0.1790  0.0811
 3894SOL    HW122016   3.988   2.238   0.225 -0.6984  0.8751  0.2637
 3894SOL    HW222017   3.861   2.214   0.125  0.1292 -1.2963 -0.3044
 3895SOL     OW22018   2.899   5.456   2.841  0.0937  0.4483 -0.0586
 3895SOL    HW122019   2.903   5.520   2.764 -2.2492  2.1173  1.1554
 3895SOL    HW222020   2.843   5.377   2.815 -0.2470  0.7543 -0.2676
 3896SOL     OW22021   1.815   8.668   1.868 -0.2197  0.0693  0.0823
 3896SOL    HW122022   1.877   8.683   1.790  0.2172  1.7117  0.7188
 3896SOL    HW222023   1.868   8.653   1.951 -0.6835 -2.4213 -0.0300
 3897SOL     OW22024   8.548   5.771   0.781  0.4205 -0.5958 -0.9281
 3897SOL    HW122025   8.588   5.682   0.759  2.1616 -0.8304  2.7761
 3897SOL    HW222026   8.460   5.758   0.827 -0.3071 -0.3116 -2.2177
 3898SOL     OW22027   2.122   4.752   1.613 -0.3810  0.1777 -0.0126
 3898SOL    HW122028   2.102   4.662   1.651 -1.6477 -0.0306 -1.1462
 3898SOL    HW222029   2.125   4.819   1.686 -4.9713  0.1737  0.2857
 3899SOL     OW22030   1.751   1.926   3.844 -0.3355 -0.3782 -0.2767
 3899SOL    HW122031   1.840   1.932   3.798  0.2884 -1.7323  0.7439
 3899SOL    HW222032   1.760   1.872   3.927 -1.9756  0.0788  0.2060
 3900SOL     OW22033   2.157   9.114   3.373  0.3705 -0.4195  0.1092
 3900SOL    HW122034   2.106   9.080   3.453  1.2674 -1.9640  0.0343
 3900SOL    HW222035   2.096   9.122   3.295 -0.3686  0.4657  0.7602
 3901SOL     OW22036   9.025   8.411   0.093 -0.2453 -0.1799 -0.4191
 3901SOL    HW122037   9.016   8.335   0.158 -1.0073 -1.3152 -1.8250
 3901SOL    HW222038   8.964   8.486   0.120 -0.6268 -0.6772  0.1131
 3902SOL     OW22039   3.251   8.507   2.611  0.0997  0.5180 -0.1316
 3902SOL    HW122040   3.159   8.470   2.627  0.3279  0.7778  1.9761
 3902SOL    HW222041   3.310   8.480   2.687  1.7949  0.2895 -1.5127
 3903SOL     OW22042   7.028   9.914   0.640 -0.0458 -0.1180  0.6329
 3903SOL    HW122043   6.944   9.967   0.645 -1.4496 -1.9843 -1.9844
 3903SOL    HW222044   7.015   9.825   0.684  0.8067 -0.1299  0.8803
 3904SOL     OW22045   9.069   1.718   1.164  0.3134 -0.5941 -0.0799
 3904SOL    HW122046   9.029   1.636   1.124 -0.0132 -0.4562 -0.0359
 3904SOL    HW222047   9.168   1.706   1.174  0.2430 -1.0388  0.0683
 3905SOL     OW22048   1.273   0.602   0.730  0.0594 -0.0257  0.3670
 3905SOL    HW122049   1.173   0.603   0.726  0.0069 -1.2894  1.0396
 3905SOL    HW222050   1.305   0.507   0.726  1.2162  0.3600  0.4014
 3906SOL     OW22051   3.490   9.934   2.191 -0.4182 -0.4552  0.4943
 3906SOL    HW122052   3.437  10.009   2.153  0.4942  0.4051  0.9121
 3906SOL    HW222053   3.457   9.913   2.283 -1.2438 -1.1563  0.0515
 3907SOL     OW22054   7.579   9.457   3.151  0.2958 -0.1571  0.0156
 3907SOL    HW122055   7.578   9.515   3.233 -3.1636  1.1110 -0.8165
 3907SOL    HW222056   7.515   9.381   3.164  0.8483 -0.7879 -0.9368
 3908SOL     OW22057   2.772   8.978   2.381  0.6729  0.5222  0.1766
 3908SOL    HW122058   2.836   8.923   2.329 -0.4825 -0.8769  0.1947
 3908SOL    HW222059   2.808   8.993   2.473  0.7647 -0.6873  0.3527
 3909SOL     OW22060   3.743   0.094   2.156  0.5603  0.8203 -0.1864
 3909SOL    HW122061   3.695   0.119   2.240  1.4986  0.3214  0.5029
 3909SOL    HW222062   3.706   0.007   2.121 -0.4266  1.4646 -0.7786
 3910SOL     OW22063   2.492   6.669   1.815 -0.6831  0.8167 -0.1882
 3910SOL    HW122064   2.399   6.687   1.846 -1.6007  0.0915 -2.4467
 3910SOL    HW222065   2.490   6.607   1.736  1.7721 -0.1909  0.4692
 3911SOL     OW22066   0.599   3.840   1.411 -0.3538 -0.3029 -0.6427
 3911SOL    HW122067   0.541   3.759   1.420  0.7146 -0.9917  0.2819
 3911SOL    HW222068   0.639   3.863   1.500 -0.3212  1.0040 -0.9776
 3912SOL     OW22069   2.065   4.489   1.240  0.0314 -0.3912  0.4397
 3912SOL    HW122070   1.970   4.474   1.213  0.1492  1.5463 -1.1527
 3912SOL    HW222071   2.120   4.411   1.212 -0.5682 -0.1971 -1.3259
 3913SOL     OW22072   5.175   9.342   2.782 -0.0190 -0.1993  0.1668
 3913SOL    HW122073   5.170   9.437   2.751 -0.6600 -0.2885 -0.0051
 3913SOL    HW222074   5.263   9.303   2.753 -0.5577 -0.2505 -1.4749
 3914SOL     OW22075   2.582   2.619   2.054  0.4042  0.0095 -0.2848
 3914SOL    HW122076   2.507   2.653   2.110 -0.3385  1.5061 -2.1357
 3914SOL    HW222077   2.641   2.695   2.028  1.9356 -0.9973  0.2157
 3915SOL     OW22078   0.480   1.423   1.601 -0.0529 -0.2022  0.0247
 3915SOL    HW122079   0.498   1.373   1.685  2.6955  1.4274  0.4868
 3915SOL    HW222080   0.387   1.460   1.602  0.0500  0.0464  2.4874
 3916SOL     OW22081   2.440   5.783   1.192  0.3831 -0.2854 -0.2360
 3916SOL    HW122082   2.504   5.784   1.115  1.3041 -0.3108  0.5313
 3916SOL    HW222083   2.489   5.768   1.277 -0.8506 -2.2704  0.1627
 3917SOL     OW22084   3.481   4.850   3.188 -0.1321  0.3593  0.4225
 3917SOL    HW122085   3.578   4.856   3.214  0.1920  0.5808 -0.8030
 3917SOL    HW222086   3.467   4.767   3.133 -0.1060  1.6520 -1.5807
 3918SOL     OW22087   1.922   6.665   3.173  0.6578 -0.2624 -0.4862
 3918SOL    HW122088   1.906   6.703   3.264 -0.1589  1.1437 -1.1948
 3918SOL    HW222089   1.893   6.569   3.170  0.2142 -0.1571  0.5774
 3919SOL     OW22090   3.190   7.623   0.109  0.3592  0.1485 -0.1205
 3919SOL    HW122091   3.268   7.685   0.105 -0.2319  0.8773 -0.5994
 3919SOL    HW222092   3.223   7.529   0.121  1.1978  0.6923  2.0841
 3920SOL     OW22093   8.921   9.557   3.698  0.0372 -1.1851  0.1005
 3920SOL    HW122094   8.966   9.470   3.718 -1.2661 -1.8493  0.1667
 3920SOL    HW222095   8.823   9.548   3.713 -0.2030  0.0709 -0.6663
 3921SOL     OW22096   0.519   2.324   3.761  0.2050 -0.1873 -0.3026
 3921SOL    HW122097   0.501   2.235   3.719 -1.0049  0.6094 -1.5310
 3921SOL    HW222098   0.617   2.340   3.765  0.4449 -1.7900  0.3878
 3922SOL     OW22099   9.176   8.692   0.445 -0.0098 -0.2323  0.0501
 3922SOL    HW122100   9.153   8.648   0.532  1.6278 -0.8282  0.1888
 3922SOL    HW222101   9.200   8.622   0.377 -0.8827  0.2504 -0.7716
 3923SOL     OW22102   1.058   4.097   2.466 -0.3524 -0.3461  0.0387
 3923SOL    HW122103   1.111   4.121   2.385 -1.2263  1.1407 -0.1190
 3923SOL    HW222104   1.065   4.170   2.534 -1.2605 -0.6497  0.4747
 3924SOL     OW22105   1.592   9.439   3.337  0.0780  0.5887  0.5755
 3924SOL    HW122106   1.606   9.340   3.349  1.8973  0.9403  1.4403
 3924SOL    HW222107   1.499   9.462   3.366 -0.6913 -0.9949 -0.4982
 3925SOL     OW22108   2.292   3.237   0.550  0.3830  0.6590 -0.2362
 3925SOL    HW122109   2.303   3.145   0.513 -1.8311 -0.0645  0.7994
 3925SOL    HW222110   2.365   3.256   0.615  2.0665  0.4589 -2.0381
 3926SOL     OW22111   8.762   2.881   1.391 -0.3359  0.4251 -0.2017
 3926SOL    HW122112   8.855   2.854   1.366 -0.7687 -1.6046  0.2971
 3926SOL    HW222113   8.759   2.901   1.489 -0.0848  2.0603 -0.5144
 3927SOL     OW22114   8.104   3.624   1.748 -0.1674  0.3389 -0.3885
 3927SOL    HW122115   8.159   3.595   1.670 -0.2886 -1.4116  0.1486
 3927SOL    HW222116   8.031   3.685   1.717  1.4782  1.9084 -1.2333
 3928SOL     OW22117   9.278   0.518   3.612 -0.2332  0.1673 -0.9459
 3928SOL    HW122118   9.349   0.459   3.651 -0.3200  0.3479 -0.5132
 3928SOL    HW222119   9.268   0.497   3.515  1.1892  0.8880 -1.2699
 3929SOL     OW22120   2.369   9.683   3.740  0.4420  1.1278 -0.8069
 3929SOL    HW122121   2.284   9.680   3.688  1.0728  1.7914 -1.9020
 3929SOL    HW222122   2.438   9.732   3.687  1.9646 -0.7625 -0.6067
 3930SOL     OW22123   0.434   9.006   0.246 -0.1853 -0.1061 -0.8677
 3930SOL    HW122124   0.462   9.101   0.259  1.9159 -0.7713 -0.3486
 3930SOL    HW222125   0.349   8.989   0.296  0.6262  0.9187  0.9024
 3931SOL     OW22126   1.528   0.751   2.469 -0.6762 -0.0160  0.2005
 3931SOL    HW122127   1.439   0.796   2.457 -0.4220  0.5713  0.4584
 3931SOL    HW222128   1.521   0.684   2.543 -0.2431  1.9332  2.0820
 3932SOL     OW22129   9.516   1.628   2.958 -0.1839  0.2707 -0.2769
 3932SOL    HW122130   9.430   1.576   2.951  0.1970 -0.7081  1.8435
 3932SOL    HW222131   9.496   1.722   2.983 -0.7306  0.4064 -1.2282
 3933SOL     OW22132   1.028   7.876   3.602 -0.2613  0.0630  0.3377
 3933SOL    HW122133   1.112   7.902   3.650  0.1909 -1.6875  0.5293
 3933SOL    HW222134   0.949   7.910   3.652  0.3059  0.7482  0.7663
 3934SOL     OW22135   2.342   0.095   2.238 -0.3692 -0.6461  0.3250
 3934SOL    HW122136   2.371   0.095   2.334 -2.5633 -0.1531  1.0301
 3934SOL    HW222137   2.268   0.029   2.227  0.9754 -1.9038 -1.4142
 3935SOL     OW22138   9.883   7.742   0.611  0.1907 -0.2334 -0.5160
 3935SOL    HW122139   9.904   7.814   0.545 -0.6602  0.2721 -0.2321
 3935SOL    HW222140   9.922   7.766   0.700  1.4296 -0.9642 -0.8455
 3936SOL     OW22141   3.758   1.346   1.046  0.1530 -0.0316 -0.3241
 3936SOL    HW122142   3.845   1.383   1.013 -0.2889  1.0495 -0.3084
 3936SOL    HW222143   3.683   1.386   0.993 -0.3947 -0.2202  0.2987
 3937SOL     OW22144   3.854   9.034   0.023 -0.6965  0.5373  0.4269
 3937SOL    HW122145   3.931   8.982  -0.016 -1.3229 -1.6274  1.9721
 3937SOL    HW222146   3.810   9.087  -0.050 -0.6373 -1.8792 -1.4606
 3938SOL     OW22147   0.526   0.587   1.387  0.6632 -0.2547 -0.4145
 3938SOL    HW122148   0.587   0.648   1.337  0.3833  0.9329  0.6802
 3938SOL    HW222149   0.435   0.588   1.344  1.1114 -1.2327 -1.4218
 3939SOL     OW22150   0.163   9.397   3.733 -0.0267  0.2788 -0.5440
 3939SOL    HW122151   0.075   9.349   3.736  0.4887 -0.6003  1.2881
 3939SOL    HW222152   0.213   9.379   3.817  2.6501 -0.6240 -2.2865
 3940SOL     OW22153   6.977   9.913   2.575 -0.4589 -0.1822 -0.0595
 3940SOL    HW122154   7.006  10.009   2.576 -0.4310 -0.1922  0.3783
 3940SOL    HW222155   7.057   9.854   2.569 -0.5563 -0.1528 -1.9586
 3941SOL     OW22156   2.587   3.428   2.155 -0.0333 -0.0618  0.0814
 3941SOL    HW122157   2.564   3.348   2.100 -0.3701  0.8275 -1.1108
 3941SOL    HW222158   2.574   3.408   2.252  1.3038 -1.8981 -0.1139
 3942SOL     OW22159   0.979   0.180   2.697  0.8834  0.1897 -0.7244
 3942SOL    HW122160   0.921   0.186   2.779  0.8670 -0.8127 -0.6553
 3942SOL    HW222161   0.923   0.151   2.619  1.0302  0.5035 -0.9449
 3943SOL     OW22162   2.388   0.332   2.088  0.0274  0.2025  0.4289
 3943SOL    HW122163   2.390   0.240   2.129  0.1775  1.3981  3.2709
 3943SOL    HW222164   2.315   0.385   2.130  1.7051  2.2409  0.8564
 3944SOL     OW22165   4.004   9.555   2.385 -0.0267  0.1942 -0.6004
 3944SOL    HW122166   3.955   9.557   2.298  1.3909 -1.4805 -1.4526
 3944SOL    HW222167   3.940   9.578   2.459 -2.2152 -2.3718 -1.6186
 3945SOL     OW22168   2.113   3.727   1.667 -0.1231 -0.0846 -0.0499
 3945SOL    HW122169   2.186   3.739   1.734  0.1778 -0.5421 -0.2884
 3945SOL    HW222170   2.093   3.629   1.657 -0.8606  0.0494  0.1146
 3946SOL     OW22171   9.759   3.188   0.336  0.1815  1.0269 -0.0616
 3946SOL    HW122172   9.809   3.164   0.252 -0.0907  0.9897 -0.2117
 3946SOL    HW222173   9.680   3.128   0.346  0.8427  0.2987  0.8097
 3947SOL     OW22174   9.025   9.368   1.376  0.0875  0.5836 -0.3607
 3947SOL    HW122175   8.930   9.348   1.353 -0.6939  1.2798  2.0325
 3947SOL    HW222176   9.032   9.460   1.414  1.1663 -0.5499  2.3674
 3948SOL     OW22177   9.106   8.762   1.313 -0.3015 -1.0587  0.3894
 3948SOL    HW122178   9.112   8.714   1.400 -0.5205 -1.9965 -0.1036
 3948SOL    HW222179   9.117   8.696   1.238  0.6241 -0.1484 -0.2804
 3949SOL     OW22180   1.687   9.069   2.436 -0.1686 -0.0118  0.6614
 3949SOL    HW122181   1.658   9.033   2.347 -0.5674 -1.0748  1.2132
 3949SOL    HW222182   1.739   8.999   2.485 -1.7529 -0.1813  2.1463
 3950SOL     OW22183   8.089   7.335   0.503 -0.2802 -0.1710  0.2855
 3950SOL    HW122184   8.141   7.256   0.534 -1.1366  0.0801  2.5275
 3950SOL    HW222185   8.137   7.419   0.530  0.8944  0.0993 -2.5527
 3951SOL     OW22186   1.030   2.865   3.135 -0.4837  0.7510 -0.0882
 3951SOL    HW122187   0.984   2.844   3.048  0.3615  3.2741 -1.1788
 3951SOL    HW222188   1.007   2.958   3.163 -0.3897  0.1165  2.2041
 3952SOL     OW22189   2.689   0.748   3.124  0.3868 -0.9734  0.5498
 3952SOL    HW122190   2.703   0.820   3.192  1.4143 -0.1508 -0.5327
 3952SOL    HW222191   2.609   0.694   3.150 -1.3755  1.5455  0.5007
 3953SOL     OW22192   3.796   2.921   1.022 -0.3365 -0.1273  0.2064
 3953SOL    HW122193   3.738   2.844   1.047  0.2923 -0.0947  1.8356
 3953SOL    HW222194   3.885   2.887   0.989 -0.5983 -0.1259 -0.5171
 3954SOL     OW22195   2.986   7.614   2.384  0.2269  0.2834  0.6743
 3954SOL    HW122196   2.954   7.529   2.343  2.3524 -0.9101  1.4165
 3954SOL    HW222197   2.910   7.660   2.430 -0.8542 -1.4144  0.6141
 3955SOL     OW22198   0.136   8.164   0.405 -0.4055 -0.2337 -0.0152
 3955SOL    HW122199   0.219   8.218   0.390 -1.1945  0.2990 -2.7284
 3955SOL    HW222200   0.071   8.217   0.460  0.5283 -0.1476  1.0229
 3956SOL     OW22201   3.753   1.564   1.686 -0.7985  0.0307  0.1884
 3956SOL    HW122202   3.775   1.586   1.591 -0.6499  1.0612  0.4562
 3956SOL    HW222203   3.803   1.482   1.714 -0.0848  0.2881 -0.3244
 3957SOL     OW22204   9.479   7.454   0.782  0.1196 -0.3755  0.4135
 3957SOL    HW122205   9.442   7.461   0.874 -0.7599 -1.0761  0.1178
 3957SOL    HW222206   9.405   7.438   0.717  0.4289  2.5077 -0.7217
 3958SOL     OW22207   1.976   4.546   1.734 -0.4023  0.6298  0.1575
 3958SOL    HW122208   1.937   4.608   1.802 -0.7961  0.8182 -0.2456
 3958SOL    HW222209   1.905   4.516   1.671 -0.2508 -0.3545  0.4370
 3959SOL     OW22210   3.776   0.720   1.296  0.1009  0.7557  0.4825
 3959SOL    HW122211   3.741   0.809   1.325  0.3042 -0.0027  3.2609
 3959SOL    HW222212   3.848   0.732   1.227 -1.2298  2.6137 -0.6080
 3960SOL     OW22213   3.304   4.301   3.376 -0.6131 -0.1345  0.5341
 3960SOL    HW122214   3.228   4.343   3.327  0.6179  2.1602  0.5507
 3960SOL    HW222215   3.307   4.335   3.470  1.4422  1.1656  0.0439
 3961SOL     OW22216   3.478   1.211   1.740 -0.6503  0.6125 -0.3460
 3961SOL    HW122217   3.431   1.166   1.664  0.0376  1.4000 -1.2568
 3961SOL    HW222218   3.490   1.308   1.718 -1.5133  1.0968  1.2956
 3962SOL     OW22219   0.422   2.734   3.815  0.4439 -0.5589  0.7378
 3962SOL    HW122220   0.336   2.711   3.862 -0.1474  0.2042  0.0410
 3962SOL    HW222221   0.405   2.741   3.717  1.2327 -0.0352  0.6384
 3963SOL     OW22222   1.958   2.069   0.566 -0.9834 -0.2207 -0.1353
 3963SOL    HW122223   1.891   1.995   0.558 -0.1052 -1.0624  0.1550
 3963SOL    HW222224   2.000   2.085   0.476 -2.3908  1.1149 -0.5872
 3964SOL     OW22225   1.191   8.568   2.320 -0.4159  0.4292  0.1837
 3964SOL    HW122226   1.213   8.663   2.340 -3.4976  1.0881  0.7379
 3964SOL    HW222227   1.122   8.535   2.384  0.7995 -2.3039  0.1860
 3965SOL     OW22228   2.877   4.811   3.551 -0.1944 -0.9090 -0.2022
 3965SOL    HW122229   2.846   4.877   3.620  0.1167 -0.2955 -0.6475
 3965SOL    HW222230   2.807   4.741   3.539  0.2403 -1.6986  1.6143
 3966SOL     OW22231   1.792   5.996   1.358  0.3862 -0.0420 -0.8695
 3966SOL    HW122232   1.882   6.040   1.361  0.2163  0.2630  1.6009
 3966SOL    HW222233   1.796   5.910   1.409 -1.5342  1.7114  2.4193
 3967SOL     OW22234   9.544   9.473   0.248  0.3845  0.2614  0.2162
 3967SOL    HW122235   9.639   9.446   0.268  0.3732  0.4465  0.5357
 3967SOL    HW222236   9.526   9.561   0.292 -0.0257  0.0881  0.3968
 3968SOL     OW22237   2.784   5.854   3.761  0.1574 -0.2900  0.4470
 3968SOL    HW122238   2.794   5.760   3.730 -1.1119  0.1998 -1.5507
 3968SOL    HW222239   2.856   5.911   3.720  0.0609 -0.1158  0.5188
 3969SOL     OW22240   2.889   5.543   0.203  0.0712 -0.3091  0.8177
 3969SOL    HW122241   2.939   5.543   0.116 -2.1039  1.9108 -0.5208
 3969SOL    HW222242   2.936   5.601   0.269  1.8909 -2.2348  1.2332
 3970SOL     OW22243   1.748   8.661   1.243  0.0505  0.5035 -0.0174
 3970SOL    HW122244   1.774   8.758   1.235 -0.5028  0.6146 -0.4577
 3970SOL    HW222245   1.667   8.653   1.300  0.6197  0.2164  0.7625
 3971SOL     OW22246   1.178   0.527   0.309  0.2207 -0.0696 -0.9251
 3971SOL    HW122247   1.189   0.460   0.382  1.5514  0.2796 -0.7930
 3971SOL    HW222248   1.115   0.491   0.240 -0.9262 -0.4669  0.2969
 3972SOL     OW22249   8.142   3.483   1.990 -0.0003  0.0924  0.3142
 3972SOL    HW122250   8.059   3.438   2.024  0.9842 -2.4524 -0.5771
 3972SOL    HW222251   8.119   3.538   1.909 -0.3996 -2.6904 -1.5165
 3973SOL     OW22252   9.780   2.320   1.572 -0.3384 -0.0288  0.5165
 3973SOL    HW122253   9.793   2.419   1.563  0.8699 -0.2158  0.0448
 3973SOL    HW222254   9.805   2.276   1.486 -0.2000 -0.8041  0.9510
 3974SOL     OW22255   1.440   1.086   3.308 -0.4611 -0.3581 -0.4041
 3974SOL    HW122256   1.431   0.996   3.265 -0.7123 -0.1126 -0.8599
 3974SOL    HW222257   1.437   1.075   3.408 -1.8456 -0.7153 -0.4778
 3975SOL     OW22258   8.354   6.457   0.902 -0.5510  0.2259 -0.3805
 3975SOL    HW122259   8.356   6.479   0.999  0.3386 -0.1279 -0.3124
 3975SOL    HW222260   8.441   6.415   0.876 -0.6336  0.6789 -1.4100
 3976SOL     OW22261   2.571   2.252   1.599  0.3409  0.2390 -0.7971
 3976SOL    HW122262   2.662   2.239   1.560  0.6644  0.2587 -0.0601
 3976SOL    HW222263   2.502   2.217   1.536  0.9688 -1.4608 -0.5664
 3977SOL     OW22264   2.562   6.807   1.207 -0.2532 -0.0768  0.3787
 3977SOL    HW122265   2.530   6.832   1.299  0.7527  0.0873  0.6908
 3977SOL    HW222266   2.624   6.878   1.174 -0.8423  0.0083 -0.5536
 3978SOL     OW22267   3.309   2.758   2.704 -0.0160  0.3454 -0.0082
 3978SOL    HW122268   3.386   2.763   2.769 -0.9147 -0.4950  1.1334
 3978SOL    HW222269   3.251   2.681   2.727 -0.4036  0.1000 -1.7875
 3979SOL     OW22270   0.285   2.031   2.578 -0.4047 -0.6434  0.2984
 3979SOL    HW122271   0.281   1.932   2.564 -1.2011 -0.5983  0.2152
 3979SOL    HW222272   0.236   2.077   2.504 -1.6988 -0.2625  1.3722
 3980SOL     OW22273   3.944   8.187   0.146 -0.3786  1.0523  0.0867
 3980SOL    HW122274   3.943   8.152   0.053  0.4738  1.9886 -0.2777
 3980SOL    HW222275   3.922   8.112   0.210 -0.9813  0.4159 -0.8506
 3981SOL     OW22276   0.638   0.103   1.458  0.4185 -0.1469 -0.1807
 3981SOL    HW122277   0.643   0.030   1.526  0.6596 -0.0765 -0.1197
 3981SOL    HW222278   0.728   0.116   1.417  0.8590  1.4058  1.1970
 3982SOL     OW22279   2.292   7.580   0.590  0.4278  0.0849  0.4767
 3982SOL    HW122280   2.240   7.665   0.586 -0.9697 -0.8011 -1.2148
 3982SOL    HW222281   2.245   7.515   0.650 -0.5641 -0.7564 -1.1447
 3983SOL     OW22282   9.809   8.174   3.619  0.3677 -0.2506  0.1424
 3983SOL    HW122283   9.716   8.209   3.608  0.2528 -1.2447 -2.4144
 3983SOL    HW222284   9.874   8.244   3.590  0.2935 -0.6444 -0.9865
 3984SOL     OW22285   7.723   1.929   2.142  0.0987  0.1042  0.1165
 3984SOL    HW122286   7.765   1.880   2.218  1.0784 -0.7197 -0.9442
 3984SOL    HW222287   7.773   1.910   2.058  1.0826  3.6285 -0.1857
 3985SOL     OW22288   7.964   2.992   3.879 -0.2551  0.0049  0.2789
 3985SOL    HW122289   7.991   2.905   3.921 -1.3668  0.1199  1.2714
 3985SOL    HW222290   8.041   3.029   3.827  1.7498  0.5855  3.4652
 3986SOL     OW22291   1.887   5.466   0.818 -0.1635  0.0213 -0.6475
 3986SOL    HW122292   1.818   5.533   0.790 -0.0343 -0.1551 -1.4120
 3986SOL    HW222293   1.899   5.469   0.917 -1.7724 -0.4278 -0.4230
 3987SOL     OW22294   8.532   0.013   0.299  0.4222  0.1496  0.2837
 3987SOL    HW122295   8.513  -0.084   0.286 -1.4119  0.6029 -0.6532
 3987SOL    HW222296   8.452   0.057   0.340  1.2377  1.2621  0.6972
 3988SOL     OW22297   7.180   9.700   2.639 -0.3796 -0.1616  0.4512
 3988SOL    HW122298   7.172   9.624   2.574 -2.0561  0.4230 -0.0515
 3988SOL    HW222299   7.234   9.671   2.718  1.5408 -0.9490 -1.1088
 3989SOL     OW22300   1.596   2.149   3.959 -0.5225 -0.0511 -0.4596
 3989SOL    HW122301   1.539   2.095   4.020  1.2369 -0.1748  1.1189
 3989SOL    HW222302   1.672   2.093   3.925 -0.9437  0.2918 -2.0288
 3990SOL     OW22303   9.796   3.750   4.034  0.0280 -0.5684 -0.4845
 3990SOL    HW122304   9.745   3.674   3.993 -1.9459  1.1479 -1.2884
 3990SOL    HW222305   9.833   3.808   3.962  1.6578 -0.8342  0.1307
 3991SOL     OW22306   8.071   2.645   1.306  0.2364  0.2865  0.0443
 3991SOL    HW122307   8.164   2.665   1.276  0.4322 -0.7110 -0.0317
 3991SOL    HW222308   8.067   2.646   1.406  0.5713 -0.6958  0.0746
 3992SOL     OW22309   2.185   3.784   0.649  0.1215  0.3521 -0.0872
 3992SOL    HW122310   2.251   3.827   0.710 -1.0738 -0.9970  2.2592
 3992SOL    HW222311   2.220   3.696   0.619  0.4941  0.7931 -0.9567
 3993SOL     OW22312   2.368   2.804   0.506  0.1191 -0.3248 -0.5624
 3993SOL    HW122313   2.339   2.711   0.527 -0.0351 -0.3321 -0.8032
 3993SOL    HW222314   2.305   2.845   0.440 -0.2661  0.2262  0.1441
 3994SOL     OW22315   2.423   9.056   2.776 -0.0416  0.6982 -0.7956
 3994SOL    HW122316   2.415   9.016   2.868  0.4704  1.4664 -0.4150
 3994SOL    HW222317   2.335   9.094   2.749  0.1868  1.8115  0.0026
 3995SOL     OW22318   3.821   2.336   2.870 -0.2355  0.5416  0.1097
 3995SOL    HW122319   3.753   2.294   2.930  0.4170  0.4041  0.7612
 3995SOL    HW222320   3.907   2.285   2.876  0.2587  1.3647  0.1419
 3996SOL     OW22321   7.802   7.779   3.944  0.5617  0.3543  0.4229
 3996SOL    HW122322   7.779   7.770   3.847  0.4991 -1.5405  0.5943
 3996SOL    HW222323   7.718   7.793   3.996  0.6009  1.4356  0.2154
 3997SOL     OW22324   7.883   9.540   3.920  0.1780  0.1454 -0.9581
 3997SOL    HW122325   7.814   9.471   3.899  1.1580 -0.7921 -1.1475
 3997SOL    HW222326   7.955   9.537   3.851  0.4069  1.1156 -0.7685
 3998SOL     OW22327   9.960   3.370   0.870  0.4303  0.0761 -0.2403
 3998SOL    HW122328   9.958   3.438   0.798  1.7629  0.8160  0.3943
 3998SOL    HW222329  10.051   3.327   0.873 -0.1041 -1.0661 -0.0312
 3999SOL     OW22330   9.724   7.828   3.031  0.1526  0.3424  0.3972
 3999SOL    HW122331   9.797   7.779   3.079 -0.1027 -0.7458 -0.3085
 3999SOL    HW222332   9.762   7.878   2.954  0.0414 -1.0208 -0.5682
 4000SOL     OW22333   2.519   7.671   1.799  0.1491  0.0508  0.3709
 4000SOL    HW122334   2.539   7.754   1.852  0.4499 -0.9266  1.8131
 4000SOL    HW222335   2.422   7.649   1.806 -0.0973  0.7476 -0.7167
 4001SOL     OW22336   3.783   3.151   3.995 -0.1472  0.1599  0.0844
 4001SOL    HW122337   3.754   3.056   3.983  1.5644 -0.5889  1.5539
 4001SOL    HW222338   3.731   3.192   4.070 -0.1337  0.0368  0.1613
 4002SOL     OW22339   9.608   2.441   1.009  0.4414 -0.3308  0.3023
 4002SOL    HW122340   9.657   2.430   1.095 -0.7264  0.4717  1.1010
 4002SOL    HW222341   9.510   2.431   1.025  0.2415 -0.6195 -1.0204
 4003SOL     OW22342   2.634   9.282   1.184 -0.1956  0.5048 -0.2387
 4003SOL    HW122343   2.641   9.264   1.085  1.1537 -0.9403  0.0967
 4003SOL    HW222344   2.541   9.263   1.214 -0.5752  0.7797 -1.1924
 4004SOL     OW22345   0.562   1.680   1.846  0.3042 -0.6197 -0.2607
 4004SOL    HW122346   0.503   1.694   1.766  1.4112  1.6466 -0.7085
 4004SOL    HW222347   0.512   1.705   1.928  0.4145  0.7247 -0.5891
 4005SOL     OW22348   3.322   4.008   2.233  0.1448  0.0892  0.3436
 4005SOL    HW122349   3.271   4.018   2.318 -1.6998  0.5422 -0.7722
 4005SOL    HW222350   3.276   4.060   2.161  3.3716  2.3061 -0.2399
 4006SOL     OW22351   8.778   9.366   2.321  0.3802 -0.2377  0.3761
 4006SOL    HW122352   8.684   9.333   2.334  0.2137  0.5953  1.3708
 4006SOL    HW222353   8.823   9.311   2.252 -0.8789 -0.5865 -0.1889
 4007SOL     OW22354   4.509   2.818   3.264  0.0617  0.3511  0.4583
 4007SOL    HW122355   4.461   2.904   3.281  1.2715  0.4160  3.8633
 4007SOL    HW222356   4.596   2.818   3.314  1.2101 -1.8673 -1.4777
 4008SOL     OW22357   0.889   3.017   3.977  0.2991  0.1722  0.1858
 4008SOL    HW122358   0.854   2.943   4.035  0.0300 -0.2849 -0.5651
 4008SOL    HW222359   0.946   3.077   4.033  0.5088 -0.5854  0.8070
 4009SOL     OW22360   7.565   8.484   1.272  0.3465  0.0075  0.5566
 4009SOL    HW122361   7.531   8.561   1.220 -0.4589 -0.9589 -0.3710
 4009SOL    HW222362   7.617   8.517   1.351 -0.9153  1.4881  0.7877
 4010SOL     OW22363   1.815   5.065   1.277  0.2330  0.2313  0.4481
 4010SOL    HW122364   1.765   5.147   1.305 -0.3452 -0.1362  0.5039
 4010SOL    HW222365   1.885   5.044   1.345 -0.8541 -0.3898  1.4088
 4011SOL     OW22366   9.784   2.129   1.330 -0.4603  0.1240 -0.1823
 4011SOL    HW122367   9.859   2.063   1.336 -0.4477  0.1230 -0.3633
 4011SOL    HW222368   9.697   2.082   1.345 -0.4644  0.0362 -0.4918
 4012SOL     OW22369   2.508   7.040   3.534 -0.0403 -0.5560 -0.8273
 4012SOL    HW122370   2.588   7.066   3.479 -0.1499 -0.5464 -0.9802
 4012SOL    HW222371   2.530   7.051   3.631 -0.3268  0.8146 -0.9035
 4013SOL     OW22372   3.361   8.754   3.136  0.4112 -0.0670 -0.2958
 4013SOL    HW122373   3.282   8.729   3.191  0.3487  0.9447  0.0845
 4013SOL    HW222374   3.401   8.839   3.171 -0.4720  1.3727 -2.6737
 4014SOL     OW22375   3.666   1.748   1.178  0.5566 -0.3984  0.1355
 4014SOL    HW122376   3.748   1.694   1.156  1.5073  1.8261 -2.0835
 4014SOL    HW222377   3.693   1.829   1.231 -0.0758  0.6365 -1.0701
 4015SOL     OW22378   3.355   7.867   1.653  0.2841  0.6989  0.1380
 4015SOL    HW122379   3.354   7.781   1.703  3.0717  2.3957  3.3410
 4015SOL    HW222380   3.270   7.917   1.671  0.3573  0.3515  1.5136
 4016SOL     OW22381   4.800   9.290   3.761  0.1086  0.2394 -0.2106
 4016SOL    HW122382   4.759   9.355   3.825 -0.3373 -0.9540  0.7298
 4016SOL    HW222383   4.752   9.202   3.767  0.8680 -0.2679 -1.2844
 4017SOL     OW22384   0.789   8.208   0.192 -0.5722 -0.0929  0.1455
 4017SOL    HW122385   0.845   8.125   0.198 -0.3011  0.1506  1.0068
 4017SOL    HW222386   0.746   8.226   0.280 -0.1947  0.9839  0.1177
 4018SOL     OW22387   1.248   1.342   1.330  0.3192  1.0719  0.1548
 4018SOL    HW122388   1.341   1.378   1.325  0.0118  1.8250 -0.1206
 4018SOL    HW222389   1.249   1.245   1.306  1.4336  0.4062  2.7436
 4019SOL     OW22390   4.908   3.316   0.438 -0.1880  0.3797  0.2822
 4019SOL    HW122391   4.959   3.249   0.384 -0.8347  0.0228  0.1068
 4019SOL    HW222392   4.931   3.307   0.534  0.1793  0.3147  0.1889
 4020SOL     OW22393   1.074   1.825   0.173 -0.2433 -0.3053  0.3497
 4020SOL    HW122394   1.081   1.758   0.099 -1.1750  0.0609 -0.0730
 4020SOL    HW222395   1.052   1.915   0.135  1.0949  0.2700  0.9058
 4021SOL     OW22396   1.032   3.894   1.070 -0.1639  0.6813 -0.4139
 4021SOL    HW122397   0.974   3.920   1.146  0.3188  0.5817 -0.0076
 4021SOL    HW222398   0.988   3.822   1.017 -0.1357  0.1786  0.2472
 4022SOL     OW22399   7.939   1.561   0.463 -0.4285  0.3845  0.0876
 4022SOL    HW122400   8.011   1.630   0.453  0.4870 -0.8798 -2.7755
 4022SOL    HW222401   7.893   1.549   0.375 -1.5126 -1.6600  0.9094
 4023SOL     OW22402   5.200   8.132   2.119  0.6650  0.0451 -0.3074
 4023SOL    HW122403   5.250   8.113   2.035  0.7310  0.1649 -0.2949
 4023SOL    HW222404   5.158   8.223   2.113  0.0081 -0.2681 -0.5352
 4024SOL     OW22405   9.204   3.569   4.015 -0.0161 -0.3063 -0.1708
 4024SOL    HW122406   9.205   3.661   3.975  0.9546 -0.2168  0.0518
 4024SOL    HW222407   9.150   3.570   4.099  2.0726  0.6528  1.1955
 4025SOL     OW22408   4.559   1.939   1.472  0.1651  0.5135  0.6175
 4025SOL    HW122409   4.629   1.989   1.420 -0.2753 -0.9689 -1.4980
 4025SOL    HW222410   4.474   1.938   1.420 -1.2071  1.5519  2.7836
 4026SOL     OW22411   9.201   2.841   1.027 -0.3817 -0.2578  0.4017
 4026SOL    HW122412   9.161   2.778   0.961 -1.4401  1.9209 -1.1355
 4026SOL    HW222413   9.292   2.870   0.995  0.1186 -1.0299  1.1184
 4027SOL     OW22414   9.060   3.619   0.209 -0.0492 -0.2511 -0.0024
 4027SOL    HW122415   8.999   3.697   0.219 -0.3063 -0.2895 -1.1775
 4027SOL    HW222416   9.009   3.534   0.223 -0.4613 -0.3140 -1.7616
 4028SOL     OW22417   4.416   7.892   1.573 -0.1750 -0.1276  0.0616
 4028SOL    HW122418   4.449   7.809   1.618  1.6298  0.1293 -0.7584
 4028SOL    HW222419   4.352   7.939   1.634 -1.3529 -2.1931  0.4671
 4029SOL     OW22420   4.115   0.118   3.772 -0.0776 -0.7806 -0.0447
 4029SOL    HW122421   4.019   0.137   3.789  0.1660 -1.2777  2.0285
 4029SOL    HW222422   4.164   0.204   3.759 -0.1610 -0.2697  2.6550
 4030SOL     OW22423   1.125   3.870   1.864  0.2793 -0.4491 -0.0643
 4030SOL    HW122424   1.063   3.863   1.942 -0.4371  0.4101 -0.5548
 4030SOL    HW222425   1.074   3.896   1.782  1.0032 -1.4842 -0.8617
 4031SOL     OW22426   3.036   5.184   2.996 -0.0837 -0.2795 -0.2575
 4031SOL    HW122427   2.999   5.223   3.080  1.5647  0.7820 -0.0045
 4031SOL    HW222428   2.961   5.160   2.934 -1.1841  1.6489  0.3130
 4032SOL     OW22429   1.743   8.242   2.746  0.1817  0.1955 -0.1049
 4032SOL    HW122430   1.719   8.237   2.649  1.3622  2.3599 -0.5454
 4032SOL    HW222431   1.837   8.212   2.758  0.7370  1.9637  0.0497
 4033SOL     OW22432   3.868   2.650   2.017  0.1194  0.0085 -0.1579
 4033SOL    HW122433   3.915   2.738   2.006 -1.7335  0.9368 -0.8505
 4033SOL    HW222434   3.833   2.643   2.111  2.8058 -1.2957  0.7810
 4034SOL     OW22435   8.317   8.918   2.179  0.0291  1.3580 -0.4900
 4034SOL    HW122436   8.348   9.013   2.169  1.3505  1.0636  0.7746
 4034SOL    HW222437   8.394   8.856   2.165 -0.8435  0.4435 -1.3833
 4035SOL     OW22438   9.061   8.698   0.730  0.1914  0.2565 -0.7473
 4035SOL    HW122439   9.090   8.781   0.681 -1.6046  0.6133 -1.2349
 4035SOL    HW222440   8.991   8.721   0.797  0.4411 -0.7157 -0.1371
 4036SOL     OW22441   4.630   0.227   2.376 -0.0666  0.2713  0.4548
 4036SOL    HW122442   4.547   0.171   2.368  0.3831 -0.4099  0.4890
 4036SOL    HW222443   4.605   0.324   2.380 -0.9963 -0.0097  2.3475
 4037SOL     OW22444   2.563   0.789   1.881 -0.1069 -0.1134 -0.1222
 4037SOL    HW122445   2.575   0.695   1.851  3.2530 -0.1492  1.0974
 4037SOL    HW222446   2.523   0.791   1.972 -0.3293 -0.3682 -0.2162
 4038SOL     OW22447   4.808   8.964   2.721 -0.2793 -0.2895 -0.0448
 4038SOL    HW122448   4.862   9.041   2.755 -1.0578 -0.4777  1.6084
 4038SOL    HW222449   4.777   8.908   2.797  2.1506 -3.5380 -1.3044
 4039SOL     OW22450   2.897   1.059   3.905  0.2282  0.0709  0.4094
 4039SOL    HW122451   2.835   1.024   3.835  0.1359  1.3289 -0.1633
 4039SOL    HW222452   2.887   1.158   3.911  2.7571  0.4155 -0.2598
 4040SOL     OW22453   8.614   0.904   1.433  0.5262 -0.0334  0.2285
 4040SOL    HW122454   8.537   0.907   1.496 -0.5912 -1.3931 -1.0211
 4040SOL    HW222455   8.597   0.966   1.356  1.4263  0.8636  0.7346
 4041SOL     OW22456   2.816   8.258   2.658 -0.0629  1.1118 -0.3137
 4041SOL    HW122457   2.779   8.169   2.683  1.2671  0.3688 -0.9380
 4041SOL    HW222458   2.867   8.297   2.735 -1.3763  1.7379  0.2508
 4042SOL     OW22459   5.570   8.668   2.529  0.0073  0.3267 -0.0432
 4042SOL    HW122460   5.655   8.711   2.558 -0.2139  1.2853 -0.8045
 4042SOL    HW222461   5.549   8.695   2.435 -1.6601  0.9059  0.4721
 4043SOL     OW22462   1.825   1.316   3.712  0.2789  0.7712 -0.0393
 4043SOL    HW122463   1.884   1.274   3.644  1.1145  2.9645 -0.6989
 4043SOL    HW222464   1.731   1.319   3.677 -0.1238 -1.9532  0.6755
 4044SOL     OW22465   2.438   3.215   2.025  0.0066  0.1393  0.4606
 4044SOL    HW122466   2.444   3.132   1.969  0.3634 -1.1106  2.3126
 4044SOL    HW222467   2.348   3.221   2.067  0.0057  0.6642  0.3882
 4045SOL     OW22468   1.393   5.131   1.027 -0.0285 -0.5229  0.4783
 4045SOL    HW122469   1.447   5.209   1.058  1.5232 -1.7959  1.0667
 4045SOL    HW222470   1.363   5.146   0.933 -1.1912  1.5111  1.1446
 4046SOL     OW22471   9.919   8.109   3.858  0.1086  0.0630  0.2559
 4046SOL    HW122472  10.001   8.052   3.847 -0.2352 -0.4817  0.5079
 4046SOL    HW222473   9.881   8.129   3.767  0.1190 -0.2673  0.1789
 4047SOL     OW22474   3.934   8.812   2.749  0.4046 -0.2139 -0.3055
 4047SOL    HW122475   3.900   8.850   2.835  1.6822 -0.1344  0.1687
 4047SOL    HW222476   4.016   8.862   2.721  0.7589 -1.1098 -0.8708
 4048SOL     OW22477   0.995   8.665   0.364 -0.8412 -0.0329  0.3841
 4048SOL    HW122478   0.905   8.627   0.386 -0.7601 -0.1217  0.5708
 4048SOL    HW222479   1.017   8.739   0.427 -1.1154  0.5055 -0.1574
 4049SOL     OW22480   0.842   2.114   0.429  0.4494 -0.2305  0.5826
 4049SOL    HW122481   0.759   2.114   0.484 -0.1073 -0.3632 -0.2512
 4049SOL    HW222482   0.895   2.031   0.447 -0.0509 -0.5817  0.4421
 4050SOL     OW22483   1.700   9.925   0.411  0.1842 -0.2659  0.3105
 4050SOL    HW122484   1.689   9.929   0.511 -1.1923 -1.2950  0.2168
 4050SOL    HW222485   1.633   9.985   0.368  1.0433  0.4877 -0.0039
 4051SOL     OW22486   9.787   0.937   2.438 -0.0061 -0.1416 -0.0445
 4051SOL    HW122487   9.697   0.895   2.447  0.1832 -0.3507  0.9044
 4051SOL    HW222488   9.799   1.004   2.511  0.8451 -0.5571  0.1991
 4052SOL     OW22489   9.679   9.526   0.610  0.2743 -0.1097  0.5510
 4052SOL    HW122490   9.747   9.517   0.683 -0.2787 -0.6049  1.0164
 4052SOL    HW222491   9.598   9.471   0.634  0.2551 -0.5957 -0.6326
 4053SOL     OW22492   1.677   0.597   1.622  0.0259  0.3481 -0.0787
 4053SOL    HW122493   1.680   0.607   1.722  1.5472 -1.5913  0.0878
 4053SOL    HW222494   1.605   0.534   1.597  0.5330 -0.2229 -0.1090
 4054SOL     OW22495   3.605   1.388   3.709 -0.4199  0.3919 -0.3286
 4054SOL    HW122496   3.535   1.425   3.769 -0.4787  0.8328 -0.6652
 4054SOL    HW222497   3.621   1.451   3.633 -0.7487 -0.4178 -1.0888
 4055SOL     OW22498   9.067   1.398   3.723  0.1407 -0.2925 -0.4054
 4055SOL    HW122499   9.161   1.411   3.693 -0.2815  1.4077 -1.0535
 4055SOL    HW222500   9.007   1.461   3.674 -0.7803  1.6120  3.0080
 4056SOL     OW22501   0.779   8.663   2.797  0.2728 -0.0333 -0.1759
 4056SOL    HW122502   0.781   8.563   2.801 -3.4613 -0.1348  0.3281
 4056SOL    HW222503   0.812   8.693   2.707  0.5995 -1.7470 -0.6495
 4057SOL     OW22504   2.206   1.252   3.138  0.5280  0.5805  0.4086
 4057SOL    HW122505   2.169   1.204   3.059  1.1394 -0.5060  0.7808
 4057SOL    HW222506   2.302   1.275   3.121  0.7508  0.0539  0.9752
 4058SOL     OW22507   4.739   0.199   1.983 -0.9735 -0.3806  0.0247
 4058SOL    HW122508   4.782   0.197   2.073 -1.7385 -0.5806  0.3886
 4058SOL    HW222509   4.755   0.289   1.941  0.6754 -0.7947 -0.2887
 4059SOL     OW22510   7.017   9.338   3.313  0.5360 -0.2630  0.0380
 4059SOL    HW122511   7.102   9.337   3.261  1.4027  0.8480  1.3941
 4059SOL    HW222512   6.982   9.244   3.321  2.0823 -0.8505  0.1893
 4060SOL     OW22513   4.219   9.584   0.883 -0.0101  0.7851 -0.2140
 4060SOL    HW122514   4.147   9.606   0.950 -1.1909 -1.5983 -0.6577
 4060SOL    HW222515   4.281   9.516   0.923  0.0510  0.3414 -1.0764
 4061SOL     OW22516   9.850   9.095   2.243 -0.1875  0.4759  0.8852
 4061SOL    HW122517   9.756   9.124   2.226 -0.0325 -1.0610 -3.2695
 4061SOL    HW222518   9.911   9.140   2.177  1.5763 -0.7387  1.6393
 4062SOL     OW22519   2.080   4.620   3.935  0.8023  0.3610  0.4358
 4062SOL    HW122520   2.051   4.575   4.020  1.8979 -2.4791 -0.6325
 4062SOL    HW222521   2.021   4.590   3.860  0.4665  2.0927  0.0051
 4063SOL     OW22522   9.993   2.642   1.645  0.4526 -0.3511 -0.2047
 4063SOL    HW122523  10.003   2.734   1.683  0.5074 -0.4276 -0.0326
 4063SOL    HW222524   9.985   2.577   1.720 -1.3347 -0.2921 -0.3243
 4064SOL     OW22525   1.448   8.956   2.526  0.0669 -0.9143 -0.1529
 4064SOL    HW122526   1.536   8.995   2.499 -1.2850  1.1442 -1.6701
 4064SOL    HW222527   1.403   9.017   2.591 -0.3080 -1.9184  0.5412
 4065SOL     OW22528   8.083   1.753   3.883  0.0138  0.1138 -0.1455
 4065SOL    HW122529   8.023   1.831   3.864 -0.2563 -0.1912 -0.5363
 4065SOL    HW222530   8.095   1.699   3.800  1.1244  0.3777 -0.1608
 4066SOL     OW22531   3.724   5.974   2.836 -0.2089  0.5898  0.2532
 4066SOL    HW122532   3.704   6.016   2.924 -0.9612  1.0381 -0.1263
 4066SOL    HW222533   3.676   6.023   2.763  0.3115  0.1570 -0.3982
 4067SOL     OW22534   2.116   6.738   3.492  0.2809 -0.2228  0.0818
 4067SOL    HW122535   2.029   6.767   3.453 -0.0613 -1.5434 -0.1563
 4067SOL    HW222536   2.100   6.671   3.564  1.0722  0.0043  0.4749
 4068SOL     OW22537   2.454   8.385   1.906  0.5811 -0.4893  0.2118
 4068SOL    HW122538   2.520   8.327   1.953  0.8330 -2.1413 -2.0801
 4068SOL    HW222539   2.393   8.428   1.973  0.7984 -2.8830  2.0220
 4069SOL     OW22540   2.652   7.925   1.638 -0.2867  0.2918  0.1889
 4069SOL    HW122541   2.616   7.832   1.624  1.2275 -0.1446 -0.8722
 4069SOL    HW222542   2.722   7.923   1.709  1.0358  0.2735 -1.0782
 4070SOL     OW22543   1.914   6.859   3.894  0.1824 -0.9411 -0.0420
 4070SOL    HW122544   1.976   6.786   3.923 -0.4365 -2.3484 -2.1495
 4070SOL    HW222545   1.945   6.896   3.807 -0.1119  0.5876  0.4974
 4071SOL     OW22546   4.009   8.101   2.386 -0.5085  0.2032  0.0262
 4071SOL    HW122547   4.106   8.079   2.380 -1.1413 -2.8062 -0.3521
 4071SOL    HW222548   3.982   8.109   2.482  0.2926  2.0343  0.1105
 4072SOL     OW22549   3.422   9.133   0.054  0.0152  0.0546 -0.5662
 4072SOL    HW122550   3.463   9.121   0.145  0.8111 -0.7678 -1.0240
 4072SOL    HW222551   3.453   9.219   0.015  0.3542  0.0062 -0.4063
 4073SOL     OW22552   1.803   6.784   1.109  0.6789  0.3973  0.4224
 4073SOL    HW122553   1.852   6.747   1.030  0.4749  1.6350 -0.2976
 4073SOL    HW222554   1.741   6.857   1.079  0.0116  0.3394  1.6182
 4074SOL     OW22555   2.239   1.853   2.865  0.3906  0.6809 -0.0976
 4074SOL    HW122556   2.275   1.774   2.916 -1.6604 -0.6340 -0.6339
 4074SOL    HW222557   2.277   1.852   2.772 -2.3196 -1.7315 -1.2391
 4075SOL     OW22558   2.704   2.198   2.098  0.4175 -0.1345 -0.2188
 4075SOL    HW122559   2.741   2.137   2.028  0.6084 -0.1634 -0.0921
 4075SOL    HW222560   2.734   2.167   2.189 -0.2866 -0.4291 -0.0807
 4076SOL     OW22561   6.034   9.227   2.308  0.6339 -0.1892  0.1191
 4076SOL    HW122562   5.942   9.223   2.347 -0.8185 -0.2053 -3.1082
 4076SOL    HW222563   6.054   9.320   2.279  0.4261 -0.7443 -1.8673
 4077SOL     OW22564   2.045   6.286   3.735 -0.3591  0.3836  0.0182
 4077SOL    HW122565   2.110   6.319   3.666  1.2713 -1.2152  0.7482
 4077SOL    HW222566   2.072   6.195   3.765 -0.3291  1.5211  3.6406
 4078SOL     OW22567   2.203   8.373   2.606 -0.1932 -0.2874  0.7530
 4078SOL    HW122568   2.277   8.352   2.670  0.3216  2.2990  1.0557
 4078SOL    HW222569   2.221   8.462   2.563 -2.2357 -0.4615 -0.4875
 4079SOL     OW22570   9.042   2.268   1.778  0.0213  0.0678 -0.0999
 4079SOL    HW122571   9.060   2.302   1.686  0.0703  0.6822  0.1352
 4079SOL    HW222572   9.020   2.345   1.838 -0.6892 -0.3973  0.2405
 4080SOL     OW22573   3.451   0.781   1.399  0.4062 -0.1657  0.1353
 4080SOL    HW122574   3.371   0.731   1.430  0.0537  0.4327  0.1917
 4080SOL    HW222575   3.532   0.748   1.447  0.4953 -2.1142 -1.3167
 4081SOL     OW22576   4.970   8.656   2.016  0.0665 -0.2711  0.3813
 4081SOL    HW122577   4.975   8.754   2.034 -0.0354 -0.1468 -0.2422
 4081SOL    HW222578   4.883   8.620   2.051 -1.3402  0.4771 -2.1647
 4082SOL     OW22579   8.513   2.552   3.394  0.0197 -0.0788  0.3027
 4082SOL    HW122580   8.586   2.614   3.423 -1.2789  0.7640  1.8604
 4082SOL    HW222581   8.498   2.562   3.296 -0.0223  1.9336  0.4919
 4083SOL     OW22582   0.837   1.049   0.607 -0.4726  0.8373  0.3883
 4083SOL    HW122583   0.908   0.978   0.609  0.5795  1.9078  1.9571
 4083SOL    HW222584   0.807   1.063   0.512  0.6084 -0.4024 -0.1627
 4084SOL     OW22585   9.734   0.758   0.863  0.4306 -0.3229  0.2202
 4084SOL    HW122586   9.679   0.794   0.938  0.0847 -1.1530  0.3720
 4084SOL    HW222587   9.692   0.674   0.828  2.0160 -1.3784  0.8336
 4085SOL     OW22588   4.801   8.616   1.451  0.1224 -0.0770  0.6555
 4085SOL    HW122589   4.803   8.667   1.365  0.3774 -1.9583 -0.5043
 4085SOL    HW222590   4.840   8.525   1.436 -2.3207 -1.4214  2.0773
 4086SOL     OW22591   9.478   2.925   3.699 -0.1618  0.5203 -0.1070
 4086SOL    HW122592   9.462   2.894   3.792 -0.9649  2.2975  0.3675
 4086SOL    HW222593   9.472   2.847   3.636 -2.9751 -0.1612  0.9288
 4087SOL     OW22594   3.217   3.721   1.012 -0.4609 -0.2127  0.1850
 4087SOL    HW122595   3.192   3.815   1.037 -1.1829 -0.2468 -0.3917
 4087SOL    HW222596   3.135   3.672   0.983  0.1489 -0.5836 -0.9214
 4088SOL     OW22597   1.286   1.553   3.681  0.0766 -0.3450 -0.0585
 4088SOL    HW122598   1.357   1.551   3.610  0.9915 -0.4019  0.8434
 4088SOL    HW222599   1.263   1.648   3.703  0.5214 -0.3118  0.2757
 4089SOL     OW22600   2.297   3.260   0.256 -0.3204 -0.6685  0.1823
 4089SOL    HW122601   2.305   3.263   0.356  1.1011 -1.3353  0.0986
 4089SOL    HW222602   2.338   3.342   0.217  1.5650 -1.6596  0.0223
 4090SOL     OW22603   9.315   2.499   0.708  0.2590  0.4956  0.6027
 4090SOL    HW122604   9.415   2.492   0.713  0.2617  0.3659  0.3841
 4090SOL    HW222605   9.274   2.415   0.743  0.2880 -0.5735 -1.7863
 4091SOL     OW22606   2.288   5.714   2.613  0.3524  0.4057  0.6607
 4091SOL    HW122607   2.381   5.702   2.648  0.3230 -0.6638  0.3973
 4091SOL    HW222608   2.291   5.722   2.513  0.0555 -1.0202  0.5218
 4092SOL     OW22609   1.564   3.538   1.747  0.0613  0.0960 -0.0950
 4092SOL    HW122610   1.582   3.479   1.668  0.5060 -0.5823  0.5027
 4092SOL    HW222611   1.473   3.578   1.739 -0.5203 -1.2174 -0.1753
 4093SOL     OW22612   7.763   8.484   3.129  0.4603 -0.8188  0.2926
 4093SOL    HW122613   7.842   8.494   3.069  0.5975  0.1245  0.6286
 4093SOL    HW222614   7.754   8.388   3.156  1.9523 -0.7988  0.8936
 4094SOL     OW22615   8.013   0.772   2.960  0.1432  0.1377 -0.2947
 4094SOL    HW122616   7.921   0.750   2.926 -0.2244 -0.0202  0.7687
 4094SOL    HW222617   8.055   0.841   2.901  0.0053 -1.0095 -1.7548
 4095SOL     OW22618   2.579   2.546   0.979 -0.1348 -0.2113  0.2919
 4095SOL    HW122619   2.610   2.637   0.952  0.7140 -0.9927 -1.3912
 4095SOL    HW222620   2.493   2.524   0.932  1.1834 -1.4463 -1.5904
 4096SOL     OW22621   2.235   7.789   1.364 -0.3908 -0.1482  0.2233
 4096SOL    HW122622   2.140   7.760   1.372 -0.2858 -0.4092  0.5613
 4096SOL    HW222623   2.261   7.841   1.446 -0.6429  1.1002 -0.4849
 4097SOL     OW22624   9.634   3.288   2.442  0.8169  0.0782 -0.0344
 4097SOL    HW122625   9.683   3.310   2.526  0.6098  3.0874 -0.6360
 4097SOL    HW222626   9.537   3.307   2.454  0.6862 -0.1226 -0.7512
 4098SOL     OW22627   0.860   3.895   0.342  0.0841  0.2619  0.5313
 4098SOL    HW122628   0.879   3.797   0.334  2.7851  0.6914  1.2675
 4098SOL    HW222629   0.774   3.908   0.391 -0.9298 -1.7500 -0.6363
 4099SOL     OW22630   7.526   2.039   3.631 -0.0398  0.3760  0.0188
 4099SOL    HW122631   7.587   2.067   3.557  0.2355  1.2174  0.5514
 4099SOL    HW222632   7.565   1.959   3.677 -0.1086 -0.0227 -0.6148
 4100SOL     OW22633   4.918   7.070   3.278  0.1862 -0.2865  0.1381
 4100SOL    HW122634   4.822   7.092   3.297  0.6797 -0.3469  2.9665
 4100SOL    HW222635   4.974   7.152   3.292  0.5143 -0.1266 -1.9817
 4101SOL     OW22636   9.197   0.174   3.968  0.3610  0.2187 -0.2491
 4101SOL    HW122637   9.189   0.273   3.977 -0.7489  0.3586 -2.4637
 4101SOL    HW222638   9.116   0.130   4.007  0.2862  0.2454 -0.3751
 4102SOL     OW22639   3.082   0.644   0.019  0.0544 -0.8190 -0.1093
 4102SOL    HW122640   3.092   0.644  -0.081  1.2000 -0.8851 -0.0089
 4102SOL    HW222641   3.152   0.704   0.059 -1.6679  0.7851  0.5520
 4103SOL     OW22642   3.174   8.492   1.511  0.1431 -0.2426 -0.1787
 4103SOL    HW122643   3.272   8.470   1.505 -0.1147 -2.0095  1.4199
 4103SOL    HW222644   3.155   8.531   1.601 -0.7555 -0.6249 -0.2020
 4104SOL     OW22645   4.640   8.903   4.039  0.1030  0.0658  0.7861
 4104SOL    HW122646   4.691   8.929   4.121 -0.2210 -0.0871  1.0351
 4104SOL    HW222647   4.542   8.897   4.061  0.0100  0.0735  0.3783
 4105SOL     OW22648   3.772   5.106   2.227  0.2621  0.0544  0.4281
 4105SOL    HW122649   3.744   5.184   2.283  0.2352  0.9235 -0.7675
 4105SOL    HW222650   3.705   5.033   2.237 -0.8137  0.9597 -0.0220
 4106SOL     OW22651   1.309   9.051   2.845 -0.4079  0.1341  0.1259
 4106SOL    HW122652   1.236   9.106   2.805 -0.4808  1.6739  2.2741
 4106SOL    HW222653   1.385   9.111   2.870  0.2449 -1.0034  0.8872
 4107SOL     OW22654   2.338   1.093   0.620  0.5688  0.2422 -0.0108
 4107SOL    HW122655   2.325   1.192   0.619  1.7086  0.4037  0.4196
 4107SOL    HW222656   2.318   1.057   0.711  0.5773  0.1378 -0.0496
 4108SOL     OW22657   1.741   3.423   3.005 -0.3276  0.1958 -0.6863
 4108SOL    HW122658   1.775   3.486   3.074 -0.4548  1.5177 -1.8204
 4108SOL    HW222659   1.742   3.467   2.915 -1.1005 -1.1620 -1.3846
 4109SOL     OW22660   7.464   3.636   0.959  0.1861 -0.3313 -0.5115
 4109SOL    HW122661   7.553   3.591   0.957 -0.8281 -2.5642  2.0871
 4109SOL    HW222662   7.447   3.673   1.051  0.2535  3.9943 -2.0862
 4110SOL     OW22663   2.918   1.959   2.616 -0.7608  0.0927 -0.3924
 4110SOL    HW122664   2.939   1.978   2.520 -2.4020  0.6497 -0.6556
 4110SOL    HW222665   2.987   2.001   2.675  0.0387  0.0741 -1.3192
 4111SOL     OW22666   8.199   1.439   2.196 -0.0863 -0.5857  0.2091
 4111SOL    HW122667   8.265   1.415   2.125 -0.9793 -0.9627 -0.5174
 4111SOL    HW222668   8.110   1.398   2.173 -0.8165  0.7483  0.6405
 4112SOL     OW22669   8.372   2.054   3.092  0.0580  0.2489  0.3095
 4112SOL    HW122670   8.402   2.109   3.014  0.2923 -0.2627  0.0376
 4112SOL    HW222671   8.272   2.048   3.092 -0.1308  2.6821  1.7063
 4113SOL     OW22672   1.573   3.154   2.375 -0.1949 -1.1047  0.4062
 4113SOL    HW122673   1.625   3.080   2.332  0.2906 -0.9060  0.6407
 4113SOL    HW222674   1.582   3.237   2.321 -1.7549 -1.5151 -0.5285
 4114SOL     OW22675   0.887   7.930   0.207  0.0568 -0.2724 -0.3828
 4114SOL    HW122676   0.919   7.912   0.114  0.6784 -0.2776 -0.1701
 4114SOL    HW222677   0.944   7.879   0.272 -2.2901 -2.7784 -0.1707
 4115SOL     OW22678   1.759   2.316   3.047 -0.4646 -0.6309 -0.3582
 4115SOL    HW122679   1.672   2.281   3.014 -1.3553  0.7527  0.4504
 4115SOL    HW222680   1.801   2.250   3.109 -2.3678 -0.1083  1.5577
 4116SOL     OW22681   7.222   3.589   0.859  0.7778  0.3007  0.0775
 4116SOL    HW122682   7.310   3.604   0.904  1.4907  0.8787 -1.4573
 4116SOL    HW222683   7.196   3.672   0.808 -1.0349  0.4138  1.1298
 4117SOL     OW22684   0.801   2.633   2.488 -0.0975  0.2618 -0.1343
 4117SOL    HW122685   0.814   2.732   2.479 -1.4394  0.4396 -0.2086
 4117SOL    HW222686   0.743   2.600   2.414 -1.4088 -0.2296  1.0840
 4118SOL     OW22687   0.877   0.794   1.913 -0.5528 -0.6767 -0.2283
 4118SOL    HW122688   0.799   0.742   1.878  0.0680 -0.7394 -1.5580
 4118SOL    HW222689   0.949   0.730   1.942 -1.0752 -0.6280  1.2461
 4119SOL     OW22690   1.605   7.289   2.156 -0.2191 -0.1297  0.0648
 4119SOL    HW122691   1.606   7.190   2.141 -2.3491  0.1798 -2.3306
 4119SOL    HW222692   1.666   7.334   2.090 -0.7534  0.3078 -0.1360
 4120SOL     OW22693   8.330   9.299   3.016 -0.8051  0.1413 -0.1489
 4120SOL    HW122694   8.315   9.386   2.971 -2.8787  0.1559  0.5202
 4120SOL    HW222695   8.414   9.304   3.071 -1.0803  1.8274  0.1511
 4121SOL     OW22696   9.705   1.840   3.707 -0.1259  0.0670  0.1570
 4121SOL    HW122697   9.695   1.744   3.680 -1.2166 -0.1619  1.3141
 4121SOL    HW222698   9.783   1.850   3.769  0.9712  0.2108 -1.2245
 4122SOL     OW22699   1.652   4.581   3.516  0.4089 -0.4437  0.8842
 4122SOL    HW122700   1.639   4.507   3.451  0.5310 -0.0354  0.3894
 4122SOL    HW222701   1.730   4.638   3.487  0.2552 -0.0672  1.2007
 4123SOL     OW22702   2.406   9.196   1.626 -0.0820  0.0908 -0.4709
 4123SOL    HW122703   2.368   9.110   1.661 -0.4686 -0.0575 -1.2302
 4123SOL    HW222704   2.333   9.264   1.619  0.6232  1.1537  2.1338
 4124SOL     OW22705   0.384   0.010   1.404 -0.3207  0.1089  0.1105
 4124SOL    HW122706   0.334   0.085   1.360  0.0315 -0.2301 -0.8768
 4124SOL    HW222707   0.482   0.030   1.404 -0.1675 -0.6596 -0.7476
 4125SOL     OW22708   2.808   7.583   1.798  0.2245 -0.2391 -0.1124
 4125SOL    HW122709   2.866   7.654   1.838 -0.2927 -2.2565  4.4960
 4125SOL    HW222710   2.712   7.612   1.802  0.2448 -0.0466 -0.8636
 4126SOL     OW22711   1.776   1.672   2.289  0.1485  0.2601 -0.2178
 4126SOL    HW122712   1.833   1.715   2.359  0.8141  0.3206 -0.7896
 4126SOL    HW222713   1.831   1.607   2.238 -0.1273  0.8102 -1.2218
 4127SOL     OW22714   4.056   2.634   0.436 -0.1003 -0.4589  0.1020
 4127SOL    HW122715   4.063   2.734   0.434 -0.1872 -0.4091  1.9289
 4127SOL    HW222716   4.018   2.602   0.349 -0.0253  1.0838 -0.5216
 4128SOL     OW22717   9.268   2.464   1.237  1.3558 -0.2923 -0.8615
 4128SOL    HW122718   9.319   2.534   1.286 -0.0806 -0.5771  1.1358
 4128SOL    HW222719   9.257   2.490   1.141  1.9415  1.5847 -0.4341
 4129SOL     OW22720   2.360   7.983   1.574 -0.3039  0.1858  0.3106
 4129SOL    HW122721   2.333   7.972   1.670  0.9132 -0.1993  0.6177
 4129SOL    HW222722   2.440   8.042   1.568  0.2775 -0.6531 -0.3710
 4130SOL     OW22723   9.930   0.595   1.375  0.5819  0.1918  0.2217
 4130SOL    HW122724   9.886   0.673   1.419  1.0779 -0.2603  1.5713
 4130SOL    HW222725   9.895   0.510   1.415 -0.3456 -0.3114 -1.5966
 4131SOL     OW22726   2.121   8.166   2.920 -0.1828  0.2068  0.0224
 4131SOL    HW122727   2.086   8.098   2.855  0.2864 -1.2055  1.2268
 4131SOL    HW222728   2.045   8.225   2.948 -0.6947 -0.0862 -0.6902
 4132SOL     OW22729   3.641   9.471   0.695 -0.4673 -0.1504 -1.1084
 4132SOL    HW122730   3.721   9.527   0.719 -0.1882 -0.1344 -2.0732
 4132SOL    HW222731   3.671   9.381   0.665 -0.8836 -0.5823 -0.2318
 4133SOL     OW22732   8.385   6.373   0.335  0.2738 -0.0770  0.5830
 4133SOL    HW122733   8.322   6.448   0.355  1.4047  1.5168 -1.6503
 4133SOL    HW222734   8.334   6.287   0.331 -1.1058  0.5837  2.7598
 4134SOL     OW22735   1.779   9.957   3.645  0.6283  0.0835 -0.3880
 4134SOL    HW122736   1.788   9.918   3.553 -0.1119  0.4328 -0.6149
 4134SOL    HW222737   1.870   9.972   3.684  0.9614  0.4275 -1.2842
 4135SOL     OW22738   3.970   7.195   2.654 -0.1348  0.2403  0.5771
 4135SOL    HW122739   3.952   7.097   2.657 -0.1633  0.2431  0.4726
 4135SOL    HW222740   4.063   7.212   2.686  0.1967  0.0987 -0.3068
 4136SOL     OW22741   0.656   2.237   2.826 -0.5606 -0.2202  0.0101
 4136SOL    HW122742   0.584   2.189   2.775 -1.1799  1.7249 -0.9883
 4136SOL    HW222743   0.649   2.335   2.808  1.1560  0.1715  1.4350
 4137SOL     OW22744   2.685   6.903   0.703 -0.5829  0.7119 -0.0859
 4137SOL    HW122745   2.752   6.934   0.634 -1.0033  1.3528 -0.2092
 4137SOL    HW222746   2.599   6.882   0.657 -1.5192  3.1167  0.4759
 4138SOL     OW22747   4.241   8.400   3.961  0.1006  0.2345  0.0613
 4138SOL    HW122748   4.160   8.425   4.014 -0.1956  0.8471 -0.6869
 4138SOL    HW222749   4.215   8.337   3.888  0.2070  0.8854 -0.5384
 4139SOL     OW22750   3.594   1.373   1.285  0.0171  0.2867  0.2086
 4139SOL    HW122751   3.522   1.303   1.291  0.3815 -0.2719 -1.5656
 4139SOL    HW222752   3.643   1.363   1.199  1.7359  1.1613  1.0554
 4140SOL     OW22753   1.679   2.909   2.895 -0.3016  0.4056  0.0279
 4140SOL    HW122754   1.601   2.959   2.858 -0.6663 -0.6231 -0.6283
 4140SOL    HW222755   1.646   2.833   2.951  0.2065 -0.3473 -0.6803
 4141SOL     OW22756   7.654   2.266   0.765 -0.2119 -0.6616  0.6123
 4141SOL    HW122757   7.649   2.215   0.679 -1.2836  0.0412  0.2448
 4141SOL    HW222758   7.715   2.345   0.753 -1.9562  0.6144 -0.1548
 4142SOL     OW22759   2.021   2.411   0.468 -0.5160  0.2006 -0.1266
 4142SOL    HW122760   2.057   2.323   0.438  0.5970  0.5481  0.1477
 4142SOL    HW222761   1.945   2.397   0.531 -0.1049 -0.5762  0.2040
 4143SOL     OW22762   2.167   5.301   1.338  0.4425  0.3883  0.4406
 4143SOL    HW122763   2.212   5.331   1.421 -0.1327 -0.6619  1.1528
 4143SOL    HW222764   2.180   5.202   1.327  2.1888  0.8277 -1.7637
 4144SOL     OW22765   0.791   9.604   3.122 -0.3470  0.2033 -0.0045
 4144SOL    HW122766   0.847   9.522   3.107 -2.8172 -1.4643 -0.3977
 4144SOL    HW222767   0.825   9.678   3.064  2.2083 -0.3648  0.6878
 4145SOL     OW22768   0.403   9.094   3.561 -0.1055  0.7669  0.4279
 4145SOL    HW122769   0.382   9.192   3.558 -0.8927  0.6368  1.3731
 4145SOL    HW222770   0.406   9.057   3.468 -2.4823  1.1455  0.1678
 4146SOL     OW22771   0.645   3.899   0.503 -0.1983  0.6892  0.3480
 4146SOL    HW122772   0.582   3.873   0.577  1.9515  1.0127  2.3303
 4146SOL    HW222773   0.632   3.995   0.480 -0.3153  0.7929  0.8494
 4147SOL     OW22774   8.953   2.052   0.789 -0.3450 -0.3693 -0.3135
 4147SOL    HW122775   8.989   1.991   0.718 -0.2052  0.7242 -1.1841
 4147SOL    HW222776   9.000   2.033   0.875  2.5939  1.2447 -1.4973
 4148SOL     OW22777   0.853   2.661   0.611  0.5957 -0.0305 -0.3062
 4148SOL    HW122778   0.889   2.614   0.691 -0.6926  0.5298  0.6273
 4148SOL    HW222779   0.852   2.760   0.627  1.5110  0.1856 -1.5128
 4149SOL     OW22780   3.797   4.263   0.469  0.2426  0.0446 -0.1444
 4149SOL    HW122781   3.850   4.301   0.393 -0.2149  0.1051 -0.4313
 4149SOL    HW222782   3.852   4.193   0.515  0.7065  0.3487 -0.2245
 4150SOL     OW22783   0.342   3.072   1.562  0.2606 -0.0099 -0.4628
 4150SOL    HW122784   0.332   3.060   1.463  0.1891 -0.8133 -0.3625
 4150SOL    HW222785   0.310   2.989   1.609  1.1818 -0.0075  0.1871
 4151SOL     OW22786   2.980   3.502   2.979 -0.3373 -0.3159  0.2225
 4151SOL    HW122787   3.052   3.532   2.918  0.3613  0.8692  1.5992
 4151SOL    HW222788   3.001   3.410   3.014 -0.0551 -0.4181 -0.2188
 4152SOL     OW22789   3.538   4.253   0.579 -0.7466  0.2217 -0.7672
 4152SOL    HW122790   3.527   4.325   0.647  0.4228  0.6435 -1.0131
 4152SOL    HW222791   3.622   4.268   0.528 -0.0371 -1.7958 -0.2438
 4153SOL     OW22792   8.301   2.784   1.353  0.1057  0.1755 -0.1478
 4153SOL    HW122793   8.324   2.870   1.307 -1.3389  0.3336 -0.5904
 4153SOL    HW222794   8.300   2.799   1.452  0.2757  0.5658 -0.2028
 4154SOL     OW22795   4.354   7.894   0.920 -0.5017 -0.1280  0.0966
 4154SOL    HW122796   4.325   7.819   0.861  0.4930 -0.7452  0.3817
 4154SOL    HW222797   4.280   7.961   0.928 -1.2073 -0.8228 -0.5701
 4155SOL     OW22798   9.044   0.871   0.806  0.4991  0.4643 -0.4636
 4155SOL    HW122799   9.095   0.893   0.889 -1.2124  0.9706  0.4737
 4155SOL    HW222800   9.094   0.907   0.727  2.9671 -1.4439  0.1462
 4156SOL     OW22801   9.388   0.120   0.287 -0.3350  0.4154 -0.0314
 4156SOL    HW122802   9.343   0.083   0.368  0.8335  0.9549  0.8832
 4156SOL    HW222803   9.426   0.210   0.308 -0.4988  0.8036 -1.3468
 4157SOL     OW22804   0.682   3.870   2.705  0.2164 -0.4011 -0.5529
 4157SOL    HW122805   0.780   3.861   2.688  0.2282  0.2508 -0.8195
 4157SOL    HW222806   0.633   3.802   2.651  0.5436 -0.9594 -0.1564
 4158SOL     OW22807   9.688   2.976   1.891  0.6018 -0.5028  0.1746
 4158SOL    HW122808   9.687   3.044   1.964  1.2782 -0.6198  0.2971
 4158SOL    HW222809   9.612   2.994   1.828  0.6368  0.2267  0.3337
 4159SOL     OW22810   3.357   1.748   0.432  0.1027 -0.2567  0.1695
 4159SOL    HW122811   3.424   1.675   0.419 -0.0870 -0.5075  0.5726
 4159SOL    HW222812   3.269   1.719   0.397  0.6248  0.8007 -2.1198
 4160SOL     OW22813   3.596   8.427   2.675 -0.2939  0.0773 -0.2326
 4160SOL    HW122814   3.678   8.400   2.726  0.7611 -0.8504 -2.3546
 4160SOL    HW222815   3.615   8.509   2.622 -1.2950  0.8775  0.6312
 4161SOL     OW22816   3.052   0.619   0.602 -0.1445 -0.2633  0.9146
 4161SOL    HW122817   3.026   0.705   0.647  0.9640 -0.0488  1.1560
 4161SOL    HW222818   3.151   0.609   0.604 -0.2753 -1.6137  0.9718
 4162SOL     OW22819   5.772   9.084   2.431 -0.2004 -0.4349 -0.4973
 4162SOL    HW122820   5.835   9.006   2.432  0.7214  0.3106 -0.2197
 4162SOL    HW222821   5.737   9.101   2.523 -0.5735 -0.6501 -0.5963
 4163SOL     OW22822   3.055   6.283   0.195  0.1265 -1.0152  0.2697
 4163SOL    HW122823   3.117   6.304   0.120  1.0764  1.2903  1.6127
 4163SOL    HW222824   2.969   6.332   0.182 -1.2517 -3.7916 -1.3217
 4164SOL     OW22825   3.627   1.356   2.173  0.5987  0.3900 -0.5908
 4164SOL    HW122826   3.644   1.408   2.090 -0.3322 -1.6131 -2.0824
 4164SOL    HW222827   3.530   1.333   2.180  0.8718 -0.5203  0.4057
 4165SOL     OW22828   3.615   4.090   4.005  0.4324  0.5821 -0.0722
 4165SOL    HW122829   3.691   4.088   3.941 -0.0182 -0.0194 -0.5964
 4165SOL    HW222830   3.529   4.073   3.956 -0.3131  3.4312  0.1459
 4166SOL     OW22831   0.936   8.661   3.543 -0.1307  0.1546 -0.2560
 4166SOL    HW122832   0.840   8.684   3.559 -0.4063 -0.1578 -1.4231
 4166SOL    HW222833   0.982   8.646   3.631 -0.7751  1.7676  0.3788
 4167SOL     OW22834   3.662   7.988   1.107  0.0322  0.1248  0.7523
 4167SOL    HW122835   3.676   8.085   1.085  0.3781 -0.0195  0.3428
 4167SOL    HW222836   3.571   7.960   1.075 -0.2122  0.4038  1.1889
 4168SOL     OW22837   6.494   8.575   2.471  0.9933 -0.5237 -0.0139
 4168SOL    HW122838   6.557   8.530   2.534  1.7365  0.7101  0.1436
 4168SOL    HW222839   6.537   8.657   2.434  0.4292 -1.0367 -1.8590
 4169SOL     OW22840   1.972   7.843   2.824 -0.2986 -0.1499 -0.6140
 4169SOL    HW122841   1.949   7.754   2.786  0.9621 -1.5763  1.8888
 4169SOL    HW222842   2.038   7.833   2.898 -2.7336  2.4947  2.1113
 4170SOL     OW22843   9.482   2.657   2.211 -0.1409 -0.1644  0.5136
 4170SOL    HW122844   9.542   2.692   2.139  0.8106 -2.7791 -0.0419
 4170SOL    HW222845   9.437   2.733   2.257 -0.3632  1.6160 -2.4884
 4171SOL     OW22846   1.423   5.768   0.708  0.1742  0.0587  0.3732
 4171SOL    HW122847   1.483   5.701   0.665 -0.1460  0.4130 -0.6187
 4171SOL    HW222848   1.478   5.848   0.735  0.2197  0.1927 -0.1243
 4172SOL     OW22849   0.979   2.356   1.581 -0.6143 -0.0518 -0.3006
 4172SOL    HW122850   0.908   2.394   1.641 -0.2794  1.7928 -1.0319
 4172SOL    HW222851   0.963   2.388   1.487  0.1305 -1.1338 -0.8052
 4173SOL     OW22852   8.765   4.989   0.828 -0.4946 -0.0635  0.2586
 4173SOL    HW122853   8.854   4.961   0.864 -1.6012 -0.8466  2.4890
 4173SOL    HW222854   8.729   5.065   0.881 -1.6435 -0.4692  0.0922
 4174SOL     OW22855   2.366   0.620   2.891 -0.1661 -0.0348 -0.3138
 4174SOL    HW122856   2.415   0.656   2.811 -1.5370 -0.4975 -1.3704
 4174SOL    HW222857   2.427   0.621   2.971  1.0395  0.9431 -1.2340
 4175SOL     OW22858   2.282   2.237   2.581  0.4455 -0.3539  0.4596
 4175SOL    HW122859   2.324   2.148   2.561  1.3253  0.1245  0.1711
 4175SOL    HW222860   2.212   2.258   2.512 -1.9074 -2.1799  2.1807
 4176SOL     OW22861   7.821   3.186   0.648  0.4617  1.1419 -0.2757
 4176SOL    HW122862   7.824   3.183   0.548  0.1672  1.5056 -0.2988
 4176SOL    HW222863   7.735   3.146   0.681  0.1157  1.9077 -0.2208
 4177SOL     OW22864   9.086   3.213   2.652  0.0061  0.1878  0.3594
 4177SOL    HW122865   9.116   3.308   2.651  0.9068 -0.0887 -1.0112
 4177SOL    HW222866   9.160   3.155   2.686 -0.0140 -0.1787 -0.2098
 4178SOL     OW22867   8.547   2.654   1.737 -0.4385 -0.3695 -0.2727
 4178SOL    HW122868   8.513   2.586   1.672 -0.9012 -0.4173  0.0125
 4178SOL    HW222869   8.516   2.631   1.829 -0.5315  0.1794 -0.1615
 4179SOL     OW22870   0.085   1.289   1.186  0.2017  0.1319 -0.8297
 4179SOL    HW122871   0.054   1.379   1.217  1.8654  0.2447  0.5797
 4179SOL    HW222872   0.073   1.222   1.259 -0.1479 -0.6027 -1.5448
 4180SOL     OW22873   9.388   0.444   1.716 -0.5836  0.6603 -0.0779
 4180SOL    HW122874   9.482   0.415   1.737 -0.5128  1.2650  0.4721
 4180SOL    HW222875   9.391   0.515   1.645 -0.6669  0.2172 -0.5228
 4181SOL     OW22876   1.448   9.012   1.397  0.6608  0.6222  0.1366
 4181SOL    HW122877   1.526   8.980   1.343 -0.2373  0.2324 -0.9430
 4181SOL    HW222878   1.473   9.096   1.446  2.0700 -0.0577  0.6010
 4182SOL     OW22879   8.210   9.402   2.179 -0.0464 -0.2638  0.0861
 4182SOL    HW122880   8.233   9.499   2.170 -1.8061  0.4372  2.6407
 4182SOL    HW222881   8.111   9.390   2.172 -0.0491 -1.5784  1.9368
 4183SOL     OW22882   3.476   2.785   0.997  0.2976  0.5009 -0.3488
 4183SOL    HW122883   3.518   2.788   1.087 -2.1086 -1.0915  0.8887
 4183SOL    HW222884   3.461   2.689   0.971 -0.9506  0.9999 -1.5145
 4184SOL     OW22885   0.430   0.615   1.830  0.0227  0.3793 -0.0302
 4184SOL    HW122886   0.361   0.591   1.762  0.7710  0.0346 -0.6741
 4184SOL    HW222887   0.435   0.544   1.900  0.5444 -0.1634 -0.6202
 4185SOL     OW22888   3.383   5.698   2.289 -0.0098 -0.3357  0.6827
 4185SOL    HW122889   3.473   5.732   2.317 -0.5261  2.0763 -0.4713
 4185SOL    HW222890   3.313   5.734   2.350 -0.5202  0.3344 -0.2905
 4186SOL     OW22891   8.876   2.683   1.899 -0.1585  0.5450 -0.3132
 4186SOL    HW122892   8.867   2.686   1.799 -2.3950  0.9339 -0.1238
 4186SOL    HW222893   8.833   2.764   1.939  0.4413  0.2371  0.9922
 4187SOL     OW22894   0.408   3.575   0.635  0.5334 -0.1914  0.3217
 4187SOL    HW122895   0.492   3.523   0.647  1.7517  1.2550 -1.5808
 4187SOL    HW222896   0.423   3.670   0.661 -0.4542  0.1048 -0.1578
 4188SOL     OW22897   3.942   8.354   0.363 -0.0789  0.0946 -0.4799
 4188SOL    HW122898   3.844   8.364   0.380 -0.0729  1.4550 -1.2098
 4188SOL    HW222899   3.960   8.261   0.330 -1.0220 -0.3784  0.3055
 4189SOL     OW22900   2.018   5.798   1.895  0.4661 -0.3181  0.0046
 4189SOL    HW122901   1.981   5.741   1.969  0.0301  1.0092  0.8346
 4189SOL    HW222902   2.039   5.890   1.931  0.8789  0.1356 -1.3677
 4190SOL     OW22903   8.039   1.485   2.555  0.3974  0.1225  0.6195
 4190SOL    HW122904   8.039   1.542   2.473  0.6405  2.5978  2.2835
 4190SOL    HW222905   8.103   1.409   2.543 -0.6397 -0.3820 -2.0103
 4191SOL     OW22906   0.842   1.827   2.588 -0.4575  0.1228 -0.0226
 4191SOL    HW122907   0.904   1.799   2.662  0.9701  2.0004 -0.4586
 4191SOL    HW222908   0.780   1.899   2.621  0.6728  1.4941 -0.7989
 4192SOL     OW22909   9.638   3.890   1.165 -0.5102 -0.7046  0.2063
 4192SOL    HW122910   9.575   3.833   1.218  0.1121 -0.8845  0.7603
 4192SOL    HW222911   9.586   3.946   1.101 -1.3450  0.0743  1.5444
 4193SOL     OW22912   9.670   8.100   1.440  0.0275 -0.1732  0.8826
 4193SOL    HW122913   9.696   8.116   1.535  0.7753 -0.3343  0.7008
 4193SOL    HW222914   9.648   8.187   1.396  1.3412  0.0837  0.7159
 4194SOL     OW22915   1.230   7.503   3.078  0.5088  0.0288 -0.3145
 4194SOL    HW122916   1.277   7.496   3.166  0.3694  1.7213 -0.0820
 4194SOL    HW222917   1.132   7.492   3.091  0.5719 -0.6672 -0.4008
 4195SOL     OW22918   1.285   4.030   3.567  0.0731 -0.1780  0.4192
 4195SOL    HW122919   1.207   4.090   3.586 -0.4289 -0.4768 -0.6371
 4195SOL    HW222920   1.254   3.951   3.514  1.0596 -0.3858  0.1360
 4196SOL     OW22921   0.449   2.997   2.435 -0.0632 -0.2656 -0.2641
 4196SOL    HW122922   0.457   2.953   2.346 -1.2038  0.1638 -0.5902
 4196SOL    HW222923   0.353   3.020   2.452  0.5524  2.5794 -0.3679
 4197SOL     OW22924   9.689   8.733   1.492  0.1276 -0.5863  0.1658
 4197SOL    HW122925   9.615   8.796   1.470 -0.5541 -1.4311  0.0230
 4197SOL    HW222926   9.777   8.781   1.487 -0.5060  0.7466  1.6295
 4198SOL     OW22927   1.332   9.971   2.969 -0.1329 -0.1582  0.1495
 4198SOL    HW122928   1.378  10.055   2.939 -0.3840 -0.1906 -0.3466
 4198SOL    HW222929   1.266   9.943   2.898  0.1617 -0.9302  0.1814
 4199SOL     OW22930   4.201   2.982   3.431 -0.1383 -0.9760 -0.0802
 4199SOL    HW122931   4.267   3.022   3.367  0.9205 -1.0732  0.9106
 4199SOL    HW222932   4.234   2.996   3.525 -2.0996 -0.0468  0.4903
 4200SOL     OW22933   3.526   7.743   1.938  0.2020  0.2343 -0.6917
 4200SOL    HW122934   3.596   7.725   1.868  0.4285  1.4155 -0.7707
 4200SOL    HW222935   3.532   7.838   1.968  0.9090 -0.5349  1.8145
 4201SOL     OW22936   8.314   6.076   0.500  0.0686  0.5603 -0.0538
 4201SOL    HW122937   8.348   5.985   0.523 -0.5560  0.4966  0.6466
 4201SOL    HW222938   8.291   6.080   0.403 -1.1014 -0.4222  0.1724
 4202SOL     OW22939   1.293   1.573   1.882  0.2643  0.3247 -0.1079
 4202SOL    HW122940   1.216   1.510   1.883  0.1497  0.4293 -1.4331
 4202SOL    HW222941   1.298   1.621   1.969  1.0659 -2.3593  1.3730
 4203SOL     OW22942   4.546   8.900   2.271 -0.0388  0.5996  0.0763
 4203SOL    HW122943   4.600   8.851   2.203  0.2851  0.7110  0.2530
 4203SOL    HW222944   4.603   8.969   2.316 -0.3699  0.8285  0.1487
 4204SOL     OW22945   3.005   8.157   1.751  0.0396  0.1876  0.0656
 4204SOL    HW122946   2.997   8.174   1.653 -2.6638  0.5137  0.3051
 4204SOL    HW222947   3.089   8.200   1.785  1.5531 -0.8348 -2.2583
 4205SOL     OW22948   7.535   2.635   0.213  0.0029 -0.7240 -0.3305
 4205SOL    HW122949   7.580   2.581   0.142 -1.6711 -1.3184 -0.9540
 4205SOL    HW222950   7.468   2.578   0.261 -0.6300  0.3450  0.0768
 4206SOL     OW22951   0.001   1.767   2.154  0.4795  0.0972 -0.1401
 4206SOL    HW122952  -0.016   1.858   2.116 -2.5432 -0.2198  0.2965
 4206SOL    HW222953   0.032   1.777   2.249  1.3657  0.7046 -0.4886
 4207SOL     OW22954   0.988   4.549   1.845  0.2358  0.2509  0.6678
 4207SOL    HW122955   0.921   4.501   1.789  1.9542 -0.0432 -1.1813
 4207SOL    HW222956   1.016   4.633   1.799  2.2053 -0.3593  0.7002
 4208SOL     OW22957   0.996   6.741   0.124  0.4024 -0.0478  0.1028
 4208SOL    HW122958   0.963   6.755   0.030  2.0531 -1.3849 -0.7053
 4208SOL    HW222959   1.040   6.652   0.131  1.1415  0.4318  1.9239
 4209SOL     OW22960   3.504   3.121   1.606  1.1690 -0.2298  0.1840
 4209SOL    HW122961   3.508   3.152   1.511 -1.1505 -0.3811 -0.0023
 4209SOL    HW222962   3.476   3.197   1.665 -0.2946 -0.8430  0.3133
 4210SOL     OW22963   0.016   9.630   3.518 -0.6387 -0.1444 -0.2552
 4210SOL    HW122964   0.015   9.630   3.618 -2.2656 -2.6575 -0.2215
 4210SOL    HW222965  -0.076   9.611   3.483 -0.8754  4.1799 -2.3398
 4211SOL     OW22966   3.807   8.892   3.000  0.8909  0.1649 -0.5330
 4211SOL    HW122967   3.842   8.805   3.036  1.4941  0.3326 -0.6989
 4211SOL    HW222968   3.880   8.961   3.003  0.8091  0.3094 -1.6280
 4212SOL     OW22969   9.293   2.987   2.380  0.5601 -0.1905  0.2787
 4212SOL    HW122970   9.244   3.070   2.356  2.4492  0.3297 -1.9462
 4212SOL    HW222971   9.246   2.908   2.342 -0.0731  0.0481  0.5565
 4213SOL     OW22972   0.335   2.680   1.601  0.1403  0.2951 -0.3271
 4213SOL    HW122973   0.401   2.647   1.668 -1.2770 -1.0835  0.4267
 4213SOL    HW222974   0.301   2.770   1.629 -0.1013 -0.0663  0.5464
 4214SOL     OW22975   2.453   1.206   2.194  0.6615  0.1579 -0.1741
 4214SOL    HW122976   2.420   1.300   2.198  1.7827  0.5554 -0.2132
 4214SOL    HW222977   2.444   1.171   2.101 -2.6964 -0.8620  0.4614
 4215SOL     OW22978   0.957   4.693   3.255  0.1023  0.2071  0.4285
 4215SOL    HW122979   0.863   4.677   3.225  1.0837 -2.7426 -1.3287
 4215SOL    HW222980   0.969   4.789   3.279 -2.8457  1.0458 -1.2301
 4216SOL     OW22981   3.811   3.619   3.286 -0.3125  0.0977 -0.6109
 4216SOL    HW122982   3.847   3.543   3.231 -0.1875 -0.3588  0.0956
 4216SOL    HW222983   3.711   3.616   3.286 -0.3324  0.6300 -1.5506
 4217SOL     OW22984   7.791   1.238   3.947  0.2682  0.0152  0.8633
 4217SOL    HW122985   7.711   1.214   3.891  0.7854 -1.3867  0.7042
 4217SOL    HW222986   7.833   1.321   3.911 -1.3274  1.0042  1.1769
 4218SOL     OW22987   1.816   0.428   0.189 -0.2180  0.0115  0.1149
 4218SOL    HW122988   1.846   0.523   0.195  1.2170 -0.3383 -1.2474
 4218SOL    HW222989   1.854   0.376   0.265 -0.2739  0.3380  0.3662
 4219SOL     OW22990   3.655   3.997   1.327  0.1326 -0.0854  0.0543
 4219SOL    HW122991   3.726   4.049   1.280  0.6602 -0.7532  0.0951
 4219SOL    HW222992   3.637   4.037   1.416  1.3169 -0.6152  0.5414
 4220SOL     OW22993   1.806   3.448   0.383  0.5020  0.4623 -0.6664
 4220SOL    HW122994   1.882   3.416   0.326 -0.1338 -0.2830 -1.1084
 4220SOL    HW222995   1.749   3.370   0.409 -0.3387  1.0657 -0.6829
 4221SOL     OW22996   4.414   2.507   0.980 -0.0586  0.0339 -0.1456
 4221SOL    HW122997   4.318   2.490   0.956 -0.1165  0.7399 -0.4220
 4221SOL    HW222998   4.418   2.556   1.066  0.0200  0.8279 -0.5977
 4222SOL     OW22999   7.814   2.383   1.010  0.2304 -0.0867  0.2344
 4222SOL    HW123000   7.736   2.323   1.026  1.0960 -1.0512  0.9091
 4222SOL    HW223001   7.829   2.393   0.911 -0.1513 -0.6911  0.1128
 4223SOL     OW23002   4.104   0.682   2.091  0.3612  0.4379 -0.2173
 4223SOL    HW123003   4.143   0.660   2.002  0.4692  0.6293 -0.2161
 4223SOL    HW223004   4.030   0.748   2.080 -1.6660 -1.8193 -0.5028
 4224SOL     OW23005   2.251   8.803   2.359  0.0239 -0.1995 -0.5309
 4224SOL    HW123006   2.317   8.878   2.364  0.9685 -1.0220 -0.5961
 4224SOL    HW223007   2.170   8.834   2.308  0.8782  0.4233 -1.5243
 4225SOL     OW23008   9.508   0.363   0.315 -0.4083 -0.1406 -0.4344
 4225SOL    HW123009   9.466   0.452   0.331 -2.5029 -1.3647  1.0288
 4225SOL    HW223010   9.542   0.359   0.220 -0.7915  1.9762 -0.6857
 4226SOL     OW23011   4.585   8.839   0.377  0.6404 -0.8191 -0.6557
 4226SOL    HW123012   4.535   8.853   0.463  1.7881  1.1356 -0.2554
 4226SOL    HW223013   4.521   8.840   0.300 -0.0401  0.8848 -0.0900
 4227SOL     OW23014   8.878   9.231   2.102  0.1779  0.6808  0.1041
 4227SOL    HW123015   8.814   9.186   2.040 -0.5585  2.5550 -0.5145
 4227SOL    HW223016   8.967   9.242   2.057  1.3057 -2.8101  1.3039
 4228SOL     OW23017   7.264   9.958   2.624 -0.7922  0.1214 -0.2186
 4228SOL    HW123018   7.272   9.859   2.640  0.5360  0.4972  1.7068
 4228SOL    HW223019   7.268   9.977   2.526  0.8424 -1.5910 -0.5053
 4229SOL     OW23020   1.199   9.240   3.762 -0.3349 -0.2962  0.0905
 4229SOL    HW123021   1.281   9.282   3.722 -0.3734 -0.5107 -0.2088
 4229SOL    HW223022   1.138   9.312   3.793 -0.2691 -0.1290 -0.1636
 4230SOL     OW23023   2.638   2.858   0.565 -0.2636  0.0554  0.3160
 4230SOL    HW123024   2.686   2.771   0.551 -0.4974  0.0618 -0.5718
 4230SOL    HW223025   2.541   2.847   0.540 -0.4813  0.3418  1.0219
 4231SOL     OW23026   3.090   9.028   0.913  0.0388  0.2456 -0.7166
 4231SOL    HW123027   3.025   9.104   0.903  0.1778  0.7259  1.7658
 4231SOL    HW223028   3.139   9.037   0.999  1.0075 -1.9706 -1.0021
 4232SOL     OW23029   0.711   3.241   2.965  0.3452 -0.2927  0.4558
 4232SOL    HW123030   0.615   3.218   2.951  1.1602 -2.5933 -1.5800
 4232SOL    HW223031   0.751   3.270   2.879  2.4349 -3.0573  0.4374
 4233SOL     OW23032   1.862   5.714   0.046 -0.1254 -0.1580 -0.0015
 4233SOL    HW123033   1.765   5.690   0.036  0.0743  0.0334 -2.7819
 4233SOL    HW223034   1.872   5.813   0.047  0.0321 -0.1757  0.6203
 4234SOL     OW23035   2.422   9.593   2.227 -0.3775  0.1894 -0.1671
 4234SOL    HW123036   2.467   9.634   2.147 -0.3112  1.0832  0.3227
 4234SOL    HW223037   2.417   9.661   2.301  1.1740 -1.1714  1.2147
 4235SOL     OW23038   4.969   3.223   0.696 -0.0310  0.4463 -0.2131
 4235SOL    HW123039   4.880   3.197   0.734  1.6587 -2.0039  2.2349
 4235SOL    HW223040   5.024   3.269   0.767  1.8177 -0.8712 -0.7576
 4236SOL     OW23041   4.042   0.041   2.126  0.1953  0.1570 -0.4392
 4236SOL    HW123042   4.056   0.105   2.050 -1.1981  2.0749  0.8792
 4236SOL    HW223043   3.945   0.037   2.149  0.4588 -1.3233  0.4753
 4237SOL     OW23044   1.808   9.187   1.429 -0.1412 -0.3749 -0.4057
 4237SOL    HW123045   1.772   9.276   1.456 -1.7872 -1.2256  0.2441
 4237SOL    HW223046   1.900   9.198   1.390 -0.4208  1.6090 -0.5082
 4238SOL     OW23047   3.235   8.369   2.062 -0.2480 -0.3619  0.1149
 4238SOL    HW123048   3.265   8.335   2.151 -0.3964 -0.4443  0.1334
 4238SOL    HW223049   3.265   8.464   2.051  0.0124 -0.4397  0.1370
 4239SOL     OW23050   6.788   9.235   1.617 -0.3374  0.2351 -0.7439
 4239SOL    HW123051   6.768   9.211   1.521 -1.1245 -1.9049 -0.0789
 4239SOL    HW223052   6.710   9.208   1.674  0.5934  0.5029  0.6453
 4240SOL     OW23053   4.864   9.793   2.298  0.0630 -0.4795  0.0637
 4240SOL    HW123054   4.898   9.709   2.258  0.0714 -0.0669 -0.8055
 4240SOL    HW223055   4.796   9.771   2.369  0.6442 -1.2298  0.3916
 4241SOL     OW23056   2.559   7.875   1.978  0.3318  0.3970 -0.3815
 4241SOL    HW123057   2.606   7.954   2.017 -1.2451 -0.1510  2.7922
 4241SOL    HW223058   2.562   7.800   2.043 -0.4684 -1.3344 -2.2969
 4242SOL     OW23059   9.604   1.640   3.536  0.8827 -0.2642 -0.3647
 4242SOL    HW123060   9.571   1.580   3.608  1.1139  0.7001  0.5601
 4242SOL    HW223061   9.534   1.651   3.466 -0.1335  0.4425  0.7473
 4243SOL     OW23062   4.155   7.995   1.336 -0.3965  0.2307  0.2925
 4243SOL    HW123063   4.246   7.983   1.296 -0.0759  0.1263  1.0384
 4243SOL    HW223064   4.087   8.002   1.263  0.4398  2.1913 -0.3296
 4244SOL     OW23065   3.484   1.041   2.282 -0.2090 -0.2828 -0.1284
 4244SOL    HW123066   3.443   1.000   2.363  0.1308 -0.9936 -0.3175
 4244SOL    HW223067   3.412   1.080   2.224 -0.6482 -1.6692 -0.5388
 4245SOL     OW23068   3.300   9.728   2.669 -0.0960  0.2713 -0.9240
 4245SOL    HW123069   3.342   9.766   2.751 -1.0768 -0.6596  0.0391
 4245SOL    HW223070   3.285   9.630   2.682 -2.8623  0.6211 -1.0715
 4246SOL     OW23071   3.072   3.810   0.642 -0.3825 -0.0954 -0.1465
 4246SOL    HW123072   3.165   3.826   0.609  0.9188 -1.4414  2.6800
 4246SOL    HW223073   3.038   3.893   0.686  0.0825 -0.0840  0.1896
 4247SOL     OW23074   8.986   8.927   2.957 -0.3677 -0.2739  0.4090
 4247SOL    HW123075   9.072   8.929   2.906 -0.5272 -1.0570  0.1013
 4247SOL    HW223076   8.912   8.959   2.898 -0.5352 -1.0754  0.1790
 4248SOL     OW23077   2.347   8.681   3.368  0.2171 -0.0404 -0.7379
 4248SOL    HW123078   2.264   8.716   3.326  0.5683  0.7988 -0.7430
 4248SOL    HW223079   2.329   8.652   3.461 -0.3006 -0.7921 -1.0688
 4249SOL     OW23080   6.000   8.126   2.299  0.0889  0.0051 -0.4704
 4249SOL    HW123081   5.991   8.061   2.374 -0.2103  0.7800  0.1605
 4249SOL    HW223082   6.084   8.178   2.309 -1.0622  1.7084  0.5817
 4250SOL     OW23083   6.946   8.942   2.035  0.2246 -0.3518 -0.2611
 4250SOL    HW123084   6.982   8.849   2.026 -0.9740 -0.7523 -0.9307
 4250SOL    HW223085   6.858   8.949   1.989  0.5503  1.2647 -0.6862
 4251SOL     OW23086   7.780   5.291   0.628 -0.1199  0.0204  0.6897
 4251SOL    HW123087   7.696   5.246   0.597 -0.1838  0.9382 -0.5006
 4251SOL    HW223088   7.804   5.365   0.565  0.4765  1.0909  2.1322
 4252SOL     OW23089   3.053   9.928   0.267 -0.2983 -0.4842 -0.0446
 4252SOL    HW123090   2.995   9.853   0.297 -1.0309 -0.1006 -0.4873
 4252SOL    HW223091   3.084   9.981   0.347 -0.1370 -0.9856  0.2276
 4253SOL     OW23092   2.487   3.246   3.226  0.2521 -0.0822  0.4667
 4253SOL    HW123093   2.388   3.250   3.240  0.1096  2.3616 -0.9904
 4253SOL    HW223094   2.533   3.288   3.305 -0.0444  1.8109 -0.3263
 4254SOL     OW23095   2.129   4.600   2.928  0.4727 -0.2124  0.7041
 4254SOL    HW123096   2.072   4.523   2.899  3.1143 -1.5478 -1.1428
 4254SOL    HW223097   2.076   4.684   2.923 -1.6155 -1.5390 -0.0494
 4255SOL     OW23098   2.513   9.859   3.538 -0.7692  0.0813 -0.5710
 4255SOL    HW123099   2.455   9.940   3.550 -1.6472 -0.7314  0.7791
 4255SOL    HW223100   2.609   9.885   3.548 -1.0745  0.8523  0.4327
 4256SOL     OW23101   8.457   0.169   3.902 -0.4972 -0.2971  0.5791
 4256SOL    HW123102   8.438   0.246   3.962 -1.9808  0.9393 -1.4092
 4256SOL    HW223103   8.553   0.143   3.911  0.5853  3.1541 -0.2310
 4257SOL     OW23104   0.118   7.749   3.338  0.0579  0.6455  0.3563
 4257SOL    HW123105   0.188   7.705   3.393 -0.8499 -1.2558  0.0244
 4257SOL    HW223106   0.045   7.782   3.397  0.6722  1.6148  0.5900
 4258SOL     OW23107   0.859   9.916   1.817 -0.4135  0.3673  0.3446
 4258SOL    HW123108   0.928   9.850   1.847 -1.0971 -1.1750 -1.3308
 4258SOL    HW223109   0.870  10.002   1.867 -0.1047 -1.3165  3.2761
 4259SOL     OW23110   8.848   3.452   3.121  0.2288  0.2518 -0.4888
 4259SOL    HW123111   8.875   3.487   3.032  0.8696 -0.9026 -0.7652
 4259SOL    HW223112   8.929   3.437   3.177 -0.1695  0.9876  0.3017
 4260SOL     OW23113   1.402   7.422   3.314  0.0871 -0.2353 -0.4586
 4260SOL    HW123114   1.305   7.404   3.332  0.1885 -1.2282 -0.8512
 4260SOL    HW223115   1.431   7.503   3.365 -0.1410 -1.7307  2.1294
 4261SOL     OW23116   9.949   8.208   3.332 -0.2145 -0.2175 -0.2157
 4261SOL    HW123117   9.939   8.116   3.370 -2.6181  0.1793  0.2309
 4261SOL    HW223118   9.980   8.271   3.403 -0.9761 -0.2279  0.1376
 4262SOL     OW23119   3.599   8.650   3.071  0.7838 -0.1927  0.3690
 4262SOL    HW123120   3.661   8.707   3.016 -0.2854 -0.7200 -1.4244
 4262SOL    HW223121   3.509   8.693   3.076  0.3934 -0.9919  0.2663
 4263SOL     OW23122   2.077   0.481   2.786  0.6821  0.3298  0.3384
 4263SOL    HW123123   2.014   0.553   2.756  0.7391 -0.1298 -0.9061
 4263SOL    HW223124   2.146   0.521   2.847 -0.4659  0.9384  1.2661
 4264SOL     OW23125   9.114   2.375   3.361 -0.3650 -0.6604 -0.5591
 4264SOL    HW123126   9.079   2.449   3.304 -0.6385 -1.3112 -1.2383
 4264SOL    HW223127   9.106   2.401   3.458  1.4585  1.0480 -0.8287
 4265SOL     OW23128   3.380   4.052   3.877 -0.3464 -0.5147 -0.1649
 4265SOL    HW123129   3.378   4.038   3.778 -1.5383  1.9977 -0.5451
 4265SOL    HW223130   3.313   3.992   3.920 -2.1013  0.5910 -1.2506
 4266SOL     OW23131   1.653   9.291   0.535 -0.0225 -0.1692 -0.5161
 4266SOL    HW123132   1.664   9.374   0.589  2.6255 -1.1887  0.5719
 4266SOL    HW223133   1.592   9.228   0.584  0.4780 -0.1249  0.1849
 4267SOL     OW23134   4.136   2.283   1.403  0.2665 -0.8027 -0.2000
 4267SOL    HW123135   4.209   2.352   1.407 -0.7816  0.3230 -0.1647
 4267SOL    HW223136   4.147   2.219   1.478  1.2108 -0.6291 -0.1772
 4268SOL     OW23137   8.123   1.546   0.859 -0.1398 -0.1339  0.2725
 4268SOL    HW123138   8.118   1.479   0.785 -0.1189 -0.6248  0.7136
 4268SOL    HW223139   8.066   1.516   0.935 -1.6511  1.3124 -0.2784
 4269SOL     OW23140   1.296   3.711   1.351  0.2967  0.2321 -0.4956
 4269SOL    HW123141   1.253   3.718   1.261 -0.2865 -0.5882 -0.2875
 4269SOL    HW223142   1.365   3.638   1.349 -0.3452 -0.3936 -0.0374
 4270SOL     OW23143   4.141   0.108   0.437 -0.2815  0.1127 -0.4460
 4270SOL    HW123144   4.108   0.197   0.406 -0.1177  1.0877  2.0056
 4270SOL    HW223145   4.070   0.065   0.494  0.4118 -0.4000  0.0427
 4271SOL     OW23146   7.072   0.221   2.488  0.3064 -0.6477 -0.5903
 4271SOL    HW123147   7.049   0.202   2.393  1.7104  0.5880 -1.1877
 4271SOL    HW223148   6.998   0.274   2.531  0.8288  1.0210 -1.7310
 4272SOL     OW23149   0.343   2.280   1.307 -0.5050  0.1872  0.2560
 4272SOL    HW123150   0.299   2.355   1.355  0.4419  0.4811  0.6575
 4272SOL    HW223151   0.274   2.212   1.281 -1.1474  0.4923  1.1638
 4273SOL     OW23152   8.527   3.029   1.677  0.2681 -0.1537 -0.2034
 4273SOL    HW123153   8.483   3.100   1.732 -0.4114 -0.2417 -0.6305
 4273SOL    HW223154   8.458   2.965   1.643  0.9482 -1.3865  0.7061
 4274SOL     OW23155   1.011   7.365   3.793  0.3519 -0.6032 -0.3184
 4274SOL    HW123156   0.944   7.412   3.735  1.0924 -0.3460 -0.9706
 4274SOL    HW223157   1.054   7.292   3.740  0.4984 -0.8500  0.1416
 4275SOL     OW23158   3.326   1.248   0.565 -0.2204  0.0845 -0.1084
 4275SOL    HW123159   3.302   1.313   0.637 -0.7740 -1.0299  0.7275
 4275SOL    HW223160   3.426   1.238   0.562 -0.2876 -1.8108  2.2905
 4276SOL     OW23161   2.996   8.525   2.830  0.3639 -0.6005  0.1431
 4276SOL    HW123162   2.950   8.458   2.889  0.6639 -1.1325 -0.2152
 4276SOL    HW223163   2.941   8.608   2.824 -0.5382 -1.2202 -0.2572
 4277SOL     OW23164   1.696   9.709   2.194 -0.0627  0.0802 -0.1608
 4277SOL    HW123165   1.783   9.660   2.195 -1.0570 -1.7310 -0.0495
 4277SOL    HW223166   1.669   9.726   2.099 -0.6892 -1.3976 -0.2609
 4278SOL     OW23167   6.239   9.585   2.748 -0.3381 -0.2036 -0.1819
 4278SOL    HW123168   6.244   9.526   2.828 -0.1787 -0.2706 -0.2422
 4278SOL    HW223169   6.200   9.673   2.775 -2.5094 -1.0397 -0.4843
 4279SOL     OW23170   3.994   4.091   1.459  0.2670  0.4043 -0.0019
 4279SOL    HW123171   4.038   4.029   1.523  1.5285  0.7565 -0.5240
 4279SOL    HW223172   3.922   4.142   1.507  0.3518 -0.2407  0.8243
 4280SOL     OW23173   3.342   7.018   2.080 -0.5706  0.2277 -0.1941
 4280SOL    HW123174   3.377   7.052   1.992 -0.3288 -1.4534 -0.7744
 4280SOL    HW223175   3.276   7.083   2.117 -0.5561  1.0378 -1.5498
 4281SOL     OW23176   8.123   2.450   2.345  0.5886  0.2818  0.1004
 4281SOL    HW123177   8.034   2.488   2.372  1.0964  0.8644  0.9593
 4281SOL    HW223178   8.142   2.369   2.400  0.0064 -0.6181 -0.9847
 4282SOL     OW23179   1.881   6.214   3.350 -0.5536  0.4840  0.3326
 4282SOL    HW123180   1.910   6.177   3.438  1.6815  0.2857 -0.4641
 4282SOL    HW223181   1.891   6.313   3.349  2.3420  0.2181 -0.7112
 4283SOL     OW23182   0.723   2.093   1.982 -0.1981 -0.6587 -0.2707
 4283SOL    HW123183   0.804   2.044   1.950  2.1847  3.0331 -0.1629
 4283SOL    HW223184   0.691   2.053   2.067  3.1281 -0.5595  1.0925
 4284SOL     OW23185   1.191   3.154   2.063 -0.2944  0.1083 -0.1622
 4284SOL    HW123186   1.101   3.117   2.083 -0.2530  0.2466  0.2960
 4284SOL    HW223187   1.235   3.182   2.148  0.1408  0.1336 -0.3931
 4285SOL     OW23188   2.930   9.496   1.173  0.3006  0.5968  0.8450
 4285SOL    HW123189   2.850   9.513   1.231  0.0292 -0.0239  0.6486
 4285SOL    HW223190   2.973   9.410   1.199  1.0809  1.0602  1.1373
 4286SOL     OW23191   8.172   0.199   3.919  0.0076 -0.1054  0.4312
 4286SOL    HW123192   8.272   0.195   3.919  0.0567  0.5448  2.0269
 4286SOL    HW223193   8.143   0.295   3.918 -0.5753 -0.2732  0.9180
 4287SOL     OW23194   2.291   3.915   3.769  0.1944 -0.0757 -0.0550
 4287SOL    HW123195   2.342   3.909   3.855 -0.3460  0.1109  0.2858
 4287SOL    HW223196   2.341   3.970   3.703 -0.6891  2.1523  1.0952
 4288SOL     OW23197   7.934   1.958   3.749  0.0517 -0.0450  0.6975
 4288SOL    HW123198   7.892   1.963   3.659 -0.6835 -1.0993  0.9684
 4288SOL    HW223199   7.910   2.039   3.802  1.2554  1.0282 -0.3757
 4289SOL     OW23200   8.303   0.993   3.210  0.5217  0.4492  0.6497
 4289SOL    HW123201   8.399   0.964   3.206  0.1818 -0.4985 -1.7115
 4289SOL    HW223202   8.280   1.046   3.128 -1.3454 -0.5940  0.4569
 4290SOL     OW23203   2.366   9.586   1.267  0.2548 -0.5568  0.3599
 4290SOL    HW123204   2.352   9.676   1.227 -1.6522 -1.5001 -1.1724
 4290SOL    HW223205   2.463   9.573   1.287  0.7331  1.2944 -0.6516
 4291SOL     OW23206   1.258   9.331   0.809 -0.4031 -0.0550 -0.0339
 4291SOL    HW123207   1.262   9.281   0.896  1.8057 -0.8054 -0.5394
 4291SOL    HW223208   1.350   9.358   0.782 -1.1099  0.4290 -2.0182
 4292SOL     OW23209   1.436   6.880   1.964 -0.1430  0.1411 -0.1886
 4292SOL    HW123210   1.488   6.801   1.996 -0.5668 -0.2633 -0.4993
 4292SOL    HW223211   1.361   6.899   2.028  0.6478  1.0004  0.5012
 4293SOL     OW23212   2.712   3.960   3.241 -0.2347  0.5648  0.3669
 4293SOL    HW123213   2.702   3.911   3.154 -0.1393  0.0561  0.6363
 4293SOL    HW223214   2.632   3.942   3.298 -0.2228  0.7703  0.4476
 4294SOL     OW23215   3.090   6.174   2.524  0.0488 -0.5023 -0.0527
 4294SOL    HW123216   3.113   6.121   2.443 -1.6477  0.1694 -0.9893
 4294SOL    HW223217   3.015   6.130   2.573  0.1488 -0.1676  0.4048
 4295SOL     OW23218   0.118   9.638   1.768 -0.0321  0.3328 -0.0387
 4295SOL    HW123219   0.211   9.636   1.730  0.2480 -0.3479  0.6754
 4295SOL    HW223220   0.079   9.729   1.757 -0.2065 -0.0116 -2.5937
 4296SOL     OW23221   2.772   5.809   0.005 -0.2348 -0.4587 -0.2567
 4296SOL    HW123222   2.770   5.850  -0.087  0.2577 -0.8829 -0.4589
 4296SOL    HW223223   2.801   5.714  -0.002 -0.0783 -0.4542  0.3583
 4297SOL     OW23224   9.493   0.351   0.026 -0.0285 -0.3040  0.5028
 4297SOL    HW123225   9.399   0.374   0.051  0.4765  2.3118  0.1143
 4297SOL    HW223226   9.493   0.289  -0.052 -1.4192  1.6015 -1.0373
 4298SOL     OW23227   0.656   3.265   0.007  0.9028 -0.2197  0.0810
 4298SOL    HW123228   0.710   3.181   0.009 -0.1430 -0.8898  1.0880
 4298SOL    HW223229   0.561   3.243   0.028  0.4763  1.1167 -0.4486
 4299SOL     OW23230   4.471   2.787   2.970  0.7387 -0.2478 -0.3910
 4299SOL    HW123231   4.441   2.759   3.061  0.1571 -1.4775 -0.9454
 4299SOL    HW223232   4.391   2.795   2.910  0.9281  2.2747 -0.3567
 4300SOL     OW23233   7.144   8.455   1.839  0.2246 -0.7071 -0.1166
 4300SOL    HW123234   7.208   8.406   1.781  1.1769 -0.9294  1.0971
 4300SOL    HW223235   7.067   8.394   1.862  1.4411 -1.6888  1.4505
 4301SOL     OW23236   1.650   9.100   4.011  0.5939  0.0115  0.3364
 4301SOL    HW123237   1.638   9.184   4.064 -1.7769 -0.4139  0.5487
 4301SOL    HW223238   1.728   9.048   4.046  1.6798  1.7988  0.6116
 4302SOL     OW23239   1.883   2.214   1.773  0.3646 -0.4443 -0.2678
 4302SOL    HW123240   1.944   2.136   1.784  0.0828 -0.8355 -1.3942
 4302SOL    HW223241   1.930   2.285   1.721  0.9567  0.5379  1.5590
 4303SOL     OW23242   0.529   8.782   1.555  0.1403  0.1415 -0.4532
 4303SOL    HW123243   0.604   8.838   1.519  0.9976 -1.2392 -0.8620
 4303SOL    HW223244   0.566   8.696   1.589 -1.2332 -0.4281 -0.3881
 4304SOL     OW23245   2.797   6.392   0.184 -0.6525 -0.8272 -0.3188
 4304SOL    HW123246   2.766   6.428   0.096 -1.5972 -1.6071 -0.3105
 4304SOL    HW223247   2.733   6.419   0.256  0.8902  1.0746  0.4002
 4305SOL     OW23248   9.296   2.261   3.168 -0.0457 -0.3674 -0.1078
 4305SOL    HW123249   9.248   2.267   3.255 -0.9803  0.1902 -0.6572
 4305SOL    HW223250   9.291   2.349   3.121  0.2189 -0.7438 -0.8424
 4306SOL     OW23251   1.737   1.171   1.680 -0.0045  0.1834 -0.2528
 4306SOL    HW123252   1.721   1.257   1.630 -1.1513  0.1689  0.0917
 4306SOL    HW223253   1.654   1.116   1.679  0.5048 -0.5955  0.1905
 4307SOL     OW23254   9.055   2.357   2.216  0.2579  0.2575  0.1408
 4307SOL    HW123255   9.140   2.309   2.239  0.2397  0.3143  0.3254
 4307SOL    HW223256   8.980   2.291   2.214  0.1464  0.3565  0.8797
 4308SOL     OW23257   1.444   6.624   2.431 -0.2269 -0.2197 -0.3111
 4308SOL    HW123258   1.457   6.549   2.367  0.1495  0.6243 -1.2352
 4308SOL    HW223259   1.499   6.607   2.513  1.1097 -0.1873 -1.1810
 4309SOL     OW23260   2.243   1.011   3.415  0.2197 -0.0313 -0.0514
 4309SOL    HW123261   2.207   1.104   3.412  1.2164  0.4465  1.8905
 4309SOL    HW223262   2.195   0.955   3.348 -2.9124  0.9943  1.2104
 4310SOL     OW23263   2.413   4.959   2.137  0.3732 -0.0377  0.0594
 4310SOL    HW123264   2.436   5.053   2.162 -0.0278  0.4014 -1.2072
 4310SOL    HW223265   2.492   4.916   2.094  0.7043 -0.4430  1.0406
 4311SOL     OW23266   4.397   0.234   1.549  0.1445  0.6217  0.1426
 4311SOL    HW123267   4.497   0.236   1.552  0.1778 -1.2063  1.3437
 4311SOL    HW223268   4.368   0.156   1.494 -0.6156  1.4147 -0.5715
 4312SOL     OW23269   1.425   7.646   2.265  0.3718 -0.0443 -0.3488
 4312SOL    HW123270   1.452   7.682   2.354  0.6397 -1.0796 -0.0043
 4312SOL    HW223271   1.465   7.702   2.192  1.8780 -0.4327  0.1727
 4313SOL     OW23272   4.646   9.292   2.545 -0.5856 -0.5508  0.6807
 4313SOL    HW123273   4.575   9.351   2.506  1.5872 -0.2981 -3.1308
 4313SOL    HW223274   4.708   9.348   2.601 -0.7808  0.0672  0.2906
 4314SOL     OW23275   2.545   1.081   1.908  0.1305  0.3556 -0.0317
 4314SOL    HW123276   2.460   1.103   1.860 -0.3044  0.3529  0.7224
 4314SOL    HW223277   2.572   0.987   1.889 -0.9658 -0.1962  1.0875
 4315SOL     OW23278   1.880   2.183   2.158 -0.3313 -0.1548  0.2674
 4315SOL    HW123279   1.961   2.131   2.129  0.6453  0.5552  1.6197
 4315SOL    HW223280   1.823   2.204   2.079  0.4009 -1.3595 -0.5965
 4316SOL     OW23281   3.417   5.411   3.989 -0.2666  0.0752  0.1551
 4316SOL    HW123282   3.361   5.377   4.064  0.1864 -1.9748 -0.4124
 4316SOL    HW223283   3.408   5.510   3.983 -1.6321  0.0688  1.8337
 4317SOL     OW23284   3.621   8.745   0.415  0.7273 -0.1949 -0.0480
 4317SOL    HW123285   3.576   8.827   0.379  0.7255  0.4334  1.3504
 4317SOL    HW223286   3.681   8.770   0.491  1.6172 -1.3490 -0.3507
 4318SOL     OW23287   8.905   8.779   2.194  0.4958  0.4221 -0.2893
 4318SOL    HW123288   8.873   8.686   2.214 -0.7561  0.4958 -1.8200
 4318SOL    HW223289   8.995   8.775   2.150  0.5955 -0.0556 -0.0421
 4319SOL     OW23290   1.493   4.198   1.270  0.4035 -0.5943  0.0252
 4319SOL    HW123291   1.538   4.207   1.181  2.0041  0.6302  0.9410
 4319SOL    HW223292   1.394   4.197   1.257  0.6271 -0.5020 -1.7799
 4320SOL     OW23293   9.349   7.968   1.428  0.5361 -0.0779  0.3886
 4320SOL    HW123294   9.320   7.877   1.400  3.3132 -0.9018  0.0766
 4320SOL    HW223295   9.439   7.963   1.472 -0.0109  2.2918  1.9325
 4321SOL     OW23296   4.145   8.114   1.888 -0.3206  0.1123  0.9765
 4321SOL    HW123297   4.076   8.131   1.818 -0.3017  0.5834  1.0698
 4321SOL    HW223298   4.100   8.089   1.974 -0.3505 -0.2750  0.8474
 4322SOL     OW23299   1.860   7.460   1.631  0.0140  0.2135 -0.4064
 4322SOL    HW123300   1.816   7.543   1.666  0.2863  0.5471 -0.8641
 4322SOL    HW223301   1.809   7.426   1.552 -0.6162 -0.5578  0.3211
 4323SOL     OW23302   1.833   8.546   3.095  0.0227  0.8843 -0.6617
 4323SOL    HW123303   1.746   8.526   3.049  0.6591 -0.5589 -1.2642
 4323SOL    HW223304   1.908   8.538   3.029  0.6706  1.6164 -0.0243
 4324SOL     OW23305   8.670   8.826   0.404 -0.0550  0.0515 -0.3638
 4324SOL    HW123306   8.636   8.837   0.311  0.1382  1.7687 -0.2512
 4324SOL    HW223307   8.649   8.908   0.458  0.4355 -0.6343  0.9122
 4325SOL     OW23308   3.284   8.831   1.892 -0.5490 -0.6064  0.0262
 4325SOL    HW123309   3.290   8.871   1.984  0.1102 -0.5074 -0.0562
 4325SOL    HW223310   3.346   8.879   1.831  1.8398 -3.0780  0.4174
 4326SOL     OW23311   8.849   9.730   1.275 -0.1928  0.2102  0.0764
 4326SOL    HW123312   8.750   9.743   1.283  0.1263  1.2976  2.6940
 4326SOL    HW223313   8.892   9.815   1.247  0.0485 -0.1849 -0.7703
 4327SOL     OW23314   2.841   7.964   3.850  0.2600 -0.6955 -0.0466
 4327SOL    HW123315   2.820   7.924   3.940 -0.9011 -1.3417 -0.6043
 4327SOL    HW223316   2.893   8.049   3.863 -1.8915  0.4606  1.3264
 4328SOL     OW23317   4.594   7.327   2.829  0.4376 -0.2806  0.1765
 4328SOL    HW123318   4.651   7.288   2.902  0.4334  0.1904  0.4302
 4328SOL    HW223319   4.532   7.256   2.794  0.4494 -0.5107  0.6207
 4329SOL     OW23320   3.998   2.422   1.960  0.6772 -0.5703  0.5998
 4329SOL    HW123321   4.088   2.459   1.938 -0.0850  1.1701  0.3433
 4329SOL    HW223322   3.935   2.497   1.979 -0.0372 -1.8649  3.4959
 4330SOL     OW23323   2.873   5.133   0.822  0.2973  0.3654  0.3386
 4330SOL    HW123324   2.859   5.231   0.837  1.2809  0.6686 -0.7660
 4330SOL    HW223325   2.916   5.118   0.733 -2.1304 -1.2234 -0.6162
 4331SOL     OW23326   2.201   0.324   2.988  0.5612  0.3537  0.0549
 4331SOL    HW123327   2.186   0.225   2.995 -1.9205  0.7836  1.2622
 4331SOL    HW223328   2.215   0.349   2.893  0.9898 -1.1249 -0.2908
 4332SOL     OW23329   1.089   2.403   3.506  0.4921  0.0587  0.0010
 4332SOL    HW123330   1.094   2.500   3.531  0.3831  0.0133  0.1955
 4332SOL    HW223331   0.994   2.377   3.491  0.4432 -0.2487  0.8450
 4333SOL     OW23332   3.252   4.927   2.958  0.6125  0.7388 -0.0599
 4333SOL    HW123333   3.218   4.895   3.047  0.8495 -0.3995 -0.3769
 4333SOL    HW223334   3.301   5.013   2.971 -0.6060  1.3368  0.7086
 4334SOL     OW23335   3.444   9.638   0.591  0.2777  0.1643  0.5369
 4334SOL    HW123336   3.498   9.562   0.628  0.4068 -0.1741 -0.3552
 4334SOL    HW223337   3.365   9.654   0.651  0.4348 -0.4492  0.9132
 4335SOL     OW23338   0.124   8.637   2.291  0.3677 -0.6223  0.2992
 4335SOL    HW123339   0.092   8.604   2.202 -0.3804 -1.6988  0.9571
 4335SOL    HW223340   0.222   8.618   2.301  0.3062 -1.1168 -0.0162
 4336SOL     OW23341   3.219   7.977   2.725 -0.0894  0.3280  0.0512
 4336SOL    HW123342   3.273   8.060   2.737 -0.8371  0.9184 -0.6050
 4336SOL    HW223343   3.278   7.902   2.695  0.5779  0.6271  0.6023
 4337SOL     OW23344   0.816   8.731   2.291  0.3562  0.1838 -0.3350
 4337SOL    HW123345   0.724   8.737   2.329  0.1793  0.0825 -0.7422
 4337SOL    HW223346   0.818   8.662   2.219  0.0910  2.0788 -2.2201
 4338SOL     OW23347   2.927   5.658   2.634  0.2222  0.7391  0.1839
 4338SOL    HW123348   3.013   5.631   2.591  0.8525  2.1063  0.6078
 4338SOL    HW223349   2.935   5.748   2.675 -1.5517  1.0976 -0.1865
 4339SOL     OW23350   0.693   1.087   3.414  0.5441  0.2772  0.0126
 4339SOL    HW123351   0.634   1.008   3.426  0.4284  0.5073  1.0419
 4339SOL    HW223352   0.784   1.067   3.452  0.0580  1.1589  1.6936
 4340SOL     OW23353   8.402   0.510   2.110 -0.2879 -0.6902  0.2007
 4340SOL    HW123354   8.391   0.531   2.207  0.0294  0.5717 -0.0285
 4340SOL    HW223355   8.491   0.541   2.079 -0.6247 -0.5403 -0.6373
 4341SOL     OW23356   8.025   9.530   1.241 -0.2096  0.1700  0.3907
 4341SOL    HW123357   8.061   9.495   1.154 -2.0764  1.3716 -0.9118
 4341SOL    HW223358   8.007   9.628   1.232 -0.3660  0.3041  2.1505
 4342SOL     OW23359   0.959   2.088   1.542 -0.3510 -0.4189  0.3926
 4342SOL    HW123360   0.978   2.184   1.562 -0.7681 -0.6551  1.9600
 4342SOL    HW223361   1.044   2.035   1.547 -0.6675 -0.7377  3.1578
 4343SOL     OW23362   9.371   9.311   1.630 -0.0113  0.3126  0.1067
 4343SOL    HW123363   9.301   9.249   1.666  0.1403 -0.7964 -1.4773
 4343SOL    HW223364   9.395   9.378   1.701 -1.5073 -0.2827  1.2085
 4344SOL     OW23365   8.814   8.737   3.771 -0.5304 -0.3128 -0.5342
 4344SOL    HW123366   8.725   8.691   3.773 -1.1531  0.8224 -1.4204
 4344SOL    HW223367   8.872   8.693   3.702 -0.7837 -0.3977 -0.6978
 4345SOL     OW23368   4.226   6.778   2.512  0.2047 -0.2617  0.0509
 4345SOL    HW123369   4.180   6.692   2.535 -0.2453 -0.6055 -2.0150
 4345SOL    HW223370   4.164   6.837   2.461  1.3206  0.2438 -0.7490
 4346SOL     OW23371   2.815   1.647   0.418  0.3310 -0.1167  0.4931
 4346SOL    HW123372   2.719   1.648   0.389  1.3275  0.8003 -2.9845
 4346SOL    HW223373   2.838   1.556   0.452 -1.7053 -0.4194  1.1315
 4347SOL     OW23374   1.818   2.256   3.817  0.4132  0.1708 -0.1344
 4347SOL    HW123375   1.733   2.251   3.869  0.1380  2.7053 -0.3027
 4347SOL    HW223376   1.894   2.222   3.873 -0.5933 -1.6208  0.1945
 4348SOL     OW23377   8.537   2.654   3.114 -0.2388  0.7953  0.8765
 4348SOL    HW123378   8.482   2.702   3.046  2.3295  3.9026  0.8832
 4348SOL    HW223379   8.621   2.621   3.072 -0.7350 -1.4265  1.5279
 4349SOL     OW23380   0.235   2.105   3.444  0.3321  0.1397 -0.1756
 4349SOL    HW123381   0.198   2.031   3.500  1.0992 -1.3400 -1.5806
 4349SOL    HW223382   0.324   2.133   3.480  0.8341 -0.8251 -0.6446
 4350SOL     OW23383   8.878   3.798   0.238 -0.2401 -0.7035  0.4409
 4350SOL    HW123384   8.923   3.878   0.277 -2.1955 -0.7633  2.9209
 4350SOL    HW223385   8.827   3.750   0.310 -2.2562 -1.9900 -1.7797
 4351SOL     OW23386   3.475   0.153   0.386 -0.3638  0.6520  0.1950
 4351SOL    HW123387   3.458   0.066   0.431 -0.9234  0.8620  0.3999
 4351SOL    HW223388   3.400   0.216   0.406  0.6241  1.5873  1.0737
 4352SOL     OW23389   2.689   9.026   2.769 -0.0347  0.3027  0.1262
 4352SOL    HW123390   2.591   9.028   2.748 -0.7049 -1.6740  2.8402
 4352SOL    HW223391   2.704   9.049   2.865  2.2709  1.4703 -0.4713
 4353SOL     OW23392   3.237   1.040   0.720 -0.4086 -0.0941 -0.3666
 4353SOL    HW123393   3.329   1.041   0.758  0.9034  0.4232 -3.4364
 4353SOL    HW223394   3.232   1.103   0.643 -3.6739  0.7541  0.4367
 4354SOL     OW23395   2.273   1.764   2.493  0.4183  0.1246  0.2751
 4354SOL    HW123396   2.247   1.832   2.424  1.3327  0.3573  0.1539
 4354SOL    HW223397   2.324   1.810   2.566  1.1916 -0.4580  0.1074
 4355SOL     OW23398   9.063   7.217   0.702  0.7628 -0.2523 -0.1566
 4355SOL    HW123399   9.144   7.235   0.646  0.3041  3.3700  0.1908
 4355SOL    HW223400   8.990   7.179   0.645  1.4666  0.0497 -1.2633
 4356SOL     OW23401   2.397   4.178   3.644 -0.1578 -0.3146  0.7196
 4356SOL    HW123402   2.380   4.247   3.574 -4.2658 -1.7974  0.1453
 4356SOL    HW223403   2.342   4.199   3.725  1.8931 -0.5493  2.2113
 4357SOL     OW23404   3.075   0.852   0.318 -0.3295  0.6314 -0.1713
 4357SOL    HW123405   3.116   0.763   0.297  1.9147  1.0877  2.0595
 4357SOL    HW223406   3.040   0.850   0.412 -0.7515  1.9503 -0.2962
 4358SOL     OW23407   9.422   7.740   0.471 -0.1168 -0.1614  0.0728
 4358SOL    HW123408   9.479   7.739   0.553 -0.4620 -0.4137  0.3113
 4358SOL    HW223409   9.356   7.815   0.477 -0.3268 -0.3546  0.1504
 4359SOL     OW23410   1.471   0.718   0.601  0.4737 -0.4090  0.7798
 4359SOL    HW123411   1.394   0.677   0.649  0.9093 -2.8039 -0.5317
 4359SOL    HW223412   1.442   0.747   0.509  0.8320 -0.1446  0.7472
 4360SOL     OW23413   8.234   1.693   0.193  0.1827  0.3176  0.1533
 4360SOL    HW123414   8.324   1.695   0.150  0.3196  0.6220  0.4478
 4360SOL    HW223415   8.222   1.776   0.248  0.1602 -0.2368  0.9944
 4361SOL     OW23416   1.003   2.943   2.136  0.8523  0.2726  0.2433
 4361SOL    HW123417   0.953   2.896   2.209 -1.5308  1.2209 -0.7106
 4361SOL    HW223418   1.097   2.910   2.133  1.2365  0.7745  4.2265
 4362SOL     OW23419   4.430   2.325   1.194 -0.1345 -0.1891 -0.4355
 4362SOL    HW123420   4.445   2.396   1.126  1.5519 -0.2734 -0.1784
 4362SOL    HW223421   4.417   2.366   1.284  0.3804 -0.1780 -0.3636
 4363SOL     OW23422   8.862   9.641   1.894  0.7750  0.6056  0.1847
 4363SOL    HW123423   8.795   9.667   1.824  2.7199  0.6308 -1.7210
 4363SOL    HW223424   8.820   9.646   1.984 -2.3031 -1.1038 -1.0965
 4364SOL     OW23425   9.727   0.506   0.754 -0.2793  0.2355 -0.4730
 4364SOL    HW123426   9.754   0.483   0.847  1.2662  1.3758 -0.6242
 4364SOL    HW223427   9.706   0.422   0.704 -0.5049 -0.4249  0.7041
 4365SOL     OW23428   3.139   6.302   3.243 -0.4892 -0.0774 -0.4411
 4365SOL    HW123429   3.117   6.337   3.152  0.2224 -0.7997 -0.9009
 4365SOL    HW223430   3.059   6.259   3.283 -0.6049 -0.4449 -1.0531
 4366SOL     OW23431   2.796   0.460   0.048  0.4564 -1.0754  0.3479
 4366SOL    HW123432   2.880   0.453   0.102  0.8560 -2.1455 -0.4065
 4366SOL    HW223433   2.813   0.431  -0.046 -0.2561  0.6959 -0.3659
 4367SOL     OW23434   0.259   1.747   1.425  0.0302 -0.0812 -0.2632
 4367SOL    HW123435   0.222   1.670   1.476 -0.7355  0.7608  0.4713
 4367SOL    HW223436   0.310   1.714   1.346 -0.9786 -1.3115 -0.4089
 4368SOL     OW23437   3.096   6.026   2.261  0.0476  0.2276 -0.0189
 4368SOL    HW123438   3.011   6.073   2.235 -0.0833 -0.5982 -1.1274
 4368SOL    HW223439   3.148   6.003   2.179  0.0689 -1.6252  0.4748
 4369SOL     OW23440   1.201   0.319   2.668  0.4788 -0.2626 -0.0915
 4369SOL    HW123441   1.248   0.282   2.588  0.0872 -0.2799 -0.3157
 4369SOL    HW223442   1.122   0.261   2.690  0.6524 -0.3239  0.3772
 4370SOL     OW23443   1.414   6.135   1.675 -0.1133  0.3950  0.1485
 4370SOL    HW123444   1.358   6.122   1.593 -0.5686  1.4078  0.2904
 4370SOL    HW223445   1.493   6.074   1.671 -1.7921 -1.8653  0.4820
 4371SOL     OW23446   1.474   6.474   0.969  0.3660  0.1642 -0.2654
 4371SOL    HW123447   1.524   6.560   0.962 -1.7292  1.4553  0.0638
 4371SOL    HW223448   1.500   6.413   0.894  1.4496  1.3000 -0.8227
 4372SOL     OW23449   8.784   0.904   0.959 -0.2047 -0.2687 -0.4423
 4372SOL    HW123450   8.817   0.906   0.865  0.4478  0.1836 -0.2024
 4372SOL    HW223451   8.760   0.810   0.984  2.1189 -0.8215 -0.1869
 4373SOL     OW23452   9.931   3.531   0.621  0.0748 -0.2268 -0.1138
 4373SOL    HW123453   9.887   3.610   0.664 -0.0987  0.0680 -0.8160
 4373SOL    HW223454   9.871   3.495   0.550  0.7572 -0.1137 -0.7527
 4374SOL     OW23455   1.519   7.664   3.405 -0.4737 -0.2149  0.2692
 4374SOL    HW123456   1.474   7.705   3.326 -0.6809 -1.6926 -0.4015
 4374SOL    HW223457   1.500   7.718   3.487 -3.2751 -0.6761 -0.0374
 4375SOL     OW23458   8.414   4.546   1.120  0.8887  0.6886 -0.1890
 4375SOL    HW123459   8.328   4.506   1.090  0.3838  1.8218 -0.2689
 4375SOL    HW223460   8.459   4.483   1.184  0.5227 -0.3800 -0.9663
 4376SOL     OW23461   0.391   7.740   1.222 -0.0446  0.1128  0.4961
 4376SOL    HW123462   0.382   7.693   1.309  0.4425 -0.3246  0.3136
 4376SOL    HW223463   0.438   7.828   1.236 -1.5017  0.8334  0.9256
 4377SOL     OW23464   8.969   0.595   0.836  0.3156  0.0161  0.4685
 4377SOL    HW123465   8.880   0.620   0.875 -0.7559  0.3839 -2.1055
 4377SOL    HW223466   9.015   0.678   0.805  0.1747 -0.4455 -1.0184
 4378SOL     OW23467   9.116   3.167   3.554 -0.4609  0.1138  0.4660
 4378SOL    HW123468   9.021   3.183   3.579 -0.5437  0.1621  0.1142
 4378SOL    HW223469   9.166   3.133   3.634 -1.1362 -1.4169  0.2611
 4379SOL     OW23470   8.966   9.941   0.923  0.9492 -0.7537 -0.6331
 4379SOL    HW123471   8.867   9.933   0.916  0.9631 -0.1195 -1.5454
 4379SOL    HW223472   8.999  10.011   0.860  1.9163 -0.5430  0.0825
 4380SOL     OW23473   1.036   5.221   3.197 -0.6250  0.3015 -0.1752
 4380SOL    HW123474   1.135   5.233   3.200 -0.6286  0.1865  0.3831
 4380SOL    HW223475   1.006   5.218   3.101 -0.3960  2.8334 -0.3745
 4381SOL     OW23476   6.709   9.874   2.470  0.6412 -0.3754 -0.7383
 4381SOL    HW123477   6.796   9.891   2.517  0.7819 -0.7058 -0.8788
 4381SOL    HW223478   6.644   9.834   2.535  0.3941  0.4337 -0.4754
 4382SOL     OW23479   1.836   8.683   3.808  0.1223 -0.2898  0.1598
 4382SOL    HW123480   1.800   8.605   3.859  1.4495  0.1219  1.7692
 4382SOL    HW223481   1.915   8.720   3.856  0.6734  0.8589 -1.6013
 4383SOL     OW23482   3.916   4.057   2.927  0.2065 -0.3319 -0.2949
 4383SOL    HW123483   3.965   3.991   2.869  0.7235 -0.3418  0.1516
 4383SOL    HW223484   3.930   4.034   3.023 -0.5989 -0.2750 -0.1614
 4384SOL     OW23485   1.826   7.919   3.071 -0.3773 -0.9687  0.2334
 4384SOL    HW123486   1.802   7.822   3.075  1.4816 -1.5168 -0.9155
 4384SOL    HW223487   1.861   7.940   2.980  1.5923  0.1794  1.2132
 4385SOL     OW23488   2.753   1.485   1.282  0.0346  0.4478 -0.0653
 4385SOL    HW123489   2.670   1.535   1.257 -0.5945 -0.4940  0.1043
 4385SOL    HW223490   2.804   1.537   1.350 -0.6071  0.8599  0.1092
 4386SOL     OW23491   3.115   0.752   2.809  0.3095  0.1496 -0.4720
 4386SOL    HW123492   3.096   0.741   2.907  0.9075  0.7848 -0.2797
 4386SOL    HW223493   3.042   0.709   2.756  1.0296 -2.0056  0.2448
 4387SOL     OW23494   5.930   8.489   2.288  0.5745 -0.0410  0.6307
 4387SOL    HW123495   5.967   8.458   2.200 -0.4751 -2.4845  1.0101
 4387SOL    HW223496   5.994   8.465   2.361  0.7027  0.5565  0.7193
 4388SOL     OW23497   3.115   4.257   3.170 -0.5105  0.3574  0.0480
 4388SOL    HW123498   3.125   4.255   3.070 -0.9866  1.7516 -0.0350
 4388SOL    HW223499   3.049   4.188   3.198 -0.2726 -0.1367 -0.5873
 4389SOL     OW23500   1.375   9.728   3.159 -1.0614 -0.1596  0.3661
 4389SOL    HW123501   1.290   9.685   3.190 -0.3841 -0.9226  1.2225
 4389SOL    HW223502   1.354   9.809   3.105 -2.3851 -1.9208 -1.8328
 4390SOL     OW23503   1.612   1.156   1.041  0.4065  0.3167 -0.1083
 4390SOL    HW123504   1.525   1.107   1.048  0.1727  0.8171  0.4589
 4390SOL    HW223505   1.634   1.169   0.944  0.0454 -0.1495 -0.2598
 4391SOL     OW23506   2.146   6.273   1.886 -0.2920  0.1037  0.8459
 4391SOL    HW123507   2.056   6.314   1.872 -0.4192 -0.2305  0.6805
 4391SOL    HW223508   2.180   6.238   1.799 -0.6549 -1.1004  1.1784
 4392SOL     OW23509   2.242   9.334   0.617 -0.5763 -0.2439  0.1840
 4392SOL    HW123510   2.155   9.381   0.599  0.5744  2.2714  0.9360
 4392SOL    HW223511   2.239   9.290   0.706 -0.7331  0.7409  0.6726
 4393SOL     OW23512   6.611   9.234   2.796 -0.0832  0.3694 -0.1548
 4393SOL    HW123513   6.661   9.253   2.881  1.5433  2.2160 -1.4967
 4393SOL    HW223514   6.582   9.138   2.796  0.3927  0.1856  2.2250
 4394SOL     OW23515   2.091   8.992   0.888  0.9538 -0.0533 -0.4196
 4394SOL    HW123516   2.043   9.020   0.805 -1.5164 -2.8497  0.0002
 4394SOL    HW223517   2.066   9.054   0.963 -2.8632 -2.0362  0.0308
 4395SOL     OW23518   8.303   8.921   0.227 -0.0439  0.0220 -0.2297
 4395SOL    HW123519   8.301   9.008   0.178  2.5123 -0.1958 -0.7519
 4395SOL    HW223520   8.284   8.938   0.324 -1.2283  0.9379 -0.6038
 4396SOL     OW23521   8.745   3.157   1.956  0.5414 -0.0698  0.0065
 4396SOL    HW123522   8.803   3.239   1.954  0.9682 -0.3856 -0.6884
 4396SOL    HW223523   8.654   3.179   1.921  0.9212 -0.0973 -0.9989
 4397SOL     OW23524   1.391   2.464   3.633 -0.1731 -0.6286  0.3849
 4397SOL    HW123525   1.322   2.421   3.575 -1.3019 -0.0653  1.2955
 4397SOL    HW223526   1.371   2.562   3.641  0.2972 -0.5983  1.2734
 4398SOL     OW23527   3.437   3.019   0.860  0.6346 -0.1797  0.2876
 4398SOL    HW123528   3.513   3.007   0.796  0.9339 -0.7915  0.7631
 4398SOL    HW223529   3.428   2.938   0.917 -0.0619  0.0958  0.5700
 4399SOL     OW23530   9.535   8.007   1.059 -0.6272  0.1767  0.1958
 4399SOL    HW123531   9.577   7.959   0.982 -0.5728  0.4394  0.0641
 4399SOL    HW223532   9.603   8.019   1.132 -0.3196  1.0939 -0.2377
 4400SOL     OW23533   3.628   2.722   0.767  0.2662 -0.2854 -0.2601
 4400SOL    HW123534   3.588   2.761   0.850  0.6342  0.2097 -0.3091
 4400SOL    HW223535   3.651   2.796   0.703  1.0566 -0.5791 -0.3213
 4401SOL     OW23536   2.437   0.115   2.482  0.0247 -0.2999  0.7601
 4401SOL    HW123537   2.399   0.164   2.561 -1.2581 -0.4488  0.2571
 4401SOL    HW223538   2.511   0.055   2.511 -0.2668 -0.1539  1.8054
 4402SOL     OW23539   2.180   6.737   2.879  0.1554 -0.1584  0.1209
 4402SOL    HW123540   2.216   6.691   2.960  0.2272  1.6239  1.1389
 4402SOL    HW223541   2.080   6.734   2.879  0.0980  1.3530  1.2101
 4403SOL     OW23542   8.490   9.402   1.998 -0.1979 -0.2768  0.2898
 4403SOL    HW123543   8.458   9.462   2.072 -2.7143  0.0269 -1.0102
 4403SOL    HW223544   8.496   9.308   2.032 -2.4481 -0.3384  0.6075
 4404SOL     OW23545   1.108   3.250   2.774  0.0423  0.3294 -0.1168
 4404SOL    HW123546   1.126   3.297   2.688  0.2170  0.5920  0.0654
 4404SOL    HW223547   1.155   3.297   2.849 -2.0819  1.5481  0.4970
 4405SOL     OW23548   0.711   9.482   1.782 -0.0174  0.2849 -0.3230
 4405SOL    HW123549   0.617   9.486   1.816  0.0273 -2.0557  0.1521
 4405SOL    HW223550   0.773   9.510   1.854 -0.3932  2.7662 -0.9385
 4406SOL     OW23551   2.414   4.334   2.452  0.0409  0.3613  0.1479
 4406SOL    HW123552   2.421   4.314   2.354  0.1761 -0.7114  0.3782
 4406SOL    HW223553   2.359   4.417   2.465  0.8649  1.0818 -0.8942
 4407SOL     OW23554   8.852   7.297   1.139 -0.0231  0.1527 -0.6711
 4407SOL    HW123555   8.937   7.255   1.107  0.8487 -2.5780  4.5377
 4407SOL    HW223556   8.787   7.224   1.163 -2.0659  2.0846 -0.2187
 4408SOL     OW23557   7.937   3.169   1.165 -0.1633  0.3330 -0.5122
 4408SOL    HW123558   7.928   3.131   1.257 -0.1706  3.4960  0.8726
 4408SOL    HW223559   7.857   3.144   1.110  0.1542 -2.1420  0.0879
 4409SOL     OW23560   0.852   9.196   3.789 -0.0709  0.7109 -0.2154
 4409SOL    HW123561   0.897   9.166   3.705 -1.5736  1.5334 -1.3505
 4409SOL    HW223562   0.885   9.286   3.815  0.4467  0.4256  0.1210
 4410SOL     OW23563   7.144   9.844   3.720  0.2230  0.1399  0.4318
 4410SOL    HW123564   7.084   9.890   3.655 -1.0149 -0.4235  1.1581
 4410SOL    HW223565   7.197   9.912   3.772 -2.3530  0.8169  2.2384
 4411SOL     OW23566   8.655   1.455   1.514 -0.3444 -0.1152 -0.2195
 4411SOL    HW123567   8.743   1.491   1.484  0.1460 -0.3242  0.9768
 4411SOL    HW223568   8.582   1.500   1.462  0.4097  0.6325 -0.6460
 4412SOL     OW23569   7.535   9.060   3.432  0.0402  0.2288 -0.5095
 4412SOL    HW123570   7.454   9.067   3.489  0.1853 -1.0701 -0.1298
 4412SOL    HW223571   7.509   9.026   3.341  0.0880  0.3455 -0.5672
 4413SOL     OW23572   3.726   0.976   1.436  0.7802  0.2377  0.6002
 4413SOL    HW123573   3.791   1.050   1.451  0.9347  0.1661  0.2744
 4413SOL    HW223574   3.633   1.013   1.435  0.7901  0.3009  1.3460
 4414SOL     OW23575   9.843   9.256   3.002 -0.2784  0.0638  0.3329
 4414SOL    HW123576   9.885   9.167   3.024  0.4057  0.3543  0.2010
 4414SOL    HW223577   9.810   9.254   2.908  0.9465  0.4076 -0.1103
 4415SOL     OW23578   2.407   2.113   1.422 -0.1510 -0.6783  0.0435
 4415SOL    HW123579   2.428   2.166   1.339  0.1325 -0.3977  0.2924
 4415SOL    HW223580   2.309   2.095   1.426 -0.6501  2.0184  1.2325
 4416SOL     OW23581   8.119   0.619   2.313 -0.0261  0.2046  0.1680
 4416SOL    HW123582   8.168   0.702   2.286  0.4547  0.0005  0.4126
 4416SOL    HW223583   8.184   0.552   2.348 -0.2257 -0.7903 -1.2877
 4417SOL     OW23584   4.165   7.566   0.947 -0.5355 -0.2290 -0.2286
 4417SOL    HW123585   4.257   7.535   0.922  0.0092  0.2307  1.1906
 4417SOL    HW223586   4.167   7.608   1.037 -2.4524 -1.6978  0.5482
 4418SOL     OW23587   9.435   3.205   0.669 -0.1339 -0.5641 -0.1199
 4418SOL    HW123588   9.466   3.294   0.637  1.4381 -0.8825  0.4544
 4418SOL    HW223589   9.431   3.205   0.769 -1.0754 -0.8370 -0.1536
 4419SOL     OW23590   8.947   7.739   0.000 -0.0324 -0.1182  0.0267
 4419SOL    HW123591   8.951   7.691   0.088 -0.0806  0.8635  0.5689
 4419SOL    HW223592   8.854   7.734  -0.036 -0.2158  0.2134  0.4465
 4420SOL     OW23593   2.916   1.425   2.050  0.1476 -0.0662 -0.1082
 4420SOL    HW123594   2.963   1.440   1.963  1.4231  0.1244  0.5970
 4420SOL    HW223595   2.865   1.339   2.046 -0.1783  0.1682 -1.2003
 4421SOL     OW23596   2.040   5.142   3.819  0.1258  0.5001  0.6740
 4421SOL    HW123597   2.073   5.048   3.830 -0.1200  0.2534 -0.6273
 4421SOL    HW223598   1.958   5.143   3.763  1.0867  1.6330 -0.7831
 4422SOL     OW23599   5.294   8.764   2.862  0.0765  0.3808 -0.2413
 4422SOL    HW123600   5.264   8.669   2.871  0.8853 -0.1022 -2.2531
 4422SOL    HW223601   5.381   8.776   2.911 -0.5187  0.3381  0.8318
 4423SOL     OW23602   1.870   4.902   0.982 -0.2661  0.4072  0.2575
 4423SOL    HW123603   1.796   4.899   1.050 -0.5473 -1.5300 -0.1041
 4423SOL    HW223604   1.837   4.947   0.899 -1.1328 -0.6850  0.0015
 4424SOL     OW23605   0.078   8.817   1.166  0.2456 -0.5283  0.5001
 4424SOL    HW123606   0.142   8.776   1.102  0.3217 -0.6013  0.6233
 4424SOL    HW223607   0.003   8.754   1.184 -0.9190  0.3263 -1.1894
 4425SOL     OW23608   7.651   0.463   2.949  1.0173  0.2715 -0.2499
 4425SOL    HW123609   7.739   0.510   2.964  0.2981  1.4150  0.5126
 4425SOL    HW223610   7.665   0.364   2.954  2.1309  0.4551  0.6903
 4426SOL     OW23611   0.378   7.649   4.011 -0.0712 -0.8268 -0.5711
 4426SOL    HW123612   0.395   7.736   3.966  2.1721 -0.8969  0.0755
 4426SOL    HW223613   0.384   7.661   4.110 -0.8980 -1.4882 -0.4328
 4427SOL     OW23614   0.966   0.806   2.865  0.0964 -0.2222 -0.4535
 4427SOL    HW123615   0.944   0.870   2.938  0.6070 -1.6192  0.9631
 4427SOL    HW223616   1.045   0.839   2.814 -0.6460  1.0705 -0.7810
 4428SOL     OW23617   7.167   9.167   2.590  0.3489 -0.2135  0.5047
 4428SOL    HW123618   7.078   9.127   2.613  0.0595 -0.5013 -1.0636
 4428SOL    HW223619   7.186   9.151   2.494  1.0614  1.8865  0.2911
 4429SOL     OW23620   3.588   6.816   0.323  0.5524  0.3828  0.2262
 4429SOL    HW123621   3.517   6.750   0.299 -0.4586  0.6464  2.3717
 4429SOL    HW223622   3.613   6.804   0.419  2.7436  0.9278 -0.2555
 4430SOL     OW23623   2.101   9.607   0.824  0.0264  0.0876 -0.1850
 4430SOL    HW123624   2.130   9.559   0.741 -0.1786 -1.1968  0.4774
 4430SOL    HW223625   2.175   9.667   0.856 -0.1527  1.1342 -1.6867
 4431SOL     OW23626   1.441   0.827   3.147  0.1877 -0.3734  0.5301
 4431SOL    HW123627   1.354   0.830   3.197 -0.8749 -1.0596 -1.2208
 4431SOL    HW223628   1.496   0.751   3.180 -0.5900 -0.9512  0.5075
 4432SOL     OW23629   1.933   4.488   3.743  0.0524  0.0386  0.3308
 4432SOL    HW123630   1.840   4.451   3.748  0.1606 -0.1740  0.7785
 4432SOL    HW223631   1.979   4.453   3.661 -0.6314  1.0047 -0.4824
 4433SOL     OW23632   1.428   0.581   2.674 -0.2159  0.0394 -0.0440
 4433SOL    HW123633   1.361   0.510   2.653  0.5261 -0.5808 -0.3443
 4433SOL    HW223634   1.432   0.595   2.773 -0.6251 -0.0822 -0.0104
 4434SOL     OW23635   9.908   0.615   3.553 -0.0857  0.4293 -0.6772
 4434SOL    HW123636   9.845   0.557   3.604  0.9276 -0.1367 -0.0545
 4434SOL    HW223637  10.000   0.576   3.556  0.3669  1.4165 -1.2943
 4435SOL     OW23638   3.302   0.102   2.651 -0.3322 -0.3626 -0.1127
 4435SOL    HW123639   3.271   0.102   2.556 -0.6031 -0.2107 -0.0269
 4435SOL    HW223640   3.401   0.115   2.654 -0.2406 -0.9759 -0.3985
 4436SOL     OW23641   8.278   8.766   1.460  0.5159 -0.0029 -0.7403
 4436SOL    HW123642   8.357   8.827   1.462  0.8265 -0.4196  0.0515
 4436SOL    HW223643   8.269   8.725   1.370 -0.3316  2.0356 -1.6039
 4437SOL     OW23644   9.621   3.340   1.927 -0.2353  0.0880 -0.7054
 4437SOL    HW123645   9.656   3.344   1.833 -0.6736 -0.4156 -0.8962
 4437SOL    HW223646   9.654   3.418   1.979  0.4717  0.0740 -1.1281
 4438SOL     OW23647   1.010   1.911   1.097 -0.5542  0.0405  0.7029
 4438SOL    HW123648   0.993   1.831   1.040 -1.7989 -0.3223  1.5520
 4438SOL    HW223649   1.059   1.884   1.180 -1.5681  0.0446  1.3078
 4439SOL     OW23650   0.220   7.506   2.348  0.3429 -0.6569 -0.4024
 4439SOL    HW123651   0.262   7.583   2.397  1.3842 -1.5936  0.2248
 4439SOL    HW223652   0.242   7.512   2.251 -0.5187  0.4396 -0.5299
 4440SOL     OW23653   1.782   0.283   3.447  0.0763 -0.3141  0.3799
 4440SOL    HW123654   1.766   0.227   3.366 -0.1466 -0.5221  0.5645
 4440SOL    HW223655   1.877   0.271   3.478  0.8158  1.4826 -1.1398
 4441SOL     OW23656   2.149   1.896   0.999 -0.5354  0.0630  0.0929
 4441SOL    HW123657   2.126   1.949   1.081  1.7584 -0.0546  0.8366
 4441SOL    HW223658   2.075   1.831   0.980 -1.0989  0.0962  2.0460
 4442SOL     OW23659   2.422   0.493   3.829  0.0541 -0.5004 -0.4521
 4442SOL    HW123660   2.458   0.418   3.884 -1.0269 -0.3919  0.4175
 4442SOL    HW223661   2.458   0.580   3.864  2.3658 -0.6626 -2.2776
 4443SOL     OW23662   0.482   0.461   3.719 -0.2691  0.5628  0.2761
 4443SOL    HW123663   0.537   0.426   3.795  0.1370  0.8247  0.1050
 4443SOL    HW223664   0.489   0.399   3.641 -1.7175 -0.3937  0.8645
 4444SOL     OW23665   7.827   1.826   1.095 -0.2981 -0.5445 -0.2265
 4444SOL    HW123666   7.798   1.807   1.001 -0.5693  4.3750 -1.2891
 4444SOL    HW223667   7.903   1.890   1.094  1.0606 -2.0174  2.9250
 4445SOL     OW23668   7.688   9.383   2.525  0.2389 -0.3008  0.1265
 4445SOL    HW123669   7.647   9.449   2.462 -0.2525 -0.6162  0.1055
 4445SOL    HW223670   7.624   9.306   2.538  1.3305 -1.4023 -0.8590
 4446SOL     OW23671   0.587   3.660   3.663 -0.2020 -0.6466 -0.1260
 4446SOL    HW123672   0.531   3.738   3.690  0.3453 -0.0937 -0.5965
 4446SOL    HW223673   0.551   3.577   3.707 -0.0374  0.0545  1.3636
 4447SOL     OW23674   0.902   0.324   3.488  0.3060 -0.2441 -0.0113
 4447SOL    HW123675   0.892   0.233   3.528  2.4153 -0.1493  0.7801
 4447SOL    HW223676   0.879   0.393   3.556 -0.2739 -0.1514 -0.2952
 4448SOL     OW23677   7.976   3.005   1.614  0.5491 -0.1013 -0.2475
 4448SOL    HW123678   8.004   3.099   1.632 -2.5823  0.5785  1.3594
 4448SOL    HW223679   8.048   2.943   1.647  0.9183  1.6169  2.3737
 4449SOL     OW23680   3.261   1.527   1.595 -0.4117 -0.3782 -0.3793
 4449SOL    HW123681   3.209   1.608   1.566 -0.2227  0.5020  1.6688
 4449SOL    HW223682   3.339   1.514   1.534 -0.5061  0.9248 -0.7870
 4450SOL     OW23683   9.651   0.351   3.068 -0.2328  0.2965 -0.3079
 4450SOL    HW123684   9.625   0.290   2.993 -1.6590  0.1940  0.2661
 4450SOL    HW223685   9.625   0.311   3.155  0.4480  0.9093  0.1889
 4451SOL     OW23686   2.864   1.381   0.588 -0.8435  0.0909  0.4604
 4451SOL    HW123687   2.837   1.346   0.499 -1.7501  1.4765  0.1717
 4451SOL    HW223688   2.819   1.328   0.660  0.7946 -1.7783  0.1510
 4452SOL     OW23689   9.540   1.023   3.563 -0.1575 -0.9523 -0.0507
 4452SOL    HW123690   9.516   1.119   3.552  0.1024 -0.9428 -0.5769
 4452SOL    HW223691   9.639   1.012   3.557 -0.1766 -1.2343  0.1188
 4453SOL     OW23692   0.335   8.312   1.008  0.4339  0.3137 -0.1327
 4453SOL    HW123693   0.430   8.322   0.978  0.8754  0.4063  1.2642
 4453SOL    HW223694   0.274   8.327   0.930  1.5089  1.6881 -0.7274
 4454SOL     OW23695   7.081   8.999   3.242 -0.0725  0.7983 -0.2501
 4454SOL    HW123696   6.982   8.998   3.254 -0.2082  1.4195 -1.2421
 4454SOL    HW223697   7.104   9.046   3.157  0.9682 -1.1864 -1.0957
 4455SOL     OW23698   2.366   8.083   3.807 -0.1437  0.3778  0.0119
 4455SOL    HW123699   2.384   8.063   3.710  0.4928  0.6254  0.0765
 4455SOL    HW223700   2.268   8.082   3.823 -0.1206 -3.8584  0.2849
 4456SOL     OW23701   0.706   8.228   2.013 -0.0455  0.1681 -0.1885
 4456SOL    HW123702   0.753   8.140   2.011  0.1047  0.2443  0.0633
 4456SOL    HW223703   0.763   8.298   1.969  0.2975  0.3718  0.5744
 4457SOL     OW23704   2.572   3.255   2.919 -0.1815 -0.4483 -0.6176
 4457SOL    HW123705   2.563   3.349   2.884  2.6741 -0.3072 -1.1036
 4457SOL    HW223706   2.556   3.255   3.017  2.2535  1.0606 -0.1595
 4458SOL     OW23707   3.087   9.721   1.134 -0.4246 -0.7749  0.7130
 4458SOL    HW123708   3.044   9.638   1.168  1.3635 -1.8093  0.5028
 4458SOL    HW223709   3.186   9.710   1.134 -0.2006  1.0105 -0.2103
 4459SOL     OW23710   2.524   5.327   1.547  0.2055 -0.0193  0.2904
 4459SOL    HW123711   2.435   5.370   1.535  0.4298  0.2105 -0.6234
 4459SOL    HW223712   2.588   5.392   1.588  0.3996  0.3569 -0.5965
 4460SOL     OW23713   4.450   7.119   2.672  0.5063 -0.0736 -0.3874
 4460SOL    HW123714   4.443   7.023   2.699 -4.0363  0.8018  2.0789
 4460SOL    HW223715   4.500   7.125   2.585  2.7697 -4.3945  0.4484
 4461SOL     OW23716   2.052   7.361   3.557 -0.3628  0.1751 -0.5645
 4461SOL    HW123717   2.006   7.286   3.510 -1.0925  0.8652 -0.9762
 4461SOL    HW223718   2.151   7.348   3.554 -0.5023 -0.9758 -0.2709
 4462SOL     OW23719   3.252   9.056   0.308 -1.2481 -0.0064  0.1015
 4462SOL    HW123720   3.180   9.005   0.262 -0.1944 -2.4183  1.0258
 4462SOL    HW223721   3.236   9.054   0.407  0.2412 -0.9098  0.3553
 4463SOL     OW23722   2.169   3.072   3.515 -0.3428 -0.4376 -0.0671
 4463SOL    HW123723   2.092   3.039   3.570 -0.6100  0.8787  0.3566
 4463SOL    HW223724   2.254   3.052   3.563 -0.4263 -1.5695 -0.3654
 4464SOL     OW23725   9.479   1.897   3.006 -0.6919  0.1480  0.0289
 4464SOL    HW123726   9.568   1.928   3.039 -0.2410  1.0937 -1.9907
 4464SOL    HW223727   9.448   1.957   2.932 -3.2569  0.1339  1.0437
 4465SOL     OW23728   0.779   0.074   3.226 -0.2912  0.4650  0.0040
 4465SOL    HW123729   0.793   0.081   3.324 -1.2522 -1.3757  0.2947
 4465SOL    HW223730   0.698   0.126   3.199 -2.4960 -2.4075  0.8531
 4466SOL     OW23731   3.114   1.111   3.681 -0.6059  0.1674 -0.1085
 4466SOL    HW123732   3.203   1.118   3.637 -0.4486 -3.1582 -0.4399
 4466SOL    HW223733   3.042   1.124   3.613 -0.4188  2.6668  0.1274
 4467SOL     OW23734   3.413   6.889   0.635 -0.0087  0.1991 -0.4519
 4467SOL    HW123735   3.359   6.883   0.552  1.3258  0.0486 -1.3200
 4467SOL    HW223736   3.368   6.951   0.700 -1.8599 -0.9145 -0.6375
 4468SOL     OW23737   2.359   1.520   3.368  0.0272  0.1398  0.3976
 4468SOL    HW123738   2.434   1.514   3.434  0.6374  3.0738  0.0314
 4468SOL    HW223739   2.362   1.441   3.306  2.4062 -0.1191  0.8174
 4469SOL     OW23740   1.833   7.877   2.171 -0.2767  0.2567  0.5350
 4469SOL    HW123741   1.807   7.964   2.214 -0.4330 -0.0934  1.1622
 4469SOL    HW223742   1.926   7.883   2.136 -0.4680  0.8427  0.1343
 4470SOL     OW23743   1.071   7.548   1.259  0.7870  0.0631  0.8666
 4470SOL    HW123744   1.039   7.500   1.341 -0.0008 -0.7284  0.1074
 4470SOL    HW223745   1.069   7.646   1.276 -0.7364 -0.0282  1.3256
 4471SOL     OW23746   1.890   0.666   2.774 -0.0196 -0.5458 -0.1739
 4471SOL    HW123747   1.884   0.650   2.873  2.6315  2.2773  0.5032
 4471SOL    HW223748   1.819   0.731   2.747 -0.2055 -0.6618  0.0299
 4472SOL     OW23749   3.740   7.782   0.778  0.3732  0.1174 -0.2261
 4472SOL    HW123750   3.833   7.789   0.813  0.0355  1.2721  0.4629
 4472SOL    HW223751   3.678   7.755   0.852 -0.0714  0.8405 -0.3274
 4473SOL     OW23752   3.040   8.458   0.407  0.0344  0.4709 -0.8434
 4473SOL    HW123753   2.991   8.495   0.486 -0.0585  0.8279 -1.0657
 4473SOL    HW223754   3.120   8.515   0.388  1.0661 -0.6237  0.0757
 4474SOL     OW23755   1.546   2.247   2.196  0.3152 -0.2801  0.3800
 4474SOL    HW123756   1.621   2.226   2.259 -0.8951 -1.9912  1.2716
 4474SOL    HW223757   1.573   2.221   2.103  0.5451 -1.5991  0.8099
 4475SOL     OW23758   8.349   2.240   1.799  0.6854  0.0018 -0.0422
 4475SOL    HW123759   8.420   2.265   1.865  0.9138 -0.3841 -0.1389
 4475SOL    HW223760   8.292   2.169   1.838  0.8615 -0.2739 -0.2873
 4476SOL     OW23761   2.109   9.659   2.005  0.7465  0.2200 -0.0642
 4476SOL    HW123762   2.062   9.653   1.917  1.3080  1.2036 -0.4426
 4476SOL    HW223763   2.049   9.626   2.078  1.3482 -3.6008 -1.1584
 4477SOL     OW23764   7.062   9.347   2.326 -0.0847  0.0973  0.0216
 4477SOL    HW123765   6.970   9.319   2.355  0.7261 -2.6115  0.1840
 4477SOL    HW223766   7.072   9.332   2.228 -0.8086  3.3909 -0.5934
 4478SOL     OW23767   1.807   3.937   3.109  0.8910  0.0515  0.2241
 4478SOL    HW123768   1.848   4.028   3.099  1.0916 -0.0831 -0.2139
 4478SOL    HW223769   1.721   3.944   3.159 -0.1546  0.7766 -1.6223
 4479SOL     OW23770   9.758   1.544   3.121 -0.3519 -0.4582 -0.3971
 4479SOL    HW123771   9.789   1.490   3.043 -3.5503 -0.9932 -1.3758
 4479SOL    HW223772   9.664   1.575   3.105 -0.2492  1.3965  2.2378
 4480SOL     OW23773   9.332   1.226   0.255  0.5206  0.0648  0.1362
 4480SOL    HW123774   9.400   1.272   0.312  0.5201 -0.2642  0.4013
 4480SOL    HW223775   9.293   1.292   0.191  0.2158  0.5302  0.7932
 4481SOL     OW23776   8.056   8.729   3.540  0.5381  0.1402  0.2309
 4481SOL    HW123777   7.977   8.770   3.587  0.7896  1.9438 -0.8489
 4481SOL    HW223778   8.028   8.645   3.495 -1.0692  1.3584 -1.0914
 4482SOL     OW23779   2.009   9.013   3.061  0.9224 -0.2543 -0.2851
 4482SOL    HW123780   1.912   9.032   3.047  1.2521  2.0339  0.3744
 4482SOL    HW223781   2.031   8.925   3.019 -1.6640 -1.3551  0.5491
 4483SOL     OW23782   0.022   2.692   2.118  0.2809 -0.2898 -0.0177
 4483SOL    HW123783  -0.058   2.634   2.101 -1.2187  1.5557  0.5960
 4483SOL    HW223784  -0.007   2.778   2.159  2.6064  0.4108  0.2456
 4484SOL     OW23785   7.471   2.149   3.930  0.0337 -0.5528 -0.3447
 4484SOL    HW123786   7.456   2.134   3.832  0.4777 -0.5112 -0.4203
 4484SOL    HW223787   7.413   2.224   3.962 -1.3038 -1.6302 -0.2307
 4485SOL     OW23788   1.286   8.817   0.865  0.5205 -0.3595  0.0514
 4485SOL    HW123789   1.218   8.784   0.931  1.0142 -1.0611  0.2144
 4485SOL    HW223790   1.245   8.820   0.774  0.0573 -0.1035  0.2684
 4486SOL     OW23791   3.489   3.681   0.661  0.0740 -0.1203 -0.4492
 4486SOL    HW123792   3.588   3.683   0.647  0.1758  0.4809  0.3356
 4486SOL    HW223793   3.445   3.640   0.581  1.0430 -1.4810 -0.2948
 4487SOL     OW23794   4.685   3.323   1.392 -0.3303 -0.8752 -0.0402
 4487SOL    HW123795   4.625   3.308   1.313  0.3483 -0.3747 -0.6565
 4487SOL    HW223796   4.762   3.259   1.388  0.0431 -0.4212 -0.1247
 4488SOL     OW23797   3.370   9.034   2.957 -0.2682 -0.0934  0.0171
 4488SOL    HW123798   3.445   9.063   2.898  0.3128 -1.5162  0.0592
 4488SOL    HW223799   3.383   9.072   3.048  2.1384 -2.9316  0.9236
 4489SOL     OW23800   8.473   1.896   1.941 -0.3563 -0.1036  0.2509
 4489SOL    HW123801   8.445   1.898   1.845 -1.0707 -0.7982  0.4401
 4489SOL    HW223802   8.411   1.837   1.993 -1.3481  2.0262  1.5870
 4490SOL     OW23803   1.127   8.673   3.372  0.1277  0.1738  0.0126
 4490SOL    HW123804   1.169   8.583   3.362  0.6826  0.3571  0.6698
 4490SOL    HW223805   1.043   8.664   3.427 -0.7751 -0.2063 -1.3949
 4491SOL     OW23806   2.218   6.288   3.046  0.2314  0.5879 -0.4602
 4491SOL    HW123807   2.164   6.205   3.027  1.1246 -0.2248  0.4883
 4491SOL    HW223808   2.297   6.291   2.984  0.7905  0.1575  0.2175
 4492SOL     OW23809   7.861   0.674   3.507 -0.3311 -0.0158  0.1920
 4492SOL    HW123810   7.951   0.632   3.514  0.2422  1.3420  1.4596
 4492SOL    HW223811   7.817   0.647   3.422  0.8539 -1.5036  0.0466
 4493SOL     OW23812   9.965   8.946   2.677  0.3294  0.4072  0.5477
 4493SOL    HW123813   9.957   8.851   2.646 -1.0459  0.6026  0.2922
 4493SOL    HW223814  10.015   8.948   2.764  2.5587 -0.3128 -0.6687
 4494SOL     OW23815   1.696   5.252   0.773  0.1585 -0.3209  0.0241
 4494SOL    HW123816   1.761   5.327   0.770 -1.2203  0.8406 -1.8474
 4494SOL    HW223817   1.646   5.254   0.860 -1.0077  1.9119 -0.6802
 4495SOL     OW23818   2.075   0.266   0.755 -0.3293  0.5205 -0.3095
 4495SOL    HW123819   2.115   0.198   0.816 -1.7395 -0.1491 -0.1179
 4495SOL    HW223820   1.980   0.242   0.735  0.0759  0.7772 -2.6943
 4496SOL     OW23821   3.263   2.384   0.401 -0.1498  0.1038  0.0333
 4496SOL    HW123822   3.175   2.416   0.434  0.0579  0.7414 -0.0271
 4496SOL    HW223823   3.320   2.462   0.375 -0.3524 -0.3905 -1.9693
 4497SOL     OW23824   7.227   9.237   1.136  0.1774  0.5257 -0.2464
 4497SOL    HW123825   7.310   9.197   1.097 -0.7087 -0.2697 -1.3483
 4497SOL    HW223826   7.195   9.312   1.079 -2.1858 -1.8496 -2.2030
 4498SOL     OW23827   2.443   5.703   0.603 -0.2183 -0.0748 -0.2823
 4498SOL    HW123828   2.347   5.692   0.576  0.0098  1.6252 -1.9195
 4498SOL    HW223829   2.478   5.616   0.639 -1.3552 -1.7151 -2.9642
 4499SOL     OW23830   2.382   5.660   2.156 -0.0258  0.0910  0.0978
 4499SOL    HW123831   2.396   5.693   2.249 -1.0431  0.8297 -0.0043
 4499SOL    HW223832   2.406   5.731   2.091 -1.3388  0.3325 -0.1447
 4500SOL     OW23833   2.688   3.059   3.205 -0.1718  0.2711 -0.0937
 4500SOL    HW123834   2.632   3.140   3.225 -0.7077 -0.1637  0.1893
 4500SOL    HW223835   2.718   3.018   3.291 -2.5396 -1.6527 -0.1408
 4501SOL     OW23836   3.381   1.055   2.911  0.5355  0.3640 -0.1354
 4501SOL    HW123837   3.406   0.975   2.965 -0.7920  0.0418  0.0066
 4501SOL    HW223838   3.364   1.028   2.816  3.1353  0.9687 -0.8281
 4502SOL     OW23839   1.992   9.072   3.587  0.0675  0.6702  0.4428
 4502SOL    HW123840   2.071   9.083   3.647 -0.0442 -0.9098  0.9173
 4502SOL    HW223841   1.908   9.082   3.640 -0.0336 -1.7520  0.7995
 4503SOL     OW23842   3.184   2.166   3.065 -0.7081 -0.2767  0.2758
 4503SOL    HW123843   3.195   2.136   2.970  0.7116 -3.4328  1.3461
 4503SOL    HW223844   3.174   2.265   3.068  1.2061  0.0800 -3.0011
 4504SOL     OW23845   8.454   2.378   0.546  0.0160 -0.7139  0.2751
 4504SOL    HW123846   8.545   2.336   0.548 -0.4253 -1.7330 -0.7538
 4504SOL    HW223847   8.436   2.423   0.634  2.3898  1.3834 -0.2782
 4505SOL     OW23848   7.667   9.982   3.736 -0.0139 -0.4579  0.0224
 4505SOL    HW123849   7.616   9.987   3.650 -3.1619 -1.0373  1.7399
 4505SOL    HW223850   7.714  10.068   3.753 -2.1278  0.8719 -0.6952
 4506SOL     OW23851   0.352   8.054   1.414  0.1972  0.0643 -0.1836
 4506SOL    HW123852   0.292   7.979   1.441 -1.3016  1.0317 -0.7769
 4506SOL    HW223853   0.429   8.017   1.361 -0.3191 -1.0996 -0.1437
 4507SOL     OW23854   9.822   7.408   1.303 -0.2689  0.0553 -0.4393
 4507SOL    HW123855   9.883   7.435   1.229  0.6968  1.1452  0.7279
 4507SOL    HW223856   9.728   7.433   1.280 -0.4773 -2.5458 -2.6949
 4508SOL     OW23857   8.942   9.413   0.271  0.3300  0.4963 -0.0996
 4508SOL    HW123858   8.978   9.320   0.281 -0.6431  0.1488  0.2620
 4508SOL    HW223859   8.929   9.434   0.174 -0.1242 -0.0208 -0.1555
 4509SOL     OW23860   7.662   9.776   2.615 -0.0988 -0.1123 -0.6028
 4509SOL    HW123861   7.729   9.721   2.665  1.2062  1.4651 -0.5565
 4509SOL    HW223862   7.623   9.721   2.540  0.1178 -1.5315  0.3053
 4510SOL     OW23863   3.263   5.906   3.184 -0.0928 -0.7138 -0.4949
 4510SOL    HW123864   3.244   5.829   3.124 -2.5368 -2.1623  2.0041
 4510SOL    HW223865   3.183   5.967   3.187  0.8129  0.4920 -0.3754
 4511SOL     OW23866   3.292   7.444   3.560  0.0147  0.1368 -0.1070
 4511SOL    HW123867   3.388   7.472   3.562  0.0292 -0.0015  2.3554
 4511SOL    HW223868   3.237   7.517   3.521  0.9423  0.7385 -0.3202
 4512SOL     OW23869   9.941   9.472   2.451  0.1292 -0.6204 -0.5173
 4512SOL    HW123870   9.938   9.382   2.495  2.5280 -1.3186 -1.6361
 4512SOL    HW223871   9.902   9.541   2.511  0.9379 -1.9514  1.5726
 4513SOL     OW23872   1.598   5.578   0.572 -0.4337  0.5948 -0.5240
 4513SOL    HW123873   1.572   5.483   0.561 -0.6066  0.8434 -2.5625
 4513SOL    HW223874   1.624   5.616   0.483 -0.1774  2.3910  0.2832
 4514SOL     OW23875   4.411   8.597   2.258  0.1013  0.1436  0.1469
 4514SOL    HW123876   4.321   8.555   2.249 -0.3518  1.3369 -1.0837
 4514SOL    HW223877   4.411   8.685   2.211  1.6206  0.6068  0.9905
 4515SOL     OW23878   9.869   1.354   2.920 -0.4383 -0.2785 -0.3998
 4515SOL    HW123879   9.964   1.327   2.934  0.3519  3.3180  1.8913
 4515SOL    HW223880   9.858   1.391   2.828  0.4652 -0.4100 -0.5609
 4516SOL     OW23881   8.998   0.708   1.971 -0.3579  0.5201 -0.1130
 4516SOL    HW123882   9.044   0.645   1.908  0.2305  2.8738 -2.1498
 4516SOL    HW223883   9.067   0.757   2.025 -0.8192 -0.7601  1.6663
 4517SOL     OW23884   2.438   9.930   0.761 -0.3109  0.1807  0.2102
 4517SOL    HW123885   2.456   9.899   0.667 -2.2556 -0.7111  0.1155
 4517SOL    HW223886   2.420   9.851   0.820 -0.1955  0.8097  1.0977
 4518SOL     OW23887   1.213   1.413   1.583  0.0301 -0.0725  0.0582
 4518SOL    HW123888   1.293   1.369   1.622 -0.6878 -1.7818 -0.3783
 4518SOL    HW223889   1.215   1.405   1.484 -0.5205  0.1629  0.0242
 4519SOL     OW23890   0.868   7.385   1.182  0.2163  0.9839 -0.1271
 4519SOL    HW123891   0.889   7.293   1.150 -0.2892  0.6282  0.5634
 4519SOL    HW223892   0.950   7.442   1.174  0.4386  0.5689 -0.8651
 4520SOL     OW23893   2.734   0.847   1.569 -0.2945 -0.0385  0.4387
 4520SOL    HW123894   2.809   0.880   1.626 -0.3689  0.0508  0.4851
 4520SOL    HW223895   2.669   0.796   1.625 -0.9388  0.9876  0.6457
 4521SOL     OW23896   4.339   3.009   0.467  0.4610 -0.4912 -0.3190
 4521SOL    HW123897   4.253   2.966   0.438 -0.1391 -0.3519  1.2285
 4521SOL    HW223898   4.396   2.941   0.515 -0.0966  0.1780  1.3245
 4522SOL     OW23899   2.665   2.469   0.704 -0.0068  0.4190 -1.2087
 4522SOL    HW123900   2.581   2.497   0.750 -0.2283  0.4652 -1.6353
 4522SOL    HW223901   2.691   2.538   0.636  0.1038  0.1685 -1.4231
 4523SOL     OW23902   1.835   2.409   2.436 -0.4765 -0.1475  0.2058
 4523SOL    HW123903   1.837   2.403   2.536  1.0118 -0.6646  0.1540
 4523SOL    HW223904   1.780   2.334   2.399  0.9547 -1.3737  0.5375
 4524SOL     OW23905   9.487   3.204   0.950 -0.4348  0.1102  0.2899
 4524SOL    HW123906   9.567   3.260   0.928 -0.5744  0.2309  0.0916
 4524SOL    HW223907   9.448   3.234   1.038  1.3752 -1.7438  1.7835
 4525SOL     OW23908   7.250   3.139   0.495 -0.4055 -0.3062 -0.6649
 4525SOL    HW123909   7.220   3.044   0.482  0.9447 -0.5553 -2.2247
 4525SOL    HW223910   7.328   3.157   0.434 -1.3119  2.1082 -1.1535
 4526SOL     OW23911   1.224   7.680   0.886 -0.7544  0.0808  0.3726
 4526SOL    HW123912   1.127   7.684   0.907 -1.0708  1.0561 -1.2024
 4526SOL    HW223913   1.277   7.691   0.970 -1.9937  1.1802  1.0211
 4527SOL     OW23914   8.934   3.860   4.000  0.4728  0.2453 -0.0214
 4527SOL    HW123915   8.931   3.841   4.098  1.0744  2.4411  0.4402
 4527SOL    HW223916   8.844   3.890   3.969 -0.3865 -2.7778 -0.6849
 4528SOL     OW23917   8.022   1.121   0.200 -0.2156  0.4170  0.0152
 4528SOL    HW123918   7.984   1.066   0.126  0.7390  0.4434 -0.5179
 4528SOL    HW223919   7.985   1.092   0.287 -0.2073 -0.6335 -0.3300
 4529SOL     OW23920   0.166   0.675   1.459 -0.8253  0.3299  0.2853
 4529SOL    HW123921   0.225   0.708   1.386  0.3447 -2.4081 -0.0647
 4529SOL    HW223922   0.080   0.643   1.421 -0.1477 -1.2566  0.0727
 4530SOL     OW23923   1.121   3.297   2.485  0.0994 -0.0852  0.2685
 4530SOL    HW123924   1.027   3.275   2.457 -0.3163  1.4975  0.3779
 4530SOL    HW223925   1.125   3.392   2.516  1.5240 -0.4658  1.2853
 4531SOL     OW23926   3.533   7.538   3.594 -0.1348  0.4737  0.5560
 4531SOL    HW123927   3.551   7.533   3.692 -3.0949  1.3296  1.1942
 4531SOL    HW223928   3.594   7.605   3.552  0.5458  0.7435  1.9568
 4532SOL     OW23929   2.022   5.403   3.485 -0.1550 -0.5293  0.2914
 4532SOL    HW123930   2.051   5.323   3.433  2.0524  0.0630  0.5384
 4532SOL    HW223931   2.074   5.408   3.570  0.2945  1.5737 -0.0821
 4533SOL     OW23932   2.352   1.209   1.719  0.3156  0.1434 -0.1846
 4533SOL    HW123933   2.279   1.159   1.673 -0.0916  0.3284  0.2565
 4533SOL    HW223934   2.335   1.307   1.709  1.4137  0.2099 -1.5401
 4534SOL     OW23935   1.015   8.707   1.412 -0.2567 -0.3146 -0.1921
 4534SOL    HW123936   1.076   8.779   1.380  0.2002  0.3554  2.0572
 4534SOL    HW223937   1.058   8.618   1.396  0.4086  0.0504 -0.4723
 4535SOL     OW23938   3.143   2.309   3.814 -0.3606 -0.2376 -0.3609
 4535SOL    HW123939   3.152   2.366   3.733 -0.2015  2.1065  1.2762
 4535SOL    HW223940   3.048   2.311   3.847 -0.2601 -0.5645 -0.0395
 4536SOL     OW23941   3.709   5.546   2.777 -1.0343  0.0164  0.5095
 4536SOL    HW123942   3.670   5.619   2.833  0.2434  0.5609  0.7027
 4536SOL    HW223943   3.782   5.499   2.829 -1.5227 -1.0882  0.2155
 4537SOL     OW23944   9.059   2.339   1.506  0.1766  0.0735 -0.2989
 4537SOL    HW123945   9.099   2.283   1.433  1.0770 -0.4205  0.5595
 4537SOL    HW223946   9.060   2.435   1.479 -0.2688 -0.1945 -1.2832
 4538SOL     OW23947   2.471   7.509   3.953 -0.3798 -0.5318  0.0655
 4538SOL    HW123948   2.479   7.456   3.869  2.6035 -0.3294  0.1505
 4538SOL    HW223949   2.477   7.448   4.032  1.6130 -0.2834  0.1437
 4539SOL     OW23950   8.363   1.657   3.751 -0.5542 -0.1076 -0.0212
 4539SOL    HW123951   8.274   1.654   3.706  0.1817 -0.4858 -1.4764
 4539SOL    HW223952   8.377   1.748   3.791 -1.6173 -0.0757  0.2982
 4540SOL     OW23953   4.076   8.718   0.826 -0.1441  0.0066 -0.2953
 4540SOL    HW123954   4.025   8.764   0.899  1.8298  1.4935  0.1744
 4540SOL    HW223955   4.120   8.636   0.862  0.6335  0.6104  0.1306
 4541SOL     OW23956   8.741   2.776   2.900 -0.1629  0.3469 -0.1660
 4541SOL    HW123957   8.757   2.686   2.858 -0.8612 -0.4653  1.2623
 4541SOL    HW223958   8.646   2.803   2.887 -0.0266  0.7419 -0.3401
 4542SOL     OW23959   3.175   7.463   0.520  0.2198 -0.0855 -0.7642
 4542SOL    HW123960   3.222   7.385   0.562  0.9694 -1.1233 -3.4349
 4542SOL    HW223961   3.242   7.532   0.493 -0.0520 -0.2597 -1.9191
 4543SOL     OW23962   1.123   1.141   3.912 -0.3381 -0.6921 -0.2700
 4543SOL    HW123963   1.093   1.096   3.996  0.4573  0.8083  0.8547
 4543SOL    HW223964   1.102   1.239   3.918  2.3051 -0.0669 -0.5705
 4544SOL     OW23965   3.126   2.169   2.210 -0.0617  0.2920 -0.1773
 4544SOL    HW123966   3.119   2.149   2.112  0.4097 -1.0864  0.0566
 4544SOL    HW223967   3.221   2.195   2.232  0.5007 -2.1168  0.3778
 4545SOL     OW23968   4.055   2.026   1.333  0.3066 -0.1717  0.1198
 4545SOL    HW123969   4.087   2.121   1.325 -1.3832  0.4258  0.4189
 4545SOL    HW223970   3.956   2.023   1.322  0.5999 -2.1969 -2.1595
 4546SOL     OW23971   3.313   3.758   0.454 -0.3996 -0.4030 -0.7920
 4546SOL    HW123972   3.329   3.664   0.425 -1.0188 -0.4210 -1.0697
 4546SOL    HW223973   3.401   3.802   0.471 -0.0946 -0.9292 -0.9756
 4547SOL     OW23974   5.067   7.920   0.914 -0.2100  0.0606 -0.1670
 4547SOL    HW123975   5.122   8.002   0.898  0.6390 -0.4513  0.1121
 4547SOL    HW223976   5.034   7.920   1.008  0.2038 -0.1538 -0.0170
 4548SOL     OW23977   0.279   8.666   1.023  0.6598 -0.0911  0.3576
 4548SOL    HW123978   0.240   8.604   0.955  1.1852  0.9127 -0.8880
 4548SOL    HW223979   0.306   8.614   1.104 -1.2399 -1.1181  0.3744
 4549SOL     OW23980   7.493   3.152   0.337 -0.0361 -0.1940  0.0486
 4549SOL    HW123981   7.500   3.077   0.271  2.2855 -0.1225  0.1601
 4549SOL    HW223982   7.500   3.239   0.288 -1.8039 -0.0549  0.0214
 4550SOL     OW23983   7.569   8.574   3.591 -0.0277 -0.3378  0.0946
 4550SOL    HW123984   7.580   8.594   3.494 -0.5852  0.9125  0.2762
 4550SOL    HW223985   7.647   8.519   3.622  0.5515 -0.1008 -0.8865
 4551SOL     OW23986   2.049   9.753   0.024  0.4140 -0.1240 -0.1940
 4551SOL    HW123987   1.985   9.783   0.094  1.6062 -0.0527  0.8923
 4551SOL    HW223988   1.999   9.730  -0.060 -0.8909  1.1267  0.2205
 4552SOL     OW23989   2.590   6.366   3.253  0.0849 -0.0508  0.3915
 4552SOL    HW123990   2.660   6.384   3.323  1.5750  0.3584 -1.1826
 4552SOL    HW223991   2.619   6.289   3.197 -0.5286  0.4168 -0.5650
 4553SOL     OW23992   9.075   8.245   3.929  0.9045 -0.0190 -0.6715
 4553SOL    HW123993   9.047   8.319   3.990  0.1811 -0.1653 -0.8190
 4553SOL    HW223994   9.137   8.184   3.977 -0.4705 -0.7100  0.2774
 4554SOL     OW23995   7.958   1.290   1.920  0.2423  0.4067 -0.2430
 4554SOL    HW123996   7.938   1.237   1.837  1.7491 -0.6614  0.0644
 4554SOL    HW223997   8.055   1.312   1.923  0.3212 -0.0975  1.5458
 4555SOL     OW23998   2.958   6.876   2.622 -0.3663 -0.2083  0.6135
 4555SOL    HW123999   2.959   6.793   2.567  0.9082 -0.2382  0.6482
 4555SOL    HW224000   2.915   6.950   2.570 -0.5189 -0.6125  0.1584
 4556SOL     OW24001   8.013   4.718   1.131 -0.6580 -0.4891  0.6866
 4556SOL    HW124002   7.955   4.782   1.081 -1.7851 -0.9225  1.4207
 4556SOL    HW224003   8.103   4.714   1.088 -1.8010 -1.3451 -1.7681
 4557SOL     OW24004   8.003   3.590   0.569  0.2468  0.2785 -0.3220
 4557SOL    HW124005   7.933   3.611   0.500  1.0593  0.6493 -1.0510
 4557SOL    HW224006   8.010   3.491   0.581 -1.4383  0.2803  0.8548
 4558SOL     OW24007   1.523   9.224   2.743 -0.4597 -0.0241 -0.2292
 4558SOL    HW124008   1.568   9.136   2.757 -0.5070 -0.2037 -1.1962
 4558SOL    HW224009   1.592   9.297   2.739 -0.3256 -0.1800 -0.7549
 4559SOL     OW24010   4.258   9.632   2.465 -0.5830 -0.0340 -0.7367
 4559SOL    HW124011   4.322   9.577   2.411  1.2693  0.3073  1.0677
 4559SOL    HW224012   4.165   9.618   2.430  0.4165 -0.7865 -3.1793
 4560SOL     OW24013   8.271   8.100   0.569  0.1390 -0.6236  0.1964
 4560SOL    HW124014   8.261   8.079   0.472  2.4564 -0.8699 -0.0222
 4560SOL    HW224015   8.343   8.043   0.608 -1.6593 -1.4921  2.3993
 4561SOL     OW24016   7.372   9.025   2.769  0.1660  0.3254 -0.4267
 4561SOL    HW124017   7.328   8.982   2.848  0.6444 -0.8488 -0.7883
 4561SOL    HW224018   7.308   9.026   2.692 -0.6532  2.3919  0.2612
 4562SOL     OW24019   2.632   7.715   3.114 -0.2662  0.7338 -0.0107
 4562SOL    HW124020   2.701   7.703   3.186 -1.2481 -1.3646  0.6023
 4562SOL    HW224021   2.675   7.700   3.025  0.1142 -0.4447  0.3581
 4563SOL     OW24022   2.078   0.477   3.198 -0.1203  0.3659 -0.4173
 4563SOL    HW124023   2.150   0.546   3.192  1.9219 -1.6534  0.0699
 4563SOL    HW224024   2.087   0.414   3.120 -0.9074 -0.2982  0.0279
 4564SOL     OW24025   8.016   8.461   2.979  0.0000 -0.1563 -0.6900
 4564SOL    HW124026   8.081   8.438   2.906  0.0420 -3.7462  0.3998
 4564SOL    HW224027   8.067   8.492   3.059  0.2312 -0.7751 -0.5974
 4565SOL     OW24028   9.648   8.898   3.286  0.2822  0.0554  0.7362
 4565SOL    HW124029   9.581   8.853   3.345 -0.8259  2.2289  1.1804
 4565SOL    HW224030   9.672   8.836   3.211 -0.8505 -1.4454  1.5703
 4566SOL     OW24031   5.459   9.641   3.581 -0.7869 -0.4762 -0.2977
 4566SOL    HW124032   5.523   9.710   3.548  0.2122  1.4240  5.2054
 4566SOL    HW224033   5.504   9.552   3.580  1.8730  0.7448  2.9781
 4567SOL     OW24034   1.540   6.197   3.595  0.2888 -0.1399 -0.2477
 4567SOL    HW124035   1.483   6.271   3.559  1.1106  0.4577 -0.3106
 4567SOL    HW224036   1.625   6.234   3.631  0.6155 -1.0339 -0.0857
 4568SOL     OW24037   0.282   9.869   3.536 -1.0128  0.3021 -0.3974
 4568SOL    HW124038   0.367   9.846   3.489 -0.6282 -1.3852  1.0587
 4568SOL    HW224039   0.212   9.802   3.512 -1.9807  1.7563 -1.6894
 4569SOL     OW24040   1.496   1.798   1.570 -0.2596 -0.3414 -0.1476
 4569SOL    HW124041   1.487   1.834   1.662  0.3498  1.5441 -0.8097
 4569SOL    HW224042   1.415   1.743   1.548 -0.8487 -0.0059  1.1404
 4570SOL     OW24043   0.952   2.103   3.603  0.4718  0.1135  0.1379
 4570SOL    HW124044   0.854   2.083   3.601  0.5583 -0.4730  1.8646
 4570SOL    HW224045   0.971   2.175   3.670  1.4605 -1.1191  1.2110
 4571SOL     OW24046   1.494   7.820   0.309 -0.5625  0.1042 -0.2368
 4571SOL    HW124047   1.519   7.811   0.405  0.1612  0.1612 -0.4169
 4571SOL    HW224048   1.421   7.888   0.299 -1.6032 -0.9167  0.4214
 4572SOL     OW24049   9.413   3.385   3.161  0.8863  0.2671 -0.2359
 4572SOL    HW124050   9.462   3.436   3.231  1.2635  0.0793 -0.3642
 4572SOL    HW224051   9.470   3.310   3.128  0.1704 -0.5215  0.2835
 4573SOL     OW24052   4.894   8.338   1.816  0.1183 -0.4658  0.3807
 4573SOL    HW124053   4.964   8.350   1.886 -1.3415  0.6476  1.6736
 4573SOL    HW224054   4.896   8.415   1.752  1.0150 -1.1546 -0.4373
 4574SOL     OW24055   8.784   0.185   0.769 -0.2180  0.0205  0.2619
 4574SOL    HW124056   8.883   0.173   0.763 -0.2861  0.0935 -1.4550
 4574SOL    HW224057   8.753   0.167   0.862  1.3326 -0.5792  0.6728
 4575SOL     OW24058   4.815   7.910   0.781  0.3204 -0.1789  0.0350
 4575SOL    HW124059   4.914   7.914   0.795  0.2025  0.8428  0.6644
 4575SOL    HW224060   4.772   7.867   0.860  0.2698 -0.7706 -0.3106
 4576SOL     OW24061   3.863   7.251   2.354 -0.1923  0.0034 -0.0787
 4576SOL    HW124062   3.861   7.262   2.453 -1.8755 -2.2179  0.1705
 4576SOL    HW224063   3.789   7.190   2.326 -1.1734  2.4076 -2.9571
 4577SOL     OW24064   0.304   0.423   3.302  0.1259 -0.3756  0.1365
 4577SOL    HW124065   0.225   0.483   3.311  0.7750  0.4931  0.1233
 4577SOL    HW224066   0.353   0.418   3.389 -0.1130 -1.1704  0.2362
 4578SOL     OW24067   3.943   7.676   1.107 -0.5895 -0.4273 -0.6502
 4578SOL    HW124068   3.961   7.580   1.125  2.8958  0.1308 -0.8295
 4578SOL    HW224069   3.974   7.699   1.015  0.5590  1.2905  0.1287
 4579SOL     OW24070   3.555   7.122   2.876 -0.2090 -0.4200 -0.0757
 4579SOL    HW124071   3.626   7.183   2.912  0.8109 -0.5424 -1.8213
 4579SOL    HW224072   3.472   7.132   2.930  0.3542  1.5819  0.4551
 4580SOL     OW24073   1.431   2.612   2.644 -0.1354 -0.1569 -0.4019
 4580SOL    HW124074   1.486   2.575   2.719  0.0626 -0.7361 -0.8275
 4580SOL    HW224075   1.445   2.556   2.562 -0.4130  0.4235 -0.8480
 4581SOL     OW24076   1.381   0.468   1.924 -0.3575  0.0335  0.8352
 4581SOL    HW124077   1.377   0.431   2.017  2.5566 -0.1445  0.9133
 4581SOL    HW224078   1.391   0.393   1.859 -3.6156  0.0525  0.2070
 4582SOL     OW24079   9.102   1.393   1.467  0.1470  0.0843 -0.4795
 4582SOL    HW124080   9.071   1.321   1.405 -2.8590 -0.1983  1.2600
 4582SOL    HW224081   9.026   1.455   1.487  1.5989  1.3469  1.3062
 4583SOL     OW24082   8.032   9.962   2.010 -0.9037 -0.2656 -0.0038
 4583SOL    HW124083   8.077   9.985   2.097  0.0956 -2.2168  0.0355
 4583SOL    HW224084   7.999   9.868   2.014 -2.8357  0.3485 -0.9616
 4584SOL     OW24085   2.673   7.309   2.373  0.1089  0.4151 -0.0130
 4584SOL    HW124086   2.625   7.300   2.286 -0.2425 -0.1628  0.2348
 4584SOL    HW224087   2.606   7.311   2.447  0.3312  2.2413  0.1568
 4585SOL     OW24088   1.855   4.042   0.841  0.0017  0.0591  0.2626
 4585SOL    HW124089   1.815   3.950   0.839 -0.6285  0.3389 -0.2289
 4585SOL    HW224090   1.922   4.051   0.767  0.5452 -0.2126  0.7148
 4586SOL     OW24091   1.379   9.331   2.567  0.0532 -0.0068  0.1689
 4586SOL    HW124092   1.441   9.293   2.635 -0.6453 -0.5831  0.4886
 4586SOL    HW224093   1.400   9.428   2.553  1.2064 -0.2551  0.0636
 4587SOL     OW24094   9.005   2.310   3.013  0.1878  0.5692 -0.1241
 4587SOL    HW124095   8.920   2.356   3.037  0.9062  1.9193 -0.1095
 4587SOL    HW224096   9.015   2.226   3.067  0.5761  2.2281  2.4525
 4588SOL     OW24097   0.068   8.841   1.921 -0.2175  0.2422 -0.0826
 4588SOL    HW124098   0.099   8.832   1.827  2.7889  0.0444  0.8834
 4588SOL    HW224099   0.024   8.756   1.950 -1.8438  0.5670 -1.5127
 4589SOL     OW24100   0.472   8.872   3.705 -0.1908 -0.2945  0.1499
 4589SOL    HW124101   0.459   8.945   3.637 -1.2467  1.3112  2.0505
 4589SOL    HW224102   0.400   8.804   3.695 -0.3018 -0.1039 -0.3748
 4590SOL     OW24103   4.404   8.421   2.702 -0.1097 -0.0553  0.1483
 4590SOL    HW124104   4.420   8.347   2.768  0.5425 -0.0930 -0.0503
 4590SOL    HW224105   4.311   8.414   2.666  0.3471 -1.5048 -0.7868
 4591SOL     OW24106   3.927   7.594   3.280 -0.4848  0.7943  0.3988
 4591SOL    HW124107   3.872   7.647   3.345 -1.6773 -0.4891  0.4543
 4591SOL    HW224108   4.004   7.649   3.250 -3.1603  3.6568 -1.6117
 4592SOL     OW24109   2.591   0.540   3.431  0.0645  0.0043  0.3355
 4592SOL    HW124110   2.519   0.598   3.471  0.8458 -0.1798  2.0800
 4592SOL    HW224111   2.578   0.533   3.332  0.2083  3.5293  0.0090
 4593SOL     OW24112   9.109   1.326   1.013 -0.2075  0.0224  0.5567
 4593SOL    HW124113   9.181   1.382   0.973  0.0333  0.9960  2.2704
 4593SOL    HW224114   9.149   1.244   1.055 -0.0994  0.4698  1.3447
 4594SOL     OW24115   3.135   5.390   1.733 -0.6379 -0.4779 -0.1519
 4594SOL    HW124116   3.225   5.398   1.690 -1.1292 -0.3343 -1.1568
 4594SOL    HW224117   3.078   5.328   1.679 -1.5143  0.2983 -0.1206
 4595SOL     OW24118   2.465   7.232   0.903 -0.3227  0.0844 -0.2334
 4595SOL    HW124119   2.559   7.202   0.887 -0.8051 -1.4894 -0.2219
 4595SOL    HW224120   2.430   7.188   0.986 -0.1022  2.9529  1.4524
 4596SOL     OW24121   4.707   7.796   0.548 -0.7196 -0.7260 -0.3060
 4596SOL    HW124122   4.728   7.823   0.454 -1.9786  1.3235 -0.0237
 4596SOL    HW224123   4.753   7.857   0.611 -1.7537 -0.6419  0.3776
 4597SOL     OW24124   4.010   7.476   3.665 -0.4536 -0.2987  0.4437
 4597SOL    HW124125   4.098   7.432   3.646 -1.0763 -1.4463  0.1651
 4597SOL    HW224126   3.972   7.437   3.749 -1.0817 -0.4091  0.1110
 4598SOL     OW24127   9.754   2.150   0.720 -0.4143 -0.5968  0.3655
 4598SOL    HW124128   9.715   2.236   0.686 -0.6168 -1.0633 -0.6013
 4598SOL    HW224129   9.853   2.151   0.708 -0.2004  0.2842  2.1309
 4599SOL     OW24130   1.625   4.703   1.159 -0.2584  0.1203  0.0245
 4599SOL    HW124131   1.714   4.684   1.201  0.1334 -1.3887 -1.4344
 4599SOL    HW224132   1.617   4.800   1.140  1.1428  0.2496  0.0403
 4600SOL     OW24133   4.997   8.027   3.710 -0.2995  0.3406 -0.5154
 4600SOL    HW124134   4.940   8.044   3.630 -3.5207 -0.6448  1.5069
 4600SOL    HW224135   5.086   8.071   3.697 -0.3677 -0.6122 -5.0142
 4601SOL     OW24136   3.896   0.825   3.051  0.1395 -0.2369 -0.1413
 4601SOL    HW124137   3.820   0.760   3.044  0.0002  0.1596 -2.8152
 4601SOL    HW224138   3.983   0.778   3.039  0.0107  0.1240 -2.6272
 4602SOL     OW24139   4.193   0.866   3.118  0.1364  0.6837 -0.2082
 4602SOL    HW124140   4.266   0.879   3.185  1.0285 -0.4959 -0.9025
 4602SOL    HW224141   4.145   0.781   3.138 -0.2544  0.8460 -0.4640
 4603SOL     OW24142   9.132   8.676   2.072  0.4061  0.2482 -0.2809
 4603SOL    HW124143   9.199   8.711   2.137 -1.6324  3.1341  0.4019
 4603SOL    HW224144   9.148   8.717   1.982 -0.9173  1.5965  0.0857
 4604SOL     OW24145   7.975   1.730   2.680  0.1030  0.6396 -0.1834
 4604SOL    HW124146   8.014   1.688   2.598  0.8135  0.7329  0.1003
 4604SOL    HW224147   7.892   1.681   2.706 -0.5719  1.0980 -1.4044
 4605SOL     OW24148   2.132   5.964   2.325 -0.2068  0.4243 -0.2566
 4605SOL    HW124149   2.229   5.982   2.343 -0.3158  1.1580 -0.3839
 4605SOL    HW224150   2.105   5.880   2.372  0.2255  0.7965  0.6790
 4606SOL     OW24151   3.836   5.117   1.942 -0.6237 -0.7102  0.7713
 4606SOL    HW124152   3.821   5.085   2.036 -1.5113 -1.9625  0.2207
 4606SOL    HW224153   3.889   5.049   1.892 -2.3017 -1.2384 -0.3443
 4607SOL     OW24154   1.814   7.565   3.931  0.0696  0.0907 -0.1284
 4607SOL    HW124155   1.794   7.572   4.029 -0.6249  1.0106 -0.3170
 4607SOL    HW224156   1.728   7.564   3.880  0.4044 -1.3996 -0.6765
 4608SOL     OW24157   1.171   8.876   2.091  0.0143  0.0753 -0.0533
 4608SOL    HW124158   1.175   8.897   1.993  0.0598 -1.4438 -0.3766
 4608SOL    HW224159   1.253   8.827   2.118 -0.3854 -0.2506  0.5852
 4609SOL     OW24160   2.108   4.154   0.943 -0.2648  0.2746 -0.2311
 4609SOL    HW124161   2.098   4.253   0.928 -0.9415  0.4459  1.2098
 4609SOL    HW224162   2.027   4.107   0.907 -0.2126  0.3128 -0.3964
 4610SOL     OW24163   9.807   2.539   2.084 -0.3752  0.3351  0.1653
 4610SOL    HW124164   9.833   2.456   2.034 -0.6797  0.1481  0.3180
 4610SOL    HW224165   9.715   2.567   2.056 -0.0638  0.9288 -0.2868
 4611SOL     OW24166   6.691   8.615   1.801  0.3894 -0.0393  0.3664
 4611SOL    HW124167   6.701   8.537   1.738 -1.3589  0.1569 -0.1786
 4611SOL    HW224168   6.619   8.595   1.867  0.0354  1.0700  0.3193
 4612SOL     OW24169   0.021   1.558   2.471 -0.0999 -0.9088  0.1457
 4612SOL    HW124170   0.113   1.539   2.507  0.4642 -0.7234 -1.1711
 4612SOL    HW224171   0.016   1.529   2.375 -1.6711 -1.6730  0.4367
 4613SOL     OW24172   8.799   3.207   1.111 -0.1169 -0.3550 -0.3760
 4613SOL    HW124173   8.801   3.130   1.048  4.0863 -0.2670 -0.5026
 4613SOL    HW224174   8.799   3.174   1.206  0.4850 -0.5415 -0.4378
 4614SOL     OW24175   2.372   9.119   0.498  0.4275 -0.5442  0.1059
 4614SOL    HW124176   2.383   9.056   0.575  0.5313 -0.0081  0.5277
 4614SOL    HW224177   2.334   9.205   0.531 -0.3922 -0.6389 -0.5811
 4615SOL     OW24178   3.616   9.413   2.244  0.5013  0.3649  0.0150
 4615SOL    HW124179   3.634   9.499   2.197 -0.5562  0.0819 -0.9190
 4615SOL    HW224180   3.632   9.424   2.342 -1.0017  2.0067  0.0925
 4616SOL     OW24181   8.827   4.750   0.655 -0.7054  0.1714  0.3671
 4616SOL    HW124182   8.883   4.785   0.580  1.1453 -2.7479  0.2790
 4616SOL    HW224183   8.786   4.826   0.706  1.2775  2.2927 -1.1303
 4617SOL     OW24184   0.625   7.752   0.169 -0.4146  0.0879  0.5572
 4617SOL    HW124185   0.633   7.851   0.171  0.3838  0.0776 -1.0235
 4617SOL    HW224186   0.715   7.711   0.157 -0.9451 -0.7410 -0.7830
 4618SOL     OW24187   3.850   3.356   2.783  0.5887 -0.1295  0.7562
 4618SOL    HW124188   3.851   3.274   2.726 -0.7723  2.1730 -2.7336
 4618SOL    HW224189   3.837   3.329   2.879 -1.3993 -3.8771 -0.4398
 4619SOL     OW24190   1.767   3.774   2.889  0.6609  0.2634  0.6180
 4619SOL    HW124191   1.766   3.826   2.974 -3.2993  1.3567  0.0340
 4619SOL    HW224192   1.807   3.830   2.816 -1.4406  1.6915  0.5074
 4620SOL     OW24193   4.305   7.490   3.863 -0.1777 -0.4013  0.2609
 4620SOL    HW124194   4.339   7.507   3.955  3.5854  0.0133 -1.1428
 4620SOL    HW224195   4.357   7.545   3.797 -1.9843 -1.5916 -2.2481
 4621SOL     OW24196   4.333   1.920   1.345  0.2661  0.3324 -0.0763
 4621SOL    HW124197   4.335   1.822   1.325  0.2897  0.3504 -0.1622
 4621SOL    HW224198   4.249   1.960   1.309 -0.0537  0.2187  0.5388
 4622SOL     OW24199   3.790   3.031   1.267  0.0565  0.0357  0.0108
 4622SOL    HW124200   3.799   3.127   1.295  0.1920  0.1769 -0.4950
 4622SOL    HW224201   3.817   3.023   1.171 -0.1768 -0.4718 -0.0114
 4623SOL     OW24202   8.147   1.777   2.904  0.2535  0.5058 -0.4515
 4623SOL    HW124203   8.159   1.867   2.945 -2.1415  0.5685  0.1872
 4623SOL    HW224204   8.085   1.784   2.825  1.4731 -0.3041 -1.5165
 4624SOL     OW24205   2.143   2.929   0.799 -0.4044 -0.2855 -0.4823
 4624SOL    HW124206   2.220   2.972   0.846  0.9772 -2.8458 -0.2976
 4624SOL    HW224207   2.132   2.971   0.708 -0.1239  1.4902  0.2727
 4625SOL     OW24208   4.015   3.450   3.162 -0.2311 -0.4918  0.1372
 4625SOL    HW124209   4.077   3.474   3.087  0.5208  0.3863  1.0300
 4625SOL    HW224210   4.060   3.466   3.250 -2.2294  1.7290  0.8363
 4626SOL     OW24211   0.923   2.943   0.347  0.6599 -0.0176  0.2916
 4626SOL    HW124212   0.964   2.862   0.388 -0.2441 -1.0684 -0.8340
 4626SOL    HW224213   0.895   3.007   0.419  1.8343 -0.4639  1.1608
 4627SOL     OW24214   1.339   0.302   0.783 -0.4190  0.0361  0.4026
 4627SOL    HW124215   1.341   0.272   0.878  1.7549 -1.3313 -0.0484
 4627SOL    HW224216   1.304   0.229   0.725  0.6239 -0.0293 -0.1544
 4628SOL     OW24217   4.187   9.303   2.720 -0.7186  0.2618  0.1760
 4628SOL    HW124218   4.099   9.258   2.737 -0.6687 -0.6984 -1.9405
 4628SOL    HW224219   4.199   9.316   2.621  1.5231  0.3791  0.4403
 4629SOL     OW24220   1.716   3.432   1.157 -0.4872  0.2677 -0.0590
 4629SOL    HW124221   1.730   3.346   1.108 -1.0656  0.6299 -0.8886
 4629SOL    HW224222   1.699   3.505   1.091  0.8805  1.1965  0.5969
 4630SOL     OW24223   0.013   0.786   2.997 -0.3035 -0.2039 -0.0621
 4630SOL    HW124224  -0.044   0.806   3.077 -0.3620  1.5863 -0.5381
 4630SOL    HW224225   0.022   0.868   2.941 -1.2814 -1.7551 -2.5667
 4631SOL     OW24226   1.408   4.881   3.787  0.2183  0.1983  0.0828
 4631SOL    HW124227   1.324   4.933   3.768  0.0443 -0.7275 -1.8350
 4631SOL    HW224228   1.411   4.858   3.884 -1.0528  1.4540  0.4432
 4632SOL     OW24229   8.844   9.836   0.135  0.2861  0.3184  0.6720
 4632SOL    HW124230   8.898   9.785   0.202  0.9423  0.6522  0.3960
 4632SOL    HW224231   8.791   9.772   0.079 -0.0329  0.0229  1.3075
 4633SOL     OW24232   0.785   2.472   3.483 -0.0368  1.0207 -0.1265
 4633SOL    HW124233   0.811   2.555   3.433 -0.9186  1.1391 -0.3923
 4633SOL    HW224234   0.692   2.445   3.457 -0.1512  0.5544  0.7454
 4634SOL     OW24235   2.022   8.393   1.892 -0.4021  0.6449  0.1245
 4634SOL    HW124236   1.973   8.388   1.805 -1.3881  1.0306  0.6550
 4634SOL    HW224237   2.099   8.456   1.883  0.1381 -0.1284 -0.7695
 4635SOL     OW24238   3.557   9.015   0.333 -0.2056 -0.3125 -0.4077
 4635SOL    HW124239   3.461   9.041   0.345 -0.0227 -0.2886  1.1584
 4635SOL    HW224240   3.615   9.085   0.374  0.3824 -1.7445  1.2541
 4636SOL     OW24241   2.009   8.946   0.352 -0.2293  0.1018 -0.3766
 4636SOL    HW124242   2.104   8.931   0.325  0.5714  0.4382  2.1127
 4636SOL    HW224243   1.960   8.859   0.353  0.3468 -0.2269 -0.5886
 4637SOL     OW24244   9.070   1.798   3.177 -0.0387 -0.0330  0.2943
 4637SOL    HW124245   9.140   1.755   3.234 -0.1028 -0.3791  0.1108
 4637SOL    HW224246   9.106   1.884   3.141  0.3258 -0.2521  0.1277
 4638SOL     OW24247   1.909   0.852   2.155 -0.4351  0.3790  0.7787
 4638SOL    HW124248   1.873   0.790   2.085  1.0247 -0.5525  0.8272
 4638SOL    HW224249   1.904   0.946   2.122  1.2705 -0.1376 -1.0727
 4639SOL     OW24250   2.938   1.439   1.070  0.2775 -0.0889  0.0452
 4639SOL    HW124251   2.945   1.538   1.069  0.6953 -0.1199 -1.6965
 4639SOL    HW224252   2.877   1.410   1.144  1.5980  1.3530  1.7419
 4640SOL     OW24253   1.324   4.227   2.981  0.0725  0.0170  0.2634
 4640SOL    HW124254   1.358   4.290   2.913  1.4912 -0.7356  0.2674
 4640SOL    HW224255   1.226   4.243   2.996 -0.2948  0.0446 -2.0781
 4641SOL     OW24256   9.717   1.900   0.652  0.3968 -0.1579  0.3108
 4641SOL    HW124257   9.734   1.998   0.657  2.1599 -0.4024 -0.2599
 4641SOL    HW224258   9.783   1.852   0.710 -1.0032 -0.9565  1.2642
 4642SOL     OW24259   8.050   0.776   1.123 -0.3739  0.2493 -0.3143
 4642SOL    HW124260   8.053   0.682   1.157  1.1183 -0.3820 -2.1179
 4642SOL    HW224261   7.960   0.793   1.083 -0.8206 -0.2546  0.4567
 4643SOL     OW24262   8.423   2.440   1.619  0.1520 -0.2102 -0.3047
 4643SOL    HW124263   8.366   2.476   1.546  0.0064 -0.2455 -0.2084
 4643SOL    HW224264   8.381   2.358   1.658  0.6469 -0.6843 -0.7505
 4644SOL     OW24265   9.820   1.419   2.609  0.1712 -0.1397 -0.2120
 4644SOL    HW124266   9.768   1.491   2.657  0.3155  1.0881 -1.8504
 4644SOL    HW224267   9.903   1.459   2.571  0.8289 -1.4538 -0.1545
 4645SOL     OW24268   4.765   7.786   3.195 -0.4215 -0.6341  0.2074
 4645SOL    HW124269   4.729   7.872   3.158 -0.5288 -0.0962  1.5252
 4645SOL    HW224270   4.856   7.769   3.157 -0.3783  0.0973 -0.0197
 4646SOL     OW24271   1.866   9.922   2.230  0.3967 -0.8057  0.0007
 4646SOL    HW124272   1.796   9.855   2.254  0.8735 -1.2371  0.1994
 4646SOL    HW224273   1.846  10.008   2.276 -1.3221 -0.2015 -1.8293
 4647SOL     OW24274   1.699   5.962   1.027 -1.1932  0.3832 -0.5133
 4647SOL    HW124275   1.788   5.994   1.058 -1.0275 -0.5761  0.0210
 4647SOL    HW224276   1.639   5.946   1.106 -1.6865  0.5813 -0.8428
 4648SOL     OW24277   5.144   9.375   3.039 -0.0764 -0.3332 -0.5780
 4648SOL    HW124278   5.132   9.366   2.940  0.1835  0.2139 -0.6574
 4648SOL    HW224279   5.080   9.442   3.074  0.4562  0.1416 -0.5089
 4649SOL     OW24280   7.704   3.066   1.007  0.0604 -0.5586 -0.1596
 4649SOL    HW124281   7.782   3.060   0.945  0.3305 -0.2863  0.1497
 4649SOL    HW224282   7.642   2.989   0.991  0.1554 -0.5198 -0.7259
 4650SOL     OW24283   3.920   2.903   1.900 -1.0670  0.4959 -0.1472
 4650SOL    HW124284   3.881   2.971   1.837 -0.5829  0.6035 -0.3336
 4650SOL    HW224285   3.966   2.950   1.975  0.2495  0.3986 -0.8701
 4651SOL     OW24286   2.145   9.873   0.565 -0.2790 -0.5133 -0.0568
 4651SOL    HW124287   2.077   9.930   0.519 -0.3626 -0.9771 -0.5202
 4651SOL    HW224288   2.212   9.931   0.611 -0.3403 -0.0471 -0.5513
 4652SOL     OW24289   2.369   3.453   0.059  0.2303 -0.3197  0.0529
 4652SOL    HW124290   2.446   3.476  -0.001  0.0529  0.1951  0.0207
 4652SOL    HW224291   2.316   3.536   0.078  0.4951 -0.4060  1.2180
 4653SOL     OW24292   9.557   0.806   2.487  0.5458 -0.1732 -0.3385
 4653SOL    HW124293   9.557   0.708   2.509 -1.1445 -0.1066 -0.0187
 4653SOL    HW224294   9.495   0.823   2.411  1.3420  0.5681 -0.8295
 4654SOL     OW24295   8.790   2.983   1.633  0.1954  0.3447 -0.4697
 4654SOL    HW124296   8.699   3.013   1.660 -0.4352 -1.5929 -0.3527
 4654SOL    HW224297   8.855   3.000   1.707 -0.2915  0.7334 -0.1334
 4655SOL     OW24298   2.683   1.311   1.857 -0.1822  0.1839 -0.1421
 4655SOL    HW124299   2.622   1.381   1.819  0.2699  0.6473 -0.0146
 4655SOL    HW224300   2.636   1.223   1.857 -0.7271  0.4707 -0.3775
 4656SOL     OW24301   9.380   3.581   1.556  0.0803  0.0716  0.1671
 4656SOL    HW124302   9.285   3.605   1.540 -0.3491 -0.7859  1.3264
 4656SOL    HW224303   9.385   3.501   1.616  1.4722 -2.3497 -3.0380
 4657SOL     OW24304   7.985   9.033   0.980  0.2714  0.0371 -0.1207
 4657SOL    HW124305   7.946   9.120   1.010 -1.5480 -1.7268  2.9977
 4657SOL    HW224306   7.912   8.964   0.973  1.9384 -1.7425 -0.5157
 4658SOL     OW24307   7.628   9.663   1.098  0.3994  0.4011 -0.5161
 4658SOL    HW124308   7.728   9.667   1.098  0.3758  1.2168  0.6719
 4658SOL    HW224309   7.591   9.755   1.110 -0.4978  0.0137 -0.3040
 4659SOL     OW24310   7.800   4.939   1.120  0.2728  0.1492 -0.0253
 4659SOL    HW124311   7.784   4.971   1.026  1.0868  0.5214 -0.0429
 4659SOL    HW224312   7.716   4.898   1.156 -0.7420  2.1155 -0.0760
 4660SOL     OW24313   9.100   3.162   3.002 -0.1712  0.2775  0.5532
 4660SOL    HW124314   9.171   3.130   2.940  0.7180  1.5569  0.8764
 4660SOL    HW224315   9.029   3.093   3.011  0.6667 -0.7121 -0.3588
 4661SOL     OW24316   2.841   8.357   3.622  0.0604 -0.6020 -0.9101
 4661SOL    HW124317   2.822   8.265   3.587  1.2075 -0.7037 -1.2767
 4661SOL    HW224318   2.835   8.357   3.721 -0.6870 -0.8968 -0.9520
 4662SOL     OW24319   3.131   5.132   1.035 -0.3997 -0.0318  0.1934
 4662SOL    HW124320   3.169   5.093   0.951 -0.7635 -0.3399  0.1695
 4662SOL    HW224321   3.056   5.074   1.068 -0.6680  0.4232  0.3913
 4663SOL     OW24322   6.458   9.289   2.210 -1.0530 -0.6051  0.1320
 4663SOL    HW124323   6.541   9.342   2.190 -0.7143 -1.1628  0.0423
 4663SOL    HW224324   6.392   9.347   2.255  0.1510 -0.6490  1.9999
 4664SOL     OW24325   0.816   2.416   0.047  0.0727 -0.0466 -0.1022
 4664SOL    HW124326   0.874   2.472  -0.012  0.6756  2.6872  2.9312
 4664SOL    HW224327   0.721   2.421   0.016  0.0832  2.8712  0.2331
 4665SOL     OW24328   1.190   9.063   3.238 -0.8695 -0.1282 -0.2622
 4665SOL    HW124329   1.190   8.972   3.279 -1.5010  0.5539  1.2640
 4665SOL    HW224330   1.250   9.123   3.290 -0.5884  0.3970 -1.1703
 4666SOL     OW24331   9.554   9.030   2.943 -0.9352  0.0815 -0.2768
 4666SOL    HW124332   9.469   9.074   2.914 -0.1839  0.1629 -2.4234
 4666SOL    HW224333   9.614   9.098   2.985 -2.4261 -0.2280  2.5208
 4667SOL     OW24334   4.305   3.014   3.666 -0.1578  0.0171  0.7491
 4667SOL    HW124335   4.290   3.103   3.708 -0.3680  0.3800 -0.0976
 4667SOL    HW224336   4.278   2.942   3.731 -0.2243  0.5644  1.3353
 4668SOL     OW24337   7.875   1.622   1.946 -0.5358 -0.1282  0.3531
 4668SOL    HW124338   7.799   1.557   1.939 -1.1421  0.7325 -1.3217
 4668SOL    HW224339   7.944   1.600   1.876 -0.4807  0.6749  0.1474
 4669SOL     OW24340   3.646   7.280   1.989 -0.7428  0.1182  0.7988
 4669SOL    HW124341   3.744   7.275   1.967 -1.5927 -1.4124 -2.9727
 4669SOL    HW224342   3.628   7.230   2.073  1.7512  0.6863  1.7189
 4670SOL     OW24343   4.976   8.928   2.040  0.1657 -0.3594 -0.4580
 4670SOL    HW124344   5.036   8.997   2.000  0.9816 -0.7852 -0.0056
 4670SOL    HW224345   4.960   8.950   2.136 -0.6726 -0.0740 -0.6629
 4671SOL     OW24346   2.471   5.096   3.657 -0.2266 -0.6120 -1.0110
 4671SOL    HW124347   2.374   5.115   3.641  0.0823  0.4503 -1.6987
 4671SOL    HW224348   2.507   5.042   3.580  0.3746  1.3499 -2.1442
 4672SOL     OW24349   3.208   2.579   1.082 -0.2205 -0.1935  0.3018
 4672SOL    HW124350   3.234   2.600   1.177  0.2929 -2.5010  0.6936
 4672SOL    HW224351   3.178   2.484   1.076 -3.3235  0.8462 -1.2526
 4673SOL     OW24352   0.662   0.558   3.157  0.3229  0.4713  0.1358
 4673SOL    HW124353   0.666   0.595   3.064 -1.0251 -2.1817 -1.0372
 4673SOL    HW224354   0.753   0.528   3.185  0.5829  0.5140 -0.6420
 4674SOL     OW24355   7.794   2.490   0.742  0.0634 -0.1224  0.0348
 4674SOL    HW124356   7.823   2.568   0.798  0.0726  0.3684 -0.6419
 4674SOL    HW224357   7.753   2.524   0.657  4.3230 -0.8031 -2.4967
 4675SOL     OW24358   3.936   0.227   0.709  0.7249  0.0440 -0.0976
 4675SOL    HW124359   3.987   0.227   0.795  0.8821 -0.8394 -0.1848
 4675SOL    HW224360   3.960   0.145   0.656 -2.4839 -1.6201  0.8908
 4676SOL     OW24361   9.839   9.477   2.765 -0.1923  0.1616 -0.6632
 4676SOL    HW124362   9.775   9.495   2.840  0.6963 -0.4722  0.2605
 4676SOL    HW224363   9.795   9.419   2.696 -0.7646  0.1232 -0.2701
 4677SOL     OW24364   0.937   7.514   3.111 -0.6203  0.3765  0.5478
 4677SOL    HW124365   0.838   7.516   3.126 -0.7892 -0.5279 -0.3327
 4677SOL    HW224366   0.956   7.526   3.013 -0.1186 -3.7378  0.0401
 4678SOL     OW24367   1.829   3.157   3.011 -0.1848  0.2251  0.2776
 4678SOL    HW124368   1.748   3.099   2.997  0.9250 -0.9476 -1.5468
 4678SOL    HW224369   1.806   3.252   2.994 -0.6258 -0.3750 -2.6555
 4679SOL     OW24370   2.768   4.873   0.309  0.0589 -0.2961  0.4204
 4679SOL    HW124371   2.792   4.776   0.301 -0.6076 -0.4917  0.8022
 4679SOL    HW224372   2.719   4.902   0.227 -0.4477 -0.4826  0.6598
 4680SOL     OW24373   3.475   7.968   1.443 -0.2836 -0.3279  0.5023
 4680SOL    HW124374   3.443   7.923   1.526  2.4876  0.5549  2.1035
 4680SOL    HW224375   3.542   7.910   1.398 -0.2112  0.1369  0.0068
 4681SOL     OW24376   1.711   5.218   0.332  0.5787 -0.5032 -0.1009
 4681SOL    HW124377   1.746   5.274   0.257 -0.5422 -1.6497 -1.5128
 4681SOL    HW224378   1.787   5.187   0.389  1.3651  1.0305 -0.3010
 4682SOL     OW24379   1.864   4.054   3.422  0.0480 -0.9144 -0.4731
 4682SOL    HW124380   1.926   3.976   3.417 -1.0673 -1.7391 -1.7533
 4682SOL    HW224381   1.852   4.093   3.331 -2.6773 -1.8960 -0.5940
 4683SOL     OW24382   3.060   0.429   2.912  0.2757 -0.1012  0.8248
 4683SOL    HW124383   3.144   0.482   2.925  0.7632 -0.8957  0.9636
 4683SOL    HW224384   3.082   0.341   2.870 -0.7184  0.4243 -0.8461
 4684SOL     OW24385   9.252   3.409   2.057 -0.0559 -0.1661  0.0889
 4684SOL    HW124386   9.212   3.318   2.047 -0.7218  0.0836  0.4218
 4684SOL    HW224387   9.317   3.408   2.133  0.6498 -0.6030 -0.5259
 4685SOL     OW24388   2.956   8.606   2.564  0.3083 -0.5384 -0.1123
 4685SOL    HW124389   2.971   8.514   2.529  0.7434 -0.5796  0.1747
 4685SOL    HW224390   2.952   8.603   2.664  0.3530 -0.2474 -0.1006
 4686SOL     OW24391   3.037   5.367   2.454  0.5645 -0.0273 -0.1083
 4686SOL    HW124392   3.089   5.353   2.370 -0.7589  3.1581 -1.5659
 4686SOL    HW224393   2.942   5.339   2.440  0.6618 -0.8108  0.7792
 4687SOL     OW24394   3.936   4.472   1.949 -0.7770 -0.9588  1.3059
 4687SOL    HW124395   3.984   4.401   1.898  1.0101  1.3267 -0.3737
 4687SOL    HW224396   3.919   4.550   1.888 -0.0472  1.2101  3.7795
 4688SOL     OW24397   7.760   5.214   1.181 -0.1459  0.2039 -0.3368
 4688SOL    HW124398   7.797   5.121   1.187 -0.5638  0.1012  0.6045
 4688SOL    HW224399   7.691   5.217   1.109 -0.5408 -0.3554  0.0148
 4689SOL     OW24400   2.576   0.330   1.489 -0.1848  0.5670 -0.0801
 4689SOL    HW124401   2.482   0.319   1.457  0.6773  1.1532 -2.9583
 4689SOL    HW224402   2.603   0.426   1.478  0.3342  0.6985  2.0510
 4690SOL     OW24403   2.750   0.858   3.610  0.2214 -0.6411  0.6936
 4690SOL    HW124404   2.753   0.956   3.627 -0.9462 -0.8111  1.9571
 4690SOL    HW224405   2.729   0.842   3.514 -0.2309  0.3505  0.6165
 4691SOL     OW24406   3.722   8.248   1.051  0.0259 -0.2817  0.3043
 4691SOL    HW124407   3.720   8.326   1.114 -1.7821 -1.5152  1.8255
 4691SOL    HW224408   3.730   8.282   0.957 -1.3497  1.8065  0.8985
 4692SOL     OW24409   0.168   3.650   3.848 -0.7334  0.4393  0.1014
 4692SOL    HW124410   0.170   3.729   3.909  0.6382  0.7612 -0.3558
 4692SOL    HW224411   0.146   3.568   3.900 -0.0581  0.7898  0.9482
 4693SOL     OW24412   2.543   6.313   1.390  0.3153  0.1888  0.1315
 4693SOL    HW124413   2.601   6.232   1.386 -0.2241 -0.2170  0.3362
 4693SOL    HW224414   2.468   6.304   1.324  2.5891  2.4125 -2.9072
 4694SOL     OW24415   3.413   5.419   2.201  0.6799  0.0031  0.1889
 4694SOL    HW124416   3.398   5.503   2.253 -0.8214 -0.2677  0.2233
 4694SOL    HW224417   3.453   5.442   2.112  2.0986  0.5723  0.9652
 4695SOL     OW24418   7.441   0.068   1.779  1.0542 -0.1050 -0.1481
 4695SOL    HW124419   7.363   0.056   1.840  1.4777 -1.1779  0.2073
 4695SOL    HW224420   7.443  -0.007   1.713  2.3432 -0.6644  0.4907
 4696SOL     OW24421   3.705   8.446   3.215 -0.3128 -0.5797 -0.2408
 4696SOL    HW124422   3.656   8.502   3.148 -0.7107 -1.7630 -0.9530
 4696SOL    HW224423   3.666   8.461   3.305 -0.7023 -0.0423 -0.4950
 4697SOL     OW24424   3.852   7.169   3.456  0.3161  0.5838  0.4122
 4697SOL    HW124425   3.924   7.223   3.412  0.8967 -0.0694  0.5405
 4697SOL    HW224426   3.773   7.227   3.475  0.8691  1.3444  0.4111
 4698SOL     OW24427   1.092   8.288   2.511 -0.2221 -0.4073 -0.7549
 4698SOL    HW124428   1.175   8.247   2.549 -0.3484 -0.1336 -0.1662
 4698SOL    HW224429   1.069   8.244   2.424  0.2075 -0.8882 -0.6274
 4699SOL     OW24430   3.061   2.600   0.430  0.3017  0.5002  1.3074
 4699SOL    HW124431   3.150   2.566   0.401 -0.0014  0.7638  0.0456
 4699SOL    HW224432   3.044   2.689   0.388 -2.1653 -1.2241 -1.5555
 4700SOL     OW24433   0.391   2.421   3.205 -0.5432  0.3755 -0.4725
 4700SOL    HW124434   0.409   2.401   3.109 -1.4677  0.7951 -0.7402
 4700SOL    HW224435   0.330   2.352   3.243  0.1675 -0.0358 -0.0587
 4701SOL     OW24436   8.189   0.733   0.225  0.3483 -0.7144  0.7803
 4701SOL    HW124437   8.231   0.642   0.220  0.2139 -0.8683  2.2294
 4701SOL    HW224438   8.258   0.802   0.202  1.1661 -1.0292  2.2108
 4702SOL     OW24439   2.030   7.083   0.856  0.3191 -0.0823  0.3670
 4702SOL    HW124440   1.975   7.090   0.773  1.5322  0.6329 -0.3851
 4702SOL    HW224441   2.007   7.158   0.918 -0.7448 -0.7427  0.7854
 4703SOL     OW24442   1.320   6.053   1.422  0.3249  0.5689  0.1622
 4703SOL    HW124443   1.274   5.977   1.376 -0.2000  0.0229  1.5585
 4703SOL    HW224444   1.391   6.090   1.362 -0.0544 -0.3958 -0.9081
 4704SOL     OW24445   1.741   4.269   0.027 -0.1381  0.2970  0.6460
 4704SOL    HW124446   1.721   4.319  -0.057  1.8709 -1.9484 -1.2159
 4704SOL    HW224447   1.706   4.176   0.020  1.2894 -0.3436  1.7213
 4705SOL     OW24448   2.100   4.697   0.703 -0.1475  0.2508  0.3022
 4705SOL    HW124449   2.109   4.721   0.799 -2.3819 -0.4807  0.7183
 4705SOL    HW224450   2.006   4.672   0.683  0.9895 -3.0533 -1.2953
 4706SOL     OW24451   6.996   0.210   2.218 -0.0994 -0.1378  0.0237
 4706SOL    HW124452   6.916   0.206   2.158 -0.8253  1.7756  0.7982
 4706SOL    HW224453   7.079   0.221   2.162 -0.4595 -1.2332 -0.7419
 4707SOL     OW24454   0.540   8.773   2.371 -0.0746 -0.5571  0.3677
 4707SOL    HW124455   0.541   8.777   2.471 -0.4488 -0.4247  0.3664
 4707SOL    HW224456   0.514   8.862   2.335  2.6893  0.1970  0.0936
 4708SOL     OW24457   9.174   8.112   0.717  0.0061 -0.6711 -0.2240
 4708SOL    HW124458   9.220   8.170   0.785 -0.5527 -0.9155  0.3634
 4708SOL    HW224459   9.128   8.171   0.649 -1.6186 -0.3864  1.0780
 4709SOL     OW24460   1.584   0.297   1.525 -0.2107 -0.2807 -0.0559
 4709SOL    HW124461   1.664   0.246   1.558 -0.1043 -1.0542 -1.4598
 4709SOL    HW224462   1.563   0.268   1.432 -0.0183  2.3808 -0.9765
 4710SOL     OW24463   3.416   4.377   1.847  0.0519 -0.2180 -0.0944
 4710SOL    HW124464   3.336   4.322   1.822  0.0537 -0.8333  1.2379
 4710SOL    HW224465   3.490   4.317   1.878  1.0171  0.3508 -1.2138
 4711SOL     OW24466   0.405   3.213   1.251 -0.2802  0.2549  0.5321
 4711SOL    HW124467   0.306   3.217   1.242 -0.2044  0.2894 -0.3640
 4711SOL    HW224468   0.436   3.118   1.244 -0.1708  0.3373 -0.1768
 4712SOL     OW24469   1.242   8.337   0.925 -0.7764 -0.2277 -0.5604
 4712SOL    HW124470   1.334   8.372   0.944 -0.2625 -1.7139 -0.1879
 4712SOL    HW224471   1.231   8.324   0.827 -0.6204  0.0625 -0.6161
 4713SOL     OW24472   2.307   4.556   2.117 -0.4405 -0.2500 -0.2514
 4713SOL    HW124473   2.212   4.551   2.089 -0.6532  0.9821  0.2085
 4713SOL    HW224474   2.313   4.595   2.209  0.3676 -2.3318  0.6052
 4714SOL     OW24475   1.926   3.006   3.615 -0.0027  0.2018 -0.0935
 4714SOL    HW124476   1.841   2.960   3.639  0.6074 -3.3258 -4.0482
 4714SOL    HW224477   1.912   3.060   3.532  2.1434 -2.7912 -2.5482
 4715SOL     OW24478   1.669   7.878   2.692  1.2980 -0.1768 -0.3630
 4715SOL    HW124479   1.761   7.917   2.699  0.7067  1.1071  0.5985
 4715SOL    HW224480   1.667   7.808   2.621  2.8854  0.1738 -0.7623
 4716SOL     OW24481   1.172   7.199   3.611 -0.1404  0.1513  0.6792
 4716SOL    HW124482   1.266   7.178   3.584 -0.3869 -0.7569  0.5281
 4716SOL    HW224483   1.110   7.173   3.537 -0.5266  0.6689  0.8181
 4717SOL     OW24484   2.322   0.956   0.867  0.0081  0.4760 -0.2403
 4717SOL    HW124485   2.249   0.924   0.927 -0.0917  1.2103  0.0428
 4717SOL    HW224486   2.383   0.881   0.845  0.4121  0.3474  1.3171
 4718SOL     OW24487   1.183   0.941   0.123 -0.6227  0.9744  0.0702
 4718SOL    HW124488   1.193   0.905   0.216 -0.1659  1.9792  0.4267
 4718SOL    HW224489   1.158   0.867   0.061 -0.0108  0.1117  0.8302
 4719SOL     OW24490   2.102   5.515   2.684  0.0675 -0.0289  0.0850
 4719SOL    HW124491   2.133   5.603   2.648 -0.3463  0.4867  0.9465
 4719SOL    HW224492   2.173   5.446   2.672 -0.9144 -0.4522 -3.7489
 4720SOL     OW24493   2.751   1.086   0.421  0.1109 -0.5145  0.3145
 4720SOL    HW124494   2.751   1.022   0.345  1.7473 -0.3545  0.1573
 4720SOL    HW224495   2.771   1.178   0.387 -0.6785 -0.1782  0.7425
 4721SOL     OW24496   0.579   1.082   0.649 -0.0509 -0.0177  0.4093
 4721SOL    HW124497   0.558   1.131   0.734  0.4214 -0.2396  0.6524
 4721SOL    HW224498   0.676   1.059   0.646 -0.4844 -1.9485  0.8115
 4722SOL     OW24499   1.530   2.657   1.747  0.8706 -0.1407 -0.1550
 4722SOL    HW124500   1.532   2.577   1.688  0.8490 -0.1798 -0.1028
 4722SOL    HW224501   1.608   2.716   1.725  1.0884 -0.3508  0.0517
 4723SOL     OW24502   9.092   2.575   2.430  0.0348  0.0243 -0.1238
 4723SOL    HW124503   9.045   2.496   2.391  1.2203 -0.7359 -0.0193
 4723SOL    HW224504   9.183   2.548   2.461 -0.3063  0.9772  1.7530
 4724SOL     OW24505   1.335   9.006   3.670  0.2565 -0.4318  0.3406
 4724SOL    HW124506   1.263   9.070   3.695  0.4318  0.2756 -0.9334
 4724SOL    HW224507   1.371   8.963   3.753 -0.0863  0.8608  1.1766
 4725SOL     OW24508   3.014   1.494   0.181  0.3047  0.2068  0.3122
 4725SOL    HW124509   3.019   1.524   0.085 -1.2276 -0.9693 -0.1749
 4725SOL    HW224510   3.078   1.419   0.195 -1.4594 -1.5423 -0.5968
 4726SOL     OW24511   3.202   2.680   1.765 -0.1929  0.7842  0.1098
 4726SOL    HW124512   3.155   2.762   1.796 -0.6593  1.0883 -1.3792
 4726SOL    HW224513   3.297   2.702   1.743 -0.0977  0.7444  0.4672
 4727SOL     OW24514   2.349   1.378   0.563  0.0538 -0.6738  0.6413
 4727SOL    HW124515   2.320   1.451   0.500 -0.8470  0.0376  1.8573
 4727SOL    HW224516   2.442   1.349   0.539  0.0077  0.1062 -0.5497
 4728SOL     OW24517   4.284   4.141   1.048 -0.5401 -0.3515  0.6654
 4728SOL    HW124518   4.336   4.055   1.046  2.5987  1.4469  0.7425
 4728SOL    HW224519   4.256   4.165   0.955  1.7824  0.3476  0.1117
 4729SOL     OW24520   2.170   9.801   2.473  0.2129 -0.3986  0.9805
 4729SOL    HW124521   2.190   9.848   2.386 -0.0837  1.8065  2.0719
 4729SOL    HW224522   2.095   9.848   2.520  0.0465 -1.8709  2.2073
 4730SOL     OW24523   9.790   9.450   0.361 -0.5409  0.1256 -0.4064
 4730SOL    HW124524   9.722   9.473   0.431  0.6560 -1.2279  1.2341
 4730SOL    HW224525   9.861   9.521   0.360 -0.4971  0.0843 -0.1717
 4731SOL     OW24526   2.945   8.639   1.873  0.2037  0.2157 -0.0628
 4731SOL    HW124527   2.875   8.617   1.805 -1.6538 -1.4306  2.2978
 4731SOL    HW224528   3.028   8.587   1.854 -0.1679  0.0615 -1.2861
 4732SOL     OW24529   2.167   8.202   2.033 -0.0405 -0.2854  0.1862
 4732SOL    HW124530   2.131   8.280   1.981 -2.4599 -0.0959  2.0670
 4732SOL    HW224531   2.127   8.118   1.996 -0.2637 -0.3193  0.5074
 4733SOL     OW24532   1.325   3.981   0.347  0.0945  0.3072  0.0999
 4733SOL    HW124533   1.242   3.987   0.293  0.3392  1.0904 -0.2040
 4733SOL    HW224534   1.302   3.996   0.444 -0.1435  0.3719  0.0348
 4734SOL     OW24535   4.557   8.145   0.237  0.0442  0.6469 -0.3373
 4734SOL    HW124536   4.526   8.109   0.325  0.3081  0.1759 -0.4381
 4734SOL    HW224537   4.515   8.092   0.162  0.6838  0.3373 -0.4802
 4735SOL     OW24538   0.977   9.108   1.298 -0.9815 -0.5237 -0.0483
 4735SOL    HW124539   1.037   9.187   1.308 -1.5974  0.2344 -1.9681
 4735SOL    HW224540   0.920   9.099   1.379  1.6731 -1.2491  1.7858
 4736SOL     OW24541   3.006   5.233   0.026  0.1308 -0.2604  0.2011
 4736SOL    HW124542   3.078   5.167   0.045  0.0455 -0.2911  0.4171
 4736SOL    HW224543   3.045   5.325   0.023  0.3293 -0.3666 -0.5687
 4737SOL     OW24544   2.942   0.665   3.351  0.0427 -0.0117  0.9006
 4737SOL    HW124545   3.026   0.678   3.403 -0.6927 -0.0865  2.1352
 4737SOL    HW224546   2.892   0.586   3.387 -0.0593 -0.5955 -0.4915
 4738SOL     OW24547   7.920   0.793   1.598  0.1249  0.6837  0.3197
 4738SOL    HW124548   7.992   0.844   1.550  0.1927  1.1376  0.9004
 4738SOL    HW224549   7.961   0.716   1.646  0.2646  1.0902  0.8602
 4739SOL     OW24550   8.486   3.467   3.492 -0.0481 -0.5114  0.0855
 4739SOL    HW124551   8.575   3.475   3.537  1.5327  0.0134 -3.0567
 4739SOL    HW224552   8.433   3.550   3.509  0.0105 -0.8259  1.9629
 4740SOL     OW24553   3.950   3.722   0.939 -0.0858 -0.4539 -0.3479
 4740SOL    HW124554   3.879   3.660   0.972  0.2660 -0.2916  0.7530
 4740SOL    HW224555   4.018   3.735   1.011 -0.6129  1.9050 -0.2490
 4741SOL     OW24556   9.456   2.181   1.207  0.3521  0.1793 -0.1887
 4741SOL    HW124557   9.444   2.219   1.115  0.8166  1.1995  0.1596
 4741SOL    HW224558   9.424   2.248   1.274 -0.1940 -0.6529  0.3867
 4742SOL     OW24559   3.946   0.411   0.064 -0.6065  0.0003  0.0669
 4742SOL    HW124560   3.974   0.479   0.131 -0.0334  0.4217 -0.5976
 4742SOL    HW224561   4.019   0.343   0.052 -0.4363  0.2962 -0.6076
 4743SOL     OW24562   9.452   1.317   1.745 -0.3240 -0.1950  0.2566
 4743SOL    HW124563   9.432   1.270   1.831 -1.5394 -2.2911 -1.1359
 4743SOL    HW224564   9.375   1.376   1.721 -0.3993 -0.3426  0.1320
 4744SOL     OW24565   6.320   8.658   2.838  0.1815 -0.5774 -0.6474
 4744SOL    HW124566   6.255   8.599   2.885  0.3320  0.6551  1.1317
 4744SOL    HW224567   6.277   8.745   2.814  0.6722 -0.4353 -1.0349
 4745SOL     OW24568   4.701   8.863   2.028 -0.2427  0.5334  0.1265
 4745SOL    HW124569   4.800   8.865   2.022 -0.2418  0.2869  0.0091
 4745SOL    HW224570   4.666   8.790   1.968 -0.4251 -0.1355  1.0366
 4746SOL     OW24571   0.815   7.777   0.934 -0.4672 -0.2666  0.7113
 4746SOL    HW124572   0.763   7.752   0.852  1.4037  1.2717 -1.0027
 4746SOL    HW224573   0.864   7.697   0.969 -0.8689 -0.8103  0.0395
 4747SOL     OW24574   0.078   8.011   2.508  0.0103  0.0452 -0.1083
 4747SOL    HW124575   0.078   8.102   2.550  2.2483 -0.3660  0.8367
 4747SOL    HW224576   0.085   7.941   2.579 -0.7317 -0.8297 -0.8921
 4748SOL     OW24577   0.286   2.754   2.353 -0.8414  0.8856  0.4591
 4748SOL    HW124578   0.346   2.733   2.430  0.7202  1.0613 -0.6725
 4748SOL    HW224579   0.191   2.762   2.384  0.0263  2.9569  2.6699
 4749SOL     OW24580   9.167   0.854   3.760  0.5338 -0.4407 -0.1696
 4749SOL    HW124581   9.134   0.918   3.829 -0.4799 -1.6744  0.5262
 4749SOL    HW224582   9.238   0.796   3.800  0.4425 -0.6914 -0.3651
 4750SOL     OW24583   1.273   9.549   2.245  0.0966 -0.3812  0.0604
 4750SOL    HW124584   1.360   9.501   2.235  0.9657  1.3045 -0.5993
 4750SOL    HW224585   1.251   9.558   2.342  2.3037  2.0691  0.3731
 4751SOL     OW24586   2.331   8.426   3.047 -0.2258  0.2062  0.2992
 4751SOL    HW124587   2.310   8.334   3.081 -0.0473 -0.0174 -0.1771
 4751SOL    HW224588   2.399   8.469   3.106  0.4630 -0.3762 -0.0581
 4752SOL     OW24589   3.579   4.307   3.122  0.6056  0.0342 -0.0874
 4752SOL    HW124590   3.595   4.260   3.036  0.4761 -0.4538  0.1518
 4752SOL    HW224591   3.484   4.292   3.151  0.5220  0.5615 -0.0823
 4753SOL     OW24592   3.053   3.360   1.018  0.3208  0.3496 -0.1982
 4753SOL    HW124593   3.130   3.298   1.005  0.4382  0.5958 -0.6925
 4753SOL    HW224594   3.087   3.454   1.022  0.4361  0.2573  2.9450
 4754SOL     OW24595   0.497   0.960   0.173 -0.3122 -0.5925 -0.2162
 4754SOL    HW124596   0.415   0.996   0.127 -0.0544 -0.7138 -0.7753
 4754SOL    HW224597   0.548   0.902   0.110  0.3661 -0.2792  0.0372
 4755SOL     OW24598   8.922   2.426   3.675  0.1460 -0.2014  0.0104
 4755SOL    HW124599   8.904   2.352   3.740  1.0565 -0.2263  0.2535
 4755SOL    HW224600   9.018   2.454   3.683 -0.2013  1.0435 -0.0337
 4756SOL     OW24601   1.639   8.262   1.194  1.0306  0.3276 -0.2034
 4756SOL    HW124602   1.726   8.296   1.231  0.6848  0.4161  0.5558
 4756SOL    HW224603   1.586   8.339   1.158  1.2784  0.2715 -0.6841
 4757SOL     OW24604   4.513   8.657   1.568  0.2091 -0.0137  0.5363
 4757SOL    HW124605   4.549   8.686   1.657 -1.9319  0.7461  1.1957
 4757SOL    HW224606   4.583   8.605   1.519  2.1332  1.3154  1.7904
 4758SOL     OW24607   3.762   4.134   0.940  0.0669  0.0091 -0.3181
 4758SOL    HW124608   3.764   4.041   0.904 -0.4265 -0.4491  0.8376
 4758SOL    HW224609   3.808   4.138   1.028  2.7138  1.4666 -1.7052
 4759SOL     OW24610   4.849   7.189   3.580  0.2565 -0.0330 -0.0109
 4759SOL    HW124611   4.799   7.208   3.496  2.1932 -0.4170 -1.2940
 4759SOL    HW224612   4.835   7.093   3.606 -1.1983  0.3619  0.7157
 4760SOL     OW24613   9.290   1.024   1.517  0.4945 -0.2870  0.5040
 4760SOL    HW124614   9.202   0.980   1.498  1.8493 -3.0738  0.4469
 4760SOL    HW224615   9.356   0.998   1.446  0.6722  4.0504 -1.0613
 4761SOL     OW24616   3.909   9.179   3.514 -0.1341 -0.0117 -0.0062
 4761SOL    HW124617   3.862   9.231   3.586  1.7472  0.2609  1.0513
 4761SOL    HW224618   3.944   9.093   3.552 -0.9193 -0.8407 -1.1145
 4762SOL     OW24619   1.457   3.714   3.002 -0.4026  0.5852  0.4239
 4762SOL    HW124620   1.395   3.775   3.051  0.8982  1.4258  1.0227
 4762SOL    HW224621   1.542   3.761   2.982  0.6159 -1.0160  0.8956
 4763SOL     OW24622   1.333   3.117   0.572 -0.5517 -0.1122 -0.5936
 4763SOL    HW124623   1.289   3.029   0.550  1.9283 -1.1068 -1.7148
 4763SOL    HW224624   1.363   3.161   0.487 -3.0856  2.5646 -0.1581
 4764SOL     OW24625   1.290   1.840   3.699 -0.0533  0.5110 -0.3598
 4764SOL    HW124626   1.387   1.842   3.677  0.0744  0.0435  0.1407
 4764SOL    HW224627   1.275   1.891   3.784  0.4476 -3.1982  2.0972
 4765SOL     OW24628   1.461   8.020   3.347  0.3425  0.5224  0.6355
 4765SOL    HW124629   1.417   8.105   3.374 -1.5033 -0.7568  1.7356
 4765SOL    HW224630   1.479   7.964   3.428 -1.8065 -1.7118 -0.3586
 4766SOL     OW24631   3.834   7.550   0.505 -0.3096 -0.3894  0.3131
 4766SOL    HW124632   3.909   7.516   0.562  1.4444  1.5174 -0.7936
 4766SOL    HW224633   3.817   7.486   0.431 -0.1693 -1.1103  0.8956
 4767SOL     OW24634   0.923   9.362   1.087 -1.1173 -0.3026 -0.6060
 4767SOL    HW124635   0.995   9.316   1.138  0.6519  2.4921 -0.5074
 4767SOL    HW224636   0.834   9.333   1.122 -0.0781 -3.0331 -0.0695
 4768SOL     OW24637   2.767   6.794   0.099  0.2412 -0.8954  0.4473
 4768SOL    HW124638   2.830   6.721   0.072 -0.6306 -2.1696  1.7731
 4768SOL    HW224639   2.762   6.798   0.199 -0.0312  0.7239  0.3779
 4769SOL     OW24640   1.862   0.805   0.469 -0.1932  0.3254  0.1673
 4769SOL    HW124641   1.784   0.769   0.418  0.1735 -1.8576  1.0738
 4769SOL    HW224642   1.945   0.757   0.439  0.2590  0.1448  1.6902
 4770SOL     OW24643   0.481   9.544   1.387  0.2871 -0.3969  0.5778
 4770SOL    HW124644   0.493   9.507   1.295  0.9751 -0.0776  0.5358
 4770SOL    HW224645   0.402   9.605   1.389  0.6764  0.1181  0.0468
 4771SOL     OW24646   9.907   7.629   3.960 -0.0777  0.3274  0.1410
 4771SOL    HW124647   9.986   7.568   3.969  0.8612  1.7545  1.7488
 4771SOL    HW224648   9.908   7.670   3.868  1.2773  0.6220  0.2630
 4772SOL     OW24649   0.860   4.095   1.802 -0.1236  0.4798 -0.0750
 4772SOL    HW124650   0.846   4.149   1.719  0.0334 -1.5265 -1.4484
 4772SOL    HW224651   0.951   4.115   1.840 -0.2538  1.5097 -0.3037
 4773SOL     OW24652   2.334   0.334   1.362  0.0051 -0.4415 -0.2513
 4773SOL    HW124653   2.314   0.267   1.291 -0.6154 -1.5577  0.9471
 4773SOL    HW224654   2.284   0.418   1.343 -1.2002 -1.1850 -0.4390
 4774SOL     OW24655   8.287   2.551   3.827 -0.2079 -0.1417  0.4721
 4774SOL    HW124656   8.285   2.513   3.735 -0.0085  1.5538 -0.2426
 4774SOL    HW224657   8.374   2.598   3.842 -0.0819 -0.7416  1.6629
 4775SOL     OW24658   2.206   6.638   0.946 -0.3865  0.4098  0.0293
 4775SOL    HW124659   2.205   6.738   0.952 -1.4651  0.4044 -0.0498
 4775SOL    HW224660   2.293   6.608   0.905  0.4966  1.2355  1.2797
 4776SOL     OW24661   2.677   6.899   1.808  0.6035 -0.6433  0.1737
 4776SOL    HW124662   2.620   6.822   1.779  0.6181 -0.5300 -0.1551
 4776SOL    HW224663   2.715   6.944   1.728  1.0287 -0.6207  0.3873
 4777SOL     OW24664   7.424   2.460   0.376  0.0785 -0.6399 -0.6138
 4777SOL    HW124665   7.470   2.381   0.417  1.7821  0.6222 -0.0154
 4777SOL    HW224666   7.348   2.488   0.434 -0.2584 -1.5435 -0.6015
 4778SOL     OW24667   0.395   8.527   1.235 -0.3765  0.2179  0.0473
 4778SOL    HW124668   0.358   8.436   1.215 -1.6576  0.6488  0.3758
 4778SOL    HW224669   0.492   8.529   1.214 -0.8881 -0.4442 -2.5437
 4779SOL     OW24670   7.469   8.620   0.815 -0.2191 -0.3117  0.5457
 4779SOL    HW124671   7.370   8.629   0.818 -0.1932 -0.1434  0.9042
 4779SOL    HW224672   7.493   8.529   0.782 -0.4918 -0.3351  0.4088
 4780SOL     OW24673   1.560   1.888   3.628 -0.0295  0.3814  0.3004
 4780SOL    HW124674   1.531   1.967   3.575  2.0189  0.3373 -0.9462
 4780SOL    HW224675   1.651   1.905   3.666  0.0480 -1.0237  0.7887
 4781SOL     OW24676   2.885   6.216   1.857 -0.7285 -0.3524  0.1338
 4781SOL    HW124677   2.828   6.192   1.936 -0.5983  1.6604  0.8582
 4781SOL    HW224678   2.827   6.255   1.786 -0.5527 -0.2478  0.0497
 4782SOL     OW24679   3.755   6.664   2.606  0.8181 -0.1238  0.4455
 4782SOL    HW124680   3.678   6.727   2.608  0.8849 -0.0585  1.0179
 4782SOL    HW224681   3.776   6.640   2.511  1.2335  1.2630  0.1736
 4783SOL     OW24682   8.558   2.157   2.728  0.7645  0.1429  0.3364
 4783SOL    HW124683   8.568   2.130   2.633 -0.1146  1.5560 -0.1668
 4783SOL    HW224684   8.618   2.101   2.785  0.7428 -1.2027 -0.9506
 4784SOL     OW24685   3.209   9.689   0.732  0.6973  0.1280  0.8482
 4784SOL    HW124686   3.194   9.788   0.735  2.3787  0.4290 -0.1980
 4784SOL    HW224687   3.128   9.642   0.768 -0.8833  1.8096 -0.4143
 4785SOL     OW24688   9.231   8.493   0.277  0.3418 -0.4021  0.0598
 4785SOL    HW124689   9.326   8.496   0.246 -0.4681  2.3788 -2.4574
 4785SOL    HW224690   9.173   8.458   0.203 -0.6205 -2.3658  1.6717
 4786SOL     OW24691   3.466   8.956   3.299  0.3420  0.0583  0.2305
 4786SOL    HW124692   3.505   9.000   3.218 -1.6359  0.0598 -0.7719
 4786SOL    HW224693   3.539   8.920   3.356  1.8512  1.7587 -0.5886
 4787SOL     OW24694   8.779   2.379   1.124  0.2291  0.1237 -0.3241
 4787SOL    HW124695   8.803   2.288   1.156  1.6992  1.2903  1.9777
 4787SOL    HW224696   8.769   2.441   1.202  3.1358  2.8807 -2.0056
 4788SOL     OW24697   0.345   1.615   0.893 -0.1230  0.4489 -0.5217
 4788SOL    HW124698   0.265   1.656   0.849 -0.0396  0.7060 -0.4332
 4788SOL    HW224699   0.340   1.629   0.992 -0.0359  0.3470 -0.5023
 4789SOL     OW24700   2.935   2.787   1.989  0.1955 -0.9102  0.7153
 4789SOL    HW124701   2.883   2.818   2.068  0.2994  0.6193  0.2109
 4789SOL    HW224702   2.872   2.762   1.915  0.1508  1.0613  0.0604
 4790SOL     OW24703   9.197   1.507   0.340 -0.0090 -0.0427  0.3901
 4790SOL    HW124704   9.208   1.527   0.243 -1.8696  1.6599  0.4989
 4790SOL    HW224705   9.286   1.509   0.385  0.5182  2.3395 -0.7087
 4791SOL     OW24706   4.428   2.320   0.688  0.0028 -0.2765  0.2700
 4791SOL    HW124707   4.525   2.296   0.699 -0.3877 -0.2287  4.7337
 4791SOL    HW224708   4.419   2.420   0.684  0.0496 -0.2368  1.0857
 4792SOL     OW24709   0.951   4.456   3.440 -0.1134  0.1179  0.1140
 4792SOL    HW124710   0.997   4.544   3.451  0.2508 -0.2404  1.5660
 4792SOL    HW224711   0.937   4.437   3.343  0.0029  1.6756 -0.2131
 4793SOL     OW24712   3.810   1.482   2.616 -0.0398 -0.3785  0.6454
 4793SOL    HW124713   3.897   1.531   2.618 -0.6200  0.6545  0.9184
 4793SOL    HW224714   3.824   1.387   2.643  0.9755 -0.1643  0.8710
 4794SOL     OW24715   3.557   1.613   3.528  0.1723 -0.0586  0.0504
 4794SOL    HW124716   3.615   1.674   3.582 -1.7856  2.0321 -0.1391
 4794SOL    HW224717   3.594   1.607   3.435 -1.0882  3.0647 -0.7202
 4795SOL     OW24718   4.459   0.998   1.479  0.6725 -0.1770  0.2898
 4795SOL    HW124719   4.469   0.902   1.452  1.6937 -0.3049  1.1012
 4795SOL    HW224720   4.543   1.047   1.458  0.2967  0.4593  0.2640
 4796SOL     OW24721   4.055   2.864   0.974  0.2464  0.2031  0.5881
 4796SOL    HW124722   4.077   2.955   1.008 -1.5825  1.0005 -0.2966
 4796SOL    HW224723   4.088   2.855   0.880  0.4752 -0.0826  0.6929
 4797SOL     OW24724   4.920   8.724   2.655  0.1563  0.1245 -0.4058
 4797SOL    HW124725   4.879   8.816   2.655  0.8772  0.5283 -3.7772
 4797SOL    HW224726   5.001   8.725   2.597  0.3533 -2.5809 -0.1960
 4798SOL     OW24727   1.723   6.394   0.435 -0.3571  0.1382  0.0026
 4798SOL    HW124728   1.679   6.311   0.402 -0.5472  0.9776 -1.9136
 4798SOL    HW224729   1.815   6.373   0.468  0.7220 -0.3924 -3.2158
 4799SOL     OW24730   7.414   9.889   2.308  0.5319 -0.0712  0.4685
 4799SOL    HW124731   7.462   9.974   2.328 -1.5241  0.8740  1.5621
 4799SOL    HW224732   7.319   9.909   2.284  0.0795 -2.0479  0.5157
 4800SOL     OW24733   2.500   4.751   3.781 -0.1474  0.1387 -0.3341
 4800SOL    HW124734   2.532   4.842   3.808  0.2639  0.4581 -1.8152
 4800SOL    HW224735   2.446   4.711   3.854 -1.9036  2.3583 -0.3636
 4801SOL     OW24736   8.984   3.544   1.187  0.9264  0.1439 -0.3018
 4801SOL    HW124737   8.992   3.637   1.153  0.2278  0.4999  0.4983
 4801SOL    HW224738   8.903   3.536   1.245  0.8281 -1.0255 -0.5781
 4802SOL     OW24739   3.071   6.029   1.879 -0.5173  0.0947 -0.5215
 4802SOL    HW124740   3.154   6.042   1.825  0.0591  0.1060  0.3568
 4802SOL    HW224741   3.013   6.110   1.872 -1.0527 -0.4068 -2.1524
 4803SOL     OW24742   4.621   9.445   3.520  0.2492 -0.5531  0.1666
 4803SOL    HW124743   4.602   9.422   3.616  0.6022  1.3106  0.6916
 4803SOL    HW224744   4.712   9.412   3.496  0.7994  0.3515  0.9568
 4804SOL     OW24745   7.735   8.915   0.935  0.2038 -0.4614 -0.1758
 4804SOL    HW124746   7.714   8.840   0.873  0.0624  0.3653 -1.1444
 4804SOL    HW224747   7.694   8.898   1.024  2.1410 -2.6684  0.3417
 4805SOL     OW24748   3.680   2.182   0.142 -0.7342 -0.1180  0.3636
 4805SOL    HW124749   3.630   2.206   0.059  0.3601 -1.1763 -0.6298
 4805SOL    HW224750   3.668   2.084   0.160  1.4959 -0.5420 -0.2838
 4806SOL     OW24751   9.376   3.305   2.305  0.7649 -0.0800  0.3581
 4806SOL    HW124752   9.280   3.283   2.321  0.9359 -1.2310 -0.1291
 4806SOL    HW224753   9.426   3.221   2.282  2.5846 -0.0994  3.9524
 4807SOL     OW24754   2.489   4.355   2.183 -0.3277 -0.3375 -0.0451
 4807SOL    HW124755   2.502   4.293   2.106 -0.9369 -0.1579 -0.2948
 4807SOL    HW224756   2.424   4.427   2.157 -0.7733 -0.4548  0.7392
 4808SOL     OW24757   2.546   3.049   4.010  0.2363  0.0826  0.8384
 4808SOL    HW124758   2.459   3.096   4.023  0.7264  0.8132  1.5507
 4808SOL    HW224759   2.607   3.071   4.086  1.5837  0.8166 -0.4097
 4809SOL     OW24760   5.330   8.421   3.313  0.5749  0.4545  0.3522
 4809SOL    HW124761   5.256   8.453   3.372 -1.4507  0.4256 -2.0755
 4809SOL    HW224762   5.382   8.350   3.360 -0.9529  0.4661  2.1102
 4810SOL     OW24763   0.749   4.462   1.694 -0.1208  0.1628 -0.3899
 4810SOL    HW124764   0.795   4.387   1.647 -1.1626 -0.4629 -0.4304
 4810SOL    HW224765   0.664   4.429   1.735 -0.3084  1.1921  0.0750
 4811SOL     OW24766   1.502   8.890   1.655  0.7021 -0.2947 -0.7564
 4811SOL    HW124767   1.602   8.893   1.647  0.9515  0.1878  1.9914
 4811SOL    HW224768   1.461   8.946   1.583  2.5354  1.9836 -0.0807
 4812SOL     OW24769   3.000   3.491   1.940  0.1385 -0.3327 -0.1060
 4812SOL    HW124770   2.994   3.576   1.992 -0.1444 -0.8283  0.6849
 4812SOL    HW224771   2.915   3.476   1.890  0.2303 -0.0899 -0.3306
 4813SOL     OW24772   0.571   7.795   1.806  0.4736  0.1542 -0.2632
 4813SOL    HW124773   0.505   7.869   1.791  1.8874  1.4074 -0.3839
 4813SOL    HW224774   0.521   7.709   1.819 -1.1367  0.7206 -2.3409
 4814SOL     OW24775   2.520   6.516   1.574  0.1981  0.1895 -0.0549
 4814SOL    HW124776   2.514   6.605   1.530 -1.7528 -0.3854 -1.0158
 4814SOL    HW224777   2.505   6.444   1.507 -2.8516 -0.7060  1.4750
 4815SOL     OW24778   1.464   1.023   3.568 -0.1267  0.2006  0.0564
 4815SOL    HW124779   1.464   1.047   3.665 -1.1750 -1.3382  0.4604
 4815SOL    HW224780   1.426   0.931   3.557  1.1013 -0.1048 -1.7021
 4816SOL     OW24781   2.349   3.546   0.945 -0.1318 -0.4496  0.1205
 4816SOL    HW124782   2.348   3.644   0.929  0.5561 -0.1582  1.7439
 4816SOL    HW224783   2.262   3.518   0.985  1.0131  0.1608  3.1846
 4817SOL     OW24784   7.931   9.383   2.220 -0.1653  0.3829  0.6629
 4817SOL    HW124785   7.837   9.382   2.184 -0.4565  1.5041  1.3774
 4817SOL    HW224786   7.947   9.468   2.269  2.0449  1.2989 -1.5597
 4818SOL     OW24787   9.607   7.856   1.788  0.4043 -0.4464 -0.0498
 4818SOL    HW124788   9.700   7.868   1.824  0.8211 -2.3853 -0.4313
 4818SOL    HW224789   9.548   7.927   1.826  2.4942  2.1780 -1.4740
 4819SOL     OW24790   1.332   9.581   3.470 -0.5691  0.0646 -0.5540
 4819SOL    HW124791   1.384   9.662   3.442 -0.5969  0.0411 -0.6739
 4819SOL    HW224792   1.236   9.591   3.443 -0.2959 -0.6043 -1.8320
 4820SOL     OW24793   3.651   5.250   1.775 -0.5608  0.1216 -0.3706
 4820SOL    HW124794   3.711   5.229   1.852 -0.7828 -0.1215 -0.2649
 4820SOL    HW224795   3.671   5.343   1.742 -0.3825  0.1796 -0.0999
 4821SOL     OW24796   2.537   3.543   1.751  0.0182  0.0934  0.3547
 4821SOL    HW124797   2.481   3.507   1.676 -0.0184  3.2879 -1.2473
 4821SOL    HW224798   2.629   3.504   1.744  0.2782  1.0099 -1.9183
 4822SOL     OW24799   0.595   9.321   3.949  0.1405 -0.4813  0.2465
 4822SOL    HW124800   0.626   9.359   3.862 -0.1822  0.4991  0.5523
 4822SOL    HW224801   0.622   9.225   3.956 -0.8445 -0.9027 -1.4481
 4823SOL     OW24802   1.042   0.469   0.724 -0.6846  0.2728  0.2660
 4823SOL    HW124803   1.019   0.371   0.724  1.1259 -0.1676  0.7025
 4823SOL    HW224804   0.964   0.521   0.688 -2.0733 -1.2172  1.0376
 4824SOL     OW24805   8.603   1.017   2.399  0.5974 -0.9270 -0.2615
 4824SOL    HW124806   8.683   0.971   2.361  0.7569 -1.0304  0.1981
 4824SOL    HW224807   8.557   1.069   2.327  1.9191  0.3379 -0.2210
 4825SOL     OW24808   6.834   8.651   2.134  0.2960  0.4703  0.2546
 4825SOL    HW124809   6.776   8.572   2.156  1.2788 -0.4648 -0.5091
 4825SOL    HW224810   6.905   8.661   2.203 -0.7921  1.6703  1.2387
 4826SOL     OW24811   2.091   1.575   1.954 -0.5932  0.4077  0.6838
 4826SOL    HW124812   2.083   1.546   1.859 -0.1870  1.5222  0.2948
 4826SOL    HW224813   2.165   1.526   1.999 -1.0711 -0.4397  0.5573
 4827SOL     OW24814   2.649   0.046   0.188  0.1124 -0.5854  0.4109
 4827SOL    HW124815   2.566   0.064   0.240  0.0415  2.6080 -0.6630
 4827SOL    HW224816   2.725   0.097   0.229  0.8425 -0.9267 -0.4977
 4828SOL     OW24817   9.008   1.794   3.934 -0.4343  0.5269  0.5519
 4828SOL    HW124818   9.105   1.788   3.908 -0.3652  1.3737  0.6154
 4828SOL    HW224819   9.000   1.836   4.024 -0.8301 -0.0936  0.8079
 4829SOL     OW24820   0.669   0.441   0.128 -0.0058 -0.1489 -0.1131
 4829SOL    HW124821   0.589   0.383   0.140  0.9805 -1.3596  0.7026
 4829SOL    HW224822   0.659   0.523   0.185 -2.4895  1.7143 -3.0732
 4830SOL     OW24823   1.491   1.607   0.719 -0.3927 -0.2362  0.4920
 4830SOL    HW124824   1.558   1.533   0.704 -1.8726 -1.7024  0.9537
 4830SOL    HW224825   1.450   1.632   0.631  1.8895  1.7840 -0.0303
 4831SOL     OW24826   2.087   8.214   1.655  0.9202 -0.3189  0.2740
 4831SOL    HW124827   2.180   8.249   1.646  0.8787 -0.7470 -2.0924
 4831SOL    HW224828   2.089   8.121   1.690  1.2936  0.1638  1.5631
 4832SOL     OW24829   2.171   9.352   1.942  0.1810  0.5231  0.0467
 4832SOL    HW124830   2.221   9.329   2.026  0.9811 -1.0805 -0.8297
 4832SOL    HW224831   2.161   9.451   1.935 -0.4325  0.6512  2.3234
 4833SOL     OW24832   1.658   8.789   3.556 -0.2157 -0.0527 -0.8505
 4833SOL    HW124833   1.758   8.783   3.556  0.0021  1.4857  3.0172
 4833SOL    HW224834   1.631   8.877   3.597 -3.1287 -2.3505  2.4229
 4834SOL     OW24835   2.785   9.290   3.587 -0.4950  0.1259 -0.4148
 4834SOL    HW124836   2.752   9.343   3.664  0.4521 -0.0514  0.1152
 4834SOL    HW224837   2.763   9.193   3.601  0.1516  0.0219 -0.1119
 4835SOL     OW24838   3.941   7.269   1.989  0.1785  0.2494 -0.3307
 4835SOL    HW124839   4.028   7.291   1.944 -0.0656  0.5711 -0.6503
 4835SOL    HW224840   3.939   7.172   2.011  0.0129 -0.0632 -1.6700
 4836SOL     OW24841   1.158   8.324   2.881  0.2306 -0.3168 -0.7389
 4836SOL    HW124842   1.255   8.336   2.863  0.5389 -3.0571 -1.2035
 4836SOL    HW224843   1.145   8.294   2.976 -0.2103  0.5886 -0.5094
 4837SOL     OW24844   3.018   1.077   1.295 -0.0794 -0.1899 -0.2049
 4837SOL    HW124845   3.108   1.085   1.253 -0.4648 -2.3728 -1.4835
 4837SOL    HW224846   2.999   1.160   1.347  2.0862  0.8703 -1.0308
 4838SOL     OW24847   1.204   8.073   1.029 -0.4422  0.0022 -0.4819
 4838SOL    HW124848   1.218   8.165   0.994 -1.2066  0.1152 -0.5116
 4838SOL    HW224849   1.254   8.007   0.972  0.1933  0.4112 -0.3920
 4839SOL     OW24850   1.309   8.900   3.064 -0.0194  0.0069 -0.8811
 4839SOL    HW124851   1.312   8.916   2.965  0.3504  0.9045 -0.7327
 4839SOL    HW224852   1.264   8.977   3.109 -1.4920 -1.0528 -0.4722
 4840SOL     OW24853   3.730   4.853   3.238 -0.0382  0.0759  0.3365
 4840SOL    HW124854   3.786   4.829   3.317  0.9115 -0.2140 -0.4239
 4840SOL    HW224855   3.751   4.947   3.210  0.8542 -0.3892 -0.6010
 4841SOL     OW24856   1.969   1.790   3.198  0.2482  0.0358  0.2866
 4841SOL    HW124857   1.980   1.832   3.288  0.6020 -0.0507  0.2834
 4841SOL    HW224858   1.900   1.718   3.202 -0.0675  0.3419  0.3842
 4842SOL     OW24859   2.562   7.418   0.207  0.6994 -0.4197  0.3741
 4842SOL    HW124860   2.613   7.494   0.246  1.0218 -0.2217 -0.4137
 4842SOL    HW224861   2.469   7.417   0.243  0.7080  0.3199  0.4179
 4843SOL     OW24862   9.074   1.763   2.117 -0.3634 -0.1427 -0.3040
 4843SOL    HW124863   9.003   1.831   2.137  0.7752  0.7153  0.9228
 4843SOL    HW224864   9.035   1.671   2.121 -1.8319  0.4009 -1.5789
 4844SOL     OW24865   2.053   7.201   4.038 -0.0917  0.3709  0.1258
 4844SOL    HW124866   1.968   7.156   4.065 -0.7388  1.7747  0.4865
 4844SOL    HW224867   2.040   7.249   3.951  0.9354 -1.0986 -0.8615
 4845SOL     OW24868   1.043   9.928   0.438 -0.1250 -0.0468  0.0556
 4845SOL    HW124869   1.094   9.852   0.398  0.2974 -0.3939  1.2227
 4845SOL    HW224870   0.945   9.913   0.424 -0.0805 -1.1373  0.8048
 4846SOL     OW24871   9.570   0.253   3.286  0.8093  0.2995  0.6873
 4846SOL    HW124872   9.477   0.222   3.267  1.4913 -1.1404 -0.4117
 4846SOL    HW224873   9.575   0.286   3.380 -0.5089 -0.8601  1.1869
 4847SOL     OW24874   2.548   3.030   3.724 -0.1725  0.0850 -0.1885
 4847SOL    HW124875   2.488   2.951   3.731 -1.1742  0.9552  1.1660
 4847SOL    HW224876   2.587   3.051   3.814  0.5074  0.8081 -0.6434
 4848SOL     OW24877   8.877   8.453   0.508  0.0707 -0.4520 -0.1016
 4848SOL    HW124878   8.889   8.456   0.409 -0.9038 -2.2748 -0.2835
 4848SOL    HW224879   8.934   8.382   0.547  0.3633  0.1829  0.6432
 4849SOL     OW24880   2.938   7.593   3.550  0.6929  0.2164 -0.7629
 4849SOL    HW124881   3.000   7.600   3.629  0.1012  1.6405 -0.4140
 4849SOL    HW224882   2.876   7.516   3.563  0.2208  0.7814  0.4608
 4850SOL     OW24883   3.306   9.993   1.652 -0.3173 -0.5073 -0.7462
 4850SOL    HW124884   3.283   9.968   1.746  0.5690  3.0221  0.5180
 4850SOL    HW224885   3.399   9.965   1.631  1.3014  2.9641  1.2577
 4851SOL     OW24886   7.654   2.317   3.304  0.1438  0.6402 -0.6794
 4851SOL    HW124887   7.676   2.222   3.324 -0.0735  1.3903  3.7536
 4851SOL    HW224888   7.557   2.326   3.284 -0.4122  0.2377  1.6786
 4852SOL     OW24889   0.354   9.052   1.675  0.1070 -0.4977 -0.5881
 4852SOL    HW124890   0.347   9.125   1.607 -0.9035  0.3647  0.4044
 4852SOL    HW224891   0.425   8.987   1.648  0.1522  0.1808 -2.1220
 4853SOL     OW24892   7.880   0.021   1.333 -0.9988  0.4943  0.3492
 4853SOL    HW124893   7.843   0.074   1.256 -0.9327  1.3737  0.9161
 4853SOL    HW224894   7.972   0.054   1.355 -1.2135  0.5820  1.1302
 4854SOL     OW24895   1.431   0.469   1.224 -0.5487 -0.3649  0.5140
 4854SOL    HW124896   1.425   0.527   1.305 -0.2827  0.4359 -0.0317
 4854SOL    HW224897   1.497   0.395   1.241 -2.6911 -1.9601  2.0874
 4855SOL     OW24898   1.758   1.875   2.078  0.5243 -0.6741  0.0660
 4855SOL    HW124899   1.857   1.858   2.074  0.6695 -0.0257  0.8579
 4855SOL    HW224900   1.719   1.825   2.155  0.1625 -1.2656 -0.4994
 4856SOL     OW24901   1.470   8.478   1.079 -0.5348  0.0022  0.7370
 4856SOL    HW124902   1.433   8.551   1.137 -1.8156  1.2185 -1.5521
 4856SOL    HW224903   1.538   8.517   1.017 -0.5554 -0.9311  0.1200
 4857SOL     OW24904   7.662   4.404   0.475  0.2595  0.7653 -0.4873
 4857SOL    HW124905   7.581   4.372   0.523  0.4927  0.6621 -0.1572
 4857SOL    HW224906   7.727   4.442   0.541  1.1603 -0.6110 -0.5752
 4858SOL     OW24907   1.622   4.965   1.098 -0.7908  0.2573  0.0950
 4858SOL    HW124908   1.693   5.013   1.148 -1.3752 -0.8598  2.0257
 4858SOL    HW224909   1.549   5.030   1.074  0.3809  1.1925 -1.0418
 4859SOL     OW24910   4.126   1.673   2.034 -0.1232  0.0075 -0.3242
 4859SOL    HW124911   4.075   1.587   2.035  0.2082 -0.1836  1.4651
 4859SOL    HW224912   4.166   1.690   2.124 -0.9067  2.4678 -0.3907
 4860SOL     OW24913   3.097   1.517   1.839  0.4357 -0.0578  0.0787
 4860SOL    HW124914   3.145   1.515   1.751  0.1309 -0.6322 -0.0806
 4860SOL    HW224915   3.161   1.545   1.911  0.5913  0.7836 -0.3788
 4861SOL     OW24916   8.358   0.879   3.815 -0.0366  0.0160  0.1766
 4861SOL    HW124917   8.365   0.925   3.726 -1.1451 -0.8016 -0.3512
 4861SOL    HW224918   8.262   0.863   3.836  0.3055 -1.3285  0.7328
 4862SOL     OW24919   8.670   8.372   1.384 -0.1004  0.0837 -0.6654
 4862SOL    HW124920   8.769   8.356   1.388 -0.0297  0.8808  0.9012
 4862SOL    HW224921   8.642   8.430   1.460 -2.3881 -3.2821  1.1717
 4863SOL     OW24922   3.979   4.929   2.212  0.3289  0.1920  0.3689
 4863SOL    HW124923   3.936   4.852   2.164 -0.0788 -0.0480  1.1105
 4863SOL    HW224924   3.914   5.004   2.218  0.0686 -0.1049  1.3316
 4864SOL     OW24925   8.606   4.322   0.301 -0.1576 -0.4401  0.4157
 4864SOL    HW124926   8.512   4.355   0.287  0.2703  0.0843 -1.3636
 4864SOL    HW224927   8.653   4.381   0.367 -0.4055  0.6174 -0.3321
 4865SOL     OW24928   0.784   2.345   0.851 -0.0850 -0.1956 -0.5637
 4865SOL    HW124929   0.842   2.408   0.800  0.5459 -0.0071  0.3740
 4865SOL    HW224930   0.760   2.267   0.793 -1.2890  1.1377 -1.8966
 4866SOL     OW24931   8.074   8.820   2.089  0.1426  0.3264 -0.1611
 4866SOL    HW124932   8.078   8.848   1.994 -2.1268 -0.2492 -0.4491
 4866SOL    HW224933   8.159   8.845   2.135  0.7995  1.6213 -2.0438
 4867SOL     OW24934   0.834   2.910   3.494  0.1049  0.4619  0.2327
 4867SOL    HW124935   0.734   2.903   3.501  0.0556  3.4710  3.5994
 4867SOL    HW224936   0.873   2.818   3.497 -2.5574 -0.8795 -2.5140
 4868SOL     OW24937   0.181   1.026   2.206  0.1656 -0.0494 -0.1855
 4868SOL    HW124938   0.094   1.072   2.225  0.5276 -0.2214  2.0344
 4868SOL    HW224939   0.252   1.094   2.188 -0.2096  0.1161 -1.0704
 4869SOL     OW24940   9.254   0.932   1.959  0.2054 -0.0590 -0.0983
 4869SOL    HW124941   9.189   0.975   1.897  0.0165 -2.4174 -1.6090
 4869SOL    HW224942   9.325   0.997   1.985 -1.7129  2.0048  0.1041
 4870SOL     OW24943   0.440   8.784   1.961  0.6157 -0.3331 -0.0424
 4870SOL    HW124944   0.389   8.789   2.047 -0.7432 -2.0109 -0.7041
 4870SOL    HW224945   0.404   8.850   1.896 -0.5136 -1.2696 -0.3855
 4871SOL     OW24946   9.972   7.475   2.534 -0.0492  0.2084 -0.6445
 4871SOL    HW124947   9.898   7.407   2.525 -0.0128  0.2761 -1.4302
 4871SOL    HW224948  10.041   7.459   2.464  1.5338 -0.9024  1.1281
 4872SOL     OW24949   9.989   9.878   1.763 -0.2862  0.0243  0.3373
 4872SOL    HW124950  10.006   9.955   1.701 -0.2209  1.1363  1.7131
 4872SOL    HW224951   9.897   9.843   1.749 -0.2580  0.2392 -0.4141
 4873SOL     OW24952   8.281   3.544   1.554 -0.2372 -0.0714 -0.1991
 4873SOL    HW124953   8.257   3.580   1.463 -1.1163  0.9417  0.4210
 4873SOL    HW224954   8.305   3.448   1.546 -2.0581 -0.4748 -1.2463
 4874SOL     OW24955   1.064   9.753   1.883 -0.1050 -0.3204  0.0056
 4874SOL    HW124956   1.120   9.760   1.800  0.2467 -2.5113  0.0234
 4874SOL    HW224957   1.121   9.719   1.958 -0.6231  0.8685  0.9590
 4875SOL     OW24958   3.439   4.059   2.973  0.0554  0.0992  0.2071
 4875SOL    HW124959   3.420   4.042   3.070 -0.6327  2.1774  0.4666
 4875SOL    HW224960   3.357   4.042   2.919  0.1029  0.0652  0.1457
 4876SOL     OW24961   0.462   3.314   0.873 -0.8572  0.8647 -0.1262
 4876SOL    HW124962   0.533   3.252   0.906 -2.4883 -0.3587  1.1769
 4876SOL    HW224963   0.455   3.392   0.934  1.1503  2.3752 -1.7300
 4877SOL     OW24964   4.396   4.499   1.612 -0.2091 -0.1538 -0.2732
 4877SOL    HW124965   4.449   4.582   1.594 -0.7143 -0.1308 -1.7208
 4877SOL    HW224966   4.444   4.420   1.573  0.0242 -0.4860  0.6694
 4878SOL     OW24967   9.265   1.515   0.935 -0.0474  0.1264 -0.3280
 4878SOL    HW124968   9.252   1.574   0.856  1.3108  1.0093  0.0773
 4878SOL    HW224969   9.293   1.571   1.014  1.7958 -1.0993 -0.0725
 4879SOL     OW24970   3.378   0.400   2.913 -0.2391 -0.3039 -0.0070
 4879SOL    HW124971   3.345   0.325   2.970  1.0233 -1.3581 -0.6434
 4879SOL    HW224972   3.380   0.484   2.967 -0.0722 -1.0600  1.1948
 4880SOL     OW24973   2.047   4.196   3.961  0.2412  0.3171  0.5111
 4880SOL    HW124974   2.099   4.228   3.882  0.1059 -2.5660 -0.8066
 4880SOL    HW224975   1.950   4.200   3.941  0.2688 -3.0040 -0.6007
 4881SOL     OW24976   0.407   2.321   1.042 -0.0538  0.3406  0.4397
 4881SOL    HW124977   0.460   2.267   0.977 -2.0948 -0.6272 -0.4734
 4881SOL    HW224978   0.432   2.295   1.136 -0.7681 -1.9773  0.0179
 4882SOL     OW24979   9.728   9.778   1.757  0.3167 -0.1692  0.0693
 4882SOL    HW124980   9.707   9.772   1.854 -1.3125  0.9365 -0.1917
 4882SOL    HW224981   9.664   9.841   1.713  2.0178  0.5335 -1.4450
 4883SOL     OW24982   3.062   2.971   1.814  0.2166 -0.0788 -0.2437
 4883SOL    HW124983   3.037   3.064   1.841 -1.8555  0.0714 -2.5325
 4883SOL    HW224984   3.002   2.906   1.861 -0.4210 -0.0625 -1.0209
 4884SOL     OW24985   1.773   3.522   2.751  0.2862 -0.2240  0.6475
 4884SOL    HW124986   1.781   3.608   2.802 -1.3835 -0.8458  1.9755
 4884SOL    HW224987   1.695   3.527   2.689 -0.4390 -1.1417  1.4699
 4885SOL     OW24988   8.421   9.083   2.555  0.1253  0.2435 -0.0453
 4885SOL    HW124989   8.321   9.090   2.556  0.1421  0.9167 -1.1682
 4885SOL    HW224990   8.448   8.993   2.521 -0.0877 -0.6129  1.9751
 4886SOL     OW24991   2.694   7.962   2.988 -0.7120 -0.2678 -0.4930
 4886SOL    HW124992   2.660   7.881   3.035  0.0466 -1.1893 -1.4981
 4886SOL    HW224993   2.618   8.020   2.961 -1.2323 -0.4255  0.6216
 4887SOL     OW24994   9.978   8.116   0.135  0.7229 -0.3249 -0.2708
 4887SOL    HW124995  10.035   8.117   0.053 -1.6982 -2.8075 -2.0780
 4887SOL    HW224996  10.035   8.110   0.216  3.1541  1.7898 -1.7597
 4888SOL     OW24997   7.983   7.586   3.975  0.1898 -0.0726 -0.3895
 4888SOL    HW124998   7.957   7.505   4.028 -1.7122  0.1972 -0.8557
 4888SOL    HW224999   7.901   7.641   3.958  1.3660  1.6001 -0.6480
 4889SOL     OW25000   9.365   2.439   2.797 -0.0227  0.4995  0.0474
 4889SOL    HW125001   9.305   2.364   2.768 -0.1225  0.8059 -0.5469
 4889SOL    HW225002   9.457   2.404   2.815  0.4766  0.5715 -2.2496
 4890SOL     OW25003   1.663   8.477   3.681  0.3662 -0.8156  0.0997
 4890SOL    HW125004   1.599   8.483   3.757  0.1527 -1.3552 -0.0341
 4890SOL    HW225005   1.729   8.551   3.687 -0.8086  0.2955 -0.2525
 4891SOL     OW25006   3.115   7.887   0.232  0.1530  0.1089 -0.1395
 4891SOL    HW125007   3.017   7.903   0.229  0.2322  0.4609 -1.0635
 4891SOL    HW225008   3.135   7.796   0.195  0.1337 -0.1418  0.4692
 4892SOL     OW25009   9.726   0.820   0.076  0.1893  0.1366  0.0032
 4892SOL    HW125010   9.646   0.878   0.094 -1.0507 -1.2177 -1.0177
 4892SOL    HW225011   9.804   0.878   0.051 -0.7000  1.4317  0.1682
 4893SOL     OW25012   9.291   0.027   0.528 -0.5022 -0.2734  0.3718
 4893SOL    HW125013   9.210  -0.018   0.566 -1.0098  0.3504  0.0396
 4893SOL    HW225014   9.371  -0.031   0.543 -0.8031 -0.3542  1.7835
 4894SOL     OW25015   8.422   3.307   0.369 -0.0622  0.7755 -0.1064
 4894SOL    HW125016   8.371   3.304   0.283  1.8227  1.5678 -1.2852
 4894SOL    HW225017   8.431   3.402   0.398 -1.2208  0.4685  1.3183
 4895SOL     OW25018   2.504   5.464   2.486  0.2637 -0.5240 -0.2208
 4895SOL    HW125019   2.430   5.411   2.528 -0.3644 -0.6949 -1.5314
 4895SOL    HW225020   2.465   5.546   2.444  0.7814 -0.7627 -1.1726
 4896SOL     OW25021   7.963   3.722   3.728  0.3126 -0.1671  0.0503
 4896SOL    HW125022   7.910   3.720   3.644 -0.5405 -0.4685  0.5870
 4896SOL    HW225023   7.955   3.634   3.775 -0.6414  0.5684  1.3146
 4897SOL     OW25024   5.003   8.233   3.119 -0.3309  0.0788 -0.0663
 4897SOL    HW125025   5.091   8.279   3.111 -0.0804 -0.6036 -1.2701
 4897SOL    HW225026   5.002   8.152   3.062 -0.4102 -2.0390  2.8478
 4898SOL     OW25027   3.119   4.985   0.052 -0.2668  0.1776 -0.1893
 4898SOL    HW125028   3.060   4.912   0.019 -1.4536  0.9854  0.1365
 4898SOL    HW225029   3.206   4.982   0.003 -1.5689  0.6592 -2.6072
 4899SOL     OW25030   6.952   8.320   2.041 -0.0461  0.8784  0.3420
 4899SOL    HW125031   6.993   8.306   2.131 -0.6116 -0.9393  0.3403
 4899SOL    HW225032   6.853   8.327   2.051 -0.0627  1.2474 -0.0789
 4900SOL     OW25033   9.566   2.530   3.443 -0.0158 -0.4528  0.0629
 4900SOL    HW125034   9.576   2.431   3.437  1.3543 -0.3448  0.2457
 4900SOL    HW225035   9.604   2.572   3.361  1.3163  0.0102  0.8810
 4901SOL     OW25036   3.937   2.565   2.936 -0.0109 -0.0223 -0.1401
 4901SOL    HW125037   3.889   2.486   2.898 -0.8717 -0.0342  0.9642
 4901SOL    HW225038   3.939   2.639   2.868 -1.6009 -0.0207 -0.2023
 4902SOL     OW25039   8.367   4.073   1.370 -0.3425 -0.3750 -0.1371
 4902SOL    HW125040   8.289   4.122   1.331  0.0692  0.5191  0.1430
 4902SOL    HW225041   8.335   4.011   1.441 -0.8051 -0.0359 -0.0495
 4903SOL     OW25042   9.846   0.096   0.020  0.9584 -0.3484  0.5765
 4903SOL    HW125043   9.841   0.153   0.102  2.1064 -0.4210  0.7015
 4903SOL    HW225044   9.759   0.100  -0.029  0.1876 -0.4949  1.9233
 4904SOL     OW25045   3.453   4.080   0.218 -0.3505 -0.1132  0.2681
 4904SOL    HW125046   3.485   4.078   0.124  1.5800  0.0099  0.8922
 4904SOL    HW225047   3.418   4.172   0.239  0.4438  0.2430  0.0566
 4905SOL     OW25048   1.234   4.912   0.973  0.3508 -0.4787 -0.1446
 4905SOL    HW125049   1.247   4.844   1.045 -0.6681  0.8914  1.3579
 4905SOL    HW225050   1.286   4.995   0.995 -0.2880  0.1024 -0.7930
 4906SOL     OW25051   4.340   2.444   1.487 -0.8788 -0.1455  0.0333
 4906SOL    HW125052   4.377   2.405   1.571 -1.8935 -0.6107  0.2705
 4906SOL    HW225053   4.331   2.543   1.497  1.0605  0.1025 -0.3268
 4907SOL     OW25054   0.638   8.255   0.433  0.1968 -0.3369 -0.2106
 4907SOL    HW125055   0.590   8.336   0.401 -0.2230 -0.5436 -0.1064
 4907SOL    HW225056   0.573   8.180   0.445  0.6151 -0.7593 -0.5359
 4908SOL     OW25057   2.548   5.827   0.354 -0.3538  0.2794 -0.1267
 4908SOL    HW125058   2.514   5.798   0.443  0.3528  0.5047  0.2224
 4908SOL    HW225059   2.477   5.878   0.306 -0.1620  1.6602  1.0308
 4909SOL     OW25060   9.664   3.536   1.494 -0.0011  0.1742  0.0088
 4909SOL    HW125061   9.719   3.575   1.568  1.5232 -0.9049 -0.5248
 4909SOL    HW225062   9.567   3.544   1.517  0.2632  3.5674  0.2356
 4910SOL     OW25063   1.406   8.939   1.906 -0.8649 -0.3068 -0.5541
 4910SOL    HW125064   1.410   8.858   1.965 -0.2266 -0.1599 -0.3908
 4910SOL    HW225065   1.429   8.913   1.812  3.2257  0.3348  0.1811
 4911SOL     OW25066   3.142   2.341   1.003 -0.5865  0.2090  0.0278
 4911SOL    HW125067   3.205   2.273   1.042  0.7864  1.8452  0.7217
 4911SOL    HW225068   3.049   2.305   1.005 -0.0507 -1.1552  1.5821
 4912SOL     OW25069   7.459   3.767   0.601  0.2847  0.2413 -0.2353
 4912SOL    HW125070   7.487   3.716   0.519  2.9142  0.5255  0.4468
 4912SOL    HW225071   7.407   3.706   0.661 -0.4333 -0.3685 -1.4460
 4913SOL     OW25072   9.805   1.192   1.952  0.0878  0.3403  0.1357
 4913SOL    HW125073   9.891   1.141   1.950  0.6833  1.2399  1.5210
 4913SOL    HW225074   9.750   1.163   2.030 -1.0761 -0.5326 -0.9911
 4914SOL     OW25075   4.412   6.522   2.972 -0.0809 -0.1409 -0.1224
 4914SOL    HW125076   4.387   6.592   3.040 -0.0646 -0.8444  0.6182
 4914SOL    HW225077   4.433   6.566   2.885  0.4019  0.8186  0.4712
 4915SOL     OW25078   8.634   3.444   1.085  0.3703  0.3123  0.3506
 4915SOL    HW125079   8.713   3.384   1.097  0.1490  0.1123  0.7996
 4915SOL    HW225080   8.556   3.392   1.051 -0.0303  0.2034  1.4100
 4916SOL     OW25081   1.516   5.740   1.237  0.5131  0.1454  0.2511
 4916SOL    HW125082   1.588   5.689   1.284  0.3833  0.9307  1.3361
 4916SOL    HW225083   1.513   5.713   1.141  1.2632 -0.9703  0.5339
 4917SOL     OW25084   1.945   9.273   0.830  0.0770 -0.0999  0.0371
 4917SOL    HW125085   1.908   9.355   0.785 -1.0380  0.0159  1.1404
 4917SOL    HW225086   1.924   9.192   0.774  0.4626  0.2588 -0.6425
 4918SOL     OW25087   2.737   6.592   1.262  0.2660 -0.2441 -0.0325
 4918SOL    HW125088   2.688   6.509   1.286  1.8488 -1.3793 -0.6860
 4918SOL    HW225089   2.672   6.667   1.248 -1.0763 -1.0358  1.8456
 4919SOL     OW25090   0.623   3.125   3.668  0.2963 -0.2427 -0.1717
 4919SOL    HW125091   0.541   3.179   3.684  0.0633 -0.2445 -1.3710
 4919SOL    HW225092   0.704   3.179   3.696 -0.0108  0.2752 -0.2728
 4920SOL     OW25093   1.572   7.818   0.577 -0.3759  0.6278  0.3811
 4920SOL    HW125094   1.632   7.739   0.565  0.4825  1.2067  0.7547
 4920SOL    HW225095   1.531   7.816   0.668  2.2314  2.3044  1.6677
 4921SOL     OW25096   1.083   7.187   2.244  0.4867 -0.5115  0.0845
 4921SOL    HW125097   0.984   7.173   2.244  0.2831  0.7861 -1.2544
 4921SOL    HW225098   1.111   7.232   2.159  1.9539  0.8661  1.2449
 4922SOL     OW25099   0.417   0.921   3.875  0.2578 -0.3076 -0.0129
 4922SOL    HW125100   0.496   0.873   3.915 -0.5064 -0.3609  1.4577
 4922SOL    HW225101   0.369   0.858   3.814  0.4058 -0.7986  0.3663
 4923SOL     OW25102   9.241   1.530   2.855  0.1473 -0.3597 -0.6119
 4923SOL    HW125103   9.192   1.574   2.779  0.9061  1.2843 -0.1662
 4923SOL    HW225104   9.182   1.529   2.936  0.1817 -0.0068 -0.5792
 4924SOL     OW25105   0.083   0.575   0.096 -0.2479  0.7005  0.5641
 4924SOL    HW125106   0.127   0.495   0.053 -0.5986  0.7567  0.0939
 4924SOL    HW225107   0.114   0.658   0.050 -1.6528  0.6673 -0.4758
 4925SOL     OW25108   3.562   7.555   3.878  0.4099  0.1107 -0.2552
 4925SOL    HW125109   3.530   7.481   3.937  1.4727  0.3061  0.5843
 4925SOL    HW225110   3.653   7.584   3.908  0.1277  1.5581 -0.7706
 4926SOL     OW25111   7.297   9.730   1.346  0.3541 -0.1308  0.1471
 4926SOL    HW125112   7.391   9.762   1.357  0.9208 -0.5560 -3.0612
 4926SOL    HW225113   7.288   9.639   1.386  1.7626 -0.8151 -1.0739
 4927SOL     OW25114   6.631   9.837   2.891 -0.1172  0.4868 -0.2255
 4927SOL    HW125115   6.701   9.776   2.853 -1.3967 -0.7509 -0.6683
 4927SOL    HW225116   6.558   9.849   2.824 -0.0313  2.3055 -0.0182
 4928SOL     OW25117   3.172   3.311   3.728  0.2712 -0.2240 -0.6232
 4928SOL    HW125118   3.212   3.330   3.638 -0.8514 -0.9427 -1.2926
 4928SOL    HW225119   3.226   3.241   3.774  0.5408 -0.2558 -0.9824
 4929SOL     OW25120   0.431   1.021   3.289 -0.3315 -0.0250 -0.8312
 4929SOL    HW125121   0.435   1.116   3.322  0.6225 -1.3357  3.0625
 4929SOL    HW225122   0.521   0.995   3.253 -0.6079  0.5303 -1.9513
 4930SOL     OW25123   7.472   1.572   3.970  0.3720 -0.0002 -0.4071
 4930SOL    HW125124   7.546   1.581   3.903  0.5666  2.0522  0.0426
 4930SOL    HW225125   7.389   1.616   3.934 -0.5591 -1.9737 -0.7569
 4931SOL     OW25126   8.324   0.723   3.510 -0.3639 -0.1280 -0.2254
 4931SOL    HW125127   8.355   0.811   3.546  1.0263 -1.0925  1.0264
 4931SOL    HW225128   8.358   0.711   3.417  0.4848  0.1296  0.0478
 4932SOL     OW25129   9.264   9.178   0.570  0.1232  0.1302 -0.1650
 4932SOL    HW125130   9.301   9.202   0.480  0.9293  2.0222  0.6346
 4932SOL    HW225131   9.248   9.262   0.622 -1.4316 -0.8961  1.0341
 4933SOL     OW25132   1.098   2.391   0.502  0.1874  0.3945  0.0044
 4933SOL    HW125133   1.019   2.335   0.526  0.7577 -0.1077  0.7194
 4933SOL    HW225134   1.082   2.434   0.413 -1.4370  1.2923  0.6850
 4934SOL     OW25135   1.205   1.496   3.208 -0.5648 -0.4440  0.0267
 4934SOL    HW125136   1.193   1.585   3.252  3.1845  0.2182 -0.1645
 4934SOL    HW225137   1.240   1.430   3.274 -2.2486 -1.5351 -0.1188
 4935SOL     OW25138   9.818   8.602   3.532 -0.6878  0.7442 -0.3872
 4935SOL    HW125139   9.812   8.573   3.627  1.1722 -0.8733 -0.7322
 4935SOL    HW225140   9.826   8.702   3.528  0.3388  0.7479  1.2084
 4936SOL     OW25141   1.877   3.001   2.421 -0.4819  0.2121  0.1226
 4936SOL    HW125142   1.793   2.947   2.413 -0.3858  0.3048 -1.8076
 4936SOL    HW225143   1.903   3.008   2.517 -1.5383 -1.5735  0.5694
 4937SOL     OW25144   8.486   9.143   0.941  0.4508 -0.0313  0.6598
 4937SOL    HW125145   8.516   9.236   0.965 -0.5689  0.6839 -0.6908
 4937SOL    HW225146   8.443   9.146   0.851 -0.9222 -1.5697  1.2612
 4938SOL     OW25147   0.278   0.855   3.641  0.1872  0.2583  0.4321
 4938SOL    HW125148   0.369   0.815   3.631  1.9417  3.0601  4.0789
 4938SOL    HW225149   0.253   0.903   3.557  2.2989 -0.0917 -0.4232
 4939SOL     OW25150   2.212   0.332   1.016  0.3315  0.3720 -0.3941
 4939SOL    HW125151   2.256   0.412   1.057  0.5267  0.4656 -0.7898
 4939SOL    HW225152   2.278   0.283   0.959  0.5866 -0.8227  0.9167
 4940SOL     OW25153   9.898   3.769   1.166 -0.3185 -0.0129  0.2935
 4940SOL    HW125154   9.964   3.778   1.240  0.1224  2.0552 -0.3219
 4940SOL    HW225155   9.814   3.818   1.190  0.2777  1.7342 -1.0525
 4941SOL     OW25156   3.112   6.982   1.024  0.4688 -0.6129  0.1271
 4941SOL    HW125157   3.028   6.933   1.001  0.2615  0.0877 -0.6134
 4941SOL    HW225158   3.150   6.944   1.108 -0.5396 -0.9972  0.4227
 4942SOL     OW25159   3.524   2.325   0.556  0.0545  0.6018 -0.2823
 4942SOL    HW125160   3.531   2.240   0.504  0.1051 -0.1289  0.8932
 4942SOL    HW225161   3.461   2.387   0.510  0.7362  0.3162 -1.6561
 4943SOL     OW25162   9.931   8.464   1.000  0.1097 -0.3506  0.1635
 4943SOL    HW125163   9.887   8.379   0.970  0.4507 -0.0571 -1.1968
 4943SOL    HW225164   9.958   8.455   1.096  1.8492 -2.4971 -0.4824
 4944SOL     OW25165   2.182   2.897   0.338  0.5731  0.4722  0.2560
 4944SOL    HW125166   2.198   2.880   0.241  0.0086  0.1382  0.2205
 4944SOL    HW225167   2.109   2.965   0.349 -1.1696 -1.3823  0.4670
 4945SOL     OW25168   3.760   6.195   2.405  0.0378  0.0640  0.3906
 4945SOL    HW125169   3.839   6.136   2.389 -0.0351 -0.1396  0.7780
 4945SOL    HW225170   3.708   6.205   2.320  0.2308 -0.1640  0.2456
 4946SOL     OW25171   9.954   2.337   3.256  0.0465 -0.0100 -0.0368
 4946SOL    HW125172   9.856   2.332   3.276 -0.2745  1.6944 -1.0323
 4946SOL    HW225173   9.990   2.425   3.288  0.6970  0.4091 -1.8561
 4947SOL     OW25174   3.456   4.842   2.600  0.8480  0.3378 -0.2865
 4947SOL    HW125175   3.379   4.785   2.629  0.5879 -0.2551 -2.0325
 4947SOL    HW225176   3.541   4.798   2.627  0.5895  1.1038  1.8426
 4948SOL     OW25177   4.186   4.885   2.377 -0.2496  0.6364 -0.1253
 4948SOL    HW125178   4.101   4.885   2.323 -0.4431 -1.5081  0.1187
 4948SOL    HW225179   4.261   4.920   2.321 -0.5981 -0.8475 -1.5658
 4949SOL     OW25180   3.428   0.395   2.448 -0.0685  0.3201  0.4261
 4949SOL    HW125181   3.387   0.427   2.534 -0.3387 -1.4766  0.9839
 4949SOL    HW225182   3.381   0.313   2.417 -0.3440  1.2621 -1.7747
 4950SOL     OW25183   9.753   7.989   1.222  0.3382  0.4893 -0.5515
 4950SOL    HW125184   9.771   7.892   1.234  0.6503  0.1635 -3.2915
 4950SOL    HW225185   9.749   8.034   1.311 -0.9573 -2.2118  0.8140
 4951SOL     OW25186   8.204   3.775   0.025 -0.2732  0.2205  0.0941
 4951SOL    HW125187   8.159   3.844  -0.031 -0.9153 -0.1565  0.1455
 4951SOL    HW225188   8.191   3.797   0.122 -0.9873 -0.2855  0.1220
 4952SOL     OW25189   1.377   0.763   3.579  0.2469  0.1135  0.4922
 4952SOL    HW125190   1.359   0.667   3.556 -0.9693  0.1366  1.2932
 4952SOL    HW225191   1.433   0.768   3.661  0.7213  0.0809  0.1691
 4953SOL     OW25192   2.145   1.974   2.326  0.4692 -0.0722 -0.1691
 4953SOL    HW125193   2.150   2.065   2.369 -0.7219 -0.1882  0.2341
 4953SOL    HW225194   2.213   1.968   2.253  0.2847  1.2918 -0.4666
 4954SOL     OW25195   7.891   0.689   2.072  0.1179  0.0553 -0.4472
 4954SOL    HW125196   7.888   0.786   2.096  1.1499  0.4037 -1.6968
 4954SOL    HW225197   7.915   0.636   2.153  2.7189  1.1421 -0.4406
 4955SOL     OW25198   2.335   1.491   1.604 -0.6261 -0.2021  0.3018
 4955SOL    HW125199   2.350   1.499   1.506 -0.9177 -2.3615  0.0682
 4955SOL    HW225200   2.236   1.496   1.623 -0.5269  0.8889  0.5580
 4956SOL     OW25201   3.921   2.310   2.231  0.0622  0.0668  0.6698
 4956SOL    HW125202   3.981   2.341   2.156  0.6918 -0.9473  0.7333
 4956SOL    HW225203   3.969   2.319   2.318  0.1720 -0.8583  0.7108
 4957SOL     OW25204   3.776   3.140   3.239  0.4182  0.1842  0.3021
 4957SOL    HW125205   3.763   3.200   3.318  3.8676  1.0899  0.2862
 4957SOL    HW225206   3.838   3.066   3.263 -0.0509 -0.6494 -1.0096
 4958SOL     OW25207   2.455   8.084   2.511  0.1280 -0.3046 -0.1508
 4958SOL    HW125208   2.422   8.177   2.525 -0.6514 -0.7104  0.7514
 4958SOL    HW225209   2.377   8.022   2.500  0.6369 -0.8578 -0.7232
 4959SOL     OW25210   0.805   7.406   0.470  0.5390 -0.5360  0.2451
 4959SOL    HW125211   0.718   7.450   0.448  0.8763  0.0647  0.0622
 4959SOL    HW225212   0.857   7.392   0.385  1.4407  0.9076  0.5239
 4960SOL     OW25213   3.160   2.742   0.886  0.5470 -0.0757  0.1761
 4960SOL    HW125214   3.162   2.679   0.808  0.4790 -0.3962  0.4364
 4960SOL    HW225215   3.186   2.694   0.969  0.4801  0.2356  0.3776
 4961SOL     OW25216   1.604   1.544   3.853 -0.0078 -0.0024  0.7428
 4961SOL    HW125217   1.606   1.610   3.778  2.8823  0.0719  0.8412
 4961SOL    HW225218   1.674   1.475   3.839 -1.3185 -1.6054  1.9610
 4962SOL     OW25219   3.708   7.990   2.801  0.2515 -0.2423  0.2254
 4962SOL    HW125220   3.707   7.892   2.820 -0.4024 -0.5518 -1.3349
 4962SOL    HW225221   3.646   8.037   2.864 -0.9011 -1.0754 -0.2814
 4963SOL     OW25222   2.931   0.617   2.358  0.0863  0.0012  0.2357
 4963SOL    HW125223   3.005   0.594   2.294 -0.6360 -2.5911  0.2826
 4963SOL    HW225224   2.846   0.629   2.307 -0.1238 -0.2773  0.5190
 4964SOL     OW25225   0.629   1.880   0.499 -0.0913  0.0868 -0.2916
 4964SOL    HW125226   0.695   1.847   0.432  1.2564  1.3809  0.3548
 4964SOL    HW225227   0.606   1.806   0.562 -0.3503 -0.7649 -1.3610
 4965SOL     OW25228   1.430   2.692   0.559  0.1493 -0.4377 -0.4559
 4965SOL    HW125229   1.383   2.773   0.523  0.9330 -0.1623 -0.8689
 4965SOL    HW225230   1.509   2.671   0.502  0.7682 -0.6590  0.4592
 4966SOL     OW25231   4.056   3.381   0.734  0.3170 -0.3231 -0.0140
 4966SOL    HW125232   4.071   3.476   0.707  0.8398  0.0822  1.6147
 4966SOL    HW225233   4.096   3.320   0.666  0.7236  0.6352 -0.6495
 4967SOL     OW25234   0.774   8.289   1.595 -1.2967  0.0924 -0.2170
 4967SOL    HW125235   0.702   8.219   1.595 -0.9832 -0.2317 -1.9245
 4967SOL    HW225236   0.855   8.254   1.550 -0.6464  1.0794  0.1682
 4968SOL     OW25237   3.517   7.354   0.600  0.3314 -0.1843  0.0475
 4968SOL    HW125238   3.528   7.317   0.507 -3.2383  0.2686 -0.6375
 4968SOL    HW225239   3.564   7.442   0.606  0.8982 -0.3792 -1.2052
 4969SOL     OW25240   1.598   7.023   2.176 -0.3872  0.2711  0.2961
 4969SOL    HW125241   1.513   7.044   2.129  0.4538  2.4483 -0.3213
 4969SOL    HW225242   1.579   7.001   2.272 -1.6223  0.8061  0.1831
 4970SOL     OW25243   0.485   3.491   2.904 -0.1199 -0.1986  0.2893
 4970SOL    HW125244   0.425   3.570   2.917  0.1130 -0.0424  0.4088
 4970SOL    HW225245   0.554   3.513   2.835  0.8589  0.2119  1.3987
 4971SOL     OW25246   8.552   7.599   0.324  0.1360 -0.3668 -0.6286
 4971SOL    HW125247   8.546   7.501   0.346  0.8942 -0.6037 -1.4453
 4971SOL    HW225248   8.505   7.616   0.238 -1.2690  0.2486  0.2485
 4972SOL     OW25249   9.577   0.309   0.596 -0.6551  0.4015  0.1114
 4972SOL    HW125250   9.627   0.223   0.592 -2.5904 -0.7959  0.6893
 4972SOL    HW225251   9.570   0.348   0.504 -1.3762 -1.0524 -0.4795
 4973SOL     OW25252   8.169   2.962   0.401 -0.5087 -0.0928 -0.3576
 4973SOL    HW125253   8.240   2.893   0.415 -1.0882 -0.3093  1.6786
 4973SOL    HW225254   8.202   3.051   0.432 -0.4325  0.1856 -1.2297
 4974SOL     OW25255   7.945   3.065   0.853  0.1093  0.2906 -0.0637
 4974SOL    HW125256   8.017   3.119   0.897  0.0935 -0.0790  0.4167
 4974SOL    HW225257   7.900   3.121   0.783  2.8546 -0.4079 -2.5339
 4975SOL     OW25258   7.425   2.016   0.658  0.0538 -0.5623  0.8992
 4975SOL    HW125259   7.398   2.079   0.585 -0.9162 -0.1953  1.5714
 4975SOL    HW225260   7.510   1.970   0.632 -0.1013 -0.1839 -0.3107
 4976SOL     OW25261   9.537   9.436   2.822  0.2184 -0.0150  0.0268
 4976SOL    HW125262   9.496   9.527   2.817  0.7215  0.2353  0.4295
 4976SOL    HW225263   9.540   9.406   2.917  2.8933  0.8619  0.2658
 4977SOL     OW25264   3.262   4.718   0.235  0.4891  0.5153 -0.2333
 4977SOL    HW125265   3.331   4.788   0.255 -0.8972  1.4232  1.5334
 4977SOL    HW225266   3.177   4.739   0.284  0.3264 -2.9111  1.1707
 4978SOL     OW25267   9.463   0.736   2.851 -0.1780  0.0169  0.3235
 4978SOL    HW125268   9.559   0.765   2.864 -0.1458 -0.8735  2.1743
 4978SOL    HW225269   9.416   0.738   2.938 -2.2442  1.7085 -0.7878
 4979SOL     OW25270   1.342   3.975   3.116 -0.3922  0.0320  0.0277
 4979SOL    HW125271   1.332   4.070   3.086 -0.4503 -0.1020 -0.3725
 4979SOL    HW225272   1.257   3.925   3.098 -0.9693  0.3353  1.7801
 4980SOL     OW25273   1.384   3.046   1.919 -0.1452 -0.2490  0.3941
 4980SOL    HW125274   1.302   3.077   1.966  0.7687  0.1985  1.7021
 4980SOL    HW225275   1.361   2.967   1.861 -1.5154 -0.0275  0.6152
 4981SOL     OW25276   8.508   0.965   0.994 -0.0712  0.1458 -0.1768
 4981SOL    HW125277   8.482   1.057   1.023 -0.1113  0.5212 -1.3896
 4981SOL    HW225278   8.607   0.955   0.995 -0.0715  0.1662  0.0642
 4982SOL     OW25279   8.007   2.813   3.581 -0.1913 -0.2022  0.3478
 4982SOL    HW125280   8.095   2.780   3.547  0.3673  2.3315 -0.7906
 4982SOL    HW225281   8.020   2.900   3.627 -1.9214 -0.4998  1.4191
 4983SOL     OW25282   7.637   9.234   0.289 -0.4837  0.1687 -0.2112
 4983SOL    HW125283   7.624   9.306   0.221 -0.7919 -1.5254 -1.9564
 4983SOL    HW225284   7.642   9.145   0.244 -2.9759 -1.2373  2.1472
 4984SOL     OW25285   2.210   5.145   3.567 -0.0329  0.3825  0.3763
 4984SOL    HW125286   2.188   5.237   3.600  0.8217  1.1150 -1.0758
 4984SOL    HW225287   2.142   5.118   3.498 -0.3676 -0.1347  0.9081
 4985SOL     OW25288   6.705   0.596   2.774  0.2973  0.4482  0.1916
 4985SOL    HW125289   6.632   0.601   2.706 -0.4816  1.8157  1.1079
 4985SOL    HW225290   6.780   0.656   2.748  0.3134  0.4246  0.1826
 4986SOL     OW25291   4.065   9.618   2.844 -0.2152  0.2272  0.2933
 4986SOL    HW125292   4.100   9.657   2.929  1.4944 -0.4662 -0.0568
 4986SOL    HW225293   4.107   9.528   2.830 -1.8739 -0.4551 -0.3700
 4987SOL     OW25294   0.766   8.546   1.368 -0.6869  0.1460 -0.1306
 4987SOL    HW125295   0.699   8.533   1.440  0.5121 -1.3237  0.7414
 4987SOL    HW225296   0.838   8.609   1.400 -0.1656 -0.4906 -0.0327
 4988SOL     OW25297   8.862   0.551   1.225  0.1992 -0.1999 -0.1284
 4988SOL    HW125298   8.948   0.563   1.177 -0.1192  0.1182 -0.6222
 4988SOL    HW225299   8.856   0.615   1.301  0.0577  0.3180 -0.5749
 4989SOL     OW25300   0.082   2.316   2.095  0.1577 -0.1469 -0.2123
 4989SOL    HW125301   0.100   2.396   2.153  0.5082  0.0475 -0.5899
 4989SOL    HW225302  -0.017   2.305   2.084  0.1239  0.5834 -0.6552
 4990SOL     OW25303   9.315   9.603   2.059  0.7615  0.4367 -0.0475
 4990SOL    HW125304   9.409   9.634   2.044  0.8258  0.2207 -0.0834
 4990SOL    HW225305   9.285   9.631   2.150  0.5491  1.2976 -0.3695
 4991SOL     OW25306   4.912   9.778   1.628 -0.2047 -0.7129 -0.4818
 4991SOL    HW125307   4.958   9.788   1.539  0.2513 -0.3215 -0.2040
 4991SOL    HW225308   4.815   9.798   1.618  0.1054  0.7902 -0.6009
 4992SOL     OW25309   2.027   9.453   3.230 -0.4163 -0.1562 -0.0425
 4992SOL    HW125310   1.963   9.473   3.156  0.2635  1.5030 -0.2131
 4992SOL    HW225311   2.096   9.526   3.235  0.1811 -0.8006  1.5184
 4993SOL     OW25312   2.185   6.569   3.130  0.0445  0.5005 -0.3575
 4993SOL    HW125313   2.092   6.604   3.143  0.4640  1.2077  0.7552
 4993SOL    HW225314   2.180   6.471   3.109 -0.8911  0.1749  1.2490
 4994SOL     OW25315   1.893   4.555   0.404  0.0670 -0.5529 -0.2596
 4994SOL    HW125316   1.886   4.477   0.342 -1.8200 -0.1587 -0.5602
 4994SOL    HW225317   1.985   4.593   0.398  0.4317 -1.5859 -1.5231
 4995SOL     OW25318   4.247   2.615   2.582 -0.3150 -0.4498 -0.0865
 4995SOL    HW125319   4.237   2.545   2.512 -0.3158  0.5249 -1.0831
 4995SOL    HW225320   4.165   2.673   2.584  0.1089  0.1539  0.0125
 4996SOL     OW25321   2.549   0.703   3.944 -0.2312  0.0024  0.1121
 4996SOL    HW125322   2.649   0.696   3.945 -0.0891  1.8665 -0.4841
 4996SOL    HW225323   2.522   0.793   3.912 -2.1086 -0.1758  1.1263
 4997SOL     OW25324   3.912   6.989   2.015 -0.2181  0.3701  0.0010
 4997SOL    HW125325   4.008   6.958   2.014 -0.4229 -0.2738 -2.7463
 4997SOL    HW225326   3.861   6.934   2.081  1.0533 -0.0124  0.7002
 4998SOL     OW25327   9.515   0.277   1.455  0.1098  0.2193 -0.0062
 4998SOL    HW125328   9.476   0.364   1.485  0.4301  0.1872  0.5068
 4998SOL    HW225329   9.457   0.202   1.487 -0.1206  0.2346 -0.3768
 4999SOL     OW25330   3.036   2.853   2.358  0.4932 -0.5364 -0.1285
 4999SOL    HW125331   2.984   2.850   2.273  0.8067 -1.1150 -0.2993
 4999SOL    HW225332   3.000   2.926   2.416 -1.0254 -1.4214  0.0791
 5000SOL     OW25333   3.783   1.125   2.880 -0.4683 -0.4419  0.1105
 5000SOL    HW125334   3.846   1.178   2.822 -1.3465  0.6580  0.1564
 5000SOL    HW225335   3.800   1.027   2.865 -0.0368 -0.1745 -1.3008
 5001SOL     OW25336   1.971   0.027   0.398  0.3561 -0.2238 -0.3375
 5001SOL    HW125337   1.987   0.100   0.331  0.0728 -2.8206 -3.3291
 5001SOL    HW225338   1.876  -0.002   0.393 -0.2246  0.9918  2.7551
 5002SOL     OW25339   3.602   9.290   1.331  0.2471  0.0440  0.2872
 5002SOL    HW125340   3.584   9.289   1.430  0.4906 -0.2615  0.3281
 5002SOL    HW225341   3.553   9.367   1.289  1.3416  1.0801  0.8739
 5003SOL     OW25342   6.343   9.171   2.001  0.5913 -0.2975 -0.2743
 5003SOL    HW125343   6.393   9.191   2.086  1.8896 -0.3925 -1.0013
 5003SOL    HW225344   6.250   9.142   2.024  0.4363  1.1206  1.0552
 5004SOL     OW25345   2.271   7.583   1.801  0.0112 -0.1962 -0.0481
 5004SOL    HW125346   2.247   7.499   1.849 -0.3766 -0.1163 -0.0969
 5004SOL    HW225347   2.204   7.601   1.729 -1.4989  1.5965  1.7497
 5005SOL     OW25348   9.523   3.607   1.002  0.3999 -0.1389 -0.6303
 5005SOL    HW125349   9.504   3.675   1.073 -1.4729 -0.1213 -1.1391
 5005SOL    HW225350   9.612   3.564   1.020 -0.1454 -0.2891  1.8434
 5006SOL     OW25351   7.934   9.965   0.929  0.3678  0.5832 -0.1352
 5006SOL    HW125352   7.885  10.021   0.996  1.7012  0.9691  0.5450
 5006SOL    HW225353   7.920  10.003   0.837 -1.4637  0.0517 -0.0866
 5007SOL     OW25354   0.461   1.122   0.404  0.0211  0.1920 -0.0641
 5007SOL    HW125355   0.526   1.112   0.478 -0.8298  0.7097  0.7648
 5007SOL    HW225356   0.491   1.068   0.325  0.8839 -0.4223  0.6824
 5008SOL     OW25357   2.194   8.734   0.879 -0.5845 -0.0758  0.1535
 5008SOL    HW125358   2.153   8.824   0.888  0.7021  0.4731  0.6562
 5008SOL    HW225359   2.174   8.680   0.961  1.0498  0.7598  1.1258
 5009SOL     OW25360   0.027   0.134   2.562 -0.0661  0.6295  0.0758
 5009SOL    HW125361  -0.030   0.211   2.591  0.2114  0.9192 -0.1389
 5009SOL    HW225362   0.113   0.169   2.525 -0.4125  0.2591 -1.0875
 5010SOL     OW25363   7.821   1.427   1.458  0.2745  0.2148  0.0466
 5010SOL    HW125364   7.909   1.400   1.497  0.5827  2.7685  1.2408
 5010SOL    HW225365   7.836   1.493   1.385 -0.5361 -1.4722 -1.6879
 5011SOL     OW25366   7.132   3.378   0.446  0.3168  0.2585 -0.2485
 5011SOL    HW125367   7.140   3.440   0.525  0.3318 -0.6072  0.4314
 5011SOL    HW225368   7.172   3.289   0.469 -0.7187 -0.3660 -0.8491
 5012SOL     OW25369   4.505   8.295   3.853  0.5130 -0.1081  0.7228
 5012SOL    HW125370   4.497   8.195   3.850  1.9544 -0.2221  0.0426
 5012SOL    HW225371   4.435   8.333   3.914 -0.9941 -1.4068 -0.1811
 5013SOL     OW25372   2.295   6.028   3.413 -0.6360  0.2534  0.2873
 5013SOL    HW125373   2.299   6.127   3.405  0.7010  0.1340 -0.8436
 5013SOL    HW225374   2.343   5.986   3.335 -0.3823 -1.2523  1.2208
 5014SOL     OW25375   8.298   3.289   2.415  0.1310  0.8803  0.4370
 5014SOL    HW125376   8.290   3.380   2.454 -0.4224  0.2719  1.7869
 5014SOL    HW225377   8.269   3.221   2.483 -1.8897 -0.1375 -1.3530
 5015SOL     OW25378   2.009   6.200   2.312  0.5512  0.2056 -0.0775
 5015SOL    HW125379   1.925   6.168   2.268  1.0864 -1.3666 -0.0044
 5015SOL    HW225380   2.069   6.122   2.331  0.9759  1.0086  2.1029
 5016SOL     OW25381   8.284   1.337   1.932 -0.0693 -0.0771  0.5080
 5016SOL    HW125382   8.278   1.244   1.966 -1.5324  0.0016  0.5079
 5016SOL    HW225383   8.324   1.337   1.840 -1.1341 -0.8140  0.0472
 5017SOL     OW25384   1.885   6.672   2.888  0.0676  0.0042 -0.3903
 5017SOL    HW125385   1.874   6.613   2.968 -1.3142 -0.8369 -1.1727
 5017SOL    HW225386   1.834   6.757   2.902 -0.3960 -0.2565 -0.4823
 5018SOL     OW25387   3.018   1.765   3.574  0.2075 -0.0802  0.1134
 5018SOL    HW125388   3.089   1.836   3.579 -0.1364  0.3097 -0.4728
 5018SOL    HW225389   3.038   1.694   3.642  1.8378 -0.6131 -0.8908
 5019SOL     OW25390   9.147   7.076   0.329  0.2036 -0.6486 -0.2507
 5019SOL    HW125391   9.114   7.162   0.368 -1.4135 -1.7505  0.8847
 5019SOL    HW225392   9.236   7.091   0.287  0.1001  1.5062  0.2068
 5020SOL     OW25393   0.699   9.636   0.560 -0.7226 -0.6083 -0.1626
 5020SOL    HW125394   0.699   9.718   0.617  0.5948  1.0505 -2.4461
 5020SOL    HW225395   0.756   9.565   0.603 -1.2756 -0.0827  1.4740
 5021SOL     OW25396   4.868   9.328   1.386  0.0162 -0.1582 -0.0984
 5021SOL    HW125397   4.788   9.383   1.408 -0.5772 -1.5247  1.2745
 5021SOL    HW225398   4.863   9.241   1.435  0.9181 -1.4657 -2.2698
 5022SOL     OW25399   2.357   8.941   3.015 -0.5830 -0.4581 -0.2438
 5022SOL    HW125400   2.258   8.943   3.006 -0.6999  0.7048  1.0907
 5022SOL    HW225401   2.382   8.940   3.112  0.7004 -1.4387 -0.5704
 5023SOL     OW25402   3.557   1.105   2.624  0.4769  0.1881 -0.1913
 5023SOL    HW125403   3.590   1.158   2.545  1.5501 -0.5401 -0.2385
 5023SOL    HW225404   3.490   1.159   2.675  0.1864  0.8787 -1.2882
 5024SOL     OW25405   3.683   3.556   2.708  0.1319  0.9338  0.4386
 5024SOL    HW125406   3.710   3.578   2.614 -1.3534  0.8593 -0.0110
 5024SOL    HW225407   3.740   3.481   2.742 -0.5257 -0.2739 -1.0501
 5025SOL     OW25408   4.466   3.210   2.839 -0.0640  0.8829  0.0054
 5025SOL    HW125409   4.540   3.190   2.775 -1.0348  1.0501 -1.1894
 5025SOL    HW225410   4.405   3.278   2.798 -0.8924  0.7190  0.9667
 5026SOL     OW25411   2.388   2.895   2.384 -0.2222  0.2607  0.2653
 5026SOL    HW125412   2.333   2.973   2.356 -1.6743 -0.6861  0.4355
 5026SOL    HW225413   2.479   2.926   2.410 -0.4241  1.7485 -0.7658
 5027SOL     OW25414   9.043   0.805   2.314  0.3570 -0.1913 -0.1274
 5027SOL    HW125415   9.089   0.887   2.348 -0.0617  0.1658 -0.4244
 5027SOL    HW225416   9.000   0.757   2.391  1.4625 -0.6882  0.1982
 5028SOL     OW25417   2.286   5.337   0.495 -0.7515 -0.4413 -0.3054
 5028SOL    HW125418   2.216   5.377   0.553  0.1950 -0.1620  0.6674
 5028SOL    HW225419   2.252   5.253   0.454 -2.9431  1.5890 -2.7690
 5029SOL     OW25420   0.055   3.000   2.842 -0.3203 -0.2071  0.0235
 5029SOL    HW125421   0.063   3.019   2.744 -0.0803  0.9301  0.2606
 5029SOL    HW225422   0.146   3.003   2.884 -0.5850  0.6991  0.5327
 5030SOL     OW25423   3.032   8.770   3.041  0.6062  0.0662 -0.7851
 5030SOL    HW125424   2.966   8.696   3.035 -0.8168  1.2619 -0.2622
 5030SOL    HW225425   3.107   8.753   2.977 -1.3430 -0.2275 -3.0802
 5031SOL     OW25426   5.412   8.693   3.269  0.0979 -0.3165 -0.2998
 5031SOL    HW125427   5.494   8.664   3.221 -0.0314 -1.9757  0.4541
 5031SOL    HW225428   5.366   8.613   3.309 -1.6159  0.6345 -0.2972
 5032SOL     OW25429   1.606   8.921   3.169  0.8360 -0.2355 -0.6383
 5032SOL    HW125430   1.516   8.890   3.138 -0.4854  1.4796  1.3856
 5032SOL    HW225431   1.648   8.849   3.225  0.1002 -0.4812 -0.3913
 5033SOL     OW25432   5.009   8.367   0.145 -0.1678 -0.4290  0.1849
 5033SOL    HW125433   5.048   8.326   0.063 -1.2878 -0.4090 -0.3653
 5033SOL    HW225434   4.913   8.339   0.155 -0.1980 -0.0091  1.1965
 5034SOL     OW25435   0.847   3.305   2.741  0.2014 -0.2440 -0.6635
 5034SOL    HW125436   0.946   3.298   2.743  0.1359 -1.0149 -0.1112
 5034SOL    HW225437   0.809   3.230   2.686 -0.2339 -1.5598  1.4049
 5035SOL     OW25438   1.673   0.886   1.891 -0.7060 -0.7570 -0.1508
 5035SOL    HW125439   1.618   0.899   1.808  2.1241  2.3095 -1.6725
 5035SOL    HW225440   1.694   0.975   1.931 -0.1624 -2.0943  2.6579
 5036SOL     OW25441   2.651   4.194   0.896 -0.2238  0.2814  0.0936
 5036SOL    HW125442   2.708   4.267   0.858  0.3746 -0.1811  0.0929
 5036SOL    HW225443   2.624   4.217   0.990  0.6478  0.1241  0.3825
 5037SOL     OW25444   4.081   7.824   1.544  0.0237 -0.6824  0.4921
 5037SOL    HW125445   4.145   7.835   1.620  0.8509  0.3158 -0.3376
 5037SOL    HW225446   4.114   7.874   1.465 -1.9728  0.1679  0.1567
 5038SOL     OW25447   0.578   2.559   2.951 -0.6830 -0.3033  0.4761
 5038SOL    HW125448   0.652   2.562   2.883 -0.7365 -0.4673  0.4094
 5038SOL    HW225449   0.491   2.547   2.904 -0.7157 -0.4625  0.5747
 5039SOL     OW25450   8.753   3.556   3.354 -0.5511 -0.3995 -0.2171
 5039SOL    HW125451   8.667   3.606   3.337 -0.6200 -1.1498 -2.2543
 5039SOL    HW225452   8.796   3.534   3.266  1.6223 -0.2515  0.7799
 5040SOL     OW25453   0.573   0.069   2.846  0.1037  0.0971 -0.5532
 5040SOL    HW125454   0.510   0.147   2.838 -0.3262 -0.0635  1.1541
 5040SOL    HW225455   0.526  -0.014   2.816  1.1433  0.7228 -4.1623
 5041SOL     OW25456   3.884   0.633   2.483  0.1932  0.3378  0.0608
 5041SOL    HW125457   3.926   0.722   2.461  0.9684 -0.7253 -3.0989
 5041SOL    HW225458   3.803   0.620   2.426 -0.4694 -0.5689  1.2013
 5042SOL     OW25459   2.339   8.552   2.482 -0.2725 -0.3109 -0.7495
 5042SOL    HW125460   2.425   8.504   2.495  0.0265  0.8306  1.7598
 5042SOL    HW225461   2.357   8.641   2.440 -0.3009 -0.3774 -0.9004
 5043SOL     OW25462   9.320   0.821   3.077  0.9188  0.3006  0.4809
 5043SOL    HW125463   9.369   0.907   3.091 -2.1830  1.8590  2.3426
 5043SOL    HW225464   9.350   0.754   3.144  0.8117  1.1347  1.3896
 5044SOL     OW25465   2.183   5.644   0.731  0.6413 -0.0236  0.1062
 5044SOL    HW125466   2.274   5.624   0.769  0.7662 -0.6319 -0.5059
 5044SOL    HW225467   2.122   5.568   0.752  0.7870 -0.4954 -1.1593
 5045SOL     OW25468   2.231   0.204   0.510  0.1678 -0.2072  0.0852
 5045SOL    HW125469   2.180   0.271   0.563 -1.7513 -1.6742  0.1340
 5045SOL    HW225470   2.172   0.164   0.439  2.4183  1.0552 -2.6014
 5046SOL     OW25471   9.572   2.814   3.200  0.0379  0.1231  0.7079
 5046SOL    HW125472   9.659   2.834   3.156  0.1273  1.1663  1.3422
 5046SOL    HW225473   9.500   2.871   3.160 -0.7891 -2.2706 -1.3188
 5047SOL     OW25474   1.112   0.616   3.470  0.2399 -0.2000 -0.5306
 5047SOL    HW125475   1.199   0.570   3.453 -0.3683 -0.5887 -2.6823
 5047SOL    HW225476   1.052   0.604   3.391 -1.4716  0.7524  0.6070
 5048SOL     OW25477   2.006   1.867   3.776  0.1684 -0.1077  0.5165
 5048SOL    HW125478   2.010   1.767   3.771 -0.5517 -0.2057  1.7361
 5048SOL    HW225479   2.079   1.905   3.720  0.2472 -1.3130 -0.2229
 5049SOL     OW25480   5.810   9.370   2.836 -0.4006 -0.1764 -0.0332
 5049SOL    HW125481   5.820   9.277   2.800 -2.2282 -0.2848 -0.2888
 5049SOL    HW225482   5.768   9.365   2.927 -1.4766  0.4619 -0.4928
 5050SOL     OW25483   7.082   8.944   1.043 -0.1658 -0.3048 -0.1498
 5050SOL    HW125484   7.105   8.869   1.105  1.0291 -0.1642 -0.4089
 5050SOL    HW225485   7.083   9.030   1.094  0.8854 -0.1811 -0.3650
 5051SOL     OW25486   2.826   8.585   0.261  0.0221 -0.2181 -0.0092
 5051SOL    HW125487   2.907   8.532   0.286  2.3753  2.0912 -2.4604
 5051SOL    HW225488   2.806   8.571   0.164 -0.2502  2.0876 -0.3213
 5052SOL     OW25489   9.660   2.804   0.580 -0.9535 -0.1961 -0.1285
 5052SOL    HW125490   9.667   2.738   0.505 -2.8583  0.7778 -1.2151
 5052SOL    HW225491   9.615   2.760   0.658  0.9443 -1.1831  0.4491
 5053SOL     OW25492   0.307   7.611   2.097 -0.8216  0.7592  0.1779
 5053SOL    HW125493   0.325   7.702   2.134 -1.9864  0.8323  0.6026
 5053SOL    HW225494   0.365   7.595   2.018  0.2347  1.4154  0.8006
 5054SOL     OW25495   5.381   9.251   3.121  0.1599  0.2397  0.9864
 5054SOL    HW125496   5.294   9.277   3.079  0.8111 -3.0943 -2.7203
 5054SOL    HW225497   5.369   9.166   3.173  1.2971 -0.5997 -0.0967
 5055SOL     OW25498   2.508   5.092   1.440 -0.0066 -0.2580 -0.1796
 5055SOL    HW125499   2.520   5.189   1.461  2.4817  0.1330 -2.9306
 5055SOL    HW225500   2.431   5.081   1.376  0.4078  0.0641 -0.7429
 5056SOL     OW25501   3.354   7.778   3.832 -0.1407 -0.4454 -0.4352
 5056SOL    HW125502   3.381   7.838   3.757  0.6827 -0.7690 -0.4065
 5056SOL    HW225503   3.383   7.684   3.811  0.8926 -0.3845  0.6822
 5057SOL     OW25504   3.640   9.701   3.785  0.0533  0.0855  0.2572
 5057SOL    HW125505   3.560   9.644   3.765  1.4432 -2.2559  1.1964
 5057SOL    HW225506   3.623   9.754   3.869 -1.5899  1.8105 -1.1052
 5058SOL     OW25507   3.297   0.567   3.099 -0.4827  0.4079  0.0439
 5058SOL    HW125508   3.339   0.531   3.182 -1.5108 -0.9464 -0.0019
 5058SOL    HW225509   3.205   0.601   3.120 -0.3304  1.0715 -0.3341
 5059SOL     OW25510   1.323   9.819   4.030  0.0420 -0.7654  0.4843
 5059SOL    HW125511   1.344   9.764   4.110  0.1813  0.0249  0.9950
 5059SOL    HW225512   1.383   9.899   4.027  1.5282 -1.8876 -1.5729
 5060SOL     OW25513   0.281   9.055   2.552  0.2817  0.3630  0.3345
 5060SOL    HW125514   0.223   9.011   2.484  1.2753 -0.5464  0.0567
 5060SOL    HW225515   0.234   9.136   2.589 -0.0724  1.1300 -1.7391
 5061SOL     OW25516   2.792   7.798   2.175 -0.8840 -0.4028 -0.1077
 5061SOL    HW125517   2.837   7.820   2.262  1.0272 -0.8565 -0.9569
 5061SOL    HW225518   2.701   7.759   2.194  0.3012 -2.4003  1.7951
 5062SOL     OW25519   9.715   8.111   2.662  0.4339 -0.0071 -0.3810
 5062SOL    HW125520   9.732   8.124   2.564  0.8629 -1.1371 -0.4610
 5062SOL    HW225521   9.616   8.104   2.678  0.3323  0.6868 -0.6572
 5063SOL     OW25522   3.626   8.838   1.557  0.1021  0.4436  0.4855
 5063SOL    HW125523   3.650   8.793   1.643  1.0485 -3.4613 -1.6676
 5063SOL    HW225524   3.708   8.881   1.518  0.3209 -0.2120  0.2106
 5064SOL     OW25525   2.362   0.438   3.585  0.2256  0.1232  0.3408
 5064SOL    HW125526   2.375   0.437   3.684  0.2280  1.7772  0.3615
 5064SOL    HW225527   2.449   0.417   3.540  0.1062 -1.1604  0.6856
 5065SOL     OW25528   0.192   9.805   0.341 -0.9622 -0.2878  0.4312
 5065SOL    HW125529   0.198   9.847   0.251 -2.1586  1.2459  1.0389
 5065SOL    HW225530   0.274   9.827   0.394 -1.3877  0.9193  0.5921
 5066SOL     OW25531   0.392   8.133   3.004  0.1067 -0.0214 -0.3467
 5066SOL    HW125532   0.322   8.135   2.932  0.5962  0.1642 -0.8221
 5066SOL    HW225533   0.482   8.122   2.963  0.0987 -3.7876  0.4511
 5067SOL     OW25534   2.818   1.880   0.164  0.0754 -0.0482 -0.3853
 5067SOL    HW125535   2.789   1.976   0.170  1.4087  0.4085 -0.8667
 5067SOL    HW225536   2.856   1.851   0.252 -0.9290 -0.3377 -0.0476
 5068SOL     OW25537   0.229   9.240   0.158  0.0685  0.0007  0.2281
 5068SOL    HW125538   0.131   9.235   0.137 -0.0116  1.1977  0.2895
 5068SOL    HW225539   0.244   9.216   0.254 -0.0277 -1.3163 -0.0724
 5069SOL     OW25540   9.202   9.673   0.007 -0.4427  0.7914 -0.0108
 5069SOL    HW125541   9.147   9.731  -0.054 -1.6661  1.2319  1.4877
 5069SOL    HW225542   9.266   9.730   0.058 -0.9509  0.7085  0.7262
 5070SOL     OW25543   7.830   4.240   0.285  0.7759 -0.2149  0.2408
 5070SOL    HW125544   7.813   4.144   0.306  0.7738 -0.0944  0.7777
 5070SOL    HW225545   7.807   4.297   0.363  1.1932  0.1860  0.0789
 5071SOL     OW25546   0.381   1.645   1.207 -0.3236  0.2754  0.0400
 5071SOL    HW125547   0.388   1.546   1.190  1.2539  0.3783  0.0191
 5071SOL    HW225548   0.472   1.685   1.209 -1.0499  2.2266 -2.6991
 5072SOL     OW25549   3.449   2.358   1.696  0.2465 -0.2964 -0.2123
 5072SOL    HW125550   3.382   2.383   1.766  1.4156 -0.6574  1.0531
 5072SOL    HW225551   3.442   2.422   1.619 -0.2408  0.8259  0.7504
 5073SOL     OW25552   3.465   7.000   2.667  0.2050  0.2617  0.3178
 5073SOL    HW125553   3.381   6.951   2.692 -0.5391  0.9281 -0.8390
 5073SOL    HW225554   3.507   7.037   2.749 -2.1413  2.3404  0.6520
 5074SOL     OW25555   4.005   1.298   2.744 -0.1923  0.5233  0.2100
 5074SOL    HW125556   4.091   1.297   2.694 -0.4698 -1.7571 -0.2508
 5074SOL    HW225557   4.020   1.336   2.835  1.3651 -0.1474  0.2525
 5075SOL     OW25558   1.599   4.260   2.405  0.7318  0.8901 -0.2917
 5075SOL    HW125559   1.513   4.259   2.455  0.5465  0.8889 -0.6083
 5075SOL    HW225560   1.612   4.173   2.358  2.7943 -0.6377  2.9235
 5076SOL     OW25561   2.881   9.743   2.371  0.4615 -0.0586  0.6205
 5076SOL    HW125562   2.838   9.675   2.431  0.4123 -0.4959  0.0926
 5076SOL    HW225563   2.812   9.786   2.314  0.1869  1.9130  2.3777
 5077SOL     OW25564   9.017   9.111   0.771  0.1206  0.5886  0.2718
 5077SOL    HW125565   9.015   9.019   0.732 -1.3180  0.1264  1.4119
 5077SOL    HW225566   9.089   9.116   0.840 -0.0694  0.1872  0.5025
 5078SOL     OW25567   4.736   0.628   3.306 -0.0247  0.7330 -0.5467
 5078SOL    HW125568   4.768   0.663   3.218  0.9157  0.6680 -0.2329
 5078SOL    HW225569   4.794   0.664   3.380  0.0286 -0.2892 -0.0766
 5079SOL     OW25570   8.992   7.304   0.200  0.0810  0.5619 -0.8589
 5079SOL    HW125571   9.062   7.345   0.143 -0.4199  1.1832 -1.0327
 5079SOL    HW225572   8.980   7.359   0.283  0.0521  0.2590 -0.6623
 5080SOL     OW25573   1.361   7.672   2.669  0.4492  0.0235  0.5179
 5080SOL    HW125574   1.335   7.766   2.690  0.4281  0.0124  0.5407
 5080SOL    HW225575   1.305   7.639   2.593  1.4851  0.5546 -0.5131
 5081SOL     OW25576   9.938   1.191   2.297  0.5676  0.2785  0.1789
 5081SOL    HW125577   9.935   1.186   2.397  0.4058  0.0881  0.1642
 5081SOL    HW225578   9.845   1.183   2.260  0.4488  1.9943  0.0925
 5082SOL     OW25579   3.171   9.375   3.582  0.3991  0.0894 -0.5892
 5082SOL    HW125580   3.098   9.354   3.518  1.7369 -0.0930 -2.1001
 5082SOL    HW225581   3.234   9.298   3.588  1.1117  0.6843 -0.2390
 5083SOL     OW25582   3.063   4.118   2.107  0.1984  0.3282  0.4009
 5083SOL    HW125583   3.098   4.177   2.180  1.4250 -0.9770  0.9049
 5083SOL    HW225584   2.990   4.060   2.143  1.4523 -0.9907  0.8676
 5084SOL     OW25585   9.096   9.354   3.755  0.0924  0.4932  0.4319
 5084SOL    HW125586   9.170   9.350   3.822  0.9584 -1.2741 -0.6039
 5084SOL    HW225587   9.113   9.287   3.683 -2.0463  0.7307 -0.3087
 5085SOL     OW25588   4.880   9.253   3.236 -0.0179 -0.0106 -0.1727
 5085SOL    HW125589   4.851   9.166   3.276 -1.8293 -0.4217 -2.2895
 5085SOL    HW225590   4.845   9.328   3.291  0.0640 -0.6006  0.6891
 5086SOL     OW25591   1.001   0.454   0.103 -0.2747 -0.5948  0.3552
 5086SOL    HW125592   0.952   0.380   0.058 -1.0831  0.3080 -0.2754
 5086SOL    HW225593   0.948   0.484   0.183  0.3381 -1.0849  0.9465
 5087SOL     OW25594   4.551   9.569   2.841  0.2294 -0.2642 -0.0852
 5087SOL    HW125595   4.486   9.495   2.855  1.6707 -1.3280  1.0878
 5087SOL    HW225596   4.579   9.607   2.930  0.2769  1.0098 -0.6247
 5088SOL     OW25597   1.221   6.956   0.209 -0.1588  0.3956 -0.6312
 5088SOL    HW125598   1.149   6.973   0.142 -2.2865 -0.6464  1.3571
 5088SOL    HW225599   1.253   6.862   0.201  0.4987  0.6451 -1.0205
 5089SOL     OW25600   8.259   8.079   1.381  0.0428 -0.4761 -0.3233
 5089SOL    HW125601   8.243   8.030   1.466  0.0324  0.6228  0.3074
 5089SOL    HW225602   8.355   8.104   1.373  0.0896 -0.7706 -0.7436
 5090SOL     OW25603   4.847   0.100   2.999 -0.5003  0.0125 -0.0699
 5090SOL    HW125604   4.884   0.089   2.907  0.0674 -0.6577  0.2389
 5090SOL    HW225605   4.817   0.195   3.012  1.1493  0.5786 -0.2989
 5091SOL     OW25606   3.158   3.211   1.457 -0.0622 -0.2745 -0.2321
 5091SOL    HW125607   3.199   3.153   1.528  0.5162  0.2975 -0.1011
 5091SOL    HW225608   3.214   3.293   1.444 -1.7995  1.1361  0.8587
 5092SOL     OW25609   3.098   1.668   0.372  0.6877 -0.1199 -0.2578
 5092SOL    HW125610   3.039   1.744   0.399  1.5205  0.2370  0.5975
 5092SOL    HW225611   3.053   1.615   0.300 -1.3795 -0.7994  1.4657
 5093SOL     OW25612   4.835   1.619   1.832 -0.3231 -1.1839  0.1387
 5093SOL    HW125613   4.924   1.637   1.791  0.2590  0.3664  2.0140
 5093SOL    HW225614   4.831   1.524   1.864  0.6305 -1.2562  0.0400
 5094SOL     OW25615   2.446   6.911   0.273  0.3858 -0.0692 -0.4694
 5094SOL    HW125616   2.360   6.948   0.239  1.1461  1.8614 -0.3483
 5094SOL    HW225617   2.509   6.986   0.294  1.8708 -1.4275  0.0488
 5095SOL     OW25618   0.788   7.345   0.746 -0.0684 -0.1832 -0.5094
 5095SOL    HW125619   0.775   7.404   0.667  2.1367  0.8607 -0.1353
 5095SOL    HW225620   0.843   7.266   0.721  1.2157  0.4990  0.1148
 5096SOL     OW25621   1.294   3.735   3.403  0.0964 -0.8410 -0.3890
 5096SOL    HW125622   1.261   3.665   3.341  0.5741 -0.7950 -0.7004
 5096SOL    HW225623   1.394   3.739   3.398  0.0773 -0.1943 -0.3151
 5097SOL     OW25624   4.589   8.047   3.570 -0.3420  0.0053 -0.3129
 5097SOL    HW125625   4.660   8.116   3.553  1.2298 -1.5164 -0.0491
 5097SOL    HW225626   4.523   8.048   3.495  1.5193 -0.4715 -1.9968
 5098SOL     OW25627   3.936   3.594   0.059 -0.4267 -0.0029 -0.7199
 5098SOL    HW125628   3.958   3.614   0.154  1.0043 -1.9576 -0.6061
 5098SOL    HW225629   3.958   3.674   0.002  0.4162  0.5305  0.3429
 5099SOL     OW25630   1.495   5.267   1.517  0.1665 -0.5584 -0.2209
 5099SOL    HW125631   1.401   5.271   1.550  0.5616  1.5286  0.7766
 5099SOL    HW225632   1.556   5.245   1.593  0.7795  1.3387 -0.1228
 5100SOL     OW25633   2.902   9.268   0.071 -0.0095  0.9754 -0.2817
 5100SOL    HW125634   2.839   9.196   0.039  1.4618 -0.6963  0.4829
 5100SOL    HW225635   2.897   9.346   0.010 -2.9436  0.9547 -0.1751
 5101SOL     OW25636   3.171   7.991   3.977  0.2946 -0.0178 -0.1092
 5101SOL    HW125637   3.264   7.987   4.011  1.1145  1.7266 -2.0117
 5101SOL    HW225638   3.114   8.043   4.042  0.9852  0.1956  0.3257
 5102SOL     OW25639   9.174   8.385   1.699 -0.0404 -0.1545  0.2221
 5102SOL    HW125640   9.192   8.293   1.665 -3.6517 -1.5738  1.9382
 5102SOL    HW225641   9.181   8.386   1.799  1.3716  1.7933  0.1273
 5103SOL     OW25642   4.394   8.039   3.778  0.1724 -0.4087  0.0352
 5103SOL    HW125643   4.333   7.963   3.760 -0.8291  0.9529 -2.5365
 5103SOL    HW225644   4.464   8.044   3.706  0.3749  0.9457  0.3112
 5104SOL     OW25645   2.251   1.891   3.602 -0.7380 -0.7470  0.1623
 5104SOL    HW125646   2.335   1.942   3.619 -0.8362 -0.5068 -0.0634
 5104SOL    HW225647   2.272   1.794   3.589 -0.3546 -0.4965 -1.1568
 5105SOL     OW25648   4.799   0.841   1.861 -0.9496  0.0203  0.1913
 5105SOL    HW125649   4.772   0.867   1.768  1.3212 -0.2602 -0.5797
 5105SOL    HW225650   4.722   0.795   1.906 -1.9520 -0.2118 -1.6831
 5106SOL     OW25651   1.651   3.633   0.981  0.0070  0.3570 -0.4102
 5106SOL    HW125652   1.585   3.578   0.930 -0.8275  1.9504 -1.0666
 5106SOL    HW225653   1.722   3.665   0.918 -0.3842  1.3552 -0.3443
 5107SOL     OW25654   0.622   2.670   3.205  0.0480  0.1406 -0.4121
 5107SOL    HW125655   0.588   2.626   3.122  2.5690 -2.8150  0.0281
 5107SOL    HW225656   0.582   2.624   3.285  1.5742 -0.4061  0.0436
 5108SOL     OW25657   8.940   9.590   2.460 -0.3729  0.1669 -0.0114
 5108SOL    HW125658   8.851   9.549   2.439  0.2952 -0.1397 -2.3742
 5108SOL    HW225659   8.974   9.554   2.547 -2.6096  0.3955  0.9877
 5109SOL     OW25660   2.836   7.462   1.127 -0.0561 -0.1243 -0.2733
 5109SOL    HW125661   2.888   7.379   1.108  0.0180 -0.5670  1.8120
 5109SOL    HW225662   2.786   7.489   1.044 -0.0394 -2.2102 -1.0019
 5110SOL     OW25663   1.221   2.288   2.308 -0.1489 -0.1795 -0.2150
 5110SOL    HW125664   1.255   2.265   2.399  4.4908  1.4033 -1.3966
 5110SOL    HW225665   1.213   2.387   2.299  0.8121 -0.2362 -1.9633
 5111SOL     OW25666   7.297   9.368   2.722 -0.0408  0.2487 -0.1027
 5111SOL    HW125667   7.277   9.379   2.819 -1.3428  4.3721 -0.7208
 5111SOL    HW225668   7.242   9.293   2.684  0.3557 -1.2736  2.2543
 5112SOL     OW25669   7.023   8.681   1.951  0.2842 -0.2163  0.6208
 5112SOL    HW125670   6.938   8.663   2.000 -0.6333 -0.0640 -0.8953
 5112SOL    HW225671   7.030   8.620   1.872  0.1768  1.7131 -0.9209
 5113SOL     OW25672   2.088   7.616   1.602 -0.6049 -0.2702 -0.3297
 5113SOL    HW125673   2.045   7.650   1.519 -2.4897 -1.0976  0.2783
 5113SOL    HW225674   2.024   7.557   1.651  0.6657 -0.2276  1.4388
 5114SOL     OW25675   1.802   5.582   1.746  0.1643  0.0915  0.5148
 5114SOL    HW125676   1.776   5.498   1.700  1.4719  0.0162 -0.1148
 5114SOL    HW225677   1.891   5.571   1.789  0.2803  1.1008  0.5626
 5115SOL     OW25678   4.238   8.973   3.754 -0.0352 -0.2190  0.3714
 5115SOL    HW125679   4.139   8.981   3.742  0.0309 -0.3799 -0.3338
 5115SOL    HW225680   4.261   8.879   3.779 -0.2606  0.3244  2.7473
 5116SOL     OW25681   2.662   9.185   3.333  0.0337 -0.0695 -0.2937
 5116SOL    HW125682   2.707   9.172   3.422  0.6364  0.9628 -0.4392
 5116SOL    HW225683   2.691   9.112   3.271 -1.4556 -1.5914  0.7552
 5117SOL     OW25684   1.615   7.697   0.086  0.1370 -0.0482 -0.7138
 5117SOL    HW125685   1.713   7.698   0.106 -0.0692 -0.8969  0.3917
 5117SOL    HW225686   1.564   7.730   0.166 -0.4759  0.6364 -1.3707
 5118SOL     OW25687   1.767   9.867   2.816  0.2795 -0.4333  0.0878
 5118SOL    HW125688   1.805   9.921   2.891 -1.5733  1.9828 -0.6276
 5118SOL    HW225689   1.739   9.777   2.850 -0.3424  0.5424  2.2441
 5119SOL     OW25690   2.632   9.943   2.560 -0.2124 -0.1332 -0.1219
 5119SOL    HW125691   2.625   9.988   2.648 -0.0847  1.4787 -0.9258
 5119SOL    HW225692   2.728   9.943   2.530 -0.2771 -0.5391 -0.3321
 5120SOL     OW25693   2.668   2.176   1.121  0.2030  0.0529  0.9836
 5120SOL    HW125694   2.610   2.095   1.133  1.4044 -0.8492  0.7621
 5120SOL    HW225695   2.729   2.162   1.043  0.1144  1.3647  0.6619
 5121SOL     OW25696   1.749   7.625   0.442 -0.2534 -0.3722 -0.2954
 5121SOL    HW125697   1.823   7.674   0.488 -0.8341  2.3288 -2.1166
 5121SOL    HW225698   1.709   7.684   0.372 -4.1511 -1.7615  0.6680
 5122SOL     OW25699   2.239   6.995   0.064 -0.0806 -0.1297  0.1570
 5122SOL    HW125700   2.166   6.968   0.127 -1.6910  1.4728 -0.9436
 5122SOL    HW225701   2.223   7.089   0.034  2.6195  0.3360  0.0850
 5123SOL     OW25702   9.342   2.979   3.096 -0.9114  0.3501 -0.0366
 5123SOL    HW125703   9.283   2.898   3.089 -0.8361  0.3260 -0.4515
 5123SOL    HW225704   9.302   3.045   3.159 -1.1034  0.0969  0.1081
 5124SOL     OW25705   3.208   6.898   3.380  0.6842  0.3805  0.1690
 5124SOL    HW125706   3.181   6.871   3.288  0.3531  3.5212 -0.7127
 5124SOL    HW225707   3.145   6.857   3.446 -0.4912 -0.0274 -1.1707
 5125SOL     OW25708   3.109   9.939   2.047  0.1653  0.6167 -0.0786
 5125SOL    HW125709   3.130   9.885   1.965  1.8763 -0.5428  1.0849
 5125SOL    HW225710   3.160  10.025   2.044 -1.9305  1.8405 -1.5438
 5126SOL     OW25711   4.000   3.322   0.040 -0.4084  0.1918 -0.3129
 5126SOL    HW125712   3.922   3.261   0.024 -0.1468 -0.9994  2.7439
 5126SOL    HW225713   3.967   3.415   0.056 -1.2695 -0.3901  1.4150
 5127SOL     OW25714   2.970   7.815   1.649 -0.1429  0.3105 -0.2633
 5127SOL    HW125715   3.015   7.887   1.702 -1.5764  0.2681  1.0366
 5127SOL    HW225716   2.944   7.851   1.559  0.4070  1.0008 -0.1519
 5128SOL     OW25717   8.536   7.965   4.037 -0.0711 -0.0871  0.4860
 5128SOL    HW125718   8.516   8.019   4.119  1.4058  1.4215 -0.1223
 5128SOL    HW225719   8.455   7.960   3.980 -0.3313  1.1928  0.7329
 5129SOL     OW25720   2.256   4.954   1.000 -0.0235  0.0492 -0.5000
 5129SOL    HW125721   2.184   4.890   0.973 -0.0329  0.8668 -2.5455
 5129SOL    HW225722   2.343   4.924   0.961 -0.3336  2.1539 -2.9048
 5130SOL     OW25723   3.726   0.477   1.178 -0.2886  0.2041  0.4675
 5130SOL    HW125724   3.644   0.432   1.215 -0.9506  1.1444  0.1754
 5130SOL    HW225725   3.752   0.553   1.238  1.2316 -0.9668  1.3309
 5131SOL     OW25726   7.699   9.822   2.169 -0.3145  0.7007  0.6371
 5131SOL    HW125727   7.757   9.826   2.250 -2.5973  2.5743  2.2519
 5131SOL    HW225728   7.603   9.829   2.196 -1.3509 -1.7940 -1.9884
 5132SOL     OW25729   3.387   5.612   3.499 -0.6163  0.7563  1.0710
 5132SOL    HW125730   3.368   5.697   3.548  0.0163  0.8273  1.1879
 5132SOL    HW225731   3.485   5.596   3.494 -0.6732  0.6692 -0.0365
 5133SOL     OW25732   0.522   9.100   2.444  0.4170  0.6772  0.2303
 5133SOL    HW125733   0.436   9.087   2.494  0.6747  1.6376  0.9433
 5133SOL    HW225734   0.521   9.045   2.361 -1.0855  1.0465 -0.0064
 5134SOL     OW25735   4.903   7.211   2.208 -0.2745 -0.0401 -0.7512
 5134SOL    HW125736   4.867   7.249   2.123  0.5723 -0.0688 -1.1211
 5134SOL    HW225737   4.946   7.284   2.261  0.2769 -0.2547 -0.9046
 5135SOL     OW25738   3.684   0.380   0.327 -0.3048  0.7927  0.7393
 5135SOL    HW125739   3.605   0.360   0.386 -0.8507 -1.4201 -0.6562
 5135SOL    HW225740   3.768   0.379   0.382 -0.9505  0.3273  1.7410
 5136SOL     OW25741   3.663   1.734   2.612  0.1463  0.1162  0.3543
 5136SOL    HW125742   3.708   1.781   2.536 -0.3157  0.4053  0.2586
 5136SOL    HW225743   3.715   1.653   2.637  0.2963  0.0224 -0.2746
 5137SOL     OW25744   8.691   1.824   3.108 -0.2512 -0.4088  0.2297
 5137SOL    HW125745   8.633   1.758   3.060 -0.9183  2.1805 -2.6785
 5137SOL    HW225746   8.637   1.870   3.179 -1.0898  0.2830 -0.8457
 5138SOL     OW25747   1.355   3.196   0.831 -0.1125 -0.4216  0.5972
 5138SOL    HW125748   1.259   3.220   0.848 -0.4937 -1.7821  0.4990
 5138SOL    HW225749   1.363   3.152   0.742  0.4400 -1.1684  1.0046
 5139SOL     OW25750   7.077   8.736   3.305 -0.2897  0.2423  0.1157
 5139SOL    HW125751   7.082   8.833   3.327  0.9396  0.2054  0.0106
 5139SOL    HW225752   7.132   8.684   3.371 -0.6566 -0.3571 -0.0401
 5140SOL     OW25753   4.358   2.725   1.760 -0.2615 -0.0200  0.5283
 5140SOL    HW125754   4.282   2.789   1.758 -0.1951  0.0259 -0.7995
 5140SOL    HW225755   4.443   2.775   1.781 -0.3101  0.2149  0.1625
 5141SOL     OW25756   1.825   2.384   0.645 -0.1498  0.3651  0.0963
 5141SOL    HW125757   1.789   2.476   0.662  0.2187  0.6176 -0.4904
 5141SOL    HW225758   1.749   2.323   0.619 -0.3317  0.6133  0.0435
 5142SOL     OW25759   7.439   1.474   2.997 -0.3895 -0.0248  0.0492
 5142SOL    HW125760   7.439   1.446   2.901 -0.1004  0.1135  0.0064
 5142SOL    HW225761   7.381   1.554   3.009  0.9205  1.0139 -0.3354
 5143SOL     OW25762   3.740   9.942   2.454 -0.0775  0.6746 -0.1929
 5143SOL    HW125763   3.714   9.853   2.417  1.9101  0.4089 -1.0336
 5143SOL    HW225764   3.840   9.946   2.462 -0.0954  3.1037 -0.8970
 5144SOL     OW25765   7.337   1.976   3.447 -0.0687  0.5638  0.0650
 5144SOL    HW125766   7.338   1.878   3.467  1.2468  0.2175 -1.5927
 5144SOL    HW225767   7.375   2.025   3.525  0.8619 -0.4038  0.2504
 5145SOL     OW25768   2.233   3.995   1.905  0.1005  0.2143  0.2313
 5145SOL    HW125769   2.297   3.920   1.922  0.9932  0.6122 -1.3219
 5145SOL    HW225770   2.281   4.082   1.910 -0.4957  0.5678 -0.0802
 5146SOL     OW25771   8.757   3.964   0.555  0.3598  0.0726 -0.0981
 5146SOL    HW125772   8.713   3.908   0.485  0.0255  1.0556 -0.6840
 5146SOL    HW225773   8.846   3.996   0.521  0.9002 -0.7244  0.5343
 5147SOL     OW25774   3.995   8.345   2.074  0.1528  0.0434  0.0279
 5147SOL    HW125775   4.040   8.367   2.161  1.1986 -2.8290  0.2579
 5147SOL    HW225776   4.057   8.293   2.016 -1.1046  0.5331 -1.8050
 5148SOL     OW25777   3.264   4.525   3.587 -0.5636  0.4890  0.6360
 5148SOL    HW125778   3.345   4.577   3.613 -0.1391 -0.6973  1.7027
 5148SOL    HW225779   3.202   4.519   3.665 -1.5241  1.0565 -0.0582
 5149SOL     OW25780   4.778   7.805   2.157  0.4142 -0.3983 -0.5289
 5149SOL    HW125781   4.798   7.730   2.220  3.0375  1.0078  0.3740
 5149SOL    HW225782   4.703   7.860   2.192  0.4852 -0.8325  0.3036
 5150SOL     OW25783   7.640   1.135   3.175 -0.1804 -0.1739 -0.1515
 5150SOL    HW125784   7.557   1.128   3.119  0.2125  2.2354 -1.1148
 5150SOL    HW225785   7.706   1.066   3.147  0.3016  1.4309 -3.2490
 5151SOL     OW25786   0.583   1.211   0.905  0.4154  0.1346 -1.0117
 5151SOL    HW125787   0.541   1.158   0.979  0.0563 -1.2297 -2.1783
 5151SOL    HW225788   0.682   1.200   0.909  0.4815  0.9647 -0.0702
 5152SOL     OW25789   8.705   0.982   0.135 -0.4495 -0.2050 -0.9676
 5152SOL    HW125790   8.627   1.042   0.116 -0.9392 -0.2083  0.9281
 5152SOL    HW225791   8.790   1.035   0.130 -0.7849  0.3777 -0.4360
 5153SOL     OW25792   2.936   2.355   0.733  0.0645 -0.2308 -0.6650
 5153SOL    HW125793   2.845   2.387   0.757  0.7579  2.4758 -1.4466
 5153SOL    HW225794   2.940   2.334   0.636  0.7510  1.4969 -1.0307
 5154SOL     OW25795   6.009   8.746   3.166 -0.2545 -0.4355 -0.4842
 5154SOL    HW125796   6.102   8.752   3.200 -0.2167 -0.7482 -0.5326
 5154SOL    HW225797   5.974   8.653   3.179 -0.5062 -0.3596 -0.5998
 5155SOL     OW25798   6.478   9.469   3.007  0.0332 -0.6315  0.1357
 5155SOL    HW125799   6.573   9.457   3.033  0.0995 -1.4428 -0.4533
 5155SOL    HW225800   6.472   9.489   2.909 -0.2713  1.4629  0.5570
 5156SOL     OW25801   4.187   9.529   3.190  0.0418  0.2830  0.0538
 5156SOL    HW125802   4.193   9.485   3.100 -2.7469 -0.8745  0.4063
 5156SOL    HW225803   4.119   9.483   3.246  0.9422  1.7070  2.3889
 5157SOL     OW25804   0.659   9.074   3.890 -0.1548  0.2728  0.7408
 5157SOL    HW125805   0.747   9.097   3.850  0.2785  1.7350  2.4972
 5157SOL    HW225806   0.611   9.010   3.830  1.6516  0.2585 -0.7229
 5158SOL     OW25807   3.591   0.311   3.844 -0.1286  0.1091 -0.3616
 5158SOL    HW125808   3.636   0.355   3.921  0.6923  0.5712 -1.0865
 5158SOL    HW225809   3.511   0.260   3.876  0.3882  0.0219  0.8306
 5159SOL     OW25810   3.098   6.682   0.653  0.6098 -0.0756  0.6120
 5159SOL    HW125811   3.058   6.606   0.704 -0.1420  0.6815  1.1735
 5159SOL    HW225812   3.134   6.649   0.566 -1.9792 -0.6458 -0.2753
 5160SOL     OW25813   2.306   4.119   2.228  0.6096  0.3245  0.4851
 5160SOL    HW125814   2.300   4.129   2.129  0.4514 -1.4143  0.3088
 5160SOL    HW225815   2.238   4.179   2.271  0.4513  0.8393 -0.4547
 5161SOL     OW25816   2.392   2.618   3.464  0.8455  0.1641  0.1540
 5161SOL    HW125817   2.416   2.661   3.376 -0.0114  0.7457  0.1942
 5161SOL    HW225818   2.361   2.525   3.448 -0.6514  0.7304 -0.3252
 5162SOL     OW25819   3.322   7.333   3.165 -0.1386 -0.5720  0.2636
 5162SOL    HW125820   3.413   7.290   3.170  1.0789  1.8287 -0.4923
 5162SOL    HW225821   3.283   7.315   3.074  0.6094  0.3706 -0.2512
 5163SOL     OW25822   7.386   0.355   3.369  0.3909 -0.4921 -0.2614
 5163SOL    HW125823   7.472   0.308   3.348  1.6903  2.0615 -0.8708
 5163SOL    HW225824   7.371   0.429   3.304 -1.2321  0.4216  1.0907
 5164SOL     OW25825   7.377   4.030   0.603 -0.4761  0.7395  0.5734
 5164SOL    HW125826   7.405   3.938   0.626  0.7204  1.3922  1.7658
 5164SOL    HW225827   7.283   4.029   0.569 -0.3415 -0.9448  0.2371
 5165SOL     OW25828   9.907   7.743   3.728  0.0906  0.0976  0.4186
 5165SOL    HW125829   9.977   7.771   3.662 -1.0787 -0.0241 -0.9008
 5165SOL    HW225830   9.826   7.801   3.717 -1.0180 -1.4758  0.0780
 5166SOL     OW25831   0.604   0.958   1.446 -0.1156  0.4677 -0.3183
 5166SOL    HW125832   0.625   0.961   1.544 -2.9393  0.9061  0.3238
 5166SOL    HW225833   0.594   1.052   1.412  0.3934  0.3020 -0.9285
 5167SOL     OW25834   0.190   8.540   2.690 -0.9696  0.9122  0.8540
 5167SOL    HW125835   0.289   8.552   2.681 -0.6532 -0.4292  2.2986
 5167SOL    HW225836   0.168   8.518   2.785 -2.5224 -0.0015  0.2956
 5168SOL     OW25837   0.605   3.110   0.456 -0.6986  0.4448  1.1037
 5168SOL    HW125838   0.553   3.126   0.541 -1.6578 -1.1179  0.8391
 5168SOL    HW225839   0.583   3.019   0.421  1.8460 -0.0262  0.6861
 5169SOL     OW25840   3.647   8.854   3.475  0.3919  0.0982  0.3932
 5169SOL    HW125841   3.620   8.887   3.565 -0.0375  0.3203  0.1866
 5169SOL    HW225842   3.710   8.777   3.485 -2.2191 -2.0585  0.9256
 5170SOL     OW25843   9.042   3.785   1.793  0.0461 -0.7017  0.1435
 5170SOL    HW125844   9.109   3.834   1.737  0.0160 -1.4292 -0.5335
 5170SOL    HW225845   8.960   3.768   1.738  0.3929 -2.2946  0.0968
 5171SOL     OW25846   1.847   8.293   1.559 -0.0607  0.2105  0.5067
 5171SOL    HW125847   1.770   8.262   1.616 -0.3632  0.6667  0.3471
 5171SOL    HW225848   1.933   8.264   1.601 -0.3556 -1.4811  0.0059
 5172SOL     OW25849   9.212   2.006   1.494  0.3338  0.1764  0.0519
 5172SOL    HW125850   9.242   1.918   1.459 -1.5028  0.7595 -3.1885
 5172SOL    HW225851   9.192   2.067   1.417  0.9052  3.2029  2.2154
 5173SOL     OW25852   0.128   0.286   3.703 -0.3788  0.3829 -1.0219
 5173SOL    HW125853   0.036   0.257   3.727 -0.5863  0.1825 -2.0262
 5173SOL    HW225854   0.194   0.217   3.732 -0.5548  0.4484 -0.4558
 5174SOL     OW25855   7.822   9.430   1.408 -0.0961  0.3834 -0.5716
 5174SOL    HW125856   7.877   9.363   1.357  0.8595  0.3899  0.4345
 5174SOL    HW225857   7.868   9.519   1.407  0.5936  0.0669  1.3999
 5175SOL     OW25858   1.778   5.828   3.456  0.5321  0.2449 -0.3909
 5175SOL    HW125859   1.765   5.737   3.496  1.9551  1.2045  2.4111
 5175SOL    HW225860   1.691   5.860   3.418 -0.5910 -1.2647  0.8107
 5176SOL     OW25861   9.090   3.581   0.819  0.4999  0.6128 -0.1597
 5176SOL    HW125862   9.074   3.655   0.885 -0.7170  1.8914 -1.8538
 5176SOL    HW225863   9.094   3.493   0.867 -1.8284  1.3598  1.4566
 5177SOL     OW25864   2.429   4.418   3.858 -0.1758  0.0367  0.2795
 5177SOL    HW125865   2.439   4.321   3.880  1.6865 -0.0178 -0.7221
 5177SOL    HW225866   2.487   4.441   3.780 -0.9667  1.8640  0.1939
 5178SOL     OW25867   3.402   4.617   1.953 -0.4329  0.0424 -0.3020
 5178SOL    HW125868   3.483   4.672   1.976 -1.1367 -0.0681  2.6725
 5178SOL    HW225869   3.428   4.545   1.889  1.5950  0.6710 -0.2309
 5179SOL     OW25870   4.443   7.247   2.238 -0.3164  0.3877  0.0107
 5179SOL    HW125871   4.455   7.317   2.168 -1.5887  0.1960 -0.4227
 5179SOL    HW225872   4.350   7.254   2.276  0.1919  0.1660  1.3179
 5180SOL     OW25873   6.753   8.274   2.726 -0.2426 -0.2350  0.4233
 5180SOL    HW125874   6.656   8.248   2.724 -0.2389 -0.5430  2.6062
 5180SOL    HW225875   6.808   8.192   2.745  0.4115  0.0466 -0.2352
 5181SOL     OW25876   3.348   4.307   1.103 -0.1276  0.2278 -0.6098
 5181SOL    HW125877   3.253   4.280   1.121 -0.0565  0.6275  0.4079
 5181SOL    HW225878   3.388   4.245   1.037 -0.4404 -1.2528  0.5657
 5182SOL     OW25879   3.638   0.362   3.579  0.5626 -0.2575  0.1950
 5182SOL    HW125880   3.679   0.279   3.541  0.7470  0.6044 -1.5655
 5182SOL    HW225881   3.631   0.354   3.678  2.2455 -1.6249  0.2207
 5183SOL     OW25882   2.457   5.784   2.384 -0.3441  0.0291 -0.4865
 5183SOL    HW125883   2.431   5.875   2.353 -0.5392 -0.0369 -0.5191
 5183SOL    HW225884   2.556   5.781   2.401 -0.4737  0.4742  0.3136
 5184SOL     OW25885   8.983   3.052   0.292 -0.5517 -0.6059 -0.0259
 5184SOL    HW125886   9.061   3.042   0.354 -0.0727 -1.0861 -0.7014
 5184SOL    HW225887   9.014   3.085   0.203 -0.9870 -1.7172 -0.6008
 5185SOL     OW25888   4.269   2.438   2.156  0.2856 -0.7259  0.1031
 5185SOL    HW125889   4.315   2.380   2.088 -1.5430  0.9971 -2.7066
 5185SOL    HW225890   4.289   2.534   2.137 -0.4133 -0.1944  1.9284
 5186SOL     OW25891   2.544   9.407   0.813 -0.0194  0.0128  0.2851
 5186SOL    HW125892   2.454   9.370   0.838  0.4019 -1.2880 -0.0443
 5186SOL    HW225893   2.536   9.461   0.730 -0.5131 -0.0398  0.2941
 5187SOL     OW25894   1.833   1.433   0.342 -0.0561  0.0955  0.4636
 5187SOL    HW125895   1.742   1.397   0.327  0.4325 -1.3058  0.8078
 5187SOL    HW225896   1.840   1.524   0.301 -1.2171 -0.3043 -0.6436
 5188SOL     OW25897   1.974   6.845   2.367 -0.4216  0.2240 -0.6605
 5188SOL    HW125898   2.065   6.813   2.340 -1.0900 -1.6361 -0.7302
 5188SOL    HW225899   1.983   6.920   2.433  1.1658  0.9586 -1.6862
 5189SOL     OW25900   9.364   1.197   2.022  0.4388  0.3014  0.1123
 5189SOL    HW125901   9.419   1.227   2.100  1.6071  1.0386 -0.9677
 5189SOL    HW225902   9.278   1.249   2.020  1.1812  1.5600 -0.0862
 5190SOL     OW25903   8.678   8.498   3.067 -0.0319 -1.2789 -0.2533
 5190SOL    HW125904   8.610   8.558   3.111  1.4468 -0.8142  1.4841
 5190SOL    HW225905   8.690   8.525   2.972  0.3911  1.0436  0.4301
 5191SOL     OW25906   9.350   8.097   3.675 -0.2891 -0.5953  0.1263
 5191SOL    HW125907   9.308   8.069   3.589  1.6181 -0.0710 -1.0162
 5191SOL    HW225908   9.325   8.032   3.746  0.1015 -2.4845 -1.3980
 5192SOL     OW25909   2.687   8.510   3.486  0.3063  0.1752  0.6962
 5192SOL    HW125910   2.749   8.443   3.528 -0.2205 -0.6987  0.0958
 5192SOL    HW225911   2.596   8.500   3.527  0.2054  0.4823  0.5481
 5193SOL     OW25912   4.246   2.074   2.307 -0.1973  0.4555  0.7160
 5193SOL    HW125913   4.330   2.023   2.288  1.5858  3.1998  0.9811
 5193SOL    HW225914   4.179   2.056   2.235  1.4358 -0.0668 -0.7018
 5194SOL     OW25915   8.501   8.144   0.201 -0.0697  0.4804  0.0379
 5194SOL    HW125916   8.563   8.157   0.278  0.6703  2.8151 -0.8909
 5194SOL    HW225917   8.505   8.225   0.142 -0.6149 -1.2659 -2.4398
 5195SOL     OW25918   3.063   4.807   0.390  0.1635  0.0120 -0.5081
 5195SOL    HW125919   3.040   4.903   0.409 -2.2253 -0.4984 -0.7620
 5195SOL    HW225920   2.999   4.747   0.437  0.4491 -1.4357 -1.9162
 5196SOL     OW25921   2.517   9.419   3.368 -0.2664  0.2620  0.3306
 5196SOL    HW125922   2.566   9.334   3.385  0.4926  1.0351  2.2994
 5196SOL    HW225923   2.580   9.486   3.328  0.2750  1.1478  2.5507
 5197SOL     OW25924   1.251   2.142   2.550 -0.7685  0.3569  0.1881
 5197SOL    HW125925   1.156   2.139   2.579 -0.8398 -0.1554 -0.0756
 5197SOL    HW225926   1.279   2.050   2.520 -0.3492  0.6174 -0.2239
 5198SOL     OW25927   9.487   8.959   1.348 -0.4142  0.0210 -0.2485
 5198SOL    HW125928   9.439   8.962   1.436  1.5243  0.9177  0.8128
 5198SOL    HW225929   9.434   9.010   1.280 -1.6588 -0.2076  0.5128
 5199SOL     OW25930   8.010   8.321   0.016 -0.6062 -0.1943 -0.4229
 5199SOL    HW125931   8.028   8.406   0.066  3.2421 -0.5535 -1.0038
 5199SOL    HW225932   7.950   8.262   0.071  1.1151  0.6274  2.4745
 5200SOL     OW25933   2.502   5.233   2.148 -0.5813  0.1809  0.1252
 5200SOL    HW125934   2.568   5.253   2.221 -1.9398  0.1033  1.3827
 5200SOL    HW225935   2.547   5.245   2.059  1.4750 -1.0032  0.9580
 5201SOL     OW25936   4.356   9.305   1.444 -0.3834 -0.1661 -0.0641
 5201SOL    HW125937   4.417   9.369   1.490 -1.4076  0.6357  0.1980
 5201SOL    HW225938   4.289   9.356   1.389 -0.3334 -1.0533 -0.9669
 5202SOL     OW25939   0.223   1.407   1.800 -0.5980 -1.0550  0.1113
 5202SOL    HW125940   0.298   1.364   1.850 -0.8112 -2.7076 -0.9636
 5202SOL    HW225941   0.175   1.471   1.860  1.3065 -0.3928  0.9736
 5203SOL     OW25942   4.272   8.148   3.479  0.1306 -0.1946  0.5104
 5203SOL    HW125943   4.269   8.063   3.531  0.5116 -0.2350  0.4652
 5203SOL    HW225944   4.339   8.140   3.405 -1.3795 -0.6273 -0.8355
 5204SOL     OW25945   2.285   3.718   2.662  0.2108 -0.3178  0.6070
 5204SOL    HW125946   2.206   3.727   2.602  0.4811  0.7871  0.3929
 5204SOL    HW225947   2.269   3.768   2.747  1.3283  1.4040 -0.1470
 5205SOL     OW25948   3.193   3.008   2.850 -0.1552  0.1004  0.1011
 5205SOL    HW125949   3.239   2.937   2.797 -0.5518 -0.4795  0.5289
 5205SOL    HW225950   3.157   3.079   2.789 -0.9553 -0.7599 -0.4268
 5206SOL     OW25951   8.675   8.970   3.225  0.3685  0.0832 -0.3942
 5206SOL    HW125952   8.588   8.933   3.193  1.1658 -1.3470 -0.9648
 5206SOL    HW225953   8.750   8.913   3.191  1.5708  1.5781 -0.3311
 5207SOL     OW25954   8.432   3.123   0.806 -0.1954 -0.5003 -0.3870
 5207SOL    HW125955   8.512   3.079   0.764  1.0940  0.2010  1.2288
 5207SOL    HW225956   8.359   3.056   0.816  0.7534 -1.5731 -0.4858
 5208SOL     OW25957   1.301   2.218   3.790 -0.1865 -0.2161 -0.1153
 5208SOL    HW125958   1.378   2.175   3.744 -0.3291 -0.8110  0.1916
 5208SOL    HW225959   1.312   2.318   3.788  0.8002 -0.3036  0.2744
 5209SOL     OW25960   3.897   3.639   1.565 -0.8023 -0.6985 -0.2505
 5209SOL    HW125961   3.812   3.616   1.614 -0.9379 -1.3210 -0.7642
 5209SOL    HW225962   3.875   3.698   1.487 -0.5517  0.5266  0.5929
 5210SOL     OW25963   0.321   9.379   3.951 -0.1576 -0.1250 -0.2088
 5210SOL    HW125964   0.270   9.352   4.033 -0.3566 -0.9444 -0.5946
 5210SOL    HW225965   0.412   9.337   3.954 -0.9219 -1.9341 -1.4319
 5211SOL     OW25966   1.516   0.041   0.901 -0.1191  0.2061  0.0723
 5211SOL    HW125967   1.441   0.100   0.870 -0.7411 -0.6727 -0.0950
 5211SOL    HW225968   1.548  -0.016   0.826  0.8674  0.7186  0.0877
 5212SOL     OW25969   7.585   1.079   2.866 -0.0353 -0.2907 -0.0083
 5212SOL    HW125970   7.488   1.056   2.857  0.1776 -1.5261  0.7215
 5212SOL    HW225971   7.640   1.004   2.832  0.6721  0.1087  0.2536
 5213SOL     OW25972   2.579   4.319   0.623 -0.2060 -0.3325  0.0856
 5213SOL    HW125973   2.556   4.228   0.659  0.6310 -1.4568 -2.0862
 5213SOL    HW225974   2.655   4.357   0.676 -1.4467 -0.2911  1.8717
 5214SOL     OW25975   3.536   6.584   2.881 -0.2448 -0.0969  0.1081
 5214SOL    HW125976   3.636   6.586   2.882 -0.2620  1.6317 -0.3824
 5214SOL    HW225977   3.501   6.641   2.956 -0.8705 -0.1909 -0.1079
 5215SOL     OW25978   2.131   9.552   1.399  0.3846  0.5543  0.4860
 5215SOL    HW125979   2.058   9.595   1.345 -0.2765 -1.1721 -0.0149
 5215SOL    HW225980   2.216   9.556   1.347 -0.0114 -0.1271 -0.2220
 5216SOL     OW25981   8.796   2.681   0.035  0.4569 -0.3613  0.1037
 5216SOL    HW125982   8.771   2.676  -0.062 -0.3878  3.0252  0.0816
 5216SOL    HW225983   8.892   2.706   0.044  0.4760 -0.4501  0.1413
 5217SOL     OW25984   3.579   3.022   2.060  0.5654 -0.3788  0.1099
 5217SOL    HW125985   3.646   3.032   1.986  0.7834  0.2049  0.3833
 5217SOL    HW225986   3.488   3.046   2.026  0.8793  1.2439  0.3983
 5218SOL     OW25987   4.271   9.905   3.778  0.0612 -0.2014  0.3277
 5218SOL    HW125988   4.211   9.984   3.780  0.8022  0.3887 -0.3836
 5218SOL    HW225989   4.283   9.868   3.870 -1.0276 -0.0548  0.5273
 5219SOL     OW25990   9.242   3.710   0.634 -0.3080 -0.1304 -0.8695
 5219SOL    HW125991   9.262   3.805   0.659  0.9081 -0.1430 -1.7513
 5219SOL    HW225992   9.171   3.674   0.695 -0.4022  1.1702 -0.1855
 5220SOL     OW25993   4.870   9.938   3.221 -0.1701 -0.2618 -0.3936
 5220SOL    HW125994   4.844   9.988   3.139  2.0026 -0.7001 -1.3823
 5220SOL    HW225995   4.959   9.895   3.207  0.6635  0.3909  2.4947
 5221SOL     OW25996   3.111   7.149   3.497 -0.3321  0.1626 -0.3229
 5221SOL    HW125997   3.160   7.068   3.463  0.1008 -0.1180  0.9681
 5221SOL    HW225998   3.098   7.214   3.421  2.6375  0.5447 -0.5474
 5222SOL     OW25999   4.040   4.456   1.363  0.1429  0.2884 -0.1974
 5222SOL    HW126000   4.095   4.378   1.336 -0.3633 -0.5737  1.1954
 5222SOL    HW226001   3.945   4.428   1.375  0.2226  0.7521  1.7853
 5223SOL     OW26002   0.756   9.602   3.405 -0.3787 -0.1826  0.1460
 5223SOL    HW126003   0.789   9.601   3.311  2.0000 -3.3538  0.9100
 5223SOL    HW226004   0.719   9.512   3.428 -0.4160  0.3727  2.3813
 5224SOL     OW26005   8.924   9.914   1.779 -0.2030  0.3072 -0.3894
 5224SOL    HW126006   8.977   9.907   1.695 -1.9818  1.0953 -1.5884
 5224SOL    HW226007   8.911   9.823   1.818  0.9000 -0.0255 -0.7866
 5225SOL     OW26008   2.223   6.918   0.926  0.4495  0.3866 -0.3926
 5225SOL    HW126009   2.155   6.979   0.888  1.1538  0.1282 -2.1092
 5225SOL    HW226010   2.298   6.905   0.860  1.9040  0.2598  1.2333
 5226SOL     OW26011   3.047   3.958   0.050 -0.1022  0.2236 -0.1355
 5226SOL    HW126012   3.109   3.913   0.115 -0.7096  1.5800  1.4115
 5226SOL    HW226013   2.985   4.019   0.099 -1.0058  0.7978 -1.9358
 5227SOL     OW26014   2.041   1.690   1.457 -0.0371  0.0016 -0.1600
 5227SOL    HW126015   1.975   1.762   1.480  0.6139  0.6471 -0.2955
 5227SOL    HW226016   2.020   1.653   1.367  0.9859  1.5949 -1.0663
 5228SOL     OW26017   7.132   9.235   0.394 -0.1134  0.0637 -0.3134
 5228SOL    HW126018   7.141   9.137   0.376 -0.3578 -0.2467  1.1686
 5228SOL    HW226019   7.221   9.279   0.381  0.2211 -0.5259 -0.0622
 5229SOL     OW26020   4.768   3.091   2.950  0.1694  0.1046 -0.5740
 5229SOL    HW126021   4.680   3.097   2.998  0.4939  0.7212 -0.0539
 5229SOL    HW226022   4.830   3.032   3.000 -0.1251 -0.7565 -1.2195
 5230SOL     OW26023   4.229   2.767   2.830  0.0063  0.3962  0.1315
 5230SOL    HW126024   4.226   2.842   2.765  1.2899  0.3794  0.0299
 5230SOL    HW226025   4.231   2.680   2.781  0.1436  0.3553  0.2069
 5231SOL     OW26026   2.609   6.103   0.131 -0.2841  0.4707  0.4443
 5231SOL    HW126027   2.645   6.153   0.052 -0.0537 -0.1076  0.1834
 5231SOL    HW226028   2.685   6.068   0.186 -0.4430  0.1969  0.4929
 5232SOL     OW26029   3.017   1.551   3.757 -0.7079 -0.6830 -0.2919
 5232SOL    HW126030   3.041   1.605   3.838  0.1648  3.1328 -2.9433
 5232SOL    HW226031   3.094   1.493   3.731 -0.2363 -0.3644  0.3889
 5233SOL     OW26032   5.310   8.865   1.978  0.5207 -0.0655  0.0745
 5233SOL    HW126033   5.301   8.888   2.075  1.7414  0.0045  0.1815
 5233SOL    HW226034   5.244   8.919   1.925  0.4364  0.5334  0.7727
 5234SOL     OW26035   1.300   7.104   3.275 -0.0014  0.2855  0.2026
 5234SOL    HW126036   1.318   7.134   3.182 -1.0597 -1.8199 -0.7244
 5234SOL    HW226037   1.209   7.135   3.304 -0.6997 -1.1546 -0.4030
 5235SOL     OW26038   9.265   9.387   3.963 -0.5340  0.1052 -0.0969
 5235SOL    HW126039   9.233   9.478   3.986  0.4515  0.3885  0.1661
 5235SOL    HW226040   9.343   9.363   4.021 -2.2477 -1.8524  1.4646
 5236SOL     OW26041   2.612   9.190   3.005 -0.1582  0.0878 -0.4049
 5236SOL    HW126042   2.529   9.235   3.040  0.3993  1.6759 -1.1054
 5236SOL    HW226043   2.637   9.116   3.067 -1.1467  0.6725  0.7318
 5237SOL     OW26044   2.781   3.593   2.767  0.2875  0.2843  0.0957
 5237SOL    HW126045   2.708   3.527   2.783  0.5187 -0.3389 -1.3239
 5237SOL    HW226046   2.862   3.566   2.819  0.0188  0.0786  0.4087
 5238SOL     OW26047   0.228   9.492   3.334 -0.6610 -0.7626 -0.0277
 5238SOL    HW126048   0.247   9.549   3.255 -0.2111 -0.4438  0.3079
 5238SOL    HW226049   0.189   9.548   3.407 -1.3590 -1.1130 -0.1316
 5239SOL     OW26050   4.504   2.828   1.011  0.3331  0.1742 -0.4086
 5239SOL    HW126051   4.471   2.742   1.049  1.6391  0.3987  1.2924
 5239SOL    HW226052   4.539   2.813   0.918 -1.3473 -0.7036 -0.9072
 5240SOL     OW26053   8.709   1.727   2.304  0.3725 -0.5602  0.7699
 5240SOL    HW126054   8.773   1.698   2.375  0.5302 -1.9491  0.0815
 5240SOL    HW226055   8.616   1.705   2.333  0.3601 -0.2933  0.9354
 5241SOL     OW26056   8.025   0.631   1.807  0.4925 -0.3191 -0.0655
 5241SOL    HW126057   8.055   0.542   1.772  1.0086 -1.0366  2.1422
 5241SOL    HW226058   7.962   0.617   1.884  0.1162  1.2212 -0.0857
 5242SOL     OW26059   1.843   2.801   3.355  0.0508 -0.5758 -0.0795
 5242SOL    HW126060   1.937   2.799   3.389 -0.2926 -0.0416  0.9477
 5242SOL    HW226061   1.834   2.874   3.287  0.0608  0.2869  0.8321
 5243SOL     OW26062   8.003   2.861   0.671  0.0344  0.0439  0.2535
 5243SOL    HW126063   7.940   2.872   0.594  0.6499  1.4390 -0.0548
 5243SOL    HW226064   7.960   2.895   0.754  0.5377  1.4345 -0.0404
 5244SOL     OW26065   0.280   0.087   1.044  0.4747 -0.1618 -0.1121
 5244SOL    HW126066   0.357   0.147   1.021  0.7979 -1.5168 -2.7035
 5244SOL    HW226067   0.315   0.001   1.081  0.1122 -0.0377  0.5339
 5245SOL     OW26068   8.145   8.849   1.125  0.2320  0.0817 -0.1336
 5245SOL    HW126069   8.096   8.904   1.057  0.2851  0.7763  0.3801
 5245SOL    HW226070   8.234   8.891   1.145  0.9363 -1.0359 -0.8768
 5246SOL     OW26071   8.546   5.418   0.848 -0.1785 -0.0791  0.8094
 5246SOL    HW126072   8.527   5.389   0.754 -0.6958 -0.0403  0.8981
 5246SOL    HW226073   8.486   5.494   0.872  0.6101  0.5296  0.8549
 5247SOL     OW26074   1.795   4.443   0.698 -0.1987 -0.2056 -0.1783
 5247SOL    HW126075   1.790   4.397   0.609  2.8678 -0.4687 -0.2673
 5247SOL    HW226076   1.821   4.538   0.685  1.2323 -0.4897  0.4497
 5248SOL     OW26077   3.030   7.277   1.153  0.2386  0.2851  0.6082
 5248SOL    HW126078   3.045   7.259   1.055  1.0993  0.8398  0.6282
 5248SOL    HW226079   2.986   7.198   1.195  0.0239 -0.0306 -0.1974
 5249SOL     OW26080   0.572   2.102   0.862  0.2693  0.6877  0.8126
 5249SOL    HW126081   0.646   2.073   0.802 -1.0016 -2.0003  0.4425
 5249SOL    HW226082   0.604   2.100   0.957  1.0401  0.7381  0.5576
 5250SOL     OW26083   9.205   0.893   0.598 -0.5267  0.1253 -0.1639
 5250SOL    HW126084   9.200   0.836   0.517  0.7010  0.9705 -0.8483
 5250SOL    HW226085   9.210   0.989   0.571  1.7102  0.3296  0.8187
 5251SOL     OW26086   1.406   8.125   0.371  0.1323 -0.3417  0.3369
 5251SOL    HW126087   1.506   8.121   0.373  0.0790 -1.3791  2.0885
 5251SOL    HW226088   1.369   8.081   0.454 -1.7140  1.7243  0.6631
 5252SOL     OW26089   2.328   6.311   3.295  0.4174 -0.7587 -0.2895
 5252SOL    HW126090   2.292   6.287   3.205 -0.3872 -0.7168  0.0169
 5252SOL    HW226091   2.421   6.345   3.285  0.2418 -0.5043 -1.1371
 5253SOL     OW26092   7.228   9.753   0.854  0.4315  0.9301  0.2159
 5253SOL    HW126093   7.132   9.738   0.831  0.4793 -0.0953  0.6466
 5253SOL    HW226094   7.282   9.758   0.769 -0.0403  1.8201 -0.0332
 5254SOL     OW26095   9.980   3.744   1.491 -0.1988  0.1424 -0.1049
 5254SOL    HW126096   9.951   3.702   1.577 -0.4003  1.0896  0.2971
 5254SOL    HW226097  10.078   3.729   1.479 -0.0623  0.4532  0.5584
 5255SOL     OW26098   6.448   9.930   2.714 -0.0775  0.1308 -0.4116
 5255SOL    HW126099   6.458   9.998   2.641  1.5568 -0.9910 -1.2428
 5255SOL    HW226100   6.351   9.906   2.724 -0.5158  1.5770 -1.0013
 5256SOL     OW26101   6.180   9.842   2.824  0.1125 -0.8066  0.4143
 5256SOL    HW126102   6.086   9.872   2.810 -0.1235 -1.3599  0.8032
 5256SOL    HW226103   6.209   9.864   2.917 -0.6351 -3.2899  1.2610
 5257SOL     OW26104   1.666   8.291   2.476  0.1105 -0.1122  0.3929
 5257SOL    HW126105   1.587   8.333   2.433  0.6254 -0.5723 -1.0661
 5257SOL    HW226106   1.746   8.351   2.466  1.0360 -1.6865 -2.4070
 5258SOL     OW26107   2.759   7.607   0.281  0.1030  0.4374 -0.3280
 5258SOL    HW126108   2.842   7.553   0.299 -0.4285 -0.1354  0.4486
 5258SOL    HW226109   2.762   7.642   0.187  0.8717 -0.1959 -0.5504
 5259SOL     OW26110   2.870   6.556   1.014 -0.6080  0.4694 -0.3055
 5259SOL    HW126111   2.837   6.562   1.108 -2.3000 -0.6490 -0.8219
 5259SOL    HW226112   2.916   6.642   0.990  0.4331  0.5075  1.7441
 5260SOL     OW26113   3.949   2.869   0.630 -0.4088 -0.1438  0.5099
 5260SOL    HW126114   3.932   2.777   0.664  3.1672 -1.1466 -0.2406
 5260SOL    HW226115   4.046   2.892   0.642 -0.7854  2.6435 -1.3841
 5261SOL     OW26116   9.035   1.890   0.139  0.7939 -0.1106 -0.1489
 5261SOL    HW126117   9.128   1.873   0.105  1.3305  0.6359  0.9185
 5261SOL    HW226118   9.025   1.848   0.229 -0.7283 -2.3691 -1.3053
 5262SOL     OW26119   3.894   8.129   2.627 -0.3258 -0.0719  0.7145
 5262SOL    HW126120   3.835   8.055   2.661 -1.4982  0.6780  0.3531
 5262SOL    HW226121   3.848   8.217   2.640  0.1208  0.4157 -0.8457
 5263SOL     OW26122   9.098   0.542   2.689  0.0343  0.0769  0.4830
 5263SOL    HW126123   9.099   0.502   2.781 -0.9875 -1.4975 -0.1682
 5263SOL    HW226124   9.131   0.474   2.623 -1.5022  0.3947 -0.6197
 5264SOL     OW26125   4.516   8.219   1.295 -0.3275  0.4103 -1.1677
 5264SOL    HW126126   4.470   8.151   1.239  1.8510 -1.9625 -0.1718
 5264SOL    HW226127   4.537   8.180   1.385 -0.6963  3.0220  0.1258
 5265SOL     OW26128   1.950   2.510   3.571  0.6067 -1.0278  0.1501
 5265SOL    HW126129   1.857   2.474   3.573  1.1408 -2.5180 -0.4185
 5265SOL    HW226130   1.989   2.497   3.479  1.0258  0.5274  0.0922
 5266SOL     OW26131   2.390   6.572   0.734 -0.3884  0.0837 -0.1183
 5266SOL    HW126132   2.423   6.617   0.651  0.2995  0.4017  0.3198
 5266SOL    HW226133   2.421   6.477   0.735  0.7632  0.4521  0.4170
 5267SOL     OW26134   3.585   1.265   0.491  0.3905 -0.5694 -0.0050
 5267SOL    HW126135   3.571   1.196   0.419  0.2496  1.1162 -1.6150
 5267SOL    HW226136   3.682   1.285   0.499  0.4338 -0.9604  0.4862
 5268SOL     OW26137   0.928   7.139   1.019 -0.0656 -0.0067  0.1321
 5268SOL    HW126138   1.023   7.148   0.989  0.3056  0.3629  1.3636
 5268SOL    HW226139   0.866   7.167   0.946  0.8081  0.8299 -0.2931
 5269SOL     OW26140   1.234   5.896   3.607 -0.0958 -0.0177 -0.3972
 5269SOL    HW126141   1.189   5.985   3.596 -0.2864 -0.0767 -0.1241
 5269SOL    HW226142   1.316   5.907   3.663 -0.1845 -0.0299 -0.2623
 5270SOL     OW26143   3.301   4.222   2.586 -0.0620  0.3880 -0.5251
 5270SOL    HW126144   3.245   4.305   2.582  1.1303  1.2149 -0.2091
 5270SOL    HW226145   3.390   4.243   2.627  0.2543 -1.0459 -0.4475
 5271SOL     OW26146   0.898   1.712   2.868 -0.0064  0.1844 -0.1673
 5271SOL    HW126147   0.905   1.788   2.932  1.2208 -1.0039  1.1570
 5271SOL    HW226148   0.819   1.656   2.891 -0.1032  0.2739 -0.2794
 5272SOL     OW26149   6.933   9.938   3.508 -0.5355  0.2386 -0.2951
 5272SOL    HW126150   6.860   9.879   3.475 -0.6649 -0.8989  1.9001
 5272SOL    HW226151   6.901  10.032   3.514 -1.8571 -0.2620  0.6966
 5273SOL     OW26152   8.371   9.391   0.587  0.2289 -1.3197 -0.3180
 5273SOL    HW126153   8.390   9.488   0.600  0.7741 -1.6627  1.6135
 5273SOL    HW226154   8.284   9.368   0.629 -0.2099 -1.5539 -1.3375
 5274SOL     OW26155   2.135   8.804   1.989  0.6523 -0.8141 -0.0515
 5274SOL    HW126156   2.115   8.846   2.077  0.3253 -0.1421 -0.4366
 5274SOL    HW226157   2.223   8.756   1.994 -0.2923 -2.4491  1.1912
 5275SOL     OW26158   1.350   5.539   2.729 -0.0062 -0.4966 -0.0368
 5275SOL    HW126159   1.438   5.582   2.709  0.1664  0.2007  2.0918
 5275SOL    HW226160   1.346   5.449   2.686  1.3663 -0.1423 -0.9303
 5276SOL     OW26161   0.781   9.415   0.702 -0.4069 -0.7265 -0.6521
 5276SOL    HW126162   0.728   9.335   0.673  0.0940 -0.6361 -1.8388
 5276SOL    HW226163   0.741   9.453   0.786 -0.6529 -2.2184 -0.0729
 5277SOL     OW26164   2.967   3.139   0.080 -0.5139 -0.4915  0.3564
 5277SOL    HW126165   3.058   3.120   0.118 -0.6119 -1.1174  0.2972
 5277SOL    HW226166   2.969   3.225   0.029 -0.4054  0.4024  1.8368
 5278SOL     OW26167   9.318   9.163   2.902  0.1158  0.4471 -0.1906
 5278SOL    HW126168   9.238   9.216   2.873  0.6176  1.9195  0.9944
 5278SOL    HW226169   9.331   9.175   3.001  0.9311 -0.9782 -0.1184
 5279SOL     OW26170   1.246   0.262   3.415 -0.3693  0.1417 -0.0346
 5279SOL    HW126171   1.280   0.215   3.334  1.2156 -0.7808  1.1498
 5279SOL    HW226172   1.152   0.292   3.399 -0.4012 -0.8765 -1.8524
 5280SOL     OW26173   1.033   9.524   2.760  0.2974 -0.3470  0.0754
 5280SOL    HW126174   0.943   9.493   2.730  0.4107 -0.2801 -0.3384
 5280SOL    HW226175   1.031   9.622   2.776 -0.6309 -0.8566  3.4373
 5281SOL     OW26176   2.059   0.121   1.626  0.0553 -0.7569  0.5162
 5281SOL    HW126177   2.121   0.197   1.647 -0.7121  0.4590 -1.5011
 5281SOL    HW226178   2.112   0.040   1.603  0.9464  0.3976 -1.6329
 5282SOL     OW26179   1.436   2.564   3.206 -0.8649  0.1440 -0.6669
 5282SOL    HW126180   1.370   2.489   3.211 -0.5766 -0.2355 -2.3231
 5282SOL    HW226181   1.511   2.547   3.270 -0.5701 -1.2329 -1.3526
 5283SOL     OW26182   2.621   1.872   2.881 -0.4594  0.5281 -0.2027
 5283SOL    HW126183   2.710   1.916   2.896  0.5088 -1.4526 -0.0202
 5283SOL    HW226184   2.580   1.849   2.970  0.2829 -1.3387 -0.3163
 5284SOL     OW26185   2.055   9.292   2.537 -0.1478 -0.0379  0.0830
 5284SOL    HW126186   2.089   9.376   2.497  0.1928 -1.1677 -2.0491
 5284SOL    HW226187   1.955   9.288   2.527 -0.3146  0.7096  1.3717
 5285SOL     OW26188   9.730   9.676   1.026  0.0143  0.0367 -0.3486
 5285SOL    HW126189   9.820   9.711   1.050 -0.7489  2.5719 -1.1429
 5285SOL    HW226190   9.680   9.654   1.110  1.5015 -1.8444  0.0887
 5286SOL     OW26191   0.651   1.958   2.226 -0.1955  0.1211  0.4350
 5286SOL    HW126192   0.741   1.915   2.217 -0.2653  0.1467 -0.4340
 5286SOL    HW226193   0.582   1.887   2.240 -0.4166 -0.1356 -1.7933
 5287SOL     OW26194   9.537   9.435   3.526  0.9846  0.2454 -0.2301
 5287SOL    HW126195   9.526   9.414   3.623  0.7599  0.2074 -0.2649
 5287SOL    HW226196   9.534   9.350   3.473  3.1581  0.0298 -0.0807
 5288SOL     OW26197   2.620   1.288   1.057  0.0569 -0.2913  0.0537
 5288SOL    HW126198   2.700   1.237   1.085  0.0256  0.2042  1.0564
 5288SOL    HW226199   2.626   1.382   1.091 -1.5728 -0.6155  1.3005
 5289SOL     OW26200   1.653   3.211   0.405  0.0469 -0.0735  0.5208
 5289SOL    HW126201   1.563   3.196   0.363  0.1337 -0.2216  0.3853
 5289SOL    HW226202   1.648   3.190   0.502  0.3835 -1.8328  0.1725
 5290SOL     OW26203   2.558   6.057   1.906 -0.0435 -0.1460 -0.0173
 5290SOL    HW126204   2.636   6.083   1.964  0.3025  0.9381 -0.9428
 5290SOL    HW226205   2.514   5.976   1.943  0.7858 -0.0455  1.2080
 5291SOL     OW26206   1.376   9.825   1.088  0.3574  0.3705 -0.2971
 5291SOL    HW126207   1.283   9.807   1.121  0.3316 -0.8522 -1.0269
 5291SOL    HW226208   1.373   9.899   1.021  0.0062  0.7958  0.1780
 5292SOL     OW26209   9.048   0.901   1.424  0.1088  0.2073 -0.5115
 5292SOL    HW126210   8.950   0.888   1.407  0.1520  1.2429 -1.6667
 5292SOL    HW226211   9.089   0.951   1.346  1.1279  1.5874  0.8745
 5293SOL     OW26212   5.601   8.901   1.980  0.2755 -0.4725  0.1269
 5293SOL    HW126213   5.503   8.895   1.999  0.1862 -0.2306 -0.2624
 5293SOL    HW226214   5.637   8.984   2.022 -0.0017  0.2729 -1.0804
 5294SOL     OW26215   0.863   1.046   1.940  0.3310  0.3030 -0.6582
 5294SOL    HW126216   0.872   0.947   1.928 -0.5767  0.2283 -0.7244
 5294SOL    HW226217   0.929   1.077   2.009  0.4408 -0.3890 -0.4461
 5295SOL     OW26218   8.363   2.830   1.610 -0.6863  0.5764 -0.0437
 5295SOL    HW126219   8.289   2.840   1.677 -0.7422  0.3519 -0.0738
 5295SOL    HW226220   8.436   2.774   1.649 -1.5681 -1.1768 -0.8835
 5296SOL     OW26221   3.258   7.283   1.758  0.8262  0.5484  0.0982
 5296SOL    HW126222   3.162   7.256   1.755  0.1549  2.6257  2.1781
 5296SOL    HW226223   3.314   7.205   1.788 -0.2243 -0.5422 -0.7231
 5297SOL     OW26224   1.095   3.513   1.935 -0.3441 -0.4601  0.0244
 5297SOL    HW126225   1.170   3.560   1.889 -1.9603  0.7687 -1.4463
 5297SOL    HW226226   1.073   3.429   1.884 -0.4896 -0.4095  0.0043
 5298SOL     OW26227   7.159   8.717   2.981  0.1794 -0.1346  0.3694
 5298SOL    HW126228   7.219   8.771   3.039 -0.2820  1.7237 -0.8566
 5298SOL    HW226229   7.064   8.725   3.012 -0.1179  1.1543 -0.8300
 5299SOL     OW26230   1.182   1.228   2.328 -0.2608  1.2042 -0.0698
 5299SOL    HW126231   1.253   1.176   2.377 -2.5571 -0.6071  1.4239
 5299SOL    HW226232   1.097   1.226   2.380 -2.1655  1.1736 -3.0744
 5300SOL     OW26233   0.982   0.548   2.275 -0.3286 -0.1618 -0.4053
 5300SOL    HW126234   0.982   0.459   2.231 -1.3362 -0.1906 -0.3537
 5300SOL    HW226235   0.900   0.558   2.330  0.5752  0.1521  0.9168
 5301SOL     OW26236   3.045   4.786   2.341  0.4965 -0.6577 -0.1350
 5301SOL    HW126237   3.108   4.847   2.390 -0.4500  0.1320  0.1150
 5301SOL    HW226238   3.045   4.809   2.244 -2.2776  1.9466  0.4103
 5302SOL     OW26239   0.321   0.783   2.691 -0.1345  0.2005  0.2998
 5302SOL    HW126240   0.314   0.770   2.790  2.4533  1.1120  0.6368
 5302SOL    HW226241   0.264   0.860   2.663 -1.8017 -0.8027  0.8827
 5303SOL     OW26242   2.354   9.318   3.026 -0.7856  0.0321  0.0544
 5303SOL    HW126243   2.268   9.301   2.978 -0.9861 -0.6963  0.6743
 5303SOL    HW226244   2.339   9.385   3.099 -0.4733  1.1674 -0.8898
 5304SOL     OW26245   3.547   9.436   0.953  0.0809 -0.8551  0.0822
 5304SOL    HW126246   3.447   9.436   0.942  0.1982  1.0949 -1.3410
 5304SOL    HW226247   3.590   9.440   0.863  1.3898  0.7752  0.7495
 5305SOL     OW26248   0.939   1.002   3.460 -0.1601 -0.1267 -0.3878
 5305SOL    HW126249   0.981   1.092   3.447  0.9397 -0.8539 -2.0414
 5305SOL    HW226250   0.959   0.970   3.553 -0.6656  1.3736  0.2566
 5306SOL     OW26251   2.693   3.403   3.382  0.1037  0.3225  0.2445
 5306SOL    HW126252   2.777   3.361   3.347  1.3846  1.6220  1.6904
 5306SOL    HW226253   2.659   3.351   3.461  0.6504  0.9242  0.8788
 5307SOL     OW26254   4.252   7.800   0.092 -0.2476  0.1874  0.3885
 5307SOL    HW126255   4.179   7.812   0.159 -0.1429  2.6147  0.0955
 5307SOL    HW226256   4.340   7.810   0.137 -0.1768  1.8360 -0.0898
 5308SOL     OW26257   1.676   4.905   1.560  0.4769 -0.1241  0.3586
 5308SOL    HW126258   1.690   5.002   1.581  1.0124  0.0297 -0.6748
 5308SOL    HW226259   1.715   4.885   1.470 -0.1488 -1.1708  0.3181
 5309SOL     OW26260   9.458   1.157   0.871  0.4117  0.1537  0.0622
 5309SOL    HW126261   9.540   1.211   0.890  0.2674  0.4730 -0.2080
 5309SOL    HW226262   9.483   1.078   0.815  0.5513  0.1985  0.0606
 5310SOL     OW26263   2.912   6.024   1.125  0.4297 -0.3600  0.5491
 5310SOL    HW126264   2.852   6.067   1.057  3.2692  0.9046 -1.2224
 5310SOL    HW226265   2.934   5.931   1.094  0.2731 -0.4334  0.6555
 5311SOL     OW26266   8.958   9.982   1.208  0.3332  0.1398  0.2037
 5311SOL    HW126267   8.955  10.000   1.110  0.2211 -1.5162 -0.1141
 5311SOL    HW226268   8.937  10.066   1.258  2.3869  1.5055 -1.1360
 5312SOL     OW26269   9.664   9.934   2.137 -0.1362  0.3894  0.1821
 5312SOL    HW126270   9.758   9.910   2.112 -1.0599 -1.7439 -1.4407
 5312SOL    HW226271   9.645   9.906   2.231  1.3308  2.3628  1.1005
 5313SOL     OW26272   9.014   0.948   0.319  0.1235 -0.5773 -0.3923
 5313SOL    HW126273   8.980   0.991   0.403  2.0121 -1.3390  0.8004
 5313SOL    HW226274   8.972   0.992   0.240 -0.2582  1.4427  0.8953
 5314SOL     OW26275   1.471   9.268   1.982 -0.1330 -0.1626  0.0767
 5314SOL    HW126276   1.560   9.250   1.940  0.0062  0.3720  0.1386
 5314SOL    HW226277   1.485   9.301   2.075 -0.4555 -1.8650  0.7582
 5315SOL     OW26278   1.723   2.435   1.285 -0.0721 -0.3990  0.0909
 5315SOL    HW126279   1.789   2.452   1.212  1.4686 -0.0867  1.5332
 5315SOL    HW226280   1.647   2.380   1.249  2.4938 -3.4768 -0.8499
 5316SOL     OW26281   8.458   8.360   0.920  0.0664  0.3060 -0.3853
 5316SOL    HW126282   8.360   8.345   0.934 -0.3409  1.4627 -1.8544
 5316SOL    HW226283   8.494   8.292   0.857  0.2140 -0.1300  0.1690
 5317SOL     OW26284   1.363   7.957   2.944 -0.6024  0.2128  0.7533
 5317SOL    HW126285   1.429   8.022   2.906 -1.7168  0.5616 -0.6265
 5317SOL    HW226286   1.409   7.896   3.008  1.2450 -0.1380 -0.8848
 5318SOL     OW26287   9.843   8.371   0.030 -0.7327  0.3815  0.3251
 5318SOL    HW126288   9.770   8.325  -0.020  0.8223 -2.6236  0.7153
 5318SOL    HW226289   9.861   8.322   0.116 -0.4957  3.0089  1.8391
 5319SOL     OW26290   0.087   0.417   0.389 -0.1391  0.4265 -0.3585
 5319SOL    HW126291   0.034   0.461   0.461  1.1712  2.5390 -0.6507
 5319SOL    HW226292   0.069   0.462   0.301  0.6371 -0.1038 -0.7994
 5320SOL     OW26293   0.433   4.122   0.258 -0.2193 -0.0570  0.4874
 5320SOL    HW126294   0.518   4.120   0.205 -0.1714 -1.4277  0.5999
 5320SOL    HW226295   0.449   4.169   0.345  0.8354 -1.6308  1.1813
 5321SOL     OW26296   8.783   7.344   0.678 -0.2768 -0.4451  0.3595
 5321SOL    HW126297   8.851   7.273   0.660  0.3449  0.2048  0.1107
 5321SOL    HW226298   8.709   7.306   0.734  0.8283 -0.8693  1.5527
 5322SOL     OW26299   7.878   2.563   2.375 -0.1607  0.1371  0.6270
 5322SOL    HW126300   7.831   2.479   2.402  0.6389 -0.6838 -0.5187
 5322SOL    HW226301   7.882   2.568   2.275  1.1371  0.7920  0.7096
 5323SOL     OW26302   3.601   0.727   1.880 -0.4150  0.4337 -0.9099
 5323SOL    HW126303   3.647   0.801   1.830  1.6998 -0.5985 -0.5319
 5323SOL    HW226304   3.555   0.667   1.815  0.4270  0.3645 -1.4469
 5324SOL     OW26305   1.661   2.344   0.948 -0.1278  0.2089 -0.2452
 5324SOL    HW126306   1.747   2.385   0.979 -0.7506  0.7241  0.8236
 5324SOL    HW226307   1.613   2.305   1.026 -2.0806  2.1903 -0.4067
 5325SOL     OW26308   4.265   8.478   0.962 -0.5193  0.0493  0.2859
 5325SOL    HW126309   4.316   8.414   0.904  0.1644  0.9001 -0.0691
 5325SOL    HW226310   4.201   8.428   1.020  0.2684 -0.9788  0.2707
 5326SOL     OW26311   2.354   6.298   0.907  0.3969  0.1337  0.1493
 5326SOL    HW126312   2.254   6.299   0.898  0.4044  0.3320  0.0969
 5326SOL    HW226313   2.396   6.302   0.817  0.4731  2.2263  0.2661
 5327SOL     OW26314   3.087   1.222   0.448 -0.6590  0.0776 -0.5215
 5327SOL    HW126315   3.178   1.243   0.485 -1.3680  1.6583  0.3655
 5327SOL    HW226316   3.018   1.243   0.517 -1.9705  2.5358 -2.4965
 5328SOL     OW26317   3.496   8.497   1.882 -0.5646  0.7373 -0.1162
 5328SOL    HW126318   3.562   8.427   1.911  0.1598  1.2154 -0.5844
 5328SOL    HW226319   3.459   8.542   1.963 -0.4329  0.3609  0.1584
 5329SOL     OW26320   8.894   1.573   3.135 -0.0840 -0.1115  0.4043
 5329SOL    HW126321   8.819   1.550   3.196 -0.4503  0.3761  0.1406
 5329SOL    HW226322   8.929   1.664   3.156 -1.3236  0.7627 -1.1939
 5330SOL     OW26323   3.012   1.119   2.231  0.1070  0.1340  0.1065
 5330SOL    HW126324   2.925   1.157   2.200  0.3740  0.1887 -0.5846
 5330SOL    HW226325   3.022   1.134   2.329 -1.1553 -0.8437  0.4046
 5331SOL     OW26326   9.269   8.976   1.592 -0.0339 -0.1823  0.6290
 5331SOL    HW126327   9.319   8.923   1.661  0.3469 -0.9539 -0.2183
 5331SOL    HW226328   9.179   9.000   1.627  1.4323  2.5414  2.7831
 5332SOL     OW26329   2.843   4.897   2.593 -0.5985  0.2211 -0.2548
 5332SOL    HW126330   2.914   4.933   2.653 -0.3211  0.7198 -0.8853
 5332SOL    HW226331   2.885   4.850   2.515 -0.9479 -1.7933  0.7364
 5333SOL     OW26332   8.614   0.467   1.263  0.0705 -0.1301  0.1718
 5333SOL    HW126333   8.710   0.492   1.255  0.1368 -0.7996 -1.3910
 5333SOL    HW226334   8.558   0.550   1.254  0.4889  0.1926  0.5581
 5334SOL     OW26335   1.734   0.667   3.643 -0.1762  0.5196 -0.4514
 5334SOL    HW126336   1.677   0.721   3.705 -0.2653  0.4110 -0.4380
 5334SOL    HW226337   1.792   0.605   3.697 -0.9826 -0.3005 -0.5066
 5335SOL     OW26338   8.133   2.444   1.507 -0.7927  0.0479 -0.3238
 5335SOL    HW126339   8.039   2.410   1.514 -0.6691 -0.3573 -0.5993
 5335SOL    HW226340   8.180   2.396   1.433  0.0005 -0.6323  0.6123
 5336SOL     OW26341   2.559   5.687   2.696  0.1616 -0.2541  0.7839
 5336SOL    HW126342   2.606   5.708   2.611 -0.6752  2.0142  0.8578
 5336SOL    HW226343   2.562   5.588   2.712 -0.0834 -0.7732 -2.0982
 5337SOL     OW26344   8.785   9.447   1.138  0.0454  0.1971  0.2617
 5337SOL    HW126345   8.864   9.426   1.081  0.5192  0.1310  0.9524
 5337SOL    HW226346   8.792   9.541   1.172  0.2113 -0.0673  0.9606
 5338SOL     OW26347   2.035   3.153   3.861 -0.0561  0.0720  0.4798
 5338SOL    HW126348   1.982   3.150   3.946 -0.1781  0.4149  0.4187
 5338SOL    HW226349   1.980   3.118   3.786 -0.2083  0.4523  0.4117
 5339SOL     OW26350   4.593   1.703   1.569  0.5122 -0.6990  0.4893
 5339SOL    HW126351   4.571   1.792   1.530 -2.2531 -2.0936 -1.2721
 5339SOL    HW226352   4.592   1.709   1.669  1.4213  1.4593  0.3941
 5340SOL     OW26353   0.391   1.712   2.062 -0.4501  0.9907 -0.7200
 5340SOL    HW126354   0.451   1.683   2.136 -1.5914  1.1715  0.3022
 5340SOL    HW226355   0.315   1.647   2.053 -0.2376  0.8890 -1.8359
 5341SOL     OW26356   1.281   4.228   1.744  0.1233  0.2997 -0.2176
 5341SOL    HW126357   1.191   4.190   1.763  0.1836 -0.0927 -0.7136
 5341SOL    HW226358   1.340   4.157   1.706  0.7731  0.4432  0.5129
 5342SOL     OW26359   3.394   8.610   2.103 -0.3141  0.6013  0.2150
 5342SOL    HW126360   3.319   8.623   2.168  1.6087  1.5105  2.3480
 5342SOL    HW226361   3.476   8.654   2.139  1.5738 -1.4476 -1.4542
 5343SOL     OW26362   2.072   7.102   1.238  0.4016 -0.1562 -0.3507
 5343SOL    HW126363   2.005   7.029   1.253 -0.3338  0.4423 -0.6384
 5343SOL    HW226364   2.050   7.179   1.298  1.4696 -0.3616  0.3097
 5344SOL     OW26365   7.941   9.712   2.048 -0.1742 -0.9474 -0.1974
 5344SOL    HW126366   7.847   9.717   2.081 -0.8405 -0.6525 -2.0862
 5344SOL    HW226367   7.947   9.641   1.977  0.9270 -0.6325 -0.4169
 5345SOL     OW26368   9.897   1.958   0.269  0.2200 -0.0682 -0.6949
 5345SOL    HW126369   9.916   1.884   0.333  2.4960  0.6767 -0.4767
 5345SOL    HW226370   9.828   2.019   0.307  0.6187 -0.3449  0.4678
 5346SOL     OW26371   8.979   1.354   4.005  0.3424  0.4073 -0.3828
 5346SOL    HW126372   9.039   1.386   3.932 -0.3957  1.9332 -0.3364
 5346SOL    HW226373   8.885   1.381   3.985 -0.2894 -1.6229 -0.2595
 5347SOL     OW26374   1.987   9.348   3.773  1.1233  0.8662 -0.5044
 5347SOL    HW126375   1.993   9.431   3.829  0.5792  0.8105 -0.3598
 5347SOL    HW226376   1.963   9.373   3.679 -0.9432  0.7452 -0.0392
 5348SOL     OW26377   0.403   1.180   3.821  0.1514  0.0271  0.0620
 5348SOL    HW126378   0.307   1.183   3.794  0.5254 -0.5522 -1.3874
 5348SOL    HW226379   0.426   1.086   3.849  0.4165  0.0604 -0.0460
 5349SOL     OW26380   2.930   4.467   3.999 -0.3172 -0.4267  0.1359
 5349SOL    HW126381   2.942   4.368   3.994  1.7907 -0.2321  1.0203
 5349SOL    HW226382   3.015   4.510   4.027 -0.7771  1.7928 -1.7299
 5350SOL     OW26383   0.582   1.392   2.273 -0.2339  0.1574  0.7696
 5350SOL    HW126384   0.647   1.338   2.328 -1.3936 -0.1384  1.8846
 5350SOL    HW226385   0.629   1.429   2.193  1.1510 -0.5938  1.2087
 5351SOL     OW26386   2.063   4.291   1.749 -0.1679  0.1968  0.3983
 5351SOL    HW126387   1.987   4.242   1.705 -0.5309 -0.3262  1.5850
 5351SOL    HW226388   2.037   4.386   1.765 -0.3586  0.1681  0.2538
 5352SOL     OW26389   2.637   4.806   2.045  0.2800 -0.8606 -0.3126
 5352SOL    HW126390   2.735   4.822   2.039  0.7367 -2.6520  1.5412
 5352SOL    HW226391   2.619   4.730   2.108 -2.2083 -1.5833 -1.7856
 5353SOL     OW26392   2.320   3.517   1.517  0.6697  0.1353  0.3567
 5353SOL    HW126393   2.277   3.468   1.593  3.0352 -1.6317  0.6282
 5353SOL    HW226394   2.251   3.568   1.467 -0.8143  2.2829  4.3612
 5354SOL     OW26395   9.379   0.336   2.569  0.3186 -0.2107  0.3053
 5354SOL    HW126396   9.333   0.321   2.482  1.0010  0.8969 -0.2604
 5354SOL    HW226397   9.410   0.431   2.575  1.9550 -0.7647  0.9363
 5355SOL     OW26398   3.164   5.887   3.450  0.1416  0.0662 -0.2248
 5355SOL    HW126399   3.212   5.867   3.364 -1.1970 -1.7813 -0.5649
 5355SOL    HW226400   3.156   5.803   3.504 -0.9661  0.7719  0.7221
 5356SOL     OW26401   9.048   2.608   1.489  0.3068 -0.1124  0.1528
 5356SOL    HW126402   8.983   2.634   1.560 -0.2499  0.0593 -0.4172
 5356SOL    HW226403   9.030   2.661   1.406  1.1282 -0.1107 -0.0316
 5357SOL     OW26404   9.318   8.503   3.311 -0.7082 -0.0999 -0.7696
 5357SOL    HW126405   9.410   8.469   3.291  1.0140  2.3970  2.5322
 5357SOL    HW226406   9.259   8.426   3.336  1.2166 -1.4474 -0.2124
 5358SOL     OW26407   2.711   9.595   2.133 -0.1482 -0.2522  0.6778
 5358SOL    HW126408   2.767   9.678   2.135  0.6138 -0.7070 -0.8337
 5358SOL    HW226409   2.760   9.521   2.179  0.2382 -0.4912 -0.1100
 5359SOL     OW26410   3.940   8.889   2.080  0.5357  0.1316  0.1150
 5359SOL    HW126411   3.874   8.909   2.007  1.4410  0.3351 -0.6685
 5359SOL    HW226412   3.893   8.848   2.158 -0.6553  1.1455 -0.0559
 5360SOL     OW26413   9.986   8.767   3.018  0.2391  0.0635  0.5767
 5360SOL    HW126414  10.023   8.680   2.985 -1.0563 -0.0482 -0.6846
 5360SOL    HW226415   9.899   8.750   3.065 -1.9635  0.9771 -2.9540
 5361SOL     OW26416   2.922   0.908   1.745  0.0911 -0.1425  0.1707
 5361SOL    HW126417   2.887   0.957   1.825 -0.4319 -2.1015  1.1749
 5361SOL    HW226418   3.001   0.956   1.708  2.2437 -0.8116  3.7245
 5362SOL     OW26419   2.133   1.014   1.805  0.2218 -0.2046  0.1292
 5362SOL    HW126420   2.107   0.920   1.782 -1.7227  0.3784 -0.1770
 5362SOL    HW226421   2.160   1.020   1.900  0.0485 -1.0295  0.2278
 5363SOL     OW26422   2.743   7.152   0.897 -0.3471 -0.5232 -0.3669
 5363SOL    HW126423   2.754   7.065   0.848 -0.2294 -1.2593  0.9280
 5363SOL    HW226424   2.823   7.209   0.882 -0.2277 -0.8263 -0.8775
 5364SOL     OW26425   9.571   0.482   1.042  0.0352  0.2851  0.0114
 5364SOL    HW126426   9.670   0.480   1.033  0.5186 -0.6747  4.5865
 5364SOL    HW226427   9.532   0.400   1.000  1.3608 -0.3895  0.0671
 5365SOL     OW26428   1.136   1.452   1.124 -0.0127  0.3615 -0.0659
 5365SOL    HW126429   1.197   1.426   1.049 -0.8107 -0.7302 -0.3528
 5365SOL    HW226430   1.163   1.403   1.207 -0.3913  0.0001 -0.1538
 5366SOL     OW26431   1.613   8.970   2.195  0.2929  0.2797 -0.5567
 5366SOL    HW126432   1.659   8.921   2.121 -0.3192 -1.4429  0.1968
 5366SOL    HW226433   1.516   8.947   2.195  0.5620 -0.9416  1.7335
 5367SOL     OW26434   2.266   5.015   1.294 -0.1659 -0.2613 -0.7977
 5367SOL    HW126435   2.324   4.938   1.319  1.7239  1.0773 -0.9311
 5367SOL    HW226436   2.264   5.024   1.194  1.5611  1.2562 -0.7299
 5368SOL     OW26437   2.708   0.163   1.700  0.0703  0.7215 -0.5351
 5368SOL    HW126438   2.629   0.198   1.650 -0.6220  1.1917  0.8683
 5368SOL    HW226439   2.790   0.214   1.674 -0.0840  0.2852 -1.9379
 5369SOL     OW26440   0.021   7.965   3.184 -0.1498  0.8599  0.0462
 5369SOL    HW126441   0.080   8.021   3.125 -0.6585 -0.3390 -1.6262
 5369SOL    HW226442   0.068   7.881   3.210  0.4384  1.8042  2.1907
 5370SOL     OW26443   2.258   0.358   1.629  0.4228  0.9831 -0.0120
 5370SOL    HW126444   2.287   0.328   1.538 -0.2131  2.6141 -0.7643
 5370SOL    HW226445   2.235   0.455   1.626 -0.3907  0.8522  1.7078
 5371SOL     OW26446   5.647   8.140   2.885 -0.1966  0.3417  0.3867
 5371SOL    HW126447   5.726   8.090   2.849 -0.3103  0.7603 -0.4653
 5371SOL    HW226448   5.569   8.129   2.823 -0.9554 -0.4566  1.4685
 5372SOL     OW26449   0.366   0.062   3.697 -0.0394  0.8367 -0.1201
 5372SOL    HW126450   0.342  -0.023   3.648  0.5489  0.7096 -0.1903
 5372SOL    HW226451   0.403   0.128   3.632  0.6003  0.7228  0.1248
 5373SOL     OW26452   1.194   7.407   0.225 -0.1137 -0.2415 -0.1345
 5373SOL    HW126453   1.214   7.445   0.315  1.6948 -1.9862  0.2439
 5373SOL    HW226454   1.266   7.343   0.199 -0.2734  0.7237 -3.1397
 5374SOL     OW26455   7.633   8.427   0.462  0.4365 -0.1873 -0.2748
 5374SOL    HW126456   7.702   8.398   0.527 -0.4903  1.0811  1.3033
 5374SOL    HW226457   7.542   8.419   0.503 -0.2055  0.1597 -1.5756
 5375SOL     OW26458   7.747   1.217   2.333 -0.4142 -0.0092 -0.7370
 5375SOL    HW126459   7.746   1.293   2.398  0.2447  0.2143 -0.9820
 5375SOL    HW226460   7.767   1.132   2.381  1.1129  0.3065 -0.7938
 5376SOL     OW26461   2.745   7.255   4.029 -0.7539  0.1366 -0.7128
 5376SOL    HW126462   2.716   7.330   4.088 -1.0746 -0.2718 -0.3423
 5376SOL    HW226463   2.764   7.174   4.085  1.9670  0.6267 -0.8529
 5377SOL     OW26464   2.750   0.330   2.056 -0.2668  0.3456  0.1484
 5377SOL    HW126465   2.775   0.259   2.122 -0.2376 -1.5500 -1.8247
 5377SOL    HW226466   2.664   0.305   2.012  0.4342  0.8161 -1.5407
 5378SOL     OW26467   7.833   3.290   0.159  0.3969 -0.0481 -0.1103
 5378SOL    HW126468   7.928   3.261   0.176  1.0012  1.5748 -0.6262
 5378SOL    HW226469   7.791   3.316   0.246  0.2015 -1.3529  0.2075
 5379SOL     OW26470   1.028   0.807   1.012  0.3834 -0.1520 -0.1648
 5379SOL    HW126471   0.980   0.725   0.982  0.9020 -0.6735  0.4326
 5379SOL    HW226472   1.107   0.824   0.952 -1.0838  1.2720 -1.7774
 5380SOL     OW26473   2.123   4.534   3.284 -0.3365  0.1113 -0.6401
 5380SOL    HW126474   2.126   4.451   3.229  1.4140 -0.1554 -0.1612
 5380SOL    HW226475   2.053   4.596   3.248 -0.4602 -0.8296 -2.0270
 5381SOL     OW26476   8.305   7.977   1.120  0.8775 -0.5344  0.3093
 5381SOL    HW126477   8.375   8.045   1.096 -0.9361  1.0919 -0.5647
 5381SOL    HW226478   8.269   7.997   1.211 -0.1859  0.1592 -0.2525
 5382SOL     OW26479   5.285   8.061   2.931 -0.8233  0.1351 -0.0240
 5382SOL    HW126480   5.253   7.990   2.994  0.9300 -0.6263  0.0077
 5382SOL    HW226481   5.300   8.021   2.841 -3.0427  1.1651 -0.8924
 5383SOL     OW26482   8.698   2.117   3.773 -0.0779 -0.4157  0.3783
 5383SOL    HW126483   8.617   2.154   3.728  0.0623 -0.5231  0.0348
 5383SOL    HW226484   8.735   2.042   3.718 -0.6856 -1.4469  1.3447
 5384SOL     OW26485   3.549   1.957   0.960 -0.0640  0.6421  0.3116
 5384SOL    HW126486   3.593   1.885   1.014 -0.3251 -0.4858 -0.9632
 5384SOL    HW226487   3.456   1.971   0.993 -0.1446  0.1190  0.3082
 5385SOL     OW26488   2.333   3.185   2.356  0.4096  0.3513 -0.8719
 5385SOL    HW126489   2.272   3.244   2.409  0.7280 -0.5588  0.5201
 5385SOL    HW226490   2.426   3.222   2.358 -0.0912  1.8195 -3.1166
 5386SOL     OW26491   2.453   9.677   1.555 -0.2388 -0.1190  0.1507
 5386SOL    HW126492   2.544   9.635   1.560 -0.6103 -1.1837 -1.3624
 5386SOL    HW226493   2.392   9.631   1.619 -0.2167 -0.8331 -0.3200
 5387SOL     OW26494   2.775   0.576   3.651  0.3075 -0.1982  0.2345
 5387SOL    HW126495   2.773   0.676   3.647  0.1787 -0.2112 -0.0493
 5387SOL    HW226496   2.711   0.539   3.583  1.4330 -0.4881 -0.6918
 5388SOL     OW26497   1.925   1.074   2.513  0.7129  0.8369  0.0177
 5388SOL    HW126498   1.952   0.986   2.553  0.2450 -0.0391 -1.5815
 5388SOL    HW226499   2.004   1.136   2.513  0.6606  0.9540  2.5371
 5389SOL     OW26500   8.686   1.295   2.499  0.1045 -0.0908  0.2088
 5389SOL    HW126501   8.640   1.344   2.425  1.1222  1.2950  0.4772
 5389SOL    HW226502   8.657   1.199   2.499 -0.9621  0.2218 -1.0978
 5390SOL     OW26503   7.791   0.775   1.029 -0.3693  0.0761 -0.3200
 5390SOL    HW126504   7.821   0.865   1.000  0.5458  0.5394  1.9382
 5390SOL    HW226505   7.697   0.759   0.997 -0.7106  2.0124 -0.3491
 5391SOL     OW26506   7.839   0.222   0.060 -0.4338  0.2731  0.0263
 5391SOL    HW126507   7.825   0.243  -0.037  0.7680  2.3109  0.2807
 5391SOL    HW226508   7.889   0.136   0.068  0.2518  0.5418 -1.1869
 5392SOL     OW26509   3.757   8.338   3.896  0.0583  0.3986 -0.1903
 5392SOL    HW126510   3.839   8.298   3.937 -0.4491 -1.6572 -1.1015
 5392SOL    HW226511   3.691   8.359   3.969 -0.1075 -1.5037  0.2262
 5393SOL     OW26512   5.648   8.637   3.118 -0.4628 -0.7045  0.0011
 5393SOL    HW126513   5.727   8.607   3.171  0.0153  0.4733 -0.0295
 5393SOL    HW226514   5.646   8.588   3.031 -0.2624 -1.3646  0.3622
 5394SOL     OW26515   0.772   0.685   3.857 -0.3360  0.6264  0.4138
 5394SOL    HW126516   0.776   0.592   3.894  1.2796  0.5588  0.1003
 5394SOL    HW226517   0.841   0.696   3.786 -0.8710  1.9115  0.0786
 5395SOL     OW26518   3.875   9.353   3.757 -0.6338 -0.4227 -0.0418
 5395SOL    HW126519   3.859   9.391   3.666 -1.1189  1.2607  0.7410
 5395SOL    HW226520   3.880   9.426   3.824  2.1634 -1.4427  0.9640
 5396SOL     OW26521   3.830   0.674   0.419 -0.2467  0.5387 -1.1585
 5396SOL    HW126522   3.866   0.736   0.489 -1.3378  0.4531 -0.5081
 5396SOL    HW226523   3.809   0.586   0.460 -2.1493  0.9100 -1.2915
 5397SOL     OW26524   1.740   2.811   1.287  0.3814  0.0370  0.2686
 5397SOL    HW126525   1.821   2.769   1.329  0.8792  2.3630  1.6771
 5397SOL    HW226526   1.658   2.759   1.314  1.0562 -0.4705  1.3872
 5398SOL     OW26527   2.657   7.032   1.507  0.1522 -0.0363 -0.4607
 5398SOL    HW126528   2.578   7.087   1.478  0.1705  0.6039  0.7029
 5398SOL    HW226529   2.738   7.063   1.457  0.6692  2.6907  1.9629
 5399SOL     OW26530   4.720   2.073   1.002 -0.1412  0.4188  0.3575
 5399SOL    HW126531   4.719   2.105   1.096 -2.0704  2.7872 -0.4290
 5399SOL    HW226532   4.644   2.010   0.987  0.5465 -0.4717  0.5090
 5400SOL     OW26533   1.257   0.848   2.396  0.5429  0.1867 -0.7941
 5400SOL    HW126534   1.207   0.859   2.309  1.4478  1.0294 -1.2158
 5400SOL    HW226535   1.239   0.927   2.454  1.1267  0.3407 -0.8197
 5401SOL     OW26536   1.722   1.955   2.534 -0.3010  0.4038 -0.7095
 5401SOL    HW126537   1.695   1.943   2.629 -0.8351  2.4650 -0.5858
 5401SOL    HW226538   1.812   1.915   2.519  0.1764  0.8900  0.8766
 5402SOL     OW26539   1.351   8.658   0.096  0.1679 -0.3008 -0.8011
 5402SOL    HW126540   1.336   8.560   0.084  0.6081 -0.4976  0.2561
 5402SOL    HW226541   1.449   8.676   0.108  0.0079  0.1854 -0.1943
 5403SOL     OW26542   9.815   8.303   2.831 -0.0044  0.2122 -0.4226
 5403SOL    HW126543   9.816   8.265   2.923 -0.4810  1.3680  0.0755
 5403SOL    HW226544   9.811   8.229   2.764 -1.1712 -0.5976  0.5216
 5404SOL     OW26545   7.620   0.256   3.292  0.3013 -0.9045  0.1062
 5404SOL    HW126546   7.695   0.238   3.356  0.8637 -0.1333 -0.3315
 5404SOL    HW226547   7.626   0.193   3.216  1.8125  0.5630 -1.0315
 5405SOL     OW26548   1.757   7.200   3.714  0.2826 -0.0279  0.2602
 5405SOL    HW126549   1.763   7.161   3.622 -0.4481  0.2403  0.0943
 5405SOL    HW226550   1.849   7.217   3.749  0.5932 -1.3840  0.1158
 5406SOL     OW26551   3.625   9.552   0.039 -0.2488  0.3965 -0.4753
 5406SOL    HW126552   3.601   9.646   0.018 -1.1168  0.2680 -0.1019
 5406SOL    HW226553   3.651   9.545   0.135 -1.0704  0.0948 -0.2701
 5407SOL     OW26554   7.134   9.609   3.848  0.0464 -0.1243 -0.2024
 5407SOL    HW126555   7.122   9.698   3.804  1.3222  2.4176  4.2394
 5407SOL    HW226556   7.226   9.575   3.831  0.2640  0.4456 -0.1666
 5408SOL     OW26557   1.491   5.414   1.976 -0.0123  0.2521  0.6095
 5408SOL    HW126558   1.429   5.432   1.899  1.1396 -0.4981 -0.5204
 5408SOL    HW226559   1.446   5.354   2.042 -1.2305  1.3921  0.8326
 5409SOL     OW26560   9.657   8.394   3.570  0.0627 -0.1531  0.1209
 5409SOL    HW126561   9.661   8.435   3.660  0.2467 -0.0176  0.0511
 5409SOL    HW226562   9.679   8.463   3.500  0.4520 -0.3842  0.0107
 5410SOL     OW26563   1.610   6.361   1.170 -0.2484  0.3363 -0.7419
 5410SOL    HW126564   1.547   6.406   1.107 -0.3927  1.3974  0.1419
 5410SOL    HW226565   1.703   6.394   1.154 -0.1694  0.0528 -0.8843
 5411SOL     OW26566   1.514   2.661   1.355  0.1554  0.1499 -0.1200
 5411SOL    HW126567   1.584   2.595   1.326  1.4691  1.6612 -0.4434
 5411SOL    HW226568   1.437   2.658   1.290  2.0231  1.8134 -2.5078
 5412SOL     OW26569   2.953   6.532   2.846  0.1990  0.0923  0.4487
 5412SOL    HW126570   2.931   6.630   2.845 -0.3611 -0.0198  1.2402
 5412SOL    HW226571   2.899   6.487   2.916 -1.2793 -1.2299 -1.5225
 5413SOL     OW26572   1.643   8.231   1.715 -0.0923 -0.0934  0.4723
 5413SOL    HW126573   1.622   8.319   1.757  0.8920  0.3853 -0.0187
 5413SOL    HW226574   1.568   8.205   1.653  0.6962  1.5501 -1.2008
 5414SOL     OW26575   3.337   9.391   2.411 -0.6037 -0.0512 -0.6389
 5414SOL    HW126576   3.252   9.398   2.360  0.4419 -0.7011 -2.5246
 5414SOL    HW226577   3.412   9.431   2.358  0.5899 -1.1240  0.1770
 5415SOL     OW26578   2.993   9.528   2.582 -0.3348  0.0609 -0.3266
 5415SOL    HW126579   3.001   9.627   2.570  0.6068  0.1138  0.7223
 5415SOL    HW226580   3.081   9.485   2.561 -0.5331 -0.4803 -0.0394
 5416SOL     OW26581   8.965   7.918   0.415  0.0086  0.5439  0.1199
 5416SOL    HW126582   8.890   7.853   0.432  0.9930 -0.7007 -0.1636
 5416SOL    HW226583   8.982   7.924   0.317  0.0787  1.0462  0.1663
 5417SOL     OW26584   8.004   2.810   3.277  0.2220 -0.1939  0.0588
 5417SOL    HW126585   7.925   2.808   3.339 -0.4075  0.0212 -0.7231
 5417SOL    HW226586   8.031   2.716   3.254  2.4334 -0.3743  3.1082
 5418SOL     OW26587   9.837   0.901   1.473  0.6353  0.0062 -0.0587
 5418SOL    HW126588   9.749   0.881   1.517 -0.0011 -0.1882 -1.3959
 5418SOL    HW226589   9.895   0.952   1.536 -0.1442 -0.5401  1.1159
 5419SOL     OW26590   2.089   8.788   2.624 -0.8986  0.7088  0.4314
 5419SOL    HW126591   2.075   8.692   2.650 -1.4958  1.2201  2.0495
 5419SOL    HW226592   2.153   8.793   2.548 -2.7682 -1.1387 -1.3078
 5420SOL     OW26593   0.411   0.856   2.191  0.1708  0.1465  0.3348
 5420SOL    HW126594   0.383   0.780   2.250 -0.1914 -0.3359 -0.4598
 5420SOL    HW226595   0.348   0.933   2.205  0.7253  0.4259  1.3737
 5421SOL     OW26596   4.230   9.602   3.667  0.5544 -0.6601 -0.1096
 5421SOL    HW126597   4.245   9.621   3.570  2.2446  2.3566  0.6725
 5421SOL    HW226598   4.190   9.682   3.711  2.0562 -1.0911  2.1349
 5422SOL     OW26599   2.893   0.627   2.659 -0.2066  0.1626  0.6641
 5422SOL    HW126600   2.873   0.540   2.705  0.6745  0.0952  0.9487
 5422SOL    HW226601   2.916   0.610   2.563  1.4367 -0.1049  1.0807
 5423SOL     OW26602   8.178   9.988   1.113  0.2100 -0.1120 -0.3683
 5423SOL    HW126603   8.088   9.990   1.070 -0.2372 -1.4131  0.4592
 5423SOL    HW226604   8.170  10.016   1.209  0.9562  1.3500 -0.7213
 5424SOL     OW26605   8.645   1.244   1.990 -0.3535 -0.0127  0.2803
 5424SOL    HW126606   8.585   1.189   1.932  1.4634  0.0731 -1.7516
 5424SOL    HW226607   8.626   1.341   1.974  0.7345  0.0299 -0.8774
 5425SOL     OW26608   3.210   2.431   1.860 -0.2207 -0.5103  0.1148
 5425SOL    HW126609   3.182   2.526   1.844  0.5447  0.0152  1.7324
 5425SOL    HW226610   3.139   2.369   1.829 -1.5758  0.6735  0.7873
 5426SOL     OW26611   8.486   0.266   2.441 -0.1722 -0.2773 -0.2800
 5426SOL    HW126612   8.399   0.272   2.490 -0.9374 -1.3383 -1.4853
 5426SOL    HW226613   8.557   0.312   2.494 -1.7381  1.7725  0.0865
 5427SOL     OW26614   3.897   0.376   0.473 -0.5076  0.6264  0.4081
 5427SOL    HW126615   3.990   0.413   0.470 -0.5020  0.6160  0.4546
 5427SOL    HW226616   3.883   0.326   0.558 -0.5920  0.7251  0.4531
 5428SOL     OW26617   7.240   9.770   3.448  0.2661  0.1082 -0.5311
 5428SOL    HW126618   7.197   9.752   3.536  0.9982  1.7249  0.1908
 5428SOL    HW226619   7.248   9.869   3.434  2.1905 -0.1322 -1.3913
 5429SOL     OW26620   3.132   0.184   0.729  0.9717 -0.2649 -0.0415
 5429SOL    HW126621   3.039   0.221   0.729  0.4602 -1.5009  0.7978
 5429SOL    HW226622   3.186   0.231   0.798  0.2886 -1.1479  1.1157
 5430SOL     OW26623   0.871   4.371   0.081  0.4148 -0.7310 -0.1245
 5430SOL    HW126624   0.820   4.288   0.099  0.3097 -0.8423 -0.9243
 5430SOL    HW226625   0.835   4.446   0.137 -2.2026 -0.2168 -2.3927
 5431SOL     OW26626   5.275   8.119   3.682  0.2997 -0.1376  0.1918
 5431SOL    HW126627   5.263   8.217   3.670 -1.2797 -0.4834 -1.2582
 5431SOL    HW226628   5.295   8.099   3.778  0.8331  1.6122  0.4524
 5432SOL     OW26629   3.719   9.149   3.867 -0.0541 -0.0699  0.3179
 5432SOL    HW126630   3.626   9.177   3.892 -0.7287 -1.7436 -0.2710
 5432SOL    HW226631   3.769   9.228   3.832 -1.2010  0.8821  0.8011
 5433SOL     OW26632   2.987   8.611   3.846 -0.4968 -0.0946 -0.4457
 5433SOL    HW126633   3.012   8.635   3.753  0.1207 -0.3657 -0.3506
 5433SOL    HW226634   3.037   8.669   3.911  0.2104 -0.9309 -0.2441
 5434SOL     OW26635   3.704   0.634   2.973 -0.6424 -0.0964 -0.1475
 5434SOL    HW126636   3.688   0.536   2.984  1.7034 -0.3062  1.6194
 5434SOL    HW226637   3.720   0.654   2.876 -2.0095 -1.2974 -0.6457
 5435SOL     OW26638   3.415   0.581   1.679  0.3503  0.0661 -0.2049
 5435SOL    HW126639   3.346   0.649   1.656 -0.3859  0.5065  3.1112
 5435SOL    HW226640   3.373   0.490   1.679  0.5752 -0.0444 -1.4577
 5436SOL     OW26641   1.107   8.892   2.686 -0.0076 -0.3012  0.4638
 5436SOL    HW126642   1.172   8.816   2.689 -0.0928 -0.3327  2.0791
 5436SOL    HW226643   1.068   8.906   2.777 -3.2482 -1.1153 -0.7220
 5437SOL     OW26644   6.765   8.919   1.612  0.2604 -0.2886 -0.0113
 5437SOL    HW126645   6.844   8.945   1.556  0.6048 -0.5028  0.3708
 5437SOL    HW226646   6.747   8.821   1.600  0.4304 -0.3667  0.3707
 5438SOL     OW26647   9.428   0.321   0.846  0.8280 -0.0425  0.3857
 5438SOL    HW126648   9.364   0.397   0.835  0.0849 -0.4772  1.6252
 5438SOL    HW226649   9.467   0.298   0.757 -1.0236 -0.0098 -0.4761
 5439SOL     OW26650   1.428   3.661   0.684  0.0523  0.1306  0.7813
 5439SOL    HW126651   1.502   3.723   0.661  0.3583  0.0553  1.5355
 5439SOL    HW226652   1.341   3.710   0.682  0.1742  0.3270  0.3412
 5440SOL     OW26653   4.919   0.210   2.719  0.2547  0.6882 -0.3593
 5440SOL    HW126654   4.991   0.141   2.732  0.0157  0.0485 -2.1731
 5440SOL    HW226655   4.961   0.300   2.705  0.8256  0.0523 -3.0900
 5441SOL     OW26656   3.766   8.232   3.062 -0.0430 -0.3788  0.3202
 5441SOL    HW126657   3.708   8.152   3.079 -0.5353 -0.0933  0.0160
 5441SOL    HW226658   3.757   8.297   3.138 -0.5848 -0.0685 -0.0042
 5442SOL     OW26659   0.044   1.239   3.397  0.4243  0.6598 -0.4029
 5442SOL    HW126660  -0.031   1.299   3.423  1.6280  2.1266 -0.2676
 5442SOL    HW226661   0.013   1.176   3.326 -1.2622  0.4310  0.5059
 5443SOL     OW26662   4.054   2.269   0.833  0.2986  0.5402  0.3025
 5443SOL    HW126663   4.114   2.258   0.913 -0.2521  1.0718  0.7858
 5443SOL    HW226664   4.106   2.247   0.750  1.1699  1.0232  0.7146
 5444SOL     OW26665   8.039   1.442   1.111 -0.5103  0.3598  0.2524
 5444SOL    HW126666   8.010   1.351   1.081 -0.4496  0.8383 -1.2655
 5444SOL    HW226667   8.117   1.433   1.173 -0.8605 -0.6443  0.5582
 5445SOL     OW26668   2.861   4.377   1.672 -0.4893  0.7464 -0.0697
 5445SOL    HW126669   2.834   4.309   1.604 -0.3800  0.4928  0.1359
 5445SOL    HW226670   2.818   4.465   1.652 -1.2929  0.4001  0.1416
 5446SOL     OW26671   8.163   2.691   2.962 -0.0308 -0.1350  0.1767
 5446SOL    HW126672   8.171   2.791   2.953  0.8620 -0.2040  0.1673
 5446SOL    HW226673   8.116   2.670   3.048 -0.0356  0.2903  0.2845
 5447SOL     OW26674   3.587   3.543   0.067  0.1919 -0.1470 -0.2317
 5447SOL    HW126675   3.669   3.579   0.111 -1.1857  0.4132  1.9231
 5447SOL    HW226676   3.531   3.619   0.033 -0.8510 -0.3829  0.9236
 5448SOL     OW26677   5.586   9.155   3.404  0.0576 -0.3960  0.4740
 5448SOL    HW126678   5.515   9.114   3.347 -0.7085  0.3304  0.8932
 5448SOL    HW226679   5.666   9.096   3.405 -1.5034 -2.5389  2.1690
 5449SOL     OW26680   9.209   2.498   3.038  0.3020 -0.3425 -0.0162
 5449SOL    HW126681   9.136   2.430   3.024  0.7189 -1.3897  2.6670
 5449SOL    HW226682   9.246   2.525   2.949 -1.7320 -1.5609 -1.2933
 5450SOL     OW26683   7.680   9.339   3.895 -0.2269 -0.1921  0.4657
 5450SOL    HW126684   7.605   9.292   3.849 -0.3618  0.2886  0.2002
 5450SOL    HW226685   7.644   9.392   3.972 -0.2374  0.5195 -0.0256
 5451SOL     OW26686   2.752   2.963   3.490 -0.4371  0.1941  0.6079
 5451SOL    HW126687   2.744   2.864   3.505 -0.7984 -0.2446 -2.1348
 5451SOL    HW226688   2.696   3.012   3.556  0.3966 -1.3866  2.5337
 5452SOL     OW26689   8.090   3.499   0.902  0.6593  0.5067  0.2561
 5452SOL    HW126690   8.088   3.569   0.831 -3.5677 -0.4632 -0.7005
 5452SOL    HW226691   8.125   3.414   0.864 -0.2566  0.3797 -0.3258
 5453SOL     OW26692   7.322   2.371   4.040  0.2370  0.0778  0.0210
 5453SOL    HW126693   7.338   2.393   4.136 -0.8759 -1.7482  0.6584
 5453SOL    HW226694   7.255   2.436   4.001  0.2802  0.4804  0.6197
 5454SOL     OW26695   8.908   0.301   0.352  0.1409 -0.0214  0.2308
 5454SOL    HW126696   9.003   0.284   0.379 -0.0995 -1.4009  0.2532
 5454SOL    HW226697   8.852   0.222   0.377 -0.8934  0.5239 -0.3559
 5455SOL     OW26698   5.137   9.044   3.211 -0.0305 -0.4537  0.3949
 5455SOL    HW126699   5.108   8.986   3.135 -0.5399  0.1391  0.1381
 5455SOL    HW226700   5.076   9.123   3.219  0.6499  0.0437  0.7484
 5456SOL     OW26701   0.872   0.220   0.033  0.0312  0.1587 -0.5353
 5456SOL    HW126702   0.936   0.165  -0.020 -1.3454 -0.3148 -1.7075
 5456SOL    HW226703   0.812   0.161   0.087 -0.6764  0.5467 -0.8922
 5457SOL     OW26704   1.319   2.831   1.013  0.4289  0.0365  0.0656
 5457SOL    HW126705   1.324   2.923   1.053  3.0157 -0.0069 -0.0381
 5457SOL    HW226706   1.400   2.816   0.956 -0.6766 -1.8007 -1.0607
 5458SOL     OW26707   2.352   5.042   3.342  0.1510  0.2933  0.0442
 5458SOL    HW126708   2.415   5.039   3.419 -0.0104  1.9247  0.2418
 5458SOL    HW226709   2.320   4.949   3.321  1.3640 -0.3347  0.9619
 5459SOL     OW26710   1.812   8.453   0.754 -0.0389 -0.1967  0.0428
 5459SOL    HW126711   1.863   8.497   0.681 -0.1932 -0.3321 -0.1466
 5459SOL    HW226712   1.851   8.479   0.842  1.7174 -1.9928 -0.1646
 5460SOL     OW26713   1.306   1.304   3.426  0.0070  0.3353 -0.5380
 5460SOL    HW126714   1.349   1.239   3.364  0.3384 -0.8061  0.8742
 5460SOL    HW226715   1.369   1.328   3.499 -0.3566  1.7285 -0.6671
 5461SOL     OW26716   3.526   5.323   3.596 -0.5810  0.2006 -0.2494
 5461SOL    HW126717   3.528   5.232   3.637 -1.5396  0.1189 -0.3688
 5461SOL    HW226718   3.433   5.359   3.600 -0.1911  1.2063 -0.1447
 5462SOL     OW26719   3.441   2.358   2.754  0.1518 -0.4655 -0.5391
 5462SOL    HW126720   3.484   2.284   2.807 -0.5402 -0.3449  0.1848
 5462SOL    HW226721   3.372   2.404   2.810  1.8166  1.9043 -0.3646
 5463SOL     OW26722   9.634   9.985   1.052  0.3757  0.5863  0.1505
 5463SOL    HW126723   9.560  10.020   1.110 -0.1564  1.0307 -0.7951
 5463SOL    HW226724   9.602   9.904   1.003  0.4460  0.9051 -0.4216
 5464SOL     OW26725   9.700   9.064   2.701 -0.3061  0.0210 -0.6286
 5464SOL    HW126726   9.770   8.994   2.684 -1.9027 -1.4293 -1.3616
 5464SOL    HW226727   9.637   9.031   2.771 -1.2248  0.6178 -1.1687
 5465SOL     OW26728   1.163   7.099   1.820 -0.3158  0.5815 -0.1504
 5465SOL    HW126729   1.262   7.090   1.809 -0.4394 -0.5960 -0.3288
 5465SOL    HW226730   1.143   7.181   1.873  0.7047  1.4906 -1.1194
 5466SOL     OW26731   2.752   8.134   2.407  0.3945 -0.3199 -0.3862
 5466SOL    HW126732   2.807   8.143   2.490  1.0417 -2.0242 -0.6201
 5466SOL    HW226733   2.655   8.148   2.429  0.6739  0.3999  0.4304
 5467SOL     OW26734   1.578   6.384   2.812 -0.5066  0.5491 -0.3261
 5467SOL    HW126735   1.609   6.437   2.733 -0.5555  1.7596  0.4466
 5467SOL    HW226736   1.536   6.299   2.781  1.2717  0.0846 -1.4964
 5468SOL     OW26737   8.799   0.631   3.776 -0.8897 -0.2206 -0.4617
 5468SOL    HW126738   8.831   0.666   3.688  2.4447  0.0040  0.7783
 5468SOL    HW226739   8.759   0.707   3.829  0.2569  0.3685 -0.4232
 5469SOL     OW26740   8.695   0.159   1.046 -0.8712  0.6448 -0.4860
 5469SOL    HW126741   8.640   0.240   1.027 -3.1737 -0.6618  0.3822
 5469SOL    HW226742   8.635   0.082   1.066  1.2950 -0.8911  0.3156
 5470SOL     OW26743   2.234   6.764   2.342  0.2909 -0.1770  0.6886
 5470SOL    HW126744   2.320   6.810   2.322 -0.0426  0.2747  0.2885
 5470SOL    HW226745   2.245   6.707   2.424  1.5095 -1.6092 -0.4385
 5471SOL     OW26746   9.835   9.342   3.291  0.1327 -0.4207 -0.0694
 5471SOL    HW126747   9.831   9.319   3.194  1.4105  1.3127 -0.5552
 5471SOL    HW226748   9.930   9.336   3.322 -0.3984 -1.9439  1.3370
 5472SOL     OW26749   8.245   3.157   2.624  0.1050  0.6139  0.0502
 5472SOL    HW126750   8.324   3.149   2.684 -0.8007  0.6212  1.2735
 5472SOL    HW226751   8.188   3.075   2.634  0.6695 -0.0236 -1.8687
 5473SOL     OW26752   3.135   6.363   2.165 -0.0588  0.3897 -0.3438
 5473SOL    HW126753   3.118   6.297   2.092 -0.8936 -0.0384  0.2348
 5473SOL    HW226754   3.204   6.327   2.227 -0.3524  0.1584 -0.1517
 5474SOL     OW26755   4.245   2.471   1.860  0.6621 -0.6655 -0.4306
 5474SOL    HW126756   4.301   2.407   1.808 -0.1934 -1.0459 -0.8797
 5474SOL    HW226757   4.273   2.565   1.838 -0.2614 -0.7891 -2.2413
 5475SOL     OW26758   7.257   1.335   0.369  0.3402  0.0099  0.4036
 5475SOL    HW126759   7.280   1.257   0.427  0.8537  0.7684  1.2326
 5475SOL    HW226760   7.266   1.309   0.273  0.5221 -0.9483  0.6776
 5476SOL     OW26761   4.618   8.699   1.811  0.2063 -0.0425 -0.2887
 5476SOL    HW126762   4.619   8.601   1.831 -0.2891  0.4912  2.6130
 5476SOL    HW226763   4.706   8.727   1.774  0.6947 -1.3928 -0.1689
 5477SOL     OW26764   1.233   2.395   3.263  0.1471  0.4110  0.5685
 5477SOL    HW126765   1.161   2.436   3.207  0.2301 -0.4114 -0.1558
 5477SOL    HW226766   1.196   2.371   3.353 -0.1683  1.1050  0.6221
 5478SOL     OW26767   4.614   0.738   2.011  0.8340  0.0789  0.2188
 5478SOL    HW126768   4.536   0.801   2.011  1.4655  0.8759 -0.6627
 5478SOL    HW226769   4.629   0.703   2.104 -0.2852  0.2689  0.4792
 5479SOL     OW26770   1.099   8.692   3.027  0.2715 -0.2118  0.1640
 5479SOL    HW126771   1.042   8.636   3.087  1.4464  0.5845  2.1020
 5479SOL    HW226772   1.145   8.762   3.082  1.8119  0.2000 -1.6083
 5480SOL     OW26773   2.275   6.184   0.008 -0.1911 -0.3267 -0.5253
 5480SOL    HW126774   2.211   6.240   0.059 -0.4697 -0.3409 -0.8571
 5480SOL    HW226775   2.317   6.239  -0.064  0.7292 -0.1155  0.1647
 5481SOL     OW26776   8.517   0.715   2.782  0.1773  0.0141 -0.2082
 5481SOL    HW126777   8.455   0.642   2.753  0.0660  0.2716 -0.6173
 5481SOL    HW226778   8.496   0.799   2.732 -0.8351  0.7974  1.4958
 5482SOL     OW26779   9.468   2.103   2.009 -0.0249  0.3612  0.5253
 5482SOL    HW126780   9.457   2.202   2.018 -0.9222  0.3183 -0.0459
 5482SOL    HW226781   9.448   2.076   1.914  0.4378 -0.3347  0.6264
 5483SOL     OW26782   5.990   8.909   2.473 -0.3595  0.1264  0.1964
 5483SOL    HW126783   6.068   8.971   2.475 -1.8691  2.0217  2.2743
 5483SOL    HW226784   5.971   8.883   2.378  0.8315  2.1886 -0.6400
 5484SOL     OW26785   0.074   8.403   3.948 -0.4417  0.3718 -0.1653
 5484SOL    HW126786   0.122   8.323   3.914 -0.1323  1.4459 -2.4280
 5484SOL    HW226787   0.012   8.377   4.022 -0.9267 -2.0922 -1.3762
 5485SOL     OW26788   2.135   0.852   3.222 -0.0644  0.2986  0.4169
 5485SOL    HW126789   2.163   0.763   3.258 -0.2676  0.3372  0.6745
 5485SOL    HW226790   2.175   0.866   3.131  1.0112  0.5073  0.9260
 5486SOL     OW26791   2.822   4.199   1.885  0.3747 -0.4084  0.1738
 5486SOL    HW126792   2.859   4.106   1.885 -1.7114 -1.2669 -0.1216
 5486SOL    HW226793   2.859   4.250   1.808 -1.5574 -2.3091 -2.1076
 5487SOL     OW26794   1.018   7.206   4.030  0.3718 -0.4636 -0.1547
 5487SOL    HW126795   0.955   7.248   4.095  1.0925  0.1887  0.1261
 5487SOL    HW226796   1.006   7.248   3.940  1.1505  0.3982  0.1456
 5488SOL     OW26797   9.430   0.040   1.264  0.1220  0.5507  0.2200
 5488SOL    HW126798   9.389   0.079   1.346 -0.3331 -1.9124  1.2212
 5488SOL    HW226799   9.379   0.069   1.183 -1.2462  0.6016  1.0923
 5489SOL     OW26800   7.603   3.310   1.118  0.5449 -0.6674 -0.0311
 5489SOL    HW126801   7.632   3.229   1.067 -0.2418  0.6908 -2.7719
 5489SOL    HW226802   7.514   3.341   1.083  0.0680  0.4118  2.1004
 5490SOL     OW26803   2.913   0.434   1.895 -0.1479  0.1618  0.2073
 5490SOL    HW126804   2.853   0.372   1.946 -0.5983  0.3708 -0.0676
 5490SOL    HW226805   2.895   0.528   1.921 -1.7227  0.4180 -1.7166
 5491SOL     OW26806   3.124   5.002   1.741 -0.1789  0.8505  0.5529
 5491SOL    HW126807   3.122   4.944   1.823 -1.2847  1.6058  1.0752
 5491SOL    HW226808   3.191   5.075   1.754  0.1333  0.5723  0.5097
 5492SOL     OW26809   4.710   0.026   1.682  0.1701 -0.2594  0.2513
 5492SOL    HW126810   4.773   0.019   1.760 -0.3831  0.7783  0.7919
 5492SOL    HW226811   4.616   0.018   1.714 -0.0623  0.2365 -0.3087
 5493SOL     OW26812   0.089   9.473   0.919 -0.1063  0.0790  0.1632
 5493SOL    HW126813   0.084   9.428   1.009  0.5153 -0.3144  0.0088
 5493SOL    HW226814  -0.003   9.485   0.882 -0.4214  0.9985  1.2262
 5494SOL     OW26815   3.867   4.703   2.101  0.0656 -0.1143 -0.2899
 5494SOL    HW126816   3.822   4.668   2.183 -2.8532  0.7737 -1.4517
 5494SOL    HW226817   3.883   4.628   2.037  0.9383 -0.5557  0.4366
 5495SOL     OW26818   9.569   7.772   3.948 -0.2792 -0.1425  0.1646
 5495SOL    HW126819   9.613   7.843   4.004 -1.3663  1.0446 -0.4705
 5495SOL    HW226820   9.594   7.682   3.984 -0.7217  0.5903  2.4098
 5496SOL     OW26821   0.640   1.742   1.186 -0.0981 -0.6672 -0.6499
 5496SOL    HW126822   0.694   1.714   1.266 -1.5543  0.5772  0.7945
 5496SOL    HW226823   0.695   1.803   1.129  0.2708  0.0217  0.4342
 5497SOL     OW26824   0.763   9.715   2.562 -0.2718 -0.7737  0.1626
 5497SOL    HW126825   0.810   9.632   2.530 -0.6805 -0.0996 -2.2562
 5497SOL    HW226826   0.665   9.706   2.544 -0.3833  0.0022  0.3856
 5498SOL     OW26827   8.559   9.083   3.962  0.2190  0.0120  0.3561
 5498SOL    HW126828   8.640   9.062   3.907  0.8988  1.1273  0.8952
 5498SOL    HW226829   8.567   9.177   3.997 -1.6443  0.3892 -0.1646
 5499SOL     OW26830   4.047   9.383   3.373 -0.2185  0.1456 -0.0988
 5499SOL    HW126831   4.143   9.357   3.381  0.1046  0.5864 -2.2518
 5499SOL    HW226832   3.990   9.304   3.394  0.6384 -0.4656 -0.0260
 5500SOL     OW26833   3.040   1.388   2.747 -0.0763  0.1546  0.3969
 5500SOL    HW126834   3.045   1.488   2.740  1.6363 -0.0123 -1.2005
 5500SOL    HW226835   3.099   1.357   2.822  0.3253  0.2627  0.1281
 5501SOL     OW26836   2.915   3.379   0.559  0.4167  0.0180  0.2814
 5501SOL    HW126837   2.950   3.285   0.558 -1.9181 -0.8858  0.3790
 5501SOL    HW226838   2.925   3.419   0.468  3.8685  0.6380  0.8859
 5502SOL     OW26839   4.612   8.428   1.847  0.7981  0.4371 -0.5183
 5502SOL    HW126840   4.538   8.373   1.884  0.8929  2.2729  2.6038
 5502SOL    HW226841   4.700   8.387   1.872  0.8620  1.4903  1.0013
 5503SOL     OW26842   2.938   3.298   3.331  0.1059  0.0325 -0.1507
 5503SOL    HW126843   2.932   3.279   3.429 -0.4630  1.2233  0.0624
 5503SOL    HW226844   2.944   3.212   3.280 -0.7882 -0.6312  0.8458
 5504SOL     OW26845   1.098   0.586   1.905 -0.1750  0.1444  0.1977
 5504SOL    HW126846   1.152   0.531   1.841  0.5694  1.6380 -0.4699
 5504SOL    HW226847   1.158   0.632   1.969 -0.8390 -0.2690  1.1285
 5505SOL     OW26848   1.858   3.999   1.153  0.2712  0.2776  0.1356
 5505SOL    HW126849   1.782   3.947   1.192 -0.8100  2.3363  0.8880
 5505SOL    HW226850   1.852   3.998   1.054  0.6368 -1.5336  0.1137
 5506SOL     OW26851   1.735   4.696   0.072  0.0417 -0.1131 -0.4968
 5506SOL    HW126852   1.808   4.733   0.130  1.4469  0.5023 -2.6089
 5506SOL    HW226853   1.662   4.764   0.064  0.1965  0.1051 -0.0779
 5507SOL     OW26854   0.224   7.312   0.274 -0.3369 -0.4709 -0.0172
 5507SOL    HW126855   0.281   7.383   0.232 -1.7969  0.1464 -1.0179
 5507SOL    HW226856   0.222   7.325   0.373 -0.1438  0.5756 -0.1416
 5508SOL     OW26857   3.369   8.080   0.585 -0.2839 -0.1098  0.5956
 5508SOL    HW126858   3.446   8.070   0.647  0.2817  0.0225 -0.0799
 5508SOL    HW226859   3.299   8.012   0.608 -0.2685  0.2241  1.6403
 5509SOL     OW26860   7.356   8.448   2.050 -0.6014  0.1811 -0.3049
 5509SOL    HW126861   7.272   8.462   1.996  0.8610  3.8390 -1.7773
 5509SOL    HW226862   7.349   8.499   2.135  0.3071  0.9090 -0.6614
 5510SOL     OW26863   4.833   9.268   2.966 -0.5839 -0.2816 -0.9386
 5510SOL    HW126864   4.905   9.207   2.931 -1.0420 -1.1668 -0.3401
 5510SOL    HW226865   4.846   9.282   3.064  1.1823  2.8538 -1.5426
 5511SOL     OW26866   3.284   9.985   1.194 -1.0654 -0.0430 -0.1850
 5511SOL    HW126867   3.302   9.887   1.189 -1.8268 -0.1295 -1.3279
 5511SOL    HW226868   3.232  10.005   1.277 -3.7046 -1.0695 -1.5360
 5512SOL     OW26869   8.450   1.031   1.918 -0.6580  0.0412 -0.4009
 5512SOL    HW126870   8.441   0.932   1.922  0.0374  0.0188  1.0502
 5512SOL    HW226871   8.399   1.066   1.840 -4.6433 -1.0125  1.5616
 5513SOL     OW26872   9.956   0.631   2.141  0.1572  0.1407 -0.8790
 5513SOL    HW126873   9.960   0.532   2.159  0.4012  0.1262 -1.0154
 5513SOL    HW226874  10.030   0.657   2.080  1.5908  0.8266  1.1061
 5514SOL     OW26875   0.876   8.263   3.282 -0.5622  0.3211  0.3166
 5514SOL    HW126876   0.829   8.194   3.228  1.1004 -1.5533  1.2215
 5514SOL    HW226877   0.863   8.245   3.379  2.1015 -0.3114  0.5853
 5515SOL     OW26878   6.859   4.004   0.747 -0.5414  0.5846 -0.1815
 5515SOL    HW126879   6.809   3.920   0.725 -1.0833  0.7149  0.5224
 5515SOL    HW226880   6.883   4.004   0.845  0.9063  0.4921 -0.5265
 5516SOL     OW26881   9.969   9.932   2.725 -0.4041  0.8660 -0.7529
 5516SOL    HW126882   9.922   9.980   2.799  0.3058 -1.3388  1.1917
 5516SOL    HW226883  10.018   9.999   2.668 -0.2715  2.5428  1.2519
 5517SOL     OW26884   1.005   4.351   3.878 -0.4501  0.2143 -0.2665
 5517SOL    HW126885   0.954   4.319   3.798 -0.2844 -1.0093  0.1232
 5517SOL    HW226886   0.948   4.341   3.959 -0.1000  0.1829 -0.0275
 5518SOL     OW26887   4.883   9.901   3.550  0.0295  0.4688 -0.2858
 5518SOL    HW126888   4.940   9.883   3.470  3.4918  0.7622  1.9748
 5518SOL    HW226889   4.805   9.839   3.552  0.6615 -0.4529 -3.1155
 5519SOL     OW26890   2.536   3.239   3.531  1.2302  0.4309  0.3627
 5519SOL    HW126891   2.528   3.159   3.590 -1.9225  0.1084 -0.4491
 5519SOL    HW226892   2.471   3.309   3.560 -1.0325 -0.0854 -3.2084
 5520SOL     OW26893   3.744   9.916   1.336 -0.1129  0.3076  0.4113
 5520SOL    HW126894   3.772   9.929   1.241 -0.2834 -2.1791 -0.0034
 5520SOL    HW226895   3.825   9.905   1.394 -0.0744 -1.5895  0.0180
 5521SOL     OW26896   3.569   4.206   1.994  0.3136  0.8717  0.1265
 5521SOL    HW126897   3.667   4.186   1.995 -0.1435 -1.6250 -0.5963
 5521SOL    HW226898   3.535   4.212   2.087  0.2951 -3.0939  0.4576
 5522SOL     OW26899   3.801   2.066   1.925  0.2100  0.1016 -0.1660
 5522SOL    HW126900   3.835   2.143   1.872  2.6111  0.0375  1.2064
 5522SOL    HW226901   3.772   1.993   1.863 -0.1259  1.2742 -1.4230
 5523SOL     OW26902   1.243   7.887   0.026  0.1173 -0.1046  0.0497
 5523SOL    HW126903   1.143   7.882   0.030  0.1597 -0.2546  1.0537
 5523SOL    HW226904   1.281   7.795   0.025  0.2544 -0.0466 -0.1557
 5524SOL     OW26905   8.309   6.660   0.154 -0.1531 -0.2612  0.1182
 5524SOL    HW126906   8.257   6.742   0.130  1.6698  0.6401 -0.8418
 5524SOL    HW226907   8.276   6.625   0.242  0.2392  2.5437  1.4440
 5525SOL     OW26908   8.516   2.268   0.938 -0.0871  0.6663 -0.3782
 5525SOL    HW126909   8.568   2.182   0.938 -1.3178 -0.1126 -2.1341
 5525SOL    HW226910   8.552   2.329   1.009  1.7234 -0.7447 -0.0451
 5526SOL     OW26911   3.685   2.178   2.659 -0.5564  0.0976 -0.0516
 5526SOL    HW126912   3.758   2.240   2.686  1.1929 -1.0755 -1.9265
 5526SOL    HW226913   3.644   2.210   2.573 -0.5282 -0.6060 -0.3319
 5527SOL     OW26914   3.689   8.701   2.642  0.0084 -0.4735  0.2496
 5527SOL    HW126915   3.607   8.757   2.657 -0.7017 -1.2594 -0.5834
 5527SOL    HW226916   3.770   8.758   2.651 -0.5299 -0.0576  2.9128
 5528SOL     OW26917   4.479   9.696   2.598 -0.4532 -0.3363 -0.3250
 5528SOL    HW126918   4.405   9.644   2.556 -1.3716  1.6577 -1.2351
 5528SOL    HW226919   4.522   9.640   2.670 -3.0521 -1.4162  0.4619
 5529SOL     OW26920   0.583   3.004   1.693 -0.1441 -0.8840 -0.0774
 5529SOL    HW126921   0.496   3.037   1.656  0.8320 -0.5537 -2.1805
 5529SOL    HW226922   0.610   3.061   1.770 -1.1434 -0.1780 -0.2309
 5530SOL     OW26923   9.999   0.979   1.121  0.3250 -0.3095  0.1294
 5530SOL    HW126924   9.984   1.055   1.058  0.4757 -1.5232 -1.4202
 5530SOL    HW226925  10.054   1.010   1.198  0.3437  1.1605 -0.4569
 5531SOL     OW26926   2.456   4.580   0.513 -0.4809 -0.0364  0.5819
 5531SOL    HW126927   2.433   4.593   0.610 -2.0190 -1.6078  0.4590
 5531SOL    HW226928   2.480   4.484   0.498  0.9352  0.4557 -0.3803
 5532SOL     OW26929   1.245   0.364   0.528 -0.0441 -0.4232  0.5181
 5532SOL    HW126930   1.239   0.367   0.628  0.5547  0.2020  0.5443
 5532SOL    HW226931   1.209   0.277   0.495 -1.6354 -0.0172  1.1652
 5533SOL     OW26932   8.267   3.041   4.035  0.3233 -0.1163 -0.4679
 5533SOL    HW126933   8.273   3.139   4.020 -1.4723  0.0667 -0.1286
 5533SOL    HW226934   8.354   3.006   4.070  0.9079  1.3722 -0.4341
 5534SOL     OW26935   0.702   7.599   3.220  0.6031 -0.0202 -0.1380
 5534SOL    HW126936   0.676   7.660   3.145  0.5264  1.4287  1.0330
 5534SOL    HW226937   0.741   7.653   3.294 -1.1174 -1.1778  1.6674
 5535SOL     OW26938   1.677   8.949   2.765  0.2210  0.8834  0.3119
 5535SOL    HW126939   1.615   8.871   2.770 -0.1982  1.1270 -1.0159
 5535SOL    HW226940   1.695   8.982   2.858 -1.5732  0.7643  0.7369
 5536SOL     OW26941   0.528   0.465   0.447  0.2991 -0.2813  0.0942
 5536SOL    HW126942   0.453   0.439   0.508  1.2155 -1.3133  0.8155
 5536SOL    HW226943   0.587   0.532   0.493  0.6270 -0.5723  0.1023
 5537SOL     OW26944   6.073   8.657   2.029  0.4001 -0.0107 -0.0427
 5537SOL    HW126945   6.108   8.731   2.087 -0.7057  1.1441 -0.8212
 5537SOL    HW226946   5.974   8.667   2.018  0.3670 -1.1198 -0.8643
 5538SOL     OW26947   4.592   9.241   0.053 -0.0748 -0.0265 -0.0704
 5538SOL    HW126948   4.571   9.317  -0.008 -1.5905  0.5362  1.1046
 5538SOL    HW226949   4.605   9.157  -0.000 -1.7419  0.3760 -1.1597
 5539SOL     OW26950   8.010   8.226   3.533 -0.2964  0.1983  0.1129
 5539SOL    HW126951   8.070   8.223   3.454 -0.7345  0.2126 -0.2198
 5539SOL    HW226952   8.064   8.214   3.616 -0.0305 -1.4354 -0.2807
 5540SOL     OW26953   1.502   6.911   1.526  0.3706 -0.2352 -0.7911
 5540SOL    HW126954   1.503   6.928   1.625  2.6239 -0.8481 -0.6892
 5540SOL    HW226955   1.458   6.823   1.508  0.2777 -0.2911 -0.3088
 5541SOL     OW26956   3.118   3.225   2.700  0.2793  0.1459  0.2447
 5541SOL    HW126957   3.085   3.282   2.625 -0.8406  0.1335  0.7167
 5541SOL    HW226958   3.073   3.253   2.786  2.7799  1.2769  1.2248
 5542SOL     OW26959   4.768   1.370   1.950 -0.0708  0.0738 -0.2639
 5542SOL    HW126960   4.668   1.373   1.946 -0.0678  1.6776  0.5932
 5542SOL    HW226961   4.798   1.334   2.038  0.1215 -1.2267 -0.8417
 5543SOL     OW26962   9.573   8.695   2.000  0.1957 -0.5717 -0.8619
 5543SOL    HW126963   9.503   8.696   2.071 -2.0526  1.6422 -2.9921
 5543SOL    HW226964   9.647   8.757   2.024 -0.0389 -0.6428  0.0336
 5544SOL     OW26965   0.340   3.333   3.088  0.1127 -0.7204  0.2904
 5544SOL    HW126966   0.407   3.291   3.149  0.6439 -2.7043 -1.6469
 5544SOL    HW226967   0.385   3.398   3.028 -0.0490 -0.5219  0.3799
 5545SOL     OW26968   3.137   1.126   3.218  0.2676 -0.1138 -0.0376
 5545SOL    HW126969   3.198   1.055   3.253  1.4545  0.7636 -0.3216
 5545SOL    HW226970   3.182   1.215   3.222 -1.9071  0.9602  2.1873
 5546SOL     OW26971   2.327   2.766   0.889 -0.3873 -0.5706  0.4966
 5546SOL    HW126972   2.311   2.756   0.987 -1.8645 -2.3321  0.0899
 5546SOL    HW226973   2.247   2.808   0.847  1.1640  2.4164  0.3635
 5547SOL     OW26974   3.691   5.279   2.706 -0.4889  0.1427 -0.2081
 5547SOL    HW126975   3.745   5.247   2.784 -0.0196 -0.3828 -0.7440
 5547SOL    HW226976   3.655   5.371   2.725  1.9617  1.1839 -0.5124
 5548SOL     OW26977   3.830   0.224   1.041  0.0397  0.2872 -0.4443
 5548SOL    HW126978   3.809   0.299   1.104  0.5016 -0.5692  0.7485
 5548SOL    HW226979   3.751   0.163   1.034  0.3856 -0.2556  0.2367
 5549SOL     OW26980   0.916   2.646   3.995 -0.5933 -0.4972  0.0627
 5549SOL    HW126981   0.857   2.720   4.028  1.3822  1.2221 -0.1431
 5549SOL    HW226982   0.913   2.643   3.895  0.8715  0.6557 -0.0328
 5550SOL     OW26983   3.474   8.837   1.201  0.6468  0.0889  0.7959
 5550SOL    HW126984   3.468   8.756   1.260 -1.7990 -0.3481 -0.0182
 5550SOL    HW226985   3.532   8.906   1.245  0.4961 -1.0173  2.7819
 5551SOL     OW26986   6.297   9.465   2.320  0.4083  0.6432 -0.6285
 5551SOL    HW126987   6.329   9.509   2.235 -1.3558  0.2384 -1.5161
 5551SOL    HW226988   6.206   9.500   2.343 -0.5139 -1.6360 -0.6971
 5552SOL     OW26989   3.896   4.806   2.572 -0.5027  0.2882 -0.1781
 5552SOL    HW126990   3.866   4.871   2.502 -1.6807  0.9778  0.9397
 5552SOL    HW226991   3.993   4.820   2.592 -0.2741  0.3810 -1.3468
 5553SOL     OW26992   3.181   8.756   0.906 -0.0996 -0.0367 -0.5140
 5553SOL    HW126993   3.134   8.832   0.951  0.6083  0.4243 -0.5327
 5553SOL    HW226994   3.254   8.793   0.847  1.0239 -0.7718  0.3849
 5554SOL     OW26995   2.496   8.125   2.917 -0.1172  0.1713 -0.2048
 5554SOL    HW126996   2.499   8.200   2.851  1.1526  1.1975  0.9707
 5554SOL    HW226997   2.424   8.142   2.984  0.9682  0.9997  0.7809
 5555SOL     OW26998   2.237   4.522   2.511 -0.2255  0.2326 -0.0827
 5555SOL    HW126999   2.282   4.608   2.485 -0.0506  0.6410  1.4931
 5555SOL    HW227000   2.143   4.541   2.539 -1.0320 -0.4663 -2.2391
 5556SOL     OW27001   5.804   8.254   3.281 -0.4074  0.2094  0.0584
 5556SOL    HW127002   5.743   8.201   3.222 -1.1422  1.2408 -0.1089
 5556SOL    HW227003   5.830   8.198   3.360  0.4458 -1.1140 -1.1324
 5557SOL     OW27004   1.322   8.104   1.818 -0.5320  0.0340 -0.1100
 5557SOL    HW127005   1.392   8.134   1.882 -1.3485  1.1877  0.2520
 5557SOL    HW227006   1.358   8.028   1.763  0.9801  0.5900  0.0863
 5558SOL     OW27007   2.163   3.616   1.291  0.1154  0.7257  0.1949
 5558SOL    HW127008   2.197   3.702   1.253  1.3108  0.2287  0.1150
 5558SOL    HW227009   2.064   3.623   1.308  0.3977  2.4639  1.1731
 5559SOL     OW27010   0.356   1.879   0.248 -0.5041 -0.2374 -0.1620
 5559SOL    HW127011   0.396   1.872   0.156  0.0207 -0.6082  0.0932
 5559SOL    HW227012   0.370   1.793   0.297 -1.3959 -0.2880  0.0249
 5560SOL     OW27013   7.970   7.875   0.115 -0.3749 -0.1435 -0.2049
 5560SOL    HW127014   7.948   7.835   0.026  0.3730  0.5966 -0.7295
 5560SOL    HW227015   8.067   7.865   0.133 -0.0866  1.7772 -0.5374
 5561SOL     OW27016   3.358   4.646   0.851  0.0041  0.0670 -0.3686
 5561SOL    HW127017   3.401   4.721   0.800 -1.2756  0.5580 -0.7709
 5561SOL    HW227018   3.340   4.675   0.945  2.9055 -1.0452  0.5679
 5562SOL     OW27019   4.995   8.619   2.897  0.1582  0.0672  0.1781
 5562SOL    HW127020   4.950   8.655   2.815  1.3828  0.6020 -0.2726
 5562SOL    HW227021   5.078   8.569   2.871 -0.6347 -1.7013  0.9300
 5563SOL     OW27022   1.691   7.205   3.410  0.0940  0.3813  0.1831
 5563SOL    HW127023   1.605   7.235   3.370  1.0349 -0.8204 -2.8731
 5563SOL    HW227024   1.679   7.117   3.455 -0.3654  0.4557  0.2028
 5564SOL     OW27025   0.798   9.835   0.131  0.2342 -0.1830  0.1731
 5564SOL    HW127026   0.731   9.906   0.154  1.1669 -0.2471  3.2645
 5564SOL    HW227027   0.759   9.745   0.150 -0.3057 -0.4515 -2.0761
 5565SOL     OW27028   4.142   0.997   1.511 -0.3435  0.4921  0.1501
 5565SOL    HW127029   4.122   0.960   1.602 -1.4061  1.7541  0.4541
 5565SOL    HW227030   4.227   0.958   1.477  0.0180 -0.0771  1.6503
 5566SOL     OW27031   9.212   0.427   0.044  0.5196 -0.3701  0.5973
 5566SOL    HW127032   9.178   0.435   0.138 -1.1109  1.1623 -0.0842
 5566SOL    HW227033   9.177   0.504  -0.010 -0.0142 -2.1847 -1.6951
 5567SOL     OW27034   9.112   2.625   0.873 -1.2369  0.0117  0.3059
 5567SOL    HW127035   9.193   2.588   0.827 -1.1465 -1.6258  1.7493
 5567SOL    HW227036   9.042   2.645   0.805 -0.1525  0.0956 -0.8150
 5568SOL     OW27037   1.837   3.602   3.207  0.2613  0.3693  0.0608
 5568SOL    HW127038   1.805   3.690   3.173 -1.5223  0.1882  1.2108
 5568SOL    HW227039   1.807   3.589   3.301  1.2601 -1.0928  0.1962
 5569SOL     OW27040   0.545   2.672   0.897  0.4473  0.0074  0.0109
 5569SOL    HW127041   0.500   2.638   0.814 -0.0478  0.3558  0.1351
 5569SOL    HW227042   0.553   2.597   0.963  0.8776 -0.2817 -0.3613
 5570SOL     OW27043   3.238   7.564   0.870  0.6094 -0.1604 -0.0552
 5570SOL    HW127044   3.198   7.643   0.823  0.2392 -0.5994 -0.4791
 5570SOL    HW227045   3.241   7.582   0.968  1.4280  0.7833 -0.2336
 5571SOL     OW27046   0.536   9.647   3.166  0.0069  0.0963  0.7684
 5571SOL    HW127047   0.631   9.634   3.194 -0.1191 -1.7581  0.3708
 5571SOL    HW227048   0.491   9.710   3.230  1.4945  1.0242  0.9355
 5572SOL     OW27049   1.588   4.616   0.409  0.4950  0.3202 -0.4155
 5572SOL    HW127050   1.646   4.535   0.396  0.6724  0.0645  1.8090
 5572SOL    HW227051   1.643   4.698   0.394  0.4530  0.0424 -2.1466
 5573SOL     OW27052   2.594   2.866   3.035  0.2322  0.2435  0.0708
 5573SOL    HW127053   2.644   2.933   3.089 -0.3414 -0.1535  1.1233
 5573SOL    HW227054   2.507   2.905   3.005  0.3867  0.3409 -0.2494
 5574SOL     OW27055   3.412   2.748   2.057 -0.0964  0.1799  0.2270
 5574SOL    HW127056   3.426   2.796   1.970  1.6062  0.6119  0.7130
 5574SOL    HW227057   3.478   2.782   2.125 -0.4001 -1.2159  1.2488
 5575SOL     OW27058   2.894   9.839   0.942 -0.6904 -0.6571 -0.4865
 5575SOL    HW127059   2.804   9.852   0.983 -0.5093 -1.1874  0.0875
 5575SOL    HW227060   2.957   9.802   1.011 -0.9427 -3.7033 -1.8256
 5576SOL     OW27061   3.538   4.351   3.768 -0.2576  0.0350 -0.1389
 5576SOL    HW127062   3.591   4.435   3.753  0.7671 -0.5982 -0.1629
 5576SOL    HW227063   3.442   4.368   3.747 -0.1985  1.4206  0.6246
 5577SOL     OW27064   9.301   1.578   3.877 -0.0659  0.0166  0.0865
 5577SOL    HW127065   9.289   1.669   3.839  0.5814  0.6749  1.4227
 5577SOL    HW227066   9.335   1.516   3.806  1.8005  1.3884 -0.2540
 5578SOL     OW27067   1.648   5.346   1.300 -0.0100 -0.6898 -0.0152
 5578SOL    HW127068   1.653   5.446   1.290 -0.8722 -0.7031 -0.7130
 5578SOL    HW227069   1.587   5.323   1.376  0.1633 -0.6820  0.1254
 5579SOL     OW27070   7.871   8.137   0.167  0.4995  0.0147 -0.0857
 5579SOL    HW127071   7.789   8.105   0.214  1.0708  0.1479  1.0209
 5579SOL    HW227072   7.914   8.061   0.119 -0.7002  0.1112 -1.3199
 5580SOL     OW27073   4.243   9.782   0.059  0.6456  0.5440 -0.0103
 5580SOL    HW127074   4.269   9.686   0.046 -0.0412  0.6328 -2.2565
 5580SOL    HW227075   4.221   9.798   0.155 -0.8325 -1.9622  0.1136
 5581SOL     OW27076   3.570   8.132   3.802 -0.2236  0.0409  0.2058
 5581SOL    HW127077   3.652   8.185   3.821 -0.2201  0.5112 -1.0811
 5581SOL    HW227078   3.493   8.193   3.787 -0.1106 -0.2671 -1.8033
 5582SOL     OW27079   0.517   0.318   2.078 -0.1559  0.1768 -0.5503
 5582SOL    HW127080   0.589   0.257   2.109 -0.3576  0.4661  0.4915
 5582SOL    HW227081   0.490   0.292   1.985 -0.0608 -1.1564 -0.2195
 5583SOL     OW27082   7.670   8.656   3.343  0.2349 -0.3289  0.0070
 5583SOL    HW127083   7.731   8.606   3.282  1.6099 -0.5346  1.5272
 5583SOL    HW227084   7.723   8.706   3.411 -1.1064  3.0767 -1.3271
 5584SOL     OW27085   9.714   9.206   1.379  0.4042 -0.5410 -0.0769
 5584SOL    HW127086   9.786   9.222   1.447  0.8363 -2.8135  0.0349
 5584SOL    HW227087   9.658   9.129   1.408 -1.3092  0.3881 -0.8205
 5585SOL     OW27088   9.992   1.737   2.935 -0.9620  0.2888 -0.3932
 5585SOL    HW127089   9.972   1.705   3.028  1.4880 -1.8939 -0.5565
 5585SOL    HW227090  10.059   1.812   2.939  1.1497 -1.5478 -0.4736
 5586SOL     OW27091   4.228   0.994   0.680  0.1296 -0.8304  0.6465
 5586SOL    HW127092   4.231   1.088   0.713  2.9698 -1.1339  1.3921
 5586SOL    HW227093   4.222   0.994   0.580 -2.5376  0.0960  0.7685
 5587SOL     OW27094   6.327   0.296   2.579 -0.0322  0.1764 -0.3096
 5587SOL    HW127095   6.365   0.322   2.668  0.9356 -1.0277 -0.3526
 5587SOL    HW227096   6.350   0.200   2.560 -1.6576 -0.0734 -1.1045
 5588SOL     OW27097   3.173   6.375   3.945 -0.6274 -0.5125  0.4282
 5588SOL    HW127098   3.187   6.467   3.907 -2.2460 -0.5071 -0.2198
 5588SOL    HW227099   3.155   6.311   3.871 -2.6004 -0.7454  1.0840
 5589SOL     OW27100   1.332   0.105   3.208  0.6082  0.5292  0.4171
 5589SOL    HW127101   1.292   0.039   3.145 -1.4979  1.9014  0.2408
 5589SOL    HW227102   1.352   0.190   3.159  2.0387  0.4988  0.9187
 5590SOL     OW27103   2.338   1.320   3.595 -0.0869 -0.7589 -0.1969
 5590SOL    HW127104   2.256   1.339   3.542 -1.1281 -3.2282  0.4360
 5590SOL    HW227105   2.357   1.397   3.657 -2.1399 -0.3154 -0.0861
 5591SOL     OW27106   1.000   3.579   3.905  0.5966 -0.3378  0.3206
 5591SOL    HW127107   0.918   3.602   3.957 -0.8642 -0.1744 -1.9729
 5591SOL    HW227108   1.011   3.480   3.904  0.6344 -0.3388  0.9729
 5592SOL     OW27109   1.582   1.073   2.365 -0.4119  0.2090 -0.1288
 5592SOL    HW127110   1.548   1.001   2.306  1.7157 -0.0548 -1.0888
 5592SOL    HW227111   1.644   1.034   2.433  0.7102  1.1025 -0.6182
 5593SOL     OW27112   2.460   5.270   0.975 -0.3340  0.0559 -0.6568
 5593SOL    HW127113   2.466   5.194   0.910 -0.9023 -2.0351  1.6362
 5593SOL    HW227114   2.365   5.298   0.986 -0.9465 -3.1442  3.0943
 5594SOL     OW27115   4.448   2.338   1.719 -0.0211  0.4142 -0.0113
 5594SOL    HW127116   4.542   2.371   1.724 -0.3696  1.1419  2.5023
 5594SOL    HW227117   4.446   2.240   1.740  0.0076  0.7514  1.6238
 5595SOL     OW27118   4.271   0.882   1.197 -0.4434 -0.1424 -0.0852
 5595SOL    HW127119   4.299   0.886   1.101  1.8113 -0.8637  0.5004
 5595SOL    HW227120   4.247   0.974   1.229  0.1569  0.3235 -0.9629
 5596SOL     OW27121   8.050   0.886   0.697 -0.3064 -0.1520 -0.1884
 5596SOL    HW127122   8.117   0.939   0.748  1.1056 -1.9363 -0.1390
 5596SOL    HW227123   8.096   0.832   0.627 -1.5131 -2.4107  0.7164
 5597SOL     OW27124   2.692   6.360   1.732 -0.7097 -0.1822  0.1259
 5597SOL    HW127125   2.672   6.399   1.822 -0.0965  2.1140 -0.7008
 5597SOL    HW227126   2.634   6.403   1.663 -0.7318 -1.4754 -0.6892
 5598SOL     OW27127   9.506   8.565   2.925 -0.1332 -0.2846  0.1098
 5598SOL    HW127128   9.456   8.635   2.976 -0.2444 -0.9475  0.9131
 5598SOL    HW227129   9.442   8.511   2.871  0.1371  1.4120 -1.9812
 5599SOL     OW27130   3.225   5.412   0.141 -0.1187 -0.1764  0.1248
 5599SOL    HW127131   3.206   5.509   0.155  0.4842 -0.0214 -0.1238
 5599SOL    HW227132   3.239   5.368   0.230 -4.3129 -0.8652  0.5289
 5600SOL     OW27133   2.303   2.798   3.165  0.1034 -0.0502  0.2820
 5600SOL    HW127134   2.297   2.817   3.067  0.2807  0.7505  0.4276
 5600SOL    HW227135   2.381   2.739   3.183 -0.6856 -1.2673 -0.2188
 5601SOL     OW27136   7.850   2.001   3.481 -0.3091 -0.3708 -0.1649
 5601SOL    HW127137   7.917   2.062   3.440  0.3551 -0.9671  0.0164
 5601SOL    HW227138   7.762   2.012   3.435 -0.0414  0.2951 -0.5178
 5602SOL     OW27139   2.029   6.438   0.942  0.0912 -0.6768  0.3308
 5602SOL    HW127140   1.957   6.447   1.010  1.2269 -2.5742  1.8406
 5602SOL    HW227141   2.082   6.523   0.939 -1.7040  0.4519 -0.2623
 5603SOL     OW27142   2.687   9.921   2.282 -0.1797  0.9285  0.1472
 5603SOL    HW127143   2.659   9.922   2.378  2.1575 -0.3399  0.8842
 5603SOL    HW227144   2.613   9.885   2.226 -0.6070 -0.8970  1.8244
 5604SOL     OW27145   2.280   9.892   1.523  0.4695  0.3987  0.5617
 5604SOL    HW127146   2.316   9.799   1.521  0.3300  0.3525 -0.0607
 5604SOL    HW227147   2.325   9.944   1.596  0.8775 -0.0245  0.6144
 5605SOL     OW27148   9.333   2.505   1.884 -0.4125 -0.0206 -0.3388
 5605SOL    HW127149   9.246   2.481   1.927  0.0842 -0.8492  0.2176
 5605SOL    HW227150   9.363   2.430   1.826  0.7206 -0.3985  0.7274
 5606SOL     OW27151   0.737   1.274   1.826  0.2801  0.0240  0.5145
 5606SOL    HW127152   0.788   1.344   1.776  0.1316 -1.0294 -1.1517
 5606SOL    HW227153   0.798   1.198   1.848 -0.4184 -0.9645 -0.9449
 5607SOL     OW27154   2.532   8.273   3.218  0.0173 -0.6891 -0.2245
 5607SOL    HW127155   2.486   8.219   3.148 -0.3940  0.7841 -1.1297
 5607SOL    HW227156   2.630   8.257   3.213  0.3109  1.5753 -3.1324
 5608SOL     OW27157   5.527   8.854   3.016 -0.6108 -0.1341  0.4574
 5608SOL    HW127158   5.592   8.781   3.037  0.0577 -0.1530 -1.5097
 5608SOL    HW227159   5.538   8.928   3.081  2.1157  0.2937 -0.4126
 5609SOL     OW27160   8.207   9.180   1.281  0.1625 -0.2243  0.0735
 5609SOL    HW127161   8.110   9.177   1.256  0.0390  0.7317  0.4150
 5609SOL    HW227162   8.262   9.138   1.209 -0.4776 -0.4432 -0.2881
 5610SOL     OW27163   9.634   2.581   0.405  0.2058 -0.4146 -0.2497
 5610SOL    HW127164   9.682   2.562   0.320  0.7207 -2.6899  0.5137
 5610SOL    HW227165   9.541   2.544   0.400 -0.4922  1.3600 -0.6173
 5611SOL     OW27166   2.334   7.274   3.532  0.2816  0.1507  0.0801
 5611SOL    HW127167   2.366   7.180   3.529  1.0170  0.4359 -1.4117
 5611SOL    HW227168   2.393   7.329   3.591 -0.7764 -0.5387  1.8156
 5612SOL     OW27169   8.552   2.418   3.922 -0.1121 -0.1577  0.1491
 5612SOL    HW127170   8.623   2.409   3.992 -1.7894  2.2910  2.2770
 5612SOL    HW227171   8.582   2.483   3.852  0.2986 -0.1889  0.2940
 5613SOL     OW27172   1.467   8.110   3.744  0.4431  0.4044  0.2116
 5613SOL    HW127173   1.450   8.182   3.678 -0.4849 -0.7691 -0.8556
 5613SOL    HW227174   1.509   8.149   3.826 -0.7695  2.2564 -0.0198
 5614SOL     OW27175   9.353   8.404   1.268 -0.5249  0.2255  0.6265
 5614SOL    HW127176   9.450   8.419   1.254 -0.2531  0.6737  2.7177
 5614SOL    HW227177   9.329   8.309   1.248  0.1772  0.3219 -0.6728
 5615SOL     OW27178   2.901   4.410   1.271 -0.5700  0.3217  0.2131
 5615SOL    HW127179   2.899   4.499   1.225  1.5801  0.7929  0.9537
 5615SOL    HW227180   2.857   4.417   1.361 -3.1589 -0.1539 -0.9815
 5616SOL     OW27181   4.073   8.254   0.593 -0.6650 -0.7939  0.1848
 5616SOL    HW127182   4.001   8.274   0.525 -0.8512 -0.8717  0.3593
 5616SOL    HW227183   4.139   8.329   0.593 -0.4873 -0.9459 -0.3121
 5617SOL     OW27184   2.197   0.111   3.834 -0.1436  0.3751  0.1903
 5617SOL    HW127185   2.109   0.121   3.881  0.8714 -0.4970  2.3014
 5617SOL    HW227186   2.260   0.181   3.866  0.7030 -0.5151  0.4733
 5618SOL     OW27187   4.028   9.949   1.529 -0.2153  0.2618 -0.2523
 5618SOL    HW127188   3.995   9.987   1.615  1.2163  1.0284 -0.0187
 5618SOL    HW227189   4.002   9.853   1.523  0.3113 -0.0072  1.4032
 5619SOL     OW27190   7.982   2.034   2.649 -0.4884  0.3134 -0.7284
 5619SOL    HW127191   8.072   2.041   2.692  0.2320 -0.1001 -2.1330
 5619SOL    HW227192   7.964   1.939   2.624 -1.4139  0.3588 -0.2620
 5620SOL     OW27193   8.328   1.640   1.965 -0.9661  0.2285 -0.1379
 5620SOL    HW127194   8.300   1.683   2.051  1.1566  0.7159  0.3506
 5620SOL    HW227195   8.282   1.552   1.954 -1.0616  0.0582  1.6084
 5621SOL     OW27196   2.913   2.830   0.754  0.3285  0.4130 -0.3282
 5621SOL    HW127197   2.823   2.810   0.792  0.3395  0.1697 -0.4250
 5621SOL    HW227198   2.983   2.781   0.807  0.2430 -0.9368 -1.4089
 5622SOL     OW27199   1.363   4.219   0.022  0.1731 -0.4441 -0.5849
 5622SOL    HW127200   1.384   4.225   0.119 -1.4700 -0.6404 -0.1925
 5622SOL    HW227201   1.358   4.311  -0.017  1.2556 -0.3808 -0.5910
 5623SOL     OW27202   8.973   1.396   0.466 -0.2038  0.0427 -0.0304
 5623SOL    HW127203   9.063   1.395   0.422 -0.2285  1.4278 -0.1559
 5623SOL    HW227204   8.906   1.353   0.405  0.1820 -0.0537 -0.3908
 5624SOL     OW27205   2.265   8.973   0.281 -0.4699  0.5229  0.2535
 5624SOL    HW127206   2.294   9.024   0.362  2.3523  1.6057 -1.3285
 5624SOL    HW227207   2.280   9.030   0.200 -0.1474 -1.7235 -1.3027
 5625SOL     OW27208   1.402   7.143   3.510  0.4093 -0.3664  0.0181
 5625SOL    HW127209   1.465   7.066   3.525  1.6709 -0.0794 -3.3539
 5625SOL    HW227210   1.367   7.140   3.416 -2.8227  0.8323  1.1278
 5626SOL     OW27211   2.771   7.820   0.529 -0.3678  0.4789 -0.5812
 5626SOL    HW127212   2.816   7.770   0.455  2.4965  4.0024 -1.3236
 5626SOL    HW227213   2.703   7.883   0.490 -1.6721 -0.4746  0.1144
 5627SOL     OW27214   4.287   0.631   1.879 -0.0528  0.1612 -0.1544
 5627SOL    HW127215   4.218   0.613   1.809  0.7000  1.8759 -1.3833
 5627SOL    HW227216   4.365   0.570   1.866 -0.0950  0.1902 -0.5498
 5628SOL     OW27217   8.438   8.698   1.899  0.3543 -0.0530 -0.1910
 5628SOL    HW127218   8.500   8.635   1.853  1.3508  0.3964  0.5143
 5628SOL    HW227219   8.349   8.696   1.854  1.4187  0.7066 -2.4503
 5629SOL     OW27220   3.809   2.298   1.774  0.1169  0.4652  0.5283
 5629SOL    HW127221   3.725   2.344   1.802 -0.9236  0.4457 -2.4149
 5629SOL    HW227222   3.886   2.335   1.827 -0.9490  4.2468 -0.4074
 5630SOL     OW27223   0.243   8.876   3.168  0.6674 -0.0034  0.0336
 5630SOL    HW127224   0.274   8.968   3.190 -0.1144  0.3097 -0.1293
 5630SOL    HW227225   0.286   8.846   3.083  0.2145  0.5849 -0.4077
 5631SOL     OW27226   3.056   1.967   4.021  0.3126 -0.3165  0.3108
 5631SOL    HW127227   2.977   2.007   4.068  1.7351  0.8808  1.7520
 5631SOL    HW227228   3.139   2.017   4.047  1.6942 -2.1824 -0.3951
 5632SOL     OW27229   2.725   8.721   1.656  0.6396 -0.2826 -0.1186
 5632SOL    HW127230   2.704   8.814   1.627  0.3364 -0.5726 -0.8207
 5632SOL    HW227231   2.756   8.667   1.577 -1.5646 -1.4760 -0.2137
 5633SOL     OW27232   2.212   8.568   3.630 -0.4489 -0.4500 -0.2966
 5633SOL    HW127233   2.116   8.553   3.605 -0.4044  1.4997 -1.8102
 5633SOL    HW227234   2.218   8.647   3.692  0.3161  0.5072 -1.5676
 5634SOL     OW27235   3.279   5.411   3.632  0.0019  0.0677  0.3411
 5634SOL    HW127236   3.307   5.478   3.564  0.2013 -0.9319 -0.5751
 5634SOL    HW227237   3.243   5.329   3.587 -1.3345  0.0133  1.4654
 5635SOL     OW27238   4.192   3.267   0.232 -0.1903 -0.3448  0.0531
 5635SOL    HW127239   4.163   3.177   0.264 -1.3946  0.1264  0.3165
 5635SOL    HW227240   4.140   3.291   0.150  0.9925 -0.4011 -0.7340
 5636SOL     OW27241   4.521   0.938   2.644 -0.1559 -0.2040  0.2943
 5636SOL    HW127242   4.533   0.850   2.598 -1.4537 -0.3625  0.2453
 5636SOL    HW227243   4.435   0.938   2.695  0.1114  0.8268  0.7615
 5637SOL     OW27244   3.518   8.185   3.492  0.1064 -1.1796 -0.0213
 5637SOL    HW127245   3.612   8.166   3.521  0.6645  3.8753  1.8550
 5637SOL    HW227246   3.514   8.185   3.392  1.8306 -2.4126 -0.1204
 5638SOL     OW27247   2.544   8.863   3.520 -0.0279  0.3565  0.1642
 5638SOL    HW127248   2.456   8.888   3.480 -0.6865 -1.2199  0.6046
 5638SOL    HW227249   2.600   8.818   3.450 -0.1160  0.0920  0.2640
 5639SOL     OW27250   1.304   1.723   2.130 -0.0505  0.1643  0.2311
 5639SOL    HW127251   1.210   1.693   2.145 -0.5530  2.2337  1.4586
 5639SOL    HW227252   1.309   1.823   2.139  2.5653 -0.0624  1.8342
 5640SOL     OW27253   4.129   9.445   0.045 -0.2426  0.1606  0.6112
 5640SOL    HW127254   4.088   9.392   0.119 -0.3596  1.6913  1.6747
 5640SOL    HW227255   4.060   9.467  -0.023 -0.2057 -0.9873  0.1938
 5641SOL     OW27256   3.404   4.818   1.276  0.0275  0.2229  0.3321
 5641SOL    HW127257   3.324   4.757   1.278  0.8963 -0.9294  0.4515
 5641SOL    HW227258   3.441   4.826   1.369  0.1575  0.6342  0.2465
 5642SOL     OW27259   7.900   1.011   0.428  0.0343  0.5080  0.0927
 5642SOL    HW127260   7.964   0.988   0.501 -1.8056 -2.2682  0.8745
 5642SOL    HW227261   7.837   1.082   0.459  0.1755  0.3643  0.6991
 5643SOL     OW27262   4.893   8.217   2.403 -0.3345  0.6825 -0.5127
 5643SOL    HW127263   4.972   8.236   2.461  0.7677  1.1370 -2.1291
 5643SOL    HW227264   4.810   8.245   2.451  0.5102  0.7380  0.9716
 5644SOL     OW27265   3.814   1.796   1.508 -0.0885 -0.7199  0.4202
 5644SOL    HW127266   3.825   1.839   1.418 -3.1353 -1.6294 -0.4614
 5644SOL    HW227267   3.891   1.821   1.566  0.9511  1.5215 -1.7877
 5645SOL     OW27268   8.711   1.490   2.930 -0.0043 -0.4745  0.2988
 5645SOL    HW127269   8.799   1.508   2.973 -0.7539  0.1406  1.5776
 5645SOL    HW227270   8.656   1.574   2.927 -0.1124 -0.5724 -1.5413
 5646SOL     OW27271   3.318   1.025   0.307 -0.2062  0.2370 -0.0158
 5646SOL    HW127272   3.309   1.114   0.352  0.0466 -0.4165  1.3675
 5646SOL    HW227273   3.234   0.972   0.321  1.0178 -1.1541  2.3819
 5647SOL     OW27274   9.318   2.583   1.560  0.5400  0.4377 -0.7315
 5647SOL    HW127275   9.228   2.598   1.518  0.2195 -0.4515 -0.3840
 5647SOL    HW227276   9.306   2.548   1.653  1.2494  1.5345 -0.2074
 5648SOL     OW27277   8.627   0.435   2.650  0.3231  0.2991 -0.8549
 5648SOL    HW127278   8.599   0.414   2.743  0.6006  1.8899 -0.4115
 5648SOL    HW227279   8.714   0.390   2.631  0.4683  0.3131 -0.2201
 5649SOL     OW27280   1.924   6.049   3.578  0.1444 -0.6064 -0.5983
 5649SOL    HW127281   1.867   5.973   3.547  0.0074 -0.7994  0.1219
 5649SOL    HW227282   1.979   6.020   3.656  0.9142 -0.2903 -1.0067
 5650SOL     OW27283   3.317   0.509   2.670 -0.0680  0.4285 -0.2679
 5650SOL    HW127284   3.332   0.455   2.753  1.9358  0.7648 -0.3933
 5650SOL    HW227285   3.322   0.607   2.693  1.5510  0.5212 -0.9454
 5651SOL     OW27286   1.525   0.035   3.627  0.1040  1.0414 -0.6785
 5651SOL    HW127287   1.528   0.134   3.641 -0.8231  0.9980 -0.1732
 5651SOL    HW227288   1.618  -0.003   3.635  0.1119  1.5315  1.6361
 5652SOL     OW27289   9.037   9.627   1.435  0.3278 -0.3026  0.5214
 5652SOL    HW127290   8.948   9.641   1.391  0.5227 -0.2228  0.1478
 5652SOL    HW227291   9.105   9.685   1.391  0.2239  0.9441  1.9558
 5653SOL     OW27292   4.898   0.522   2.225 -0.0773 -0.2331  0.4824
 5653SOL    HW127293   4.897   0.561   2.316  0.3037 -0.8617  0.7613
 5653SOL    HW227294   4.937   0.588   2.160 -0.9645  0.4624  0.6518
 5654SOL     OW27295   1.937   8.774   3.554 -0.0030  0.5949  0.0349
 5654SOL    HW127296   1.949   8.873   3.544 -0.3612  0.4926 -1.4905
 5654SOL    HW227297   1.918   8.753   3.650  1.4566  1.8501  0.6369
 5655SOL     OW27298   1.281   0.953   1.788 -0.3548 -0.8871  0.3739
 5655SOL    HW127299   1.284   0.953   1.888  1.8991 -1.4500  0.3292
 5655SOL    HW227300   1.231   1.034   1.757  1.5606  0.9676  1.9309
 5656SOL     OW27301   2.037   3.835   3.793 -0.9554 -0.6682  0.5570
 5656SOL    HW127302   2.136   3.849   3.781 -0.8042 -0.2679  2.1361
 5656SOL    HW227303   1.988   3.919   3.770 -1.0709 -1.3498 -1.7550
 5657SOL     OW27304   1.314   8.696   0.525 -0.1664 -0.2526  0.3035
 5657SOL    HW127305   1.232   8.643   0.546 -0.9572  0.7995 -0.0768
 5657SOL    HW227306   1.311   8.727   0.430  1.0631 -0.8868  0.0507
 5658SOL     OW27307   3.927   8.564   2.851 -0.1553 -0.4471  0.5121
 5658SOL    HW127308   3.969   8.580   2.940  0.6803 -0.1982  0.0796
 5658SOL    HW227309   3.914   8.651   2.804 -0.2432 -0.6066  0.2404
 5659SOL     OW27310   2.045   5.517   4.000 -0.7619  0.1724  0.0133
 5659SOL    HW127311   2.042   5.439   4.063 -4.0137  0.7868  0.7665
 5659SOL    HW227312   2.020   5.600   4.050  3.2612  1.8503 -0.6423
 5660SOL     OW27313   7.282   9.879   1.105 -0.9706 -0.0326 -0.2624
 5660SOL    HW127314   7.260   9.832   1.019 -1.9125  0.4005 -0.2554
 5660SOL    HW227315   7.266   9.817   1.182  0.9693 -0.8101 -0.4572
 5661SOL     OW27316   1.957   4.397   2.790  0.7134 -0.3353  0.4016
 5661SOL    HW127317   2.046   4.383   2.746  0.9585  1.8884  0.0947
 5661SOL    HW227318   1.886   4.399   2.719  0.3312 -2.7162  0.7052
 5662SOL     OW27319   1.548   2.672   2.046 -0.6169 -0.5504  0.4724
 5662SOL    HW127320   1.637   2.628   2.033 -0.5366 -0.5657  1.0333
 5662SOL    HW227321   1.516   2.710   1.960  0.7991  1.0845  0.6349
 5663SOL     OW27322   3.640   2.489   3.725  0.3662 -0.9082  0.3884
 5663SOL    HW127323   3.572   2.491   3.798 -1.2346 -0.0801 -1.0797
 5663SOL    HW227324   3.702   2.567   3.734  0.4004 -1.0119  1.0588
 5664SOL     OW27325   4.769   0.365   3.565 -0.4593  0.0665 -0.4661
 5664SOL    HW127326   4.683   0.377   3.615  1.3073 -0.8803  2.9433
 5664SOL    HW227327   4.783   0.268   3.547  0.3876  0.1174 -0.0799
 5665SOL     OW27328   1.385   1.901   2.486  0.4784 -0.4632  0.5074
 5665SOL    HW127329   1.397   1.911   2.388  0.6337 -1.3462  0.4267
 5665SOL    HW227330   1.474   1.909   2.531  0.3517  0.3546  0.6191
 5666SOL     OW27331   3.637   1.332   0.079 -0.1010 -0.2597  0.2210
 5666SOL    HW127332   3.566   1.401   0.066 -0.8819 -0.7669  1.6020
 5666SOL    HW227333   3.612   1.273   0.156  0.6854 -1.9135 -0.7617
 5667SOL     OW27334   3.335   7.583   1.767  0.3599 -0.7185  0.2968
 5667SOL    HW127335   3.354   7.607   1.861  0.1585 -0.3746  0.2520
 5667SOL    HW227336   3.286   7.495   1.764 -0.2116 -0.4132  0.5542
 5668SOL     OW27337   9.228   1.456   0.081  0.8749  0.6706 -0.1384
 5668SOL    HW127338   9.140   1.436   0.038  1.7909 -0.6528 -1.4474
 5668SOL    HW227339   9.287   1.504   0.016  1.2621  1.2172  0.6028
 5669SOL     OW27340   2.002   8.212   2.641  0.8927  0.1180 -0.2914
 5669SOL    HW127341   2.088   8.257   2.615 -0.5475  3.1066 -0.0579
 5669SOL    HW227342   1.975   8.148   2.570  1.9284  1.1872 -1.6833
 5670SOL     OW27343   9.334   0.615   0.994  0.5282 -0.2695  0.1432
 5670SOL    HW127344   9.428   0.611   1.028  0.9145 -0.6087 -0.9473
 5670SOL    HW227345   9.330   0.573   0.904 -1.1829 -2.6445  1.2835
 5671SOL     OW27346   0.082   2.673   0.804  0.0335  0.1684 -0.4770
 5671SOL    HW127347   0.106   2.703   0.712 -0.8533 -0.1881 -0.8262
 5671SOL    HW227348   0.140   2.595   0.830 -0.7237 -0.6975 -1.3240
 5672SOL     OW27349   8.444   0.862   0.432  0.5920  0.9251  0.3613
 5672SOL    HW127350   8.361   0.827   0.476  0.7061  0.0247 -0.1297
 5672SOL    HW227351   8.419   0.913   0.350  0.4460  1.7273  0.8993
 5673SOL     OW27352   2.419   2.634   2.823 -0.1946 -0.0191 -0.2756
 5673SOL    HW127353   2.462   2.596   2.742  1.5090 -1.2570  1.1704
 5673SOL    HW227354   2.409   2.562   2.892  0.4606  1.5009  1.4433
 5674SOL     OW27355   7.435   9.300   3.708  0.1126  0.0744  0.2136
 5674SOL    HW127356   7.362   9.241   3.742  1.1628 -0.6937  1.2024
 5674SOL    HW227357   7.422   9.317   3.610 -0.7054 -1.0564  0.1160
 5675SOL     OW27358   8.492   3.213   1.902 -0.2519 -0.0520 -0.4971
 5675SOL    HW127359   8.412   3.216   1.961  1.9019 -1.0659  2.5722
 5675SOL    HW227360   8.529   3.305   1.891 -1.6399  0.3785 -1.6970
 5676SOL     OW27361   2.992   2.661   3.906  0.4920 -0.2729  0.3359
 5676SOL    HW127362   3.068   2.669   3.841  0.1635  0.6631  0.0580
 5676SOL    HW227363   2.961   2.753   3.932 -1.8284 -0.6299 -1.0516
 5677SOL     OW27364   7.528   2.292   1.082 -0.2726 -0.2210 -0.0445
 5677SOL    HW127365   7.519   2.217   1.147 -2.2417 -1.4049 -1.6351
 5677SOL    HW227366   7.477   2.271   0.998  1.5100  1.6292 -1.6663
 5678SOL     OW27367   7.507   9.004   3.140 -0.0542  0.0154  0.1924
 5678SOL    HW127368   7.489   9.100   3.120 -2.1266 -0.7994 -2.0918
 5678SOL    HW227369   7.587   8.973   3.088 -1.3471 -0.3265 -1.6184
 5679SOL     OW27370   5.043   9.868   1.847  0.0519 -0.2510 -0.1368
 5679SOL    HW127371   5.114   9.811   1.889  1.1991  0.4018 -1.1378
 5679SOL    HW227372   4.988   9.812   1.784  0.9153 -0.3509 -0.8141
 5680SOL     OW27373   4.824   7.614   2.339  0.1688  0.1360 -0.0002
 5680SOL    HW127374   4.846   7.682   2.409 -0.4597  1.1823 -0.8082
 5680SOL    HW227375   4.902   7.552   2.327  0.6448  0.5481  0.9383
 5681SOL     OW27376   1.125   9.933   1.355 -0.3109  1.0353  0.2886
 5681SOL    HW127377   1.075   9.971   1.433 -1.2573 -1.1446  0.7993
 5681SOL    HW227378   1.214   9.900   1.387 -0.7846 -0.0534  0.5294
 5682SOL     OW27379   3.353   5.182   2.973  0.3526  0.4082  0.0944
 5682SOL    HW127380   3.341   5.204   3.070  0.3445  0.5916  0.0518
 5682SOL    HW227381   3.300   5.246   2.917  0.8713  0.7044 -0.0579
 5683SOL     OW27382   3.776   0.230   1.919 -0.3564  0.0470 -0.3823
 5683SOL    HW127383   3.762   0.329   1.909  1.5824  0.5703  1.7588
 5683SOL    HW227384   3.763   0.204   2.014 -1.1372 -1.8514 -0.9858
 5684SOL     OW27385   8.864   4.642   0.927 -0.6869  0.4738 -0.0248
 5684SOL    HW127386   8.765   4.634   0.939 -0.7940 -0.2078 -1.3231
 5684SOL    HW227387   8.885   4.679   0.837  0.2451  0.7087  0.2736
 5685SOL     OW27388   2.414   8.564   1.134 -0.0080  0.0104 -0.0867
 5685SOL    HW127389   2.418   8.502   1.212  0.3732  0.0659 -0.0624
 5685SOL    HW227390   2.318   8.576   1.106 -0.2103  0.5314  0.8014
 5686SOL     OW27391   2.975   7.737   1.972  0.8233  1.0033  0.2006
 5686SOL    HW127392   2.915   7.728   2.051  0.8065  2.3616  0.3646
 5686SOL    HW227393   3.050   7.799   1.995  2.3758 -0.7765  0.0448
 5687SOL     OW27394   1.813   1.071   2.775 -0.3961 -0.4205  0.4748
 5687SOL    HW127395   1.728   1.023   2.752 -1.5053  0.9415  1.6841
 5687SOL    HW227396   1.875   1.069   2.696 -1.5260 -1.4446 -0.4031
 5688SOL     OW27397   1.293   6.692   1.648  0.0044  0.1194 -0.0626
 5688SOL    HW127398   1.368   6.651   1.596  1.2993  0.0706  1.8150
 5688SOL    HW227399   1.323   6.709   1.742 -3.0197 -2.0096  1.3825
 5689SOL     OW27400   6.782   9.279   3.027 -0.0381 -0.2743 -0.1422
 5689SOL    HW127401   6.796   9.371   2.992  0.5782 -0.0396  0.7089
 5689SOL    HW227402   6.736   9.283   3.116 -0.2758 -0.7902 -0.2413
 5690SOL     OW27403   4.636   8.667   3.850  0.3438 -0.3396 -0.1987
 5690SOL    HW127404   4.648   8.712   3.938  1.0605 -1.1543  0.1267
 5690SOL    HW227405   4.672   8.725   3.777  0.4507 -0.0015  0.1246
 5691SOL     OW27406   3.743   1.701   0.548 -0.1960 -0.0600 -0.2589
 5691SOL    HW127407   3.830   1.718   0.593  0.9498  0.1411 -2.4987
 5691SOL    HW227408   3.668   1.722   0.612  1.3541  0.0320  1.5833
 5692SOL     OW27409   4.391   1.306   2.418  0.7484 -0.2078 -0.2701
 5692SOL    HW127410   4.410   1.275   2.325  1.4473 -0.4386 -0.0530
 5692SOL    HW227411   4.341   1.235   2.468 -0.2495  0.1952 -0.6817
 5693SOL     OW27412   1.469   6.756   1.160 -0.1429 -0.6063  0.2897
 5693SOL    HW127413   1.437   6.844   1.125  1.3455 -0.9068 -2.0006
 5693SOL    HW227414   1.554   6.731   1.113 -0.7191 -3.4164  0.6488
 5694SOL     OW27415   0.071   1.097   3.824 -0.3606  0.8296 -0.3052
 5694SOL    HW127416   0.075   1.011   3.773  1.1106  0.7193 -0.0126
 5694SOL    HW227417   0.093   1.173   3.763 -0.5929  0.9010 -0.3029
 5695SOL     OW27418   1.256   4.554   3.570  0.2651 -0.6204 -0.8709
 5695SOL    HW127419   1.351   4.561   3.602  0.2031 -2.4437 -0.2488
 5695SOL    HW227420   1.217   4.468   3.601 -0.9109 -0.8676 -2.9975
 5696SOL     OW27421   4.202   2.174   1.989 -0.4720  0.7925 -0.7045
 5696SOL    HW127422   4.162   2.266   1.984 -0.7925  0.8246  1.7903
 5696SOL    HW227423   4.130   2.108   2.009 -0.1437  0.0470 -1.9129
 5697SOL     OW27424   9.156   2.766   3.110 -0.1012 -0.1207 -0.5679
 5697SOL    HW127425   9.078   2.804   3.061  1.3071  0.3415 -2.5357
 5697SOL    HW227426   9.152   2.666   3.108 -1.6804 -0.1288  1.1215
 5698SOL     OW27427   4.107   8.062   0.946  0.3454  0.3738  1.2976
 5698SOL    HW127428   4.086   8.156   0.919 -2.8628 -0.6843  0.0068
 5698SOL    HW227429   4.054   8.038   1.027  1.8591 -0.0793  2.1893
 5699SOL     OW27430   2.247   3.857   1.185  0.1234  0.2900 -0.4083
 5699SOL    HW127431   2.239   3.852   1.085 -0.1479  2.2591 -0.5040
 5699SOL    HW227432   2.184   3.925   1.220  1.8894  1.3259  0.8620
 5700SOL     OW27433   3.015   8.818   0.679  0.2720 -0.1886  0.2182
 5700SOL    HW127434   3.004   8.719   0.679 -0.1982 -0.1395  0.1073
 5700SOL    HW227435   2.986   8.855   0.767  0.3857 -0.1440  0.2366
 5701SOL     OW27436   4.212   8.244   3.718 -0.2758  0.0779  0.7109
 5701SOL    HW127437   4.222   8.235   3.619  2.6626 -1.2694  1.0690
 5701SOL    HW227438   4.245   8.161   3.762 -1.1447  0.8439  2.8703
 5702SOL     OW27439   1.195   8.928   1.317 -0.1819 -0.1200 -0.1191
 5702SOL    HW127440   1.284   8.969   1.339 -1.3968  1.1238  2.6595
 5702SOL    HW227441   1.124   8.998   1.320 -1.4867 -1.3851 -0.9237
 5703SOL     OW27442   7.973   1.167   2.611 -0.7814 -0.2964  0.7245
 5703SOL    HW127443   7.951   1.202   2.520  0.2693  1.5831  1.1537
 5703SOL    HW227444   7.896   1.184   2.673 -1.6868 -2.0119  0.0867
 5704SOL     OW27445   4.849   7.483   1.095 -0.2934  0.6188 -0.0511
 5704SOL    HW127446   4.873   7.572   1.055  0.7658  0.5605  0.4418
 5704SOL    HW227447   4.864   7.486   1.194 -0.3013 -0.0937 -0.0286
 5705SOL     OW27448   9.574   0.906   1.056 -0.2110  0.2400 -0.1875
 5705SOL    HW127449   9.590   0.992   1.009 -0.1431 -0.9318 -2.3575
 5705SOL    HW227450   9.648   0.889   1.122  0.6272  1.0497 -0.9132
 5706SOL     OW27451   0.113   0.504   2.916  0.0199  0.2743  0.4199
 5706SOL    HW127452   0.109   0.595   2.957  0.3202 -0.7462  2.7942
 5706SOL    HW227453   0.144   0.511   2.821  0.5528  2.5842  0.7429
 5707SOL     OW27454   7.849   9.123   3.756  0.1708  0.1957  0.2836
 5707SOL    HW127455   7.774   9.189   3.765 -0.1045 -0.2003  0.9466
 5707SOL    HW227456   7.897   9.116   3.843 -1.8086 -2.8411  1.2139
 5708SOL     OW27457   1.570   8.182   4.005  0.2182 -0.4688 -0.2911
 5708SOL    HW127458   1.652   8.175   4.061  0.5280  0.3348 -0.6473
 5708SOL    HW227459   1.489   8.180   4.064  0.4621 -1.8254  0.0198
 5709SOL     OW27460   1.729   7.537   2.017 -0.1172 -0.0425  0.1331
 5709SOL    HW127461   1.693   7.619   2.061 -0.2333  0.0524 -0.1386
 5709SOL    HW227462   1.762   7.560   1.925  2.0225  0.1928  0.9254
 5710SOL     OW27463   7.903   8.715   3.914  0.8578 -0.1558 -0.5224
 5710SOL    HW127464   7.961   8.749   3.988  0.8355  0.2672 -0.6998
 5710SOL    HW227465   7.859   8.629   3.943 -0.6265  0.9662  0.6738
 5711SOL     OW27466   9.502   2.405   1.460  0.0019  0.5393  0.3269
 5711SOL    HW127467   9.435   2.446   1.522 -0.8859 -0.2207 -0.1310
 5711SOL    HW227468   9.580   2.372   1.514 -1.3138 -1.2178  1.1982
 5712SOL     OW27469   1.648   9.643   3.137 -0.0346  0.3353  0.5241
 5712SOL    HW127470   1.553   9.661   3.110 -0.2192 -0.3522  0.6989
 5712SOL    HW227471   1.651   9.563   3.196  0.8453 -0.6879 -0.8840
 5713SOL     OW27472   0.141   2.018   0.101 -0.0929  0.0021  0.3662
 5713SOL    HW127473   0.201   1.958   0.154 -0.2411 -0.8251 -0.3820
 5713SOL    HW227474   0.047   2.009   0.135  0.1241  0.9695  1.2521
 5714SOL     OW27475   0.271   0.417   0.608  0.8406  0.4829 -0.1664
 5714SOL    HW127476   0.224   0.344   0.558  0.5494  0.2208  0.4884
 5714SOL    HW227477   0.204   0.479   0.648  1.0900  1.2893 -0.9704
 5715SOL     OW27478   2.117   2.122   1.398 -0.3071 -0.3884  0.1167
 5715SOL    HW127479   2.096   2.102   1.302  2.4504 -0.2941 -0.5660
 5715SOL    HW227480   2.060   2.065   1.457 -2.7277  0.2547 -1.5515
 5716SOL     OW27481   1.378   5.218   3.436  0.0265 -0.1517  0.4446
 5716SOL    HW127482   1.451   5.284   3.423 -0.1667 -0.1309 -0.5992
 5716SOL    HW227483   1.295   5.265   3.468 -0.3559  0.2516 -1.0827
 5717SOL     OW27484   4.222   9.854   0.312  0.3375  0.3837  0.4117
 5717SOL    HW127485   4.300   9.807   0.354  1.5921  2.2398  0.2053
 5717SOL    HW227486   4.209   9.943   0.355 -1.8094  0.0452  0.5591
 5718SOL     OW27487   3.047   4.523   3.756 -0.6308 -0.4513 -0.2201
 5718SOL    HW127488   3.044   4.623   3.756 -0.7814 -0.4489 -1.2777
 5718SOL    HW227489   2.996   4.488   3.834 -2.2258  0.2502 -0.9192
 5719SOL     OW27490   7.878   9.809   1.691 -0.2085  0.3806  0.0464
 5719SOL    HW127491   7.813   9.877   1.725  0.4928  0.1966  1.8122
 5719SOL    HW227492   7.846   9.718   1.715  0.4611  0.2648  0.5173
 5720SOL     OW27493   0.808   0.101   2.505 -0.3782  0.7295 -0.1411
 5720SOL    HW127494   0.715   0.100   2.541 -1.0330  0.4363 -1.8066
 5720SOL    HW227495   0.835   0.008   2.480  1.3367  0.3826  2.7052
 5721SOL     OW27496   2.975   8.337   3.315  0.6118  0.2136  0.7015
 5721SOL    HW127497   2.973   8.394   3.397 -0.3381  2.0715 -0.5425
 5721SOL    HW227498   2.913   8.260   3.326  0.6135  0.3646  1.7998
 5722SOL     OW27499   2.079   6.032   2.040  0.1087  0.2777 -0.4597
 5722SOL    HW127500   2.057   6.037   2.137  1.0820 -1.4340 -0.1323
 5722SOL    HW227501   2.105   6.123   2.007 -0.9885  1.0308  0.6691
 5723SOL     OW27502   8.225   4.090   0.404  0.3348 -0.7720  0.5567
 5723SOL    HW127503   8.316   4.069   0.369 -0.0121  0.2748 -0.9796
 5723SOL    HW227504   8.227   4.086   0.504  2.3480  0.4388  0.5841
 5724SOL     OW27505   8.835   0.299   2.540  0.4185 -0.4333 -0.1847
 5724SOL    HW127506   8.824   0.204   2.569  1.9444  0.0102  1.9458
 5724SOL    HW227507   8.862   0.302   2.443  0.8624 -2.1738 -0.1247
 5725SOL     OW27508   8.560   6.760   0.113  0.1241 -0.2290  0.6298
 5725SOL    HW127509   8.588   6.748   0.018  1.1801 -3.0357  1.2549
 5725SOL    HW227510   8.479   6.704   0.131 -0.1498  0.3957  1.3469
 5726SOL     OW27511   3.005   8.898   1.869 -0.1105  0.6352  0.4290
 5726SOL    HW127512   2.980   8.801   1.863  0.3425  0.6655 -2.6170
 5726SOL    HW227513   3.102   8.906   1.890  0.0000  0.4246 -0.0002
 5727SOL     OW27514   3.933   3.868   3.683 -0.2200 -0.0053 -0.7300
 5727SOL    HW127515   3.987   3.949   3.707 -0.4967 -0.3484  1.0865
 5727SOL    HW227516   3.952   3.795   3.749  1.1071 -1.9200 -3.1355
 5728SOL     OW27517   7.864   2.303   1.525  0.0967  0.2880  0.7887
 5728SOL    HW127518   7.839   2.363   1.449  2.1571 -2.5368 -2.2517
 5728SOL    HW227519   7.794   2.233   1.536  1.6058 -1.5637 -1.0649
 5729SOL     OW27520   9.962   9.222   0.077  0.1039 -0.3804  0.1206
 5729SOL    HW127521   9.891   9.179   0.133  0.8158 -0.1963  1.1758
 5729SOL    HW227522   9.994   9.156   0.008 -0.3016 -0.8304  0.3529
 5730SOL     OW27523   3.805   3.085   2.741  0.0953  0.3342 -0.3660
 5730SOL    HW127524   3.737   3.081   2.668  2.0406 -0.3781 -2.1956
 5730SOL    HW227525   3.796   3.005   2.799  0.5305 -0.7186 -1.7061
 5731SOL     OW27526   2.082   3.097   1.947 -0.0340  0.2694 -0.0297
 5731SOL    HW127527   2.078   3.092   2.047  0.9379 -3.1900 -0.1167
 5731SOL    HW227528   1.992   3.074   1.909  0.1064 -0.3546  0.0100
 5732SOL     OW27529   1.256   6.810   3.277  0.2327 -0.0122 -0.1064
 5732SOL    HW127530   1.313   6.762   3.344 -2.2532 -1.6462  0.9090
 5732SOL    HW227531   1.251   6.907   3.301  1.0913 -0.1820  0.8112
 5733SOL     OW27532   1.681   4.238   2.855  0.4744 -0.2543  0.6390
 5733SOL    HW127533   1.629   4.312   2.897  0.8331 -0.0066  0.6465
 5733SOL    HW227534   1.768   4.227   2.903  1.6660  1.1892 -1.1501
 5734SOL     OW27535   0.831   7.088   1.672  0.2159  0.1967 -0.0092
 5734SOL    HW127536   0.913   7.032   1.664  0.6522  0.9538 -0.9623
 5734SOL    HW227537   0.826   7.126   1.764  1.4704  0.9426 -0.2329
 5735SOL     OW27538   2.829   1.678   3.328  0.1908  0.8268 -0.5026
 5735SOL    HW127539   2.858   1.707   3.419  1.0875  1.1902 -0.8953
 5735SOL    HW227540   2.872   1.737   3.259 -0.2238  0.3529 -1.1721
 5736SOL     OW27541   8.691   2.770   0.266  0.3433  0.7339 -0.7025
 5736SOL    HW127542   8.703   2.722   0.180 -0.3274 -0.2115 -0.2770
 5736SOL    HW227543   8.638   2.713   0.329  1.1480  1.2542  0.4670
 5737SOL     OW27544   2.787   3.179   1.509  0.6562  0.4606  0.3125
 5737SOL    HW127545   2.861   3.170   1.441  0.4664 -1.6778  0.3511
 5737SOL    HW227546   2.721   3.247   1.478  1.0606  0.1746 -1.2119
 5738SOL     OW27547   1.802   0.175   2.421  0.3705  0.1146 -0.6280
 5738SOL    HW127548   1.878   0.205   2.363  0.7706  0.7288  0.2019
 5738SOL    HW227549   1.718   0.219   2.391  0.9495  2.1059  0.5661
 5739SOL     OW27550   2.824   1.965   1.524  0.1293  0.2020  1.1875
 5739SOL    HW127551   2.817   2.053   1.476  0.7902 -0.0241  0.6749
 5739SOL    HW227552   2.738   1.915   1.514  0.2796  0.1378  0.2022
 5740SOL     OW27553   3.560   9.010   2.343  0.1167  0.2894  0.6106
 5740SOL    HW127554   3.647   9.008   2.393 -0.1771  0.2452  1.1247
 5740SOL    HW227555   3.485   8.989   2.406 -0.3341  0.9672  0.3109
 5741SOL     OW27556   2.594   6.481   2.897  0.2142 -0.0895  0.1000
 5741SOL    HW127557   2.653   6.437   2.965 -1.7851 -0.3529  1.6786
 5741SOL    HW227558   2.589   6.580   2.916 -1.8848 -0.4491  1.5284
 5742SOL     OW27559   2.869   2.927   3.946  0.5186 -0.2650  0.5530
 5742SOL    HW127560   2.915   2.962   3.864 -1.8633  1.8188  0.0474
 5742SOL    HW227561   2.870   2.998   4.017 -0.8651 -0.6299  0.9439
 5743SOL     OW27562   2.152   8.788   3.836 -0.3107  0.5508 -0.2506
 5743SOL    HW127563   2.161   8.740   3.924 -0.7653 -1.0534 -1.0562
 5743SOL    HW227564   2.243   8.810   3.801 -0.1102  0.7644  0.3973
 5744SOL     OW27565   2.718   3.917   0.363  0.0546  0.7592 -0.3417
 5744SOL    HW127566   2.722   3.850   0.289 -1.8625 -0.3471  0.4966
 5744SOL    HW227567   2.781   3.891   0.436 -1.2277 -0.5840  0.3109
 5745SOL     OW27568   3.296   3.168   1.055 -0.1330  0.4614 -0.3024
 5745SOL    HW127569   3.351   3.144   0.975  2.2282 -1.1605  1.7260
 5745SOL    HW227570   3.237   3.091   1.079  0.5852  0.1982  0.6522
 5746SOL     OW27571   8.922   2.020   1.481 -0.6389 -0.5300 -0.5391
 5746SOL    HW127572   8.877   2.047   1.566  3.0368 -2.1864  2.0538
 5746SOL    HW227573   9.007   2.070   1.470  0.5340 -2.6604 -1.5591
 5747SOL     OW27574   3.230   7.281   2.811 -0.7853 -0.1561 -0.0183
 5747SOL    HW127575   3.219   7.201   2.870  1.3913  0.1131  0.8171
 5747SOL    HW227576   3.269   7.253   2.724 -0.3162 -0.0622  0.1581
 5748SOL     OW27577   2.208   2.220   3.097  0.4563 -0.0919 -0.1344
 5748SOL    HW127578   2.120   2.191   3.136  1.8752 -2.9246  1.1225
 5748SOL    HW227579   2.192   2.258   3.005 -2.2220  0.7868  0.6342
 5749SOL     OW27580   5.415   8.977   3.279  0.0426 -0.0752 -0.3427
 5749SOL    HW127581   5.317   8.994   3.282  0.0934  0.0750  1.0372
 5749SOL    HW227582   5.432   8.881   3.257 -0.4419 -0.3191  0.3201
 5750SOL     OW27583   0.785   8.869   0.018 -0.3427 -0.2665  0.1541
 5750SOL    HW127584   0.856   8.880  -0.051 -0.5391  2.3152  0.2825
 5750SOL    HW227585   0.700   8.910  -0.015  0.1147  2.9204  2.6374
 5751SOL     OW27586   2.004   5.537   0.313  0.3124 -0.1791 -0.4781
 5751SOL    HW127587   2.076   5.604   0.294  0.0510 -0.1616 -1.4085
 5751SOL    HW227588   2.022   5.494   0.401  0.9103  0.5529 -0.2333
 5752SOL     OW27589   4.777   3.575   1.364 -0.2547 -0.0835  0.2338
 5752SOL    HW127590   4.875   3.594   1.371 -0.1108  0.2353 -2.0945
 5752SOL    HW227591   4.758   3.484   1.401  0.4342  0.9508  3.3161
 5753SOL     OW27592   2.487   0.759   2.150  0.5182  0.0675  0.0311
 5753SOL    HW127593   2.566   0.704   2.176  0.0963  0.4156  2.1334
 5753SOL    HW227594   2.460   0.817   2.227  0.8532  3.1080 -2.0363
 5754SOL     OW27595   9.242   9.507   2.349 -0.3001  0.0672 -0.7576
 5754SOL    HW127596   9.209   9.413   2.341  0.1145 -0.1843  0.4577
 5754SOL    HW227597   9.170   9.565   2.387  0.8090 -0.6267  2.6053
 5755SOL     OW27598   1.205   0.379   3.966  0.3342  0.0946 -0.0370
 5755SOL    HW127599   1.142   0.386   4.043  1.6164 -0.2181  1.0464
 5755SOL    HW227600   1.173   0.308   3.903  0.8107 -1.6665  1.6637
 5756SOL     OW27601   3.498   4.853   1.546 -0.3532  0.1342 -0.1831
 5756SOL    HW127602   3.415   4.836   1.599  1.6184 -1.6625  2.4450
 5756SOL    HW227603   3.535   4.942   1.570 -0.3213  0.0024  0.2488
 5757SOL     OW27604   4.134   1.503   1.607  0.6820  0.1109  0.4186
 5757SOL    HW127605   4.130   1.428   1.674  1.3672  0.1630  0.5243
 5757SOL    HW227606   4.137   1.590   1.655 -1.9395  0.3121  0.2749
 5758SOL     OW27607   2.430   1.682   2.986  0.1765  0.0480 -0.2991
 5758SOL    HW127608   2.506   1.637   3.033  0.5025  2.0830  1.1994
 5758SOL    HW227609   2.347   1.673   3.040 -0.1710 -0.2885 -0.8777
 5759SOL     OW27610   2.154   3.619   2.948 -0.6010  0.3672  0.4289
 5759SOL    HW127611   2.198   3.588   3.032 -0.5896 -1.1203 -0.1166
 5759SOL    HW227612   2.159   3.719   2.943  3.2603  0.2154  0.0666
 5760SOL     OW27613   8.361   1.579   3.387  0.1357  0.5697  0.4629
 5760SOL    HW127614   8.423   1.657   3.394  0.5877  0.3898 -1.3951
 5760SOL    HW227615   8.268   1.609   3.408  0.5848  1.1918  1.6155
 5761SOL     OW27616   2.251   2.111   0.647 -0.2657  0.8609  0.3661
 5761SOL    HW127617   2.160   2.141   0.674 -0.2216  0.5173  0.8963
 5761SOL    HW227618   2.317   2.138   0.717 -0.1128  0.2104  0.4745
 5762SOL     OW27619   3.137   0.558   2.200  0.1846  0.0247 -0.0586
 5762SOL    HW127620   3.234   0.562   2.177  0.9511 -0.4864  2.9162
 5762SOL    HW227621   3.109   0.462   2.211 -0.0655  0.2583  1.4113
 5763SOL     OW27622   4.486   8.010   4.028  0.3332  0.2540 -0.2437
 5763SOL    HW127623   4.448   7.930   4.075 -0.1725  0.7137  0.1404
 5763SOL    HW227624   4.435   8.028   3.944  1.5740 -0.8862 -1.2576
 5764SOL     OW27625   8.104   9.395   0.652 -0.4566 -0.0710  0.4503
 5764SOL    HW127626   8.083   9.447   0.569  2.6629  0.5705  0.0008
 5764SOL    HW227627   8.096   9.454   0.732 -1.8520 -0.2516  0.4480
 5765SOL     OW27628   1.408   3.419   1.984  0.2907 -0.2059  0.3131
 5765SOL    HW127629   1.364   3.334   2.013  1.2430 -0.3101  1.4474
 5765SOL    HW227630   1.437   3.410   1.888  1.3629 -1.5567  0.7457
 5766SOL     OW27631   1.663   4.354   0.264 -0.1308 -0.1618  0.2682
 5766SOL    HW127632   1.572   4.316   0.279 -0.6771  1.2968  0.7053
 5766SOL    HW227633   1.703   4.313   0.182 -0.6627 -1.7222  0.7609
 5767SOL     OW27634   3.456   2.025   1.987 -0.5652 -0.5935  0.0342
 5767SOL    HW127635   3.438   2.123   1.998 -1.0199 -0.5775 -0.8350
 5767SOL    HW227636   3.488   1.988   2.074 -2.0533 -0.0365  0.8338
 5768SOL     OW27637   8.402   1.198   2.777 -0.0507  0.4326  0.0564
 5768SOL    HW127638   8.462   1.271   2.808  1.5726 -1.6790  1.9919
 5768SOL    HW227639   8.331   1.182   2.845  0.5622 -0.8699  0.3938
 5769SOL     OW27640   7.534   8.758   3.778  0.7430 -0.2845  0.3254
 5769SOL    HW127641   7.624   8.802   3.779  1.9914 -2.6973  1.8398
 5769SOL    HW227642   7.530   8.692   3.703  0.6667 -0.9485  0.9016
 5770SOL     OW27643   1.832   0.904   0.957  0.2768  0.3190  0.3949
 5770SOL    HW127644   1.877   0.874   1.041 -0.1267 -2.0303 -0.2053
 5770SOL    HW227645   1.735   0.882   0.961  0.3564 -0.3350 -0.9154
 5771SOL     OW27646   0.934   9.227   2.854 -0.1787 -0.7765  0.0585
 5771SOL    HW127647   1.025   9.247   2.817 -0.8278  1.9933 -0.1974
 5771SOL    HW227648   0.879   9.185   2.782  0.4323 -1.0034 -0.2864
 5772SOL     OW27649   8.175   8.965   3.956  0.2810 -0.0859  0.1671
 5772SOL    HW127650   8.206   8.983   3.863 -0.2064  0.4578  0.1047
 5772SOL    HW227651   8.245   8.912   4.005  0.2523 -0.9538 -0.7050
 5773SOL     OW27652   6.996   9.021   1.516  0.3264 -0.4235  0.1440
 5773SOL    HW127653   6.943   9.094   1.560  0.9204  0.4923 -0.6473
 5773SOL    HW227654   7.019   9.049   1.423  3.4318 -0.2095  0.9362
 5774SOL     OW27655   1.519   8.459   3.888  0.0596 -0.3372  0.1422
 5774SOL    HW127656   1.463   8.387   3.930 -1.8992  1.1971  0.2714
 5774SOL    HW227657   1.459   8.530   3.853  1.9906  1.6483  0.7783
 5775SOL     OW27658   2.801   6.444   3.398  0.3374 -0.5703  0.9290
 5775SOL    HW127659   2.883   6.496   3.419  0.6755 -0.9314  0.5179
 5775SOL    HW227660   2.720   6.496   3.426  0.4656  1.8790 -2.7963
 5776SOL     OW27661   9.410   1.450   2.661  0.2982  0.0223 -0.2966
 5776SOL    HW127662   9.344   1.444   2.736  1.3380  0.3899  0.6616
 5776SOL    HW227663   9.383   1.525   2.600  0.0572  0.4587  0.3311
 5777SOL     OW27664   3.468   0.074   3.465 -0.4444  0.2966  0.5264
 5777SOL    HW127665   3.426   0.100   3.551 -2.5862 -2.1463  0.3003
 5777SOL    HW227666   3.409   0.102   3.389 -0.2679 -0.5615  0.0605
 5778SOL     OW27667   3.097   0.702   3.794  0.5041 -0.2597 -0.0815
 5778SOL    HW127668   3.065   0.678   3.703  2.1211 -2.0309 -0.2049
 5778SOL    HW227669   3.189   0.740   3.788 -0.2339  1.7355  0.6128
 5779SOL     OW27670   0.534   2.903   3.423  0.0643  0.0253 -0.0630
 5779SOL    HW127671   0.523   2.875   3.328  0.5337 -1.1715  0.2303
 5779SOL    HW227672   0.513   3.001   3.432 -0.6763 -0.0212 -1.2601
 5780SOL     OW27673   5.185   9.660   1.986  0.5578 -0.0531  0.2304
 5780SOL    HW127674   5.232   9.629   2.068 -0.2075  0.8044  1.0107
 5780SOL    HW227675   5.128   9.586   1.950 -0.3666  0.0684  1.4152
 5781SOL     OW27676   8.859   1.557   3.579 -0.4338 -0.3296  0.3630
 5781SOL    HW127677   8.781   1.580   3.639 -0.3400 -0.3339  0.4878
 5781SOL    HW227678   8.825   1.525   3.491 -0.5840 -1.1934  0.7301
 5782SOL     OW27679   7.872   4.123   0.629  0.0291 -0.1811 -0.2680
 5782SOL    HW127680   7.833   4.040   0.589  0.6722 -0.7607  0.2848
 5782SOL    HW227681   7.816   4.151   0.708 -0.1008 -0.1823 -0.3599
 5783SOL     OW27682   9.809   3.483   1.090  0.3269  0.4498  0.0729
 5783SOL    HW127683   9.862   3.442   1.016 -0.7887  3.0793 -2.2686
 5783SOL    HW227684   9.861   3.557   1.132  1.1653 -1.3743  2.3314
 5784SOL     OW27685   0.679   7.989   0.928  0.2041 -0.5958 -0.0440
 5784SOL    HW127686   0.727   8.076   0.944 -0.2172 -0.4135  0.2626
 5784SOL    HW227687   0.743   7.913   0.935  0.4596 -0.3495  0.2965
 5785SOL     OW27688   1.507   1.448   1.699  0.1250  0.1366  0.6477
 5785SOL    HW127689   1.600   1.458   1.733 -0.0320  0.1482  1.0791
 5785SOL    HW227690   1.442   1.471   1.772 -0.2112  0.4905  0.2407
 5786SOL     OW27691   4.659   8.596   0.503  0.1250 -0.4542 -0.1705
 5786SOL    HW127692   4.619   8.630   0.589  0.2892 -1.2888  0.2376
 5786SOL    HW227693   4.640   8.661   0.430 -3.2416 -1.4529 -0.2929
 5787SOL     OW27694   0.800   7.890   2.894  0.4056  0.9016  0.0237
 5787SOL    HW127695   0.828   7.944   2.974 -0.4405  0.1592  0.8387
 5787SOL    HW227696   0.737   7.817   2.923  0.4235  0.3530 -1.2612
 5788SOL     OW27697   8.620   0.628   0.620  0.0334 -0.7802 -0.3327
 5788SOL    HW127698   8.645   0.537   0.588  1.9457 -0.9729  1.6181
 5788SOL    HW227699   8.552   0.668   0.558  0.9264 -2.5711 -2.5240
 5789SOL     OW27700   1.082   8.923   3.582  0.0087 -0.0120 -0.0321
 5789SOL    HW127701   1.181   8.929   3.597  0.0452  0.1388 -0.3219
 5789SOL    HW227702   1.058   8.831   3.553  0.2802  0.3708 -1.4932
 5790SOL     OW27703   9.552   2.020   0.858 -1.1389 -0.2806 -0.3749
 5790SOL    HW127704   9.581   2.006   0.953 -0.0655  0.8735 -0.5257
 5790SOL    HW227705   9.628   2.056   0.804 -1.6775 -1.1422 -1.7414
 5791SOL     OW27706   9.176   2.173   3.668  0.1913 -0.1274  0.1530
 5791SOL    HW127707   9.170   2.155   3.766  0.1983  0.4671  0.2639
 5791SOL    HW227708   9.202   2.268   3.653  2.2872 -0.7556 -0.4033
 5792SOL     OW27709   9.286   8.739   0.118 -0.2506 -0.0824  0.2102
 5792SOL    HW127710   9.254   8.679   0.044  1.9568  0.3912 -1.1953
 5792SOL    HW227711   9.224   8.816   0.128 -1.9244 -1.4446  0.5422
 5793SOL     OW27712   7.991   2.227   3.332  0.1784 -0.2963  0.0617
 5793SOL    HW127713   7.921   2.299   3.339  0.4780  0.1437 -1.3545
 5793SOL    HW227714   8.051   2.247   3.255  1.2037 -1.2662  0.6029
 5794SOL     OW27715   3.814   3.316   1.241 -0.4229  0.0627 -0.1771
 5794SOL    HW127716   3.856   3.312   1.150  0.3137  0.7930  0.1264
 5794SOL    HW227717   3.826   3.407   1.280 -0.4399 -0.3402  0.7951
 5795SOL     OW27718   8.513   9.201   3.646  0.0763 -0.1976  0.3047
 5795SOL    HW127719   8.559   9.263   3.709  0.5396 -0.9258  0.6934
 5795SOL    HW227720   8.579   9.134   3.611 -0.4236 -0.4937 -0.0763
 5796SOL     OW27721   2.209   1.267   0.121  0.1668 -0.2137  0.0942
 5796SOL    HW127722   2.257   1.251   0.035 -1.2872  0.9591 -0.9543
 5796SOL    HW227723   2.169   1.181   0.153  2.6463 -1.1423  0.8296
 5797SOL     OW27724   2.621   6.632   3.490  0.8510 -0.0331  0.1903
 5797SOL    HW127725   2.642   6.675   3.578 -1.5751  0.5310  0.5153
 5797SOL    HW227726   2.526   6.649   3.467  0.7617 -2.4598 -1.2964
 5798SOL     OW27727   3.124   5.571   2.222 -0.4259  0.3926  0.4111
 5798SOL    HW127728   3.213   5.608   2.196 -0.3361  1.3982  2.0844
 5798SOL    HW227729   3.104   5.594   2.317 -1.6971 -1.3320  0.5997
 5799SOL     OW27730   0.460   3.235   2.818 -0.2621  0.0332  0.3325
 5799SOL    HW127731   0.531   3.231   2.748 -0.1810  1.3844  0.3179
 5799SOL    HW227732   0.454   3.328   2.854 -1.5013 -0.2450  0.8791
 5800SOL     OW27733   3.237   9.187   1.819 -0.8332 -0.5291  0.1713
 5800SOL    HW127734   3.260   9.111   1.758 -0.3190 -0.7365  0.6238
 5800SOL    HW227735   3.187   9.257   1.767 -4.3368 -2.6840  0.4677
 5801SOL     OW27736   2.739   4.126   2.229 -0.1618  0.0204  0.3431
 5801SOL    HW127737   2.698   4.147   2.317  0.2262  0.6465  0.3792
 5801SOL    HW227738   2.667   4.118   2.160 -0.3846  0.6890  0.4884
 5802SOL     OW27739   1.558   0.569   0.077  0.0295 -0.8369 -0.0365
 5802SOL    HW127740   1.604   0.510   0.012 -1.1232 -0.4782 -1.1901
 5802SOL    HW227741   1.467   0.594   0.043  0.4895  1.6156  0.3895
 5803SOL     OW27742   3.745   0.844   0.218 -0.3350  0.2214 -0.1063
 5803SOL    HW127743   3.765   0.778   0.290 -1.1098  0.3238  0.1981
 5803SOL    HW227744   3.830   0.890   0.191 -0.2584  1.1934  1.7253
 5804SOL     OW27745   1.810   6.844   2.138  0.4717 -0.3360 -0.2229
 5804SOL    HW127746   1.886   6.871   2.197 -0.1057  1.5751 -0.3142
 5804SOL    HW227747   1.734   6.909   2.150 -0.1158 -0.6428 -2.1327
 5805SOL     OW27748   2.373   4.473   3.513 -0.2193 -0.1851 -0.2120
 5805SOL    HW127749   2.312   4.524   3.574 -0.6785 -0.2027 -0.6471
 5805SOL    HW227750   2.364   4.509   3.420 -1.5415 -1.9076 -0.7860
 5806SOL     OW27751   5.566   9.402   3.515 -0.2808  0.2585 -0.6340
 5806SOL    HW127752   5.649   9.407   3.570 -0.4704  0.3280 -0.3507
 5806SOL    HW227753   5.548   9.307   3.490 -0.9616  0.0500  0.6123
 5807SOL     OW27754   2.983   6.596   1.401  0.0007 -0.2909 -0.2755
 5807SOL    HW127755   2.893   6.591   1.359 -0.1587 -0.9750  0.1446
 5807SOL    HW227756   3.004   6.509   1.447  1.0454 -0.2980 -0.7347
 5808SOL     OW27757   9.659   8.237   0.924 -0.5288  0.0391 -0.7366
 5808SOL    HW127758   9.642   8.289   1.007 -2.3414  0.1783 -1.1894
 5808SOL    HW227759   9.605   8.153   0.925  2.0075 -1.6558 -0.2271
 5809SOL     OW27760   1.581   3.624   2.581 -0.3702 -0.5410 -0.1438
 5809SOL    HW127761   1.568   3.724   2.579  1.9433 -0.1563  1.6836
 5809SOL    HW227762   1.565   3.587   2.490 -1.1632  1.5254 -0.8827
 5810SOL     OW27763   1.050   9.901   3.932 -0.0762  0.3078 -0.1557
 5810SOL    HW127764   1.141   9.871   3.961  0.1684 -0.4992 -1.7233
 5810SOL    HW227765   0.983   9.877   4.002  0.8275  0.4207  0.7590
 5811SOL     OW27766   9.006   8.542   2.543 -0.3709  0.3701  0.1712
 5811SOL    HW127767   8.929   8.529   2.604  0.4551  1.9294  1.5591
 5811SOL    HW227768   9.000   8.631   2.498  0.3587  0.2882 -0.1102
 5812SOL     OW27769   1.934   5.152   0.467  0.4019  0.1669 -0.0262
 5812SOL    HW127770   2.005   5.104   0.415 -2.2156 -4.0453  0.0303
 5812SOL    HW227771   1.896   5.090   0.536 -3.5988  2.0591 -0.3582
 5813SOL     OW27772   0.740   8.892   0.768  0.3402 -0.1735 -0.2986
 5813SOL    HW127773   0.667   8.860   0.708  0.0050 -1.0206  0.5428
 5813SOL    HW227774   0.717   8.982   0.805  0.0586 -0.1209 -0.6027
 5814SOL     OW27775   1.502   1.429   1.421  0.3476 -0.2056  0.1138
 5814SOL    HW127776   1.485   1.424   1.519 -2.1329  0.6339 -0.2419
 5814SOL    HW227777   1.590   1.473   1.404  2.0465 -2.7627  1.9959
 5815SOL     OW27778   1.942   4.705   3.197  0.1544  0.1816 -0.0279
 5815SOL    HW127779   1.908   4.724   3.289  2.0428  0.8448  0.5515
 5815SOL    HW227780   1.909   4.776   3.134 -0.8559 -0.0817  0.1929
 5816SOL     OW27781   7.401   9.770   3.101  0.4078 -0.7074 -0.2193
 5816SOL    HW127782   7.393   9.693   3.165 -3.6635 -1.4657 -1.4890
 5816SOL    HW227783   7.399   9.856   3.152 -0.5610 -1.3474  0.8607
 5817SOL     OW27784   3.013   6.083   3.575  0.5752  0.1509 -0.2452
 5817SOL    HW127785   2.961   6.111   3.494  0.7661 -1.4420 -0.9414
 5817SOL    HW227786   3.080   6.014   3.549  0.8222 -0.1798  1.2293
 5818SOL     OW27787   1.874   3.959   2.729 -0.2018 -0.1886  0.0730
 5818SOL    HW127788   1.954   4.018   2.724  1.2437 -2.1117 -0.0504
 5818SOL    HW227789   1.821   3.967   2.645 -1.5611  2.9714  1.1323
 5819SOL     OW27790   7.623   3.486   1.507  0.0171  0.3100  0.2479
 5819SOL    HW127791   7.631   3.459   1.603  0.3711 -0.8661 -0.1032
 5819SOL    HW227792   7.674   3.422   1.450  2.8666  3.0674 -0.4480
 5820SOL     OW27793   2.701   5.322   2.363  0.2488  0.1275  0.5964
 5820SOL    HW127794   2.773   5.381   2.325  0.0083 -0.1663 -0.3404
 5820SOL    HW227795   2.640   5.376   2.420 -0.4736  0.9833 -0.9382
 5821SOL     OW27796   4.638   8.456   1.074 -0.6548  0.0353  0.4068
 5821SOL    HW127797   4.685   8.447   0.986 -0.3573 -0.9289  0.6524
 5821SOL    HW227798   4.540   8.440   1.062 -0.9337  2.0588 -0.1094
 5822SOL     OW27799   2.116   9.023   1.834  0.0959  0.3627 -0.5207
 5822SOL    HW127800   2.094   9.092   1.903  1.1583 -0.3545  0.5522
 5822SOL    HW227801   2.127   8.934   1.878  1.4229  0.0158 -1.5303
 5823SOL     OW27802   0.505   8.972   2.182  0.1358  0.3874  0.4633
 5823SOL    HW127803   0.419   8.965   2.132 -0.3428  2.5555  0.9410
 5823SOL    HW227804   0.567   9.033   2.134  1.2260 -0.7632  0.3913
 5824SOL     OW27805   7.644   1.686   2.760 -0.2084  0.6384 -0.2413
 5824SOL    HW127806   7.622   1.774   2.717 -0.5542  0.2507 -0.8746
 5824SOL    HW227807   7.580   1.616   2.728 -0.1128  0.2161  0.4767
 5825SOL     OW27808   6.024   9.293   3.625 -0.0432  0.1889 -0.8324
 5825SOL    HW127809   6.114   9.335   3.638  0.2227 -0.6887  0.1970
 5825SOL    HW227810   6.006   9.283   3.527  1.6725 -1.1024 -1.0435
 5826SOL     OW27811   2.578   7.118   0.342 -0.6079  0.0396  0.3474
 5826SOL    HW127812   2.653   7.098   0.278  0.3999 -2.9824  2.3911
 5826SOL    HW227813   2.570   7.218   0.352  2.1723  0.4677 -1.0296
 5827SOL     OW27814   1.233   4.792   0.727  0.1344 -0.1677  0.2914
 5827SOL    HW127815   1.247   4.835   0.816  1.6308  0.2340 -0.1297
 5827SOL    HW227816   1.136   4.770   0.716 -0.2768  0.9916  1.4729
 5828SOL     OW27817   1.251   5.091   0.163  0.2501 -0.0975 -0.0572
 5828SOL    HW127818   1.272   5.014   0.224  0.2803 -0.1592 -0.1461
 5828SOL    HW227819   1.283   5.176   0.205  1.0926 -0.2394 -0.3901
 5829SOL     OW27820   1.862   2.127   3.542 -0.9608 -0.3557  0.1035
 5829SOL    HW127821   1.821   2.174   3.620 -3.4663 -0.1054 -1.3220
 5829SOL    HW227822   1.831   2.170   3.457  0.8200 -1.3470 -1.0831
 5830SOL     OW27823   3.076   4.993   2.766  0.6375  0.7752  0.1173
 5830SOL    HW127824   3.143   4.981   2.839  0.0660  1.2830  0.7301
 5830SOL    HW227825   3.097   5.076   2.714  0.8346  0.6072 -0.0738
 5831SOL     OW27826   9.961   7.616   1.877  0.1778  0.1659 -0.4251
 5831SOL    HW127827   9.878   7.584   1.832  1.4968 -0.9422 -2.1277
 5831SOL    HW227828   9.996   7.544   1.937 -0.2986  0.7763  0.5916
 5832SOL     OW27829   1.478   3.288   3.357 -0.0681  0.6767  0.1179
 5832SOL    HW127830   1.461   3.344   3.276 -0.2081  0.1581 -0.2143
 5832SOL    HW227831   1.398   3.231   3.376  0.0897  0.5578  0.4220
 5833SOL     OW27832   3.237   6.900   0.006 -0.1119 -0.3557  0.2003
 5833SOL    HW127833   3.212   6.923  -0.087 -1.0570 -1.3902  0.1931
 5833SOL    HW227834   3.286   6.812   0.007 -3.3195 -2.2013  1.0506
 5834SOL     OW27835   2.648   6.074   1.295  0.0190 -0.6618 -0.1384
 5834SOL    HW127836   2.636   6.123   1.209  0.3093  2.2078  1.3836
 5834SOL    HW227837   2.711   5.997   1.281 -0.9591 -1.0516 -2.7339
 5835SOL     OW27838   0.391   1.407   0.326  0.1940 -0.2863  0.6551
 5835SOL    HW127839   0.316   1.416   0.260  2.1248  0.2511 -1.5392
 5835SOL    HW227840   0.404   1.310   0.348 -0.7421 -0.4347  0.5692
 5836SOL     OW27841   3.869   2.641   2.660  1.1969 -0.7342 -0.5920
 5836SOL    HW127842   3.885   2.562   2.601  1.0923 -0.3527 -1.1311
 5836SOL    HW227843   3.775   2.638   2.695  0.7574 -0.1188 -1.7107
 5837SOL     OW27844   3.699   9.373   2.508  0.3382  0.1193 -0.8276
 5837SOL    HW127845   3.715   9.431   2.587 -1.2975 -0.8309  0.2484
 5837SOL    HW227846   3.778   9.313   2.493  0.1464 -0.5998  0.9069
 5838SOL     OW27847   3.540   9.317   1.595  0.0267 -0.3588  0.1436
 5838SOL    HW127848   3.471   9.388   1.588  1.2779  1.0725  1.7601
 5838SOL    HW227849   3.531   9.270   1.683  0.7342 -0.5557  0.1171
 5839SOL     OW27850   3.148   5.246   0.363 -0.3849  0.1382  0.1569
 5839SOL    HW127851   3.105   5.269   0.450  0.9506 -1.2960  1.2124
 5839SOL    HW227852   3.078   5.213   0.299 -1.1160 -0.4881  1.2645
 5840SOL     OW27853   7.849   8.859   3.696  0.2217 -0.1705 -0.2754
 5840SOL    HW127854   7.874   8.813   3.781  0.7391 -0.0444 -0.3579
 5840SOL    HW227855   7.834   8.956   3.714 -0.8150 -0.3553 -0.1121
 5841SOL     OW27856   9.847   3.148   2.119  0.7143 -0.9269  0.5633
 5841SOL    HW127857   9.900   3.209   2.178  1.3382 -0.8787 -0.0355
 5841SOL    HW227858   9.874   3.162   2.024 -2.0699  0.7976 -0.0180
 5842SOL     OW27859   2.214   2.509   1.057 -0.0512  0.4589  0.0337
 5842SOL    HW127860   2.169   2.491   0.970  0.3197  1.4065 -0.3648
 5842SOL    HW227861   2.242   2.605   1.060  1.6314 -0.0311  0.4163
 5843SOL     OW27862   8.682   9.531   2.834 -0.1770  0.1327 -0.2078
 5843SOL    HW127863   8.727   9.585   2.905  0.2259  0.2359 -0.5434
 5843SOL    HW227864   8.610   9.587   2.791 -1.2539 -0.3283  0.9441
 5844SOL     OW27865   2.605   2.118   0.498 -0.3048  0.1804 -0.1453
 5844SOL    HW127866   2.635   2.160   0.583 -1.8644 -0.4818  0.7625
 5844SOL    HW227867   2.580   2.022   0.515 -1.0473  0.1619 -1.2466
 5845SOL     OW27868   3.512   2.784   3.687  0.2204  0.4716  0.5718
 5845SOL    HW127869   3.590   2.843   3.669 -0.7463  1.9522  1.1971
 5845SOL    HW227870   3.480   2.798   3.781 -0.3809 -0.6074  0.5369
 5846SOL     OW27871   2.217   5.696   0.218 -0.2853  0.0806 -0.0011
 5846SOL    HW127872   2.298   5.641   0.238 -1.1187 -0.7200  1.2655
 5846SOL    HW227873   2.239   5.765   0.149  1.0082 -1.2320 -0.9063
 5847SOL     OW27874   1.297   8.447   3.349 -0.0746  0.5158  0.3381
 5847SOL    HW127875   1.222   8.407   3.296 -0.1277  0.3173  0.5615
 5847SOL    HW227876   1.384   8.407   3.321 -0.1866 -0.1890  0.9628
 5848SOL     OW27877   4.367   0.840   2.913  0.2131  0.1595 -0.4291
 5848SOL    HW127878   4.455   0.855   2.959 -0.2602  1.3698  0.0988
 5848SOL    HW227879   4.292   0.861   2.975 -0.4940 -2.1136 -0.4604
 5849SOL     OW27880   2.820   7.061   0.189 -0.0308  0.4576 -0.1340
 5849SOL    HW127881   2.835   6.964   0.173 -0.3208  0.3474  0.2685
 5849SOL    HW227882   2.865   7.089   0.273 -0.9911  0.3997  0.4073
 5850SOL     OW27883   7.574   3.832   0.209  0.5962  0.3498 -0.0747
 5850SOL    HW127884   7.510   3.904   0.234  1.5036  1.1720 -0.1216
 5850SOL    HW227885   7.534   3.743   0.233 -0.3701  0.8760  0.3110
 5851SOL     OW27886   3.792   3.351   3.062 -0.1918  0.5843 -0.3729
 5851SOL    HW127887   3.870   3.403   3.097 -0.2723  1.0383 -0.8621
 5851SOL    HW227888   3.770   3.277   3.125  0.2764  0.8062  0.0508
 5852SOL     OW27889   6.810   0.286   2.629  0.7754 -0.3112  0.2406
 5852SOL    HW127890   6.778   0.372   2.670  0.0024 -0.6251  0.3031
 5852SOL    HW227891   6.759   0.210   2.667 -0.1263 -0.5897 -1.4875
 5853SOL     OW27892   4.018   3.100   2.079  0.1845  0.1481 -0.4781
 5853SOL    HW127893   4.109   3.110   2.038 -0.1762  1.4070 -0.9974
 5853SOL    HW227894   4.015   3.146   2.167  0.0931 -0.0174 -0.3941
 5854SOL     OW27895   4.931   8.781   0.155  0.3139 -0.4310 -0.2985
 5854SOL    HW127896   4.861   8.709   0.147 -0.4999  0.0831  1.9407
 5854SOL    HW227897   5.015   8.751   0.110 -0.8281 -1.7153 -1.6324
 5855SOL     OW27898   1.016   7.448   2.316  0.4131 -0.3550  0.4269
 5855SOL    HW127899   0.917   7.435   2.312  0.5731 -1.4557 -0.5846
 5855SOL    HW227900   1.061   7.360   2.301  1.5507  0.3321 -0.2759
 5856SOL     OW27901   1.907   4.741   1.223  0.0077  0.3893  0.7272
 5856SOL    HW127902   1.985   4.688   1.256  0.5988  1.6064  1.3168
 5856SOL    HW227903   1.928   4.838   1.229 -1.1315  0.7036 -0.1872
 5857SOL     OW27904   9.974   0.076   3.366  0.5928 -0.1353  0.6301
 5857SOL    HW127905   9.992   0.171   3.390  1.0739 -0.2276  0.6438
 5857SOL    HW227906   9.907   0.073   3.292  0.9843  0.2342  0.2539
 5858SOL     OW27907   3.180   3.361   1.774 -0.2411 -0.0801 -0.1940
 5858SOL    HW127908   3.151   3.452   1.805 -0.5864  0.3906 -1.8309
 5858SOL    HW227909   3.120   3.292   1.814 -0.1091  0.4309  0.8943
 5859SOL     OW27910   8.264   2.245   0.826 -0.3173 -0.5074 -0.0744
 5859SOL    HW127911   8.358   2.268   0.852 -0.1487 -2.9659  1.6258
 5859SOL    HW227912   8.265   2.188   0.744 -0.3407 -0.3024 -0.2172
 5860SOL     OW27913   3.557   6.852   1.701  0.5530  0.1845 -0.3443
 5860SOL    HW127914   3.610   6.773   1.671 -0.4680  0.0065 -1.6994
 5860SOL    HW227915   3.462   6.842   1.671  0.2880  1.6478 -0.0235
 5861SOL     OW27916   8.635   2.955   0.682 -0.2474 -0.3937  0.2584
 5861SOL    HW127917   8.621   2.946   0.584 -0.3609 -1.5019  0.3675
 5861SOL    HW227918   8.620   2.866   0.726 -0.8825  0.2470  1.3584
 5862SOL     OW27919   4.496   1.631   2.151 -0.2836 -0.0461  0.2004
 5862SOL    HW127920   4.542   1.637   2.063 -0.4841  1.6368  0.1943
 5862SOL    HW227921   4.414   1.574   2.141 -0.2861  0.0992 -0.6799
 5863SOL     OW27922   2.879   0.006   2.504 -0.1626  0.5285 -0.4851
 5863SOL    HW127923   2.905  -0.071   2.563 -0.1760  1.1973  0.3885
 5863SOL    HW227924   2.929  -0.001   2.417 -1.9775 -1.8568 -1.4233
 5864SOL     OW27925   2.479   3.505   2.797 -0.8895 -0.0526  0.5040
 5864SOL    HW127926   2.396   3.493   2.851 -0.2408 -2.9345  0.9141
 5864SOL    HW227927   2.454   3.540   2.706 -2.3639  0.6656  1.1534
 5865SOL     OW27928   6.455   8.632   3.145  0.7053  0.1463  0.0600
 5865SOL    HW127929   6.494   8.563   3.206  0.3189 -0.3106 -0.2079
 5865SOL    HW227930   6.417   8.588   3.064 -2.5791  0.2867  1.4302
 5866SOL     OW27931   3.348   3.363   1.287 -0.6068  0.3447  0.2381
 5866SOL    HW127932   3.294   3.305   1.226  1.5704 -0.9551 -0.5266
 5866SOL    HW227933   3.392   3.436   1.233  2.4422 -1.6282 -0.0692
 5867SOL     OW27934   3.449   7.765   3.199 -0.1401 -0.5222 -0.3903
 5867SOL    HW127935   3.388   7.780   3.121 -0.7050 -0.8893 -0.0213
 5867SOL    HW227936   3.541   7.742   3.166 -0.7552 -2.2577 -0.9771
 5868SOL     OW27937   2.835   7.980   1.855  0.0231 -0.8841 -0.3843
 5868SOL    HW127938   2.875   7.925   1.928 -1.9755 -1.1084  0.5780
 5868SOL    HW227939   2.905   8.039   1.815  0.8003  0.5783  2.9728
 5869SOL     OW27940   7.433   1.752   3.573 -0.2172  0.3520 -0.7058
 5869SOL    HW127941   7.390   1.685   3.634  0.1020 -0.4966 -1.4172
 5869SOL    HW227942   7.507   1.799   3.623  1.1716 -1.5325 -0.9400
 5870SOL     OW27943   7.578   0.782   3.064  0.0147 -0.0363 -0.5894
 5870SOL    HW127944   7.494   0.835   3.078  1.0190  1.3715  0.2880
 5870SOL    HW227945   7.594   0.723   3.143  0.0340 -0.0363 -0.5934
 5871SOL     OW27946   1.228   7.404   0.793 -0.1577  0.0888  0.2415
 5871SOL    HW127947   1.282   7.409   0.709  0.0644  0.4847  0.4088
 5871SOL    HW227948   1.230   7.492   0.840 -1.3752  0.2683 -0.0174
 5872SOL     OW27949   3.401   2.298   2.283  0.6038  0.2657  0.0375
 5872SOL    HW127950   3.381   2.388   2.323  0.1273  0.7390 -1.2339
 5872SOL    HW227951   3.490   2.266   2.316  1.5142  1.9244 -0.7235
 5873SOL     OW27952   1.586   4.011   3.254 -0.0937 -0.3079  0.0437
 5873SOL    HW127953   1.494   3.977   3.234  0.6049 -2.8050  0.7965
 5873SOL    HW227954   1.584   4.066   3.338 -0.8860 -0.4120  0.0964
 5874SOL     OW27955   9.753   8.914   1.962 -0.3584  0.2835 -0.0087
 5874SOL    HW127956   9.839   8.915   2.011 -0.1902  0.4110 -0.3019
 5874SOL    HW227957   9.769   8.938   1.866 -0.4450 -1.5879 -0.5087
 5875SOL     OW27958   0.633   3.519   3.180 -0.2585  0.4587  0.1707
 5875SOL    HW127959   0.582   3.597   3.215  0.1242  0.8466 -0.1317
 5875SOL    HW227960   0.591   3.485   3.096 -1.4017 -0.7105  1.1923
 5876SOL     OW27961   8.623   2.706   0.790 -0.7830 -0.2540 -0.4618
 5876SOL    HW127962   8.611   2.686   0.887 -0.9843  1.0865 -0.1913
 5876SOL    HW227963   8.550   2.663   0.737 -0.4340 -1.3362 -0.0618
 5877SOL     OW27964   0.691   2.987   2.206 -0.3438 -0.1377 -0.3280
 5877SOL    HW127965   0.600   3.020   2.182 -0.2770 -0.2306 -0.7014
 5877SOL    HW227966   0.688   2.889   2.222 -0.3171 -0.1317 -0.2838
 5878SOL     OW27967   3.281   0.355   3.464  0.7216  0.6008 -0.0519
 5878SOL    HW127968   3.244   0.275   3.416 -0.2790  0.8866  0.2260
 5878SOL    HW227969   3.352   0.397   3.407 -1.1602  1.5407 -1.7975
 5879SOL     OW27970   8.041   9.581   2.461 -0.2945  0.1876 -0.5731
 5879SOL    HW127971   8.081   9.629   2.539  1.7007  1.4642 -2.3297
 5879SOL    HW227972   8.058   9.483   2.470  1.1347  0.4731 -0.0767
 5880SOL     OW27973   3.780   9.219   0.221  0.1668  0.0543 -0.7409
 5880SOL    HW127974   3.870   9.261   0.233  0.0339  0.2187 -0.3310
 5880SOL    HW227975   3.786   9.146   0.154  0.6232  0.0205 -0.6601
 5881SOL     OW27976   4.172   3.250   0.532 -0.0325 -0.3574 -0.0760
 5881SOL    HW127977   4.237   3.174   0.529  1.5296  0.9389  0.4329
 5881SOL    HW227978   4.215   3.332   0.496 -1.0951  0.7393  1.1038
 5882SOL     OW27979   3.005   4.164   2.655  0.1243  0.2734 -0.1332
 5882SOL    HW127980   2.954   4.077   2.653 -0.8057  0.8255 -0.7272
 5882SOL    HW227981   3.000   4.203   2.747 -0.2616  0.1588 -0.1016
 5883SOL     OW27982   8.740   0.044   2.568  0.1564  0.3046 -0.4254
 5883SOL    HW127983   8.806  -0.028   2.546  1.4211  1.2075  0.3542
 5883SOL    HW227984   8.690   0.070   2.484  0.9169 -0.2589 -1.0585
 5884SOL     OW27985   0.843   8.233   1.010  0.6465  0.2537 -0.3546
 5884SOL    HW127986   0.936   8.208   0.983  0.9601  0.6696  0.3130
 5884SOL    HW227987   0.843   8.259   1.107 -0.5883 -2.0355  0.2936
 5885SOL     OW27988   3.859   3.926   2.158 -0.1790  0.4677 -0.3737
 5885SOL    HW127989   3.825   3.900   2.249  0.2789 -0.8668 -0.5702
 5885SOL    HW227990   3.787   3.910   2.090 -0.1444  0.3920 -0.3929
 5886SOL     OW27991   4.166   0.111   1.138 -0.1183  0.2184 -0.2628
 5886SOL    HW127992   4.157   0.121   1.038 -1.1306 -0.6737 -0.2636
 5886SOL    HW227993   4.173   0.202   1.179  0.7547  0.5858 -1.1821
 5887SOL     OW27994   3.768   0.134   3.785 -0.5075  0.1048  0.6597
 5887SOL    HW127995   3.752   0.121   3.687  0.0918  0.1809  0.5525
 5887SOL    HW227996   3.694   0.190   3.823 -0.4403  0.5524  0.1343
 5888SOL     OW27997   9.020   0.452   3.326  0.1207  0.1424  0.4135
 5888SOL    HW127998   9.119   0.447   3.312  0.1623 -1.7276  1.1841
 5888SOL    HW227999   9.001   0.491   3.417  0.1068  1.5443 -0.1760
 5889SOL     OW28000   2.261   5.237   3.035  0.0686 -0.0097 -0.4041
 5889SOL    HW128001   2.180   5.261   3.089  0.9790  1.9532  0.1344
 5889SOL    HW228002   2.339   5.226   3.096  0.6712  0.2232 -1.1276
 5890SOL     OW28003   4.309   9.270   3.477 -0.0391  0.1215  0.1803
 5890SOL    HW128004   4.344   9.194   3.532 -0.2171  0.0884  0.2490
 5890SOL    HW228005   4.338   9.357   3.518 -1.8955  0.1460  1.5116
 5891SOL     OW28006   1.907   0.643   3.048 -0.0586  0.2795  0.1010
 5891SOL    HW128007   1.966   0.580   3.098  0.7880  0.9499 -0.0546
 5891SOL    HW228008   1.873   0.714   3.111 -0.7460 -0.1296  0.2023
 5892SOL     OW28009   8.223   0.235   2.623 -0.0097  0.2918 -0.1513
 5892SOL    HW128010   8.300   0.253   2.683 -0.0809  0.8342 -0.2267
 5892SOL    HW228011   8.223   0.138   2.598 -0.8562 -0.3019  1.9761
 5893SOL     OW28012   8.072   0.477   1.413  0.5780 -0.5137  0.0893
 5893SOL    HW128013   7.980   0.516   1.405  0.8934  0.2750  0.3124
 5893SOL    HW228014   8.087   0.412   1.339 -0.3304 -0.9985  0.3187
 5894SOL     OW28015   1.774   6.128   2.194  0.1541 -0.0473 -0.2171
 5894SOL    HW128016   1.761   6.066   2.116 -1.9503  0.5091 -0.3171
 5894SOL    HW228017   1.742   6.219   2.170  0.4377  0.3755  0.9726
 5895SOL     OW28018   2.890   3.392   1.270  0.2926 -0.0238 -0.5253
 5895SOL    HW128019   2.947   3.359   1.196  1.4241  0.5641  0.0739
 5895SOL    HW228020   2.852   3.481   1.246  1.9299  0.8999  0.2226
 5896SOL     OW28021   2.302   5.319   1.803  0.2044  0.9259 -0.2452
 5896SOL    HW128022   2.278   5.332   1.899 -1.1903 -0.1165 -0.4379
 5896SOL    HW228023   2.342   5.228   1.791  1.3496  1.4465 -0.4896
 5897SOL     OW28024   2.303   9.536   1.740  0.2815 -0.1776 -0.1297
 5897SOL    HW128025   2.364   9.476   1.792  2.2392  1.4232 -0.5661
 5897SOL    HW228026   2.254   9.481   1.672  0.8764 -1.5579  0.5285
 5898SOL     OW28027   1.951   6.050   1.068  0.0072  0.8041 -0.0792
 5898SOL    HW128028   1.946   6.118   0.994  1.2046 -1.0101 -1.8774
 5898SOL    HW228029   2.013   6.084   1.139  1.7006  1.0171 -1.6261
 5899SOL     OW28030   2.732   0.133   1.372  0.2352  0.5464  0.0970
 5899SOL    HW128031   2.713   0.226   1.404  0.5983  0.7842 -0.3883
 5899SOL    HW228032   2.769   0.136   1.280 -0.3009 -0.1161 -0.1452
 5900SOL     OW28033   9.880   9.710   2.601  0.1203  0.0201 -0.5818
 5900SOL    HW128034   9.854   9.648   2.674  1.1917  1.2351  0.8557
 5900SOL    HW228035   9.919   9.794   2.640 -2.1202  2.0013 -2.4441
 5901SOL     OW28036   7.532   9.899   0.168 -0.0464 -0.2935 -0.1044
 5901SOL    HW128037   7.479   9.864   0.245 -0.7991 -0.9565 -0.9136
 5901SOL    HW228038   7.498   9.859   0.083  1.4671 -0.3837 -0.6787
 5902SOL     OW28039   3.320   8.722   0.181  0.8097 -0.0712 -0.1731
 5902SOL    HW128040   3.418   8.739   0.179  0.2334  4.0219  1.8652
 5902SOL    HW228041   3.286   8.730   0.274 -1.8251  0.8771 -1.1557
 5903SOL     OW28042   4.013   0.606   0.243  0.1690 -0.4388 -0.0272
 5903SOL    HW128043   4.050   0.698   0.227  0.3676 -0.3484  0.9030
 5903SOL    HW228044   3.946   0.610   0.317  1.0909 -1.2531  0.8631
 5904SOL     OW28045   3.333   0.135   2.057 -0.0389  0.4429 -0.3346
 5904SOL    HW128046   3.371   0.151   1.966 -0.5846 -0.7697 -0.7903
 5904SOL    HW228047   3.304   0.222   2.096  1.2416  1.1184 -0.8465
 5905SOL     OW28048   1.721   4.249   0.511 -0.3258  0.2316 -0.3070
 5905SOL    HW128049   1.802   4.192   0.508 -1.9641 -2.2290  0.9903
 5905SOL    HW228050   1.722   4.312   0.433  2.9687  0.5211 -0.0956
 5906SOL     OW28051   3.811   8.322   2.802  0.2409  0.1726  0.0654
 5906SOL    HW128052   3.782   8.277   2.886 -1.9800  1.0309 -0.2294
 5906SOL    HW228053   3.846   8.413   2.823  2.7343 -0.8024  0.3993
 5907SOL     OW28054   3.783   2.530   3.229 -0.2259  0.2634 -0.7325
 5907SOL    HW128055   3.759   2.623   3.204  2.8833  0.5906 -2.6907
 5907SOL    HW228056   3.872   2.529   3.275 -0.6190 -1.6370  0.0427
 5908SOL     OW28057   0.589   9.614   2.188 -0.1793 -0.0894 -0.4755
 5908SOL    HW128058   0.652   9.551   2.234  0.4723  0.1296 -1.0451
 5908SOL    HW228059   0.541   9.669   2.256 -0.2828 -0.7571 -0.0034
 5909SOL     OW28060   7.856   0.966   3.116 -0.5243 -0.0150  0.1980
 5909SOL    HW128061   7.924   0.899   3.147  0.6838  1.2436  0.3506
 5909SOL    HW228062   7.828   0.944   3.022 -0.2053 -0.7799  0.2784
 5910SOL     OW28063   4.387   8.995   0.045 -0.2618 -0.2566 -0.3660
 5910SOL    HW128064   4.329   9.052  -0.015 -0.0147  1.4203  0.9410
 5910SOL    HW228065   4.397   9.040   0.133 -0.8255 -2.8232  1.0516
 5911SOL     OW28066   2.715   0.606   2.186  0.7804 -0.0307 -0.3202
 5911SOL    HW128067   2.700   0.508   2.198  0.4152 -0.1094 -1.3384
 5911SOL    HW228068   2.763   0.622   2.099  3.7623  0.4689  1.3698
 5912SOL     OW28069   0.279   9.341   2.310 -0.1980  0.0109 -0.2528
 5912SOL    HW128070   0.362   9.297   2.344 -0.4688 -0.2584  0.0666
 5912SOL    HW228071   0.248   9.409   2.376  0.6714  1.2605 -1.1197
 5913SOL     OW28072   0.834   3.622   1.845  1.2023  0.1452 -0.0849
 5913SOL    HW128073   0.777   3.668   1.914 -0.5614 -0.7132 -0.9256
 5913SOL    HW228074   0.888   3.551   1.889  0.1993 -0.2928  0.4583
 5914SOL     OW28075   1.999   2.818   1.053 -0.0632  0.8351 -0.4862
 5914SOL    HW128076   1.969   2.891   1.114 -1.9977  0.2031 -0.6667
 5914SOL    HW228077   2.052   2.858   0.978 -2.6277  2.3080 -1.5906
 5915SOL     OW28078   1.131   9.821   3.545  0.6663 -0.3196 -0.2713
 5915SOL    HW128079   1.179   9.884   3.606  3.0838 -0.4499 -1.9521
 5915SOL    HW228080   1.100   9.870   3.463 -1.7054 -0.3449  0.5724
 5916SOL     OW28081   0.211   9.819   2.445  0.4453  0.4946 -0.5314
 5916SOL    HW128082   0.136   9.857   2.391 -0.4378  0.2827  0.5213
 5916SOL    HW228083   0.293   9.810   2.388  0.0568  1.9914 -1.3434
 5917SOL     OW28084   9.478   0.353   3.688 -0.1673  0.1184 -0.4152
 5917SOL    HW128085   9.484   0.253   3.682  0.0418  0.1247 -0.3415
 5917SOL    HW228086   9.571   0.391   3.692 -0.2092  0.0546  3.6096
 5918SOL     OW28087   7.434   1.121   2.342 -0.9796  0.1205  0.5214
 5918SOL    HW128088   7.411   1.043   2.401  0.8033 -0.0771  0.9588
 5918SOL    HW228089   7.517   1.165   2.376 -1.4509  1.6514 -0.2810
 5919SOL     OW28090   0.865   0.578   0.929 -0.1320  0.4114  0.3694
 5919SOL    HW128091   0.860   0.555   1.026  2.8483  3.2188  1.2871
 5919SOL    HW228092   0.943   0.531   0.888  0.4832  1.6364  0.1098
 5920SOL     OW28093   1.909   3.388   0.866 -0.3978 -0.4697  0.5533
 5920SOL    HW128094   1.889   3.463   0.802 -1.6246 -1.8629 -0.7350
 5920SOL    HW228095   1.989   3.412   0.921 -0.4825  1.5846 -0.1661
 5921SOL     OW28096   3.210   6.522   2.992  0.1814  0.1533  0.0531
 5921SOL    HW128097   3.152   6.475   2.925  1.1849 -1.0738  0.0187
 5921SOL    HW228098   3.231   6.460   3.067  3.1401 -0.1459 -0.9413
 5922SOL     OW28099   5.987   9.455   2.146  0.5790  0.9645  0.2065
 5922SOL    HW128100   6.012   9.517   2.221  1.9409 -0.9422  1.3768
 5922SOL    HW228101   6.064   9.445   2.084  0.4958  0.1778  0.2231
 5923SOL     OW28102   2.609   0.529   1.807  0.4041  0.1905 -0.3435
 5923SOL    HW128103   2.526   0.475   1.820  0.6215 -0.4412 -1.5352
 5923SOL    HW228104   2.682   0.470   1.770  1.2794  0.8112  0.3762
 5924SOL     OW28105   9.144   0.096   2.529  0.6531 -0.6151  0.1179
 5924SOL    HW128106   9.181   0.171   2.473 -2.4816  1.7065  1.0664
 5924SOL    HW228107   9.064   0.057   2.483 -0.1875 -0.6383  1.5922
 5925SOL     OW28108   3.671   3.034   3.009  0.0043  0.2307  0.3875
 5925SOL    HW128109   3.739   3.105   3.032  2.8960 -2.4486  0.5099
 5925SOL    HW228110   3.626   3.003   3.092  1.5281 -0.7432  0.8761
 5926SOL     OW28111   3.429   8.206   2.786 -0.3858  0.1224 -0.6139
 5926SOL    HW128112   3.395   8.299   2.803 -0.6678  0.0974 -1.0414
 5926SOL    HW228113   3.498   8.209   2.714 -0.9612 -0.1094 -1.1704
 5927SOL     OW28114   0.327   9.926   2.685  0.5403 -0.3327 -0.2053
 5927SOL    HW128115   0.265   9.876   2.624 -0.0776  0.0872  0.0630
 5927SOL    HW228116   0.308   9.901   2.780  1.2699 -0.7330 -0.1679
 5928SOL     OW28117   2.405   0.549   1.076 -0.2606  0.5759  0.3356
 5928SOL    HW128118   2.338   0.597   1.132 -0.2265  0.8672  0.1307
 5928SOL    HW228119   2.497   0.578   1.102 -0.2999  1.9449 -0.9674
 5929SOL     OW28120   2.591   3.154   2.663  0.2860 -0.2416 -0.3213
 5929SOL    HW128121   2.605   3.055   2.669  0.6545 -0.4076 -3.1091
 5929SOL    HW228122   2.581   3.192   2.754 -2.2042 -3.1712  0.7104
 5930SOL     OW28123   3.663   3.305   0.159  0.0450  0.3184 -0.0710
 5930SOL    HW128124   3.664   3.336   0.253 -2.1563  0.0736  0.0545
 5930SOL    HW228125   3.620   3.374   0.101  0.6958  0.1375 -0.7832
 5931SOL     OW28126   0.033   8.477   2.940 -0.5226  0.2031 -0.5122
 5931SOL    HW128127  -0.054   8.444   2.904 -1.3483 -1.0354  2.4353
 5931SOL    HW228128   0.078   8.404   2.990  1.0973  1.5250  0.0210
 5932SOL     OW28129   8.333   2.740   0.921 -0.4665 -0.1798 -0.2190
 5932SOL    HW128130   8.383   2.691   0.992 -0.9188 -0.1895  0.0948
 5932SOL    HW228131   8.237   2.711   0.922 -0.2255 -1.0917 -1.6303
 5933SOL     OW28132   4.539   8.487   3.660 -0.4792  0.5714 -0.2218
 5933SOL    HW128133   4.510   8.410   3.716  0.9038 -1.4994 -2.2676
 5933SOL    HW228134   4.596   8.548   3.715 -2.9463  1.0826  1.8762
 5934SOL     OW28135   1.562   2.250   1.189 -0.1629 -0.1359 -0.4365
 5934SOL    HW128136   1.467   2.234   1.215  0.0266  0.8337  0.8649
 5934SOL    HW228137   1.614   2.165   1.199 -0.4472 -0.1717  0.8051
 5935SOL     OW28138   2.488   9.378   0.230  0.2873 -0.5323  0.6281
 5935SOL    HW128139   2.517   9.288   0.262 -0.3089 -1.5106 -1.5376
 5935SOL    HW228140   2.536   9.402   0.146  0.4261  1.1823  1.1712
 5936SOL     OW28141   0.226   0.450   1.093 -0.5113 -0.0398 -0.3441
 5936SOL    HW128142   0.164   0.526   1.114 -1.3863 -1.1685  1.2479
 5936SOL    HW228143   0.271   0.467   1.005 -1.5967  1.7355 -0.5774
 5937SOL     OW28144   1.097   1.105   2.879 -0.0525 -0.6990 -0.1110
 5937SOL    HW128145   1.131   1.198   2.896 -0.5760 -0.4163 -0.6202
 5937SOL    HW228146   1.085   1.091   2.781 -3.2543 -0.1420  0.1656
 5938SOL     OW28147   2.435   6.775   0.539 -0.3707  0.5484  0.1381
 5938SOL    HW128148   2.412   6.789   0.443 -1.0813 -0.4057  0.1591
 5938SOL    HW228149   2.374   6.829   0.596  0.2945  1.4083  0.0493
 5939SOL     OW28150   0.453   8.493   3.857  0.2047  0.3570  0.1914
 5939SOL    HW128151   0.463   8.553   3.937  0.1057  0.8280 -0.1454
 5939SOL    HW228152   0.436   8.549   3.776  1.2310 -0.0667 -0.3196
 5940SOL     OW28153   7.456   9.019   0.747 -0.1453  0.8037  0.2656
 5940SOL    HW128154   7.479   8.932   0.704 -3.1999  1.2954 -2.5275
 5940SOL    HW228155   7.495   9.094   0.694  2.7510  1.1979  2.8426
 5941SOL     OW28156   1.446   3.534   3.757  0.2314  0.6158 -0.1958
 5941SOL    HW128157   1.493   3.501   3.675  2.6845  1.0642  0.9569
 5941SOL    HW228158   1.412   3.456   3.809 -2.1208  0.3620 -2.0249
 5942SOL     OW28159   9.157   8.593   1.121 -0.1940 -0.0151 -0.0810
 5942SOL    HW128160   9.074   8.538   1.122 -0.5424  0.5104  0.6753
 5942SOL    HW228161   9.237   8.534   1.124 -0.5598 -0.4945  0.3018
 5943SOL     OW28162   0.333   9.822   2.943 -0.6884  0.1727  0.6513
 5943SOL    HW128163   0.271   9.745   2.931 -0.9759  0.5353 -0.2506
 5943SOL    HW228164   0.427   9.791   2.928 -0.9328  0.3301 -1.4341
 5944SOL     OW28165   2.611   8.659   3.279  0.5484 -0.4349  0.2293
 5944SOL    HW128166   2.512   8.662   3.296  0.4518 -0.6667 -0.2848
 5944SOL    HW228167   2.656   8.612   3.354  0.3203  0.1054  0.7085
 5945SOL     OW28168   2.383   4.823   2.870  0.2318 -0.0683  0.2400
 5945SOL    HW128169   2.455   4.811   2.803 -0.2399 -0.2112 -0.2437
 5945SOL    HW228170   2.371   4.738   2.923 -0.5575 -0.5262 -0.6546
 5946SOL     OW28171   5.244   9.559   2.257 -0.3681 -0.7283  0.1648
 5946SOL    HW128172   5.312   9.507   2.310  0.1210  0.5157  0.7742
 5946SOL    HW228173   5.153   9.535   2.288 -0.0613  0.5081  2.0929
 5947SOL     OW28174   2.107   8.366   3.891 -0.2837  0.4865 -0.0679
 5947SOL    HW128175   2.021   8.319   3.873 -0.3689 -0.2980  2.1553
 5947SOL    HW228176   2.137   8.416   3.810 -1.8479 -0.7978 -1.4427
 5948SOL     OW28177   2.118   6.287   0.213 -0.9791 -0.3892 -0.0917
 5948SOL    HW128178   2.082   6.317   0.300  0.8891  1.5961  0.0466
 5948SOL    HW228179   2.061   6.322   0.139 -1.8347 -1.0064  0.2661
 5949SOL     OW28180   8.711   2.490   2.009  0.4472  0.2832  0.2511
 5949SOL    HW128181   8.737   2.500   2.105  1.9069 -2.5163  0.2028
 5949SOL    HW228182   8.764   2.554   1.953 -1.5370  3.0418  1.4205
 5950SOL     OW28183   4.469   1.398   1.901 -0.0500 -0.2092  0.0272
 5950SOL    HW128184   4.411   1.405   1.982  0.9740  0.8464  0.6959
 5950SOL    HW228185   4.425   1.340   1.833 -1.6821  0.2263  0.6845
 5951SOL     OW28186   3.604   6.289   2.205 -0.1175 -0.3320  0.7950
 5951SOL    HW128187   3.533   6.226   2.176 -0.8940  0.3016  1.2915
 5951SOL    HW228188   3.562   6.371   2.244  0.7828  1.6556 -2.1996
 5952SOL     OW28189   0.788   3.704   2.442 -0.8015 -0.3830  0.0855
 5952SOL    HW128190   0.822   3.793   2.413  1.0140 -1.0344  0.1707
 5952SOL    HW228191   0.819   3.684   2.535  0.6571 -2.0220 -0.7185
 5953SOL     OW28192   4.149   4.813   2.006 -0.7440  0.3591  0.2648
 5953SOL    HW128193   4.136   4.880   2.080  0.0007 -0.0959  0.8062
 5953SOL    HW228194   4.175   4.725   2.045 -0.8794 -0.0256 -0.5098
 5954SOL     OW28195   2.115   2.857   3.736 -0.6287  0.7342 -0.6240
 5954SOL    HW128196   2.053   2.915   3.683 -1.9627 -0.6965 -0.6709
 5954SOL    HW228197   2.181   2.814   3.675 -0.7776  0.8041 -0.8339
 5955SOL     OW28198   0.928   0.380   3.764 -0.1582  0.3607 -0.3160
 5955SOL    HW128199   0.995   0.455   3.760  0.8399 -0.4051  1.6097
 5955SOL    HW228200   0.974   0.296   3.793 -1.6309 -0.5880 -0.6960
 5956SOL     OW28201   2.933   3.314   3.591  0.0648  0.3442  0.5459
 5956SOL    HW128202   2.859   3.350   3.647  0.0025  1.9437 -0.5368
 5956SOL    HW228203   3.016   3.307   3.645 -0.5174 -0.1315  1.3883
 5957SOL     OW28204   0.438   1.520   3.460 -0.4682  0.3917  0.7697
 5957SOL    HW128205   0.437   1.615   3.431 -0.5813 -0.0427 -0.6556
 5957SOL    HW228206   0.482   1.513   3.550  1.1626  1.5568  0.0859
 5958SOL     OW28207   8.428   0.706   0.846  0.4211 -0.1633  0.0290
 5958SOL    HW128208   8.442   0.784   0.905 -0.4590  0.6894 -0.8640
 5958SOL    HW228209   8.516   0.674   0.810  0.4898  2.7751 -2.5772
 5959SOL     OW28210   8.944   3.137   1.378  0.1692  0.3479 -0.2382
 5959SOL    HW128211   9.017   3.136   1.308  1.0581  0.9745  0.6632
 5959SOL    HW228212   8.946   3.052   1.430  0.4478  0.4787 -0.0314
 5960SOL     OW28213   2.011   6.468   2.213 -0.0920  0.3922 -0.4170
 5960SOL    HW128214   1.989   6.376   2.246  1.8208  0.5792  1.4655
 5960SOL    HW228215   1.962   6.536   2.267 -1.1470  0.5187 -1.5096
 5961SOL     OW28216   2.820   5.169   2.824  0.0199  0.4477  0.3832
 5961SOL    HW128217   2.789   5.082   2.861 -0.4203  0.6875  0.5867
 5961SOL    HW228218   2.777   5.184   2.734 -1.7105  1.5047  1.3559
 5962SOL     OW28219   3.108   5.907   1.456  0.7647  0.3228  0.6329
 5962SOL    HW128220   3.155   5.989   1.424 -0.1209  0.8592  0.6708
 5962SOL    HW228221   3.014   5.931   1.482  1.3662 -0.1311  3.4055
 5963SOL     OW28222   4.582   7.974   2.221 -0.0812 -0.2646  0.3886
 5963SOL    HW128223   4.523   8.045   2.182  0.2917 -1.1155 -1.7600
 5963SOL    HW228224   4.554   7.957   2.316 -1.1967  1.6173  0.4340
 5964SOL     OW28225   1.042   7.134   3.377  0.2928  0.2308 -0.0773
 5964SOL    HW128226   0.969   7.070   3.352  0.4653 -0.1027  0.2868
 5964SOL    HW228227   1.013   7.227   3.352  0.6698 -0.1458 -2.0348
 5965SOL     OW28228   2.715   4.513   2.679 -0.0262  0.1710  0.4391
 5965SOL    HW128229   2.724   4.414   2.685  0.5940  0.1318 -0.9609
 5965SOL    HW228230   2.695   4.539   2.584 -0.1675  1.3804  0.7901
 5966SOL     OW28231   8.672   0.730   0.283  0.4906  0.0040  0.1010
 5966SOL    HW128232   8.714   0.800   0.226  0.3132  0.5484  0.6395
 5966SOL    HW228233   8.609   0.773   0.348 -1.3374 -0.8273 -1.0575
 5967SOL     OW28234   7.349   0.028   3.835 -0.2343  0.3051  0.1190
 5967SOL    HW128235   7.438   0.012   3.791 -0.2985  0.2869 -0.0046
 5967SOL    HW228236   7.356   0.105   3.898 -0.0039 -0.0080  0.4784
 5968SOL     OW28237   8.158   3.038   3.688  0.3319 -0.1898  0.2223
 5968SOL    HW128238   8.170   3.064   3.592 -1.4196  1.3977  0.3836
 5968SOL    HW228239   8.241   3.058   3.739  0.6075  0.7937 -0.6015
 5969SOL     OW28240   3.262   2.449   2.983  0.4474  0.6673 -0.2171
 5969SOL    HW128241   3.339   2.474   3.041  0.0568  0.2524  0.4829
 5969SOL    HW228242   3.194   2.523   2.985 -0.6102 -0.3387  1.6831
 5970SOL     OW28243   5.900   8.819   2.919  0.2986  0.2842  0.3858
 5970SOL    HW128244   5.974   8.883   2.895  0.5975 -0.1385  0.1592
 5970SOL    HW228245   5.924   8.771   3.003  1.6322 -1.9235 -1.1933
 5971SOL     OW28246   0.527   7.358   2.371 -0.3808  0.0183  0.0498
 5971SOL    HW128247   0.498   7.296   2.298  4.5190 -1.5131 -0.7520
 5971SOL    HW228248   0.557   7.444   2.331  1.4427 -0.4832  0.3224
 5972SOL     OW28249   2.630   3.408   1.434 -0.5435  0.5448  0.0865
 5972SOL    HW128250   2.721   3.419   1.392 -1.0099 -1.8836 -1.6323
 5972SOL    HW228251   2.571   3.483   1.405  0.6667  1.7138  0.5839
 5973SOL     OW28252   4.619   0.527   0.274  0.7539 -0.1589  0.0552
 5973SOL    HW128253   4.604   0.574   0.187  0.4289 -0.1682  0.1052
 5973SOL    HW228254   4.679   0.448   0.259  1.8073  0.6245  0.0790
 5974SOL     OW28255   4.186   0.267   2.001 -0.9411 -0.5809 -0.2421
 5974SOL    HW128256   4.281   0.240   2.012 -0.6046  1.0162  0.9672
 5974SOL    HW228257   4.170   0.294   1.906  0.0338 -0.0967 -0.2817
 5975SOL     OW28258   4.842   8.742   1.691 -0.3534  0.0260 -0.3621
 5975SOL    HW128259   4.820   8.701   1.603  1.1164 -0.7809 -0.3642
 5975SOL    HW228260   4.931   8.709   1.723  0.2073  2.0715  0.3267
 5976SOL     OW28261   2.470   9.862   0.498 -0.5663 -0.0889 -0.1513
 5976SOL    HW128262   2.484   9.947   0.447  2.3741 -0.6890 -0.4514
 5976SOL    HW228263   2.406   9.803   0.448 -0.3393  0.7286 -1.4291
 5977SOL     OW28264   0.143   0.047   0.535 -0.0586  0.3458 -0.2049
 5977SOL    HW128265   0.094   0.021   0.452  3.3774  0.3742 -2.3582
 5977SOL    HW228266   0.120   0.141   0.560 -3.1246 -0.5304  0.4745
 5978SOL     OW28267   8.130   3.246   1.661 -0.2752 -0.1018  0.2047
 5978SOL    HW128268   8.053   3.300   1.626 -0.2251 -1.8274 -2.6839
 5978SOL    HW228269   8.211   3.265   1.607  0.9888  0.5382  2.2739
 5979SOL     OW28270   2.398   8.578   0.746 -0.2948  0.1649  0.1551
 5979SOL    HW128271   2.441   8.511   0.807  0.1564 -0.0498 -0.3920
 5979SOL    HW228272   2.321   8.620   0.793 -0.2305 -0.3226  0.7163
 5980SOL     OW28273   2.046   6.920   0.240  0.0961  0.8753  0.1376
 5980SOL    HW128274   2.029   6.822   0.241  2.2395  0.4659  2.3130
 5980SOL    HW228275   1.974   6.967   0.188 -1.0505 -1.7975 -0.7479
 5981SOL     OW28276   7.528   4.256   0.671 -0.5932 -0.1872 -0.4290
 5981SOL    HW128277   7.459   4.188   0.646 -1.0792  0.1045  0.1200
 5981SOL    HW228278   7.513   4.286   0.765  0.1038  0.0980 -0.4038
 5982SOL     OW28279   2.980   6.078   3.135  0.1002 -0.3339 -0.2209
 5982SOL    HW128280   2.903   6.021   3.109 -0.1374 -0.4212  0.6661
 5982SOL    HW228281   2.957   6.131   3.216 -0.6910  3.0828 -2.5503
 5983SOL     OW28282   2.652   2.667   3.500 -0.2420 -0.0289 -0.1255
 5983SOL    HW128283   2.716   2.610   3.553  0.0247 -0.1282 -0.5528
 5983SOL    HW228284   2.561   2.627   3.505 -0.6328  1.0859  1.9672
 5984SOL     OW28285   0.014   9.050   3.940  0.2378 -0.2068  0.4199
 5984SOL    HW128286  -0.015   8.966   3.895  0.5577 -0.5888  0.9235
 5984SOL    HW228287   0.113   9.060   3.933  0.2996 -0.2933  1.0628
 5985SOL     OW28288   8.613   0.639   2.464 -0.6215 -0.2937 -0.1514
 5985SOL    HW128289   8.683   0.709   2.453  1.1172 -2.4175 -3.1757
 5985SOL    HW228290   8.637   0.579   2.540  0.0230 -0.0772 -0.1850
 5986SOL     OW28291   9.088   0.346   3.661 -0.3840  0.2711  0.6308
 5986SOL    HW128292   9.144   0.427   3.645 -0.1868 -0.0548 -0.3660
 5986SOL    HW228293   9.146   0.269   3.687 -0.3859  0.0074 -0.1235
 5987SOL     OW28294   8.237   0.213   3.412  0.5640  0.2548  0.6503
 5987SOL    HW128295   8.220   0.131   3.357  0.2815 -0.0767  1.2280
 5987SOL    HW228296   8.309   0.195   3.479  1.8448  1.0697 -0.4898
 5988SOL     OW28297   2.302   8.142   3.127 -0.2410  1.1106  0.4176
 5988SOL    HW128298   2.231   8.122   3.061  0.3339 -1.8680  0.6276
 5988SOL    HW228299   2.273   8.112   3.218  1.0880  0.2118  0.5685
 5989SOL     OW28300   9.239   3.941   0.750 -0.4742  0.0958 -1.0521
 5989SOL    HW128301   9.155   3.948   0.804  1.1479  1.3638  1.4434
 5989SOL    HW228302   9.234   4.001   0.671 -2.8909 -1.7552 -2.3667
 5990SOL     OW28303   9.870   1.801   0.881  0.0720  0.1113 -0.0688
 5990SOL    HW128304   9.869   1.887   0.931 -3.0394  1.2943 -2.0382
 5990SOL    HW228305   9.799   1.741   0.918  0.1476 -0.3901 -0.7263
 5991SOL     OW28306   9.960   2.466   1.262 -0.1614  0.4984 -0.0535
 5991SOL    HW128307  10.031   2.400   1.240 -0.5396 -0.5843  1.8830
 5991SOL    HW228308   9.872   2.432   1.230 -0.2567  0.4007  0.3125
 5992SOL     OW28309   3.027   7.266   0.890  0.1637  0.2222 -0.1701
 5992SOL    HW128310   3.073   7.208   0.822  0.6634  0.4048  0.0159
 5992SOL    HW228311   3.013   7.357   0.851  0.9870  0.5018  0.1917
 5993SOL     OW28312   0.958   0.298   1.045  0.2953 -0.6515  0.6847
 5993SOL    HW128313   1.031   0.257   1.101  0.4164  0.7515  1.5740
 5993SOL    HW228314   0.909   0.365   1.099 -1.0312 -0.8704 -0.2383
 5994SOL     OW28315   4.347   3.044   0.913  0.3527  0.3957 -0.0585
 5994SOL    HW128316   4.382   2.956   0.944  1.0067  0.9498  0.8202
 5994SOL    HW228317   4.280   3.078   0.979  1.4509  1.3970  0.5693
 5995SOL     OW28318   6.294   0.101   3.595  0.0777  0.3827 -0.0928
 5995SOL    HW128319   6.210   0.139   3.555  0.0947  0.4540 -0.0601
 5995SOL    HW228320   6.278   0.006   3.621  0.2805  0.1111 -0.9297
 5996SOL     OW28321   8.865   8.078   0.797  0.5350  0.1281 -0.4317
 5996SOL    HW128322   8.876   8.111   0.890  1.7619  1.2296 -0.9494
 5996SOL    HW228323   8.911   7.990   0.787 -3.0071 -1.9996  1.0333
 5997SOL     OW28324   2.893   2.638   0.132  0.2423  0.0266  0.0738
 5997SOL    HW128325   2.821   2.706   0.142  1.5525  1.4709 -0.1042
 5997SOL    HW228326   2.917   2.629   0.035  2.4048  1.8307  0.3988
 5998SOL     OW28327   2.319   2.393   3.261 -0.1166  0.0950  0.3835
 5998SOL    HW128328   2.303   2.312   3.204  1.0743 -1.0085  1.5919
 5998SOL    HW228329   2.391   2.448   3.220 -1.4690  0.9825 -0.8622
 5999SOL     OW28330   0.285   7.939   2.742  0.8342 -0.6502  0.4632
 5999SOL    HW128331   0.308   7.998   2.664 -0.1911  0.0715  0.6892
 5999SOL    HW228332   0.218   7.985   2.800  2.2752 -0.7750  2.2978
 6000SOL     OW28333   4.601   0.726   1.571  0.0432  0.0966  0.0745
 6000SOL    HW128334   4.534   0.731   1.497 -0.8151  0.4348  0.8698
 6000SOL    HW228335   4.633   0.631   1.580 -1.2421 -0.3133  0.4836
 6001SOL     OW28336   1.293   4.834   0.312 -0.1262 -0.0816 -0.2302
 6001SOL    HW128337   1.291   4.740   0.279 -1.1282 -0.5329  1.0985
 6001SOL    HW228338   1.387   4.858   0.339  0.1116 -0.7247 -0.4860
 6002SOL     OW28339   1.064   7.367   1.729  0.2824 -0.2382 -0.3930
 6002SOL    HW128340   1.073   7.268   1.739  0.2930 -0.1428  0.5137
 6002SOL    HW228341   1.005   7.386   1.650 -0.6845 -0.9866  0.1227
 6003SOL     OW28342   3.625   2.773   3.174  0.2594 -0.2351 -0.1876
 6003SOL    HW128343   3.557   2.716   3.128 -0.0554  0.8355 -1.0728
 6003SOL    HW228344   3.582   2.820   3.252 -0.0112  0.3592 -0.6836
 6004SOL     OW28345   8.277   3.157   0.555  0.4509 -0.0045  0.4559
 6004SOL    HW128346   8.323   3.237   0.516  1.2944 -0.5569  0.3249
 6004SOL    HW228347   8.312   3.141   0.647 -1.4547  1.2327  1.4469
 6005SOL     OW28348   4.752   8.003   0.043 -0.0953  0.0762 -0.3926
 6005SOL    HW128349   4.655   8.011   0.017  0.1962  1.5435 -1.0902
 6005SOL    HW228350   4.797   7.934  -0.014 -0.1868  1.0671 -1.6806
 6006SOL     OW28351   7.624   8.963   2.724 -0.1794 -0.8136  0.8868
 6006SOL    HW128352   7.674   8.965   2.810 -1.2566  0.4431  1.4960
 6006SOL    HW228353   7.527   8.983   2.741 -0.5393 -1.3173 -0.5115
 6007SOL     OW28354   2.432   7.893   0.688  0.0430  0.4563 -0.1270
 6007SOL    HW128355   2.531   7.908   0.690 -0.1668  1.8991  1.7881
 6007SOL    HW228356   2.408   7.823   0.754 -0.4175  1.6946  1.0463
 6008SOL     OW28357   9.767   2.275   3.852 -0.1238  0.2680 -1.2008
 6008SOL    HW128358   9.737   2.223   3.772 -2.4326 -1.3179  0.6052
 6008SOL    HW228359   9.783   2.370   3.827 -0.4302 -0.2933 -3.6140
 6009SOL     OW28360   9.419   1.499   3.251 -0.3934  0.0361  0.4376
 6009SOL    HW128361   9.408   1.591   3.287  2.4127  0.6884 -0.2201
 6009SOL    HW228362   9.341   1.477   3.193 -0.4224  2.5836 -0.5774
 6010SOL     OW28363   4.076   3.577   0.356  0.2888  0.2417 -0.2726
 6010SOL    HW128364   4.105   3.590   0.451 -0.9890  0.5003  0.0813
 6010SOL    HW228365   4.086   3.480   0.332  1.1787  0.2741 -0.0733
 6011SOL     OW28366   0.081   7.451   2.052 -0.1432  0.5268 -0.4091
 6011SOL    HW128367   0.041   7.443   2.144  0.9860  0.9114  0.1274
 6011SOL    HW228368   0.160   7.512   2.056  0.2090  0.1495 -1.5535
 6012SOL     OW28369   8.531   1.681   2.910 -0.3130  0.3476  0.2540
 6012SOL    HW128370   8.440   1.646   2.887 -1.0461  1.5946  1.2124
 6012SOL    HW228371   8.575   1.715   2.827 -0.4634 -0.8053 -0.3155
 6013SOL     OW28372   0.962   7.843   3.220 -0.2373  0.1609 -0.0655
 6013SOL    HW128373   1.001   7.769   3.165  0.7628  0.2927  0.4634
 6013SOL    HW228374   1.026   7.919   3.224 -1.0798  0.8939 -0.2346
 6014SOL     OW28375   8.497   2.911   0.057  0.0095 -0.5765 -0.6741
 6014SOL    HW128376   8.527   2.820   0.086 -1.1938 -1.0763 -0.9453
 6014SOL    HW228377   8.558   2.980   0.095  0.1148 -1.4105  0.7224
 6015SOL     OW28378   3.907   7.381   3.893 -0.1275  0.1189 -0.3162
 6015SOL    HW128379   3.867   7.472   3.902 -0.4849 -0.1147  0.4647
 6015SOL    HW228380   3.845   7.313   3.932  0.7133 -0.3164  0.2756
 6016SOL     OW28381   3.864   9.622   0.822 -0.6985  0.4998 -0.3876
 6016SOL    HW128382   3.843   9.711   0.862 -0.1123  0.6309 -0.3655
 6016SOL    HW228383   3.947   9.630   0.766 -1.1398  0.1658 -1.0862
 6017SOL     OW28384   4.092   8.333   1.127  0.2125  0.1126  0.5016
 6017SOL    HW128385   4.024   8.326   1.054  1.1629  1.0081 -0.4862
 6017SOL    HW228386   4.059   8.285   1.208 -0.7116 -1.1960 -0.6279
 6018SOL     OW28387   6.063   0.268   2.452 -0.3050  0.0871  0.3218
 6018SOL    HW128388   6.135   0.330   2.484  0.9124 -2.8183  3.5414
 6018SOL    HW228389   6.085   0.236   2.359  1.5829  0.6901  0.5439
 6019SOL     OW28390   6.996   9.975   1.061  0.4000 -0.4643  0.0665
 6019SOL    HW128391   7.033   9.997   1.151  0.8874  0.7126 -0.4050
 6019SOL    HW228392   7.057  10.012   0.990 -1.6146  1.4924 -0.7202
 6020SOL     OW28393   5.088   0.001   2.751 -0.1675  0.3031 -0.0846
 6020SOL    HW128394   5.184   0.016   2.777 -0.0146  0.3349 -0.6572
 6020SOL    HW228395   5.048  -0.068   2.812  0.6999 -0.9172 -0.8654
 6021SOL     OW28396   1.432   4.933   1.920 -0.0388  0.2041 -0.2300
 6021SOL    HW128397   1.400   4.840   1.936  1.5385 -0.9534 -3.3221
 6021SOL    HW228398   1.379   4.974   1.846 -0.2906  1.5617  0.6787
 6022SOL     OW28399   0.512   4.247   0.472  0.6095  0.1421  0.1261
 6022SOL    HW128400   0.596   4.209   0.510  0.8728  2.1628  1.6206
 6022SOL    HW228401   0.508   4.346   0.489 -1.7030  0.2256 -0.6053
 6023SOL     OW28402   3.414   3.157   2.953  0.1250 -0.2150 -0.8836
 6023SOL    HW128403   3.328   3.108   2.940  1.1308 -2.3902  0.3824
 6023SOL    HW228404   3.486   3.114   2.897  1.2342 -0.8345  0.9776
 6024SOL     OW28405   0.914   1.497   3.712  0.4514  0.2433  0.2294
 6024SOL    HW128406   0.875   1.548   3.788  1.4931  0.2280  0.7717
 6024SOL    HW228407   1.013   1.493   3.721  0.3512 -2.2886  0.4520
 6025SOL     OW28408   4.791   8.495   2.175 -0.0133  0.1810 -0.4307
 6025SOL    HW128409   4.790   8.396   2.165 -2.6567  0.2517 -1.0705
 6025SOL    HW228410   4.791   8.519   2.272 -3.4063 -0.4597 -0.2274
 6026SOL     OW28411   8.098   0.388   3.228 -0.1923  0.3409 -0.0560
 6026SOL    HW128412   8.171   0.389   3.159 -0.2792 -2.4578 -0.2751
 6026SOL    HW228413   8.116   0.314   3.293 -3.0114 -0.6334 -0.3235
 6027SOL     OW28414   9.744   1.639   2.760  0.4469 -0.5203 -0.2563
 6027SOL    HW128415   9.653   1.649   2.801  0.8889 -0.0126  0.6132
 6027SOL    HW228416   9.809   1.697   2.810  1.3257 -1.1985 -0.6142
 6028SOL     OW28417   4.559   8.018   0.758  0.7221 -0.0449 -0.7495
 6028SOL    HW128418   4.657   8.001   0.761  0.4469 -2.0727 -2.1085
 6028SOL    HW228419   4.513   7.962   0.827  0.3938 -0.1745 -1.0690
 6029SOL     OW28420   1.195   9.576   2.534  0.4181 -0.4774  0.2344
 6029SOL    HW128421   1.106   9.532   2.525  1.0581 -1.9379  0.8666
 6029SOL    HW228422   1.238   9.547   2.620  1.3948  0.4279  0.0711
 6030SOL     OW28423   3.216   6.873   2.714 -0.6562 -0.1310  0.4456
 6030SOL    HW128424   3.122   6.887   2.685 -0.8148 -0.4189  0.8256
 6030SOL    HW228425   3.242   6.778   2.699 -0.4793 -0.0928  0.4987
 6031SOL     OW28426   3.323   9.745   3.863 -0.7082  0.3220  0.2221
 6031SOL    HW128427   3.228   9.762   3.836 -1.1299 -1.6095  0.4599
 6031SOL    HW228428   3.339   9.784   3.954 -1.8937 -1.2039  1.1075
 6032SOL     OW28429   1.580   6.730   0.862 -0.0423 -0.0268 -0.2184
 6032SOL    HW128430   1.675   6.749   0.887  0.0789  1.3787 -1.6684
 6032SOL    HW228431   1.577   6.695   0.768 -1.0265  0.5427 -0.4030
 6033SOL     OW28432   2.000   9.457   0.547  0.1682 -0.2932 -0.1778
 6033SOL    HW128433   2.003   9.533   0.482 -1.5483  1.3320  1.5572
 6033SOL    HW228434   2.006   9.371   0.497  1.6244  0.9345 -2.2419
 6034SOL     OW28435   1.923   9.057   0.664  0.3780  0.7244 -0.8458
 6034SOL    HW128436   1.861   8.982   0.642  0.4445  0.9859 -1.9163
 6034SOL    HW228437   1.960   9.097   0.580 -0.7782  2.9099 -0.3699
 6035SOL     OW28438   8.821   0.375   3.759 -0.1852 -0.3152  0.5848
 6035SOL    HW128439   8.899   0.361   3.698  1.8301  1.1718  2.7248
 6035SOL    HW228440   8.800   0.473   3.765 -1.0383 -0.5413  1.4647
 6036SOL     OW28441   1.580   9.065   3.600 -1.4114 -0.1399  0.4139
 6036SOL    HW128442   1.483   9.063   3.621 -1.6224  1.2786 -0.3558
 6036SOL    HW228443   1.624   9.139   3.651 -0.8602 -0.3345  0.2311
 6037SOL     OW28444   3.514   0.924   0.535 -0.1398 -0.5615 -0.0284
 6037SOL    HW128445   3.604   0.912   0.494 -0.9044 -0.4425 -1.8170
 6037SOL    HW228446   3.444   0.918   0.464 -1.4527  0.8600  1.0855
 6038SOL     OW28447   7.787   3.052   0.378 -0.1158  0.1998 -0.5741
 6038SOL    HW128448   7.703   3.100   0.353  1.1827  2.3575 -0.9469
 6038SOL    HW228449   7.806   2.980   0.311 -0.4458  1.2473 -1.8202
 6039SOL     OW28450   0.579   9.368   2.545 -0.0886 -0.2812  0.2173
 6039SOL    HW128451   0.580   9.273   2.514  2.6964  0.0300 -0.7496
 6039SOL    HW228452   0.654   9.383   2.609  0.0785  1.5023 -0.3673
 6040SOL     OW28453   1.652   3.208   0.676  0.3684  0.1923  0.5317
 6040SOL    HW128454   1.613   3.292   0.713  2.0534  1.6250 -0.8775
 6040SOL    HW228455   1.651   3.137   0.746 -0.4353  1.5779  1.9550
 6041SOL     OW28456   0.101   7.868   2.280  0.2924  0.2129  0.2789
 6041SOL    HW128457   0.025   7.868   2.214  0.8629 -0.4567 -0.3888
 6041SOL    HW228458   0.080   7.930   2.355 -0.2063  1.2822 -0.7334
 6042SOL     OW28459   2.890   8.138   1.244 -0.5129 -0.1989  0.5981
 6042SOL    HW128460   2.860   8.076   1.316  0.3292  0.1089  1.2193
 6042SOL    HW228461   2.822   8.139   1.170 -1.8615  0.2299  1.8333
 6043SOL     OW28462   0.509   8.878   2.617  0.1063  1.0675 -0.1256
 6043SOL    HW128463   0.551   8.903   2.704 -0.1843 -1.5772  0.8205
 6043SOL    HW228464   0.437   8.944   2.594  2.2830  3.5683  0.0189
 6044SOL     OW28465   8.348   9.807   1.444  0.1375 -0.2717  0.0502
 6044SOL    HW128466   8.325   9.767   1.533 -0.6485  0.4567  0.1875
 6044SOL    HW228467   8.268   9.855   1.408  0.4254 -0.6343 -1.0936
 6045SOL     OW28468   3.592   2.576   2.492 -0.2255  0.1891  0.5890
 6045SOL    HW128469   3.620   2.568   2.588  2.1764  2.7560  0.1690
 6045SOL    HW228470   3.609   2.669   2.460  0.0569 -0.9320 -2.6769
 6046SOL     OW28471   3.858   9.344   1.197  0.1284 -0.3842  0.1003
 6046SOL    HW128472   3.796   9.296   1.258  0.4730 -1.8570 -0.6852
 6046SOL    HW228473   3.862   9.297   1.109  0.2554  1.2487 -0.7898
 6047SOL     OW28474   3.639   9.861   3.456 -0.4134  0.4932  0.9373
 6047SOL    HW128475   3.569   9.931   3.469 -0.0505  1.0718 -0.1558
 6047SOL    HW228476   3.710   9.871   3.524 -0.1535  1.4543  0.5289
 6048SOL     OW28477   1.475   6.911   3.076 -0.1269 -0.1273  0.0328
 6048SOL    HW128478   1.421   6.992   3.054  0.5037  0.5538  0.9233
 6048SOL    HW228479   1.414   6.838   3.107 -0.5560  0.6261  1.0192
 6049SOL     OW28480   4.138   1.077   2.038  0.4457  0.3823 -0.8029
 6049SOL    HW128481   4.048   1.033   2.049  0.5728  0.3212  0.0524
 6049SOL    HW228482   4.205   1.008   2.012  0.0682  0.5893 -2.3926
 6050SOL     OW28483   0.015   2.214   0.716  0.0016  0.2388  0.5195
 6050SOL    HW128484   0.059   2.284   0.659  0.9937 -1.4104 -0.7826
 6050SOL    HW228485   0.083   2.146   0.743 -1.3637 -1.3271  0.0527
 6051SOL     OW28486   1.622   5.607   0.050  0.1162  0.4200  0.8551
 6051SOL    HW128487   1.584   5.548  -0.021 -0.3747 -0.2972  1.6989
 6051SOL    HW228488   1.588   5.700   0.037  3.6272  1.3161 -2.5269
 6052SOL     OW28489   1.917   5.180   2.848  0.2750  0.0086  0.1668
 6052SOL    HW128490   1.999   5.178   2.790 -0.0144 -0.3547 -0.2352
 6052SOL    HW228491   1.941   5.217   2.938  0.4252  2.0167 -0.6604
 6053SOL     OW28492   9.004   9.293   3.154  0.4620 -0.4695 -0.2166
 6053SOL    HW128493   8.988   9.374   3.210  0.5533  0.4474 -1.4833
 6053SOL    HW228494   8.920   9.239   3.148  0.2687 -0.2238  0.2399
 6054SOL     OW28495   3.240   7.681   3.378  0.0596 -0.5145 -0.0819
 6054SOL    HW128496   3.308   7.705   3.309 -0.4953  0.5892 -0.2569
 6054SOL    HW228497   3.184   7.762   3.399 -0.6920 -1.2133  0.6194
 6055SOL     OW28498   0.374   1.414   2.889  0.0775  0.1260  0.1538
 6055SOL    HW128499   0.411   1.347   2.952  2.1203  0.9439 -0.1426
 6055SOL    HW228500   0.433   1.495   2.887 -1.1741  1.0490 -1.1092
 6056SOL     OW28501   9.381   2.257   0.950  0.3032 -0.5400 -0.5878
 6056SOL    HW128502   9.424   2.183   0.898 -0.3750 -0.2228 -1.6271
 6056SOL    HW228503   9.294   2.282   0.907 -0.0149  0.1042  0.3948
 6057SOL     OW28504   1.299   2.003   2.199  0.0582  0.0250  0.3168
 6057SOL    HW128505   1.364   2.078   2.207  0.5965 -0.6640  2.8353
 6057SOL    HW228506   1.213   2.029   2.243 -0.4208 -0.1298 -0.5126
 6058SOL     OW28507   8.513   1.237   3.794  0.1709 -1.0552  0.5863
 6058SOL    HW128508   8.593   1.178   3.787  0.8409 -0.4439  2.6430
 6058SOL    HW228509   8.474   1.253   3.703  0.8478 -3.4507 -0.1443
 6059SOL     OW28510   2.837   9.848   3.823 -0.4580  0.4354 -0.3134
 6059SOL    HW128511   2.871   9.808   3.908  2.1538  0.4804 -1.2928
 6059SOL    HW228512   2.821   9.776   3.756  1.6454  0.7469 -1.1834
 6060SOL     OW28513   9.827   9.499   0.853  0.2743 -0.4272  0.6899
 6060SOL    HW128514   9.807   9.568   0.922 -1.6263 -0.0749 -0.2018
 6060SOL    HW228515   9.788   9.411   0.881  0.0519 -0.4295  0.3769
 6061SOL     OW28516   9.834   3.315   2.637  0.0153  0.2164 -0.3398
 6061SOL    HW128517   9.868   3.388   2.578 -1.7709  2.0644  0.8537
 6061SOL    HW228518   9.899   3.298   2.711 -0.4194  1.9662  0.4785
 6062SOL     OW28519   8.409   2.514   1.312 -0.2272  0.0552 -0.4809
 6062SOL    HW128520   8.380   2.608   1.295  0.5449  0.3615 -0.1154
 6062SOL    HW228521   8.501   2.514   1.349  0.1611 -0.9031 -1.4349
 6063SOL     OW28522   0.157   9.918   2.168 -0.0149  0.7712  1.1064
 6063SOL    HW128523   0.183   9.823   2.187 -0.6188  0.1901 -0.8342
 6063SOL    HW228524   0.064   9.921   2.132  0.2391  2.0426  0.5137
 6064SOL     OW28525   8.331   2.073   0.619  0.6075 -0.2214  0.4145
 6064SOL    HW128526   8.311   1.977   0.635 -1.8879  0.3190  0.7522
 6064SOL    HW228527   8.399   2.081   0.546 -0.2576 -2.1999 -0.6516
 6065SOL     OW28528   2.255   6.188   1.181 -0.2765  0.5398 -0.8814
 6065SOL    HW128529   2.247   6.288   1.180  2.8091  0.9669  3.2428
 6065SOL    HW228530   2.194   6.150   1.250  0.0393 -0.2199 -1.0168
 6066SOL     OW28531   4.929   9.092   2.291 -0.3926  0.3757 -0.0559
 6066SOL    HW128532   5.016   9.105   2.339  0.1548 -0.6518 -0.7672
 6066SOL    HW228533   4.860   9.062   2.357  0.3943 -1.1641  0.0803
 6067SOL     OW28534   7.759   0.104   1.097  0.2456  0.6443  0.4639
 6067SOL    HW128535   7.737   0.199   1.075  1.7149  0.6400 -1.0692
 6067SOL    HW228536   7.675   0.050   1.097 -0.5253  1.8092  0.7657
 6068SOL     OW28537   1.369   1.012   1.079  0.2991  0.1828 -0.0118
 6068SOL    HW128538   1.320   1.063   1.009  0.6571 -0.6218 -0.8514
 6068SOL    HW228539   1.319   1.018   1.166  0.0391  1.4627 -0.2410
 6069SOL     OW28540   5.716   9.343   3.104  0.1235  0.0502  0.0481
 6069SOL    HW128541   5.622   9.342   3.138  0.4060  0.4831  0.8600
 6069SOL    HW228542   5.772   9.282   3.160  0.2568 -0.4457 -0.6285
 6070SOL     OW28543   2.527   7.744   3.603  0.4038 -0.8742 -0.0994
 6070SOL    HW128544   2.623   7.766   3.587  0.3549  0.6264  1.5944
 6070SOL    HW228545   2.470   7.820   3.573 -0.0776 -0.6661  1.2992
 6071SOL     OW28546   3.799   5.174   1.417  0.7786 -0.0399  0.0381
 6071SOL    HW128547   3.830   5.116   1.341  1.9005  0.0020  0.4551
 6071SOL    HW228548   3.737   5.121   1.476  0.5664 -0.3301 -0.4373
 6072SOL     OW28549   0.022   9.451   3.023 -0.0760 -0.3087  0.3142
 6072SOL    HW128550  -0.051   9.384   3.010 -0.7077  0.7197 -1.6088
 6072SOL    HW228551  -0.014   9.543   3.013  1.2617  0.2530  0.5083
 6073SOL     OW28552   0.463   0.617   0.787 -0.2969  0.2837 -0.4361
 6073SOL    HW128553   0.493   0.547   0.721 -0.9344  1.3181 -1.8413
 6073SOL    HW228554   0.392   0.673   0.746 -0.4303  1.2020  1.0170
 6074SOL     OW28555   2.800   6.459   2.191 -0.5004 -0.0486 -0.7008
 6074SOL    HW128556   2.748   6.503   2.117 -1.4081 -0.6612 -0.4440
 6074SOL    HW228557   2.868   6.522   2.227 -0.4135  0.4365 -1.7112
 6075SOL     OW28558   3.350   0.321   1.624  0.3742  0.2425 -0.3708
 6075SOL    HW128559   3.427   0.272   1.666  0.5938  0.6337 -0.3227
 6075SOL    HW228560   3.265   0.290   1.666  0.6291  1.0005  0.7278
 6076SOL     OW28561   1.653   0.712   1.313  0.3019 -0.6749  0.2115
 6076SOL    HW128562   1.729   0.646   1.317  0.7566 -0.2532 -1.1559
 6076SOL    HW228563   1.690   0.805   1.306 -0.3365 -0.4229  0.1197
 6077SOL     OW28564   2.464   1.044   3.063 -0.0020 -0.0764  0.0904
 6077SOL    HW128565   2.437   1.111   2.994  1.0255 -0.0881 -0.3367
 6077SOL    HW228566   2.445   0.951   3.030  1.8897 -0.1618 -0.8427
 6078SOL     OW28567   0.928   0.504   3.274  0.1706  0.2271 -0.2712
 6078SOL    HW128568   0.891   0.432   3.332  0.9934  0.0929  0.0869
 6078SOL    HW228569   1.011   0.472   3.230  0.2675  0.7871 -0.4993
 6079SOL     OW28570   1.186   4.303   3.688  0.4700 -0.0665 -0.1046
 6079SOL    HW128571   1.158   4.324   3.782  0.5897  1.9045 -0.4819
 6079SOL    HW228572   1.105   4.297   3.630  0.5072  0.8715 -0.2710
 6080SOL     OW28573   1.084   0.243   1.727  0.4631 -0.0640 -0.7794
 6080SOL    HW128574   1.151   0.220   1.797  1.0192 -0.9547 -1.5918
 6080SOL    HW228575   1.105   0.333   1.688  1.6481 -0.6720 -1.5663
 6081SOL     OW28576   1.982   9.678   3.790  0.2892  0.0313  0.3245
 6081SOL    HW128577   1.913   9.656   3.720  0.5070 -1.3686  0.5312
 6081SOL    HW228578   2.071   9.688   3.746 -0.1428  2.5693 -0.0426
 6082SOL     OW28579   1.239   9.490   1.908 -0.4147 -0.0970  0.1047
 6082SOL    HW128580   1.282   9.480   1.997 -0.7662  0.9594  0.4044
 6082SOL    HW228581   1.239   9.402   1.861  1.4065 -0.2629  0.3831
 6083SOL     OW28582   7.874   1.605   1.266 -0.4458 -0.7794  0.0111
 6083SOL    HW128583   7.936   1.562   1.201  1.0036  2.2520 -0.7059
 6083SOL    HW228584   7.814   1.668   1.218 -0.5639  0.1671  1.3698
 6084SOL     OW28585   3.704   4.577   3.738  0.3265  0.2821  0.4172
 6084SOL    HW128586   3.757   4.541   3.661 -0.8985 -0.6902  0.0097
 6084SOL    HW228587   3.763   4.583   3.819  1.4979  0.8554 -0.4512
 6085SOL     OW28588   9.114   9.711   1.670 -0.1183  0.3723 -0.9251
 6085SOL    HW128589   9.083   9.680   1.580 -1.5130 -0.2793 -0.2234
 6085SOL    HW228590   9.137   9.632   1.727  2.2920  0.8151 -1.2164
 6086SOL     OW28591   1.760   1.140   1.992  0.0560 -0.4762 -0.2063
 6086SOL    HW128592   1.829   1.176   1.930 -0.7351  0.1926 -0.7162
 6086SOL    HW228593   1.698   1.214   2.019  0.3196 -0.7875  1.2955
 6087SOL     OW28594   8.682   1.676   1.155 -0.2849  0.2134  0.1136
 6087SOL    HW128595   8.721   1.646   1.068 -2.3081  2.0432 -1.4790
 6087SOL    HW228596   8.752   1.725   1.208  0.8667 -0.6480 -0.5809
 6088SOL     OW28597   9.222   4.141   0.584  0.1986 -0.0050 -0.4666
 6088SOL    HW128598   9.260   4.162   0.493 -0.8704  0.8085 -0.7376
 6088SOL    HW228599   9.141   4.198   0.600  0.0095 -0.6017  0.7429
 6089SOL     OW28600   2.413   1.465   0.820  0.1083 -0.4863  0.3119
 6089SOL    HW128601   2.384   1.437   0.729  1.6339  1.1888 -0.7296
 6089SOL    HW228602   2.409   1.387   0.882  0.2186 -1.9316 -1.4674
 6090SOL     OW28603   2.671   1.943   2.259 -0.2960  0.2426  0.2723
 6090SOL    HW128604   2.750   1.958   2.318 -1.2328 -1.8055  2.1298
 6090SOL    HW228605   2.701   1.899   2.174  0.5446 -0.8189  1.0993
 6091SOL     OW28606   9.897   0.094   2.973  0.1838  0.5042 -0.1710
 6091SOL    HW128607   9.847   0.088   3.059  1.1210  3.3665  0.6302
 6091SOL    HW228608   9.990   0.058   2.987 -0.2862 -0.8618 -0.5244
 6092SOL     OW28609   3.684   7.284   1.149 -0.0099  0.6418  0.1590
 6092SOL    HW128610   3.715   7.235   1.068  1.5930  0.0517  1.0995
 6092SOL    HW228611   3.627   7.223   1.205  1.6763 -0.0778  1.1415
 6093SOL     OW28612   2.242   1.188   3.897  0.3044 -0.4693  0.1920
 6093SOL    HW128613   2.151   1.148   3.905 -0.4393  0.7116 -2.0979
 6093SOL    HW228614   2.276   1.176   3.804  1.1213  1.9480  0.1361
 6094SOL     OW28615   2.821   6.931   3.905 -0.0808  0.5053 -0.2883
 6094SOL    HW128616   2.921   6.939   3.906  0.1563 -2.1019  0.8144
 6094SOL    HW228617   2.789   6.890   3.990 -2.1742  1.9212 -0.3545
 6095SOL     OW28618   9.689   2.126   3.636 -0.6996  0.1909 -0.4124
 6095SOL    HW128619   9.787   2.113   3.626 -0.6688  0.0662  0.0605
 6095SOL    HW228620   9.645   2.038   3.655 -0.6417  0.5636  1.5164
 6096SOL     OW28621   9.531   2.853   3.953 -0.1511 -0.2664 -0.0836
 6096SOL    HW128622   9.556   2.949   3.950  1.1454 -0.4080  4.0753
 6096SOL    HW228623   9.608   2.798   3.921  0.0273 -0.0588 -0.0114
 6097SOL     OW28624   1.092   4.103   3.986  0.2635 -0.6337  0.4895
 6097SOL    HW128625   1.023   4.098   3.913 -0.3361 -0.8615  1.0747
 6097SOL    HW228626   1.181   4.122   3.945 -0.1190 -0.4630 -0.2854
 6098SOL     OW28627   2.314   2.549   0.178 -0.2481  0.4325  0.6537
 6098SOL    HW128628   2.368   2.632   0.194  1.6931 -0.8650  0.9982
 6098SOL    HW228629   2.238   2.546   0.242  1.1562  0.6928  2.3581
 6099SOL     OW28630   9.551   1.001   3.013  0.2672 -0.4292  0.0753
 6099SOL    HW128631   9.564   0.982   2.916  2.0762  0.0107  0.2095
 6099SOL    HW228632   9.589   1.091   3.035  0.5342 -0.8276  1.3230
 6100SOL     OW28633   2.256   7.751   0.032  0.1312 -0.0220 -0.3139
 6100SOL    HW128634   2.348   7.791   0.026  0.8325 -1.4069  0.8650
 6100SOL    HW228635   2.251   7.671  -0.028 -0.8919  1.0987 -1.7551
 6101SOL     OW28636   7.791   0.249   3.807 -0.2235 -0.7611 -0.4613
 6101SOL    HW128637   7.708   0.301   3.788 -0.1386  0.6089  2.6183
 6101SOL    HW228638   7.858   0.264   3.733 -0.9299  1.9622 -0.6015
 6102SOL     OW28639   2.382   9.457   2.796 -0.1854 -0.3730 -0.4048
 6102SOL    HW128640   2.441   9.416   2.726  0.3216 -0.0588 -0.1687
 6102SOL    HW228641   2.393   9.408   2.882  0.0596 -0.0484 -0.2484
 6103SOL     OW28642   3.429   0.157   1.031 -0.0881  0.0240 -0.1623
 6103SOL    HW128643   3.366   0.095   1.078  0.3172  0.2152  0.6450
 6103SOL    HW228644   3.455   0.231   1.093  0.1694  0.4840 -0.8136
 6104SOL     OW28645   3.329   9.713   2.380  0.0007  0.2059 -0.0779
 6104SOL    HW128646   3.251   9.766   2.348  0.4239  0.9791  0.1474
 6104SOL    HW228647   3.333   9.717   2.480  0.5500  0.5074 -0.1074
 6105SOL     OW28648   1.185   7.195   0.947  0.3955  0.2305  0.6715
 6105SOL    HW128649   1.244   7.131   0.897  1.2903  0.8617  0.8917
 6105SOL    HW228650   1.173   7.278   0.893  0.1355  0.3178  0.8616
 6106SOL     OW28651   3.355   6.199   3.396  0.1515 -0.3635 -0.1955
 6106SOL    HW128652   3.392   6.122   3.344 -0.1420 -0.5623 -0.1132
 6106SOL    HW228653   3.274   6.235   3.349 -1.6427 -2.1723  1.4189
 6107SOL     OW28654   1.405   9.634   0.208 -0.0506  0.3374  0.5878
 6107SOL    HW128655   1.413   9.539   0.237  2.4687  0.6093  0.9512
 6107SOL    HW228656   1.488   9.660   0.157 -1.2692  1.9579 -0.6139
 6108SOL     OW28657   2.745   3.611   1.126 -0.4396  0.1579  0.4775
 6108SOL    HW128658   2.712   3.705   1.122 -1.7359 -0.3575 -1.7653
 6108SOL    HW228659   2.667   3.548   1.120  0.6479 -1.0658 -1.3308
 6109SOL     OW28660   9.733   1.390   1.157  0.2891 -0.5280 -0.0380
 6109SOL    HW128661   9.717   1.356   1.064 -0.2112 -0.7659  0.1333
 6109SOL    HW228662   9.745   1.313   1.219  2.0211 -0.3533 -0.1420
 6110SOL     OW28663   3.034   0.848   1.447  0.0756  0.0462 -0.0522
 6110SOL    HW128664   3.018   0.929   1.390  1.4038  0.8944  0.7773
 6110SOL    HW228665   2.955   0.833   1.506 -0.1627  0.7595 -0.1855
 6111SOL     OW28666   4.121   7.524   1.539  0.1756 -0.2267 -0.1061
 6111SOL    HW128667   4.085   7.616   1.550  0.6880 -0.0425  0.0795
 6111SOL    HW228668   4.076   7.478   1.463  0.2652  0.3515 -0.5076
 6112SOL     OW28669   0.245   2.658   3.172  0.4043 -0.0661 -0.1574
 6112SOL    HW128670   0.315   2.588   3.185 -0.8097 -1.0389  1.3803
 6112SOL    HW228671   0.169   2.619   3.119 -0.6978 -0.2359  1.5098
 6113SOL     OW28672   6.214   9.862   2.307  0.1936 -0.3205  1.1203
 6113SOL    HW128673   6.128   9.844   2.354 -0.4076  0.9520  0.5169
 6113SOL    HW228674   6.205   9.838   2.210  1.7233 -3.8623  1.7633
 6114SOL     OW28675   2.396   9.410   3.742  0.1685  0.0903 -0.3979
 6114SOL    HW128676   2.392   9.508   3.763  1.3040 -0.0324  0.4500
 6114SOL    HW228677   2.347   9.392   3.657 -2.5719  0.9642  0.9420
 6115SOL     OW28678   5.429   9.408   2.432  0.2351 -0.1331  0.3682
 6115SOL    HW128679   5.496   9.384   2.362 -0.3958 -0.1074 -0.2529
 6115SOL    HW228680   5.466   9.480   2.491  0.4837  0.3561 -0.3878
 6116SOL     OW28681   4.039   6.892   2.349 -0.0509 -0.7246 -0.2692
 6116SOL    HW128682   4.046   6.987   2.320 -1.3348  0.4734  3.1525
 6116SOL    HW228683   3.944   6.862   2.343  0.1533 -1.4160 -0.1195
 6117SOL     OW28684   7.794   5.829   1.226  0.7651  0.3112 -0.6419
 6117SOL    HW128685   7.807   5.734   1.253  0.8168  0.0889 -1.4686
 6117SOL    HW228686   7.711   5.838   1.172  1.1726  0.6069 -1.2259
 6118SOL     OW28687   5.620   8.494   2.744  0.4531  0.1871 -0.4780
 6118SOL    HW128688   5.523   8.469   2.747  0.5638 -0.0750  1.7429
 6118SOL    HW228689   5.636   8.556   2.667 -1.3368 -0.3207 -1.2837
 6119SOL     OW28690   0.421   1.683   0.479  0.0274 -0.3450  0.0799
 6119SOL    HW128691   0.441   1.609   0.414 -1.9762  0.1279 -1.1380
 6119SOL    HW228692   0.345   1.655   0.538 -0.2425  0.4638  0.1154
 6120SOL     OW28693   0.864   8.670   1.776  0.3348  0.3617 -0.6213
 6120SOL    HW128694   0.865   8.767   1.803  0.4193  0.3179 -0.4696
 6120SOL    HW228695   0.777   8.629   1.804 -0.5973  0.9354 -2.5892
 6121SOL     OW28696   3.905   9.897   3.274 -0.1392 -0.1566 -0.0142
 6121SOL    HW128697   3.848   9.819   3.298  0.5713 -0.4994  0.5837
 6121SOL    HW228698   3.965   9.919   3.351  0.2409  0.4644 -0.4855
 6122SOL     OW28699   2.464   3.916   3.977  0.1063  0.0686  0.5048
 6122SOL    HW128700   2.446   3.874   4.066 -0.8403 -0.9902 -0.1698
 6122SOL    HW228701   2.563   3.918   3.960  0.1361 -3.4742 -0.1750
 6123SOL     OW28702   7.727   2.050   1.506 -0.1784 -0.2222  0.1470
 6123SOL    HW128703   7.638   2.095   1.510 -1.1521 -1.9331 -1.5911
 6123SOL    HW228704   7.771   2.070   1.418 -0.4188 -2.2446 -0.4617
 6124SOL     OW28705   3.174   8.159   3.022 -0.5278 -0.6850 -0.0629
 6124SOL    HW128706   3.270   8.162   2.997 -0.1575  0.5227  1.4104
 6124SOL    HW228707   3.164   8.180   3.120 -2.1903 -1.8415  0.0490
 6125SOL     OW28708   1.612   4.505   1.807  0.0352 -0.4206  0.4815
 6125SOL    HW128709   1.646   4.553   1.726 -0.6242 -0.9590 -0.1194
 6125SOL    HW228710   1.542   4.560   1.852 -2.9457 -2.0807 -1.9307
 6126SOL     OW28711   3.495   5.975   3.305  0.0776  0.0314 -0.5797
 6126SOL    HW128712   3.408   5.942   3.269  0.3876 -0.2760 -1.0520
 6126SOL    HW228713   3.523   5.918   3.382  0.3536 -0.4891 -1.0633
 6127SOL     OW28714   8.583   8.062   1.064  0.3170 -0.4674 -0.6687
 6127SOL    HW128715   8.600   8.093   0.970  0.8795  0.0101 -0.4068
 6127SOL    HW228716   8.590   7.962   1.067 -0.4594 -0.5532 -1.2912
 6128SOL     OW28717   8.498   1.133   1.300  0.0233  0.0634  0.5579
 6128SOL    HW128718   8.410   1.152   1.344 -0.5089 -2.2921  0.5904
 6128SOL    HW228719   8.497   1.167   1.206 -0.8082  0.3228  0.6588
 6129SOL     OW28720   0.571   9.743   2.822 -0.0575 -0.1563  0.9144
 6129SOL    HW128721   0.524   9.704   2.742  0.8036 -0.1115  0.3791
 6129SOL    HW228722   0.665   9.710   2.825  0.4304  1.1985  0.9338
 6130SOL     OW28723   1.865   1.614   3.418 -0.3286 -0.3847  0.0160
 6130SOL    HW128724   1.925   1.567   3.353 -0.3082 -0.8394  0.3649
 6130SOL    HW228725   1.910   1.620   3.507  0.4147  1.8798 -0.4819
 6131SOL     OW28726   2.519   0.902   3.742 -0.0979  0.6762 -0.7026
 6131SOL    HW128727   2.564   0.841   3.676  0.5335  1.1000 -0.6696
 6131SOL    HW228728   2.548   0.996   3.725  0.5204  0.7224  0.5528
 6132SOL     OW28729   1.742   4.657   2.682  0.3095  0.5283  0.5816
 6132SOL    HW128730   1.647   4.687   2.688  0.6032  1.5993  0.1116
 6132SOL    HW228731   1.746   4.558   2.678 -0.7493  0.4543  1.3413
 6133SOL     OW28732   1.249   8.810   2.401  0.4763 -0.2604  0.0859
 6133SOL    HW128733   1.165   8.856   2.375  0.0042 -1.9145 -1.3648
 6133SOL    HW228734   1.316   8.878   2.431 -0.9265  1.1663  0.0406
 6134SOL     OW28735   3.722   7.389   3.227  0.3440 -0.3788  0.4455
 6134SOL    HW128736   3.801   7.449   3.240 -2.2345  3.3590 -0.4735
 6134SOL    HW228737   3.683   7.365   3.316  0.7229  0.2248  0.7748
 6135SOL     OW28738   2.085   6.008   3.045  0.6008  0.0116 -0.3282
 6135SOL    HW128739   2.040   5.989   3.132  2.2241  1.7875  0.9307
 6135SOL    HW228740   2.116   5.921   3.005 -1.5295 -0.9600  0.0799
 6136SOL     OW28741   7.956   5.348   1.341 -0.2617  0.4962 -0.1040
 6136SOL    HW128742   7.970   5.414   1.267 -1.9549  0.7791 -0.1945
 6136SOL    HW228743   7.884   5.284   1.315 -1.5552  1.1949  1.6923
 6137SOL     OW28744   1.664   3.795   1.507  0.2878  0.1762  0.1492
 6137SOL    HW128745   1.631   3.851   1.583  0.6199  2.5352 -1.3998
 6137SOL    HW228746   1.738   3.736   1.539 -0.9766 -0.4156  2.1243
 6138SOL     OW28747   4.678   7.511   2.658  0.1993  0.0739 -0.0235
 6138SOL    HW128748   4.646   7.448   2.728  1.6142 -1.6890 -0.9297
 6138SOL    HW228749   4.635   7.489   2.570 -0.3561  1.2663 -0.0668
 6139SOL     OW28750   3.196   4.010   2.833 -0.1460 -0.4947  0.1135
 6139SOL    HW128751   3.210   4.076   2.760  3.9392 -1.5803 -0.2190
 6139SOL    HW228752   3.130   3.940   2.804 -1.0044  0.8746 -1.2547
 6140SOL     OW28753   0.329   7.446   0.860 -0.7046 -0.2215  0.2982
 6140SOL    HW128754   0.266   7.479   0.930 -0.7875  0.5410 -0.1300
 6140SOL    HW228755   0.314   7.496   0.774  0.3348 -0.1701  0.1329
 6141SOL     OW28756   8.600   4.354   1.219  0.3271 -0.1259 -0.1477
 6141SOL    HW128757   8.627   4.302   1.138  0.6805  0.2718 -0.2884
 6141SOL    HW228758   8.665   4.337   1.292 -0.2572 -0.8614  0.2150
 6142SOL     OW28759   1.386   5.338   0.220  0.3570  0.9402 -0.7812
 6142SOL    HW128760   1.415   5.388   0.301  0.0767  2.5243 -1.6322
 6142SOL    HW228761   1.463   5.326   0.158  1.0610 -2.0636  0.5822
 6143SOL     OW28762   8.928   4.268   0.727 -0.0041  0.2568 -0.4607
 6143SOL    HW128763   8.965   4.316   0.807  0.9236 -0.4580 -0.4509
 6143SOL    HW228764   8.849   4.214   0.755  1.0529 -0.9719  0.2560
 6144SOL     OW28765   1.727   2.653   3.970  0.1851 -0.3312  0.2787
 6144SOL    HW128766   1.816   2.633   3.930 -0.2632 -2.8995  0.4463
 6144SOL    HW228767   1.738   2.690   4.062  1.0808 -0.0511  0.0572
 6145SOL     OW28768   2.344   6.711   3.876  0.0404  0.2521 -0.2609
 6145SOL    HW128769   2.405   6.777   3.920 -0.5038  0.3610  0.3468
 6145SOL    HW228770   2.311   6.749   3.790  1.7101 -0.2726 -1.1600
 6146SOL     OW28771   9.628   1.464   2.417 -0.3690  0.3326 -0.2143
 6146SOL    HW128772   9.584   1.505   2.497 -0.2826 -0.8978  0.4866
 6146SOL    HW228773   9.723   1.442   2.439 -0.2547  0.2786 -0.7608
 6147SOL     OW28774   8.424   0.980   3.571  0.3761  0.0849 -0.2341
 6147SOL    HW128775   8.510   0.956   3.526  1.3121  1.9635  0.5147
 6147SOL    HW228776   8.421   1.079   3.587 -1.2036 -0.1826  1.2296
 6148SOL     OW28777   2.717   3.431   3.766  0.0165  0.7538 -0.3874
 6148SOL    HW128778   2.629   3.383   3.761  0.9877 -1.0167 -0.8141
 6148SOL    HW228779   2.702   3.529   3.758 -1.8016  0.3698 -1.9771
 6149SOL     OW28780   7.649   2.425   4.025 -0.2119  0.3634  0.3746
 6149SOL    HW128781   7.710   2.363   4.073  0.4245  2.4913  2.4388
 6149SOL    HW228782   7.558   2.384   4.017  0.2609 -0.9360  1.4740
 6150SOL     OW28783   0.594   8.128   3.885 -0.0264 -0.1616 -0.7226
 6150SOL    HW128784   0.540   8.141   3.968  0.9157 -0.9966  0.0501
 6150SOL    HW228785   0.542   8.158   3.806  0.4921  4.2793  0.5128
 6151SOL     OW28786   8.786   0.669   1.459 -0.2818 -0.1015  0.5284
 6151SOL    HW128787   8.720   0.744   1.449  1.5260  1.3836 -0.5855
 6151SOL    HW228788   8.778   0.630   1.550 -0.8818  1.8277  1.3306
 6152SOL     OW28789   2.086   7.731   0.834 -0.2233 -0.1463  0.7224
 6152SOL    HW128790   2.061   7.639   0.864 -0.8156  0.2046  1.2979
 6152SOL    HW228791   2.181   7.748   0.856  0.7064 -1.6539 -1.8683
 6153SOL     OW28792   3.014   6.635   2.212 -0.1557 -0.0730 -0.3187
 6153SOL    HW128793   3.071   6.553   2.220  0.7871  0.4766 -1.3125
 6153SOL    HW228794   3.048   6.692   2.137 -0.9888  1.0863  0.1779
 6154SOL     OW28795   1.155   1.306   0.653  0.6924 -0.0157  0.7025
 6154SOL    HW128796   1.230   1.373   0.659  1.3071 -0.4787 -1.5049
 6154SOL    HW228797   1.068   1.352   0.672  0.9583  1.7490 -2.1199
 6155SOL     OW28798   8.642   8.514   1.883  0.1015  0.0758 -0.0626
 6155SOL    HW128799   8.731   8.559   1.883  0.6477 -1.0166  0.3645
 6155SOL    HW228800   8.642   8.437   1.947 -0.6139 -0.9854 -1.3118
 6156SOL     OW28801   2.298   9.758   0.918  0.3468  0.3014 -0.3306
 6156SOL    HW128802   2.365   9.684   0.925 -0.6575 -0.6459 -0.4471
 6156SOL    HW228803   2.285   9.801   1.007 -0.9660 -1.3967  0.3249
 6157SOL     OW28804   9.987   1.126   0.892  0.1099  0.3111 -0.3505
 6157SOL    HW128805  10.087   1.124   0.900  0.1341 -2.3862 -1.0127
 6157SOL    HW228806   9.961   1.146   0.798  0.0247  0.1786 -0.3554
 6158SOL     OW28807   1.916   2.410   1.116 -0.1933 -0.3226 -0.3916
 6158SOL    HW128808   1.992   2.460   1.158  1.2684 -1.0546 -2.1018
 6158SOL    HW228809   1.952   2.346   1.048 -2.3394 -0.8608 -1.0490
 6159SOL     OW28810   5.917   8.480   3.134  0.4700 -0.0540 -0.2447
 6159SOL    HW128811   5.870   8.442   3.054 -1.3313  0.2350  0.6578
 6159SOL    HW228812   5.895   8.425   3.214 -0.7477  1.8477  0.7489
 6160SOL     OW28813   8.544   3.032   0.415 -0.3996 -0.4230  0.0724
 6160SOL    HW128814   8.584   3.020   0.324 -1.0843 -1.2131 -0.1261
 6160SOL    HW228815   8.489   3.116   0.416 -0.6265 -0.5659 -0.3225
 6161SOL     OW28816   0.709   7.238   1.476  0.3001  0.5383 -0.0734
 6161SOL    HW128817   0.757   7.181   1.543  0.9097  0.9221 -0.1846
 6161SOL    HW228818   0.674   7.179   1.403 -0.2642  0.1339  0.5128
 6162SOL     OW28819   2.915   4.815   4.001 -0.0050 -0.1904 -0.3829
 6162SOL    HW128820   2.941   4.726   4.039  0.0795  0.0065  0.0261
 6162SOL    HW228821   2.820   4.835   4.024 -0.3666 -0.6809 -1.4412
 6163SOL     OW28822   1.037   2.988   2.678 -0.0198 -0.0748  0.3286
 6163SOL    HW128823   1.113   2.932   2.643  0.0610 -1.0962  2.0638
 6163SOL    HW228824   1.074   3.066   2.728 -0.1282  0.0749  0.1762
 6164SOL     OW28825   1.623   8.431   0.339 -0.3487 -0.1380 -0.6292
 6164SOL    HW128826   1.611   8.343   0.293 -0.0819 -0.1350 -0.7040
 6164SOL    HW228827   1.640   8.502   0.271  0.9649 -0.2890 -0.4796
 6165SOL     OW28828   7.919   7.369   0.072 -0.3446  0.0013  0.3199
 6165SOL    HW128829   7.999   7.312   0.055 -0.6785 -0.0815 -1.0144
 6165SOL    HW228830   7.836   7.313   0.062 -0.5683  0.0315  1.9062
 6166SOL     OW28831   7.532   8.888   1.435 -0.0896  0.1735 -0.4397
 6166SOL    HW128832   7.532   8.973   1.488 -2.1710 -0.6897  1.0409
 6166SOL    HW228833   7.438   8.859   1.419  0.5877 -1.3907 -1.6960
 6167SOL     OW28834   3.235   7.291   3.809  0.6689  0.9032  0.3231
 6167SOL    HW128835   3.138   7.295   3.830  0.5732 -1.1889  0.4090
 6167SOL    HW228836   3.253   7.340   3.724 -0.3325  1.9324  0.6942
 6168SOL     OW28837   1.528   0.782   3.822  0.2893  0.3319  0.3946
 6168SOL    HW128838   1.466   0.706   3.843 -0.2982 -0.5018 -3.9563
 6168SOL    HW228839   1.485   0.868   3.849 -2.6010 -0.2890 -1.9879
 6169SOL     OW28840   8.091   4.397   0.846 -0.0198  0.3746  0.3448
 6169SOL    HW128841   8.094   4.404   0.946 -0.0025 -0.3263  0.3949
 6169SOL    HW228842   8.169   4.343   0.814  0.7142  1.7129 -0.1525
 6170SOL     OW28843   9.475   2.775   3.472 -0.0918 -0.0438  0.5629
 6170SOL    HW128844   9.494   2.804   3.379 -0.1130 -1.0950  0.2264
 6170SOL    HW228845   9.500   2.679   3.483  0.3745  0.1991  1.7708
 6171SOL     OW28846   1.226   2.734   3.294  0.3694 -0.7153  0.1803
 6171SOL    HW128847   1.302   2.691   3.245  0.0841 -0.4664 -0.4877
 6171SOL    HW228848   1.164   2.776   3.228  0.8125  1.0157  0.8290
 6172SOL     OW28849   3.034   4.701   1.433  0.1922  0.0352  0.0282
 6172SOL    HW128850   3.113   4.716   1.492  0.1600 -0.1828  0.1250
 6172SOL    HW228851   2.962   4.654   1.484  0.8256 -1.7421 -0.6697
 6173SOL     OW28852   1.874   4.532   2.289  0.4285 -0.0453  0.7067
 6173SOL    HW128853   1.791   4.552   2.237  1.3111  0.8853 -0.3572
 6173SOL    HW228854   1.904   4.439   2.270  1.0664  0.4758 -0.9009
 6174SOL     OW28855   0.414   2.024   0.512  0.0987  0.2366 -0.1532
 6174SOL    HW128856   0.500   1.973   0.515  0.2281  0.4693  0.1454
 6174SOL    HW228857   0.372   2.014   0.422  1.2460  1.4517 -0.8475
 6175SOL     OW28858   2.344   5.362   0.017 -0.1805 -0.6379  0.3253
 6175SOL    HW128859   2.383   5.365  -0.075 -0.9002  1.8893  0.0855
 6175SOL    HW228860   2.253   5.322   0.014 -1.3020  1.9210 -0.4828
 6176SOL     OW28861   2.281   9.363   1.136 -0.1318  0.3399 -0.3302
 6176SOL    HW128862   2.327   9.437   1.185 -0.6779  1.2616 -1.1767
 6176SOL    HW228863   2.294   9.277   1.185 -1.2205  1.3366  1.8128
 6177SOL     OW28864   8.191   0.467   3.891  0.2484  0.6791  0.2848
 6177SOL    HW128865   8.257   0.470   3.966  0.2311 -1.2432  0.3956
 6177SOL    HW228866   8.238   0.477   3.804  0.8333 -1.6541  0.3053
 6178SOL     OW28867   2.500   1.145   3.461  0.0407  0.3015 -0.0343
 6178SOL    HW128868   2.412   1.099   3.449  1.3015 -2.2060 -0.1561
 6178SOL    HW228869   2.488   1.228   3.515 -2.2559 -0.5284  0.7860
 6179SOL     OW28870   0.753   3.660   4.017  0.1669  0.7043 -0.4527
 6179SOL    HW128871   0.671   3.681   3.965  0.7853  0.0192 -1.7234
 6179SOL    HW228872   0.730   3.600   4.093 -0.3121 -0.5424 -1.5671
 6180SOL     OW28873   5.899   8.942   3.448  0.2380 -0.0720  0.3569
 6180SOL    HW128874   5.937   8.851   3.429 -0.5738 -0.4958  0.7509
 6180SOL    HW228875   5.948   8.983   3.525 -1.5007 -1.5180  2.2925
 6181SOL     OW28876   1.263   1.318   0.105 -0.1078  0.1238  0.3550
 6181SOL    HW128877   1.199   1.350   0.036  0.3980  0.2837 -0.0426
 6181SOL    HW228878   1.242   1.222   0.127 -0.7138  0.2872  0.5039
 6182SOL     OW28879   3.285   1.641   3.554 -0.6030  0.4693  0.0452
 6182SOL    HW128880   3.240   1.570   3.607 -0.0862  0.3398  0.3130
 6182SOL    HW228881   3.383   1.625   3.553 -0.3165  2.0064  1.3837
 6183SOL     OW28882   9.924   8.078   0.823 -0.2234  0.7909 -0.2052
 6183SOL    HW128883   9.841   8.023   0.810 -0.4996  1.4341 -1.2891
 6183SOL    HW228884   9.924   8.153   0.756  1.2048  0.8327 -0.1636
 6184SOL     OW28885   0.973   0.545   1.451 -0.6127 -0.1229 -0.4805
 6184SOL    HW128886   1.040   0.512   1.517 -1.3917 -0.5582  0.0994
 6184SOL    HW228887   0.882   0.512   1.476 -1.5395  2.9785  0.5161
 6185SOL     OW28888   1.411   6.259   1.947  0.5310  0.0575 -0.8899
 6185SOL    HW128889   1.416   6.216   1.856  1.9483 -2.7054  0.4503
 6185SOL    HW228890   1.317   6.249   1.982  0.4006 -0.3753 -1.3423
 6186SOL     OW28891   0.748   1.253   3.609 -0.1707 -0.1797  0.1900
 6186SOL    HW128892   0.847   1.269   3.618  0.0486 -2.0351  1.2229
 6186SOL    HW228893   0.731   1.196   3.529 -0.5346  1.1282 -0.6857
 6187SOL     OW28894   0.652   8.582   1.119 -0.0565 -0.3811  0.2639
 6187SOL    HW128895   0.714   8.618   1.049 -1.7473  0.5267 -0.8039
 6187SOL    HW228896   0.699   8.580   1.207  1.0860  1.5486 -0.2662
 6188SOL     OW28897   3.615   4.805   1.920  0.2744  0.0619 -0.2397
 6188SOL    HW128898   3.639   4.850   1.834 -1.7999 -1.2986 -1.5880
 6188SOL    HW228899   3.698   4.776   1.967  1.4540  1.2792 -1.5267
 6189SOL     OW28900   1.808   0.333   2.656  0.3453 -0.0056 -0.2967
 6189SOL    HW128901   1.756   0.376   2.582 -0.2521  0.3540  0.3306
 6189SOL    HW228902   1.827   0.401   2.727  0.7113 -0.4142 -0.0032
 6190SOL     OW28903   9.430   8.533   3.819  0.0863  0.4731 -0.5087
 6190SOL    HW128904   9.332   8.533   3.837  0.5439  0.4347  2.2612
 6190SOL    HW228905   9.476   8.473   3.885  2.1922  2.1202 -0.4152
 6191SOL     OW28906   8.398   2.597   0.107  0.0382 -0.2555 -0.2951
 6191SOL    HW128907   8.332   2.669   0.083  0.6584  0.3735 -0.1340
 6191SOL    HW228908   8.465   2.587   0.034  0.9946  0.5667  0.4437
 6192SOL     OW28909   2.458   0.397   2.672 -0.2781 -0.0144  0.0843
 6192SOL    HW128910   2.420   0.480   2.712  0.8663  0.1183  0.9204
 6192SOL    HW228911   2.428   0.317   2.724  1.6138  0.1989  1.5623
 6193SOL     OW28912   1.030   1.714   2.040  0.9151  0.1435  0.0480
 6193SOL    HW128913   0.959   1.709   1.969  0.3413 -2.1213  0.7564
 6193SOL    HW228914   0.993   1.761   2.120 -0.0687 -1.7563  0.7237
 6194SOL     OW28915   1.292   4.511   1.743  0.3260  0.2437 -0.0479
 6194SOL    HW128916   1.276   4.415   1.722  1.8031  0.0993 -0.5991
 6194SOL    HW228917   1.299   4.564   1.658 -1.9855  1.1259  0.2663
 6195SOL     OW28918   2.368   5.705   3.894 -0.5950  0.0544 -0.2527
 6195SOL    HW128919   2.279   5.663   3.909 -0.5554  0.5568  1.4475
 6195SOL    HW228920   2.432   5.674   3.964 -0.4575  2.5496  0.7762
 6196SOL     OW28921   6.297   9.038   3.321  0.3188 -0.0067 -0.4109
 6196SOL    HW128922   6.351   9.112   3.281  2.8117 -0.0905  2.6620
 6196SOL    HW228923   6.208   9.074   3.349  0.0636  0.9335 -2.3464
 6197SOL     OW28924   1.843   6.505   1.163  0.0767  0.5972 -0.3532
 6197SOL    HW128925   1.893   6.501   1.250  0.5644  1.2628 -0.5966
 6197SOL    HW228926   1.822   6.600   1.141  0.1624  0.4546 -1.0763
 6198SOL     OW28927   9.304   0.254   2.828  0.0854 -0.0203  0.1822
 6198SOL    HW128928   9.344   0.304   2.752 -0.6633  0.6314  0.2063
 6198SOL    HW228929   9.208   0.233   2.807  0.0634 -0.4082  0.6663
 6199SOL     OW28930   7.337   8.531   2.314 -0.3964 -0.3006  0.0082
 6199SOL    HW128931   7.427   8.571   2.327 -0.5231  0.2157 -0.6565
 6199SOL    HW228932   7.333   8.442   2.359  1.1530 -1.2996 -1.7444
 6200SOL     OW28933   1.317   1.151   0.845  0.3758 -0.4399  0.2118
 6200SOL    HW128934   1.244   1.168   0.778  0.6928 -0.2686 -0.0958
 6200SOL    HW228935   1.406   1.163   0.800  0.5912 -0.0184  0.7435
 6201SOL     OW28936   2.079   3.758   2.469  0.3199 -0.2278  0.1083
 6201SOL    HW128937   2.101   3.747   2.371  0.6576  0.1143  0.1461
 6201SOL    HW228938   1.981   3.742   2.483 -0.2683  2.4562 -0.7115
 6202SOL     OW28939   0.110   1.666   0.806 -0.8110  0.4806  0.1311
 6202SOL    HW128940   0.091   1.598   0.735 -1.5290 -0.4504  1.1926
 6202SOL    HW228941   0.028   1.720   0.823 -0.8838  0.1579  0.8204
 6203SOL     OW28942   2.305   0.163   2.724 -0.3813  0.2887 -0.6175
 6203SOL    HW128943   2.284   0.141   2.819 -0.0258  3.7415  0.3341
 6203SOL    HW228944   2.219   0.183   2.675 -0.4196  0.3052 -0.5433
 6204SOL     OW28945   9.039   0.526   2.238 -0.3006  0.2238  0.3060
 6204SOL    HW128946   9.097   0.593   2.285  0.2300 -0.7129  0.9976
 6204SOL    HW228947   8.981   0.573   2.172  0.5299  1.2925  0.3257
 6205SOL     OW28948   2.083   4.024   1.327 -0.1664 -0.0284 -0.6289
 6205SOL    HW128949   1.997   4.014   1.276 -0.6661 -0.6467  0.3151
 6205SOL    HW228950   2.063   4.051   1.421  0.6700 -0.1767 -0.4027
 6206SOL     OW28951   8.377   1.351   1.613  0.1492 -0.3152  0.1594
 6206SOL    HW128952   8.454   1.339   1.551  0.4066  0.7892  0.2557
 6206SOL    HW228953   8.356   1.448   1.622 -2.0931 -0.6712 -0.8682
 6207SOL     OW28954   8.830   2.838   3.164 -0.0852  0.0229  0.7459
 6207SOL    HW128955   8.846   2.931   3.198 -0.0710 -0.0049  0.8133
 6207SOL    HW228956   8.823   2.841   3.064 -0.3630  0.1379  0.7689
 6208SOL     OW28957   4.643   9.965   0.179 -0.3544 -0.6967  0.2635
 6208SOL    HW128958   4.662   9.890   0.244  1.1299 -1.4187 -0.9585
 6208SOL    HW228959   4.707   9.959   0.103 -1.8595  0.3604 -1.1057
 6209SOL     OW28960   7.792   1.776   2.991  0.3194 -0.4562  0.3032
 6209SOL    HW128961   7.867   1.722   3.030  0.3313 -0.7102 -0.0746
 6209SOL    HW228962   7.757   1.732   2.909 -0.4637 -0.4972  0.6544
 6210SOL     OW28963   3.610   9.073   3.091 -0.5561  0.4793 -0.0448
 6210SOL    HW128964   3.649   9.163   3.112 -0.6851  0.3909  0.5943
 6210SOL    HW228965   3.677   9.018   3.041 -0.7708  1.2236 -1.1764
 6211SOL     OW28966   3.146   4.807   3.167 -0.8987  0.9064 -0.3529
 6211SOL    HW128967   3.103   4.784   3.254  0.8522  3.5539  1.2904
 6211SOL    HW228968   3.217   4.741   3.146  0.0261  1.3662  1.2720
 6212SOL     OW28969   2.658   4.795   2.755 -0.5718 -0.5882 -0.6378
 6212SOL    HW128970   2.664   4.696   2.756 -0.0923 -0.5584 -0.3127
 6212SOL    HW228971   2.735   4.834   2.704  0.4937 -0.3141  1.1136
 6213SOL     OW28972   3.091   6.833   2.031  0.1086  0.1667  0.4407
 6213SOL    HW128973   3.176   6.874   2.063 -0.3140  0.9306  0.5874
 6213SOL    HW228974   3.025   6.905   2.010 -0.7345 -0.4460  0.9672
 6214SOL     OW28975   3.386   2.613   0.367  0.7782 -0.3923 -0.0645
 6214SOL    HW128976   3.384   2.647   0.462  0.9544 -1.9660  0.5193
 6214SOL    HW228977   3.441   2.675   0.311  0.8575  0.4399  0.9045
 6215SOL     OW28978   3.906   3.889   0.082 -0.9056  0.6537  0.2431
 6215SOL    HW128979   3.891   3.974   0.132  0.9878  1.0379  0.2090
 6215SOL    HW228980   3.954   3.909  -0.003 -1.2668 -0.3596 -0.2028
 6216SOL     OW28981   3.128   7.967   1.284  0.2282 -0.0072  0.1789
 6216SOL    HW128982   3.075   8.047   1.313 -2.9312 -1.4653 -1.4460
 6216SOL    HW228983   3.074   7.911   1.222  3.2170 -2.2781 -0.4951
 6217SOL     OW28984   2.867   9.813   2.049 -0.7992 -0.5988 -0.2953
 6217SOL    HW128985   2.953   9.857   2.076 -0.8924 -1.3589  1.3170
 6217SOL    HW228986   2.815   9.875   1.990 -0.7747  1.3451  1.6560
 6218SOL     OW28987   3.453   0.467   3.319 -0.2944  0.4768 -0.1244
 6218SOL    HW128988   3.480   0.554   3.360  1.0019  1.0267 -2.0693
 6218SOL    HW228989   3.526   0.400   3.331  0.5287  0.9305 -2.3227
 6219SOL     OW28990   9.837   0.267   0.235  0.1483  0.1796  0.4657
 6219SOL    HW128991   9.768   0.339   0.249 -1.4239 -1.5753  2.0732
 6219SOL    HW228992   9.924   0.296   0.277  0.1193  1.9733 -0.6754
 6220SOL     OW28993   2.378   5.988   0.139 -0.4473  0.1468  0.2648
 6220SOL    HW128994   2.470   6.027   0.142  0.0377 -0.9785  0.1138
 6220SOL    HW228995   2.319   6.049   0.086  1.1808 -1.0592 -3.1373
 6221SOL     OW28996   0.661   9.377   3.660 -0.4779 -0.1781 -0.2636
 6221SOL    HW128997   0.584   9.346   3.604 -1.7030  0.5741  0.9582
 6221SOL    HW228998   0.715   9.298   3.689 -1.6941 -0.8717  0.1582
 6222SOL     OW28999   1.007   8.920   2.303  0.1227 -0.7321 -0.3556
 6222SOL    HW129000   0.931   8.857   2.291 -1.6898  1.6348 -1.7823
 6222SOL    HW229001   1.065   8.918   2.221 -0.3588 -0.0488 -0.7247
 6223SOL     OW29002   2.720   5.338   0.252  0.1513  0.0937  0.4284
 6223SOL    HW129003   2.763   5.424   0.224 -1.1958  0.5512 -0.2871
 6223SOL    HW229004   2.713   5.277   0.173  0.3740 -0.3713  0.7640
 6224SOL     OW29005   7.727   1.244   0.403  0.2282  0.0056 -0.6256
 6224SOL    HW129006   7.696   1.230   0.309  0.2763  0.9263 -0.7889
 6224SOL    HW229007   7.725   1.342   0.424 -2.1205 -0.3750  1.1273
 6225SOL     OW29008   3.063   4.362   0.550  0.1545 -0.5813  1.0787
 6225SOL    HW129009   3.155   4.376   0.514  0.1899 -2.3487  0.4447
 6225SOL    HW229010   3.027   4.275   0.518 -2.9929  1.4814 -1.2914
 6226SOL     OW29011   0.889   3.462   1.550  0.4748  0.0798  0.2239
 6226SOL    HW129012   0.887   3.402   1.630  0.7651 -0.2498 -0.0156
 6226SOL    HW229013   0.981   3.463   1.512  0.7278  1.4934  0.8385
 6227SOL     OW29014   1.596   0.088   2.206 -0.1002 -0.0353 -0.1084
 6227SOL    HW129015   1.668   0.080   2.137 -0.1360  0.1433 -0.1662
 6227SOL    HW229016   1.521   0.027   2.182  0.7635 -1.5146  0.8626
 6228SOL     OW29017   2.081   6.558   3.686 -0.8077  0.2335  0.5289
 6228SOL    HW129018   2.018   6.483   3.704 -0.5152 -0.2259 -0.3372
 6228SOL    HW229019   2.171   6.522   3.661 -0.8273  0.8580 -0.4851
 6229SOL     OW29020   1.783   5.405   0.164 -0.4575 -0.3636 -0.1085
 6229SOL    HW129021   1.716   5.476   0.139  1.8585  1.4699 -1.2818
 6229SOL    HW229022   1.858   5.446   0.215 -0.7860 -2.6226  2.2892
 6230SOL     OW29023   1.640   1.932   1.218  0.0886 -0.0271  0.7533
 6230SOL    HW129024   1.709   1.926   1.146 -0.9600  0.5322 -0.3323
 6230SOL    HW229025   1.578   1.854   1.211 -0.6924  0.6237  0.3163
 6231SOL     OW29026   9.315   1.511   1.347  0.0835 -0.2897 -0.3348
 6231SOL    HW129027   9.226   1.467   1.359 -0.3865  0.7421  0.0404
 6231SOL    HW229028   9.387   1.442   1.352 -0.6665 -1.0849 -0.2768
 6232SOL     OW29029   8.386   3.386   0.967  0.4072  0.2300 -0.0772
 6232SOL    HW129030   8.410   3.319   0.897 -0.5160 -0.0121 -0.1707
 6232SOL    HW229031   8.294   3.367   1.002  0.4290  1.0009  0.4296
 6233SOL     OW29032   9.767   8.632   0.655  0.3004  0.1311  0.3226
 6233SOL    HW129033   9.851   8.684   0.648 -0.5961  1.4247 -1.2268
 6233SOL    HW229034   9.695   8.689   0.695 -0.1616 -0.5871  0.5380
 6234SOL     OW29035   8.618   6.520   0.598  0.7095  0.3656  0.3010
 6234SOL    HW129036   8.617   6.430   0.642  0.5231  1.2406  2.1415
 6234SOL    HW229037   8.628   6.509   0.499 -1.1390 -1.7579  0.3152
 6235SOL     OW29038   0.315   3.096   0.324 -0.4088  0.1848 -0.3170
 6235SOL    HW129039   0.291   3.100   0.421 -1.5095  0.0609 -0.5726
 6235SOL    HW229040   0.404   3.052   0.313 -0.2440  0.2702  0.6371
 6236SOL     OW29041   1.930   4.463   0.090 -0.3238 -0.0489 -0.7872
 6236SOL    HW129042   1.900   4.372   0.061 -1.6287 -0.9734  3.1628
 6236SOL    HW229043   1.850   4.524   0.092 -0.0851  0.2415 -0.1010
 6237SOL     OW29044   7.955   6.504   0.737 -0.1460 -0.2330 -0.1318
 6237SOL    HW129045   7.863   6.531   0.767  0.3898  0.6465  0.7372
 6237SOL    HW229046   8.005   6.584   0.705  0.1708 -0.7817 -1.0495
 6238SOL     OW29047   2.795   7.778   2.491 -0.4713  0.4162 -0.4611
 6238SOL    HW129048   2.839   7.836   2.559 -0.5605 -2.5307  2.1988
 6238SOL    HW229049   2.696   7.783   2.501 -0.5468  1.1012 -1.3980
 6239SOL     OW29050   3.503   4.501   2.513  0.6262 -0.9038  0.3435
 6239SOL    HW129051   3.527   4.416   2.558  1.4596 -0.2483  1.1579
 6239SOL    HW229052   3.545   4.578   2.562 -2.1023  0.1754  1.0834
 6240SOL     OW29053   2.906   6.684   3.290  0.6497  0.2441  0.3990
 6240SOL    HW129054   2.910   6.711   3.386 -0.7799  0.6981  0.3482
 6240SOL    HW229055   2.812   6.657   3.267  0.6531  1.5703 -1.2408
 6241SOL     OW29056   2.126   8.379   3.255  0.2030  0.6213  0.4711
 6241SOL    HW129057   2.130   8.365   3.354  0.9404  0.5656  0.4334
 6241SOL    HW229058   2.147   8.475   3.234  1.6532  0.2565  0.2501
 6242SOL     OW29059   4.204   7.258   2.719  0.1828 -0.1570 -0.2635
 6242SOL    HW129060   4.230   7.354   2.706 -0.1820 -0.3982 -3.1336
 6242SOL    HW229061   4.284   7.200   2.708  0.2011 -0.2715  0.4256
 6243SOL     OW29062   9.634   0.598   1.264 -0.2988  0.6433 -0.0443
 6243SOL    HW129063   9.602   0.551   1.182  0.6762 -0.3913  0.1603
 6243SOL    HW229064   9.709   0.660   1.240 -0.4699  0.8585 -0.0341
 6244SOL     OW29065   3.471   9.164   0.940  0.7311  0.5406  0.5055
 6244SOL    HW129066   3.435   9.164   0.846  2.5333 -0.5462 -0.2172
 6244SOL    HW229067   3.519   9.249   0.957  2.3411 -0.1807 -0.3505
 6245SOL     OW29068   2.580   7.135   3.868  0.1925 -0.0086  0.5678
 6245SOL    HW129069   2.649   7.183   3.922  0.2688 -0.9980  1.3673
 6245SOL    HW229070   2.557   7.049   3.913 -0.8808 -0.1189 -0.1848
 6246SOL     OW29071   4.594   7.123   2.409 -0.2466 -0.5515 -0.3950
 6246SOL    HW129072   4.680   7.174   2.416 -0.1005 -0.7902 -0.4539
 6246SOL    HW229073   4.531   7.174   2.350 -0.0139 -0.5565 -0.6514
 6247SOL     OW29074   0.793   2.513   2.761  0.0562  0.0393 -0.1038
 6247SOL    HW129075   0.797   2.549   2.667 -1.9010 -0.5255 -0.4407
 6247SOL    HW229076   0.883   2.479   2.788  0.7524  0.6420 -1.6081
 6248SOL     OW29077   3.016   7.488   1.582  0.4731  0.4466  0.1812
 6248SOL    HW129078   3.107   7.517   1.551  0.0742  1.8257  0.2618
 6248SOL    HW229079   2.987   7.546   1.658 -0.1678 -0.4652  0.6368
 6249SOL     OW29080   1.627   0.084   3.225  0.3627 -0.0627 -0.2147
 6249SOL    HW129081   1.635   0.146   3.148 -0.5458 -0.9047 -1.0011
 6249SOL    HW229082   1.530   0.069   3.246  0.6071  1.0004  1.7810
 6250SOL     OW29083   0.768   7.191   1.940 -0.1503 -0.2970  0.3654
 6250SOL    HW129084   0.670   7.171   1.937 -0.2856  0.6245 -2.6293
 6250SOL    HW229085   0.809   7.141   2.016 -2.7907 -1.3511  1.1746
 6251SOL     OW29086   0.718   0.526   1.563  0.3141 -0.6037  0.3961
 6251SOL    HW129087   0.643   0.541   1.500  0.7718  0.9862  0.2068
 6251SOL    HW229088   0.699   0.446   1.620 -0.2436 -1.8800 -1.5211
 6252SOL     OW29089   3.129   9.873   2.307 -0.3460  0.2344  0.1563
 6252SOL    HW129090   3.048   9.816   2.314  1.2569 -2.3121 -1.2674
 6252SOL    HW229091   3.141   9.903   2.212  1.7941 -1.6390 -0.2043
 6253SOL     OW29092   9.906   7.965   0.455  0.6221 -0.5573 -0.3714
 6253SOL    HW129093   9.967   7.999   0.384  1.7640  0.0416  0.8602
 6253SOL    HW229094   9.828   7.918   0.414  0.3331  1.3340 -2.0347
 6254SOL     OW29095   1.973   8.717   0.111 -0.1662 -0.4228  0.0295
 6254SOL    HW129096   1.919   8.690   0.191 -1.8874 -0.1889 -1.0414
 6254SOL    HW229097   1.962   8.649   0.039  0.8847 -0.3059 -0.2535
 6255SOL     OW29098   3.339   0.735   2.115 -0.5186 -0.2126  0.3639
 6255SOL    HW129099   3.402   0.722   2.191 -1.0173  0.7102  0.9497
 6255SOL    HW229100   3.390   0.743   2.030  0.1779  0.8659  0.8824
 6256SOL     OW29101   3.983   1.785   0.659 -0.1729  0.2220  0.6283
 6256SOL    HW129102   4.010   1.766   0.754 -1.3153 -1.1152  0.6949
 6256SOL    HW229103   3.980   1.884   0.645 -0.9143  0.4570  2.2723
 6257SOL     OW29104   8.788   3.594   1.413  0.7395  0.5424  0.1450
 6257SOL    HW129105   8.698   3.609   1.371  1.9119  1.6626 -2.0630
 6257SOL    HW229106   8.798   3.654   1.492 -1.4058 -1.3942  1.9477
 6258SOL     OW29107   1.151   9.581   1.045 -0.3207 -0.2527  0.0419
 6258SOL    HW129108   1.204   9.645   0.990 -0.8420 -0.4770 -0.7335
 6258SOL    HW229109   1.093   9.526   0.985  1.1263 -2.4129  0.5496
 6259SOL     OW29110   3.592   7.892   0.280 -0.5708  0.1984 -0.3730
 6259SOL    HW129111   3.575   7.872   0.376  0.2475  1.0610 -0.0472
 6259SOL    HW229112   3.574   7.989   0.262 -1.2562 -0.0677 -1.2167
 6260SOL     OW29113   7.997   0.265   1.036 -0.5557  0.4287 -0.1362
 6260SOL    HW129114   7.958   0.356   1.024  0.6728  0.8785 -0.7789
 6260SOL    HW229115   8.054   0.242   0.957 -0.0459 -0.4837  0.4846
 6261SOL     OW29116   1.543   9.815   3.445  0.1067 -0.4957 -0.1163
 6261SOL    HW129117   1.519   9.889   3.508 -3.2815 -1.9171  0.3738
 6261SOL    HW229118   1.517   9.840   3.352  1.9432  0.2036 -0.4615
 6262SOL     OW29119   9.798   9.158   0.294  0.0074  0.0097 -0.3376
 6262SOL    HW129120   9.791   9.243   0.346 -1.5256  1.4596 -2.7677
 6262SOL    HW229121   9.717   9.102   0.311  0.7105 -0.6630  0.7743
 6263SOL     OW29122   9.966   9.571   3.889  0.1562  0.2777  0.0275
 6263SOL    HW129123   9.959   9.565   3.988 -1.4108  0.2068 -0.0773
 6263SOL    HW229124  10.026   9.499   3.855  1.3195  0.7796  0.9778
 6264SOL     OW29125   3.821   4.235   1.600  0.7073 -0.2486 -0.5385
 6264SOL    HW129126   3.812   4.319   1.547  1.8582 -0.2886 -0.8105
 6264SOL    HW229127   3.731   4.206   1.633  0.1341  0.3796 -1.5442
 6265SOL     OW29128   1.384   1.424   0.304  0.5842  0.2855  0.3847
 6265SOL    HW129129   1.346   1.376   0.225  1.0024 -0.3840  0.5896
 6265SOL    HW229130   1.476   1.390   0.324 -0.1261 -0.6952  2.1358
 6266SOL     OW29131   3.889   0.110   1.699  0.0771  0.0977  0.0765
 6266SOL    HW129132   3.863   0.151   1.786 -1.3510 -2.4536  0.8871
 6266SOL    HW229133   3.831   0.147   1.626 -0.0884  0.7107  0.5158
 6267SOL     OW29134   6.371   0.039   2.469  0.4030  0.1899 -0.2011
 6267SOL    HW129135   6.299  -0.008   2.419 -1.3779  0.2395  2.2255
 6267SOL    HW229136   6.453   0.045   2.412 -0.8672 -1.5987 -2.2894
 6268SOL     OW29137   7.203   9.360   2.978  0.2063  0.1114  0.3177
 6268SOL    HW129138   7.135   9.434   2.975  1.4651  1.3076  1.0667
 6268SOL    HW229139   7.237   9.350   3.071  1.0223 -0.5374 -0.0444
 6269SOL     OW29140   3.436   6.718   3.086  0.1969  0.7347  0.0049
 6269SOL    HW129141   3.337   6.706   3.089  0.4619 -1.6116  0.0141
 6269SOL    HW229142   3.471   6.723   3.180  0.0000  2.6238  0.0052
 6270SOL     OW29143   7.338   2.572   0.828  0.2733  0.3607  0.2374
 6270SOL    HW129144   7.380   2.583   0.917  0.4370 -1.6813  0.4387
 6270SOL    HW229145   7.299   2.480   0.820  0.6637  0.3474 -1.9543
 6271SOL     OW29146   2.604   7.540   3.355 -0.3654  0.4990 -0.2075
 6271SOL    HW129147   2.587   7.578   3.446  0.3203 -0.4261  0.3089
 6271SOL    HW229148   2.695   7.569   3.323 -0.1167 -0.1526 -0.0949
 6272SOL     OW29149   1.863   0.483   3.794 -0.4707  0.0267 -0.1111
 6272SOL    HW129150   1.879   0.544   3.871  2.3055  1.1644 -1.5019
 6272SOL    HW229151   1.886   0.389   3.820 -2.3714 -0.0773  1.2822
 6273SOL     OW29152   9.205   0.340   0.542  0.1742  0.5056 -0.4226
 6273SOL    HW129153   9.199   0.409   0.470 -0.1022 -0.8977 -1.7703
 6273SOL    HW229154   9.266   0.266   0.513 -1.9589 -1.3524 -0.3309
 6274SOL     OW29155   3.889   8.948   1.425  0.3879 -0.4106 -0.3626
 6274SOL    HW129156   3.934   8.917   1.509  0.4222 -1.9496 -0.9261
 6274SOL    HW229157   3.958   8.981   1.361  0.2620  1.8460  0.6356
 6275SOL     OW29158   9.290   2.797   0.495  0.3589 -0.2485  0.1329
 6275SOL    HW129159   9.341   2.723   0.452 -1.6598 -0.3957 -2.1229
 6275SOL    HW229160   9.269   2.772   0.590  1.5304 -1.6384  0.0357
 6276SOL     OW29161   2.941   7.455   0.679 -0.9016 -0.4353  0.2938
 6276SOL    HW129162   3.014   7.455   0.610 -0.8972  0.1046  0.2957
 6276SOL    HW229163   2.853   7.454   0.633 -0.9180  1.1977  0.2436
 6277SOL     OW29164   1.407   1.045   3.858 -0.4142  0.4304  0.0213
 6277SOL    HW129165   1.319   1.092   3.852 -2.4782 -2.7805  3.2104
 6277SOL    HW229166   1.465   1.093   3.924 -0.4528  1.4776 -0.6885
 6278SOL     OW29167   0.492   3.537   1.069  0.3121 -0.0094 -0.4074
 6278SOL    HW129168   0.432   3.562   1.144  1.2761 -1.1927  0.7812
 6278SOL    HW229169   0.569   3.601   1.065  1.4158 -1.1880  1.0224
 6279SOL     OW29170   4.348   0.097   0.672  0.3886  0.0819 -0.4802
 6279SOL    HW129171   4.294   0.089   0.589  0.5610 -1.3882 -0.4602
 6279SOL    HW229172   4.394   0.010   0.691  0.8101  0.5754  0.8380
 6280SOL     OW29173   2.764   3.897   1.722  0.6539 -0.5956  0.1308
 6280SOL    HW129174   2.853   3.886   1.767  0.3725  0.4563  0.9576
 6280SOL    HW229175   2.776   3.895   1.623  1.6316 -0.2037  0.2420
 6281SOL     OW29176   0.645   8.001   2.407  0.5112 -0.3543 -0.3299
 6281SOL    HW129177   0.555   8.018   2.366 -0.5614 -1.2495  1.6274
 6281SOL    HW229178   0.672   8.080   2.461  1.2815  0.2309 -1.5353
 6282SOL     OW29179   7.672   1.858   0.571 -0.9057  0.3412  0.5461
 6282SOL    HW129180   7.761   1.881   0.533 -1.2221 -0.0278 -0.4526
 6282SOL    HW229181   7.611   1.830   0.497 -1.3207 -1.1270  1.4206
 6283SOL     OW29182   9.998   1.530   0.540 -0.5868 -0.1553  0.3037
 6283SOL    HW129183  10.056   1.454   0.567 -0.1968 -0.2732 -0.8437
 6283SOL    HW229184   9.902   1.501   0.544 -0.5211 -0.2701  1.2122
 6284SOL     OW29185   0.265   0.211   2.182  0.2802  0.0944  0.0530
 6284SOL    HW129186   0.237   0.115   2.191  0.5010 -0.1541 -1.7443
 6284SOL    HW229187   0.364   0.216   2.177  0.3608  0.5855  1.9195
 6285SOL     OW29188   7.520   9.175   2.549 -0.7112  0.1414 -0.1490
 6285SOL    HW129189   7.565   9.098   2.593 -0.9260 -0.2368 -0.5854
 6285SOL    HW229190   7.454   9.216   2.613 -1.0099 -0.3933 -0.1116
 6286SOL     OW29191   2.858   9.360   1.921  0.4294 -0.4532 -1.0990
 6286SOL    HW129192   2.861   9.275   1.974  1.5746 -0.1303 -0.6329
 6286SOL    HW229193   2.773   9.364   1.869 -0.5570 -0.9462  0.4476
 6287SOL     OW29194   4.266   1.298   2.681 -0.1912  0.6810  0.4507
 6287SOL    HW129195   4.304   1.244   2.756 -0.2105  2.4080  1.7335
 6287SOL    HW229196   4.339   1.325   2.619  0.0818  0.6326  0.7473
 6288SOL     OW29197   3.415   8.993   1.711  0.1054  0.3661  0.4620
 6288SOL    HW129198   3.457   9.078   1.745  4.5670 -1.9098  1.0011
 6288SOL    HW229199   3.460   8.965   1.627 -1.6113 -1.2946  0.0643
 6289SOL     OW29200   1.518   4.044   2.845  0.4674  0.2720 -0.5623
 6289SOL    HW129201   1.447   4.075   2.908  2.1182  0.5237  1.2340
 6289SOL    HW229202   1.587   4.116   2.835  1.6405 -0.8210 -0.4601
 6290SOL     OW29203   2.036   4.060   2.334  0.1381 -0.5110  0.1340
 6290SOL    HW129204   2.107   4.039   2.402 -0.0066  0.3248  0.5532
 6290SOL    HW229205   2.046   3.999   2.255  1.0830 -0.6637  0.3644
 6291SOL     OW29206   6.369   9.331   3.276 -0.4922 -0.0634 -0.3516
 6291SOL    HW129207   6.273   9.356   3.293 -0.1410  0.1130  1.4835
 6291SOL    HW229208   6.411   9.399   3.216 -1.1856  0.5287 -0.1736
 6292SOL     OW29209   2.756   2.521   3.746 -0.1230  0.2245 -0.8121
 6292SOL    HW129210   2.848   2.543   3.779 -0.1611 -0.3493 -0.3152
 6292SOL    HW229211   2.689   2.542   3.816 -0.0994 -2.0337 -0.0779
 6293SOL     OW29212   8.148   8.548   1.310 -0.1388  0.4430  0.1831
 6293SOL    HW129213   8.073   8.600   1.269 -0.8482 -0.6469  0.0621
 6293SOL    HW229214   8.127   8.532   1.407 -1.0973 -1.6840 -0.3517
 6294SOL     OW29215   2.436   4.813   1.272  0.3913 -0.1773  0.8176
 6294SOL    HW129216   2.367   4.741   1.273  1.3188 -1.1192 -0.6850
 6294SOL    HW229217   2.505   4.795   1.343 -0.0015 -0.1399  1.2075
 6295SOL     OW29218   7.531   0.163   0.110 -0.8911 -0.0784  0.0866
 6295SOL    HW129219   7.625   0.177   0.079 -1.5284 -0.7994 -2.2808
 6295SOL    HW229220   7.518   0.067   0.136 -1.3497 -0.3033 -0.9603
 6296SOL     OW29221   8.216   7.876   0.230 -0.6409  0.1242  0.3267
 6296SOL    HW129222   8.307   7.895   0.193 -0.1727 -1.3860  0.6666
 6296SOL    HW229223   8.218   7.790   0.282 -1.2279  2.2344  3.9981
 6297SOL     OW29224   3.935   9.166   1.925  0.3520  0.9701  0.1703
 6297SOL    HW129225   3.861   9.127   1.871  0.0481  0.1807  1.1421
 6297SOL    HW229226   3.993   9.092   1.960  1.0088  1.5239  0.2588
 6298SOL     OW29227   2.767   6.790   0.385  0.3450 -0.1643 -0.5113
 6298SOL    HW129228   2.800   6.871   0.435 -0.2650 -0.3495  0.2166
 6298SOL    HW229229   2.695   6.746   0.439  0.1600 -0.7701 -1.2524
 6299SOL     OW29230   1.647   6.385   1.874 -0.2346  0.1136 -0.0098
 6299SOL    HW129231   1.635   6.367   1.776 -0.3955  0.6287 -0.0883
 6299SOL    HW229232   1.572   6.342   1.925  0.0361 -0.4433 -0.0784
 6300SOL     OW29233   1.669   3.823   1.201 -0.1531  0.2822  0.2466
 6300SOL    HW129234   1.661   3.756   1.127  3.3761  0.3335 -0.2835
 6300SOL    HW229235   1.645   3.781   1.288 -0.8077 -0.8321 -0.4709
 6301SOL     OW29236   1.660   2.823   2.477 -0.3408 -0.1755 -0.1005
 6301SOL    HW129237   1.579   2.783   2.520 -0.6967  1.9773  1.3470
 6301SOL    HW229238   1.737   2.819   2.542 -0.4356  1.5950  0.1381
 6302SOL     OW29239   1.596   6.348   1.611  0.6779 -0.2955 -0.1456
 6302SOL    HW129240   1.506   6.305   1.621 -0.1757  1.4665  0.0388
 6302SOL    HW229241   1.630   6.334   1.518  0.9703 -2.3659  0.2556
 6303SOL     OW29242   9.153   1.464   3.126 -0.1602 -0.0694  0.5516
 6303SOL    HW129243   9.160   1.385   3.186  0.4962  0.9125  1.8063
 6303SOL    HW229244   9.057   1.485   3.109 -0.3426 -0.7213  0.7720
 6304SOL     OW29245   1.893   1.381   2.527  0.3096  0.2714  0.2281
 6304SOL    HW129246   1.917   1.330   2.444  2.2895  0.4146  0.7000
 6304SOL    HW229247   1.796   1.367   2.548  0.7722 -3.1820  0.2706
 6305SOL     OW29248   2.664   0.282   0.535 -0.5904  0.0971 -0.4652
 6305SOL    HW129249   2.743   0.310   0.481 -1.7688  0.5921 -1.9903
 6305SOL    HW229250   2.623   0.363   0.578  0.4227 -0.3122  1.3227
 6306SOL     OW29251   4.849   1.056   2.015 -0.1950 -0.0186 -0.7849
 6306SOL    HW129252   4.933   1.109   2.007 -0.3415  0.4249  0.5794
 6306SOL    HW229253   4.861   0.968   1.969  0.6272  0.4867 -1.5661
 6307SOL     OW29254   8.335   3.333   1.267  0.4346  0.2273  0.1370
 6307SOL    HW129255   8.363   3.427   1.284  0.0707  0.4960 -0.7200
 6307SOL    HW229256   8.240   3.330   1.238  0.1507 -0.5042  1.0998
 6308SOL     OW29257   6.875   0.761   2.628  0.0583  0.0832 -0.1371
 6308SOL    HW129258   6.838   0.813   2.551  1.5278 -0.1613 -1.0216
 6308SOL    HW229259   6.926   0.682   2.594 -1.8070 -1.7296  1.1892
 6309SOL     OW29260   2.454   2.075   2.418  0.3270  0.1914 -0.0738
 6309SOL    HW129261   2.515   2.145   2.383 -0.1388  0.2470 -0.7890
 6309SOL    HW229262   2.472   1.988   2.371  0.6862 -0.0967  0.5826
 6310SOL     OW29263   9.598   7.533   1.229 -0.2821  0.2123  0.6123
 6310SOL    HW129264   9.547   7.571   1.152 -0.1811  0.3998  0.6373
 6310SOL    HW229265   9.559   7.566   1.315 -2.4152 -2.4988  0.7588
 6311SOL     OW29266   7.905   1.130   1.700 -0.2128 -0.0690  0.6053
 6311SOL    HW129267   7.808   1.115   1.681 -0.1707  2.0399 -1.7237
 6311SOL    HW229268   7.951   1.043   1.714 -2.3012 -1.1428  0.9377
 6312SOL     OW29269   1.721   9.566   2.886 -0.7106 -0.0748 -0.1038
 6312SOL    HW129270   1.821   9.561   2.895 -0.5870  1.7218 -0.1270
 6312SOL    HW229271   1.679   9.543   2.974 -0.3158 -1.7097 -0.3393
 6313SOL     OW29272   6.666   8.355   2.051  0.3003  0.2321  0.2889
 6313SOL    HW129273   6.601   8.412   2.001 -0.6296 -0.1696  1.0321
 6313SOL    HW229274   6.625   8.324   2.137  1.5867  0.2352  0.9212
 6314SOL     OW29275   3.055   1.835   2.180  0.1279  0.2840  0.1297
 6314SOL    HW129276   3.082   1.895   2.105 -2.3752  0.7782 -0.4224
 6314SOL    HW229277   3.073   1.880   2.267 -1.1271  1.6167 -0.2776
 6315SOL     OW29278   9.193   2.479   3.615  0.5645 -0.0887  0.1184
 6315SOL    HW129279   9.197   2.485   3.715  1.2662  0.0223  0.0855
 6315SOL    HW229280   9.187   2.572   3.576  1.2532 -0.0867  0.0184
 6316SOL     OW29281   2.981   3.228   1.934 -0.1334 -0.1908 -0.1720
 6316SOL    HW129282   3.005   3.325   1.933 -0.2895 -0.1433 -2.6655
 6316SOL    HW229283   2.884   3.218   1.911 -0.4092 -0.8735  1.2577
 6317SOL     OW29284   3.330   9.483   3.037  0.0124  0.5396  0.1100
 6317SOL    HW129285   3.250   9.480   3.098 -0.3860  0.3614 -0.4160
 6317SOL    HW229286   3.301   9.514   2.946  0.5155  0.3052 -0.1298
 6318SOL     OW29287   8.684   3.279   0.586 -0.0031  0.0728  0.3050
 6318SOL    HW129288   8.737   3.347   0.637  0.2072  1.6751 -1.9793
 6318SOL    HW229289   8.677   3.195   0.640  3.9012  0.1874  1.1635
 6319SOL     OW29290   9.489   2.202   3.960  0.0744 -0.6743 -0.2856
 6319SOL    HW129291   9.576   2.154   3.973  0.8623  0.5082 -1.0738
 6319SOL    HW229292   9.491   2.249   3.872 -0.8435  0.4695  0.3043
 6320SOL     OW29293   4.012   6.986   3.017  0.2889  0.5446 -0.4698
 6320SOL    HW129294   4.078   6.946   3.081 -0.4603  1.3093  0.7934
 6320SOL    HW229295   4.017   7.085   3.021 -2.5019  0.6692  1.3137
 6321SOL     OW29296   1.033   4.845   0.467  0.7061  0.2011 -0.0347
 6321SOL    HW129297   0.991   4.905   0.399  0.8334 -1.0759 -1.2703
 6321SOL    HW229298   1.113   4.800   0.426 -0.8837 -2.7815  0.0009
 6322SOL     OW29299   4.273   7.589   2.391 -0.2258 -0.1306 -0.5225
 6322SOL    HW129300   4.364   7.573   2.351 -0.4940  2.2123 -2.1645
 6322SOL    HW229301   4.232   7.670   2.349 -1.9385  0.4645  2.1717
 6323SOL     OW29302   1.929   9.530   2.198  0.6395  0.0863  0.2806
 6323SOL    HW129303   1.980   9.525   2.284  2.0701 -1.1559 -0.6147
 6323SOL    HW229304   1.854   9.464   2.201 -1.0695  2.0219  1.6578
 6324SOL     OW29305   2.010   9.209   0.434  0.1012 -0.0390  0.6869
 6324SOL    HW129306   1.987   9.117   0.403 -0.8049 -0.3921  2.3763
 6324SOL    HW229307   2.076   9.250   0.370 -0.3118 -1.4335 -0.6635
 6325SOL     OW29308   3.095   4.262   1.181  0.4308 -0.0961  0.7453
 6325SOL    HW129309   3.070   4.166   1.169 -1.3243  0.5264 -0.7276
 6325SOL    HW229310   3.016   4.313   1.216  1.2421  0.8887  1.1720
 6326SOL     OW29311   3.038   0.424   0.190 -0.1696  0.1941 -0.2973
 6326SOL    HW129312   3.108   0.368   0.235 -0.4161  0.3993  0.3394
 6326SOL    HW229313   3.082   0.492   0.132  0.1558  0.2546  0.0233
 6327SOL     OW29314   8.339   2.228   2.885 -0.6870  0.1247 -0.5099
 6327SOL    HW129315   8.309   2.319   2.858  0.9394  0.7764 -0.1753
 6327SOL    HW229316   8.424   2.205   2.838 -0.7327 -0.9412 -0.0889
 6328SOL     OW29317   3.458   2.574   1.483  0.2608 -0.1994  0.1286
 6328SOL    HW129318   3.471   2.632   1.564 -2.0884 -1.0448  1.1406
 6328SOL    HW229319   3.454   2.632   1.401 -0.7811  0.9678  0.9843
 6329SOL     OW29320   8.725   8.597   2.584  0.2229 -0.0752 -0.0143
 6329SOL    HW129321   8.628   8.617   2.597 -0.1772 -1.2252 -1.1767
 6329SOL    HW229322   8.779   8.646   2.653 -1.0220  2.1180 -0.5497
 6330SOL     OW29323   1.676   1.990   1.479  0.5149 -0.2379 -0.5550
 6330SOL    HW129324   1.608   1.926   1.516 -0.1673  1.5431  1.3869
 6330SOL    HW229325   1.680   1.980   1.380 -1.8391 -1.1258 -0.6071
 6331SOL     OW29326   1.790   7.642   3.118  0.1799  0.1172  0.1546
 6331SOL    HW129327   1.724   7.600   3.056  2.5632  0.2257 -2.5173
 6331SOL    HW229328   1.790   7.592   3.205 -1.1030 -1.8609 -0.9537
 6332SOL     OW29329   1.372   9.860   1.435  0.2384 -0.4507  0.2207
 6332SOL    HW129330   1.441   9.900   1.375  1.9993 -1.0183  1.8247
 6332SOL    HW229331   1.378   9.760   1.430 -1.4882 -0.5230 -0.7560
 6333SOL     OW29332   7.459   2.488   1.428  0.3638 -0.1523  0.2402
 6333SOL    HW129333   7.397   2.532   1.363 -0.2532  0.1420  1.0183
 6333SOL    HW229334   7.548   2.535   1.426  0.4845 -0.4200 -0.7013
 6334SOL     OW29335   3.251   9.506   1.945  0.0940  0.0260  0.4638
 6334SOL    HW129336   3.289   9.432   2.000  1.4998 -0.2522 -0.8633
 6334SOL    HW229337   3.154   9.516   1.966 -0.3784 -2.8974 -0.0922
 6335SOL     OW29338   0.324   0.399   1.559  0.2043  0.4633 -0.2706
 6335SOL    HW129339   0.257   0.472   1.566  0.6833  0.8553  0.2719
 6335SOL    HW229340   0.305   0.344   1.477 -2.1573 -0.8426  1.1142
 6336SOL     OW29341   0.433   0.295   2.832 -0.1129 -0.3121 -0.0779
 6336SOL    HW129342   0.357   0.276   2.895 -1.0789  0.9624 -0.8256
 6336SOL    HW229343   0.445   0.394   2.824 -0.4455 -0.4480 -2.4212
 6337SOL     OW29344   0.939   2.105   2.571 -0.5445  0.0070 -0.6538
 6337SOL    HW129345   0.946   2.061   2.661 -0.9594 -0.6957 -0.9535
 6337SOL    HW229346   0.856   2.161   2.568  1.0862  2.5561  0.4555
 6338SOL     OW29347   3.013   9.826   2.666  0.4048  0.2457 -0.0440
 6338SOL    HW129348   2.992   9.811   2.762 -0.0313 -0.9955 -0.3230
 6338SOL    HW229349   3.112   9.826   2.653  0.4570 -0.9814  0.2118
 6339SOL     OW29350   8.957   7.637   0.253  0.1026  0.2957 -0.1301
 6339SOL    HW129351   8.877   7.693   0.278  0.4525  0.6331  0.2583
 6339SOL    HW229352   8.958   7.553   0.308  0.2540  0.5037  0.1913
 6340SOL     OW29353   0.214   3.188   2.035  0.4822 -0.3250 -0.5813
 6340SOL    HW129354   0.238   3.279   2.002 -2.7521  1.0322  0.6515
 6340SOL    HW229355   0.149   3.146   1.971 -2.1496  0.4293  1.4909
 6341SOL     OW29356   2.421   3.749   0.136 -0.1044  0.0923 -0.0311
 6341SOL    HW129357   2.362   3.715   0.209  1.4541 -0.2866  1.0900
 6341SOL    HW229358   2.517   3.741   0.165  0.4575  1.5550 -1.4287
 6342SOL     OW29359   3.143   9.437   2.251  0.1968  0.2530  0.2511
 6342SOL    HW129360   3.077   9.489   2.197 -0.4594  1.3441  2.0476
 6342SOL    HW229361   3.188   9.369   2.193 -2.1805 -0.2073 -1.1136
 6343SOL     OW29362   7.362   9.588   3.315 -0.2641  0.4393 -0.4231
 6343SOL    HW129363   7.309   9.653   3.369 -0.7348 -1.4258  1.4097
 6343SOL    HW229364   7.449   9.570   3.359  0.7136  1.3151 -1.9570
 6344SOL     OW29365   9.361   9.081   3.442 -0.4003  0.6164 -0.7381
 6344SOL    HW129366   9.453   9.120   3.440  0.5728 -1.4024  1.8045
 6344SOL    HW229367   9.366   8.982   3.427 -2.1334  0.4523 -0.3474
 6345SOL     OW29368   3.050   0.697   3.113  0.3194  0.5952 -0.1819
 6345SOL    HW129369   2.981   0.710   3.041 -0.1994 -0.3345  0.1397
 6345SOL    HW229370   3.005   0.694   3.202  0.8291  0.4646  0.0733
 6346SOL     OW29371   7.835   1.462   0.708 -0.1579 -0.1124 -0.3006
 6346SOL    HW129372   7.753   1.513   0.734  0.2120  0.2713  0.1093
 6346SOL    HW229373   7.879   1.508   0.630 -0.7425 -0.7356 -1.0101
 6347SOL     OW29374   3.000   6.025   0.009  0.0678  0.7669 -0.5140
 6347SOL    HW129375   2.940   6.046  -0.068 -1.3733  0.3417  0.4551
 6347SOL    HW229376   2.974   6.082   0.088  0.7136  0.3266  0.0238
 6348SOL     OW29377   9.007   7.628   3.637 -0.5180  0.0577 -0.3490
 6348SOL    HW129378   9.069   7.629   3.559  0.6799  1.5779  0.5708
 6348SOL    HW229379   8.926   7.575   3.616  0.0186  0.0481 -2.4427
 6349SOL     OW29380   2.133   7.078   3.244 -0.2289  0.9051  0.1239
 6349SOL    HW129381   2.074   7.049   3.168 -2.1619 -1.0283  2.3004
 6349SOL    HW229382   2.223   7.036   3.233 -0.3277  1.0662 -1.3955
 6350SOL     OW29383   0.021   8.136   1.479 -0.3175 -0.6822  0.3672
 6350SOL    HW129384   0.020   8.231   1.446  0.8514 -0.4523  0.9890
 6350SOL    HW229385   0.053   8.076   1.405 -0.2913 -0.5023  0.2312
 6351SOL     OW29386   3.143   4.636   1.850 -0.1564  0.5102  0.6648
 6351SOL    HW129387   3.057   4.601   1.886 -0.1096 -0.1611  0.1246
 6351SOL    HW229388   3.215   4.624   1.919 -0.9272  3.0827  1.9850
 6352SOL     OW29389   3.358   6.797   2.410  0.3946  0.7697  0.6586
 6352SOL    HW129390   3.272   6.829   2.370 -0.8152 -2.1138  0.8535
 6352SOL    HW229391   3.376   6.848   2.494 -0.5805  2.1027  0.0790
 6353SOL     OW29392   9.755   2.925   1.508 -0.0840 -0.3681  0.8289
 6353SOL    HW129393   9.712   3.013   1.529 -0.6919 -0.2207 -0.9207
 6353SOL    HW229394   9.687   2.851   1.519 -0.4417 -0.2779 -0.6182
 6354SOL     OW29395   2.466   0.135   0.394 -0.3882  0.1659  0.3303
 6354SOL    HW129396   2.526   0.206   0.432  0.6651 -0.6397  0.2100
 6354SOL    HW229397   2.374   0.144   0.432 -0.1130  1.2391  0.7488
 6355SOL     OW29398   6.882   8.816   2.918 -0.2412 -0.3119 -0.1175
 6355SOL    HW129399   6.910   8.911   2.906  1.9209 -0.6440  1.8833
 6355SOL    HW229400   6.792   8.813   2.960  0.3421  0.8791  1.2464
 6356SOL     OW29401   2.913   4.836   2.945  0.0405 -0.4566 -0.2436
 6356SOL    HW129402   2.966   4.821   3.029 -1.3317 -1.5877  0.4463
 6356SOL    HW229403   2.967   4.890   2.880  1.6726 -0.8176  0.7952
 6357SOL     OW29404   1.726   6.925   2.620  0.7895 -0.5527 -0.0599
 6357SOL    HW129405   1.683   6.883   2.540  1.1372 -2.4023  0.6913
 6357SOL    HW229406   1.671   7.002   2.651  0.2913 -0.2406 -1.6631
 6358SOL     OW29407   1.049   9.315   3.350  0.0598  0.8819  0.0808
 6358SOL    HW129408   1.135   9.266   3.354  0.4761  1.4415 -1.5471
 6358SOL    HW229409   0.988   9.282   3.422  2.2335  1.6627  2.3486
 6359SOL     OW29410   1.659   9.917   3.898  0.1385 -0.9614 -0.1530
 6359SOL    HW129411   1.696   9.918   3.805  1.5270  0.7572  0.3655
 6359SOL    HW229412   1.629   9.825   3.922  0.1319 -1.4942 -2.1557
 6360SOL     OW29413   8.166   3.156   1.007  0.1095  0.1947 -0.1784
 6360SOL    HW129414   8.085   3.155   1.066  0.0225  0.1401 -0.2972
 6360SOL    HW229415   8.171   3.070   0.956  0.8096 -0.2126  0.5849
 6361SOL     OW29416   8.663   3.144   2.242 -0.0584 -0.1736 -0.3657
 6361SOL    HW129417   8.627   3.222   2.293 -0.8778 -0.1603 -0.9424
 6361SOL    HW229418   8.691   3.173   2.151  0.9604 -0.2844 -0.0874
 6362SOL     OW29419   0.175   7.548   3.851  0.5193  0.0270 -0.0875
 6362SOL    HW129420   0.164   7.450   3.862  1.8144 -0.0492  0.5244
 6362SOL    HW229421   0.233   7.584   3.924  2.2704  0.8155 -1.8336
 6363SOL     OW29422   3.312   0.286   1.343 -0.1835  0.4579 -0.6761
 6363SOL    HW129423   3.315   0.300   1.442  0.2358 -0.7288 -0.5060
 6363SOL    HW229424   3.370   0.208   1.319  1.2015  1.8793 -2.0779
 6364SOL     OW29425   1.138   2.676   3.540 -0.4932 -0.4520 -0.0459
 6364SOL    HW129426   1.210   2.715   3.597 -0.0544 -1.3434  0.0127
 6364SOL    HW229427   1.157   2.696   3.444 -0.8904  0.4829  0.0557
 6365SOL     OW29428   1.465   8.009   2.460  0.0216 -0.6169 -0.0037
 6365SOL    HW129429   1.402   7.976   2.531 -0.4439  0.9403  0.3278
 6365SOL    HW229430   1.557   7.975   2.479 -0.3387 -1.2926  0.6002
 6366SOL     OW29431   0.384   0.818   1.589  0.4745  0.1656 -0.6360
 6366SOL    HW129432   0.466   0.804   1.534  0.0431  0.7731 -1.4400
 6366SOL    HW229433   0.312   0.757   1.558  0.4755 -0.0409 -0.2339
 6367SOL     OW29434   8.212   8.944   3.469  0.2515 -0.2076 -0.2791
 6367SOL    HW129435   8.159   8.860   3.468 -0.8727  0.4831  0.3604
 6367SOL    HW229436   8.310   8.922   3.462 -0.0776 -1.5079 -0.9585
 6368SOL     OW29437   0.692   2.214   2.352  0.0827 -0.1879  0.5261
 6368SOL    HW129438   0.713   2.136   2.293 -0.4431  0.1955 -0.1881
 6368SOL    HW229439   0.764   2.283   2.344 -1.2635  1.0275 -1.7455
 6369SOL     OW29440   4.075   4.148   3.671  0.2728 -0.7182  0.1014
 6369SOL    HW129441   4.066   4.178   3.576 -0.7248 -1.8611 -0.1766
 6369SOL    HW229442   3.984   4.140   3.713  0.6990 -0.3352  1.1229
 6370SOL     OW29443   2.042   1.957   0.002  0.0447 -0.1386 -0.1589
 6370SOL    HW129444   2.012   2.052  -0.009 -1.5434 -0.6663 -0.5244
 6370SOL    HW229445   2.008   1.903  -0.075 -1.6489 -1.6026  1.5646
 6371SOL     OW29446   0.837   1.038   2.618 -0.0811  0.1984  0.2033
 6371SOL    HW129447   0.914   0.983   2.588  0.2339  0.4715  0.5057
 6371SOL    HW229448   0.775   0.982   2.673 -1.4602 -0.7246 -2.1868
 6372SOL     OW29449   0.320   3.025   2.929  0.0769  0.6275 -0.1317
 6372SOL    HW129450   0.295   3.052   3.022  0.6629  2.5911 -0.5140
 6372SOL    HW229451   0.387   3.090   2.893  0.2661 -0.4390 -1.7258
 6373SOL     OW29452   9.098   0.536   1.073  0.0169 -0.0464  0.4235
 6373SOL    HW129453   9.048   0.536   0.986 -1.4349 -0.3271  1.2448
 6373SOL    HW229454   9.188   0.578   1.059 -1.7367  3.6858 -0.3551
 6374SOL     OW29455   0.207   0.311   0.023  0.1460  0.1941 -0.1220
 6374SOL    HW129456   0.144   0.236   0.043  0.2319 -0.0305 -0.6973
 6374SOL    HW229457   0.274   0.282  -0.045 -0.9604  1.3575 -1.7431
 6375SOL     OW29458   1.049   2.089   2.882 -0.1070 -0.2004  0.5456
 6375SOL    HW129459   1.045   2.008   2.940  0.6674  0.7081  1.8757
 6375SOL    HW229460   1.140   2.130   2.888  1.0425 -1.8390 -3.7331
 6376SOL     OW29461   1.847   2.994   1.856  0.2173  0.9526 -0.1052
 6376SOL    HW129462   1.813   2.942   1.778  1.0117 -0.4287  0.4550
 6376SOL    HW229463   1.770   3.024   1.912 -0.3051  1.2755 -0.9879
 6377SOL     OW29464   0.357   3.400   3.461 -0.4452 -0.0053 -0.2972
 6377SOL    HW129465   0.304   3.462   3.404 -0.3276  0.2496 -0.1328
 6377SOL    HW229466   0.298   3.328   3.496 -0.7426  0.4142  0.0840
 6378SOL     OW29467   1.481   6.963   2.444 -0.2609  0.2238 -0.5238
 6378SOL    HW129468   1.449   7.057   2.450 -0.1382  0.4484 -2.9770
 6378SOL    HW229469   1.405   6.900   2.463 -0.2760  0.7864  1.3901
 6379SOL     OW29470   3.687   1.996   3.501  0.4870  0.4499  0.0526
 6379SOL    HW129471   3.731   1.917   3.543  0.0216 -0.4255 -1.0737
 6379SOL    HW229472   3.700   2.076   3.559 -0.2399 -0.7334  1.9070
 6380SOL     OW29473   3.476   2.924   0.423 -1.2512 -0.0608 -0.1623
 6380SOL    HW129474   3.496   2.957   0.330 -2.8346  1.8673  0.1490
 6380SOL    HW229475   3.379   2.905   0.431 -0.8913 -1.6074  0.6999
 6381SOL     OW29476   2.886   7.247   0.395  0.3681 -0.5401 -0.6322
 6381SOL    HW129477   2.940   7.324   0.362 -0.3013 -0.0800 -0.6533
 6381SOL    HW229478   2.807   7.280   0.446  1.2687 -1.2369  1.2658
 6382SOL     OW29479   1.688   7.268   1.138 -0.0637 -0.0058  0.5997
 6382SOL    HW129480   1.612   7.304   1.083 -0.6167 -2.2444 -0.1451
 6382SOL    HW229481   1.678   7.300   1.232 -1.4545  0.4228  0.3221
 6383SOL     OW29482   8.538   8.853   0.101  0.2629  0.4485 -0.0038
 6383SOL    HW129483   8.563   8.908   0.021 -0.0094  2.8382  1.4947
 6383SOL    HW229484   8.443   8.871   0.126  0.8402  1.0781  1.8653
 6384SOL     OW29485   3.483   7.481   2.031  0.8452 -0.2011 -0.1493
 6384SOL    HW129486   3.517   7.574   2.025 -0.0705  0.0251 -2.5403
 6384SOL    HW229487   3.544   7.419   1.981  0.7621 -0.6995  0.3489
 6385SOL     OW29488   9.809   2.272   2.016  0.2710  0.3700 -0.6028
 6385SOL    HW129489   9.774   2.239   1.928 -1.9114  1.4605 -0.1820
 6385SOL    HW229490   9.733   2.310   2.070  1.8214  1.0479  1.1537
 6386SOL     OW29491   1.053   4.182   2.034 -0.6508  0.1056 -0.2965
 6386SOL    HW129492   1.081   4.277   2.019 -0.7013  0.3266  0.9671
 6386SOL    HW229493   1.126   4.134   2.083 -0.0545 -0.8773 -2.0841
 6387SOL     OW29494   2.073   2.402   1.434 -0.4658 -0.0617 -0.0625
 6387SOL    HW129495   2.082   2.421   1.532  5.2353  1.0623 -0.6294
 6387SOL    HW229496   2.115   2.313   1.413 -1.8162 -0.3946 -1.5094
 6388SOL     OW29497   8.778   7.497   3.579  0.0346 -0.5485  0.7185
 6388SOL    HW129498   8.723   7.430   3.529  0.5923 -0.5962  0.1568
 6388SOL    HW229499   8.754   7.494   3.676  0.9424 -2.4741  0.9120
 6389SOL     OW29500   4.026   1.969   1.052  0.4689 -0.1762  0.3444
 6389SOL    HW129501   3.949   2.012   1.097 -0.3852  0.3040 -1.5234
 6389SOL    HW229502   4.108   2.025   1.065 -0.0596  0.6460  0.1490
 6390SOL     OW29503   4.012   1.890   1.712  0.0080  0.5102  0.3264
 6390SOL    HW129504   3.940   1.914   1.777 -1.0855 -1.9300  0.0687
 6390SOL    HW229505   4.067   1.815   1.749 -0.6790 -0.9686 -1.5783
 6391SOL     OW29506   1.977   2.145   3.203  0.5849 -0.0744  0.1598
 6391SOL    HW129507   1.902   2.187   3.254 -0.0462 -0.7509 -0.1893
 6391SOL    HW229508   2.015   2.069   3.256  0.6668 -0.0764  0.0983
 6392SOL     OW29509   3.408   8.068   0.039  0.2566  0.0017  0.1807
 6392SOL    HW129510   3.471   8.113  -0.025 -0.8818  1.4556  0.0667
 6392SOL    HW229511   3.395   8.127   0.119  0.9260 -1.3832  1.3387
 6393SOL     OW29512   3.709   9.946   0.656  0.4138  0.0831 -0.2064
 6393SOL    HW129513   3.631   9.981   0.604  0.2585 -0.7010 -0.5060
 6393SOL    HW229514   3.680   9.916   0.746  0.3923 -0.0866 -0.2697
 6394SOL     OW29515   3.685   1.841   3.073 -0.2096 -0.0281 -0.0592
 6394SOL    HW129516   3.698   1.745   3.096 -0.4707 -0.5028 -1.8288
 6394SOL    HW229517   3.673   1.851   2.974  0.3298  1.8831  0.0363
 6395SOL     OW29518   1.685   7.850   1.432  0.0632 -0.0553 -0.1340
 6395SOL    HW129519   1.627   7.788   1.484 -1.4767  0.5969 -1.0524
 6395SOL    HW229520   1.633   7.889   1.356  1.7529  0.4033 -1.0818
 6396SOL     OW29521   2.955   4.125   0.447 -0.2510 -0.7747 -0.6743
 6396SOL    HW129522   2.879   4.189   0.450  1.7632  1.7152 -0.9158
 6396SOL    HW229523   2.972   4.096   0.353 -0.3694 -0.6610 -0.7293
 6397SOL     OW29524   4.088   0.613   3.135 -0.3280  0.1256 -0.1990
 6397SOL    HW129525   4.096   0.556   3.053 -1.6363  0.0073 -0.2517
 6397SOL    HW229526   4.035   0.564   3.204  2.4379 -0.5958  1.4799
 6398SOL     OW29527   3.760   8.013   1.745 -0.1752  0.0493  0.0924
 6398SOL    HW129528   3.778   7.956   1.665 -0.6225 -0.4626  0.3586
 6398SOL    HW229529   3.802   8.103   1.732  1.7474 -0.8039  0.2987
 6399SOL     OW29530   2.887   4.652   1.099 -0.3081 -0.2275  0.2104
 6399SOL    HW129531   2.823   4.720   1.133  1.9193  3.3869 -2.4863
 6399SOL    HW229532   2.902   4.667   1.001  3.0506 -2.2963  0.3421
 6400SOL     OW29533   8.237   9.927   2.577  0.2300  0.1618 -0.2818
 6400SOL    HW129534   8.335   9.916   2.594  0.4470  1.1498 -0.8537
 6400SOL    HW229535   8.187   9.849   2.615  1.1889 -0.1095  0.4295
 6401SOL     OW29536   3.771   3.638   0.649  0.5125  0.4470  0.5046
 6401SOL    HW129537   3.740   3.568   0.714 -1.6692  0.5804 -0.3608
 6401SOL    HW229538   3.870   3.650   0.659  0.9292 -2.6727  0.7371
 6402SOL     OW29539   1.193   3.643   0.179  0.6432  0.1424 -0.3734
 6402SOL    HW129540   1.215   3.698   0.099  2.0975 -1.7724 -1.3267
 6402SOL    HW229541   1.262   3.659   0.250  1.1208 -0.4904 -0.6865
 6403SOL     OW29542   9.773   8.168   2.400 -0.6312  0.1661 -0.6119
 6403SOL    HW129543   9.804   8.098   2.335  1.3991  0.6134 -0.1813
 6403SOL    HW229544   9.771   8.257   2.355 -3.9986 -0.2521 -1.3807
 6404SOL     OW29545   0.097   9.821   3.332 -0.2018  0.5180  0.3190
 6404SOL    HW129546   0.062   9.755   3.399  0.0919  0.4313  0.3867
 6404SOL    HW229547   0.047   9.907   3.341 -1.1307  0.0578 -0.3007
 6405SOL     OW29548   3.586   9.664   2.368 -0.3278  0.2474  0.3120
 6405SOL    HW129549   3.628   9.697   2.283 -0.7049 -1.3789 -0.5203
 6405SOL    HW229550   3.487   9.676   2.363 -0.2708  1.0686  0.9503
 6406SOL     OW29551   9.720   8.529   2.699 -0.1602  0.7840  0.1613
 6406SOL    HW129552   9.650   8.557   2.764 -0.0163  0.7203  0.3440
 6406SOL    HW229553   9.772   8.453   2.737  0.0178  0.8392  0.0313
 6407SOL     OW29554   6.218   8.879   2.169  0.3832  0.1770  0.3814
 6407SOL    HW129555   6.284   8.925   2.229  0.7941  0.0291  0.0414
 6407SOL    HW229556   6.171   8.947   2.113 -2.7088  0.7669  3.4941
 6408SOL     OW29557   3.236   0.792   1.639  0.0605  0.6975  0.5191
 6408SOL    HW129558   3.224   0.852   1.719 -1.1104  0.7846  0.2912
 6408SOL    HW229559   3.181   0.827   1.563 -0.2510 -0.3918  0.2333
 6409SOL     OW29560   2.858   5.075   1.945  0.1064  0.2601 -0.0855
 6409SOL    HW129561   2.836   5.108   1.853  0.6311  0.2931 -0.2028
 6409SOL    HW229562   2.835   4.978   1.952  0.3643  0.1747 -0.3582
 6410SOL     OW29563   2.087   8.806   2.918  0.0333  0.4533 -0.0704
 6410SOL    HW129564   2.099   8.801   2.819 -1.5413 -0.9482 -0.2209
 6410SOL    HW229565   2.076   8.714   2.955 -2.5230  1.1215  0.9699
 6411SOL     OW29566   7.015   0.527   2.564 -0.0623  1.0296  0.0459
 6411SOL    HW129567   7.077   0.497   2.637 -1.2440 -1.7808 -0.0890
 6411SOL    HW229568   7.042   0.484   2.478 -2.1443 -0.1457 -0.0298
 6412SOL     OW29569   8.591   1.410   2.283 -0.1886  0.3993 -0.1242
 6412SOL    HW129570   8.567   1.339   2.217  2.8712 -1.0917  0.2535
 6412SOL    HW229571   8.557   1.498   2.252  0.4191 -0.4074 -3.2652
 6413SOL     OW29572   1.851   0.516   1.222 -0.1188  0.0930 -0.0729
 6413SOL    HW129573   1.906   0.551   1.145 -0.5375  1.4750  0.2342
 6413SOL    HW229574   1.831   0.419   1.208  1.0163 -0.0167 -1.0006
 6414SOL     OW29575   3.249   1.380   3.183  0.2599 -0.3102 -0.5266
 6414SOL    HW129576   3.344   1.380   3.215  0.4613 -2.2411 -1.0486
 6414SOL    HW229577   3.198   1.452   3.230  0.8974 -2.0868  3.0731
 6415SOL     OW29578   2.065   0.183   2.369  0.5541 -0.0281  0.2767
 6415SOL    HW129579   2.116   0.097   2.356  1.4296  0.2663  1.6560
 6415SOL    HW229580   2.067   0.208   2.466  0.0185  1.3772 -0.0743
 6416SOL     OW29581   2.684   5.832   0.720 -0.2775  0.4500 -0.1112
 6416SOL    HW129582   2.748   5.778   0.666  0.2165  1.1048 -0.1782
 6416SOL    HW229583   2.591   5.796   0.707  0.1324 -0.8167  0.3942
 6417SOL     OW29584   7.685   0.663   2.687  0.2892  0.0113 -0.2273
 6417SOL    HW129585   7.594   0.648   2.648  0.1759  0.7938 -0.2715
 6417SOL    HW229586   7.735   0.576   2.688  0.9142  0.2541 -3.7160
 6418SOL     OW29587   7.779   9.153   0.754  0.3928  0.2293  0.1758
 6418SOL    HW129588   7.790   9.077   0.817  0.4016 -0.5079 -0.7004
 6418SOL    HW229589   7.824   9.131   0.667 -0.1506  0.9693 -0.2973
 6419SOL     OW29590   1.792   5.547   3.576 -0.2285 -0.5791  0.5985
 6419SOL    HW129591   1.873   5.503   3.535  0.1657  0.1906  0.5440
 6419SOL    HW229592   1.819   5.592   3.661 -0.7590 -0.9643  0.9675
 6420SOL     OW29593   8.915   0.299   2.281  0.1755 -0.2839  0.0417
 6420SOL    HW129594   8.979   0.376   2.275  1.0702 -1.0289 -0.0187
 6420SOL    HW229595   8.868   0.288   2.194  1.1049 -0.7139 -0.4105
 6421SOL     OW29596   2.075   0.844   2.574  0.1657  0.3561  0.4805
 6421SOL    HW129597   2.173   0.855   2.591  1.1846 -4.2247 -1.6812
 6421SOL    HW229598   2.033   0.800   2.654  0.6018 -0.9083  0.0276
 6422SOL     OW29599   1.782   4.460   1.540 -0.3642 -0.3921 -0.2024
 6422SOL    HW129600   1.833   4.457   1.454 -0.0812 -0.2459 -0.0410
 6422SOL    HW229601   1.685   4.443   1.522 -0.1610 -1.3251 -0.4291
 6423SOL     OW29602   9.871   2.918   3.195 -0.1141 -0.7964  0.1355
 6423SOL    HW129603   9.848   2.979   3.270  1.0030  1.0911 -1.0197
 6423SOL    HW229604   9.825   2.949   3.112  1.0467 -1.1049 -0.6316
 6424SOL     OW29605   3.376   7.608   0.417  0.0153  0.3729  0.0250
 6424SOL    HW129606   3.456   7.619   0.476 -0.7909  1.1936  0.9958
 6424SOL    HW229607   3.405   7.598   0.322  1.1919  2.5837  0.1361
 6425SOL     OW29608   2.490   6.655   0.219 -0.2594  0.4307  0.6101
 6425SOL    HW129609   2.534   6.596   0.286  0.5114 -1.5497 -1.5390
 6425SOL    HW229610   2.495   6.750   0.249  2.6492 -0.0965  1.9724
 6426SOL     OW29611   3.232   4.476   2.558  0.6073  0.2078 -0.4774
 6426SOL    HW129612   3.320   4.484   2.511 -0.2711  2.2985 -1.8563
 6426SOL    HW229613   3.228   4.543   2.633 -0.4315  1.3372 -1.5069
 6427SOL     OW29614   7.846   8.911   2.261 -0.2117  0.0231  0.2535
 6427SOL    HW129615   7.835   8.904   2.360 -3.2195 -0.4847 -0.0478
 6427SOL    HW229616   7.912   8.844   2.229 -0.5920 -1.0674  1.7305
 6428SOL     OW29617   3.334   2.727   1.280 -0.3270  0.6609 -0.3873
 6428SOL    HW129618   3.293   2.680   1.359 -2.0298  1.1677 -0.9548
 6428SOL    HW229619   3.405   2.790   1.312 -1.3060  1.1846  0.7999
 6429SOL     OW29620   5.329   0.089   2.906 -0.1737  0.2514  0.6760
 6429SOL    HW129621   5.393   0.098   2.983  1.7594  0.2891 -0.8948
 6429SOL    HW229622   5.373   0.122   2.822 -1.5921 -1.4724 -0.7913
 6430SOL     OW29623   2.836   7.943   0.178  0.1615 -0.2559 -0.2414
 6430SOL    HW129624   2.755   7.945   0.238  0.8966 -0.1346  0.7677
 6430SOL    HW229625   2.833   7.860   0.122 -0.2427 -0.6955  0.4093
 6431SOL     OW29626   2.355   7.065   2.413  0.1730  0.2618  0.4890
 6431SOL    HW129627   2.324   7.046   2.507  2.3221 -2.5282  0.7103
 6431SOL    HW229628   2.450   7.093   2.414  1.0366 -2.3751 -0.9901
 6432SOL     OW29629   9.957   0.805   0.694  0.3669  0.0673  0.0986
 6432SOL    HW129630   9.880   0.811   0.757 -0.1664 -0.6609 -0.4754
 6432SOL    HW229631   9.950   0.877   0.625  0.9745  0.8916  0.8821
 6433SOL     OW29632   1.465   7.037   0.340 -0.5921 -0.2712  0.1768
 6433SOL    HW129633   1.384   7.014   0.285  0.0917 -2.2669 -0.0430
 6433SOL    HW229634   1.503   7.124   0.309 -1.9564  0.0928 -0.5153
 6434SOL     OW29635   4.259   0.030   1.389  0.0994 -0.1816 -0.0338
 6434SOL    HW129636   4.225   0.066   1.302 -0.2665  1.8541  0.9263
 6434SOL    HW229637   4.182   0.012   1.450  0.4036 -0.8361  0.1571
 6435SOL     OW29638   4.312   1.407   2.106 -0.5601  0.0666  0.3898
 6435SOL    HW129639   4.218   1.440   2.109 -0.6072  0.1122 -1.1673
 6435SOL    HW229640   4.317   1.316   2.147 -1.0891  0.4874  1.4020
 6436SOL     OW29641   3.884   7.385   2.879 -0.3338  0.1726  0.2132
 6436SOL    HW129642   3.904   7.328   2.799  0.9918  2.2703 -0.9798
 6436SOL    HW229643   3.945   7.360   2.954 -0.3148 -0.5228 -0.0257
 6437SOL     OW29644   9.575   1.519   3.849 -0.1803 -0.1131 -0.5606
 6437SOL    HW129645   9.490   1.561   3.880 -0.4294 -1.6430  0.8916
 6437SOL    HW229646   9.652   1.554   3.903  0.3123  2.1033 -2.6025
 6438SOL     OW29647   8.969   6.904   0.234  0.4680  0.2744  0.1064
 6438SOL    HW129648   9.044   6.959   0.271  0.3547  0.5178 -0.0298
 6438SOL    HW229649   9.004   6.814   0.206  0.7951  0.5512 -0.3812
 6439SOL     OW29650   2.484   6.131   1.651  0.5272  0.1269 -0.2056
 6439SOL    HW129651   2.545   6.206   1.629 -2.1765  3.2035  2.2910
 6439SOL    HW229652   2.505   6.097   1.743 -1.8324  1.6673  0.9585
 6440SOL     OW29653   1.528   5.005   0.308 -0.0254 -0.6686 -0.0182
 6440SOL    HW129654   1.485   5.003   0.398  0.0101 -0.7228 -0.0026
 6440SOL    HW229655   1.579   5.090   0.297  0.5279 -0.9638  0.2708
 6441SOL     OW29656   3.505   9.216   1.846  0.0031 -0.3560  0.0520
 6441SOL    HW129657   3.420   9.263   1.869  0.5344  0.8808 -0.4885
 6441SOL    HW229658   3.547   9.179   1.929 -0.5294 -0.0560  0.4557
 6442SOL     OW29659   9.204   1.870   1.906  0.1732  0.1015 -0.2587
 6442SOL    HW129660   9.158   1.831   1.986 -1.2248 -0.3193 -1.2484
 6442SOL    HW229661   9.214   1.969   1.918  1.7674 -0.2138  1.2945
 6443SOL     OW29662   2.300   7.116   1.092  0.1418  0.3349 -0.1423
 6443SOL    HW129663   2.281   7.041   1.029 -0.7198  1.8797 -1.7701
 6443SOL    HW229664   2.218   7.135   1.147 -0.1574  1.1417 -0.8672
 6444SOL     OW29665   7.615   1.923   2.611 -0.4824 -0.1822 -0.1366
 6444SOL    HW129666   7.656   2.013   2.603 -0.5015 -0.1200  0.4622
 6444SOL    HW229667   7.572   1.898   2.524 -1.8846  1.0686  0.1735
 6445SOL     OW29668   1.890   7.594   2.736  0.1404 -0.5333  0.3348
 6445SOL    HW129669   1.857   7.563   2.647  0.7606 -2.2643  0.6919
 6445SOL    HW229670   1.963   7.533   2.768 -0.4395 -0.2490  2.2685
 6446SOL     OW29671   3.647   0.446   1.662 -0.4321 -0.1698  0.0866
 6446SOL    HW129672   3.559   0.491   1.650 -0.2897 -0.3001 -1.5831
 6446SOL    HW229673   3.661   0.379   1.588  0.2419 -1.4975  1.3869
 6447SOL     OW29674   8.192   1.296   3.894 -0.0056  0.1665 -0.4271
 6447SOL    HW129675   8.230   1.236   3.964 -0.3711  0.4699  0.0391
 6447SOL    HW229676   8.255   1.371   3.875 -0.2529  0.5231  0.1532
 6448SOL     OW29677   2.713   8.072   0.802  0.1083  0.3405  0.1624
 6448SOL    HW129678   2.802   8.073   0.757  0.2776 -0.0346  0.4818
 6448SOL    HW229679   2.651   8.136   0.756  1.1871  2.2136  1.2441
 6449SOL     OW29680   3.472   0.694   2.381 -0.7269  0.2310 -0.0133
 6449SOL    HW129681   3.410   0.761   2.420 -1.1390 -0.3966  0.4011
 6449SOL    HW229682   3.469   0.609   2.434  1.9909  0.8762  1.2469
 6450SOL     OW29683   7.800   8.872   0.296  0.2886 -0.0775 -0.3469
 6450SOL    HW129684   7.708   8.899   0.265  0.2338  1.3651  1.0168
 6450SOL    HW229685   7.804   8.772   0.303 -1.9291 -0.0963  1.7261
 6451SOL     OW29686   7.335   1.328   1.788  0.1401 -0.3436 -0.5218
 6451SOL    HW129687   7.433   1.350   1.791 -0.0079  0.6913 -2.1601
 6451SOL    HW229688   7.320   1.252   1.725  0.0544 -1.6104  1.0031
 6452SOL     OW29689   2.360   4.070   0.918  0.2609 -0.4637 -0.1671
 6452SOL    HW129690   2.262   4.087   0.917  0.1300 -1.2099 -0.2010
 6452SOL    HW229691   2.407   4.146   0.964 -0.2735  0.1572 -0.6432
 6453SOL     OW29692   0.522   2.439   2.094 -0.3322 -0.6437 -0.5895
 6453SOL    HW129693   0.517   2.454   2.192  1.9393  0.5249 -0.6211
 6453SOL    HW229694   0.446   2.381   2.065 -1.9645  0.3392  1.5811
 6454SOL     OW29695   3.526   6.360   3.094 -0.4871  0.1084  0.2068
 6454SOL    HW129696   3.550   6.442   3.043 -1.0079 -0.1134 -0.3992
 6454SOL    HW229697   3.495   6.385   3.186 -1.2151  0.6295 -0.1807
 6455SOL     OW29698   8.397   2.550   2.611 -0.0943  0.4640 -0.2204
 6455SOL    HW129699   8.423   2.641   2.644 -0.1000  0.3430  0.1082
 6455SOL    HW229700   8.407   2.548   2.511 -2.4222  1.5737 -0.5026
 6456SOL     OW29701   2.261   6.347   3.581  0.0996 -0.7102  0.3107
 6456SOL    HW129702   2.339   6.322   3.640  0.6304  0.3504  0.0673
 6456SOL    HW229703   2.285   6.331   3.486  0.1422 -0.0577  0.2114
 6457SOL     OW29704   6.380   0.188   3.256 -0.5020  0.0474 -0.0803
 6457SOL    HW129705   6.327   0.103   3.259  0.3032 -0.4381  0.1845
 6457SOL    HW229706   6.382   0.230   3.346  1.8461 -1.3222  0.5238
 6458SOL     OW29707   8.120   9.900   1.770 -0.2831 -0.5202  0.3790
 6458SOL    HW129708   8.095   9.929   1.862  0.6285 -1.0798  0.8040
 6458SOL    HW229709   8.038   9.868   1.722 -0.4607 -2.0302  1.6490
 6459SOL     OW29710   2.801   5.917   0.262  0.4899 -0.0188  0.3274
 6459SOL    HW129711   2.805   5.876   0.171  0.3765 -0.0738  0.3466
 6459SOL    HW229712   2.720   5.882   0.310 -1.0763  2.2153 -0.6253
 6460SOL     OW29713   2.639   6.080   3.711 -0.5477  0.4128 -0.8263
 6460SOL    HW129714   2.634   5.980   3.719  0.6320  0.3510 -0.8487
 6460SOL    HW229715   2.604   6.107   3.621  0.5615 -0.1156 -1.4346
 6461SOL     OW29716   1.137   1.176   1.701  0.2298  0.5962 -0.4010
 6461SOL    HW129717   1.055   1.128   1.669 -0.3685  0.2393  1.6090
 6461SOL    HW229718   1.150   1.259   1.647 -1.3176  0.5382 -0.8925
 6462SOL     OW29719   0.096   0.900   0.296  0.4167 -0.6459  0.2022
 6462SOL    HW129720   0.163   0.827   0.310 -0.0656 -1.5708 -2.2067
 6462SOL    HW229721   0.108   0.940   0.206 -2.3182 -0.8917 -0.3152
 6463SOL     OW29722   2.623   4.702   3.507 -0.1495 -1.0191  0.2731
 6463SOL    HW129723   2.580   4.657   3.429 -0.1095  0.2624 -0.5108
 6463SOL    HW229724   2.564   4.693   3.587 -1.3626 -0.2850 -0.5039
 6464SOL     OW29725   7.488   1.789   0.387 -0.1909 -0.2019 -0.1427
 6464SOL    HW129726   7.403   1.740   0.409 -0.4574  0.6536  0.8039
 6464SOL    HW229727   7.528   1.751   0.304 -0.0396 -2.4636  0.9285
 6465SOL     OW29728   2.106   7.032   0.485 -0.1692  0.1890  0.0083
 6465SOL    HW129729   2.018   7.001   0.519 -1.0611  1.0661 -1.4661
 6465SOL    HW229730   2.114   7.011   0.387  1.3724 -0.1360  0.1838
 6466SOL     OW29731   2.663   0.228   0.983  0.1178  0.6644 -0.4566
 6466SOL    HW129732   2.589   0.184   0.932  0.0398 -0.6322  0.7466
 6466SOL    HW229733   2.625   0.295   1.046 -0.2443 -1.4273  1.6163
 6467SOL     OW29734   8.966   2.590   3.249  0.1154 -0.5119  0.0091
 6467SOL    HW129735   8.899   2.553   3.185  1.1834 -0.5688 -1.0800
 6467SOL    HW229736   8.956   2.689   3.255 -0.6865 -0.6264  0.5621
 6468SOL     OW29737   0.617   7.630   2.281  0.0737 -0.9155  0.1213
 6468SOL    HW129738   0.678   7.701   2.246  0.4705  0.1197  2.7986
 6468SOL    HW229739   0.525   7.667   2.291 -0.2940 -1.5431 -0.9149
 6469SOL     OW29740   2.490   4.409   1.448 -0.3479 -0.1786 -0.2241
 6469SOL    HW129741   2.448   4.364   1.526 -0.8932  1.1121  0.2534
 6469SOL    HW229742   2.421   4.466   1.401  0.1527 -0.3555 -1.1949
 6470SOL     OW29743   1.074   1.495   2.955 -0.5213 -0.6716  0.0556
 6470SOL    HW129744   1.015   1.574   2.936  0.1737 -0.3124 -0.6077
 6470SOL    HW229745   1.131   1.514   3.035  1.0690  0.2939 -1.2747
 6471SOL     OW29746   4.422   9.458   3.789  0.2592  0.3466  0.4459
 6471SOL    HW129747   4.391   9.365   3.768  0.1662 -0.0254  2.1538
 6471SOL    HW229748   4.347   9.523   3.772  0.3471  0.1317 -0.8159
 6472SOL     OW29749   8.207   1.192   1.373  0.6456 -0.0688 -0.1424
 6472SOL    HW129750   8.224   1.271   1.315  1.6243 -0.0813  0.1245
 6472SOL    HW229751   8.137   1.134   1.330 -0.1668  0.9920 -0.2782
 6473SOL     OW29752   9.719   8.496   1.614  0.3139  0.3611 -0.5904
 6473SOL    HW129753   9.631   8.485   1.660  0.0565  0.6894 -0.9979
 6473SOL    HW229754   9.724   8.587   1.573  0.2128 -0.1889 -1.8721
 6474SOL     OW29755   9.513   3.123   3.372 -0.1732  0.2241  0.2895
 6474SOL    HW129756   9.416   3.123   3.347 -0.2950 -0.8975  0.7710
 6474SOL    HW229757   9.524   3.153   3.466 -0.1472 -0.7352  0.5956
 6475SOL     OW29758   4.524   0.478   1.829  0.3641  0.3236  0.2477
 6475SOL    HW129759   4.560   0.561   1.872 -0.5702  2.0418 -2.1412
 6475SOL    HW229760   4.563   0.469   1.737 -0.1686 -1.4666  0.1759
 6476SOL     OW29761   0.498   9.574   1.935  0.6742 -0.4194 -0.1839
 6476SOL    HW129762   0.427   9.506   1.953  0.3621  0.0400  0.3482
 6476SOL    HW229763   0.542   9.600   2.021  0.3389  0.5411 -0.2981
 6477SOL     OW29764   7.894   0.519   0.967  0.3604  0.1110 -0.1748
 6477SOL    HW129765   7.875   0.538   0.870 -0.4979 -1.2796 -0.2936
 6477SOL    HW229766   7.860   0.594   1.023  1.3791  1.2056 -0.9816
 6478SOL     OW29767   2.381   6.963   2.864  0.3682 -0.3874 -0.3186
 6478SOL    HW129768   2.318   6.891   2.896 -0.1231  0.8869  1.6766
 6478SOL    HW229769   2.328   7.043   2.836  1.0790  0.6869  1.3455
 6479SOL     OW29770   0.400   0.697   0.308  0.1418 -0.3022  0.1965
 6479SOL    HW129771   0.420   0.610   0.354 -2.1307  0.3313  2.4963
 6479SOL    HW229772   0.393   0.770   0.376 -0.9568  1.1372 -1.4260
 6480SOL     OW29773   3.811   2.173   0.374  0.3683  0.5951  0.7729
 6480SOL    HW129774   3.742   2.191   0.304 -0.6929  0.0080  1.6490
 6480SOL    HW229775   3.836   2.258   0.420 -0.0392  0.7588  0.6934
 6481SOL     OW29776   2.685   5.130   2.580  0.3548  0.0677 -0.5684
 6481SOL    HW129777   2.721   5.042   2.548  0.2819 -0.7736  1.5562
 6481SOL    HW229778   2.677   5.193   2.503 -1.0631 -2.2804 -2.4033
 6482SOL     OW29779   8.497   5.253   0.605 -0.3313  0.2333  0.2612
 6482SOL    HW129780   8.415   5.200   0.624 -0.8577  1.0217  0.2100
 6482SOL    HW229781   8.563   5.196   0.556 -0.7776 -0.4483  0.4458
 6483SOL     OW29782   8.774   9.669   3.052 -0.4004 -0.7096 -0.0282
 6483SOL    HW129783   8.860   9.683   3.003 -0.4926 -1.2602 -0.3499
 6483SOL    HW229784   8.758   9.746   3.114  0.1444 -0.4305 -0.2311
 6484SOL     OW29785   8.676   9.860   0.930  0.2271  0.5370 -0.4457
 6484SOL    HW129786   8.585   9.866   0.971  0.5196  1.8371  0.0382
 6484SOL    HW229787   8.689   9.769   0.890 -0.9943  0.0948  0.1481
 6485SOL     OW29788   4.794   1.356   2.221  0.0547  0.4783  0.6500
 6485SOL    HW129789   4.757   1.422   2.287 -3.3052 -0.4574 -0.2153
 6485SOL    HW229790   4.757   1.265   2.240 -1.3200  0.2630 -2.7476
 6486SOL     OW29791   1.117   3.666   2.831 -0.3012 -0.3958  0.6749
 6486SOL    HW129792   1.083   3.583   2.876  1.1174 -0.1494  2.2591
 6486SOL    HW229793   1.215   3.657   2.816  0.0520  1.4094  1.7890
 6487SOL     OW29794   2.896   7.106   1.325 -0.2163  0.0018  0.1640
 6487SOL    HW129795   2.930   7.165   1.398 -0.2198  0.0314  0.1418
 6487SOL    HW229796   2.954   7.025   1.319  0.8906  0.8626 -1.0093
 6488SOL     OW29797   2.757   9.032   3.558 -0.2290  0.4822  0.4168
 6488SOL    HW129798   2.801   9.019   3.647 -0.5747 -3.5055  0.0917
 6488SOL    HW229799   2.672   8.979   3.555  0.5525 -0.7281 -2.7683
 6489SOL     OW29800   2.423   4.164   3.960  0.2321  0.1751  0.9496
 6489SOL    HW129801   2.439   4.069   3.933 -0.0429  0.2933  0.3730
 6489SOL    HW229802   2.346   4.168   4.024 -0.6104  0.1518 -0.0502
 6490SOL     OW29803   2.673   9.847   1.109 -0.1771 -0.5425  0.3636
 6490SOL    HW129804   2.607   9.780   1.077 -0.1084 -0.7971  0.7597
 6490SOL    HW229805   2.639   9.890   1.193 -0.1748 -0.1537  0.1695
 6491SOL     OW29806   7.905   2.668   0.075 -0.1247 -0.5702 -0.3107
 6491SOL    HW129807   7.934   2.592   0.133  0.0361 -0.0876  0.2461
 6491SOL    HW229808   7.864   2.632  -0.009 -0.1825 -1.2709  0.0132
 6492SOL     OW29809   3.556   9.416   2.863 -0.2456  0.1097 -0.5192
 6492SOL    HW129810   3.489   9.403   2.789  0.2109  0.0432 -0.9213
 6492SOL    HW229811   3.508   9.416   2.951 -0.9489  1.3486 -0.8840
 6493SOL     OW29812   1.601   1.344   2.057  0.2738 -0.1204 -0.3180
 6493SOL    HW129813   1.508   1.315   2.034  0.8802 -2.7206  0.2934
 6493SOL    HW229814   1.599   1.398   2.140 -0.7854  0.5875 -0.7889
 6494SOL     OW29815   3.212   4.976   2.429 -0.4495  0.0987 -0.1405
 6494SOL    HW129816   3.205   5.064   2.382  0.0197 -0.8492 -2.0279
 6494SOL    HW229817   3.308   4.953   2.444 -0.6037  0.7722  2.0658
 6495SOL     OW29818   1.534   8.325   3.240 -0.2893 -0.3337  0.3636
 6495SOL    HW129819   1.557   8.251   3.177 -0.0290 -0.2680  0.3814
 6495SOL    HW229820   1.586   8.314   3.325  0.1312  0.1456  0.1768
 6496SOL     OW29821   9.538   0.149   2.909  0.8114 -0.5287 -0.9404
 6496SOL    HW129822   9.454   0.196   2.883  0.7269 -0.3348 -0.3269
 6496SOL    HW229823   9.567   0.089   2.835  0.1759 -0.5393 -1.1847
 6497SOL     OW29824   3.955   8.329   3.658  0.1139  0.4444 -0.5707
 6497SOL    HW129825   3.899   8.396   3.707  0.2141  1.5647 -1.9798
 6497SOL    HW229826   4.050   8.337   3.688 -0.2087 -0.5233  0.8035
 6498SOL     OW29827   1.318   0.604   3.933 -0.1211  0.1499 -0.2459
 6498SOL    HW129828   1.279   0.512   3.934 -0.5370  0.3164  1.8024
 6498SOL    HW229829   1.251   0.668   3.971  0.3699  1.2172 -1.1635
 6499SOL     OW29830   1.760   0.290   3.997 -0.8038 -0.0635 -0.0357
 6499SOL    HW129831   1.662   0.294   3.978 -0.9571 -0.5521  0.6126
 6499SOL    HW229832   1.777   0.329   4.088 -0.3114  0.6421 -0.4277
 6500SOL     OW29833   2.474   3.962   2.361 -0.8059  0.0656  0.6042
 6500SOL    HW129834   2.437   4.013   2.284 -0.7442  0.7266  1.0135
 6500SOL    HW229835   2.536   4.020   2.413 -2.5345  0.3055  2.4380
 6501SOL     OW29836   6.271   8.773   3.296  0.4882  0.0621  0.0625
 6501SOL    HW129837   6.339   8.730   3.237  0.2906 -0.0027 -0.1215
 6501SOL    HW229838   6.283   8.873   3.294 -1.9061  0.4157 -3.1478
 6502SOL     OW29839   0.087   0.021   1.541 -0.3383 -0.2604 -0.4217
 6502SOL    HW129840   0.049   0.105   1.502  1.6594  0.1174 -1.5997
 6502SOL    HW229841   0.050  -0.058   1.492  1.3913  0.1657 -2.4994
 6503SOL     OW29842   8.684   2.244   3.124 -0.6521 -0.8051  0.1273
 6503SOL    HW129843   8.700   2.153   3.086  1.0798 -1.4263  2.2446
 6503SOL    HW229844   8.675   2.238   3.224  0.6687  1.4685  0.4373
 6504SOL     OW29845   1.733   4.376   2.616 -0.0313  0.9227 -0.2376
 6504SOL    HW129846   1.701   4.340   2.529 -0.3259  0.7150 -0.0431
 6504SOL    HW229847   1.706   4.314   2.690  0.5794  0.8855 -0.0451
 6505SOL     OW29848   2.654   8.443   0.380 -0.2690  0.3297 -0.2614
 6505SOL    HW129849   2.558   8.451   0.353 -0.6051  1.7108  1.2750
 6505SOL    HW229850   2.706   8.517   0.338  0.0788 -0.2269 -0.8242
 6506SOL     OW29851   2.544   9.288   2.639 -0.2217  0.5370 -0.3534
 6506SOL    HW129852   2.512   9.203   2.680 -0.1665 -0.1071 -1.6053
 6506SOL    HW229853   2.643   9.295   2.651 -0.3113  0.7042  0.2627
 6507SOL     OW29854   1.517   5.592   0.931 -1.2382 -0.2765 -0.2504
 6507SOL    HW129855   1.607   5.612   0.892 -0.6989 -3.6712 -0.8741
 6507SOL    HW229856   1.447   5.645   0.883  0.0918  0.1574 -1.7316
 6508SOL     OW29857   5.781   9.411   3.686 -0.4893 -0.6521  0.2101
 6508SOL    HW129858   5.761   9.419   3.783 -0.0212 -0.7313  0.3135
 6508SOL    HW229859   5.865   9.359   3.673  1.4840  2.4467 -0.0719
 6509SOL     OW29860   5.097   3.408   0.894  0.3281  0.2226 -0.5406
 6509SOL    HW129861   5.127   3.332   0.952  0.3241 -1.0822 -2.1902
 6509SOL    HW229862   5.176   3.448   0.848  0.3107  1.1307  0.2120
 6510SOL     OW29863   4.537   9.672   0.488  0.2135 -0.0336 -0.2099
 6510SOL    HW129864   4.626   9.629   0.474  0.5189 -0.2812  2.2476
 6510SOL    HW229865   4.464   9.605   0.476  0.5328 -0.5553  0.7048
 6511SOL     OW29866   5.018   9.366   1.902  0.0464  0.8105  0.0022
 6511SOL    HW129867   5.007   9.360   2.001 -0.2970 -0.8799 -0.1301
 6511SOL    HW229868   4.963   9.442   1.866 -1.8164 -0.1580  0.7869
 6512SOL     OW29869   2.385   8.919   0.728 -0.0428 -0.4874  0.3169
 6512SOL    HW129870   2.322   8.846   0.756  0.9392 -1.3093  0.4229
 6512SOL    HW229871   2.471   8.878   0.697 -0.4830  0.5038 -2.2998
 6513SOL     OW29872   1.938   0.870   1.533 -0.8821  0.1720 -0.6855
 6513SOL    HW129873   1.860   0.873   1.595  1.1354  1.4266  1.9407
 6513SOL    HW229874   1.953   0.776   1.502 -0.6215 -0.9157  2.5635
 6514SOL     OW29875   2.995   0.354   1.102 -0.1607  0.3492  0.0582
 6514SOL    HW129876   3.073   0.350   1.040 -2.1693  0.9592 -2.6018
 6514SOL    HW229877   2.953   0.264   1.108 -0.5944  0.5263 -0.3056
 6515SOL     OW29878   7.912   3.273   3.900  0.5187  0.9140 -0.1263
 6515SOL    HW129879   7.919   3.179   3.867 -0.1208  0.8711 -0.1463
 6515SOL    HW229880   7.870   3.275   3.991 -1.0822  1.2934 -0.8496
 6516SOL     OW29881   4.174   7.303   4.002 -0.3330 -0.5334  0.1818
 6516SOL    HW129882   4.105   7.254   3.949  0.5788 -1.4561 -0.1688
 6516SOL    HW229883   4.206   7.382   3.950 -1.6168  0.3202  0.6410
 6517SOL     OW29884   9.649   3.725   3.525  0.2967 -0.9277  0.0863
 6517SOL    HW129885   9.738   3.742   3.568 -0.1941  1.4504  0.2453
 6517SOL    HW229886   9.577   3.740   3.592 -0.4149  1.5778 -1.1598
 6518SOL     OW29887   2.998   1.929   1.737 -0.3985  0.2743  0.0886
 6518SOL    HW129888   3.090   1.897   1.715 -0.6204 -0.1873 -0.1816
 6518SOL    HW229889   2.938   1.910   1.659 -1.1926 -1.3330  1.0772
 6519SOL     OW29890   2.460   9.777   2.421 -0.1355  0.1279 -0.2257
 6519SOL    HW129891   2.525   9.816   2.486  1.1865 -3.8236  1.0069
 6519SOL    HW229892   2.377   9.749   2.470  0.1927 -1.3550 -0.4899
 6520SOL     OW29893   0.623   2.035   3.301 -0.2892  0.4706  0.1554
 6520SOL    HW129894   0.625   2.130   3.268  0.3491  0.6627  0.7455
 6520SOL    HW229895   0.694   2.022   3.369 -1.0703 -0.1581  0.8597
 6521SOL     OW29896   0.706   0.767   1.260  0.1284  0.4586 -0.7144
 6521SOL    HW129897   0.713   0.845   1.323  1.7608 -0.1319 -0.1589
 6521SOL    HW229898   0.716   0.800   1.166  1.4360  0.8517 -0.4483
 6522SOL     OW29899   3.182   2.915   1.095  0.2840  0.3216 -0.6873
 6522SOL    HW129900   3.163   2.854   1.018 -1.8198 -0.5504  0.4845
 6522SOL    HW229901   3.223   2.862   1.170 -0.5931  0.5449 -0.0442
 6523SOL     OW29902   7.700   2.647   1.407 -0.2925  0.3030  0.0348
 6523SOL    HW129903   7.745   2.683   1.488  1.1874 -0.6700 -0.3532
 6523SOL    HW229904   7.765   2.595   1.352 -1.6867 -0.4691 -0.9232
 6524SOL     OW29905   3.256   8.130   0.271 -0.1522  0.1671  0.0364
 6524SOL    HW129906   3.231   8.034   0.259 -0.0533  0.0807  0.4973
 6524SOL    HW229907   3.301   8.141   0.359  0.9786  0.4108 -0.5643
 6525SOL     OW29908   9.245   3.124   3.295 -0.0341 -0.4788  0.0448
 6525SOL    HW129909   9.198   3.201   3.252  2.4179  0.7255 -0.5642
 6525SOL    HW229910   9.201   3.103   3.382 -1.5185  0.8016 -0.3724
 6526SOL     OW29911   8.047   0.816   3.263 -0.2748  0.1837  0.4249
 6526SOL    HW129912   8.060   0.731   3.314 -0.4660 -0.6570 -0.9059
 6526SOL    HW229913   8.136   0.848   3.228 -0.3736 -0.1386 -0.1244
 6527SOL     OW29914   9.566   9.019   0.329 -0.0383  0.3524 -0.1699
 6527SOL    HW129915   9.599   8.925   0.332  1.5134  0.8329 -1.6976
 6527SOL    HW229916   9.481   9.023   0.276 -0.7978 -0.3722  0.9819
 6528SOL     OW29917   8.314   0.831   1.141  0.1593 -0.2488 -0.2534
 6528SOL    HW129918   8.367   0.905   1.099  0.8372 -1.2565 -1.2188
 6528SOL    HW229919   8.217   0.847   1.127  0.3298  0.1196 -1.0591
 6529SOL     OW29920   3.331   6.891   3.657 -0.0712 -0.1765 -0.1415
 6529SOL    HW129921   3.324   6.893   3.557 -1.2344 -2.0245 -0.1339
 6529SOL    HW229922   3.413   6.940   3.686  1.3471 -1.2718 -2.1448
 6530SOL     OW29923   1.831   6.772   3.404 -0.0953 -0.1320  0.6255
 6530SOL    HW129924   1.746   6.780   3.351  0.9078 -0.4409 -1.0438
 6530SOL    HW229925   1.833   6.843   3.474 -1.9297 -0.3806  0.9746
 6531SOL     OW29926   3.587   4.009   2.747  0.7417 -0.5924  0.1668
 6531SOL    HW129927   3.520   3.946   2.706  0.6687 -0.1086 -0.4751
 6531SOL    HW229928   3.560   4.030   2.841 -0.8964  0.8455 -0.5998
 6532SOL     OW29929   7.533   3.163   0.612  0.3335 -0.2087 -0.1642
 6532SOL    HW129930   7.495   3.133   0.525 -0.6850 -1.3864  0.6761
 6532SOL    HW229931   7.460   3.199   0.670  1.1755  1.6530 -0.2220
 6533SOL     OW29932   1.460   3.293   2.770 -0.5726 -0.4628 -0.3716
 6533SOL    HW129933   1.442   3.389   2.752 -1.3880 -0.4332  0.5971
 6533SOL    HW229934   1.407   3.262   2.848  1.9451 -0.9339  1.2274
 6534SOL     OW29935   0.804   8.462   0.524  0.0423 -0.4754  0.3368
 6534SOL    HW129936   0.735   8.495   0.588 -0.0985  1.6913 -0.8875
 6534SOL    HW229937   0.770   8.379   0.478 -0.7921 -0.7167  1.3632
 6535SOL     OW29938   2.594   9.229   2.099 -0.4147  0.0140 -0.1795
 6535SOL    HW129939   2.631   9.267   2.184 -0.5883  1.3132 -0.6681
 6535SOL    HW229940   2.663   9.171   2.056  1.1436  2.4750 -1.1128
 6536SOL     OW29941   4.868   9.538   1.746  0.0604 -0.3630 -0.3044
 6536SOL    HW129942   4.904   9.616   1.695  0.5288  0.2463  0.9355
 6536SOL    HW229943   4.858   9.460   1.685 -2.1837  1.1920 -1.9943
 6537SOL     OW29944   0.370   3.824   3.701  0.0521  0.1380  0.4285
 6537SOL    HW129945   0.281   3.778   3.705  0.7408 -1.1045  1.4211
 6537SOL    HW229946   0.380   3.884   3.780  0.3155 -0.1120  0.5843
 6538SOL     OW29947   8.807   7.864   1.277  0.1033 -0.4039 -0.6108
 6538SOL    HW129948   8.873   7.907   1.339 -1.1986 -1.1218  1.3050
 6538SOL    HW229949   8.852   7.788   1.229  1.3251  0.6204 -1.1291
 6539SOL     OW29950   9.361   9.965   0.069  0.3880 -0.2405 -0.6799
 6539SOL    HW129951   9.303  10.018   0.008  0.7560 -0.0135 -0.8392
 6539SOL    HW229952   9.389  10.022   0.146 -0.8197 -0.8031  0.1789
 6540SOL     OW29953   1.048   2.711   0.405 -0.2065  0.0626 -0.1115
 6540SOL    HW129954   1.059   2.643   0.333 -1.1903  0.4075 -0.5979
 6540SOL    HW229955   1.021   2.666   0.490 -0.2291 -0.2212 -0.2692
 6541SOL     OW29956   7.362   1.796   2.591  0.0068 -0.0415 -0.5127
 6541SOL    HW129957   7.377   1.840   2.502  2.4745  1.8080  0.7837
 6541SOL    HW229958   7.346   1.866   2.660  0.8041 -1.3476  1.0089
 6542SOL     OW29959   2.816   3.899   2.878  1.0217  0.0915  0.5689
 6542SOL    HW129960   2.741   3.930   2.819  1.1562  0.2847  0.5011
 6542SOL    HW229961   2.780   3.835   2.946  0.7042  0.5614  0.8467
 6543SOL     OW29962   4.220   3.653   2.795  0.3147 -0.0105 -0.0783
 6543SOL    HW129963   4.131   3.654   2.840 -0.8860 -1.7360 -2.2796
 6543SOL    HW229964   4.233   3.739   2.744  0.5219  0.8092  1.3417
 6544SOL     OW29965   8.010   2.421   0.595  0.1713  0.3817 -0.0548
 6544SOL    HW129966   7.966   2.430   0.684 -1.5046  0.4118 -0.8767
 6544SOL    HW229967   8.074   2.497   0.582  1.4871 -0.4034  1.6997
 6545SOL     OW29968   3.705   8.980   1.948  0.2488 -0.5826 -0.6017
 6545SOL    HW129969   3.631   8.996   2.013  0.0495  0.4186 -1.0685
 6545SOL    HW229970   3.673   8.920   1.875 -0.0208 -0.3531 -0.6698
 6546SOL     OW29971   3.314   6.287   2.370 -0.0026 -0.4710  0.0265
 6546SOL    HW129972   3.360   6.201   2.345  1.0268  0.6348 -2.0054
 6546SOL    HW229973   3.218   6.268   2.390  0.5848 -2.3441  1.2308
 6547SOL     OW29974   8.414   0.275   1.864  0.3935  0.3313  0.2795
 6547SOL    HW129975   8.422   0.370   1.835 -0.0689  0.3705  0.2869
 6547SOL    HW229976   8.353   0.268   1.942 -0.3465 -0.0912 -0.3288
 6548SOL     OW29977   9.014   9.757   3.538  0.5156  0.3197  0.0438
 6548SOL    HW129978   8.948   9.828   3.564  0.3915  0.0088  0.6098
 6548SOL    HW229979   8.999   9.676   3.595  0.9669  0.0152 -0.2687
 6549SOL     OW29980   2.380   0.074   3.616  0.1598 -0.2223  0.6628
 6549SOL    HW129981   2.341   0.093   3.706  2.6016  0.9684  1.5363
 6549SOL    HW229982   2.416   0.159   3.577  2.1723 -1.3011  0.1082
 6550SOL     OW29983   4.644   6.439   2.831 -0.1560 -1.0644  0.0787
 6550SOL    HW129984   4.582   6.492   2.773  0.6147 -0.0612  0.1664
 6550SOL    HW229985   4.616   6.447   2.926 -0.4204 -1.3473  0.0273
 6551SOL     OW29986   8.556   2.873   1.198 -0.4158 -0.4045 -0.4823
 6551SOL    HW129987   8.611   2.871   1.281 -1.7118  1.8433  0.4908
 6551SOL    HW229988   8.513   2.963   1.189 -1.9010 -1.2783 -2.5257
 6552SOL     OW29989   3.666   3.373   2.450  0.6214 -0.8781  1.1232
 6552SOL    HW129990   3.574   3.378   2.491  1.1312 -0.8364  2.2861
 6552SOL    HW229991   3.664   3.310   2.372 -0.1011 -1.9193  1.9575
 6553SOL     OW29992   1.992   1.997   2.824  0.1099  0.1860 -0.5281
 6553SOL    HW129993   2.012   2.083   2.778  0.4331  0.0110 -0.7218
 6553SOL    HW229994   2.076   1.961   2.865 -0.2684  0.5660  0.5946
 6554SOL     OW29995   3.271   7.789   0.617  0.8984 -0.2266  0.7547
 6554SOL    HW129996   3.188   7.759   0.664 -2.3021  2.3385 -2.8954
 6554SOL    HW229997   3.281   7.740   0.530  2.2900  0.6004  0.4193
 6555SOL     OW29998   3.383   3.559   1.595  0.6848 -0.5841 -0.4137
 6555SOL    HW129999   3.373   3.584   1.498  0.4581 -0.1700 -0.2839
 6555SOL    HW230000   3.343   3.469   1.611 -0.2138 -0.1993 -0.4883
 6556SOL     OW30001   2.332   0.979   2.307 -0.0174 -0.0244 -0.0977
 6556SOL    HW130002   2.262   0.960   2.238 -0.8286 -4.2302  1.6964
 6556SOL    HW230003   2.385   1.060   2.280 -1.8976 -0.0628 -4.3275
 6557SOL     OW30004   8.105   0.064   3.658  0.1198 -0.2671  0.1650
 6557SOL    HW130005   8.068   0.125   3.728  1.1445  1.3773 -0.6732
 6557SOL    HW230006   8.201   0.088   3.641  0.4116 -1.8407 -0.4961
 6558SOL     OW30007   3.324   2.556   2.418  0.0158 -0.0934  0.8704
 6558SOL    HW130008   3.278   2.641   2.392 -1.6118 -1.0685  0.5626
 6558SOL    HW230009   3.416   2.578   2.451  0.3118  1.6194 -0.9660
 6559SOL     OW30010   7.611   1.537   3.237 -0.3775 -0.1748  1.1696
 6559SOL    HW130011   7.667   1.468   3.284 -0.1577  0.4335  1.8092
 6559SOL    HW230012   7.589   1.505   3.145 -0.7806 -1.3632  1.6713
 6560SOL     OW30013   1.144   4.504   0.834 -0.6497 -0.2499 -0.0488
 6560SOL    HW130014   1.045   4.521   0.833 -0.9653 -1.7930  2.0649
 6560SOL    HW230015   1.172   4.467   0.745 -2.3445 -1.7719  0.0268
 6561SOL     OW30016   8.703   1.508   3.345  0.2773  0.4238  0.2081
 6561SOL    HW130017   8.648   1.589   3.366  0.1537  0.7300 -1.2523
 6561SOL    HW230018   8.645   1.427   3.343  0.3925  0.2925  1.6366
 6562SOL     OW30019   7.314   8.783   3.482  0.5546 -0.8498 -0.0023
 6562SOL    HW130020   7.320   8.864   3.540 -0.4170 -1.2456  0.6518
 6562SOL    HW230021   7.407   8.756   3.454  1.0020 -0.4268  1.0426
 6563SOL     OW30022   0.273   3.349   1.678  0.0004  0.2123  0.5194
 6563SOL    HW130023   0.296   3.264   1.631 -1.4665 -0.4727  1.0034
 6563SOL    HW230024   0.341   3.367   1.749 -0.6185 -1.4937  1.5853
 6564SOL     OW30025   0.773   1.089   2.274  0.6571  0.2250  0.5625
 6564SOL    HW130026   0.825   1.069   2.191 -1.4524  0.9741 -1.0078
 6564SOL    HW230027   0.826   1.150   2.333  2.3682 -0.6776 -0.0235
 6565SOL     OW30028   0.909   1.019   3.071 -0.2058 -0.6858  0.3011
 6565SOL    HW130029   0.945   0.935   3.112  0.2107 -1.0039 -0.7216
 6565SOL    HW230030   0.968   1.048   2.996 -0.4850  0.3899  0.4773
 6566SOL     OW30031   2.758   3.136   1.083 -0.4018  0.4223  0.4437
 6566SOL    HW130032   2.769   3.193   1.002 -0.0214  0.4469  0.5093
 6566SOL    HW230033   2.845   3.131   1.132 -0.2783 -0.6701  0.1372
 6567SOL     OW30034   8.954   3.379   0.263  0.3610 -0.6132  0.0582
 6567SOL    HW130035   9.010   3.339   0.335  0.4701  0.2630  0.4766
 6567SOL    HW230036   8.860   3.348   0.273  0.5940 -1.3810 -0.1010
 6568SOL     OW30037   1.927   6.414   1.831  0.0705  0.1360 -0.3627
 6568SOL    HW130038   1.949   6.498   1.783 -0.9296  0.0553 -0.9700
 6568SOL    HW230039   1.829   6.398   1.827  0.1950 -0.8093  0.1687
 6569SOL     OW30040   2.182   4.619   0.419 -0.5086  0.1267 -0.0791
 6569SOL    HW130041   2.279   4.612   0.397 -0.6498  1.2632 -1.1014
 6569SOL    HW230042   2.171   4.640   0.516  0.2395 -0.7253  0.1931
 6570SOL     OW30043   8.419   2.903   3.799  0.2857 -0.3355  0.0344
 6570SOL    HW130044   8.356   2.919   3.875  2.0040 -0.4799  1.4933
 6570SOL    HW230045   8.435   2.988   3.750  0.0456 -0.0293  0.4899
 6571SOL     OW30046   1.955   6.950   3.085  0.0767 -0.0835  0.1278
 6571SOL    HW130047   1.962   6.862   3.132 -1.3565 -0.1849  0.1570
 6571SOL    HW230048   1.875   6.951   3.026  0.7834  0.7515 -0.8397
 6572SOL     OW30049   8.981   9.521   0.021 -0.0947 -0.1970 -0.0826
 6572SOL    HW130050   8.903   9.577  -0.006 -0.4991  0.1614  1.7681
 6572SOL    HW230051   9.066   9.572   0.006 -0.2174 -0.5108 -1.9083
 6573SOL     OW30052   9.618   9.180   3.336  0.4620 -0.2819 -0.6704
 6573SOL    HW130053   9.709   9.218   3.316  0.9167 -1.2796 -0.5339
 6573SOL    HW230054   9.620   9.081   3.324 -0.1687 -0.5125  0.9977
 6574SOL     OW30055   5.945   9.437   2.587  0.4608 -0.1880 -0.7221
 6574SOL    HW130056   6.016   9.465   2.652 -1.0440  1.5074  0.2221
 6574SOL    HW230057   5.876   9.383   2.635 -1.1073  1.7964 -0.6612
 6575SOL     OW30058   0.473   9.973   3.197  0.4402 -0.1062 -0.4264
 6575SOL    HW130059   0.406  10.030   3.244  0.8568 -0.2121  0.3094
 6575SOL    HW230060   0.477   9.998   3.100 -0.4945  0.0500 -0.4210
 6576SOL     OW30061   7.941   7.484   0.318 -0.0239 -0.0930 -0.2459
 6576SOL    HW130062   7.996   7.417   0.367  1.1136  0.7959 -0.2825
 6576SOL    HW230063   7.927   7.453   0.224 -0.8600 -1.0313  0.1760
 6577SOL     OW30064   0.615   7.544   0.862 -0.0483  0.1419  0.3159
 6577SOL    HW130065   0.517   7.528   0.847 -0.1143  1.4151 -0.7363
 6577SOL    HW230066   0.667   7.470   0.820 -0.5858 -1.0432  1.7062
 6578SOL     OW30067   2.527   7.666   2.175  0.1501 -0.2187  0.1042
 6578SOL    HW130068   2.445   7.677   2.231 -0.3307  0.8399 -0.7949
 6578SOL    HW230069   2.525   7.577   2.130 -0.1330 -0.5074  0.6834
 6579SOL     OW30070   9.480   1.307   2.254 -0.0931  0.1339  0.2096
 6579SOL    HW130071   9.383   1.303   2.276 -0.2458 -0.4166 -0.5455
 6579SOL    HW230072   9.529   1.357   2.326 -0.7173 -0.7963  1.2873
 6580SOL     OW30073   6.892   9.071   2.881 -0.1602  0.3124  0.2977
 6580SOL    HW130074   6.877   9.072   2.782 -0.2474 -1.1073  0.2784
 6580SOL    HW230075   6.859   9.156   2.921 -0.8713  0.5593 -0.7920
 6581SOL     OW30076   7.413   8.352   0.631  0.1817  0.1274  0.0265
 6581SOL    HW130077   7.434   8.257   0.610 -0.4671 -0.4206  1.7465
 6581SOL    HW230078   7.342   8.355   0.701 -0.3329  1.8894 -0.5498
 6582SOL     OW30079   4.192   9.815   2.147  0.2455  0.1247 -0.0593
 6582SOL    HW130080   4.125   9.889   2.143 -0.4002 -0.3885  1.1305
 6582SOL    HW230081   4.150   9.730   2.114  0.6027  0.0071 -0.2176
 6583SOL     OW30082   0.190   8.768   0.753  0.4341 -0.0175  0.0287
 6583SOL    HW130083   0.184   8.678   0.795  0.3757  0.0391  0.1423
 6583SOL    HW230084   0.201   8.837   0.824  0.1534  0.0963 -0.0353
 6584SOL     OW30085   2.194   7.791   3.006  0.0095  0.4833 -0.1441
 6584SOL    HW130086   2.262   7.840   2.951 -1.1366  2.3816  0.0815
 6584SOL    HW230087   2.240   7.722   3.062  1.4296 -0.0714 -1.9640
 6585SOL     OW30088   9.996   3.346   1.669 -0.4999  0.2470 -0.3718
 6585SOL    HW130089   9.983   3.292   1.586  1.1341 -1.7859  0.6608
 6585SOL    HW230090  10.090   3.379   1.674 -0.0552 -1.2034  1.5513
 6586SOL     OW30091   3.986   2.755   3.171 -0.1941  0.1157 -0.0113
 6586SOL    HW130092   3.968   2.686   3.100  2.0514 -0.7532  0.2272
 6586SOL    HW230093   4.035   2.712   3.247  0.0682  1.7122  0.7362
 6587SOL     OW30094   1.129   8.420   3.782 -0.5371 -0.4342 -0.0873
 6587SOL    HW130095   1.175   8.427   3.870 -2.1979 -0.9590  0.8425
 6587SOL    HW230096   1.129   8.510   3.737  2.0679 -0.5860 -0.4993
 6588SOL     OW30097   0.317   2.555   2.817 -0.3345  0.0611 -0.7912
 6588SOL    HW130098   0.229   2.602   2.812 -0.1505  0.8409  2.3379
 6588SOL    HW230099   0.303   2.456   2.811 -1.4659  0.1586  0.0581
 6589SOL     OW30100   8.988   0.076   0.054  0.4368 -0.6836 -0.4241
 6589SOL    HW130101   8.954   0.164   0.086 -0.4129 -0.7674 -1.0730
 6589SOL    HW230102   8.924   0.004   0.083  1.1009 -1.0781  0.0665
 6590SOL     OW30103   2.557   1.708   1.987  0.0325  0.1970 -0.1478
 6590SOL    HW130104   2.643   1.741   2.027  0.7051 -0.1227 -1.3306
 6590SOL    HW230105   2.519   1.636   2.045  1.3682 -0.7478 -0.4434
 6591SOL     OW30106   9.456   3.677   1.261 -0.3508 -0.8470 -0.3945
 6591SOL    HW130107   9.385   3.610   1.240  0.8332 -2.1239 -0.3822
 6591SOL    HW230108   9.498   3.655   1.349  0.4325 -0.4216 -0.6570
 6592SOL     OW30109   2.881   1.053   3.095  0.0827  0.3603  0.0729
 6592SOL    HW130110   2.967   1.058   3.146  0.3351  0.9259 -0.3956
 6592SOL    HW230111   2.886   0.981   3.027  0.6730  1.2612 -0.8387
 6593SOL     OW30112   3.735   2.774   0.191  0.0530  0.3443  0.2350
 6593SOL    HW130113   3.766   2.686   0.227 -1.3420  0.2099  1.1180
 6593SOL    HW230114   3.755   2.846   0.257 -0.4966  0.4204  0.3165
 6594SOL     OW30115   0.281   9.669   2.195 -0.2945 -0.1194  0.0851
 6594SOL    HW130116   0.352   9.614   2.238  0.7816  1.9816  1.0649
 6594SOL    HW230117   0.194   9.619   2.198  0.5333 -1.5299  1.3797
 6595SOL     OW30118   3.816   8.544   1.167 -0.2494 -0.0762 -0.3766
 6595SOL    HW130119   3.858   8.635   1.174 -0.0393 -0.2917  1.6763
 6595SOL    HW230120   3.717   8.553   1.161 -0.3953  0.2627  2.0193
 6596SOL     OW30121   0.355   3.322   4.033  0.3439  0.4160 -0.2174
 6596SOL    HW130122   0.406   3.392   4.083 -0.8515  1.2230 -0.1061
 6596SOL    HW230123   0.257   3.335   4.048  0.1012 -1.1667 -0.3633
 6597SOL     OW30124   2.889   7.038   3.620  0.1713  0.2658 -0.0863
 6597SOL    HW130125   2.879   7.052   3.719  2.0369  1.3347 -0.0413
 6597SOL    HW230126   2.966   7.091   3.586 -0.2182 -0.4011 -2.0713
 6598SOL     OW30127   1.186   2.032   1.867  0.1762  0.0290  0.6110
 6598SOL    HW130128   1.255   1.961   1.852  1.4053  1.7379 -2.2549
 6598SOL    HW230129   1.228   2.112   1.909 -0.0959  0.9386 -0.7983
 6599SOL     OW30130   7.352   1.407   3.669 -0.4794  0.3800  0.1585
 6599SOL    HW130131   7.449   1.389   3.651 -0.2457  1.4317  0.3076
 6599SOL    HW230132   7.303   1.414   3.582 -0.1789  1.0784  0.0380
 6600SOL     OW30133   2.071   0.509   1.959 -0.0932  0.5298 -0.2946
 6600SOL    HW130134   2.086   0.444   2.033  0.2504 -1.4588 -2.0514
 6600SOL    HW230135   2.156   0.560   1.943  0.6330 -0.8644 -1.0010
 6601SOL     OW30136   0.304   2.048   1.715  0.1571  0.3672 -0.0873
 6601SOL    HW130137   0.402   2.028   1.718 -0.0309 -0.6249 -0.4021
 6601SOL    HW230138   0.261   2.014   1.799  0.4049  2.6630  1.0262
 6602SOL     OW30139   0.841   0.670   0.680  0.9076  0.4483 -0.0373
 6602SOL    HW130140   0.816   0.651   0.775  1.3854 -2.1746 -0.3921
 6602SOL    HW230141   0.916   0.737   0.678  0.9619  0.4473  1.4228
 6603SOL     OW30142   1.498   0.057   0.020 -0.0728 -0.1811  0.4564
 6603SOL    HW130143   1.556   0.022  -0.054  0.9307  1.1264  0.5936
 6603SOL    HW230144   1.465   0.148  -0.004 -0.7977 -0.2722  1.0717
 6604SOL     OW30145   3.846   8.706   0.055  0.3154 -0.2802  0.2350
 6604SOL    HW130146   3.892   8.711   0.144 -1.4136  0.4109  1.1253
 6604SOL    HW230147   3.748   8.724   0.068 -0.2604 -1.9816 -1.5583
 6605SOL     OW30148   5.026   9.110   2.839 -0.7099 -0.6113 -0.0575
 6605SOL    HW130149   5.086   9.185   2.810 -2.4965  0.4900 -0.9652
 6605SOL    HW230150   5.080   9.043   2.890  1.5886 -0.2982 -1.9468
 6606SOL     OW30151   0.464   1.247   3.475  0.3969 -0.8782 -0.1570
 6606SOL    HW130152   0.561   1.221   3.473  0.3116 -1.2920  0.9401
 6606SOL    HW230153   0.456   1.345   3.454  1.0577 -0.8576 -0.3134
 6607SOL     OW30154   5.508   8.797   2.283  0.0105  0.3402 -0.4781
 6607SOL    HW130155   5.486   8.889   2.315  0.7982  0.9043 -1.5426
 6607SOL    HW230156   5.533   8.800   2.187  2.4807 -0.5939  0.0972
 6608SOL     OW30157   8.316   1.694   0.999 -0.1007 -0.2432  0.5413
 6608SOL    HW130158   8.295   1.746   1.082 -0.7279 -0.7657  0.7127
 6608SOL    HW230159   8.232   1.655   0.962  0.0604  0.6492 -0.7972
 6609SOL     OW30160   2.146   1.226   2.452  0.8102 -0.1093 -0.2131
 6609SOL    HW130161   2.243   1.209   2.470  1.1196  1.6322 -0.1634
 6609SOL    HW230162   2.126   1.323   2.466 -1.1199 -0.6037  0.5525
 6610SOL     OW30163   1.769   9.882   1.484  0.2455  0.1796  0.7200
 6610SOL    HW130164   1.820   9.950   1.431  2.2548 -1.7703  0.0612
 6610SOL    HW230165   1.676   9.876   1.448  0.8098  0.7465 -0.9167
 6611SOL     OW30166   2.004   7.410   1.864  0.2303  0.0469  0.0590
 6611SOL    HW130167   2.029   7.314   1.876  1.2359  0.2711 -0.2362
 6611SOL    HW230168   1.939   7.417   1.788  0.5821 -0.3269 -0.2785
 6612SOL     OW30169   2.230   0.849   2.966  0.1769  0.5672  0.1678
 6612SOL    HW130170   2.232   0.927   2.903  0.7382  0.4346  0.0176
 6612SOL    HW230171   2.263   0.768   2.919 -2.9528 -0.3752 -0.4938
 6613SOL     OW30172   2.925   1.339   2.489  0.3103 -0.1705  0.0679
 6613SOL    HW130173   2.961   1.409   2.427 -1.5738 -0.6615 -1.6340
 6613SOL    HW230174   2.956   1.358   2.582  0.7274  2.2897 -0.5319
 6614SOL     OW30175   0.533   6.992   1.707  0.0247 -0.0141  0.5248
 6614SOL    HW130176   0.475   7.069   1.680  1.0297  1.5207  2.5808
 6614SOL    HW230177   0.602   6.976   1.636 -2.9070 -1.9440 -1.9923
 6615SOL     OW30178   7.884   4.481   0.662  0.2192  0.2310 -0.3095
 6615SOL    HW130179   7.944   4.437   0.728 -1.3731  0.6990  1.4705
 6615SOL    HW230180   7.938   4.538   0.600  1.5462  0.9992  1.5522
 6616SOL     OW30181   3.181   3.738   3.394  0.0278  0.5841 -0.0889
 6616SOL    HW130182   3.166   3.641   3.375  1.3527  0.0841  1.3521
 6616SOL    HW230183   3.191   3.788   3.308  0.5192 -0.7445 -0.8050
 6617SOL     OW30184   8.497   1.506   1.240  0.5135  0.5253 -0.0299
 6617SOL    HW130185   8.550   1.568   1.183  0.6621 -1.1957 -1.8089
 6617SOL    HW230186   8.479   1.421   1.190 -1.6535  0.0298  1.5090
 6618SOL     OW30187   8.034   7.787   1.365  0.1768  0.2142 -0.3600
 6618SOL    HW130188   8.083   7.736   1.295 -0.1431 -1.8647  0.8982
 6618SOL    HW230189   8.022   7.730   1.446  0.2055  2.4364  1.2693
 6619SOL     OW30190   2.536   8.205   3.470  0.2186 -0.2264 -0.1982
 6619SOL    HW130191   2.532   8.223   3.372 -0.0891 -1.6377 -0.4508
 6619SOL    HW230192   2.485   8.276   3.518  0.9973  0.8960 -0.9928
 6620SOL     OW30193   2.361   2.240   1.788  0.2665 -0.0785  0.3892
 6620SOL    HW130194   2.402   2.150   1.799 -1.1904 -0.8542 -0.3135
 6620SOL    HW230195   2.407   2.289   1.714 -0.2629 -1.0592 -0.6035
 6621SOL     OW30196   9.467   9.328   2.329 -0.0019  0.0512  0.4185
 6621SOL    HW130197   9.514   9.291   2.409  1.2065  0.9889  0.1523
 6621SOL    HW230198   9.415   9.410   2.355  0.2797  0.2771  0.2719
 6622SOL     OW30199   3.134   0.108   0.465  0.6188  0.6784  0.2203
 6622SOL    HW130200   3.166   0.201   0.445  1.8592  0.3183  0.5080
 6622SOL    HW230201   3.134   0.094   0.564 -0.3300  0.6268  0.2221
 6623SOL     OW30202   2.326   9.863   1.183  0.9990 -0.0047 -0.1849
 6623SOL    HW130203   2.392   9.907   1.242  0.3315  1.7674 -0.7397
 6623SOL    HW230204   2.233   9.892   1.207  0.6396 -0.0959 -1.3885
 6624SOL     OW30205   4.792   7.892   0.308 -0.4218 -0.8030 -0.7322
 6624SOL    HW130206   4.763   7.974   0.260  0.8190 -0.2530 -0.5698
 6624SOL    HW230207   4.892   7.884   0.302 -0.4157 -1.5995  0.3583
 6625SOL     OW30208   2.254   5.456   1.562 -0.3778 -0.0202  0.0013
 6625SOL    HW130209   2.193   5.534   1.579 -1.1789 -0.5062 -0.5979
 6625SOL    HW230210   2.271   5.408   1.648  0.7871  1.2944  0.5171
 6626SOL     OW30211   9.096   9.266   1.953  0.0436 -0.1546 -0.0147
 6626SOL    HW130212   9.094   9.358   1.913  0.3962  0.1631  0.6982
 6626SOL    HW230213   9.183   9.251   1.999 -0.5574 -0.3296  1.0887
 6627SOL     OW30214   9.356   9.302   0.336  0.1111  0.0306 -0.2867
 6627SOL    HW130215   9.428   9.370   0.324 -0.5862  0.9473  0.5547
 6627SOL    HW230216   9.361   9.233   0.263  1.0788  0.7600 -0.9126
 6628SOL     OW30217   2.714   2.275   2.438  0.2304 -0.3165  0.2494
 6628SOL    HW130218   2.661   2.341   2.385  1.7354  0.9401  0.2747
 6628SOL    HW230219   2.670   2.261   2.527  1.2286  2.5875  1.2462
 6629SOL     OW30220   7.744   2.889   0.582 -0.1093 -0.0515 -0.4481
 6629SOL    HW130221   7.647   2.881   0.604 -0.1330  1.3518  0.0067
 6629SOL    HW230222   7.755   2.949   0.502  0.4522  0.9175  0.3385
 6630SOL     OW30223   2.521   4.026   0.673 -0.1309 -0.3046 -0.0615
 6630SOL    HW130224   2.553   3.932   0.677  1.6088  0.2969  0.4842
 6630SOL    HW230225   2.516   4.064   0.766  0.2128  0.4899 -0.3637
 6631SOL     OW30226   6.993   9.533   1.471  0.3478 -0.4311  1.1328
 6631SOL    HW130227   7.090   9.547   1.491  0.6982  2.0570 -1.8254
 6631SOL    HW230228   6.940   9.609   1.509  0.1522  0.5125 -0.9548
 6632SOL     OW30229   4.800   9.934   1.927  0.4215  0.1105  0.4504
 6632SOL    HW130230   4.758  10.010   1.976 -0.1497 -0.2795  0.5678
 6632SOL    HW230231   4.899   9.936   1.941  0.5966  1.7676 -0.8586
 6633SOL     OW30232   1.161   7.439   3.444 -0.2298  0.2461 -0.1138
 6633SOL    HW130233   1.077   7.447   3.390 -0.7132 -0.3925  0.5274
 6633SOL    HW230234   1.146   7.373   3.518  0.4255  1.1271  0.8031
 6634SOL     OW30235   3.614   7.148   2.258 -0.6274  0.8933 -0.3384
 6634SOL    HW130236   3.521   7.185   2.249 -0.5248  1.4038  0.6238
 6634SOL    HW230237   3.611   7.049   2.249 -1.3119  0.8815 -0.0089
 6635SOL     OW30238   2.925   5.681   1.528  0.5194  0.0607 -0.0744
 6635SOL    HW130239   2.950   5.587   1.506  1.9321  0.4858 -0.3366
 6635SOL    HW230240   2.942   5.698   1.625  1.2608  0.3516 -0.2531
 6636SOL     OW30241   1.637   6.961   3.535  0.1559 -0.1948 -0.0942
 6636SOL    HW130242   1.643   6.955   3.634  0.0334 -0.8304 -0.1239
 6636SOL    HW230243   1.585   6.883   3.500  0.0964  0.0905 -0.6458
 6637SOL     OW30244   2.360   3.738   1.865  0.5315  0.2536 -0.1705
 6637SOL    HW130245   2.346   3.687   1.950  1.4325  0.8261  0.3401
 6637SOL    HW230246   2.427   3.690   1.808  0.0170 -0.0691 -0.4985
 6638SOL     OW30247   0.982   3.466   2.997 -0.4887 -0.3452 -0.6368
 6638SOL    HW130248   0.952   3.525   3.072  1.8987 -0.4749  0.4473
 6638SOL    HW230249   0.966   3.371   3.021 -3.1276 -0.2765 -1.8560
 6639SOL     OW30250   3.590   4.363   0.036  0.1136 -0.8641  0.5535
 6639SOL    HW130251   3.583   4.329  -0.058 -1.0022  1.1784 -0.1202
 6639SOL    HW230252   3.498   4.371   0.075  0.5757 -1.7300  1.8474
 6640SOL     OW30253   2.637   4.232   0.099 -0.4589  0.4108 -0.2730
 6640SOL    HW130254   2.568   4.219   0.028 -1.2058  3.7678 -0.2495
 6640SOL    HW230255   2.594   4.270   0.181  1.2939  1.9808 -0.0446
 6641SOL     OW30256   4.269   3.028   2.679  0.1197 -0.1071 -0.6247
 6641SOL    HW130257   4.324   3.088   2.737  0.4282 -0.8159 -0.1828
 6641SOL    HW230258   4.183   3.074   2.657  0.9350  1.0666 -1.4479
 6642SOL     OW30259   3.396   3.858   1.294  0.7069 -0.3193  0.0050
 6642SOL    HW130260   3.331   3.873   1.369  0.7833 -0.0475  0.0178
 6642SOL    HW230261   3.455   3.939   1.285  0.5420 -0.2531 -0.5054
 6643SOL     OW30262   0.878   2.890   2.430  0.1266  0.1425  0.2053
 6643SOL    HW130263   0.789   2.930   2.412 -0.7654 -0.5665  2.7868
 6643SOL    HW230264   0.931   2.950   2.490  1.5060  0.6766 -1.5058
 6644SOL     OW30265   2.540   4.807   1.784 -0.0591  0.2743 -0.2304
 6644SOL    HW130266   2.570   4.807   1.880 -0.5741 -0.5380 -0.0625
 6644SOL    HW230267   2.455   4.755   1.776 -0.4921  1.0935 -0.9863
 6645SOL     OW30268   3.627   9.603   1.283 -0.0262 -0.2628 -0.0743
 6645SOL    HW130269   3.644   9.690   1.330  0.5619 -1.2380  1.5503
 6645SOL    HW230270   3.705   9.542   1.296 -1.0818 -1.5963  0.0751
 6646SOL     OW30271   4.829   8.245   1.439  0.2264  0.4478 -0.0855
 6646SOL    HW130272   4.752   8.234   1.502 -0.0230 -1.9674 -0.7581
 6646SOL    HW230273   4.798   8.230   1.345  1.6036 -1.1625 -0.3100
 6647SOL     OW30274   4.895   3.203   1.150 -0.1767  0.7821  0.1288
 6647SOL    HW130275   4.854   3.294   1.156 -0.0866  0.6985  2.7445
 6647SOL    HW230276   4.824   3.135   1.134 -0.2775  1.2658 -1.5404
 6648SOL     OW30277   8.391   2.438   2.186  0.7100 -0.0504 -0.3849
 6648SOL    HW130278   8.297   2.404   2.187 -0.5711  3.3443  1.4092
 6648SOL    HW230279   8.393   2.531   2.151  3.4192 -0.0294 -0.2864
 6649SOL     OW30280   3.937   0.567   1.004 -0.3262  0.1886  0.2625
 6649SOL    HW130281   3.976   0.648   1.047 -1.6718  0.6286  0.6943
 6649SOL    HW230282   3.861   0.533   1.060 -0.7786 -0.4368 -0.7144
 6650SOL     OW30283   8.904   2.289   2.505  0.1183  0.6082 -0.2654
 6650SOL    HW130284   8.922   2.258   2.412 -1.1087  0.3863 -0.4471
 6650SOL    HW230285   8.833   2.359   2.503  2.1273  2.7145  0.2428
 6651SOL     OW30286   7.403   4.018   0.315 -0.4556 -0.2584 -0.1605
 6651SOL    HW130287   7.379   4.016   0.412  0.7533 -0.5246  0.1404
 6651SOL    HW230288   7.438   4.109   0.291  0.5868 -0.6120 -0.0075
 6652SOL     OW30289   7.597   1.219   2.102 -0.0534 -0.1269  0.5707
 6652SOL    HW130290   7.519   1.231   2.164  0.9725 -0.4310  1.9425
 6652SOL    HW230291   7.681   1.217   2.155  0.8610 -0.2068 -0.8702
 6653SOL     OW30292   1.432   0.225   2.503  0.0040  0.4385  0.7094
 6653SOL    HW130293   1.484   0.289   2.447 -0.0411 -1.3218 -1.4102
 6653SOL    HW230294   1.494   0.170   2.558  0.1804  0.7877  0.8575
 6654SOL     OW30295   9.558   3.430   0.593 -0.4155  0.4890 -0.2448
 6654SOL    HW130296   9.550   3.514   0.647  0.7363  1.3096 -1.3387
 6654SOL    HW230297   9.621   3.445   0.517  0.5810 -1.6821  0.1316
 6655SOL     OW30298   2.313   7.456   0.969 -0.2998  0.1298  0.2396
 6655SOL    HW130299   2.272   7.456   0.877  2.7229  1.3314 -1.1640
 6655SOL    HW230300   2.385   7.388   0.974  0.0272  0.5526  1.5336
 6656SOL     OW30301   2.570   1.567   3.593 -0.0946 -0.1168 -0.0684
 6656SOL    HW130302   2.643   1.575   3.661 -1.0110 -0.4610  0.9742
 6656SOL    HW230303   2.607   1.583   3.501  1.1086  0.5714  0.5350
 6657SOL     OW30304   3.527   0.172   1.829  0.9094 -0.1183 -0.5454
 6657SOL    HW130305   3.622   0.196   1.847  0.6980 -0.4239  1.0536
 6657SOL    HW230306   3.522   0.113   1.748  2.0754 -0.1125 -0.6287
 6658SOL     OW30307   4.305   7.491   1.792 -0.4267  0.0143 -0.0697
 6658SOL    HW130308   4.261   7.557   1.853 -4.4853 -1.7224 -0.9110
 6658SOL    HW230309   4.271   7.505   1.698 -0.5162 -2.4811 -0.4444
 6659SOL     OW30310   2.108   1.299   0.434 -0.8105  0.3564 -0.6076
 6659SOL    HW130311   2.095   1.341   0.344 -2.0818  0.0031 -0.5877
 6659SOL    HW230312   2.174   1.354   0.487 -0.5895  0.9489 -1.4880
 6660SOL     OW30313   8.088   3.419   0.253 -0.2297  0.3878 -0.0595
 6660SOL    HW130314   8.127   3.330   0.230 -0.3267  0.0588  1.0160
 6660SOL    HW230315   8.137   3.490   0.203  0.2655 -0.2125 -0.4457
 6661SOL     OW30316   2.138   7.401   0.742  0.3201  0.3544 -0.1257
 6661SOL    HW130317   2.168   7.308   0.720  0.9660  0.6332 -0.4435
 6661SOL    HW230318   2.049   7.418   0.699 -1.8490 -1.5410  3.4160
 6662SOL     OW30319   1.561   2.477   2.376  0.4596  0.1734 -0.3573
 6662SOL    HW130320   1.654   2.487   2.410  0.8752 -0.7655 -1.1944
 6662SOL    HW230321   1.546   2.383   2.345 -1.3393 -0.1852  1.4363
 6663SOL     OW30322   7.870   3.580   0.320 -0.1688 -0.1746  0.4721
 6663SOL    HW130323   7.945   3.518   0.298 -0.3153 -0.0684 -0.3343
 6663SOL    HW230324   7.844   3.632   0.239 -0.2586  0.7174  1.0572
 6664SOL     OW30325   4.198   6.926   3.545 -0.0661 -0.6115  0.0061
 6664SOL    HW130326   4.169   6.871   3.466 -0.0541 -3.4772  1.9435
 6664SOL    HW230327   4.118   6.956   3.597  0.0659 -1.2883  0.5975
 6665SOL     OW30328   3.015   5.880   2.763  0.0289  0.0750 -0.3823
 6665SOL    HW130329   3.008   5.979   2.750 -0.6784  0.1625  0.5729
 6665SOL    HW230330   3.071   5.861   2.844 -0.1901 -0.2893 -0.3152
 6666SOL     OW30331   8.103   8.186   3.851 -0.6406 -0.1628  0.4705
 6666SOL    HW130332   8.083   8.252   3.923 -1.1818  0.5465 -0.3128
 6666SOL    HW230333   8.195   8.148   3.864  0.1699  1.6955  0.2110
 6667SOL     OW30334   0.197   0.534   3.626  0.3888 -0.4442 -0.0975
 6667SOL    HW130335   0.276   0.556   3.684  0.1856  1.5782 -0.5206
 6667SOL    HW230336   0.168   0.440   3.643  2.0186 -0.7635  1.0846
 6668SOL     OW30337   9.697   1.965   3.313  0.1479  0.0267 -0.0593
 6668SOL    HW130338   9.697   1.969   3.214  1.4571 -0.0431 -0.0705
 6668SOL    HW230339   9.604   1.976   3.347 -0.6912 -2.7464 -1.3991
 6669SOL     OW30340   2.364   5.880   1.947  0.0525 -0.0621  0.0520
 6669SOL    HW130341   2.276   5.856   1.989 -0.5586  0.3472 -0.9790
 6669SOL    HW230342   2.367   5.845   1.854  1.1873 -0.4916  0.2413
 6670SOL     OW30343   1.955   9.881   1.071 -0.1083 -0.0376  0.4270
 6670SOL    HW130344   1.891   9.952   1.102 -0.7526  0.0522 -1.0519
 6670SOL    HW230345   1.959   9.808   1.139 -2.2054 -0.3026  0.3062
 6671SOL     OW30346   8.137   0.444   0.578 -0.1752 -0.2430 -0.6992
 6671SOL    HW130347   8.221   0.400   0.612  0.5417  0.5783 -1.3732
 6671SOL    HW230348   8.113   0.404   0.489 -0.2195 -0.1328 -0.7367
 6672SOL     OW30349   1.204   7.764   3.388 -0.2786  0.2748 -0.5146
 6672SOL    HW130350   1.150   7.817   3.454 -1.2625 -0.5960 -0.5966
 6672SOL    HW230351   1.224   7.674   3.427  0.6137  0.3784 -0.7272
 6673SOL     OW30352   4.454   2.069   1.718  0.1351 -0.7877 -0.0551
 6673SOL    HW130353   4.364   2.052   1.679 -0.5598  0.3411  1.0257
 6673SOL    HW230354   4.524   2.049   1.650 -1.0590  1.3775 -1.9794
 6674SOL     OW30355   4.201   0.532   2.519 -0.3465  0.5422 -0.1217
 6674SOL    HW130356   4.129   0.554   2.585 -1.4149 -0.1335 -1.0443
 6674SOL    HW230357   4.167   0.465   2.454  1.3319 -0.2699 -0.1984
 6675SOL     OW30358   1.625   1.475   2.615  0.3477  0.0465 -0.5745
 6675SOL    HW130359   1.578   1.525   2.687 -0.9537 -0.5936 -0.9611
 6675SOL    HW230360   1.677   1.539   2.558 -1.7884  1.0629 -1.4463
 6676SOL     OW30361   7.599   2.290   1.739  0.9446  0.4349 -0.0743
 6676SOL    HW130362   7.532   2.294   1.813 -0.2955  1.2260 -1.2028
 6676SOL    HW230363   7.685   2.330   1.770  0.4790  0.6562  0.9719
 6677SOL     OW30364   3.599   5.279   2.363 -0.1501 -0.0553  0.1407
 6677SOL    HW130365   3.564   5.231   2.443  0.7161 -0.7779  0.0973
 6677SOL    HW230366   3.524   5.301   2.301 -0.5824 -1.1556  0.2707
 6678SOL     OW30367   2.455   3.043   1.817  0.4405  0.7193 -0.3204
 6678SOL    HW130368   2.411   3.109   1.757  2.2893  1.7072 -0.6403
 6678SOL    HW230369   2.553   3.041   1.797  0.6882 -0.7463  0.9836
 6679SOL     OW30370   2.882   1.073   2.491  0.6402  0.0883 -0.0792
 6679SOL    HW130371   2.868   1.165   2.455 -0.1988 -0.2390 -0.5991
 6679SOL    HW230372   2.955   1.075   2.559  0.0831  1.2781  0.4977
 6680SOL     OW30373   9.197   9.406   0.741 -0.2772 -0.0979  0.3195
 6680SOL    HW130374   9.155   9.379   0.827 -0.9756 -3.0422 -0.8572
 6680SOL    HW230375   9.140   9.475   0.696 -1.8860 -1.2375  0.5395
 6681SOL     OW30376   1.253   3.966   2.122 -0.3218 -0.4787  0.2961
 6681SOL    HW130377   1.212   3.921   2.042  0.9851 -0.9526 -0.1306
 6681SOL    HW230378   1.299   3.898   2.178  1.1261  0.2198 -0.0139
 6682SOL     OW30379   1.663   3.343   1.507  0.1724  0.4851  0.0376
 6682SOL    HW130380   1.599   3.269   1.489  0.0370  0.3478  1.0620
 6682SOL    HW230381   1.756   3.306   1.513  0.2962  0.6168 -0.9602
 6683SOL     OW30382   2.909   7.546   3.852 -0.5326 -0.3083 -0.1129
 6683SOL    HW130383   2.812   7.556   3.828 -0.7413  1.1983  1.2717
 6683SOL    HW230384   2.958   7.631   3.829  0.2253 -0.6394  0.2785
 6684SOL     OW30385   3.218   9.419   1.381 -0.3428 -0.0257 -0.0753
 6684SOL    HW130386   3.127   9.377   1.378 -1.7596  2.9595 -1.6877
 6684SOL    HW230387   3.276   9.378   1.311 -1.5642  0.3789 -1.3484
 6685SOL     OW30388   9.332   9.206   2.100  0.2042  1.1675  0.2794
 6685SOL    HW130389   9.427   9.185   2.077  0.3468  1.3377  0.7131
 6685SOL    HW230390   9.327   9.245   2.192 -0.5713 -1.3804  1.3807
 6686SOL     OW30391   2.371   7.727   0.916  0.1733  0.8269  0.9997
 6686SOL    HW130392   2.386   7.786   0.996  2.0234 -0.9571  2.0036
 6686SOL    HW230393   2.377   7.631   0.944  1.5312  0.1786 -1.4106
 6687SOL     OW30394   0.383   8.073   2.260  0.5741  0.2075 -0.0707
 6687SOL    HW130395   0.323   8.117   2.327 -0.5473 -0.4061 -0.6496
 6687SOL    HW230396   0.334   8.062   2.174  1.0081 -1.6668 -0.1065
 6688SOL     OW30397   7.724   0.915   3.553 -0.1905 -0.6010 -0.0115
 6688SOL    HW130398   7.746   0.966   3.470 -0.2900  0.3695  0.5515
 6688SOL    HW230399   7.750   0.819   3.542  1.7093 -0.0515 -0.3957
 6689SOL     OW30400   2.871   7.005   0.500  0.9076  0.2055  0.3483
 6689SOL    HW130401   2.881   7.102   0.476  1.6665 -0.1663 -0.9077
 6689SOL    HW230402   2.955   6.974   0.544  1.5543 -0.4311 -1.2826
 6690SOL     OW30403   8.227   1.839   1.217 -0.1100  0.3692 -0.4731
 6690SOL    HW130404   8.211   1.777   1.294  1.0176  2.1645  1.2583
 6690SOL    HW230405   8.176   1.924   1.231  0.6849  1.0065 -1.3623
 6691SOL     OW30406   3.858   0.819   3.884  0.1820 -0.5058  0.8356
 6691SOL    HW130407   3.819   0.901   3.927 -1.7087 -0.8774 -0.0993
 6691SOL    HW230408   3.821   0.738   3.929  0.6231 -0.8681  0.5405
 6692SOL     OW30409   0.399   9.661   3.896 -0.1294  0.4347 -0.3138
 6692SOL    HW130410   0.364   9.568   3.906 -0.0794  0.4907  0.3855
 6692SOL    HW230411   0.458   9.666   3.815  1.1606 -0.5327  0.5486
 6693SOL     OW30412   9.722   1.276   0.884 -0.0042  0.0152  0.5510
 6693SOL    HW130413   9.758   1.338   0.814  0.1743 -0.0610  0.5739
 6693SOL    HW230414   9.790   1.205   0.903 -0.3361 -0.3663  0.3021
 6694SOL     OW30415   9.284   3.892   1.186  0.0240 -0.3419  0.1791
 6694SOL    HW130416   9.339   3.952   1.127 -0.5551  0.2960  0.2775
 6694SOL    HW230417   9.343   3.821   1.225  0.7679  0.2833  0.2178
 6695SOL     OW30418   4.071   7.973   2.143  0.5430 -0.2267 -0.7490
 6695SOL    HW130419   4.006   7.901   2.119 -0.0076  0.2504 -0.7033
 6695SOL    HW230420   4.041   8.017   2.228  1.8127 -1.0982  0.1649
 6696SOL     OW30421   2.711   1.719   4.014 -0.3029  0.1964 -0.4781
 6696SOL    HW130422   2.744   1.789   4.078 -1.0152 -0.0017  0.1105
 6696SOL    HW230423   2.695   1.634   4.063 -0.4059 -0.0885 -1.0072
 6697SOL     OW30424   0.650   0.323   3.905  0.3643 -0.2122 -0.1779
 6697SOL    HW130425   0.736   0.277   3.883  1.0826  1.4092 -0.8540
 6697SOL    HW230426   0.662   0.380   3.987 -0.0799 -0.0446 -0.2229
 6698SOL     OW30427   7.865   8.258   1.283 -0.1700 -0.1762  0.0800
 6698SOL    HW130428   7.858   8.163   1.312  1.2357 -0.3510 -0.1190
 6698SOL    HW230429   7.958   8.277   1.253 -0.5294  1.1691 -0.2261
 6699SOL     OW30430   4.335   1.638   1.389 -0.1656 -0.2414  0.3958
 6699SOL    HW130431   4.250   1.629   1.441 -0.0896 -0.0148  0.5594
 6699SOL    HW230432   4.384   1.551   1.392 -0.5288 -0.4589  0.0606
 6700SOL     OW30433   4.899   8.898   0.864 -0.4527  0.7498 -0.5689
 6700SOL    HW130434   4.955   8.833   0.917 -0.8666  0.4473 -0.5018
 6700SOL    HW230435   4.952   8.981   0.848 -0.1980  0.7064  0.0211
 6701SOL     OW30436   8.705   0.854   3.936  0.6256  0.0320  0.0128
 6701SOL    HW130437   8.710   0.915   4.014 -1.5461  2.6846 -1.8234
 6701SOL    HW230438   8.629   0.791   3.947  0.0708  0.6744 -0.1359
 6702SOL     OW30439   2.486   0.715   2.684  0.6212  0.1869 -0.5374
 6702SOL    HW130440   2.438   0.786   2.632  0.7184 -0.1676 -1.1105
 6702SOL    HW230441   2.582   0.742   2.696  0.7600 -0.0468 -1.1217
 6703SOL     OW30442   8.271   0.091   1.669  0.1702 -0.3063 -0.0433
 6703SOL    HW130443   8.206   0.027   1.710 -0.5594  0.4062 -0.0724
 6703SOL    HW230444   8.338   0.119   1.738 -0.7930  0.5546  0.5608
 6704SOL     OW30445   1.802   7.139   1.966 -0.5988 -0.2706  0.1384
 6704SOL    HW130446   1.813   7.085   2.049 -0.9453  0.9492  1.0008
 6704SOL    HW230447   1.891   7.175   1.938 -1.0757  2.9850  2.5463
 6705SOL     OW30448   0.258   1.380   3.276  0.1428  0.3730  0.4541
 6705SOL    HW130449   0.291   1.458   3.330 -3.6917  3.0769 -0.9007
 6705SOL    HW230450   0.180   1.339   3.322 -2.2026  1.7445 -2.2006
 6706SOL     OW30451   9.672   8.750   0.384 -0.7537  0.2736 -0.0870
 6706SOL    HW130452   9.678   8.692   0.465  1.0589 -3.2430 -2.6293
 6706SOL    HW230453   9.746   8.817   0.385 -0.6736  0.1713  1.0819
 6707SOL     OW30454   2.144   1.495   0.946  0.2776 -0.5478 -0.1655
 6707SOL    HW130455   2.227   1.507   0.891  1.1311 -0.5355  1.1175
 6707SOL    HW230456   2.122   1.398   0.953 -0.8296 -0.4658 -1.9574
 6708SOL     OW30457   2.059   9.787   3.412  0.5672  0.6101  0.5784
 6708SOL    HW130458   1.966   9.787   3.376  1.1659  0.2689 -0.9829
 6708SOL    HW230459   2.083   9.879   3.442 -0.0251  0.8368  0.3674
 6709SOL     OW30460   1.500   1.748   0.182  0.6220  0.0078 -0.3992
 6709SOL    HW130461   1.457   1.669   0.139 -0.4170  0.9518 -1.1264
 6709SOL    HW230462   1.445   1.778   0.259 -0.3356  1.5296 -1.6387
 6710SOL     OW30463   2.338   9.720   4.012  0.0413  0.4340  0.5206
 6710SOL    HW130464   2.239   9.723   4.023  0.0335 -0.3286  0.6381
 6710SOL    HW230465   2.361   9.700   3.917  0.0966  2.1380  0.1533
 6711SOL     OW30466   4.145   8.152   2.756  0.3039 -0.0475 -0.0359
 6711SOL    HW130467   4.194   8.082   2.704 -0.1457 -0.7799  0.5052
 6711SOL    HW230468   4.051   8.158   2.723 -0.5616 -1.9007  1.9261
 6712SOL     OW30469   7.393   2.243   0.844  0.1015 -0.4181  0.5696
 6712SOL    HW130470   7.350   2.162   0.804 -0.7617 -0.6179  1.8630
 6712SOL    HW230471   7.479   2.263   0.795  1.3719 -3.3066  1.4928
 6713SOL     OW30472   9.702   2.771   2.487 -0.1659 -0.4818  0.0431
 6713SOL    HW130473   9.661   2.679   2.484  0.0645 -0.5684 -0.6581
 6713SOL    HW230474   9.646   2.834   2.433  0.4542 -0.5399 -0.6850
 6714SOL     OW30475   2.625   3.811   2.680 -0.2204  0.7152 -0.0763
 6714SOL    HW130476   2.670   3.734   2.723 -1.2261  0.7921  1.1550
 6714SOL    HW230477   2.559   3.778   2.612 -1.2406  0.4608  1.0355
 6715SOL     OW30478   2.771   0.892   2.690  0.2113  0.9630 -0.1856
 6715SOL    HW130479   2.810   0.964   2.634  0.9489  1.7033  1.2611
 6715SOL    HW230480   2.815   0.805   2.668  1.3629  1.4656  0.1082
 6716SOL     OW30481   2.662   9.679   0.511 -0.2990  0.0944  0.0073
 6716SOL    HW130482   2.613   9.763   0.488  1.2075  1.3425  1.2421
 6716SOL    HW230483   2.596   9.605   0.526 -2.0042  2.1170  3.2965
 6717SOL     OW30484   7.130   9.427   0.671 -0.1371  0.0827  0.5995
 6717SOL    HW130485   7.127   9.489   0.593  1.6718  0.5414  0.8927
 6717SOL    HW230486   7.068   9.350   0.655  1.3913 -0.6534 -1.9873
 6718SOL     OW30487   2.837   4.508   3.289  0.1118  0.4846 -0.7429
 6718SOL    HW130488   2.773   4.583   3.275 -0.6580  0.1141  0.6958
 6718SOL    HW230489   2.801   4.446   3.359  2.0389  0.2698  0.0845
 6719SOL     OW30490   2.081   7.805   0.230  0.3757  0.3317  0.5440
 6719SOL    HW130491   2.116   7.841   0.316  1.5162 -1.3293  0.8084
 6719SOL    HW230492   2.157   7.770   0.175 -0.6468 -1.6349  0.3120
 6720SOL     OW30493   1.809   8.462   3.981  0.4146 -0.1434 -0.2092
 6720SOL    HW130494   1.831   8.372   3.944  0.2522 -0.7705  1.1811
 6720SOL    HW230495   1.711   8.466   4.001  0.7090 -0.2630  1.3065
 6721SOL     OW30496   7.357   8.987   3.666  0.4963  0.2220 -0.4041
 6721SOL    HW130497   7.405   8.950   3.746  2.7885  2.3750 -0.6995
 6721SOL    HW230498   7.292   9.056   3.696  1.1279  0.8042 -0.3511
 6722SOL     OW30499   7.775   3.986   0.349 -0.4950 -0.1350 -0.1597
 6722SOL    HW130500   7.709   3.948   0.285 -0.8581  0.3595 -0.0795
 6722SOL    HW230501   7.764   3.942   0.438 -0.2540 -0.5422 -0.3301
 6723SOL     OW30502   8.889   0.635   2.906 -0.5322 -0.0537 -0.5770
 6723SOL    HW130503   8.988   0.634   2.890 -0.1952  1.6438  1.1843
 6723SOL    HW230504   8.843   0.678   2.829  0.4690  2.5362  0.2186
 6724SOL     OW30505   7.547   1.219   2.617  0.1634 -0.1871 -0.1058
 6724SOL    HW130506   7.537   1.206   2.716 -0.1836 -0.3625 -0.1623
 6724SOL    HW230507   7.631   1.270   2.599  0.4620 -0.5412  0.2510
 6725SOL     OW30508   2.673   8.789   0.155  0.2861  0.8111 -0.2823
 6725SOL    HW130509   2.600   8.793   0.224 -0.1799 -0.8265 -0.6582
 6725SOL    HW230510   2.756   8.753   0.197  0.3948  1.0952 -0.2537
 6726SOL     OW30511   2.640   6.688   3.174 -0.3891 -0.5872  0.1256
 6726SOL    HW130512   2.610   6.723   3.085  0.2821  0.5240  0.3292
 6726SOL    HW230513   2.570   6.626   3.210 -0.8026 -0.8249 -1.0367
 6727SOL     OW30514   9.466   1.309   1.324 -0.0626 -0.2259 -0.1785
 6727SOL    HW130515   9.557   1.342   1.299 -0.8208  1.6201 -0.5924
 6727SOL    HW230516   9.474   1.224   1.377  1.8012 -1.0954 -1.8086
 6728SOL     OW30517   1.662   2.428   3.619  0.4641  0.3865  0.5831
 6728SOL    HW130518   1.565   2.438   3.641 -0.3714 -2.5829 -1.4253
 6728SOL    HW230519   1.713   2.403   3.702 -0.5881  1.1713  1.4835
 6729SOL     OW30520   1.862   8.920   2.580  0.4290  0.6224 -0.2670
 6729SOL    HW130521   1.941   8.863   2.599 -1.8641 -3.1034 -1.3894
 6729SOL    HW230522   1.808   8.932   2.663 -0.2315 -0.7192 -0.4926
 6730SOL     OW30523   9.742   3.389   2.975 -0.7523  0.0646 -0.4715
 6730SOL    HW130524   9.796   3.315   2.936  1.4159 -0.2460  2.9265
 6730SOL    HW230525   9.668   3.351   3.031 -0.0900  0.4157  0.6706
 6731SOL     OW30526   2.722   7.457   0.513  0.6906 -0.0277  0.2963
 6731SOL    HW130527   2.648   7.474   0.578  1.0653  1.0534  0.4559
 6731SOL    HW230528   2.714   7.520   0.435 -0.3928 -2.0510 -1.2726
 6732SOL     OW30529   3.516   2.439   3.507 -0.1356  0.7935 -0.3328
 6732SOL    HW130530   3.583   2.455   3.435 -0.4484 -3.5781 -1.7903
 6732SOL    HW230531   3.556   2.461   3.596  2.4291  0.5165 -1.3649
 6733SOL     OW30532   1.761   2.657   0.669 -0.0535  0.2497 -0.1727
 6733SOL    HW130533   1.755   2.695   0.761  0.7384  0.1067 -0.0550
 6733SOL    HW230534   1.708   2.713   0.605  1.7956  2.0657 -0.1725
 6734SOL     OW30535   0.836   4.638   1.273  0.1612  0.4854  0.2903
 6734SOL    HW130536   0.744   4.677   1.278  0.2562  0.7757 -0.2017
 6734SOL    HW230537   0.838   4.565   1.205  0.4783  1.0016 -0.2610
 6735SOL     OW30538   3.160   2.639   1.483  0.3658 -0.2092  0.2102
 6735SOL    HW130539   3.181   2.647   1.581 -1.2040 -1.6416  0.7043
 6735SOL    HW230540   3.087   2.572   1.471  0.1717  0.3598 -1.9199
 6736SOL     OW30541   1.072   4.136   1.456 -0.1913 -0.4851 -0.3927
 6736SOL    HW130542   1.137   4.064   1.480 -0.7410 -0.2853  1.8849
 6736SOL    HW230543   1.116   4.202   1.396  1.3987 -0.8986  0.2789
 6737SOL     OW30544   8.652   9.145   0.242  0.4372 -0.1699 -0.3297
 6737SOL    HW130545   8.725   9.159   0.310  0.7552 -1.1958 -0.4612
 6737SOL    HW230546   8.571   9.109   0.288  0.4268 -0.2199 -0.3871
 6738SOL     OW30547   4.390   9.128   2.821 -0.5861  0.2115  0.1807
 6738SOL    HW130548   4.476   9.172   2.847  0.1697 -0.2940 -1.3993
 6738SOL    HW230549   4.320   9.198   2.806  0.3848  0.8693 -1.4875
 6739SOL     OW30550   1.879   7.580   2.226  0.4478 -0.1400  0.1854
 6739SOL    HW130551   1.891   7.680   2.225  1.5453 -0.2046  2.5703
 6739SOL    HW230552   1.812   7.554   2.157  0.6791  2.1744 -0.9838
 6740SOL     OW30553   9.414   3.950   0.071  0.1254 -0.0914  0.4025
 6740SOL    HW130554   9.476   4.012   0.024 -2.6850  2.0814 -0.5132
 6740SOL    HW230555   9.454   3.924   0.159  2.4528  0.9710 -0.2962
 6741SOL     OW30556   1.071   3.773   3.547  0.8800  0.8118 -0.3094
 6741SOL    HW130557   1.150   3.753   3.489  0.7518  1.6906 -0.7926
 6741SOL    HW230558   1.101   3.818   3.631  0.9333  0.7785 -0.3106
 6742SOL     OW30559   1.462   1.216   2.857 -0.2750 -0.5319  0.2071
 6742SOL    HW130560   1.530   1.240   2.787  0.3744 -0.2130  0.9418
 6742SOL    HW230561   1.370   1.230   2.820  0.0647 -0.2829 -0.5589
 6743SOL     OW30562   0.304   0.240   3.097  0.2927  0.3290  0.4510
 6743SOL    HW130563   0.317   0.308   3.169  0.8087  0.2919  0.3943
 6743SOL    HW230564   0.216   0.194   3.110 -0.4298  1.5733  0.0121
 6744SOL     OW30565   2.807   1.524   2.280 -0.2140 -0.4503 -0.1274
 6744SOL    HW130566   2.852   1.476   2.205 -0.1459 -0.3204 -0.1706
 6744SOL    HW230567   2.868   1.596   2.315  1.4713 -3.1490  2.7783
 6745SOL     OW30568   5.838   8.739   2.635 -0.2127  0.0882 -0.3841
 6745SOL    HW130569   5.895   8.793   2.574 -0.0371  0.3637  0.0196
 6745SOL    HW230570   5.855   8.766   2.730  0.7749 -1.5258 -0.0841
 6746SOL     OW30571   1.257   8.640   2.782 -0.2986 -0.0895  0.0650
 6746SOL    HW130572   1.213   8.640   2.873  1.3434  0.0161  0.8695
 6746SOL    HW230573   1.199   8.590   2.718  0.2448 -3.4045  2.0315
 6747SOL     OW30574   1.787   9.313   2.526 -0.3522 -0.5530  0.5620
 6747SOL    HW130575   1.736   9.234   2.492  0.9627 -1.0062 -0.4131
 6747SOL    HW230576   1.723   9.386   2.552 -1.5002 -1.2768 -0.2102
 6748SOL     OW30577   1.673   2.578   3.370  0.6634 -0.5012 -0.3544
 6748SOL    HW130578   1.742   2.648   3.354  1.2372 -1.0604 -0.3750
 6748SOL    HW230579   1.665   2.560   3.468  0.5697 -0.4632 -0.3544
 6749SOL     OW30580   3.224   0.390   0.925  0.0425 -0.0046 -0.0404
 6749SOL    HW130581   3.307   0.384   0.981 -0.7189 -1.7084  0.9186
 6749SOL    HW230582   3.186   0.483   0.932  0.5492  0.1027  1.4134
 6750SOL     OW30583   3.190   2.495   0.736  0.0387 -0.8349  0.7730
 6750SOL    HW130584   3.096   2.502   0.704 -1.0862 -1.0525  3.9052
 6750SOL    HW230585   3.200   2.417   0.797  2.6992 -1.8627 -0.8543
 6751SOL     OW30586   0.161   8.558   0.338  0.6567  0.3580  0.4652
 6751SOL    HW130587   0.090   8.538   0.271  0.9910  1.0921 -0.1223
 6751SOL    HW230588   0.225   8.625   0.300  1.8294 -0.5151  0.8732
 6752SOL     OW30589   0.740   8.637   0.134  0.2613 -0.1840  0.1194
 6752SOL    HW130590   0.782   8.577   0.066 -1.1629  0.4280 -1.3343
 6752SOL    HW230591   0.753   8.732   0.105 -1.5547  0.0279 -0.0105
 6753SOL     OW30592   2.996   0.423   3.751 -0.3150 -0.0050  0.1198
 6753SOL    HW130593   3.072   0.455   3.694  0.8290 -1.4254  0.8300
 6753SOL    HW230594   2.916   0.482   3.736 -0.1843 -0.5706 -3.2464
 6754SOL     OW30595   4.503   9.973   2.015 -0.1870 -0.0527  0.5110
 6754SOL    HW130596   4.529   9.936   2.105  1.2387  1.8996  0.9369
 6754SOL    HW230597   4.458  10.061   2.027  1.0245  0.7582 -0.7352
 6755SOL     OW30598   5.238   7.826   3.096 -0.0351 -0.1113 -0.1733
 6755SOL    HW130599   5.196   7.786   3.014 -1.1327  2.2299 -0.7674
 6755SOL    HW230600   5.177   7.814   3.174 -1.3991  2.3826 -0.8242
 6756SOL     OW30601   4.772   0.258   3.938 -0.0990 -0.6201  0.3299
 6756SOL    HW130602   4.814   0.182   3.887  0.5013  0.6973 -1.1749
 6756SOL    HW230603   4.685   0.282   3.896  1.5726  2.1430 -1.7031
 6757SOL     OW30604   2.218   1.661   3.148  0.0819 -0.1599 -0.0572
 6757SOL    HW130605   2.247   1.606   3.226 -0.3047  1.6812  1.4242
 6757SOL    HW230606   2.124   1.690   3.161  0.8940  2.5063  0.1793
 6758SOL     OW30607   3.832   2.154   1.117 -0.0945 -0.4165  0.9521
 6758SOL    HW130608   3.790   2.148   1.026 -2.3641 -0.8329  1.9793
 6758SOL    HW230609   3.867   2.246   1.132  0.0572 -0.2752 -0.2474
 6759SOL     OW30610   2.396   2.775   1.839  0.0605 -0.6105 -0.3486
 6759SOL    HW130611   2.420   2.872   1.835 -1.0608 -0.3696 -1.8181
 6759SOL    HW230612   2.366   2.752   1.931 -1.7921  0.9632 -0.5390
 6760SOL     OW30613   1.468   8.487   2.075 -0.1726  0.1840 -0.1466
 6760SOL    HW130614   1.492   8.485   2.172  0.2940  0.2428 -0.2585
 6760SOL    HW230615   1.444   8.395   2.044 -0.5832  0.2120  0.0875
 6761SOL     OW30616   2.601   8.186   1.639  0.1152  0.0049 -0.3883
 6761SOL    HW130617   2.662   8.235   1.701  0.7357  0.3568 -1.2717
 6761SOL    HW230618   2.619   8.088   1.644  0.2458  0.0453 -0.0958
 6762SOL     OW30619   0.470   8.785   0.660 -0.3023  0.2427  0.2755
 6762SOL    HW130620   0.378   8.787   0.699 -0.8078  0.1917 -0.8945
 6762SOL    HW230621   0.517   8.703   0.691 -2.3482 -2.2411 -2.8616
 6763SOL     OW30622   3.735   2.040   3.228 -0.5895  0.6115 -0.0546
 6763SOL    HW130623   3.705   1.959   3.177  1.2508 -0.1854  0.1085
 6763SOL    HW230624   3.732   2.019   3.326  4.0182 -0.8128 -0.1027
 6764SOL     OW30625   3.217   3.621   2.842  0.3312 -0.1627  0.3537
 6764SOL    HW130626   3.316   3.635   2.852  0.5842 -1.7340  0.0618
 6764SOL    HW230627   3.176   3.703   2.802  1.4337  0.7110  0.9932
 6765SOL     OW30628   4.295   9.208   3.177 -0.4137 -0.2189 -0.5067
 6765SOL    HW130629   4.362   9.241   3.244  1.2513  1.9678 -3.1725
 6765SOL    HW230630   4.221   9.161   3.226  1.3618  0.1879  2.7606
 6766SOL     OW30631   9.808   8.131   3.041 -0.3782 -0.1786  0.0828
 6766SOL    HW130632   9.726   8.081   3.013 -0.1653 -0.0760 -0.7271
 6766SOL    HW230633   9.863   8.073   3.102 -0.4094 -0.7250 -0.4098
 6767SOL     OW30634   0.538   3.308   1.482  0.0384  0.6598  0.3254
 6767SOL    HW130635   0.615   3.245   1.469 -0.5287 -0.1461  0.8342
 6767SOL    HW230636   0.470   3.293   1.411 -1.2191 -1.0010  1.8394
 6768SOL     OW30637   2.665   2.502   0.297  0.0168  0.3594  0.1263
 6768SOL    HW130638   2.628   2.592   0.272  0.7281  0.6200  0.0079
 6768SOL    HW230639   2.661   2.442   0.217 -0.9176  0.1259  0.3383
 6769SOL     OW30640   1.993   1.634   1.166 -0.5246 -0.1334 -0.1736
 6769SOL    HW130641   2.027   1.571   1.097 -0.5483 -0.2607 -0.0692
 6769SOL    HW230642   1.937   1.705   1.123  0.2501  0.3416 -0.4043
 6770SOL     OW30643   8.746   1.052   3.733 -0.2063 -0.4771  0.0618
 6770SOL    HW130644   8.842   1.055   3.706 -0.1353  0.7390  0.4307
 6770SOL    HW230645   8.732   0.980   3.801  0.1081 -1.8233 -1.2542
 6771SOL     OW30646   8.454   8.595   0.665 -0.4792 -0.0787  0.2594
 6771SOL    HW130647   8.421   8.608   0.759 -0.9785  3.2586 -0.3139
 6771SOL    HW230648   8.546   8.632   0.657 -1.6919  2.7327 -1.3287
 6772SOL     OW30649   7.665   1.688   0.772 -0.0639 -0.1489 -0.0308
 6772SOL    HW130650   7.601   1.728   0.837 -0.6751 -0.2334 -0.5832
 6772SOL    HW230651   7.669   1.743   0.689  0.9088  0.0976  0.1685
 6773SOL     OW30652   1.925   0.613   1.494  0.3953  0.6554  0.4887
 6773SOL    HW130653   1.839   0.598   1.544 -1.2429  2.7684 -1.5777
 6773SOL    HW230654   1.923   0.560   1.409  0.3748  2.0033 -0.3655
 6774SOL     OW30655   9.295   8.346   0.500 -0.2415  0.5009 -0.2325
 6774SOL    HW130656   9.243   8.381   0.578 -0.2205  0.2791 -0.1189
 6774SOL    HW230657   9.270   8.398   0.418 -1.6973 -0.5390 -0.4678
 6775SOL     OW30658   1.848   1.053   0.365 -0.0614  0.3738  0.3511
 6775SOL    HW130659   1.845   0.960   0.403 -1.2576  0.3921  0.3133
 6775SOL    HW230660   1.922   1.104   0.408  1.0849 -0.8268 -0.1490
 6776SOL     OW30661   6.313   9.941   3.039  0.3523  0.1309 -0.7081
 6776SOL    HW130662   6.360   9.858   3.070  0.0465  0.6324  1.1471
 6776SOL    HW230663   6.381  10.008   3.009  0.7348  0.0920  0.0510
 6777SOL     OW30664   0.839   8.582   2.062  0.0269 -0.2973  0.4557
 6777SOL    HW130665   0.773   8.542   1.998  0.7184  0.5827 -0.8407
 6777SOL    HW230666   0.914   8.518   2.078 -0.1729 -0.5392  0.4262
 6778SOL     OW30667   2.309   6.630   2.587  0.0433 -0.1775 -0.7458
 6778SOL    HW130668   2.289   6.672   2.675  0.4144  2.9827 -2.1293
 6778SOL    HW230669   2.408   6.621   2.575 -0.0224 -1.1151 -0.6123
 6779SOL     OW30670   0.854   7.530   3.624  0.7221  0.0951 -0.1542
 6779SOL    HW130671   0.764   7.539   3.667  1.6965  1.1396  1.7549
 6779SOL    HW230672   0.879   7.618   3.582  1.7354  0.4628  1.1755
 6780SOL     OW30673   8.698   9.039   3.506  0.6129  0.9257 -0.4893
 6780SOL    HW130674   8.786   9.038   3.553  1.0828  0.8000 -1.3712
 6780SOL    HW230675   8.711   9.019   3.409 -0.0861  3.4391 -1.1378
 6781SOL     OW30676   2.201   2.319   2.847 -0.0837 -0.7006  0.7861
 6781SOL    HW130677   2.116   2.372   2.852  0.7295  0.5067  2.4686
 6781SOL    HW230678   2.221   2.298   2.752 -1.1988  0.8072  0.1862
 6782SOL     OW30679   0.704   2.840   2.680  0.1803  0.0865 -0.0519
 6782SOL    HW130680   0.778   2.778   2.707 -1.6709 -1.4941  1.5191
 6782SOL    HW230681   0.631   2.838   2.749 -0.2000  3.5973 -0.2631
 6783SOL     OW30682   1.409   6.439   3.486 -0.1918 -0.4449  0.6092
 6783SOL    HW130683   1.365   6.386   3.414  0.9144  1.1433 -1.3051
 6783SOL    HW230684   1.341   6.471   3.551 -1.6882  0.6882 -1.4514
 6784SOL     OW30685   3.223   2.438   3.563  0.3386 -0.0354 -0.1844
 6784SOL    HW130686   3.161   2.410   3.490  0.4434 -2.7883  0.7158
 6784SOL    HW230687   3.317   2.425   3.533  0.3741 -2.0773  0.7264
 6785SOL     OW30688   0.920   1.442   1.438  0.3057  0.1355  0.4294
 6785SOL    HW130689   0.835   1.495   1.434  0.7278  0.9512  1.8950
 6785SOL    HW230690   0.959   1.448   1.530  2.1758  0.1238 -0.3392
 6786SOL     OW30691   3.284   1.706   2.528 -0.4154  0.4452 -0.4078
 6786SOL    HW130692   3.343   1.654   2.467 -1.9725 -1.5632 -0.2489
 6786SOL    HW230693   3.290   1.669   2.621 -2.5487 -0.3743 -0.5621
 6787SOL     OW30694   9.688   8.366   0.674 -0.1943  0.2420 -0.3331
 6787SOL    HW130695   9.701   8.464   0.693  0.4965 -0.0168  0.5319
 6787SOL    HW230696   9.664   8.319   0.759 -3.2446  0.0968 -1.2184
 6788SOL     OW30697   9.905   9.845   1.407 -0.1287  0.5875 -0.0521
 6788SOL    HW130698   9.813   9.827   1.441 -0.2396  1.1939 -0.0243
 6788SOL    HW230699   9.935   9.769   1.350 -0.8890  0.6664 -0.5704
 6789SOL     OW30700   1.704   9.932   0.681  0.2742 -0.5456 -0.3339
 6789SOL    HW130701   1.737   9.864   0.747  1.7101  0.0687 -0.4089
 6789SOL    HW230702   1.746  10.021   0.701  0.4184 -0.2698 -1.8332
 6790SOL     OW30703   1.054   9.514   0.765 -0.5611  0.2596 -0.5092
 6790SOL    HW130704   0.984   9.472   0.707 -0.8700  1.6621 -1.1818
 6790SOL    HW230705   1.135   9.457   0.766 -0.7673 -0.0728 -1.8750
 6791SOL     OW30706   3.199   5.210   2.625 -0.2021  0.0484  0.2093
 6791SOL    HW130707   3.141   5.243   2.551 -0.4862  2.4976  1.4562
 6791SOL    HW230708   3.294   5.209   2.596 -0.6435 -2.1840 -1.2370
 6792SOL     OW30709   2.643   3.018   2.429  0.1890  0.3606 -0.2914
 6792SOL    HW130710   2.652   2.976   2.520  4.7836  1.1179 -0.2829
 6792SOL    HW230711   2.620   3.115   2.439  0.8549  0.4822  0.0753
 6793SOL     OW30712   2.249   1.894   1.719  0.0889  0.1772  0.2133
 6793SOL    HW130713   2.222   1.892   1.622 -1.5155 -2.6714  0.6698
 6793SOL    HW230714   2.335   1.844   1.730 -0.6772 -1.1070  0.4962
 6794SOL     OW30715   1.166   3.837   2.481 -0.0126  0.3699 -0.6215
 6794SOL    HW130716   1.118   3.924   2.469  0.9989  1.1582  0.9422
 6794SOL    HW230717   1.236   3.828   2.411 -0.6192  0.4629 -1.2474
 6795SOL     OW30718   2.931   8.146   0.044  0.2209 -0.1420 -0.3173
 6795SOL    HW130719   2.988   8.198   0.107  1.7609 -1.8566 -0.2733
 6795SOL    HW230720   2.880   8.077   0.094  0.4345 -0.6382 -0.7801
 6796SOL     OW30721   1.505   0.294   3.640  0.4331 -0.3464 -0.2656
 6796SOL    HW130722   1.451   0.319   3.559 -0.0822  1.5681  0.6257
 6796SOL    HW230723   1.599   0.326   3.629 -0.1616  1.9058  0.7617
 6797SOL     OW30724   1.813   3.928   2.455 -0.0633 -0.3931  0.0182
 6797SOL    HW130725   1.892   3.984   2.429 -0.9483  0.8151 -0.1058
 6797SOL    HW230726   1.737   3.946   2.392 -1.4912  0.8645  2.0324
 6798SOL     OW30727   2.239   3.991   2.517 -0.2266 -0.2939  0.8566
 6798SOL    HW130728   2.196   3.901   2.510  0.8114 -0.9963  3.0184
 6798SOL    HW230729   2.333   3.986   2.481 -0.0049 -0.2062  1.4183
 6799SOL     OW30730   8.142   0.702   0.512 -0.4644  0.1019 -0.8098
 6799SOL    HW130731   8.144   0.602   0.517  1.3686  0.1290 -0.6028
 6799SOL    HW230732   8.175   0.732   0.423  2.7125  0.5934  0.4694
 6800SOL     OW30733   4.887   9.444   3.434 -0.4227  0.4671 -0.4892
 6800SOL    HW130734   4.958   9.439   3.504  1.4736  0.4883 -2.3761
 6800SOL    HW230735   4.896   9.530   3.384 -0.9340 -0.1311 -1.6231
 6801SOL     OW30736   4.887   7.914   1.111  0.2240 -0.3235 -0.0766
 6801SOL    HW130737   4.839   7.998   1.135  1.0691  0.6029 -1.5794
 6801SOL    HW230738   4.822   7.850   1.069 -0.0258  0.3594 -0.7486
 6802SOL     OW30739   4.651   7.220   3.378  0.3267  0.7675 -0.2907
 6802SOL    HW130740   4.561   7.235   3.418  0.0361 -1.2814 -0.1468
 6802SOL    HW230741   4.655   7.265   3.289 -0.5630  1.5525  0.0584
 6803SOL     OW30742   2.935   8.030   0.610  0.0913  0.0597 -0.0877
 6803SOL    HW130743   2.898   7.944   0.577  2.7314 -1.4234  0.6683
 6803SOL    HW230744   2.975   8.081   0.533 -2.2994  1.1043 -0.6946
 6804SOL     OW30745   0.239   9.679   0.887  0.5038  0.3075  0.6783
 6804SOL    HW130746   0.214   9.732   0.806  2.5500  0.6214  0.2189
 6804SOL    HW230747   0.183   9.596   0.892  0.7729 -0.0136 -1.4060
 6805SOL     OW30748   3.047   2.282   2.749  0.4702  0.0594 -0.0870
 6805SOL    HW130749   3.110   2.205   2.748 -1.2333 -1.3468 -0.6586
 6805SOL    HW230750   3.060   2.337   2.667  2.1301  0.7728  0.6297
 6806SOL     OW30751   9.615   9.189   2.011  0.0401 -0.1448  0.4401
 6806SOL    HW130752   9.689   9.122   2.021  1.2441  1.0186 -0.4267
 6806SOL    HW230753   9.654   9.282   2.016 -1.2670  0.4797 -0.7308
 6807SOL     OW30754   0.113   0.069   0.058  0.0071 -0.3565 -0.1530
 6807SOL    HW130755   0.015   0.063   0.039  0.2773  1.5606 -2.3147
 6807SOL    HW230756   0.161   0.000   0.003  0.0847  0.1597 -0.7289
 6808SOL     OW30757   9.970   8.606   0.172 -0.3628 -0.2513  0.2791
 6808SOL    HW130758   9.918   8.654   0.242  2.1844  2.1204  0.6127
 6808SOL    HW230759   9.906   8.561   0.108 -2.8315  2.8326  0.4563
 6809SOL     OW30760   9.546   7.941   3.487 -0.3325  0.1943 -0.3350
 6809SOL    HW130761   9.465   7.963   3.542 -1.0888 -0.5978 -1.1053
 6809SOL    HW230762   9.621   7.914   3.547 -0.4994  1.3461  0.4080
 6810SOL     OW30763   2.719   0.877   0.222 -0.0111 -0.4439  0.1523
 6810SOL    HW130764   2.760   0.839   0.139  0.4730 -0.7112  0.5129
 6810SOL    HW230765   2.620   0.882   0.210  0.1932  1.2318 -1.1536
 6811SOL     OW30766   2.580   0.351   2.333 -0.1445  0.1328  0.1889
 6811SOL    HW130767   2.526   0.334   2.415 -0.5590 -0.3465 -0.1800
 6811SOL    HW230768   2.525   0.403   2.267 -0.6104 -1.4628 -0.7039
 6812SOL     OW30769   8.856   1.917   2.156 -0.3573 -0.0884  0.2189
 6812SOL    HW130770   8.819   1.909   2.064  0.5900  1.6072 -0.3147
 6812SOL    HW230771   8.807   1.854   2.217 -0.0303 -2.2868 -1.7075
 6813SOL     OW30772   9.890   1.949   3.911  0.3418 -0.0721  0.3303
 6813SOL    HW130773   9.832   2.016   3.957 -0.1031 -0.4758  0.3717
 6813SOL    HW230774   9.939   1.993   3.835 -0.0118  0.2767  0.3037
 6814SOL     OW30775   9.651   0.216   1.720 -0.1636  0.9012 -0.3816
 6814SOL    HW130776   9.657   0.218   1.620 -0.6241  1.7285 -0.4018
 6814SOL    HW230777   9.729   0.264   1.759 -0.8150  2.0132 -0.3955
 6815SOL     OW30778   8.516   7.740   0.840 -0.1931 -0.4333  0.2177
 6815SOL    HW130779   8.443   7.804   0.815  1.5666  1.1547 -1.0257
 6815SOL    HW230780   8.531   7.744   0.939 -0.5485  0.6292  0.2405
 6816SOL     OW30781   7.493   1.830   0.961 -0.2486  0.2321  0.0486
 6816SOL    HW130782   7.503   1.817   1.059  0.2434 -0.9359 -0.1464
 6816SOL    HW230783   7.466   1.924   0.942 -0.3843  0.4478  1.3022
 6817SOL     OW30784   2.110   0.431   2.232  0.5159  0.2542  0.2626
 6817SOL    HW130785   2.070   0.507   2.282 -0.6991 -1.0128  1.2459
 6817SOL    HW230786   2.089   0.345   2.279  2.1227 -0.6649 -0.6610
 6818SOL     OW30787   9.299   0.898   3.505  0.3061 -0.7081  0.1937
 6818SOL    HW130788   9.377   0.958   3.523 -1.1259  0.5624  2.4848
 6818SOL    HW230789   9.278   0.845   3.588  0.5236 -3.1920 -1.2964
 6819SOL     OW30790   7.524   9.714   3.627  0.5164 -0.0567  0.2902
 6819SOL    HW130791   7.502   9.808   3.601 -1.0541 -0.3444  0.4851
 6819SOL    HW230792   7.621   9.707   3.651  1.5569  0.6371 -3.4575
 6820SOL     OW30793   2.860   1.671   1.470  0.8499  0.4550 -0.3754
 6820SOL    HW130794   2.934   1.696   1.533  0.0700  1.0232  0.3359
 6820SOL    HW230795   2.841   1.749   1.409 -0.4759  1.0382  0.7510
 6821SOL     OW30796   2.536   6.783   1.513 -0.2242  0.2420 -0.1305
 6821SOL    HW130797   2.613   6.846   1.513 -0.3899  0.4515 -0.6402
 6821SOL    HW230798   2.454   6.830   1.547 -0.6768  0.7298 -1.8416
 6822SOL     OW30799   2.806   9.711   1.652 -0.2506  0.2410  0.0492
 6822SOL    HW130800   2.793   9.806   1.622 -1.0993  0.2807  0.5032
 6822SOL    HW230801   2.757   9.698   1.739  0.4758 -0.4126  0.3596
 6823SOL     OW30802   9.403   8.795   3.061  0.3834  0.1235 -0.5144
 6823SOL    HW130803   9.317   8.842   3.045  0.6501  0.3796 -1.1960
 6823SOL    HW230804   9.476   8.862   3.078  0.6217 -0.0622 -0.7935
 6824SOL     OW30805   1.225   4.480   1.098 -0.3704  0.3284 -0.6044
 6824SOL    HW130806   1.204   4.499   1.002  0.3771  0.0211 -0.8341
 6824SOL    HW230807   1.320   4.449   1.106 -0.7840 -0.7915  0.0764
 6825SOL     OW30808   1.630   3.394   3.557  0.5848 -0.0090  0.1949
 6825SOL    HW130809   1.686   3.472   3.530 -1.1611  1.5763  1.0312
 6825SOL    HW230810   1.577   3.362   3.478  0.3939  0.4251  0.1468
 6826SOL     OW30811   2.854   6.994   2.018  0.5717  0.1115  0.0473
 6826SOL    HW130812   2.780   6.955   1.964  1.5624 -1.4121 -0.2397
 6826SOL    HW230813   2.895   7.070   1.968  0.6962 -0.5143 -0.8229
 6827SOL     OW30814   0.467   7.870   3.845 -0.3322 -0.0285  0.4956
 6827SOL    HW130815   0.409   7.896   3.768  1.0504 -0.8845 -0.8553
 6827SOL    HW230816   0.514   7.951   3.880 -0.1545  0.1892 -0.2363
 6828SOL     OW30817   2.197   4.961   0.646 -0.1114  0.0066  0.4517
 6828SOL    HW130818   2.150   4.873   0.648 -0.6264  0.2655 -0.0923
 6828SOL    HW230819   2.209   4.991   0.551  0.6632  0.2083  0.6065
 6829SOL     OW30820   9.865   2.811   3.857  0.1868  0.6401 -0.3035
 6829SOL    HW130821   9.826   2.860   3.779  1.0802  0.5993 -0.7806
 6829SOL    HW230822   9.887   2.876   3.929 -1.8576  0.5364  0.4581
 6830SOL     OW30823   0.791   2.109   3.939 -0.3355  0.0195  0.0834
 6830SOL    HW130824   0.835   2.141   4.023  0.3969  0.3100 -0.4103
 6830SOL    HW230825   0.815   2.170   3.864  0.0690 -0.9790 -0.6062
 6831SOL     OW30826   1.738   1.635   1.457  0.5282  0.3012  0.4687
 6831SOL    HW130827   1.666   1.704   1.462 -1.5871 -1.9569  3.3836
 6831SOL    HW230828   1.823   1.672   1.493 -0.2646  1.7688  0.8525
 6832SOL     OW30829   1.751   4.832   0.364  0.0158 -0.6430  0.1719
 6832SOL    HW130830   1.678   4.892   0.330 -0.7371 -2.0911 -0.8495
 6832SOL    HW230831   1.839   4.863   0.329 -0.6074 -1.3465 -2.1123
 6833SOL     OW30832   4.251   1.097   3.410 -0.3206  0.2629 -0.0264
 6833SOL    HW130833   4.197   1.171   3.368 -1.0369  0.2714  0.9023
 6833SOL    HW230834   4.208   1.069   3.496 -0.7540 -2.0669 -0.9516
 6834SOL     OW30835   1.072   6.966   0.461 -0.3061  0.3804 -0.3170
 6834SOL    HW130836   0.993   6.904   0.459 -0.2035  0.2296  0.3367
 6834SOL    HW230837   1.099   6.986   0.367 -1.1692  0.4968 -0.5498
 6835SOL     OW30838   8.072   9.761   0.783  0.1944 -0.5014  0.1740
 6835SOL    HW130839   7.995   9.762   0.847 -1.6301  0.3409 -1.9798
 6835SOL    HW230840   8.093   9.854   0.754  1.4378 -0.8177  0.0397
 6836SOL     OW30841   0.474   8.869   1.039  0.1911 -0.7131  0.0620
 6836SOL    HW130842   0.553   8.868   1.099  0.9650 -2.1685 -0.9491
 6836SOL    HW230843   0.435   8.777   1.033 -0.4107 -0.4087 -0.9409
 6837SOL     OW30844   8.996   1.711   0.358 -0.1704 -0.2184 -0.4146
 6837SOL    HW130845   8.910   1.677   0.319  0.1800  0.2961 -1.6556
 6837SOL    HW230846   9.056   1.634   0.377 -1.2594 -0.6681  1.3646
 6838SOL     OW30847   7.136   0.095   0.821  0.0138  0.2544  0.3410
 6838SOL    HW130848   7.233   0.077   0.834 -0.1189 -0.4139  0.3987
 6838SOL    HW230849   7.091   0.015   0.782 -0.5505  0.4925  0.4827
 6839SOL     OW30850   0.174   1.476   2.718 -0.3189 -0.0090  0.0383
 6839SOL    HW130851   0.103   1.523   2.770 -2.6986 -3.4176  0.0341
 6839SOL    HW230852   0.252   1.457   2.777 -1.4072 -0.4242  1.3726
 6840SOL     OW30853   1.608   4.940   3.055 -0.4616  0.1903  0.6002
 6840SOL    HW130854   1.609   4.842   3.038 -0.4922  0.6229 -2.1184
 6840SOL    HW230855   1.519   4.967   3.092 -0.6391 -0.7140  0.8327
 6841SOL     OW30856   2.118   2.257   2.346  0.2017 -0.3218 -0.6792
 6841SOL    HW130857   2.155   2.298   2.263 -1.6534  0.7602 -0.9987
 6841SOL    HW230858   2.018   2.266   2.347 -0.0519 -2.5908  0.4482
 6842SOL     OW30859   2.398   7.897   1.155 -0.6009 -0.4268 -0.3119
 6842SOL    HW130860   2.350   7.843   1.224 -2.3583  0.8504 -0.4965
 6842SOL    HW230861   2.440   7.976   1.199 -0.3709 -0.4653 -0.4648
 6843SOL     OW30862   8.770   3.770   1.651 -0.2945  0.5131  0.1037
 6843SOL    HW130863   8.780   3.846   1.588 -0.3303  0.1631 -0.3244
 6843SOL    HW230864   8.674   3.763   1.681 -0.0780  1.3002  0.9767
 6844SOL     OW30865   2.800   8.218   0.406 -0.2136 -0.0211 -0.1649
 6844SOL    HW130866   2.729   8.288   0.413 -0.4085 -0.1219 -1.0336
 6844SOL    HW230867   2.890   8.261   0.412 -0.2268  0.8250 -4.2717
 6845SOL     OW30868   3.313   2.361   1.367  0.2541  0.4052  0.3661
 6845SOL    HW130869   3.387   2.421   1.398  1.6313 -1.4282  0.6641
 6845SOL    HW230870   3.345   2.306   1.290 -2.0277  2.3533 -2.0712
 6846SOL     OW30871   2.095   0.535   0.803 -0.0246 -0.3812  0.0483
 6846SOL    HW130872   2.096   0.436   0.788  0.5858 -0.6745  1.9316
 6846SOL    HW230873   2.011   0.574   0.764 -0.4902 -1.6997 -0.2873
 6847SOL     OW30874   3.205   2.836   0.168  0.2280 -0.6657  0.2397
 6847SOL    HW130875   3.208   2.816   0.266  2.6116  0.8448  0.5217
 6847SOL    HW230876   3.207   2.935   0.154 -0.6219 -0.8635 -1.3310
 6848SOL     OW30877   3.999   7.522   0.724  0.4766 -0.8817 -0.0439
 6848SOL    HW130878   3.915   7.477   0.753 -2.0355  3.2372 -0.4458
 6848SOL    HW230879   4.042   7.566   0.803  0.9146 -0.8823 -0.2787
 6849SOL     OW30880   3.478   8.946   2.623 -0.0340  0.5364  0.2414
 6849SOL    HW130881   3.423   8.913   2.699  0.2909  0.0157  0.2519
 6849SOL    HW230882   3.482   9.046   2.626  0.2028  0.5055  1.0712
 6850SOL     OW30883   9.500   8.469   1.780 -0.2225 -0.0706 -0.0462
 6850SOL    HW130884   9.514   8.529   1.859 -0.2166 -0.0948 -0.0291
 6850SOL    HW230885   9.404   8.442   1.774  0.2008 -2.0376  1.4013
 6851SOL     OW30886   2.198   7.940   3.375 -0.5711 -0.7090 -0.4321
 6851SOL    HW130887   2.174   7.845   3.394 -1.8945  0.0244  1.7389
 6851SOL    HW230888   2.127   7.982   3.319 -1.3713 -0.2632  0.8838
 6852SOL     OW30889   3.744   7.617   1.708  0.0866  0.2236 -0.1008
 6852SOL    HW130890   3.787   7.689   1.652 -1.3738  0.2311 -1.2357
 6852SOL    HW230891   3.669   7.575   1.657 -1.3826  0.3253  1.9158
 6853SOL     OW30892   2.403   5.731   1.665  0.3716 -0.0153 -0.5297
 6853SOL    HW130893   2.449   5.775   1.588  0.1725 -0.9849 -1.2202
 6853SOL    HW230894   2.332   5.670   1.630 -0.8188  0.7525  0.4804
 6854SOL     OW30895   2.681   0.584   1.471 -0.3657  0.0508 -0.2993
 6854SOL    HW130896   2.666   0.682   1.457  1.5730  0.5751  1.0923
 6854SOL    HW230897   2.769   0.570   1.517 -0.3358 -2.3835 -1.0323
 6855SOL     OW30898   0.864   3.132   0.528  0.0335 -0.2495 -0.4932
 6855SOL    HW130899   0.930   3.200   0.558 -1.1770 -0.8124  3.7825
 6855SOL    HW230900   0.779   3.178   0.500 -0.0814  0.1505  0.4782
 6856SOL     OW30901   1.840   0.314   0.449  0.3694 -0.0578  0.5593
 6856SOL    HW130902   1.756   0.316   0.504  0.3330  0.1765  0.4960
 6856SOL    HW230903   1.917   0.289   0.507  0.2571 -0.2653  0.6203
 6857SOL     OW30904   9.112   9.167   3.568 -0.0567  0.0920  0.1884
 6857SOL    HW130905   9.041   9.100   3.542 -0.2137 -0.4110  1.8642
 6857SOL    HW230906   9.201   9.135   3.535 -0.2055 -0.7115  0.5329
 6858SOL     OW30907   8.474   5.043   1.041  0.5225  0.3605 -0.0527
 6858SOL    HW130908   8.525   4.963   1.074  0.8677 -0.8582 -3.3957
 6858SOL    HW230909   8.539   5.110   1.003  0.0598  1.3045  0.8041
 6859SOL     OW30910   0.605   8.495   1.566 -0.2620  0.1743 -0.2519
 6859SOL    HW130911   0.671   8.423   1.588 -1.8187 -0.9754  0.7487
 6859SOL    HW230912   0.513   8.464   1.588 -1.1841  1.6616 -1.8798
 6860SOL     OW30913   0.597   8.545   1.918  0.0199 -0.4218  0.6262
 6860SOL    HW130914   0.557   8.635   1.935 -0.0130 -0.0814 -1.0838
 6860SOL    HW230915   0.553   8.504   1.838  2.2529 -0.5584 -0.5721
 6861SOL     OW30916   3.096   2.874   3.058 -0.1038 -0.4240 -0.2361
 6861SOL    HW130917   3.132   2.783   3.077 -0.0058 -0.2986  0.1751
 6861SOL    HW230918   3.160   2.924   3.000  0.5441 -0.0804  0.7679
 6862SOL     OW30919   9.824   9.754   0.605 -0.4186 -0.2495  0.2944
 6862SOL    HW130920   9.805   9.809   0.686  0.7132  0.9740 -0.2459
 6862SOL    HW230921   9.754   9.683   0.595 -1.1277  0.2357  1.7620
 6863SOL     OW30922   3.267   0.354   0.368  0.2727  0.4741 -0.3047
 6863SOL    HW130923   3.266   0.329   0.272  1.0762 -1.2955  0.1351
 6863SOL    HW230924   3.308   0.444   0.379 -0.8118  1.1582 -1.7120
 6864SOL     OW30925   5.111   8.203   2.581 -0.2534  0.4842  0.0076
 6864SOL    HW130926   5.107   8.215   2.681 -3.3649  1.1367 -0.1221
 6864SOL    HW230927   5.204   8.219   2.549  0.8949 -0.1571  2.8618
 6865SOL     OW30928   0.212   1.233   3.616 -0.1040  0.1370 -0.1598
 6865SOL    HW130929   0.304   1.222   3.579  0.1504 -1.2638  0.8421
 6865SOL    HW230930   0.147   1.242   3.541  0.8762  1.4578 -0.8741
 6866SOL     OW30931   1.169   8.687   3.721  0.1171  0.2100 -0.2158
 6866SOL    HW130932   1.268   8.696   3.710  0.0091  0.9212 -0.6282
 6866SOL    HW230933   1.140   8.734   3.804  0.3707 -1.6179  0.9443
 6867SOL     OW30934   6.128   9.751   3.355 -0.2651  0.0288 -0.3499
 6867SOL    HW130935   6.135   9.756   3.455  1.5490 -0.9262 -0.3969
 6867SOL    HW230936   6.120   9.843   3.317 -1.1327  0.3890  0.6786
 6868SOL     OW30937   1.930   1.139   1.410  0.0302  0.0295 -0.0600
 6868SOL    HW130938   1.939   1.055   1.464 -1.0064 -0.5498 -0.7661
 6868SOL    HW230939   1.918   1.217   1.472  4.2595  0.1460  0.6994
 6869SOL     OW30940   9.574   2.921   2.298 -0.4489 -0.4496 -0.6919
 6869SOL    HW130941   9.494   2.980   2.315 -0.1891 -0.3466  0.2018
 6869SOL    HW230942   9.597   2.925   2.201 -0.4676  0.8922 -0.6592
 6870SOL     OW30943   9.226   1.996   3.076  0.2288  0.6515  0.4065
 6870SOL    HW130944   9.305   1.953   3.032 -0.3867  0.0123 -0.1005
 6870SOL    HW230945   9.254   2.080   3.122  1.2026  0.4148  0.2515
 6871SOL     OW30946   3.384   5.557   1.687 -0.0947 -0.4477  0.3597
 6871SOL    HW130947   3.409   5.535   1.593  0.5305 -2.0689  0.8857
 6871SOL    HW230948   3.326   5.638   1.688 -0.5709 -0.7429 -1.4804
 6872SOL     OW30949   2.991   5.771   1.078  0.0706 -0.3623 -0.5259
 6872SOL    HW130950   2.976   5.733   0.987  1.0675 -1.5158 -0.2283
 6872SOL    HW230951   3.063   5.718   1.125  1.2085  1.6371  0.0538
 6873SOL     OW30952   1.875   0.299   1.000 -0.4466  0.2378  0.4336
 6873SOL    HW130953   1.965   0.344   1.003  0.1057 -0.5313 -2.4326
 6873SOL    HW230954   1.806   0.365   0.971 -0.0170 -0.1440 -1.5816
 6874SOL     OW30955   3.246   3.342   3.476 -0.3130 -0.0569  0.2200
 6874SOL    HW130956   3.281   3.262   3.426 -1.0721 -1.2783  1.5812
 6874SOL    HW230957   3.187   3.395   3.416 -1.1347 -1.4502 -0.2437
 6875SOL     OW30958   9.678   2.318   3.232 -1.0614  0.4949 -0.1567
 6875SOL    HW130959   9.638   2.281   3.315 -0.0008 -1.0902 -0.3182
 6875SOL    HW230960   9.606   2.345   3.168 -1.8583 -0.9356  0.1397
 6876SOL     OW30961   8.480   0.703   1.303  0.4298  0.1167  0.1461
 6876SOL    HW130962   8.429   0.742   1.226 -1.7915 -0.8626  1.0822
 6876SOL    HW230963   8.539   0.774   1.343  2.8466  0.2323 -3.4059
 6877SOL     OW30964   2.482   0.539   3.184  0.6726 -0.3913 -0.6849
 6877SOL    HW130965   2.486   0.439   3.179 -0.9722 -0.5486  0.6622
 6877SOL    HW230966   2.396   0.567   3.228  1.7419  1.5718  0.2150
 6878SOL     OW30967   9.992   8.100   1.102 -0.2329  0.1437  0.0583
 6878SOL    HW130968   9.904   8.102   1.151 -0.1696 -1.5680  0.2783
 6878SOL    HW230969   9.977   8.069   1.008  0.2131 -0.8700  0.3106
 6879SOL     OW30970   9.157   0.512   0.329 -0.1245 -0.2242 -0.4927
 6879SOL    HW130971   9.186   0.605   0.351 -1.3093 -0.3846  1.8219
 6879SOL    HW230972   9.061   0.513   0.302  0.0189 -0.7017 -1.0203
 6880SOL     OW30973   8.416   0.143   3.604 -0.2144  0.6066  0.1129
 6880SOL    HW130974   8.471   0.222   3.579  1.0663 -0.7984 -1.6530
 6880SOL    HW230975   8.426   0.124   3.701  1.4256  1.1286  0.0506
 6881SOL     OW30976   8.532   9.691   3.882 -0.9006 -0.3099 -0.3358
 6881SOL    HW130977   8.541   9.678   3.783 -3.0273  1.7562 -0.8466
 6881SOL    HW230978   8.490   9.779   3.900  1.1088  0.1171  2.5143
 6882SOL     OW30979   2.249   4.656   1.359  0.1937  0.0762 -0.1376
 6882SOL    HW130980   2.195   4.583   1.316 -0.1698 -0.5649  1.3532
 6882SOL    HW230981   2.217   4.669   1.453  1.8793  0.4858  0.3845
 6883SOL     OW30982   2.857   0.845   2.943 -0.3415 -0.0467 -0.2578
 6883SOL    HW130983   2.771   0.820   2.989 -1.2794  1.4890 -1.1317
 6883SOL    HW230984   2.839   0.861   2.846  1.1085 -0.5273 -0.6107
 6884SOL     OW30985   0.820   1.772   0.855  0.6773 -1.1855  0.1757
 6884SOL    HW130986   0.899   1.712   0.858  0.0808 -1.9606  0.5986
 6884SOL    HW230987   0.738   1.718   0.831  0.0480 -0.6422  1.0755
 6885SOL     OW30988   2.398   6.962   3.236  0.5843 -0.3899 -0.5571
 6885SOL    HW130989   2.488   6.994   3.206  0.7143 -0.4390 -0.2219
 6885SOL    HW230990   2.394   6.862   3.228 -0.3664 -0.1883 -3.1074
 6886SOL     OW30991   7.977   8.430   1.494 -0.9271  0.8163 -0.4966
 6886SOL    HW130992   7.995   8.360   1.563 -1.8526  1.7490  0.7097
 6886SOL    HW230993   7.903   8.399   1.434 -1.8744  1.0755  0.5214
 6887SOL     OW30994   3.161   6.502   0.346  0.1792  0.0547 -0.4506
 6887SOL    HW130995   3.112   6.571   0.292 -1.6009 -1.2129 -0.4989
 6887SOL    HW230996   3.145   6.411   0.307  1.8504 -0.4918  0.0823
 6888SOL     OW30997   2.730   2.418   1.952  0.5546 -0.0386  0.0846
 6888SOL    HW130998   2.674   2.482   2.005  0.9666  0.5278 -0.1553
 6888SOL    HW230999   2.743   2.334   2.005 -0.0305  0.0514  0.3841
 6889SOL     OW31000   2.735   6.172   2.099  0.0608 -0.1591 -0.0736
 6889SOL    HW131001   2.731   6.133   2.191 -0.2371 -0.9489 -0.4184
 6889SOL    HW231002   2.769   6.266   2.104  0.2161 -0.2600  0.8231
 6890SOL     OW31003   1.039   1.687   1.303 -0.4011 -0.2437  0.0908
 6890SOL    HW131004   1.031   1.627   1.223 -0.0283 -0.9399  0.5744
 6890SOL    HW231005   1.048   1.632   1.385 -1.7679  0.4673  0.7349
 6891SOL     OW31006   0.734   1.238   2.982  0.1157 -0.0272 -0.2584
 6891SOL    HW131007   0.651   1.215   3.034 -0.2379 -1.6819 -1.5469
 6891SOL    HW231008   0.809   1.178   3.010  0.3551  0.1264 -0.5662
 6892SOL     OW31009   8.392   2.801   0.508  0.2991 -0.0825 -0.0790
 6892SOL    HW131010   8.422   2.896   0.504  0.5337 -0.2042 -1.7527
 6892SOL    HW231011   8.458   2.742   0.461  1.1265 -1.3478  2.6041
 6893SOL     OW31012   8.678   5.234   0.974  0.5856  0.1646  0.4083
 6893SOL    HW131013   8.715   5.271   1.059  1.1749  0.9563 -0.1849
 6893SOL    HW231014   8.620   5.302   0.930  1.6472  0.4001 -0.6674
 6894SOL     OW31015   1.068   3.133   1.501  0.1560 -0.0065 -0.0494
 6894SOL    HW131016   1.023   3.115   1.414 -0.5283  0.2263  0.2550
 6894SOL    HW231017   1.045   3.062   1.567 -0.5415  0.6237  0.3956
 6895SOL     OW31018   2.250   6.489   1.191 -0.1305  0.6782  0.6212
 6895SOL    HW131019   2.242   6.472   1.092  0.7869  0.0818  0.6423
 6895SOL    HW231020   2.338   6.532   1.210 -1.2144  2.8398  0.9246
 6896SOL     OW31021   1.131   5.301   3.497 -0.0582 -0.4817  0.3670
 6896SOL    HW131022   1.120   5.333   3.590 -0.4953  3.3976 -0.9339
 6896SOL    HW231023   1.042   5.275   3.459 -0.6210  2.2789 -0.3630
 6897SOL     OW31024   4.930   9.644   2.627 -0.6021  0.2218  0.2371
 6897SOL    HW131025   4.886   9.560   2.656 -0.8584  0.2315 -0.1243
 6897SOL    HW231026   4.862   9.717   2.619 -0.7913 -0.1403 -1.8060
 6898SOL     OW31027   4.513   3.310   1.144  0.0182  0.0644  0.2684
 6898SOL    HW131028   4.594   3.367   1.131 -0.8192  0.8965 -1.4896
 6898SOL    HW231029   4.476   3.284   1.055 -1.5501 -0.4617  1.0531
 6899SOL     OW31030   0.837   7.778   1.847 -0.6385  0.4116  0.2476
 6899SOL    HW131031   0.839   7.797   1.749  1.2039 -2.9325 -0.4589
 6899SOL    HW231032   0.743   7.774   1.878 -1.2257  2.4038 -1.1807
 6900SOL     OW31033   3.480   2.188   1.189  0.3222  0.1033  0.5063
 6900SOL    HW131034   3.524   2.229   1.109 -0.2896 -1.4167 -0.6529
 6900SOL    HW231035   3.547   2.175   1.261  0.8989  1.4586  0.2312
 6901SOL     OW31036   9.894   3.524   3.506 -0.1036 -0.0289  0.0430
 6901SOL    HW131037   9.884   3.481   3.416  0.0970  0.2630 -0.1209
 6901SOL    HW231038   9.987   3.559   3.516 -0.5257  1.1948 -0.2016
 6902SOL     OW31039   1.299   6.773   0.846 -0.1558  0.2977 -0.0504
 6902SOL    HW131040   1.241   6.724   0.911  0.0488  3.2126  2.4338
 6902SOL    HW231041   1.393   6.775   0.881  0.3251  0.3671 -1.3351
 6903SOL     OW31042   8.627   0.313   2.906 -0.6258  0.1498  0.5814
 6903SOL    HW131043   8.637   0.219   2.941  1.2102 -1.1284 -3.1619
 6903SOL    HW231044   8.694   0.372   2.951 -0.6979 -0.6394  1.7682
 6904SOL     OW31045   2.716   8.466   2.015  0.2413  0.0432  0.7616
 6904SOL    HW131046   2.642   8.520   2.054 -0.2986 -0.3793  0.3317
 6904SOL    HW231047   2.758   8.410   2.087  0.1201  0.2595  0.9988
 6905SOL     OW31048   0.912   1.829   2.272  0.2298 -0.3001 -0.4372
 6905SOL    HW131049   0.885   1.792   2.360 -1.3494 -0.0314 -0.7926
 6905SOL    HW231050   0.939   1.925   2.283 -1.3213  0.1450 -0.4684
 6906SOL     OW31051   2.004   5.748   0.980  0.5676  0.0650  0.3028
 6906SOL    HW131052   1.973   5.843   0.981 -1.3280 -0.5252  0.7984
 6906SOL    HW231053   2.046   5.728   0.892 -0.5256  0.9161 -0.4343
 6907SOL     OW31054   7.938   8.710   1.576  0.6267 -0.1588 -0.0957
 6907SOL    HW131055   7.943   8.610   1.576  0.5659 -0.1970  2.4011
 6907SOL    HW231056   8.027   8.748   1.551  0.7956 -0.8335 -0.5324
 6908SOL     OW31057   1.018   2.387   2.907  0.7761 -0.5792 -0.1955
 6908SOL    HW131058   1.016   2.287   2.899 -1.3361 -0.5862  0.1112
 6908SOL    HW231059   1.087   2.424   2.845  1.3298 -2.2099 -0.5748
 6909SOL     OW31060   3.691   7.706   2.812 -0.1348 -0.9951  0.4309
 6909SOL    HW131061   3.740   7.647   2.747 -0.4523  0.5396 -1.2527
 6909SOL    HW231062   3.595   7.677   2.817 -0.4182 -0.3125 -0.8078
 6910SOL     OW31063   3.171   9.127   3.840 -0.7824  0.0672 -0.4797
 6910SOL    HW131064   3.208   9.163   3.755 -1.1276  1.8030  0.0885
 6910SOL    HW231065   3.222   9.164   3.918 -2.0650  0.4699  0.1822
 6911SOL     OW31066   1.094   1.601   0.682 -0.0368  0.0605 -0.1364
 6911SOL    HW131067   1.162   1.564   0.618  1.8595  0.8291  1.3815
 6911SOL    HW231068   1.023   1.649   0.631  1.0018 -0.0221 -1.7075
 6912SOL     OW31069   3.586   8.815   0.154  0.4412 -0.2981  0.7159
 6912SOL    HW131070   3.630   8.768   0.230  3.3863  0.8934 -0.2090
 6912SOL    HW231071   3.589   8.914   0.169  2.0089  0.0066 -1.4210
 6913SOL     OW31072   2.350   9.618   0.294 -0.1239  0.3262 -0.4166
 6913SOL    HW131073   2.369   9.696   0.234  0.8664  1.0622  0.8087
 6913SOL    HW231074   2.402   9.539   0.263 -0.3144  0.4519 -1.0570
 6914SOL     OW31075   6.165   8.471   2.996 -0.5619 -0.1246 -0.1596
 6914SOL    HW131076   6.200   8.388   3.040  1.1282  0.6904  0.0908
 6914SOL    HW231077   6.077   8.496   3.037 -0.1450 -0.7078  1.1274
 6915SOL     OW31078   6.577   0.150   3.057  0.0365 -0.6595 -0.1324
 6915SOL    HW131079   6.534   0.150   3.147  2.8873 -0.6592  1.2670
 6915SOL    HW231080   6.569   0.241   3.016 -0.1783 -0.3290  0.6346
 6916SOL     OW31081   3.509   8.109   1.814  0.1048  0.4232  0.6690
 6916SOL    HW131082   3.430   8.078   1.761 -0.2162  0.4759  1.1156
 6916SOL    HW231083   3.590   8.058   1.785 -0.2142 -0.0678  0.6357
 6917SOL     OW31084   9.055   2.020   1.041 -0.1934  0.0738  0.4701
 6917SOL    HW131085   9.135   1.986   1.090 -0.2957 -1.2851 -0.2852
 6917SOL    HW231086   8.973   2.006   1.098 -0.2295 -0.9381  0.1913
 6918SOL     OW31087   1.348   1.262   2.003  0.4436  0.2218  0.1593
 6918SOL    HW131088   1.320   1.166   2.004 -0.7221  0.5485  1.1771
 6918SOL    HW231089   1.271   1.319   2.032  0.5088  1.6443 -2.2986
 6919SOL     OW31090   1.497   3.938   1.029 -0.4029  0.0443  0.4776
 6919SOL    HW131091   1.574   3.906   1.083  0.9015 -0.2758 -1.5092
 6919SOL    HW231092   1.518   4.028   0.991 -1.4349  0.4143  0.7642
 6920SOL     OW31093   9.357   0.203   3.148  0.8166 -0.1036 -0.4636
 6920SOL    HW131094   9.264   0.172   3.131  0.5775 -1.1257  2.4755
 6920SOL    HW231095   9.416   0.177   3.071 -0.5931 -2.6025 -0.7336
 6921SOL     OW31096   0.749   9.467   2.821 -0.8379 -0.7148  0.8369
 6921SOL    HW131097   0.806   9.388   2.844 -0.6436 -0.0999  2.5291
 6921SOL    HW231098   0.663   9.463   2.871 -1.2521 -0.3634  0.1674
 6922SOL     OW31099   8.825   0.166   3.112 -0.3406  0.0097 -0.0253
 6922SOL    HW131100   8.838   0.262   3.136  1.1626  0.0210 -0.8180
 6922SOL    HW231101   8.914   0.123   3.097 -1.0656 -0.8101 -2.2830
 6923SOL     OW31102   2.257   7.910   0.491  0.3278 -0.0258  0.1350
 6923SOL    HW131103   2.313   7.905   0.574  0.6926  1.1479 -0.0325
 6923SOL    HW231104   2.315   7.924   0.412 -0.1151  0.0388 -0.1793
 6924SOL     OW31105   3.764   2.284   0.855 -0.1925  0.0803 -0.2631
 6924SOL    HW131106   3.863   2.279   0.844 -0.4520  0.1840 -2.8077
 6924SOL    HW231107   3.722   2.203   0.814 -1.1595 -0.1151  1.0819
 6925SOL     OW31108   4.259   4.833   1.471  0.0614 -0.1243  0.1363
 6925SOL    HW131109   4.333   4.789   1.521 -0.5050  0.5789  1.6391
 6925SOL    HW231110   4.234   4.919   1.517 -0.8768  0.2377 -1.0195
 6926SOL     OW31111   9.613   8.419   1.136  0.4859  0.3870  0.6862
 6926SOL    HW131112   9.637   8.500   1.083  1.1581  0.0110  0.4149
 6926SOL    HW231113   9.673   8.412   1.215 -0.3214  0.7827  1.3386
 6927SOL     OW31114   8.873   0.224   1.253  0.0878  0.3096 -0.0010
 6927SOL    HW131115   8.793   0.211   1.194 -0.0619 -0.9979  0.4735
 6927SOL    HW231116   8.890   0.322   1.265 -0.5943  0.5904 -1.2453
 6928SOL     OW31117   4.626   0.675   2.271  0.1874 -0.3090 -0.2367
 6928SOL    HW131118   4.621   0.575   2.265 -2.4216 -0.1459 -2.0079
 6928SOL    HW231119   4.705   0.702   2.324  1.7123 -3.3119 -0.8852
 6929SOL     OW31120   4.545   0.641   3.627 -0.3177  0.4424  0.4551
 6929SOL    HW131121   4.600   0.626   3.710 -0.9780  0.0483  0.8273
 6929SOL    HW231122   4.515   0.737   3.624 -0.7379  0.3261  0.9451
 6930SOL     OW31123   7.264   8.677   1.787 -0.0455  0.6313 -0.1089
 6930SOL    HW131124   7.283   8.722   1.874  0.4543 -1.1210  0.7107
 6930SOL    HW231125   7.215   8.592   1.803 -0.6158  0.6484 -1.6086
 6931SOL     OW31126   1.103   8.448   2.071  0.2979  0.3892 -0.5911
 6931SOL    HW131127   1.127   8.493   1.985  3.0337  0.0152 -0.0490
 6931SOL    HW231128   1.153   8.490   2.147 -0.7054 -0.4875  0.5864
 6932SOL     OW31129   7.833   2.616   1.636 -0.5401  0.3020  0.5625
 6932SOL    HW131130   7.823   2.517   1.637 -0.6034  0.3038 -0.0439
 6932SOL    HW231131   7.889   2.645   1.714  2.0015 -0.4753 -0.9042
 6933SOL     OW31132   7.697   2.610   0.531  0.4147  0.2364 -0.4045
 6933SOL    HW131133   7.765   2.683   0.542  1.6410 -1.2033  2.0386
 6933SOL    HW231134   7.699   2.577   0.437  2.4977  0.8572 -0.6206
 6934SOL     OW31135   8.955   8.163   0.544  0.0949 -0.2931 -0.1303
 6934SOL    HW131136   8.961   8.079   0.490  0.3966  0.5804 -1.4844
 6934SOL    HW231137   8.903   8.145   0.628 -0.6156 -1.6011 -0.8290
 6935SOL     OW31138   8.252   7.044   0.569 -0.6052 -0.2875  0.0361
 6935SOL    HW131139   8.343   7.049   0.527 -1.0372 -0.0715 -0.8994
 6935SOL    HW231140   8.251   7.097   0.653 -0.2707  0.9351 -0.7229
 6936SOL     OW31141   4.071   4.258   1.777 -0.6900 -0.5032 -0.2591
 6936SOL    HW131142   4.015   4.239   1.696 -0.9859 -0.4012 -0.0778
 6936SOL    HW231143   4.154   4.306   1.749 -1.6672  1.1806 -0.2794
 6937SOL     OW31144   1.967   8.552   0.558  0.2723 -0.3698  0.4344
 6937SOL    HW131145   1.936   8.626   0.498 -0.4175 -1.7541 -0.9507
 6937SOL    HW231146   2.067   8.557   0.568  0.3072  0.3182 -0.2344
 6938SOL     OW31147   2.544   3.439   1.103 -0.0218  0.1038  0.0123
 6938SOL    HW131148   2.462   3.486   1.069  0.5719  0.2145 -1.2655
 6938SOL    HW231149   2.525   3.342   1.116 -1.4458  0.7354  3.2384
 6939SOL     OW31150   3.130   7.888   0.928 -0.0149  0.6847 -0.3463
 6939SOL    HW131151   3.080   7.857   1.009  0.3061 -1.7945 -1.0633
 6939SOL    HW231152   3.091   7.847   0.846  1.6535  0.6333 -1.1476
 6940SOL     OW31153   1.829   7.500   0.945  0.2243  0.2642  0.4124
 6940SOL    HW131154   1.732   7.485   0.928  0.1498  2.1464 -0.9388
 6940SOL    HW231155   1.874   7.412   0.962 -1.5998 -0.6662  0.5410
 6941SOL     OW31156   2.589   1.852   0.725 -0.0642 -0.2095 -0.0152
 6941SOL    HW131157   2.492   1.832   0.712 -0.0705 -0.5460  0.5153
 6941SOL    HW231158   2.640   1.766   0.735  0.5907 -0.1150 -2.3193
 6942SOL     OW31159   8.192   8.743   0.802 -0.1004  0.6833 -0.2873
 6942SOL    HW131160   8.285   8.736   0.839  0.3787  1.2180 -1.3795
 6942SOL    HW231161   8.137   8.667   0.837  0.2872  1.2973  1.6819
 6943SOL     OW31162   2.713   3.071   0.189 -0.3915 -0.1671 -0.0047
 6943SOL    HW131163   2.723   3.069   0.289 -0.6239  1.8042  0.0878
 6943SOL    HW231164   2.792   3.116   0.149 -0.9953  0.4023 -0.5750
 6944SOL     OW31165   0.547   3.847   2.014 -0.0328  0.2739  0.0341
 6944SOL    HW131166   0.564   3.754   2.047 -1.5785  0.5791  1.8046
 6944SOL    HW231167   0.610   3.910   2.057  0.4895  0.1727 -0.5650
 6945SOL     OW31168   4.145   2.725   0.111 -0.3781 -0.8773  0.2689
 6945SOL    HW131169   4.242   2.746   0.096 -0.5612 -0.2942 -0.0822
 6945SOL    HW231170   4.129   2.629   0.090 -0.4395 -0.3116 -2.3990
 6946SOL     OW31171   2.049   6.118   1.379 -0.3391  0.0233 -0.5499
 6946SOL    HW131172   2.087   6.032   1.413 -1.0629 -0.4699 -0.9619
 6946SOL    HW231173   2.048   6.186   1.452 -0.5876 -0.5954  0.0268
 6947SOL     OW31174   2.227   9.653   3.218 -0.3897  0.5189  0.1896
 6947SOL    HW131175   2.311   9.706   3.207 -0.3552  0.6344  0.9945
 6947SOL    HW231176   2.163   9.703   3.276 -0.6764  0.0405  0.2886
 6948SOL     OW31177   7.565   9.253   0.563 -0.2922  0.3946  0.3614
 6948SOL    HW131178   7.599   9.229   0.473 -0.5232  0.3811  0.2767
 6948SOL    HW231179   7.616   9.203   0.633  0.1845  0.7408  0.2650
 6949SOL     OW31180   9.539   3.557   3.340 -0.0852 -0.1261  0.0512
 6949SOL    HW131181   9.444   3.552   3.373 -0.8964  1.8168 -1.8605
 6949SOL    HW231182   9.592   3.615   3.401 -0.5566  0.1346  0.2195
 6950SOL     OW31183   9.148   7.648   3.885 -0.2719  0.7100 -0.5262
 6950SOL    HW131184   9.082   7.665   3.959  0.9193 -0.2164  0.7865
 6950SOL    HW231185   9.100   7.619   3.803 -1.5610  0.8139  0.1770
 6951SOL     OW31186   3.954   3.749   2.931 -0.3321 -0.7832 -0.0366
 6951SOL    HW131187   3.860   3.722   2.909 -0.9975  0.7610  0.8514
 6951SOL    HW231188   3.956   3.794   3.020  1.0887  0.1999 -0.5513
 6952SOL     OW31189   8.411   7.420   3.757 -0.0904 -0.1346 -0.1947
 6952SOL    HW131190   8.453   7.457   3.674  1.4595 -0.9983  0.1849
 6952SOL    HW231191   8.333   7.477   3.783 -0.8522 -0.1025 -2.4765
 6953SOL     OW31192   2.538   1.626   1.245 -0.5213 -0.0867  0.4540
 6953SOL    HW131193   2.516   1.662   1.155  0.3323  0.5592  0.5006
 6953SOL    HW231194   2.516   1.694   1.315 -0.1737 -0.1687  0.6463
 6954SOL     OW31195   3.142   0.651   1.282 -0.1387 -0.0769 -0.0383
 6954SOL    HW131196   3.107   0.565   1.321 -0.6056  0.9110  1.7817
 6954SOL    HW231197   3.096   0.728   1.327  0.2359  1.1257 -1.7018
 6955SOL     OW31198   2.182   9.094   2.635 -0.0272 -0.1542  0.2109
 6955SOL    HW131199   2.123   9.014   2.621  1.2456 -1.0423 -0.1430
 6955SOL    HW231200   2.141   9.173   2.591 -1.4166 -0.5475  0.7451
 6956SOL     OW31201   8.355   1.806   0.634 -0.1455  0.1793 -0.0853
 6956SOL    HW131202   8.306   1.720   0.617 -0.4680  0.3550 -0.0610
 6956SOL    HW231203   8.440   1.788   0.683 -0.5977 -0.0486  0.6250
 6957SOL     OW31204   0.390   0.570   0.038 -0.1797  0.0034 -0.2697
 6957SOL    HW131205   0.381   0.632   0.116 -0.5826  3.1285 -2.7380
 6957SOL    HW231206   0.366   0.477   0.067 -1.8056  1.3557  2.9477
 6958SOL     OW31207   2.157   4.013   1.618  0.4988  0.0877  0.3847
 6958SOL    HW131208   2.141   4.037   1.714  0.9452  1.8364  0.0473
 6958SOL    HW231209   2.147   3.914   1.606 -0.6075 -0.0241  2.0183
 6959SOL     OW31210   1.534   7.278   0.256  0.1280  0.1186 -0.1741
 6959SOL    HW131211   1.564   7.327   0.338 -1.4610  1.5305 -0.4063
 6959SOL    HW231212   1.516   7.343   0.183 -1.0826 -0.8960 -0.7980
 6960SOL     OW31213   3.178   7.402   1.367  0.0152 -0.8709  0.1186
 6960SOL    HW131214   3.184   7.495   1.332 -1.5419 -0.1179  1.8159
 6960SOL    HW231215   3.125   7.346   1.304 -0.7699 -0.1139  0.1064
 6961SOL     OW31216   5.111   8.419   2.012 -0.3552  0.1482  0.1208
 6961SOL    HW131217   5.168   8.447   1.935 -0.3551  0.0518  0.0861
 6961SOL    HW231218   5.063   8.499   2.048 -1.0001  0.0535 -0.5074
 6962SOL     OW31219   0.662   1.000   1.706 -0.2572  0.3872  0.3234
 6962SOL    HW131220   0.640   0.905   1.732 -0.1118  0.7314  1.7251
 6962SOL    HW231221   0.654   1.059   1.786  0.1980  1.4791 -0.4282
 6963SOL     OW31222   2.398   2.530   0.763  0.1992  0.1877  0.1916
 6963SOL    HW131223   2.388   2.622   0.800 -0.2100 -0.3432  1.4692
 6963SOL    HW231224   2.331   2.516   0.690 -0.7670  0.4113  1.0214
 6964SOL     OW31225   3.727   3.877   2.484  0.1025 -0.4101  0.1449
 6964SOL    HW131226   3.714   3.778   2.472  0.0420 -0.4689  0.6853
 6964SOL    HW231227   3.702   3.903   2.577 -2.6559  0.5741 -0.8189
 6965SOL     OW31228   3.468   6.499   2.337 -0.0300  0.1683 -0.0763
 6965SOL    HW131229   3.409   6.418   2.343 -0.2790  0.3751  0.2749
 6965SOL    HW231230   3.419   6.579   2.371  0.1792  0.4879 -0.5302
 6966SOL     OW31231   0.011   2.804   0.205 -0.2537  0.2203 -0.0003
 6966SOL    HW131232   0.107   2.779   0.216 -0.4678 -0.3466  0.6229
 6966SOL    HW231233  -0.024   2.841   0.291  0.0139  2.5621 -0.8428
 6967SOL     OW31234   3.409   0.996   3.921 -0.0541 -0.6759 -0.4536
 6967SOL    HW131235   3.396   0.949   3.833 -2.8373 -0.4658 -0.2022
 6967SOL    HW231236   3.325   1.044   3.945  0.5039 -1.1319  2.5778
 6968SOL     OW31237   0.313   1.732   2.532 -0.4501 -0.0122 -0.0385
 6968SOL    HW131238   0.316   1.648   2.478 -0.2496  1.4882 -2.4038
 6968SOL    HW231239   0.381   1.727   2.605 -0.2465 -1.7781 -0.3323
 6969SOL     OW31240   1.814   7.801   3.580 -0.1289 -0.8141 -0.4923
 6969SOL    HW131241   1.856   7.731   3.523 -0.4719 -0.3937 -1.2767
 6969SOL    HW231242   1.841   7.788   3.675  1.3279 -0.8650 -0.9126
 6970SOL     OW31243   3.999   8.470   0.056  0.2770  0.1501  0.3943
 6970SOL    HW131244   3.963   8.390   0.103  0.6304 -1.3422 -1.8001
 6970SOL    HW231245   3.925   8.536   0.042 -0.7562 -1.1571 -0.5005
 6971SOL     OW31246   2.679   2.875   2.652 -0.0283  0.1313 -0.7766
 6971SOL    HW131247   2.750   2.868   2.722 -1.7089 -2.1861  0.8092
 6971SOL    HW231248   2.655   2.783   2.620 -0.6647  1.0458 -2.9899
 6972SOL     OW31249   4.278   7.752   3.365  0.9017  0.2784 -0.3199
 6972SOL    HW131250   4.233   7.782   3.281  0.9936  0.9282 -0.1446
 6972SOL    HW231251   4.351   7.689   3.343 -0.5122 -1.3118 -0.5639
 6973SOL     OW31252   9.500   9.638   2.538 -0.7107 -0.3239  0.2019
 6973SOL    HW131253   9.421   9.628   2.477 -1.0347  0.2000  0.5282
 6973SOL    HW231254   9.480   9.709   2.606 -0.1964 -0.6255  0.6673
 6974SOL     OW31255   1.247   6.505   3.679  0.5084  0.1536 -0.2824
 6974SOL    HW131256   1.262   6.593   3.723 -0.6040  0.5880 -0.7387
 6974SOL    HW231257   1.243   6.433   3.748 -0.8956  0.7788  0.3035
 6975SOL     OW31258   8.312   0.184   0.896  0.6110 -0.2234 -0.2197
 6975SOL    HW131259   8.311   0.144   0.988 -1.2669  1.0783  0.3543
 6975SOL    HW231260   8.344   0.279   0.901 -2.4727  0.8753 -0.4312
 6976SOL     OW31261   2.835   8.329   2.232 -0.3866 -0.2011  0.2240
 6976SOL    HW131262   2.796   8.263   2.296  0.5167 -0.4509  0.5349
 6976SOL    HW231263   2.885   8.281   2.160  2.3959  0.1485  1.8333
 6977SOL     OW31264   2.906   0.461   0.430 -0.7631  0.3408 -0.2080
 6977SOL    HW131265   2.949   0.470   0.340 -0.3848 -0.1282 -0.0757
 6977SOL    HW231266   2.943   0.530   0.492  0.8607 -0.9687  0.3150
 6978SOL     OW31267   3.448   1.627   2.764 -0.0176 -0.7720  0.4380
 6978SOL    HW131268   3.500   1.615   2.849 -0.4443  0.6940  0.9314
 6978SOL    HW231269   3.509   1.663   2.693 -0.2073  0.4491  0.8695
 6979SOL     OW31270   0.030   7.761   0.829 -0.1204 -0.8792  0.2879
 6979SOL    HW131271   0.060   7.834   0.891  0.0160 -0.2180 -0.5532
 6979SOL    HW231272   0.110   7.718   0.787 -0.2522 -0.6528 -0.1989
 6980SOL     OW31273   4.410   3.081   3.285  0.0483 -0.5029 -0.4221
 6980SOL    HW131274   4.455   3.095   3.196  1.0730 -1.0869 -0.0083
 6980SOL    HW231275   4.416   3.165   3.339  0.5285 -0.5228 -0.4348
 6981SOL     OW31276   1.666   8.943   0.587 -0.4559  0.4620 -0.2231
 6981SOL    HW131277   1.587   8.997   0.558 -0.9159  1.0878  2.0997
 6981SOL    HW231278   1.645   8.846   0.577 -0.8264  0.6429 -1.3500
 6982SOL     OW31279   0.670   1.137   1.203 -0.0005 -0.6265 -0.5187
 6982SOL    HW131280   0.610   1.211   1.234 -1.1759 -2.7153  2.4226
 6982SOL    HW231281   0.763   1.154   1.235 -0.5100 -0.9891  1.2256
 6983SOL     OW31282   2.416   9.966   1.769 -0.2741  0.4599  0.5154
 6983SOL    HW131283   2.446   9.900   1.837  1.6048  0.2524 -0.4978
 6983SOL    HW231284   2.401  10.055   1.812  0.7387  0.2845  1.2216
 6984SOL     OW31285   1.817   4.823   3.461  0.0900 -0.3371 -0.4467
 6984SOL    HW131286   1.904   4.822   3.509 -0.9790 -1.4051  1.5359
 6984SOL    HW231287   1.810   4.906   3.406  2.2371 -0.1281 -0.4413
 6985SOL     OW31288   4.183   0.170   0.873  0.4517  0.1195 -0.1680
 6985SOL    HW131289   4.241   0.109   0.818 -0.8545 -0.0523 -1.3843
 6985SOL    HW231290   4.202   0.265   0.849 -0.8490  0.0048 -1.6682
 6986SOL     OW31291   2.137   1.685   0.540  0.4451  0.1900  0.0774
 6986SOL    HW131292   2.211   1.731   0.590 -1.9426  3.5976  0.6904
 6986SOL    HW231293   2.062   1.666   0.603  0.4762 -2.6524 -0.6748
 6987SOL     OW31294   0.232   8.922   2.122  0.2372  0.0652 -0.4257
 6987SOL    HW131295   0.183   8.917   2.209 -0.0065  2.6682 -0.3643
 6987SOL    HW231296   0.171   8.898   2.047  0.0823 -0.8746 -0.0128
 6988SOL     OW31297   2.585   4.912   0.545 -0.6992 -0.6344 -0.2304
 6988SOL    HW131298   2.599   4.980   0.474 -1.8252 -1.5982 -1.3961
 6988SOL    HW231299   2.673   4.877   0.576 -0.1886  0.0979 -0.8514
 6989SOL     OW31300   4.060   4.732   1.317 -0.1415  0.2250  0.6102
 6989SOL    HW131301   4.056   4.632   1.323  0.5275  0.2957  2.2451
 6989SOL    HW231302   4.128   4.767   1.380  0.5061  1.6524 -0.8449
 6990SOL     OW31303   2.431   1.700   0.995  0.7082  0.2071 -0.1694
 6990SOL    HW131304   2.337   1.733   0.986  1.2718  1.8949  0.0023
 6990SOL    HW231305   2.450   1.632   0.925 -1.0048 -1.0139  0.5126
 6991SOL     OW31306   9.765   3.454   0.402 -0.0707  0.7024  0.6470
 6991SOL    HW131307   9.779   3.493   0.311 -1.1624  2.2248  1.1226
 6991SOL    HW231308   9.772   3.354   0.397 -1.2198  0.7035 -1.3054
 6992SOL     OW31309   1.694   8.942   1.930  0.0491  0.5815  0.2900
 6992SOL    HW131310   1.598   8.938   1.903 -0.0416  0.0345  0.6703
 6992SOL    HW231311   1.750   8.891   1.864 -0.1594 -0.6614  1.0379
 6993SOL     OW31312   3.583   4.066   2.382 -0.5104 -0.0389 -0.6377
 6993SOL    HW131313   3.525   4.003   2.330 -0.9043 -1.9506  2.0390
 6993SOL    HW231314   3.668   4.021   2.407 -0.5322  0.7085  0.7871
 6994SOL     OW31315   4.857   7.538   1.358 -0.1030 -0.6503 -0.2698
 6994SOL    HW131316   4.895   7.625   1.389 -0.8390  0.2864 -1.9334
 6994SOL    HW231317   4.762   7.531   1.387  0.1941 -1.2698  0.5638
 6995SOL     OW31318   3.079   1.963   1.331 -0.5541 -0.1851 -0.1696
 6995SOL    HW131319   3.057   1.895   1.401 -2.2871  0.9095  0.3866
 6995SOL    HW231320   3.112   2.047   1.375  0.3970 -0.2372 -0.7799
 6996SOL     OW31321   1.232   3.365   0.098  0.3713  0.0037  0.0530
 6996SOL    HW131322   1.240   3.458   0.133 -0.2495  0.1680 -0.2342
 6996SOL    HW231323   1.168   3.313   0.155 -1.0576  0.4274 -1.1192
 6997SOL     OW31324   2.720   6.192   3.936 -0.0762  0.0062 -0.1418
 6997SOL    HW131325   2.708   6.157   3.844  1.0594  1.0370 -0.7067
 6997SOL    HW231326   2.753   6.287   3.931 -0.4934  0.2364  1.3183
 6998SOL     OW31327   7.962   8.547   3.364  0.0207 -0.4040 -0.4699
 6998SOL    HW131328   8.036   8.539   3.298 -0.4543  0.7985 -1.1650
 6998SOL    HW231329   7.905   8.465   3.362  0.2021 -0.5061 -1.3106
 6999SOL     OW31330   2.197   1.051   1.265  0.1254 -0.4438  0.0820
 6999SOL    HW131331   2.293   1.066   1.243 -0.3500  1.6888 -0.6515
 6999SOL    HW231332   2.177   1.090   1.355 -0.2374 -0.1310 -0.1315
 7000SOL     OW31333   9.773   0.934   3.165 -0.4453  0.4188 -0.9606
 7000SOL    HW131334   9.680   0.937   3.128 -0.3239  0.5485 -1.2508
 7000SOL    HW231335   9.780   0.857   3.229 -0.8178  0.5520 -0.7582
 7001SOL     OW31336   8.594   4.621   0.934  0.2725 -0.5007  0.0860
 7001SOL    HW131337   8.532   4.601   1.010  0.3484 -0.0703  0.2603
 7001SOL    HW231338   8.558   4.580   0.850 -0.3546 -0.0771  0.1473
 7002SOL     OW31339   4.584   9.656   3.095  0.0756  0.0438  0.5517
 7002SOL    HW131340   4.543   9.741   3.127 -1.9635 -1.0762  0.9482
 7002SOL    HW231341   4.683   9.658   3.113 -0.2745  1.4645  2.4269
 7003SOL     OW31342   2.835   6.054   2.627  0.1309 -0.3941  0.0689
 7003SOL    HW131343   2.790   6.144   2.622  1.5803  0.3312 -0.3627
 7003SOL    HW231344   2.790   5.998   2.696 -0.3173  0.9604  0.9019
 7004SOL     OW31345   2.679   9.530   1.263  0.1885  0.6341  0.0269
 7004SOL    HW131346   2.671   9.537   1.362  0.9485  1.3538  0.0378
 7004SOL    HW231347   2.661   9.435   1.235 -1.1768  0.6681  0.7296
 7005SOL     OW31348   2.023   3.139   0.509 -0.0411 -0.1278 -0.0276
 7005SOL    HW131349   2.067   3.188   0.584  2.5202  0.5241 -1.8883
 7005SOL    HW231350   1.944   3.089   0.544  0.6049  0.8128  2.9330
 7006SOL     OW31351   9.993   0.279   2.208  0.1294 -0.0875  0.3652
 7006SOL    HW131352   9.963   0.316   2.296  3.0503  3.5569 -0.0473
 7006SOL    HW231353  10.092   0.268   2.209  0.2964  0.7758 -2.7010
 7007SOL     OW31354   3.346   5.728   2.746 -0.9235  0.0611  0.2502
 7007SOL    HW131355   3.323   5.638   2.708 -1.2100 -0.8852  2.5976
 7007SOL    HW231356   3.351   5.795   2.672 -1.6940 -1.6813 -1.4139
 7008SOL     OW31357   1.301   3.298   3.013  0.1491 -0.1912  0.4236
 7008SOL    HW131358   1.239   3.253   3.077 -2.0518  1.8408 -0.1970
 7008SOL    HW231359   1.364   3.358   3.063 -1.0580  0.8002  0.7983
 7009SOL     OW31360   2.791   7.327   1.705  0.3533  0.4593 -0.1483
 7009SOL    HW131361   2.795   7.327   1.605  2.6104 -0.0833 -0.0923
 7009SOL    HW231362   2.824   7.414   1.740  1.1347  0.0488  0.1520
 7010SOL     OW31363   2.659   8.853   2.017  0.5751 -0.7970 -0.0429
 7010SOL    HW131364   2.746   8.813   2.045  0.8816  0.0109  0.1937
 7010SOL    HW231365   2.604   8.875   2.097  0.4831 -0.5839 -0.1623
 7011SOL     OW31366   5.176   9.095   1.880  0.8002 -0.1459  0.8270
 7011SOL    HW131367   5.220   9.089   1.790  0.0272  0.1027  0.4289
 7011SOL    HW231368   5.159   9.191   1.902  1.7148 -0.1570  1.5970
 7012SOL     OW31369   9.216   1.325   2.299 -0.0743 -0.3908 -0.0266
 7012SOL    HW131370   9.228   1.371   2.387  0.1664 -1.2266  0.3821
 7012SOL    HW231371   9.118   1.310   2.282 -0.0946 -0.6940  0.3486
 7013SOL     OW31372   2.941   4.964   1.228 -0.0499 -0.4143  0.1371
 7013SOL    HW131373   2.897   4.961   1.138  0.5087 -0.2897 -0.1498
 7013SOL    HW231374   2.970   4.871   1.254  1.5218 -0.1887 -0.7080
 7014SOL     OW31375   9.383   8.622   2.214 -0.2157 -0.2597 -0.2350
 7014SOL    HW131376   9.348   8.672   2.294  2.3347  0.5871  0.3825
 7014SOL    HW231377   9.399   8.527   2.240 -2.9292 -0.9238 -0.8013
 7015SOL     OW31378   7.207   3.472   0.201  0.4108  0.3327 -0.1466
 7015SOL    HW131379   7.173   3.429   0.285 -1.0674 -3.6289 -2.6490
 7015SOL    HW231380   7.286   3.422   0.167  1.6023  2.5036 -0.6475
 7016SOL     OW31381   2.935   3.595   0.084  0.4265  0.1420 -0.4363
 7016SOL    HW131382   2.998   3.616   0.159  0.7639  0.2094 -0.7340
 7016SOL    HW231383   2.966   3.514   0.036  0.7243  0.6329 -1.0728
 7017SOL     OW31384   3.974   8.187   3.326 -0.1561  0.0981  0.1973
 7017SOL    HW131385   4.033   8.190   3.407 -1.0998  0.5441  0.8940
 7017SOL    HW231386   4.016   8.238   3.252  0.6383 -0.1476  0.4801
 7018SOL     OW31387   8.859   4.359   0.474  0.3932 -0.3733  0.1826
 7018SOL    HW131388   8.887   4.341   0.569  3.1762  1.4742 -0.2104
 7018SOL    HW231389   8.860   4.273   0.423  1.8945 -0.9338  1.1078
 7019SOL     OW31390   0.652   3.928   1.104 -0.0585 -0.4798 -0.4915
 7019SOL    HW131391   0.554   3.929   1.120  0.3004 -0.1261  1.9790
 7019SOL    HW231392   0.678   4.008   1.049 -0.9891  0.1312 -0.0617
 7020SOL     OW31393   8.739   1.451   3.926 -0.0418 -0.1223  0.4295
 7020SOL    HW131394   8.725   1.490   3.835 -2.2342 -1.7465  0.0210
 7020SOL    HW231395   8.651   1.417   3.961  0.8153  0.2481  3.0426
 7021SOL     OW31396   1.938   5.866   2.720 -0.0762 -1.0892 -0.1678
 7021SOL    HW131397   1.971   5.789   2.774  0.7429 -1.4155 -1.1184
 7021SOL    HW231398   1.854   5.840   2.672 -0.9732 -0.7034  1.1574
 7022SOL     OW31399   3.204   1.860   3.151  0.3120 -0.1195  0.7133
 7022SOL    HW131400   3.239   1.828   3.239 -0.7273  0.1965  1.2584
 7022SOL    HW231401   3.213   1.960   3.146  1.6754 -0.2784 -0.1355
 7023SOL     OW31402   6.953   9.359   1.030  0.3798 -0.3842 -0.1407
 7023SOL    HW131403   7.040   9.395   0.996  1.5547 -0.1417  2.9583
 7023SOL    HW231404   6.879   9.394   0.973  1.9922  2.3509 -0.6913
 7024SOL     OW31405   7.670   1.548   3.782 -0.2562  0.1864  0.4126
 7024SOL    HW131406   7.645   1.528   3.688 -0.5495  2.7041 -0.0794
 7024SOL    HW231407   7.768   1.530   3.796 -0.4081 -1.0784 -0.0953
 7025SOL     OW31408   3.081   5.627   3.558  0.0194 -0.0050  0.4131
 7025SOL    HW131409   3.087   5.586   3.467 -0.6187 -0.5734  0.6216
 7025SOL    HW231410   3.136   5.573   3.622 -0.1369 -0.0453  0.5138
 7026SOL     OW31411   4.574   8.115   1.537  0.0756 -0.7155 -0.4899
 7026SOL    HW131412   4.536   8.166   1.614 -1.0892  0.4505 -1.8119
 7026SOL    HW231413   4.525   8.029   1.526 -1.0285 -0.0211 -1.0905
 7027SOL     OW31414   3.989   7.338   0.196 -0.4957 -0.0257  0.1899
 7027SOL    HW131415   3.962   7.244   0.176 -1.5286  0.3310 -0.1163
 7027SOL    HW231416   4.068   7.363   0.140  1.1847 -1.4230  1.8463
 7028SOL     OW31417   2.103   9.689   0.354  0.0016 -0.1489 -0.3464
 7028SOL    HW131418   2.111   9.751   0.432  0.5231  0.1386 -0.6328
 7028SOL    HW231419   2.192   9.648   0.334 -0.7611 -2.8100  1.3428
 7029SOL     OW31420   0.573   4.211   1.785 -0.1649  0.0869 -0.5666
 7029SOL    HW131421   0.618   4.127   1.754  1.1565  0.3138  0.6749
 7029SOL    HW231422   0.503   4.188   1.853 -0.3734 -0.0634 -0.8274
 7030SOL     OW31423   4.750   8.699   1.170  0.2651 -0.2014  0.2664
 7030SOL    HW131424   4.711   8.608   1.183 -0.9089  0.1544 -0.6466
 7030SOL    HW231425   4.717   8.738   1.084  1.4837  0.7245  0.1942
 7031SOL     OW31426   8.125   2.421   1.776 -0.0141  0.6435  0.5039
 7031SOL    HW131427   8.207   2.386   1.821 -1.4755 -1.4231  1.6247
 7031SOL    HW231428   8.142   2.429   1.678  1.7162  0.8632  0.7911
 7032SOL     OW31429   0.337   1.396   1.127  0.7558  0.6099  0.5069
 7032SOL    HW131430   0.246   1.355   1.126  1.4590 -0.9667  0.2158
 7032SOL    HW231431   0.377   1.391   1.035  1.8284 -0.2561  1.0187
 7033SOL     OW31432   8.210   1.974   4.010 -0.2298 -0.6122 -0.0967
 7033SOL    HW131433   8.186   1.890   3.963 -1.1885  0.5658 -1.7539
 7033SOL    HW231434   8.264   2.032   3.950 -0.2429  0.2951  0.7530
 7034SOL     OW31435   2.955   3.027   2.539 -0.4185 -0.0000  0.1121
 7034SOL    HW131436   2.962   2.957   2.610  0.3108 -0.2572 -0.2083
 7034SOL    HW231437   2.925   3.113   2.580 -2.5579 -0.8051  0.3119
 7035SOL     OW31438   0.249   2.583   1.142 -0.5045  0.4635  0.4194
 7035SOL    HW131439   0.340   2.553   1.115 -0.1169  2.0706 -0.1403
 7035SOL    HW231440   0.186   2.505   1.141  0.6926 -0.5103  0.0666
 7036SOL     OW31441   0.883   0.834   2.447 -0.2655  0.4895  0.0141
 7036SOL    HW131442   0.785   0.845   2.427 -0.2215  0.5360 -0.1819
 7036SOL    HW231443   0.902   0.739   2.471 -0.1252  0.1820 -1.2823
 7037SOL     OW31444   3.000   4.015   1.160 -0.0736 -0.0228 -0.0577
 7037SOL    HW131445   2.935   4.003   1.085 -0.2523 -1.7131  0.3488
 7037SOL    HW231446   3.093   4.013   1.124 -0.2160  2.1917 -0.6126
 7038SOL     OW31447   4.239   7.900   3.590 -0.1267  0.0645  0.4633
 7038SOL    HW131448   4.211   7.859   3.503  0.2663 -2.0347  1.3098
 7038SOL    HW231449   4.168   7.885   3.659 -0.0360  0.9426  0.7601
 7039SOL     OW31450   9.598   8.031   0.544  0.4865  0.0585  0.0227
 7039SOL    HW131451   9.592   7.969   0.465  0.6551 -0.6512  0.5600
 7039SOL    HW231452   9.581   8.125   0.514 -0.2820 -0.3085 -0.7189
 7040SOL     OW31453   8.632   8.742   1.683  0.0674 -0.7271 -0.0230
 7040SOL    HW131454   8.666   8.806   1.614  0.8887 -0.6296  0.4653
 7040SOL    HW231455   8.707   8.716   1.744 -0.8838 -0.0026  1.4699
 7041SOL     OW31456   4.293   8.488   1.621 -0.0492 -0.1422 -0.8525
 7041SOL    HW131457   4.240   8.463   1.541 -0.8666  2.5144 -1.1641
 7041SOL    HW231458   4.374   8.540   1.593 -0.5652  1.1742  0.0753
 7042SOL     OW31459   8.642   7.174   0.835  0.2902 -0.6038 -0.6395
 7042SOL    HW131460   8.599   7.097   0.788  0.8341 -1.4218  0.1801
 7042SOL    HW231461   8.619   7.171   0.932  1.9546 -0.9176 -0.2303
 7043SOL     OW31462   1.083   0.724   4.005  0.3796  0.0548  0.0257
 7043SOL    HW131463   1.019   0.653   4.033 -0.9134  1.5160  0.8678
 7043SOL    HW231464   1.063   0.753   3.912 -0.3288  0.6547  0.3616
 7044SOL     OW31465   9.874   3.356   3.287  0.5311  0.1532 -0.2999
 7044SOL    HW131466   9.821   3.409   3.221  0.4016  0.8556  0.3597
 7044SOL    HW231467   9.942   3.301   3.239  0.6340  0.8910 -1.0045
 7045SOL     OW31468   0.035   1.142   0.054 -0.2348 -0.3718 -0.6046
 7045SOL    HW131469   0.038   1.148  -0.046 -0.0472  1.7053 -0.4897
 7045SOL    HW231470   0.122   1.106   0.087  0.6664  1.3378 -1.0572
 7046SOL     OW31471   9.361   9.958   3.346  0.5113  0.7508  0.0747
 7046SOL    HW131472   9.373   9.880   3.286  1.1863 -0.0647  1.2440
 7046SOL    HW231473   9.276  10.005   3.323  0.2280 -0.1665 -0.8047
 7047SOL     OW31474   2.432   1.202   2.564  0.4162 -0.0647  0.1874
 7047SOL    HW131475   2.444   1.298   2.541  1.4270 -0.1510  0.3456
 7047SOL    HW231476   2.519   1.163   2.595 -0.4993 -0.3945  2.5055
 7048SOL     OW31477   3.971   0.844   3.630 -1.4447  0.2247 -0.1460
 7048SOL    HW131478   4.006   0.761   3.586 -0.1566  0.8858 -0.3933
 7048SOL    HW231479   3.949   0.825   3.726 -0.2843 -0.1767  0.0436
 7049SOL     OW31480   1.008   2.293   3.892 -0.0393 -0.1687 -0.5642
 7049SOL    HW131481   1.105   2.304   3.869  0.0661 -0.6845 -0.3734
 7049SOL    HW231482   0.993   2.321   3.987 -0.5553  2.3906 -1.3611
 7050SOL     OW31483   8.757   9.254   1.308 -0.3190 -0.0909  0.3135
 7050SOL    HW131484   8.772   9.321   1.235 -2.1186  0.3158  0.2963
 7050SOL    HW231485   8.659   9.234   1.315  0.0960 -1.9130  1.0472
 7051SOL     OW31486   3.472   9.927   0.204  0.1153 -0.2911 -0.0402
 7051SOL    HW131487   3.393   9.889   0.156  1.0071 -1.0560 -0.9240
 7051SOL    HW231488   3.447  10.014   0.245 -1.3431 -0.7783  0.1497
 7052SOL     OW31489   7.945   5.841   0.750  0.4538  0.4459  0.1585
 7052SOL    HW131490   7.959   5.937   0.722 -1.0730  1.1388  1.6809
 7052SOL    HW231491   8.007   5.818   0.824 -1.3936  1.3201  2.0479
 7053SOL     OW31492   1.646   6.277   0.909 -0.4690 -0.5964 -0.0679
 7053SOL    HW131493   1.731   6.258   0.860  0.5489 -0.0349  1.4389
 7053SOL    HW231494   1.662   6.268   1.007 -1.6279  1.4869  0.3457
 7054SOL     OW31495   4.039   1.426   2.093  0.0888 -0.2202  0.3693
 7054SOL    HW131496   3.950   1.401   2.054 -0.1251 -0.9485  1.2988
 7054SOL    HW231497   4.030   1.435   2.192  0.6229  1.6194  0.2640
 7055SOL     OW31498   1.459   4.423   2.828 -0.2555 -0.6487 -0.2154
 7055SOL    HW131499   1.434   4.505   2.879  1.3431  1.5350 -2.7931
 7055SOL    HW231500   1.433   4.434   2.732 -0.2722 -3.2941 -0.5598
 7056SOL     OW31501   3.338   5.091   1.219 -0.4867  0.4222  0.0133
 7056SOL    HW131502   3.254   5.111   1.168 -0.6428  0.2542  0.2044
 7056SOL    HW231503   3.341   4.993   1.239 -0.2452  0.4301  0.0068
 7057SOL     OW31504   0.018   8.296   2.559  0.3494 -0.3413 -0.4271
 7057SOL    HW131505   0.009   8.396   2.560  0.4910 -0.3271 -0.4950
 7057SOL    HW231506  -0.072   8.254   2.564  0.1857 -0.2041 -2.0666
 7058SOL     OW31507   3.607   5.107   1.182  0.3209  0.7648  0.0723
 7058SOL    HW131508   3.510   5.095   1.200  0.0555  0.7811 -1.3336
 7058SOL    HW231509   3.646   5.167   1.252 -0.8565  1.4712  0.1372
 7059SOL     OW31510   9.509   1.018   2.666 -0.2762 -0.1842 -0.3983
 7059SOL    HW131511   9.524   0.926   2.630 -2.3036 -0.6733 -0.0800
 7059SOL    HW231512   9.461   1.073   2.597 -0.7361  0.0489  0.1033
 7060SOL     OW31513   3.687   8.732   1.813  0.0971  0.1147 -0.4166
 7060SOL    HW131514   3.613   8.670   1.838 -0.2931  0.1309 -1.4745
 7060SOL    HW231515   3.769   8.709   1.865 -0.4916 -0.2771  0.3403
 7061SOL     OW31516   4.672   9.051   3.798 -0.5621  0.4730  0.0682
 7061SOL    HW131517   4.694   8.984   3.727  0.6477  0.5014  0.3960
 7061SOL    HW231518   4.665   9.005   3.886 -2.9765  0.3019 -0.2030
 7062SOL     OW31519   7.738   9.645   0.761 -0.3340 -0.9603  0.6352
 7062SOL    HW131520   7.751   9.713   0.689 -0.3823 -0.6074  0.9529
 7062SOL    HW231521   7.672   9.576   0.732  0.1595 -1.2046  0.0800
 7063SOL     OW31522   8.424   4.529   0.714  0.3339 -0.5096 -0.1340
 7063SOL    HW131523   8.493   4.496   0.649  0.6139  0.8821 -0.5501
 7063SOL    HW231524   8.362   4.592   0.667 -0.1716 -0.4091  0.6726
 7064SOL     OW31525   2.478   8.374   0.936 -0.1714  0.2507  0.1156
 7064SOL    HW131526   2.434   8.284   0.929  0.1005  0.0076  1.4135
 7064SOL    HW231527   2.427   8.431   1.000  0.0932  0.7706 -0.1317
 7065SOL     OW31528   9.789   0.843   1.210  0.4106  0.0164 -0.0754
 7065SOL    HW131529   9.850   0.894   1.149 -0.0153  0.8372  0.1724
 7065SOL    HW231530   9.813   0.864   1.305 -1.9373  2.4541  0.0463
 7066SOL     OW31531   7.750   2.189   0.151  0.2943 -0.7203 -0.0327
 7066SOL    HW131532   7.821   2.123   0.127 -0.1018 -2.1786  2.5531
 7066SOL    HW231533   7.667   2.139   0.179 -0.6757  0.9128  0.0830
 7067SOL     OW31534   2.584   4.204   1.987  0.2668  0.0182  0.0111
 7067SOL    HW131535   2.551   4.119   1.946 -2.0768  1.2644 -0.7434
 7067SOL    HW231536   2.678   4.220   1.957  1.1093 -2.7606  0.9212
 7068SOL     OW31537   1.121   9.391   0.048  0.4149  0.3384 -0.3552
 7068SOL    HW131538   1.110   9.446   0.130  0.9290 -1.8381  1.2307
 7068SOL    HW231539   1.151   9.298   0.073 -0.2571 -0.6365 -2.9313
 7069SOL     OW31540   8.942   1.804   1.801  0.6589  0.6657 -0.3407
 7069SOL    HW131541   8.914   1.899   1.797  0.8196  0.7142 -0.3186
 7069SOL    HW231542   9.042   1.798   1.804  0.7001  0.4561 -1.5911
 7070SOL     OW31543   3.725   3.711   0.216 -0.0853 -0.2595 -0.0742
 7070SOL    HW131544   3.809   3.754   0.182  1.0035  0.0157  2.7522
 7070SOL    HW231545   3.679   3.775   0.279 -1.4358 -1.1120 -0.1805
 7071SOL     OW31546   8.612   4.172   1.498 -0.1018  0.2973  0.0736
 7071SOL    HW131547   8.617   4.225   1.582  1.5739  0.3373 -0.0451
 7071SOL    HW231548   8.516   4.162   1.471 -0.9480 -2.4719  3.6979
 7072SOL     OW31549   3.827   2.419   1.516  0.5794 -0.1162 -0.2956
 7072SOL    HW131550   3.824   2.386   1.610 -0.1618  0.4491 -0.1124
 7072SOL    HW231551   3.896   2.369   1.465  0.2538 -1.1524  0.2765
 7073SOL     OW31552   1.939   7.261   1.041  0.3808  0.2752  0.3914
 7073SOL    HW131553   2.001   7.219   1.106  0.9436  1.2395  0.4852
 7073SOL    HW231554   1.847   7.264   1.080  0.5940  0.2958  0.8974
 7074SOL     OW31555   0.168   7.553   2.749  0.2774  0.2084 -0.5090
 7074SOL    HW131556   0.253   7.515   2.712  1.3115  1.2601  0.7462
 7074SOL    HW231557   0.090   7.503   2.711  1.4772 -1.1593 -1.2202
 7075SOL     OW31558   2.478   5.909   1.465  0.3288  0.1776  0.1990
 7075SOL    HW131559   2.508   5.958   1.383 -0.0167  0.9659  0.5364
 7075SOL    HW231560   2.470   5.974   1.541 -2.1307 -0.0047  0.1531
 7076SOL     OW31561   2.796   5.774   2.173  0.1347 -0.5106 -0.2855
 7076SOL    HW131562   2.773   5.852   2.230  2.5197 -0.9962  1.4332
 7076SOL    HW231563   2.835   5.805   2.086 -1.7926  0.2171 -0.8939
 7077SOL     OW31564   8.225   5.092   0.808 -0.5392  0.0768  0.5357
 7077SOL    HW131565   8.222   5.120   0.904 -0.2375  3.3859 -0.3913
 7077SOL    HW231566   8.135   5.105   0.767 -0.2650  0.1711 -0.0388
 7078SOL     OW31567   2.750   5.218   1.671  0.2368 -0.5271  0.3149
 7078SOL    HW131568   2.847   5.215   1.646  0.5617 -0.5131  1.5275
 7078SOL    HW231569   2.695   5.185   1.594  1.2209 -0.7971 -0.2871
 7079SOL     OW31570   0.913   1.970   1.832 -0.0908 -0.0477  0.3969
 7079SOL    HW131571   1.011   1.965   1.854  0.5080 -2.8414 -2.3786
 7079SOL    HW231572   0.901   2.019   1.745 -0.9984 -0.8613  0.0543
 7080SOL     OW31573   3.109   4.376   2.879  0.3975  0.3234 -0.3582
 7080SOL    HW131574   3.208   4.370   2.865  0.2333 -0.6580 -1.2045
 7080SOL    HW231575   3.076   4.465   2.849  1.2026  1.1477  1.1349
 7081SOL     OW31576   9.265   9.224   1.392  0.3294  0.0165 -0.3584
 7081SOL    HW131577   9.317   9.251   1.473 -1.1762 -1.4673  1.1452
 7081SOL    HW231578   9.178   9.274   1.390 -0.6283 -1.5927  0.1911
 7082SOL     OW31579   3.112   9.101   2.281 -0.3390  0.0890 -0.7277
 7082SOL    HW131580   3.063   9.153   2.351  1.4924  1.7227 -0.6051
 7082SOL    HW231581   3.111   9.151   2.195 -2.5849 -1.9184 -1.9241
 7083SOL     OW31582   3.278   5.934   2.090 -0.5327 -0.3434  0.3195
 7083SOL    HW131583   3.286   5.959   1.994 -1.4166 -3.7457 -0.6989
 7083SOL    HW231584   3.327   5.848   2.107  0.6059  0.7911  3.1892
 7084SOL     OW31585   0.784   1.113   4.020  0.0547 -0.2138 -0.2314
 7084SOL    HW131586   0.777   1.058   3.937  0.7346 -1.7237  0.6898
 7084SOL    HW231587   0.763   1.208   3.998 -0.5913 -0.7267 -1.9629
 7085SOL     OW31588   8.075   3.905   0.281 -0.2029  0.2705 -0.0359
 7085SOL    HW131589   7.977   3.923   0.291 -0.0037  2.8228 -2.0460
 7085SOL    HW231590   8.126   3.987   0.308  1.3680 -0.8112  0.3403
 7086SOL     OW31591   8.203   3.669   0.376 -0.7201 -0.4995  0.0433
 7086SOL    HW131592   8.146   3.623   0.444  1.8025  0.7444  3.1272
 7086SOL    HW231593   8.163   3.758   0.354 -0.2850  0.1723  1.8483
 7087SOL     OW31594   7.831   9.582   2.697 -0.6686  0.2510 -0.0693
 7087SOL    HW131595   7.866   9.529   2.775 -0.2143  1.2240  0.3890
 7087SOL    HW231596   7.803   9.519   2.624 -2.9528 -0.7940  1.6371
 7088SOL     OW31597   6.380   8.353   3.345 -0.0951 -0.3414  0.2024
 7088SOL    HW131598   6.328   8.415   3.404 -0.4876 -1.2547  0.8157
 7088SOL    HW231599   6.478   8.368   3.358 -0.1866  0.1944  0.2951
 7089SOL     OW31600   4.556   8.658   2.796  0.4589  0.5341  0.5676
 7089SOL    HW131601   4.536   8.560   2.797 -2.1653  1.0299  1.9290
 7089SOL    HW231602   4.564   8.690   2.702 -2.0901 -0.3867 -0.0097
 7090SOL     OW31603   2.569   6.764   2.907  0.3742  0.1496  0.2632
 7090SOL    HW131604   2.665   6.781   2.887  0.2383 -0.4161 -0.8835
 7090SOL    HW231605   2.513   6.839   2.870  0.3819  0.5701  1.0856
 7091SOL     OW31606   2.335   7.406   1.434  0.4830 -0.0161 -0.0164
 7091SOL    HW131607   2.293   7.458   1.508  1.6296  1.8136 -0.6236
 7091SOL    HW231608   2.391   7.467   1.378  1.2463 -1.7703 -1.2005
 7092SOL     OW31609   3.409   0.575   0.412 -0.4576  0.3565  0.2213
 7092SOL    HW131610   3.407   0.622   0.500 -1.5908  0.3468  0.2136
 7092SOL    HW231611   3.443   0.636   0.341 -0.0712  0.5407  0.5665
 7093SOL     OW31612   0.445   7.646   3.405 -0.4566  0.3878 -0.2631
 7093SOL    HW131613   0.415   7.706   3.330  1.8744 -0.2363 -1.7222
 7093SOL    HW231614   0.540   7.621   3.392 -0.9825 -2.5132  1.1192
 7094SOL     OW31615   0.926   3.214   3.146  0.4625 -0.0270  0.0213
 7094SOL    HW131616   0.858   3.205   3.073 -0.0043 -2.9071  0.7745
 7094SOL    HW231617   0.891   3.171   3.229  2.1077  0.8697  1.1840
 7095SOL     OW31618   3.564   9.662   1.650 -0.2627  0.1307  0.3221
 7095SOL    HW131619   3.468   9.634   1.646 -0.5646  1.3396 -1.3141
 7095SOL    HW231620   3.621   9.584   1.676 -1.6000 -0.7615  0.6095
 7096SOL     OW31621   4.672   9.719   3.544  0.3475 -0.5096 -0.8600
 7096SOL    HW131622   4.618   9.787   3.496  0.6073  0.1467 -0.2296
 7096SOL    HW231623   4.639   9.627   3.520 -0.3277 -0.1511 -1.3232
 7097SOL     OW31624   2.216   4.891   0.123  0.4508 -0.0754  0.8767
 7097SOL    HW131625   2.293   4.888   0.186  0.0013  0.0923  1.4398
 7097SOL    HW231626   2.248   4.871   0.030  0.9284 -1.4930  1.3256
 7098SOL     OW31627   2.037   3.179   2.833 -0.2045  0.2028  0.0216
 7098SOL    HW131628   2.034   3.273   2.800  2.1632  0.7074  1.1050
 7098SOL    HW231629   1.956   3.161   2.888 -0.5614  1.7021  0.0159
 7099SOL     OW31630   8.201   9.992   2.272 -0.3066 -0.0505  0.0101
 7099SOL    HW131631   8.216   9.979   2.370  1.7441  1.2141 -0.0851
 7099SOL    HW231632   8.289   9.984   2.224 -1.1719  0.0820 -1.6306
 7100SOL     OW31633   3.276   9.444   0.931  0.1848  0.8981  0.2209
 7100SOL    HW131634   3.251   9.397   1.016  0.0803 -0.1000 -0.3632
 7100SOL    HW231635   3.198   9.496   0.897 -0.3692 -0.2844 -0.3172
 7101SOL     OW31636   8.237   0.319   2.072  0.1601 -0.1255 -0.0446
 7101SOL    HW131637   8.295   0.395   2.102  1.0414 -0.6429 -0.4557
 7101SOL    HW231638   8.204   0.269   2.152  1.3948 -0.6714  0.1175
 7102SOL     OW31639   1.674   4.850   1.838 -0.4169 -0.5482  0.1134
 7102SOL    HW131640   1.662   4.865   1.740  1.1681  1.7564  0.2229
 7102SOL    HW231641   1.587   4.861   1.885 -1.0235 -0.8173 -0.9459
 7103SOL     OW31642   1.957   7.746   1.382  0.2933  0.6416  0.4028
 7103SOL    HW131643   1.920   7.685   1.311 -1.6772  0.0814  1.8548
 7103SOL    HW231644   1.885   7.809   1.411  1.0406  0.7642  2.0029
 7104SOL     OW31645   1.590   7.711   0.854  0.1049  0.5655 -0.5726
 7104SOL    HW131646   1.583   7.613   0.871  0.2197  0.4207 -1.3261
 7104SOL    HW231647   1.678   7.745   0.887 -0.1742  0.5297  0.2168
 7105SOL     OW31648   3.393   0.868   1.133 -0.2087  0.6028 -0.0281
 7105SOL    HW131649   3.476   0.852   1.080 -1.5719 -1.9336 -1.4424
 7105SOL    HW231650   3.400   0.821   1.221 -0.7578 -0.8196 -0.7481
 7106SOL     OW31651   2.959   5.043   0.282 -0.0726 -0.1288 -0.1727
 7106SOL    HW131652   2.882   4.981   0.293 -2.1140  2.4228  0.5492
 7106SOL    HW231653   3.019   5.011   0.208 -1.9763 -1.9904 -0.9385
 7107SOL     OW31654   3.437   1.517   3.877  0.0142  0.5852 -0.1091
 7107SOL    HW131655   3.473   1.590   3.818  0.3557  1.1003  0.7250
 7107SOL    HW231656   3.416   1.555   3.967 -3.6362  0.5718 -0.8713
 7108SOL     OW31657   8.755   8.946   1.536 -0.5127  0.6421 -0.1127
 7108SOL    HW131658   8.730   9.035   1.575  1.5676  1.2947 -0.1698
 7108SOL    HW231659   8.820   8.960   1.462 -3.3435 -0.6764 -2.9563
 7109SOL     OW31660   9.602   7.835   1.508  0.4840  0.7361 -0.2314
 7109SOL    HW131661   9.662   7.908   1.475  1.3133 -0.0692 -0.5422
 7109SOL    HW231662   9.614   7.824   1.607 -0.6930  1.9600  0.0647
 7110SOL     OW31663   1.830   1.068   3.050  0.3614 -1.1247  0.5001
 7110SOL    HW131664   1.812   1.062   2.952 -1.6796 -0.1629  0.8016
 7110SOL    HW231665   1.820   0.978   3.091 -1.5271 -1.0323  0.2704
 7111SOL     OW31666   7.359   0.873   2.490 -0.3242  0.2220  0.5190
 7111SOL    HW131667   7.285   0.852   2.554 -0.0764 -0.7951  0.4818
 7111SOL    HW231668   7.396   0.788   2.453  0.4788  0.7507  0.0950
 7112SOL     OW31669   2.544   3.508   0.553  0.4166  0.1113  0.3331
 7112SOL    HW131670   2.600   3.483   0.474  0.2828 -1.3794  0.6757
 7112SOL    HW231671   2.604   3.542   0.626  0.9211 -1.5372  0.7224
 7113SOL     OW31672   3.278   7.042   0.821  0.2660 -0.3741  0.8130
 7113SOL    HW131673   3.221   7.035   0.903  2.4272 -0.9906  2.3012
 7113SOL    HW231674   3.298   7.138   0.803 -2.2776 -0.0580 -0.4752
 7114SOL     OW31675   3.347   0.014   0.794  0.4038 -0.2262  0.1732
 7114SOL    HW131676   3.394   0.073   0.860 -0.6040 -0.5784  1.2147
 7114SOL    HW231677   3.258   0.054   0.772 -0.1924 -1.2498  0.7252
 7115SOL     OW31678   7.935   1.272   0.914 -0.4451 -0.3843  0.0156
 7115SOL    HW131679   7.903   1.178   0.897 -0.0459 -0.4507 -0.3907
 7115SOL    HW231680   7.900   1.333   0.843 -1.9899  0.0755  1.1469
 7116SOL     OW31681   3.334   0.956   2.479  0.3243 -0.1151  0.7644
 7116SOL    HW131682   3.240   0.924   2.482  0.8486 -1.5294  2.3872
 7116SOL    HW231683   3.336   1.055   2.496 -1.0031  0.2533 -1.0945
 7117SOL     OW31684   8.440   1.923   3.683  0.0325  0.0346  1.1578
 7117SOL    HW131685   8.452   2.009   3.632  0.6809  0.7868  2.5421
 7117SOL    HW231686   8.516   1.862   3.662 -0.4585 -0.2407  0.1213
 7118SOL     OW31687   7.745   0.853   2.860  0.2568 -0.2831 -0.1348
 7118SOL    HW131688   7.694   0.811   2.935  1.0585  0.9186  1.0954
 7118SOL    HW231689   7.742   0.792   2.780  0.8046 -2.3590  1.3792
 7119SOL     OW31690   4.711   0.247   0.156  0.2226  0.1799  0.1594
 7119SOL    HW131691   4.738   0.254   0.060  0.4408  0.8481  0.2706
 7119SOL    HW231692   4.703   0.150   0.181  0.9144 -0.0063 -0.3233
 7120SOL     OW31693   4.446   2.418   2.774  0.2178  0.1762 -0.5962
 7120SOL    HW131694   4.376   2.418   2.846  0.8315 -4.1270  0.1506
 7120SOL    HW231695   4.526   2.469   2.806 -0.3663  0.1733  0.9301
 7121SOL     OW31696   2.278   1.486   2.784  0.1034 -0.2610 -0.2629
 7121SOL    HW131697   2.319   1.401   2.816 -1.3362 -0.9789 -0.3179
 7121SOL    HW231698   2.335   1.563   2.814  0.2904 -1.0885  1.6021
 7122SOL     OW31699   2.974   3.063   3.212  0.4486 -0.4488  0.0179
 7122SOL    HW131700   2.875   3.052   3.206  0.4466 -0.2993 -0.2533
 7122SOL    HW231701   3.019   2.989   3.160  0.4836 -0.6470  0.3298
 7123SOL     OW31702   6.474   0.339   2.832 -0.0645 -0.7067  0.0280
 7123SOL    HW131703   6.538   0.395   2.885  0.3538  0.0827 -1.2660
 7123SOL    HW231704   6.522   0.259   2.796 -0.3644 -1.2774  0.8963
 7124SOL     OW31705   4.211   8.863   2.611 -0.2798  0.0652  0.0962
 7124SOL    HW131706   4.309   8.862   2.630 -0.8516 -0.1992  3.3124
 7124SOL    HW231707   4.196   8.864   2.512  2.9409 -0.5041 -0.4458
 7125SOL     OW31708   1.129   7.958   2.169  1.0557 -0.1361  0.0294
 7125SOL    HW131709   1.117   7.859   2.181 -0.3513  0.0799  0.5229
 7125SOL    HW231710   1.083   7.987   2.085  1.3660  0.1241 -0.0519
 7126SOL     OW31711   3.764   0.130   3.515  0.4843  0.2083  0.0397
 7126SOL    HW131712   3.857   0.161   3.497  0.2073  0.9123 -0.1793
 7126SOL    HW231713   3.719   0.109   3.428 -0.1131  1.4677  0.0327
 7127SOL     OW31714   2.389   5.059   1.700  0.2001  0.0710  0.1941
 7127SOL    HW131715   2.451   5.085   1.626  0.6781  0.7075  0.8114
 7127SOL    HW231716   2.411   4.968   1.733  1.6848  0.8183  1.3175
 7128SOL     OW31717   5.345   8.274   2.346 -0.3520 -0.6753  0.2259
 7128SOL    HW131718   5.437   8.236   2.331  0.4634  1.0327  0.7696
 7128SOL    HW231719   5.281   8.232   2.282  0.8224 -1.8276 -0.2245
 7129SOL     OW31720   1.000   1.906   0.472 -0.3520 -0.0709 -0.5516
 7129SOL    HW131721   0.948   1.826   0.501 -0.1163 -1.0354 -2.6928
 7129SOL    HW231722   1.049   1.885   0.388 -2.2286  3.0587 -2.5440
 7130SOL     OW31723   3.535   9.162   2.131 -0.0542 -0.2129 -0.6663
 7130SOL    HW131724   3.579   9.239   2.178 -0.2514  0.4124 -1.5008
 7130SOL    HW231725   3.528   9.085   2.194  0.7685  0.2199 -0.0280
 7131SOL     OW31726   1.073   8.548   2.588 -0.2414 -0.0258 -0.2711
 7131SOL    HW131727   0.993   8.567   2.644  0.2117  0.6343  0.1738
 7131SOL    HW231728   1.081   8.450   2.571 -0.2784 -0.2528  0.9909
 7132SOL     OW31729   7.510   0.130   2.358  0.1609 -0.6021  0.4715
 7132SOL    HW131730   7.521   0.136   2.259  2.7709 -1.2019  0.6923
 7132SOL    HW231731   7.450   0.204   2.390 -1.3994 -0.9273 -1.6187
 7133SOL     OW31732   0.235   1.772   3.341 -0.0552  0.1718 -0.3765
 7133SOL    HW131733   0.159   1.710   3.322 -0.5439  0.2400  1.2744
 7133SOL    HW231734   0.206   1.842   3.406  1.2415  0.5658 -0.2037
 7134SOL     OW31735   2.349   0.657   0.841 -0.2329 -0.2259  0.3975
 7134SOL    HW131736   2.257   0.628   0.815  0.0977 -0.5858 -0.3789
 7134SOL    HW231737   2.378   0.607   0.923 -0.8308  0.0963  0.8136
 7135SOL     OW31738   8.929   1.346   2.337  0.1665  0.2349 -0.7265
 7135SOL    HW131739   8.849   1.340   2.396 -0.4598  1.1768 -1.4490
 7135SOL    HW231740   8.910   1.300   2.250  0.8078 -0.4883 -0.4900
 7136SOL     OW31741   2.046   4.044   0.657 -0.4936  0.2002 -0.1006
 7136SOL    HW131742   2.091   3.955   0.657  0.1385  0.5081 -1.1077
 7136SOL    HW231743   2.048   4.082   0.565  2.3352  2.7793  0.9267
 7137SOL     OW31744   9.966   9.831   3.761 -0.3073 -0.2249  0.6670
 7137SOL    HW131745  10.043   9.889   3.787  0.6617 -0.4487 -1.5786
 7137SOL    HW231746   9.964   9.751   3.820  1.8783 -0.7750  0.0541
 7138SOL     OW31747   0.115   3.161   0.553  0.2826 -0.7680 -0.1753
 7138SOL    HW131748   0.150   3.254   0.567  1.5722 -0.8208 -2.8544
 7138SOL    HW231749   0.043   3.143   0.621  1.2905  1.4877  1.5800
 7139SOL     OW31750   2.440   4.364   1.766  0.2857  0.5566  0.5369
 7139SOL    HW131751   2.494   4.327   1.841  1.0438 -0.5795 -0.5559
 7139SOL    HW231752   2.437   4.464   1.774  3.0638  0.7069  0.2889
 7140SOL     OW31753   0.204   0.896   3.256  0.1405 -0.0450 -0.0846
 7140SOL    HW131754   0.294   0.939   3.252  0.5938 -0.9320  0.5560
 7140SOL    HW231755   0.133   0.967   3.247  0.8977  0.5830 -1.1596
 7141SOL     OW31756   0.231   3.466   1.970 -0.3156 -0.4212 -0.1219
 7141SOL    HW131757   0.201   3.471   1.875 -1.5792  1.4398  0.3644
 7141SOL    HW231758   0.309   3.528   1.984 -0.4659 -0.3003  0.1837
 7142SOL     OW31759   0.540   0.298   1.637  0.6210  0.2011 -0.1745
 7142SOL    HW131760   0.467   0.360   1.609  1.1076  0.9493  0.2172
 7142SOL    HW231761   0.554   0.230   1.565  1.0836  1.4200 -1.2522
 7143SOL     OW31762   3.877   9.838   0.994  0.3563 -0.5813 -0.0515
 7143SOL    HW131763   3.971   9.861   0.968  0.9262 -0.5995  1.9055
 7143SOL    HW231764   3.825   9.923   1.005  0.5876 -0.4985  0.4279
 7144SOL     OW31765   9.448   8.101   2.733 -0.3237 -0.3195  0.1159
 7144SOL    HW131766   9.381   8.063   2.670  0.0302 -0.3041 -0.2707
 7144SOL    HW231767   9.411   8.099   2.826 -0.7246 -0.6150 -0.0484
 7145SOL     OW31768   1.782   9.292   2.193  0.2765  0.0098 -0.2325
 7145SOL    HW131769   1.819   9.218   2.249 -0.5201  0.3390  0.7499
 7145SOL    HW231770   1.761   9.258   2.101  1.2917 -0.6148 -0.2383
 7146SOL     OW31771   2.050   4.502   2.047 -0.9612 -0.2974  0.1108
 7146SOL    HW131772   1.985   4.562   2.001 -0.7003 -0.3896 -0.3926
 7146SOL    HW231773   2.001   4.428   2.094 -1.2280 -0.2776 -0.1375
 7147SOL     OW31774   3.156   6.953   2.302  0.5147 -0.5166  1.2884
 7147SOL    HW131775   3.065   6.926   2.334  0.9728 -0.6437  2.4919
 7147SOL    HW231776   3.147   7.027   2.235 -0.4203  0.3021  2.3014
 7148SOL     OW31777   0.795   8.041   3.123  0.3467 -0.1059  0.2041
 7148SOL    HW131778   0.698   8.027   3.140  0.2608 -0.6919 -0.7516
 7148SOL    HW231779   0.849   7.992   3.191 -0.0235 -0.2146  0.4170
 7149SOL     OW31780   3.390   5.268   1.437 -0.3287 -0.8233  0.3500
 7149SOL    HW131781   3.351   5.215   1.361  0.0396  0.0269 -0.4428
 7149SOL    HW231782   3.415   5.359   1.404 -1.5797  0.0787  1.8728
 7150SOL     OW31783   1.349   9.873   0.564  0.3650  0.3632 -0.4807
 7150SOL    HW131784   1.442   9.858   0.532  0.1885 -2.1225  0.0994
 7150SOL    HW231785   1.284   9.844   0.494 -0.0233  3.1780 -1.3659
 7151SOL     OW31786   7.874   2.082   0.820 -0.0961  0.6531  0.2729
 7151SOL    HW131787   7.788   2.128   0.841  0.0184  0.2517  1.6853
 7151SOL    HW231788   7.876   2.056   0.723 -1.0011  1.8258 -0.0615
 7152SOL     OW31789   2.799   3.736   1.474  0.5362 -0.3812 -0.3436
 7152SOL    HW131790   2.858   3.660   1.502 -0.0042  0.2098  2.5589
 7152SOL    HW231791   2.704   3.705   1.467  0.1992  0.1414  1.5661
 7153SOL     OW31792   3.628   7.395   2.964 -0.4297  0.1835 -0.3046
 7153SOL    HW131793   3.644   7.422   3.059  0.0662 -0.0556 -0.3190
 7153SOL    HW231794   3.713   7.405   2.912 -0.8033  0.7110 -0.8198
 7154SOL     OW31795   1.092   9.035   1.051 -0.4686 -0.1404  0.4402
 7154SOL    HW131796   1.097   8.936   1.034  1.7646  0.2618 -1.5827
 7154SOL    HW231797   1.037   9.052   1.132 -2.4760 -2.9328 -0.2488
 7155SOL     OW31798   2.976   3.619   0.945  0.0265  0.5406 -0.0250
 7155SOL    HW131799   2.919   3.611   0.864  1.0001 -0.3466 -0.6322
 7155SOL    HW231800   2.917   3.629   1.026 -0.9618  0.3875 -0.7131
 7156SOL     OW31801   3.451   3.416   2.639 -0.5742  0.0140  0.0099
 7156SOL    HW131802   3.360   3.413   2.681 -0.5958 -1.0229 -0.1004
 7156SOL    HW231803   3.512   3.469   2.698 -0.8146 -0.7523  0.9665
 7157SOL     OW31804   9.845   1.739   0.470  0.0808  0.4900  0.0586
 7157SOL    HW131805   9.818   1.820   0.521  0.6934  0.0105  1.1489
 7157SOL    HW231806   9.922   1.694   0.515  1.1268  0.4729 -1.6768
 7158SOL     OW31807   2.388   2.970   2.911  0.0900 -0.3036 -0.3862
 7158SOL    HW131808   2.420   3.063   2.894 -0.9470  0.1891  0.3031
 7158SOL    HW231809   2.344   2.935   2.829 -0.9768  0.4332 -0.1456
 7159SOL     OW31810   6.684   9.455   2.169  0.0158  0.3969  0.6105
 7159SOL    HW131811   6.772   9.462   2.122  0.3667 -0.6737  1.0916
 7159SOL    HW231812   6.664   9.541   2.216  0.6594  0.7466  0.2396
 7160SOL     OW31813   4.236   9.598   1.310 -0.2378 -0.3883  0.2751
 7160SOL    HW131814   4.181   9.586   1.228 -0.9600  1.5050  0.4613
 7160SOL    HW231815   4.201   9.539   1.383  3.0902 -5.5090 -1.9464
 7161SOL     OW31816   4.235   9.378   2.988 -0.2132 -0.4845 -0.2769
 7161SOL    HW131817   4.270   9.329   3.068  0.4258  1.1484  0.4510
 7161SOL    HW231818   4.264   9.330   2.905  0.1403 -1.5153  0.4334
 7162SOL     OW31819   2.157   9.818   2.830  0.6189  0.3236  0.0241
 7162SOL    HW131820   2.154   9.718   2.833 -1.9096  0.3917  0.9924
 7162SOL    HW231821   2.149   9.849   2.735 -3.1610 -0.3649  0.0188
 7163SOL     OW31822   3.323   2.647   0.007 -0.3619 -0.7491 -0.0470
 7163SOL    HW131823   3.337   2.575   0.075 -1.8129  0.2471  1.3343
 7163SOL    HW231824   3.256   2.713   0.041  1.3739  1.5943 -1.0247
 7164SOL     OW31825   9.974   8.643   2.069  0.2558  0.1425 -0.4487
 7164SOL    HW131826   9.949   8.715   2.133  2.3437 -0.0625  0.6522
 7164SOL    HW231827   9.899   8.576   2.063 -0.7625  1.2000  0.2398
 7165SOL     OW31828   9.814   9.991   3.614  0.1117  0.0506 -0.0514
 7165SOL    HW131829   9.855   9.927   3.679 -0.1515  1.6369  1.7357
 7165SOL    HW231830   9.879  10.009   3.540 -0.1460 -2.9169 -1.0839
 7166SOL     OW31831   2.675   7.061   1.144  0.3827  0.4176 -0.2589
 7166SOL    HW131832   2.733   7.096   1.217  0.1829 -0.2025  0.2003
 7166SOL    HW231833   2.707   7.096   1.056  1.5293 -0.0192 -0.0269
 7167SOL     OW31834   3.743   1.569   2.336 -0.3192  0.0742  0.0980
 7167SOL    HW131835   3.743   1.503   2.261 -0.5780 -0.1339  0.2832
 7167SOL    HW231836   3.715   1.524   2.421 -1.5921  0.6674  0.0079
 7168SOL     OW31837   1.289   6.189   3.808 -0.0042 -0.2631 -0.0340
 7168SOL    HW131838   1.342   6.108   3.782  1.4897  1.3083 -2.0775
 7168SOL    HW231839   1.321   6.223   3.897  2.3209  0.5374 -1.1394
 7169SOL     OW31840   1.736   5.816   2.502 -0.7084  0.1431 -0.3302
 7169SOL    HW131841   1.737   5.900   2.557  2.5532  0.5708 -0.9180
 7169SOL    HW231842   1.691   5.834   2.414 -0.3277  1.1919 -0.3142
 7170SOL     OW31843   7.735   3.558   1.212  0.5880  0.0157  0.1059
 7170SOL    HW131844   7.666   3.487   1.225  0.3662  0.5252  1.8650
 7170SOL    HW231845   7.767   3.557   1.117 -0.5004 -1.4303 -0.2595
 7171SOL     OW31846   4.768   3.992   1.243  0.2629 -0.0972 -0.0446
 7171SOL    HW131847   4.750   4.042   1.328 -1.9063 -1.4359  0.3206
 7171SOL    HW231848   4.700   3.919   1.232  2.2981 -1.8441 -1.4544
 7172SOL     OW31849   1.513   3.712   0.012  0.3790 -0.3377  0.1973
 7172SOL    HW131850   1.473   3.650  -0.055  0.6988 -1.4089  0.9722
 7172SOL    HW231851   1.535   3.660   0.095  1.6028  0.6178  0.4776
 7173SOL     OW31852   1.664   0.929   0.663 -0.2776  0.5763 -0.6326
 7173SOL    HW131853   1.592   0.861   0.645 -1.0390  0.9271  1.0201
 7173SOL    HW231854   1.746   0.904   0.612  0.1466 -2.7728  1.4939
 7174SOL     OW31855   9.774   8.658   2.474 -1.1801  0.2895 -0.4093
 7174SOL    HW131856   9.738   8.606   2.552 -2.6958 -1.0296 -1.9243
 7174SOL    HW231857   9.873   8.665   2.481 -1.3752  0.9198  2.0589
 7175SOL     OW31858   9.946   3.913   3.862 -0.3068 -0.2835 -0.2071
 7175SOL    HW131859  10.018   3.955   3.916 -0.1283 -2.8715  1.6692
 7175SOL    HW231860   9.982   3.834   3.812 -2.0214 -2.3299  1.6805
 7176SOL     OW31861   0.887   3.870   1.332  0.5704 -0.7162 -0.5130
 7176SOL    HW131862   0.788   3.879   1.338  0.6074 -1.0879  0.8292
 7176SOL    HW231863   0.931   3.942   1.385  1.0299 -0.0740 -1.7663
 7177SOL     OW31864   1.809   8.246   2.053 -0.9387  0.1636  0.3563
 7177SOL    HW131865   1.849   8.186   1.984 -0.6531  0.4155  0.3013
 7177SOL    HW231866   1.851   8.337   2.047 -2.4981  0.8342 -0.5964
 7178SOL     OW31867   3.093   4.229   3.965  0.1057 -0.7084 -0.5286
 7178SOL    HW131868   3.112   4.140   4.007  0.8168 -0.6195 -0.6664
 7178SOL    HW231869   3.144   4.238   3.880  1.5557  0.6075  0.4543
 7179SOL     OW31870   2.097   4.726   0.968 -0.0715 -0.2939 -0.2745
 7179SOL    HW131871   2.133   4.686   1.052  0.8347  2.8279  0.9230
 7179SOL    HW231872   2.003   4.759   0.984  0.1777  0.4956 -0.4067
 7180SOL     OW31873   0.880   1.668   0.495  0.2134  0.3623  0.4650
 7180SOL    HW131874   0.893   1.635   0.402  3.2193  0.7830  0.6725
 7180SOL    HW231875   0.827   1.602   0.548 -0.7438 -0.2871 -1.2970
 7181SOL     OW31876   0.122   8.245   3.132 -0.1347  0.3557  0.1641
 7181SOL    HW131877   0.053   8.235   3.204 -0.0519 -0.6732  0.1066
 7181SOL    HW231878   0.212   8.253   3.174  0.0151 -1.1385  0.1720
 7182SOL     OW31879   0.611   7.712   2.954  0.1008  0.7397 -0.1754
 7182SOL    HW131880   0.511   7.703   2.961 -0.1264  0.9529 -2.5662
 7182SOL    HW231881   0.645   7.649   2.884  2.0898 -1.6220  2.8177
 7183SOL     OW31882   8.868   3.884   0.898  0.3038 -0.1448 -0.4143
 7183SOL    HW131883   8.802   3.843   0.836 -1.0915  0.3527  0.7356
 7183SOL    HW231884   8.853   3.983   0.903  0.3895 -0.1824  0.7290
 7184SOL     OW31885   6.571   8.745   2.793 -0.7693 -0.6971  0.0677
 7184SOL    HW131886   6.480   8.706   2.806 -1.0159 -0.4866 -1.0051
 7184SOL    HW231887   6.625   8.685   2.735 -0.0484 -1.0780  1.1211
 7185SOL     OW31888   8.655   2.459   2.504 -0.0029  0.1432 -0.0669
 7185SOL    HW131889   8.605   2.463   2.591  1.7116 -0.6672  0.9983
 7185SOL    HW231890   8.607   2.397   2.442  0.3777 -1.7576  1.4514
 7186SOL     OW31891   4.545   9.328   0.591  0.0753 -0.0329 -0.0515
 7186SOL    HW131892   4.562   9.287   0.680  0.0057  0.7019  0.3056
 7186SOL    HW231893   4.622   9.387   0.566  0.2782 -0.5558 -0.6595
 7187SOL     OW31894   4.495   0.175   2.751  0.2802  0.7100  0.2639
 7187SOL    HW131895   4.415   0.162   2.691  0.0756  1.8887  0.2780
 7187SOL    HW231896   4.576   0.137   2.706 -0.2020 -0.1110  0.0631
 7188SOL     OW31897   3.144   2.002   1.968 -0.1906 -0.2043 -0.5425
 7188SOL    HW131898   3.190   2.087   1.944 -2.0200  0.6451 -1.1475
 7188SOL    HW231899   3.095   1.967   1.888 -0.4761 -1.1661  0.0416
 7189SOL     OW31900   3.950   2.421   1.128  0.2608 -0.0120  0.2070
 7189SOL    HW131901   4.007   2.492   1.168 -0.5818  2.1371 -2.3024
 7189SOL    HW231902   3.857   2.456   1.114 -0.3193 -1.7742 -0.5566
 7190SOL     OW31903   0.667   9.226   2.102 -0.0308  0.7265 -0.4248
 7190SOL    HW131904   0.587   9.223   2.041  0.1783  0.4835 -0.6893
 7190SOL    HW231905   0.751   9.223   2.047  0.1947 -2.6288 -0.0230
 7191SOL     OW31906   1.316   4.617   2.458 -0.1263 -0.1710 -0.2625
 7191SOL    HW131907   1.262   4.644   2.378 -1.8015  0.2886  0.9820
 7191SOL    HW231908   1.322   4.517   2.462  0.2348 -0.1916 -1.1176
 7192SOL     OW31909   2.182   1.539   0.098  0.0400 -0.1363  0.2498
 7192SOL    HW131910   2.235   1.561   0.180  2.8964  0.6142 -1.7268
 7192SOL    HW231911   2.168   1.440   0.093  0.8408 -0.3020  1.0821
 7193SOL     OW31912   4.699   3.002   1.132  0.3009 -0.1497  0.1032
 7193SOL    HW131913   4.663   3.040   1.217  1.9292 -1.2440  1.3281
 7193SOL    HW231914   4.646   2.922   1.107  0.7871 -0.7674  0.9883
 7194SOL     OW31915   7.494   2.234   1.490  0.0005  0.2215 -0.2957
 7194SOL    HW131916   7.518   2.261   1.583  2.9077  2.0921 -1.5139
 7194SOL    HW231917   7.460   2.314   1.440 -1.7314 -0.8127 -0.8062
 7195SOL     OW31918   1.645   3.602   0.228 -0.3967 -0.2302 -0.0786
 7195SOL    HW131919   1.606   3.679   0.278 -0.6975  0.0133 -0.6784
 7195SOL    HW231920   1.692   3.541   0.292  0.0534  0.5730  0.3694
 7196SOL     OW31921   9.969   3.143   1.861  0.1212  0.1490  0.9427
 7196SOL    HW131922   9.916   3.069   1.820 -0.4536  0.2217  1.5483
 7196SOL    HW231923   9.986   3.214   1.793  1.5562 -0.9949  0.0652
 7197SOL     OW31924   2.393   5.076   2.742 -0.3988 -0.5884 -0.1846
 7197SOL    HW131925   2.354   4.999   2.792 -1.4018 -1.9166 -2.9362
 7197SOL    HW231926   2.492   5.067   2.739 -0.3980 -0.9549  0.8014
 7198SOL     OW31927   5.533   8.149   2.607 -0.2047  0.3965  0.5804
 7198SOL    HW131928   5.555   8.141   2.510  2.1380  1.2757  0.9982
 7198SOL    HW231929   5.490   8.064   2.639  0.6011 -0.5587 -0.8248
 7199SOL     OW31930   0.907   4.406   1.082 -0.2280  0.4058  0.3097
 7199SOL    HW131931   0.999   4.444   1.079  0.3201 -0.6115  3.0224
 7199SOL    HW231932   0.910   4.307   1.070 -1.1189  0.5246 -1.0303
 7200SOL     OW31933   3.287   9.460   2.710  0.3133 -0.4816  0.2951
 7200SOL    HW131934   3.329   9.433   2.624  1.2366 -2.7709  1.4043
 7200SOL    HW231935   3.222   9.389   2.739 -2.2231  1.6833  0.0177
 7201SOL     OW31936   8.700   7.448   3.837  0.4143  0.0824  0.0295
 7201SOL    HW131937   8.605   7.458   3.867 -0.0700  0.3990 -1.5999
 7201SOL    HW231938   8.753   7.403   3.910 -1.1483 -0.8108  0.6465
 7202SOL     OW31939   2.436   1.264   2.876  0.4242 -0.5443  0.6136
 7202SOL    HW131940   2.518   1.277   2.821  0.5447 -2.5362  0.2981
 7202SOL    HW231941   2.453   1.294   2.970  0.8755  0.8929  0.0837
 7203SOL     OW31942   4.430   3.863   0.969  0.3947  0.0250 -0.3750
 7203SOL    HW131943   4.401   3.860   0.873  0.0862 -1.7973 -0.2291
 7203SOL    HW231944   4.526   3.837   0.976 -0.3257 -2.6465  0.0905
 7204SOL     OW31945   3.882   4.651   1.734  0.5746  0.1341  0.1369
 7204SOL    HW131946   3.972   4.624   1.697  0.0921 -0.3775 -0.6801
 7204SOL    HW231947   3.817   4.660   1.659  0.1112  1.2198  0.6573
 7205SOL     OW31948   5.636   9.089   2.172  0.2086  0.1194 -0.6135
 7205SOL    HW131949   5.657   9.071   2.268 -0.2074  0.3937 -0.4699
 7205SOL    HW231950   5.709   9.143   2.131 -0.9271  2.3900  0.2919
 7206SOL     OW31951   7.478   0.598   2.473 -0.0270 -0.0625  0.0365
 7206SOL    HW131952   7.518   0.607   2.381 -1.7797  0.2412 -0.7219
 7206SOL    HW231953   7.451   0.503   2.489 -1.4480  0.2242 -0.5324
 7207SOL     OW31954   1.101   3.568   2.477 -0.1376  0.2626  0.0151
 7207SOL    HW131955   1.044   3.557   2.395 -2.3213  0.7071  1.4382
 7207SOL    HW231956   1.141   3.660   2.477  0.8153 -0.1360 -1.1151
 7208SOL     OW31957   8.164   1.971   3.609  0.1593 -0.1183 -0.1402
 7208SOL    HW131958   8.249   1.944   3.655  0.1505  1.0735  0.5781
 7208SOL    HW231959   8.089   1.973   3.674 -0.2990 -0.5426 -0.6467
 7209SOL     OW31960   1.830   7.259   2.849 -0.3359 -0.3087 -0.2307
 7209SOL    HW131961   1.880   7.339   2.882 -1.9263  0.8123 -0.4258
 7209SOL    HW231962   1.882   7.176   2.869  1.0224  0.7179  0.6153
 7210SOL     OW31963   4.117   7.876   2.907 -0.0327 -0.0702  0.2926
 7210SOL    HW131964   4.115   7.795   2.848  2.4762 -0.1211  0.2374
 7210SOL    HW231965   4.112   7.958   2.849 -1.8546 -0.1475  0.3066
 7211SOL     OW31966   9.444   9.718   0.382 -0.2534 -0.1029  0.0963
 7211SOL    HW131967   9.398   9.764   0.306  1.8202  0.5071 -0.8301
 7211SOL    HW231968   9.490   9.785   0.440  2.9309 -0.8968 -1.3544
 7212SOL     OW31969   7.640   1.841   3.760 -0.0644 -0.3590  0.1983
 7212SOL    HW131970   7.724   1.895   3.768 -1.3329  1.7883 -0.5018
 7212SOL    HW231971   7.647   1.759   3.817  1.9831  0.4551  1.1628
 7213SOL     OW31972   6.954   9.683   0.768  0.5719 -0.2952 -0.0398
 7213SOL    HW131973   6.929   9.594   0.729 -0.2877  0.0796 -0.3570
 7213SOL    HW231974   6.882   9.712   0.832  0.5286  0.4757 -0.4359
 7214SOL     OW31975   3.089   1.112   2.654 -0.2301  0.3428 -0.1285
 7214SOL    HW131976   3.057   1.206   2.642 -0.0493  0.3672 -0.4249
 7214SOL    HW231977   3.178   1.112   2.700 -0.2439  0.3156 -0.1017
 7215SOL     OW31978   9.693   1.231   3.086 -0.0610  0.2836  0.0257
 7215SOL    HW131979   9.781   1.254   3.044  0.1805 -0.1561  0.2909
 7215SOL    HW231980   9.642   1.315   3.104 -0.5635  0.4270 -1.9992
 7216SOL     OW31981   7.086   8.980   2.328  0.2286 -0.6183 -0.3211
 7216SOL    HW131982   7.170   8.933   2.299 -0.4006 -1.4544 -0.8222
 7216SOL    HW231983   7.027   8.994   2.248 -0.3433 -0.5250  0.1182
 7217SOL     OW31984   1.607   7.119   2.763 -0.5350 -0.1396 -0.0885
 7217SOL    HW131985   1.676   7.183   2.796 -1.0493  0.0443  0.6527
 7217SOL    HW231986   1.523   7.131   2.815 -1.1617 -0.2973 -1.0492
 7218SOL     OW31987   7.073   8.419   2.542 -0.1264  0.5059 -0.4963
 7218SOL    HW131988   7.143   8.471   2.592 -2.1087  1.5302  1.3237
 7218SOL    HW231989   6.990   8.413   2.598 -1.2411 -1.3630 -2.2742
 7219SOL     OW31990   8.549   1.768   0.829  0.2593 -0.2502 -0.1422
 7219SOL    HW131991   8.608   1.690   0.848 -1.4312 -1.7388 -0.8232
 7219SOL    HW231992   8.468   1.763   0.887  0.5280  1.4755  0.4054
 7220SOL     OW31993   4.152   1.070   3.687  0.0315 -0.0446  0.0829
 7220SOL    HW131994   4.143   1.120   3.773 -1.5939  0.1408 -0.1888
 7220SOL    HW231995   4.078   1.004   3.679  1.1322 -1.2304 -0.4103
 7221SOL     OW31996   9.527   7.986   3.181 -0.0640 -0.3123 -0.5486
 7221SOL    HW131997   9.589   7.931   3.125 -0.3125 -0.4840 -0.6595
 7221SOL    HW231998   9.535   7.959   3.276 -0.0865 -0.4464 -0.5853
 7222SOL     OW31999   1.472   1.048   0.146 -0.8970  0.4145 -0.2372
 7222SOL    HW132000   1.492   1.129   0.091 -1.7233  0.8628  0.1274
 7222SOL    HW232001   1.374   1.027   0.140 -0.5942 -0.8754 -0.7793
 7223SOL     OW32002   3.474   4.694   3.628  0.1843  0.4859  0.3675
 7223SOL    HW132003   3.572   4.679   3.641  0.6125  3.4830  0.9953
 7223SOL    HW232004   3.459   4.751   3.547 -1.0174  0.3174  0.4640
 7224SOL     OW32005   2.972   4.609   2.782 -0.6964 -0.5236  0.6780
 7224SOL    HW132006   2.896   4.581   2.723 -1.3462  0.2798  1.1295
 7224SOL    HW232007   2.937   4.667   2.856 -0.4437 -4.3851  3.9649
 7225SOL     OW32008   3.725   4.254   3.347 -0.3054  0.6797  0.2413
 7225SOL    HW132009   3.820   4.225   3.333 -0.4510  0.3323 -0.0592
 7225SOL    HW232010   3.682   4.270   3.258 -1.0486 -0.9022  0.2924
 7226SOL     OW32011   9.049   9.230   2.893  0.0569  0.1708  0.1969
 7226SOL    HW132012   9.015   9.242   2.986 -1.5551  0.6600 -0.4406
 7226SOL    HW232013   8.987   9.275   2.828  0.2188 -1.6579 -1.2657
 7227SOL     OW32014   2.947   5.167   0.531 -0.9738  0.1528  0.0387
 7227SOL    HW132015   2.881   5.242   0.523 -1.0085 -0.0974 -2.2267
 7227SOL    HW232016   2.962   5.125   0.442  1.7016 -0.2843  0.6352
 7228SOL     OW32017   1.547   3.934   2.611 -0.4300  0.0722  0.3324
 7228SOL    HW132018   1.641   3.963   2.596 -1.0018  0.7113 -2.3464
 7228SOL    HW232019   1.515   3.968   2.700  1.1738  1.7125  0.3092
 7229SOL     OW32020   8.069   1.670   2.339 -0.0995  0.3608 -0.2648
 7229SOL    HW132021   7.975   1.674   2.304 -0.2255  0.1188  0.0372
 7229SOL    HW232022   8.116   1.591   2.300 -0.6686 -0.6969  1.1339
 7230SOL     OW32023   9.433   3.752   3.725  0.0692 -0.2402 -0.4554
 7230SOL    HW132024   9.357   3.734   3.662  0.3045 -0.9233 -0.5368
 7230SOL    HW232025   9.397   3.791   3.810 -0.3206 -0.0496 -0.7046
 7231SOL     OW32026   4.379   1.159   2.882 -0.1602  0.1642 -0.0291
 7231SOL    HW132027   4.313   1.090   2.853 -1.7895  1.3496  0.7153
 7231SOL    HW232028   4.374   1.170   2.982  2.5044 -1.0298  0.2641
 7232SOL     OW32029   1.946   3.048   3.251 -0.0804 -0.0333  0.4210
 7232SOL    HW132030   2.041   3.049   3.284  0.5231 -0.4778 -1.2516
 7232SOL    HW232031   1.944   3.078   3.156 -1.0110 -4.3873 -1.0270
 7233SOL     OW32032   8.314   7.464   0.137 -0.6180 -0.0876 -0.0180
 7233SOL    HW132033   8.354   7.552   0.111 -0.2000 -0.6825 -1.4194
 7233SOL    HW232034   8.340   7.394   0.070  0.5134 -1.6625  2.0006
 7234SOL     OW32035   9.954   2.895   0.469  0.1303  0.3593 -0.7348
 7234SOL    HW132036   9.877   2.888   0.531 -0.5726 -0.5410 -1.6827
 7234SOL    HW232037   9.990   2.988   0.470 -0.3465  0.5360  0.4387
 7235SOL     OW32038   0.171   8.740   0.081 -0.1501  0.3687  0.2496
 7235SOL    HW132039   0.093   8.695   0.125 -1.0657 -0.0536 -1.7506
 7235SOL    HW232040   0.187   8.829   0.124 -2.4241  0.9297  0.0058
 7236SOL     OW32041   0.634   3.924   1.727 -0.6798  0.1526 -0.9525
 7236SOL    HW132042   0.590   3.871   1.801  0.9729  0.1911  0.0981
 7236SOL    HW232043   0.731   3.935   1.748 -0.3217  0.7488 -2.8347
 7237SOL     OW32044   1.335   6.083   0.430  0.6428  0.8391 -0.7788
 7237SOL    HW132045   1.374   5.991   0.426 -0.4118  0.2455  1.7650
 7237SOL    HW232046   1.270   6.094   0.354  0.9066 -0.4313 -1.2087
 7238SOL     OW32047   8.106   0.019   0.246 -0.2906  0.3523  0.5911
 7238SOL    HW132048   8.105   0.001   0.148 -1.2005 -0.4303  0.7345
 7238SOL    HW232049   8.020  -0.014   0.287  0.4404 -0.1015  1.7786
 7239SOL     OW32050   1.331   6.708   0.243  0.3287  0.6252 -0.0181
 7239SOL    HW132051   1.263   6.652   0.289  0.2145 -1.4282 -2.5819
 7239SOL    HW232052   1.421   6.690   0.282 -0.0847  0.6404  0.9438
 7240SOL     OW32053   6.599   0.056   2.336  0.0169  0.0009  0.4069
 7240SOL    HW132054   6.586   0.039   2.238 -1.3912  0.9048  0.4324
 7240SOL    HW232055   6.652  -0.020   2.375 -1.4974 -1.5902 -0.5594
 7241SOL     OW32056   8.313   3.296   2.072  0.1998  0.2569  0.2980
 7241SOL    HW132057   8.265   3.377   2.037  1.0809  0.2264 -1.0099
 7241SOL    HW232058   8.338   3.310   2.168 -0.3937  1.1874  0.3202
 7242SOL     OW32059   8.219   3.341   3.925  0.2898  0.4606 -0.0369
 7242SOL    HW132060   8.248   3.435   3.907  0.9883  0.2476 -0.0202
 7242SOL    HW232061   8.120   3.335   3.916  0.4656  0.6827 -2.4092
 7243SOL     OW32062   6.847   9.103   3.394  1.0011 -0.1504 -0.1820
 7243SOL    HW132063   6.847   9.108   3.494  1.1529 -0.6948 -0.1523
 7243SOL    HW232064   6.770   9.046   3.364  1.7017 -1.0182 -0.3225
 7244SOL     OW32065   3.189   8.971   3.375 -0.0390  0.3759 -0.3259
 7244SOL    HW132066   3.160   8.880   3.345  0.2609  0.2828 -0.3260
 7244SOL    HW232067   3.286   8.984   3.356  0.7755 -0.6228  2.7628
 7245SOL     OW32068   8.027   1.234   3.113 -0.0615 -0.2061 -0.1850
 7245SOL    HW132069   7.982   1.145   3.119 -0.5254 -0.0345 -1.1628
 7245SOL    HW232070   7.986   1.296   3.180 -0.3034 -0.4723 -0.0850
 7246SOL     OW32071   3.089   1.667   3.999 -0.3888  0.3510  0.1854
 7246SOL    HW132072   3.173   1.655   4.051  0.0925 -1.6265 -0.9798
 7246SOL    HW232073   3.055   1.760   4.011  1.9074  1.1509  0.7468
 7247SOL     OW32074   6.930   9.373   0.233 -0.5523 -0.6783  0.2079
 7247SOL    HW132075   6.875   9.301   0.190  0.7202 -0.5631 -1.6866
 7247SOL    HW232076   6.997   9.331   0.294 -1.0717 -0.9823  0.5710
 7248SOL     OW32077   1.911   6.182   2.917 -0.1033  0.1026  0.3934
 7248SOL    HW132078   1.950   6.108   2.972  2.4488  1.4353  0.4333
 7248SOL    HW232079   1.953   6.182   2.826  0.0591  1.5783  0.4480
 7249SOL     OW32080   9.215   8.433   1.980 -0.3538  0.3172  0.0046
 7249SOL    HW132081   9.169   8.370   2.042  0.6964 -0.9675 -0.5030
 7249SOL    HW232082   9.202   8.527   2.012 -3.3885 -0.0001 -0.1724
 7250SOL     OW32083   8.903   1.577   1.483 -0.0201  0.8477 -0.2027
 7250SOL    HW132084   8.897   1.658   1.425  4.3071  1.2179 -0.3141
 7250SOL    HW232085   8.899   1.604   1.579  2.7320  1.4444 -0.2064
 7251SOL     OW32086   3.161   8.116   3.300  0.5040 -0.2268  0.0038
 7251SOL    HW132087   3.150   8.055   3.379  0.9672  0.2138  0.4145
 7251SOL    HW232088   3.101   8.196   3.311  0.0892 -0.4792 -0.4075
 7252SOL     OW32089   5.199   9.642   2.733 -0.3121 -0.5315  0.2853
 7252SOL    HW132090   5.114   9.658   2.683 -1.2922 -2.7028  1.1918
 7252SOL    HW232091   5.198   9.694   2.818  0.5496  1.6923 -1.0100
 7253SOL     OW32092   0.629   7.526   0.316  0.0808  0.0788  0.1836
 7253SOL    HW132093   0.710   7.483   0.275 -0.4223  0.7784 -1.5950
 7253SOL    HW232094   0.615   7.616   0.276 -1.9635 -0.3098 -0.0380
 7254SOL     OW32095   1.064   3.300   3.931  0.2345  0.5020 -0.2563
 7254SOL    HW132096   1.120   3.337   4.005 -1.6838 -0.3048  1.6186
 7254SOL    HW232097   1.116   3.231   3.881  1.9920  1.9618 -0.5233
 7255SOL     OW32098   3.478   2.889   3.947  0.4578  0.4997 -0.1484
 7255SOL    HW132099   3.577   2.901   3.952  0.2998  1.7045  0.2689
 7255SOL    HW232100   3.450   2.818   4.011  0.9980  0.4590  0.0501
 7256SOL     OW32101   2.487   0.264   3.147 -0.3674  0.1954 -0.2037
 7256SOL    HW132102   2.511   0.287   3.053 -0.9589  3.6375  0.4127
 7256SOL    HW232103   2.389   0.243   3.153 -0.4920  0.7377 -0.2637
 7257SOL     OW32104   7.819   0.541   3.765 -0.2312  0.2199  0.2030
 7257SOL    HW132105   7.771   0.574   3.845  2.3955  0.1150  1.8763
 7257SOL    HW232106   7.826   0.614   3.697  2.3474  2.1094  2.3746
 7258SOL     OW32107   0.088   1.552   2.012 -0.5168 -0.5722  0.1194
 7258SOL    HW132108   0.040   1.626   2.057  2.5799  1.2523  0.5807
 7258SOL    HW232109   0.089   1.471   2.071 -0.4085  0.3355  1.3683
 7259SOL     OW32110   8.179   8.996   0.771  0.0040 -0.7305  0.0072
 7259SOL    HW132111   8.192   8.900   0.797 -3.5626 -1.2777  0.0665
 7259SOL    HW232112   8.113   9.038   0.834  1.5322  1.7806 -0.0346
 7260SOL     OW32113   1.148   4.255   2.675  0.7885  0.2709  0.1392
 7260SOL    HW132114   1.088   4.265   2.755 -0.0995 -0.4035 -0.4361
 7260SOL    HW232115   1.199   4.169   2.683 -0.7326 -0.7361 -0.9672
 7261SOL     OW32116   4.175   3.893   3.408  0.0883 -0.4355  0.1848
 7261SOL    HW132117   4.146   3.984   3.380  1.3026 -0.0515  0.1318
 7261SOL    HW232118   4.121   3.824   3.361 -0.8970  0.2594  0.2981
 7262SOL     OW32119   0.713   3.688   1.035  0.5525 -0.7250 -0.0760
 7262SOL    HW132120   0.675   3.775   1.066  1.3198 -0.0542 -0.9862
 7262SOL    HW232121   0.770   3.649   1.107 -2.5048 -2.1694  1.6446
 7263SOL     OW32122   4.030   7.341   3.329  0.2483  0.1015  1.0240
 7263SOL    HW132123   4.105   7.328   3.395  0.8250  0.2859  0.4022
 7263SOL    HW232124   4.015   7.438   3.315  0.3213  0.0626  0.6636
 7264SOL     OW32125   2.589   5.166   0.401  0.0525  0.1218 -0.3987
 7264SOL    HW132126   2.652   5.232   0.360 -1.0339 -0.0354 -2.3490
 7264SOL    HW232127   2.514   5.148   0.338  0.4645 -3.1689 -0.0016
 7265SOL     OW32128   9.196   2.765   2.256 -0.1068 -0.2789 -0.1918
 7265SOL    HW132129   9.211   2.732   2.163 -1.0400 -1.2408 -0.0094
 7265SOL    HW232130   9.171   2.688   2.315 -2.6384  0.7473  0.1648
 7266SOL     OW32131   9.849   7.921   2.794 -0.2144 -0.6139  0.5098
 7266SOL    HW132132   9.789   7.976   2.736  1.1979  0.4402  0.0180
 7266SOL    HW232133   9.902   7.858   2.737  0.9865  0.2396  0.6588
 7267SOL     OW32134   6.968   8.706   2.694  0.1290  0.6135  0.1167
 7267SOL    HW132135   7.057   8.661   2.702  0.9249  2.2231  0.4223
 7267SOL    HW232136   6.944   8.747   2.782 -2.5054 -2.6652  1.0611
 7268SOL     OW32137   0.295   9.735   1.457 -0.0509  0.4920 -0.0042
 7268SOL    HW132138   0.313   9.716   1.554  1.7622  0.7727 -0.2704
 7268SOL    HW232139   0.316   9.830   1.437  0.7443  0.1351 -0.9246
 7269SOL     OW32140   0.800   8.884   1.440  0.0162  0.0335  0.9772
 7269SOL    HW132141   0.826   8.977   1.468  2.0677 -0.4218  0.6724
 7269SOL    HW232142   0.881   8.825   1.441 -0.6223 -0.9640 -2.0234
 7270SOL     OW32143   2.931   8.289   2.969 -0.3396  0.4802  0.2495
 7270SOL    HW132144   3.021   8.247   2.958 -0.1439  0.6982  0.9862
 7270SOL    HW232145   2.902   8.282   3.064 -1.3162 -0.0028 -0.0772
 7271SOL     OW32146   2.192   9.152   3.759  0.0199 -0.1227  0.5187
 7271SOL    HW132147   2.241   9.205   3.691 -1.1750 -1.2948 -1.3129
 7271SOL    HW232148   2.114   9.204   3.793 -0.0594  0.0268  0.1092
 7272SOL     OW32149   3.776   7.411   0.842 -0.5100 -0.0841  0.1549
 7272SOL    HW132150   3.695   7.468   0.829 -1.2556 -0.7809  1.5033
 7272SOL    HW232151   3.748   7.315   0.848  0.4151 -0.3289  0.6701
 7273SOL     OW32152   1.146   9.221   2.675  0.3195 -0.1626 -0.3184
 7273SOL    HW132153   1.078   9.201   2.605  0.1754 -1.1257  0.0915
 7273SOL    HW232154   1.235   9.237   2.631  0.7321 -2.9774 -0.6227
 7274SOL     OW32155   1.611   6.228   3.196  0.4731 -0.1695  0.1007
 7274SOL    HW132156   1.604   6.196   3.102  2.4349  0.6989 -0.3800
 7274SOL    HW232157   1.692   6.187   3.239  1.7521  2.3587  0.1780
 7275SOL     OW32158   7.730   0.202   1.458  0.5475 -0.1832 -0.1426
 7275SOL    HW132159   7.803   0.143   1.425 -0.6328 -2.0210  0.4720
 7275SOL    HW232160   7.703   0.174   1.550 -0.0659  1.2889  0.1424
 7276SOL     OW32161   0.588   0.758   2.952 -0.6798  0.5681 -0.5805
 7276SOL    HW132162   0.619   0.781   2.860 -1.5509  1.6030 -0.6205
 7276SOL    HW232163   0.489   0.741   2.951 -1.1870  3.2101  0.6315
 7277SOL     OW32164   2.015   8.069   3.233 -0.0928 -0.5172 -0.4670
 7277SOL    HW132165   1.939   8.030   3.182 -0.2677 -0.9157  0.0961
 7277SOL    HW232166   2.016   8.168   3.221 -0.1008 -0.6060 -1.2806
 7278SOL     OW32167   4.281   3.632   3.422 -0.1153  0.6459  0.1573
 7278SOL    HW132168   4.209   3.567   3.444  0.2118  0.3863  0.4719
 7278SOL    HW232169   4.249   3.725   3.439 -0.3676  0.5299  0.3182
 7279SOL     OW32170   3.020   3.869   1.825 -0.4366 -0.4787 -0.3114
 7279SOL    HW132171   3.063   3.790   1.783 -0.2609 -0.4946 -0.1042
 7279SOL    HW232172   3.088   3.940   1.843 -0.9418  0.5787 -2.4300
 7280SOL     OW32173   0.298   8.685   1.469  0.1351 -0.6012  0.3469
 7280SOL    HW132174   0.382   8.721   1.510  0.0665 -1.3743  1.1763
 7280SOL    HW232175   0.321   8.637   1.384  0.4073  0.0777  0.0355
 7281SOL     OW32176   2.760   8.146   3.214  0.3719 -0.8419 -0.0639
 7281SOL    HW132177   2.781   8.098   3.128  1.2464 -0.4339 -0.0826
 7281SOL    HW232178   2.758   8.080   3.289  1.6599 -0.9099 -0.0732
 7282SOL     OW32179   4.662   2.631   1.467  0.2117  0.4786 -0.4821
 7282SOL    HW132180   4.598   2.703   1.495  0.4735  0.2309  0.7923
 7282SOL    HW232181   4.755   2.669   1.464  0.4086  0.1023  0.6044
 7283SOL     OW32182   9.100   7.647   0.572  0.1365  0.4348  0.0367
 7283SOL    HW132183   9.128   7.686   0.661 -2.2068  2.2950  0.0238
 7283SOL    HW232184   9.133   7.706   0.499  0.8823 -0.3622 -0.2795
 7284SOL     OW32185   8.199   7.637   0.344  0.7752 -0.0010 -0.1076
 7284SOL    HW132186   8.106   7.601   0.350 -0.0358  1.6884 -2.0457
 7284SOL    HW232187   8.256   7.573   0.291  0.4533 -0.5175  0.1668
 7285SOL     OW32188   0.436   0.195   3.929 -0.1065 -0.0098  0.1424
 7285SOL    HW132189   0.423   0.141   3.846  1.5790 -0.5560  0.2174
 7285SOL    HW232190   0.529   0.229   3.932 -0.4611  0.8716  1.3085
 7286SOL     OW32191   0.154   8.826   1.676 -0.2442  0.0968 -0.6793
 7286SOL    HW132192   0.217   8.897   1.706  0.1112 -1.5009  2.6077
 7286SOL    HW232193   0.198   8.770   1.606  1.1258  0.4004 -0.0756
 7287SOL     OW32194   9.364   1.760   1.458  0.1038  0.0912  0.4681
 7287SOL    HW132195   9.348   1.670   1.419 -2.3434  0.6151  0.1435
 7287SOL    HW232196   9.367   1.754   1.558  0.8548 -0.4623  0.4151
 7288SOL     OW32197   3.336   7.686   2.667  0.2961 -0.3411  0.0673
 7288SOL    HW132198   3.268   7.637   2.612  0.5195 -1.1783  0.5282
 7288SOL    HW232199   3.362   7.630   2.746  0.8765  0.3417  0.3668
 7289SOL     OW32200   0.557   7.982   0.538  0.3780  0.0428  0.8412
 7289SOL    HW132201   0.536   8.013   0.631  0.6262 -1.3575  1.3744
 7289SOL    HW232202   0.641   7.928   0.539 -0.0233 -0.6086 -0.0786
 7290SOL     OW32203   2.347   1.711   3.987 -0.4297  0.2393 -0.0531
 7290SOL    HW132204   2.268   1.665   4.028  0.4130 -0.5499  0.7192
 7290SOL    HW232205   2.383   1.779   4.051 -0.4639  0.5783 -0.3920
 7291SOL     OW32206   1.972   7.456   0.539  0.2346 -0.2109 -0.2813
 7291SOL    HW132207   1.951   7.436   0.444  0.7272 -0.3893 -0.3544
 7291SOL    HW232208   1.936   7.546   0.563 -1.2406 -0.8079 -0.1964
 7292SOL     OW32209   7.149   4.009   0.474  0.2442 -0.2346 -0.1606
 7292SOL    HW132210   7.166   3.965   0.385 -1.2762 -0.7215 -0.2301
 7292SOL    HW232211   7.067   4.066   0.467  0.0809 -0.3240  0.9440
 7293SOL     OW32212   2.143   8.186   0.347 -0.3735  0.0852  0.9988
 7293SOL    HW132213   2.161   8.117   0.417 -1.0853  0.1218  1.2200
 7293SOL    HW232214   2.045   8.204   0.342 -0.3902 -0.2957 -0.3716
 7294SOL     OW32215   3.966   0.982   0.102 -0.5862  0.1861  0.2057
 7294SOL    HW132216   4.053   0.936   0.119 -0.2138  0.3109 -1.2666
 7294SOL    HW232217   3.976   1.046   0.026 -1.6745  1.0514  0.7724
 7295SOL     OW32218   1.642   2.683   3.067 -0.0686 -0.1413 -0.0166
 7295SOL    HW132219   1.553   2.675   3.112 -0.7092 -0.8830 -1.3930
 7295SOL    HW232220   1.713   2.688   3.137 -1.0435 -1.2389  1.1006
 7296SOL     OW32221   1.570   5.865   4.039  0.0855  0.5544  1.0169
 7296SOL    HW132222   1.607   5.957   4.055  1.6677 -0.1073  1.1902
 7296SOL    HW232223   1.470   5.870   4.036  0.2145  2.9526 -3.0877
 7297SOL     OW32224   3.544   1.970   0.454  0.4844  0.0727 -0.5647
 7297SOL    HW132225   3.486   2.033   0.402 -0.1211  2.1563  2.5582
 7297SOL    HW232226   3.494   1.885   0.471 -0.5868  0.7252 -0.4174
 7298SOL     OW32227   0.657   7.544   2.751  0.1670  0.6041  0.2072
 7298SOL    HW132228   0.679   7.610   2.679 -1.6950 -0.5209 -1.4462
 7298SOL    HW232229   0.735   7.483   2.765  0.4718  0.6896 -1.0379
 7299SOL     OW32230   2.999   1.657   2.437  0.1399 -0.2433  0.2935
 7299SOL    HW132231   3.065   1.705   2.379  0.2750 -0.4445  0.2770
 7299SOL    HW232232   3.026   1.665   2.533  0.1088 -0.2034  0.2990
 7300SOL     OW32233   8.087   9.152   2.755  0.2498 -0.8696 -0.3359
 7300SOL    HW132234   8.031   9.200   2.822 -0.3105 -2.5059  0.3917
 7300SOL    HW232235   8.176   9.131   2.795  0.5082 -0.4082 -0.6668
 7301SOL     OW32236   7.820   1.528   0.211  0.4603 -0.6242 -0.4445
 7301SOL    HW132237   7.768   1.443   0.198 -0.0745  0.0638 -3.2201
 7301SOL    HW232238   7.872   1.548   0.128  0.0147  2.1396 -0.1159
 7302SOL     OW32239   3.951   7.421   1.315  0.3126 -0.0394  0.1353
 7302SOL    HW132240   3.855   7.415   1.288  0.5956  0.0027 -0.9130
 7302SOL    HW232241   3.997   7.335   1.293  0.9824  0.6691 -1.2784
 7303SOL     OW32242   2.557   1.626   0.297  0.2529  0.7128  0.1142
 7303SOL    HW132243   2.562   1.542   0.243 -1.8779  0.1443  0.7541
 7303SOL    HW232244   2.522   1.700   0.240 -0.2373  0.5671  0.2303
 7304SOL     OW32245   3.635   0.896   0.956  0.5071 -0.2496 -0.8178
 7304SOL    HW132246   3.689   0.827   0.908 -0.4009 -1.1379 -0.5890
 7304SOL    HW232247   3.696   0.958   1.006  1.3150 -1.0609 -0.7887
 7305SOL     OW32248   7.824   6.256   0.104 -0.3914 -0.1655  0.4487
 7305SOL    HW132249   7.868   6.314   0.173  2.2690 -0.5272 -0.8430
 7305SOL    HW232250   7.776   6.314   0.038  0.8163  0.4873  0.1238
 7306SOL     OW32251   2.773   7.400   1.463  0.2596 -0.6189 -0.1701
 7306SOL    HW132252   2.866   7.426   1.490  0.1140 -0.8914  0.6070
 7306SOL    HW232253   2.750   7.445   1.377  1.4498 -1.2659 -0.8465
 7307SOL     OW32254   8.669   3.033   3.507  0.2404 -0.1528 -0.5180
 7307SOL    HW132255   8.640   2.950   3.459 -0.7973 -0.2493  0.2409
 7307SOL    HW232256   8.734   3.084   3.451  2.1776 -2.3050 -0.2921
 7308SOL     OW32257   2.840   0.090   2.985  0.6791  0.3126 -0.0649
 7308SOL    HW132258   2.910   0.152   3.021 -2.6615  4.7684 -0.8551
 7308SOL    HW232259   2.829   0.106   2.887  0.1823 -2.0872 -0.4385
 7309SOL     OW32260   6.633   8.838   3.047  0.0976  0.1890  0.3483
 7309SOL    HW132261   6.620   8.837   2.948  2.4222  0.0867  0.0200
 7309SOL    HW232262   6.563   8.780   3.090 -0.4764 -0.3529 -1.2720
 7310SOL     OW32263   1.358   4.628   3.259 -0.2971  0.2027  0.0298
 7310SOL    HW132264   1.355   4.728   3.266 -0.6585  0.2226 -0.3500
 7310SOL    HW232265   1.344   4.587   3.349  0.0164  0.4990  0.2118
 7311SOL     OW32266   4.499   0.246   3.870 -0.0585  0.1204  0.2043
 7311SOL    HW132267   4.465   0.164   3.917  0.8896  0.2605  1.1386
 7311SOL    HW232268   4.421   0.304   3.845 -0.7426 -1.0759 -0.4966
 7312SOL     OW32269   8.294   0.470   0.928 -0.2420  0.5275  0.2592
 7312SOL    HW132270   8.321   0.565   0.912 -1.7240  0.9120 -0.0239
 7312SOL    HW232271   8.217   0.447   0.869  0.0724 -0.8437  0.3644
 7313SOL     OW32272   0.934   9.057   3.103 -0.2369  0.1940 -0.2901
 7313SOL    HW132273   0.942   9.112   3.019 -0.1319 -1.8966 -1.6751
 7313SOL    HW232274   1.021   9.059   3.153 -0.2267  1.2513 -0.3255
 7314SOL     OW32275   3.026   7.706   0.722  0.1894 -0.0444  0.5657
 7314SOL    HW132276   2.945   7.763   0.713 -0.1827 -0.3990  1.5698
 7314SOL    HW232277   2.998   7.611   0.740  0.8120 -0.3853 -0.1947
 7315SOL     OW32278   2.847   9.392   0.309  0.1488 -0.3166  0.1570
 7315SOL    HW132279   2.856   9.347   0.220 -2.9057  1.2943 -1.0548
 7315SOL    HW232280   2.905   9.473   0.311  0.8095 -0.7798 -0.0806
 7316SOL     OW32281   4.392   8.722   1.068  0.3750  0.2032  0.2303
 7316SOL    HW132282   4.377   8.747   1.164  0.8725 -0.4490  0.4859
 7316SOL    HW232283   4.346   8.636   1.048  0.4949  0.2019 -0.0432
 7317SOL     OW32284   7.517   8.689   1.113  0.0457  0.5994 -0.3052
 7317SOL    HW132285   7.494   8.696   1.016 -0.6128  0.5565 -0.1514
 7317SOL    HW232286   7.552   8.777   1.145 -0.2143  0.7566 -0.4550
 7318SOL     OW32287   7.761   2.176   3.826  0.3962  0.0683 -0.2208
 7318SOL    HW132288   7.759   2.275   3.842  0.0033 -0.2106  1.4703
 7318SOL    HW232289   7.676   2.135   3.859  0.5123 -0.8317 -1.0145
 7319SOL     OW32290   7.587   1.283   1.576 -0.1787 -0.1483 -0.4558
 7319SOL    HW132291   7.677   1.299   1.534  0.4492  0.4090  1.0795
 7319SOL    HW232292   7.599   1.238   1.664 -1.4835 -1.0547 -0.7438
 7320SOL     OW32293   2.748   2.436   1.689  0.0856 -0.5824  0.2056
 7320SOL    HW132294   2.655   2.439   1.651  0.8598  0.3042 -1.6475
 7320SOL    HW232295   2.742   2.418   1.788 -2.3553  4.0163  1.0628
 7321SOL     OW32296   0.488   3.871   3.967  0.3129  0.7379  0.1147
 7321SOL    HW132297   0.464   3.854   4.063  1.6044  0.0912  0.3261
 7321SOL    HW232298   0.517   3.966   3.956 -1.4960  1.3092  0.0118
 7322SOL     OW32299   2.249   8.584   1.732 -0.5612 -0.4675  0.1143
 7322SOL    HW132300   2.328   8.642   1.749 -1.3525  0.7761 -0.3427
 7322SOL    HW232301   2.277   8.488   1.729  0.7680 -0.1078  0.8449
 7323SOL     OW32302   0.023   1.000   1.976  0.6355  0.2288  0.3263
 7323SOL    HW132303   0.102   0.976   2.033  1.7033 -0.8008 -1.5344
 7323SOL    HW232304  -0.058   0.954   2.011  1.3281 -0.6026  0.8807
 7324SOL     OW32305   4.471   9.863   0.700  0.0236 -0.2369 -0.6195
 7324SOL    HW132306   4.503   9.796   0.633  0.5967 -1.0544  0.4602
 7324SOL    HW232307   4.471   9.822   0.791  0.1896  1.1772  0.0331
 7325SOL     OW32308   0.655   8.967   1.201  0.0829  0.7512  0.3916
 7325SOL    HW132309   0.724   8.936   1.267  1.4636  1.0154 -0.8936
 7325SOL    HW232310   0.584   9.019   1.249  1.9939  2.4809  1.4369
 7326SOL     OW32311   4.041   1.359   3.021 -0.4112  0.4259  0.0445
 7326SOL    HW132312   4.047   1.271   2.975 -0.9381  0.3699  0.0808
 7326SOL    HW232313   4.067   1.347   3.117  1.2266  0.6500 -0.3546
 7327SOL     OW32314   2.809   2.844   2.205  0.1760 -0.0013  0.3127
 7327SOL    HW132315   2.758   2.884   2.281 -0.5008  0.0459 -0.1590
 7327SOL    HW232316   2.814   2.745   2.217 -0.2175 -0.0311  0.2549
 7328SOL     OW32317   4.720   1.285   1.602  0.6154  0.7281  0.1431
 7328SOL    HW132318   4.816   1.315   1.603  1.2890 -1.0399 -2.7912
 7328SOL    HW232319   4.705   1.220   1.676  2.3272 -0.6825 -0.7038
 7329SOL     OW32320   9.547   8.153   3.881 -0.4212 -0.0987  0.7092
 7329SOL    HW132321   9.512   8.230   3.933 -0.0908  0.5285  0.0063
 7329SOL    HW232322   9.491   8.141   3.798  0.7278  0.6149 -0.1831
 7330SOL     OW32323   2.084   6.789   1.480  0.1277  0.4981 -0.1662
 7330SOL    HW132324   2.059   6.767   1.575 -0.6743  0.4709 -0.3857
 7330SOL    HW232325   2.181   6.814   1.477  0.3281 -0.1559  0.5575
 7331SOL     OW32326   1.980   8.030   2.441 -0.5940 -0.1817  0.0072
 7331SOL    HW132327   1.887   8.028   2.405 -0.7014  1.3653  0.1605
 7331SOL    HW232328   2.037   8.090   2.384 -0.0802  0.0901  0.7971
 7332SOL     OW32329   4.382   3.611   1.237 -0.4563  0.6334  0.0596
 7332SOL    HW132330   4.390   3.512   1.245  1.1460  0.6078 -1.5782
 7332SOL    HW232331   4.473   3.652   1.233 -1.0596  1.8482 -2.6827
 7333SOL     OW32332   1.600   3.858   0.584 -0.6336  0.1791  0.2917
 7333SOL    HW132333   1.623   3.942   0.632 -0.0117 -0.5914  1.3586
 7333SOL    HW232334   1.622   3.868   0.487  1.3363  0.5470  0.7634
 7334SOL     OW32335   7.964   8.903   3.096 -0.5747 -0.6226  0.0390
 7334SOL    HW132336   7.967   8.900   3.196 -0.1966 -0.9041  0.0164
 7334SOL    HW232337   8.021   8.978   3.063 -1.2401 -0.0971  0.0628
 7335SOL     OW32338   3.218   8.946   1.161 -0.4526 -0.0958  0.1661
 7335SOL    HW132339   3.317   8.957   1.176 -0.6336  0.5078  0.9548
 7335SOL    HW232340   3.192   8.851   1.178 -0.1717 -0.0348  0.9836
 7336SOL     OW32341   8.768   2.641   3.524  0.5379 -0.1771 -0.0219
 7336SOL    HW132342   8.841   2.703   3.496 -0.6807  1.0830 -0.4858
 7336SOL    HW232343   8.807   2.553   3.550  2.1243  0.1352 -1.2554
 7337SOL     OW32344   8.576   2.058   1.455 -0.0987 -0.4105 -0.7199
 7337SOL    HW132345   8.493   2.061   1.510 -0.6889  1.6841 -1.6575
 7337SOL    HW232346   8.562   1.996   1.377 -0.6764 -0.2981 -0.7080
 7338SOL     OW32347   3.968   1.145   2.322 -0.6328 -0.2730  0.2929
 7338SOL    HW132348   4.008   1.236   2.324  0.7631 -0.8751  1.5618
 7338SOL    HW232349   3.962   1.113   2.227 -0.6192  0.9123 -0.1127
 7339SOL     OW32350   0.886   0.543   0.318  0.0360 -0.0714  0.2184
 7339SOL    HW132351   0.816   0.614   0.321 -0.3572 -0.4301 -0.1929
 7339SOL    HW232352   0.895   0.501   0.409  0.1596  0.3972  0.4213
 7340SOL     OW32353   2.489   3.221   1.584  0.5960 -0.2946 -0.6835
 7340SOL    HW132354   2.551   3.142   1.576  0.9567 -0.1473  0.5100
 7340SOL    HW232355   2.523   3.295   1.527  2.0341  0.0914  0.6425
 7341SOL     OW32356   3.765   2.419   0.514 -0.6624  0.1024 -0.1757
 7341SOL    HW132357   3.691   2.376   0.564  2.0288  0.2596  4.1937
 7341SOL    HW232358   3.808   2.490   0.571  2.5977  0.2726 -2.6790
 7342SOL     OW32359   9.989   8.096   1.732  0.2701  0.7679  0.4023
 7342SOL    HW132360  10.083   8.083   1.764 -0.2512  0.7858  2.0162
 7342SOL    HW232361   9.989   8.110   1.633  1.6611 -2.7075 -0.1601
 7343SOL     OW32362   8.183   5.840   0.909 -0.1622 -0.1289 -0.4753
 7343SOL    HW132363   8.129   5.880   0.983 -0.5319  1.3586 -1.5462
 7343SOL    HW232364   8.230   5.912   0.859  1.9805 -1.3124 -0.2417
 7344SOL     OW32365   7.364   2.842   0.381 -0.4000  0.1305  0.4160
 7344SOL    HW132366   7.369   2.782   0.461  0.7535  0.4742  0.6036
 7344SOL    HW232367   7.456   2.867   0.352 -0.8405  0.7538 -0.4677
 7345SOL     OW32368   8.853   9.219   0.586 -0.1832 -0.1411 -0.1654
 7345SOL    HW132369   8.899   9.193   0.501  0.5000  0.8305 -0.1013
 7345SOL    HW232370   8.905   9.185   0.664 -0.2236 -0.0988 -0.1194
 7346SOL     OW32371   2.556   4.599   3.251 -0.1668 -0.4288 -0.0589
 7346SOL    HW132372   2.552   4.500   3.262  0.5172 -0.2753  1.7152
 7346SOL    HW232373   2.478   4.629   3.195 -0.8247 -1.8678  0.0527
 7347SOL     OW32374   2.175   5.403   3.721  0.1369 -0.4199 -0.1108
 7347SOL    HW132375   2.275   5.410   3.732  0.3096 -0.0151 -1.7700
 7347SOL    HW232376   2.139   5.340   3.788  1.5460 -0.6830  0.4275
 7348SOL     OW32377   3.338   8.660   2.372  0.2338 -0.2926 -0.9502
 7348SOL    HW132378   3.423   8.607   2.377 -1.5987 -3.3494 -0.4846
 7348SOL    HW232379   3.287   8.648   2.457 -0.8124  1.2889 -1.3365
 7349SOL     OW32380   9.574   2.723   1.570 -0.4367  0.8477 -0.9435
 7349SOL    HW132381   9.641   2.656   1.537 -0.1202  1.7840 -2.2043
 7349SOL    HW232382   9.484   2.679   1.577  0.1189 -0.1819 -0.0572
 7350SOL     OW32383   2.120   4.867   3.538  0.2209 -0.2089 -0.0894
 7350SOL    HW132384   2.148   4.859   3.442  0.8453 -1.4967  0.2029
 7350SOL    HW232385   2.151   4.955   3.574 -0.6224  0.5910 -1.2581
 7351SOL     OW32386   4.069   1.942   2.073  0.0681 -0.4673 -0.0564
 7351SOL    HW132387   4.090   1.845   2.063  0.8662 -0.1909 -1.1113
 7351SOL    HW232388   3.970   1.954   2.084 -0.0966 -1.3357 -0.5799
 7352SOL     OW32389   1.426   0.215   2.863  0.3165 -0.0545 -0.2535
 7352SOL    HW132390   1.376   0.284   2.812  1.9613  1.4201  0.0872
 7352SOL    HW232391   1.484   0.163   2.800  0.5231  0.1568 -0.2386
 7353SOL     OW32392   2.868   7.132   2.523 -0.8045 -0.2333  0.3714
 7353SOL    HW132393   2.959   7.174   2.527 -0.0707 -1.8809  1.7272
 7353SOL    HW232394   2.813   7.178   2.453  0.1884  2.4552  1.3065
 7354SOL     OW32395   4.447   7.947   1.181  0.3073  0.7236 -0.1030
 7354SOL    HW132396   4.543   7.920   1.185  0.2284  0.0985 -2.0130
 7354SOL    HW232397   4.407   7.917   1.094 -1.8042  0.3426  0.9584
 7355SOL     OW32398   0.149   2.961   1.348 -0.4512 -0.3368  0.6750
 7355SOL    HW132399   0.129   2.871   1.309  1.1414 -0.8204  0.9182
 7355SOL    HW232400   0.124   3.033   1.283  1.5945 -1.1056 -1.0258
 7356SOL     OW32401   3.928   1.158   1.476  0.3161 -0.3204  0.0589
 7356SOL    HW132402   3.999   1.088   1.480  0.6973  0.0915  0.7474
 7356SOL    HW232403   3.956   1.231   1.414 -0.5300 -1.2483 -1.4496
 7357SOL     OW32404   1.775   1.481   1.873  0.4586  0.0569 -0.2275
 7357SOL    HW132405   1.803   1.576   1.889 -0.0347  0.7848 -3.3476
 7357SOL    HW232406   1.703   1.457   1.938  0.5311  1.8386  0.5602
 7358SOL     OW32407   0.360   0.660   2.435  0.1178 -0.1366 -0.5778
 7358SOL    HW132408   0.266   0.630   2.415  0.5308 -2.1491  0.4488
 7358SOL    HW232409   0.365   0.693   2.529  0.4501 -0.0071 -0.6418
 7359SOL     OW32410   4.195   2.888   0.718 -0.5748 -0.0300  0.3233
 7359SOL    HW132411   4.233   2.804   0.678 -1.9937 -1.3987  1.7616
 7359SOL    HW232412   4.267   2.937   0.767  0.7060  0.6104 -2.1349
 7360SOL     OW32413   7.566   2.851   0.916  0.3487 -0.5312  0.2917
 7360SOL    HW132414   7.516   2.855   0.829 -2.1102  1.2922  1.6900
 7360SOL    HW232415   7.542   2.767   0.965  0.9133 -1.0521 -0.3227
 7361SOL     OW32416   0.471   1.245   1.871  0.4647  0.4199 -0.2538
 7361SOL    HW132417   0.431   1.187   1.800 -0.2174 -0.8683  1.1623
 7361SOL    HW232418   0.567   1.264   1.848  0.3808 -0.3558 -1.2888
 7362SOL     OW32419   9.771   9.514   1.733 -0.2927 -0.0581 -0.5424
 7362SOL    HW132420   9.749   9.612   1.734  0.2486  0.0629  2.0116
 7362SOL    HW232421   9.851   9.499   1.675  0.4202  1.2139  0.0734
 7363SOL     OW32422   3.762   1.161   3.734  0.0970 -0.1869  0.2133
 7363SOL    HW132423   3.762   1.127   3.828  0.3059 -0.5574  0.0816
 7363SOL    HW232424   3.719   1.251   3.731 -1.6470 -0.9984  0.3636
 7364SOL     OW32425   9.705   1.486   0.682  0.0741 -0.0237 -0.4701
 7364SOL    HW132426   9.651   1.570   0.682  1.9063  1.1754  0.2974
 7364SOL    HW232427   9.690   1.437   0.595 -1.0322  1.0372 -0.8955
 7365SOL     OW32428   4.087   3.237   2.959  0.3689  0.6624  0.4453
 7365SOL    HW132429   4.092   3.137   2.962  0.3495  0.6029 -1.2205
 7365SOL    HW232430   4.047   3.271   3.045  0.6449 -0.7331  1.1355
 7366SOL     OW32431   8.431   9.821   1.061  0.5215  0.5739 -0.9303
 7366SOL    HW132432   8.353   9.881   1.081 -0.1249 -0.6453  0.3359
 7366SOL    HW232433   8.401   9.747   1.001  0.2972 -0.7505  0.7638
 7367SOL     OW32434   3.043   3.808   2.744 -0.4368  0.1498  0.0022
 7367SOL    HW132435   3.010   3.796   2.650 -0.3196 -0.9489  0.0908
 7367SOL    HW232436   2.967   3.797   2.808 -0.3850  0.2068  0.0738
 7368SOL     OW32437   1.824   5.387   1.550  0.6565  0.1632  0.2700
 7368SOL    HW132438   1.795   5.454   1.481 -1.7514  0.1382  1.2059
 7368SOL    HW232439   1.921   5.368   1.539  0.9775  2.4240 -1.1954
 7369SOL     OW32440   9.544   2.560   3.069  0.3017 -0.0498  0.1918
 7369SOL    HW132441   9.566   2.653   3.098 -0.1639 -0.3659  1.5962
 7369SOL    HW232442   9.451   2.537   3.099  0.4219 -0.9696 -0.1333
 7370SOL     OW32443   2.727   3.723   0.157 -0.2248 -0.3645 -0.0781
 7370SOL    HW132444   2.806   3.667   0.130  0.0873  0.1342 -0.2047
 7370SOL    HW232445   2.725   3.806   0.101  0.8862  1.0920  1.9627
 7371SOL     OW32446   7.416   9.983   1.517  0.2005 -0.8999 -0.3975
 7371SOL    HW132447   7.487   9.925   1.478  0.2077 -1.0261 -0.1948
 7371SOL    HW232448   7.420  10.073   1.473  0.9980 -0.6551  0.1706
 7372SOL     OW32449   2.938   3.976   1.423  0.1237 -0.1973  0.5021
 7372SOL    HW132450   2.894   3.889   1.445 -1.7527  0.3071 -1.1033
 7372SOL    HW232451   2.938   3.990   1.324 -0.0797  1.8590  0.7660
 7373SOL     OW32452   1.388   3.205   0.302 -0.2170 -0.4874  0.5310
 7373SOL    HW132453   1.371   3.266   0.225 -4.0043 -0.9359  0.9356
 7373SOL    HW232454   1.339   3.119   0.289  0.5514 -1.2803  2.5904
 7374SOL     OW32455   8.700   2.535   1.363 -0.0379  0.7031 -0.3907
 7374SOL    HW132456   8.725   2.631   1.358 -0.5312  0.8694  0.3856
 7374SOL    HW232457   8.743   2.493   1.443 -1.3444  0.7278  0.3321
 7375SOL     OW32458   2.037   1.987   1.838 -0.5309 -0.0349  0.7073
 7375SOL    HW132459   2.036   1.934   1.923  1.1520  0.9527  1.3702
 7375SOL    HW232460   2.122   1.968   1.788  0.2096  2.1613  1.0628
 7376SOL     OW32461   4.306   0.126   3.471  0.3977  0.7165 -0.1205
 7376SOL    HW132462   4.313   0.171   3.560  0.7057  1.7619 -0.6667
 7376SOL    HW232463   4.304   0.195   3.399  0.0429 -0.1221 -0.9236
 7377SOL     OW32464   0.983   3.862   2.083  0.0403 -0.4627  1.0560
 7377SOL    HW132465   0.912   3.920   2.125  1.9592  0.9069  2.4847
 7377SOL    HW232466   0.992   3.778   2.137  0.9402  0.2962  2.1109
 7378SOL     OW32467   3.940   0.159   1.345  0.3588 -0.6668  0.1986
 7378SOL    HW132468   4.013   0.223   1.320 -0.6755  0.0978 -0.8881
 7378SOL    HW232469   3.981   0.075   1.379  1.7474  0.1292  0.5463
 7379SOL     OW32470   1.930   1.333   0.660 -0.2304  0.6340 -0.3245
 7379SOL    HW132471   1.977   1.326   0.572  1.1528  0.7996  0.3859
 7379SOL    HW232472   1.942   1.248   0.711 -0.2721  0.8691  0.0797
 7380SOL     OW32473   0.538   3.410   1.794  0.0834  0.1046  0.4304
 7380SOL    HW132474   0.559   3.441   1.702  0.6438  0.1534  0.5725
 7380SOL    HW232475   0.589   3.326   1.814  0.0278  0.1375  0.7250
 7381SOL     OW32476   2.081   1.355   3.500  1.0635  0.1071 -0.4108
 7381SOL    HW132477   2.080   1.382   3.404 -1.6302  2.9866  0.3646
 7381SOL    HW232478   2.012   1.283   3.515  0.6137  0.5388 -0.4013
 7382SOL     OW32479   2.503   1.537   2.230 -0.7049 -0.1789 -0.2429
 7382SOL    HW132480   2.464   1.528   2.322  0.2962  2.4571  0.4951
 7382SOL    HW232481   2.595   1.497   2.228 -0.8628 -0.5421 -0.1892
 7383SOL     OW32482   1.820   3.571   0.027  0.3856 -0.2941 -0.4995
 7383SOL    HW132483   1.743   3.586   0.089 -1.3345  1.1104 -2.8663
 7383SOL    HW232484   1.882   3.649   0.031  0.4153 -0.3235 -0.3689
 7384SOL     OW32485   0.616   0.043   0.775  0.3864  0.2326 -0.1886
 7384SOL    HW132486   0.571  -0.037   0.815  1.9689 -0.6007 -0.0243
 7384SOL    HW232487   0.547   0.105   0.738 -1.1238  0.8339  3.4312
 7385SOL     OW32488   1.499   9.253   1.561  0.2228  0.2167 -0.4933
 7385SOL    HW132489   1.553   9.309   1.624  1.6586 -0.0697 -1.4549
 7385SOL    HW232490   1.407   9.240   1.598 -0.2155  3.4096 -0.3566
 7386SOL     OW32491   0.498   9.457   0.139  0.6006  0.0639  0.5076
 7386SOL    HW132492   0.551   9.418   0.063 -0.2794  0.3168 -0.2498
 7386SOL    HW232493   0.414   9.498   0.103  0.3120  0.4379  1.5936
 7387SOL     OW32494   3.193   9.589   0.391 -0.1132  0.9679 -0.1736
 7387SOL    HW132495   3.279   9.638   0.405 -0.1726  1.2185 -0.6545
 7387SOL    HW232496   3.190   9.553   0.297  0.4471 -1.0002  0.5505
 7388SOL     OW32497   0.191   2.220   3.196  0.1320  0.0020  0.0769
 7388SOL    HW132498   0.216   2.171   3.279 -0.7574 -1.2156 -0.3728
 7388SOL    HW232499   0.115   2.282   3.215 -1.0634 -1.3781 -0.1773
 7389SOL     OW32500   2.770   8.303   1.793 -0.1815  0.7306 -0.1959
 7389SOL    HW132501   2.740   8.362   1.868 -0.5796  0.5259 -0.1971
 7389SOL    HW232502   2.865   8.275   1.809  0.3653  2.2264 -0.7234
 7390SOL     OW32503   0.230   0.797   0.766  0.8248 -0.2854 -0.1872
 7390SOL    HW132504   0.132   0.814   0.750  0.8986 -0.4896 -0.8624
 7390SOL    HW232505   0.263   0.860   0.836  1.0568  2.2460 -2.4725
 7391SOL     OW32506   8.872   1.980   2.619 -0.1941 -0.5054  0.4401
 7391SOL    HW132507   8.941   1.969   2.691  0.7864  0.3440 -0.3570
 7391SOL    HW232508   8.885   2.068   2.574 -2.2711  0.0107  0.7590
 7392SOL     OW32509   1.410   8.736   2.108 -0.4757 -0.7267  0.5675
 7392SOL    HW132510   1.415   8.732   2.208  3.7742 -0.3674  0.4652
 7392SOL    HW232511   1.411   8.644   2.070  0.1520 -0.8251  0.8185
 7393SOL     OW32512   3.872   1.068   3.517 -0.0302 -0.9006 -0.0845
 7393SOL    HW132513   3.919   0.994   3.564  0.6274 -0.6546 -0.3326
 7393SOL    HW232514   3.835   1.133   3.583  2.8977  0.6776  0.1198
 7394SOL     OW32515   3.797   7.829   0.517  0.2314  0.6502  0.2928
 7394SOL    HW132516   3.821   7.738   0.484  1.4162  1.2557 -0.5375
 7394SOL    HW232517   3.787   7.827   0.617 -1.0676 -0.6697  0.1612
 7395SOL     OW32518   2.261   4.269   1.965 -0.4713  0.2161  0.4175
 7395SOL    HW132519   2.278   4.284   1.868  0.3700 -1.3033  0.3130
 7395SOL    HW232520   2.224   4.352   2.006 -0.0504  1.1255 -1.0269
 7396SOL     OW32521   2.258   7.268   3.006 -0.2287  0.6245 -0.3671
 7396SOL    HW132522   2.332   7.284   2.941  1.4008 -1.2641  0.9475
 7396SOL    HW232523   2.294   7.270   3.099 -1.4534 -2.0723  0.2235
 7397SOL     OW32524   2.494   8.760   0.374 -0.8673 -0.2992  0.6610
 7397SOL    HW132525   2.396   8.744   0.364 -0.9382 -0.3985  1.4752
 7397SOL    HW232526   2.510   8.832   0.441 -0.4315  0.8416 -0.6291
 7398SOL     OW32527   4.357   9.338   0.963 -0.3607  0.2637  0.6023
 7398SOL    HW132528   4.442   9.290   0.939 -0.2776  0.7575 -0.1447
 7398SOL    HW232529   4.281   9.299   0.910  0.0778  2.3341 -1.6498
 7399SOL     OW32530   8.963   2.853   3.494  0.2035 -0.4938  0.4869
 7399SOL    HW132531   9.053   2.825   3.462  0.3490  0.9691 -0.4132
 7399SOL    HW232532   8.969   2.885   3.588  0.6205 -0.3976  0.4274
 7400SOL     OW32533   0.483   8.127   1.860  0.7494  0.3401 -0.1433
 7400SOL    HW132534   0.430   8.070   1.922 -0.7366  1.6421 -0.1905
 7400SOL    HW232535   0.566   8.159   1.906  0.9197 -0.7619  0.3182
 7401SOL     OW32536   1.509   0.946   2.903  0.1545 -0.0363 -0.1441
 7401SOL    HW132537   1.508   1.046   2.906  0.2327 -0.0512  0.7192
 7401SOL    HW232538   1.515   0.910   2.997  0.1841 -0.8478 -0.4496
 7402SOL     OW32539   3.583   4.259   2.645  0.3325  0.3265  0.2141
 7402SOL    HW132540   3.676   4.266   2.609  0.7212  3.0824  1.6217
 7402SOL    HW232541   3.560   4.163   2.659  1.9972 -0.5414 -2.5663
 7403SOL     OW32542   5.581   8.427   2.075 -0.7147 -0.9782 -0.1915
 7403SOL    HW132543   5.627   8.339   2.062 -3.0360 -2.2506 -0.0353
 7403SOL    HW232544   5.617   8.471   2.157 -0.0562 -2.1357  0.1632
 7404SOL     OW32545   2.405   5.142   0.200  0.2167  0.4692 -0.2322
 7404SOL    HW132546   2.377   5.061   0.148  0.5858  0.2892 -0.1463
 7404SOL    HW232547   2.424   5.217   0.136  0.7861  0.2133 -0.3606
 7405SOL     OW32548   0.526   1.129   2.645  0.1224  0.0915 -0.0501
 7405SOL    HW132549   0.574   1.072   2.578  1.1014  2.2481 -1.2387
 7405SOL    HW232550   0.590   1.193   2.686 -1.3479  1.7223 -0.2481
 7406SOL     OW32551   3.790   7.509   0.188 -0.1643 -0.1761 -0.1973
 7406SOL    HW132552   3.863   7.441   0.176 -1.6084 -1.9644  0.8486
 7406SOL    HW232553   3.816   7.594   0.142  2.0594 -1.1527 -0.8289
 7407SOL     OW32554   4.621   9.247   0.868  0.7408 -0.2019  0.2936
 7407SOL    HW132555   4.620   9.148   0.862  0.9313 -0.2892  1.5596
 7407SOL    HW232556   4.701   9.276   0.920 -0.1704  0.5300  1.3051
 7408SOL     OW32557   3.463   8.676   1.411  0.0891 -0.7416 -0.2010
 7408SOL    HW132558   3.516   8.756   1.441 -1.9216  0.0074  1.4969
 7408SOL    HW232559   3.459   8.609   1.485 -0.6320 -1.1697 -0.6279
 7409SOL     OW32560   1.630   0.100   2.685  0.1427 -0.0090 -0.3781
 7409SOL    HW132561   1.702   0.167   2.671 -1.3390  1.7832  0.3192
 7409SOL    HW232562   1.670   0.013   2.712  2.0263  1.0541  0.3716
 7410SOL     OW32563   5.239   3.237   0.474 -0.1161 -0.1373  0.0678
 7410SOL    HW132564   5.197   3.214   0.562 -0.9136 -1.2734 -0.5980
 7410SOL    HW232565   5.220   3.165   0.408  1.6381  0.0546 -0.6733
 7411SOL     OW32566   1.558   0.206   1.249 -0.2460  0.4714 -0.2890
 7411SOL    HW132567   1.639   0.160   1.214 -1.0207 -1.0641 -0.1086
 7411SOL    HW232568   1.485   0.202   1.180 -0.7738  0.1548  0.2795
 7412SOL     OW32569   2.636   4.850   1.486 -0.5177 -0.2845  0.1949
 7412SOL    HW132570   2.580   4.933   1.497  0.4152  0.0635  2.6866
 7412SOL    HW232571   2.733   4.874   1.491 -0.2284 -1.4490  0.3685
 7413SOL     OW32572   2.696   1.289   0.781  0.5679 -0.3784  0.0469
 7413SOL    HW132573   2.605   1.282   0.740  1.5521 -2.2618 -1.8926
 7413SOL    HW232574   2.691   1.258   0.876 -0.8072 -0.5481 -0.0675
 7414SOL     OW32575   2.611   6.444   0.370  0.2114 -0.2487  0.4920
 7414SOL    HW132576   2.685   6.414   0.431  0.5158  0.0422  0.2642
 7414SOL    HW232577   2.548   6.368   0.355 -0.4841 -0.0088  2.0786
 7415SOL     OW32578   9.895   0.047   1.169 -1.2201 -0.5843  0.2723
 7415SOL    HW132579   9.802   0.039   1.132 -1.1525 -1.7062  0.3125
 7415SOL    HW232580   9.915  -0.034   1.225  0.4764 -1.3019 -1.3222
 7416SOL     OW32581   4.107   9.572   2.065  0.0783  0.2498  0.3799
 7416SOL    HW132582   4.198   9.537   2.089 -0.5019 -0.3626  1.7493
 7416SOL    HW232583   4.041   9.496   2.067 -0.6158  0.8455  0.2247
 7417SOL     OW32584   3.167   4.275   2.291  0.1917  0.2430  0.3730
 7417SOL    HW132585   3.091   4.316   2.341  0.1994  2.4355 -1.3340
 7417SOL    HW232586   3.253   4.310   2.327  0.3880 -1.4243  1.5932
 7418SOL     OW32587   9.216   2.204   2.774  0.4011  0.0354 -0.7721
 7418SOL    HW132588   9.149   2.133   2.798  0.6021  0.2326  0.3688
 7418SOL    HW232589   9.246   2.189   2.679 -0.6291 -0.5478 -1.0209
 7419SOL     OW32590   2.813   4.914   0.993 -0.7408 -0.1660 -0.1898
 7419SOL    HW132591   2.823   5.001   0.944  1.4370  2.0687  3.8808
 7419SOL    HW232592   2.854   4.841   0.939  3.4617  2.5203 -0.9608
 7420SOL     OW32593   0.964   1.499   2.296  0.1443 -0.1174  0.0695
 7420SOL    HW132594   1.054   1.533   2.323  0.9443 -2.8229  0.8878
 7420SOL    HW232595   0.908   1.485   2.377 -0.5566  0.2472 -0.3461
 7421SOL     OW32596   4.510   3.541   3.589 -0.2585 -0.1127 -0.0551
 7421SOL    HW132597   4.432   3.595   3.620 -0.8358 -0.3753 -1.0207
 7421SOL    HW232598   4.590   3.562   3.646 -0.4582  1.7825 -0.4235
 7422SOL     OW32599   3.856   7.093   0.173 -0.0829  0.6113  0.0227
 7422SOL    HW132600   3.853   7.061   0.268 -0.7849  0.2444 -0.1137
 7422SOL    HW232601   3.925   7.042   0.122 -1.8456 -1.3882 -0.4291
 7423SOL     OW32602   9.201   3.103   2.064  0.2456 -0.3175 -0.0891
 7423SOL    HW132603   9.155   3.132   2.148  2.1491  0.9752  0.5592
 7423SOL    HW232604   9.220   3.005   2.068 -2.5209 -0.8877 -0.4298
 7424SOL     OW32605   0.149   7.607   0.227  0.3912  0.1653 -0.0423
 7424SOL    HW132606   0.129   7.570   0.318  0.4350  2.2285  0.8323
 7424SOL    HW232607   0.089   7.563   0.160  0.4030 -1.4209  0.9597
 7425SOL     OW32608   3.427   3.292   1.838  0.6650  0.1583 -0.3195
 7425SOL    HW132609   3.472   3.353   1.903  1.3707  0.7220 -1.3328
 7425SOL    HW232610   3.332   3.321   1.826  0.8555  0.7506 -0.4140
 7426SOL     OW32611   1.156   0.506   1.644 -0.2329  0.1315 -0.0139
 7426SOL    HW132612   1.244   0.475   1.608 -1.0606 -1.9225 -0.3499
 7426SOL    HW232613   1.157   0.606   1.654  1.7268  0.2414 -1.0682
 7427SOL     OW32614   1.242   0.771   1.601 -0.2088 -0.0925 -0.2052
 7427SOL    HW132615   1.261   0.844   1.667  0.5602  0.3202 -0.8826
 7427SOL    HW232616   1.143   0.764   1.587 -0.3575  0.0231  0.7546
 7428SOL     OW32617   2.291   5.970   1.031  0.1419  0.1860 -0.4909
 7428SOL    HW132618   2.331   5.907   1.098  3.4702  1.2308 -1.3781
 7428SOL    HW232619   2.304   6.064   1.062 -0.5550  0.5950 -1.4076
 7429SOL     OW32620   2.309   1.481   1.302 -0.3528 -0.7208 -0.0099
 7429SOL    HW132621   2.386   1.538   1.271  0.2228 -1.6957 -0.4096
 7429SOL    HW232622   2.236   1.484   1.234 -0.4711 -0.1826  0.1375
 7430SOL     OW32623   9.078   1.844   2.480 -0.0984  0.4982  0.4191
 7430SOL    HW132624   8.999   1.897   2.510  0.0680  1.5027 -0.8749
 7430SOL    HW232625   9.149   1.906   2.446  1.8862 -0.2744  2.9816
 7431SOL     OW32626   3.565   3.204   2.257  0.4666 -0.0743  0.1895
 7431SOL    HW132627   3.579   3.131   2.190  1.3588  0.6158 -0.3934
 7431SOL    HW232628   3.488   3.181   2.317 -0.1314 -0.8434 -0.8700
 7432SOL     OW32629   1.980   7.372   3.849  0.2095 -0.0790  0.1616
 7432SOL    HW132630   1.928   7.454   3.875 -0.4605 -0.4882  0.1108
 7432SOL    HW232631   2.051   7.398   3.783  1.2639  0.7893  1.5931
 7433SOL     OW32632   9.728   2.076   0.086  0.5996  0.1488 -0.0133
 7433SOL    HW132633   9.762   2.037   0.171 -0.6051  0.6809  0.7205
 7433SOL    HW232634   9.685   2.165   0.104 -0.3869 -0.0962 -1.0469
 7434SOL     OW32635   8.976   1.511   2.679  0.2424  0.7702 -0.1401
 7434SOL    HW132636   8.969   1.420   2.720  0.4670  1.2704  1.0189
 7434SOL    HW232637   9.010   1.502   2.586  3.9408 -0.0762  1.1908
 7435SOL     OW32638   8.872   1.814   1.310 -0.3678  0.3448  0.6702
 7435SOL    HW132639   8.887   1.892   1.371 -0.2960  1.1737 -0.3889
 7435SOL    HW232640   8.955   1.795   1.258 -1.0930  1.0888 -0.7981
 7436SOL     OW32641   9.312   0.108   1.533  0.2367  0.0041 -0.4002
 7436SOL    HW132642   9.343   0.120   1.627  1.2322  1.6766 -0.9296
 7436SOL    HW232643   9.221   0.067   1.534  0.5952 -0.8124  1.2658
 7437SOL     OW32644   2.747   7.341   3.037  0.6037  0.0954  0.0990
 7437SOL    HW132645   2.846   7.343   3.024  0.3979  2.6828 -1.3088
 7437SOL    HW232646   2.720   7.411   3.103 -0.0260 -2.6463  2.8892
 7438SOL     OW32647   4.404   9.189   3.745 -0.3324 -0.6499  0.5539
 7438SOL    HW132648   4.495   9.152   3.766 -0.9653 -0.9728  2.7937
 7438SOL    HW232649   4.337   9.114   3.744 -0.7864 -0.2446  0.0577
 7439SOL     OW32650   1.074   8.449   0.205  0.0067 -0.1876 -0.1761
 7439SOL    HW132651   1.051   8.540   0.238  1.6170  0.1521  0.0202
 7439SOL    HW232652   1.140   8.406   0.267  1.0785 -0.5464 -1.5502
 7440SOL     OW32653   2.676   9.015   1.789 -0.1025  0.4462  0.1334
 7440SOL    HW132654   2.771   9.032   1.763 -0.3644  1.3659 -0.2257
 7440SOL    HW232655   2.675   8.960   1.873  0.7528  1.0972  0.5848
  10.00000  10.00000   4.04060
