chitosan Film  in water:acetic acid 2%
11776
    1CHTO  H203    1   4.876   6.913   2.672
    1CHTO   O82    2   4.896   6.972   2.743
    1CHTO  C123    3   5.023   6.939   2.802
    1CHTO  H227    4   5.044   7.012   0.012
    1CHTO   O77    5   5.002   6.807   2.859
    1CHTO  C118    6   5.115   6.755   0.062
    1CHTO  H222    7   5.145   6.828   0.138
    1CHTO  C125    8   5.071   6.622   0.134
    1CHTO   O84    9   5.027   6.521   0.042
    1CHTO  H205   10   5.100   6.491   2.861
    1CHTO  C114   11   5.232   6.733   2.834
    1CHTO  H218   12   5.201   6.661   2.758
    1CHTO  C116   13   5.269   6.866   2.761
    1CHTO  H220   14   5.316   6.936   2.834
    1CHTO   O79   15   5.369   6.836   2.662
    1CHTO  H201   16   5.398   6.915   2.621
    1CHTO  C120   17   5.141   6.934   2.696
    1CHTO  H224   18   5.111   6.870   2.610
    1CHTO   N21   19   5.172   7.069   2.641
    1CHTO  H211   20   5.274   7.072   2.604
    1CHTO  H212   21   5.158   7.145   2.716
    1CHTO   O75   22   5.340   6.681   0.044
    1CHTO  C112   23   5.409   6.544   2.854
    1CHTO  H216   24   5.390   6.537   2.746
    1CHTO   O73   25   5.350   6.433   0.055
    1CHTO  C113   26   5.401   6.304   0.020
    1CHTO  H217   27   5.385   6.286   2.782
    1CHTO  C124   28   5.320   6.197   0.095
    1CHTO   O83   29   5.182   6.196   0.056
    1CHTO  H204   30   5.137   6.130   0.103
    1CHTO  C109   31   5.552   6.295   0.054
    1CHTO  H213   32   5.562   6.308   0.163
    1CHTO  C110   33   5.628   6.408   2.849
    1CHTO  H214   34   5.624   6.388   2.741
    1CHTO   O78   35   5.767   6.404   0.018
    1CHTO  H200   36   5.817   6.466   2.838
    1CHTO  C111   37   5.565   6.547   0.010
    1CHTO  H215   38   5.581   6.570   0.116
    1CHTO   N19   39   5.628   6.658   2.803
    1CHTO  H207   40   5.582   6.752   2.830
    1CHTO  H208   41   5.615   6.642   2.697
    1CHTO   O74   42   5.605   6.163   0.017
    1CHTO  C115   43   5.714   6.104   0.121
    1CHTO  H219   44   5.730   6.172   0.205
    1CHTO   O76   45   5.666   5.972   0.185
    1CHTO  C122   46   5.629   5.872   0.088
    1CHTO  H226   47   5.528   5.896   0.054
    1CHTO  C126   48   5.616   5.736   0.165
    1CHTO   O85   49   5.568   5.630   0.082
    1CHTO  H206   50   5.479   5.646   0.058
    1CHTO  C121   51   5.730   5.863   2.835
    1CHTO  H225   52   5.749   5.756   2.812
    1CHTO   O81   53   5.669   5.918   2.717
    1CHTO  H202   54   5.652   6.009   2.729
    1CHTO  C119   55   5.866   5.932   2.867
    1CHTO  H223   56   5.906   5.875   0.082
    1CHTO  C117   57   5.849   6.083   0.043
    1CHTO  H221   58   5.844   6.154   2.830
    1CHTO   N20   59   5.968   6.127   0.123
    1CHTO  H209   60   5.960   6.233   0.146
    1CHTO  H210   61   5.974   6.070   0.215
    1CHTO   O80   62   5.979   5.909   2.757
    1CHTO  C103   63   6.093   5.807   2.783
    1CHTO  H190   64   6.122   5.810   0.018
    1CHTO  C101   65   6.063   5.658   2.742
    1CHTO  H188   66   6.029   5.656   2.638
    1CHTO   O68   67   5.949   5.603   2.831
    1CHTO  H168   68   5.924   5.518   2.803
    1CHTO   C99   69   6.196   5.570   2.753
    1CHTO  H186   70   6.231   5.571   2.859
    1CHTO   N17   71   6.179   5.427   2.714
    1CHTO  H174   72   6.099   5.382   2.772
    1CHTO  H175   73   6.272   5.373   2.728
    1CHTO   C97   74   6.309   5.638   2.671
    1CHTO  H184   75   6.283   5.634   2.564
    1CHTO   O64   76   6.329   5.773   2.716
    1CHTO  C104   77   6.216   5.859   2.700
    1CHTO  H191   78   6.188   5.866   2.594
    1CHTO  C108   79   6.258   6.001   2.741
    1CHTO   O71   80   6.301   6.007   0.007
    1CHTO  H171   81   6.327   6.095   0.028
    1CHTO   O62   82   6.439   5.579   2.695
    1CHTO   C91   83   6.524   5.552   2.581
    1CHTO  H178   84   6.461   5.534   2.494
    1CHTO   C92   85   6.596   5.416   2.612
    1CHTO  H179   86   6.631   5.418   2.717
    1CHTO   O66   87   6.497   5.312   2.607
    1CHTO  H166   88   6.435   5.321   2.677
    1CHTO   C93   89   6.716   5.386   2.515
    1CHTO  H180   90   6.675   5.371   2.415
    1CHTO   N16   91   6.791   5.262   2.548
    1CHTO  H172   92   6.871   5.247   2.478
    1CHTO  H173   93   6.724   5.177   2.547
    1CHTO   C94   94   6.810   5.512   2.513
    1CHTO  H181   95   6.842   5.540   2.613
    1CHTO   O61   96   6.734   5.622   2.461
    1CHTO   C95   97   6.629   5.667   2.547
    1CHTO  H182   98   6.672   5.702   2.640
    1CHTO  C106   99   6.561   5.792   2.480
    1CHTO   O69  100   6.502   5.759   2.353
    1CHTO  H169  101   6.463   5.836   2.317
    1CHTO   O63  102   6.939   5.493   2.415
    1CHTO   C96  103   7.064   5.563   2.474
    1CHTO  H183  104   7.030   5.650   2.530
    1CHTO   C98  105   7.166   5.615   2.366
    1CHTO  H185  106   7.115   5.682   2.295
    1CHTO   O67  107   7.265   5.696   2.432
    1CHTO  H167  108   7.225   5.775   2.465
    1CHTO  C102  109   7.242   5.495   2.291
    1CHTO  H189  110   7.342   5.533   2.267
    1CHTO   N18  111   7.183   5.454   2.161
    1CHTO  H176  112   7.097   5.516   2.138
    1CHTO  H177  113   7.153   5.350   2.162
    1CHTO  C105  114   7.260   5.374   2.389
    1CHTO  H192  115   7.178   5.303   2.375
    1CHTO   O65  116   7.261   5.414   2.527
    1CHTO  C100  117   7.134   5.461   2.575
    1CHTO  H187  118   7.070   5.374   2.589
    1CHTO  C107  119   7.159   5.522   2.715
    1CHTO   O70  120   7.037   5.561   2.780
    1CHTO  H170  121   6.998   5.633   2.735
    1CHTO   O57  122   7.397   5.307   2.352
    1CHTO   C85  123   7.405   5.164   2.348
    1CHTO  H157  124   7.326   5.131   2.278
    1CHTO   C83  125   7.366   5.103   2.487
    1CHTO  H155  126   7.264   5.134   2.510
    1CHTO   O56  127   7.449   5.160   2.590
    1CHTO  H135  128   7.538   5.135   2.578
    1CHTO   C81  129   7.370   4.948   2.478
    1CHTO  H153  130   7.307   4.917   2.394
    1CHTO   N14  131   7.310   4.881   2.596
    1CHTO  H141  132   7.379   4.812   2.640
    1CHTO  H142  133   7.220   4.830   2.570
    1CHTO   C79  134   7.517   4.902   2.446
    1CHTO  H151  135   7.514   4.794   2.430
    1CHTO   O52  136   7.563   4.963   2.320
    1CHTO   C86  137   7.547   5.108   2.307
    1CHTO  H158  138   7.628   5.150   2.371
    1CHTO   C90  139   7.584   5.146   2.161
    1CHTO   O60  140   7.582   5.288   2.137
    1CHTO  H138  141   7.652   5.329   2.185
    1CHTO   O50  142   7.611   4.929   2.551
    1CHTO   C73  143   7.733   4.871   2.600
    1CHTO  H145  144   7.797   4.842   2.515
    1CHTO   C74  145   7.707   4.745   2.688
    1CHTO  H146  146   7.649   4.674   2.627
    1CHTO   O54  147   7.833   4.682   2.716
    1CHTO  H133  148   7.871   4.647   2.638
    1CHTO   C75  149   7.627   4.788   2.818
    1CHTO  H147  150   7.528   4.824   2.788
    1CHTO   N13  151   7.600   4.677   0.043
    1CHTO  H139  152   7.694   4.633   0.076
    1CHTO  H140  153   7.542   4.600   2.865
    1CHTO   C76  154   7.700   4.910   0.022
    1CHTO  H148  155   7.793   4.874   0.065
    1CHTO   O49  156   7.728   5.018   2.797
    1CHTO   C77  157   7.809   4.977   2.686
    1CHTO  H149  158   7.903   4.933   2.722
    1CHTO   C88  159   7.849   5.101   2.606
    1CHTO   O58  160   7.941   5.066   2.495
    1CHTO  H136  161   7.964   5.144   2.448
    1CHTO   O51  162   7.596   4.971   0.138
    1CHTO   C78  163   7.607   5.124   0.169
    1CHTO  H150  164   7.660   5.179   0.088
    1CHTO   C80  165   7.683   5.148   0.302
    1CHTO  H152  166   7.630   5.092   0.383
    1CHTO   O55  167   7.815   5.091   0.288
    1CHTO  H134  168   7.864   5.138   0.223
    1CHTO   C84  169   7.688   5.302   0.338
    1CHTO  H156  170   7.750   5.351   0.263
    1CHTO   N15  171   7.752   5.328   0.472
    1CHTO  H143  172   7.853   5.293   0.471
    1CHTO  H144  173   7.697   5.278   0.549
    1CHTO   C87  174   7.547   5.365   0.330
    1CHTO  H159  175   7.485   5.332   0.414
    1CHTO   O53  176   7.477   5.324   0.194
    1CHTO   C82  177   7.466   5.183   0.179
    1CHTO  H154  178   7.411   5.139   0.263
    1CHTO   C89  179   7.384   5.152   0.051
    1CHTO   O59  180   7.250   5.202   0.062
    1CHTO  H137  181   7.204   5.185   2.852
    1CHTO   O45  182   7.559   5.533   0.337
    1CHTO   C67  183   7.480   5.605   0.241
    1CHTO  H124  184   7.495   5.564   0.141
    1CHTO   C65  185   7.328   5.597   0.277
    1CHTO  H122  186   7.308   5.492   0.301
    1CHTO   O44  187   7.249   5.634   0.163
    1CHTO  H102  188   7.158   5.619   0.181
    1CHTO   C63  189   7.302   5.678   0.410
    1CHTO  H120  190   7.368   5.639   0.488
    1CHTO   N11  191   7.167   5.659   0.471
    1CHTO  H108  192   7.163   5.708   0.566
    1CHTO  H109  193   7.147   5.555   0.484
    1CHTO   C61  194   7.343   5.828   0.386
    1CHTO  H118  195   7.334   5.878   0.483
    1CHTO   O40  196   7.483   5.838   0.346
    1CHTO   C68  197   7.532   5.755   0.235
    1CHTO  H125  198   7.642   5.751   0.246
    1CHTO   C72  199   7.503   5.821   0.097
    1CHTO   O48  200   7.568   5.948   0.083
    1CHTO  H105  201   7.547   5.984   2.869
    1CHTO   O38  202   7.263   5.895   0.286
    1CHTO   C55  203   7.192   6.015   0.322
    1CHTO  H112  204   7.194   6.031   0.430
    1CHTO   C56  205   7.044   6.003   0.266
    1CHTO  H113  206   7.052   5.976   0.159
    1CHTO   O42  207   6.975   5.894   0.330
    1CHTO  H100  208   6.969   5.909   0.423
    1CHTO   C57  209   6.965   6.139   0.282
    1CHTO  H114  210   6.949   6.155   0.389
    1CHTO   N10  211   6.832   6.139   0.217
    1CHTO  H106  212   6.757   6.102   0.285
    1CHTO  H107  213   6.833   6.077   0.129
    1CHTO   C58  214   7.051   6.256   0.227
    1CHTO  H115  215   7.061   6.246   0.116
    1CHTO   O37  216   7.181   6.257   0.287
    1CHTO   C59  217   7.260   6.141   0.259
    1CHTO  H116  218   7.271   6.128   0.151
    1CHTO   C70  219   7.400   6.164   0.317
    1CHTO   O46  220   7.469   6.271   0.252
    1CHTO  H103  221   7.553   6.283   0.292
    1CHTO   O39  222   6.986   6.399   0.267
    1CHTO   C60  223   6.982   6.494   0.159
    1CHTO  H117  224   7.044   6.459   0.076
    1CHTO   C62  225   6.836   6.511   0.107
    1CHTO  H119  226   6.805   6.412   0.067
    1CHTO   O43  227   6.751   6.546   0.218
    1CHTO  H101  228   6.662   6.551   0.189
    1CHTO   C66  229   6.834   6.619   2.857
    1CHTO  H123  230   6.897   6.582   2.776
    1CHTO   N12  231   6.698   6.637   2.799
    1CHTO  H110  232   6.702   6.709   2.719
    1CHTO  H111  233   6.661   6.542   2.764
    1CHTO   C69  234   6.895   6.752   0.036
    1CHTO  H126  235   6.831   6.798   0.116
    1CHTO   O41  236   7.038   6.726   0.092
    1CHTO   C64  237   7.041   6.630   0.205
    1CHTO  H121  238   6.980   6.669   0.290
    1CHTO   C71  239   7.186   6.614   0.255
    1CHTO   O47  240   7.236   6.737   0.308
    1CHTO  H104  241   7.248   6.800   0.239
    1CHTO   O34  242   6.908   6.854   2.791
    1CHTO   C49  243   6.928   7.000   2.763
    1CHTO   H91  244   6.942   7.008   2.655
    1CHTO   C47  245   7.055   7.051   2.835
    1CHTO   H89  246   7.075   7.152   2.794
    1CHTO   O33  247   7.164   6.964   2.798
    1CHTO   H70  248   7.245   6.999   2.830
    1CHTO   C45  249   7.029   7.061   0.123
    1CHTO   H87  250   6.997   6.963   0.160
    1CHTO    N8  251   7.152   7.100   0.197
    1CHTO   H75  252   7.183   7.020   0.263
    1CHTO   H76  253   7.136   7.190   0.255
    1CHTO   C43  254   6.903   7.158   0.150
    1CHTO   H85  255   6.885   7.156   0.258
    1CHTO   O29  256   6.789   7.111   0.076
    1CHTO   C50  257   6.804   7.083   2.805
    1CHTO   H92  258   6.716   7.025   2.775
    1CHTO   C54  259   6.791   7.212   2.718
    1CHTO   O36  260   6.660   7.267   2.728
    1CHTO   H72  261   6.654   7.345   2.676
    1CHTO   O27  262   6.932   7.296   0.117
    1CHTO   C37  263   6.921   7.426   0.177
    1CHTO   H79  264   6.901   7.417   0.284
    1CHTO   C38  265   7.056   7.503   0.161
    1CHTO   H80  266   7.087   7.497   0.056
    1CHTO   O31  267   7.153   7.436   0.243
    1CHTO   H68  268   7.176   7.353   0.206
    1CHTO   C39  269   7.042   7.655   0.202
    1CHTO   H81  270   7.021   7.658   0.309
    1CHTO    N7  271   7.168   7.734   0.179
    1CHTO   H73  272   7.194   7.734   0.075
    1CHTO   H74  273   7.155   7.835   0.215
    1CHTO   C40  274   6.918   7.720   0.128
    1CHTO   H82  275   6.938   7.724   0.021
    1CHTO   O26  276   6.801   7.643   0.158
    1CHTO   C41  277   6.805   7.505   0.110
    1CHTO   H83  278   6.818   7.504   0.001
    1CHTO   C52  279   6.667   7.442   0.143
    1CHTO   O35  280   6.558   7.504   0.065
    1CHTO   H71  281   6.476   7.463   0.087
    1CHTO   O28  282   6.885   7.851   0.177
    1CHTO   C42  283   6.854   7.963   0.088
    1CHTO   H84  284   6.864   7.925   2.856
    1CHTO   C44  285   6.955   8.083   0.098
    1CHTO   H86  286   6.963   8.112   0.204
    1CHTO   O32  287   7.084   8.034   0.059
    1CHTO   H69  288   7.084   8.009   2.838
    1CHTO   C48  289   6.912   8.211   0.015
    1CHTO   H90  290   6.925   8.189   2.779
    1CHTO    N9  291   7.004   8.328   0.044
    1CHTO   H77  292   6.998   8.354   0.149
    1CHTO   H78  293   6.977   8.412   2.852
    1CHTO   C51  294   6.761   8.245   0.043
    1CHTO   H93  295   6.754   8.267   0.150
    1CHTO   O30  296   6.683   8.130   0.008
    1CHTO   C46  297   6.708   8.013   0.104
    1CHTO   H88  298   6.693   8.048   0.206
    1CHTO   C53  299   6.605   7.902   0.070
    1CHTO   O72  300   6.471   7.946   0.094
    1CHTO  H199  301   6.457   7.956   0.187
    1CHTO   O22  302   6.709   8.359   2.841
    1CHTO   C31  303   6.666   8.378   2.700
    1CHTO   H59  304   6.627   8.482   2.695
    1CHTO   C29  305   6.780   8.370   2.595
    1CHTO   H57  306   6.823   8.269   2.598
    1CHTO   O21  307   6.884   8.462   2.634
    1CHTO   H37  308   6.854   8.551   2.628
    1CHTO   C27  309   6.727   8.399   2.448
    1CHTO   H55  310   6.690   8.503   2.444
    1CHTO    N5  311   6.832   8.382   2.345
    1CHTO   H43  312   6.866   8.280   2.342
    1CHTO   H44  313   6.794   8.412   2.248
    1CHTO   C25  314   6.604   8.306   2.419
    1CHTO   H53  315   6.637   8.201   2.417
    1CHTO   O17  316   6.503   8.322   2.524
    1CHTO   C32  317   6.548   8.286   2.655
    1CHTO   H60  318   6.582   8.183   2.654
    1CHTO   C36  319   6.426   8.295   2.751
    1CHTO   O25  320   6.370   8.427   2.757
    1CHTO   H40  321   6.297   8.427   2.816
    1CHTO   O15  322   6.533   8.341   2.278
    1CHTO   C19  323   6.466   8.269   2.169
    1CHTO   H47  324   6.373   8.326   2.154
    1CHTO   C20  325   6.548   8.271   2.036
    1CHTO   H48  326   6.651   8.237   2.051
    1CHTO   O19  327   6.554   8.409   1.994
    1CHTO   H35  328   6.609   8.417   1.919
    1CHTO   C21  329   6.482   8.181   1.921
    1CHTO   H49  330   6.392   8.231   1.886
    1CHTO    N4  331   6.572   8.168   1.803
    1CHTO   H41  332   6.600   8.065   1.786
    1CHTO   H42  333   6.524   8.207   1.715
    1CHTO   C22  334   6.438   8.044   1.978
    1CHTO   H50  335   6.526   7.984   2.004
    1CHTO   O14  336   6.356   8.064   2.095
    1CHTO   C23  337   6.424   8.124   2.206
    1CHTO   H51  338   6.511   8.061   2.230
    1CHTO   C34  339   6.329   8.122   2.326
    1CHTO   O23  340   6.305   7.989   2.371
    1CHTO   H38  341   6.247   7.991   2.445
    1CHTO   O16  342   6.350   7.972   1.889
    1CHTO   C24  343   6.406   7.829   1.827
    1CHTO   H52  344   6.514   7.820   1.838
    1CHTO   C26  345   6.371   7.825   1.676
    1CHTO   H54  346   6.262   7.845   1.666
    1CHTO   O20  347   6.442   7.931   1.611
    1CHTO   H36  348   6.415   7.938   1.521
    1CHTO   C30  349   6.402   7.686   1.611
    1CHTO   H58  350   6.511   7.672   1.606
    1CHTO    N6  351   6.352   7.678   1.471
    1CHTO   H45  352   6.401   7.753   1.410
    1CHTO   H46  353   6.245   7.695   1.468
    1CHTO   C33  354   6.346   7.570   1.699
    1CHTO   H61  355   6.236   7.571   1.698
    1CHTO   O18  356   6.391   7.589   1.835
    1CHTO   C28  357   6.342   7.707   1.899
    1CHTO   H56  358   6.233   7.714   1.891
    1CHTO   C35  359   6.382   7.695   2.047
    1CHTO   O24  360   6.317   7.790   2.132
    1CHTO   H39  361   6.349   7.781   2.219
    1CHTO    O9  362   6.384   7.440   1.648
    1CHTO   C13  363   6.342   7.315   1.745
    1CHTO   H26  364   6.249   7.344   1.800
    1CHTO   C11  365   6.462   7.284   1.845
    1CHTO   H24  366   6.457   7.357   1.928
    1CHTO    O8  367   6.589   7.302   1.779
    1CHTO    H3  368   6.597   7.243   1.707
    1CHTO    C9  369   6.443   7.141   1.901
    1CHTO   H22  370   6.340   7.136   1.939
    1CHTO    N2  371   6.526   7.111   2.021
    1CHTO   H10  372   6.630   7.112   1.995
    1CHTO   H11  373   6.506   7.184   2.098
    1CHTO    C7  374   6.458   7.037   1.782
    1CHTO   H20  375   6.394   6.953   1.813
    1CHTO    O4  376   6.409   7.089   1.656
    1CHTO   C14  377   6.302   7.185   1.661
    1CHTO   H27  378   6.215   7.136   1.710
    1CHTO   C18  379   6.259   7.216   1.516
    1CHTO   O13  380   6.144   7.300   1.511
    1CHTO    H7  381   6.069   7.253   1.543
    1CHTO    O2  382   6.611   6.985   1.758
    1CHTO    C1  383   6.624   6.844   1.739
    1CHTO   H14  384   6.526   6.799   1.713
    1CHTO    C2  385   6.680   6.770   1.868
    1CHTO   H15  386   6.766   6.830   1.901
    1CHTO    O6  387   6.579   6.772   1.970
    1CHTO    H1  388   6.504   6.723   1.943
    1CHTO    C3  389   6.729   6.620   1.837
    1CHTO   H16  390   6.640   6.557   1.817
    1CHTO    N1  391   6.801   6.558   1.953
    1CHTO    H8  392   6.903   6.533   1.927
    1CHTO    H9  393   6.802   6.625   2.038
    1CHTO    C4  394   6.813   6.617   1.704
    1CHTO   H17  395   6.908   6.669   1.721
    1CHTO    O1  396   6.740   6.678   1.597
    1CHTO    C5  397   6.717   6.819   1.616
    1CHTO   H18  398   6.812   6.870   1.635
    1CHTO   C16  399   6.655   6.875   1.486
    1CHTO   O11  400   6.743   6.858   1.375
    1CHTO    H5  401   6.701   6.887   1.297
    1CHTO    O3  402   6.839   6.481   1.660
    1CHTO    C6  403   6.962   6.463   1.584
    1CHTO   H19  404   7.003   6.557   1.546
    1CHTO    C8  405   7.072   6.395   1.672
    1CHTO   H21  406   7.030   6.304   1.715
    1CHTO    O7  407   7.106   6.488   1.777
    1CHTO    H2  408   7.035   6.497   1.837
    1CHTO   C12  409   7.199   6.357   1.584
    1CHTO   H25  410   7.244   6.453   1.551
    1CHTO    N3  411   7.303   6.285   1.665
    1CHTO   H12  412   7.262   6.195   1.707
    1CHTO   H13  413   7.340   6.350   1.744
    1CHTO   C15  414   7.153   6.277   1.457
    1CHTO   H28  415   7.116   6.178   1.482
    1CHTO   O10  416   7.264   6.265   1.350
    1CHTO    H4  417   7.335   6.214   1.385
    1CHTO    O5  418   7.053   6.350   1.384
    1CHTO   C10  419   6.932   6.374   1.459
    1CHTO   H23  420   6.892   6.278   1.492
    1CHTO   C17  421   6.828   6.436   1.365
    1CHTO   O12  422   6.871   6.562   1.311
    1CHTO    H6  423   6.805   6.597   1.255
    2CHTO  H203  424   5.878   4.552   2.845
    2CHTO   O82  425   5.907   4.633   0.010
    2CHTO  C123  426   5.810   4.688   0.101
    2CHTO  H227  427   5.852   4.779   0.147
    2CHTO   O77  428   5.698   4.722   0.014
    2CHTO  C118  429   5.591   4.791   0.080
    2CHTO  H222  430   5.628   4.883   0.126
    2CHTO  C125  431   5.483   4.828   2.841
    2CHTO   O84  432   5.539   4.912   2.739
    2CHTO  H205  433   5.473   4.931   2.675
    2CHTO  C114  434   5.530   4.699   0.188
    2CHTO  H218  435   5.488   4.611   0.138
    2CHTO  C116  436   5.638   4.647   0.288
    2CHTO  H220  437   5.670   4.732   0.353
    2CHTO   O79  438   5.576   4.551   0.376
    2CHTO  H201  439   5.512   4.593   0.431
    2CHTO  C120  440   5.762   4.586   0.212
    2CHTO  H224  441   5.726   4.492   0.164
    2CHTO   N21  442   5.870   4.548   0.307
    2CHTO  H211  443   5.937   4.632   0.323
    2CHTO  H212  444   5.925   4.464   0.268
    2CHTO   O75  445   5.427   4.777   0.250
    2CHTO  C112  446   5.289   4.693   0.280
    2CHTO  H216  447   5.312   4.610   0.349
    2CHTO   O73  448   5.239   4.646   0.154
    2CHTO  C113  449   5.115   4.575   0.160
    2CHTO  H217  450   5.125   4.489   0.231
    2CHTO  C124  451   5.084   4.517   0.022
    2CHTO   O83  452   5.181   4.420   2.849
    2CHTO  H204  453   5.156   4.385   2.766
    2CHTO  C109  454   5.004   4.672   0.209
    2CHTO  H213  455   5.002   4.755   0.137
    2CHTO  C110  456   5.043   4.725   0.351
    2CHTO  H214  457   5.041   4.642   0.421
    2CHTO   O78  458   4.942   4.819   0.394
    2CHTO  H200  459   4.939   4.893   0.336
    2CHTO  C111  460   5.184   4.790   0.348
    2CHTO  H215  461   5.179   4.881   0.286
    2CHTO   N19  462   5.232   4.832   0.482
    2CHTO  H207  463   5.163   4.904   0.525
    2CHTO  H208  464   5.330   4.879   0.474
    2CHTO   O74  465   4.874   4.605   0.211
    2CHTO  C115  466   4.765   4.682   0.114
    2CHTO  H219  467   4.789   4.788   0.102
    2CHTO   O76  468   4.766   4.622   2.840
    2CHTO  C122  469   4.677   4.684   2.745
    2CHTO  H226  470   4.674   4.619   2.658
    2CHTO  C126  471   4.736   4.821   2.694
    2CHTO   O85  472   4.862   4.805   2.628
    2CHTO  H206  473   4.850   4.757   2.548
    2CHTO  C121  474   4.529   4.701   2.800
    2CHTO  H225  475   4.477   4.773   2.734
    2CHTO   O81  476   4.463   4.575   2.789
    2CHTO  H202  477   4.371   4.585   2.804
    2CHTO  C119  478   4.523   4.754   0.077
    2CHTO  H223  479   4.560   4.857   0.073
    2CHTO  C117  480   4.620   4.673   0.172
    2CHTO  H221  481   4.599   4.567   0.182
    2CHTO   N20  482   4.616   4.727   0.312
    2CHTO  H209  483   4.515   4.721   0.351
    2CHTO  H210  484   4.683   4.670   0.375
    2CHTO   O80  485   4.372   4.776   0.131
    2CHTO  C103  486   4.279   4.880   0.060
    2CHTO  H190  487   4.338   4.948   2.867
    2CHTO  C101  488   4.162   4.818   2.843
    2CHTO  H188  489   4.112   4.741   0.032
    2CHTO   O68  490   4.223   4.750   2.716
    2CHTO  H168  491   4.264   4.815   2.662
    2CHTO   C99  492   4.054   4.929   2.803
    2CHTO  H186  493   4.102   5.005   2.737
    2CHTO   N17  494   3.935   4.875   2.728
    2CHTO  H174  495   3.969   4.822   2.640
    2CHTO  H175  496   3.869   4.956   2.701
    2CHTO   C97  497   4.010   5.006   0.061
    2CHTO  H184  498   3.958   4.935   0.127
    2CHTO   O64  499   4.126   5.064   0.124
    2CHTO  C104  500   4.217   4.967   0.177
    2CHTO  H191  501   4.169   4.901   0.250
    2CHTO  C108  502   4.324   5.046   0.255
    2CHTO   O71  503   4.391   4.965   0.352
    2CHTO  H171  504   4.332   4.944   0.422
    2CHTO   O62  505   3.928   5.121   0.032
    2CHTO   C91  506   3.827   5.155   0.129
    2CHTO  H178  507   3.817   5.072   0.200
    2CHTO   C92  508   3.690   5.166   0.055
    2CHTO  H179  509   3.675   5.079   2.860
    2CHTO   O66  510   3.585   5.159   0.154
    2CHTO  H166  511   3.582   5.073   0.192
    2CHTO   C93  512   3.672   5.301   2.847
    2CHTO  H180  513   3.565   5.311   2.824
    2CHTO   N16  514   3.738   5.302   2.714
    2CHTO  H172  515   3.844   5.287   2.725
    2CHTO  H173  516   3.718   5.395   2.663
    2CHTO   C94  517   3.717   5.425   0.066
    2CHTO  H181  518   3.804   5.476   0.024
    2CHTO   O61  519   3.753   5.388   0.200
    2CHTO   C95  520   3.858   5.289   0.210
    2CHTO  H182  521   3.951   5.333   0.173
    2CHTO  C106  522   3.881   5.261   0.363
    2CHTO   O69  523   3.987   5.166   0.385
    2CHTO  H169  524   4.069   5.204   0.360
    2CHTO   O63  525   3.594   5.523   0.074
    2CHTO   C96  526   3.633   5.675   0.069
    2CHTO  H183  527   3.740   5.684   0.049
    2CHTO   C98  528   3.602   5.753   0.200
    2CHTO  H185  529   3.497   5.738   0.228
    2CHTO   O67  530   3.680   5.692   0.304
    2CHTO  H167  531   3.659   5.731   0.387
    2CHTO  C102  532   3.636   5.910   0.185
    2CHTO  H189  533   3.746   5.917   0.181
    2CHTO   N18  534   3.594   5.993   0.301
    2CHTO  H176  535   3.642   5.956   0.391
    2CHTO  H177  536   3.622   6.096   0.285
    2CHTO  C105  537   3.579   5.966   0.051
    2CHTO  H192  538   3.472   5.983   0.061
    2CHTO   O65  539   3.601   5.881   2.807
    2CHTO  C100  540   3.556   5.746   2.822
    2CHTO  H187  541   3.448   5.747   2.846
    2CHTO  C107  542   3.572   5.673   2.686
    2CHTO   O70  543   3.708   5.666   2.644
    2CHTO  H170  544   3.756   5.608   2.700
    2CHTO   O57  545   3.658   6.107   0.026
    2CHTO   C85  546   3.588   6.217   2.835
    2CHTO  H157  547   3.492   6.226   0.020
    2CHTO   C83  548   3.549   6.184   2.687
    2CHTO  H155  549   3.483   6.097   2.687
    2CHTO   O56  550   3.667   6.145   2.613
    2CHTO  H135  551   3.727   6.217   2.607
    2CHTO   C81  552   3.472   6.305   2.626
    2CHTO  H153  553   3.385   6.323   2.688
    2CHTO   N14  554   3.417   6.276   2.491
    2CHTO  H141  555   3.356   6.188   2.494
    2CHTO  H142  556   3.357   6.358   2.457
    2CHTO   C79  557   3.563   6.434   2.629
    2CHTO  H151  558   3.500   6.518   2.597
    2CHTO   O52  559   3.605   6.463   2.767
    2CHTO   C86  560   3.670   6.352   2.836
    2CHTO  H158  561   3.766   6.340   2.783
    2CHTO   C90  562   3.706   6.394   0.111
    2CHTO   O60  563   3.589   6.429   0.187
    2CHTO  H138  564   3.614   6.450   0.275
    2CHTO   O50  565   3.677   6.428   2.543
    2CHTO   C73  566   3.768   6.504   2.461
    2CHTO  H145  567   3.732   6.608   2.450
    2CHTO   C74  568   3.779   6.440   2.319
    2CHTO  H146  569   3.677   6.438   2.276
    2CHTO   O54  570   3.857   6.528   2.236
    2CHTO  H133  571   3.860   6.495   2.148
    2CHTO   C75  572   3.839   6.294   2.333
    2CHTO  H147  573   3.767   6.232   2.389
    2CHTO   N13  574   3.858   6.222   2.204
    2CHTO  H139  575   3.828   6.284   2.121
    2CHTO  H140  576   3.800   6.131   2.202
    2CHTO   C76  577   3.974   6.295   2.420
    2CHTO  H148  578   4.053   6.341   2.360
    2CHTO   O49  579   3.957   6.372   2.544
    2CHTO   C77  580   3.909   6.505   2.524
    2CHTO  H149  581   3.977   6.559   2.458
    2CHTO   C88  582   3.913   6.582   2.657
    2CHTO   O58  583   4.047   6.607   2.697
    2CHTO  H136  584   4.048   6.654   2.778
    2CHTO   O51  585   4.011   6.141   2.465
    2CHTO   C78  586   4.112   6.126   2.589
    2CHTO  H150  587   4.097   6.207   2.663
    2CHTO   C80  588   4.259   6.127   2.542
    2CHTO  H152  589   4.270   6.054   2.459
    2CHTO   O55  590   4.287   6.258   2.489
    2CHTO  H134  591   4.281   6.324   2.556
    2CHTO   C84  592   4.359   6.089   2.659
    2CHTO  H156  593   4.356   6.170   2.733
    2CHTO   N15  594   4.502   6.078   2.614
    2CHTO  H143  595   4.564   6.147   2.668
    2CHTO  H144  596   4.511   6.098   2.509
    2CHTO   C87  597   4.312   5.959   2.729
    2CHTO  H159  598   4.321   5.874   2.662
    2CHTO   O53  599   4.168   5.979   2.772
    2CHTO   C82  600   4.080   5.994   2.661
    2CHTO  H154  601   4.089   5.909   2.593
    2CHTO   C89  602   3.935   5.993   2.714
    2CHTO   O59  603   3.903   5.870   2.779
    2CHTO  H137  604   3.897   5.801   2.715
    2CHTO   O45  605   4.404   5.927   2.866
    2CHTO   C67  606   4.334   5.865   0.106
    2CHTO  H124  607   4.241   5.919   0.124
    2CHTO   C65  608   4.299   5.714   0.078
    2CHTO  H122  609   4.373   5.678   0.006
    2CHTO   O44  610   4.169   5.712   0.016
    2CHTO  H102  611   4.171   5.754   2.802
    2CHTO   C63  612   4.318   5.622   0.205
    2CHTO  H120  613   4.425   5.604   0.219
    2CHTO   N11  614   4.267   5.481   0.193
    2CHTO  H108  615   4.306   5.436   0.104
    2CHTO  H109  616   4.160   5.481   0.190
    2CHTO   C61  617   4.269   5.700   0.333
    2CHTO  H118  618   4.293   5.636   0.420
    2CHTO   O40  619   4.342   5.825   0.353
    2CHTO   C68  620   4.417   5.879   0.239
    2CHTO  H125  621   4.511   5.821   0.229
    2CHTO   C72  622   4.458   6.025   0.269
    2CHTO   O48  623   4.347   6.113   0.289
    2CHTO  H105  624   4.301   6.089   0.367
    2CHTO   O38  625   4.128   5.727   0.328
    2CHTO   C55  626   4.065   5.774   0.449
    2CHTO  H112  627   4.140   5.823   0.514
    2CHTO   C56  628   3.992   5.655   0.523
    2CHTO  H113  629   3.929   5.604   0.448
    2CHTO   O42  630   4.089   5.559   0.566
    2CHTO  H100  631   4.047   5.483   0.601
    2CHTO   C57  632   3.905   5.706   0.644
    2CHTO  H114  633   3.974   5.739   0.722
    2CHTO   N10  634   3.819   5.601   0.704
    2CHTO  H106  635   3.872   5.548   0.782
    2CHTO  H107  636   3.787   5.530   0.629
    2CHTO   C58  637   3.819   5.828   0.601
    2CHTO  H115  638   3.740   5.794   0.530
    2CHTO   O37  639   3.899   5.929   0.536
    2CHTO   C59  640   3.961   5.884   0.414
    2CHTO  H116  641   3.885   5.844   0.347
    2CHTO   C70  642   4.027   6.003   0.345
    2CHTO   O46  643   3.935   6.106   0.308
    2CHTO  H103  644   3.876   6.074   0.242
    2CHTO   O39  645   3.752   5.901   0.729
    2CHTO   C60  646   3.624   5.956   0.698
    2CHTO  H117  647   3.625   5.996   0.596
    2CHTO   C62  648   3.511   5.848   0.706
    2CHTO  H119  649   3.537   5.770   0.631
    2CHTO   O43  650   3.512   5.789   0.837
    2CHTO  H101  651   3.448   5.720   0.842
    2CHTO   C66  652   3.371   5.915   0.666
    2CHTO  H123  653   3.380   5.958   0.566
    2CHTO   N12  654   3.261   5.815   0.657
    2CHTO  H110  655   3.246   5.767   0.753
    2CHTO  H111  656   3.170   5.862   0.622
    2CHTO   C69  657   3.340   6.031   0.764
    2CHTO  H126  658   3.330   5.992   0.868
    2CHTO   O41  659   3.458   6.134   0.757
    2CHTO   C64  660   3.592   6.076   0.792
    2CHTO  H121  661   3.592   6.040   0.897
    2CHTO   C71  662   3.700   6.186   0.778
    2CHTO   O47  663   3.673   6.295   0.867
    2CHTO  H104  664   3.686   6.267   0.956
    2CHTO   O34  665   3.210   6.104   0.728
    2CHTO   C49  666   3.131   6.203   0.813
    2CHTO   H91  667   3.078   6.145   0.888
    2CHTO   C47  668   3.028   6.273   0.720
    2CHTO   H89  669   2.964   6.336   0.785
    2CHTO   O33  670   2.946   6.172   0.658
    2CHTO   H70  671   2.892   6.130   0.722
    2CHTO   C45  672   3.108   6.365   0.615
    2CHTO   H87  673   3.183   6.302   0.563
    2CHTO    N8  674   3.020   6.427   0.513
    2CHTO   H75  675   2.965   6.349   0.461
    2CHTO   H76  676   3.080   6.482   0.442
    2CHTO   C43  677   3.194   6.474   0.697
    2CHTO   H85  678   3.252   6.530   0.623
    2CHTO   O29  679   3.279   6.408   0.793
    2CHTO   C50  680   3.223   6.309   0.881
    2CHTO   H92  681   3.307   6.255   0.926
    2CHTO   C54  682   3.158   6.376   1.005
    2CHTO   O36  683   3.117   6.280   1.104
    2CHTO   H72  684   3.080   6.325   1.177
    2CHTO   O27  685   3.111   6.571   0.764
    2CHTO   C37  686   3.018   6.679   0.776
    2CHTO   H79  687   2.942   6.673   0.697
    2CHTO   C38  688   2.943   6.669   0.912
    2CHTO   H80  689   3.018   6.660   0.992
    2CHTO   O31  690   2.864   6.549   0.911
    2CHTO   H68  691   2.798   6.554   0.845
    2CHTO   C39  692   2.854   6.796   0.940
    2CHTO   H81  693   2.769   6.791   0.871
    2CHTO    N7  694   2.796   6.798   1.079
    2CHTO   H73  695   2.734   6.885   1.092
    2CHTO   H74  696   2.875   6.797   1.152
    2CHTO   C40  697   2.931   6.930   0.909
    2CHTO   H82  698   3.003   6.953   0.988
    2CHTO   O26  699   2.995   6.923   0.780
    2CHTO   C41  700   3.091   6.815   0.766
    2CHTO   H83  701   3.165   6.822   0.847
    2CHTO   C52  702   3.166   6.833   0.632
    2CHTO   O35  703   3.076   6.830   0.512
    2CHTO   H71  704   3.036   6.746   0.504
    2CHTO   O28  705   2.840   7.041   0.895
    2CHTO   C42  706   2.880   7.178   0.926
    2CHTO   H84  707   2.800   7.238   0.882
    2CHTO   C44  708   3.013   7.230   0.862
    2CHTO   H86  709   3.096   7.169   0.899
    2CHTO   O32  710   3.001   7.211   0.720
    2CHTO   H69  711   3.082   7.231   0.678
    2CHTO   C48  712   3.042   7.381   0.900
    2CHTO   H90  713   2.965   7.442   0.852
    2CHTO    N9  714   3.173   7.430   0.845
    2CHTO   H77  715   3.186   7.534   0.870
    2CHTO   H78  716   3.254   7.371   0.885
    2CHTO   C51  717   3.030   7.401   1.056
    2CHTO   H93  718   3.112   7.347   1.104
    2CHTO   O30  719   2.902   7.354   1.099
    2CHTO   C46  720   2.881   7.208   1.079
    2CHTO   H88  721   2.962   7.153   1.127
    2CHTO   C53  722   2.745   7.172   1.145
    2CHTO   O72  723   2.750   7.196   1.286
    2CHTO  H199  724   2.667   7.173   1.324
    2CHTO   O22  725   3.032   7.540   1.093
    2CHTO   C31  726   3.057   7.585   1.232
    2CHTO   H59  727   3.037   7.695   1.232
    2CHTO   C29  728   2.962   7.523   1.338
    2CHTO   H57  729   2.975   7.414   1.334
    2CHTO   O21  730   2.826   7.552   1.300
    2CHTO   H37  731   2.805   7.508   1.220
    2CHTO   C27  732   2.994   7.573   1.484
    2CHTO   H55  733   2.970   7.680   1.491
    2CHTO    N5  734   2.915   7.500   1.588
    2CHTO   H43  735   2.854   7.423   1.544
    2CHTO   H44  736   2.853   7.570   1.643
    2CHTO   C25  737   3.148   7.559   1.511
    2CHTO   H53  738   3.175   7.452   1.513
    2CHTO   O17  739   3.226   7.624   1.407
    2CHTO   C32  740   3.205   7.569   1.276
    2CHTO   H60  741   3.230   7.463   1.276
    2CHTO   C36  742   3.300   7.642   1.176
    2CHTO   O25  743   3.437   7.608   1.200
    2CHTO   H40  744   3.466   7.647   1.280
    2CHTO   O15  745   3.186   7.623   1.647
    2CHTO   C19  746   3.278   7.583   1.752
    2CHTO   H47  747   3.261   7.474   1.763
    2CHTO   C20  748   3.428   7.607   1.718
    2CHTO   H48  749   3.446   7.711   1.688
    2CHTO   O19  750   3.460   7.523   1.605
    2CHTO   H35  751   3.415   7.554   1.528
    2CHTO   C21  752   3.524   7.573   1.839
    2CHTO   H49  753   3.526   7.465   1.853
    2CHTO    N4  754   3.665   7.615   1.814
    2CHTO   H41  755   3.704   7.562   1.728
    2CHTO   H42  756   3.669   7.721   1.796
    2CHTO   C22  757   3.468   7.635   1.970
    2CHTO   H50  758   3.476   7.743   1.965
    2CHTO   O14  759   3.332   7.596   1.990
    2CHTO   C23  760   3.243   7.646   1.889
    2CHTO   H51  761   3.254   7.755   1.887
    2CHTO   C34  762   3.099   7.614   1.931
    2CHTO   O23  763   3.065   7.681   2.053
    2CHTO   H38  764   2.977   7.659   2.077
    2CHTO   O16  765   3.537   7.586   2.088
    2CHTO   C24  766   3.523   7.684   2.215
    2CHTO   H52  767   3.446   7.760   2.200
    2CHTO   C26  768   3.659   7.752   2.239
    2CHTO   H54  769   3.737   7.673   2.245
    2CHTO   O20  770   3.689   7.834   2.125
    2CHTO   H36  771   3.775   7.871   2.133
    2CHTO   C30  772   3.661   7.833   2.373
    2CHTO   H58  773   3.594   7.920   2.364
    2CHTO    N6  774   3.797   7.887   2.404
    2CHTO   H45  775   3.868   7.861   2.327
    2CHTO   H46  776   3.793   7.995   2.413
    2CHTO   C33  777   3.604   7.748   2.490
    2CHTO   H61  778   3.673   7.664   2.511
    2CHTO   O18  779   3.477   7.693   2.451
    2CHTO   C28  780   3.481   7.602   2.340
    2CHTO   H56  781   3.554   7.523   2.357
    2CHTO   C35  782   3.339   7.541   2.327
    2CHTO   O24  783   3.334   7.431   2.236
    2CHTO   H39  784   3.381   7.358   2.270
    2CHTO    O9  785   3.595   7.823   2.613
    2CHTO   C13  786   3.569   7.730   2.746
    2CHTO   H26  787   3.633   7.641   2.738
    2CHTO   C11  788   3.415   7.691   2.754
    2CHTO   H24  789   3.395   7.615   2.677
    2CHTO    O8  790   3.333   7.806   2.726
    2CHTO    H3  791   3.346   7.834   2.638
    2CHTO    C9  792   3.387   7.630   0.024
    2CHTO   H22  793   3.462   7.551   0.037
    2CHTO    N2  794   3.257   7.558   0.031
    2CHTO   H10  795   3.175   7.628   0.020
    2CHTO   H11  796   3.249   7.505   0.125
    2CHTO    C7  797   3.410   7.740   0.135
    2CHTO   H20  798   3.446   7.682   0.223
    2CHTO    O4  799   3.508   7.839   0.099
    2CHTO   C14  800   3.616   7.802   0.011
    2CHTO   H27  801   3.679   7.730   0.067
    2CHTO   C18  802   3.703   7.928   2.857
    2CHTO   O13  803   3.626   8.038   2.805
    2CHTO    H7  804   3.682   8.112   2.794
    2CHTO    O2  805   3.273   7.820   0.175
    2CHTO    C1  806   3.275   7.881   0.305
    2CHTO   H14  807   3.378   7.879   0.347
    2CHTO    C2  808   3.178   7.809   0.407
    2CHTO   H15  809   3.082   7.797   0.354
    2CHTO    O6  810   3.232   7.679   0.436
    2CHTO    H1  811   3.172   7.630   0.488
    2CHTO    C3  812   3.156   7.897   0.541
    2CHTO   H16  813   3.250   7.900   0.598
    2CHTO    N1  814   3.051   7.835   0.629
    2CHTO    H8  815   3.081   7.735   0.658
    2CHTO    H9  816   3.037   7.896   0.718
    2CHTO    C4  817   3.124   8.046   0.502
    2CHTO   H17  818   3.028   8.049   0.449
    2CHTO    O1  819   3.229   8.096   0.418
    2CHTO    C5  820   3.236   8.031   0.289
    2CHTO   H18  821   3.138   8.035   0.242
    2CHTO   C16  822   3.336   8.111   0.202
    2CHTO   O11  823   3.468   8.114   0.259
    2CHTO    H5  824   3.525   8.163   0.203
    2CHTO    O3  825   3.124   8.139   0.613
    2CHTO    C6  826   2.995   8.196   0.652
    2CHTO   H19  827   2.910   8.138   0.615
    2CHTO    C8  828   2.985   8.200   0.809
    2CHTO   H21  829   3.071   8.255   0.847
    2CHTO    O7  830   2.991   8.064   0.857
    2CHTO    H2  831   2.916   8.015   0.827
    2CHTO   C12  832   2.852   8.273   0.856
    2CHTO   H25  833   2.768   8.207   0.826
    2CHTO    N3  834   2.846   8.286   1.005
    2CHTO   H12  835   2.752   8.332   1.034
    2CHTO   H13  836   2.929   8.345   1.041
    2CHTO   C15  837   2.837   8.410   0.781
    2CHTO   H28  838   2.909   8.484   0.816
    2CHTO   O10  839   2.695   8.469   0.793
    2CHTO    H4  840   2.676   8.489   0.883
    2CHTO    O5  841   2.849   8.392   0.640
    2CHTO   C10  842   2.977   8.342   0.598
    2CHTO   H23  843   3.055   8.407   0.637
    2CHTO   C17  844   2.977   8.354   0.445
    2CHTO   O12  845   3.110   8.352   0.391
    2CHTO    H6  846   3.153   8.433   0.411
    3CHTO  H203  847   7.709   1.708   1.834
    3CHTO   O82  848   7.619   1.736   1.836
    3CHTO  C123  849   7.541   1.646   1.915
    3CHTO  H227  850   7.582   1.643   2.018
    3CHTO   O77  851   7.409   1.709   1.917
    3CHTO  C118  852   7.311   1.640   1.995
    3CHTO  H222  853   7.349   1.627   2.098
    3CHTO  C125  854   7.181   1.729   2.001
    3CHTO   O84  855   7.127   1.756   1.871
    3CHTO  H205  856   7.050   1.808   1.879
    3CHTO  C114  857   7.286   1.501   1.933
    3CHTO  H218  858   7.251   1.515   1.830
    3CHTO  C116  859   7.418   1.420   1.929
    3CHTO  H220  860   7.451   1.398   2.033
    3CHTO   O79  861   7.393   1.292   1.867
    3CHTO  H201  862   7.338   1.240   1.922
    3CHTO  C120  863   7.531   1.501   1.853
    3CHTO  H224  864   7.499   1.508   1.747
    3CHTO   N21  865   7.662   1.432   1.855
    3CHTO  H211  866   7.671   1.365   1.770
    3CHTO  H212  867   7.675   1.377   1.948
    3CHTO   O75  868   7.184   1.438   2.014
    3CHTO  C112  869   7.060   1.380   1.927
    3CHTO  H216  870   7.097   1.349   1.827
    3CHTO   O73  871   6.963   1.486   1.916
    3CHTO  C113  872   6.844   1.451   1.845
    3CHTO  H217  873   6.870   1.415   1.744
    3CHTO  C124  874   6.764   1.581   1.827
    3CHTO   O83  875   6.653   1.566   1.737
    3CHTO  H204  876   6.685   1.552   1.650
    3CHTO  C109  877   6.768   1.342   1.925
    3CHTO  H213  878   6.748   1.384   2.025
    3CHTO  C110  879   6.860   1.216   1.936
    3CHTO  H214  880   6.876   1.176   1.836
    3CHTO   O78  881   6.794   1.114   2.012
    3CHTO  H200  882   6.776   1.143   2.100
    3CHTO  C111  883   6.997   1.255   2.000
    3CHTO  H215  884   6.980   1.284   2.105
    3CHTO   N19  885   7.095   1.143   2.003
    3CHTO  H207  886   7.054   1.060   2.058
    3CHTO  H208  887   7.187   1.175   2.050
    3CHTO   O74  888   6.641   1.310   1.861
    3CHTO  C115  889   6.526   1.269   1.964
    3CHTO  H219  890   6.562   1.198   2.039
    3CHTO   O76  891   6.476   1.393   2.049
    3CHTO  C122  892   6.393   1.485   1.976
    3CHTO  H226  893   6.455   1.532   1.900
    3CHTO  C126  894   6.349   1.600   2.073
    3CHTO   O85  895   6.461   1.675   2.122
    3CHTO  H206  896   6.430   1.743   2.179
    3CHTO  C121  897   6.267   1.415   1.909
    3CHTO  H225  898   6.174   1.453   1.958
    3CHTO   O81  899   6.261   1.450   1.771
    3CHTO  H202  900   6.248   1.543   1.761
    3CHTO  C119  901   6.270   1.260   1.925
    3CHTO  H223  902   6.258   1.240   2.031
    3CHTO  C117  903   6.409   1.202   1.880
    3CHTO  H221  904   6.435   1.221   1.776
    3CHTO   N20  905   6.414   1.053   1.895
    3CHTO  H209  906   6.335   1.008   1.837
    3CHTO  H210  907   6.510   1.016   1.861
    3CHTO   O80  908   6.141   1.188   1.863
    3CHTO  C103  909   6.004   1.196   1.938
    3CHTO  H190  910   6.015   1.243   2.036
    3CHTO  C101  911   5.889   1.270   1.857
    3CHTO  H188  912   5.896   1.240   1.753
    3CHTO   O68  913   5.915   1.424   1.865
    3CHTO  H168  914   5.998   1.445   1.825
    3CHTO   C99  915   5.743   1.231   1.912
    3CHTO  H186  916   5.732   1.269   2.016
    3CHTO   N17  917   5.631   1.291   1.831
    3CHTO  H174  918   5.632   1.251   1.731
    3CHTO  H175  919   5.537   1.272   1.880
    3CHTO   C97  920   5.733   1.077   1.921
    3CHTO  H184  921   5.747   1.035   1.820
    3CHTO   O64  922   5.833   1.030   2.013
    3CHTO  C104  923   5.966   1.044   1.962
    3CHTO  H191  924   5.976   0.990   1.868
    3CHTO  C108  925   6.063   0.976   2.060
    3CHTO   O71  926   6.061   1.034   2.190
    3CHTO  H171  927   5.980   1.016   2.232
    3CHTO   O62  928   5.608   1.030   1.978
    3CHTO   C91  929   5.570   0.895   1.942
    3CHTO  H178  930   5.614   0.870   1.846
    3CHTO   C92  931   5.416   0.895   1.919
    3CHTO  H179  932   5.366   0.938   2.008
    3CHTO   O66  933   5.389   0.986   1.810
    3CHTO  H166  934   5.297   0.997   1.798
    3CHTO   C93  935   5.361   0.751   1.887
    3CHTO  H180  936   5.398   0.726   1.786
    3CHTO   N16  937   5.213   0.746   1.875
    3CHTO  H172  938   5.180   0.811   1.795
    3CHTO  H173  939   5.167   0.776   1.968
    3CHTO   C94  940   5.413   0.643   1.989
    3CHTO  H181  941   5.332   0.600   2.048
    3CHTO   O61  942   5.503   0.697   2.088
    3CHTO   C95  943   5.610   0.785   2.049
    3CHTO  H182  944   5.646   0.837   2.137
    3CHTO  C106  945   5.734   0.701   1.999
    3CHTO   O69  946   5.784   0.618   2.103
    3CHTO  H169  947   5.857   0.568   2.071
    3CHTO   O63  948   5.487   0.525   1.906
    3CHTO   C96  949   5.413   0.382   1.909
    3CHTO  H183  950   5.475   0.313   1.851
    3CHTO   C98  951   5.270   0.380   1.846
    3CHTO  H185  952   5.210   0.461   1.890
    3CHTO   O67  953   5.283   0.413   1.707
    3CHTO  H167  954   5.331   0.347   1.661
    3CHTO  C102  955   5.195   0.240   1.867
    3CHTO  H189  956   5.249   0.167   1.805
    3CHTO   N18  957   5.054   0.236   1.818
    3CHTO  H176  958   5.052   0.260   1.712
    3CHTO  H177  959   5.012   0.138   1.834
    3CHTO  C105  960   5.207   0.198   2.016
    3CHTO  H192  961   5.154   0.271   2.077
    3CHTO   O65  962   5.344   0.197   2.058
    3CHTO  C100  963   5.407   0.326   2.056
    3CHTO  H187  964   5.348   0.394   2.119
    3CHTO  C107  965   5.548   0.314   2.118
    3CHTO   O70  966   5.544   0.274   2.255
    3CHTO  H170  967   5.515   0.185   2.261
    3CHTO   O57  968   5.141   0.045   2.033
    3CHTO   C85  969   5.099   9.990   2.159
    3CHTO  H157  970   5.072   9.885   2.134
    3CHTO   C83  971   4.966   0.055   2.211
    3CHTO  H155  972   4.889   0.038   2.135
    3CHTO   O56  973   4.979   0.198   2.223
    3CHTO  H135  974   4.897   0.236   2.246
    3CHTO   C81  975   4.924   9.984   2.342
    3CHTO  H153  976   4.916   9.877   2.321
    3CHTO   N14  977   4.787   0.020   2.389
    3CHTO  H141  978   4.760   9.960   2.473
    3CHTO  H142  979   4.785   0.123   2.418
    3CHTO   C79  980   5.035   0.005   2.452
    3CHTO  H151  981   5.004   9.948   2.540
    3CHTO   O52  982   5.161   9.947   2.406
    3CHTO   C86  983   5.207   9.996   2.275
    3CHTO  H158  984   5.240   0.101   2.295
    3CHTO   C90  985   5.335   9.919   2.234
    3CHTO   O60  986   5.443   9.944   2.324
    3CHTO  H138  987   5.426   9.904   2.407
    3CHTO   O50  988   5.056   0.141   2.490
    3CHTO   C73  989   5.096   0.211   2.609
    3CHTO  H145  990   5.172   0.154   2.663
    3CHTO   C74  991   4.973   0.232   2.703
    3CHTO  H146  992   4.933   0.132   2.727
    3CHTO   O54  993   5.020   0.289   2.827
    3CHTO  H133  994   4.949   0.298   0.017
    3CHTO   C75  995   4.866   0.321   2.628
    3CHTO  H147  996   4.831   0.266   2.539
    3CHTO   N13  997   4.744   0.348   2.707
    3CHTO  H139  998   4.695   0.255   2.733
    3CHTO  H140  999   4.674   0.407   2.649
    3CHTO   C76 1000   4.935   0.456   2.575
    3CHTO  H148 1001   4.958   0.519   2.661
    3CHTO   O49 1002   5.057   0.429   2.499
    3CHTO   C77 1003   5.155   0.350   2.569
    3CHTO  H149 1004   5.186   0.403   2.660
    3CHTO   C88 1005   5.280   0.339   2.481
    3CHTO   O58 1006   5.392   0.268   2.553
    3CHTO  H136 1007   5.367   0.179   2.570
    3CHTO   O51 1008   4.839   0.528   2.469
    3CHTO   C78 1009   4.877   0.677   2.445
    3CHTO  H150 1010   4.983   0.697   2.476
    3CHTO   C80 1011   4.784   0.769   2.527
    3CHTO  H152 1012   4.679   0.745   2.501
    3CHTO   O55 1013   4.802   0.737   2.667
    3CHTO  H134 1014   4.889   0.757   2.694
    3CHTO   C84 1015   4.812   0.922   2.498
    3CHTO  H156 1016   4.912   0.945   2.537
    3CHTO   N15 1017   4.715   1.011   2.570
    3CHTO  H143 1018   4.615   0.992   2.537
    3CHTO  H144 1019   4.739   1.114   2.551
    3CHTO   C87 1020   4.812   0.949   2.345
    3CHTO  H159 1021   4.711   0.940   2.306
    3CHTO   O53 1022   4.905   0.845   2.273
    3CHTO   C82 1023   4.866   0.709   2.295
    3CHTO  H154 1024   4.764   0.693   2.260
    3CHTO   C89 1025   4.958   0.616   2.213
    3CHTO   O59 1026   4.945   0.641   2.073
    3CHTO  H137 1027   5.001   0.582   2.025
    3CHTO   O45 1028   4.868   1.107   2.310
    3CHTO   C67 1029   5.010   1.123   2.299
    3CHTO  H124 1030   5.059   1.038   2.346
    3CHTO   C65 1031   5.054   1.130   2.148
    3CHTO  H122 1032   4.968   1.170   2.093
    3CHTO   O44 1033   5.078   0.995   2.104
    3CHTO  H102 1034   4.999   0.945   2.106
    3CHTO   C63 1035   5.170   1.234   2.122
    3CHTO  H120 1036   5.128   1.335   2.127
    3CHTO   N11 1037   5.230   1.234   1.985
    3CHTO  H108 1038   5.297   1.317   1.975
    3CHTO  H109 1039   5.153   1.241   1.911
    3CHTO   C61 1040   5.274   1.225   2.241
    3CHTO  H118 1041   5.348   1.305   2.224
    3CHTO   O40 1042   5.211   1.253   2.369
    3CHTO   C68 1043   5.064   1.250   2.377
    3CHTO  H125 1044   5.024   1.344   2.332
    3CHTO   C72 1045   5.027   1.253   2.527
    3CHTO   O48 1046   4.891   1.292   2.548
    3CHTO  H105 1047   4.872   1.292   2.640
    3CHTO   O38 1048   5.340   1.096   2.241
    3CHTO   C55 1049   5.419   1.056   2.355
    3CHTO  H112 1050   5.373   1.091   2.448
    3CHTO   C56 1051   5.569   1.106   2.341
    3CHTO  H113 1052   5.604   1.078   2.240
    3CHTO   O42 1053   5.572   1.250   2.345
    3CHTO  H100 1054   5.659   1.282   2.328
    3CHTO   C57 1055   5.662   1.041   2.452
    3CHTO  H114 1056   5.630   1.081   2.548
    3CHTO   N10 1057   5.806   1.074   2.434
    3CHTO  H106 1058   5.829   1.166   2.485
    3CHTO  H107 1059   5.868   0.995   2.473
    3CHTO   C58 1060   5.639   0.888   2.453
    3CHTO  H115 1061   5.673   0.846   2.355
    3CHTO   O37 1062   5.500   0.857   2.472
    3CHTO   C59 1063   5.417   0.901   2.364
    3CHTO  H116 1064   5.452   0.857   2.271
    3CHTO   C70 1065   5.275   0.849   2.389
    3CHTO   O46 1066   5.266   0.706   2.384
    3CHTO  H103 1067   5.315   0.668   2.454
    3CHTO   O39 1068   5.718   0.814   2.574
    3CHTO   C60 1069   5.738   0.674   2.547
    3CHTO  H117 1070   5.657   0.637   2.484
    3CHTO   C62 1071   5.872   0.649   2.472
    3CHTO  H119 1072   5.865   0.708   2.377
    3CHTO   O43 1073   5.982   0.699   2.549
    3CHTO  H101 1074   5.979   0.792   2.554
    3CHTO   C66 1075   5.884   0.493   2.435
    3CHTO  H123 1076   5.797   0.464   2.376
    3CHTO   N12 1077   6.002   0.464   2.349
    3CHTO  H110 1078   6.072   0.398   2.399
    3CHTO  H111 1079   6.050   0.555   2.316
    3CHTO   C69 1080   5.881   0.407   2.565
    3CHTO  H126 1081   5.971   0.429   2.627
    3CHTO   O41 1082   5.749   0.442   2.648
    3CHTO   C64 1083   5.733   0.591   2.679
    3CHTO  H121 1084   5.817   0.624   2.745
    3CHTO   C71 1085   5.601   0.614   2.757
    3CHTO   O47 1086   5.486   0.574   2.682
    3CHTO  H104 1087   5.486   0.481   2.669
    3CHTO   O34 1088   5.878   0.249   2.531
    3CHTO   C49 1089   5.979   0.132   2.509
    3CHTO   H91 1090   6.067   0.179   2.462
    3CHTO   C47 1091   5.920   0.029   2.410
    3CHTO   H89 1092   5.932   0.074   2.309
    3CHTO   O33 1093   5.780   0.008   2.434
    3CHTO   H70 1094   5.732   0.087   2.418
    3CHTO   C45 1095   5.994   9.885   2.421
    3CHTO   H87 1096   5.937   9.823   2.492
    3CHTO    N8 1097   5.994   9.815   2.290
    3CHTO   H75 1098   6.036   9.716   2.301
    3CHTO   H76 1099   5.893   9.808   2.252
    3CHTO   C43 1100   6.138   9.898   2.489
    3CHTO   H85 1101   6.182   9.798   2.492
    3CHTO   O29 1102   6.124   9.955   2.621
    3CHTO   C50 1103   6.027   0.060   2.639
    3CHTO   H92 1104   5.938   0.017   2.688
    3CHTO   C54 1105   6.081   0.160   2.744
    3CHTO   O36 1106   6.203   0.221   2.699
    3CHTO   H72 1107   6.231   0.284   2.763
    3CHTO   O27 1108   6.226   9.979   2.409
    3CHTO   C37 1109   6.346   0.056   2.396
    3CHTO   H79 1110   6.343   0.144   2.462
    3CHTO   C38 1111   6.472   9.973   2.435
    3CHTO   H80 1112   6.469   9.877   2.381
    3CHTO   O31 1113   6.464   9.945   2.576
    3CHTO   H68 1114   6.469   0.024   2.626
    3CHTO   C39 1115   6.607   0.048   2.399
    3CHTO   H81 1116   6.615   0.134   2.466
    3CHTO    N7 1117   6.731   9.964   2.423
    3CHTO   H73 1118   6.785   9.948   2.331
    3CHTO   H74 1119   6.705   9.870   2.469
    3CHTO   C40 1120   6.602   0.105   2.252
    3CHTO   H82 1121   6.605   0.022   2.181
    3CHTO   O26 1122   6.482   0.183   2.237
    3CHTO   C41 1123   6.360   0.105   2.249
    3CHTO   H83 1124   6.365   0.018   2.182
    3CHTO   C52 1125   6.242   0.193   2.205
    3CHTO   O35 1126   6.253   0.236   2.062
    3CHTO   H71 1127   6.246   0.161   2.006
    3CHTO   O28 1128   6.715   0.190   2.221
    3CHTO   C42 1129   6.716   0.305   2.130
    3CHTO   H84 1130   6.822   0.322   2.111
    3CHTO   C44 1131   6.662   0.439   2.193
    3CHTO   H86 1132   6.559   0.423   2.225
    3CHTO   O32 1133   6.742   0.465   2.310
    3CHTO   H69 1134   6.710   0.540   2.355
    3CHTO   C48 1135   6.663   0.559   2.090
    3CHTO   H90 1136   6.767   0.583   2.066
    3CHTO    N9 1137   6.604   0.685   2.149
    3CHTO   H77 1138   6.607   0.764   2.076
    3CHTO   H78 1139   6.660   0.713   2.237
    3CHTO   C51 1140   6.590   0.515   1.958
    3CHTO   H93 1141   6.488   0.489   1.985
    3CHTO   O30 1142   6.660   0.403   1.902
    3CHTO   C46 1143   6.648   0.278   1.992
    3CHTO   H88 1144   6.542   0.257   2.006
    3CHTO   C53 1145   6.715   0.160   1.918
    3CHTO   O72 1146   6.643   0.129   1.798
    3CHTO  H199 1147   6.682   0.055   1.756
    3CHTO   O22 1148   6.594   0.616   1.856
    3CHTO   C31 1149   6.493   0.624   1.748
    3CHTO   H59 1150   6.475   0.519   1.715
    3CHTO   C29 1151   6.357   0.682   1.794
    3CHTO   H57 1152   6.380   0.775   1.848
    3CHTO   O21 1153   6.299   0.593   1.891
    3CHTO   H37 1154   6.225   0.633   1.932
    3CHTO   C27 1155   6.256   0.713   1.676
    3CHTO   H55 1156   6.220   0.617   1.636
    3CHTO    N5 1157   6.139   0.792   1.722
    3CHTO   H43 1158   6.126   0.881   1.663
    3CHTO   H44 1159   6.147   0.818   1.826
    3CHTO   C25 1160   6.330   0.782   1.557
    3CHTO   H53 1161   6.361   0.884   1.587
    3CHTO   O17 1162   6.448   0.706   1.520
    3CHTO   C32 1163   6.548   0.701   1.623
    3CHTO   H60 1164   6.575   0.802   1.653
    3CHTO   C36 1165   6.672   0.632   1.561
    3CHTO   O25 1166   6.786   0.638   1.647
    3CHTO   H40 1167   6.773   0.584   1.722
    3CHTO   O15 1168   6.237   0.792   1.433
    3CHTO   C19 1169   6.192   0.881   1.327
    3CHTO   H47 1170   6.132   0.816   1.263
    3CHTO   C20 1171   6.101   0.999   1.375
    3CHTO   H48 1172   6.151   1.062   1.450
    3CHTO   O19 1173   5.985   0.940   1.437
    3CHTO   H35 1174   5.935   0.891   1.375
    3CHTO   C21 1175   6.058   1.093   1.254
    3CHTO   H49 1176   5.995   1.035   1.186
    3CHTO    N4 1177   5.978   1.212   1.295
    3CHTO   H41 1178   6.029   1.304   1.272
    3CHTO   H42 1179   5.957   1.209   1.401
    3CHTO   C22 1180   6.185   1.132   1.174
    3CHTO   H50 1181   6.249   1.196   1.235
    3CHTO   O14 1182   6.256   1.014   1.133
    3CHTO   C23 1183   6.309   0.934   1.240
    3CHTO   H51 1184   6.378   0.997   1.297
    3CHTO   C34 1185   6.390   0.821   1.176
    3CHTO   O23 1186   6.312   0.743   1.084
    3CHTO   H38 1187   6.292   0.795   1.008
    3CHTO   O16 1188   6.155   1.193   1.047
    3CHTO   C24 1189   6.248   1.321   1.007
    3CHTO   H52 1190   6.272   1.383   1.093
    3CHTO   C26 1191   6.164   1.402   0.906
    3CHTO   H54 1192   6.128   1.333   0.826
    3CHTO   O20 1193   6.049   1.454   0.975
    3CHTO   H36 1194   5.991   1.384   0.998
    3CHTO   C30 1195   6.247   1.515   0.837
    3CHTO   H58 1196   6.274   1.592   0.910
    3CHTO    N6 1197   6.169   1.584   0.730
    3CHTO   H45 1198   6.080   1.629   0.773
    3CHTO   H46 1199   6.228   1.662   0.685
    3CHTO   C33 1200   6.381   1.458   0.783
    3CHTO   H61 1201   6.360   1.385   0.703
    3CHTO   O18 1202   6.449   1.389   0.889
    3CHTO   C28 1203   6.383   1.275   0.944
    3CHTO   H56 1204   6.363   1.202   0.866
    3CHTO   C35 1205   6.482   1.217   1.047
    3CHTO   O24 1206   6.600   1.164   0.987
    3CHTO   H39 1207   6.656   1.128   1.053
    3CHTO    O9 1208   6.466   1.558   0.722
    3CHTO   C13 1209   6.567   1.636   0.827
    3CHTO   H26 1210   6.541   1.606   0.931
    3CHTO   C11 1211   6.550   1.792   0.806
    3CHTO   H24 1212   6.447   1.819   0.836
    3CHTO    O8 1213   6.563   1.825   0.667
    3CHTO    H3 1214   6.650   1.804   0.636
    3CHTO    C9 1215   6.652   1.864   0.898
    3CHTO   H22 1216   6.629   1.828   1.000
    3CHTO    N2 1217   6.628   2.011   0.907
    3CHTO   H10 1218   6.558   2.044   0.832
    3CHTO   H11 1219   6.721   2.065   0.900
    3CHTO    C7 1220   6.800   1.818   0.863
    3CHTO   H20 1221   6.843   1.788   0.961
    3CHTO    O4 1222   6.803   1.705   0.773
    3CHTO   C14 1223   6.720   1.593   0.808
    3CHTO   H27 1224   6.758   1.550   0.903
    3CHTO   C18 1225   6.744   1.487   0.697
    3CHTO   O13 1226   6.690   1.360   0.732
    3CHTO    H7 1227   6.705   1.299   0.662
    3CHTO    O2 1228   6.895   1.938   0.798
    3CHTO    C1 1229   7.026   1.895   0.754
    3CHTO   H14 1230   7.032   1.784   0.755
    3CHTO    C2 1231   7.142   1.952   0.846
    3CHTO   H15 1232   7.124   2.060   0.854
    3CHTO    O6 1233   7.132   1.891   0.975
    3CHTO    H1 1234   7.194   1.929   1.034
    3CHTO    C3 1235   7.286   1.927   0.779
    3CHTO   H16 1236   7.306   1.818   0.778
    3CHTO    N1 1237   7.398   1.993   0.855
    3CHTO    H8 1238   7.360   2.046   0.941
    3CHTO    H9 1239   7.470   1.919   0.887
    3CHTO    C4 1240   7.282   1.971   0.628
    3CHTO   H17 1241   7.268   2.079   0.624
    3CHTO    O1 1242   7.175   1.904   0.560
    3CHTO    C5 1243   7.044   1.939   0.606
    3CHTO   H18 1244   7.030   2.047   0.599
    3CHTO   C16 1245   6.945   1.869   0.509
    3CHTO   O11 1246   6.811   1.918   0.524
    3CHTO    H5 1247   6.806   2.006   0.492
    3CHTO    O3 1248   7.401   1.933   0.557
    3CHTO    C6 1249   7.425   2.010   0.434
    3CHTO   H19 1250   7.337   2.065   0.400
    3CHTO    C8 1251   7.540   2.113   0.457
    3CHTO   H21 1252   7.627   2.061   0.498
    3CHTO    O7 1253   7.493   2.209   0.554
    3CHTO    H2 1254   7.420   2.258   0.521
    3CHTO   C12 1255   7.581   2.182   0.321
    3CHTO   H25 1256   7.494   2.244   0.290
    3CHTO    N3 1257   7.697   2.276   0.339
    3CHTO   H12 1258   7.783   2.222   0.375
    3CHTO   H13 1259   7.720   2.326   0.246
    3CHTO   C15 1260   7.606   2.073   0.211
    3CHTO   H28 1261   7.696   2.015   0.231
    3CHTO   O10 1262   7.614   2.132   0.070
    3CHTO    H4 1263   7.690   2.188   0.063
    3CHTO    O5 1264   7.492   1.986   0.199
    3CHTO   C10 1265   7.465   1.912   0.319
    3CHTO   H23 1266   7.555   1.857   0.348
    3CHTO   C17 1267   7.356   1.808   0.289
    3CHTO   O12 1268   7.232   1.868   0.250
    3CHTO    H6 1269   7.169   1.801   0.234
    4CHTO  H203 1270   5.753   7.103   2.531
    4CHTO   O82 1271   5.805   7.160   2.584
    4CHTO  C123 1272   5.743   7.289   2.594
    4CHTO  H227 1273   5.643   7.276   2.640
    4CHTO   O77 1274   5.831   7.361   2.685
    4CHTO  C118 1275   5.781   7.490   2.723
    4CHTO  H222 1276   5.683   7.479   2.771
    4CHTO  C125 1277   5.881   7.553   2.827
    4CHTO   O84 1278   5.881   7.480   0.080
    4CHTO  H205 1279   5.917   7.394   0.067
    4CHTO  C114 1280   5.767   7.581   2.599
    4CHTO  H218 1281   5.867   7.600   2.559
    4CHTO  C116 1282   5.683   7.514   2.486
    4CHTO  H220 1283   5.576   7.512   2.517
    4CHTO   O79 1284   5.690   7.598   2.370
    4CHTO  H201 1285   5.635   7.563   2.302
    4CHTO  C120 1286   5.734   7.367   2.457
    4CHTO  H224 1287   5.836   7.376   2.413
    4CHTO   N21 1288   5.648   7.296   2.358
    4CHTO  H211 1289   5.546   7.330   2.365
    4CHTO  H212 1290   5.686   7.312   2.258
    4CHTO   O75 1291   5.709   7.702   2.650
    4CHTO  C112 1292   5.770   7.836   2.587
    4CHTO  H216 1293   5.800   7.816   2.482
    4CHTO   O73 1294   5.882   7.874   2.668
    4CHTO  C113 1295   5.954   7.987   2.616
    4CHTO  H217 1296   5.990   7.963   2.514
    4CHTO  C124 1297   6.079   8.011   2.703
    4CHTO   O83 1298   6.172   7.902   2.696
    4CHTO  H204 1299   6.246   7.921   2.749
    4CHTO  C109 1300   5.864   8.114   2.612
    4CHTO  H213 1301   5.843   8.141   2.717
    4CHTO  C110 1302   5.729   8.084   2.538
    4CHTO  H214 1303   5.750   8.076   2.431
    4CHTO   O78 1304   5.639   8.195   2.555
    4CHTO  H200 1305   5.672   8.271   2.511
    4CHTO  C111 1306   5.663   7.952   2.589
    4CHTO  H215 1307   5.631   7.967   2.693
    4CHTO   N19 1308   5.542   7.913   2.512
    4CHTO  H207 1309   5.500   7.822   2.552
    4CHTO  H208 1310   5.468   7.992   2.517
    4CHTO   O74 1311   5.939   8.222   2.548
    4CHTO  C115 1312   5.882   8.371   2.575
    4CHTO  H219 1313   5.787   8.388   2.525
    4CHTO   O76 1314   5.854   8.396   2.730
    4CHTO  C122 1315   5.804   8.526   2.763
    4CHTO  H226 1316   5.806   8.534   0.002
    4CHTO  C126 1317   5.652   8.539   2.722
    4CHTO   O85 1318   5.571   8.441   2.787
    4CHTO  H206 1319   5.483   8.448   2.756
    4CHTO  C121 1320   5.892   8.642   2.702
    4CHTO  H225 1321   5.838   8.738   2.716
    4CHTO   O81 1322   6.014   8.649   2.778
    4CHTO  H202 1323   6.064   8.724   2.752
    4CHTO  C119 1324   5.919   8.622   2.548
    4CHTO  H223 1325   5.820   8.621   2.502
    4CHTO  C117 1326   5.982   8.480   2.520
    4CHTO  H221 1327   6.077   8.459   2.567
    4CHTO   N20 1328   6.006   8.461   2.372
    4CHTO  H209 1329   5.951   8.377   2.333
    4CHTO  H210 1330   6.111   8.449   2.353
    4CHTO   O80 1331   5.989   8.751   2.472
    4CHTO  C103 1332   6.080   8.850   2.550
    4CHTO  H190 1333   6.048   8.859   2.654
    4CHTO  C101 1334   6.234   8.819   2.547
    4CHTO  H188 1335   6.266   8.807   2.443
    4CHTO   O68 1336   6.261   8.685   2.621
    4CHTO  H168 1337   6.221   8.614   2.575
    4CHTO   C99 1338   6.316   8.941   2.610
    4CHTO  H186 1339   6.285   8.955   2.716
    4CHTO   N17 1340   6.465   8.921   2.609
    4CHTO  H174 1341   6.503   8.919   2.710
    4CHTO  H175 1342   6.515   8.996   2.550
    4CHTO   C97 1343   6.274   9.072   2.537
    4CHTO  H184 1344   6.307   9.064   2.432
    4CHTO   O64 1345   6.132   9.091   2.547
    4CHTO  C104 1346   6.053   8.990   2.482
    4CHTO  H191 1347   6.077   8.983   2.376
    4CHTO  C108 1348   5.905   9.028   2.491
    4CHTO   O71 1349   5.878   9.149   2.418
    4CHTO  H171 1350   5.788   9.171   2.427
    4CHTO   O62 1351   6.328   9.192   2.598
    4CHTO   C91 1352   6.347   9.303   2.508
    4CHTO  H178 1353   6.317   9.274   2.408
    4CHTO   C92 1354   6.499   9.338   2.499
    4CHTO  H179 1355   6.532   9.372   2.599
    4CHTO   O66 1356   6.577   9.220   2.471
    4CHTO  H166 1357   6.551   9.183   2.389
    4CHTO   C93 1358   6.527   9.448   2.389
    4CHTO  H180 1359   6.546   9.392   2.296
    4CHTO   N16 1360   6.653   9.524   2.411
    4CHTO  H172 1361   6.737   9.457   2.411
    4CHTO  H173 1362   6.647   9.578   2.504
    4CHTO   C94 1363   6.403   9.543   2.367
    4CHTO  H181 1364   6.432   9.644   2.339
    4CHTO   O61 1365   6.325   9.556   2.488
    4CHTO   C95 1366   6.269   9.436   2.546
    4CHTO  H182 1367   6.271   9.446   2.655
    4CHTO  C106 1368   6.117   9.426   2.506
    4CHTO   O69 1369   6.042   9.536   2.558
    4CHTO  H169 1370   6.035   9.529   2.651
    4CHTO   O63 1371   6.309   9.482   2.249
    4CHTO   C96 1372   6.372   9.486   2.104
    4CHTO  H183 1373   6.480   9.473   2.112
    4CHTO   C98 1374   6.347   9.619   2.026
    4CHTO  H185 1375   6.240   9.643   2.029
    4CHTO   O67 1376   6.413   9.726   2.096
    4CHTO  H167 1377   6.506   9.713   2.097
    4CHTO  C102 1378   6.398   9.610   1.873
    4CHTO  H189 1379   6.508   9.604   1.878
    4CHTO   N18 1380   6.368   9.729   1.789
    4CHTO  H176 1381   6.262   9.746   1.786
    4CHTO  H177 1382   6.417   9.816   1.830
    4CHTO  C105 1383   6.346   9.478   1.810
    4CHTO  H192 1384   6.237   9.483   1.802
    4CHTO   O65 1385   6.380   9.364   1.891
    4CHTO  C100 1386   6.317   9.365   2.019
    4CHTO  H187 1387   6.208   9.377   2.005
    4CHTO  C107 1388   6.342   9.227   2.085
    4CHTO   O70 1389   6.245   9.199   2.187
    4CHTO  H170 1390   6.161   9.184   2.148
    4CHTO   O57 1391   6.411   9.459   1.665
    4CHTO   C85 1392   6.330   9.400   1.562
    4CHTO  H157 1393   6.228   9.443   1.575
    4CHTO   C83 1394   6.313   9.246   1.587
    4CHTO  H155 1395   6.263   9.232   1.683
    4CHTO   O56 1396   6.443   9.184   1.599
    4CHTO  H135 1397   6.488   9.216   1.674
    4CHTO   C81 1398   6.224   9.187   1.474
    4CHTO  H153 1399   6.129   9.240   1.475
    4CHTO   N14 1400   6.186   9.045   1.498
    4CHTO  H141 1401   6.273   8.983   1.495
    4CHTO  H142 1402   6.139   9.035   1.593
    4CHTO   C79 1403   6.291   9.210   1.334
    4CHTO  H151 1404   6.220   9.177   1.258
    4CHTO   O52 1405   6.311   9.353   1.311
    4CHTO   C86 1406   6.385   9.423   1.416
    4CHTO  H158 1407   6.489   9.384   1.407
    4CHTO   C90 1408   6.393   9.574   1.383
    4CHTO   O60 1409   6.263   9.634   1.374
    4CHTO  H138 1410   6.218   9.601   1.299
    4CHTO   O50 1411   6.416   9.140   1.314
    4CHTO   C73 1412   6.460   9.085   1.189
    4CHTO  H145 1413   6.423   9.146   1.105
    4CHTO   C74 1414   6.404   8.940   1.173
    4CHTO  H146 1415   6.295   8.946   1.181
    4CHTO   O54 1416   6.431   8.894   1.039
    4CHTO  H133 1417   6.524   8.887   1.025
    4CHTO   C75 1418   6.467   8.848   1.286
    4CHTO  H147 1419   6.439   8.889   1.384
    4CHTO   N13 1420   6.416   8.709   1.285
    4CHTO  H139 1421   6.309   8.709   1.299
    4CHTO  H140 1422   6.438   8.662   1.190
    4CHTO   C76 1423   6.626   8.855   1.274
    4CHTO  H148 1424   6.654   8.815   1.176
    4CHTO   O49 1425   6.671   8.994   1.284
    4CHTO   C77 1426   6.616   9.081   1.184
    4CHTO  H149 1427   6.647   9.047   1.085
    4CHTO   C88 1428   6.676   9.222   1.201
    4CHTO   O58 1429   6.825   9.220   1.183
    4CHTO  H136 1430   6.846   9.199   1.094
    4CHTO   O51 1431   6.701   8.780   1.396
    4CHTO   C78 1432   6.836   8.699   1.353
    4CHTO  H150 1433   6.889   8.664   1.445
    4CHTO   C80 1434   6.932   8.787   1.270
    4CHTO  H152 1435   6.876   8.833   1.186
    4CHTO   O55 1436   6.977   8.892   1.358
    4CHTO  H134 1437   7.033   8.951   1.312
    4CHTO   C84 1438   7.052   8.703   1.211
    4CHTO  H156 1439   7.111   8.664   1.295
    4CHTO   N15 1440   7.145   8.785   1.126
    4CHTO  H143 1441   7.186   8.865   1.185
    4CHTO  H144 1442   7.224   8.724   1.089
    4CHTO   C87 1443   6.993   8.583   1.133
    4CHTO  H159 1444   6.932   8.619   1.050
    4CHTO   O53 1445   6.909   8.500   1.230
    4CHTO   C82 1446   6.794   8.571   1.278
    4CHTO  H154 1447   6.727   8.594   1.194
    4CHTO   C89 1448   6.715   8.478   1.374
    4CHTO   O59 1449   6.664   8.364   1.305
    4CHTO  H137 1450   6.619   8.308   1.366
    4CHTO   O45 1451   7.108   8.483   1.079
    4CHTO   C67 1452   7.085   8.434   0.945
    4CHTO  H124 1453   7.060   8.515   0.877
    4CHTO   C65 1454   7.214   8.362   0.896
    4CHTO  H122 1455   7.295   8.434   0.911
    4CHTO   O44 1456   7.206   8.332   0.755
    4CHTO  H102 1457   7.140   8.267   0.740
    4CHTO   C63 1458   7.245   8.242   0.991
    4CHTO  H120 1459   7.250   8.279   1.093
    4CHTO   N11 1460   7.381   8.180   0.976
    4CHTO  H108 1461   7.456   8.256   0.980
    4CHTO  H109 1462   7.397   8.108   1.054
    4CHTO   C61 1463   7.125   8.139   0.988
    4CHTO  H118 1464   7.137   8.083   1.082
    4CHTO   O40 1465   6.992   8.200   0.994
    4CHTO   C68 1466   6.961   8.334   0.942
    4CHTO  H125 1467   6.884   8.374   1.010
    4CHTO   C72 1468   6.895   8.321   0.803
    4CHTO   O48 1469   6.845   8.445   0.754
    4CHTO  H105 1470   6.809   8.433   0.668
    4CHTO   O38 1471   7.128   8.048   0.876
    4CHTO   C55 1472   7.058   7.923   0.895
    4CHTO  H112 1473   6.967   7.942   0.954
    4CHTO   C56 1474   7.150   7.812   0.964
    4CHTO  H113 1475   7.236   7.795   0.897
    4CHTO   O42 1476   7.205   7.859   1.089
    4CHTO  H100 1477   7.266   7.797   1.123
    4CHTO   C57 1478   7.067   7.679   0.984
    4CHTO  H114 1479   6.990   7.702   1.057
    4CHTO   N10 1480   7.146   7.566   1.040
    4CHTO  H106 1481   7.193   7.509   0.961
    4CHTO  H107 1482   7.222   7.602   1.108
    4CHTO   C58 1483   6.999   7.639   0.851
    4CHTO  H115 1484   7.076   7.600   0.780
    4CHTO   O37 1485   6.928   7.749   0.790
    4CHTO   C59 1486   7.010   7.863   0.760
    4CHTO  H116 1487   7.095   7.832   0.698
    4CHTO   C70 1488   6.924   7.960   0.678
    4CHTO   O46 1489   7.001   8.062   0.614
    4CHTO  H103 1490   7.037   8.120   0.678
    4CHTO   O39 1491   6.886   7.531   0.878
    4CHTO   C60 1492   6.879   7.426   0.780
    4CHTO  H117 1493   6.919   7.461   0.685
    4CHTO   C62 1494   6.961   7.302   0.824
    4CHTO  H119 1495   7.067   7.335   0.829
    4CHTO   O43 1496   6.920   7.261   0.956
    4CHTO  H101 1497   6.944   7.326   1.020
    4CHTO   C66 1498   6.947   7.186   0.714
    4CHTO  H123 1499   6.980   7.225   0.618
    4CHTO   N12 1500   7.034   7.069   0.743
    4CHTO  H110 1501   7.021   6.994   0.667
    4CHTO  H111 1502   7.137   7.101   0.749
    4CHTO   C69 1503   6.797   7.148   0.702
    4CHTO  H126 1504   6.759   7.112   0.800
    4CHTO   O41 1505   6.717   7.275   0.657
    4CHTO   C64 1506   6.729   7.390   0.754
    4CHTO  H121 1507   6.683   7.361   0.851
    4CHTO   C71 1508   6.650   7.511   0.699
    4CHTO   O47 1509   6.699   7.555   0.572
    4CHTO  H104 1510   6.650   7.630   0.544
    4CHTO   O34 1511   6.773   7.037   0.597
    4CHTO   C49 1512   6.651   6.967   0.543
    4CHTO   H91 1513   6.598   7.039   0.481
    4CHTO   C47 1514   6.561   6.922   0.661
    4CHTO   H89 1515   6.473   6.874   0.613
    4CHTO   O33 1516   6.515   7.035   0.736
    4CHTO   H70 1517   6.452   7.008   0.801
    4CHTO   C45 1518   6.640   6.816   0.755
    4CHTO   H87 1519   6.699   6.873   0.829
    4CHTO    N8 1520   6.540   6.734   0.828
    4CHTO   H75 1521   6.474   6.797   0.885
    4CHTO   H76 1522   6.483   6.675   0.758
    4CHTO   C43 1523   6.751   6.735   0.668
    4CHTO   H85 1524   6.841   6.796   0.672
    4CHTO   O29 1525   6.703   6.716   0.534
    4CHTO   C50 1526   6.687   6.839   0.460
    4CHTO   H92 1527   6.781   6.859   0.406
    4CHTO   C54 1528   6.586   6.812   0.346
    4CHTO   O36 1529   6.577   6.922   0.254
    4CHTO   H72 1530   6.537   6.996   0.296
    4CHTO   O27 1531   6.791   6.610   0.727
    4CHTO   C37 1532   6.871   6.492   0.725
    4CHTO   H79 1533   6.895   6.465   0.621
    4CHTO   C38 1534   7.007   6.513   0.798
    4CHTO   H80 1535   6.986   6.557   0.897
    4CHTO   O31 1536   7.082   6.608   0.720
    4CHTO   H68 1537   7.161   6.632   0.766
    4CHTO   C39 1538   7.085   6.376   0.817
    4CHTO   H81 1539   7.114   6.341   0.717
    4CHTO    N7 1540   7.212   6.393   0.896
    4CHTO   H73 1541   7.189   6.429   0.995
    4CHTO   H74 1542   7.265   6.299   0.902
    4CHTO   C40 1543   6.990   6.267   0.880
    4CHTO   H82 1544   6.966   6.292   0.983
    4CHTO   O26 1545   6.872   6.255   0.799
    4CHTO   C41 1546   6.791   6.376   0.789
    4CHTO   H83 1547   6.758   6.406   0.890
    4CHTO   C52 1548   6.664   6.342   0.707
    4CHTO   O35 1549   6.694   6.298   0.565
    4CHTO   H71 1550   6.744   6.219   0.567
    4CHTO   O28 1551   7.037   6.131   0.870
    4CHTO   C42 1552   7.128   6.059   0.961
    4CHTO   H84 1553   7.195   6.135   1.002
    4CHTO   C44 1554   7.219   5.956   0.887
    4CHTO   H86 1555   7.155   5.882   0.838
    4CHTO   O32 1556   7.291   6.027   0.785
    4CHTO   H69 1557   7.232   6.057   0.718
    4CHTO   C48 1558   7.318   5.879   0.983
    4CHTO   H90 1559   7.394   5.950   1.017
    4CHTO    N9 1560   7.394   5.769   0.912
    4CHTO   H77 1561   7.454   5.812   0.833
    4CHTO   H78 1562   7.325   5.697   0.872
    4CHTO   C51 1563   7.244   5.824   1.112
    4CHTO   H93 1564   7.179   5.742   1.082
    4CHTO   O30 1565   7.170   5.932   1.172
    4CHTO   C46 1566   7.059   5.988   1.081
    4CHTO   H88 1567   6.998   5.906   1.045
    4CHTO   C53 1568   6.974   6.084   1.168
    4CHTO   O72 1569   6.911   6.015   1.277
    4CHTO  H199 1570   6.845   5.957   1.245
    4CHTO   O22 1571   7.340   5.779   1.210
    4CHTO   C31 1572   7.308   5.749   1.351
    4CHTO   H59 1573   7.212   5.801   1.373
    4CHTO   C29 1574   7.288   5.600   1.384
    4CHTO   H57 1575   7.383   5.548   1.366
    4CHTO   O21 1576   7.192   5.545   1.292
    4CHTO   H37 1577   7.185   5.452   1.304
    4CHTO   C27 1578   7.247   5.581   1.536
    4CHTO   H55 1579   7.148   5.627   1.551
    4CHTO    N5 1580   7.239   5.438   1.576
    4CHTO   H43 1581   7.202   5.430   1.677
    4CHTO   H44 1582   7.336   5.392   1.567
    4CHTO   C25 1583   7.347   5.660   1.629
    4CHTO   H53 1584   7.444   5.608   1.630
    4CHTO   O17 1585   7.367   5.796   1.583
    4CHTO   C32 1586   7.413   5.809   1.448
    4CHTO   H60 1587   7.507   5.756   1.436
    4CHTO   C36 1588   7.438   5.959   1.420
    4CHTO   O25 1589   7.542   6.011   1.504
    4CHTO   H40 1590   7.557   6.101   1.484
    4CHTO   O15 1591   7.290   5.668   1.778
    4CHTO   C19 1592   7.282   5.762   1.889
    4CHTO   H47 1593   7.202   5.721   1.953
    4CHTO   C20 1594   7.412   5.773   1.975
    4CHTO   H48 1595   7.497   5.812   1.916
    4CHTO   O19 1596   7.448   5.640   2.018
    4CHTO   H35 1597   7.382   5.605   2.075
    4CHTO   C21 1598   7.391   5.870   2.099
    4CHTO   H49 1599   7.316   5.826   2.165
    4CHTO    N4 1600   7.513   5.890   2.181
    4CHTO   H41 1601   7.545   5.993   2.180
    4CHTO   H42 1602   7.594   5.827   2.147
    4CHTO   C22 1603   7.331   6.005   2.049
    4CHTO   H50 1604   7.407   6.058   1.991
    4CHTO   O14 1605   7.214   5.983   1.967
    4CHTO   C23 1606   7.238   5.905   1.849
    4CHTO   H51 1607   7.314   5.957   1.789
    4CHTO   C34 1608   7.109   5.903   1.766
    4CHTO   O23 1609   7.073   6.033   1.718
    4CHTO   H38 1610   7.134   6.060   1.652
    4CHTO   O16 1611   7.283   6.087   2.158
    4CHTO   C24 1612   7.288   6.247   2.125
    4CHTO   H52 1613   7.307   6.267   2.020
    4CHTO   C26 1614   7.397   6.313   2.212
    4CHTO   H54 1615   7.375   6.290   2.319
    4CHTO   O20 1616   7.523   6.253   2.177
    4CHTO   H36 1617   7.590   6.284   2.235
    4CHTO   C30 1618   7.398   6.468   2.192
    4CHTO   H58 1619   7.434   6.491   2.091
    4CHTO    N6 1620   7.493   6.533   2.286
    4CHTO   H45 1621   7.493   6.640   2.270
    4CHTO   H46 1622   7.593   6.496   2.270
    4CHTO   C33 1623   7.254   6.529   2.203
    4CHTO   H61 1624   7.222   6.530   2.308
    4CHTO   O18 1625   7.159   6.452   2.127
    4CHTO   C28 1626   7.151   6.312   2.159
    4CHTO   H56 1627   7.131   6.298   2.265
    4CHTO   C35 1628   7.038   6.246   2.077
    4CHTO   O24 1629   6.908   6.285   2.122
    4CHTO   H39 1630   6.890   6.248   2.206
    4CHTO    O9 1631   7.256   6.667   2.161
    4CHTO   C13 1632   7.125   6.755   2.201
    4CHTO   H26 1633   7.040   6.686   2.216
    4CHTO   C11 1634   7.097   6.859   2.085
    4CHTO   H24 1635   7.067   6.802   1.995
    4CHTO    O8 1636   7.216   6.933   2.052
    4CHTO    H3 1637   7.282   6.875   2.018
    4CHTO    C9 1638   6.977   6.949   2.128
    4CHTO   H22 1639   6.895   6.880   2.150
    4CHTO    N2 1640   6.926   7.036   2.020
    4CHTO   H10 1641   6.902   6.977   1.932
    4CHTO   H11 1642   6.838   7.090   2.054
    4CHTO    C7 1643   7.014   7.027   2.260
    4CHTO   H20 1644   6.919   7.077   2.289
    4CHTO    O4 1645   7.051   6.935   2.365
    4CHTO   C14 1646   7.146   6.829   2.341
    4CHTO   H27 1647   7.128   6.754   2.420
    4CHTO   C18 1648   7.291   6.882   2.361
    4CHTO   O13 1649   7.312   6.925   2.496
    4CHTO    H7 1650   7.316   6.850   2.552
    4CHTO    O2 1651   7.137   7.143   2.239
    4CHTO    C1 1652   7.094   7.280   2.252
    4CHTO   H14 1653   6.983   7.284   2.259
    4CHTO    C2 1654   7.142   7.372   2.131
    4CHTO   H15 1655   7.251   7.361   2.125
    4CHTO    O6 1656   7.082   7.324   2.009
    4CHTO    H1 1657   7.116   7.240   1.987
    4CHTO    C3 1658   7.102   7.526   2.157
    4CHTO   H16 1659   6.993   7.535   2.151
    4CHTO    N1 1660   7.160   7.617   2.052
    4CHTO    H8 1661   7.131   7.719   2.073
    4CHTO    H9 1662   7.124   7.589   1.955
    4CHTO    C4 1663   7.142   7.570   2.302
    4CHTO   H17 1664   7.251   7.582   2.308
    4CHTO    O1 1665   7.097   7.475   2.400
    4CHTO    C5 1666   7.150   7.342   2.383
    4CHTO   H18 1667   7.259   7.346   2.375
    4CHTO   C16 1668   7.112   7.261   2.509
    4CHTO   O11 1669   7.173   7.316   2.626
    4CHTO    H5 1670   7.133   7.398   2.647
    4CHTO    O3 1671   7.075   7.693   2.339
    4CHTO    C6 1672   7.150   7.789   2.420
    4CHTO   H19 1673   7.249   7.753   2.449
    4CHTO    C8 1674   7.169   7.921   2.339
    4CHTO   H21 1675   7.073   7.950   2.298
    4CHTO    O7 1676   7.260   7.892   2.231
    4CHTO    H2 1677   7.268   7.966   2.174
    4CHTO   C12 1678   7.223   8.039   2.430
    4CHTO   H25 1679   7.328   8.012   2.458
    4CHTO    N3 1680   7.230   8.168   2.355
    4CHTO   H12 1681   7.267   8.247   2.419
    4CHTO   H13 1682   7.295   8.157   2.269
    4CHTO   C15 1683   7.138   8.048   2.562
    4CHTO   H28 1684   7.036   8.083   2.542
    4CHTO   O10 1685   7.202   8.138   2.669
    4CHTO    H4 1686   7.208   8.226   2.637
    4CHTO    O5 1687   7.134   7.921   2.629
    4CHTO   C10 1688   7.072   7.817   2.552
    4CHTO   H23 1689   6.970   7.847   2.528
    4CHTO   C17 1690   7.062   7.692   2.640
    4CHTO   O12 1691   7.190   7.645   2.684
    4CHTO    H6 1692   7.178   7.569   2.738
    5CHTO  H203 1693   7.833   3.638   1.445
    5CHTO   O82 1694   7.745   3.604   1.454
    5CHTO  C123 1695   7.741   3.503   1.556
    5CHTO  H227 1696   7.823   3.432   1.539
    5CHTO   O77 1697   7.763   3.577   1.679
    5CHTO  C118 1698   7.768   3.496   1.798
    5CHTO  H222 1699   7.845   3.418   1.786
    5CHTO  C125 1700   7.809   3.588   1.919
    5CHTO   O84 1701   7.714   3.694   1.942
    5CHTO  H205 1702   7.634   3.658   1.974
    5CHTO  C114 1703   7.631   3.429   1.818
    5CHTO  H218 1704   7.555   3.507   1.828
    5CHTO  C116 1705   7.592   3.343   1.694
    5CHTO  H220 1706   7.661   3.255   1.688
    5CHTO   O79 1707   7.461   3.288   1.715
    5CHTO  H201 1708   7.397   3.356   1.721
    5CHTO  C120 1709   7.601   3.429   1.561
    5CHTO  H224 1710   7.519   3.503   1.566
    5CHTO   N21 1711   7.578   3.344   1.441
    5CHTO  H211 1712   7.630   3.384   1.355
    5CHTO  H212 1713   7.472   3.338   1.420
    5CHTO   O75 1714   7.642   3.353   1.940
    5CHTO  C112 1715   7.510   3.370   2.035
    5CHTO  H216 1716   7.420   3.353   1.974
    5CHTO   O73 1717   7.513   3.504   2.088
    5CHTO  C113 1718   7.398   3.537   2.166
    5CHTO  H217 1719   7.306   3.522   2.103
    5CHTO  C124 1720   7.403   3.687   2.200
    5CHTO   O83 1721   7.396   3.770   2.084
    5CHTO  H204 1722   7.402   3.860   2.109
    5CHTO  C109 1723   7.390   3.448   2.292
    5CHTO  H213 1724   7.477   3.473   2.355
    5CHTO  C110 1725   7.393   3.297   2.251
    5CHTO  H214 1726   7.299   3.273   2.201
    5CHTO   O78 1727   7.401   3.215   2.369
    5CHTO  H200 1728   7.323   3.223   2.420
    5CHTO  C111 1729   7.512   3.267   2.155
    5CHTO  H215 1730   7.607   3.282   2.210
    5CHTO   N19 1731   7.514   3.128   2.103
    5CHTO  H207 1732   7.600   3.113   2.039
    5CHTO  H208 1733   7.519   3.058   2.185
    5CHTO   O74 1734   7.268   3.483   2.365
    5CHTO  C115 1735   7.263   3.445   2.519
    5CHTO  H219 1736   7.343   3.376   2.546
    5CHTO   O76 1737   7.283   3.572   2.611
    5CHTO  C122 1738   7.191   3.679   2.585
    5CHTO  H226 1739   7.234   3.739   2.505
    5CHTO  C126 1740   7.185   3.772   2.711
    5CHTO   O85 1741   7.142   3.705   2.830
    5CHTO  H206 1742   7.136   3.767   0.030
    5CHTO  C121 1743   7.045   3.630   2.542
    5CHTO  H225 1744   6.970   3.698   2.588
    5CHTO   O81 1745   7.029   3.641   2.400
    5CHTO  H202 1746   7.037   3.731   2.374
    5CHTO  C119 1747   7.018   3.485   2.594
    5CHTO  H223 1748   7.032   3.494   2.702
    5CHTO  C117 1749   7.122   3.378   2.542
    5CHTO  H221 1750   7.098   3.334   2.446
    5CHTO   N20 1751   7.131   3.261   2.636
    5CHTO  H209 1752   7.169   3.292   2.732
    5CHTO  H210 1753   7.194   3.184   2.594
    5CHTO   O80 1754   6.869   3.440   2.588
    5CHTO  C103 1755   6.784   3.456   2.455
    5CHTO  H190 1756   6.800   3.554   2.409
    5CHTO  C101 1757   6.807   3.343   2.345
    5CHTO  H188 1758   6.822   3.248   2.396
    5CHTO   O68 1759   6.937   3.377   2.265
    5CHTO  H168 1760   7.011   3.377   2.323
    5CHTO   C99 1761   6.683   3.329   2.245
    5CHTO  H186 1762   6.676   3.420   2.182
    5CHTO   N17 1763   6.694   3.213   2.150
    5CHTO  H174 1764   6.692   3.120   2.205
    5CHTO  H175 1765   6.614   3.217   2.077
    5CHTO   C97 1766   6.551   3.324   2.327
    5CHTO  H184 1767   6.554   3.235   2.392
    5CHTO   O64 1768   6.541   3.446   2.404
    5CHTO  C104 1769   6.637   3.454   2.511
    5CHTO  H191 1770   6.626   3.371   2.580
    5CHTO  C108 1771   6.603   3.582   2.589
    5CHTO   O71 1772   6.669   3.589   2.716
    5CHTO  H171 1773   6.636   3.522   2.773
    5CHTO   O62 1774   6.431   3.325   2.247
    5CHTO   C91 1775   6.312   3.279   2.313
    5CHTO  H178 1776   6.330   3.272   2.420
    5CHTO   C92 1777   6.279   3.134   2.265
    5CHTO  H179 1778   6.277   3.132   2.155
    5CHTO   O66 1779   6.388   3.049   2.304
    5CHTO  H166 1780   6.376   2.962   2.269
    5CHTO   C93 1781   6.141   3.083   2.324
    5CHTO  H180 1782   6.153   3.077   2.433
    5CHTO   N16 1783   6.103   2.946   2.280
    5CHTO  H172 1784   6.177   2.905   2.213
    5CHTO  H173 1785   6.088   2.881   2.365
    5CHTO   C94 1786   6.030   3.188   2.291
    5CHTO  H181 1787   6.021   3.205   2.183
    5CHTO   O61 1788   6.067   3.314   2.349
    5CHTO   C95 1789   6.185   3.372   2.292
    5CHTO  H182 1790   6.169   3.387   2.185
    5CHTO  C106 1791   6.207   3.515   2.355
    5CHTO   O69 1792   6.225   3.509   2.497
    5CHTO  H169 1793   6.306   3.467   2.517
    5CHTO   O63 1794   5.882   3.148   2.354
    5CHTO   C96 1795   5.775   3.131   2.238
    5CHTO  H183 1796   5.828   3.092   2.151
    5CHTO   C98 1797   5.700   3.259   2.194
    5CHTO  H185 1798   5.640   3.298   2.277
    5CHTO   O67 1799   5.796   3.362   2.164
    5CHTO  H167 1800   5.841   3.388   2.242
    5CHTO  C102 1801   5.607   3.229   2.066
    5CHTO  H189 1802   5.676   3.218   1.981
    5CHTO   N18 1803   5.516   3.340   2.028
    5CHTO  H176 1804   5.459   3.313   1.940
    5CHTO  H177 1805   5.573   3.430   2.008
    5CHTO  C105 1806   5.530   3.094   2.081
    5CHTO  H192 1807   5.435   3.112   2.133
    5CHTO   O65 1808   5.599   2.989   2.152
    5CHTO  C100 1809   5.663   3.027   2.274
    5CHTO  H187 1810   5.589   3.073   2.341
    5CHTO  C107 1811   5.715   2.898   2.341
    5CHTO   O70 1812   5.754   2.922   2.477
    5CHTO  H170 1813   5.679   2.940   2.529
    5CHTO   O57 1814   5.506   3.045   1.931
    5CHTO   C85 1815   5.391   2.966   1.896
    5CHTO  H157 1816   5.303   3.017   1.940
    5CHTO   C83 1817   5.399   2.825   1.964
    5CHTO  H155 1818   5.396   2.840   2.072
    5CHTO   O56 1819   5.526   2.765   1.934
    5CHTO  H135 1820   5.535   2.684   1.981
    5CHTO   C81 1821   5.276   2.741   1.922
    5CHTO  H153 1822   5.186   2.796   1.948
    5CHTO   N14 1823   5.264   2.614   1.998
    5CHTO  H141 1824   5.263   2.633   2.103
    5CHTO  H142 1825   5.174   2.563   1.971
    5CHTO   C79 1826   5.277   2.720   1.765
    5CHTO  H151 1827   5.185   2.667   1.739
    5CHTO   O52 1828   5.270   2.851   1.700
    5CHTO   C86 1829   5.374   2.946   1.739
    5CHTO  H158 1830   5.466   2.904   1.695
    5CHTO   C90 1831   5.348   3.080   1.666
    5CHTO   O60 1832   5.452   3.176   1.687
    5CHTO  H138 1833   5.431   3.255   1.641
    5CHTO   O50 1834   5.389   2.645   1.715
    5CHTO   C73 1835   5.421   2.557   1.606
    5CHTO  H145 1836   5.348   2.569   1.525
    5CHTO   C74 1837   5.421   2.408   1.652
    5CHTO  H146 1838   5.321   2.387   1.693
    5CHTO   O54 1839   5.435   2.325   1.535
    5CHTO  H133 1840   5.519   2.339   1.495
    5CHTO   C75 1841   5.534   2.387   1.761
    5CHTO  H147 1842   5.505   2.442   1.852
    5CHTO   N13 1843   5.551   2.246   1.806
    5CHTO  H139 1844   5.577   2.184   1.722
    5CHTO  H140 1845   5.458   2.210   1.849
    5CHTO   C76 1846   5.675   2.449   1.714
    5CHTO  H148 1847   5.719   2.382   1.639
    5CHTO   O49 1848   5.661   2.583   1.657
    5CHTO   C77 1849   5.563   2.591   1.551
    5CHTO  H149 1850   5.589   2.519   1.472
    5CHTO   C88 1851   5.570   2.729   1.485
    5CHTO   O58 1852   5.478   2.738   1.368
    5CHTO  H136 1853   5.485   2.823   1.330
    5CHTO   O51 1854   5.770   2.467   1.847
    5CHTO   C78 1855   5.918   2.515   1.819
    5CHTO  H150 1856   5.924   2.570   1.722
    5CHTO   C80 1857   6.015   2.395   1.814
    5CHTO  H152 1858   6.003   2.336   1.907
    5CHTO   O55 1859   5.972   2.313   1.704
    5CHTO  H134 1860   6.023   2.234   1.700
    5CHTO   C84 1861   6.165   2.441   1.798
    5CHTO  H156 1862   6.175   2.488   1.700
    5CHTO   N15 1863   6.263   2.327   1.800
    5CHTO  H143 1864   6.362   2.363   1.787
    5CHTO  H144 1865   6.240   2.258   1.721
    5CHTO   C87 1866   6.201   2.548   1.904
    5CHTO  H159 1867   6.207   2.502   2.003
    5CHTO   O53 1868   6.093   2.661   1.904
    5CHTO   C82 1869   5.960   2.612   1.930
    5CHTO  H154 1870   5.957   2.564   2.027
    5CHTO   C89 1871   5.861   2.731   1.934
    5CHTO   O59 1872   5.889   2.820   2.043
    5CHTO  H137 1873   5.871   2.777   2.125
    5CHTO   O45 1874   6.344   2.620   1.866
    5CHTO   C67 1875   6.432   2.640   1.978
    5CHTO  H124 1876   6.373   2.650   2.069
    5CHTO   C65 1877   6.531   2.518   1.994
    5CHTO  H122 1878   6.537   2.471   1.896
    5CHTO   O44 1879   6.468   2.427   2.086
    5CHTO  H102 1880   6.516   2.346   2.089
    5CHTO   C63 1881   6.679   2.563   2.027
    5CHTO  H120 1882   6.724   2.603   1.936
    5CHTO   N11 1883   6.775   2.453   2.060
    5CHTO  H108 1884   6.771   2.377   1.984
    5CHTO  H109 1885   6.750   2.409   2.154
    5CHTO   C61 1886   6.677   2.682   2.130
    5CHTO  H118 1887   6.781   2.716   2.140
    5CHTO   O40 1888   6.600   2.796   2.078
    5CHTO   C68 1889   6.511   2.775   1.964
    5CHTO  H125 1890   6.573   2.773   1.871
    5CHTO   C72 1891   6.416   2.896   1.952
    5CHTO   O48 1892   6.484   3.017   1.920
    5CHTO  H105 1893   6.540   3.043   1.991
    5CHTO   O38 1894   6.629   2.640   2.260
    5CHTO   C55 1895   6.574   2.736   2.353
    5CHTO  H112 1896   6.498   2.797   2.301
    5CHTO   C56 1897   6.685   2.826   2.422
    5CHTO  H113 1898   6.761   2.757   2.463
    5CHTO   O42 1899   6.753   2.905   2.322
    5CHTO  H100 1900   6.799   2.850   2.262
    5CHTO   C57 1901   6.623   2.917   2.535
    5CHTO  H114 1902   6.561   2.991   2.486
    5CHTO   N10 1903   6.726   2.991   2.613
    5CHTO  H106 1904   6.761   2.933   2.697
    5CHTO  H107 1905   6.685   3.084   2.649
    5CHTO   C58 1906   6.534   2.831   2.630
    5CHTO  H115 1907   6.598   2.761   2.688
    5CHTO   O37 1908   6.438   2.754   2.555
    5CHTO   C59 1909   6.496   2.660   2.464
    5CHTO  H116 1910   6.563   2.593   2.519
    5CHTO   C70 1911   6.384   2.572   2.407
    5CHTO   O46 1912   6.284   2.645   2.333
    5CHTO  H103 1913   6.322   2.679   2.254
    5CHTO   O39 1914   6.449   2.930   2.739
    5CHTO   C60 1915   6.322   2.982   2.694
    5CHTO  H117 1916   6.320   2.982   2.584
    5CHTO   C62 1917   6.203   2.895   2.746
    5CHTO  H119 1918   6.215   2.794   2.702
    5CHTO   O43 1919   6.213   2.885   0.020
    5CHTO  H101 1920   6.288   2.834   0.044
    5CHTO   C66 1921   6.063   2.958   2.696
    5CHTO  H123 1922   6.059   2.953   2.588
    5CHTO   N12 1923   5.946   2.880   2.744
    5CHTO  H110 1924   5.881   2.939   2.807
    5CHTO  H111 1925   5.891   2.840   2.660
    5CHTO   C69 1926   6.054   3.109   2.734
    5CHTO  H126 1927   6.050   3.120   2.845
    5CHTO   O41 1928   6.178   3.181   2.680
    5CHTO   C64 1929   6.303   3.128   2.739
    5CHTO  H121 1930   6.296   3.131   2.850
    5CHTO   C71 1931   6.420   3.219   2.698
    5CHTO   O47 1932   6.403   3.351   2.750
    5CHTO  H104 1933   6.414   3.350   2.843
    5CHTO   O34 1934   5.924   3.179   2.673
    5CHTO   C49 1935   5.878   3.332   2.650
    5CHTO   H91 1936   5.931   3.367   2.562
    5CHTO   C47 1937   5.917   3.418   2.772
    5CHTO   H89 1938   5.888   3.523   2.748
    5CHTO   O33 1939   6.059   3.414   2.791
    5CHTO   H70 1940   6.103   3.456   2.719
    5CHTO   C45 1941   5.832   3.366   0.029
    5CHTO   H87 1942   5.850   3.257   0.040
    5CHTO    N8 1943   5.873   3.432   0.156
    5CHTO   H75 1944   5.852   3.538   0.150
    5CHTO   H76 1945   5.978   3.416   0.174
    5CHTO   C43 1946   5.675   3.380   2.867
    5CHTO   H85 1947   5.623   3.333   0.081
    5CHTO   O29 1948   5.642   3.317   2.741
    5CHTO   C50 1949   5.725   3.342   2.626
    5CHTO   H92 1950   5.699   3.267   2.550
    5CHTO   C54 1951   5.689   3.476   2.556
    5CHTO   O36 1952   5.555   3.476   2.505
    5CHTO   H72 1953   5.538   3.558   2.463
    5CHTO   O27 1954   5.630   3.517   2.866
    5CHTO   C37 1955   5.513   3.593   0.034
    5CHTO   H79 1956   5.502   3.680   2.837
    5CHTO   C38 1957   5.382   3.509   0.019
    5CHTO   H80 1958   5.395   3.415   0.075
    5CHTO   O31 1959   5.366   3.477   2.750
    5CHTO   H68 1960   5.354   3.555   2.699
    5CHTO   C39 1961   5.256   3.586   0.075
    5CHTO   H81 1962   5.237   3.670   0.009
    5CHTO    N7 1963   5.130   3.503   0.076
    5CHTO   H73 1964   5.148   3.405   0.033
    5CHTO   H74 1965   5.091   3.491   0.177
    5CHTO   C40 1966   5.286   3.646   0.218
    5CHTO   H82 1967   5.290   3.565   0.290
    5CHTO   O26 1968   5.408   3.722   0.216
    5CHTO   C41 1969   5.526   3.643   0.180
    5CHTO   H83 1970   5.535   3.557   0.247
    5CHTO   C52 1971   5.650   3.732   0.200
    5CHTO   O35 1972   5.672   3.769   0.339
    5CHTO   H71 1973   5.603   3.826   0.368
    5CHTO   O28 1974   5.186   3.742   0.259
    5CHTO   C42 1975   5.161   3.788   0.397
    5CHTO   H84 1976   5.082   3.862   0.382
    5CHTO   C44 1977   5.279   3.863   0.470
    5CHTO   H86 1978   5.354   3.889   0.395
    5CHTO   O32 1979   5.228   3.988   0.522
    5CHTO   H69 1980   5.299   4.040   0.555
    5CHTO   C48 1981   5.350   3.780   0.586
    5CHTO   H90 1982   5.292   3.793   0.678
    5CHTO    N9 1983   5.486   3.834   0.618
    5CHTO   H77 1984   5.549   3.829   0.530
    5CHTO   H78 1985   5.478   3.935   0.653
    5CHTO   C51 1986   5.348   3.627   0.550
    5CHTO   H93 1987   5.403   3.615   0.456
    5CHTO   O30 1988   5.213   3.580   0.539
    5CHTO   C46 1989   5.100   3.675   0.486
    5CHTO   H88 1990   5.034   3.615   0.424
    5CHTO   C53 1991   5.019   3.733   0.605
    5CHTO   O72 1992   4.958   3.628   0.682
    5CHTO  H199 1993   4.890   3.587   0.632
    5CHTO   O22 1994   5.407   3.542   0.650
    5CHTO   C31 1995   5.453   3.405   0.617
    5CHTO   H59 1996   5.482   3.358   0.714
    5CHTO   C29 1997   5.345   3.314   0.553
    5CHTO   H57 1998   5.312   3.362   0.460
    5CHTO   O21 1999   5.232   3.310   0.642
    5CHTO   H37 2000   5.191   3.394   0.646
    5CHTO   C27 2001   5.399   3.169   0.519
    5CHTO   H55 2002   5.420   3.116   0.613
    5CHTO    N5 2003   5.301   3.088   0.441
    5CHTO   H43 2004   5.282   3.135   0.345
    5CHTO   H44 2005   5.209   3.078   0.496
    5CHTO   C25 2006   5.535   3.180   0.442
    5CHTO   H53 2007   5.517   3.224   0.342
    5CHTO   O17 2008   5.629   3.268   0.512
    5CHTO   C32 2009   5.582   3.402   0.529
    5CHTO   H60 2010   5.558   3.445   0.431
    5CHTO   C36 2011   5.695   3.486   0.593
    5CHTO   O25 2012   5.805   3.498   0.502
    5CHTO   H40 2013   5.872   3.552   0.541
    5CHTO   O15 2014   5.602   3.039   0.424
    5CHTO   C19 2015   5.715   2.973   0.486
    5CHTO   H47 2016   5.754   3.046   0.559
    5CHTO   C20 2017   5.679   2.842   0.563
    5CHTO   H48 2018   5.630   2.768   0.498
    5CHTO   O19 2019   5.584   2.878   0.666
    5CHTO   H35 2020   5.502   2.903   0.627
    5CHTO   C21 2021   5.807   2.773   0.628
    5CHTO   H49 2022   5.842   2.836   0.709
    5CHTO    N4 2023   5.778   2.640   0.687
    5CHTO   H41 2024   5.705   2.650   0.766
    5CHTO   H42 2025   5.739   2.573   0.611
    5CHTO   C22 2026   5.923   2.766   0.524
    5CHTO   H50 2027   5.901   2.689   0.450
    5CHTO   O14 2028   5.942   2.892   0.459
    5CHTO   C23 2029   5.831   2.945   0.387
    5CHTO   H51 2030   5.802   2.871   0.310
    5CHTO   C34 2031   5.876   3.073   0.316
    5CHTO   O23 2032   5.975   3.046   0.216
    5CHTO   H38 2033   5.935   3.002   0.143
    5CHTO   O16 2034   6.050   2.743   0.589
    5CHTO   C24 2035   6.158   2.660   0.496
    5CHTO   H52 2036   6.115   2.631   0.400
    5CHTO   C26 2037   6.201   2.534   0.574
    5CHTO   H54 2038   6.244   2.566   0.672
    5CHTO   O20 2039   6.085   2.453   0.600
    5CHTO   H36 2040   6.028   2.497   0.661
    5CHTO   C30 2041   6.312   2.456   0.496
    5CHTO   H58 2042   6.269   2.414   0.404
    5CHTO    N6 2043   6.363   2.339   0.574
    5CHTO   H45 2044   6.436   2.285   0.517
    5CHTO   H46 2045   6.408   2.373   0.666
    5CHTO   C33 2046   6.427   2.552   0.453
    5CHTO   H61 2047   6.480   2.587   0.543
    5CHTO   O18 2048   6.371   2.666   0.386
    5CHTO   C28 2049   6.284   2.746   0.467
    5CHTO   H56 2050   6.331   2.773   0.561
    5CHTO   C35 2051   6.255   2.873   0.385
    5CHTO   O24 2052   6.205   2.979   0.467
    5CHTO   H39 2053   6.274   3.014   0.520
    5CHTO    O9 2054   6.529   2.488   0.373
    5CHTO   C13 2055   6.493   2.455   0.214
    5CHTO   H26 2056   6.385   2.429   0.207
    5CHTO   C11 2057   6.585   2.335   0.167
    5CHTO   H24 2058   6.554   2.246   0.223
    5CHTO    O8 2059   6.722   2.363   0.202
    5CHTO    H3 2060   6.776   2.289   0.183
    5CHTO    C9 2061   6.562   2.310   0.016
    5CHTO   H22 2062   6.454   2.292   0.005
    5CHTO    N2 2063   6.627   2.186   2.834
    5CHTO   H10 2064   6.553   2.112   2.808
    5CHTO   H11 2065   6.698   2.146   0.036
    5CHTO    C7 2066   6.600   2.439   2.805
    5CHTO   H20 2067   6.568   2.416   2.701
    5CHTO    O4 2068   6.525   2.554   2.849
    5CHTO   C14 2069   6.512   2.583   0.120
    5CHTO   H27 2070   6.418   2.643   0.128
    5CHTO   C18 2071   6.628   2.675   0.166
    5CHTO   O13 2072   6.621   2.803   0.102
    5CHTO    H7 2073   6.694   2.855   0.129
    5CHTO    O2 2074   6.761   2.472   2.811
    5CHTO    C1 2075   6.825   2.513   2.689
    5CHTO   H14 2076   6.762   2.591   2.639
    5CHTO    C2 2077   6.851   2.395   2.585
    5CHTO   H15 2078   6.894   2.312   2.644
    5CHTO    O6 2079   6.726   2.353   2.528
    5CHTO    H1 2080   6.738   2.277   2.475
    5CHTO    C3 2081   6.954   2.438   2.468
    5CHTO   H16 2082   6.904   2.510   2.401
    5CHTO    N1 2083   6.995   2.321   2.384
    5CHTO    H8 2084   7.046   2.247   2.445
    5CHTO    H9 2085   7.060   2.353   2.304
    5CHTO    C4 2086   7.077   2.514   2.530
    5CHTO   H17 2087   7.134   2.444   2.591
    5CHTO    O1 2088   7.031   2.624   2.610
    5CHTO    C5 2089   6.959   2.582   2.727
    5CHTO   H18 2090   7.019   2.510   2.783
    5CHTO   C16 2091   6.937   2.707   2.816
    5CHTO   O11 2092   7.062   2.759   2.863
    5CHTO    H5 2093   7.047   2.837   0.042
    5CHTO    O3 2094   7.161   2.573   2.429
    5CHTO    C6 2095   7.297   2.603   2.474
    5CHTO   H19 2096   7.305   2.607   2.583
    5CHTO    C8 2097   7.397   2.494   2.423
    5CHTO   H21 2098   7.390   2.489   2.314
    5CHTO    O7 2099   7.357   2.368   2.480
    5CHTO    H2 2100   7.365   2.369   2.573
    5CHTO   C12 2101   7.545   2.533   2.463
    5CHTO   H25 2102   7.550   2.529   2.575
    5CHTO    N3 2103   7.645   2.433   2.412
    5CHTO   H12 2104   7.744   2.462   2.442
    5CHTO   H13 2105   7.622   2.335   2.451
    5CHTO   C15 2106   7.575   2.680   2.417
    5CHTO   H28 2107   7.584   2.688   2.309
    5CHTO   O10 2108   7.703   2.738   2.482
    5CHTO    H4 2109   7.777   2.687   2.456
    5CHTO    O5 2110   7.475   2.772   2.466
    5CHTO   C10 2111   7.342   2.742   2.421
    5CHTO   H23 2112   7.343   2.740   2.312
    5CHTO   C17 2113   7.248   2.856   2.463
    5CHTO   O12 2114   7.243   2.873   2.605
    5CHTO    H6 2115   7.325   2.906   2.636
    6CHTO  H203 2116   6.282   4.659   0.397
    6CHTO   O82 2117   6.190   4.680   0.400
    6CHTO  C123 2118   6.171   4.812   0.453
    6CHTO  H227 2119   6.225   4.884   0.388
    6CHTO   O77 2120   6.027   4.832   0.441
    6CHTO  C118 2121   5.984   4.964   0.479
    6CHTO  H222 2122   6.039   5.040   0.421
    6CHTO  C125 2123   5.831   4.977   0.446
    6CHTO   O84 2124   5.810   4.971   0.305
    6CHTO  H205 2125   5.718   4.978   0.287
    6CHTO  C114 2126   6.011   4.986   0.629
    6CHTO  H218 2127   5.952   4.914   0.686
    6CHTO  C116 2128   6.161   4.963   0.663
    6CHTO  H220 2129   6.221   5.048   0.621
    6CHTO   O79 2130   6.178   4.969   0.806
    6CHTO  H201 2131   6.160   5.056   0.837
    6CHTO  C120 2132   6.214   4.826   0.604
    6CHTO  H224 2133   6.167   4.745   0.664
    6CHTO   N21 2134   6.361   4.812   0.620
    6CHTO  H211 2135   6.388   4.708   0.629
    6CHTO  H212 2136   6.414   4.859   0.538
    6CHTO   O75 2137   5.966   5.120   0.655
    6CHTO  C112 2138   5.879   5.140   0.792
    6CHTO  H216 2139   5.921   5.076   0.872
    6CHTO   O73 2140   5.743   5.103   0.762
    6CHTO  C113 2141   5.648   5.124   0.868
    6CHTO  H217 2142   5.679   5.066   0.957
    6CHTO  C124 2143   5.514   5.065   0.818
    6CHTO   O83 2144   5.413   5.058   0.919
    6CHTO  H204 2145   5.386   5.145   0.944
    6CHTO  C109 2146   5.640   5.276   0.901
    6CHTO  H213 2147   5.613   5.327   0.807
    6CHTO  C110 2148   5.782   5.324   0.945
    6CHTO  H214 2149   5.809   5.274   1.038
    6CHTO   O78 2150   5.775   5.466   0.969
    6CHTO  H200 2151   5.856   5.496   1.005
    6CHTO  C111 2152   5.887   5.291   0.835
    6CHTO  H215 2153   5.864   5.352   0.745
    6CHTO   N19 2154   6.027   5.325   0.874
    6CHTO  H207 2155   6.095   5.302   0.794
    6CHTO  H208 2156   6.034   5.431   0.897
    6CHTO   O74 2157   5.532   5.302   0.998
    6CHTO  C115 2158   5.561   5.333   1.158
    6CHTO  H219 2159   5.667   5.349   1.178
    6CHTO   O76 2160   5.491   5.463   1.204
    6CHTO  C122 2161   5.350   5.459   1.176
    6CHTO  H226 2162   5.338   5.462   1.068
    6CHTO  C126 2163   5.284   5.590   1.230
    6CHTO   O85 2164   5.336   5.707   1.165
    6CHTO  H206 2165   5.425   5.721   1.190
    6CHTO  C121 2166   5.278   5.329   1.235
    6CHTO  H225 2167   5.194   5.361   1.299
    6CHTO   O81 2168   5.223   5.252   1.127
    6CHTO  H202 2169   5.157   5.301   1.082
    6CHTO  C119 2170   5.376   5.243   1.320
    6CHTO  H223 2171   5.402   5.305   1.406
    6CHTO  C117 2172   5.509   5.208   1.242
    6CHTO  H221 2173   5.498   5.129   1.168
    6CHTO   N20 2174   5.614   5.156   1.336
    6CHTO  H209 2175   5.706   5.213   1.328
    6CHTO  H210 2176   5.580   5.157   1.438
    6CHTO   O80 2177   5.307   5.116   1.392
    6CHTO  C103 2178   5.251   5.129   1.540
    6CHTO  H190 2179   5.312   5.198   1.599
    6CHTO  C101 2180   5.099   5.173   1.552
    6CHTO  H188 2181   5.044   5.125   1.470
    6CHTO   O68 2182   5.092   5.326   1.532
    6CHTO  H168 2183   5.121   5.349   1.446
    6CHTO   C99 2184   5.031   5.129   1.690
    6CHTO  H186 2185   5.075   5.189   1.772
    6CHTO   N17 2186   4.883   5.152   1.694
    6CHTO  H174 2187   4.862   5.256   1.673
    6CHTO  H175 2188   4.833   5.087   1.624
    6CHTO   C97 2189   5.068   4.981   1.723
    6CHTO  H184 2190   5.024   4.916   1.646
    6CHTO   O64 2191   5.211   4.970   1.728
    6CHTO  C104 2192   5.274   4.984   1.600
    6CHTO  H191 2193   5.234   4.911   1.530
    6CHTO  C108 2194   5.423   4.952   1.616
    6CHTO   O71 2195   5.489   5.039   1.708
    6CHTO  H171 2196   5.580   5.017   1.713
    6CHTO   O62 2197   5.026   4.939   1.855
    6CHTO   C91 2198   4.996   4.799   1.879
    6CHTO  H178 2199   4.979   4.791   1.987
    6CHTO   C92 2200   5.116   4.703   1.848
    6CHTO  H179 2201   5.145   4.716   1.742
    6CHTO   O66 2202   5.229   4.746   1.926
    6CHTO  H166 2203   5.261   4.829   1.896
    6CHTO   C93 2204   5.082   4.551   1.878
    6CHTO  H180 2205   5.076   4.540   1.987
    6CHTO   N16 2206   5.189   4.457   1.834
    6CHTO  H172 2207   5.281   4.479   1.886
    6CHTO  H173 2208   5.203   4.464   1.727
    6CHTO   C94 2209   4.943   4.512   1.816
    6CHTO  H181 2210   4.946   4.510   1.707
    6CHTO   O61 2211   4.843   4.607   1.853
    6CHTO   C95 2212   4.867   4.741   1.809
    6CHTO  H182 2213   4.881   4.740   1.700
    6CHTO  C106 2214   4.740   4.827   1.839
    6CHTO   O69 2215   4.626   4.776   1.769
    6CHTO  H169 2216   4.551   4.826   1.792
    6CHTO   O63 2217   4.893   4.368   1.874
    6CHTO   C96 2218   4.845   4.271   1.764
    6CHTO  H183 2219   4.915   4.280   1.680
    6CHTO   C98 2220   4.701   4.295   1.710
    6CHTO  H185 2221   4.630   4.293   1.795
    6CHTO   O67 2222   4.690   4.427   1.655
    6CHTO  H167 2223   4.701   4.491   1.723
    6CHTO  C102 2224   4.657   4.188   1.598
    6CHTO  H189 2225   4.677   4.236   1.501
    6CHTO   N18 2226   4.512   4.156   1.594
    6CHTO  H176 2227   4.455   4.246   1.577
    6CHTO  H177 2228   4.492   4.085   1.515
    6CHTO  C105 2229   4.746   4.061   1.605
    6CHTO  H192 2230   4.695   3.976   1.559
    6CHTO   O65 2231   4.780   4.025   1.741
    6CHTO  C100 2232   4.854   4.122   1.819
    6CHTO  H187 2233   4.811   4.121   1.920
    6CHTO  C107 2234   5.000   4.071   1.831
    6CHTO   O70 2235   5.073   4.142   1.932
    6CHTO  H170 2236   5.160   4.109   1.937
    6CHTO   O57 2237   4.877   4.096   1.517
    6CHTO   C85 2238   4.874   4.092   1.374
    6CHTO  H157 2239   4.767   4.092   1.343
    6CHTO   C83 2240   4.931   3.954   1.326
    6CHTO  H155 2241   4.864   3.875   1.363
    6CHTO   O56 2242   5.059   3.932   1.388
    6CHTO  H135 2243   5.091   3.846   1.367
    6CHTO   C81 2244   4.933   3.951   1.171
    6CHTO  H153 2245   4.831   3.965   1.135
    6CHTO   N14 2246   4.972   3.818   1.116
    6CHTO  H141 2247   4.964   3.819   1.009
    6CHTO  H142 2248   4.908   3.742   1.155
    6CHTO   C79 2249   5.022   4.069   1.115
    6CHTO  H151 2250   5.013   4.067   1.006
    6CHTO   O52 2251   4.967   4.197   1.160
    6CHTO   C86 2252   4.956   4.209   1.306
    6CHTO  H158 2253   5.060   4.210   1.342
    6CHTO   C90 2254   4.897   4.347   1.342
    6CHTO   O60 2255   4.984   4.453   1.302
    6CHTO  H138 2256   4.986   4.460   1.208
    6CHTO   O50 2257   5.161   4.062   1.149
    6CHTO   C73 2258   5.298   4.093   1.120
    6CHTO  H145 2259   5.331   4.039   1.030
    6CHTO   C74 2260   5.389   4.048   1.240
    6CHTO  H146 2261   5.369   3.942   1.258
    6CHTO   O54 2262   5.527   4.058   1.199
    6CHTO  H133 2263   5.546   3.995   1.132
    6CHTO   C75 2264   5.356   4.137   1.367
    6CHTO  H147 2265   5.251   4.120   1.395
    6CHTO   N13 2266   5.435   4.101   1.488
    6CHTO  H139 2267   5.406   4.164   1.570
    6CHTO  H140 2268   5.415   3.998   1.515
    6CHTO   C76 2269   5.371   4.291   1.328
    6CHTO  H148 2270   5.475   4.308   1.300
    6CHTO   O49 2271   5.285   4.322   1.214
    6CHTO   C77 2272   5.319   4.246   1.097
    6CHTO  H149 2273   5.423   4.264   1.071
    6CHTO   C88 2274   5.238   4.298   0.977
    6CHTO   O58 2275   5.271   4.441   0.949
    6CHTO  H136 2276   5.221   4.471   0.876
    6CHTO   O51 2277   5.322   4.391   1.447
    6CHTO   C78 2278   5.406   4.534   1.451
    6CHTO  H150 2279   5.360   4.602   1.527
    6CHTO   C80 2280   5.404   4.604   1.314
    6CHTO  H152 2281   5.437   4.531   1.236
    6CHTO   O55 2282   5.267   4.640   1.288
    6CHTO  H134 2283   5.259   4.678   1.203
    6CHTO   C84 2284   5.502   4.729   1.310
    6CHTO  H156 2285   5.464   4.803   1.380
    6CHTO   N15 2286   5.505   4.795   1.175
    6CHTO  H143 2287   5.408   4.832   1.150
    6CHTO  H144 2288   5.537   4.725   1.101
    6CHTO   C87 2289   5.642   4.683   1.356
    6CHTO  H159 2290   5.679   4.607   1.287
    6CHTO   O53 2291   5.629   4.625   1.497
    6CHTO   C82 2292   5.550   4.505   1.500
    6CHTO  H154 2293   5.597   4.428   1.439
    6CHTO   C89 2294   5.546   4.452   1.645
    6CHTO   O59 2295   5.675   4.411   1.689
    6CHTO  H137 2296   5.669   4.376   1.776
    6CHTO   O45 2297   5.750   4.808   1.366
    6CHTO   C67 2298   5.879   4.775   1.311
    6CHTO  H124 2299   5.872   4.686   1.248
    6CHTO   C65 2300   5.931   4.894   1.225
    6CHTO  H122 2301   5.846   4.928   1.166
    6CHTO   O44 2302   6.034   4.848   1.136
    6CHTO  H102 2303   6.111   4.825   1.184
    6CHTO   C63 2304   5.969   5.015   1.319
    6CHTO  H120 2305   5.883   5.038   1.382
    6CHTO   N11 2306   5.993   5.145   1.250
    6CHTO  H108 2307   5.910   5.170   1.188
    6CHTO  H109 2308   6.082   5.139   1.189
    6CHTO   C61 2309   6.084   4.970   1.416
    6CHTO  H118 2310   6.099   5.053   1.486
    6CHTO   O40 2311   6.041   4.855   1.495
    6CHTO   C68 2312   5.980   4.739   1.429
    6CHTO  H125 2313   5.920   4.687   1.507
    6CHTO   C72 2314   6.091   4.641   1.386
    6CHTO   O48 2315   6.042   4.517   1.335
    6CHTO  H105 2316   6.114   4.462   1.311
    6CHTO   O38 2317   6.209   4.937   1.349
    6CHTO   C55 2318   6.330   5.005   1.392
    6CHTO  H112 2319   6.308   5.074   1.474
    6CHTO   C56 2320   6.396   5.079   1.268
    6CHTO  H113 2321   6.409   5.004   1.188
    6CHTO   O42 2322   6.307   5.179   1.217
    6CHTO  H100 2323   6.289   5.244   1.282
    6CHTO   C57 2324   6.536   5.142   1.308
    6CHTO  H114 2325   6.516   5.222   1.379
    6CHTO   N10 2326   6.607   5.205   1.193
    6CHTO  H106 2327   6.669   5.133   1.142
    6CHTO  H107 2328   6.537   5.248   1.124
    6CHTO   C58 2329   6.624   5.035   1.378
    6CHTO  H115 2330   6.656   4.958   1.303
    6CHTO   O37 2331   6.554   4.971   1.486
    6CHTO   C59 2332   6.432   4.903   1.450
    6CHTO  H116 2333   6.453   4.824   1.378
    6CHTO   C70 2334   6.376   4.838   1.578
    6CHTO   O46 2335   6.462   4.738   1.633
    6CHTO  H103 2336   6.468   4.665   1.575
    6CHTO   O39 2337   6.754   5.106   1.447
    6CHTO   C60 2338   6.882   5.046   1.419
    6CHTO  H117 2339   6.868   4.943   1.388
    6CHTO   C62 2340   6.954   5.123   1.304
    6CHTO  H119 2341   6.890   5.111   1.214
    6CHTO   O43 2342   6.960   5.263   1.338
    6CHTO  H101 2343   6.999   5.312   1.268
    6CHTO   C66 2344   7.099   5.059   1.276
    6CHTO  H123 2345   7.085   4.953   1.252
    6CHTO   N12 2346   7.165   5.120   1.158
    6CHTO  H110 2347   7.260   5.072   1.140
    6CHTO  H111 2348   7.177   5.226   1.173
    6CHTO   C69 2349   7.184   5.068   1.405
    6CHTO  H126 2350   7.197   5.175   1.434
    6CHTO   O41 2351   7.109   4.992   1.518
    6CHTO   C64 2352   6.969   5.045   1.548
    6CHTO  H121 2353   6.975   5.148   1.589
    6CHTO   C71 2354   6.910   4.952   1.657
    6CHTO   O47 2355   6.784   4.999   1.707
    6CHTO  H104 2356   6.751   4.939   1.770
    6CHTO   O34 2357   7.331   5.002   1.387
    6CHTO   C49 2358   7.466   5.058   1.325
    6CHTO   H91 2359   7.461   5.039   1.217
    6CHTO   C47 2360   7.584   4.981   1.386
    6CHTO   H89 2361   7.676   5.014   1.332
    6CHTO   O33 2362   7.565   4.840   1.360
    6CHTO   H70 2363   7.491   4.808   1.408
    6CHTO   C45 2364   7.595   5.018   1.542
    6CHTO   H87 2365   7.500   4.990   1.589
    6CHTO    N8 2366   7.703   4.941   1.609
    6CHTO   H75 2367   7.772   5.006   1.661
    6CHTO   H76 2368   7.661   4.870   1.679
    6CHTO   C43 2369   7.606   5.178   1.564
    6CHTO   H85 2370   7.592   5.194   1.671
    6CHTO   O29 2371   7.507   5.248   1.486
    6CHTO   C50 2372   7.483   5.210   1.350
    6CHTO   H92 2373   7.388   5.257   1.320
    6CHTO   C54 2374   7.586   5.272   1.251
    6CHTO   O36 2375   7.570   5.414   1.240
    6CHTO   H72 2376   7.595   5.455   1.320
    6CHTO   O27 2377   7.736   5.233   1.534
    6CHTO   C37 2378   7.811   5.341   1.594
    6CHTO   H79 2379   7.897   5.367   1.529
    6CHTO   C38 2380   7.726   5.471   1.610
    6CHTO   H80 2381   7.631   5.445   1.659
    6CHTO   O31 2382   7.698   5.520   1.477
    6CHTO   H68 2383   7.640   5.594   1.482
    6CHTO   C39 2384   7.801   5.581   1.696
    6CHTO   H81 2385   7.889   5.612   1.640
    6CHTO    N7 2386   7.719   5.705   1.721
    6CHTO   H73 2387   7.769   5.792   1.681
    6CHTO   H74 2388   7.620   5.696   1.677
    6CHTO   C40 2389   7.850   5.518   1.831
    6CHTO   H82 2390   7.763   5.490   1.891
    6CHTO   O26 2391   7.934   5.405   1.802
    6CHTO   C41 2392   7.867   5.295   1.733
    6CHTO   H83 2393   7.784   5.258   1.795
    6CHTO   C52 2394   7.970   5.182   1.717
    6CHTO   O35 2395   8.014   5.128   1.847
    6CHTO   H71 2396   8.079   5.061   1.833
    6CHTO   O28 2397   7.938   5.603   1.907
    6CHTO   C42 2398   7.936   5.610   2.053
    6CHTO   H84 2399   8.041   5.624   2.079
    6CHTO   C44 2400   7.890   5.482   2.131
    6CHTO   H86 2401   7.788   5.458   2.102
    6CHTO   O32 2402   7.976   5.374   2.091
    6CHTO   H69 2403   7.959   5.350   2.002
    6CHTO   C48 2404   7.891   5.502   2.288
    6CHTO   H90 2405   7.995   5.514   2.320
    6CHTO    N9 2406   7.840   5.381   2.362
    6CHTO   H77 2407   7.813   5.302   2.294
    6CHTO   H78 2408   7.756   5.406   2.426
    6CHTO   C51 2409   7.813   5.633   2.327
    6CHTO   H93 2410   7.708   5.619   2.299
    6CHTO   O30 2411   7.871   5.745   2.258
    6CHTO   C46 2412   7.859   5.735   2.105
    6CHTO   H88 2413   7.753   5.725   2.080
    6CHTO   C53 2414   7.914   5.866   2.045
    6CHTO   O72 2415   8.051   5.890   2.082
    6CHTO  H199 2416   8.106   5.825   2.043
    6CHTO   O22 2417   7.825   5.662   2.468
    6CHTO   C31 2418   7.738   5.755   2.542
    6CHTO   H59 2419   7.767   5.745   2.649
    6CHTO   C29 2420   7.757   5.904   2.504
    6CHTO   H57 2421   7.733   5.915   2.397
    6CHTO   O21 2422   7.897   5.935   2.519
    6CHTO   H37 2423   7.915   6.021   2.486
    6CHTO   C27 2424   7.664   6.000   2.589
    6CHTO   H55 2425   7.695   5.993   2.694
    6CHTO    N5 2426   7.673   6.142   2.545
    6CHTO   H43 2427   7.713   6.202   2.625
    6CHTO   H44 2428   7.734   6.152   2.457
    6CHTO   C25 2429   7.516   5.948   2.583
    6CHTO   H53 2430   7.476   5.961   2.481
    6CHTO   O17 2431   7.508   5.806   2.618
    6CHTO   C32 2432   7.586   5.718   2.536
    6CHTO   H60 2433   7.552   5.727   2.432
    6CHTO   C36 2434   7.559   5.572   2.581
    6CHTO   O25 2435   7.591   5.551   2.720
    6CHTO   H40 2436   7.569   5.463   2.744
    6CHTO   O15 2437   7.425   6.025   2.685
    6CHTO   C19 2438   7.311   6.114   2.703
    6CHTO   H47 2439   7.286   6.101   2.810
    6CHTO   C20 2440   7.341   6.264   2.677
    6CHTO   H48 2441   7.379   6.281   2.575
    6CHTO   O19 2442   7.445   6.301   2.770
    6CHTO   H35 2443   7.474   6.389   2.753
    6CHTO   C21 2444   7.213   6.355   2.698
    6CHTO   H49 2445   7.184   6.351   2.803
    6CHTO    N4 2446   7.235   6.498   2.664
    6CHTO   H41 2447   7.314   6.538   2.726
    6CHTO   H42 2448   7.145   6.555   2.682
    6CHTO   C22 2449   7.095   6.293   2.617
    6CHTO   H50 2450   7.117   6.301   2.510
    6CHTO   O14 2451   7.075   6.156   2.653
    6CHTO   C23 2452   7.185   6.069   2.624
    6CHTO   H51 2453   7.202   6.071   2.515
    6CHTO   C34 2454   7.142   5.927   2.664
    6CHTO   O23 2455   7.025   5.886   2.592
    6CHTO   H38 2456   6.951   5.936   2.621
    6CHTO   O16 2457   6.969   6.354   2.649
    6CHTO   C24 2458   6.862   6.348   2.530
    6CHTO   H52 2459   6.890   6.275   2.454
    6CHTO   C26 2460   6.856   6.489   2.466
    6CHTO   H54 2461   6.850   6.564   2.548
    6CHTO   O20 2462   6.980   6.511   2.397
    6CHTO   H36 2463   6.983   6.598   2.364
    6CHTO   C30 2464   6.732   6.509   2.373
    6CHTO   H58 2465   6.745   6.449   2.281
    6CHTO    N6 2466   6.719   6.651   2.328
    6CHTO   H45 2467   6.626   6.695   2.362
    6CHTO   H46 2468   6.802   6.711   2.362
    6CHTO   C33 2469   6.603   6.455   2.443
    6CHTO   H61 2470   6.583   6.516   2.533
    6CHTO   O18 2471   6.625   6.319   2.484
    6CHTO   C28 2472   6.724   6.304   2.587
    6CHTO   H56 2473   6.700   6.366   2.674
    6CHTO   C35 2474   6.723   6.155   2.628
    6CHTO   O24 2475   6.801   6.127   2.745
    6CHTO   H39 2476   6.892   6.138   2.726
    6CHTO    O9 2477   6.486   6.467   2.360
    6CHTO   C13 2478   6.353   6.513   2.439
    6CHTO   H26 2479   6.379   6.603   2.499
    6CHTO   C11 2480   6.299   6.394   2.531
    6CHTO   H24 2481   6.374   6.377   2.610
    6CHTO    O8 2482   6.288   6.272   2.455
    6CHTO    H3 2483   6.225   6.281   2.387
    6CHTO    C9 2484   6.167   6.442   2.597
    6CHTO   H22 2485   6.193   6.534   2.652
    6CHTO    N2 2486   6.115   6.350   2.701
    6CHTO   H10 2487   6.032   6.396   2.752
    6CHTO   H11 2488   6.085   6.257   2.656
    6CHTO    C7 2489   6.062   6.478   2.486
    6CHTO   H20 2490   5.977   6.522   2.544
    6CHTO    O4 2491   6.113   6.578   2.396
    6CHTO   C14 2492   6.243   6.562   2.336
    6CHTO   H27 2493   6.274   6.662   2.300
    6CHTO   C18 2494   6.236   6.470   2.211
    6CHTO   O13 2495   6.148   6.522   2.111
    6CHTO    H7 2496   6.059   6.519   2.141
    6CHTO    O2 2497   6.009   6.348   2.398
    6CHTO    C1 2498   5.870   6.345   2.361
    6CHTO   H14 2499   5.862   6.277   2.274
    6CHTO    C2 2500   5.804   6.484   2.320
    6CHTO   H15 2501   5.823   6.554   2.403
    6CHTO    O6 2502   5.869   6.532   2.202
    6CHTO    H1 2503   5.855   6.473   2.130
    6CHTO    C3 2504   5.646   6.471   2.296
    6CHTO   H16 2505   5.629   6.412   2.206
    6CHTO    N1 2506   5.581   6.605   2.274
    6CHTO    H8 2507   5.597   6.669   2.359
    6CHTO    H9 2508   5.622   6.651   2.185
    6CHTO    C4 2509   5.579   6.391   2.414
    6CHTO   H17 2510   5.579   6.453   2.504
    6CHTO    O1 2511   5.648   6.267   2.438
    6CHTO    C5 2512   5.787   6.275   2.473
    6CHTO   H18 2513   5.799   6.331   2.566
    6CHTO   C16 2514   5.828   6.128   2.497
    6CHTO   O11 2515   5.963   6.111   2.541
    6CHTO    H5 2516   6.022   6.136   2.472
    6CHTO    O3 2517   5.446   6.349   2.378
    6CHTO    C6 2518   5.348   6.343   2.487
    6CHTO   H19 2519   5.393   6.362   2.584
    6CHTO    C8 2520   5.237   6.451   2.463
    6CHTO   H21 2521   5.201   6.440   2.360
    6CHTO    O7 2522   5.299   6.580   2.479
    6CHTO    H2 2523   5.239   6.648   2.455
    6CHTO   C12 2524   5.115   6.432   2.562
    6CHTO   H25 2525   5.154   6.457   2.664
    6CHTO    N3 2526   5.004   6.528   2.532
    6CHTO   H12 2527   5.039   6.629   2.541
    6CHTO   H13 2528   4.966   6.510   2.432
    6CHTO   C15 2529   5.070   6.282   2.563
    6CHTO   H28 2530   5.023   6.253   2.468
    6CHTO   O10 2531   4.973   6.249   2.680
    6CHTO    H4 2532   4.939   6.161   2.671
    6CHTO    O5 2533   5.181   6.195   2.591
    6CHTO   C10 2534   5.285   6.201   2.492
    6CHTO   H23 2535   5.242   6.178   2.394
    6CHTO   C17 2536   5.388   6.092   2.524
    6CHTO   O12 2537   5.331   5.961   2.512
    6CHTO    H6 2538   5.396   5.897   2.534
    7CHTO  H203 2539   4.665   2.443   2.659
    7CHTO   O82 2540   4.722   2.435   2.585
    7CHTO  C123 2541   4.849   2.497   2.614
    7CHTO  H227 2542   4.830   2.597   2.658
    7CHTO   O77 2543   4.909   2.409   2.713
    7CHTO  C118 2544   5.034   2.457   2.766
    7CHTO  H222 2545   5.020   2.558   2.806
    7CHTO  C125 2546   5.076   2.361   0.013
    7CHTO   O84 2547   5.096   2.226   2.840
    7CHTO  H205 2548   5.120   2.173   0.043
    7CHTO  C114 2549   5.139   2.462   2.653
    7CHTO  H218 2550   5.156   2.360   2.617
    7CHTO  C116 2551   5.089   2.547   2.533
    7CHTO  H220 2552   5.092   2.655   2.562
    7CHTO   O79 2553   5.184   2.533   2.425
    7CHTO  H201 2554   5.162   2.591   2.355
    7CHTO  C120 2555   4.943   2.507   2.488
    7CHTO  H224 2556   4.951   2.407   2.439
    7CHTO   N21 2557   4.888   2.602   2.386
    7CHTO  H211 2558   4.928   2.701   2.402
    7CHTO  H212 2559   4.912   2.567   2.287
    7CHTO   O75 2560   5.258   2.515   2.715
    7CHTO  C112 2561   5.396   2.443   2.668
    7CHTO  H216 2562   5.385   2.407   2.564
    7CHTO   O73 2563   5.421   2.336   2.760
    7CHTO  C113 2564   5.544   2.265   2.739
    7CHTO  H217 2565   5.546   2.226   2.634
    7CHTO  C124 2566   5.548   2.144   2.833
    7CHTO   O83 2567   5.445   2.049   2.806
    7CHTO  H204 2568   5.462   2.006   2.724
    7CHTO  C109 2569   5.664   2.361   2.762
    7CHTO  H213 2570   5.656   2.397   2.866
    7CHTO  C110 2571   5.653   2.481   2.663
    7CHTO  H214 2572   5.668   2.443   2.561
    7CHTO   O78 2573   5.759   2.573   2.691
    7CHTO  H200 2574   5.759   2.643   2.629
    7CHTO  C111 2575   5.513   2.550   2.674
    7CHTO  H215 2576   5.507   2.600   2.771
    7CHTO   N19 2577   5.492   2.655   2.570
    7CHTO  H207 2578   5.395   2.700   2.583
    7CHTO  H208 2579   5.568   2.731   2.579
    7CHTO   O74 2580   5.791   2.291   2.745
    7CHTO  C115 2581   5.900   2.330   2.855
    7CHTO  H219 2582   5.887   2.433   0.019
    7CHTO   O76 2583   5.883   2.239   0.120
    7CHTO  C122 2584   5.984   2.263   0.221
    7CHTO  H226 2585   5.983   2.175   0.286
    7CHTO  C126 2586   5.941   2.383   0.311
    7CHTO   O85 2587   5.821   2.356   0.384
    7CHTO  H206 2588   5.800   2.430   0.437
    7CHTO  C121 2589   6.129   2.284   0.162
    7CHTO  H225 2590   6.154   2.392   0.161
    7CHTO   O81 2591   6.226   2.218   0.245
    7CHTO  H202 2592   6.313   2.240   0.217
    7CHTO  C119 2593   6.134   2.228   0.017
    7CHTO  H223 2594   6.237   2.235   2.853
    7CHTO  C117 2595   6.043   2.313   2.789
    7CHTO  H221 2596   6.023   2.266   2.693
    7CHTO   N20 2597   6.106   2.445   2.754
    7CHTO  H209 2598   6.126   2.451   2.648
    7CHTO  H210 2599   6.044   2.528   2.785
    7CHTO   O80 2600   6.109   2.074   0.013
    7CHTO  C103 2601   6.108   2.000   2.750
    7CHTO  H190 2602   6.059   2.059   2.673
    7CHTO  C101 2603   6.247   1.954   2.694
    7CHTO  H188 2604   6.299   1.896   2.771
    7CHTO   O68 2605   6.332   2.079   2.661
    7CHTO  H168 2606   6.420   2.054   2.640
    7CHTO   C99 2607   6.226   1.861   2.566
    7CHTO  H186 2608   6.174   1.920   2.487
    7CHTO   N17 2609   6.352   1.807   2.505
    7CHTO  H174 2610   6.330   1.754   2.413
    7CHTO  H175 2611   6.421   1.889   2.486
    7CHTO   C97 2612   6.128   1.745   2.602
    7CHTO  H184 2613   6.178   1.677   2.672
    7CHTO   O64 2614   6.005   1.797   2.655
    7CHTO  C104 2615   6.017   1.874   2.776
    7CHTO  H191 2616   6.059   1.815   2.857
    7CHTO  C108 2617   5.876   1.916   2.821
    7CHTO   O71 2618   5.793   1.803   2.850
    7CHTO  H171 2619   5.770   1.760   2.770
    7CHTO   O62 2620   6.080   1.675   2.485
    7CHTO   C91 2621   6.055   1.534   2.491
    7CHTO  H178 2622   6.148   1.485   2.463
    7CHTO   C92 2623   5.952   1.503   2.377
    7CHTO  H179 2624   5.986   1.551   2.283
    7CHTO   O66 2625   5.955   1.362   2.349
    7CHTO  H166 2626   5.929   1.313   2.425
    7CHTO   C93 2627   5.804   1.544   2.414
    7CHTO  H180 2628   5.737   1.484   2.350
    7CHTO   N16 2629   5.772   1.685   2.380
    7CHTO  H172 2630   5.670   1.708   2.406
    7CHTO  H173 2631   5.789   1.703   2.275
    7CHTO   C94 2632   5.772   1.513   2.566
    7CHTO  H181 2633   5.777   1.603   2.628
    7CHTO   O61 2634   5.866   1.420   2.620
    7CHTO   C95 2635   6.000   1.471   2.630
    7CHTO  H182 2636   6.003   1.546   2.708
    7CHTO  C106 2637   6.093   1.354   2.677
    7CHTO   O69 2638   6.059   1.312   2.810
    7CHTO  H169 2639   6.116   1.242   2.836
    7CHTO   O63 2640   5.631   1.447   2.577
    7CHTO   C96 2641   5.536   1.517   2.680
    7CHTO  H183 2642   5.529   1.622   2.651
    7CHTO   C98 2643   5.584   1.513   2.829
    7CHTO  H185 2644   5.687   1.551   2.838
    7CHTO   O67 2645   5.503   1.605   0.035
    7CHTO  H167 2646   5.413   1.579   0.033
    7CHTO  C102 2647   5.571   1.367   0.025
    7CHTO  H189 2648   5.562   1.383   0.133
    7CHTO   N18 2649   5.690   1.280   0.007
    7CHTO  H176 2650   5.777   1.328   0.051
    7CHTO  H177 2651   5.674   1.185   0.055
    7CHTO  C105 2652   5.440   1.297   2.845
    7CHTO  H192 2653   5.464   1.224   2.768
    7CHTO   O65 2654   5.345   1.389   2.788
    7CHTO  C100 2655   5.392   1.450   2.666
    7CHTO  H187 2656   5.398   1.370   2.591
    7CHTO  C107 2657   5.286   1.550   2.614
    7CHTO   O70 2658   5.262   1.656   2.707
    7CHTO  H170 2659   5.219   1.622   2.784
    7CHTO   O57 2660   5.380   1.222   0.107
    7CHTO   C85 2661   5.397   1.079   0.114
    7CHTO  H157 2662   5.478   1.054   0.044
    7CHTO   C83 2663   5.270   1.006   0.059
    7CHTO  H155 2664   5.252   1.043   2.828
    7CHTO   O56 2665   5.155   1.044   0.137
    7CHTO  H135 2666   5.077   1.006   0.100
    7CHTO   C81 2667   5.299   0.854   0.053
    7CHTO  H153 2668   5.384   0.839   2.856
    7CHTO   N14 2669   5.190   0.776   2.858
    7CHTO  H141 2670   5.220   0.740   2.762
    7CHTO  H142 2671   5.101   0.835   2.846
    7CHTO   C79 2672   5.339   0.797   0.195
    7CHTO  H151 2673   5.380   0.698   0.179
    7CHTO   O52 2674   5.447   0.876   0.255
    7CHTO   C86 2675   5.424   1.020   0.258
    7CHTO  H158 2676   5.335   1.033   0.325
    7CHTO   C90 2677   5.541   1.091   0.328
    7CHTO   O60 2678   5.548   1.055   0.467
    7CHTO  H138 2679   5.575   0.966   0.475
    7CHTO   O50 2680   5.231   0.788   0.291
    7CHTO   C73 2681   5.221   0.670   0.373
    7CHTO  H145 2682   5.318   0.619   0.381
    7CHTO   C74 2683   5.120   0.570   0.308
    7CHTO  H146 2684   5.153   0.552   0.205
    7CHTO   O54 2685   5.129   0.443   0.376
    7CHTO  H133 2686   5.214   0.405   0.362
    7CHTO   C75 2687   4.975   0.632   0.313
    7CHTO  H147 2688   4.976   0.729   0.260
    7CHTO   N13 2689   4.872   0.550   0.246
    7CHTO  H139 2690   4.897   0.537   0.142
    7CHTO  H140 2691   4.776   0.599   0.251
    7CHTO   C76 2692   4.941   0.662   0.467
    7CHTO  H148 2693   4.949   0.567   0.521
    7CHTO   O49 2694   5.038   0.756   0.521
    7CHTO   C77 2695   5.173   0.706   0.518
    7CHTO  H149 2696   5.179   0.616   0.580
    7CHTO   C88 2697   5.266   0.808   0.585
    7CHTO   O58 2698   5.233   0.824   0.731
    7CHTO  H136 2699   5.254   0.745   0.777
    7CHTO   O51 2700   4.800   0.730   0.486
    7CHTO   C78 2701   4.741   0.698   0.630
    7CHTO  H150 2702   4.822   0.678   0.703
    7CHTO   C80 2703   4.648   0.575   0.624
    7CHTO  H152 2704   4.568   0.594   0.549
    7CHTO   O55 2705   4.727   0.463   0.579
    7CHTO  H134 2706   4.672   0.388   0.567
    7CHTO   C84 2707   4.582   0.546   0.765
    7CHTO  H156 2708   4.663   0.518   0.834
    7CHTO   N15 2709   4.487   0.430   0.760
    7CHTO  H143 2710   4.516   0.355   0.831
    7CHTO  H144 2711   4.386   0.460   0.782
    7CHTO   C87 2712   4.514   0.673   0.821
    7CHTO  H159 2713   4.424   0.696   0.764
    7CHTO   O53 2714   4.615   0.796   0.812
    7CHTO   C82 2715   4.663   0.821   0.679
    7CHTO  H154 2716   4.580   0.843   0.613
    7CHTO   C89 2717   4.753   0.948   0.682
    7CHTO   O59 2718   4.865   0.935   0.770
    7CHTO  H137 2719   4.836   0.931   0.859
    7CHTO   O45 2720   4.468   0.645   0.982
    7CHTO   C67 2721   4.522   0.734   1.081
    7CHTO  H124 2722   4.610   0.785   1.041
    7CHTO   C65 2723   4.416   0.842   1.122
    7CHTO  H122 2724   4.320   0.791   1.123
    7CHTO   O44 2725   4.417   0.939   1.016
    7CHTO  H102 2726   4.494   0.993   1.022
    7CHTO   C63 2727   4.436   0.892   1.271
    7CHTO  H120 2728   4.387   0.822   1.338
    7CHTO   N11 2729   4.366   1.020   1.307
    7CHTO  H108 2730   4.373   1.037   1.412
    7CHTO  H109 2731   4.410   1.102   1.254
    7CHTO   C61 2732   4.589   0.888   1.306
    7CHTO  H118 2733   4.600   0.922   1.411
    7CHTO   O40 2734   4.642   0.752   1.301
    7CHTO   C68 2735   4.575   0.658   1.209
    7CHTO  H125 2736   4.490   0.610   1.262
    7CHTO   C72 2737   4.673   0.545   1.170
    7CHTO   O48 2738   4.711   0.464   1.282
    7CHTO  H105 2739   4.766   0.513   1.340
    7CHTO   O38 2740   4.665   0.972   1.216
    7CHTO   C55 2741   4.786   1.031   1.265
    7CHTO  H112 2742   4.821   0.979   1.355
    7CHTO   C56 2743   4.762   1.186   1.291
    7CHTO  H113 2744   4.708   1.225   1.203
    7CHTO   O42 2745   4.673   1.201   1.403
    7CHTO  H100 2746   4.588   1.166   1.383
    7CHTO   C57 2747   4.897   1.264   1.313
    7CHTO  H114 2748   4.936   1.233   1.409
    7CHTO   N10 2749   4.879   1.412   1.319
    7CHTO  H106 2750   4.797   1.443   1.256
    7CHTO  H107 2751   4.969   1.464   1.288
    7CHTO   C58 2752   4.999   1.224   1.202
    7CHTO  H115 2753   4.960   1.258   1.103
    7CHTO   O37 2754   5.016   1.081   1.202
    7CHTO   C59 2755   4.899   1.011   1.159
    7CHTO  H116 2756   4.867   1.048   1.061
    7CHTO   C70 2757   4.935   0.863   1.144
    7CHTO   O46 2758   5.033   0.839   1.043
    7CHTO  H103 2759   4.997   0.857   0.958
    7CHTO   O39 2760   5.148   1.291   1.228
    7CHTO   C60 2761   5.254   1.247   1.141
    7CHTO  H117 2762   5.277   1.143   1.165
    7CHTO   C62 2763   5.216   1.252   0.989
    7CHTO  H119 2764   5.133   1.180   0.974
    7CHTO   O43 2765   5.169   1.384   0.955
    7CHTO  H101 2766   5.087   1.401   0.997
    7CHTO   C66 2767   5.342   1.205   0.900
    7CHTO  H123 2768   5.375   1.108   0.936
    7CHTO   N12 2769   5.307   1.185   0.757
    7CHTO  H110 2770   5.272   1.278   0.714
    7CHTO  H111 2771   5.392   1.147   0.703
    7CHTO   C69 2772   5.458   1.306   0.922
    7CHTO  H126 2773   5.423   1.409   0.898
    7CHTO   O41 2774   5.498   1.297   1.073
    7CHTO   C64 2775   5.382   1.331   1.171
    7CHTO  H121 2776   5.357   1.439   1.164
    7CHTO   C71 2777   5.430   1.301   1.315
    7CHTO   O47 2778   5.548   1.376   1.347
    7CHTO  H104 2779   5.574   1.357   1.435
    7CHTO   O34 2780   5.587   1.275   0.831
    7CHTO   C49 2781   5.711   1.202   0.878
    7CHTO   H91 2782   5.728   1.233   0.981
    7CHTO   C47 2783   5.831   1.246   0.791
    7CHTO   H89 2784   5.922   1.207   0.842
    7CHTO   O33 2785   5.837   1.390   0.792
    7CHTO   H70 2786   5.762   1.426   0.747
    7CHTO   C45 2787   5.819   1.183   0.643
    7CHTO   H87 2788   5.722   1.214   0.601
    7CHTO    N8 2789   5.927   1.230   0.552
    7CHTO   H75 2790   5.911   1.191   0.453
    7CHTO   H76 2791   5.927   1.338   0.548
    7CHTO   C43 2792   5.813   1.023   0.655
    7CHTO   H85 2793   5.798   0.986   0.554
    7CHTO   O29 2794   5.705   0.985   0.742
    7CHTO   C50 2795   5.691   1.048   0.872
    7CHTO   H92 2796   5.587   1.028   0.903
    7CHTO   C54 2797   5.773   0.972   0.979
    7CHTO   O36 2798   5.737   1.013   1.112
    7CHTO   H72 2799   5.788   0.964   1.174
    7CHTO   O27 2800   5.938   0.966   0.699
    7CHTO   C37 2801   6.004   0.849   0.748
    7CHTO   H79 2802   5.996   0.844   0.858
    7CHTO   C38 2803   5.942   0.718   0.692
    7CHTO   H80 2804   5.945   0.722   0.582
    7CHTO   O31 2805   5.804   0.714   0.734
    7CHTO   H68 2806   5.760   0.642   0.694
    7CHTO   C39 2807   6.020   0.591   0.743
    7CHTO   H81 2808   6.001   0.585   0.850
    7CHTO    N7 2809   5.969   0.463   0.683
    7CHTO   H73 2810   5.936   0.396   0.760
    7CHTO   H74 2811   6.044   0.416   0.621
    7CHTO   C40 2812   6.176   0.608   0.725
    7CHTO   H82 2813   6.205   0.592   0.621
    7CHTO   O26 2814   6.220   0.736   0.774
    7CHTO   C41 2815   6.154   0.850   0.709
    7CHTO   H83 2816   6.165   0.842   0.600
    7CHTO   C52 2817   6.225   0.979   0.754
    7CHTO   O35 2818   6.366   0.983   0.709
    7CHTO   H71 2819   6.405   1.064   0.738
    7CHTO   O28 2820   6.249   0.514   0.807
    7CHTO   C42 2821   6.387   0.473   0.777
    7CHTO   H84 2822   6.422   0.433   0.871
    7CHTO   C44 2823   6.487   0.589   0.740
    7CHTO   H86 2824   6.445   0.646   0.657
    7CHTO   O32 2825   6.496   0.676   0.854
    7CHTO   H69 2826   6.415   0.723   0.866
    7CHTO   C48 2827   6.630   0.537   0.695
    7CHTO   H90 2828   6.679   0.492   0.782
    7CHTO    N9 2829   6.719   0.649   0.650
    7CHTO   H77 2830   6.809   0.653   0.709
    7CHTO   H78 2831   6.744   0.640   0.545
    7CHTO   C51 2832   6.609   0.426   0.586
    7CHTO   H93 2833   6.557   0.472   0.502
    7CHTO   O30 2834   6.533   0.320   0.645
    7CHTO   C46 2835   6.393   0.357   0.672
    7CHTO   H88 2836   6.345   0.388   0.579
    7CHTO   C53 2837   6.329   0.226   0.725
    7CHTO   O72 2838   6.186   0.231   0.726
    7CHTO  H199 2839   6.157   0.297   0.786
    7CHTO   O22 2840   6.730   0.362   0.542
    7CHTO   C31 2841   6.743   0.321   0.400
    7CHTO   H59 2842   6.831   0.252   0.397
    7CHTO   C29 2843   6.622   0.242   0.344
    7CHTO   H57 2844   6.531   0.301   0.365
    7CHTO   O21 2845   6.608   0.120   0.419
    7CHTO   H37 2846   6.680   0.062   0.401
    7CHTO   C27 2847   6.630   0.217   0.188
    7CHTO   H55 2848   6.714   0.149   0.167
    7CHTO    N5 2849   6.506   0.158   0.132
    7CHTO   H43 2850   6.518   0.140   0.026
    7CHTO   H44 2851   6.484   0.065   0.182
    7CHTO   C25 2852   6.663   0.354   0.119
    7CHTO   H53 2853   6.583   0.426   0.144
    7CHTO   O17 2854   6.789   0.405   0.172
    7CHTO   C32 2855   6.781   0.443   0.310
    7CHTO   H60 2856   6.705   0.520   0.322
    7CHTO   C36 2857   6.918   0.501   0.350
    7CHTO   O25 2858   6.948   0.620   0.277
    7CHTO   H40 2859   7.032   0.652   0.302
    7CHTO   O15 2860   6.678   0.344   2.831
    7CHTO   C19 2861   6.654   0.458   2.743
    7CHTO   H47 2862   6.663   0.415   2.642
    7CHTO   C20 2863   6.512   0.521   2.758
    7CHTO   H48 2864   6.494   0.559   2.860
    7CHTO   O19 2865   6.416   0.416   2.732
    7CHTO   H35 2866   6.418   0.353   2.802
    7CHTO   C21 2867   6.490   0.641   2.657
    7CHTO   H49 2868   6.490   0.602   2.556
    7CHTO    N4 2869   6.359   0.709   2.677
    7CHTO   H41 2870   6.348   0.789   2.605
    7CHTO   H42 2871   6.353   0.751   2.777
    7CHTO   C22 2872   6.610   0.740   2.668
    7CHTO   H50 2873   6.607   0.790   2.765
    7CHTO   O14 2874   6.735   0.670   2.653
    7CHTO   C23 2875   6.761   0.569   2.752
    7CHTO   H51 2876   6.761   0.618   2.851
    7CHTO   C34 2877   6.902   0.513   2.728
    7CHTO   O23 2878   7.003   0.612   2.751
    7CHTO   H38 2879   7.010   0.629   2.843
    7CHTO   O16 2880   6.613   0.834   2.559
    7CHTO   C24 2881   6.610   0.992   2.602
    7CHTO   H52 2882   6.585   1.005   2.707
    7CHTO   C26 2883   6.506   1.064   2.513
    7CHTO   H54 2884   6.525   1.035   2.407
    7CHTO   O20 2885   6.375   1.016   2.549
    7CHTO   H36 2886   6.366   0.925   2.526
    7CHTO   C30 2887   6.515   1.219   2.525
    7CHTO   H58 2888   6.479   1.251   2.624
    7CHTO    N6 2889   6.426   1.287   2.425
    7CHTO   H45 2890   6.323   1.260   2.443
    7CHTO   H46 2891   6.454   1.258   2.325
    7CHTO   C33 2892   6.663   1.267   2.513
    7CHTO   H61 2893   6.701   1.247   2.412
    7CHTO   O18 2894   6.743   1.194   2.608
    7CHTO   C28 2895   6.751   1.053   2.581
    7CHTO   H56 2896   6.784   1.035   2.479
    7CHTO   C35 2897   6.855   0.992   2.678
    7CHTO   O24 2898   6.986   1.043   2.657
    7CHTO   H39 2899   7.046   1.004   2.717
    7CHTO    O9 2900   6.677   1.410   2.532
    7CHTO   C13 2901   6.812   1.472   2.467
    7CHTO   H26 2902   6.819   1.437   2.362
    7CHTO   C11 2903   6.939   1.429   2.551
    7CHTO   H24 2904   6.952   1.320   2.539
    7CHTO    O8 2905   6.918   1.454   2.692
    7CHTO    H3 2906   6.847   1.401   2.724
    7CHTO    C9 2907   7.064   1.499   2.492
    7CHTO   H22 2908   7.066   1.470   2.386
    7CHTO    N2 2909   7.193   1.449   2.547
    7CHTO   H10 2910   7.201   1.476   2.651
    7CHTO   H11 2911   7.275   1.491   2.491
    7CHTO    C7 2912   7.046   1.654   2.502
    7CHTO   H20 2913   7.133   1.694   2.445
    7CHTO    O4 2914   6.925   1.700   2.437
    7CHTO   C14 2915   6.800   1.631   2.458
    7CHTO   H27 2916   6.738   1.654   2.368
    7CHTO   C18 2917   6.726   1.692   2.579
    7CHTO   O13 2918   6.700   1.832   2.560
    7CHTO    H7 2919   6.636   1.843   2.492
    7CHTO    O2 2920   7.050   1.710   2.660
    7CHTO    C1 2921   7.066   1.851   2.680
    7CHTO   H14 2922   6.990   1.906   2.619
    7CHTO    C2 2923   7.211   1.908   2.643
    7CHTO   H15 2924   7.282   1.841   2.692
    7CHTO    O6 2925   7.230   1.903   2.501
    7CHTO    H1 2926   7.318   1.925   2.479
    7CHTO    C3 2927   7.232   2.059   2.695
    7CHTO   H16 2928   7.174   2.127   2.630
    7CHTO    N1 2929   7.375   2.102   2.684
    7CHTO    H8 2930   7.438   2.038   2.746
    7CHTO    H9 2931   7.387   2.204   2.716
    7CHTO    C4 2932   7.175   2.080   2.841
    7CHTO   H17 2933   7.242   2.034   0.043
    7CHTO    O1 2934   7.043   2.025   2.852
    7CHTO    C5 2935   7.036   1.883   2.829
    7CHTO   H18 2936   7.112   1.832   0.019
    7CHTO   C16 2937   6.896   1.835   0.004
    7CHTO   O11 2938   6.878   1.853   0.145
    7CHTO    H5 2939   6.792   1.824   0.169
    7CHTO    O3 2940   7.154   2.220   2.869
    7CHTO    C6 2941   7.212   2.275   0.122
    7CHTO   H19 2942   7.285   2.208   0.169
    7CHTO    C8 2943   7.285   2.409   0.087
    7CHTO   H21 2944   7.218   2.470   0.027
    7CHTO    O7 2945   7.401   2.376   0.008
    7CHTO    H2 2946   7.462   2.326   0.059
    7CHTO   C12 2947   7.325   2.492   0.217
    7CHTO   H25 2948   7.407   2.436   0.266
    7CHTO    N3 2949   7.381   2.626   0.181
    7CHTO   H12 2950   7.307   2.685   0.129
    7CHTO   H13 2951   7.413   2.678   0.271
    7CHTO   C15 2952   7.203   2.499   0.316
    7CHTO   H28 2953   7.123   2.562   0.276
    7CHTO   O10 2954   7.243   2.547   0.456
    7CHTO    H4 2955   7.272   2.636   0.451
    7CHTO    O5 2956   7.154   2.367   0.344
    7CHTO   C10 2957   7.101   2.301   0.228
    7CHTO   H23 2958   7.022   2.363   0.184
    7CHTO   C17 2959   7.035   2.171   0.276
    7CHTO   O12 2960   6.924   2.195   0.362
    7CHTO    H6 2961   6.852   2.231   0.312
    8CHTO  H203 2962   6.769   9.264   2.344
    8CHTO   O82 2963   6.851   9.229   2.316
    8CHTO  C123 2964   6.834   9.141   2.204
    8CHTO  H227 2965   6.934   9.107   2.170
    8CHTO   O77 2966   6.759   9.029   2.259
    8CHTO  C118 2967   6.735   8.921   2.167
    8CHTO  H222 2968   6.831   8.883   2.127
    8CHTO  C125 2969   6.663   8.805   2.245
    8CHTO   O84 2970   6.746   8.752   2.349
    8CHTO  H205 2971   6.819   8.706   2.311
    8CHTO  C114 2972   6.648   8.973   2.052
    8CHTO  H218 2973   6.555   9.012   2.093
    8CHTO  C116 2974   6.717   9.093   1.980
    8CHTO  H220 2975   6.809   9.057   1.928
    8CHTO   O79 2976   6.629   9.142   1.877
    8CHTO  H201 2977   6.671   9.209   1.826
    8CHTO  C120 2978   6.754   9.206   2.085
    8CHTO  H224 2979   6.657   9.247   2.122
    8CHTO   N21 2980   6.827   9.320   2.022
    8CHTO  H211 2981   6.888   9.286   1.940
    8CHTO  H212 2982   6.887   9.372   2.095
    8CHTO   O75 2983   6.623   8.860   1.966
    8CHTO  C112 2984   6.470   8.862   1.910
    8CHTO  H216 2985   6.451   8.960   1.864
    8CHTO   O73 2986   6.383   8.839   2.022
    8CHTO  C113 2987   6.246   8.865   1.992
    8CHTO  H217 2988   6.236   8.970   1.957
    8CHTO  C124 2989   6.167   8.853   2.123
    8CHTO   O83 2990   6.174   8.724   2.183
    8CHTO  H204 2991   6.123   8.723   2.262
    8CHTO  C109 2992   6.194   8.770   1.880
    8CHTO  H213 2993   6.185   8.670   1.925
    8CHTO  C110 2994   6.292   8.766   1.758
    8CHTO  H214 2995   6.281   8.860   1.704
    8CHTO   O78 2996   6.249   8.661   1.669
    8CHTO  H200 2997   6.167   8.683   1.630
    8CHTO  C111 2998   6.440   8.750   1.804
    8CHTO  H215 2999   6.451   8.652   1.852
    8CHTO   N19 3000   6.538   8.755   1.692
    8CHTO  H207 3001   6.529   8.849   1.639
    8CHTO  H208 3002   6.521   8.673   1.624
    8CHTO   O74 3003   6.062   8.814   1.837
    8CHTO  C115 3004   5.948   8.709   1.835
    8CHTO  H219 3005   5.983   8.611   1.800
    8CHTO   O76 3006   5.887   8.683   1.984
    8CHTO  C122 3007   5.822   8.798   2.040
    8CHTO  H226 3008   5.897   8.876   2.056
    8CHTO  C126 3009   5.767   8.761   2.183
    8CHTO   O85 3010   5.675   8.652   2.180
    8CHTO  H206 3011   5.597   8.677   2.136
    8CHTO  C121 3012   5.709   8.855   1.945
    8CHTO  H225 3013   5.633   8.776   1.932
    8CHTO   O81 3014   5.644   8.968   2.004
    8CHTO  H202 3015   5.704   9.038   2.018
    8CHTO  C119 3016   5.773   8.888   1.806
    8CHTO  H223 3017   5.694   8.926   1.741
    8CHTO  C117 3018   5.837   8.762   1.736
    8CHTO  H221 3019   5.892   8.783   1.644
    8CHTO   N20 3020   5.738   8.656   1.699
    8CHTO  H209 3021   5.789   8.574   1.649
    8CHTO  H210 3022   5.687   8.620   1.787
    8CHTO   O80 3023   5.877   9.010   1.806
    8CHTO  C103 3024   5.831   9.149   1.835
    8CHTO  H190 3025   5.724   9.154   1.854
    8CHTO  C101 3026   5.908   9.222   1.953
    8CHTO  H188 3027   6.016   9.209   1.937
    8CHTO   O68 3028   5.871   9.152   2.088
    8CHTO  H168 3029   5.780   9.166   2.107
    8CHTO   C99 3030   5.876   9.378   1.953
    8CHTO  H186 3031   5.767   9.391   1.969
    8CHTO   N17 3032   5.945   9.456   2.062
    8CHTO  H174 3033   6.002   9.538   2.021
    8CHTO  H175 3034   5.873   9.491   2.134
    8CHTO   C97 3035   5.904   9.436   1.812
    8CHTO  H184 3036   6.012   9.425   1.791
    8CHTO   O64 3037   5.824   9.366   1.715
    8CHTO  C104 3038   5.858   9.227   1.700
    8CHTO  H191 3039   5.963   9.217   1.673
    8CHTO  C108 3040   5.778   9.170   1.582
    8CHTO   O71 3041   5.636   9.179   1.601
    8CHTO  H171 3042   5.609   9.269   1.600
    8CHTO   O62 3043   5.861   9.572   1.795
    8CHTO   C91 3044   5.940   9.658   1.710
    8CHTO  H178 3045   6.043   9.621   1.706
    8CHTO   C92 3046   5.946   9.796   1.784
    8CHTO  H179 3047   5.845   9.821   1.820
    8CHTO   O66 3048   6.027   9.778   1.902
    8CHTO  H166 3049   5.983   9.722   1.963
    8CHTO   C93 3050   6.002   9.913   1.694
    8CHTO  H180 3051   6.108   9.892   1.673
    8CHTO   N16 3052   5.999   0.045   1.761
    8CHTO  H172 3053   5.898   0.072   1.786
    8CHTO  H173 3054   6.044   0.120   1.698
    8CHTO   C94 3055   5.923   9.914   1.558
    8CHTO  H181 3056   5.815   9.924   1.574
    8CHTO   O61 3057   5.945   9.788   1.493
    8CHTO   C95 3058   5.887   9.676   1.561
    8CHTO  H182 3059   5.779   9.687   1.563
    8CHTO  C106 3060   5.919   9.549   1.474
    8CHTO   O69 3061   5.852   9.555   1.347
    8CHTO  H169 3062   5.888   9.624   1.295
    8CHTO   O63 3063   5.974   0.033   1.456
    8CHTO   C96 3064   5.892   0.035   1.318
    8CHTO  H183 3065   5.822   9.951   1.318
    8CHTO   C98 3066   5.983   0.022   1.193
    8CHTO  H185 3067   6.062   0.099   1.196
    8CHTO   O67 3068   6.051   9.896   1.202
    8CHTO  H167 3069   6.114   9.897   1.271
    8CHTO  C102 3070   5.899   0.033   1.056
    8CHTO  H189 3071   5.838   9.942   1.051
    8CHTO   N18 3072   5.982   0.033   0.932
    8CHTO  H176 3073   6.050   0.117   0.933
    8CHTO  H177 3074   6.038   9.941   0.926
    8CHTO  C105 3075   5.802   0.154   1.061
    8CHTO  H192 3076   5.859   0.247   1.048
    8CHTO   O65 3077   5.729   0.164   1.185
    8CHTO  C100 3078   5.808   0.168   1.305
    8CHTO  H187 3079   5.876   0.254   1.299
    8CHTO  C107 3080   5.710   0.192   1.422
    8CHTO   O70 3081   5.778   0.223   1.544
    8CHTO  H170 3082   5.826   0.148   1.574
    8CHTO   O57 3083   5.696   0.135   0.940
    8CHTO   C85 3084   5.671   0.243   0.849
    8CHTO  H157 3085   5.770   0.285   0.824
    8CHTO   C83 3086   5.592   0.358   0.920
    8CHTO  H155 3087   5.656   0.400   0.998
    8CHTO   O56 3088   5.476   0.304   0.986
    8CHTO  H135 3089   5.502   0.246   1.055
    8CHTO   C81 3090   5.560   0.470   0.816
    8CHTO  H153 3091   5.654   0.504   0.773
    8CHTO   N14 3092   5.501   0.592   0.877
    8CHTO  H141 3093   5.490   0.668   0.803
    8CHTO  H142 3094   5.565   0.628   0.955
    8CHTO   C79 3095   5.471   0.411   0.700
    8CHTO  H151 3096   5.458   0.491   0.626
    8CHTO   O52 3097   5.544   0.304   0.632
    8CHTO   C86 3098   5.593   0.197   0.720
    8CHTO  H158 3099   5.502   0.140   0.748
    8CHTO   C90 3100   5.680   0.099   0.637
    8CHTO   O60 3101   5.604   0.035   0.534
    8CHTO  H138 3102   5.543   9.974   0.572
    8CHTO   O50 3103   5.341   0.367   0.742
    8CHTO   C73 3104   5.202   0.342   0.715
    8CHTO  H145 3105   5.179   0.363   0.610
    8CHTO   C74 3106   5.111   0.432   0.804
    8CHTO  H146 3107   5.136   0.537   0.781
    8CHTO   O54 3108   4.974   0.414   0.765
    8CHTO  H133 3109   4.960   0.449   0.679
    8CHTO   C75 3110   5.139   0.398   0.956
    8CHTO  H147 3111   5.242   0.428   0.979
    8CHTO   N13 3112   5.056   0.474   1.053
    8CHTO  H139 3113   4.990   0.543   1.002
    8CHTO  H140 3114   5.118   0.530   1.121
    8CHTO   C76 3115   5.129   0.240   0.982
    8CHTO  H148 3116   5.024   0.211   0.984
    8CHTO   O49 3117   5.201   0.160   0.882
    8CHTO   C77 3118   5.168   0.192   0.745
    8CHTO  H149 3119   5.061   0.176   0.728
    8CHTO   C88 3120   5.241   0.094   0.652
    8CHTO   O58 3121   5.211   0.122   0.509
    8CHTO  H136 3122   5.265   0.068   0.455
    8CHTO   O51 3123   5.205   0.209   1.117
    8CHTO   C78 3124   5.171   0.075   1.186
    8CHTO  H150 3125   5.141   9.998   1.112
    8CHTO   C80 3126   5.056   0.094   1.288
    8CHTO  H152 3127   5.079   0.184   1.350
    8CHTO   O55 3128   4.937   0.122   1.212
    8CHTO  H134 3129   4.865   0.141   1.270
    8CHTO   C84 3130   5.039   9.969   1.383
    8CHTO  H156 3131   5.010   9.884   1.321
    8CHTO   N15 3132   4.930   9.986   1.485
    8CHTO  H143 3133   4.969   9.982   1.585
    8CHTO  H144 3134   4.879   0.079   1.472
    8CHTO   C87 3135   5.177   9.939   1.446
    8CHTO  H159 3136   5.208   0.025   1.506
    8CHTO   O53 3137   5.275   9.911   1.334
    8CHTO   C82 3138   5.301   0.026   1.254
    8CHTO  H154 3139   5.344   0.106   1.315
    8CHTO   C89 3140   5.406   9.989   1.147
    8CHTO   O59 3141   5.529   9.949   1.208
    8CHTO  H137 3142   5.591   9.927   1.142
    8CHTO   O45 3143   5.177   9.809   1.535
    8CHTO   C67 3144   5.279   9.788   1.636
    8CHTO  H124 3145   5.302   9.682   1.631
    8CHTO   C65 3146   5.414   9.870   1.623
    8CHTO  H122 3147   5.395   9.958   1.562
    8CHTO   O44 3148   5.506   9.785   1.550
    8CHTO  H102 3149   5.582   9.834   1.526
    8CHTO   C63 3150   5.465   9.930   1.760
    8CHTO  H120 3151   5.397   0.010   1.789
    8CHTO   N11 3152   5.595   0.003   1.757
    8CHTO  H108 3153   5.613   0.050   1.852
    8CHTO  H109 3154   5.675   9.934   1.735
    8CHTO   C61 3155   5.452   9.820   1.872
    8CHTO  H118 3156   5.475   9.871   1.967
    8CHTO   O40 3157   5.315   9.771   1.883
    8CHTO   C68 3158   5.217   9.809   1.781
    8CHTO  H125 3159   5.191   9.916   1.795
    8CHTO   C72 3160   5.087   9.728   1.804
    8CHTO   O48 3161   5.104   9.586   1.792
    8CHTO  H105 3162   5.157   9.554   1.863
    8CHTO   O38 3163   5.548   9.713   1.852
    8CHTO   C55 3164   5.535   9.581   1.910
    8CHTO  H112 3165   5.639   9.548   1.922
    8CHTO   C56 3166   5.455   9.488   1.808
    8CHTO  H113 3167   5.371   9.548   1.770
    8CHTO   O42 3168   5.540   9.463   1.694
    8CHTO  H100 3169   5.493   9.416   1.628
    8CHTO   C57 3170   5.401   9.356   1.874
    8CHTO  H114 3171   5.487   9.293   1.901
    8CHTO   N10 3172   5.314   9.278   1.782
    8CHTO  H106 3173   5.374   9.210   1.723
    8CHTO  H107 3174   5.241   9.221   1.838
    8CHTO   C58 3175   5.328   9.399   2.002
    8CHTO  H115 3176   5.258   9.482   1.977
    8CHTO   O37 3177   5.428   9.449   2.093
    8CHTO   C59 3178   5.476   9.580   2.057
    8CHTO  H116 3179   5.396   9.652   2.070
    8CHTO   C70 3180   5.585   9.615   2.159
    8CHTO   O46 3181   5.642   9.745   2.141
    8CHTO  H103 3182   5.578   9.811   2.159
    8CHTO   O39 3183   5.244   9.278   2.079
    8CHTO   C60 3184   5.105   9.311   2.096
    8CHTO  H117 3185   5.084   9.411   2.057
    8CHTO   C62 3186   5.012   9.213   2.019
    8CHTO  H119 3187   5.045   9.218   1.913
    8CHTO   O43 3188   5.033   9.079   2.067
    8CHTO  H101 3189   4.982   9.019   2.016
    8CHTO   C66 3190   4.861   9.266   2.031
    8CHTO  H123 3191   4.857   9.369   1.996
    8CHTO   N12 3192   4.768   9.190   1.942
    8CHTO  H110 3193   4.800   9.199   1.840
    8CHTO  H111 3194   4.668   9.227   1.955
    8CHTO   C69 3195   4.817   9.264   2.179
    8CHTO  H126 3196   4.817   9.160   2.218
    8CHTO   O41 3197   4.917   9.353   2.266
    8CHTO   C64 3198   5.068   9.315   2.247
    8CHTO  H121 3199   5.087   9.215   2.291
    8CHTO   C71 3200   5.155   9.417   2.324
    8CHTO   O47 3201   5.139   9.551   2.274
    8CHTO  H104 3202   5.193   9.610   2.323
    8CHTO   O34 3203   4.669   9.323   2.196
    8CHTO   C49 3204   4.603   9.462   2.205
    8CHTO   H91 3205   4.609   9.494   2.309
    8CHTO   C47 3206   4.455   9.448   2.163
    8CHTO   H89 3207   4.406   9.546   2.183
    8CHTO   O33 3208   4.393   9.348   2.247
    8CHTO   H70 3209   4.388   9.379   2.336
    8CHTO   C45 3210   4.447   9.412   2.006
    8CHTO   H87 3211   4.507   9.322   1.989
    8CHTO    N8 3212   4.308   9.385   1.959
    8CHTO   H75 3213   4.236   9.405   2.036
    8CHTO   H76 3214   4.285   9.444   1.871
    8CHTO   C43 3215   4.521   9.528   1.922
    8CHTO   H85 3216   4.523   9.493   1.818
    8CHTO   O29 3217   4.654   9.550   1.973
    8CHTO   C50 3218   4.673   9.567   2.115
    8CHTO   H92 3219   4.781   9.557   2.134
    8CHTO   C54 3220   4.643   9.712   2.161
    8CHTO   O36 3221   4.727   9.807   2.095
    8CHTO   H72 3222   4.703   9.813   2.004
    8CHTO   O27 3223   4.448   9.652   1.920
    8CHTO   C37 3224   4.353   9.746   1.867
    8CHTO   H79 3225   4.252   9.703   1.868
    8CHTO   C38 3226   4.349   9.874   1.957
    8CHTO   H80 3227   4.453   9.904   1.978
    8CHTO   O31 3228   4.286   9.835   2.079
    8CHTO   H68 3229   4.288   9.906   2.141
    8CHTO   C39 3230   4.273   9.995   1.889
    8CHTO   H81 3231   4.167   9.970   1.886
    8CHTO    N7 3232   4.285   0.123   1.968
    8CHTO   H73 3233   4.389   0.152   1.976
    8CHTO   H74 3234   4.228   0.202   1.919
    8CHTO   C40 3235   4.321   0.014   1.739
    8CHTO   H82 3236   4.425   0.047   1.738
    8CHTO   O26 3237   4.304   9.888   1.672
    8CHTO   C41 3238   4.391   9.783   1.722
    8CHTO   H83 3239   4.496   9.816   1.717
    8CHTO   C52 3240   4.374   9.662   1.627
    8CHTO   O35 3241   4.419   9.693   1.495
    8CHTO   H71 3242   4.512   9.702   1.494
    8CHTO   O28 3243   4.243   0.112   1.668
    8CHTO   C42 3244   4.230   0.123   1.521
    8CHTO   H84 3245   4.186   0.222   1.507
    8CHTO   C44 3246   4.131   0.021   1.455
    8CHTO   H86 3247   4.168   9.920   1.470
    8CHTO   O32 3248   4.005   0.034   1.524
    8CHTO   H69 3249   3.969   0.120   1.511
    8CHTO   C48 3250   4.114   0.045   1.299
    8CHTO   H90 3251   4.062   0.139   1.288
    8CHTO    N9 3252   4.027   9.941   1.234
    8CHTO   H77 3253   4.069   9.843   1.248
    8CHTO   H78 3254   3.927   9.946   1.275
    8CHTO   C51 3255   4.255   0.056   1.228
    8CHTO   H93 3256   4.302   9.957   1.229
    8CHTO   O30 3257   4.335   0.154   1.296
    8CHTO   C46 3258   4.364   0.120   1.442
    8CHTO   H88 3259   4.408   0.021   1.448
    8CHTO   C53 3260   4.465   0.226   1.495
    8CHTO   O72 3261   4.590   0.214   1.426
    8CHTO  H199 3262   4.650   0.277   1.459
    8CHTO   O22 3263   4.241   0.105   1.093
    8CHTO   C31 3264   4.342   0.081   0.987
    8CHTO   H59 3265   4.312   0.147   0.903
    8CHTO   C29 3266   4.487   0.120   1.026
    8CHTO   H57 3267   4.515   0.060   1.114
    8CHTO   O21 3268   4.486   0.258   1.066
    8CHTO   H37 3269   4.570   0.282   1.100
    8CHTO   C27 3270   4.589   0.090   0.909
    8CHTO   H55 3271   4.565   0.155   0.824
    8CHTO    N5 3272   4.730   0.116   0.949
    8CHTO   H43 3273   4.796   0.098   0.865
    8CHTO   H44 3274   4.741   0.218   0.983
    8CHTO   C25 3275   4.570   9.943   0.859
    8CHTO   H53 3276   4.597   9.873   0.940
    8CHTO   O17 3277   4.431   9.919   0.822
    8CHTO   C32 3278   4.337   9.936   0.931
    8CHTO   H60 3279   4.362   9.866   1.011
    8CHTO   C36 3280   4.196   9.901   0.878
    8CHTO   O25 3281   4.186   9.763   0.839
    8CHTO   H40 3282   4.188   9.708   0.916
    8CHTO   O15 3283   4.658   9.914   0.737
    8CHTO   C19 3284   4.713   9.915   0.603
    8CHTO   H47 3285   4.652   9.841   0.548
    8CHTO   C20 3286   4.706   0.052   0.530
    8CHTO   H48 3287   4.766   0.129   0.582
    8CHTO   O19 3288   4.569   0.095   0.531
    8CHTO   H35 3289   4.515   0.036   0.482
    8CHTO   C21 3290   4.761   0.040   0.381
    8CHTO   H49 3291   4.691   9.978   0.324
    8CHTO    N4 3292   4.768   0.170   0.310
    8CHTO   H41 3293   4.834   0.238   0.363
    8CHTO   H42 3294   4.670   0.215   0.304
    8CHTO   C22 3295   4.897   9.965   0.378
    8CHTO   H50 3296   4.977   0.032   0.412
    8CHTO   O14 3297   4.896   9.846   0.459
    8CHTO   C23 3298   4.859   9.865   0.597
    8CHTO   H51 3299   4.930   9.937   0.641
    8CHTO   C34 3300   4.876   9.732   0.672
    8CHTO   O23 3301   5.013   9.696   0.686
    8CHTO   H38 3302   5.056   9.753   0.747
    8CHTO   O16 3303   4.924   9.919   0.243
    8CHTO   C24 3304   5.067   9.847   0.221
    8CHTO   H52 3305   5.121   9.832   0.315
    8CHTO   C26 3306   5.152   9.931   0.124
    8CHTO   H54 3307   5.091   9.952   0.033
    8CHTO   O20 3308   5.181   0.058   0.185
    8CHTO   H36 3309   5.235   0.046   0.261
    8CHTO   C30 3310   5.283   9.856   0.079
    8CHTO   H58 3311   5.356   9.859   0.162
    8CHTO    N6 3312   5.349   9.926   2.835
    8CHTO   H45 3313   5.439   9.873   2.807
    8CHTO   H46 3314   5.375   0.027   2.863
    8CHTO   C33 3315   5.259   9.705   0.048
    8CHTO   H61 3316   5.211   9.694   2.820
    8CHTO   O18 3317   5.174   9.646   0.148
    8CHTO   C28 3318   5.045   9.707   0.159
    8CHTO   H56 3319   4.999   9.718   0.060
    8CHTO   C35 3320   4.954   9.616   0.244
    8CHTO   O24 3321   4.929   9.491   0.179
    8CHTO   H39 3322   4.873   9.505   0.105
    8CHTO    O9 3323   5.385   9.634   0.037
    8CHTO   C13 3324   5.370   9.470   0.013
    8CHTO   H26 3325   5.280   9.453   2.820
    8CHTO   C11 3326   5.359   9.396   0.154
    8CHTO   H24 3327   5.255   9.404   0.189
    8CHTO    O8 3328   5.443   9.460   0.252
    8CHTO    H3 3329   5.533   9.455   0.226
    8CHTO    C9 3330   5.393   9.245   0.135
    8CHTO   H22 3331   5.327   9.210   0.054
    8CHTO    N2 3332   5.358   9.159   0.251
    8CHTO   H10 3333   5.330   9.219   0.337
    8CHTO   H11 3334   5.279   9.091   0.226
    8CHTO    C7 3335   5.543   9.231   0.085
    8CHTO   H20 3336   5.539   9.144   0.016
    8CHTO    O4 3337   5.589   9.347   0.013
    8CHTO   C14 3338   5.493   9.413   2.799
    8CHTO   H27 3339   5.453   9.337   2.727
    8CHTO   C18 3340   5.564   9.522   2.715
    8CHTO   O13 3341   5.664   9.465   2.629
    8CHTO    H7 3342   5.624   9.413   2.563
    8CHTO    O2 3343   5.654   9.199   0.205
    8CHTO    C1 3344   5.767   9.121   0.160
    8CHTO   H14 3345   5.764   9.111   0.049
    8CHTO    C2 3346   5.770   8.976   0.224
    8CHTO   H15 3347   5.764   8.990   0.333
    8CHTO    O6 3348   5.654   8.903   0.179
    8CHTO    H1 3349   5.657   8.891   0.086
    8CHTO    C3 3350   5.907   8.899   0.185
    8CHTO   H16 3351   5.905   8.876   0.078
    8CHTO    N1 3352   5.920   8.768   0.258
    8CHTO    H8 3353   6.011   8.718   0.228
    8CHTO    H9 3354   5.921   8.785   0.364
    8CHTO    C4 3355   6.031   8.992   0.208
    8CHTO   H17 3356   6.047   9.006   0.315
    8CHTO    O1 3357   6.011   9.120   0.144
    8CHTO    C5 3358   5.899   9.195   0.194
    8CHTO   H18 3359   5.906   9.206   0.302
    8CHTO   C16 3360   5.906   9.336   0.129
    8CHTO   O11 3361   6.026   9.404   0.165
    8CHTO    H5 3362   6.024   9.428   0.255
    8CHTO    O3 3363   6.150   8.943   0.142
    8CHTO    C6 3364   6.270   8.922   0.225
    8CHTO   H19 3365   6.248   8.919   0.332
    8CHTO    C8 3366   6.336   8.785   0.186
    8CHTO   H21 3367   6.349   8.783   0.078
    8CHTO    O7 3368   6.244   8.680   0.224
    8CHTO    H2 3369   6.234   8.678   0.318
    8CHTO   C12 3370   6.477   8.767   0.255
    8CHTO   H25 3371   6.458   8.755   0.364
    8CHTO    N3 3372   6.545   8.642   0.208
    8CHTO   H12 3373   6.485   8.556   0.233
    8CHTO   H13 3374   6.643   8.633   0.254
    8CHTO   C15 3375   6.564   8.896   0.233
    8CHTO   H28 3376   6.595   8.907   0.129
    8CHTO   O10 3377   6.692   8.900   0.324
    8CHTO    H4 3378   6.668   8.888   0.414
    8CHTO    O5 3379   6.493   9.013   0.276
    8CHTO   C10 3380   6.372   9.038   0.203
    8CHTO   H23 3381   6.397   9.044   0.096
    8CHTO   C17 3382   6.320   9.176   0.245
    8CHTO   O12 3383   6.289   9.184   0.384
    8CHTO    H6 3384   6.368   9.179   0.435
    9CHTO  H203 3385   7.288   4.076   1.528
    9CHTO   O82 3386   7.364   4.068   1.583
    9CHTO  C123 3387   7.484   4.077   1.504
    9CHTO  H227 3388   7.473   4.011   1.416
    9CHTO   O77 3389   7.488   4.216   1.461
    9CHTO  C118 3390   7.596   4.249   1.373
    9CHTO  H222 3391   7.589   4.185   1.284
    9CHTO  C125 3392   7.579   4.399   1.327
    9CHTO   O84 3393   7.587   4.491   1.436
    9CHTO  H205 3394   7.674   4.492   1.471
    9CHTO  C114 3395   7.731   4.225   1.445
    9CHTO  H218 3396   7.734   4.287   1.534
    9CHTO  C116 3397   7.740   4.077   1.497
    9CHTO  H220 3398   7.745   4.007   1.411
    9CHTO   O79 3399   7.864   4.063   1.569
    9CHTO  H201 3400   7.937   4.071   1.511
    9CHTO  C120 3401   7.614   4.042   1.586
    9CHTO  H224 3402   7.620   4.107   1.675
    9CHTO   N21 3403   7.617   3.901   1.632
    9CHTO  H211 3404   7.516   3.864   1.647
    9CHTO  H212 3405   7.674   3.893   1.724
    9CHTO   O75 3406   7.836   4.267   1.356
    9CHTO  C112 3407   7.861   4.181   1.212
    9CHTO  H216 3408   7.765   4.170   1.160
    9CHTO   O73 3409   7.918   4.053   1.246
    9CHTO  C113 3410   7.929   3.963   1.136
    9CHTO  H217 3411   7.829   3.945   1.092
    9CHTO  C124 3412   7.979   3.830   1.194
    9CHTO   O83 3413   7.981   3.723   1.099
    9CHTO  H204 3414   8.014   3.645   1.141
    9CHTO  C109 3415   8.025   4.022   1.027
    9CHTO  H213 3416   8.126   4.021   1.071
    9CHTO  C110 3417   7.984   4.168   0.990
    9CHTO  H214 3418   7.891   4.164   0.932
    9CHTO   O78 3419   8.085   4.223   0.903
    9CHTO  H200 3420   8.167   4.229   0.947
    9CHTO  C111 3421   7.962   4.255   1.117
    9CHTO  H215 3422   8.058   4.263   1.170
    9CHTO   N19 3423   7.917   4.393   1.090
    9CHTO  H207 3424   7.906   4.411   0.984
    9CHTO  H208 3425   7.986   4.465   1.132
    9CHTO   O74 3426   8.023   3.937   0.909
    9CHTO  C115 3427   8.163   3.913   0.843
    9CHTO  H219 3428   8.240   3.975   0.889
    9CHTO   O76 3429   8.212   3.761   0.863
    9CHTO  C122 3430   8.128   3.665   0.797
    9CHTO  H226 3431   8.028   3.671   0.840
    9CHTO  C126 3432   8.182   3.522   0.832
    9CHTO   O85 3433   8.094   3.417   0.789
    9CHTO  H206 3434   8.092   3.413   0.696
    9CHTO  C121 3435   8.124   3.695   0.642
    9CHTO  H225 3436   8.228   3.691   0.602
    9CHTO   O81 3437   8.045   3.599   0.571
    9CHTO  H202 3438   8.054   3.611   0.478
    9CHTO  C119 3439   8.068   3.840   0.620
    9CHTO  H223 3440   8.071   3.858   0.512
    9CHTO  C117 3441   8.152   3.952   0.691
    9CHTO  H221 3442   8.105   4.051   0.693
    9CHTO   N20 3443   8.287   3.974   0.628
    9CHTO  H209 3444   8.294   4.075   0.590
    9CHTO  H210 3445   8.367   3.955   0.699
    9CHTO   O80 3446   7.912   3.851   0.649
    9CHTO  C103 3447   7.819   3.934   0.550
    9CHTO  H190 3448   7.721   3.948   0.595
    9CHTO  C101 3449   7.873   4.075   0.505
    9CHTO  H188 3450   7.977   4.064   0.474
    9CHTO   O68 3451   7.870   4.171   0.628
    9CHTO  H168 3452   7.781   4.187   0.653
    9CHTO   C99 3453   7.791   4.132   0.380
    9CHTO  H186 3454   7.686   4.152   0.412
    9CHTO   N17 3455   7.845   4.262   0.325
    9CHTO  H174 3456   7.774   4.342   0.342
    9CHTO  H175 3457   7.941   4.285   0.369
    9CHTO   C97 3458   7.781   4.023   0.270
    9CHTO  H184 3459   7.883   4.003   0.231
    9CHTO   O64 3460   7.720   3.905   0.324
    9CHTO  C104 3461   7.799   3.840   0.425
    9CHTO  H191 3462   7.896   3.812   0.384
    9CHTO  C108 3463   7.731   3.707   0.463
    9CHTO   O71 3464   7.600   3.726   0.518
    9CHTO  H171 3465   7.541   3.758   0.452
    9CHTO   O62 3466   7.694   4.061   0.161
    9CHTO   C91 3467   7.705   3.985   0.039
    9CHTO  H178 3468   7.775   3.903   0.055
    9CHTO   C92 3469   7.768   4.077   2.799
    9CHTO  H179 3470   7.865   4.115   2.835
    9CHTO   O66 3471   7.801   3.995   2.685
    9CHTO  H166 3472   7.849   4.045   2.622
    9CHTO   C93 3473   7.670   4.192   2.752
    9CHTO  H180 3474   7.683   4.204   2.643
    9CHTO   N16 3475   7.706   4.323   2.810
    9CHTO  H172 3476   7.807   4.350   2.783
    9CHTO  H173 3477   7.637   4.399   2.776
    9CHTO   C94 3478   7.520   4.153   2.782
    9CHTO  H181 3479   7.493   4.172   0.016
    9CHTO   O61 3480   7.501   4.012   2.760
    9CHTO   C95 3481   7.565   3.928   2.858
    9CHTO  H182 3482   7.498   3.918   0.074
    9CHTO  C106 3483   7.578   3.784   2.796
    9CHTO   O69 3484   7.636   3.691   0.019
    9CHTO  H169 3485   7.577   3.676   0.090
    9CHTO   O63 3486   7.424   4.235   2.686
    9CHTO   C96 3487   7.273   4.241   2.737
    9CHTO  H183 3488   7.258   4.163   2.812
    9CHTO   C98 3489   7.171   4.218   2.621
    9CHTO  H185 3490   7.199   4.280   2.534
    9CHTO   O67 3491   7.187   4.081   2.577
    9CHTO  H167 3492   7.270   4.069   2.537
    9CHTO  C102 3493   7.019   4.248   2.665
    9CHTO  H189 3494   6.994   4.175   2.742
    9CHTO   N18 3495   6.917   4.231   2.558
    9CHTO  H176 3496   6.819   4.252   2.597
    9CHTO  H177 3497   6.938   4.296   2.475
    9CHTO  C105 3498   7.017   4.390   2.727
    9CHTO  H192 3499   7.049   4.463   2.652
    9CHTO   O65 3500   7.107   4.397   2.839
    9CHTO  C100 3501   7.246   4.381   2.805
    9CHTO  H187 3502   7.275   4.461   2.735
    9CHTO  C107 3503   7.327   4.400   0.065
    9CHTO   O70 3504   7.305   4.529   0.122
    9CHTO  H170 3505   7.356   4.538   0.200
    9CHTO   O57 3506   6.866   4.427   2.782
    9CHTO   C85 3507   6.810   4.556   2.751
    9CHTO  H157 3508   6.800   4.558   2.640
    9CHTO   C83 3509   6.910   4.672   2.786
    9CHTO  H155 3510   7.000   4.660   2.727
    9CHTO   O56 3511   6.951   4.662   0.054
    9CHTO  H135 3512   6.999   4.583   0.068
    9CHTO   C81 3513   6.844   4.808   2.749
    9CHTO  H153 3514   6.815   4.803   2.643
    9CHTO   N14 3515   6.938   4.924   2.756
    9CHTO  H141 3516   7.033   4.894   2.796
    9CHTO  H142 3517   6.953   4.966   2.658
    9CHTO   C79 3518   6.714   4.830   2.834
    9CHTO  H151 3519   6.666   4.921   2.797
    9CHTO   O52 3520   6.620   4.721   2.808
    9CHTO   C86 3521   6.672   4.585   2.824
    9CHTO  H158 3522   6.682   4.571   0.064
    9CHTO   C90 3523   6.566   4.483   2.776
    9CHTO   O60 3524   6.447   4.492   2.856
    9CHTO  H138 3525   6.386   4.427   2.827
    9CHTO   O50 3526   6.737   4.844   0.105
    9CHTO   C73 3527   6.666   4.907   0.213
    9CHTO  H145 3528   6.559   4.878   0.210
    9CHTO   C74 3529   6.676   5.062   0.204
    9CHTO  H146 3530   6.634   5.092   0.106
    9CHTO   O54 3531   6.590   5.119   0.304
    9CHTO  H133 3532   6.589   5.213   0.296
    9CHTO   C75 3533   6.827   5.105   0.219
    9CHTO  H147 3534   6.884   5.062   0.136
    9CHTO   N13 3535   6.850   5.251   0.209
    9CHTO  H139 3536   6.797   5.303   0.288
    9CHTO  H140 3537   6.956   5.273   0.218
    9CHTO   C76 3538   6.888   5.044   0.354
    9CHTO  H148 3539   6.841   5.094   0.438
    9CHTO   O49 3540   6.863   4.900   0.362
    9CHTO   C77 3541   6.725   4.860   0.349
    9CHTO  H149 3542   6.666   4.902   0.431
    9CHTO   C88 3543   6.716   4.707   0.365
    9CHTO   O58 3544   6.762   4.663   0.500
    9CHTO  H136 3545   6.702   4.692   0.566
    9CHTO   O51 3546   7.048   5.056   0.355
    9CHTO   C78 3547   7.110   5.025   0.497
    9CHTO  H150 3548   7.032   4.988   0.568
    9CHTO   C80 3549   7.174   5.152   0.556
    9CHTO  H152 3550   7.250   5.191   0.483
    9CHTO   O55 3551   7.070   5.250   0.569
    9CHTO  H134 3552   7.042   5.280   0.485
    9CHTO   C84 3553   7.245   5.123   0.694
    9CHTO  H156 3554   7.167   5.096   0.766
    9CHTO   N15 3555   7.315   5.244   0.750
    9CHTO  H143 3556   7.420   5.226   0.762
    9CHTO  H144 3557   7.274   5.270   0.845
    9CHTO   C87 3558   7.341   5.001   0.682
    9CHTO  H159 3559   7.428   5.027   0.623
    9CHTO   O53 3560   7.265   4.882   0.615
    9CHTO   C82 3561   7.216   4.914   0.484
    9CHTO  H154 3562   7.298   4.946   0.420
    9CHTO   C89 3563   7.157   4.787   0.420
    9CHTO   O59 3564   7.258   4.688   0.396
    9CHTO  H137 3565   7.219   4.612   0.358
    9CHTO   O45 3566   7.391   4.951   0.832
    9CHTO   C67 3567   7.462   4.826   0.834
    9CHTO  H124 3568   7.421   4.760   0.758
    9CHTO   C65 3569   7.615   4.846   0.806
    9CHTO  H122 3570   7.639   4.946   0.843
    9CHTO   O44 3571   7.630   4.844   0.663
    9CHTO  H102 3572   7.717   4.870   0.640
    9CHTO   C63 3573   7.707   4.749   0.892
    9CHTO  H120 3574   7.712   4.789   0.994
    9CHTO   N11 3575   7.852   4.746   0.855
    9CHTO  H108 3576   7.890   4.846   0.850
    9CHTO  H109 3577   7.907   4.691   0.928
    9CHTO   C61 3578   7.638   4.607   0.906
    9CHTO  H118 3579   7.698   4.552   0.979
    9CHTO   O40 3580   7.503   4.618   0.962
    9CHTO   C68 3581   7.442   4.751   0.970
    9CHTO  H125 3582   7.492   4.808   1.052
    9CHTO   C72 3583   7.293   4.737   1.009
    9CHTO   O48 3584   7.276   4.691   1.144
    9CHTO  H105 3585   7.303   4.757   1.204
    9CHTO   O38 3586   7.640   4.535   0.780
    9CHTO   C55 3587   7.550   4.424   0.757
    9CHTO  H112 3588   7.447   4.455   0.783
    9CHTO   C56 3589   7.593   4.292   0.833
    9CHTO  H113 3590   7.697   4.270   0.803
    9CHTO   O42 3591   7.596   4.314   0.975
    9CHTO  H100 3592   7.662   4.377   0.997
    9CHTO   C57 3593   7.498   4.170   0.797
    9CHTO  H114 3594   7.405   4.189   0.851
    9CHTO   N10 3595   7.549   4.040   0.847
    9CHTO  H106 3596   7.467   3.973   0.867
    9CHTO  H107 3597   7.615   3.994   0.774
    9CHTO   C58 3598   7.466   4.163   0.645
    9CHTO  H115 3599   7.549   4.112   0.591
    9CHTO   O37 3600   7.442   4.292   0.587
    9CHTO   C59 3601   7.546   4.389   0.605
    9CHTO  H116 3602   7.641   4.348   0.572
    9CHTO   C70 3603   7.511   4.510   0.517
    9CHTO   O46 3604   7.620   4.601   0.500
    9CHTO  H103 3605   7.639   4.644   0.581
    9CHTO   O39 3606   7.322   4.086   0.620
    9CHTO   C60 3607   7.325   3.945   0.594
    9CHTO  H117 3608   7.428   3.908   0.595
    9CHTO   C62 3609   7.243   3.868   0.702
    9CHTO  H119 3610   7.291   3.891   0.800
    9CHTO   O43 3611   7.108   3.920   0.706
    9CHTO  H101 3612   7.064   3.903   0.625
    9CHTO   C66 3613   7.250   3.710   0.675
    9CHTO  H123 3614   7.355   3.680   0.670
    9CHTO   N12 3615   7.190   3.631   0.786
    9CHTO  H110 3616   7.198   3.526   0.764
    9CHTO  H111 3617   7.240   3.655   0.879
    9CHTO   C69 3618   7.185   3.679   0.538
    9CHTO  H126 3619   7.078   3.710   0.539
    9CHTO   O41 3620   7.264   3.761   0.425
    9CHTO   C64 3621   7.268   3.914   0.452
    9CHTO  H121 3622   7.165   3.956   0.446
    9CHTO   C71 3623   7.353   3.982   0.342
    9CHTO   O47 3624   7.290   3.971   0.214
    9CHTO  H104 3625   7.213   4.025   0.212
    9CHTO   O34 3626   7.190   3.520   0.505
    9CHTO   C49 3627   7.248   3.447   0.386
    9CHTO   H91 3628   7.201   3.490   0.297
    9CHTO   C47 3629   7.213   3.297   0.396
    9CHTO   H89 3630   7.245   3.254   0.297
    9CHTO   O33 3631   7.071   3.278   0.408
    9CHTO   H70 3632   7.049   3.188   0.397
    9CHTO   C45 3633   7.288   3.225   0.520
    9CHTO   H87 3634   7.221   3.226   0.606
    9CHTO    N8 3635   7.315   3.083   0.483
    9CHTO   H75 3636   7.420   3.060   0.496
    9CHTO   H76 3637   7.255   3.017   0.543
    9CHTO   C43 3638   7.415   3.313   0.566
    9CHTO   H85 3639   7.372   3.393   0.627
    9CHTO   O29 3640   7.483   3.365   0.450
    9CHTO   C50 3641   7.404   3.460   0.376
    9CHTO   H92 3642   7.432   3.561   0.412
    9CHTO   C54 3643   7.455   3.460   0.230
    9CHTO   O36 3644   7.395   3.565   0.153
    9CHTO   H72 3645   7.433   3.566   0.067
    9CHTO   O27 3646   7.504   3.244   0.655
    9CHTO   C37 3647   7.558   3.287   0.781
    9CHTO   H79 3648   7.634   3.215   0.816
    9CHTO   C38 3649   7.631   3.425   0.766
    9CHTO   H80 3650   7.567   3.492   0.707
    9CHTO   O31 3651   7.752   3.400   0.691
    9CHTO   H68 3652   7.795   3.482   0.671
    9CHTO   C39 3653   7.662   3.493   0.905
    9CHTO   H81 3654   7.737   3.433   0.956
    9CHTO    N7 3655   7.718   3.632   0.890
    9CHTO   H73 3656   7.809   3.629   0.833
    9CHTO   H74 3657   7.738   3.674   0.988
    9CHTO   C40 3658   7.531   3.492   0.991
    9CHTO   H82 3659   7.455   3.551   0.940
    9CHTO   O26 3660   7.490   3.356   1.009
    9CHTO   C41 3661   7.443   3.293   0.887
    9CHTO   H83 3662   7.357   3.349   0.847
    9CHTO   C52 3663   7.393   3.153   0.929
    9CHTO   O35 3664   7.323   3.082   0.826
    9CHTO   H71 3665   7.297   2.998   0.857
    9CHTO   O28 3666   7.546   3.539   1.127
    9CHTO   C42 3667   7.434   3.610   1.191
    9CHTO   H84 3668   7.456   3.601   1.297
    9CHTO   C44 3669   7.291   3.549   1.171
    9CHTO   H86 3670   7.273   3.535   1.064
    9CHTO   O32 3671   7.292   3.418   1.231
    9CHTO   H69 3672   7.212   3.373   1.213
    9CHTO   C48 3673   7.174   3.640   1.227
    9CHTO   H90 3674   7.180   3.640   1.336
    9CHTO    N9 3675   7.038   3.586   1.193
    9CHTO   H77 3676   7.027   3.579   1.085
    9CHTO   H78 3677   7.025   3.488   1.237
    9CHTO   C51 3678   7.195   3.788   1.176
    9CHTO   H93 3679   7.190   3.787   1.067
    9CHTO   O30 3680   7.322   3.833   1.224
    9CHTO   C46 3681   7.437   3.762   1.157
    9CHTO   H88 3682   7.429   3.775   1.049
    9CHTO   C53 3683   7.568   3.825   1.208
    9CHTO   O72 3684   7.576   3.963   1.173
    9CHTO  H199 3685   7.657   3.999   1.204
    9CHTO   O22 3686   7.099   3.881   1.231
    9CHTO   C31 3687   7.070   4.011   1.166
    9CHTO   H59 3688   6.997   4.062   1.232
    9CHTO   C29 3689   7.192   4.105   1.152
    9CHTO   H57 3690   7.266   4.057   1.085
    9CHTO   O21 3691   7.255   4.118   1.281
    9CHTO   H37 3692   7.292   4.036   1.308
    9CHTO   C27 3693   7.150   4.244   1.091
    9CHTO   H55 3694   7.078   4.292   1.159
    9CHTO    N5 3695   7.265   4.337   1.072
    9CHTO   H43 3696   7.313   4.356   1.166
    9CHTO   H44 3697   7.336   4.294   1.003
    9CHTO   C25 3698   7.075   4.218   0.955
    9CHTO   H53 3699   7.145   4.172   0.884
    9CHTO   O17 3700   6.964   4.127   0.975
    9CHTO   C32 3701   7.000   3.998   1.027
    9CHTO   H60 3702   7.069   3.949   0.957
    9CHTO   C36 3703   6.871   3.912   1.036
    9CHTO   O25 3704   6.817   3.885   0.906
    9CHTO   H40 3705   6.783   3.964   0.868
    9CHTO   O15 3706   7.018   4.353   0.893
    9CHTO   C19 3707   6.978   4.383   0.756
    9CHTO   H47 3708   6.962   4.492   0.758
    9CHTO   C20 3709   7.089   4.352   0.652
    9CHTO   H48 3710   7.124   4.247   0.660
    9CHTO   O19 3711   7.200   4.437   0.685
    9CHTO   H35 3712   7.274   4.418   0.630
    9CHTO   C21 3713   7.041   4.375   0.503
    9CHTO   H49 3714   7.024   4.482   0.489
    9CHTO    N4 3715   7.142   4.334   0.402
    9CHTO   H41 3716   7.166   4.230   0.414
    9CHTO   H42 3717   7.232   4.393   0.415
    9CHTO   C22 3718   6.905   4.304   0.483
    9CHTO   H50 3719   6.919   4.196   0.494
    9CHTO   O14 3720   6.809   4.351   0.580
    9CHTO   C23 3721   6.841   4.320   0.717
    9CHTO   H51 3722   6.842   4.210   0.726
    9CHTO   C34 3723   6.726   4.375   0.801
    9CHTO   O23 3724   6.732   4.332   0.938
    9CHTO   H38 3725   6.717   4.240   0.943
    9CHTO   O16 3726   6.846   4.335   0.355
    9CHTO   C24 3727   6.747   4.221   0.301
    9CHTO   H52 3728   6.717   4.151   0.380
    9CHTO   C26 3729   6.815   4.143   0.186
    9CHTO   H54 3730   6.850   4.216   0.110
    9CHTO   O20 3731   6.931   4.076   0.239
    9CHTO   H36 3732   6.907   4.011   0.303
    9CHTO   C30 3733   6.716   4.043   0.118
    9CHTO   H58 3734   6.692   3.962   0.187
    9CHTO    N6 3735   6.776   3.978   2.868
    9CHTO   H45 3736   6.706   3.908   2.825
    9CHTO   H46 3737   6.801   4.053   2.794
    9CHTO   C33 3738   6.580   4.114   0.084
    9CHTO   H61 3739   6.596   4.188   0.005
    9CHTO   O18 3740   6.532   4.181   0.202
    9CHTO   C28 3741   6.617   4.287   0.248
    9CHTO   H56 3742   6.643   4.355   0.167
    9CHTO   C35 3743   6.546   4.366   0.359
    9CHTO   O24 3744   6.427   4.431   0.312
    9CHTO   H39 3745   6.386   4.477   0.383
    9CHTO    O9 3746   6.481   4.022   0.032
    9CHTO   C13 3747   6.364   4.096   2.812
    9CHTO   H26 3748   6.415   4.152   2.731
    9CHTO   C11 3749   6.277   4.191   0.034
    9CHTO   H24 3750   6.341   4.275   0.065
    9CHTO    O8 3751   6.235   4.122   0.153
    9CHTO    H3 3752   6.192   4.181   0.211
    9CHTO    C9 3753   6.161   4.248   2.818
    9CHTO   H22 3754   6.208   4.296   2.732
    9CHTO    N2 3755   6.086   4.358   0.014
    9CHTO   H10 3756   5.980   4.338   0.015
    9CHTO   H11 3757   6.121   4.375   0.115
    9CHTO    C7 3758   6.072   4.130   2.767
    9CHTO   H20 3759   5.995   4.178   2.703
    9CHTO    O4 3760   6.149   4.039   2.686
    9CHTO   C14 3761   6.275   3.987   2.737
    9CHTO   H27 3762   6.332   3.954   2.647
    9CHTO   C18 3763   6.249   3.860   2.823
    9CHTO   O13 3764   6.187   3.757   2.746
    9CHTO    H7 3765   6.169   3.683   2.802
    9CHTO    O2 3766   6.002   4.045   0.020
    9CHTO    C1 3767   5.861   4.017   0.020
    9CHTO   H14 3768   5.848   3.920   0.073
    9CHTO    C2 3769   5.787   4.005   2.749
    9CHTO   H15 3770   5.799   4.102   2.698
    9CHTO    O6 3771   5.851   3.901   2.673
    9CHTO    H1 3772   5.938   3.926   2.651
    9CHTO    C3 3773   5.631   3.974   2.771
    9CHTO   H16 3774   5.623   3.873   2.812
    9CHTO    N1 3775   5.554   3.975   2.642
    9CHTO    H8 3776   5.478   4.052   2.642
    9CHTO    H9 3777   5.508   3.879   2.625
    9CHTO    C4 3778   5.568   4.070   0.010
    9CHTO   H17 3779   5.550   4.168   2.836
    9CHTO    O1 3780   5.650   4.081   0.127
    9CHTO    C5 3781   5.786   4.123   0.106
    9CHTO   H18 3782   5.787   4.217   0.052
    9CHTO   C16 3783   5.851   4.144   0.246
    9CHTO   O11 3784   5.851   4.025   0.325
    9CHTO    H5 3785   5.887   4.044   0.409
    9CHTO    O3 3786   5.447   4.013   0.065
    9CHTO    C6 3787   5.325   4.096   0.068
    9CHTO   H19 3788   5.329   4.180   2.869
    9CHTO    C8 3789   5.204   4.005   0.028
    9CHTO   H21 3790   5.210   3.913   0.086
    9CHTO    O7 3791   5.219   3.974   2.759
    9CHTO    H2 3792   5.155   3.911   2.732
    9CHTO   C12 3793   5.065   4.075   0.058
    9CHTO   H25 3794   5.054   4.157   2.853
    9CHTO    N3 3795   4.950   3.980   0.034
    9CHTO   H12 3796   4.959   3.895   0.100
    9CHTO   H13 3797   4.856   4.031   0.050
    9CHTO   C15 3798   5.063   4.138   0.201
    9CHTO   H28 3799   5.061   4.062   0.279
    9CHTO   O10 3800   4.944   4.237   0.224
    9CHTO    H4 3801   4.942   4.301   0.155
    9CHTO    O5 3802   5.177   4.224   0.220
    9CHTO   C10 3803   5.303   4.155   0.211
    9CHTO   H23 3804   5.302   4.073   0.284
    9CHTO   C17 3805   5.412   4.253   0.257
    9CHTO   O12 3806   5.421   4.366   0.169
    9CHTO    H6 3807   5.488   4.424   0.201
   10CHTO  H203 3808   4.600   6.316   2.788
   10CHTO   O82 3809   4.612   6.396   2.835
   10CHTO  C123 3810   4.493   6.477   2.828
   10CHTO  H227 3811   4.457   6.477   2.724
   10CHTO   O77 3812   4.399   6.406   0.044
   10CHTO  C118 3813   4.267   6.463   0.043
   10CHTO  H222 3814   4.231   6.469   2.810
   10CHTO  C125 3815   4.171   6.368   0.125
   10CHTO   O84 3816   4.159   6.240   0.062
   10CHTO  H205 3817   4.241   6.195   0.065
   10CHTO  C114 3818   4.271   6.604   0.105
   10CHTO  H218 3819   4.303   6.595   0.209
   10CHTO  C116 3820   4.374   6.695   0.030
   10CHTO  H220 3821   4.332   6.722   2.800
   10CHTO   O79 3822   4.388   6.818   0.103
   10CHTO  H201 3823   4.309   6.868   0.099
   10CHTO  C120 3824   4.514   6.623   0.011
   10CHTO  H224 3825   4.561   6.620   0.112
   10CHTO   N21 3826   4.606   6.702   2.794
   10CHTO  H211 3827   4.550   6.757   2.719
   10CHTO  H212 3828   4.665   6.769   2.853
   10CHTO   O75 3829   4.136   6.652   0.098
   10CHTO  C112 3830   4.089   6.748   0.221
   10CHTO  H216 3831   4.168   6.822   0.242
   10CHTO   O73 3832   4.063   6.664   0.334
   10CHTO  C113 3833   4.023   6.733   0.453
   10CHTO  H217 3834   4.102   6.805   0.482
   10CHTO  C124 3835   4.015   6.626   0.563
   10CHTO   O83 3836   3.998   6.680   0.695
   10CHTO  H204 3837   4.076   6.724   0.721
   10CHTO  C109 3838   3.887   6.806   0.428
   10CHTO  H213 3839   3.812   6.729   0.408
   10CHTO  C110 3840   3.901   6.902   0.305
   10CHTO  H214 3841   3.969   6.983   0.331
   10CHTO   O78 3842   3.773   6.961   0.276
   10CHTO  H200 3843   3.710   6.895   0.254
   10CHTO  C111 3844   3.956   6.824   0.181
   10CHTO  H215 3845   3.882   6.748   0.151
   10CHTO   N19 3846   3.978   6.912   0.062
   10CHTO  H207 3847   4.082   6.914   0.033
   10CHTO  H208 3848   3.917   6.878   2.849
   10CHTO   O74 3849   3.847   6.880   0.549
   10CHTO  C115 3850   3.685   6.902   0.566
   10CHTO  H219 3851   3.644   6.964   0.487
   10CHTO   O76 3852   3.606   6.765   0.554
   10CHTO  C122 3853   3.640   6.672   0.658
   10CHTO  H226 3854   3.743   6.640   0.639
   10CHTO  C126 3855   3.552   6.544   0.642
   10CHTO   O85 3856   3.576   6.474   0.519
   10CHTO  H206 3857   3.544   6.525   0.447
   10CHTO  C121 3858   3.628   6.734   0.804
   10CHTO  H225 3859   3.559   6.671   0.864
   10CHTO   O81 3860   3.755   6.730   0.869
   10CHTO  H202 3861   3.784   6.642   0.880
   10CHTO  C119 3862   3.573   6.880   0.801
   10CHTO  H223 3863   3.473   6.873   0.758
   10CHTO  C117 3864   3.661   6.971   0.707
   10CHTO  H221 3865   3.761   6.991   0.745
   10CHTO   N20 3866   3.598   7.107   0.691
   10CHTO  H209 3867   3.663   7.171   0.634
   10CHTO  H210 3868   3.502   7.098   0.643
   10CHTO   O80 3869   3.542   6.938   0.948
   10CHTO  C103 3870   3.395   6.932   1.005
   10CHTO  H190 3871   3.323   6.950   0.926
   10CHTO  C101 3872   3.356   6.798   1.081
   10CHTO  H188 3873   3.436   6.773   1.151
   10CHTO   O68 3874   3.342   6.683   0.978
   10CHTO  H168 3875   3.425   6.668   0.936
   10CHTO   C99 3876   3.221   6.817   1.165
   10CHTO  H186 3877   3.137   6.833   1.095
   10CHTO   N17 3878   3.184   6.697   1.248
   10CHTO  H174 3879   3.087   6.712   1.294
   10CHTO  H175 3880   3.259   6.679   1.323
   10CHTO   C97 3881   3.229   6.946   1.251
   10CHTO  H184 3882   3.307   6.933   1.328
   10CHTO   O64 3883   3.256   7.059   1.165
   10CHTO  C104 3884   3.386   7.054   1.105
   10CHTO  H191 3885   3.464   7.045   1.180
   10CHTO  C108 3886   3.411   7.187   1.032
   10CHTO   O71 3887   3.413   7.296   1.124
   10CHTO  H171 3888   3.427   7.376   1.077
   10CHTO   O62 3889   3.103   6.987   1.309
   10CHTO   C91 3890   3.090   6.978   1.453
   10CHTO  H178 3891   3.148   6.893   1.488
   10CHTO   C92 3892   2.940   6.945   1.482
   10CHTO  H179 3893   2.877   7.017   1.428
   10CHTO   O66 3894   2.910   6.816   1.425
   10CHTO  H166 3895   2.914   6.820   1.332
   10CHTO   C93 3896   2.904   6.947   1.636
   10CHTO  H180 3897   2.953   6.859   1.681
   10CHTO   N16 3898   2.759   6.932   1.663
   10CHTO  H172 3899   2.704   7.015   1.618
   10CHTO  H173 3900   2.740   6.929   1.769
   10CHTO   C94 3901   2.962   7.076   1.704
   10CHTO  H181 3902   2.916   7.167   1.664
   10CHTO   O61 3903   3.102   7.087   1.675
   10CHTO   C95 3904   3.131   7.107   1.536
   10CHTO  H182 3905   3.076   7.193   1.499
   10CHTO  C106 3906   3.284   7.141   1.523
   10CHTO   O69 3907   3.319   7.258   1.598
   10CHTO  H169 3908   3.311   7.240   1.689
   10CHTO   O63 3909   2.942   7.075   1.868
   10CHTO   C96 3910   3.035   6.977   1.954
   10CHTO  H183 3911   3.112   6.935   1.890
   10CHTO   C98 3912   2.954   6.858   2.017
   10CHTO  H185 3913   2.855   6.896   2.049
   10CHTO   O67 3914   2.926   6.764   1.911
   10CHTO  H167 3915   2.868   6.697   1.942
   10CHTO  C102 3916   3.027   6.784   2.140
   10CHTO  H189 3917   3.112   6.730   2.096
   10CHTO   N18 3918   2.945   6.682   2.210
   10CHTO  H176 3919   2.847   6.674   2.164
   10CHTO  H177 3920   2.994   6.585   2.206
   10CHTO  C105 3921   3.082   6.893   2.235
   10CHTO  H192 3922   2.998   6.952   2.274
   10CHTO   O65 3923   3.171   6.980   2.164
   10CHTO  C100 3924   3.105   7.063   2.067
   10CHTO  H187 3925   3.029   7.124   2.118
   10CHTO  C107 3926   3.213   7.160   2.011
   10CHTO   O70 3927   3.157   7.260   1.925
   10CHTO  H170 3928   3.225   7.315   1.893
   10CHTO   O57 3929   3.163   6.822   2.360
   10CHTO   C85 3930   3.109   6.841   2.492
   10CHTO  H157 3931   2.999   6.828   2.482
   10CHTO   C83 3932   3.131   6.988   2.540
   10CHTO  H155 3933   3.080   7.054   2.470
   10CHTO   O56 3934   3.271   7.022   2.533
   10CHTO  H135 3935   3.301   7.019   2.445
   10CHTO   C81 3936   3.067   7.005   2.681
   10CHTO  H153 3937   2.962   6.979   2.674
   10CHTO   N14 3938   3.066   7.147   2.727
   10CHTO  H141 3939   3.014   7.154   2.820
   10CHTO  H142 3940   3.017   7.208   2.655
   10CHTO   C79 3941   3.136   6.907   2.783
   10CHTO  H151 3942   3.081   6.915   0.007
   10CHTO   O52 3943   3.121   6.769   2.738
   10CHTO   C86 3944   3.169   6.743   2.602
   10CHTO  H158 3945   3.279   6.753   2.608
   10CHTO   C90 3946   3.141   6.596   2.563
   10CHTO   O60 3947   3.204   6.506   2.655
   10CHTO  H138 3948   3.297   6.509   2.644
   10CHTO   O50 3949   3.275   6.935   2.808
   10CHTO   C73 3950   3.362   6.898   0.046
   10CHTO  H145 3951   3.342   6.795   0.078
   10CHTO   C74 3952   3.341   6.993   0.168
   10CHTO  H146 3953   3.236   6.985   0.198
   10CHTO   O54 3954   3.419   6.942   0.279
   10CHTO  H133 3955   3.404   6.995   0.355
   10CHTO   C75 3956   3.379   7.141   0.126
   10CHTO  H147 3957   3.309   7.173   0.047
   10CHTO   N13 3958   3.363   7.240   0.234
   10CHTO  H139 3959   3.387   7.339   0.197
   10CHTO  H140 3960   3.430   7.217   0.316
   10CHTO   C76 3961   3.526   7.142   0.063
   10CHTO  H148 3962   3.598   7.122   0.143
   10CHTO   O49 3963   3.541   7.042   2.827
   10CHTO   C77 3964   3.510   6.908   2.868
   10CHTO  H149 3965   3.576   6.877   0.080
   10CHTO   C88 3966   3.538   6.811   2.752
   10CHTO   O58 3967   3.678   6.815   2.714
   10CHTO  H136 3968   3.693   6.753   2.645
   10CHTO   O51 3969   3.554   7.279   2.859
   10CHTO   C78 3970   3.707   7.301   2.834
   10CHTO  H150 3971   3.763   7.205   2.843
   10CHTO   C80 3972   3.762   7.400   0.068
   10CHTO  H152 3973   3.701   7.493   0.064
   10CHTO   O55 3974   3.746   7.341   0.199
   10CHTO  H134 3975   3.655   7.337   0.222
   10CHTO   C84 3976   3.913   7.436   0.039
   10CHTO  H156 3977   3.972   7.345   0.054
   10CHTO   N15 3978   3.968   7.540   0.134
   10CHTO  H143 3979   4.071   7.559   0.111
   10CHTO  H144 3980   3.961   7.504   0.235
   10CHTO   C87 3981   3.929   7.480   2.762
   10CHTO  H159 3982   3.878   7.576   2.746
   10CHTO   O53 3983   3.869   7.373   2.668
   10CHTO   C82 3984   3.728   7.353   2.691
   10CHTO  H154 3985   3.674   7.446   2.675
   10CHTO   C89 3986   3.675   7.252   2.587
   10CHTO   O59 3987   3.685   7.305   2.454
   10CHTO  H137 3988   3.650   7.243   2.393
   10CHTO   O45 3989   4.084   7.493   2.722
   10CHTO   C67 3990   4.106   7.587   2.616
   10CHTO  H124 3991   4.025   7.582   2.543
   10CHTO   C65 3992   4.114   7.732   2.674
   10CHTO  H122 3993   4.031   7.741   2.744
   10CHTO   O44 3994   4.095   7.827   2.567
   10CHTO  H102 3995   4.090   7.914   2.603
   10CHTO   C63 3996   4.245   7.748   2.759
   10CHTO  H120 3997   4.247   7.670   2.835
   10CHTO   N11 3998   4.251   7.873   2.842
   10CHTO  H108 3999   4.164   7.880   0.033
   10CHTO  H109 4000   4.338   7.871   0.034
   10CHTO   C61 4001   4.370   7.723   2.666
   10CHTO  H118 4002   4.459   7.724   2.730
   10CHTO   O40 4003   4.362   7.589   2.607
   10CHTO   C68 4004   4.238   7.547   2.539
   10CHTO  H125 4005   4.241   7.436   2.537
   10CHTO   C72 4006   4.235   7.595   2.392
   10CHTO   O48 4007   4.338   7.535   2.313
   10CHTO  H105 4008   4.334   7.568   2.225
   10CHTO   O38 4009   4.385   7.814   2.555
   10CHTO   C55 4010   4.469   7.932   2.547
   10CHTO  H112 4011   4.528   7.917   2.455
   10CHTO   C56 4012   4.563   7.963   2.672
   10CHTO  H113 4013   4.503   7.950   2.763
   10CHTO   O42 4014   4.667   7.863   2.680
   10CHTO  H100 4015   4.721   7.866   2.603
   10CHTO   C57 4016   4.626   8.109   2.670
   10CHTO  H114 4017   4.707   8.107   2.596
   10CHTO   N10 4018   4.686   8.148   2.800
   10CHTO  H106 4019   4.682   8.255   2.815
   10CHTO  H107 4020   4.788   8.115   2.806
   10CHTO   C58 4021   4.521   8.213   2.624
   10CHTO  H115 4022   4.445   8.228   2.704
   10CHTO   O37 4023   4.457   8.171   2.503
   10CHTO   C59 4024   4.377   8.053   2.516
   10CHTO  H116 4025   4.303   8.067   2.595
   10CHTO   C70 4026   4.302   8.032   2.384
   10CHTO   O46 4027   4.209   8.137   2.355
   10CHTO  H103 4028   4.137   8.133   2.415
   10CHTO   O39 4029   4.594   8.357   2.587
   10CHTO   C60 4030   4.502   8.465   2.564
   10CHTO  H117 4031   4.399   8.428   2.565
   10CHTO   C62 4032   4.514   8.573   2.675
   10CHTO  H119 4033   4.487   8.522   2.771
   10CHTO   O43 4034   4.651   8.617   2.684
   10CHTO  H101 4035   4.661   8.678   2.755
   10CHTO   C66 4036   4.411   8.693   2.648
   10CHTO  H123 4037   4.310   8.652   2.644
   10CHTO   N12 4038   4.409   8.793   2.757
   10CHTO  H110 4039   4.338   8.872   2.735
   10CHTO  H111 4040   4.385   8.745   2.851
   10CHTO   C69 4041   4.441   8.756   2.509
   10CHTO  H126 4042   4.545   8.796   2.508
   10CHTO   O41 4043   4.428   8.645   2.401
   10CHTO   C64 4044   4.525   8.528   2.423
   10CHTO  H121 4045   4.629   8.565   2.416
   10CHTO   C71 4046   4.501   8.427   2.308
   10CHTO   O47 4047   4.606   8.331   2.299
   10CHTO  H104 4048   4.589   8.272   2.228
   10CHTO   O34 4049   4.341   8.875   2.473
   10CHTO   C49 4050   4.212   8.950   2.435
   10CHTO   H91 4051   4.230   9.054   2.461
   10CHTO   C47 4052   4.095   8.896   2.520
   10CHTO   H89 4053   4.114   8.937   2.623
   10CHTO   O33 4054   4.096   8.753   2.528
   10CHTO   H70 4055   4.085   8.715   2.442
   10CHTO   C45 4056   3.950   8.942   2.463
   10CHTO   H87 4057   3.907   8.856   2.409
   10CHTO    N8 4058   3.859   8.975   2.576
   10CHTO   H75 4059   3.759   8.991   2.538
   10CHTO   H76 4060   3.894   9.064   2.626
   10CHTO   C43 4061   3.962   9.055   2.350
   10CHTO   H85 4062   3.861   9.073   2.313
   10CHTO   O29 4063   4.050   9.007   2.246
   10CHTO   C50 4064   4.174   8.944   2.283
   10CHTO   H92 4065   4.172   8.839   2.252
   10CHTO   C54 4066   4.283   9.007   2.192
   10CHTO   O36 4067   4.409   8.940   2.201
   10CHTO   H72 4068   4.403   8.855   2.163
   10CHTO   O27 4069   4.009   9.181   2.402
   10CHTO   C37 4070   4.056   9.309   2.357
   10CHTO   H79 4071   4.161   9.301   2.324
   10CHTO   C38 4072   3.974   9.363   2.235
   10CHTO   H80 4073   3.867   9.361   2.261
   10CHTO   O31 4074   3.995   9.273   2.124
   10CHTO   H68 4075   3.955   9.190   2.141
   10CHTO   C39 4076   4.017   9.510   2.196
   10CHTO   H81 4077   4.118   9.504   2.157
   10CHTO    N7 4078   3.932   9.571   2.088
   10CHTO   H73 4079   3.939   9.512   1.998
   10CHTO   H74 4080   3.829   9.576   2.120
   10CHTO   C40 4081   4.022   9.603   2.323
   10CHTO   H82 4082   3.921   9.632   2.354
   10CHTO   O26 4083   4.096   9.543   2.429
   10CHTO   C41 4084   4.047   9.413   2.473
   10CHTO   H83 4085   3.942   9.422   2.504
   10CHTO   C52 4086   4.128   9.370   2.598
   10CHTO   O35 4087   4.274   9.375   2.576
   10CHTO   H71 4088   4.301   9.464   2.562
   10CHTO   O28 4089   4.100   9.721   2.294
   10CHTO   C42 4090   4.087   9.845   2.372
   10CHTO   H84 4091   4.049   9.813   2.470
   10CHTO   C44 4092   3.981   9.946   2.316
   10CHTO   H86 4093   4.003   9.963   2.210
   10CHTO   O32 4094   3.851   9.883   2.324
   10CHTO   H69 4095   3.846   9.812   2.263
   10CHTO   C48 4096   3.983   0.086   2.389
   10CHTO   H90 4097   3.946   0.072   2.491
   10CHTO    N9 4098   3.892   0.187   2.325
   10CHTO   H77 4099   3.816   0.219   2.394
   10CHTO   H78 4100   3.847   0.148   2.235
   10CHTO   C51 4101   4.132   0.136   2.396
   10CHTO   H93 4102   4.168   0.145   2.293
   10CHTO   O30 4103   4.207   0.039   2.470
   10CHTO   C46 4104   4.225   9.913   2.395
   10CHTO   H88 4105   4.272   9.936   2.300
   10CHTO   C53 4106   4.321   9.825   2.480
   10CHTO   O72 4107   4.364   9.709   2.409
   10CHTO  H199 4108   4.422   9.658   2.463
   10CHTO   O22 4109   4.152   0.259   2.469
   10CHTO   C31 4110   4.250   0.358   2.420
   10CHTO   H59 4111   4.267   0.428   2.505
   10CHTO   C29 4112   4.389   0.300   2.382
   10CHTO   H57 4113   4.372   0.216   2.312
   10CHTO   O21 4114   4.446   0.243   2.502
   10CHTO   H37 4115   4.524   0.195   2.481
   10CHTO   C27 4116   4.484   0.406   2.313
   10CHTO   H55 4117   4.508   0.484   2.386
   10CHTO    N5 4118   4.611   0.345   2.265
   10CHTO   H43 4119   4.675   0.421   2.223
   10CHTO   H44 4120   4.590   0.269   2.191
   10CHTO   C25 4121   4.404   0.474   2.196
   10CHTO   H53 4122   4.375   0.397   2.123
   10CHTO   O17 4123   4.285   0.537   2.250
   10CHTO   C32 4124   4.190   0.445   2.305
   10CHTO   H60 4125   4.155   0.379   2.225
   10CHTO   C36 4126   4.070   0.527   2.358
   10CHTO   O25 4127   3.998   0.590   2.252
   10CHTO   H40 4128   3.927   0.639   2.287
   10CHTO   O15 4129   4.485   0.581   2.126
   10CHTO   C19 4130   4.499   0.645   1.996
   10CHTO   H47 4131   4.410   0.613   1.940
   10CHTO   C20 4132   4.498   0.801   2.006
   10CHTO   H48 4133   4.568   0.838   2.083
   10CHTO   O19 4134   4.366   0.839   2.048
   10CHTO   H35 4135   4.350   0.811   2.136
   10CHTO   C21 4136   4.537   0.872   1.869
   10CHTO   H49 4137   4.458   0.851   1.796
   10CHTO    N4 4138   4.548   1.020   1.881
   10CHTO   H41 4139   4.526   1.053   1.982
   10CHTO   H42 4140   4.479   1.068   1.813
   10CHTO   C22 4141   4.667   0.806   1.818
   10CHTO   H50 4142   4.744   0.820   1.894
   10CHTO   O14 4143   4.643   0.666   1.796
   10CHTO   C23 4144   4.622   0.592   1.917
   10CHTO   H51 4145   4.715   0.598   1.976
   10CHTO   C34 4146   4.602   0.444   1.879
   10CHTO   O23 4147   4.720   0.390   1.818
   10CHTO   H38 4148   4.704   0.300   1.794
   10CHTO   O16 4149   4.713   0.855   1.690
   10CHTO   C24 4150   4.877   0.861   1.681
   10CHTO   H52 4151   4.924   0.821   1.770
   10CHTO   C26 4152   4.921   1.008   1.663
   10CHTO   H54 4153   4.868   1.051   1.575
   10CHTO   O20 4154   4.879   1.082   1.780
   10CHTO   H36 4155   4.923   1.050   1.857
   10CHTO   C30 4156   5.075   1.019   1.638
   10CHTO   H58 4157   5.128   0.989   1.729
   10CHTO    N6 4158   5.117   1.160   1.611
   10CHTO   H45 4159   5.191   1.191   1.683
   10CHTO   H46 4160   5.158   1.170   1.511
   10CHTO   C33 4161   5.120   0.920   1.526
   10CHTO   H61 4162   5.080   0.952   1.429
   10CHTO   O18 4163   5.069   0.788   1.555
   10CHTO   C28 4164   4.927   0.776   1.561
   10CHTO   H56 4165   4.880   0.812   1.470
   10CHTO   C35 4166   4.891   0.627   1.580
   10CHTO   O24 4167   4.938   0.546   1.472
   10CHTO   H39 4168   4.916   0.456   1.488
   10CHTO    O9 4169   5.263   0.919   1.511
   10CHTO   C13 4170   5.317   0.837   1.380
   10CHTO   H26 4171   5.250   0.860   1.295
   10CHTO   C11 4172   5.322   0.681   1.411
   10CHTO   H24 4173   5.218   0.646   1.424
   10CHTO    O8 4174   5.392   0.656   1.535
   10CHTO    H3 4175   5.345   0.695   1.606
   10CHTO    C9 4176   5.383   0.609   1.288
   10CHTO   H22 4177   5.319   0.637   1.203
   10CHTO    N2 4178   5.373   0.461   1.297
   10CHTO   H10 4179   5.307   0.423   1.220
   10CHTO   H11 4180   5.470   0.415   1.288
   10CHTO    C7 4181   5.527   0.663   1.261
   10CHTO   H20 4182   5.554   0.617   1.164
   10CHTO    O4 4183   5.532   0.807   1.247
   10CHTO   C14 4184   5.460   0.892   1.338
   10CHTO   H27 4185   5.443   0.987   1.283
   10CHTO   C18 4186   5.550   0.927   1.461
   10CHTO   O13 4187   5.667   0.999   1.422
   10CHTO    H7 4188   5.725   0.942   1.375
   10CHTO    O2 4189   5.632   0.616   1.374
   10CHTO    C1 4190   5.773   0.631   1.348
   10CHTO   H14 4191   5.798   0.739   1.345
   10CHTO    C2 4192   5.828   0.562   1.215
   10CHTO   H15 4193   5.780   0.463   1.210
   10CHTO    O6 4194   5.786   0.640   1.101
   10CHTO    H1 4195   5.807   0.595   1.021
   10CHTO    C3 4196   5.988   0.547   1.213
   10CHTO   H16 4197   6.031   0.646   1.194
   10CHTO    N1 4198   6.035   0.458   1.102
   10CHTO    H8 4199   5.952   0.421   1.044
   10CHTO    H9 4200   6.104   0.511   1.038
   10CHTO    C4 4201   6.044   0.502   1.354
   10CHTO   H17 4202   6.017   0.398   1.371
   10CHTO    O1 4203   5.989   0.586   1.457
   10CHTO    C5 4204   5.847   0.570   1.471
   10CHTO   H18 4205   5.824   0.464   1.473
   10CHTO   C16 4206   5.801   0.632   1.606
   10CHTO   O11 4207   5.820   0.774   1.613
   10CHTO    H5 4208   5.763   0.817   1.552
   10CHTO    O3 4209   6.187   0.520   1.368
   10CHTO    C6 4210   6.274   0.402   1.354
   10CHTO   H19 4211   6.223   0.318   1.306
   10CHTO    C8 4212   6.398   0.440   1.267
   10CHTO   H21 4213   6.442   0.531   1.308
   10CHTO    O7 4214   6.352   0.465   1.133
   10CHTO    H2 4215   6.301   0.543   1.130
   10CHTO   C12 4216   6.509   0.327   1.267
   10CHTO   H25 4217   6.466   0.241   1.211
   10CHTO    N3 4218   6.633   0.369   1.193
   10CHTO   H12 4219   6.609   0.391   1.090
   10CHTO   H13 4220   6.676   0.456   1.241
   10CHTO   C15 4221   6.537   0.280   1.414
   10CHTO   H28 4222   6.589   0.357   1.472
   10CHTO   O10 4223   6.618   0.147   1.420
   10CHTO    H4 4224   6.641   0.128   1.509
   10CHTO    O5 4225   6.415   0.244   1.479
   10CHTO   C10 4226   6.321   0.352   1.494
   10CHTO   H23 4227   6.369   0.433   1.549
   10CHTO   C17 4228   6.210   0.293   1.582
   10CHTO   O12 4229   6.120   0.392   1.633
   10CHTO    H6 4230   6.070   0.429   1.563
   11CHTO  H203 4231   6.757   4.797   0.754
   11CHTO   O82 4232   6.687   4.858   0.737
   11CHTO  C123 4233   6.739   4.991   0.728
   11CHTO  H227 4234   6.811   4.996   0.644
   11CHTO   O77 4235   6.621   5.071   0.696
   11CHTO  C118 4236   6.646   5.211   0.677
   11CHTO  H222 4237   6.721   5.223   0.597
   11CHTO  C125 4238   6.511   5.279   0.631
   11CHTO   O84 4239   6.406   5.263   0.728
   11CHTO  H205 4240   6.427   5.310   0.806
   11CHTO  C114 4241   6.702   5.272   0.807
   11CHTO  H218 4242   6.627   5.260   0.886
   11CHTO  C116 4243   6.831   5.197   0.852
   11CHTO  H220 4244   6.912   5.216   0.777
   11CHTO   O79 4245   6.876   5.254   0.976
   11CHTO  H201 4246   6.906   5.342   0.963
   11CHTO  C120 4247   6.804   5.041   0.863
   11CHTO  H224 4248   6.732   5.027   0.947
   11CHTO   N21 4249   6.927   4.965   0.896
   11CHTO  H211 4250   6.938   4.960   1.004
   11CHTO  H212 4251   6.923   4.866   0.854
   11CHTO   O75 4252   6.723   5.412   0.779
   11CHTO  C112 4253   6.670   5.514   0.899
   11CHTO  H216 4254   6.706   5.477   0.996
   11CHTO   O73 4255   6.526   5.516   0.893
   11CHTO  C113 4256   6.462   5.608   0.983
   11CHTO  H217 4257   6.492   5.583   1.087
   11CHTO  C124 4258   6.310   5.586   0.974
   11CHTO   O83 4259   6.258   5.607   0.842
   11CHTO  H204 4260   6.266   5.698   0.819
   11CHTO  C109 4261   6.504   5.754   0.950
   11CHTO  H213 4262   6.475   5.772   0.845
   11CHTO  C110 4263   6.659   5.765   0.964
   11CHTO  H214 4264   6.686   5.747   1.069
   11CHTO   O78 4265   6.699   5.899   0.930
   11CHTO  H200 4266   6.669   5.959   0.995
   11CHTO  C111 4267   6.729   5.659   0.873
   11CHTO  H215 4268   6.708   5.684   0.768
   11CHTO   N19 4269   6.877   5.657   0.887
   11CHTO  H207 4270   6.920   5.584   0.820
   11CHTO  H208 4271   6.904   5.632   0.989
   11CHTO   O74 4272   6.434   5.850   1.036
   11CHTO  C115 4273   6.377   5.976   0.951
   11CHTO  H219 4274   6.445   6.004   0.870
   11CHTO   O76 4275   6.240   5.941   0.877
   11CHTO  C122 4276   6.128   5.929   0.966
   11CHTO  H226 4277   6.144   5.839   1.027
   11CHTO  C126 4278   6.000   5.901   0.880
   11CHTO   O85 4279   6.004   5.774   0.814
   11CHTO  H206 4280   5.922   5.759   0.770
   11CHTO  C121 4281   6.108   6.056   1.059
   11CHTO  H225 4282   6.009   6.101   1.036
   11CHTO   O81 4283   6.103   6.014   1.196
   11CHTO  H202 4284   6.186   5.978   1.222
   11CHTO  C119 4285   6.218   6.164   1.035
   11CHTO  H223 4286   6.208   6.189   0.929
   11CHTO  C117 4287   6.361   6.100   1.051
   11CHTO  H221 4288   6.383   6.060   1.150
   11CHTO   N20 4289   6.468   6.202   1.026
   11CHTO  H209 4290   6.457   6.285   1.094
   11CHTO  H210 4291   6.565   6.157   1.038
   11CHTO   O80 4292   6.183   6.313   1.107
   11CHTO  C103 4293   6.187   6.331   1.268
   11CHTO  H190 4294   6.194   6.235   1.320
   11CHTO  C101 4295   6.301   6.429   1.320
   11CHTO  H188 4296   6.304   6.515   1.254
   11CHTO   O68 4297   6.436   6.357   1.311
   11CHTO  H168 4298   6.438   6.285   1.371
   11CHTO   C99 4299   6.273   6.482   1.470
   11CHTO  H186 4300   6.282   6.396   1.540
   11CHTO   N17 4301   6.371   6.586   1.516
   11CHTO  H174 4302   6.436   6.617   1.436
   11CHTO  H175 4303   6.427   6.550   1.601
   11CHTO   C97 4304   6.127   6.532   1.484
   11CHTO  H184 4305   6.115   6.624   1.424
   11CHTO   O64 4306   6.036   6.429   1.442
   11CHTO  C104 4307   6.046   6.393   1.303
   11CHTO  H191 4308   6.029   6.481   1.241
   11CHTO  C108 4309   5.930   6.297   1.271
   11CHTO   O71 4310   5.926   6.183   1.359
   11CHTO  H171 4311   5.902   6.210   1.445
   11CHTO   O62 4312   6.091   6.556   1.621
   11CHTO   C91 4313   5.986   6.652   1.645
   11CHTO  H178 4314   5.927   6.662   1.554
   11CHTO   C92 4315   6.050   6.792   1.673
   11CHTO  H179 4316   6.136   6.810   1.606
   11CHTO   O66 4317   5.954   6.894   1.642
   11CHTO  H166 4318   5.936   6.895   1.550
   11CHTO   C93 4319   6.090   6.814   1.824
   11CHTO  H180 4320   6.116   6.921   1.834
   11CHTO   N16 4321   6.214   6.742   1.864
   11CHTO  H172 4322   6.297   6.776   1.805
   11CHTO  H173 4323   6.200   6.635   1.852
   11CHTO   C94 4324   5.967   6.782   1.919
   11CHTO  H181 4325   5.993   6.711   1.998
   11CHTO   O61 4326   5.856   6.723   1.849
   11CHTO   C95 4327   5.889   6.611   1.765
   11CHTO  H182 4328   5.938   6.535   1.826
   11CHTO  C106 4329   5.756   6.547   1.713
   11CHTO   O69 4330   5.781   6.427   1.638
   11CHTO  H169 4331   5.811   6.360   1.695
   11CHTO   O63 4332   5.915   6.918   1.982
   11CHTO   C96 4333   6.007   6.975   2.099
   11CHTO  H183 4334   6.110   6.953   2.075
   11CHTO   C98 4335   5.976   6.916   2.239
   11CHTO  H185 4336   5.869   6.928   2.262
   11CHTO   O67 4337   5.998   6.775   2.232
   11CHTO  H167 4338   6.088   6.756   2.215
   11CHTO  C102 4339   6.067   6.981   2.354
   11CHTO  H189 4340   6.170   6.949   2.333
   11CHTO   N18 4341   6.038   6.933   2.492
   11CHTO  H176 4342   6.054   6.827   2.498
   11CHTO  H177 4343   5.935   6.956   2.518
   11CHTO  C105 4344   6.061   7.136   2.341
   11CHTO  H192 4345   5.964   7.172   2.375
   11CHTO   O65 4346   6.083   7.183   2.207
   11CHTO  C100 4347   5.993   7.132   2.107
   11CHTO  H187 4348   5.890   7.158   2.136
   11CHTO  C107 4349   6.027   7.204   1.974
   11CHTO   O70 4350   5.931   7.178   1.871
   11CHTO  H170 4351   5.935   7.087   1.846
   11CHTO   O57 4352   6.178   7.192   2.435
   11CHTO   C85 4353   6.162   7.316   2.506
   11CHTO  H157 4354   6.061   7.311   2.552
   11CHTO   C83 4355   6.157   7.436   2.405
   11CHTO  H155 4356   6.062   7.430   2.351
   11CHTO   O56 4357   6.261   7.421   2.306
   11CHTO  H135 4358   6.252   7.487   2.240
   11CHTO   C81 4359   6.162   7.570   2.483
   11CHTO  H153 4360   6.079   7.571   2.554
   11CHTO   N14 4361   6.138   7.688   2.396
   11CHTO  H141 4362   6.218   7.759   2.405
   11CHTO  H142 4363   6.046   7.736   2.423
   11CHTO   C79 4364   6.296   7.576   2.566
   11CHTO  H151 4365   6.297   7.672   2.618
   11CHTO   O52 4366   6.292   7.472   2.667
   11CHTO   C86 4367   6.276   7.336   2.614
   11CHTO  H158 4368   6.376   7.312   2.571
   11CHTO   C90 4369   6.255   7.236   2.730
   11CHTO   O60 4370   6.368   7.233   2.819
   11CHTO  H138 4371   6.374   7.315   2.865
   11CHTO   O50 4372   6.416   7.566   2.486
   11CHTO   C73 4373   6.552   7.548   2.529
   11CHTO  H145 4374   6.557   7.470   2.607
   11CHTO   C74 4375   6.607   7.681   2.590
   11CHTO  H146 4376   6.540   7.710   2.672
   11CHTO   O54 4377   6.735   7.652   2.650
   11CHTO  H133 4378   6.769   7.729   2.691
   11CHTO   C75 4379   6.612   7.791   2.477
   11CHTO  H147 4380   6.510   7.811   2.443
   11CHTO   N13 4381   6.664   7.922   2.524
   11CHTO  H139 4382   6.765   7.911   2.560
   11CHTO  H140 4383   6.663   7.994   2.443
   11CHTO   C76 4384   6.694   7.736   2.351
   11CHTO  H148 4385   6.799   7.727   2.379
   11CHTO   O49 4386   6.643   7.606   2.307
   11CHTO   C77 4387   6.641   7.505   2.409
   11CHTO  H149 4388   6.743   7.486   2.444
   11CHTO   C88 4389   6.595   7.375   2.341
   11CHTO   O58 4390   6.598   7.261   2.432
   11CHTO  H136 4391   6.687   7.239   2.453
   11CHTO   O51 4392   6.671   7.828   2.224
   11CHTO   C78 4393   6.800   7.848   2.137
   11CHTO  H150 4394   6.889   7.798   2.182
   11CHTO   C80 4395   6.829   8.000   2.126
   11CHTO  H152 4396   6.737   8.049   2.089
   11CHTO   O55 4397   6.853   8.050   2.258
   11CHTO  H134 4398   6.933   8.013   2.293
   11CHTO   C84 4399   6.948   8.030   2.026
   11CHTO  H156 4400   7.039   7.987   2.068
   11CHTO   N15 4401   6.973   8.177   2.008
   11CHTO  H143 4402   6.886   8.225   1.967
   11CHTO  H144 4403   7.055   8.193   1.942
   11CHTO   C87 4404   6.918   7.960   1.891
   11CHTO  H159 4405   6.830   8.005   1.845
   11CHTO   O53 4406   6.895   7.812   1.916
   11CHTO   C82 4407   6.779   7.789   1.996
   11CHTO  H154 4408   6.692   7.834   1.949
   11CHTO   C89 4409   6.754   7.636   2.001
   11CHTO   O59 4410   6.720   7.585   1.871
   11CHTO  H137 4411   6.795   7.590   1.815
   11CHTO   O45 4412   7.042   7.971   1.787
   11CHTO   C67 4413   7.006   7.926   1.655
   11CHTO  H124 4414   6.923   7.855   1.662
   11CHTO   C65 4415   6.961   8.046   1.565
   11CHTO  H122 4416   7.020   8.132   1.597
   11CHTO   O44 4417   6.823   8.070   1.596
   11CHTO  H102 4418   6.794   8.150   1.557
   11CHTO   C63 4419   6.999   8.026   1.412
   11CHTO  H120 4420   7.103   8.053   1.399
   11CHTO   N11 4421   6.931   8.119   1.316
   11CHTO  H108 4422   6.973   8.106   1.218
   11CHTO  H109 4423   6.945   8.220   1.347
   11CHTO   C61 4424   6.988   7.873   1.376
   11CHTO  H118 4425   7.018   7.864   1.271
   11CHTO   O40 4426   7.081   7.793   1.454
   11CHTO   C68 4427   7.122   7.845   1.586
   11CHTO  H125 4428   7.211   7.911   1.572
   11CHTO   C72 4429   7.167   7.726   1.674
   11CHTO   O48 4430   7.281   7.658   1.620
   11CHTO  H105 4431   7.304   7.586   1.676
   11CHTO   O38 4432   6.855   7.820   1.396
   11CHTO   C55 4433   6.818   7.711   1.310
   11CHTO  H112 4434   6.907   7.668   1.262
   11CHTO   C56 4435   6.713   7.763   1.204
   11CHTO  H113 4436   6.631   7.812   1.260
   11CHTO   O42 4437   6.773   7.866   1.123
   11CHTO  H100 4438   6.846   7.832   1.075
   11CHTO   C57 4439   6.657   7.646   1.115
   11CHTO  H114 4440   6.738   7.618   1.047
   11CHTO   N10 4441   6.542   7.686   1.028
   11CHTO  H106 4442   6.478   7.601   1.008
   11CHTO  H107 4443   6.485   7.764   1.076
   11CHTO   C58 4444   6.620   7.522   1.201
   11CHTO  H115 4445   6.524   7.540   1.254
   11CHTO   O37 4446   6.722   7.489   1.298
   11CHTO   C59 4447   6.753   7.595   1.390
   11CHTO  H116 4448   6.662   7.629   1.440
   11CHTO   C70 4449   6.849   7.541   1.496
   11CHTO   O46 4450   6.790   7.439   1.578
   11CHTO  H103 4451   6.726   7.477   1.635
   11CHTO   O39 4452   6.609   7.392   1.105
   11CHTO   C60 4453   6.501   7.302   1.135
   11CHTO  H117 4454   6.490   7.294   1.243
   11CHTO   C62 4455   6.366   7.353   1.074
   11CHTO  H119 4456   6.345   7.451   1.122
   11CHTO   O43 4457   6.382   7.373   0.932
   11CHTO  H101 4458   6.441   7.444   0.916
   11CHTO   C66 4459   6.248   7.250   1.111
   11CHTO  H123 4460   6.242   7.241   1.219
   11CHTO   N12 4461   6.115   7.300   1.066
   11CHTO  H110 4462   6.094   7.395   1.113
   11CHTO  H111 4463   6.038   7.228   1.090
   11CHTO   C69 4464   6.281   7.109   1.054
   11CHTO  H126 4465   6.287   7.114   0.943
   11CHTO   O41 4466   6.419   7.063   1.113
   11CHTO   C64 4467   6.534   7.160   1.082
   11CHTO  H121 4468   6.549   7.166   0.972
   11CHTO   C71 4469   6.665   7.107   1.145
   11CHTO   O47 4470   6.705   6.985   1.083
   11CHTO  H104 4471   6.784   6.954   1.123
   11CHTO   O34 4472   6.170   7.001   1.093
   11CHTO   C49 4473   6.079   6.929   1.196
   11CHTO   H91 4474   6.131   6.933   1.292
   11CHTO   C47 4475   6.060   6.782   1.152
   11CHTO   H89 4476   6.004   6.731   1.233
   11CHTO   O33 4477   6.190   6.722   1.140
   11CHTO   H70 4478   6.181   6.630   1.121
   11CHTO   C45 4479   5.975   6.779   1.015
   11CHTO   H87 4480   6.029   6.839   0.940
   11CHTO    N8 4481   5.959   6.641   0.961
   11CHTO   H75 4482   6.056   6.596   0.947
   11CHTO   H76 4483   5.902   6.581   1.030
   11CHTO   C43 4484   5.834   6.855   1.035
   11CHTO   H85 4485   5.789   6.862   0.936
   11CHTO   O29 4486   5.854   6.985   1.094
   11CHTO   C50 4487   5.941   6.998   1.209
   11CHTO   H92 4488   5.960   7.105   1.223
   11CHTO   C54 4489   5.868   6.958   1.340
   11CHTO   O36 4490   5.758   7.045   1.367
   11CHTO   H72 4491   5.717   7.019   1.447
   11CHTO   O27 4492   5.740   6.779   1.115
   11CHTO   C37 4493   5.603   6.773   1.158
   11CHTO   H79 4494   5.593   6.819   1.257
   11CHTO   C38 4495   5.507   6.851   1.063
   11CHTO   H80 4496   5.527   6.819   0.959
   11CHTO   O31 4497   5.539   6.991   1.074
   11CHTO   H68 4498   5.521   7.022   1.161
   11CHTO   C39 4499   5.355   6.822   1.097
   11CHTO   H81 4500   5.335   6.864   1.195
   11CHTO    N7 4501   5.259   6.888   1.002
   11CHTO   H73 4502   5.275   6.852   0.901
   11CHTO   H74 4503   5.157   6.870   1.033
   11CHTO   C40 4504   5.330   6.667   1.105
   11CHTO   H82 4505   5.343   6.622   1.006
   11CHTO   O26 4506   5.420   6.611   1.201
   11CHTO   C41 4507   5.561   6.624   1.167
   11CHTO   H83 4508   5.580   6.574   1.071
   11CHTO   C52 4509   5.642   6.548   1.275
   11CHTO   O35 4510   5.617   6.599   1.412
   11CHTO   H71 4511   5.665   6.548   1.474
   11CHTO   O28 4512   5.200   6.632   1.157
   11CHTO   C42 4513   5.129   6.510   1.116
   11CHTO   H84 4514   5.192   6.463   1.040
   11CHTO   C44 4515   4.990   6.534   1.047
   11CHTO   H86 4516   4.927   6.590   1.117
   11CHTO   O32 4517   5.013   6.618   0.932
   11CHTO   H69 4518   5.065   6.574   0.868
   11CHTO   C48 4519   4.916   6.399   1.010
   11CHTO   H90 4520   4.973   6.351   0.930
   11CHTO    N9 4521   4.778   6.422   0.954
   11CHTO   H77 4522   4.772   6.383   0.853
   11CHTO   H78 4523   4.752   6.526   0.955
   11CHTO   C51 4524   4.914   6.302   1.133
   11CHTO   H93 4525   4.852   6.346   1.211
   11CHTO   O30 4526   5.049   6.283   1.178
   11CHTO   C46 4527   5.112   6.406   1.231
   11CHTO   H88 4528   5.046   6.448   1.307
   11CHTO   C53 4529   5.246   6.365   1.296
   11CHTO   O72 4530   5.334   6.303   1.202
   11CHTO  H199 4531   5.414   6.278   1.246
   11CHTO   O22 4532   4.868   6.169   1.099
   11CHTO   C31 4533   4.851   6.066   1.204
   11CHTO   H59 4534   4.912   6.099   1.291
   11CHTO   C29 4535   4.705   6.053   1.253
   11CHTO   H57 4536   4.642   6.035   1.165
   11CHTO   O21 4537   4.663   6.180   1.307
   11CHTO   H37 4538   4.710   6.199   1.386
   11CHTO   C27 4539   4.684   5.935   1.356
   11CHTO   H55 4540   4.734   5.963   1.450
   11CHTO    N5 4541   4.541   5.908   1.385
   11CHTO   H43 4542   4.518   5.934   1.487
   11CHTO   H44 4543   4.477   5.962   1.316
   11CHTO   C25 4544   4.757   5.804   1.308
   11CHTO   H53 4545   4.705   5.764   1.219
   11CHTO   O17 4546   4.894   5.834   1.271
   11CHTO   C32 4547   4.907   5.927   1.162
   11CHTO   H60 4548   4.852   5.890   1.075
   11CHTO   C36 4549   5.058   5.932   1.126
   11CHTO   O25 4550   5.083   6.007   1.007
   11CHTO   H40 4551   5.175   6.009   0.990
   11CHTO   O15 4552   4.761   5.691   1.425
   11CHTO   C19 4553   4.699   5.562   1.453
   11CHTO   H47 4554   4.758   5.523   1.538
   11CHTO   C20 4555   4.549   5.571   1.498
   11CHTO   H48 4556   4.488   5.623   1.422
   11CHTO   O19 4557   4.545   5.648   1.619
   11CHTO   H35 4558   4.566   5.738   1.601
   11CHTO   C21 4559   4.484   5.429   1.520
   11CHTO   H49 4560   4.534   5.380   1.603
   11CHTO    N4 4561   4.339   5.435   1.554
   11CHTO   H41 4562   4.325   5.490   1.646
   11CHTO   H42 4563   4.285   5.485   1.475
   11CHTO   C22 4564   4.511   5.344   1.393
   11CHTO   H50 4565   4.465   5.396   1.308
   11CHTO   O14 4566   4.653   5.334   1.371
   11CHTO   C23 4567   4.717   5.458   1.338
   11CHTO   H51 4568   4.673   5.494   1.243
   11CHTO   C34 4569   4.864   5.424   1.312
   11CHTO   O23 4570   4.934   5.533   1.250
   11CHTO   H38 4571   5.023   5.508   1.236
   11CHTO   O16 4572   4.462   5.209   1.403
   11CHTO   C24 4573   4.415   5.153   1.260
   11CHTO   H52 4574   4.455   5.214   1.178
   11CHTO   C26 4575   4.262   5.152   1.254
   11CHTO   H54 4576   4.223   5.089   1.337
   11CHTO   O20 4577   4.214   5.286   1.274
   11CHTO   H36 4578   4.120   5.287   1.280
   11CHTO   C30 4579   4.212   5.094   1.118
   11CHTO   H58 4580   4.231   5.169   1.040
   11CHTO    N6 4581   4.065   5.073   1.116
   11CHTO   H45 4582   4.034   5.035   1.020
   11CHTO   H46 4583   4.014   5.167   1.135
   11CHTO   C33 4584   4.290   4.965   1.075
   11CHTO   H61 4585   4.246   4.877   1.126
   11CHTO   O18 4586   4.430   4.969   1.107
   11CHTO   C28 4587   4.468   5.010   1.239
   11CHTO   H56 4588   4.424   4.944   1.314
   11CHTO   C35 4589   4.622   5.004   1.248
   11CHTO   O24 4590   4.674   5.017   1.381
   11CHTO   H39 4591   4.658   5.104   1.412
   11CHTO    O9 4592   4.269   4.941   0.934
   11CHTO   C13 4593   4.356   5.048   0.840
   11CHTO   H26 4594   4.405   5.122   0.907
   11CHTO   C11 4595   4.261   5.118   0.735
   11CHTO   H24 4596   4.179   5.167   0.790
   11CHTO    O8 4597   4.201   5.017   0.651
   11CHTO    H3 4598   4.267   4.976   0.598
   11CHTO    C9 4599   4.343   5.229   0.662
   11CHTO   H22 4600   4.351   5.311   0.735
   11CHTO    N2 4601   4.269   5.291   0.550
   11CHTO   H10 4602   4.322   5.378   0.514
   11CHTO   H11 4603   4.257   5.219   0.469
   11CHTO    C7 4604   4.491   5.179   0.632
   11CHTO   H20 4605   4.549   5.220   0.717
   11CHTO    O4 4606   4.500   5.035   0.633
   11CHTO   C14 4607   4.476   4.977   0.763
   11CHTO   H27 4608   4.568   4.986   0.824
   11CHTO   C18 4609   4.450   4.825   0.744
   11CHTO   O13 4610   4.557   4.761   0.674
   11CHTO    H7 4611   4.537   4.670   0.664
   11CHTO    O2 4612   4.558   5.234   0.494
   11CHTO    C1 4613   4.659   5.334   0.513
   11CHTO   H14 4614   4.710   5.317   0.611
   11CHTO    C2 4615   4.602   5.482   0.512
   11CHTO   H15 4616   4.536   5.488   0.424
   11CHTO    O6 4617   4.525   5.504   0.631
   11CHTO    H1 4618   4.579   5.497   0.707
   11CHTO    C3 4619   4.720   5.592   0.499
   11CHTO   H16 4620   4.776   5.597   0.593
   11CHTO    N1 4621   4.665   5.730   0.474
   11CHTO    H8 4622   4.602   5.759   0.557
   11CHTO    H9 4623   4.608   5.731   0.383
   11CHTO    C4 4624   4.822   5.548   0.388
   11CHTO   H17 4625   4.773   5.550   0.291
   11CHTO    O1 4626   4.871   5.415   0.416
   11CHTO    C5 4627   4.769   5.315   0.405
   11CHTO   H18 4628   4.721   5.321   0.307
   11CHTO   C16 4629   4.836   5.176   0.418
   11CHTO   O11 4630   4.930   5.152   0.311
   11CHTO    H5 4631   5.005   5.208   0.322
   11CHTO    O3 4632   4.939   5.632   0.387
   11CHTO    C6 4633   5.012   5.633   0.259
   11CHTO   H19 4634   4.994   5.542   0.200
   11CHTO    C8 4635   4.971   5.756   0.172
   11CHTO   H21 4636   4.985   5.847   0.232
   11CHTO    O7 4637   4.831   5.742   0.138
   11CHTO    H2 4638   4.817   5.666   0.085
   11CHTO   C12 4639   5.062   5.766   0.043
   11CHTO   H25 4640   5.038   5.677   2.851
   11CHTO    N3 4641   5.030   5.887   2.831
   11CHTO   H12 4642   4.926   5.883   2.799
   11CHTO   H13 4643   5.095   5.892   2.744
   11CHTO   C15 4644   5.214   5.758   0.085
   11CHTO   H28 4645   5.246   5.848   0.138
   11CHTO   O10 4646   5.307   5.734   2.833
   11CHTO    H4 4647   5.397   5.744   2.859
   11CHTO    O5 4648   5.239   5.641   0.165
   11CHTO   C10 4649   5.165   5.638   0.288
   11CHTO   H23 4650   5.188   5.728   0.345
   11CHTO   C17 4651   5.211   5.518   0.371
   11CHTO   O12 4652   5.345   5.535   0.416
   11CHTO    H6 4653   5.371   5.461   0.467
   12CHTO  H203 4654   4.805   2.077   0.110
   12CHTO   O82 4655   4.857   2.013   0.065
   12CHTO  C123 4656   4.875   1.897   0.148
   12CHTO  H227 4657   4.903   1.929   0.249
   12CHTO   O77 4658   4.742   1.836   0.150
   12CHTO  C118 4659   4.730   1.721   0.236
   12CHTO  H222 4660   4.757   1.749   0.340
   12CHTO  C125 4661   4.580   1.674   0.233
   12CHTO   O84 4662   4.492   1.777   0.278
   12CHTO  H205 4663   4.403   1.746   0.273
   12CHTO  C114 4664   4.824   1.609   0.187
   12CHTO  H218 4665   4.792   1.579   0.087
   12CHTO  C116 4666   4.971   1.660   0.174
   12CHTO  H220 4667   5.012   1.679   0.276
   12CHTO   O79 4668   5.050   1.554   0.118
   12CHTO  H201 4669   5.141   1.579   0.115
   12CHTO  C120 4670   4.978   1.793   0.089
   12CHTO  H224 4671   4.950   1.766   2.855
   12CHTO   N21 4672   5.116   1.850   0.085
   12CHTO  H211 4673   5.190   1.771   0.090
   12CHTO  H212 4674   5.129   1.908   2.864
   12CHTO   O75 4675   4.808   1.501   0.280
   12CHTO  C112 4676   4.784   1.355   0.207
   12CHTO  H216 4677   4.852   1.347   0.120
   12CHTO   O73 4678   4.646   1.349   0.167
   12CHTO  C113 4679   4.611   1.232   0.092
   12CHTO  H217 4680   4.675   1.227   0.001
   12CHTO  C124 4681   4.466   1.250   0.043
   12CHTO   O83 4682   4.371   1.261   0.150
   12CHTO  H204 4683   4.385   1.340   0.198
   12CHTO  C109 4684   4.632   1.103   0.177
   12CHTO  H213 4685   4.559   1.107   0.260
   12CHTO  C110 4686   4.777   1.101   0.235
   12CHTO  H214 4687   4.847   1.083   0.152
   12CHTO   O78 4688   4.788   0.989   0.325
   12CHTO  H200 4689   4.783   0.908   0.277
   12CHTO  C111 4690   4.813   1.235   0.305
   12CHTO  H215 4691   4.747   1.247   0.393
   12CHTO   N19 4692   4.953   1.242   0.355
   12CHTO  H207 4693   5.022   1.228   0.274
   12CHTO  H208 4694   4.969   1.165   0.430
   12CHTO   O74 4695   4.607   0.983   0.097
   12CHTO  C115 4696   4.460   0.915   0.120
   12CHTO  H219 4697   4.401   0.970   0.193
   12CHTO   O76 4698   4.373   0.919   2.857
   12CHTO  C122 4699   4.415   0.821   2.761
   12CHTO  H226 4700   4.520   0.841   2.738
   12CHTO  C126 4701   4.337   0.844   2.627
   12CHTO   O85 4702   4.380   0.757   2.522
   12CHTO  H206 4703   4.330   0.774   2.445
   12CHTO  C121 4704   4.397   0.673   2.816
   12CHTO  H225 4705   4.306   0.628   2.770
   12CHTO   O81 4706   4.510   0.595   2.776
   12CHTO  H202 4707   4.512   0.587   2.682
   12CHTO  C119 4708   4.382   0.669   0.101
   12CHTO  H223 4709   4.281   0.707   0.123
   12CHTO  C117 4710   4.484   0.767   0.171
   12CHTO  H221 4711   4.589   0.745   0.150
   12CHTO   N20 4712   4.473   0.761   0.320
   12CHTO  H209 4713   4.489   0.660   0.354
   12CHTO  H210 4714   4.546   0.826   0.365
   12CHTO   O80 4715   4.372   0.520   0.158
   12CHTO  C103 4716   4.233   0.458   0.193
   12CHTO  H190 4717   4.179   0.522   0.264
   12CHTO  C101 4718   4.138   0.426   0.070
   12CHTO  H188 4719   4.198   0.380   2.861
   12CHTO   O68 4720   4.080   0.561   0.015
   12CHTO  H168 4721   4.150   0.616   2.854
   12CHTO   C99 4722   4.021   0.324   0.110
   12CHTO  H186 4723   3.952   0.375   0.181
   12CHTO   N17 4724   3.937   0.280   2.863
   12CHTO  H174 4725   3.997   0.222   2.794
   12CHTO  H175 4726   3.852   0.223   0.028
   12CHTO   C97 4727   4.081   0.203   0.187
   12CHTO  H184 4728   4.148   0.149   0.118
   12CHTO   O64 4729   4.151   0.252   0.303
   12CHTO  C104 4730   4.270   0.325   0.270
   12CHTO  H191 4731   4.338   0.265   0.209
   12CHTO  C108 4732   4.343   0.350   0.403
   12CHTO   O71 4733   4.477   0.395   0.384
   12CHTO  H171 4734   4.517   0.410   0.468
   12CHTO   O62 4735   3.981   0.114   0.241
   12CHTO   C91 4736   4.030   9.982   0.276
   12CHTO  H178 4737   4.139   9.984   0.279
   12CHTO   C92 4738   3.990   9.879   0.167
   12CHTO  H179 4739   3.880   9.879   0.156
   12CHTO   O66 4740   4.043   9.923   0.040
   12CHTO  H166 4741   4.000   0.002   0.012
   12CHTO   C93 4742   4.043   9.733   0.201
   12CHTO  H180 4743   4.152   9.735   0.186
   12CHTO   N16 4744   3.992   9.629   0.108
   12CHTO  H172 4745   4.032   9.533   0.135
   12CHTO  H173 4746   4.019   9.654   0.006
   12CHTO   C94 4747   4.013   9.695   0.351
   12CHTO  H181 4748   3.906   9.676   0.367
   12CHTO   O61 4749   4.049   9.802   0.440
   12CHTO   C95 4750   3.981   9.926   0.415
   12CHTO  H182 4751   3.874   9.908   0.414
   12CHTO  C106 4752   4.011   0.023   0.535
   12CHTO   O69 4753   3.931   0.141   0.529
   12CHTO  H169 4754   3.955   0.192   0.454
   12CHTO   O63 4755   4.100   9.559   0.387
   12CHTO   C96 4756   4.168   9.549   0.527
   12CHTO  H183 4757   4.122   9.621   0.594
   12CHTO   C98 4758   4.321   9.576   0.520
   12CHTO  H185 4759   4.362   9.526   0.431
   12CHTO   O67 4760   4.338   9.717   0.495
   12CHTO  H167 4761   4.428   9.738   0.483
   12CHTO  C102 4762   4.401   9.531   0.652
   12CHTO  H189 4763   4.373   9.603   0.730
   12CHTO   N18 4764   4.549   9.541   0.639
   12CHTO  H176 4765   4.596   9.445   0.650
   12CHTO  H177 4766   4.589   9.609   0.713
   12CHTO  C105 4767   4.353   9.390   0.694
   12CHTO  H192 4768   4.381   9.319   0.616
   12CHTO   O65 4769   4.210   9.385   0.709
   12CHTO  C100 4770   4.140   9.405   0.585
   12CHTO  H187 4771   4.174   9.329   0.513
   12CHTO  C107 4772   3.989   9.381   0.612
   12CHTO   O70 4773   3.915   9.368   0.490
   12CHTO  H170 4774   3.912   9.451   0.446
   12CHTO   O57 4775   4.428   9.346   0.835
   12CHTO   C85 4776   4.388   9.400   0.961
   12CHTO  H157 4777   4.291   9.453   0.946
   12CHTO   C83 4778   4.490   9.510   1.006
   12CHTO  H155 4779   4.487   9.591   0.932
   12CHTO   O56 4780   4.624   9.457   1.003
   12CHTO  H135 4781   4.648   9.433   0.916
   12CHTO   C81 4782   4.446   9.568   1.143
   12CHTO  H153 4783   4.345   9.607   1.134
   12CHTO   N14 4784   4.527   9.686   1.184
   12CHTO  H141 4785   4.629   9.657   1.199
   12CHTO  H142 4786   4.523   9.761   1.108
   12CHTO   C79 4787   4.444   9.452   1.251
   12CHTO  H151 4788   4.402   9.495   1.343
   12CHTO   O52 4789   4.352   9.346   1.210
   12CHTO   C86 4790   4.377   9.292   1.076
   12CHTO  H158 4791   4.473   9.236   1.087
   12CHTO   C90 4792   4.271   9.184   1.042
   12CHTO   O60 4793   4.138   9.238   1.042
   12CHTO  H138 4794   4.113   9.262   1.130
   12CHTO   O50 4795   4.573   9.397   1.281
   12CHTO   C73 4796   4.635   9.321   1.386
   12CHTO  H145 4797   4.571   9.236   1.414
   12CHTO   C74 4798   4.658   9.409   1.513
   12CHTO  H146 4799   4.560   9.447   1.544
   12CHTO   O54 4800   4.704   9.323   1.619
   12CHTO  H133 4801   4.715   9.372   1.698
   12CHTO   C75 4802   4.758   9.526   1.477
   12CHTO  H147 4803   4.712   9.590   1.401
   12CHTO   N13 4804   4.787   9.617   1.591
   12CHTO  H139 4805   4.854   9.695   1.559
   12CHTO  H140 4806   4.834   9.562   1.671
   12CHTO   C76 4807   4.892   9.466   1.412
   12CHTO  H148 4808   4.945   9.410   1.490
   12CHTO   O49 4809   4.860   9.376   1.301
   12CHTO   C77 4810   4.773   9.267   1.336
   12CHTO  H149 4811   4.818   9.207   1.415
   12CHTO   C88 4812   4.759   9.175   1.215
   12CHTO   O58 4813   4.675   9.058   1.246
   12CHTO  H136 4814   4.667   9.004   1.169
   12CHTO   O51 4815   4.986   9.587   1.348
   12CHTO   C78 4816   5.110   9.531   1.262
   12CHTO  H150 4817   5.087   9.432   1.219
   12CHTO   C80 4818   5.236   9.518   1.350
   12CHTO  H152 4819   5.262   9.619   1.390
   12CHTO   O55 4820   5.203   9.432   1.461
   12CHTO  H134 4821   5.142   9.474   1.518
   12CHTO   C84 4822   5.357   9.462   1.266
   12CHTO  H156 4823   5.330   9.361   1.235
   12CHTO   N15 4824   5.483   9.450   1.349
   12CHTO  H143 4825   5.562   9.510   1.308
   12CHTO  H144 4826   5.515   9.348   1.353
   12CHTO   C87 4827   5.379   9.547   1.138
   12CHTO  H159 4828   5.419   9.645   1.166
   12CHTO   O53 4829   5.243   9.567   1.063
   12CHTO   C82 4830   5.140   9.626   1.144
   12CHTO  H154 4831   5.171   9.724   1.178
   12CHTO   C89 4832   5.017   9.647   1.052
   12CHTO   O59 4833   4.917   9.730   1.113
   12CHTO  H137 4834   4.948   9.817   1.121
   12CHTO   O45 4835   5.488   9.466   1.037
   12CHTO   C67 4836   5.530   9.523   0.911
   12CHTO  H124 4837   5.626   9.476   0.887
   12CHTO   C65 4838   5.429   9.487   0.797
   12CHTO  H122 4839   5.336   9.458   0.846
   12CHTO   O44 4840   5.484   9.373   0.729
   12CHTO  H102 4841   5.421   9.338   0.669
   12CHTO   C63 4842   5.389   9.610   0.706
   12CHTO  H120 4843   5.326   9.677   0.765
   12CHTO   N11 4844   5.301   9.579   0.589
   12CHTO  H108 4845   5.354   9.519   0.518
   12CHTO  H109 4846   5.213   9.528   0.622
   12CHTO   C61 4847   5.519   9.690   0.669
   12CHTO  H118 4848   5.486   9.782   0.618
   12CHTO   O40 4849   5.594   9.733   0.786
   12CHTO   C68 4850   5.561   9.679   0.918
   12CHTO  H125 4851   5.476   9.736   0.960
   12CHTO   C72 4852   5.685   9.710   1.005
   12CHTO   O48 4853   5.669   9.677   1.144
   12CHTO  H105 4854   5.748   9.697   1.190
   12CHTO   O38 4855   5.608   9.614   0.585
   12CHTO   C55 4856   5.702   9.692   0.508
   12CHTO  H112 4857   5.718   9.790   0.555
   12CHTO   C56 4858   5.652   9.705   0.358
   12CHTO  H113 4859   5.632   9.603   0.322
   12CHTO   O42 4860   5.526   9.775   0.355
   12CHTO  H100 4861   5.493   9.778   0.268
   12CHTO   C57 4862   5.761   9.776   0.267
   12CHTO  H114 4863   5.765   9.881   0.298
   12CHTO   N10 4864   5.726   9.774   0.123
   12CHTO  H106 4865   5.764   9.685   0.075
   12CHTO  H107 4866   5.769   9.860   0.073
   12CHTO   C58 4867   5.900   9.713   0.292
   12CHTO  H115 4868   5.901   9.609   0.251
   12CHTO   O37 4869   5.929   9.708   0.433
   12CHTO   C59 4870   5.842   9.623   0.508
   12CHTO  H116 4871   5.837   9.524   0.462
   12CHTO   C70 4872   5.901   9.609   0.649
   12CHTO   O46 4873   5.839   9.506   0.726
   12CHTO  H103 4874   5.749   9.529   0.744
   12CHTO   O39 4875   6.019   9.803   0.216
   12CHTO   C60 4876   6.153   9.781   0.263
   12CHTO  H117 4877   6.151   9.720   0.354
   12CHTO   C62 4878   6.239   9.705   0.159
   12CHTO  H119 4879   6.182   9.613   0.133
   12CHTO   O43 4880   6.254   9.782   0.038
   12CHTO  H101 4881   6.302   9.860   0.056
   12CHTO   C66 4882   6.376   9.663   0.230
   12CHTO  H123 4883   6.353   9.606   0.320
   12CHTO   N12 4884   6.459   9.573   0.146
   12CHTO  H110 4885   6.549   9.545   0.199
   12CHTO  H111 4886   6.483   9.621   0.052
   12CHTO   C69 4887   6.454   9.790   0.275
   12CHTO  H126 4888   6.500   9.841   0.187
   12CHTO   O41 4889   6.359   9.895   0.352
   12CHTO   C64 4890   6.219   9.916   0.301
   12CHTO  H121 4891   6.221   9.983   0.212
   12CHTO   C71 4892   6.142   9.988   0.415
   12CHTO   O47 4893   6.014   0.038   0.371
   12CHTO  H104 4894   5.972   0.082   0.442
   12CHTO   O34 4895   6.571   9.748   0.374
   12CHTO   C49 4896   6.589   9.734   0.533
   12CHTO   H91 4897   6.648   9.820   0.565
   12CHTO   C47 4898   6.667   9.604   0.561
   12CHTO   H89 4899   6.689   9.603   0.671
   12CHTO   O33 4900   6.791   9.609   0.489
   12CHTO   H70 4901   6.844   9.534   0.511
   12CHTO   C45 4902   6.574   9.477   0.523
   12CHTO   H87 4903   6.543   9.489   0.418
   12CHTO    N8 4904   6.646   9.347   0.536
   12CHTO   H75 4905   6.591   9.279   0.599
   12CHTO   H76 4906   6.745   9.362   0.575
   12CHTO   C43 4907   6.435   9.483   0.607
   12CHTO   H85 4908   6.373   9.406   0.563
   12CHTO   O29 4909   6.374   9.613   0.597
   12CHTO   C50 4910   6.455   9.732   0.610
   12CHTO   H92 4911   6.395   9.815   0.571
   12CHTO   C54 4912   6.474   9.773   0.758
   12CHTO   O36 4913   6.351   9.815   0.818
   12CHTO   H72 4914   6.324   9.897   0.781
   12CHTO   O27 4915   6.451   9.445   0.745
   12CHTO   C37 4916   6.372   9.383   0.849
   12CHTO   H79 4917   6.439   9.347   0.929
   12CHTO   C38 4918   6.275   9.487   0.914
   12CHTO   H80 4919   6.227   9.545   0.834
   12CHTO   O31 4920   6.355   9.577   0.994
   12CHTO   H68 4921   6.397   9.531   1.064
   12CHTO   C39 4922   6.163   9.420   1.004
   12CHTO   H81 4923   6.212   9.384   1.094
   12CHTO    N7 4924   6.058   9.518   1.048
   12CHTO   H73 4925   6.006   9.559   0.963
   12CHTO   H74 4926   5.987   9.469   1.114
   12CHTO   C40 4927   6.100   9.295   0.933
   12CHTO   H82 4928   6.038   9.326   0.848
   12CHTO   O26 4929   6.204   9.206   0.893
   12CHTO   C41 4930   6.294   9.262   0.792
   12CHTO   H83 4931   6.235   9.293   0.704
   12CHTO   C52 4932   6.389   9.148   0.747
   12CHTO   O35 4933   6.318   9.038   0.680
   12CHTO   H71 4934   6.379   8.972   0.656
   12CHTO   O28 4935   6.022   9.214   1.024
   12CHTO   C42 4936   5.906   9.136   0.980
   12CHTO   H84 4937   5.901   9.055   1.054
   12CHTO   C44 4938   5.912   9.066   0.840
   12CHTO   H86 4939   5.923   9.143   0.764
   12CHTO   O32 4940   6.030   8.983   0.839
   12CHTO   H69 4941   6.107   9.036   0.839
   12CHTO   C48 4942   5.782   8.982   0.808
   12CHTO   H90 4943   5.784   8.894   0.872
   12CHTO    N9 4944   5.783   8.928   0.667
   12CHTO   H77 4945   5.788   9.010   0.596
   12CHTO   H78 4946   5.868   8.862   0.653
   12CHTO   C51 4947   5.650   9.062   0.839
   12CHTO   H93 4948   5.636   9.138   0.762
   12CHTO   O30 4949   5.655   9.119   0.971
   12CHTO   C46 4950   5.772   9.215   0.991
   12CHTO   H88 4951   5.769   9.291   0.913
   12CHTO   C53 4952   5.756   9.283   1.130
   12CHTO   O72 4953   5.750   9.188   1.237
   12CHTO  H199 4954   5.741   9.233   1.318
   12CHTO   O22 4955   5.537   8.972   0.843
   12CHTO   C31 4956   5.396   9.010   0.824
   12CHTO   H59 4957   5.337   8.918   0.846
   12CHTO   C29 4958   5.344   9.119   0.921
   12CHTO   H57 4959   5.401   9.212   0.904
   12CHTO   O21 4960   5.370   9.078   1.056
   12CHTO   H37 4961   5.462   9.076   1.072
   12CHTO   C27 4962   5.190   9.149   0.896
   12CHTO   H55 4963   5.133   9.059   0.922
   12CHTO    N5 4964   5.139   9.262   0.978
   12CHTO   H43 4965   5.033   9.272   0.965
   12CHTO   H44 4966   5.189   9.354   0.949
   12CHTO   C25 4967   5.164   9.174   0.743
   12CHTO   H53 4968   5.211   9.270   0.713
   12CHTO   O17 4969   5.220   9.068   0.661
   12CHTO   C32 4970   5.361   9.049   0.677
   12CHTO   H60 4971   5.414   9.141   0.651
   12CHTO   C36 4972   5.406   8.940   0.576
   12CHTO   O25 4973   5.342   8.814   0.601
   12CHTO   H40 4974   5.374   8.750   0.540
   12CHTO   O15 4975   5.014   9.180   0.713
   12CHTO   C19 4976   4.894   9.218   0.641
   12CHTO   H47 4977   4.880   9.324   0.668
   12CHTO   C20 4978   4.905   9.205   0.486
   12CHTO   H48 4979   4.932   9.102   0.456
   12CHTO   O19 4980   5.012   9.292   0.445
   12CHTO   H35 4981   5.029   9.280   0.353
   12CHTO   C21 4982   4.768   9.243   0.414
   12CHTO   H49 4983   4.751   9.350   0.428
   12CHTO    N4 4984   4.770   9.218   0.268
   12CHTO   H41 4985   4.676   9.248   0.224
   12CHTO   H42 4986   4.850   9.274   0.222
   12CHTO   C22 4987   4.652   9.168   0.484
   12CHTO   H50 4988   4.662   9.061   0.465
   12CHTO   O14 4989   4.653   9.194   0.625
   12CHTO   C23 4990   4.768   9.143   0.692
   12CHTO   H51 4991   4.774   9.035   0.672
   12CHTO   C34 4992   4.748   9.162   0.843
   12CHTO   O23 4993   4.636   9.085   0.891
   12CHTO   H38 4994   4.626   9.099   0.983
   12CHTO   O16 4995   4.522   9.216   0.445
   12CHTO   C24 4996   4.418   9.102   0.395
   12CHTO   H52 4997   4.469   9.016   0.351
   12CHTO   C26 4998   4.328   9.168   0.288
   12CHTO   H54 4999   4.285   9.261   0.331
   12CHTO   O20 5000   4.411   9.207   0.176
   12CHTO   H36 5001   4.448   9.131   0.135
   12CHTO   C30 5002   4.211   9.074   0.244
   12CHTO   H58 5003   4.252   8.991   0.184
   12CHTO    N6 5004   4.115   9.144   0.153
   12CHTO   H45 5005   4.016   9.150   0.197
   12CHTO   H46 5006   4.148   9.243   0.128
   12CHTO   C33 5007   4.140   9.010   0.367
   12CHTO   H61 5008   4.080   9.086   0.419
   12CHTO   O18 5009   4.236   8.956   0.460
   12CHTO   C28 5010   4.332   9.049   0.512
   12CHTO   H56 5011   4.281   9.132   0.561
   12CHTO   C35 5012   4.417   8.973   0.617
   12CHTO   O24 5013   4.343   8.933   0.732
   12CHTO   H39 5014   4.281   8.865   0.709
   12CHTO    O9 5015   4.044   8.909   0.327
   12CHTO   C13 5016   4.114   8.767   0.282
   12CHTO   H26 5017   4.222   8.785   0.263
   12CHTO   C11 5018   4.040   8.710   0.154
   12CHTO   H24 5019   4.056   8.782   0.072
   12CHTO    O8 5020   3.898   8.700   0.175
   12CHTO    H3 5021   3.880   8.639   0.244
   12CHTO    C9 5022   4.110   8.577   0.116
   12CHTO   H22 5023   4.216   8.602   0.102
   12CHTO    N2 5024   4.067   8.521   2.855
   12CHTO   H10 5025   3.982   8.574   2.816
   12CHTO   H11 5026   4.149   8.523   2.784
   12CHTO    C7 5027   4.098   8.474   0.235
   12CHTO   H20 5028   4.170   8.395   0.206
   12CHTO    O4 5029   4.142   8.528   0.362
   12CHTO   C14 5030   4.110   8.663   0.402
   12CHTO   H27 5031   4.189   8.693   0.474
   12CHTO   C18 5032   3.975   8.668   0.480
   12CHTO   O13 5033   3.979   8.590   0.600
   12CHTO    H7 5034   4.037   8.630   0.662
   12CHTO    O2 5035   3.945   8.409   0.252
   12CHTO    C1 5036   3.932   8.306   0.352
   12CHTO   H14 5037   3.976   8.343   0.447
   12CHTO    C2 5038   3.998   8.166   0.316
   12CHTO   H15 5039   3.955   8.135   0.219
   12CHTO    O6 5040   4.140   8.181   0.302
   12CHTO    H1 5041   4.179   8.101   0.271
   12CHTO    C3 5042   3.964   8.056   0.428
   12CHTO   H16 5043   4.018   8.084   0.521
   12CHTO    N1 5044   4.012   7.918   0.391
   12CHTO    H8 5045   3.990   7.849   0.470
   12CHTO    H9 5046   3.963   7.886   0.300
   12CHTO    C4 5047   3.811   8.058   0.465
   12CHTO   H17 5048   3.754   8.012   0.384
   12CHTO    O1 5049   3.764   8.192   0.490
   12CHTO    C5 5050   3.780   8.283   0.380
   12CHTO   H18 5051   3.736   8.240   0.290
   12CHTO   C16 5052   3.705   8.413   0.415
   12CHTO   O11 5053   3.564   8.390   0.432
   12CHTO    H5 5054   3.549   8.341   0.510
   12CHTO    O3 5055   3.788   7.989   0.590
   12CHTO    C6 5056   3.657   7.925   0.604
   12CHTO   H19 5057   3.586   7.956   0.527
   12CHTO    C8 5058   3.674   7.770   0.596
   12CHTO   H21 5059   3.755   7.741   0.664
   12CHTO    O7 5060   3.711   7.738   0.460
   12CHTO    H2 5061   3.798   7.769   0.442
   12CHTO   C12 5062   3.542   7.695   0.639
   12CHTO   H25 5063   3.467   7.717   0.560
   12CHTO    N3 5064   3.561   7.546   0.641
   12CHTO   H12 5065   3.590   7.511   0.543
   12CHTO   H13 5066   3.470   7.498   0.672
   12CHTO   C15 5067   3.490   7.754   0.775
   12CHTO   H28 5068   3.556   7.729   0.858
   12CHTO   O10 5069   3.349   7.711   0.808
   12CHTO    H4 5070   3.347   7.619   0.824
   12CHTO    O5 5071   3.473   7.896   0.765
   12CHTO   C10 5072   3.596   7.967   0.741
   12CHTO   H23 5073   3.666   7.944   0.822
   12CHTO   C17 5074   3.565   8.117   0.746
   12CHTO   O12 5075   3.517   8.158   0.875
   12CHTO    H6 5076   3.432   8.121   0.890
   13CHTO  H203 5077   7.718   4.480   2.373
   13CHTO   O82 5078   7.627   4.500   2.379
   13CHTO  C123 5079   7.574   4.529   2.249
   13CHTO  H227 5080   7.587   4.440   2.185
   13CHTO   O77 5081   7.432   4.550   2.276
   13CHTO  C118 5082   7.353   4.588   2.162
   13CHTO  H222 5083   7.367   4.515   2.081
   13CHTO  C125 5084   7.201   4.587   2.205
   13CHTO   O84 5085   7.158   4.454   2.236
   13CHTO  H205 5086   7.156   4.402   2.158
   13CHTO  C114 5087   7.400   4.727   2.116
   13CHTO  H218 5088   7.398   4.795   2.201
   13CHTO  C116 5089   7.548   4.715   2.069
   13CHTO  H220 5090   7.553   4.646   1.981
   13CHTO   O79 5091   7.594   4.843   2.022
   13CHTO  H201 5092   7.593   4.906   2.092
   13CHTO  C120 5093   7.639   4.658   2.185
   13CHTO  H224 5094   7.646   4.737   2.261
   13CHTO   N21 5095   7.779   4.631   2.140
   13CHTO  H211 5096   7.781   4.603   2.036
   13CHTO  H212 5097   7.840   4.718   2.157
   13CHTO   O75 5098   7.309   4.771   2.013
   13CHTO  C112 5099   7.249   4.926   2.042
   13CHTO  H216 5100   7.324   4.983   2.099
   13CHTO   O73 5101   7.126   4.910   2.116
   13CHTO  C113 5102   7.059   5.033   2.148
   13CHTO  H217 5103   7.128   5.098   2.205
   13CHTO  C124 5104   6.941   5.002   2.242
   13CHTO   O83 5105   6.846   4.911   2.185
   13CHTO  H204 5106   6.776   4.897   2.247
   13CHTO  C109 5107   7.017   5.107   2.018
   13CHTO  H213 5108   6.948   5.040   1.964
   13CHTO  C110 5109   7.144   5.133   1.932
   13CHTO  H214 5110   7.209   5.202   1.986
   13CHTO   O78 5111   7.104   5.198   1.810
   13CHTO  H200 5112   7.073   5.285   1.827
   13CHTO  C111 5113   7.220   5.000   1.906
   13CHTO  H215 5114   7.156   4.934   1.844
   13CHTO   N19 5115   7.346   5.018   1.830
   13CHTO  H207 5116   7.394   4.923   1.813
   13CHTO  H208 5117   7.326   5.066   1.735
   13CHTO   O74 5118   6.948   5.233   2.047
   13CHTO  C115 5119   6.784   5.243   2.013
   13CHTO  H219 5120   6.765   5.297   1.920
   13CHTO   O76 5121   6.719   5.098   1.991
   13CHTO  C122 5122   6.576   5.088   1.992
   13CHTO  H226 5123   6.551   4.983   1.997
   13CHTO  C126 5124   6.517   5.140   1.855
   13CHTO   O85 5125   6.376   5.124   1.846
   13CHTO  H206 5126   6.333   5.180   1.907
   13CHTO  C121 5127   6.515   5.161   2.117
   13CHTO  H225 5128   6.405   5.157   2.108
   13CHTO   O81 5129   6.551   5.089   2.236
   13CHTO  H202 5130   6.504   5.123   2.310
   13CHTO  C119 5131   6.559   5.310   2.126
   13CHTO  H223 5132   6.525   5.357   2.034
   13CHTO  C117 5133   6.716   5.322   2.132
   13CHTO  H221 5134   6.763   5.283   2.221
   13CHTO   N20 5135   6.757   5.466   2.127
   13CHTO  H209 5136   6.713   5.520   2.210
   13CHTO  H210 5137   6.725   5.511   2.033
   13CHTO   O80 5138   6.477   5.395   2.241
   13CHTO  C103 5139   6.339   5.475   2.202
   13CHTO  H190 5140   6.317   5.546   2.281
   13CHTO  C101 5141   6.338   5.553   2.065
   13CHTO  H188 5142   6.364   5.485   1.984
   13CHTO   O68 5143   6.444   5.662   2.071
   13CHTO  H168 5144   6.451   5.704   1.988
   13CHTO   C99 5145   6.193   5.613   2.035
   13CHTO  H186 5146   6.166   5.685   2.115
   13CHTO   N17 5147   6.180   5.685   1.903
   13CHTO  H174 5148   6.272   5.678   1.847
   13CHTO  H175 5149   6.153   5.788   1.920
   13CHTO   C97 5150   6.088   5.498   2.046
   13CHTO  H184 5151   6.107   5.426   1.964
   13CHTO   O64 5152   6.098   5.435   2.175
   13CHTO  C104 5153   6.222   5.368   2.202
   13CHTO  H191 5154   6.243   5.291   2.129
   13CHTO  C108 5155   6.204   5.297   2.337
   13CHTO   O71 5156   6.309   5.205   2.368
   13CHTO  H171 5157   6.389   5.252   2.382
   13CHTO   O62 5158   5.952   5.545   2.042
   13CHTO   C91 5159   5.851   5.447   2.009
   13CHTO  H178 5160   5.896   5.348   2.010
   13CHTO   C92 5161   5.802   5.472   1.863
   13CHTO  H179 5162   5.771   5.577   1.854
   13CHTO   O66 5163   5.914   5.456   1.774
   13CHTO  H166 5164   5.890   5.479   1.686
   13CHTO   C93 5165   5.683   5.375   1.822
   13CHTO  H180 5166   5.725   5.274   1.813
   13CHTO   N16 5167   5.624   5.407   1.689
   13CHTO  H172 5168   5.546   5.337   1.666
   13CHTO  H173 5169   5.586   5.508   1.689
   13CHTO   C94 5170   5.573   5.375   1.934
   13CHTO  H181 5171   5.525   5.472   1.944
   13CHTO   O61 5172   5.632   5.346   2.062
   13CHTO   C95 5173   5.727   5.444   2.106
   13CHTO  H182 5174   5.679   5.542   2.107
   13CHTO  C106 5175   5.765   5.409   2.254
   13CHTO   O69 5176   5.842   5.513   2.315
   13CHTO  H169 5177   5.927   5.518   2.275
   13CHTO   O63 5178   5.462   5.257   1.905
   13CHTO   C96 5179   5.314   5.284   1.959
   13CHTO  H183 5180   5.249   5.214   1.905
   13CHTO   C98 5181   5.257   5.426   1.935
   13CHTO  H185 5182   5.326   5.502   1.974
   13CHTO   O67 5183   5.252   5.445   1.793
   13CHTO  H167 5184   5.338   5.455   1.758
   13CHTO  C102 5185   5.112   5.447   2.001
   13CHTO  H189 5186   5.043   5.387   1.940
   13CHTO   N18 5187   5.062   5.587   1.994
   13CHTO  H176 5188   5.130   5.653   2.045
   13CHTO  H177 5189   5.053   5.617   1.890
   13CHTO  C105 5190   5.112   5.393   2.147
   13CHTO  H192 5191   5.171   5.459   2.210
   13CHTO   O65 5192   5.167   5.261   2.157
   13CHTO  C100 5193   5.303   5.248   2.112
   13CHTO  H187 5194   5.367   5.316   2.170
   13CHTO  C107 5195   5.350   5.103   2.141
   13CHTO   O70 5196   5.270   5.005   2.074
   13CHTO  H170 5197   5.183   5.005   2.109
   13CHTO   O57 5198   4.954   5.390   2.202
   13CHTO   C85 5199   4.853   5.311   2.136
   13CHTO  H157 5200   4.900   5.267   2.045
   13CHTO   C83 5201   4.742   5.407   2.083
   13CHTO  H155 5202   4.787   5.475   2.011
   13CHTO   O56 5203   4.693   5.489   2.191
   13CHTO  H135 5204   4.632   5.553   2.159
   13CHTO   C81 5205   4.632   5.324   2.012
   13CHTO  H153 5206   4.679   5.267   1.931
   13CHTO   N14 5207   4.530   5.408   1.943
   13CHTO  H141 5208   4.536   5.395   1.837
   13CHTO  H142 5209   4.542   5.511   1.967
   13CHTO   C79 5210   4.568   5.221   2.113
   13CHTO  H151 5211   4.500   5.158   2.056
   13CHTO   O52 5212   4.673   5.132   2.164
   13CHTO   C86 5213   4.786   5.201   2.227
   13CHTO  H158 5214   4.743   5.246   2.319
   13CHTO   C90 5215   4.890   5.097   2.275
   13CHTO   O60 5216   4.943   5.019   2.167
   13CHTO  H138 5217   4.996   5.073   2.112
   13CHTO   O50 5218   4.497   5.281   2.222
   13CHTO   C73 5219   4.370   5.244   2.279
   13CHTO  H145 5220   4.315   5.178   2.209
   13CHTO   C74 5221   4.283   5.371   2.304
   13CHTO  H146 5222   4.275   5.425   2.209
   13CHTO   O54 5223   4.149   5.326   2.336
   13CHTO  H133 5224   4.092   5.399   2.346
   13CHTO   C75 5225   4.348   5.459   2.418
   13CHTO  H147 5226   4.446   5.495   2.382
   13CHTO   N13 5227   4.271   5.582   2.452
   13CHTO  H139 5228   4.263   5.645   2.365
   13CHTO  H140 5229   4.172   5.555   2.485
   13CHTO   C76 5230   4.374   5.369   2.547
   13CHTO  H148 5231   4.276   5.335   2.582
   13CHTO   O49 5232   4.453   5.251   2.512
   13CHTO   C77 5233   4.389   5.168   2.414
   13CHTO  H149 5234   4.291   5.137   2.452
   13CHTO   C88 5235   4.469   5.038   2.402
   13CHTO   O58 5236   4.406   4.944   2.306
   13CHTO  H136 5237   4.413   4.978   2.219
   13CHTO   O51 5238   4.454   5.452   2.671
   13CHTO   C78 5239   4.620   5.473   2.672
   13CHTO  H150 5240   4.647   5.534   2.761
   13CHTO   C80 5241   4.672   5.544   2.546
   13CHTO  H152 5242   4.648   5.482   2.457
   13CHTO   O55 5243   4.603   5.670   2.537
   13CHTO  H134 5244   4.513   5.656   2.514
   13CHTO   C84 5245   4.828   5.565   2.554
   13CHTO  H156 5246   4.849   5.627   2.642
   13CHTO   N15 5247   4.888   5.635   2.435
   13CHTO  H143 5248   4.938   5.725   2.467
   13CHTO  H144 5249   4.812   5.661   2.364
   13CHTO   C87 5250   4.896   5.427   2.578
   13CHTO  H159 5251   4.884   5.364   2.490
   13CHTO   O53 5252   4.833   5.359   2.703
   13CHTO   C82 5253   4.691   5.337   2.690
   13CHTO  H154 5254   4.673   5.271   2.605
   13CHTO   C89 5255   4.638   5.265   2.816
   13CHTO   O59 5256   4.693   5.133   2.828
   13CHTO  H137 5257   4.786   5.137   2.841
   13CHTO   O45 5258   5.053   5.445   2.610
   13CHTO   C67 5259   5.126   5.321   2.608
   13CHTO  H124 5260   5.068   5.241   2.562
   13CHTO   C65 5261   5.259   5.341   2.528
   13CHTO  H122 5262   5.230   5.392   2.436
   13CHTO   O44 5263   5.316   5.214   2.495
   13CHTO  H102 5264   5.347   5.170   2.572
   13CHTO   C63 5265   5.351   5.442   2.606
   13CHTO  H120 5266   5.296   5.534   2.622
   13CHTO   N11 5267   5.471   5.491   2.530
   13CHTO  H108 5268   5.441   5.530   2.436
   13CHTO  H109 5269   5.540   5.410   2.514
   13CHTO   C61 5270   5.384   5.383   2.749
   13CHTO  H118 5271   5.434   5.465   2.803
   13CHTO   O40 5272   5.262   5.353   2.823
   13CHTO   C68 5273   5.155   5.276   2.757
   13CHTO  H125 5274   5.062   5.298   2.815
   13CHTO   C72 5275   5.179   5.123   2.769
   13CHTO   O48 5276   5.174   5.076   0.034
   13CHTO  H105 5277   5.086   5.082   0.067
   13CHTO   O38 5278   5.468   5.265   2.747
   13CHTO   C55 5279   5.570   5.246   2.848
   13CHTO  H112 5280   5.598   5.140   2.840
   13CHTO   C56 5281   5.525   5.283   0.126
   13CHTO  H113 5282   5.486   5.386   0.125
   13CHTO   O42 5283   5.415   5.199   0.166
   13CHTO  H100 5284   5.442   5.109   0.166
   13CHTO   C57 5285   5.646   5.272   0.228
   13CHTO  H114 5286   5.668   5.166   0.237
   13CHTO   N10 5287   5.614   5.321   0.365
   13CHTO  H106 5288   5.510   5.303   0.388
   13CHTO  H107 5289   5.634   5.427   0.373
   13CHTO   C58 5290   5.770   5.344   0.171
   13CHTO  H115 5291   5.751   5.454   0.167
   13CHTO   O37 5292   5.802   5.298   0.039
   13CHTO   C59 5293   5.700   5.323   2.810
   13CHTO  H116 5294   5.681   5.430   2.804
   13CHTO   C70 5295   5.752   5.275   2.674
   13CHTO   O46 5296   5.860   5.356   2.625
   13CHTO  H103 5297   5.888   5.323   2.542
   13CHTO   O39 5298   5.904   5.313   0.264
   13CHTO   C60 5299   6.011   5.406   0.240
   13CHTO  H117 5300   6.013   5.431   0.133
   13CHTO   C62 5301   5.992   5.538   0.320
   13CHTO  H119 5302   5.893   5.580   0.290
   13CHTO   O43 5303   5.989   5.510   0.461
   13CHTO  H101 5304   5.912   5.461   0.483
   13CHTO   C66 5305   6.107   5.643   0.278
   13CHTO  H123 5306   6.101   5.658   0.170
   13CHTO   N12 5307   6.088   5.777   0.339
   13CHTO  H110 5308   5.994   5.819   0.307
   13CHTO  H111 5309   6.093   5.770   0.446
   13CHTO   C69 5310   6.248   5.584   0.306
   13CHTO  H126 5311   6.264   5.575   0.416
   13CHTO   O41 5312   6.262   5.440   0.238
   13CHTO   C64 5313   6.148   5.342   0.274
   13CHTO  H121 5314   6.151   5.318   0.382
   13CHTO   C71 5315   6.169   5.210   0.195
   13CHTO   O47 5316   6.289   5.144   0.235
   13CHTO  H104 5317   6.281   5.111   0.322
   13CHTO   O34 5318   6.360   5.678   0.246
   13CHTO   C49 5319   6.512   5.679   0.247
   13CHTO   H91 5320   6.544   5.576   0.227
   13CHTO   C47 5321   6.562   5.724   0.386
   13CHTO   H89 5322   6.673   5.713   0.381
   13CHTO   O33 5323   6.513   5.637   0.490
   13CHTO   H70 5324   6.420   5.643   0.497
   13CHTO   C45 5325   6.520   5.878   0.417
   13CHTO   H87 5326   6.424   5.878   0.469
   13CHTO    N8 5327   6.622   5.939   0.507
   13CHTO   H75 5328   6.659   6.032   0.465
   13CHTO   H76 5329   6.705   5.873   0.525
   13CHTO   C43 5330   6.490   5.958   0.278
   13CHTO   H85 5331   6.387   5.933   0.253
   13CHTO   O29 5332   6.582   5.915   0.176
   13CHTO   C50 5333   6.573   5.775   0.140
   13CHTO   H92 5334   6.512   5.766   0.049
   13CHTO   C54 5335   6.713   5.726   0.096
   13CHTO   O36 5336   6.765   5.802   2.855
   13CHTO   H72 5337   6.715   5.784   2.778
   13CHTO   O27 5338   6.491   6.101   0.291
   13CHTO   C37 5339   6.391   6.203   0.292
   13CHTO   H79 5340   6.306   6.174   0.227
   13CHTO   C38 5341   6.334   6.225   0.435
   13CHTO   H80 5342   6.418   6.244   0.503
   13CHTO   O31 5343   6.269   6.103   0.476
   13CHTO   H68 5344   6.332   6.035   0.489
   13CHTO   C39 5345   6.233   6.347   0.440
   13CHTO   H81 5346   6.145   6.316   0.384
   13CHTO    N7 5347   6.186   6.381   0.579
   13CHTO   H73 5348   6.216   6.481   0.607
   13CHTO   H74 5349   6.223   6.309   0.651
   13CHTO   C40 5350   6.292   6.474   0.367
   13CHTO   H82 5351   6.366   6.525   0.430
   13CHTO   O26 5352   6.347   6.440   0.238
   13CHTO   C41 5353   6.450   6.337   0.240
   13CHTO   H83 5354   6.532   6.369   0.306
   13CHTO   C52 5355   6.509   6.324   0.097
   13CHTO   O35 5356   6.411   6.292   2.865
   13CHTO   H71 5357   6.378   6.205   0.009
   13CHTO   O28 5358   6.186   6.564   0.333
   13CHTO   C42 5359   6.202   6.710   0.327
   13CHTO   H84 5360   6.308   6.725   0.304
   13CHTO   C44 5361   6.175   6.785   0.461
   13CHTO   H86 5362   6.075   6.756   0.497
   13CHTO   O32 5363   6.271   6.736   0.557
   13CHTO   H69 5364   6.254   6.773   0.641
   13CHTO   C48 5365   6.178   6.942   0.445
   13CHTO   H90 5366   6.280   6.973   0.420
   13CHTO    N9 5367   6.144   7.013   0.574
   13CHTO   H77 5368   6.150   7.120   0.560
   13CHTO   H78 5369   6.045   6.985   0.606
   13CHTO   C51 5370   6.082   6.981   0.327
   13CHTO   H93 5371   5.982   6.943   0.353
   13CHTO   O30 5372   6.133   6.920   0.209
   13CHTO   C46 5373   6.121   6.772   0.208
   13CHTO   H88 5374   6.015   6.745   0.219
   13CHTO   C53 5375   6.173   6.726   0.071
   13CHTO   O72 5376   6.152   6.586   0.051
   13CHTO  H199 5377   6.188   6.561   2.838
   13CHTO   O22 5378   6.076   7.121   0.294
   13CHTO   C31 5379   5.950   7.183   0.247
   13CHTO   H59 5380   5.981   7.277   0.196
   13CHTO   C29 5381   5.873   7.099   0.141
   13CHTO   H57 5382   5.867   6.995   0.179
   13CHTO   O21 5383   5.953   7.093   0.022
   13CHTO   H37 5384   6.033   7.047   0.038
   13CHTO   C27 5385   5.726   7.150   0.113
   13CHTO   H55 5386   5.732   7.247   0.062
   13CHTO    N5 5387   5.648   7.057   0.027
   13CHTO   H43 5388   5.640   6.960   0.075
   13CHTO   H44 5389   5.696   7.046   2.801
   13CHTO   C25 5390   5.655   7.174   0.250
   13CHTO   H53 5391   5.653   7.079   0.307
   13CHTO   O17 5392   5.730   7.273   0.325
   13CHTO   C32 5393   5.860   7.228   0.367
   13CHTO   H60 5394   5.849   7.144   0.437
   13CHTO   C36 5395   5.920   7.349   0.444
   13CHTO   O25 5396   6.049   7.324   0.499
   13CHTO   H40 5397   6.112   7.315   0.429
   13CHTO   O15 5398   5.512   7.225   0.236
   13CHTO   C19 5399   5.413   7.322   0.191
   13CHTO   H47 5400   5.381   7.373   0.283
   13CHTO   C20 5401   5.467   7.427   0.091
   13CHTO   H48 5402   5.509   7.380   0.000
   13CHTO   O19 5403   5.574   7.496   0.158
   13CHTO   H35 5404   5.616   7.557   0.100
   13CHTO   C21 5405   5.354   7.529   0.045
   13CHTO   H49 5406   5.324   7.588   0.132
   13CHTO    N4 5407   5.400   7.626   2.812
   13CHTO   H41 5408   5.389   7.727   2.848
   13CHTO   H42 5409   5.504   7.610   2.786
   13CHTO   C22 5410   5.228   7.450   0.001
   13CHTO   H50 5411   5.251   7.395   2.779
   13CHTO   O14 5412   5.189   7.357   0.104
   13CHTO   C23 5413   5.285   7.254   0.132
   13CHTO   H51 5414   5.307   7.201   0.038
   13CHTO   C34 5415   5.219   7.156   0.230
   13CHTO   O23 5416   5.296   7.036   0.246
   13CHTO   H38 5417   5.378   7.056   0.289
   13CHTO   O16 5418   5.117   7.540   2.846
   13CHTO   C24 5419   4.965   7.503   0.024
   13CHTO   H52 5420   4.964   7.420   0.096
   13CHTO   C26 5421   4.880   7.465   2.771
   13CHTO   H54 5422   4.887   7.548   2.697
   13CHTO   O20 5423   4.937   7.347   2.713
   13CHTO   H36 5424   4.893   7.325   2.633
   13CHTO   C30 5425   4.730   7.448   2.812
   13CHTO   H58 5426   4.720   7.361   0.008
   13CHTO    N6 5427   4.646   7.421   2.692
   13CHTO   H45 5428   4.596   7.325   2.702
   13CHTO   H46 5429   4.571   7.498   2.678
   13CHTO   C33 5430   4.682   7.573   0.023
   13CHTO   H61 5431   4.687   7.661   2.828
   13CHTO   O18 5432   4.771   7.594   0.134
   13CHTO   C28 5433   4.906   7.626   0.096
   13CHTO   H56 5434   4.908   7.711   0.028
   13CHTO   C35 5435   4.988   7.660   0.222
   13CHTO   O24 5436   4.940   7.778   0.288
   13CHTO   H39 5437   4.995   7.798   0.361
   13CHTO    O9 5438   4.545   7.565   0.066
   13CHTO   C13 5439   4.511   7.449   0.176
   13CHTO   H26 5440   4.606   7.398   0.204
   13CHTO   C11 5441   4.409   7.348   0.109
   13CHTO   H24 5442   4.462   7.296   0.027
   13CHTO    O8 5443   4.300   7.422   0.052
   13CHTO    H3 5444   4.243   7.364   0.004
   13CHTO    C9 5445   4.367   7.243   0.215
   13CHTO   H22 5446   4.460   7.192   0.245
   13CHTO    N2 5447   4.284   7.134   0.157
   13CHTO   H10 5448   4.193   7.120   0.215
   13CHTO   H11 5449   4.340   7.042   0.153
   13CHTO    C7 5450   4.309   7.315   0.345
   13CHTO   H20 5451   4.377   7.278   0.425
   13CHTO    O4 5452   4.318   7.458   0.338
   13CHTO   C14 5453   4.451   7.508   0.312
   13CHTO   H27 5454   4.517   7.476   0.396
   13CHTO   C18 5455   4.443   7.662   0.317
   13CHTO   O13 5456   4.573   7.722   0.317
   13CHTO    H7 5457   4.618   7.702   0.397
   13CHTO    O2 5458   4.153   7.275   0.385
   13CHTO    C1 5459   4.137   7.263   0.527
   13CHTO   H14 5460   4.213   7.327   0.578
   13CHTO    C2 5461   4.153   7.115   0.581
   13CHTO   H15 5462   4.074   7.055   0.533
   13CHTO    O6 5463   4.282   7.065   0.544
   13CHTO    H1 5464   4.288   6.974   0.566
   13CHTO    C3 5465   4.133   7.116   0.740
   13CHTO   H16 5466   4.218   7.169   0.786
   13CHTO    N1 5467   4.135   6.977   0.799
   13CHTO    H8 5468   4.228   6.929   0.775
   13CHTO    H9 5469   4.123   6.982   0.906
   13CHTO    C4 5470   4.004   7.196   0.782
   13CHTO   H17 5471   3.916   7.135   0.763
   13CHTO    O1 5472   3.992   7.323   0.715
   13CHTO    C5 5473   3.999   7.317   0.571
   13CHTO   H18 5474   3.922   7.249   0.534
   13CHTO   C16 5475   3.968   7.459   0.517
   13CHTO   O11 5476   4.065   7.556   0.560
   13CHTO    H5 5477   4.043   7.640   0.525
   13CHTO    O3 5478   4.013   7.232   0.922
   13CHTO    C6 5479   3.887   7.233   0.997
   13CHTO   H19 5480   3.799   7.230   0.933
   13CHTO    C8 5481   3.884   7.109   1.093
   13CHTO   H21 5482   3.978   7.105   1.147
   13CHTO    O7 5483   3.871   6.992   1.009
   13CHTO    H2 5484   3.879   6.914   1.061
   13CHTO   C12 5485   3.765   7.120   1.196
   13CHTO   H25 5486   3.672   7.109   1.137
   13CHTO    N3 5487   3.767   7.006   1.295
   13CHTO   H12 5488   3.760   6.912   1.243
   13CHTO   H13 5489   3.685   7.017   1.364
   13CHTO   C15 5490   3.764   7.262   1.263
   13CHTO   H28 5491   3.850   7.275   1.330
   13CHTO   O10 5492   3.634   7.291   1.341
   13CHTO    H4 5493   3.625   7.231   1.412
   13CHTO    O5 5494   3.763   7.365   1.163
   13CHTO   C10 5495   3.879   7.365   1.079
   13CHTO   H23 5496   3.968   7.375   1.142
   13CHTO   C17 5497   3.873   7.488   0.988
   13CHTO   O12 5498   3.882   7.610   1.063
   13CHTO    H6 5499   3.968   7.621   1.097
   14CHTO  H203 5500   6.438   4.761   2.656
   14CHTO   O82 5501   6.359   4.791   2.697
   14CHTO  C123 5502   6.260   4.822   2.597
   14CHTO  H227 5503   6.307   4.881   2.517
   14CHTO   O77 5504   6.221   4.690   2.546
   14CHTO  C118 5505   6.127   4.695   2.438
   14CHTO  H222 5506   6.169   4.756   2.356
   14CHTO  C125 5507   6.102   4.549   2.386
   14CHTO   O84 5508   6.220   4.496   2.325
   14CHTO  H205 5509   6.203   4.409   2.295
   14CHTO  C114 5510   5.996   4.759   2.486
   14CHTO  H218 5511   5.953   4.696   2.564
   14CHTO  C116 5512   6.020   4.901   2.547
   14CHTO  H220 5513   6.049   4.971   2.465
   14CHTO   O79 5514   5.895   4.949   2.600
   14CHTO  H201 5515   5.905   5.037   2.630
   14CHTO  C120 5516   6.134   4.895   2.657
   14CHTO  H224 5517   6.093   4.837   2.743
   14CHTO   N21 5518   6.167   5.032   2.707
   14CHTO  H211 5519   6.270   5.037   2.739
   14CHTO  H212 5520   6.100   5.059   2.787
   14CHTO   O75 5521   5.912   4.761   2.370
   14CHTO  C112 5522   5.759   4.727   2.402
   14CHTO  H216 5523   5.730   4.777   2.495
   14CHTO   O73 5524   5.749   4.584   2.413
   14CHTO  C113 5525   5.618   4.539   2.450
   14CHTO  H217 5526   5.589   4.589   2.546
   14CHTO  C124 5527   5.623   4.388   2.478
   14CHTO   O83 5528   5.710   4.354   2.588
   14CHTO  H204 5529   5.673   4.386   2.668
   14CHTO  C109 5530   5.516   4.574   2.339
   14CHTO  H213 5531   5.544   4.516   2.250
   14CHTO  C110 5532   5.520   4.728   2.308
   14CHTO  H214 5533   5.476   4.781   2.393
   14CHTO   O78 5534   5.438   4.756   2.193
   14CHTO  H200 5535   5.348   4.738   2.212
   14CHTO  C111 5536   5.666   4.777   2.285
   14CHTO  H215 5537   5.703   4.733   2.191
   14CHTO   N19 5538   5.677   4.925   2.270
   14CHTO  H207 5539   5.621   4.958   2.184
   14CHTO  H208 5540   5.639   4.974   2.359
   14CHTO   O74 5541   5.383   4.532   2.383
   14CHTO  C115 5542   5.282   4.497   2.267
   14CHTO  H219 5543   5.304   4.553   2.176
   14CHTO   O76 5544   5.293   4.346   2.225
   14CHTO  C122 5545   5.237   4.258   2.323
   14CHTO  H226 5546   5.295   4.271   2.415
   14CHTO  C126 5547   5.265   4.111   2.275
   14CHTO   O85 5548   5.224   4.013   2.372
   14CHTO  H206 5549   5.281   4.017   2.447
   14CHTO  C121 5550   5.083   4.286   2.347
   14CHTO  H225 5551   5.024   4.204   2.301
   14CHTO   O81 5552   5.057   4.282   2.489
   14CHTO  H202 5553   5.103   4.351   2.533
   14CHTO  C119 5554   5.036   4.422   2.286
   14CHTO  H223 5555   5.038   4.408   2.178
   14CHTO  C117 5556   5.138   4.536   2.321
   14CHTO  H221 5557   5.151   4.554   2.428
   14CHTO   N20 5558   5.094   4.669   2.265
   14CHTO  H209 5559   5.077   4.740   2.345
   14CHTO  H210 5560   5.166   4.708   2.194
   14CHTO   O80 5561   4.878   4.452   2.311
   14CHTO  C103 5562   4.775   4.419   2.200
   14CHTO  H190 5563   4.823   4.423   2.102
   14CHTO  C101 5564   4.701   4.280   2.213
   14CHTO  H188 5565   4.659   4.272   2.313
   14CHTO   O68 5566   4.802   4.166   2.193
   14CHTO  H168 5567   4.836   4.168   2.106
   14CHTO   C99 5568   4.580   4.269   2.107
   14CHTO  H186 5569   4.623   4.264   2.006
   14CHTO   N17 5570   4.494   4.146   2.124
   14CHTO  H174 5571   4.521   4.092   2.213
   14CHTO  H175 5572   4.501   4.083   2.036
   14CHTO   C97 5573   4.493   4.398   2.110
   14CHTO  H184 5574   4.435   4.400   2.204
   14CHTO   O64 5575   4.576   4.514   2.096
   14CHTO  C104 5576   4.668   4.534   2.204
   14CHTO  H191 5577   4.618   4.533   2.301
   14CHTO  C108 5578   4.732   4.673   2.190
   14CHTO   O71 5579   4.633   4.777   2.197
   14CHTO  H171 5580   4.675   4.860   2.185
   14CHTO   O62 5581   4.406   4.408   1.995
   14CHTO   C91 5582   4.274   4.462   2.018
   14CHTO  H178 5583   4.222   4.390   2.081
   14CHTO   C92 5584   4.199   4.462   1.880
   14CHTO  H179 5585   4.206   4.362   1.834
   14CHTO   O66 5586   4.059   4.481   1.907
   14CHTO  H166 5587   4.009   4.470   1.828
   14CHTO   C93 5588   4.248   4.577   1.784
   14CHTO  H180 5589   4.166   4.596   1.713
   14CHTO   N16 5590   4.363   4.538   1.699
   14CHTO  H172 5591   4.446   4.509   1.762
   14CHTO  H173 5592   4.335   4.456   1.634
   14CHTO   C94 5593   4.277   4.710   1.864
   14CHTO  H181 5594   4.384   4.724   1.883
   14CHTO   O61 5595   4.214   4.707   1.993
   14CHTO   C95 5596   4.267   4.608   2.083
   14CHTO  H182 5597   4.366   4.639   2.114
   14CHTO  C106 5598   4.178   4.607   2.213
   14CHTO   O69 5599   4.184   4.733   2.280
   14CHTO  H169 5600   4.129   4.730   2.356
   14CHTO   O63 5601   4.221   4.835   1.778
   14CHTO   C96 5602   4.208   4.971   1.861
   14CHTO  H183 5603   4.266   4.962   1.953
   14CHTO   C98 5604   4.061   5.005   1.900
   14CHTO  H185 5605   3.997   5.002   1.810
   14CHTO   O67 5606   4.011   4.900   1.985
   14CHTO  H167 5607   4.004   4.820   1.937
   14CHTO  C102 5608   4.048   5.147   1.974
   14CHTO  H189 5609   4.100   5.136   2.071
   14CHTO   N18 5610   3.909   5.189   2.007
   14CHTO  H176 5611   3.898   5.202   2.113
   14CHTO  H177 5612   3.838   5.116   1.972
   14CHTO  C105 5613   4.124   5.255   1.891
   14CHTO  H192 5614   4.069   5.275   1.799
   14CHTO   O65 5615   4.257   5.213   1.857
   14CHTO  C100 5616   4.266   5.092   1.779
   14CHTO  H187 5617   4.208   5.105   1.686
   14CHTO  C107 5618   4.415   5.073   1.740
   14CHTO   O70 5619   4.433   4.974   1.639
   14CHTO  H170 5620   4.414   4.889   1.674
   14CHTO   O57 5621   4.133   5.392   1.986
   14CHTO   C85 5622   4.060   5.510   1.947
   14CHTO  H157 5623   3.963   5.474   1.905
   14CHTO   C83 5624   4.132   5.582   1.829
   14CHTO  H155 5625   4.131   5.514   1.743
   14CHTO   O56 5626   4.271   5.604   1.863
   14CHTO  H135 5627   4.316   5.522   1.872
   14CHTO   C81 5628   4.056   5.712   1.791
   14CHTO  H153 5629   3.953   5.684   1.766
   14CHTO   N14 5630   4.107   5.776   1.668
   14CHTO  H141 5631   4.206   5.814   1.684
   14CHTO  H142 5632   4.043   5.858   1.639
   14CHTO   C79 5633   4.051   5.809   1.915
   14CHTO  H151 5634   3.991   5.895   1.887
   14CHTO   O52 5635   3.982   5.743   2.026
   14CHTO   C86 5636   4.038   5.613   2.065
   14CHTO  H158 5637   4.134   5.638   2.115
   14CHTO   C90 5638   3.948   5.551   2.175
   14CHTO   O60 5639   3.946   5.631   2.294
   14CHTO  H138 5640   3.900   5.711   2.277
   14CHTO   O50 5641   4.180   5.855   1.959
   14CHTO   C73 5642   4.230   5.956   2.047
   14CHTO  H145 5643   4.170   5.959   2.140
   14CHTO   C74 5644   4.222   6.096   1.978
   14CHTO  H146 5645   4.117   6.114   1.953
   14CHTO   O54 5646   4.258   6.197   2.075
   14CHTO  H133 5647   4.347   6.188   2.101
   14CHTO   C75 5648   4.314   6.095   1.850
   14CHTO  H147 5649   4.275   6.020   1.780
   14CHTO   N13 5650   4.315   6.223   1.775
   14CHTO  H139 5651   4.215   6.247   1.742
   14CHTO  H140 5652   4.378   6.215   1.688
   14CHTO   C76 5653   4.462   6.048   1.890
   14CHTO  H148 5654   4.510   6.127   1.948
   14CHTO   O49 5655   4.461   5.924   1.967
   14CHTO   C77 5656   4.378   5.926   2.084
   14CHTO  H149 5657   4.414   6.002   2.154
   14CHTO   C88 5658   4.392   5.791   2.157
   14CHTO   O58 5659   4.530   5.769   2.204
   14CHTO  H136 5660   4.536   5.686   2.246
   14CHTO   O51 5661   4.544   6.009   1.762
   14CHTO   C78 5662   4.697   6.038   1.774
   14CHTO  H150 5663   4.724   6.067   1.878
   14CHTO   C80 5664   4.733   6.154   1.679
   14CHTO  H152 5665   4.688   6.133   1.579
   14CHTO   O55 5666   4.670   6.273   1.730
   14CHTO  H134 5667   4.680   6.344   1.670
   14CHTO   C84 5668   4.889   6.174   1.663
   14CHTO  H156 5669   4.927   6.209   1.759
   14CHTO   N15 5670   4.925   6.276   1.559
   14CHTO  H143 5671   4.980   6.356   1.603
   14CHTO  H144 5672   4.837   6.316   1.512
   14CHTO   C87 5673   4.958   6.039   1.635
   14CHTO  H159 5674   4.931   6.003   1.536
   14CHTO   O53 5675   4.916   5.936   1.742
   14CHTO   C82 5676   4.775   5.910   1.740
   14CHTO  H154 5677   4.746   5.872   1.643
   14CHTO   C89 5678   4.745   5.799   1.843
   14CHTO   O59 5679   4.797   5.673   1.799
   14CHTO  H137 5680   4.891   5.674   1.802
   14CHTO   O45 5681   5.119   6.053   1.645
   14CHTO   C67 5682   5.188   5.952   1.570
   14CHTO  H124 5683   5.118   5.894   1.509
   14CHTO   C65 5684   5.293   6.018   1.476
   14CHTO  H122 5685   5.243   6.104   1.432
   14CHTO   O44 5686   5.329   5.926   1.372
   14CHTO  H102 5687   5.255   5.909   1.317
   14CHTO   C63 5688   5.412   6.076   1.561
   14CHTO  H120 5689   5.371   6.146   1.635
   14CHTO   N11 5690   5.508   6.165   1.488
   14CHTO  H108 5691   5.454   6.243   1.437
   14CHTO  H109 5692   5.577   6.209   1.556
   14CHTO   C61 5693   5.480   5.960   1.643
   14CHTO  H118 5694   5.553   6.007   1.710
   14CHTO   O40 5695   5.381   5.895   1.728
   14CHTO   C68 5696   5.254   5.848   1.670
   14CHTO  H125 5697   5.184   5.835   1.755
   14CHTO   C72 5698   5.273   5.707   1.607
   14CHTO   O48 5699   5.150   5.648   1.563
   14CHTO  H105 5700   5.096   5.628   1.637
   14CHTO   O38 5701   5.544   5.855   1.566
   14CHTO   C55 5702   5.678   5.870   1.514
   14CHTO  H112 5703   5.709   5.975   1.516
   14CHTO   C56 5704   5.681   5.810   1.367
   14CHTO  H113 5705   5.635   5.709   1.373
   14CHTO   O42 5706   5.596   5.888   1.282
   14CHTO  H100 5707   5.589   5.848   1.197
   14CHTO   C57 5708   5.827   5.801   1.309
   14CHTO  H114 5709   5.859   5.903   1.287
   14CHTO   N10 5710   5.835   5.724   1.181
   14CHTO  H106 5711   5.819   5.790   1.097
   14CHTO  H107 5712   5.760   5.646   1.179
   14CHTO   C58 5713   5.925   5.741   1.413
   14CHTO  H115 5714   5.903   5.632   1.426
   14CHTO   O37 5715   5.913   5.807   1.540
   14CHTO   C59 5716   5.784   5.794   1.601
   14CHTO  H116 5717   5.757   5.689   1.611
   14CHTO   C70 5718   5.795   5.853   1.742
   14CHTO   O46 5719   5.836   5.990   1.744
   14CHTO  H103 5720   5.769   6.044   1.707
   14CHTO   O39 5721   6.079   5.762   1.363
   14CHTO   C60 5722   6.181   5.706   1.447
   14CHTO  H117 5723   6.167   5.742   1.549
   14CHTO   C62 5724   6.177   5.550   1.450
   14CHTO  H119 5725   6.080   5.522   1.499
   14CHTO   O43 5726   6.177   5.497   1.316
   14CHTO  H101 5727   6.097   5.520   1.272
   14CHTO   C66 5728   6.298   5.495   1.540
   14CHTO  H123 5729   6.292   5.542   1.639
   14CHTO   N12 5730   6.289   5.349   1.565
   14CHTO  H110 5731   6.371   5.317   1.628
   14CHTO  H111 5732   6.289   5.296   1.471
   14CHTO   C69 5733   6.431   5.539   1.475
   14CHTO  H126 5734   6.437   5.502   1.370
   14CHTO   O41 5735   6.434   5.694   1.475
   14CHTO   C64 5736   6.320   5.758   1.399
   14CHTO  H121 5737   6.331   5.735   1.291
   14CHTO   C71 5738   6.331   5.912   1.415
   14CHTO   O47 5739   6.321   5.952   1.552
   14CHTO  H104 5740   6.330   6.045   1.558
   14CHTO   O34 5741   6.557   5.488   1.551
   14CHTO   C49 5742   6.700   5.482   1.492
   14CHTO   H91 5743   6.700   5.405   1.414
   14CHTO   C47 5744   6.796   5.441   1.606
   14CHTO   H89 5745   6.896   5.429   1.557
   14CHTO   O33 5746   6.757   5.314   1.660
   14CHTO   H70 5747   6.822   5.284   1.722
   14CHTO   C45 5748   6.800   5.555   1.721
   14CHTO   H87 5749   6.722   5.532   1.795
   14CHTO    N8 5750   6.932   5.548   1.788
   14CHTO   H75 5751   6.919   5.519   1.892
   14CHTO   H76 5752   6.982   5.644   1.783
   14CHTO   C43 5753   6.757   5.699   1.660
   14CHTO   H85 5754   6.648   5.701   1.663
   14CHTO   O29 5755   6.807   5.713   1.526
   14CHTO   C50 5756   6.752   5.618   1.433
   14CHTO   H92 5757   6.668   5.665   1.380
   14CHTO   C54 5758   6.855   5.593   1.320
   14CHTO   O36 5759   6.887   5.713   1.248
   14CHTO   H72 5760   6.936   5.771   1.303
   14CHTO   O27 5761   6.796   5.810   1.742
   14CHTO   C37 5762   6.744   5.936   1.788
   14CHTO   H79 5763   6.826   5.998   1.827
   14CHTO   C38 5764   6.680   6.017   1.671
   14CHTO   H80 5765   6.610   5.951   1.617
   14CHTO   O31 5766   6.787   6.054   1.581
   14CHTO   H68 5767   6.847   6.113   1.623
   14CHTO   C39 5768   6.602   6.143   1.725
   14CHTO   H81 5769   6.674   6.208   1.774
   14CHTO    N7 5770   6.536   6.225   1.617
   14CHTO   H73 5771   6.554   6.182   1.519
   14CHTO   H74 5772   6.430   6.235   1.634
   14CHTO   C40 5773   6.500   6.094   1.835
   14CHTO   H82 5774   6.428   6.025   1.790
   14CHTO   O26 5775   6.574   6.032   1.942
   14CHTO   C41 5776   6.642   5.910   1.902
   14CHTO   H83 5777   6.568   5.836   1.868
   14CHTO   C52 5778   6.712   5.851   2.027
   14CHTO   O35 5779   6.814   5.944   2.088
   14CHTO   H71 5780   6.885   5.957   2.028
   14CHTO   O28 5781   6.426   6.201   1.898
   14CHTO   C42 5782   6.301   6.177   1.972
   14CHTO   H84 5783   6.277   6.276   2.012
   14CHTO   C44 5784   6.309   6.081   2.094
   14CHTO   H86 5785   6.335   5.981   2.059
   14CHTO   O32 5786   6.416   6.128   2.179
   14CHTO   H69 5787   6.396   6.213   2.214
   14CHTO   C48 5788   6.172   6.072   2.173
   14CHTO   H90 5789   6.155   6.168   2.221
   14CHTO    N9 5790   6.176   5.970   2.284
   14CHTO   H77 5791   6.081   5.968   2.336
   14CHTO   H78 5792   6.255   5.995   2.353
   14CHTO   C51 5793   6.051   6.046   2.075
   14CHTO   H93 5794   6.054   5.942   2.042
   14CHTO   O30 5795   6.055   6.136   1.963
   14CHTO   C46 5796   6.182   6.135   1.881
   14CHTO   H88 5797   6.198   6.034   1.843
   14CHTO   C53 5798   6.163   6.235   1.764
   14CHTO   O72 5799   6.059   6.192   1.675
   14CHTO  H199 5800   6.050   6.254   1.606
   14CHTO   O22 5801   5.927   6.076   2.141
   14CHTO   C31 5802   5.796   6.028   2.092
   14CHTO   H59 5803   5.814   5.986   1.992
   14CHTO   C29 5804   5.736   5.915   2.178
   14CHTO   H57 5805   5.733   5.952   2.282
   14CHTO   O21 5806   5.828   5.804   2.177
   14CHTO   H37 5807   5.909   5.828   2.217
   14CHTO   C27 5808   5.590   5.873   2.134
   14CHTO   H55 5809   5.596   5.825   2.035
   14CHTO    N5 5810   5.527   5.777   2.229
   14CHTO   H43 5811   5.507   5.683   2.179
   14CHTO   H44 5812   5.436   5.817   2.271
   14CHTO   C25 5813   5.502   6.002   2.116
   14CHTO   H53 5814   5.490   6.052   2.213
   14CHTO   O17 5815   5.568   6.093   2.024
   14CHTO   C32 5816   5.693   6.144   2.072
   14CHTO   H60 5817   5.677   6.195   2.167
   14CHTO   C36 5818   5.736   6.248   1.965
   14CHTO   O25 5819   5.849   6.326   2.006
   14CHTO   H40 5820   5.825   6.382   2.077
   14CHTO   O15 5821   5.360   5.970   2.056
   14CHTO   C19 5822   5.222   6.017   2.047
   14CHTO   H47 5823   5.183   5.965   1.958
   14CHTO   C20 5824   5.133   5.982   2.170
   14CHTO   H48 5825   5.168   6.032   2.261
   14CHTO   O19 5826   5.141   5.840   2.191
   14CHTO   H35 5827   5.227   5.817   2.220
   14CHTO   C21 5828   4.982   6.028   2.145
   14CHTO   H49 5829   4.941   5.969   2.063
   14CHTO    N4 5830   4.893   6.005   2.263
   14CHTO   H41 5831   4.948   5.960   2.345
   14CHTO   H42 5832   4.812   5.940   2.235
   14CHTO   C22 5833   4.979   6.176   2.100
   14CHTO   H50 5834   5.007   6.241   2.183
   14CHTO   O14 5835   5.069   6.197   1.990
   14CHTO   C23 5836   5.207   6.169   2.019
   14CHTO   H51 5837   5.236   6.230   2.106
   14CHTO   C34 5838   5.291   6.216   1.899
   14CHTO   O23 5839   5.286   6.358   1.884
   14CHTO   H38 5840   5.200   6.384   1.856
   14CHTO   O16 5841   4.850   6.214   2.047
   14CHTO   C24 5842   4.810   6.381   2.039
   14CHTO   H52 5843   4.729   6.399   1.967
   14CHTO   C26 5844   4.931   6.465   1.994
   14CHTO   H54 5845   5.016   6.444   2.063
   14CHTO   O20 5846   4.967   6.425   1.861
   14CHTO   H36 5847   5.003   6.338   1.862
   14CHTO   C30 5848   4.902   6.618   1.999
   14CHTO   H58 5849   4.825   6.642   1.924
   14CHTO    N6 5850   5.022   6.699   1.965
   14CHTO   H45 5851   5.003   6.760   1.878
   14CHTO   H46 5852   5.108   6.636   1.945
   14CHTO   C33 5853   4.841   6.657   2.137
   14CHTO   H61 5854   4.918   6.650   2.216
   14CHTO   O18 5855   4.732   6.570   2.171
   14CHTO   C28 5856   4.758   6.429   2.177
   14CHTO   H56 5857   4.833   6.407   2.253
   14CHTO   C35 5858   4.623   6.361   2.214
   14CHTO   O24 5859   4.630   6.219   2.232
   14CHTO   H39 5860   4.684   6.199   2.307
   14CHTO    O9 5861   4.800   6.796   2.136
   14CHTO   C13 5862   4.790   6.873   2.279
   14CHTO   H26 5863   4.767   6.798   2.358
   14CHTO   C11 5864   4.676   6.982   2.265
   14CHTO   H24 5865   4.580   6.929   2.262
   14CHTO    O8 5866   4.690   7.052   2.140
   14CHTO    H3 5867   4.771   7.100   2.138
   14CHTO    C9 5868   4.678   7.074   2.390
   14CHTO   H22 5869   4.671   7.006   2.477
   14CHTO    N2 5870   4.561   7.163   2.401
   14CHTO   H10 5871   4.470   7.105   2.397
   14CHTO   H11 5872   4.565   7.219   2.493
   14CHTO    C7 5873   4.817   7.148   2.396
   14CHTO   H20 5874   4.813   7.210   2.489
   14CHTO    O4 5875   4.924   7.052   2.409
   14CHTO   C14 5876   4.930   6.939   2.319
   14CHTO   H27 5877   4.987   6.861   2.374
   14CHTO   C18 5878   5.016   6.977   2.196
   14CHTO   O13 5879   5.155   6.984   2.230
   14CHTO    H7 5880   5.188   6.898   2.246
   14CHTO    O2 5881   4.845   7.246   2.262
   14CHTO    C1 5882   4.920   7.368   2.278
   14CHTO   H14 5883   4.939   7.408   2.176
   14CHTO    C2 5884   5.059   7.355   2.353
   14CHTO   H15 5885   5.038   7.310   2.452
   14CHTO    O6 5886   5.145   7.268   2.277
   14CHTO    H1 5887   5.111   7.180   2.278
   14CHTO    C3 5888   5.129   7.498   2.370
   14CHTO   H16 5889   5.162   7.531   2.271
   14CHTO    N1 5890   5.251   7.492   2.458
   14CHTO    H8 5891   5.325   7.426   2.414
   14CHTO    H9 5892   5.225   7.457   2.556
   14CHTO    C4 5893   5.027   7.607   2.419
   14CHTO   H17 5894   5.007   7.592   2.525
   14CHTO    O1 5895   4.905   7.603   2.344
   14CHTO    C5 5896   4.835   7.477   2.349
   14CHTO   H18 5897   4.820   7.446   2.452
   14CHTO   C16 5898   4.698   7.499   2.282
   14CHTO   O11 5899   4.621   7.595   2.357
   14CHTO    H5 5900   4.536   7.605   2.317
   14CHTO    O3 5901   5.079   7.740   2.396
   14CHTO    C6 5902   5.009   7.849   2.465
   14CHTO   H19 5903   4.908   7.820   2.498
   14CHTO    C8 5904   5.090   7.892   2.590
   14CHTO   H21 5905   5.194   7.911   2.560
   14CHTO    O7 5906   5.087   7.782   2.682
   14CHTO    H2 5907   5.142   7.799   2.756
   14CHTO   C12 5908   5.030   8.024   2.653
   14CHTO   H25 5909   4.929   7.998   2.690
   14CHTO    N3 5910   5.110   8.069   2.772
   14CHTO   H12 5911   5.067   8.159   2.813
   14CHTO   H13 5912   5.111   7.991   2.847
   14CHTO   C15 5913   5.017   8.133   2.541
   14CHTO   H28 5914   5.115   8.163   2.503
   14CHTO   O10 5915   4.938   8.259   2.586
   14CHTO    H4 5916   4.940   8.324   2.518
   14CHTO    O5 5917   4.936   8.082   2.434
   14CHTO   C10 5918   4.991   7.968   2.366
   14CHTO   H23 5919   5.087   7.997   2.323
   14CHTO   C17 5920   4.895   7.938   2.250
   14CHTO   O12 5921   4.946   7.838   2.162
   14CHTO    H6 5922   4.883   7.819   2.095
   15CHTO  H203 5923   6.574   4.774   2.409
   15CHTO   O82 5924   6.516   4.829   2.359
   15CHTO  C123 5925   6.453   4.752   2.255
   15CHTO  H227 5926   6.399   4.668   2.301
   15CHTO   O77 5927   6.359   4.846   2.196
   15CHTO  C118 5928   6.274   4.789   2.094
   15CHTO  H222 5929   6.218   4.704   2.135
   15CHTO  C125 5930   6.172   4.901   2.050
   15CHTO   O84 5931   6.087   4.940   2.158
   15CHTO  H205 5932   6.029   5.007   2.130
   15CHTO  C114 5933   6.360   4.742   1.975
   15CHTO  H218 5934   6.412   4.828   1.934
   15CHTO  C116 5935   6.473   4.643   2.022
   15CHTO  H220 5936   6.427   4.546   2.051
   15CHTO   O79 5937   6.558   4.617   1.909
   15CHTO  H201 5938   6.622   4.552   1.932
   15CHTO  C120 5939   6.554   4.702   2.145
   15CHTO  H224 5940   6.612   4.788   2.106
   15CHTO   N21 5941   6.651   4.603   2.198
   15CHTO  H211 5942   6.736   4.654   2.242
   15CHTO  H212 5943   6.604   4.538   2.271
   15CHTO   O75 5944   6.267   4.693   1.876
   15CHTO  C112 5945   6.221   4.532   1.883
   15CHTO  H216 5946   6.201   4.505   1.988
   15CHTO   O73 5947   6.328   4.454   1.827
   15CHTO  C113 5948   6.307   4.312   1.834
   15CHTO  H217 5949   6.286   4.283   1.940
   15CHTO  C124 5950   6.437   4.243   1.791
   15CHTO   O83 5951   6.548   4.279   1.874
   15CHTO  H204 5952   6.571   4.368   1.859
   15CHTO  C109 5953   6.187   4.273   1.744
   15CHTO  H213 5954   6.216   4.300   1.641
   15CHTO  C110 5955   6.061   4.354   1.787
   15CHTO  H214 5956   6.028   4.317   1.884
   15CHTO   O78 5957   5.956   4.327   1.692
   15CHTO  H200 5958   5.927   4.238   1.701
   15CHTO  C111 5959   6.091   4.507   1.796
   15CHTO  H215 5960   6.112   4.545   1.694
   15CHTO   N19 5961   5.978   4.587   1.849
   15CHTO  H207 5962   6.003   4.692   1.850
   15CHTO  H208 5963   5.953   4.555   1.949
   15CHTO   O74 5964   6.162   4.129   1.751
   15CHTO  C115 5965   6.154   4.057   1.606
   15CHTO  H219 5966   6.115   4.124   1.529
   15CHTO   O76 5967   6.296   4.016   1.556
   15CHTO  C122 5968   6.345   3.899   1.621
   15CHTO  H226 5969   6.332   3.914   1.728
   15CHTO  C126 5970   6.500   3.884   1.598
   15CHTO   O85 5971   6.538   3.881   1.460
   15CHTO  H206 5972   6.505   3.803   1.419
   15CHTO  C121 5973   6.263   3.773   1.574
   15CHTO  H225 5974   6.311   3.730   1.483
   15CHTO   O81 5975   6.271   3.675   1.679
   15CHTO  H202 5976   6.237   3.593   1.650
   15CHTO  C119 5977   6.113   3.806   1.541
   15CHTO  H223 5978   6.111   3.831   1.434
   15CHTO  C117 5979   6.058   3.931   1.621
   15CHTO  H221 5980   6.050   3.915   1.729
   15CHTO   N20 5981   5.919   3.967   1.578
   15CHTO  H209 5982   5.882   4.048   1.638
   15CHTO  H210 5983   5.854   3.881   1.588
   15CHTO   O80 5984   6.016   3.673   1.545
   15CHTO  C103 5985   5.968   3.596   1.409
   15CHTO  H190 5986   5.897   3.518   1.437
   15CHTO  C101 5987   5.897   3.677   1.295
   15CHTO  H188 5988   5.966   3.750   1.253
   15CHTO   O68 5989   5.775   3.752   1.356
   15CHTO  H168 5990   5.733   3.804   1.289
   15CHTO   C99 5991   5.851   3.574   1.181
   15CHTO  H186 5992   5.774   3.506   1.224
   15CHTO   N17 5993   5.786   3.640   1.062
   15CHTO  H174 5994   5.702   3.699   1.095
   15CHTO  H175 5995   5.858   3.701   1.009
   15CHTO   C97 5996   5.969   3.482   1.137
   15CHTO  H184 5997   6.034   3.538   1.068
   15CHTO   O64 5998   6.042   3.428   1.248
   15CHTO  C104 5999   6.091   3.524   1.344
   15CHTO  H191 6000   6.155   3.598   1.295
   15CHTO  C108 6001   6.181   3.453   1.446
   15CHTO   O71 6002   6.111   3.353   1.522
   15CHTO  H171 6003   6.170   3.313   1.583
   15CHTO   O62 6004   5.916   3.365   1.070
   15CHTO   C91 6005   5.994   3.308   0.963
   15CHTO  H178 6006   6.035   3.390   0.904
   15CHTO   C92 6007   5.897   3.230   0.868
   15CHTO  H179 6008   5.810   3.294   0.844
   15CHTO   O66 6009   5.965   3.209   0.743
   15CHTO  H166 6010   5.905   3.173   0.679
   15CHTO   C93 6011   5.853   3.089   0.925
   15CHTO  H180 6012   5.816   3.031   0.839
   15CHTO   N16 6013   5.737   3.096   1.018
   15CHTO  H172 6014   5.651   3.137   0.967
   15CHTO  H173 6015   5.762   3.156   1.104
   15CHTO   C94 6016   5.975   3.013   0.990
   15CHTO  H181 6017   5.968   3.008   1.099
   15CHTO   O61 6018   6.101   3.076   0.961
   15CHTO   C95 6019   6.112   3.211   1.011
   15CHTO  H182 6020   6.110   3.207   1.120
   15CHTO  C106 6021   6.253   3.267   0.972
   15CHTO   O69 6022   6.274   3.268   0.830
   15CHTO  H169 6023   6.278   3.180   0.798
   15CHTO   O63 6024   5.979   2.869   0.931
   15CHTO   C96 6025   6.049   2.763   1.024
   15CHTO  H183 6026   6.062   2.806   1.124
   15CHTO   C98 6027   6.188   2.715   0.973
   15CHTO  H185 6028   6.182   2.692   0.866
   15CHTO   O67 6029   6.277   2.828   0.983
   15CHTO  H167 6030   6.361   2.806   0.948
   15CHTO  C102 6031   6.245   2.588   1.055
   15CHTO  H189 6032   6.267   2.624   1.156
   15CHTO   N18 6033   6.372   2.531   1.003
   15CHTO  H176 6034   6.360   2.501   0.900
   15CHTO  H177 6035   6.450   2.606   1.010
   15CHTO  C105 6036   6.133   2.481   1.066
   15CHTO  H192 6037   6.110   2.443   0.966
   15CHTO   O65 6038   6.013   2.538   1.121
   15CHTO  C100 6039   5.953   2.639   1.038
   15CHTO  H187 6040   5.936   2.596   0.938
   15CHTO  C107 6041   5.814   2.676   1.096
   15CHTO   O70 6042   5.822   2.728   1.229
   15CHTO  H170 6043   5.736   2.747   1.260
   15CHTO   O57 6044   6.187   2.353   1.165
   15CHTO   C85 6045   6.094   2.269   1.235
   15CHTO  H157 6046   6.021   2.336   1.284
   15CHTO   C83 6047   6.170   2.197   1.353
   15CHTO  H155 6048   6.212   2.275   1.417
   15CHTO   O56 6049   6.282   2.123   1.300
   15CHTO  H135 6050   6.345   2.181   1.262
   15CHTO   C81 6051   6.069   2.112   1.435
   15CHTO  H153 6052   5.991   2.179   1.472
   15CHTO   N14 6053   6.129   2.053   1.558
   15CHTO  H141 6054   6.175   2.130   1.617
   15CHTO  H142 6055   6.054   2.004   1.616
   15CHTO   C79 6056   6.001   2.004   1.343
   15CHTO  H151 6057   5.921   1.958   1.402
   15CHTO   O52 6058   5.937   2.066   1.228
   15CHTO   C86 6059   6.023   2.156   1.150
   15CHTO  H158 6060   6.097   2.088   1.102
   15CHTO   C90 6061   5.938   2.213   1.034
   15CHTO   O60 6062   5.828   2.290   1.082
   15CHTO  H138 6063   5.780   2.325   1.010
   15CHTO   O50 6064   6.090   1.899   1.299
   15CHTO   C73 6065   6.052   1.783   1.225
   15CHTO  H145 6066   5.982   1.810   1.144
   15CHTO   C74 6067   5.983   1.678   1.318
   15CHTO  H146 6068   5.895   1.726   1.362
   15CHTO   O54 6069   5.932   1.571   1.235
   15CHTO  H133 6070   5.885   1.509   1.287
   15CHTO   C75 6071   6.086   1.630   1.427
   15CHTO  H147 6072   6.118   1.717   1.486
   15CHTO   N13 6073   6.028   1.534   1.525
   15CHTO  H139 6074   6.104   1.505   1.597
   15CHTO  H140 6075   5.947   1.580   1.578
   15CHTO   C76 6076   6.215   1.572   1.354
   15CHTO  H148 6077   6.186   1.482   1.298
   15CHTO   O49 6078   6.270   1.671   1.261
   15CHTO   C77 6079   6.180   1.721   1.161
   15CHTO  H149 6080   6.151   1.641   1.094
   15CHTO   C88 6081   6.258   1.823   1.076
   15CHTO   O58 6082   6.177   1.872   0.961
   15CHTO  H136 6083   6.165   1.803   0.899
   15CHTO   O51 6084   6.335   1.544   1.458
   15CHTO   C78 6085   6.446   1.450   1.397
   15CHTO  H150 6086   6.422   1.421   1.293
   15CHTO   C80 6087   6.458   1.322   1.483
   15CHTO  H152 6088   6.476   1.352   1.589
   15CHTO   O55 6089   6.333   1.252   1.477
   15CHTO  H134 6090   6.266   1.300   1.523
   15CHTO   C84 6091   6.578   1.230   1.435
   15CHTO  H156 6092   6.555   1.195   1.335
   15CHTO   N15 6093   6.600   1.109   1.520
   15CHTO  H143 6094   6.619   1.137   1.621
   15CHTO  H144 6095   6.512   1.047   1.518
   15CHTO   C87 6096   6.707   1.317   1.427
   15CHTO  H159 6097   6.735   1.349   1.528
   15CHTO   O53 6098   6.679   1.435   1.339
   15CHTO   C82 6099   6.581   1.524   1.394
   15CHTO  H154 6100   6.611   1.557   1.493
   15CHTO   C89 6101   6.581   1.649   1.303
   15CHTO   O59 6102   6.520   1.761   1.369
   15CHTO  H137 6103   6.522   1.836   1.312
   15CHTO   O45 6104   6.834   1.239   1.358
   15CHTO   C67 6105   6.955   1.314   1.378
   15CHTO  H124 6106   6.932   1.409   1.426
   15CHTO   C65 6107   7.055   1.235   1.470
   15CHTO  H122 6108   7.046   1.130   1.442
   15CHTO   O44 6109   7.005   1.251   1.604
   15CHTO  H102 6110   7.022   1.338   1.635
   15CHTO   C63 6111   7.207   1.272   1.442
   15CHTO  H120 6112   7.241   1.212   1.358
   15CHTO   N11 6113   7.305   1.233   1.548
   15CHTO  H108 6114   7.292   1.129   1.574
   15CHTO  H109 6115   7.405   1.249   1.513
   15CHTO   C61 6116   7.217   1.421   1.395
   15CHTO  H118 6117   7.323   1.439   1.369
   15CHTO   O40 6118   7.140   1.443   1.271
   15CHTO   C68 6119   7.029   1.352   1.243
   15CHTO  H125 6120   7.068   1.260   1.194
   15CHTO   C72 6121   6.934   1.420   1.141
   15CHTO   O48 6122   6.999   1.447   1.016
   15CHTO  H105 6123   6.938   1.490   0.958
   15CHTO   O38 6124   7.175   1.515   1.496
   15CHTO   C55 6125   7.198   1.655   1.466
   15CHTO  H112 6126   7.204   1.670   1.357
   15CHTO   C56 6127   7.327   1.708   1.541
   15CHTO  H113 6128   7.311   1.693   1.649
   15CHTO   O42 6129   7.441   1.628   1.505
   15CHTO  H100 6130   7.458   1.635   1.413
   15CHTO   C57 6131   7.349   1.861   1.508
   15CHTO  H114 6132   7.375   1.867   1.402
   15CHTO   N10 6133   7.460   1.923   1.585
   15CHTO  H106 6134   7.553   1.910   1.530
   15CHTO  H107 6135   7.443   2.028   1.601
   15CHTO   C58 6136   7.217   1.942   1.529
   15CHTO  H115 6137   7.199   1.954   1.639
   15CHTO   O37 6138   7.101   1.878   1.472
   15CHTO   C59 6139   7.078   1.742   1.513
   15CHTO  H116 6140   7.068   1.738   1.622
   15CHTO   C70 6141   6.946   1.695   1.452
   15CHTO   O46 6142   6.833   1.763   1.506
   15CHTO  H103 6143   6.820   1.737   1.595
   15CHTO   O39 6144   7.234   2.095   1.457
   15CHTO   C60 6145   7.189   2.106   1.321
   15CHTO  H117 6146   7.190   2.008   1.274
   15CHTO   C62 6147   7.045   2.164   1.315
   15CHTO  H119 6148   6.981   2.093   1.373
   15CHTO   O43 6149   7.044   2.292   1.380
   15CHTO  H101 6150   7.059   2.283   1.472
   15CHTO   C66 6151   6.994   2.169   1.163
   15CHTO  H123 6152   7.003   2.070   1.119
   15CHTO   N12 6153   6.850   2.204   1.154
   15CHTO  H110 6154   6.819   2.207   1.051
   15CHTO  H111 6155   6.791   2.133   1.210
   15CHTO   C69 6156   7.084   2.266   1.082
   15CHTO  H126 6157   7.079   2.369   1.125
   15CHTO   O41 6158   7.233   2.213   1.090
   15CHTO   C64 6159   7.286   2.196   1.238
   15CHTO  H121 6160   7.293   2.295   1.287
   15CHTO   C71 6161   7.427   2.133   1.234
   15CHTO   O47 6162   7.519   2.219   1.165
   15CHTO  H104 6163   7.500   2.219   1.073
   15CHTO   O34 6164   7.041   2.274   0.930
   15CHTO   C49 6165   6.989   2.324   0.795
   15CHTO   H91 6166   6.987   2.238   0.728
   15CHTO   C47 6167   7.086   2.431   0.740
   15CHTO   H89 6168   7.052   2.456   0.637
   15CHTO   O33 6169   7.218   2.372   0.732
   15CHTO   H70 6170   7.219   2.306   0.666
   15CHTO   C45 6171   7.079   2.562   0.835
   15CHTO   H87 6172   7.100   2.530   0.938
   15CHTO    N8 6173   7.179   2.666   0.797
   15CHTO   H75 6174   7.232   2.639   0.707
   15CHTO   H76 6175   7.132   2.762   0.785
   15CHTO   C43 6176   6.928   2.617   0.838
   15CHTO   H85 6177   6.927   2.697   0.912
   15CHTO   O29 6178   6.836   2.511   0.872
   15CHTO   C50 6179   6.845   2.384   0.806
   15CHTO   H92 6180   6.786   2.313   0.866
   15CHTO   C54 6181   6.770   2.387   0.670
   15CHTO   O36 6182   6.758   2.256   0.611
   15CHTO   H72 6183   6.702   2.202   0.664
   15CHTO   O27 6184   6.890   2.680   0.714
   15CHTO   C37 6185   6.790   2.753   0.641
   15CHTO   H79 6186   6.732   2.685   0.578
   15CHTO   C38 6187   6.690   2.825   0.736
   15CHTO   H80 6188   6.747   2.887   0.807
   15CHTO   O31 6189   6.620   2.724   0.811
   15CHTO   H68 6190   6.569   2.670   0.754
   15CHTO   C39 6191   6.589   2.917   0.655
   15CHTO   H81 6192   6.525   2.850   0.599
   15CHTO    N7 6193   6.500   2.999   0.744
   15CHTO   H73 6194   6.559   3.066   0.804
   15CHTO   H74 6195   6.429   3.054   0.684
   15CHTO   C40 6196   6.664   3.008   0.550
   15CHTO   H82 6197   6.712   3.093   0.598
   15CHTO   O26 6198   6.757   2.930   0.472
   15CHTO   C41 6199   6.858   2.860   0.551
   15CHTO   H83 6200   6.912   2.932   0.614
   15CHTO   C52 6201   6.962   2.797   0.454
   15CHTO   O35 6202   6.904   2.695   0.362
   15CHTO   H71 6203   6.876   2.621   0.412
   15CHTO   O28 6204   6.572   3.056   0.450
   15CHTO   C42 6205   6.582   3.186   0.381
   15CHTO   H84 6206   6.526   3.168   0.289
   15CHTO   C44 6207   6.723   3.234   0.336
   15CHTO   H86 6208   6.785   3.250   0.425
   15CHTO   O32 6209   6.781   3.128   0.257
   15CHTO   H69 6210   6.870   3.148   0.236
   15CHTO   C48 6211   6.715   3.370   0.255
   15CHTO   H90 6212   6.661   3.351   0.162
   15CHTO    N9 6213   6.850   3.422   0.211
   15CHTO   H77 6214   6.898   3.349   0.147
   15CHTO   H78 6215   6.912   3.442   0.298
   15CHTO   C51 6216   6.635   3.479   0.337
   15CHTO   H93 6217   6.693   3.505   0.425
   15CHTO   O30 6218   6.506   3.426   0.371
   15CHTO   C46 6219   6.510   3.301   0.457
   15CHTO   H88 6220   6.564   3.323   0.549
   15CHTO   C53 6221   6.362   3.267   0.491
   15CHTO   O72 6222   6.282   3.251   0.373
   15CHTO  H199 6223   6.195   3.229   0.397
   15CHTO   O22 6224   6.609   3.596   0.256
   15CHTO   C31 6225   6.536   3.717   0.298
   15CHTO   H59 6226   6.553   3.791   0.217
   15CHTO   C29 6227   6.383   3.699   0.312
   15CHTO   H57 6228   6.364   3.628   0.394
   15CHTO   O21 6229   6.334   3.636   0.192
   15CHTO   H37 6230   6.341   3.694   0.119
   15CHTO   C27 6231   6.312   3.836   0.344
   15CHTO   H55 6232   6.329   3.905   0.261
   15CHTO    N5 6233   6.165   3.822   0.364
   15CHTO   H43 6234   6.121   3.919   0.383
   15CHTO   H44 6235   6.120   3.778   0.277
   15CHTO   C25 6236   6.381   3.898   0.471
   15CHTO   H53 6237   6.363   3.832   0.557
   15CHTO   O17 6238   6.525   3.909   0.450
   15CHTO   C32 6239   6.591   3.783   0.429
   15CHTO   H60 6240   6.572   3.716   0.513
   15CHTO   C36 6241   6.744   3.808   0.422
   15CHTO   O25 6242   6.793   3.859   0.546
   15CHTO   H40 6243   6.885   3.875   0.539
   15CHTO   O15 6244   6.325   4.040   0.506
   15CHTO   C19 6245   6.325   4.160   0.588
   15CHTO   H47 6246   6.404   4.221   0.543
   15CHTO   C20 6247   6.190   4.239   0.581
   15CHTO   H48 6248   6.104   4.176   0.609
   15CHTO   O19 6249   6.173   4.277   0.443
   15CHTO   H35 6250   6.090   4.319   0.431
   15CHTO   C21 6251   6.190   4.367   0.676
   15CHTO   H49 6252   6.262   4.439   0.637
   15CHTO    N4 6253   6.058   4.437   0.678
   15CHTO   H41 6254   6.015   4.437   0.777
   15CHTO   H42 6255   5.989   4.392   0.609
   15CHTO   C22 6256   6.241   4.325   0.817
   15CHTO   H50 6257   6.170   4.254   0.860
   15CHTO   O14 6258   6.370   4.264   0.804
   15CHTO   C23 6259   6.366   4.137   0.736
   15CHTO   H51 6260   6.295   4.072   0.789
   15CHTO   C34 6261   6.505   4.073   0.747
   15CHTO   O23 6262   6.541   4.046   0.883
   15CHTO   H38 6263   6.626   4.007   0.886
   15CHTO   O16 6264   6.251   4.439   0.907
   15CHTO   C24 6265   6.364   4.442   1.029
   15CHTO   H52 6266   6.465   4.433   0.990
   15CHTO   C26 6267   6.341   4.332   1.135
   15CHTO   H54 6268   6.237   4.342   1.175
   15CHTO   O20 6269   6.353   4.202   1.073
   15CHTO   H36 6270   6.330   4.135   1.134
   15CHTO   C30 6271   6.442   4.349   1.253
   15CHTO   H58 6272   6.544   4.333   1.215
   15CHTO    N6 6273   6.422   4.248   1.361
   15CHTO   H45 6274   6.511   4.189   1.374
   15CHTO   H46 6275   6.339   4.183   1.338
   15CHTO   C33 6276   6.437   4.494   1.309
   15CHTO   H61 6277   6.341   4.510   1.360
   15CHTO   O18 6278   6.447   4.591   1.203
   15CHTO   C28 6279   6.353   4.581   1.096
   15CHTO   H56 6280   6.251   4.594   1.134
   15CHTO   C35 6281   6.380   4.695   0.995
   15CHTO   O24 6282   6.513   4.693   0.941
   15CHTO   H39 6283   6.575   4.711   1.008
   15CHTO    O9 6284   6.538   4.516   1.411
   15CHTO   C13 6285   6.668   4.608   1.372
   15CHTO   H26 6286   6.631   4.708   1.342
   15CHTO   C11 6287   6.753   4.541   1.257
   15CHTO   H24 6288   6.689   4.535   1.167
   15CHTO    O8 6289   6.790   4.406   1.291
   15CHTO    H3 6290   6.834   4.365   1.219
   15CHTO    C9 6291   6.872   4.636   1.227
   15CHTO   H22 6292   6.827   4.735   1.209
   15CHTO    N2 6293   6.943   4.605   1.101
   15CHTO   H10 6294   7.050   4.596   1.118
   15CHTO   H11 6295   6.905   4.515   1.056
   15CHTO    C7 6296   6.964   4.645   1.355
   15CHTO   H20 6297   7.034   4.728   1.331
   15CHTO    O4 6298   6.891   4.680   1.474
   15CHTO   C14 6299   6.756   4.634   1.501
   15CHTO   H27 6300   6.708   4.716   1.557
   15CHTO   C18 6301   6.759   4.511   1.596
   15CHTO   O13 6302   6.814   4.545   1.724
   15CHTO    H7 6303   6.906   4.560   1.716
   15CHTO    O2 6304   7.052   4.505   1.381
   15CHTO    C1 6305   7.118   4.495   1.509
   15CHTO   H14 6306   7.045   4.519   1.589
   15CHTO    C2 6307   7.246   4.586   1.529
   15CHTO   H15 6308   7.317   4.557   1.451
   15CHTO    O6 6309   7.210   4.724   1.512
   15CHTO    H1 6310   7.147   4.750   1.577
   15CHTO    C3 6311   7.308   4.560   1.675
   15CHTO   H16 6312   7.234   4.592   1.750
   15CHTO    N1 6313   7.434   4.637   1.700
   15CHTO    H8 6314   7.460   4.697   1.614
   15CHTO    H9 6315   7.422   4.701   1.787
   15CHTO    C4 6316   7.327   4.405   1.699
   15CHTO   H17 6317   7.411   4.370   1.638
   15CHTO    O1 6318   7.209   4.330   1.667
   15CHTO    C5 6319   7.159   4.347   1.533
   15CHTO   H18 6320   7.237   4.321   1.461
   15CHTO   C16 6321   7.039   4.251   1.512
   15CHTO   O11 6322   7.076   4.113   1.525
   15CHTO    H5 6323   7.131   4.088   1.453
   15CHTO    O3 6324   7.351   4.377   1.839
   15CHTO    C6 6325   7.438   4.263   1.868
   15CHTO   H19 6326   7.447   4.195   1.783
   15CHTO    C8 6327   7.581   4.312   1.905
   15CHTO   H21 6328   7.571   4.392   1.979
   15CHTO    O7 6329   7.640   4.366   1.785
   15CHTO    H2 6330   7.723   4.406   1.805
   15CHTO   C12 6331   7.669   4.196   1.967
   15CHTO   H25 6332   7.691   4.126   1.883
   15CHTO    N3 6333   7.802   4.247   2.015
   15CHTO   H12 6334   7.861   4.165   2.054
   15CHTO   H13 6335   7.787   4.321   2.092
   15CHTO   C15 6336   7.588   4.119   2.077
   15CHTO   H28 6337   7.572   4.180   2.166
   15CHTO   O10 6338   7.654   3.985   2.118
   15CHTO    H4 6339   7.736   4.002   2.161
   15CHTO    O5 6340   7.463   4.074   2.024
   15CHTO   C10 6341   7.376   4.181   1.984
   15CHTO   H23 6342   7.358   4.245   2.070
   15CHTO   C17 6343   7.242   4.118   1.943
   15CHTO   O12 6344   7.178   4.052   2.053
   15CHTO    H6 6345   7.148   4.115   2.115
   16CHTO  H203 6346   5.566   4.784   0.671
   16CHTO   O82 6347   5.568   4.694   0.644
   16CHTO  C123 6348   5.589   4.610   0.759
   16CHTO  H227 6349   5.510   4.629   0.832
   16CHTO   O77 6350   5.575   4.475   0.703
   16CHTO  C118 6351   5.584   4.369   0.800
   16CHTO  H222 6352   5.506   4.383   0.876
   16CHTO  C125 6353   5.558   4.232   0.725
   16CHTO   O84 6354   5.655   4.208   0.622
   16CHTO  H205 6355   5.637   4.125   0.581
   16CHTO  C114 6356   5.721   4.371   0.869
   16CHTO  H218 6357   5.798   4.354   0.794
   16CHTO  C116 6358   5.750   4.511   0.932
   16CHTO  H220 6359   5.680   4.528   1.017
   16CHTO   O79 6360   5.883   4.510   0.990
   16CHTO  H201 6361   5.948   4.498   0.923
   16CHTO  C120 6362   5.732   4.625   0.823
   16CHTO  H224 6363   5.811   4.607   0.746
   16CHTO   N21 6364   5.755   4.760   0.879
   16CHTO  H211 6365   5.792   4.826   0.802
   16CHTO  H212 6366   5.826   4.757   0.961
   16CHTO   O75 6367   5.719   4.264   0.965
   16CHTO  C112 6368   5.861   4.185   0.968
   16CHTO  H216 6369   5.941   4.256   0.942
   16CHTO   O73 6370   5.853   4.077   0.874
   16CHTO  C113 6371   5.979   4.015   0.849
   16CHTO  H217 6372   6.049   4.090   0.808
   16CHTO  C124 6373   5.959   3.908   0.741
   16CHTO   O83 6374   5.916   3.963   0.616
   16CHTO  H204 6375   5.828   3.994   0.623
   16CHTO  C109 6376   6.039   3.953   0.979
   16CHTO  H213 6377   5.977   3.865   1.004
   16CHTO  C110 6378   6.035   4.055   1.098
   16CHTO  H214 6379   6.111   4.131   1.080
   16CHTO   O78 6380   6.072   3.987   1.219
   16CHTO  H200 6381   6.010   3.920   1.240
   16CHTO  C111 6382   5.895   4.124   1.109
   16CHTO  H215 6383   5.820   4.047   1.133
   16CHTO   N19 6384   5.887   4.227   1.217
   16CHTO  H207 6385   5.981   4.236   1.269
   16CHTO  H208 6386   5.857   4.323   1.179
   16CHTO   O74 6387   6.176   3.911   0.954
   16CHTO  C115 6388   6.208   3.766   1.002
   16CHTO  H219 6389   6.151   3.739   1.091
   16CHTO   O76 6390   6.164   3.658   0.894
   16CHTO  C122 6391   6.248   3.662   0.777
   16CHTO  H226 6392   6.239   3.760   0.733
   16CHTO  C126 6393   6.192   3.561   0.671
   16CHTO   O85 6394   6.059   3.592   0.629
   16CHTO  H206 6395   5.999   3.578   0.700
   16CHTO  C121 6396   6.399   3.630   0.812
   16CHTO  H225 6397   6.425   3.530   0.772
   16CHTO   O81 6398   6.485   3.725   0.748
   16CHTO  H202 6399   6.468   3.812   0.779
   16CHTO  C119 6400   6.425   3.630   0.966
   16CHTO  H223 6401   6.370   3.545   1.005
   16CHTO  C117 6402   6.364   3.759   1.032
   16CHTO  H221 6403   6.405   3.853   0.996
   16CHTO   N20 6404   6.389   3.761   1.180
   16CHTO  H209 6405   6.348   3.851   1.223
   16CHTO  H210 6406   6.495   3.757   1.199
   16CHTO   O80 6407   6.576   3.590   1.002
   16CHTO  C103 6408   6.627   3.448   0.962
   16CHTO  H190 6409   6.547   3.391   0.916
   16CHTO  C101 6410   6.752   3.442   0.866
   16CHTO  H188 6411   6.834   3.500   0.910
   16CHTO   O68 6412   6.714   3.507   0.730
   16CHTO  H168 6413   6.790   3.512   0.675
   16CHTO   C99 6414   6.800   3.290   0.848
   16CHTO  H186 6415   6.720   3.234   0.796
   16CHTO   N17 6416   6.925   3.274   0.766
   16CHTO  H174 6417   6.902   3.225   0.672
   16CHTO  H175 6418   6.973   3.369   0.749
   16CHTO   C97 6419   6.816   3.221   0.987
   16CHTO  H184 6420   6.906   3.261   1.037
   16CHTO   O64 6421   6.697   3.240   1.066
   16CHTO  C104 6422   6.665   3.376   1.096
   16CHTO  H191 6423   6.748   3.429   1.143
   16CHTO  C108 6424   6.550   3.379   1.198
   16CHTO   O71 6425   6.588   3.316   1.321
   16CHTO  H171 6426   6.516   3.318   1.381
   16CHTO   O62 6427   6.827   3.077   0.975
   16CHTO   C91 6428   6.858   3.005   1.096
   16CHTO  H178 6429   6.857   3.075   1.180
   16CHTO   C92 6430   7.003   2.948   1.089
   16CHTO  H179 6431   7.013   2.886   0.999
   16CHTO   O66 6432   7.094   3.058   1.072
   16CHTO  H166 6433   7.082   3.098   0.988
   16CHTO   C93 6434   7.041   2.865   1.219
   16CHTO  H180 6435   7.057   2.937   1.300
   16CHTO   N16 6436   7.170   2.792   1.205
   16CHTO  H172 6437   7.250   2.861   1.184
   16CHTO  H173 6438   7.191   2.737   1.296
   16CHTO   C94 6439   6.925   2.766   1.261
   16CHTO  H181 6440   6.918   2.681   1.193
   16CHTO   O61 6441   6.798   2.833   1.258
   16CHTO   C95 6442   6.761   2.887   1.130
   16CHTO  H182 6443   6.769   2.808   1.055
   16CHTO  C106 6444   6.611   2.931   1.137
   16CHTO   O69 6445   6.524   2.820   1.163
   16CHTO  H169 6446   6.538   2.790   1.251
   16CHTO   O63 6447   6.951   2.714   1.417
   16CHTO   C96 6448   6.823   2.651   1.493
   16CHTO  H183 6449   6.863   2.590   1.574
   16CHTO   C98 6450   6.732   2.559   1.405
   16CHTO  H185 6451   6.716   2.604   1.306
   16CHTO   O67 6452   6.804   2.437   1.381
   16CHTO  H167 6453   6.879   2.454   1.326
   16CHTO  C102 6454   6.590   2.530   1.473
   16CHTO  H189 6455   6.611   2.478   1.568
   16CHTO   N18 6456   6.498   2.440   1.398
   16CHTO  H176 6457   6.477   2.482   1.301
   16CHTO  H177 6458   6.544   2.343   1.386
   16CHTO  C105 6459   6.533   2.671   1.503
   16CHTO  H192 6460   6.544   2.732   1.413
   16CHTO   O65 6461   6.611   2.731   1.607
   16CHTO  C100 6462   6.743   2.769   1.563
   16CHTO  H187 6463   6.731   2.852   1.491
   16CHTO  C107 6464   6.822   2.824   1.684
   16CHTO   O70 6465   6.764   2.944   1.736
   16CHTO  H170 6466   6.776   3.014   1.676
   16CHTO   O57 6467   6.373   2.667   1.543
   16CHTO   C85 6468   6.288   2.741   1.454
   16CHTO  H157 6469   6.318   2.708   1.352
   16CHTO   C83 6470   6.323   2.893   1.461
   16CHTO  H155 6471   6.426   2.906   1.430
   16CHTO   O56 6472   6.317   2.938   1.597
   16CHTO  H135 6473   6.345   3.027   1.603
   16CHTO   C81 6474   6.231   2.969   1.362
   16CHTO  H153 6475   6.243   2.925   1.263
   16CHTO   N14 6476   6.272   3.110   1.343
   16CHTO  H141 6477   6.262   3.164   1.435
   16CHTO  H142 6478   6.374   3.115   1.311
   16CHTO   C79 6479   6.081   2.952   1.405
   16CHTO  H151 6480   6.020   3.002   1.329
   16CHTO   O52 6481   6.046   2.810   1.400
   16CHTO   C86 6482   6.133   2.721   1.478
   16CHTO  H158 6483   6.105   2.738   1.584
   16CHTO   C90 6484   6.095   2.574   1.447
   16CHTO   O60 6485   5.956   2.547   1.473
   16CHTO  H138 6486   5.903   2.593   1.411
   16CHTO   O50 6487   6.049   3.007   1.534
   16CHTO   C73 6488   5.935   2.986   1.618
   16CHTO  H145 6489   5.926   2.879   1.643
   16CHTO   C74 6490   5.805   3.031   1.546
   16CHTO  H146 6491   5.797   2.974   1.452
   16CHTO   O54 6492   5.693   2.990   1.628
   16CHTO  H133 6493   5.613   3.010   1.584
   16CHTO   C75 6494   5.810   3.186   1.521
   16CHTO  H147 6495   5.900   3.209   1.461
   16CHTO   N13 6496   5.696   3.239   1.443
   16CHTO  H139 6497   5.706   3.345   1.428
   16CHTO  H140 6498   5.692   3.191   1.346
   16CHTO   C76 6499   5.827   3.258   1.663
   16CHTO  H148 6500   5.739   3.234   1.723
   16CHTO   O49 6501   5.948   3.208   1.729
   16CHTO   C77 6502   5.950   3.066   1.751
   16CHTO  H149 6503   5.869   3.038   1.819
   16CHTO   C88 6504   6.080   3.030   1.824
   16CHTO   O58 6505   6.088   3.096   1.956
   16CHTO  H136 6506   6.023   3.059   2.014
   16CHTO   O51 6507   5.853   3.411   1.650
   16CHTO   C78 6508   5.781   3.495   1.760
   16CHTO  H150 6509   5.724   3.430   1.830
   16CHTO   C80 6510   5.683   3.593   1.693
   16CHTO  H152 6511   5.739   3.653   1.617
   16CHTO   O55 6512   5.583   3.515   1.625
   16CHTO  H134 6513   5.621   3.471   1.551
   16CHTO   C84 6514   5.618   3.692   1.798
   16CHTO  H156 6515   5.556   3.632   1.864
   16CHTO   N15 6516   5.527   3.794   1.734
   16CHTO  H143 6517   5.582   3.852   1.663
   16CHTO  H144 6518   5.446   3.744   1.684
   16CHTO   C87 6519   5.728   3.759   1.882
   16CHTO  H159 6520   5.788   3.826   1.819
   16CHTO   O53 6521   5.820   3.649   1.944
   16CHTO   C82 6522   5.886   3.571   1.844
   16CHTO  H154 6523   5.947   3.636   1.781
   16CHTO   C89 6524   5.983   3.471   1.912
   16CHTO   O59 6525   6.087   3.537   1.985
   16CHTO  H137 6526   6.146   3.578   1.925
   16CHTO   O45 6527   5.666   3.845   2.006
   16CHTO   C67 6528   5.764   3.926   2.072
   16CHTO  H124 6529   5.863   3.893   2.040
   16CHTO   C65 6530   5.747   4.077   2.034
   16CHTO  H122 6531   5.640   4.092   2.015
   16CHTO   O44 6532   5.819   4.096   1.911
   16CHTO  H102 6533   5.779   4.048   1.841
   16CHTO   C63 6534   5.780   4.175   2.154
   16CHTO  H120 6535   5.695   4.175   2.222
   16CHTO   N11 6536   5.790   4.321   2.119
   16CHTO  H108 6537   5.703   4.351   2.064
   16CHTO  H109 6538   5.799   4.379   2.208
   16CHTO   C61 6539   5.902   4.118   2.235
   16CHTO  H118 6540   5.917   4.185   2.321
   16CHTO   O40 6541   5.872   3.985   2.290
   16CHTO   C68 6542   5.764   3.907   2.229
   16CHTO  H125 6543   5.667   3.940   2.272
   16CHTO   C72 6544   5.784   3.760   2.273
   16CHTO   O48 6545   5.678   3.672   2.235
   16CHTO  H105 6546   5.599   3.695   2.281
   16CHTO   O38 6547   6.021   4.114   2.154
   16CHTO   C55 6548   6.142   4.054   2.206
   16CHTO  H112 6549   6.116   3.971   2.274
   16CHTO   C56 6550   6.234   4.162   2.276
   16CHTO  H113 6551   6.236   4.250   2.210
   16CHTO   O42 6552   6.172   4.205   2.399
   16CHTO  H100 6553   6.163   4.133   2.458
   16CHTO   C57 6554   6.381   4.109   2.302
   16CHTO  H114 6555   6.376   4.034   2.380
   16CHTO   N10 6556   6.476   4.215   2.347
   16CHTO  H106 6557   6.448   4.310   2.305
   16CHTO  H107 6558   6.474   4.222   2.455
   16CHTO   C58 6559   6.434   4.042   2.172
   16CHTO  H115 6560   6.442   4.119   2.091
   16CHTO   O37 6561   6.344   3.938   2.131
   16CHTO   C59 6562   6.217   3.987   2.087
   16CHTO  H116 6563   6.231   4.058   2.005
   16CHTO   C70 6564   6.137   3.869   2.034
   16CHTO   O46 6565   6.199   3.806   1.921
   16CHTO  H103 6566   6.193   3.863   1.846
   16CHTO   O39 6567   6.578   3.968   2.192
   16CHTO   C60 6568   6.644   3.947   2.066
   16CHTO  H117 6569   6.569   3.948   1.985
   16CHTO   C62 6570   6.744   4.062   2.037
   16CHTO  H119 6571   6.686   4.156   2.046
   16CHTO   O43 6572   6.847   4.065   2.138
   16CHTO  H101 6573   6.898   3.987   2.136
   16CHTO   C66 6574   6.799   4.046   1.888
   16CHTO  H123 6575   6.714   4.040   1.820
   16CHTO   N12 6576   6.878   4.164   1.844
   16CHTO  H110 6577   6.913   4.150   1.743
   16CHTO  H111 6578   6.817   4.254   1.852
   16CHTO   C69 6579   6.879   3.913   1.876
   16CHTO  H126 6580   6.968   3.916   1.941
   16CHTO   O41 6581   6.785   3.792   1.921
   16CHTO   C64 6582   6.716   3.809   2.059
   16CHTO  H121 6583   6.791   3.802   2.140
   16CHTO   C71 6584   6.616   3.691   2.074
   16CHTO   O47 6585   6.561   3.682   2.206
   16CHTO  H104 6586   6.627   3.657   2.267
   16CHTO   O34 6587   6.928   3.888   1.724
   16CHTO   C49 6588   7.027   3.785   1.659
   16CHTO   H91 6589   7.099   3.843   1.601
   16CHTO   C47 6590   6.949   3.691   1.565
   16CHTO   H89 6591   7.024   3.629   1.512
   16CHTO   O33 6592   6.879   3.772   1.469
   16CHTO   H70 6593   6.836   3.717   1.406
   16CHTO   C45 6594   6.851   3.596   1.652
   16CHTO   H87 6595   6.783   3.662   1.708
   16CHTO    N8 6596   6.768   3.507   1.567
   16CHTO   H75 6597   6.799   3.511   1.463
   16CHTO   H76 6598   6.773   3.404   1.602
   16CHTO   C43 6599   6.936   3.517   1.765
   16CHTO   H85 6600   6.861   3.471   1.830
   16CHTO   O29 6601   7.021   3.607   1.838
   16CHTO   C50 6602   7.103   3.702   1.766
   16CHTO   H92 6603   7.142   3.774   1.840
   16CHTO   C54 6604   7.232   3.638   1.708
   16CHTO   O36 6605   7.314   3.583   1.812
   16CHTO   H72 6606   7.353   3.653   1.861
   16CHTO   O27 6607   7.013   3.407   1.713
   16CHTO   C37 6608   7.095   3.299   1.762
   16CHTO   H79 6609   7.201   3.329   1.759
   16CHTO   C38 6610   7.061   3.264   1.910
   16CHTO   H80 6611   6.953   3.247   1.918
   16CHTO   O31 6612   7.097   3.377   1.992
   16CHTO   H68 6613   7.041   3.449   1.974
   16CHTO   C39 6614   7.138   3.135   1.960
   16CHTO   H81 6615   7.243   3.164   1.971
   16CHTO    N7 6616   7.091   3.089   2.096
   16CHTO   H73 6617   7.048   2.990   2.090
   16CHTO   H74 6618   7.173   3.090   2.166
   16CHTO   C40 6619   7.135   3.018   1.854
   16CHTO   H82 6620   7.040   2.965   1.857
   16CHTO   O26 6621   7.165   3.066   1.722
   16CHTO   C41 6622   7.076   3.172   1.675
   16CHTO   H83 6623   6.972   3.138   1.683
   16CHTO   C52 6624   7.104   3.198   1.524
   16CHTO   O35 6625   7.242   3.243   1.497
   16CHTO   H71 6626   7.303   3.173   1.516
   16CHTO   O28 6627   7.241   2.924   1.883
   16CHTO   C42 6628   7.241   2.781   1.851
   16CHTO   H84 6629   7.339   2.748   1.884
   16CHTO   C44 6630   7.232   2.742   1.700
   16CHTO   H86 6631   7.135   2.774   1.661
   16CHTO   O32 6632   7.336   2.814   1.631
   16CHTO   H69 6633   7.316   2.906   1.630
   16CHTO   C48 6634   7.245   2.585   1.680
   16CHTO   H90 6635   7.344   2.556   1.712
   16CHTO    N9 6636   7.236   2.543   1.535
   16CHTO   H77 6637   7.224   2.628   1.470
   16CHTO   H78 6638   7.156   2.472   1.520
   16CHTO   C51 6639   7.139   2.512   1.771
   16CHTO   H93 6640   7.040   2.537   1.734
   16CHTO   O30 6641   7.158   2.551   1.907
   16CHTO   C46 6642   7.136   2.699   1.932
   16CHTO   H88 6643   7.035   2.726   1.900
   16CHTO   C53 6644   7.151   2.721   2.084
   16CHTO   O72 6645   7.048   2.655   2.158
   16CHTO  H199 6646   6.965   2.696   2.141
   16CHTO   O22 6647   7.159   2.369   1.772
   16CHTO   C31 6648   7.049   2.279   1.812
   16CHTO   H59 6649   6.986   2.336   1.884
   16CHTO   C29 6650   6.957   2.236   1.695
   16CHTO   H57 6651   7.021   2.188   1.620
   16CHTO   O21 6652   6.903   2.355   1.635
   16CHTO   H37 6653   6.971   2.406   1.596
   16CHTO   C27 6654   6.843   2.137   1.738
   16CHTO   H55 6655   6.772   2.191   1.802
   16CHTO    N5 6656   6.769   2.083   1.621
   16CHTO   H43 6657   6.688   2.020   1.654
   16CHTO   H44 6658   6.730   2.165   1.562
   16CHTO   C25 6659   6.903   2.021   1.825
   16CHTO   H53 6660   6.967   1.957   1.762
   16CHTO   O17 6661   6.985   2.075   1.934
   16CHTO   C32 6662   7.098   2.153   1.889
   16CHTO   H60 6663   7.160   2.093   1.823
   16CHTO   C36 6664   7.182   2.193   2.013
   16CHTO   O25 6665   7.237   2.078   2.078
   16CHTO   H40 6666   7.288   2.105   2.151
   16CHTO   O15 6667   6.789   1.931   1.890
   16CHTO   C19 6668   6.673   1.937   1.979
   16CHTO   H47 6669   6.664   1.834   2.017
   16CHTO   C20 6670   6.690   2.033   2.100
   16CHTO   H48 6671   6.707   2.137   2.068
   16CHTO   O19 6672   6.807   1.989   2.172
   16CHTO   H35 6673   6.827   2.049   2.241
   16CHTO   C21 6674   6.562   2.031   2.194
   16CHTO   H49 6675   6.554   1.932   2.239
   16CHTO    N4 6676   6.569   2.128   2.306
   16CHTO   H41 6677   6.580   2.228   2.268
   16CHTO   H42 6678   6.654   2.105   2.369
   16CHTO   C22 6679   6.434   2.051   2.108
   16CHTO   H50 6680   6.433   2.154   2.070
   16CHTO   O14 6681   6.430   1.959   1.998
   16CHTO   C23 6682   6.539   1.968   1.906
   16CHTO   H51 6683   6.538   2.069   1.862
   16CHTO   C34 6684   6.512   1.867   1.793
   16CHTO   O23 6685   6.394   1.899   1.719
   16CHTO   H38 6686   6.408   1.977   1.668
   16CHTO   O16 6687   6.314   2.021   2.182
   16CHTO   C24 6688   6.186   2.106   2.134
   16CHTO   H52 6689   6.204   2.160   2.041
   16CHTO   C26 6690   6.150   2.208   2.245
   16CHTO   H54 6691   6.141   2.153   2.342
   16CHTO   O20 6692   6.260   2.301   2.256
   16CHTO   H36 6693   6.336   2.258   2.291
   16CHTO   C30 6694   6.015   2.280   2.216
   16CHTO   H58 6695   6.026   2.346   2.129
   16CHTO    N6 6696   5.976   2.369   2.330
   16CHTO   H45 6697   5.965   2.311   2.420
   16CHTO   H46 6698   6.051   2.445   2.345
   16CHTO   C33 6699   5.904   2.176   2.180
   16CHTO   H61 6700   5.883   2.114   2.269
   16CHTO   O18 6701   5.951   2.091   2.075
   16CHTO   C28 6702   6.066   2.011   2.108
   16CHTO   H56 6703   6.048   1.952   2.198
   16CHTO   C35 6704   6.097   1.915   1.991
   16CHTO   O24 6705   5.994   1.819   1.969
   16CHTO   H39 6706   5.918   1.861   1.933
   16CHTO    O9 6707   5.779   2.239   2.145
   16CHTO   C13 6708   5.658   2.214   2.253
   16CHTO   H26 6709   5.697   2.238   2.354
   16CHTO   C11 6710   5.607   2.063   2.244
   16CHTO   H24 6711   5.682   1.999   2.293
   16CHTO    O8 6712   5.597   2.022   2.106
   16CHTO    H3 6713   5.574   1.931   2.101
   16CHTO    C9 6714   5.472   2.054   2.320
   16CHTO   H22 6715   5.491   2.099   2.419
   16CHTO    N2 6716   5.431   1.915   2.351
   16CHTO   H10 6717   5.409   1.862   2.260
   16CHTO   H11 6718   5.345   1.915   2.416
   16CHTO    C7 6719   5.364   2.143   2.245
   16CHTO   H20 6720   5.304   2.186   2.328
   16CHTO    O4 6721   5.423   2.251   2.169
   16CHTO   C14 6722   5.536   2.315   2.232
   16CHTO   H27 6723   5.502   2.352   2.331
   16CHTO   C18 6724   5.573   2.440   2.148
   16CHTO   O13 6725   5.675   2.518   2.211
   16CHTO    H7 6726   5.757   2.471   2.209
   16CHTO    O2 6727   5.265   2.052   2.143
   16CHTO    C1 6728   5.141   2.106   2.094
   16CHTO   H14 6729   5.081   2.020   2.055
   16CHTO    C2 6730   5.158   2.211   1.977
   16CHTO   H15 6731   5.214   2.297   2.018
   16CHTO    O6 6732   5.232   2.150   1.870
   16CHTO    H1 6733   5.320   2.135   1.897
   16CHTO    C3 6734   5.013   2.260   1.927
   16CHTO   H16 6735   4.961   2.174   1.881
   16CHTO    N1 6736   5.021   2.366   1.821
   16CHTO    H8 6737   5.076   2.329   1.735
   16CHTO    H9 6738   4.922   2.396   1.790
   16CHTO    C4 6739   4.924   2.304   2.049
   16CHTO   H17 6740   4.961   2.400   2.087
   16CHTO    O1 6741   4.925   2.205   2.154
   16CHTO    C5 6742   5.054   2.170   2.206
   16CHTO   H18 6743   5.105   2.259   2.243
   16CHTO   C16 6744   5.031   2.072   2.325
   16CHTO   O11 6745   4.963   2.137   2.433
   16CHTO    H5 6746   4.875   2.156   2.408
   16CHTO    O3 6747   4.785   2.314   2.011
   16CHTO    C6 6748   4.703   2.394   2.101
   16CHTO   H19 6749   4.753   2.418   2.195
   16CHTO    C8 6750   4.664   2.529   2.032
   16CHTO   H21 6751   4.615   2.506   1.937
   16CHTO    O7 6752   4.786   2.601   2.008
   16CHTO    H2 6753   4.769   2.678   1.958
   16CHTO   C12 6754   4.564   2.610   2.124
   16CHTO   H25 6755   4.622   2.642   2.213
   16CHTO    N3 6756   4.518   2.736   2.056
   16CHTO   H12 6757   4.453   2.792   2.122
   16CHTO   H13 6758   4.468   2.713   1.964
   16CHTO   C15 6759   4.445   2.519   2.170
   16CHTO   H28 6760   4.376   2.496   2.089
   16CHTO   O10 6761   4.365   2.582   2.289
   16CHTO    H4 6762   4.423   2.605   2.359
   16CHTO    O5 6763   4.494   2.397   2.229
   16CHTO   C10 6764   4.573   2.317   2.139
   16CHTO   H23 6765   4.514   2.295   2.050
   16CHTO   C17 6766   4.599   2.184   2.212
   16CHTO   O12 6767   4.650   2.084   2.124
   16CHTO    H6 6768   4.583   2.056   2.064
   17CHTO  H203 6769   4.951   4.473   0.935
   17CHTO   O82 6770   4.995   4.539   0.984
   17CHTO  C123 6771   4.925   4.664   0.973
   17CHTO  H227 6772   4.824   4.651   1.014
   17CHTO   O77 6773   5.003   4.753   1.058
   17CHTO  C118 6774   4.942   4.882   1.077
   17CHTO  H222 6775   4.842   4.868   1.121
   17CHTO  C125 6776   5.031   4.964   1.177
   17CHTO   O84 6777   5.035   4.902   1.306
   17CHTO  H205 6778   5.089   4.953   1.363
   17CHTO  C114 6779   4.928   4.956   0.942
   17CHTO  H218 6780   5.028   4.977   0.904
   17CHTO  C116 6781   4.855   4.867   0.836
   17CHTO  H220 6782   4.748   4.857   0.864
   17CHTO   O79 6783   4.858   4.936   0.709
   17CHTO  H201 6784   4.806   4.890   0.646
   17CHTO  C120 6785   4.922   4.724   0.828
   17CHTO  H224 6786   5.025   4.739   0.790
   17CHTO   N21 6787   4.853   4.634   0.731
   17CHTO  H211 6788   4.772   4.580   0.779
   17CHTO  H212 6789   4.816   4.690   0.646
   17CHTO   O75 6790   4.859   5.078   0.975
   17CHTO  C112 6791   4.880   5.206   0.870
   17CHTO  H216 6792   4.825   5.185   0.777
   17CHTO   O73 6793   5.021   5.222   0.846
   17CHTO  C113 6794   5.053   5.327   0.754
   17CHTO  H217 6795   4.998   5.310   0.659
   17CHTO  C124 6796   5.203   5.320   0.722
   17CHTO   O83 6797   5.238   5.201   0.651
   17CHTO  H204 6798   5.229   5.126   0.707
   17CHTO  C109 6799   5.013   5.465   0.813
   17CHTO  H213 6800   5.073   5.479   0.904
   17CHTO  C110 6801   4.861   5.463   0.849
   17CHTO  H214 6802   4.804   5.462   0.756
   17CHTO   O78 6803   4.829   5.586   0.917
   17CHTO  H200 6804   4.736   5.593   0.930
   17CHTO  C111 6805   4.823   5.339   0.935
   17CHTO  H215 6806   4.871   5.349   1.034
   17CHTO   N19 6807   4.677   5.326   0.960
   17CHTO  H207 6808   4.625   5.314   0.866
   17CHTO  H208 6809   4.657   5.241   1.024
   17CHTO   O74 6810   5.044   5.571   0.718
   17CHTO  C115 6811   5.106   5.705   0.785
   17CHTO  H219 6812   5.041   5.744   0.864
   17CHTO   O76 6813   5.245   5.675   0.858
   17CHTO  C122 6814   5.356   5.676   0.767
   17CHTO  H226 6815   5.336   5.601   0.691
   17CHTO  C126 6816   5.483   5.627   0.844
   17CHTO   O85 6817   5.598   5.613   0.759
   17CHTO  H206 6818   5.626   5.698   0.730
   17CHTO  C121 6819   5.377   5.819   0.702
   17CHTO  H225 6820   5.454   5.872   0.761
   17CHTO   O81 6821   5.425   5.801   0.568
   17CHTO  H202 6822   5.510   5.763   0.568
   17CHTO  C119 6823   5.246   5.904   0.701
   17CHTO  H223 6824   5.235   5.943   0.802
   17CHTO  C117 6825   5.121   5.814   0.671
   17CHTO  H221 6826   5.125   5.757   0.578
   17CHTO   N20 6827   4.995   5.895   0.661
   17CHTO  H209 6828   4.911   5.831   0.638
   17CHTO  H210 6829   5.006   5.970   0.584
   17CHTO   O80 6830   5.261   6.044   0.614
   17CHTO  C103 6831   5.337   6.171   0.677
   17CHTO  H190 6832   5.327   6.172   0.786
   17CHTO  C101 6833   5.489   6.188   0.639
   17CHTO  H188 6834   5.500   6.170   0.532
   17CHTO   O68 6835   5.572   6.083   0.715
   17CHTO  H168 6836   5.661   6.086   0.687
   17CHTO   C99 6837   5.542   6.337   0.670
   17CHTO  H186 6838   5.539   6.355   0.779
   17CHTO   N17 6839   5.684   6.362   0.625
   17CHTO  H174 6840   5.750   6.291   0.673
   17CHTO  H175 6841   5.691   6.354   0.518
   17CHTO   C97 6842   5.444   6.440   0.608
   17CHTO  H184 6843   5.446   6.428   0.498
   17CHTO   O64 6844   5.313   6.419   0.662
   17CHTO  C104 6845   5.254   6.294   0.622
   17CHTO  H191 6846   5.247   6.287   0.514
   17CHTO  C108 6847   5.110   6.290   0.675
   17CHTO   O71 6848   5.029   6.394   0.618
   17CHTO  H171 6849   5.057   6.477   0.652
   17CHTO   O62 6850   5.475   6.577   0.643
   17CHTO   C91 6851   5.423   6.678   0.554
   17CHTO  H178 6852   5.359   6.630   0.480
   17CHTO   C92 6853   5.542   6.742   0.474
   17CHTO  H179 6854   5.606   6.662   0.433
   17CHTO   O66 6855   5.488   6.810   0.359
   17CHTO  H166 6856   5.430   6.879   0.385
   17CHTO   C93 6857   5.626   6.847   0.558
   17CHTO  H180 6858   5.678   6.911   0.485
   17CHTO   N16 6859   5.734   6.786   0.639
   17CHTO  H172 6860   5.804   6.734   0.574
   17CHTO  H173 6861   5.692   6.717   0.711
   17CHTO   C94 6862   5.531   6.937   0.647
   17CHTO  H181 6863   5.536   6.911   0.753
   17CHTO   O61 6864   5.393   6.924   0.608
   17CHTO   C95 6865   5.339   6.792   0.627
   17CHTO  H182 6866   5.336   6.770   0.734
   17CHTO  C106 6867   5.189   6.791   0.578
   17CHTO   O69 6868   5.108   6.881   0.655
   17CHTO  H169 6869   5.133   6.969   0.638
   17CHTO   O63 6870   5.573   7.087   0.628
   17CHTO   C96 6871   5.512   7.182   0.739
   17CHTO  H183 6872   5.475   7.121   0.822
   17CHTO   C98 6873   5.395   7.271   0.689
   17CHTO  H185 6874   5.425   7.324   0.597
   17CHTO   O67 6875   5.286   7.185   0.650
   17CHTO  H167 6876   5.310   7.134   0.575
   17CHTO  C102 6877   5.346   7.377   0.800
   17CHTO  H189 6878   5.296   7.317   0.878
   17CHTO   N18 6879   5.244   7.474   0.752
   17CHTO  H176 6880   5.214   7.539   0.833
   17CHTO  H177 6881   5.157   7.421   0.715
   17CHTO  C105 6882   5.469   7.448   0.864
   17CHTO  H192 6883   5.511   7.518   0.792
   17CHTO   O65 6884   5.572   7.355   0.904
   17CHTO  C100 6885   5.625   7.275   0.798
   17CHTO  H187 6886   5.663   7.342   0.718
   17CHTO  C107 6887   5.746   7.198   0.856
   17CHTO   O70 6888   5.823   7.132   0.755
   17CHTO  H170 6889   5.869   7.195   0.704
   17CHTO   O57 6890   5.414   7.527   0.996
   17CHTO   C85 6891   5.486   7.641   1.044
   17CHTO  H157 6892   5.526   7.693   0.954
   17CHTO   C83 6893   5.612   7.596   1.126
   17CHTO  H155 6894   5.680   7.544   1.059
   17CHTO   O56 6895   5.572   7.502   1.227
   17CHTO  H135 6896   5.537   7.424   1.188
   17CHTO   C81 6897   5.684   7.721   1.183
   17CHTO  H153 6898   5.712   7.785   1.100
   17CHTO   N14 6899   5.814   7.689   1.248
   17CHTO  H141 6900   5.865   7.779   1.275
   17CHTO  H142 6901   5.798   7.629   1.335
   17CHTO   C79 6902   5.587   7.802   1.277
   17CHTO  H151 6903   5.640   7.893   1.307
   17CHTO   O52 6904   5.471   7.846   1.199
   17CHTO   C86 6905   5.398   7.738   1.132
   17CHTO  H158 6906   5.350   7.681   1.215
   17CHTO   C90 6907   5.282   7.797   1.048
   17CHTO   O60 6908   5.186   7.862   1.131
   17CHTO  H138 6909   5.139   7.799   1.182
   17CHTO   O50 6910   5.544   7.733   1.396
   17CHTO   C73 6911   5.504   7.737   1.534
   17CHTO  H145 6912   5.474   7.838   1.563
   17CHTO   C74 6913   5.622   7.694   1.627
   17CHTO  H146 6914   5.705   7.764   1.608
   17CHTO   O54 6915   5.582   7.714   1.764
   17CHTO  H133 6916   5.510   7.658   1.786
   17CHTO   C75 6917   5.662   7.546   1.591
   17CHTO  H147 6918   5.701   7.544   1.489
   17CHTO   N13 6919   5.772   7.491   1.675
   17CHTO  H139 6920   5.861   7.551   1.662
   17CHTO  H140 6921   5.744   7.492   1.779
   17CHTO   C76 6922   5.533   7.450   1.592
   17CHTO  H148 6923   5.503   7.433   1.696
   17CHTO   O49 6924   5.420   7.508   1.518
   17CHTO   C77 6925   5.384   7.641   1.558
   17CHTO  H149 6926   5.358   7.641   1.663
   17CHTO   C88 6927   5.257   7.682   1.482
   17CHTO   O58 6928   5.204   7.809   1.534
   17CHTO  H136 6929   5.126   7.832   1.487
   17CHTO   O51 6930   5.565   7.319   1.515
   17CHTO   C78 6931   5.458   7.209   1.528
   17CHTO  H150 6932   5.362   7.251   1.566
   17CHTO   C80 6933   5.507   7.100   1.625
   17CHTO  H152 6934   5.611   7.072   1.596
   17CHTO   O55 6935   5.512   7.160   1.756
   17CHTO  H134 6936   5.548   7.099   1.818
   17CHTO   C84 6937   5.415   6.972   1.622
   17CHTO  H156 6938   5.318   7.000   1.662
   17CHTO   N15 6939   5.469   6.861   1.708
   17CHTO  H143 6940   5.477   6.895   1.809
   17CHTO  H144 6941   5.404   6.777   1.704
   17CHTO   C87 6942   5.397   6.927   1.474
   17CHTO  H159 6943   5.494   6.898   1.434
   17CHTO   O53 6944   5.341   7.041   1.395
   17CHTO   C82 6945   5.430   7.153   1.387
   17CHTO  H154 6946   5.522   7.125   1.338
   17CHTO   C89 6947   5.363   7.261   1.298
   17CHTO   O59 6948   5.349   7.217   1.162
   17CHTO  H137 6949   5.287   7.146   1.157
   17CHTO   O45 6950   5.295   6.800   1.453
   17CHTO   C67 6951   5.163   6.809   1.510
   17CHTO  H124 6952   5.170   6.846   1.612
   17CHTO   C65 6953   5.065   6.902   1.428
   17CHTO  H122 6954   5.126   6.955   1.354
   17CHTO   O44 6955   5.007   6.998   1.518
   17CHTO  H102 6956   5.073   7.053   1.554
   17CHTO   C63 6957   4.963   6.819   1.343
   17CHTO  H120 6958   5.018   6.752   1.278
   17CHTO   N11 6959   4.882   6.896   1.243
   17CHTO  H108 6960   4.946   6.955   1.182
   17CHTO  H109 6961   4.813   6.960   1.294
   17CHTO   C61 6962   4.880   6.725   1.440
   17CHTO  H118 6963   4.845   6.642   1.378
   17CHTO   O40 6964   4.961   6.667   1.547
   17CHTO   C68 6965   5.105   6.663   1.522
   17CHTO  H125 6966   5.123   6.608   1.427
   17CHTO   C72 6967   5.172   6.581   1.634
   17CHTO   O48 6968   5.310   6.552   1.609
   17CHTO  H105 6969   5.318   6.492   1.537
   17CHTO   O38 6970   4.769   6.793   1.503
   17CHTO   C55 6971   4.677   6.718   1.585
   17CHTO  H112 6972   4.734   6.653   1.653
   17CHTO   C56 6973   4.573   6.635   1.497
   17CHTO  H113 6974   4.534   6.704   1.421
   17CHTO   O42 6975   4.642   6.530   1.425
   17CHTO  H100 6976   4.583   6.487   1.366
   17CHTO   C57 6977   4.456   6.574   1.585
   17CHTO  H114 6978   4.499   6.495   1.646
   17CHTO   N10 6979   4.348   6.513   1.503
   17CHTO  H106 6980   4.253   6.518   1.554
   17CHTO  H107 6981   4.371   6.409   1.482
   17CHTO   C58 6982   4.399   6.684   1.678
   17CHTO  H115 6983   4.350   6.763   1.617
   17CHTO   O37 6984   4.504   6.743   1.756
   17CHTO   C59 6985   4.599   6.817   1.677
   17CHTO  H116 6986   4.547   6.892   1.618
   17CHTO   C70 6987   4.692   6.889   1.776
   17CHTO   O46 6988   4.772   6.991   1.714
   17CHTO  H103 6989   4.832   6.953   1.654
   17CHTO   O39 6990   4.290   6.620   1.784
   17CHTO   C60 6991   4.205   6.718   1.846
   17CHTO  H117 6992   4.266   6.804   1.875
   17CHTO   C62 6993   4.093   6.768   1.751
   17CHTO  H119 6994   4.144   6.812   1.662
   17CHTO   O43 6995   4.015   6.655   1.706
   17CHTO  H101 6996   3.950   6.683   1.644
   17CHTO   C66 6997   4.007   6.882   1.824
   17CHTO  H123 6998   4.074   6.962   1.854
   17CHTO   N12 6999   3.907   6.944   1.733
   17CHTO  H110 7000   3.852   7.021   1.785
   17CHTO  H111 7001   3.957   6.985   1.646
   17CHTO   C69 7002   3.942   6.824   1.953
   17CHTO  H126 7003   3.869   6.744   1.927
   17CHTO   O41 7004   4.055   6.765   2.045
   17CHTO   C64 7005   4.144   6.660   1.977
   17CHTO  H121 7006   4.084   6.570   1.952
   17CHTO   C71 7007   4.255   6.617   2.076
   17CHTO   O47 7008   4.199   6.553   2.191
   17CHTO  H104 7009   4.268   6.532   2.251
   17CHTO   O34 7010   3.867   6.934   2.034
   17CHTO   C49 7011   3.791   7.048   2.098
   17CHTO   H91 7012   3.861   7.130   2.110
   17CHTO   C47 7013   3.739   7.003   2.236
   17CHTO   H89 7014   3.697   7.096   2.282
   17CHTO   O33 7015   3.847   6.957   2.318
   17CHTO   H70 7016   3.818   6.944   2.406
   17CHTO   C45 7017   3.624   6.888   2.222
   17CHTO   H87 7018   3.673   6.790   2.228
   17CHTO    N8 7019   3.530   6.901   2.336
   17CHTO   H75 7020   3.478   6.995   2.331
   17CHTO   H76 7021   3.583   6.893   2.430
   17CHTO   C43 7022   3.558   6.892   2.075
   17CHTO   H85 7023   3.628   6.837   2.012
   17CHTO   O29 7024   3.543   7.029   2.032
   17CHTO   C50 7025   3.669   7.096   2.012
   17CHTO   H92 7026   3.696   7.083   1.906
   17CHTO   C54 7027   3.645   7.249   2.022
   17CHTO   O36 7028   3.592   7.288   2.149
   17CHTO   H72 7029   3.656   7.275   2.216
   17CHTO   O27 7030   3.433   6.822   2.062
   17CHTO   C37 7031   3.377   6.749   1.952
   17CHTO   H79 7032   3.267   6.756   1.956
   17CHTO   C38 7033   3.420   6.809   1.814
   17CHTO   H80 7034   3.529   6.818   1.813
   17CHTO   O31 7035   3.363   6.941   1.803
   17CHTO   H68 7036   3.403   6.999   1.865
   17CHTO   C39 7037   3.375   6.719   1.693
   17CHTO   H81 7038   3.266   6.725   1.686
   17CHTO    N7 7039   3.430   6.765   1.560
   17CHTO   H73 7040   3.350   6.790   1.493
   17CHTO   H74 7041   3.496   6.850   1.573
   17CHTO   C40 7042   3.412   6.568   1.720
   17CHTO   H82 7043   3.520   6.555   1.714
   17CHTO   O26 7044   3.360   6.527   1.848
   17CHTO   C41 7045   3.418   6.599   1.961
   17CHTO   H83 7046   3.528   6.591   1.959
   17CHTO   C52 7047   3.366   6.530   2.089
   17CHTO   O35 7048   3.431   6.578   2.214
   17CHTO   H71 7049   3.409   6.668   2.229
   17CHTO   O28 7050   3.347   6.478   1.628
   17CHTO   C42 7051   3.413   6.353   1.588
   17CHTO   H84 7052   3.333   6.297   1.539
   17CHTO   C44 7053   3.467   6.262   1.703
   17CHTO   H86 7054   3.535   6.320   1.765
   17CHTO   O32 7055   3.354   6.225   1.785
   17CHTO   H69 7056   3.293   6.172   1.737
   17CHTO   C48 7057   3.546   6.135   1.651
   17CHTO   H90 7058   3.475   6.068   1.602
   17CHTO    N9 7059   3.609   6.056   1.762
   17CHTO   H77 7060   3.661   5.970   1.722
   17CHTO   H78 7061   3.533   6.024   1.832
   17CHTO   C51 7062   3.651   6.182   1.544
   17CHTO   H93 7063   3.723   6.247   1.593
   17CHTO   O30 7064   3.581   6.249   1.439
   17CHTO   C46 7065   3.523   6.377   1.480
   17CHTO   H88 7066   3.602   6.440   1.522
   17CHTO   C53 7067   3.465   6.444   1.353
   17CHTO   O72 7068   3.569   6.477   1.260
   17CHTO  H199 7069   3.531   6.518   1.185
   17CHTO   O22 7070   3.719   6.073   1.478
   17CHTO   C31 7071   3.831   6.106   1.387
   17CHTO   H59 7072   3.822   6.215   1.365
   17CHTO   C29 7073   3.971   6.084   1.448
   17CHTO   H57 7074   3.983   5.976   1.465
   17CHTO   O21 7075   3.977   6.148   1.577
   17CHTO   H37 7076   3.971   6.241   1.568
   17CHTO   C27 7077   4.084   6.134   1.349
   17CHTO   H55 7078   4.077   6.244   1.343
   17CHTO    N5 7079   4.220   6.099   1.398
   17CHTO   H43 7080   4.276   6.044   1.324
   17CHTO   H44 7081   4.273   6.188   1.427
   17CHTO   C25 7082   4.059   6.080   1.203
   17CHTO   H53 7083   4.087   5.974   1.197
   17CHTO   O17 7084   3.920   6.091   1.161
   17CHTO   C32 7085   3.824   6.032   1.250
   17CHTO   H60 7086   3.848   5.927   1.266
   17CHTO   C36 7087   3.684   6.039   1.185
   17CHTO   O25 7088   3.644   6.173   1.154
   17CHTO   H40 7089   3.558   6.173   1.118
   17CHTO   O15 7090   4.147   6.163   1.097
   17CHTO   C19 7091   4.161   6.306   1.068
   17CHTO   H47 7092   4.182   6.309   0.960
   17CHTO   C20 7093   4.033   6.391   1.096
   17CHTO   H48 7094   3.996   6.376   1.199
   17CHTO   O19 7095   3.932   6.344   1.006
   17CHTO   H35 7096   3.850   6.384   1.025
   17CHTO   C21 7097   4.057   6.546   1.076
   17CHTO   H49 7098   4.070   6.566   0.970
   17CHTO    N4 7099   3.942   6.629   1.122
   17CHTO   H41 7100   3.901   6.686   1.039
   17CHTO   H42 7101   3.863   6.568   1.164
   17CHTO   C22 7102   4.189   6.589   1.146
   17CHTO   H50 7103   4.176   6.580   1.254
   17CHTO   O14 7104   4.298   6.507   1.102
   17CHTO   C23 7105   4.286   6.369   1.138
   17CHTO   H51 7106   4.278   6.363   1.247
   17CHTO   C34 7107   4.416   6.297   1.099
   17CHTO   O23 7108   4.446   6.310   0.960
   17CHTO   H38 7109   4.469   6.398   0.940
   17CHTO   O16 7110   4.228   6.723   1.109
   17CHTO   C24 7111   4.318   6.795   1.218
   17CHTO   H52 7112   4.361   6.724   1.289
   17CHTO   C26 7113   4.231   6.896   1.295
   17CHTO   H54 7114   4.175   6.959   1.221
   17CHTO   O20 7115   4.135   6.822   1.372
   17CHTO   H36 7116   4.073   6.881   1.413
   17CHTO   C30 7117   4.318   6.991   1.384
   17CHTO   H58 7118   4.367   6.933   1.464
   17CHTO    N6 7119   4.235   7.095   1.451
   17CHTO   H45 7120   4.161   7.047   1.515
   17CHTO   H46 7121   4.297   7.159   1.512
   17CHTO   C33 7122   4.433   7.052   1.297
   17CHTO   H61 7123   4.388   7.111   1.215
   17CHTO   O18 7124   4.509   6.944   1.240
   17CHTO   C28 7125   4.436   6.863   1.146
   17CHTO   H56 7126   4.398   6.925   1.065
   17CHTO   C35 7127   4.532   6.757   1.088
   17CHTO   O24 7128   4.635   6.815   1.006
   17CHTO   H39 7129   4.692   6.748   0.976
   17CHTO    O9 7130   4.517   7.143   1.370
   17CHTO   C13 7131   4.609   7.236   1.271
   17CHTO   H26 7132   4.632   7.177   1.180
   17CHTO   C11 7133   4.741   7.275   1.349
   17CHTO   H24 7134   4.801   7.184   1.362
   17CHTO    O8 7135   4.711   7.324   1.481
   17CHTO    H3 7136   4.661   7.403   1.476
   17CHTO    C9 7137   4.821   7.374   1.260
   17CHTO   H22 7138   4.830   7.325   1.162
   17CHTO    N2 7139   4.961   7.398   1.304
   17CHTO   H10 7140   5.012   7.459   1.231
   17CHTO   H11 7141   5.012   7.303   1.315
   17CHTO    C7 7142   4.737   7.505   1.243
   17CHTO   H20 7143   4.798   7.567   1.173
   17CHTO    O4 7144   4.610   7.478   1.181
   17CHTO   C14 7145   4.529   7.364   1.219
   17CHTO   H27 7146   4.477   7.333   1.127
   17CHTO   C18 7147   4.420   7.412   1.318
   17CHTO   O13 7148   4.331   7.506   1.257
   17CHTO    H7 7149   4.278   7.462   1.193
   17CHTO    O2 7150   4.713   7.590   1.387
   17CHTO    C1 7151   4.656   7.722   1.374
   17CHTO   H14 7152   4.571   7.719   1.302
   17CHTO    C2 7153   4.759   7.835   1.327
   17CHTO   H15 7154   4.845   7.827   1.395
   17CHTO    O6 7155   4.803   7.808   1.193
   17CHTO    H1 7156   4.730   7.810   1.133
   17CHTO    C3 7157   4.694   7.983   1.337
   17CHTO   H16 7158   4.614   7.991   1.261
   17CHTO    N1 7159   4.793   8.092   1.307
   17CHTO    H8 7160   4.891   8.051   1.285
   17CHTO    H9 7161   4.802   8.161   1.390
   17CHTO    C4 7162   4.623   8.002   1.476
   17CHTO   H17 7163   4.700   8.007   1.554
   17CHTO    O1 7164   4.533   7.893   1.500
   17CHTO    C5 7165   4.595   7.765   1.512
   17CHTO   H18 7166   4.676   7.769   1.585
   17CHTO   C16 7167   4.484   7.672   1.566
   17CHTO   O11 7168   4.535   7.545   1.606
   17CHTO    H5 7169   4.464   7.491   1.638
   17CHTO    O3 7170   4.539   8.119   1.480
   17CHTO    C6 7171   4.515   8.189   1.608
   17CHTO   H19 7172   4.419   8.241   1.605
   17CHTO    C8 7173   4.508   8.096   1.735
   17CHTO   H21 7174   4.597   8.032   1.737
   17CHTO    O7 7175   4.391   8.014   1.721
   17CHTO    H2 7176   4.402   7.952   1.651
   17CHTO   C12 7177   4.506   8.179   1.869
   17CHTO   H25 7178   4.408   8.232   1.872
   17CHTO    N3 7179   4.510   8.089   1.990
   17CHTO   H12 7180   4.425   8.023   1.989
   17CHTO   H13 7181   4.511   8.149   2.080
   17CHTO   C15 7182   4.621   8.285   1.866
   17CHTO   H28 7183   4.719   8.238   1.869
   17CHTO   O10 7184   4.611   8.388   1.980
   17CHTO    H4 7185   4.688   8.442   1.982
   17CHTO    O5 7186   4.609   8.369   1.750
   17CHTO   C10 7187   4.624   8.299   1.625
   17CHTO   H23 7188   4.723   8.254   1.622
   17CHTO   C17 7189   4.616   8.403   1.512
   17CHTO   O12 7190   4.721   8.500   1.522
   17CHTO    H6 7191   4.711   8.563   1.453
   18CHTO  H203 7192   5.935   8.033   2.343
   18CHTO   O82 7193   5.995   8.084   2.292
   18CHTO  C123 7194   5.947   8.098   2.157
   18CHTO  H227 7195   5.848   8.145   2.160
   18CHTO   O77 7196   6.044   8.188   2.097
   18CHTO  C118 7197   6.011   8.226   1.963
   18CHTO  H222 7198   5.909   8.268   1.959
   18CHTO  C125 7199   6.113   8.337   1.919
   18CHTO   O84 7200   6.107   8.450   2.006
   18CHTO  H205 7201   6.144   8.428   2.090
   18CHTO  C114 7202   6.019   8.101   1.872
   18CHTO  H218 7203   6.120   8.061   1.878
   18CHTO  C116 7204   5.922   7.990   1.924
   18CHTO  H220 7205   5.817   8.022   1.906
   18CHTO   O79 7206   5.943   7.871   1.846
   18CHTO  H201 7207   5.914   7.884   1.758
   18CHTO  C120 7208   5.944   7.961   2.078
   18CHTO  H224 7209   6.043   7.911   2.087
   18CHTO   N21 7210   5.842   7.867   2.132
   18CHTO  H211 7211   5.883   7.811   2.215
   18CHTO  H212 7212   5.753   7.921   2.163
   18CHTO   O75 7213   5.987   8.145   1.739
   18CHTO  C112 7214   6.110   8.119   1.629
   18CHTO  H216 7215   6.182   8.047   1.671
   18CHTO   O73 7216   6.171   8.246   1.602
   18CHTO  C113 7217   6.285   8.237   1.515
   18CHTO  H217 7218   6.359   8.167   1.558
   18CHTO  C124 7219   6.353   8.375   1.508
   18CHTO   O83 7220   6.408   8.415   1.633
   18CHTO  H204 7221   6.449   8.499   1.624
   18CHTO  C109 7222   6.242   8.188   1.374
   18CHTO  H213 7223   6.175   8.266   1.333
   18CHTO  C110 7224   6.165   8.053   1.386
   18CHTO  H214 7225   6.237   7.975   1.413
   18CHTO   O78 7226   6.113   8.018   1.256
   18CHTO  H200 7227   6.049   8.082   1.228
   18CHTO  C111 7228   6.053   8.060   1.494
   18CHTO  H215 7229   5.975   8.129   1.458
   18CHTO   N19 7230   5.986   7.929   1.517
   18CHTO  H207 7231   5.879   7.937   1.501
   18CHTO  H208 7232   6.005   7.891   1.616
   18CHTO   O74 7233   6.360   8.175   1.289
   18CHTO  C115 7234   6.339   8.237   1.139
   18CHTO  H219 7235   6.254   8.192   1.087
   18CHTO   O76 7236   6.306   8.393   1.145
   18CHTO  C122 7237   6.294   8.459   1.018
   18CHTO  H226 7238   6.291   8.567   1.038
   18CHTO  C126 7239   6.155   8.424   0.953
   18CHTO   O85 7240   6.131   8.497   0.832
   18CHTO  H206 7241   6.046   8.474   0.798
   18CHTO  C121 7242   6.416   8.430   0.922
   18CHTO  H225 7243   6.391   8.469   0.821
   18CHTO   O81 7244   6.532   8.501   0.967
   18CHTO  H202 7245   6.517   8.593   0.963
   18CHTO  C119 7246   6.446   8.277   0.910
   18CHTO  H223 7247   6.357   8.232   0.867
   18CHTO  C117 7248   6.468   8.213   1.052
   18CHTO  H221 7249   6.550   8.254   1.110
   18CHTO   N20 7250   6.497   8.067   1.040
   18CHTO  H209 7251   6.414   8.015   0.995
   18CHTO  H210 7252   6.518   8.025   1.138
   18CHTO   O80 7253   6.559   8.245   0.793
   18CHTO  C103 7254   6.516   8.166   0.656
   18CHTO  H190 7255   6.601   8.163   0.588
   18CHTO  C101 7256   6.464   8.018   0.675
   18CHTO  H188 7257   6.387   8.018   0.752
   18CHTO   O68 7258   6.584   7.930   0.725
   18CHTO  H168 7259   6.650   7.925   0.659
   18CHTO   C99 7260   6.400   7.962   0.539
   18CHTO  H186 7261   6.477   7.962   0.459
   18CHTO   N17 7262   6.348   7.821   0.549
   18CHTO  H174 7263   6.357   7.784   0.650
   18CHTO  H175 7264   6.247   7.814   0.513
   18CHTO   C97 7265   6.291   8.063   0.493
   18CHTO  H184 7266   6.216   8.069   0.573
   18CHTO   O64 7267   6.353   8.190   0.469
   18CHTO  C104 7268   6.404   8.254   0.587
   18CHTO  H191 7269   6.324   8.274   0.658
   18CHTO  C108 7270   6.461   8.392   0.547
   18CHTO   O71 7271   6.359   8.479   0.499
   18CHTO  H171 7272   6.302   8.504   0.569
   18CHTO   O62 7273   6.229   8.031   0.365
   18CHTO   C91 7274   6.087   8.059   0.357
   18CHTO  H178 7275   6.052   8.095   0.453
   18CHTO   C92 7276   6.007   7.928   0.327
   18CHTO  H179 7277   6.039   7.889   0.229
   18CHTO   O66 7278   6.041   7.828   0.424
   18CHTO  H166 7279   6.130   7.800   0.412
   18CHTO   C93 7280   5.850   7.953   0.329
   18CHTO  H180 7281   5.823   7.958   0.436
   18CHTO   N16 7282   5.771   7.840   0.275
   18CHTO  H172 7283   5.835   7.759   0.241
   18CHTO  H173 7284   5.701   7.804   0.348
   18CHTO   C94 7285   5.808   8.088   0.260
   18CHTO  H181 7286   5.795   8.076   0.152
   18CHTO   O61 7287   5.903   8.195   0.277
   18CHTO   C95 7288   6.040   8.164   0.250
   18CHTO  H182 7289   6.049   8.123   0.150
   18CHTO  C106 7290   6.123   8.297   0.255
   18CHTO   O69 7291   6.079   8.390   0.156
   18CHTO  H169 7292   5.995   8.424   0.180
   18CHTO   O63 7293   5.668   8.136   0.329
   18CHTO   C96 7294   5.615   8.273   0.276
   18CHTO  H183 7295   5.669   8.298   0.184
   18CHTO   C98 7296   5.631   8.391   0.375
   18CHTO  H185 7297   5.585   8.365   0.472
   18CHTO   O67 7298   5.771   8.408   0.402
   18CHTO  H167 7299   5.784   8.473   0.468
   18CHTO  C102 7300   5.568   8.527   0.316
   18CHTO  H189 7301   5.634   8.557   0.233
   18CHTO   N18 7302   5.569   8.640   0.412
   18CHTO  H176 7303   5.510   8.616   0.499
   18CHTO  H177 7304   5.529   8.729   0.364
   18CHTO  C105 7305   5.426   8.501   0.257
   18CHTO  H192 7306   5.354   8.490   0.339
   18CHTO   O65 7307   5.418   8.382   0.177
   18CHTO  C100 7308   5.462   8.261   0.240
   18CHTO  H187 7309   5.405   8.247   0.333
   18CHTO  C107 7310   5.432   8.140   0.148
   18CHTO   O70 7311   5.500   8.148   0.022
   18CHTO  H170 7312   5.593   8.137   0.036
   18CHTO   O57 7313   5.392   8.637   0.163
   18CHTO   C85 7314   5.260   8.675   0.119
   18CHTO  H157 7315   5.280   8.755   0.045
   18CHTO   C83 7316   5.182   8.747   0.234
   18CHTO  H155 7317   5.235   8.840   0.258
   18CHTO   O56 7318   5.183   8.669   0.355
   18CHTO  H135 7319   5.271   8.658   0.386
   18CHTO   C81 7320   5.039   8.783   0.184
   18CHTO  H153 7321   5.049   8.844   0.094
   18CHTO   N14 7322   4.964   8.872   0.277
   18CHTO  H141 7323   4.867   8.831   0.299
   18CHTO  H142 7324   5.017   8.886   0.369
   18CHTO   C79 7325   4.962   8.652   0.146
   18CHTO  H151 7326   4.864   8.682   0.107
   18CHTO   O52 7327   5.031   8.584   0.036
   18CHTO   C86 7328   5.173   8.557   0.058
   18CHTO  H158 7329   5.175   8.467   0.123
   18CHTO   C90 7330   5.237   8.514   2.793
   18CHTO   O60 7331   5.176   8.396   2.741
   18CHTO  H138 7332   5.218   8.372   2.661
   18CHTO   O50 7333   4.940   8.562   0.256
   18CHTO   C73 7334   4.865   8.450   0.306
   18CHTO  H145 7335   4.881   8.362   0.242
   18CHTO   C74 7336   4.712   8.482   0.307
   18CHTO  H146 7337   4.682   8.505   0.204
   18CHTO   O54 7338   4.641   8.363   0.344
   18CHTO  H133 7339   4.649   8.297   0.277
   18CHTO   C75 7340   4.686   8.604   0.405
   18CHTO  H147 7341   4.737   8.692   0.364
   18CHTO   N13 7342   4.543   8.644   0.414
   18CHTO  H139 7343   4.533   8.729   0.481
   18CHTO  H140 7344   4.506   8.673   0.317
   18CHTO   C76 7345   4.750   8.574   0.549
   18CHTO  H148 7346   4.691   8.497   0.598
   18CHTO   O49 7347   4.889   8.530   0.538
   18CHTO   C77 7348   4.911   8.418   0.451
   18CHTO  H149 7349   4.856   8.331   0.488
   18CHTO   C88 7350   5.060   8.379   0.458
   18CHTO   O58 7351   5.089   8.256   0.378
   18CHTO  H136 7352   5.078   8.274   0.287
   18CHTO   O51 7353   4.757   8.711   0.634
   18CHTO   C78 7354   4.795   8.688   0.785
   18CHTO  H150 7355   4.832   8.585   0.802
   18CHTO   C80 7356   4.671   8.711   0.874
   18CHTO  H152 7357   4.628   8.811   0.850
   18CHTO   O55 7358   4.574   8.611   0.838
   18CHTO  H134 7359   4.540   8.628   0.752
   18CHTO   C84 7360   4.706   8.704   1.028
   18CHTO  H156 7361   4.737   8.602   1.050
   18CHTO   N15 7362   4.589   8.735   1.117
   18CHTO  H143 7363   4.551   8.832   1.095
   18CHTO  H144 7364   4.511   8.662   1.101
   18CHTO   C87 7365   4.826   8.797   1.059
   18CHTO  H159 7366   4.798   8.902   1.045
   18CHTO   O53 7367   4.942   8.760   0.962
   18CHTO   C82 7368   4.908   8.784   0.825
   18CHTO  H154 7369   4.880   8.888   0.811
   18CHTO   C89 7370   5.038   8.761   0.744
   18CHTO   O59 7371   5.025   8.810   0.610
   18CHTO  H137 7372   5.104   8.793   0.563
   18CHTO   O45 7373   4.877   8.778   1.218
   18CHTO   C67 7374   5.018   8.791   1.244
   18CHTO  H124 7375   5.075   8.773   1.153
   18CHTO   C65 7376   5.054   8.933   1.298
   18CHTO  H122 7377   4.963   8.974   1.342
   18CHTO   O44 7378   5.087   9.011   1.182
   18CHTO  H102 7379   5.098   9.101   1.206
   18CHTO   C63 7380   5.159   8.931   1.416
   18CHTO  H120 7381   5.108   8.898   1.507
   18CHTO   N11 7382   5.213   9.064   1.459
   18CHTO  H108 7383   5.132   9.131   1.478
   18CHTO  H109 7384   5.271   9.052   1.548
   18CHTO   C61 7385   5.268   8.821   1.387
   18CHTO  H118 7386   5.330   8.814   1.478
   18CHTO   O40 7387   5.210   8.688   1.366
   18CHTO   C68 7388   5.065   8.679   1.344
   18CHTO  H125 7389   5.014   8.692   1.442
   18CHTO   C72 7390   5.028   8.538   1.291
   18CHTO   O48 7391   5.090   8.505   1.167
   18CHTO  H105 7392   5.055   8.559   1.098
   18CHTO   O38 7393   5.349   8.856   1.273
   18CHTO   C55 7394   5.473   8.783   1.259
   18CHTO  H112 7395   5.466   8.686   1.310
   18CHTO   C56 7396   5.595   8.869   1.313
   18CHTO  H113 7397   5.595   8.964   1.257
   18CHTO   O42 7398   5.575   8.903   1.451
   18CHTO  H100 7399   5.500   8.959   1.461
   18CHTO   C57 7400   5.730   8.791   1.292
   18CHTO  H114 7401   5.728   8.710   1.365
   18CHTO   N10 7402   5.852   8.870   1.322
   18CHTO  H106 7403   5.879   8.860   1.426
   18CHTO  H107 7404   5.836   8.974   1.299
   18CHTO   C58 7405   5.741   8.729   1.149
   18CHTO  H115 7406   5.774   8.808   1.077
   18CHTO   O37 7407   5.618   8.672   1.101
   18CHTO   C59 7408   5.500   8.753   1.110
   18CHTO  H116 7409   5.515   8.845   1.055
   18CHTO   C70 7410   5.383   8.677   1.047
   18CHTO   O46 7411   5.398   8.662   0.905
   18CHTO  H103 7412   5.325   8.615   0.871
   18CHTO   O39 7413   5.855   8.599   1.151
   18CHTO   C60 7414   5.801   8.483   1.217
   18CHTO  H117 7415   5.717   8.514   1.280
   18CHTO   C62 7416   5.745   8.379   1.116
   18CHTO  H119 7417   5.678   8.435   1.047
   18CHTO   O43 7418   5.851   8.322   1.037
   18CHTO  H101 7419   5.815   8.265   0.972
   18CHTO   C66 7420   5.658   8.273   1.197
   18CHTO  H123 7421   5.579   8.327   1.249
   18CHTO   N12 7422   5.589   8.175   1.110
   18CHTO  H110 7423   5.524   8.226   1.041
   18CHTO  H111 7424   5.532   8.105   1.171
   18CHTO   C69 7425   5.744   8.205   1.307
   18CHTO  H126 7426   5.815   8.133   1.261
   18CHTO   O41 7427   5.827   8.313   1.392
   18CHTO   C64 7428   5.903   8.412   1.311
   18CHTO  H121 7429   5.981   8.360   1.250
   18CHTO   C71 7430   5.975   8.508   1.409
   18CHTO   O47 7431   6.073   8.588   1.343
   18CHTO  H104 7432   6.031   8.650   1.286
   18CHTO   O34 7433   5.652   8.125   1.407
   18CHTO   C49 7434   5.571   8.120   1.542
   18CHTO   H91 7435   5.602   8.028   1.591
   18CHTO   C47 7436   5.420   8.116   1.511
   18CHTO   H89 7437   5.369   8.088   1.607
   18CHTO   O33 7438   5.396   8.012   1.415
   18CHTO   H70 7439   5.413   7.927   1.453
   18CHTO   C45 7440   5.369   8.259   1.461
   18CHTO   H87 7441   5.429   8.287   1.374
   18CHTO    N8 7442   5.227   8.255   1.418
   18CHTO   H75 7443   5.219   8.275   1.312
   18CHTO   H76 7444   5.168   8.327   1.473
   18CHTO   C43 7445   5.401   8.370   1.572
   18CHTO   H85 7446   5.372   8.466   1.527
   18CHTO   O29 7447   5.542   8.367   1.603
   18CHTO   C50 7448   5.604   8.241   1.635
   18CHTO   H92 7449   5.713   8.257   1.628
   18CHTO   C54 7450   5.584   8.204   1.784
   18CHTO   O36 7451   5.649   8.298   1.870
   18CHTO   H72 7452   5.742   8.287   1.864
   18CHTO   O27 7453   5.321   8.357   1.691
   18CHTO   C37 7454   5.247   8.452   1.770
   18CHTO   H79 7455   5.216   8.405   1.865
   18CHTO   C38 7456   5.335   8.575   1.808
   18CHTO   H80 7457   5.389   8.608   1.717
   18CHTO   O31 7458   5.432   8.530   1.904
   18CHTO   H68 7459   5.493   8.598   1.924
   18CHTO   C39 7460   5.250   8.697   1.863
   18CHTO   H81 7461   5.206   8.666   1.957
   18CHTO    N7 7462   5.334   8.819   1.890
   18CHTO   H73 7463   5.383   8.851   1.800
   18CHTO   H74 7464   5.406   8.798   1.967
   18CHTO   C40 7465   5.132   8.726   1.762
   18CHTO   H82 7466   5.176   8.751   1.665
   18CHTO   O26 7467   5.050   8.608   1.755
   18CHTO   C41 7468   5.118   8.495   1.693
   18CHTO   H83 7469   5.146   8.523   1.590
   18CHTO   C52 7470   5.014   8.381   1.683
   18CHTO   O35 7471   4.960   8.340   1.811
   18CHTO   H71 7472   4.900   8.268   1.798
   18CHTO   O28 7473   5.053   8.842   1.797
   18CHTO   C42 7474   4.913   8.848   1.838
   18CHTO   H84 7475   4.902   8.952   1.869
   18CHTO   C44 7476   4.869   8.763   1.962
   18CHTO   H86 7477   4.877   8.657   1.936
   18CHTO   O32 7478   4.962   8.790   2.069
   18CHTO   H69 7479   4.955   8.880   2.096
   18CHTO   C48 7480   4.719   8.793   2.001
   18CHTO   H90 7481   4.713   8.897   2.035
   18CHTO    N9 7482   4.671   8.711   2.117
   18CHTO   H77 7483   4.731   8.731   2.204
   18CHTO   H78 7484   4.676   8.606   2.092
   18CHTO   C51 7485   4.626   8.778   1.874
   18CHTO   H93 7486   4.623   8.673   1.846
   18CHTO   O30 7487   4.678   8.860   1.769
   18CHTO   C46 7488   4.812   8.824   1.722
   18CHTO   H88 7489   4.813   8.719   1.694
   18CHTO   C53 7490   4.841   8.913   1.600
   18CHTO   O72 7491   4.752   8.880   1.492
   18CHTO  H199 7492   4.772   8.935   1.418
   18CHTO   O22 7493   4.492   8.828   1.898
   18CHTO   C31 7494   4.384   8.829   1.797
   18CHTO   H59 7495   4.291   8.858   1.853
   18CHTO   C29 7496   4.401   8.933   1.683
   18CHTO   H57 7497   4.493   8.908   1.629
   18CHTO   O21 7498   4.422   9.062   1.743
   18CHTO   H37 7499   4.344   9.092   1.786
   18CHTO   C27 7500   4.280   8.932   1.581
   18CHTO   H55 7501   4.190   8.968   1.632
   18CHTO    N5 7502   4.306   9.020   1.463
   18CHTO   H43 7503   4.298   8.965   1.370
   18CHTO   H44 7504   4.237   9.103   1.464
   18CHTO   C25 7505   4.249   8.784   1.537
   18CHTO   H53 7506   4.332   8.746   1.475
   18CHTO   O17 7507   4.237   8.697   1.653
   18CHTO   C32 7508   4.354   8.689   1.735
   18CHTO   H60 7509   4.440   8.659   1.675
   18CHTO   C36 7510   4.329   8.582   1.843
   18CHTO   O25 7511   4.308   8.454   1.784
   18CHTO   H40 7512   4.292   8.390   1.851
   18CHTO   O15 7513   4.113   8.774   1.455
   18CHTO   C19 7514   4.091   8.695   1.335
   18CHTO   H47 7515   3.983   8.704   1.317
   18CHTO   C20 7516   4.165   8.753   1.210
   18CHTO   H48 7517   4.273   8.765   1.229
   18CHTO   O19 7518   4.110   8.884   1.187
   18CHTO   H35 7519   4.136   8.943   1.254
   18CHTO   C21 7520   4.150   8.659   1.083
   18CHTO   H49 7521   4.044   8.653   1.057
   18CHTO    N4 7522   4.221   8.712   0.965
   18CHTO   H41 7523   4.206   8.647   0.880
   18CHTO   H42 7524   4.327   8.719   0.985
   18CHTO   C22 7525   4.196   8.517   1.126
   18CHTO   H50 7526   4.299   8.523   1.161
   18CHTO   O14 7527   4.110   8.471   1.231
   18CHTO   C23 7528   4.120   8.543   1.355
   18CHTO   H51 7529   4.220   8.525   1.397
   18CHTO   C34 7530   4.016   8.477   1.448
   18CHTO   O23 7531   4.020   8.527   1.582
   18CHTO   H38 7532   3.954   8.484   1.633
   18CHTO   O16 7533   4.182   8.413   1.026
   18CHTO   C24 7534   4.318   8.385   0.935
   18CHTO   H52 7535   4.387   8.470   0.938
   18CHTO   C26 7536   4.276   8.360   0.789
   18CHTO   H54 7537   4.207   8.271   0.788
   18CHTO   O20 7538   4.202   8.474   0.741
   18CHTO   H36 7539   4.120   8.481   0.786
   18CHTO   C30 7540   4.398   8.329   0.698
   18CHTO   H58 7541   4.457   8.421   0.684
   18CHTO    N6 7542   4.357   8.287   0.561
   18CHTO   H45 7543   4.301   8.366   0.514
   18CHTO   H46 7544   4.296   8.199   0.566
   18CHTO   C33 7545   4.495   8.225   0.763
   18CHTO   H61 7546   4.452   8.124   0.756
   18CHTO   O18 7547   4.516   8.256   0.903
   18CHTO   C28 7548   4.398   8.261   0.984
   18CHTO   H56 7549   4.337   8.172   0.972
   18CHTO   C35 7550   4.446   8.272   1.131
   18CHTO   O24 7551   4.340   8.251   1.226
   18CHTO   H39 7552   4.279   8.322   1.222
   18CHTO    O9 7553   4.619   8.220   0.690
   18CHTO   C13 7554   4.727   8.118   0.754
   18CHTO   H26 7555   4.672   8.043   0.812
   18CHTO   C11 7556   4.829   8.200   0.845
   18CHTO   H24 7557   4.777   8.226   0.938
   18CHTO    O8 7558   4.867   8.324   0.781
   18CHTO    H3 7559   4.911   8.306   0.700
   18CHTO    C9 7560   4.950   8.108   0.877
   18CHTO   H22 7561   4.906   8.015   0.916
   18CHTO    N2 7562   5.036   8.158   0.987
   18CHTO   H10 7563   5.007   8.258   1.018
   18CHTO   H11 7564   5.033   8.091   1.071
   18CHTO    C7 7565   5.026   8.075   0.742
   18CHTO   H20 7566   5.058   7.970   0.758
   18CHTO    O4 7567   4.941   8.081   0.625
   18CHTO   C14 7568   4.806   8.035   0.642
   18CHTO   H27 7569   4.810   7.929   0.673
   18CHTO   C18 7570   4.738   8.038   0.503
   18CHTO   O13 7571   4.607   7.980   0.508
   18CHTO    H7 7572   4.568   7.982   0.423
   18CHTO    O2 7573   5.158   8.174   0.715
   18CHTO    C1 7574   5.278   8.124   0.653
   18CHTO   H14 7575   5.287   8.171   0.553
   18CHTO    C2 7576   5.293   7.966   0.635
   18CHTO   H15 7577   5.269   7.921   0.732
   18CHTO    O6 7578   5.198   7.922   0.536
   18CHTO    H1 7579   5.110   7.932   0.568
   18CHTO    C3 7580   5.443   7.925   0.592
   18CHTO   H16 7581   5.463   7.964   0.491
   18CHTO    N1 7582   5.462   7.776   0.587
   18CHTO    H8 7583   5.442   7.733   0.684
   18CHTO    H9 7584   5.396   7.733   0.513
   18CHTO    C4 7585   5.545   7.996   0.687
   18CHTO   H17 7586   5.532   7.958   0.789
   18CHTO    O1 7587   5.524   8.138   0.684
   18CHTO    C5 7588   5.397   8.180   0.737
   18CHTO   H18 7589   5.387   8.143   0.839
   18CHTO   C16 7590   5.397   8.335   0.739
   18CHTO   O11 7591   5.499   8.386   0.825
   18CHTO    H5 7592   5.478   8.368   0.915
   18CHTO    O3 7593   5.682   7.979   0.644
   18CHTO    C6 7594   5.782   7.982   0.752
   18CHTO   H19 7595   5.742   8.017   0.847
   18CHTO    C8 7596   5.841   7.839   0.773
   18CHTO   H21 7597   5.876   7.802   0.676
   18CHTO    O7 7598   5.734   7.756   0.821
   18CHTO    H2 7599   5.762   7.667   0.826
   18CHTO   C12 7600   5.963   7.842   0.874
   18CHTO   H25 7601   5.921   7.869   0.973
   18CHTO    N3 7602   6.026   7.706   0.887
   18CHTO   H12 7603   6.130   7.708   0.856
   18CHTO   H13 7604   6.018   7.672   0.989
   18CHTO   C15 7605   6.065   7.955   0.831
   18CHTO   H28 7606   6.117   7.929   0.739
   18CHTO   O10 7607   6.169   7.986   0.941
   18CHTO    H4 7608   6.126   8.006   1.022
   18CHTO    O5 7609   5.998   8.081   0.816
   18CHTO   C10 7610   5.897   8.079   0.713
   18CHTO   H23 7611   5.942   8.045   0.620
   18CHTO   C17 7612   5.847   8.223   0.691
   18CHTO   O12 7613   5.952   8.306   0.639
   18CHTO    H6 7614   5.920   8.393   0.629
   19CHTO  H203 7615   4.747   0.011   2.756
   19CHTO   O82 7616   4.714   9.947   2.817
   19CHTO  C123 7617   4.662   9.833   2.747
   19CHTO  H227 7618   4.600   9.868   2.662
   19CHTO   O77 7619   4.783   9.767   2.696
   19CHTO  C118 7620   4.757   9.654   2.612
   19CHTO  H222 7621   4.696   9.684   2.526
   19CHTO  C125 7622   4.896   9.601   2.561
   19CHTO   O84 7623   4.961   9.694   2.475
   19CHTO  H205 7624   4.985   9.771   2.523
   19CHTO  C114 7625   4.683   9.544   2.692
   19CHTO  H218 7626   4.749   9.509   2.772
   19CHTO  C116 7627   4.554   9.600   2.759
   19CHTO  H220 7628   4.478   9.619   2.679
   19CHTO   O79 7629   4.498   9.497   2.843
   19CHTO  H201 7630   4.467   9.425   2.791
   19CHTO  C120 7631   4.583   9.733   2.839
   19CHTO  H224 7632   4.645   9.705   0.057
   19CHTO   N21 7633   4.457   9.793   0.022
   19CHTO  H211 7634   4.436   9.753   0.120
   19CHTO  H212 7635   4.465   9.901   0.027
   19CHTO   O75 7636   4.657   9.439   2.597
   19CHTO  C112 7637   4.720   9.289   2.635
   19CHTO  H216 7638   4.684   9.259   2.735
   19CHTO   O73 7639   4.863   9.301   2.631
   19CHTO  C113 7640   4.937   9.180   2.652
   19CHTO  H217 7641   4.906   9.135   2.749
   19CHTO  C124 7642   5.085   9.219   2.663
   19CHTO   O83 7643   5.169   9.111   2.706
   19CHTO  H204 7644   5.258   9.142   2.713
   19CHTO  C109 7645   4.906   9.082   2.535
   19CHTO  H213 7646   4.938   9.132   2.442
   19CHTO  C110 7647   4.753   9.053   2.532
   19CHTO  H214 7648   4.726   8.996   2.621
   19CHTO   O78 7649   4.721   8.971   2.418
   19CHTO  H200 7650   4.761   8.887   2.426
   19CHTO  C111 7651   4.671   9.186   2.527
   19CHTO  H215 7652   4.688   9.233   2.429
   19CHTO   N19 7653   4.524   9.166   2.540
   19CHTO  H207 7654   4.488   9.106   2.457
   19CHTO  H208 7655   4.502   9.116   2.633
   19CHTO   O74 7656   4.984   8.959   2.551
   19CHTO  C115 7657   5.016   8.881   2.416
   19CHTO  H219 7658   4.933   8.884   2.347
   19CHTO   O76 7659   5.137   8.947   2.337
   19CHTO  C122 7660   5.266   8.905   2.383
   19CHTO  H226 7661   5.277   8.938   2.486
   19CHTO  C126 7662   5.376   8.983   2.302
   19CHTO   O85 7663   5.371   9.124   2.323
   19CHTO  H206 7664   5.438   9.166   2.273
   19CHTO  C121 7665   5.287   8.748   2.371
   19CHTO  H225 7666   5.347   8.726   2.280
   19CHTO   O81 7667   5.362   8.706   2.486
   19CHTO  H202 7668   5.390   8.617   2.475
   19CHTO  C119 7669   5.152   8.670   2.362
   19CHTO  H223 7670   5.117   8.683   2.260
   19CHTO  C117 7671   5.044   8.731   2.458
   19CHTO  H221 7672   5.073   8.735   2.563
   19CHTO   N20 7673   4.916   8.653   2.456
   19CHTO  H209 7674   4.935   8.551   2.487
   19CHTO  H210 7675   4.873   8.654   2.357
   19CHTO   O80 7676   5.171   8.510   2.368
   19CHTO  C103 7677   5.234   8.437   2.251
   19CHTO  H190 7678   5.242   8.501   2.164
   19CHTO  C101 7679   5.374   8.372   2.281
   19CHTO  H188 7680   5.368   8.316   2.374
   19CHTO   O68 7681   5.475   8.484   2.300
   19CHTO  H168 7682   5.559   8.449   2.323
   19CHTO   C99 7683   5.417   8.272   2.164
   19CHTO  H186 7684   5.429   8.328   2.069
   19CHTO   N17 7685   5.547   8.201   2.189
   19CHTO  H174 7686   5.540   8.141   2.279
   19CHTO  H175 7687   5.627   8.274   2.198
   19CHTO   C97 7688   5.301   8.171   2.138
   19CHTO  H184 7689   5.290   8.109   2.229
   19CHTO   O64 7690   5.181   8.243   2.106
   19CHTO  C104 7691   5.131   8.322   2.215
   19CHTO  H191 7692   5.115   8.260   2.303
   19CHTO  C108 7693   4.992   8.377   2.178
   19CHTO   O71 7694   4.999   8.469   2.068
   19CHTO  H171 7695   4.912   8.500   2.048
   19CHTO   O62 7696   5.323   8.087   2.023
   19CHTO   C91 7697   5.261   7.956   2.028
   19CHTO  H178 7698   5.188   7.955   2.110
   19CHTO   C92 7699   5.368   7.847   2.063
   19CHTO  H179 7700   5.448   7.852   1.988
   19CHTO   O66 7701   5.429   7.881   2.189
   19CHTO  H166 7702   5.366   7.881   2.258
   19CHTO   C93 7703   5.305   7.702   2.070
   19CHTO  H180 7704   5.243   7.699   2.160
   19CHTO   N16 7705   5.406   7.594   2.086
   19CHTO  H172 7706   5.506   7.634   2.092
   19CHTO  H173 7707   5.400   7.521   2.006
   19CHTO   C94 7708   5.212   7.675   1.945
   19CHTO  H181 7709   5.270   7.661   1.854
   19CHTO   O61 7710   5.123   7.785   1.920
   19CHTO   C95 7711   5.187   7.912   1.898
   19CHTO  H182 7712   5.258   7.902   1.816
   19CHTO  C106 7713   5.079   8.017   1.855
   19CHTO   O69 7714   5.016   7.980   1.732
   19CHTO  H169 7715   4.948   8.041   1.712
   19CHTO   O63 7716   5.118   7.545   1.973
   19CHTO   C96 7717   5.094   7.461   1.845
   19CHTO  H183 7718   5.192   7.441   1.801
   19CHTO   C98 7719   5.007   7.532   1.735
   19CHTO  H185 7720   5.053   7.628   1.707
   19CHTO   O67 7721   5.012   7.452   1.616
   19CHTO  H167 7722   4.974   7.367   1.632
   19CHTO  C102 7723   4.854   7.550   1.780
   19CHTO  H189 7724   4.796   7.549   1.686
   19CHTO   N18 7725   4.824   7.680   1.844
   19CHTO  H176 7726   4.881   7.691   1.935
   19CHTO  H177 7727   4.718   7.686   1.866
   19CHTO  C105 7728   4.810   7.428   1.867
   19CHTO  H192 7729   4.817   7.454   1.973
   19CHTO   O65 7730   4.889   7.310   1.845
   19CHTO  C100 7731   5.027   7.322   1.886
   19CHTO  H187 7732   5.031   7.312   1.996
   19CHTO  C107 7733   5.107   7.204   1.826
   19CHTO   O70 7734   5.055   7.077   1.869
   19CHTO  H170 7735   5.103   7.008   1.828
   19CHTO   O57 7736   4.657   7.402   1.826
   19CHTO   C85 7737   4.563   7.366   1.929
   19CHTO  H157 7738   4.620   7.353   2.023
   19CHTO   C83 7739   4.502   7.225   1.898
   19CHTO  H155 7740   4.584   7.154   1.891
   19CHTO   O56 7741   4.439   7.226   1.768
   19CHTO  H135 7742   4.365   7.283   1.768
   19CHTO   C81 7743   4.409   7.185   2.015
   19CHTO  H153 7744   4.469   7.185   2.107
   19CHTO   N14 7745   4.362   7.044   2.005
   19CHTO  H141 7746   4.296   7.034   1.921
   19CHTO  H142 7747   4.309   7.017   2.094
   19CHTO   C79 7748   4.292   7.289   2.034
   19CHTO  H151 7749   4.245   7.267   2.130
   19CHTO   O52 7750   4.343   7.426   2.045
   19CHTO   C86 7751   4.442   7.466   1.945
   19CHTO  H158 7752   4.385   7.474   1.851
   19CHTO   C90 7753   4.493   7.609   1.977
   19CHTO   O60 7754   4.400   7.709   1.935
   19CHTO  H138 7755   4.321   7.703   1.986
   19CHTO   O50 7756   4.190   7.284   1.933
   19CHTO   C73 7757   4.050   7.301   1.905
   19CHTO  H145 7758   3.995   7.209   1.930
   19CHTO   C74 7759   4.031   7.330   1.753
   19CHTO  H146 7760   4.076   7.246   1.698
   19CHTO   O54 7761   3.890   7.328   1.723
   19CHTO  H133 7762   3.876   7.342   1.632
   19CHTO   C75 7763   4.103   7.467   1.718
   19CHTO  H147 7764   4.210   7.456   1.737
   19CHTO   N13 7765   4.093   7.505   1.575
   19CHTO  H139 7766   3.989   7.516   1.547
   19CHTO  H140 7767   4.138   7.429   1.514
   19CHTO   C76 7768   4.048   7.582   1.816
   19CHTO  H148 7769   3.944   7.601   1.790
   19CHTO   O49 7770   4.057   7.542   1.957
   19CHTO   C77 7771   3.989   7.419   1.986
   19CHTO  H149 7772   3.883   7.430   1.960
   19CHTO   C88 7773   3.990   7.395   2.138
   19CHTO   O58 7774   3.920   7.503   2.211
   19CHTO  H136 7775   3.829   7.502   2.191
   19CHTO   O51 7776   4.136   7.711   1.810
   19CHTO   C78 7777   4.048   7.844   1.821
   19CHTO  H150 7778   3.944   7.822   1.855
   19CHTO   C80 7779   4.043   7.910   1.682
   19CHTO  H152 7780   4.146   7.916   1.641
   19CHTO   O55 7781   3.967   7.821   1.597
   19CHTO  H134 7782   4.015   7.743   1.580
   19CHTO   C84 7783   3.979   8.054   1.686
   19CHTO  H156 7784   3.875   8.045   1.716
   19CHTO   N15 7785   3.979   8.121   1.551
   19CHTO  H143 7786   4.079   8.128   1.513
   19CHTO  H144 7787   3.920   8.064   1.482
   19CHTO   C87 7788   4.054   8.139   1.792
   19CHTO  H159 7789   4.159   8.150   1.764
   19CHTO   O53 7790   4.042   8.064   1.925
   19CHTO   C82 7791   4.110   7.938   1.927
   19CHTO  H154 7792   4.217   7.951   1.912
   19CHTO   C89 7793   4.091   7.883   2.071
   19CHTO   O59 7794   4.172   7.769   2.098
   19CHTO  H137 7795   4.145   7.696   2.045
   19CHTO   O45 7796   3.988   8.294   1.805
   19CHTO   C67 7797   3.932   8.332   1.932
   19CHTO  H124 7798   3.881   8.247   1.976
   19CHTO   C65 7799   4.043   8.383   2.031
   19CHTO  H122 7800   4.129   8.410   1.970
   19CHTO   O44 7801   4.079   8.271   2.115
   19CHTO  H102 7802   4.119   8.204   2.064
   19CHTO   C63 7803   4.003   8.517   2.105
   19CHTO  H120 7804   4.009   8.599   2.033
   19CHTO   N11 7805   4.098   8.564   2.211
   19CHTO  H108 7806   4.097   8.496   2.294
   19CHTO  H109 7807   4.197   8.570   2.171
   19CHTO   C61 7808   3.853   8.506   2.151
   19CHTO  H118 7809   3.826   8.603   2.195
   19CHTO   O40 7810   3.762   8.485   2.039
   19CHTO   C68 7811   3.819   8.441   1.911
   19CHTO  H125 7812   3.862   8.530   1.859
   19CHTO   C72 7813   3.706   8.386   1.821
   19CHTO   O48 7814   3.607   8.485   1.789
   19CHTO  H105 7815   3.541   8.446   1.736
   19CHTO   O38 7816   3.836   8.400   2.247
   19CHTO   C55 7817   3.714   8.401   2.324
   19CHTO  H112 7818   3.639   8.464   2.275
   19CHTO   C56 7819   3.745   8.450   2.472
   19CHTO  H113 7820   3.828   8.388   2.511
   19CHTO   O42 7821   3.793   8.586   2.469
   19CHTO  H100 7822   3.876   8.590   2.425
   19CHTO   C57 7823   3.617   8.435   2.564
   19CHTO  H114 7824   3.543   8.506   2.527
   19CHTO   N10 7825   3.641   8.469   2.707
   19CHTO  H106 7826   3.675   8.383   2.762
   19CHTO  H107 7827   3.714   8.548   2.715
   19CHTO   C58 7828   3.559   8.292   2.551
   19CHTO  H115 7829   3.629   8.219   2.598
   19CHTO   O37 7830   3.540   8.255   2.413
   19CHTO   C59 7831   3.654   8.258   2.327
   19CHTO  H116 7832   3.728   8.185   2.361
   19CHTO   C70 7833   3.608   8.219   2.186
   19CHTO   O46 7834   3.539   8.093   2.179
   19CHTO  H103 7835   3.457   8.099   2.223
   19CHTO   O39 7836   3.402   8.283   2.632
   19CHTO   C60 7837   3.294   8.266   2.539
   19CHTO  H117 7838   3.321   8.313   2.445
   19CHTO   C62 7839   3.269   8.115   2.512
   19CHTO  H119 7840   3.369   8.069   2.494
   19CHTO   O43 7841   3.212   8.051   2.628
   19CHTO  H101 7842   3.200   7.960   2.611
   19CHTO   C66 7843   3.182   8.102   2.378
   19CHTO  H123 7844   3.240   8.146   2.297
   19CHTO   N12 7845   3.158   7.962   2.337
   19CHTO  H110 7846   3.202   7.942   2.240
   19CHTO  H111 7847   3.195   7.892   2.411
   19CHTO   C69 7848   3.050   8.184   2.386
   19CHTO  H126 7849   2.973   8.126   2.444
   19CHTO   O41 7850   3.070   8.334   2.459
   19CHTO   C64 7851   3.161   8.332   2.584
   19CHTO  H121 7852   3.113   8.271   2.664
   19CHTO   C71 7853   3.180   8.475   2.642
   19CHTO   O47 7854   3.246   8.564   2.552
   19CHTO  H104 7855   3.191   8.579   2.476
   19CHTO   O34 7856   2.993   8.204   2.237
   19CHTO   C49 7857   3.028   8.267   2.093
   19CHTO   H91 7858   3.006   8.374   2.099
   19CHTO   C47 7859   2.938   8.200   1.988
   19CHTO   H89 7860   2.955   8.253   1.892
   19CHTO   O33 7861   2.800   8.219   2.026
   19CHTO   H70 7862   2.781   8.173   2.106
   19CHTO   C45 7863   2.980   8.044   1.974
   19CHTO   H87 7864   2.968   7.997   2.073
   19CHTO    N8 7865   2.893   7.971   1.878
   19CHTO   H75 7866   2.789   7.983   1.906
   19CHTO   H76 7867   2.919   7.866   1.878
   19CHTO   C43 7868   3.137   8.031   1.939
   19CHTO   H85 7869   3.159   7.925   1.950
   19CHTO   O29 7870   3.216   8.111   2.030
   19CHTO   C50 7871   3.177   8.248   2.053
   19CHTO   H92 7872   3.238   8.286   2.136
   19CHTO   C54 7873   3.219   8.340   1.935
   19CHTO   O36 7874   3.360   8.337   1.915
   19CHTO   H72 7875   3.404   8.378   1.987
   19CHTO   O27 7876   3.169   8.065   1.803
   19CHTO   C37 7877   3.238   8.012   1.689
   19CHTO   H79 7878   3.227   7.902   1.685
   19CHTO   C38 7879   3.174   8.069   1.558
   19CHTO   H80 7880   3.172   8.179   1.565
   19CHTO   O31 7881   3.038   8.021   1.551
   19CHTO   H68 7882   2.986   8.062   1.618
   19CHTO   C39 7883   3.254   8.026   1.429
   19CHTO   H81 7884   3.240   7.918   1.417
   19CHTO    N7 7885   3.205   8.092   1.302
   19CHTO   H73 7886   3.123   8.160   1.323
   19CHTO   H74 7887   3.173   8.017   1.231
   19CHTO   C40 7888   3.409   8.050   1.448
   19CHTO   H82 7889   3.431   8.157   1.442
   19CHTO   O26 7890   3.454   7.992   1.571
   19CHTO   C41 7891   3.389   8.048   1.690
   19CHTO   H83 7892   3.401   8.157   1.691
   19CHTO   C52 7893   3.462   7.992   1.814
   19CHTO   O35 7894   3.604   8.029   1.819
   19CHTO   H71 7895   3.646   7.988   1.892
   19CHTO   O28 7896   3.485   7.981   1.346
   19CHTO   C42 7897   3.625   8.011   1.319
   19CHTO   H84 7898   3.665   8.054   1.411
   19CHTO   C44 7899   3.651   8.117   1.207
   19CHTO   H86 7900   3.605   8.082   1.115
   19CHTO   O32 7901   3.586   8.239   1.247
   19CHTO   H69 7902   3.492   8.228   1.243
   19CHTO   C48 7903   3.805   8.140   1.179
   19CHTO   H90 7904   3.850   8.187   1.267
   19CHTO    N9 7905   3.830   8.235   1.065
   19CHTO   H77 7906   3.788   8.332   1.088
   19CHTO   H78 7907   3.787   8.196   0.974
   19CHTO   C51 7908   3.876   8.001   1.156
   19CHTO   H93 7909   3.835   7.957   1.065
   19CHTO   O30 7910   3.854   7.918   1.271
   19CHTO   C46 7911   3.708   7.881   1.290
   19CHTO   H88 7912   3.670   7.833   1.199
   19CHTO   C53 7913   3.704   7.781   1.408
   19CHTO   O72 7914   3.572   7.728   1.430
   19CHTO  H199 7915   3.574   7.670   1.504
   19CHTO   O22 7916   4.019   8.014   1.145
   19CHTO   C31 7917   4.102   7.905   1.091
   19CHTO   H59 7918   4.051   7.810   1.118
   19CHTO   C29 7919   4.118   7.905   0.937
   19CHTO   H57 7920   4.163   8.002   0.909
   19CHTO   O21 7921   3.987   7.901   0.876
   19CHTO   H37 7922   3.938   7.977   0.898
   19CHTO   C27 7923   4.210   7.787   0.886
   19CHTO   H55 7924   4.158   7.692   0.902
   19CHTO    N5 7925   4.242   7.799   0.741
   19CHTO   H43 7926   4.300   7.714   0.709
   19CHTO   H44 7927   4.150   7.803   0.684
   19CHTO   C25 7928   4.343   7.781   0.971
   19CHTO   H53 7929   4.405   7.869   0.948
   19CHTO   O17 7930   4.314   7.781   1.114
   19CHTO   C32 7931   4.243   7.898   1.158
   19CHTO   H60 7932   4.299   7.987   1.129
   19CHTO   C36 7933   4.235   7.896   1.313
   19CHTO   O25 7934   4.166   7.781   1.363
   19CHTO   H40 7935   4.075   7.786   1.341
   19CHTO   O15 7936   4.425   7.648   0.939
   19CHTO   C19 7937   4.539   7.616   0.855
   19CHTO   H47 7938   4.515   7.660   0.758
   19CHTO   C20 7939   4.674   7.677   0.906
   19CHTO   H48 7940   4.694   7.649   1.010
   19CHTO   O19 7941   4.659   7.820   0.905
   19CHTO   H35 7942   4.648   7.851   0.817
   19CHTO   C21 7943   4.798   7.632   0.819
   19CHTO   H49 7944   4.789   7.677   0.720
   19CHTO    N4 7945   4.929   7.677   0.875
   19CHTO   H41 7946   4.915   7.733   0.966
   19CHTO   H42 7947   4.981   7.738   0.803
   19CHTO   C22 7948   4.793   7.478   0.798
   19CHTO   H50 7949   4.806   7.429   0.895
   19CHTO   O14 7950   4.666   7.442   0.741
   19CHTO   C23 7951   4.556   7.463   0.831
   19CHTO   H51 7952   4.578   7.409   0.924
   19CHTO   C34 7953   4.431   7.401   0.769
   19CHTO   O23 7954   4.447   7.259   0.752
   19CHTO   H38 7955   4.448   7.217   0.836
   19CHTO   O16 7956   4.893   7.431   0.705
   19CHTO   C24 7957   4.896   7.268   0.649
   19CHTO   H52 7958   4.998   7.230   0.640
   19CHTO   C26 7959   4.835   7.268   0.507
   19CHTO   H54 7960   4.732   7.313   0.513
   19CHTO   O20 7961   4.916   7.354   0.425
   19CHTO   H36 7962   4.878   7.364   0.340
   19CHTO   C30 7963   4.823   7.124   0.449
   19CHTO   H58 7964   4.924   7.083   0.433
   19CHTO    N6 7965   4.757   7.123   0.316
   19CHTO   H45 7966   4.814   7.181   0.246
   19CHTO   H46 7967   4.658   7.165   0.324
   19CHTO   C33 7968   4.753   7.030   0.552
   19CHTO   H61 7969   4.648   7.062   0.565
   19CHTO   O18 7970   4.820   7.038   0.679
   19CHTO   C28 7971   4.819   7.168   0.741
   19CHTO   H56 7972   4.717   7.203   0.753
   19CHTO   C35 7973   4.885   7.156   0.881
   19CHTO   O24 7974   5.021   7.109   0.877
   19CHTO   H39 7975   5.023   7.019   0.850
   19CHTO    O9 7976   4.748   6.893   0.505
   19CHTO   C13 7977   4.600   6.828   0.499
   19CHTO   H26 7978   4.530   6.905   0.461
   19CHTO   C11 7979   4.557   6.776   0.642
   19CHTO   H24 7980   4.548   6.863   0.709
   19CHTO    O8 7981   4.659   6.690   0.698
   19CHTO    H3 7982   4.738   6.737   0.710
   19CHTO    C9 7983   4.417   6.709   0.629
   19CHTO   H22 7984   4.350   6.788   0.592
   19CHTO    N2 7985   4.358   6.669   0.759
   19CHTO   H10 7986   4.416   6.590   0.804
   19CHTO   H11 7987   4.353   6.754   0.826
   19CHTO    C7 7988   4.421   6.593   0.524
   19CHTO   H20 7989   4.314   6.569   0.508
   19CHTO    O4 7990   4.475   6.633   0.396
   19CHTO   C14 7991   4.596   6.712   0.391
   19CHTO   H27 7992   4.597   6.760   0.291
   19CHTO   C18 7993   4.722   6.619   0.396
   19CHTO   O13 7994   4.724   6.526   0.288
   19CHTO    H7 7995   4.654   6.464   0.298
   19CHTO    O2 7996   4.503   6.463   0.578
   19CHTO    C1 7997   4.450   6.331   0.554
   19CHTO   H14 7998   4.458   6.309   0.446
   19CHTO    C2 7999   4.298   6.307   0.600
   19CHTO   H15 8000   4.285   6.368   0.691
   19CHTO    O6 8001   4.211   6.357   0.497
   19CHTO    H1 8002   4.122   6.356   0.526
   19CHTO    C3 8003   4.261   6.153   0.630
   19CHTO   H16 8004   4.247   6.101   0.534
   19CHTO    N1 8005   4.130   6.141   0.704
   19CHTO    H8 8006   4.086   6.238   0.721
   19CHTO    H9 8007   4.144   6.091   0.798
   19CHTO    C4 8008   4.379   6.080   0.701
   19CHTO   H17 8009   4.392   6.121   0.801
   19CHTO    O1 8010   4.499   6.098   0.624
   19CHTO    C5 8011   4.547   6.233   0.627
   19CHTO   H18 8012   4.555   6.266   0.731
   19CHTO   C16 8013   4.688   6.236   0.563
   19CHTO   O11 8014   4.782   6.164   0.644
   19CHTO    H5 8015   4.797   6.211   0.724
   19CHTO    O3 8016   4.363   5.936   0.706
   19CHTO    C6 8017   4.375   5.875   0.839
   19CHTO   H19 8018   4.373   5.948   0.920
   19CHTO    C8 8019   4.256   5.777   0.863
   19CHTO   H21 8020   4.249   5.709   0.777
   19CHTO    O7 8021   4.136   5.856   0.870
   19CHTO    H2 8022   4.138   5.913   0.944
   19CHTO   C12 8023   4.275   5.691   0.995
   19CHTO   H25 8024   4.261   5.762   1.080
   19CHTO    N3 8025   4.169   5.586   1.008
   19CHTO   H12 8026   4.184   5.530   1.099
   19CHTO   H13 8027   4.071   5.633   1.009
   19CHTO   C15 8028   4.421   5.633   1.002
   19CHTO   H28 8029   4.436   5.551   0.931
   19CHTO   O10 8030   4.456   5.585   1.142
   19CHTO    H4 8031   4.537   5.538   1.141
   19CHTO    O5 8032   4.519   5.735   0.981
   19CHTO   C10 8033   4.510   5.797   0.851
   19CHTO   H23 8034   4.514   5.719   0.775
   19CHTO   C17 8035   4.635   5.884   0.832
   19CHTO   O12 8036   4.638   5.996   0.921
   19CHTO    H6 8037   4.716   6.046   0.905
   20CHTO  H203 8038   4.530   1.517   2.571
   20CHTO   O82 8039   4.569   1.445   2.525
   20CHTO  C123 8040   4.576   1.472   2.384
   20CHTO  H227 8041   4.478   1.509   2.350
   20CHTO   O77 8042   4.676   1.578   2.375
   20CHTO  C118 8043   4.696   1.629   2.242
   20CHTO  H222 8044   4.600   1.665   2.201
   20CHTO  C125 8045   4.795   1.751   2.251
   20CHTO   O84 8046   4.740   1.858   2.327
   20CHTO  H205 8047   4.801   1.930   2.328
   20CHTO  C114 8048   4.752   1.518   2.153
   20CHTO  H218 8049   4.849   1.487   2.192
   20CHTO  C116 8050   4.659   1.392   2.152
   20CHTO  H220 8051   4.566   1.417   2.096
   20CHTO   O79 8052   4.725   1.288   2.078
   20CHTO  H201 8053   4.669   1.213   2.071
   20CHTO  C120 8054   4.623   1.347   2.300
   20CHTO  H224 8055   4.715   1.306   2.343
   20CHTO   N21 8056   4.521   1.239   2.301
   20CHTO  H211 8057   4.534   1.178   2.389
   20CHTO  H212 8058   4.529   1.178   2.212
   20CHTO   O75 8059   4.767   1.577   2.022
   20CHTO  C112 8060   4.912   1.551   1.952
   20CHTO  H216 8061   4.935   1.443   1.956
   20CHTO   O73 8062   5.009   1.629   2.024
   20CHTO  C113 8063   5.142   1.620   1.972
   20CHTO  H217 8064   5.173   1.514   1.967
   20CHTO  C124 8065   5.238   1.690   2.070
   20CHTO   O83 8066   5.246   1.622   2.196
   20CHTO  H204 8067   5.164   1.628   2.240
   20CHTO  C109 8068   5.147   1.681   1.829
   20CHTO  H213 8069   5.116   1.787   1.838
   20CHTO  C110 8070   5.048   1.603   1.738
   20CHTO  H214 8071   5.086   1.501   1.725
   20CHTO   O78 8072   5.044   1.665   1.608
   20CHTO  H200 8073   5.127   1.656   1.566
   20CHTO  C111 8074   4.905   1.598   1.801
   20CHTO  H215 8075   4.863   1.700   1.800
   20CHTO   N19 8076   4.810   1.512   1.725
   20CHTO  H207 8077   4.801   1.549   1.624
   20CHTO  H208 8078   4.713   1.514   1.773
   20CHTO   O74 8079   5.283   1.675   1.775
   20CHTO  C115 8080   5.351   1.820   1.748
   20CHTO  H219 8081   5.306   1.898   1.810
   20CHTO   O76 8082   5.503   1.821   1.788
   20CHTO  C122 8083   5.580   1.720   1.720
   20CHTO  H226 8084   5.560   1.626   1.770
   20CHTO  C126 8085   5.732   1.749   1.742
   20CHTO   O85 8086   5.774   1.876   1.690
   20CHTO  H206 8087   5.866   1.888   1.706
   20CHTO  C121 8088   5.546   1.708   1.565
   20CHTO  H225 8089   5.640   1.700   1.507
   20CHTO   O81 8090   5.472   1.587   1.540
   20CHTO  H202 8091   5.523   1.512   1.563
   20CHTO  C119 8092   5.466   1.832   1.514
   20CHTO  H223 8093   5.532   1.917   1.532
   20CHTO  C117 8094   5.332   1.854   1.595
   20CHTO  H221 8095   5.251   1.790   1.563
   20CHTO   N20 8096   5.280   1.993   1.574
   20CHTO  H209 8097   5.184   2.004   1.622
   20CHTO  H210 8098   5.350   2.065   1.614
   20CHTO   O80 8099   5.447   1.837   1.358
   20CHTO  C103 8100   5.569   1.861   1.265
   20CHTO  H190 8101   5.663   1.863   1.320
   20CHTO  C101 8102   5.579   1.756   1.147
   20CHTO  H188 8103   5.478   1.732   1.114
   20CHTO   O68 8104   5.640   1.627   1.203
   20CHTO  H168 8105   5.636   1.559   1.138
   20CHTO   C99 8106   5.660   1.812   1.020
   20CHTO  H186 8107   5.767   1.828   1.048
   20CHTO   N17 8108   5.659   1.719   0.901
   20CHTO  H174 8109   5.597   1.633   0.920
   20CHTO  H175 8110   5.760   1.689   0.876
   20CHTO   C97 8111   5.604   1.952   0.985
   20CHTO  H184 8112   5.497   1.941   0.965
   20CHTO   O64 8113   5.630   2.037   1.098
   20CHTO  C104 8114   5.544   2.007   1.209
   20CHTO  H191 8115   5.440   2.016   1.178
   20CHTO  C108 8116   5.565   2.114   1.317
   20CHTO   O71 8117   5.697   2.116   1.373
   20CHTO  H171 8118   5.759   2.142   1.308
   20CHTO   O62 8119   5.666   2.016   0.870
   20CHTO   C91 8120   5.625   2.146   0.821
   20CHTO  H178 8121   5.667   2.220   0.889
   20CHTO   C92 8122   5.470   2.171   0.820
   20CHTO  H179 8123   5.420   2.084   0.774
   20CHTO   O66 8124   5.423   2.177   0.956
   20CHTO  H166 8125   5.433   2.093   0.998
   20CHTO   C93 8126   5.427   2.305   0.747
   20CHTO  H180 8127   5.461   2.389   0.810
   20CHTO   N16 8128   5.280   2.322   0.732
   20CHTO  H172 8129   5.247   2.411   0.782
   20CHTO  H173 8130   5.227   2.235   0.770
   20CHTO   C94 8131   5.499   2.317   0.608
   20CHTO  H181 8132   5.470   2.236   0.540
   20CHTO   O61 8133   5.641   2.305   0.629
   20CHTO   C95 8134   5.682   2.176   0.676
   20CHTO  H182 8135   5.647   2.100   0.607
   20CHTO  C106 8136   5.840   2.173   0.671
   20CHTO   O69 8137   5.892   2.042   0.697
   20CHTO  H169 8138   5.870   1.985   0.627
   20CHTO   O63 8139   5.472   2.467   0.536
   20CHTO   C96 8140   5.377   2.454   0.411
   20CHTO  H183 8141   5.314   2.366   0.428
   20CHTO   C98 8142   5.451   2.433   0.275
   20CHTO  H185 8143   5.531   2.358   0.286
   20CHTO   O67 8144   5.357   2.374   0.183
   20CHTO  H167 8145   5.284   2.431   0.169
   20CHTO  C102 8146   5.506   2.569   0.209
   20CHTO  H189 8147   5.516   2.546   0.102
   20CHTO   N18 8148   5.641   2.610   0.253
   20CHTO  H176 8149   5.641   2.628   0.359
   20CHTO  H177 8150   5.672   2.699   0.201
   20CHTO  C105 8151   5.402   2.684   0.224
   20CHTO  H192 8152   5.439   2.760   0.293
   20CHTO   O65 8153   5.274   2.642   0.274
   20CHTO  C100 8154   5.281   2.582   0.405
   20CHTO  H187 8155   5.320   2.658   0.474
   20CHTO  C107 8156   5.137   2.549   0.452
   20CHTO   O70 8157   5.072   2.456   0.364
   20CHTO  H170 8158   4.986   2.438   0.397
   20CHTO   O57 8159   5.389   2.747   0.076
   20CHTO   C85 8160   5.342   2.882   0.062
   20CHTO  H157 8161   5.339   2.927   0.164
   20CHTO   C83 8162   5.195   2.882   0.011
   20CHTO  H155 8163   5.134   2.828   0.084
   20CHTO   O56 8164   5.185   2.809   2.758
   20CHTO  H135 8165   5.207   2.718   2.772
   20CHTO   C81 8166   5.144   3.029   0.003
   20CHTO  H153 8167   5.154   3.074   0.102
   20CHTO   N14 8168   4.998   3.038   2.844
   20CHTO  H141 8169   4.978   3.002   2.746
   20CHTO  H142 8170   4.966   3.140   2.852
   20CHTO   C79 8171   5.233   3.112   2.772
   20CHTO  H151 8172   5.203   3.216   2.781
   20CHTO   O52 8173   5.374   3.106   2.811
   20CHTO   C86 8174   5.427   2.971   2.832
   20CHTO  H158 8175   5.428   2.926   2.730
   20CHTO   C90 8176   5.575   2.979   0.005
   20CHTO   O60 8177   5.592   3.057   0.124
   20CHTO  H138 8178   5.555   3.011   0.197
   20CHTO   O50 8179   5.219   3.073   2.634
   20CHTO   C73 8180   5.277   3.105   2.506
   20CHTO  H145 8181   5.374   3.055   2.495
   20CHTO   C74 8182   5.299   3.259   2.490
   20CHTO  H146 8183   5.365   3.291   2.572
   20CHTO   O54 8184   5.372   3.280   2.368
   20CHTO  H133 8185   5.394   3.371   2.359
   20CHTO   C75 8186   5.159   3.333   2.495
   20CHTO  H147 8187   5.115   3.319   2.595
   20CHTO   N13 8188   5.167   3.481   2.475
   20CHTO  H139 8189   5.127   3.532   2.561
   20CHTO  H140 8190   5.269   3.512   2.460
   20CHTO   C76 8191   5.057   3.267   2.390
   20CHTO  H148 8192   5.092   3.292   2.289
   20CHTO   O49 8193   5.054   3.121   2.403
   20CHTO   C77 8194   5.182   3.057   2.392
   20CHTO  H149 8195   5.228   3.081   2.296
   20CHTO   C88 8196   5.161   2.905   2.392
   20CHTO   O58 8197   5.286   2.834   2.361
   20CHTO  H136 8198   5.347   2.843   2.433
   20CHTO   O51 8199   4.900   3.321   2.417
   20CHTO   C78 8200   4.818   3.241   2.533
   20CHTO  H150 8201   4.886   3.181   2.596
   20CHTO   C80 8202   4.714   3.146   2.468
   20CHTO  H152 8203   4.649   3.206   2.399
   20CHTO   O55 8204   4.785   3.049   2.389
   20CHTO  H134 8205   4.825   3.090   2.315
   20CHTO   C84 8206   4.623   3.076   2.577
   20CHTO  H156 8207   4.686   3.011   2.638
   20CHTO   N15 8208   4.516   2.989   2.516
   20CHTO  H143 8209   4.458   2.942   2.593
   20CHTO  H144 8210   4.451   3.048   2.455
   20CHTO   C87 8211   4.561   3.184   2.670
   20CHTO  H159 8212   4.494   3.247   2.611
   20CHTO   O53 8213   4.675   3.271   2.727
   20CHTO   C82 8214   4.746   3.342   2.624
   20CHTO  H154 8215   4.677   3.404   2.566
   20CHTO   C89 8216   4.847   3.437   2.692
   20CHTO   O59 8217   4.781   3.534   2.773
   20CHTO  H137 8218   4.845   3.586   2.818
   20CHTO   O45 8219   4.472   3.116   2.795
   20CHTO   C67 8220   4.536   3.101   0.052
   20CHTO  H124 8221   4.645   3.097   0.039
   20CHTO   C65 8222   4.501   3.221   0.147
   20CHTO  H122 8223   4.415   3.272   0.102
   20CHTO   O44 8224   4.613   3.311   0.144
   20CHTO  H102 8225   4.685   3.275   0.193
   20CHTO   C63 8226   4.449   3.175   0.289
   20CHTO  H120 8227   4.349   3.132   0.277
   20CHTO   N11 8228   4.421   3.285   0.387
   20CHTO  H108 8229   4.512   3.332   0.416
   20CHTO  H109 8230   4.356   3.358   0.343
   20CHTO   C61 8231   4.541   3.060   0.344
   20CHTO  H118 8232   4.493   3.022   0.436
   20CHTO   O40 8233   4.553   2.947   0.252
   20CHTO   C68 8234   4.497   2.962   0.117
   20CHTO  H125 8235   4.386   2.955   0.124
   20CHTO   C72 8236   4.545   2.845   0.029
   20CHTO   O48 8237   4.491   2.718   0.070
   20CHTO  H105 8238   4.399   2.717   0.054
   20CHTO   O38 8239   4.674   3.106   0.371
   20CHTO   C55 8240   4.742   3.052   0.487
   20CHTO  H112 8241   4.700   2.953   0.512
   20CHTO   C56 8242   4.729   3.154   0.609
   20CHTO  H113 8243   4.740   3.255   0.566
   20CHTO   O42 8244   4.595   3.148   0.662
   20CHTO  H100 8245   4.533   3.179   0.598
   20CHTO   C57 8246   4.837   3.131   0.722
   20CHTO  H114 8247   4.810   3.040   0.776
   20CHTO   N10 8248   4.840   3.243   0.820
   20CHTO  H106 8249   4.770   3.224   0.900
   20CHTO  H107 8250   4.939   3.254   0.863
   20CHTO   C58 8251   4.975   3.110   0.656
   20CHTO  H115 8252   5.001   3.202   0.597
   20CHTO   O37 8253   4.968   2.999   0.566
   20CHTO   C59 8254   4.890   3.026   0.448
   20CHTO  H116 8255   4.932   3.112   0.395
   20CHTO   C70 8256   4.899   2.904   0.355
   20CHTO   O46 8257   5.034   2.873   0.316
   20CHTO  H103 8258   5.067   2.941   0.260
   20CHTO   O39 8259   5.100   3.080   0.763
   20CHTO   C60 8260   5.083   2.981   0.866
   20CHTO  H117 8261   5.000   3.010   0.930
   20CHTO   C62 8262   5.055   2.838   0.811
   20CHTO  H119 8263   4.958   2.845   0.756
   20CHTO   O43 8264   5.158   2.799   0.718
   20CHTO  H101 8265   5.241   2.793   0.762
   20CHTO   C66 8266   5.036   2.735   0.933
   20CHTO  H123 8267   4.958   2.774   0.999
   20CHTO   N12 8268   4.987   2.602   0.888
   20CHTO  H110 8269   4.974   2.600   0.781
   20CHTO  H111 8270   5.054   2.524   0.920
   20CHTO   C69 8271   5.167   2.731   1.016
   20CHTO  H126 8272   5.251   2.693   0.952
   20CHTO   O41 8273   5.199   2.875   1.066
   20CHTO   C64 8274   5.210   2.980   0.956
   20CHTO  H121 8275   5.299   2.958   0.892
   20CHTO   C71 8276   5.231   3.118   1.022
   20CHTO   O47 8277   5.354   3.122   1.096
   20CHTO  H104 8278   5.364   3.206   1.136
   20CHTO   O34 8279   5.155   2.638   1.144
   20CHTO   C49 8280   5.161   2.488   1.175
   20CHTO   H91 8281   5.130   2.437   1.084
   20CHTO   C47 8282   5.060   2.454   1.288
   20CHTO   H89 8283   4.960   2.456   1.239
   20CHTO   O33 8284   5.062   2.555   1.392
   20CHTO   H70 8285   5.147   2.559   1.432
   20CHTO   C45 8286   5.091   2.310   1.356
   20CHTO   H87 8287   5.153   2.328   1.445
   20CHTO    N8 8288   4.965   2.245   1.401
   20CHTO   H75 8289   4.989   2.154   1.455
   20CHTO   H76 8290   4.911   2.312   1.465
   20CHTO   C43 8291   5.184   2.219   1.262
   20CHTO   H85 8292   5.202   2.126   1.315
   20CHTO   O29 8293   5.307   2.290   1.233
   20CHTO   C50 8294   5.301   2.433   1.215
   20CHTO   H92 8295   5.332   2.482   1.309
   20CHTO   C54 8296   5.410   2.476   1.114
   20CHTO   O36 8297   5.541   2.444   1.160
   20CHTO   H72 8298   5.564   2.499   1.233
   20CHTO   O27 8299   5.119   2.184   1.139
   20CHTO   C37 8300   5.031   2.113   1.050
   20CHTO   H79 8301   4.953   2.060   1.106
   20CHTO   C38 8302   4.960   2.214   0.954
   20CHTO   H80 8303   5.036   2.285   0.918
   20CHTO   O31 8304   4.864   2.287   1.033
   20CHTO   H68 8305   4.907   2.344   1.093
   20CHTO   C39 8306   4.891   2.144   0.830
   20CHTO   H81 8307   4.805   2.088   0.867
   20CHTO    N7 8308   4.840   2.243   0.729
   20CHTO   H73 8309   4.765   2.307   0.774
   20CHTO   H74 8310   4.921   2.302   0.691
   20CHTO   C40 8311   4.991   2.041   0.765
   20CHTO   H82 8312   5.076   2.096   0.725
   20CHTO   O26 8313   5.031   1.947   0.866
   20CHTO   C41 8314   5.114   2.008   0.969
   20CHTO   H83 8315   5.200   2.058   0.922
   20CHTO   C52 8316   5.169   1.897   1.061
   20CHTO   O35 8317   5.255   1.803   0.987
   20CHTO   H71 8318   5.289   1.739   1.046
   20CHTO   O28 8319   4.933   1.965   0.657
   20CHTO   C42 8320   5.012   1.874   0.573
   20CHTO   H84 8321   4.947   1.854   0.488
   20CHTO   C44 8322   5.044   1.735   0.637
   20CHTO   H86 8323   5.095   1.751   0.732
   20CHTO   O32 8324   4.917   1.672   0.664
   20CHTO   H69 8325   4.872   1.716   0.733
   20CHTO   C48 8326   5.137   1.643   0.548
   20CHTO   H90 8327   5.080   1.610   0.461
   20CHTO    N9 8328   5.176   1.517   0.619
   20CHTO   H77 8329   5.232   1.540   0.709
   20CHTO   H78 8330   5.235   1.454   0.554
   20CHTO   C51 8331   5.261   1.726   0.499
   20CHTO   H93 8332   5.319   1.755   0.587
   20CHTO   O30 8333   5.213   1.839   0.427
   20CHTO   C46 8334   5.143   1.938   0.515
   20CHTO   H88 8335   5.209   1.965   0.597
   20CHTO   C53 8336   5.111   2.064   0.430
   20CHTO   O72 8337   5.231   2.124   0.380
   20CHTO  H199 8338   5.271   2.068   0.316
   20CHTO   O22 8339   5.345   1.654   0.406
   20CHTO   C31 8340   5.487   1.690   0.386
   20CHTO   H59 8341   5.522   1.630   0.299
   20CHTO   C29 8342   5.513   1.839   0.352
   20CHTO   H57 8343   5.470   1.900   0.433
   20CHTO   O21 8344   5.438   1.870   0.232
   20CHTO   H37 8345   5.346   1.864   0.249
   20CHTO   C27 8346   5.666   1.873   0.336
   20CHTO   H55 8347   5.705   1.820   0.248
   20CHTO    N5 8348   5.690   2.018   0.319
   20CHTO   H43 8349   5.636   2.055   0.233
   20CHTO   H44 8350   5.796   2.037   0.306
   20CHTO   C25 8351   5.745   1.816   0.460
   20CHTO   H53 8352   5.713   1.871   0.551
   20CHTO   O17 8353   5.716   1.675   0.479
   20CHTO   C32 8354   5.578   1.646   0.506
   20CHTO   H60 8355   5.547   1.700   0.595
   20CHTO   C36 8356   5.566   1.494   0.536
   20CHTO   O25 8357   5.612   1.413   0.427
   20CHTO   H40 8358   5.554   1.423   0.353
   20CHTO   O15 8359   5.901   1.833   0.442
   20CHTO   C19 8360   6.024   1.832   0.363
   20CHTO   H47 8361   5.999   1.889   0.273
   20CHTO   C20 8362   6.144   1.901   0.435
   20CHTO   H48 8363   6.169   1.851   0.530
   20CHTO   O19 8364   6.103   2.036   0.466
   20CHTO   H35 8365   6.038   2.036   0.534
   20CHTO   C21 8366   6.273   1.901   0.345
   20CHTO   H49 8367   6.254   1.960   0.255
   20CHTO    N4 8368   6.392   1.962   0.411
   20CHTO   H41 8369   6.477   1.960   0.344
   20CHTO   H42 8370   6.417   1.906   0.500
   20CHTO   C22 8371   6.300   1.755   0.297
   20CHTO   H50 8372   6.324   1.694   0.385
   20CHTO   O14 8373   6.184   1.701   0.231
   20CHTO   C23 8374   6.068   1.690   0.314
   20CHTO   H51 8375   6.093   1.623   0.398
   20CHTO   C34 8376   5.957   1.622   0.233
   20CHTO   O23 8377   5.991   1.488   0.197
   20CHTO   H38 8378   5.988   1.433   0.273
   20CHTO   O16 8379   6.406   1.749   0.200
   20CHTO   C24 8380   6.480   1.610   0.199
   20CHTO   H52 8381   6.415   1.530   0.234
   20CHTO   C26 8382   6.608   1.614   0.285
   20CHTO   H54 8383   6.673   1.697   0.247
   20CHTO   O20 8384   6.578   1.649   0.422
   20CHTO   H36 8385   6.520   1.587   0.460
   20CHTO   C30 8386   6.685   1.479   0.282
   20CHTO   H58 8387   6.662   1.421   0.372
   20CHTO    N6 8388   6.832   1.499   0.287
   20CHTO   H45 8389   6.859   1.551   0.378
   20CHTO   H46 8390   6.883   1.403   0.286
   20CHTO   C33 8391   6.642   1.389   0.161
   20CHTO   H61 8392   6.719   1.314   0.137
   20CHTO   O18 8393   6.620   1.471   0.044
   20CHTO   C28 8394   6.521   1.576   0.052
   20CHTO   H56 8395   6.561   1.666   0.005
   20CHTO   C35 8396   6.395   1.535   2.842
   20CHTO   O24 8397   6.421   1.516   2.703
   20CHTO   H39 8398   6.476   1.440   2.691
   20CHTO    O9 8399   6.524   1.313   0.195
   20CHTO   C13 8400   6.550   1.182   0.285
   20CHTO   H26 8401   6.633   1.202   0.354
   20CHTO   C11 8402   6.582   1.059   0.189
   20CHTO   H24 8403   6.686   1.069   0.156
   20CHTO    O8 8404   6.497   1.063   0.072
   20CHTO    H3 8405   6.523   0.996   0.012
   20CHTO    C9 8406   6.565   0.928   0.271
   20CHTO   H22 8407   6.624   0.943   0.362
   20CHTO    N2 8408   6.626   0.809   0.207
   20CHTO   H10 8409   6.574   0.786   0.114
   20CHTO   H11 8410   6.731   0.826   0.188
   20CHTO    C7 8411   6.413   0.913   0.311
   20CHTO   H20 8412   6.417   0.858   0.408
   20CHTO    O4 8413   6.346   1.039   0.331
   20CHTO   C14 8414   6.424   1.150   0.379
   20CHTO   H27 8415   6.461   1.124   0.481
   20CHTO   C18 8416   6.327   1.270   0.397
   20CHTO   O13 8417   6.393   1.383   0.454
   20CHTO    H7 8418   6.332   1.453   0.465
   20CHTO    O2 8419   6.325   0.829   0.203
   20CHTO    C1 8420   6.227   0.745   0.265
   20CHTO   H14 8421   6.203   0.782   0.367
   20CHTO    C2 8422   6.273   0.594   0.275
   20CHTO   H15 8423   6.301   0.564   0.173
   20CHTO    O6 8424   6.388   0.586   0.361
   20CHTO    H1 8425   6.367   0.615   0.448
   20CHTO    C3 8426   6.154   0.501   0.330
   20CHTO   H16 8427   6.141   0.523   0.436
   20CHTO    N1 8428   6.187   0.355   0.320
   20CHTO    H8 8429   6.274   0.334   0.381
   20CHTO    H9 8430   6.208   0.329   0.217
   20CHTO    C4 8431   6.016   0.535   0.261
   20CHTO   H17 8432   6.013   0.490   0.162
   20CHTO    O1 8433   5.992   0.677   0.253
   20CHTO    C5 8434   6.094   0.752   0.185
   20CHTO   H18 8435   6.111   0.708   0.086
   20CHTO   C16 8436   6.043   0.897   0.165
   20CHTO   O11 8437   6.014   0.962   0.289
   20CHTO    H5 8438   5.982   1.048   0.273
   20CHTO    O3 8439   5.909   0.485   0.344
   20CHTO    C6 8440   5.780   0.466   0.276
   20CHTO   H19 8441   5.774   0.517   0.180
   20CHTO    C8 8442   5.755   0.314   0.254
   20CHTO   H21 8443   5.764   0.263   0.350
   20CHTO    O7 8444   5.857   0.265   0.164
   20CHTO    H2 8445   5.849   0.305   0.080
   20CHTO   C12 8446   5.609   0.289   0.197
   20CHTO   H25 8447   5.609   0.329   0.094
   20CHTO    N3 8448   5.579   0.143   0.187
   20CHTO   H12 8449   5.583   0.097   0.285
   20CHTO   H13 8450   5.482   0.128   0.142
   20CHTO   C15 8451   5.502   0.368   0.281
   20CHTO   H28 8452   5.484   0.322   0.378
   20CHTO   O10 8453   5.369   0.381   0.205
   20CHTO    H4 8454   5.303   0.417   0.261
   20CHTO    O5 8455   5.540   0.506   0.299
   20CHTO   C10 8456   5.666   0.524   0.365
   20CHTO   H23 8457   5.664   0.472   0.461
   20CHTO   C17 8458   5.686   0.673   0.395
   20CHTO   O12 8459   5.591   0.719   0.492
   20CHTO    H6 8460   5.607   0.810   0.510
   21GLOH   H03 8461   3.314   9.135   1.147
   21GLOH    O1 8462   3.241   9.072   1.122
   21GLOH    C1 8463   3.296   8.939   1.109
   21GLOH   H02 8464   3.216   8.866   1.100
   21GLOH   H08 8465   3.353   8.913   1.198
   21GLOH    C2 8466   3.388   8.924   0.986
   21GLOH   H04 8467   3.475   8.991   0.999
   21GLOH    O2 8468   3.435   8.788   0.977
   21GLOH   H05 8469   3.497   8.781   0.897
   21GLOH    C3 8470   3.314   8.964   0.857
   21GLOH   H06 8471   3.239   8.888   0.836
   21GLOH   H07 8472   3.385   8.963   0.775
   21GLOH    O3 8473   3.253   9.094   0.869
   21GLOH   H01 8474   3.230   9.103   0.964
   22GLOH   H03 8475   3.256   9.859   1.874
   22GLOH    O1 8476   3.321   9.934   1.859
   22GLOH    C1 8477   3.448   9.903   1.919
   22GLOH   H02 8478   3.502   9.996   1.939
   22GLOH   H08 8479   3.509   9.846   1.849
   22GLOH    C2 8480   3.439   9.824   2.051
   22GLOH   H04 8481   3.386   9.730   2.028
   22GLOH    O2 8482   3.571   9.789   2.099
   22GLOH   H05 8483   3.632   9.868   2.100
   22GLOH    C3 8484   3.354   9.897   2.158
   22GLOH   H06 8485   3.333   9.825   2.236
   22GLOH   H07 8486   3.258   9.922   2.112
   22GLOH    O3 8487   3.412   0.016   2.216
   22GLOH   H01 8488   3.465   0.068   2.151
   23GLOH   H03 8489   3.472   9.968   2.354
   23GLOH    O1 8490   3.512   9.944   2.441
   23GLOH    C1 8491   3.491   0.051   2.536
   23GLOH   H02 8492   3.391   0.044   2.580
   23GLOH   H08 8493   3.496   0.148   2.485
   23GLOH    C2 8494   3.595   0.049   2.649
   23GLOH   H04 8495   3.695   0.059   2.605
   23GLOH    O2 8496   3.574   0.158   2.741
   23GLOH   H05 8497   3.559   0.243   2.692
   23GLOH    C3 8498   3.588   9.915   2.724
   23GLOH   H06 8499   3.490   9.906   2.771
   23GLOH   H07 8500   3.662   9.915   2.804
   23GLOH    O3 8501   3.611   9.805   2.634
   23GLOH   H01 8502   3.577   9.835   2.546
   24GLOH   H03 8503   4.022   0.417   1.677
   24GLOH    O1 8504   4.026   0.383   1.770
   24GLOH    C1 8505   4.111   0.470   1.848
   24GLOH   H02 8506   4.216   0.443   1.832
   24GLOH   H08 8507   4.092   0.454   1.955
   24GLOH    C2 8508   4.096   0.621   1.820
   24GLOH   H04 8509   4.163   0.674   1.889
   24GLOH    O2 8510   4.134   0.654   1.684
   24GLOH   H05 8511   4.087   0.593   1.620
   24GLOH    C3 8512   3.952   0.669   1.847
   24GLOH   H06 8513   3.883   0.610   1.787
   24GLOH   H07 8514   3.944   0.772   1.814
   24GLOH    O3 8515   3.917   0.660   1.986
   24GLOH   H01 8516   3.819   0.678   1.995
   25GLOH   H03 8517   4.390   4.328   1.302
   25GLOH    O1 8518   4.320   4.393   1.325
   25GLOH    C1 8519   4.198   4.358   1.255
   25GLOH   H02 8520   4.183   4.427   1.172
   25GLOH   H08 8521   4.113   4.370   1.322
   25GLOH    C2 8522   4.196   4.214   1.202
   25GLOH   H04 8523   4.186   4.148   1.289
   25GLOH    O2 8524   4.083   4.190   1.115
   25GLOH   H05 8525   4.081   4.262   1.044
   25GLOH    C3 8526   4.329   4.181   1.132
   25GLOH   H06 8527   4.351   4.262   1.062
   25GLOH   H07 8528   4.319   4.090   1.074
   25GLOH    O3 8529   4.436   4.167   1.228
   25GLOH   H01 8530   4.416   4.085   1.280
   26GLOH   H03 8531   2.500   0.828   1.574
   26GLOH    O1 8532   2.464   0.917   1.549
   26GLOH    C1 8533   2.508   0.953   1.417
   26GLOH   H02 8534   2.426   0.997   1.361
   26GLOH   H08 8535   2.539   0.863   1.362
   26GLOH    C2 8536   2.626   1.052   1.419
   26GLOH   H04 8537   2.711   1.004   1.470
   26GLOH    O2 8538   2.664   1.085   1.283
   26GLOH   H05 8539   2.669   1.000   1.229
   26GLOH    C3 8540   2.588   1.180   1.496
   26GLOH   H06 8541   2.545   1.151   1.592
   26GLOH   H07 8542   2.509   1.231   1.441
   26GLOH    O3 8543   2.700   1.267   1.517
   26GLOH   H01 8544   2.766   1.252   1.444
   27GLOH   H03 8545   3.927   1.325   0.340
   27GLOH    O1 8546   3.964   1.401   0.288
   27GLOH    C1 8547   3.883   1.429   0.171
   27GLOH   H02 8548   3.879   1.341   0.107
   27GLOH   H08 8549   3.930   1.508   0.113
   27GLOH    C2 8550   3.739   1.473   0.204
   27GLOH   H04 8551   3.742   1.544   0.287
   27GLOH    O2 8552   3.679   1.535   0.088
   27GLOH   H05 8553   3.585   1.553   0.110
   27GLOH    C3 8554   3.654   1.351   0.244
   27GLOH   H06 8555   3.702   1.301   0.328
   27GLOH   H07 8556   3.654   1.280   0.162
   27GLOH    O3 8557   3.520   1.388   0.279
   27GLOH   H01 8558   3.461   1.308   0.273
   28GLOH   H03 8559   2.865   0.375   1.195
   28GLOH    O1 8560   2.800   0.359   1.121
   28GLOH    C1 8561   2.734   0.484   1.096
   28GLOH   H02 8562   2.706   0.492   0.992
   28GLOH   H08 8563   2.801   0.568   1.117
   28GLOH    C2 8564   2.607   0.502   1.182
   28GLOH   H04 8565   2.632   0.481   1.287
   28GLOH    O2 8566   2.559   0.638   1.172
   28GLOH   H05 8567   2.464   0.644   1.201
   28GLOH    C3 8568   2.499   0.401   1.138
   28GLOH   H06 8569   2.414   0.410   1.206
   28GLOH   H07 8570   2.539   0.300   1.152
   28GLOH    O3 8571   2.455   0.417   1.001
   28GLOH   H01 8572   2.526   0.381   0.941
   29GLOH   H03 8573   3.879   9.589   1.020
   29GLOH    O1 8574   3.862   9.672   0.968
   29GLOH    C1 8575   3.795   9.639   0.845
   29GLOH   H02 8576   3.691   9.612   0.865
   29GLOH   H08 8577   3.842   9.554   0.797
   29GLOH    C2 8578   3.796   9.759   0.747
   29GLOH   H04 8579   3.901   9.784   0.726
   29GLOH    O2 8580   3.729   9.728   0.624
   29GLOH   H05 8581   3.710   9.631   0.616
   29GLOH    C3 8582   3.729   9.880   0.813
   29GLOH   H06 8583   3.622   9.861   0.822
   29GLOH   H07 8584   3.740   9.966   0.746
   29GLOH    O3 8585   3.787   9.909   0.942
   29GLOH   H01 8586   3.831   9.824   0.969
   30GLOH   H03 8587   4.216   4.176   0.103
   30GLOH    O1 8588   4.314   4.176   0.125
   30GLOH    C1 8589   4.365   4.307   0.096
   30GLOH   H02 8590   4.326   4.343   0.000
   30GLOH   H08 8591   4.473   4.304   0.086
   30GLOH    C2 8592   4.329   4.412   0.203
   30GLOH   H04 8593   4.372   4.508   0.171
   30GLOH    O2 8594   4.186   4.428   0.217
   30GLOH   H05 8595   4.154   4.390   0.302
   30GLOH    C3 8596   4.395   4.376   0.338
   30GLOH   H06 8597   4.356   4.279   0.371
   30GLOH   H07 8598   4.365   4.450   0.412
   30GLOH    O3 8599   4.538   4.372   0.329
   30GLOH   H01 8600   4.566   4.286   0.289
   31GLOH   H03 8601   3.815   1.502   1.913
   31GLOH    O1 8602   3.833   1.452   1.830
   31GLOH    C1 8603   3.900   1.537   1.735
   31GLOH   H02 8604   3.907   1.639   1.773
   31GLOH   H08 8605   3.844   1.542   1.642
   31GLOH    C2 8606   4.042   1.485   1.704
   31GLOH   H04 8607   4.034   1.379   1.675
   31GLOH    O2 8608   4.099   1.560   1.595
   31GLOH   H05 8609   4.153   1.497   1.539
   31GLOH    C3 8610   4.129   1.495   1.830
   31GLOH   H06 8611   4.073   1.457   1.915
   31GLOH   H07 8612   4.148   1.601   1.850
   31GLOH    O3 8613   4.254   1.424   1.818
   31GLOH   H01 8614   4.318   1.481   1.768
   32GLOH   H03 8615   4.198   1.109   0.857
   32GLOH    O1 8616   4.288   1.149   0.851
   32GLOH    C1 8617   4.303   1.243   0.959
   32GLOH   H02 8618   4.306   1.190   1.055
   32GLOH   H08 8619   4.217   1.309   0.964
   32GLOH    C2 8620   4.431   1.328   0.948
   32GLOH   H04 8621   4.430   1.378   0.850
   32GLOH    O2 8622   4.435   1.429   1.052
   32GLOH   H05 8623   4.528   1.462   1.055
   32GLOH    C3 8624   4.557   1.240   0.956
   32GLOH   H06 8625   4.559   1.174   0.868
   32GLOH   H07 8626   4.549   1.175   1.043
   32GLOH    O3 8627   4.678   1.318   0.962
   32GLOH   H01 8628   4.726   1.312   0.876
   33GLOH   H03 8629   3.236   9.498   1.689
   33GLOH    O1 8630   3.158   9.534   1.740
   33GLOH    C1 8631   3.059   9.431   1.757
   33GLOH   H02 8632   3.041   9.379   1.663
   33GLOH   H08 8633   2.963   9.475   1.786
   33GLOH    C2 8634   3.097   9.327   1.864
   33GLOH   H04 8635   3.100   9.380   1.961
   33GLOH    O2 8636   2.999   9.222   1.874
   33GLOH   H05 8637   3.025   9.163   1.951
   33GLOH    C3 8638   3.238   9.270   1.839
   33GLOH   H06 8639   3.254   9.186   1.907
   33GLOH   H07 8640   3.310   9.346   1.868
   33GLOH    O3 8641   3.263   9.229   1.703
   33GLOH   H01 8642   3.178   9.206   1.657
   34GLOH   H03 8643   3.064   2.258   2.608
   34GLOH    O1 8644   3.018   2.344   2.614
   34GLOH    C1 8645   2.998   2.399   2.483
   34GLOH   H02 8646   2.937   2.332   2.423
   34GLOH   H08 8647   3.094   2.410   2.432
   34GLOH    C2 8648   2.930   2.537   2.488
   34GLOH   H04 8649   2.997   2.606   2.542
   34GLOH    O2 8650   2.911   2.586   2.354
   34GLOH   H05 8651   2.865   2.515   2.300
   34GLOH    C3 8652   2.797   2.530   2.565
   34GLOH   H06 8653   2.816   2.492   2.665
   34GLOH   H07 8654   2.732   2.457   2.516
   34GLOH    O3 8655   2.732   2.658   2.573
   34GLOH   H01 8656   2.792   2.725   2.535
   35GLOH   H03 8657   3.327   1.858   2.608
   35GLOH    O1 8658   3.354   1.821   2.521
   35GLOH    C1 8659   3.293   1.692   2.504
   35GLOH   H02 8660   3.184   1.701   2.511
   35GLOH   H08 8661   3.323   1.625   2.585
   35GLOH    C2 8662   3.326   1.622   2.370
   35GLOH   H04 8663   3.306   1.515   2.382
   35GLOH    O2 8664   3.245   1.674   2.263
   35GLOH   H05 8665   3.238   1.607   2.189
   35GLOH    C3 8666   3.475   1.639   2.336
   35GLOH   H06 8667   3.493   1.744   2.309
   35GLOH   H07 8668   3.498   1.579   2.248
   35GLOH    O3 8669   3.561   1.601   2.445
   35GLOH   H01 8670   3.554   1.671   2.514
   36GLOH   H03 8671   4.304   2.662   1.603
   36GLOH    O1 8672   4.294   2.564   1.586
   36GLOH    C1 8673   4.383   2.491   1.673
   36GLOH   H02 8674   4.362   2.514   1.778
   36GLOH   H08 8675   4.486   2.520   1.655
   36GLOH    C2 8676   4.370   2.339   1.653
   36GLOH   H04 8677   4.385   2.316   1.547
   36GLOH    O2 8678   4.468   2.270   1.732
   36GLOH   H05 8679   4.560   2.297   1.703
   36GLOH    C3 8680   4.230   2.290   1.695
   36GLOH   H06 8681   4.227   2.284   1.804
   36GLOH   H07 8682   4.218   2.188   1.658
   36GLOH    O3 8683   4.124   2.374   1.646
   36GLOH   H01 8684   4.165   2.450   1.598
   37GLOH   H03 8685   3.445   4.175   0.217
   37GLOH    O1 8686   3.505   4.198   0.141
   37GLOH    C1 8687   3.639   4.207   0.194
   37GLOH   H02 8688   3.682   4.107   0.204
   37GLOH   H08 8689   3.637   4.251   0.293
   37GLOH    C2 8690   3.733   4.291   0.106
   37GLOH   H04 8691   3.695   4.394   0.102
   37GLOH    O2 8692   3.866   4.292   0.163
   37GLOH   H05 8693   3.858   4.320   0.259
   37GLOH    C3 8694   3.739   4.235   2.833
   37GLOH   H06 8695   3.783   4.135   2.836
   37GLOH   H07 8696   3.806   4.298   2.773
   37GLOH    O3 8697   3.609   4.231   2.774
   37GLOH   H01 8698   3.546   4.215   2.848
   38GLOH   H03 8699   2.400   1.379   0.647
   38GLOH    O1 8700   2.318   1.427   0.617
   38GLOH    C1 8701   2.270   1.358   0.501
   38GLOH   H02 8702   2.353   1.334   0.434
   38GLOH   H08 8703   2.203   1.424   0.444
   38GLOH    C2 8704   2.192   1.229   0.533
   38GLOH   H04 8705   2.094   1.258   0.574
   38GLOH    O2 8706   2.171   1.152   0.412
   38GLOH   H05 8707   2.258   1.138   0.367
   38GLOH    C3 8708   2.266   1.148   0.642
   38GLOH   H06 8709   2.289   1.215   0.724
   38GLOH   H07 8710   2.361   1.115   0.601
   38GLOH    O3 8711   2.193   1.035   0.694
   38GLOH   H01 8712   2.185   0.967   0.623
   39GLOH   H03 8713   3.688   3.650   1.923
   39GLOH    O1 8714   3.652   3.576   1.868
   39GLOH    C1 8715   3.747   3.541   1.765
   39GLOH   H02 8716   3.749   3.617   1.688
   39GLOH   H08 8717   3.716   3.448   1.716
   39GLOH    C2 8718   3.891   3.521   1.818
   39GLOH   H04 8719   3.956   3.501   1.731
   39GLOH    O2 8720   3.937   3.640   1.884
   39GLOH   H05 8721   3.911   3.721   1.830
   39GLOH    C3 8722   3.898   3.400   1.912
   39GLOH   H06 8723   3.828   3.415   1.994
   39GLOH   H07 8724   3.998   3.396   1.956
   39GLOH    O3 8725   3.869   3.276   1.845
   39GLOH   H01 8726   3.794   3.231   1.891
   40GLOH   H03 8727   3.885   0.269   0.944
   40GLOH    O1 8728   3.955   0.340   0.957
   40GLOH    C1 8729   3.973   0.361   1.098
   40GLOH   H02 8730   4.027   0.277   1.142
   40GLOH   H08 8731   3.877   0.367   1.149
   40GLOH    C2 8732   4.052   0.489   1.128
   40GLOH   H04 8733   3.997   0.574   1.085
   40GLOH    O2 8734   4.066   0.509   1.270
   40GLOH   H05 8735   4.077   0.608   1.287
   40GLOH    C3 8736   4.191   0.483   1.061
   40GLOH   H06 8737   4.250   0.405   1.110
   40GLOH   H07 8738   4.242   0.578   1.078
   40GLOH    O3 8739   4.178   0.456   0.921
   40GLOH   H01 8740   4.102   0.394   0.913
   41GLOH   H03 8741   3.185   0.208   1.420
   41GLOH    O1 8742   3.092   0.245   1.425
   41GLOH    C1 8743   3.007   0.143   1.480
   41GLOH   H02 8744   3.060   0.085   1.556
   41GLOH   H08 8745   2.978   0.073   1.402
   41GLOH    C2 8746   2.880   0.200   1.545
   41GLOH   H04 8747   2.831   0.267   1.473
   41GLOH    O2 8748   2.790   0.092   1.576
   41GLOH   H05 8749   2.758   0.055   1.488
   41GLOH    C3 8750   2.912   0.281   1.672
   41GLOH   H06 8751   2.970   0.218   1.739
   41GLOH   H07 8752   2.819   0.304   1.723
   41GLOH    O3 8753   2.985   0.403   1.645
   41GLOH   H01 8754   3.076   0.379   1.616
   42GLOH   H03 8755   4.001   3.000   2.846
   42GLOH    O1 8756   4.042   3.082   0.012
   42GLOH    C1 8757   4.064   3.172   2.771
   42GLOH   H02 8758   4.109   3.264   2.807
   42GLOH   H08 8759   3.969   3.199   2.725
   42GLOH    C2 8760   4.155   3.113   2.661
   42GLOH   H04 8761   4.240   3.063   2.712
   42GLOH    O2 8762   4.086   3.014   2.582
   42GLOH   H05 8763   4.144   2.937   2.564
   42GLOH    C3 8764   4.214   3.225   2.574
   42GLOH   H06 8765   4.274   3.180   2.495
   42GLOH   H07 8766   4.282   3.283   2.636
   42GLOH    O3 8767   4.116   3.313   2.516
   42GLOH   H01 8768   4.072   3.266   2.441
   43GLOH   H03 8769   3.397   9.465   1.509
   43GLOH    O1 8770   3.362   9.480   1.600
   43GLOH    C1 8771   3.464   9.537   1.684
   43GLOH   H02 8772   3.427   9.546   1.786
   43GLOH   H08 8773   3.487   9.639   1.650
   43GLOH    C2 8774   3.597   9.458   1.689
   43GLOH   H04 8775   3.640   9.458   1.587
   43GLOH    O2 8776   3.688   9.524   1.779
   43GLOH   H05 8777   3.780   9.485   1.766
   43GLOH    C3 8778   3.576   9.312   1.733
   43GLOH   H06 8779   3.525   9.312   1.829
   43GLOH   H07 8780   3.674   9.267   1.750
   43GLOH    O3 8781   3.503   9.233   1.637
   43GLOH   H01 8782   3.407   9.240   1.662
   44GLOH   H03 8783   3.889   3.791   1.147
   44GLOH    O1 8784   3.884   3.795   1.246
   44GLOH    C1 8785   3.748   3.774   1.288
   44GLOH   H02 8786   3.689   3.728   1.208
   44GLOH   H08 8787   3.700   3.869   1.312
   44GLOH    C2 8788   3.740   3.683   1.412
   44GLOH   H04 8789   3.814   3.719   1.485
   44GLOH    O2 8790   3.610   3.688   1.476
   44GLOH   H05 8791   3.536   3.677   1.409
   44GLOH    C3 8792   3.778   3.538   1.376
   44GLOH   H06 8793   3.772   3.477   1.467
   44GLOH   H07 8794   3.883   3.537   1.346
   44GLOH    O3 8795   3.695   3.482   1.273
   44GLOH   H01 8796   3.607   3.459   1.314
   45GLOH   H03 8797   3.999   1.031   1.861
   45GLOH    O1 8798   4.093   1.020   1.893
   45GLOH    C1 8799   4.153   1.151   1.903
   45GLOH   H02 8800   4.088   1.226   1.860
   45GLOH   H08 8801   4.246   1.153   1.846
   45GLOH    C2 8802   4.189   1.193   2.047
   45GLOH   H04 8803   4.243   1.110   2.096
   45GLOH    O2 8804   4.275   1.309   2.041
   45GLOH   H05 8805   4.269   1.349   1.949
   45GLOH    C3 8806   4.065   1.229   2.132
   45GLOH   H06 8807   4.026   1.324   2.096
   45GLOH   H07 8808   4.099   1.246   2.234
   45GLOH    O3 8809   3.960   1.130   2.132
   45GLOH   H01 8810   3.997   1.039   2.141
   46GLOH   H03 8811   2.941   0.763   0.891
   46GLOH    O1 8812   2.863   0.770   0.830
   46GLOH    C1 8813   2.825   0.636   0.790
   46GLOH   H02 8814   2.717   0.625   0.800
   46GLOH   H08 8815   2.871   0.561   0.854
   46GLOH    C2 8816   2.865   0.605   0.644
   46GLOH   H04 8817   2.826   0.686   0.581
   46GLOH    O2 8818   3.008   0.597   0.628
   46GLOH   H05 8819   3.051   0.681   0.659
   46GLOH    C3 8820   2.799   0.474   0.598
   46GLOH   H06 8821   2.845   0.391   0.651
   46GLOH   H07 8822   2.820   0.460   0.492
   46GLOH    O3 8823   2.656   0.472   0.619
   46GLOH   H01 8824   2.616   0.546   0.567
   47GLOH   H03 8825   3.958   8.904   1.750
   47GLOH    O1 8826   3.986   8.985   1.801
   47GLOH    C1 8827   3.893   8.999   1.910
   47GLOH   H02 8828   3.818   9.075   1.886
   47GLOH   H08 8829   3.945   9.033   2.000
   47GLOH    C2 8830   3.820   8.867   1.944
   47GLOH   H04 8831   3.895   8.795   1.980
   47GLOH    O2 8832   3.722   8.888   2.048
   47GLOH   H05 8833   3.661   8.964   2.021
   47GLOH    C3 8834   3.756   8.809   1.816
   47GLOH   H06 8835   3.677   8.876   1.783
   47GLOH   H07 8836   3.709   8.714   1.842
   47GLOH    O3 8837   3.853   8.789   1.711
   47GLOH   H01 8838   3.808   8.750   1.632
   48GLOH   H03 8839   2.629   9.711   1.223
   48GLOH    O1 8840   2.648   9.761   1.306
   48GLOH    C1 8841   2.569   9.710   1.416
   48GLOH   H02 8842   2.564   9.601   1.413
   48GLOH   H08 8843   2.467   9.747   1.410
   48GLOH    C2 8844   2.630   9.753   1.551
   48GLOH   H04 8845   2.636   9.862   1.554
   48GLOH    O2 8846   2.548   9.707   1.661
   48GLOH   H05 8847   2.455   9.742   1.649
   48GLOH    C3 8848   2.772   9.695   1.566
   48GLOH   H06 8849   2.765   9.586   1.571
   48GLOH   H07 8850   2.814   9.729   1.660
   48GLOH    O3 8851   2.858   9.734   1.457
   48GLOH   H01 8852   2.800   9.753   1.379
   49GLOH   H03 8853   4.640   2.636   0.279
   49GLOH    O1 8854   4.570   2.651   0.347
   49GLOH    C1 8855   4.579   2.542   0.439
   49GLOH   H02 8856   4.680   2.537   0.481
   49GLOH   H08 8857   4.562   2.448   0.386
   49GLOH    C2 8858   4.479   2.548   0.555
   49GLOH   H04 8859   4.378   2.534   0.513
   49GLOH    O2 8860   4.508   2.440   0.646
   49GLOH   H05 8861   4.472   2.459   0.737
   49GLOH    C3 8862   4.483   2.687   0.622
   49GLOH   H06 8863   4.470   2.764   0.546
   49GLOH   H07 8864   4.583   2.701   0.664
   49GLOH    O3 8865   4.384   2.703   0.725
   49GLOH   H01 8866   4.297   2.668   0.694
   50GLOH   H03 8867   2.800   1.484   0.242
   50GLOH    O1 8868   2.861   1.427   0.296
   50GLOH    C1 8869   2.983   1.499   0.325
   50GLOH   H02 8870   2.970   1.559   0.415
   50GLOH   H08 8871   3.007   1.567   0.244
   50GLOH    C2 8872   3.102   1.403   0.346
   50GLOH   H04 8873   3.124   1.354   0.250
   50GLOH    O2 8874   3.217   1.480   0.387
   50GLOH   H05 8875   3.199   1.517   0.478
   50GLOH    C3 8876   3.065   1.293   0.448
   50GLOH   H06 8877   2.974   1.244   0.413
   50GLOH   H07 8878   3.040   1.341   0.543
   50GLOH    O3 8879   3.167   1.194   0.469
   50GLOH   H01 8880   3.137   1.109   0.430
   51GLOH   H03 8881   4.062   0.969   0.288
   51GLOH    O1 8882   3.998   0.978   0.213
   51GLOH    C1 8883   4.067   0.977   0.086
   51GLOH   H02 8884   4.104   0.877   0.064
   51GLOH   H08 8885   4.154   1.043   0.090
   51GLOH    C2 8886   3.977   1.022   2.839
   51GLOH   H04 8887   3.950   1.128   2.855
   51GLOH    O2 8888   4.048   1.009   2.714
   51GLOH   H05 8889   4.043   1.093   2.664
   51GLOH    C3 8890   3.848   0.939   2.835
   51GLOH   H06 8891   3.874   0.834   2.818
   51GLOH   H07 8892   3.789   0.971   2.749
   51GLOH    O3 8893   3.774   0.953   0.087
   51GLOH   H01 8894   3.843   0.963   0.157
   52GLOH   H03 8895   4.372   3.141   1.140
   52GLOH    O1 8896   4.419   3.170   1.058
   52GLOH    C1 8897   4.500   3.060   1.013
   52GLOH   H02 8898   4.530   2.998   1.098
   52GLOH   H08 8899   4.592   3.097   0.967
   52GLOH    C2 8900   4.428   2.970   0.910
   52GLOH   H04 8901   4.414   3.029   0.819
   52GLOH    O2 8902   4.510   2.855   0.879
   52GLOH   H05 8903   4.459   2.795   0.816
   52GLOH    C3 8904   4.288   2.927   0.958
   52GLOH   H06 8905   4.243   2.864   0.881
   52GLOH   H07 8906   4.226   3.016   0.964
   52GLOH    O3 8907   4.286   2.858   1.085
   52GLOH   H01 8908   4.344   2.777   1.077
   53GLOH   H03 8909   2.059   1.276   2.702
   53GLOH    O1 8910   2.065   1.357   2.758
   53GLOH    C1 8911   1.963   1.348   2.859
   53GLOH   H02 8912   1.865   1.339   2.813
   53GLOH   H08 8913   1.961   1.438   0.050
   53GLOH    C2 8914   1.987   1.224   0.078
   53GLOH   H04 8915   2.095   1.208   0.089
   53GLOH    O2 8916   1.928   1.242   0.209
   53GLOH   H05 8917   1.988   1.203   0.277
   53GLOH    C3 8918   1.926   1.102   0.007
   53GLOH   H06 8919   1.818   1.114   0.003
   53GLOH   H07 8920   1.946   1.013   0.066
   53GLOH    O3 8921   1.979   1.087   2.744
   53GLOH   H01 8922   1.936   1.012   2.699
   54GLOH   H03 8923   3.147   2.442   0.982
   54GLOH    O1 8924   3.071   2.496   0.949
   54GLOH    C1 8925   3.043   2.459   0.812
   54GLOH   H02 8926   3.035   2.351   0.804
   54GLOH   H08 8927   3.126   2.489   0.748
   54GLOH    C2 8928   2.914   2.520   0.753
   54GLOH   H04 8929   2.921   2.629   0.762
   54GLOH    O2 8930   2.902   2.483   0.614
   54GLOH   H05 8931   2.824   2.533   0.576
   54GLOH    C3 8932   2.788   2.472   0.827
   54GLOH   H06 8933   2.788   2.363   0.827
   54GLOH   H07 8934   2.700   2.503   0.770
   54GLOH    O3 8935   2.777   2.522   0.962
   54GLOH   H01 8936   2.774   2.621   0.956
   55GLOH   H03 8937   3.955   9.982   1.759
   55GLOH    O1 8938   3.920   9.890   1.769
   55GLOH    C1 8939   3.863   9.881   1.902
   55GLOH   H02 8940   3.942   9.865   1.975
   55GLOH   H08 8941   3.795   9.797   1.908
   55GLOH    C2 8942   3.786   0.009   1.940
   55GLOH   H04 8943   3.707   0.024   1.865
   55GLOH    O2 8944   3.724   9.997   2.069
   55GLOH   H05 8945   3.675   0.081   2.091
   55GLOH    C3 8946   3.881   0.131   1.933
   55GLOH   H06 8947   3.961   0.117   2.006
   55GLOH   H07 8948   3.825   0.220   1.965
   55GLOH    O3 8949   3.935   0.150   1.801
   55GLOH   H01 8950   3.978   0.240   1.797
   56GLOH   H03 8951   2.724   1.181   2.771
   56GLOH    O1 8952   2.802   1.136   2.809
   56GLOH    C1 8953   2.913   1.147   2.720
   56GLOH   H02 8954   2.936   1.252   2.700
   56GLOH   H08 8955   2.889   1.101   2.623
   56GLOH    C2 8956   3.040   1.079   2.775
   56GLOH   H04 8957   3.020   0.971   2.784
   56GLOH    O2 8958   3.149   1.099   2.683
   56GLOH   H05 8959   3.181   1.191   2.691
   56GLOH    C3 8960   3.071   1.133   0.046
   56GLOH   H06 8961   2.984   1.117   0.110
   56GLOH   H07 8962   3.085   1.241   0.039
   56GLOH    O3 8963   3.187   1.074   0.107
   56GLOH   H01 8964   3.170   0.976   0.119
   57GLOH   H03 8965   2.760   0.969   1.961
   57GLOH    O1 8966   2.775   0.881   1.915
   57GLOH    C1 8967   2.654   0.852   1.843
   57GLOH   H02 8968   2.668   0.873   1.738
   57GLOH   H08 8969   2.572   0.916   1.877
   57GLOH    C2 8970   2.608   0.705   1.859
   57GLOH   H04 8971   2.695   0.641   1.836
   57GLOH    O2 8972   2.563   0.676   1.993
   57GLOH   H05 8973   2.636   0.628   2.041
   57GLOH    C3 8974   2.498   0.674   1.756
   57GLOH   H06 8975   2.413   0.738   1.776
   57GLOH   H07 8976   2.465   0.571   1.771
   57GLOH    O3 8977   2.543   0.692   1.620
   57GLOH   H01 8978   2.623   0.634   1.606
   58GLOH   H03 8979   4.543   2.045   1.054
   58GLOH    O1 8980   4.588   1.968   1.098
   58GLOH    C1 8981   4.511   1.920   1.210
   58GLOH   H02 8982   4.578   1.878   1.285
   58GLOH   H08 8983   4.446   1.838   1.179
   58GLOH    C2 8984   4.423   2.027   1.279
   58GLOH   H04 8985   4.488   2.114   1.298
   58GLOH    O2 8986   4.314   2.068   1.195
   58GLOH   H05 8987   4.276   1.990   1.146
   58GLOH    C3 8988   4.373   1.977   1.416
   58GLOH   H06 8989   4.318   2.058   1.464
   58GLOH   H07 8990   4.460   1.958   1.479
   58GLOH    O3 8991   4.292   1.859   1.408
   58GLOH   H01 8992   4.199   1.885   1.386
   59GLOH   H03 8993   4.559   3.890   1.922
   59GLOH    O1 8994   4.469   3.901   1.881
   59GLOH    C1 8995   4.438   3.775   1.817
   59GLOH   H02 8996   4.440   3.694   1.889
   59GLOH   H08 8997   4.514   3.753   1.741
   59GLOH    C2 8998   4.301   3.777   1.748
   59GLOH   H04 8999   4.306   3.847   1.663
   59GLOH    O2 9000   4.266   3.647   1.697
   59GLOH   H05 9001   4.223   3.656   1.607
   59GLOH    C3 9002   4.194   3.829   1.845
   59GLOH   H06 9003   4.188   3.761   1.931
   59GLOH   H07 9004   4.098   3.825   1.795
   59GLOH    O3 9005   4.224   3.962   1.888
   59GLOH   H01 9006   4.323   3.963   1.894
   60GLOH   H03 9007   2.191   1.069   0.845
   60GLOH    O1 9008   2.199   1.100   0.939
   60GLOH    C1 9009   2.204   0.988   1.029
   60GLOH   H02 9010   2.304   0.944   1.029
   60GLOH   H08 9011   2.135   0.910   0.996
   60GLOH    C2 9012   2.168   1.028   1.173
   60GLOH   H04 9013   2.064   1.065   1.172
   60GLOH    O2 9014   2.175   0.915   1.262
   60GLOH   H05 9015   2.103   0.926   1.331
   60GLOH    C3 9016   2.258   1.145   1.219
   60GLOH   H06 9017   2.231   1.232   1.159
   60GLOH   H07 9018   2.362   1.121   1.195
   60GLOH    O3 9019   2.243   1.178   1.358
   60GLOH   H01 9020   2.212   1.099   1.406
   61GLOH   H03 9021   2.655   1.762   1.950
   61GLOH    O1 9022   2.667   1.725   2.041
   61GLOH    C1 9023   2.542   1.745   2.112
   61GLOH   H02 9024   2.485   1.826   2.067
   61GLOH   H08 9025   2.563   1.776   2.215
   61GLOH    C2 9026   2.453   1.619   2.117
   61GLOH   H04 9027   2.454   1.574   2.017
   61GLOH    O2 9028   2.505   1.522   2.211
   61GLOH   H05 9029   2.596   1.496   2.182
   61GLOH    C3 9030   2.308   1.658   2.148
   61GLOH   H06 9031   2.248   1.568   2.154
   61GLOH   H07 9032   2.269   1.716   2.064
   61GLOH    O3 9033   2.297   1.734   2.270
   61GLOH   H01 9034   2.331   1.679   2.343
   62GLOH   H03 9035   4.283   1.758   2.282
   62GLOH    O1 9036   4.341   1.737   2.359
   62GLOH    C1 9037   4.429   1.848   2.384
   62GLOH   H02 9038   4.464   1.890   2.289
   62GLOH   H08 9039   4.517   1.812   2.437
   62GLOH    C2 9040   4.366   1.961   2.467
   62GLOH   H04 9041   4.435   2.047   2.461
   62GLOH    O2 9042   4.237   2.005   2.416
   62GLOH   H05 9043   4.251   2.036   2.322
   62GLOH    C3 9044   4.357   1.920   2.615
   62GLOH   H06 9045   4.301   1.826   2.622
   62GLOH   H07 9046   4.298   1.995   2.668
   62GLOH    O3 9047   4.486   1.906   2.676
   62GLOH   H01 9048   4.529   1.993   2.684
   63GLOH   H03 9049   3.155   0.887   0.431
   63GLOH    O1 9050   3.060   0.860   0.445
   63GLOH    C1 9051   3.033   0.745   0.362
   63GLOH   H02 9052   2.939   0.699   0.393
   63GLOH   H08 9053   3.111   0.669   0.376
   63GLOH    C2 9054   3.023   0.777   0.212
   63GLOH   H04 9055   2.947   0.856   0.200
   63GLOH    O2 9056   3.149   0.826   0.159
   63GLOH   H05 9057   3.225   0.771   0.194
   63GLOH    C3 9058   2.977   0.653   0.133
   63GLOH   H06 9059   3.057   0.579   0.136
   63GLOH   H07 9060   2.965   0.683   0.029
   63GLOH    O3 9061   2.854   0.597   0.183
   63GLOH   H01 9062   2.870   0.499   0.196
   64GLOH   H03 9063   4.464   4.148   0.595
   64GLOH    O1 9064   4.522   4.209   0.649
   64GLOH    C1 9065   4.557   4.141   0.771
   64GLOH   H02 9066   4.624   4.057   0.750
   64GLOH   H08 9067   4.468   4.099   0.818
   64GLOH    C2 9068   4.627   4.234   0.873
   64GLOH   H04 9069   4.710   4.284   0.820
   64GLOH    O2 9070   4.537   4.336   0.923
   64GLOH   H05 9071   4.495   4.382   0.845
   64GLOH    C3 9072   4.688   4.150   0.986
   64GLOH   H06 9073   4.731   4.218   1.060
   64GLOH   H07 9074   4.771   4.093   0.945
   64GLOH    O3 9075   4.594   4.062   1.050
   64GLOH   H01 9076   4.542   4.114   1.116
   65GLOH   H03 9077   4.296   1.482   1.099
   65GLOH    O1 9078   4.210   1.498   1.146
   65GLOH    C1 9079   4.234   1.587   1.258
   65GLOH   H02 9080   4.144   1.598   1.318
   65GLOH   H08 9081   4.260   1.686   1.221
   65GLOH    C2 9082   4.349   1.540   1.349
   65GLOH   H04 9083   4.443   1.548   1.291
   65GLOH    O2 9084   4.361   1.624   1.465
   65GLOH   H05 9085   4.339   1.719   1.441
   65GLOH    C3 9086   4.331   1.393   1.388
   65GLOH   H06 9087   4.417   1.363   1.448
   65GLOH   H07 9088   4.335   1.332   1.297
   65GLOH    O3 9089   4.208   1.366   1.459
   65GLOH   H01 9090   4.227   1.287   1.517
   66GLOH   H03 9091   3.094   1.358   2.308
   66GLOH    O1 9092   3.166   1.295   2.331
   66GLOH    C1 9093   3.130   1.167   2.276
   66GLOH   H02 9094   3.048   1.123   2.333
   66GLOH   H08 9095   3.214   1.098   2.284
   66GLOH    C2 9096   3.088   1.177   2.128
   66GLOH   H04 9097   3.174   1.216   2.070
   66GLOH    O2 9098   3.052   1.047   2.076
   66GLOH   H05 9099   3.128   1.011   2.022
   66GLOH    C3 9100   2.971   1.276   2.112
   66GLOH   H06 9101   2.886   1.236   2.168
   66GLOH   H07 9102   2.942   1.278   2.007
   66GLOH    O3 9103   3.002   1.409   2.160
   66GLOH   H01 9104   3.083   1.443   2.114
   67GLOH   H03 9105   3.792   1.324   0.533
   67GLOH    O1 9106   3.723   1.386   0.568
   67GLOH    C1 9107   3.734   1.392   0.711
   67GLOH   H02 9108   3.677   1.477   0.750
   67GLOH   H08 9109   3.838   1.409   0.740
   67GLOH    C2 9110   3.684   1.264   0.780
   67GLOH   H04 9111   3.751   1.182   0.751
   67GLOH    O2 9112   3.688   1.279   0.924
   67GLOH   H05 9113   3.647   1.198   0.963
   67GLOH    C3 9114   3.542   1.228   0.733
   67GLOH   H06 9115   3.544   1.212   0.625
   67GLOH   H07 9116   3.477   1.314   0.751
   67GLOH    O3 9117   3.491   1.111   0.799
   67GLOH   H01 9118   3.399   1.093   0.766
   68GLOH   H03 9119   3.973   1.019   1.303
   68GLOH    O1 9120   3.954   0.975   1.216
   68GLOH    C1 9121   4.020   1.041   1.107
   68GLOH   H02 9122   4.128   1.034   1.118
   68GLOH   H08 9123   3.994   1.146   1.104
   68GLOH    C2 9124   3.981   0.979   0.971
   68GLOH   H04 9125   3.874   0.998   0.955
   68GLOH    O2 9126   4.057   1.039   0.863
   68GLOH   H05 9127   4.006   1.026   0.778
   68GLOH    C3 9128   4.001   0.826   0.977
   68GLOH   H06 9129   3.944   0.787   1.061
   68GLOH   H07 9130   4.106   0.806   0.999
   68GLOH    O3 9131   3.961   0.757   0.857
   68GLOH   H01 9132   4.045   0.729   0.810
   69GLOH   H03 9133   3.772   4.029   0.973
   69GLOH    O1 9134   3.744   3.997   0.883
   69GLOH    C1 9135   3.846   4.041   0.790
   69GLOH   H02 9136   3.940   3.990   0.812
   69GLOH   H08 9137   3.864   4.148   0.803
   69GLOH    C2 9138   3.814   4.016   0.642
   69GLOH   H04 9139   3.897   4.058   0.583
   69GLOH    O2 9140   3.804   3.875   0.613
   69GLOH   H05 9141   3.788   3.864   0.514
   69GLOH    C3 9142   3.686   4.091   0.601
   69GLOH   H06 9143   3.603   4.053   0.661
   69GLOH   H07 9144   3.663   4.067   0.497
   69GLOH    O3 9145   3.700   4.233   0.617
   69GLOH   H01 9146   3.652   4.259   0.700
   70GLOH   H03 9147   3.981   9.750   1.709
   70GLOH    O1 9148   3.993   9.671   1.650
   70GLOH    C1 9149   3.909   9.691   1.535
   70GLOH   H02 9150   3.932   9.787   1.488
   70GLOH   H08 9151   3.805   9.696   1.567
   70GLOH    C2 9152   3.920   9.581   1.428
   70GLOH   H04 9153   3.883   9.487   1.472
   70GLOH    O2 9154   3.835   9.618   1.317
   70GLOH   H05 9155   3.853   9.556   1.241
   70GLOH    C3 9156   4.066   9.561   1.384
   70GLOH   H06 9157   4.129   9.552   1.473
   70GLOH   H07 9158   4.099   9.650   1.330
   70GLOH    O3 9159   4.082   9.444   1.302
   70GLOH   H01 9160   4.065   9.365   1.360
   71GLOH   H03 9161   2.465   2.422   2.276
   71GLOH    O1 9162   2.539   2.483   2.297
   71GLOH    C1 9163   2.488   2.606   2.351
   71GLOH   H02 9164   2.570   2.671   2.382
   71GLOH   H08 9165   2.429   2.586   2.441
   71GLOH    C2 9166   2.401   2.685   2.251
   71GLOH   H04 9167   2.329   2.615   2.206
   71GLOH    O2 9168   2.328   2.792   2.316
   71GLOH   H05 9169   2.279   2.754   2.392
   71GLOH    C3 9170   2.487   2.745   2.138
   71GLOH   H06 9171   2.546   2.827   2.180
   71GLOH   H07 9172   2.420   2.790   2.064
   71GLOH    O3 9173   2.574   2.651   2.074
   71GLOH   H01 9174   2.521   2.568   2.056
   72GLOH   H03 9175   3.183   0.373   0.876
   72GLOH    O1 9176   3.216   0.439   0.943
   72GLOH    C1 9177   3.114   0.456   1.044
   72GLOH   H02 9178   3.068   0.360   1.067
   72GLOH   H08 9179   3.034   0.520   1.006
   72GLOH    C2 9180   3.165   0.516   1.177
   72GLOH   H04 9181   3.237   0.446   1.221
   72GLOH    O2 9182   3.229   0.644   1.157
   72GLOH   H05 9183   3.281   0.667   1.240
   72GLOH    C3 9184   3.048   0.534   1.276
   72GLOH   H06 9185   2.985   0.616   1.240
   72GLOH   H07 9186   3.089   0.567   1.371
   72GLOH    O3 9187   2.970   0.415   1.293
   72GLOH   H01 9188   3.021   0.350   1.349
   73GLOH   H03 9189   3.609   9.184   1.541
   73GLOH    O1 9190   3.675   9.143   1.479
   73GLOH    C1 9191   3.788   9.096   1.554
   73GLOH   H02 9192   3.756   9.019   1.624
   73GLOH   H08 9193   3.829   9.177   1.614
   73GLOH    C2 9194   3.900   9.039   1.467
   73GLOH   H04 9195   3.979   9.001   1.534
   73GLOH    O2 9196   3.855   8.929   1.384
   73GLOH   H05 9197   3.812   8.859   1.441
   73GLOH    C3 9198   3.963   9.149   1.379
   73GLOH   H06 9199   3.884   9.191   1.316
   73GLOH   H07 9200   4.035   9.102   1.311
   73GLOH    O3 9201   4.027   9.254   1.454
   73GLOH   H01 9202   4.050   9.224   1.546
   74GLOH   H03 9203   3.459   3.321   0.842
   74GLOH    O1 9204   3.395   3.277   0.779
   74GLOH    C1 9205   3.430   3.138   0.769
   74GLOH   H02 9206   3.362   3.086   0.703
   74GLOH   H08 9207   3.422   3.089   0.867
   74GLOH    C2 9208   3.574   3.117   0.718
   74GLOH   H04 9209   3.642   3.170   0.785
   74GLOH    O2 9210   3.608   2.977   0.718
   74GLOH   H05 9211   3.701   2.967   0.754
   74GLOH    C3 9212   3.591   3.176   0.576
   74GLOH   H06 9213   3.695   3.162   0.546
   74GLOH   H07 9214   3.574   3.283   0.581
   74GLOH    O3 9215   3.504   3.116   0.479
   74GLOH   H01 9216   3.525   3.018   0.475
   75GLOH   H03 9217   2.872   1.743   0.984
   75GLOH    O1 9218   2.915   1.825   0.948
   75GLOH    C1 9219   2.831   1.936   0.986
   75GLOH   H02 9220   2.891   2.015   1.031
   75GLOH   H08 9221   2.758   1.906   1.061
   75GLOH    C2 9222   2.755   1.994   0.865
   75GLOH   H04 9223   2.710   1.910   0.810
   75GLOH    O2 9224   2.652   2.083   0.911
   75GLOH   H05 9225   2.690   2.156   0.967
   75GLOH    C3 9226   2.854   2.066   0.772
   75GLOH   H06 9227   2.937   2.000   0.750
   75GLOH   H07 9228   2.894   2.152   0.826
   75GLOH    O3 9229   2.792   2.110   0.650
   75GLOH   H01 9230   2.860   2.159   0.597
   76GLOH   H03 9231   4.609   3.740   0.805
   76GLOH    O1 9232   4.609   3.698   0.714
   76GLOH    C1 9233   4.493   3.743   0.642
   76GLOH   H02 9234   4.502   3.718   0.536
   76GLOH   H08 9235   4.485   3.852   0.648
   76GLOH    C2 9236   4.362   3.681   0.695
   76GLOH   H04 9237   4.349   3.716   0.799
   76GLOH    O2 9238   4.250   3.728   0.616
   76GLOH   H05 9239   4.268   3.714   0.517
   76GLOH    C3 9240   4.370   3.527   0.697
   76GLOH   H06 9241   4.462   3.497   0.746
   76GLOH   H07 9242   4.376   3.492   0.594
   76GLOH    O3 9243   4.257   3.466   0.763
   76GLOH   H01 9244   4.175   3.493   0.714
   77GLOH   H03 9245   3.149   9.498   0.405
   77GLOH    O1 9246   3.192   9.588   0.409
   77GLOH    C1 9247   3.144   9.661   0.294
   77GLOH   H02 9248   3.049   9.708   0.317
   77GLOH   H08 9249   3.125   9.591   0.211
   77GLOH    C2 9250   3.240   9.770   0.241
   77GLOH   H04 9251   3.340   9.726   0.228
   77GLOH    O2 9252   3.190   9.815   0.113
   77GLOH   H05 9253   3.236   9.896   0.079
   77GLOH    C3 9254   3.250   9.888   0.340
   77GLOH   H06 9255   3.150   9.930   0.352
   77GLOH   H07 9256   3.311   9.966   0.294
   77GLOH    O3 9257   3.304   9.852   0.468
   77GLOH   H01 9258   3.400   9.831   0.456
   78GLOH   H03 9259   3.621   0.921   0.071
   78GLOH    O1 9260   3.527   0.890   0.064
   78GLOH    C1 9261   3.488   0.893   2.794
   78GLOH   H02 9262   3.394   0.839   2.783
   78GLOH   H08 9263   3.561   0.839   2.734
   78GLOH    C2 9264   3.469   1.033   2.733
   78GLOH   H04 9265   3.386   1.083   2.785
   78GLOH    O2 9266   3.588   1.114   2.746
   78GLOH   H05 9267   3.595   1.145   2.838
   78GLOH    C3 9268   3.434   1.021   2.584
   78GLOH   H06 9269   3.518   0.977   2.531
   78GLOH   H07 9270   3.421   1.122   2.543
   78GLOH    O3 9271   3.315   0.944   2.560
   78GLOH   H01 9272   3.239   0.991   2.605
   79GLOH   H03 9273   3.258   1.433   1.747
   79GLOH    O1 9274   3.224   1.355   1.696
   79GLOH    C1 9275   3.105   1.397   1.626
   79GLOH   H02 9276   3.101   1.351   1.527
   79GLOH   H08 9277   3.104   1.505   1.611
   79GLOH    C2 9278   2.977   1.358   1.703
   79GLOH   H04 9279   2.985   1.396   1.806
   79GLOH    O2 9280   2.862   1.418   1.640
   79GLOH   H05 9281   2.800   1.349   1.604
   79GLOH    C3 9282   2.963   1.205   1.707
   79GLOH   H06 9283   2.940   1.168   1.607
   79GLOH   H07 9284   2.878   1.180   1.771
   79GLOH    O3 9285   3.083   1.144   1.756
   79GLOH   H01 9286   3.155   1.210   1.743
   80GLOH   H03 9287   2.815   0.636   2.120
   80GLOH    O1 9288   2.750   0.561   2.116
   80GLOH    C1 9289   2.829   0.443   2.091
   80GLOH   H02 9290   2.880   0.412   2.182
   80GLOH   H08 9291   2.906   0.466   2.018
   80GLOH    C2 9292   2.751   0.323   2.036
   80GLOH   H04 9293   2.701   0.353   1.943
   80GLOH    O2 9294   2.846   0.218   2.009
   80GLOH   H05 9295   2.804   0.149   1.948
   80GLOH    C3 9296   2.645   0.278   2.138
   80GLOH   H06 9297   2.582   0.363   2.163
   80GLOH   H07 9298   2.696   0.247   2.229
   80GLOH    O3 9299   2.563   0.170   2.088
   80GLOH   H01 9300   2.533   0.116   2.165
   81GLOH   H03 9301   4.758   3.811   1.898
   81GLOH    O1 9302   4.698   3.848   1.968
   81GLOH    C1 9303   4.772   3.862   2.091
   81GLOH   H02 9304   4.711   3.913   2.165
   81GLOH   H08 9305   4.860   3.925   2.074
   81GLOH    C2 9306   4.819   3.728   2.151
   81GLOH   H04 9307   4.861   3.666   2.070
   81GLOH    O2 9308   4.921   3.751   2.250
   81GLOH   H05 9309   4.882   3.791   2.330
   81GLOH    C3 9310   4.703   3.650   2.216
   81GLOH   H06 9311   4.664   3.709   2.299
   81GLOH   H07 9312   4.744   3.558   2.260
   81GLOH    O3 9313   4.595   3.616   2.127
   81GLOH   H01 9314   4.634   3.576   2.045
   82GLOH   H03 9315   3.360   0.324   2.686
   82GLOH    O1 9316   3.309   0.260   2.740
   82GLOH    C1 9317   3.172   0.301   2.754
   82GLOH   H02 9318   3.117   0.287   2.661
   82GLOH   H08 9319   3.166   0.408   2.779
   82GLOH    C2 9320   3.099   0.223   2.865
   82GLOH   H04 9321   3.141   0.254   0.092
   82GLOH    O2 9322   2.958   0.254   2.864
   82GLOH   H05 9323   2.933   0.290   0.084
   82GLOH    C3 9324   3.122   0.072   2.850
   82GLOH   H06 9325   3.088   0.041   2.751
   82GLOH   H07 9326   3.059   0.020   0.052
   82GLOH    O3 9327   3.261   0.039   2.868
   82GLOH   H01 9328   3.310   0.111   2.820
   83GLOH   H03 9329   4.290   3.530   2.105
   83GLOH    O1 9330   4.266   3.443   2.063
   83GLOH    C1 9331   4.310   3.338   2.151
   83GLOH   H02 9332   4.341   3.377   2.248
   83GLOH   H08 9333   4.398   3.289   2.108
   83GLOH    C2 9334   4.201   3.232   2.173
   83GLOH   H04 9335   4.239   3.161   2.248
   83GLOH    O2 9336   4.080   3.292   2.225
   83GLOH   H05 9337   4.075   3.384   2.188
   83GLOH    C3 9338   4.178   3.154   2.043
   83GLOH   H06 9339   4.155   3.225   1.963
   83GLOH   H07 9340   4.090   3.091   2.055
   83GLOH    O3 9341   4.293   3.075   2.008
   83GLOH   H01 9342   4.260   2.982   1.998
   84GLOH   H03 9343   4.025   2.395   0.905
   84GLOH    O1 9344   3.934   2.374   0.875
   84GLOH    C1 9345   3.930   2.239   0.824
   84GLOH   H02 9346   3.967   2.237   0.721
   84GLOH   H08 9347   3.826   2.204   0.820
   84GLOH    C2 9348   4.011   2.138   0.908
   84GLOH   H04 9349   3.982   2.149   1.014
   84GLOH    O2 9350   3.980   2.005   0.863
   84GLOH   H05 9351   4.008   1.995   0.767
   84GLOH    C3 9352   4.162   2.164   0.894
   84GLOH   H06 9353   4.193   2.139   0.793
   84GLOH   H07 9354   4.215   2.096   0.960
   84GLOH    O3 9355   4.198   2.300   0.926
   84GLOH   H01 9356   4.207   2.307   1.024
   85GLOH   H03 9357   4.072   1.959   2.435
   85GLOH    O1 9358   3.987   1.910   2.423
   85GLOH    C1 9359   4.017   1.770   2.419
   85GLOH   H02 9360   4.038   1.733   2.519
   85GLOH   H08 9361   4.107   1.754   2.360
   85GLOH    C2 9362   3.906   1.683   2.357
   85GLOH   H04 9363   3.820   1.683   2.426
   85GLOH    O2 9364   3.865   1.736   2.229
   85GLOH   H05 9365   3.868   1.833   2.238
   85GLOH    C3 9366   3.957   1.539   2.341
   85GLOH   H06 9367   4.053   1.542   2.289
   85GLOH   H07 9368   3.888   1.483   2.278
   85GLOH    O3 9369   3.973   1.473   2.468
   85GLOH   H01 9370   3.886   1.464   2.511
   86GLOH   H03 9371   3.903   3.743   0.907
   86GLOH    O1 9372   3.941   3.767   0.995
   86GLOH    C1 9373   4.037   3.666   1.032
   86GLOH   H02 9374   4.090   3.696   1.122
   86GLOH   H08 9375   4.112   3.654   0.954
   86GLOH    C2 9376   3.970   3.529   1.057
   86GLOH   H04 9377   3.880   3.546   1.119
   86GLOH    O2 9378   3.928   3.471   0.931
   86GLOH   H05 9379   3.891   3.543   0.873
   86GLOH    C3 9380   4.063   3.434   1.133
   86GLOH   H06 9381   4.144   3.405   1.067
   86GLOH   H07 9382   4.008   3.343   1.157
   86GLOH    O3 9383   4.115   3.492   1.255
   86GLOH   H01 9384   4.208   3.459   1.266
   87GLOH   H03 9385   3.154   1.292   0.937
   87GLOH    O1 9386   3.196   1.382   0.930
   87GLOH    C1 9387   3.123   1.456   0.830
   87GLOH   H02 9388   3.068   1.538   0.876
   87GLOH   H08 9389   3.050   1.393   0.779
   87GLOH    C2 9390   3.219   1.515   0.724
   87GLOH   H04 9391   3.282   1.434   0.687
   87GLOH    O2 9392   3.145   1.571   0.613
   87GLOH   H05 9393   3.082   1.642   0.645
   87GLOH    C3 9394   3.309   1.621   0.789
   87GLOH   H06 9395   3.358   1.577   0.876
   87GLOH   H07 9396   3.246   1.701   0.828
   87GLOH    O3 9397   3.408   1.675   0.699
   87GLOH   H01 9398   3.433   1.607   0.631
   88GLOH   H03 9399   2.398   2.996   2.303
   88GLOH    O1 9400   2.466   3.052   2.258
   88GLOH    C1 9401   2.470   3.185   2.318
   88GLOH   H02 9402   2.491   3.177   2.425
   88GLOH   H08 9403   2.373   3.233   2.308
   88GLOH    C2 9404   2.576   3.278   2.255
   88GLOH   H04 9405   2.561   3.378   2.301
   88GLOH    O2 9406   2.711   3.238   2.282
   88GLOH   H05 9407   2.718   3.138   2.296
   88GLOH    C3 9408   2.552   3.296   2.104
   88GLOH   H06 9409   2.640   3.342   2.060
   88GLOH   H07 9410   2.469   3.366   2.089
   88GLOH    O3 9411   2.523   3.171   2.039
   88GLOH   H01 9412   2.501   3.108   2.112
   89GLOH   H03 9413   2.983   0.941   1.402
   89GLOH    O1 9414   3.025   1.022   1.361
   89GLOH    C1 9415   3.162   1.033   1.404
   89GLOH   H02 9416   3.201   0.934   1.429
   89GLOH   H08 9417   3.168   1.094   1.494
   89GLOH    C2 9418   3.251   1.095   1.295
   89GLOH   H04 9419   3.206   1.190   1.263
   89GLOH    O2 9420   3.384   1.122   1.348
   89GLOH   H05 9421   3.446   1.134   1.271
   89GLOH    C3 9422   3.260   1.000   1.174
   89GLOH   H06 9423   3.159   0.965   1.151
   89GLOH   H07 9424   3.317   0.912   1.203
   89GLOH    O3 9425   3.319   1.062   1.059
   89GLOH   H01 9426   3.414   1.083   1.077
   90GLOH   H03 9427   2.615   9.373   0.676
   90GLOH    O1 9428   2.683   9.396   0.606
   90GLOH    C1 9429   2.721   9.275   0.538
   90GLOH   H02 9430   2.756   9.299   0.437
   90GLOH   H08 9431   2.635   9.209   0.526
   90GLOH    C2 9432   2.832   9.196   0.610
   90GLOH   H04 9433   2.849   9.103   0.553
   90GLOH    O2 9434   2.955   9.272   0.610
   90GLOH   H05 9435   3.032   9.208   0.627
   90GLOH    C3 9436   2.787   9.157   0.752
   90GLOH   H06 9437   2.697   9.096   0.743
   90GLOH   H07 9438   2.757   9.248   0.805
   90GLOH    O3 9439   2.887   9.087   0.827
   90GLOH   H01 9440   2.933   9.156   0.882
   91GLOH   H03 9441   3.486   2.800   0.418
   91GLOH    O1 9442   3.550   2.872   0.442
   91GLOH    C1 9443   3.684   2.819   0.435
   91GLOH   H02 9444   3.689   2.721   0.484
   91GLOH   H08 9445   3.753   2.884   0.490
   91GLOH    C2 9446   3.735   2.805   0.291
   91GLOH   H04 9447   3.737   2.905   0.246
   91GLOH    O2 9448   3.868   2.749   0.285
   91GLOH   H05 9449   3.876   2.714   0.193
   91GLOH    C3 9450   3.639   2.718   0.206
   91GLOH   H06 9451   3.545   2.771   0.195
   91GLOH   H07 9452   3.618   2.626   0.261
   91GLOH    O3 9453   3.695   2.688   0.077
   91GLOH   H01 9454   3.627   2.643   0.023
   92GLOH   H03 9455   2.613   2.695   1.938
   92GLOH    O1 9456   2.640   2.726   1.847
   92GLOH    C1 9457   2.658   2.868   1.853
   92GLOH   H02 9458   2.729   2.894   1.933
   92GLOH   H08 9459   2.564   2.917   1.877
   92GLOH    C2 9460   2.711   2.924   1.720
   92GLOH   H04 9461   2.638   2.901   1.641
   92GLOH    O2 9462   2.725   3.068   1.733
   92GLOH   H05 9463   2.633   3.108   1.744
   92GLOH    C3 9464   2.846   2.858   1.686
   92GLOH   H06 9465   2.842   2.753   1.714
   92GLOH   H07 9466   2.923   2.903   1.749
   92GLOH    O3 9467   2.883   2.870   1.547
   92GLOH   H01 9468   2.953   2.800   1.531
   93GLOH   H03 9469   2.655   2.612   1.749
   93GLOH    O1 9470   2.666   2.531   1.693
   93GLOH    C1 9471   2.539   2.505   1.629
   93GLOH   H02 9472   2.506   2.592   1.572
   93GLOH   H08 9473   2.462   2.486   1.704
   93GLOH    C2 9474   2.545   2.384   1.534
   93GLOH   H04 9475   2.578   2.297   1.593
   93GLOH    O2 9476   2.415   2.353   1.479
   93GLOH   H05 9477   2.403   2.402   1.393
   93GLOH    C3 9478   2.650   2.406   1.424
   93GLOH   H06 9479   2.647   2.321   1.356
   93GLOH   H07 9480   2.749   2.406   1.470
   93GLOH    O3 9481   2.630   2.529   1.350
   93GLOH   H01 9482   2.541   2.522   1.306
   94GLOH   H03 9483   2.388   1.214   0.215
   94GLOH    O1 9484   2.393   1.140   0.279
   94GLOH    C1 9485   2.532   1.125   0.318
   94GLOH   H02 9486   2.563   1.210   0.379
   94GLOH   H08 9487   2.596   1.124   0.230
   94GLOH    C2 9488   2.557   0.997   0.399
   94GLOH   H04 9489   2.505   1.004   0.495
   94GLOH    O2 9490   2.509   0.880   0.328
   94GLOH   H05 9491   2.434   0.910   0.274
   94GLOH    C3 9492   2.708   0.982   0.428
   94GLOH   H06 9493   2.762   0.980   0.333
   94GLOH   H07 9494   2.725   0.886   0.476
   94GLOH    O3 9495   2.757   1.088   0.511
   94GLOH   H01 9496   2.825   1.047   0.572
   95GLOH   H03 9497   3.696   4.360   1.515
   95GLOH    O1 9498   3.775   4.420   1.523
   95GLOH    C1 9499   3.891   4.338   1.548
   95GLOH   H02 9500   3.894   4.309   1.653
   95GLOH   H08 9501   3.982   4.394   1.528
   95GLOH    C2 9502   3.892   4.210   1.461
   95GLOH   H04 9503   3.899   4.241   1.355
   95GLOH    O2 9504   4.006   4.127   1.492
   95GLOH   H05 9505   4.012   4.113   1.591
   95GLOH    C3 9506   3.762   4.131   1.480
   95GLOH   H06 9507   3.756   4.101   1.585
   95GLOH   H07 9508   3.768   4.040   1.421
   95GLOH    O3 9509   3.643   4.206   1.443
   95GLOH   H01 9510   3.566   4.144   1.449
   96GLOH   H03 9511   3.403   8.787   2.590
   96GLOH    O1 9512   3.405   8.804   2.687
   96GLOH    C1 9513   3.463   8.934   2.706
   96GLOH   H02 9514   3.572   8.926   2.712
   96GLOH   H08 9515   3.430   8.977   2.801
   96GLOH    C2 9516   3.427   9.032   2.593
   96GLOH   H04 9517   3.317   9.041   2.588
   96GLOH    O2 9518   3.484   9.162   2.617
   96GLOH   H05 9519   3.443   9.204   2.695
   96GLOH    C3 9520   3.477   8.977   2.458
   96GLOH   H06 9521   3.586   8.975   2.460
   96GLOH   H07 9522   3.449   9.048   2.380
   96GLOH    O3 9523   3.426   8.847   2.427
   96GLOH   H01 9524   3.481   8.811   2.351
   97GLOH   H03 9525   4.259   3.925   2.750
   97GLOH    O1 9526   4.274   3.847   2.693
   97GLOH    C1 9527   4.205   3.733   2.748
   97GLOH   H02 9528   4.097   3.751   2.748
   97GLOH   H08 9529   4.234   3.719   2.852
   97GLOH    C2 9530   4.234   3.604   2.670
   97GLOH   H04 9531   4.341   3.581   2.681
   97GLOH    O2 9532   4.156   3.496   2.727
   97GLOH   H05 9533   4.125   3.436   2.655
   97GLOH    C3 9534   4.204   3.624   2.520
   97GLOH   H06 9535   4.251   3.716   2.487
   97GLOH   H07 9536   4.096   3.637   2.508
   97GLOH    O3 9537   4.250   3.514   2.439
   97GLOH   H01 9538   4.197   3.434   2.463
   98GLOH   H03 9539   3.586   2.841   1.002
   98GLOH    O1 9540   3.548   2.911   1.062
   98GLOH    C1 9541   3.661   2.980   1.117
   98GLOH   H02 9542   3.708   3.040   1.039
   98GLOH   H08 9543   3.736   2.909   1.151
   98GLOH    C2 9544   3.626   3.073   1.235
   98GLOH   H04 9545   3.534   3.126   1.209
   98GLOH    O2 9546   3.606   3.002   1.359
   98GLOH   H05 9547   3.529   2.938   1.352
   98GLOH    C3 9548   3.737   3.178   1.251
   98GLOH   H06 9549   3.833   3.127   1.258
   98GLOH   H07 9550   3.723   3.231   1.345
   98GLOH    O3 9551   3.740   3.273   1.142
   98GLOH   H01 9552   3.735   3.362   1.185
   99GLOH   H03 9553   3.646   0.815   1.234
   99GLOH    O1 9554   3.577   0.852   1.172
   99GLOH    C1 9555   3.532   0.745   1.088
   99GLOH   H02 9556   3.435   0.770   1.043
   99GLOH   H08 9557   3.516   0.654   1.147
   99GLOH    C2 9558   3.632   0.715   0.976
   99GLOH   H04 9559   3.732   0.704   1.021
   99GLOH    O2 9560   3.599   0.592   0.908
   99GLOH   H05 9561   3.681   0.560   0.861
   99GLOH    C3 9562   3.636   0.834   0.878
   99GLOH   H06 9563   3.655   0.925   0.935
   99GLOH   H07 9564   3.537   0.845   0.834
   99GLOH    O3 9565   3.735   0.820   0.774
   99GLOH   H01 9566   3.822   0.798   0.816
  100GLOH   H03 9567   3.752   0.685   2.631
  100GLOH    O1 9568   3.681   0.620   2.615
  100GLOH    C1 9569   3.737   0.491   2.584
  100GLOH   H02 9570   3.778   0.444   2.673
  100GLOH   H08 9571   3.819   0.502   2.513
  100GLOH    C2 9572   3.631   0.398   2.523
  100GLOH   H04 9573   3.675   0.299   2.509
  100GLOH    O2 9574   3.518   0.389   2.614
  100GLOH   H05 9575   3.515   0.478   2.657
  100GLOH    C3 9576   3.589   0.454   2.385
  100GLOH   H06 9577   3.679   0.473   2.327
  100GLOH   H07 9578   3.542   0.551   2.402
  100GLOH    O3 9579   3.500   0.367   2.311
  100GLOH   H01 9580   3.421   0.349   2.366
  101GLOH   H03 9581   3.014   0.251   0.508
  101GLOH    O1 9582   2.996   0.163   0.551
  101GLOH    C1 9583   2.947   0.071   0.451
  101GLOH   H02 9584   2.979   9.970   0.476
  101GLOH   H08 9585   2.990   0.094   0.354
  101GLOH    C2 9586   2.793   0.070   0.437
  101GLOH   H04 9587   2.749   0.055   0.536
  101GLOH    O2 9588   2.749   0.196   0.383
  101GLOH   H05 9589   2.649   0.203   0.382
  101GLOH    C3 9590   2.749   9.955   0.345
  101GLOH   H06 9591   2.779   9.979   0.243
  101GLOH   H07 9592   2.639   9.952   0.345
  101GLOH    O3 9593   2.801   9.826   0.382
  101GLOH   H01 9594   2.748   9.784   0.455
  102GLOH   H03 9595   4.686   3.233   1.359
  102GLOH    O1 9596   4.702   3.214   1.263
  102GLOH    C1 9597   4.702   3.337   1.188
  102GLOH   H02 9598   4.606   3.388   1.200
  102GLOH   H08 9599   4.711   3.315   1.082
  102GLOH    C2 9600   4.814   3.436   1.226
  102GLOH   H04 9601   4.843   3.489   1.134
  102GLOH    O2 9602   4.768   3.535   1.321
  102GLOH   H05 9603   4.841   3.556   1.385
  102GLOH    C3 9604   4.940   3.362   1.277
  102GLOH   H06 9605   5.027   3.425   1.255
  102GLOH   H07 9606   4.953   3.271   1.217
  102GLOH    O3 9607   4.940   3.328   1.417
  102GLOH   H01 9608   4.856   3.283   1.444
  103GLOH   H03 9609   2.878   1.585   1.135
  103GLOH    O1 9610   2.946   1.580   1.208
  103GLOH    C1 9611   2.904   1.483   1.305
  103GLOH   H02 9612   2.798   1.491   1.325
  103GLOH   H08 9613   2.955   1.501   1.400
  103GLOH    C2 9614   2.936   1.339   1.261
  103GLOH   H04 9615   3.043   1.333   1.239
  103GLOH    O2 9616   2.904   1.246   1.367
  103GLOH   H05 9617   2.951   1.158   1.352
  103GLOH    C3 9618   2.858   1.303   1.133
  103GLOH   H06 9619   2.897   1.208   1.096
  103GLOH   H07 9620   2.883   1.377   1.056
  103GLOH    O3 9621   2.716   1.295   1.151
  103GLOH   H01 9622   2.698   1.218   1.212
  104GLOH   H03 9623   4.089   4.367   2.430
  104GLOH    O1 9624   4.106   4.271   2.444
  104GLOH    C1 9625   4.029   4.224   2.556
  104GLOH   H02 9626   3.922   4.227   2.533
  104GLOH   H08 9627   4.045   4.288   2.643
  104GLOH    C2 9628   4.067   4.080   2.594
  104GLOH   H04 9629   4.173   4.080   2.625
  104GLOH    O2 9630   3.986   4.034   2.705
  104GLOH   H05 9631   3.897   4.006   2.674
  104GLOH    C3 9632   4.054   3.986   2.473
  104GLOH   H06 9633   3.949   3.979   2.444
  104GLOH   H07 9634   4.085   3.886   2.503
  104GLOH    O3 9635   4.133   4.032   2.361
  104GLOH   H01 9636   4.140   4.130   2.375
  105GLOH   H03 9637   4.355   3.654   1.454
  105GLOH    O1 9638   4.450   3.627   1.458
  105GLOH    C1 9639   4.535   3.742   1.437
  105GLOH   H02 9640   4.637   3.719   1.469
  105GLOH   H08 9641   4.502   3.826   1.498
  105GLOH    C2 9642   4.542   3.790   1.290
  105GLOH   H04 9643   4.610   3.876   1.286
  105GLOH    O2 9644   4.593   3.687   1.202
  105GLOH   H05 9645   4.660   3.630   1.251
  105GLOH    C3 9646   4.403   3.837   1.242
  105GLOH   H06 9647   4.335   3.752   1.243
  105GLOH   H07 9648   4.412   3.869   1.138
  105GLOH    O3 9649   4.352   3.945   1.323
  105GLOH   H01 9650   4.254   3.932   1.334
  106GLOH   H03 9651   2.492   1.776   0.224
  106GLOH    O1 9652   2.459   1.736   0.139
  106GLOH    C1 9653   2.355   1.640   0.168
  106GLOH   H02 9654   2.270   1.690   0.215
  106GLOH   H08 9655   2.389   1.564   0.238
  106GLOH    C2 9656   2.303   1.568   0.042
  106GLOH   H04 9657   2.388   1.517   2.864
  106GLOH    O2 9658   2.204   1.470   0.079
  106GLOH   H05 9659   2.163   1.432   2.866
  106GLOH    C3 9660   2.245   1.671   2.814
  106GLOH   H06 9661   2.158   1.719   2.859
  106GLOH   H07 9662   2.210   1.619   2.724
  106GLOH    O3 9663   2.344   1.769   2.779
  106GLOH   H01 9664   2.400   1.781   2.860
  107GLOH   H03 9665   3.643   3.844   0.387
  107GLOH    O1 9666   3.741   3.837   0.372
  107GLOH    C1 9667   3.768   3.703   0.328
  107GLOH   H02 9668   3.707   3.631   0.384
  107GLOH   H08 9669   3.872   3.677   0.348
  107GLOH    C2 9670   3.743   3.682   0.177
  107GLOH   H04 9671   3.832   3.719   0.123
  107GLOH    O2 9672   3.727   3.541   0.148
  107GLOH   H05 9673   3.650   3.506   0.200
  107GLOH    C3 9674   3.622   3.762   0.126
  107GLOH   H06 9675   3.640   3.868   0.141
  107GLOH   H07 9676   3.534   3.735   0.184
  107GLOH    O3 9677   3.598   3.736   2.856
  107GLOH   H01 9678   3.633   3.646   2.839
  108GLOH   H03 9679   3.023   1.803   1.623
  108GLOH    O1 9680   2.941   1.829   1.673
  108GLOH    C1 9681   2.937   1.973   1.687
  108GLOH   H02 9682   3.037   2.011   1.710
  108GLOH   H08 9683   2.873   2.001   1.770
  108GLOH    C2 9684   2.887   2.044   1.560
  108GLOH   H04 9685   2.883   2.152   1.582
  108GLOH    O2 9686   2.975   2.021   1.448
  108GLOH   H05 9687   3.066   2.053   1.474
  108GLOH    C3 9688   2.744   1.999   1.525
  108GLOH   H06 9689   2.746   1.892   1.505
  108GLOH   H07 9690   2.714   2.047   1.432
  108GLOH    O3 9691   2.647   2.027   1.628
  108GLOH   H01 9692   2.561   2.046   1.582
  109GLOH   H03 9693   4.359   2.884   1.573
  109GLOH    O1 9694   4.320   2.814   1.631
  109GLOH    C1 9695   4.298   2.873   1.760
  109GLOH   H02 9696   4.256   2.973   1.750
  109GLOH   H08 9697   4.394   2.885   1.812
  109GLOH    C2 9698   4.205   2.790   1.850
  109GLOH   H04 9699   4.245   2.688   1.857
  109GLOH    O2 9700   4.197   2.849   1.982
  109GLOH   H05 9701   4.136   2.795   2.039
  109GLOH    C3 9702   4.065   2.782   1.785
  109GLOH   H06 9703   4.076   2.742   1.684
  109GLOH   H07 9704   4.025   2.883   1.775
  109GLOH    O3 9705   3.975   2.700   1.862
  109GLOH   H01 9706   4.017   2.611   1.873
  110GLOH   H03 9707   4.065   0.994   1.537
  110GLOH    O1 9708   4.012   1.031   1.462
  110GLOH    C1 9709   3.917   1.127   1.512
  110GLOH   H02 9710   3.892   1.198   1.434
  110GLOH   H08 9711   3.962   1.185   1.593
  110GLOH    C2 9712   3.784   1.067   1.565
  110GLOH   H04 9713   3.722   1.151   1.601
  110GLOH    O2 9714   3.712   0.998   1.461
  110GLOH   H05 9715   3.619   0.978   1.493
  110GLOH    C3 9716   3.809   0.973   1.683
  110GLOH   H06 9717   3.875   0.893   1.649
  110GLOH   H07 9718   3.715   0.926   1.710
  110GLOH    O3 9719   3.866   1.040   1.797
  110GLOH   H01 9720   3.801   1.108   1.830
  111GLOH   H03 9721   4.336   1.118   0.706
  111GLOH    O1 9722   4.358   1.090   0.614
  111GLOH    C1 9723   4.436   1.190   0.548
  111GLOH   H02 9724   4.461   1.158   0.447
  111GLOH   H08 9725   4.531   1.204   0.601
  111GLOH    C2 9726   4.366   1.327   0.539
  111GLOH   H04 9727   4.360   1.368   0.641
  111GLOH    O2 9728   4.442   1.418   0.458
  111GLOH   H05 9729   4.394   1.506   0.458
  111GLOH    C3 9730   4.222   1.314   0.486
  111GLOH   H06 9731   4.224   1.247   0.399
  111GLOH   H07 9732   4.188   1.411   0.449
  111GLOH    O3 9733   4.131   1.264   0.585
  111GLOH   H01 9734   4.129   1.328   0.662
  112GLOH   H03 9735   3.250   1.932   0.936
  112GLOH    O1 9736   3.208   1.975   0.857
  112GLOH    C1 9737   3.202   2.116   0.879
  112GLOH   H02 9738   3.194   2.138   0.985
  112GLOH   H08 9739   3.111   2.155   0.833
  112GLOH    C2 9740   3.320   2.196   0.820
  112GLOH   H04 9741   3.298   2.209   0.713
  112GLOH    O2 9742   3.324   2.328   0.880
  112GLOH   H05 9743   3.324   2.320   0.979
  112GLOH    C3 9744   3.455   2.122   0.828
  112GLOH   H06 9745   3.530   2.185   0.781
  112GLOH   H07 9746   3.447   2.033   0.765
  112GLOH    O3 9747   3.498   2.084   0.960
  112GLOH   H01 9748   3.588   2.043   0.952
  113GLOH   H03 9749   3.739   3.176   2.068
  113GLOH    O1 9750   3.682   3.173   1.986
  113GLOH    C1 9751   3.581   3.071   2.006
  113GLOH   H02 9752   3.511   3.070   1.923
  113GLOH   H08 9753   3.523   3.092   2.096
  113GLOH    C2 9754   3.642   2.930   2.020
  113GLOH   H04 9755   3.726   2.936   2.091
  113GLOH    O2 9756   3.546   2.836   2.071
  113GLOH   H05 9757   3.595   2.765   2.121
  113GLOH    C3 9758   3.700   2.881   1.885
  113GLOH   H06 9759   3.746   2.784   1.903
  113GLOH   H07 9760   3.780   2.949   1.856
  113GLOH    O3 9761   3.603   2.871   1.780
  113GLOH   H01 9762   3.586   2.774   1.764
  114GLOH   H03 9763   2.765   9.852   2.371
  114GLOH    O1 9764   2.711   9.927   2.407
  114GLOH    C1 9765   2.803   0.026   2.456
  114GLOH   H02 9766   2.834   0.002   2.558
  114GLOH   H08 9767   2.753   0.123   2.460
  114GLOH    C2 9768   2.928   0.038   2.367
  114GLOH   H04 9769   2.896   0.067   2.266
  114GLOH    O2 9770   3.018   0.139   2.418
  114GLOH   H05 9771   2.967   0.218   2.447
  114GLOH    C3 9772   2.998   9.901   2.359
  114GLOH   H06 9773   3.034   9.875   2.458
  114GLOH   H07 9774   3.087   9.912   2.296
  114GLOH    O3 9775   2.911   9.798   2.307
  114GLOH   H01 9776   2.957   9.710   2.306
  115GLOH   H03 9777   4.901   3.668   1.856
  115GLOH    O1 9778   4.861   3.744   1.807
  115GLOH    C1 9779   4.893   3.725   1.668
  115GLOH   H02 9780   4.980   3.785   1.640
  115GLOH   H08 9781   4.811   3.759   1.605
  115GLOH    C2 9782   4.922   3.577   1.634
  115GLOH   H04 9783   4.829   3.520   1.645
  115GLOH    O2 9784   4.967   3.564   1.497
  115GLOH   H05 9785   4.973   3.466   1.475
  115GLOH    C3 9786   5.024   3.519   1.734
  115GLOH   H06 9787   5.117   3.575   1.725
  115GLOH   H07 9788   5.046   3.416   1.706
  115GLOH    O3 9789   4.974   3.524   1.870
  115GLOH   H01 9790   5.050   3.524   1.933
  116GLOH   H03 9791   3.727   1.732   1.238
  116GLOH    O1 9792   3.681   1.654   1.279
  116GLOH    C1 9793   3.782   1.574   1.342
  116GLOH   H02 9794   3.838   1.634   1.414
  116GLOH   H08 9795   3.855   1.542   1.267
  116GLOH    C2 9796   3.728   1.450   1.415
  116GLOH   H04 9797   3.814   1.402   1.465
  116GLOH    O2 9798   3.633   1.487   1.518
  116GLOH   H05 9799   3.557   1.422   1.521
  116GLOH    C3 9800   3.670   1.347   1.317
  116GLOH   H06 9801   3.590   1.395   1.260
  116GLOH   H07 9802   3.623   1.268   1.375
  116GLOH    O3 9803   3.766   1.288   1.227
  116GLOH   H01 9804   3.858   1.315   1.250
  117GLOH   H03 9805   2.052   1.977   0.850
  117GLOH    O1 9806   2.063   1.983   0.949
  117GLOH    C1 9807   2.097   1.852   0.996
  117GLOH   H02 9808   2.188   1.818   0.946
  117GLOH   H08 9809   2.018   1.781   0.970
  117GLOH    C2 9810   2.120   1.844   1.148
  117GLOH   H04 9811   2.030   1.884   1.198
  117GLOH    O2 9812   2.138   1.706   1.188
  117GLOH   H05 9813   2.187   1.655   1.118
  117GLOH    C3 9814   2.241   1.931   1.189
  117GLOH   H06 9815   2.225   2.032   1.151
  117GLOH   H07 9816   2.329   1.892   1.140
  117GLOH    O3 9817   2.263   1.936   1.332
  117GLOH   H01 9818   2.290   1.844   1.361
  118GLOH   H03 9819   4.186   0.572   0.818
  118GLOH    O1 9820   4.164   0.650   0.761
  118GLOH    C1 9821   4.181   0.614   0.622
  118GLOH   H02 9822   4.129   0.521   0.600
  118GLOH   H08 9823   4.286   0.597   0.600
  118GLOH    C2 9824   4.129   0.723   0.525
  118GLOH   H04 9825   4.157   0.694   0.423
  118GLOH    O2 9826   3.986   0.736   0.534
  118GLOH   H05 9827   3.947   0.646   0.512
  118GLOH    C3 9828   4.200   0.856   0.558
  118GLOH   H06 9829   4.307   0.836   0.566
  118GLOH   H07 9830   4.168   0.888   0.657
  118GLOH    O3 9831   4.177   0.961   0.462
  118GLOH   H01 9832   4.227   1.038   0.500
  119GLOH   H03 9833   4.097   1.730   0.728
  119GLOH    O1 9834   4.191   1.700   0.724
  119GLOH    C1 9835   4.279   1.812   0.750
  119GLOH   H02 9836   4.229   1.887   0.811
  119GLOH   H08 9837   4.305   1.862   0.657
  119GLOH    C2 9838   4.411   1.774   0.821
  119GLOH   H04 9839   4.475   1.863   0.822
  119GLOH    O2 9840   4.388   1.732   0.957
  119GLOH   H05 9841   4.474   1.701   0.997
  119GLOH    C3 9842   4.486   1.664   0.744
  119GLOH   H06 9843   4.422   1.575   0.740
  119GLOH   H07 9844   4.575   1.635   0.801
  119GLOH    O3 9845   4.524   1.704   0.611
  119GLOH   H01 9846   4.445   1.692   0.553
  120GLOH   H03 9847   3.157   3.854   1.184
  120GLOH    O1 9848   3.156   3.862   1.084
  120GLOH    C1 9849   3.128   3.998   1.047
  120GLOH   H02 9850   3.179   4.067   1.114
  120GLOH   H08 9851   3.021   4.019   1.057
  120GLOH    C2 9852   3.169   4.033   0.902
  120GLOH   H04 9853   3.133   4.135   0.883
  120GLOH    O2 9854   3.313   4.034   0.882
  120GLOH   H05 9855   3.354   3.945   0.901
  120GLOH    C3 9856   3.099   3.941   0.800
  120GLOH   H06 9857   3.112   3.837   0.831
  120GLOH   H07 9858   3.149   3.951   0.704
  120GLOH    O3 9859   2.960   3.971   0.787
  120GLOH   H01 9860   2.951   4.035   0.711
  121ACOH    H4 9861   2.183   9.970   1.186
  121ACOH    O2 9862   2.216   9.886   1.145
  121ACOH    C2 9863   2.295   9.921   1.042
  121ACOH    O1 9864   2.302   0.030   0.988
  121ACOH    C1 9865   2.363   9.803   0.984
  121ACOH    H1 9866   2.471   9.821   0.979
  121ACOH    H2 9867   2.326   9.784   0.884
  121ACOH    H3 9868   2.345   9.714   1.045
  122ACOH    H4 9869   3.352   8.936   0.359
  122ACOH    O2 9870   3.441   8.926   0.315
  122ACOH    C2 9871   3.514   8.844   0.391
  122ACOH    O1 9872   3.485   8.796   0.498
  122ACOH    C1 9873   3.645   8.817   0.326
  122ACOH    H1 9874   3.701   8.910   0.317
  122ACOH    H2 9875   3.627   8.777   0.226
  122ACOH    H3 9876   3.702   8.745   0.383
  123ACOH    H4 9877   5.024   3.105   1.706
  123ACOH    O2 9878   5.051   3.165   1.780
  123ACOH    C2 9879   5.023   3.101   1.895
  123ACOH    O1 9880   4.951   3.004   1.908
  123ACOH    C1 9881   5.075   3.176   2.012
  123ACOH    H1 9882   5.142   3.255   1.980
  123ACOH    H2 9883   5.129   3.108   2.077
  123ACOH    H3 9884   4.992   3.220   2.067
  124ACOH    H4 9885   5.869   0.433   1.754
  124ACOH    O2 9886   5.840   0.365   1.816
  124ACOH    C2 9887   5.924   0.372   1.921
  124ACOH    O1 9888   6.015   0.451   1.935
  124ACOH    C1 9889   5.890   0.272   2.025
  124ACOH    H1 9890   5.977   0.210   2.045
  124ACOH    H2 9891   5.809   0.208   1.992
  124ACOH    H3 9892   5.861   0.323   2.116
  125ACOH    H4 9893   4.276   2.391   2.721
  125ACOH    O2 9894   4.259   2.448   2.798
  125ACOH    C2 9895   4.316   2.389   0.035
  125ACOH    O1 9896   4.375   2.282   0.034
  125ACOH    C1 9897   4.294   2.466   0.159
  125ACOH    H1 9898   4.236   2.556   0.139
  125ACOH    H2 9899   4.390   2.496   0.201
  125ACOH    H3 9900   4.241   2.406   0.232
  126ACOH    H4 9901   3.861   8.888   1.003
  126ACOH    O2 9902   3.940   8.908   0.946
  126ACOH    C2 9903   3.901   8.982   0.841
  126ACOH    O1 9904   3.788   8.994   0.797
  126ACOH    C1 9905   4.020   9.030   0.766
  126ACOH    H1 9906   4.111   9.006   0.820
  126ACOH    H2 9907   4.014   9.138   0.755
  126ACOH    H3 9908   4.023   8.984   0.667
  127ACOH    H4 9909   4.867   4.372   0.517
  127ACOH    O2 9910   4.966   4.380   0.501
  127ACOH    C2 9911   5.026   4.311   0.600
  127ACOH    O1 9912   4.974   4.249   0.690
  127ACOH    C1 9913   5.173   4.321   0.584
  127ACOH    H1 9914   5.224   4.267   0.663
  127ACOH    H2 9915   5.203   4.425   0.586
  127ACOH    H3 9916   5.201   4.278   0.488
  128ACOH    H4 9917   4.219   3.108   0.666
  128ACOH    O2 9918   4.256   3.055   0.590
  128ACOH    C2 9919   4.166   2.959   0.561
  128ACOH    O1 9920   4.060   2.940   0.618
  128ACOH    C1 9921   4.208   2.879   0.444
  128ACOH    H1 9922   4.296   2.922   0.397
  128ACOH    H2 9923   4.128   2.873   0.371
  128ACOH    H3 9924   4.232   2.778   0.476
  129ACOH    H4 9925   4.640   1.792   1.583
  129ACOH    O2 9926   4.675   1.765   1.494
  129ACOH    C2 9927   4.790   1.833   1.474
  129ACOH    O1 9928   4.838   1.917   1.547
  129ACOH    C1 9929   4.851   1.800   1.343
  129ACOH    H1 9930   4.953   1.768   1.358
  129ACOH    H2 9931   4.850   1.888   1.279
  129ACOH    H3 9932   4.795   1.720   1.295
  130ACOH    H4 9933   4.482   3.939   0.246
  130ACOH    O2 9934   4.547   3.919   0.315
  130ACOH    C2 9935   4.630   4.024   0.324
  130ACOH    O1 9936   4.624   4.125   0.256
  130ACOH    C1 9937   4.730   4.009   0.433
  130ACOH    H1 9938   4.720   3.911   0.479
  130ACOH    H2 9939   4.715   4.085   0.508
  130ACOH    H3 9940   4.830   4.018   0.392
  131ACOH    H4 9941   4.077   3.178   0.132
  131ACOH    O2 9942   4.108   3.251   0.192
  131ACOH    C2 9943   4.038   3.250   0.307
  131ACOH    O1 9944   4.038   3.343   0.385
  131ACOH    C1 9945   3.945   3.135   0.324
  131ACOH    H1 9946   3.843   3.168   0.304
  131ACOH    H2 9947   3.950   3.100   0.427
  131ACOH    H3 9948   3.970   3.053   0.258
  132ACOH    H4 9949   3.645   4.431   1.857
  132ACOH    O2 9950   3.590   4.382   1.791
  132ACOH    C2 9951   3.531   4.281   1.857
  132ACOH    O1 9952   3.521   4.268   1.978
  132ACOH    C1 9953   3.467   4.189   1.760
  132ACOH    H1 9954   3.544   4.144   1.700
  132ACOH    H2 9955   3.400   4.245   1.696
  132ACOH    H3 9956   3.411   4.111   1.811
  133ACOH    H4 9957   2.842   9.462   2.169
  133ACOH    O2 9958   2.759   9.435   2.122
  133ACOH    C2 9959   2.767   9.301   2.105
  133ACOH    O1 9960   2.834   9.225   2.173
  133ACOH    C1 9961   2.664   9.254   2.010
  133ACOH    H1 9962   2.656   9.146   2.012
  133ACOH    H2 9963   2.692   9.285   1.909
  133ACOH    H3 9964   2.567   9.297   2.035
  134ACOH    H4 9965   4.543   2.312   0.575
  134ACOH    O2 9966   4.580   2.237   0.519
  134ACOH    C2 9967   4.533   2.123   0.574
  134ACOH    O1 9968   4.469   2.112   0.677
  134ACOH    C1 9969   4.584   2.004   0.502
  134ACOH    H1 9970   4.635   2.033   0.410
  134ACOH    H2 9971   4.501   1.939   0.478
  134ACOH    H3 9972   4.654   1.950   0.566
  135ACOH    H4 9973   3.414   8.733   2.823
  135ACOH    O2 9974   3.437   8.676   0.032
  135ACOH    C2 9975   3.332   8.679   0.116
  135ACOH    O1 9976   3.238   8.755   0.113
  135ACOH    C1 9977   3.349   8.579   0.224
  135ACOH    H1 9978   3.264   8.511   0.224
  135ACOH    H2 9979   3.353   8.629   0.321
  135ACOH    H3 9980   3.440   8.521   0.210
  136ACOH    H4 9981   5.063   3.762   2.193
  136ACOH    O2 9982   5.156   3.789   2.170
  136ACOH    C2 9983   5.214   3.687   2.104
  136ACOH    O1 9984   5.160   3.587   2.061
  136ACOH    C1 9985   5.357   3.718   2.080
  136ACOH    H1 9986   5.405   3.637   2.027
  136ACOH    H2 9987   5.407   3.735   2.175
  136ACOH    H3 9988   5.364   3.809   2.020
  137ACOH    H4 9989   3.381   8.632   1.960
  137ACOH    O2 9990   3.412   8.604   2.051
  137ACOH    C2 9991   3.302   8.599   2.127
  137ACOH    O1 9992   3.204   8.671   2.115
  137ACOH    C1 9993   3.330   8.528   2.254
  137ACOH    H1 9994   3.241   8.476   2.288
  137ACOH    H2 9995   3.361   8.600   2.330
  137ACOH    H3 9996   3.410   8.456   2.240
  138ACOH    H4 9997   2.150   0.579   0.593
  138ACOH    O2 9998   2.117   0.601   0.502
  138ACOH    C2 9999   2.149   0.728   0.475
  138ACOH    O110000   2.214   0.804   0.545
  138ACOH    C110001   2.096   0.769   0.343
  138ACOH    H110002   1.988   0.758   0.343
  138ACOH    H210003   2.138   0.705   0.266
  138ACOH    H310004   2.121   0.872   0.321
  139ACOH    H410005   2.236   2.830   0.832
  139ACOH    O210006   2.170   2.899   0.859
  139ACOH    C210007   2.103   2.849   0.965
  139ACOH    O110008   2.099   2.733   1.001
  139ACOH    C110009   2.018   2.955   1.024
  139ACOH    H110010   1.954   2.914   1.102
  139ACOH    H210011   1.955   2.999   0.947
  139ACOH    H310012   2.081   3.032   1.066
  140ACOH    H410013   4.160   4.675   0.786
  140ACOH    O210014   4.099   4.725   0.726
  140ACOH    C210015   4.132   4.692   0.600
  140ACOH    O110016   4.219   4.614   0.565
  140ACOH    C110017   4.041   4.757   0.502
  140ACOH    H110018   4.051   4.865   0.508
  140ACOH    H210019   3.939   4.729   0.525
  140ACOH    H310020   4.065   4.725   0.400
  141ACOH    H410021   4.566   4.394   1.057
  141ACOH    O210022   4.597   4.433   1.143
  141ACOH    C210023   4.548   4.558   1.151
  141ACOH    O110024   4.461   4.606   1.080
  141ACOH    C110025   4.613   4.634   1.260
  141ACOH    H110026   4.537   4.681   1.322
  141ACOH    H210027   4.677   4.710   1.217
  141ACOH    H310028   4.673   4.568   1.322
  142ACOH    H410029   3.773   4.414   1.119
  142ACOH    O210030   3.846   4.467   1.076
  142ACOH    C210031   3.797   4.592   1.064
  142ACOH    O110032   3.680   4.624   1.063
  142ACOH    C110033   3.905   4.686   1.024
  142ACOH    H110034   3.950   4.654   0.931
  142ACOH    H210035   3.982   4.688   1.101
  142ACOH    H310036   3.866   4.787   1.011
  143ACOH    H410037   3.764   0.448   0.676
  143ACOH    O210038   3.713   0.403   0.603
  143ACOH    C210039   3.778   0.429   0.488
  143ACOH    O110040   3.883   0.489   0.475
  143ACOH    C110041   3.704   0.372   0.373
  143ACOH    H110042   3.603   0.413   0.372
  143ACOH    H210043   3.698   0.264   0.384
  143ACOH    H310044   3.753   0.397   0.280
  144ACOH    H410045   4.818   2.910   1.450
  144ACOH    O210046   4.899   2.894   1.394
  144ACOH    C210047   5.005   2.937   1.465
  144ACOH    O110048   5.002   2.999   1.570
  144ACOH    C110049   5.131   2.913   1.392
  144ACOH    H110050   5.174   3.008   1.361
  144ACOH    H210051   5.113   2.852   1.304
  144ACOH    H310052   5.202   2.861   1.456
  145ACOH    H410053   4.669   3.591   0.625
  145ACOH    O210054   4.702   3.510   0.577
  145ACOH    C210055   4.745   3.549   0.456
  145ACOH    O110056   4.732   3.659   0.405
  145ACOH    C110057   4.812   3.438   0.385
  145ACOH    H110058   4.895   3.401   0.444
  145ACOH    H210059   4.849   3.471   0.288
  145ACOH    H310060   4.740   3.357   0.370
  146ACOH    H410061   2.855   9.292   1.247
  146ACOH    O210062   2.835   9.198   1.272
  146ACOH    C210063   2.703   9.192   1.301
  146ACOH    O110064   2.621   9.278   1.276
  146ACOH    C110065   2.667   9.057   1.348
  146ACOH    H110066   2.702   8.982   1.278
  146ACOH    H210067   2.559   9.048   1.360
  146ACOH    H310068   2.714   9.039   1.445
  147ACOH    H410069   4.701   1.885   1.051
  147ACOH    O210070   4.779   1.831   1.019
  147ACOH    C210071   4.743   1.702   1.022
  147ACOH    O110072   4.636   1.656   1.058
  147ACOH    C110073   4.853   1.614   0.975
  147ACOH    H110074   4.940   1.674   0.946
  147ACOH    H210075   4.820   1.556   0.889
  147ACOH    H310076   4.882   1.546   1.054
  148ACOH    H410077   1.873   1.813   1.987
  148ACOH    O210078   1.841   1.776   2.074
  148ACOH    C210079   1.894   1.653   2.085
  148ACOH    O110080   1.958   1.592   2.002
  148ACOH    C110081   1.855   1.592   2.215
  148ACOH    H110082   1.896   1.491   2.223
  148ACOH    H210083   1.747   1.587   2.222
  148ACOH    H310084   1.894   1.653   2.296
  149ACOH    H410085   4.301   4.541   1.360
  149ACOH    O210086   4.306   4.637   1.386
  149ACOH    C210087   4.180   4.685   1.390
  149ACOH    O110088   4.079   4.630   1.352
  149ACOH    C110089   4.176   4.823   1.443
  149ACOH    H110090   4.276   4.858   1.467
  149ACOH    H210091   4.115   4.826   1.533
  149ACOH    H310092   4.132   4.889   1.369
  150ACOH    H410093   2.287   2.891   1.656
  150ACOH    O210094   2.244   2.812   1.698
  150ACOH    C210095   2.175   2.748   1.602
  150ACOH    O110096   2.178   2.769   1.482
  150ACOH    C110097   2.096   2.637   1.661
  150ACOH    H110098   2.022   2.678   1.730
  150ACOH    H210099   2.162   2.571   1.717
  150ACOH    H310100   2.045   2.579   1.584
  151ACOH    H410101   3.084   8.726   0.776
  151ACOH    O210102   3.152   8.665   0.736
  151ACOH    C210103   3.191   8.581   0.833
  151ACOH    O110104   3.143   8.570   0.944
  151ACOH    C110105   3.298   8.489   0.786
  151ACOH    H110106   3.383   8.496   0.854
  151ACOH    H210107   3.331   8.517   0.686
  151ACOH    H310108   3.261   8.387   0.785
  152SOL     OW10109   3.248   0.854   1.681
  152SOL    HW110110   3.149   0.856   1.690
  152SOL    HW210111   3.278   0.760   1.666
  153SOL     OW10112   3.964   1.785   0.459
  153SOL    HW110113   4.021   1.725   0.402
  153SOL    HW210114   3.887   1.818   0.404
  154SOL     OW10115   3.491   3.819   0.427
  154SOL    HW110116   3.477   3.733   0.476
  154SOL    HW210117   3.403   3.858   0.402
  155SOL     OW10118   3.636   9.490   0.566
  155SOL    HW110119   3.644   9.507   0.468
  155SOL    HW210120   3.540   9.498   0.593
  156SOL     OW10121   2.290   2.430   0.601
  156SOL    HW110122   2.301   2.464   0.694
  156SOL    HW210123   2.243   2.499   0.546
  157SOL     OW10124   2.187   0.352   1.320
  157SOL    HW110125   2.172   0.416   1.245
  157SOL    HW210126   2.243   0.396   1.391
  158SOL     OW10127   3.259   3.223   0.482
  158SOL    HW110128   3.353   3.191   0.487
  158SOL    HW210129   3.255   3.320   0.507
  159SOL     OW10130   3.669   4.307   1.189
  159SOL    HW110131   3.661   4.293   1.287
  159SOL    HW210132   3.586   4.274   1.143
  160SOL     OW10133   3.083   8.603   1.688
  160SOL    HW110134   3.013   8.541   1.724
  160SOL    HW210135   3.043   8.694   1.676
  161SOL     OW10136   1.927   1.868   1.846
  161SOL    HW110137   1.980   1.950   1.820
  161SOL    HW210138   1.933   1.801   1.772
  162SOL     OW10139   3.064   3.117   0.637
  162SOL    HW110140   3.135   3.151   0.576
  162SOL    HW210141   3.068   3.167   0.724
  163SOL     OW10142   3.359   2.666   1.174
  163SOL    HW110143   3.278   2.620   1.211
  163SOL    HW210144   3.332   2.748   1.125
  164SOL     OW10145   2.366   0.523   1.476
  164SOL    HW110146   2.419   0.445   1.509
  164SOL    HW210147   2.388   0.604   1.531
  165SOL     OW10148   2.613   0.318   0.827
  165SOL    HW110149   2.586   0.225   0.802
  165SOL    HW210150   2.630   0.371   0.744
  166SOL     OW10151   3.200   3.218   2.219
  166SOL    HW110152   3.219   3.142   2.158
  166SOL    HW210153   3.105   3.248   2.208
  167SOL     OW10154   2.308   0.677   1.245
  167SOL    HW110155   2.258   0.763   1.258
  167SOL    HW210156   2.312   0.627   1.331
  168SOL     OW10157   4.270   2.050   2.159
  168SOL    HW110158   4.243   1.954   2.149
  168SOL    HW210159   4.325   2.077   2.080
  169SOL     OW10160   2.348   1.323   0.953
  169SOL    HW110161   2.281   1.249   0.949
  169SOL    HW210162   2.440   1.285   0.949
  170SOL     OW10163   3.469   3.407   1.371
  170SOL    HW110164   3.459   3.395   1.469
  170SOL    HW210165   3.412   3.341   1.322
  171SOL     OW10166   3.382   0.318   0.603
  171SOL    HW110167   3.407   0.409   0.569
  171SOL    HW210168   3.411   0.249   0.536
  172SOL     OW10169   2.762   1.652   1.601
  172SOL    HW110170   2.817   1.729   1.636
  172SOL    HW210171   2.812   1.567   1.616
  173SOL     OW10172   2.745   0.532   1.588
  173SOL    HW110173   2.678   0.458   1.591
  173SOL    HW210174   2.837   0.494   1.602
  174SOL     OW10175   2.331   2.510   0.859
  174SOL    HW110176   2.387   2.455   0.920
  174SOL    HW210177   2.360   2.606   0.865
  175SOL     OW10178   4.009   2.345   1.331
  175SOL    HW110179   4.006   2.433   1.380
  175SOL    HW210180   3.916   2.310   1.319
  176SOL     OW10181   3.739   2.498   1.013
  176SOL    HW110182   3.676   2.425   1.040
  176SOL    HW210183   3.823   2.458   0.976
  177SOL     OW10184   3.764   1.553   2.058
  177SOL    HW110185   3.750   1.468   2.108
  177SOL    HW210186   3.802   1.622   2.120
  178SOL     OW10187   2.597   0.502   0.288
  178SOL    HW110188   2.671   0.545   0.235
  178SOL    HW210189   2.570   0.563   0.362
  179SOL     OW10190   2.514   1.709   1.007
  179SOL    HW110191   2.436   1.657   1.040
  179SOL    HW210192   2.484   1.801   0.982
  180SOL     OW10193   3.566   0.202   2.105
  180SOL    HW110194   3.549   0.267   2.179
  180SOL    HW210195   3.563   0.251   2.017
  181SOL     OW10196   3.129   8.918   1.451
  181SOL    HW110197   3.090   8.861   1.378
  181SOL    HW210198   3.085   8.895   1.538
  182SOL     OW10199   2.993   3.880   1.681
  182SOL    HW110200   2.971   3.811   1.751
  182SOL    HW210201   2.910   3.905   1.632
  183SOL     OW10202   2.659   4.055   0.373
  183SOL    HW110203   2.655   4.140   0.427
  183SOL    HW210204   2.753   4.022   0.370
  184SOL     OW10205   4.114   2.264   2.070
  184SOL    HW110206   4.177   2.197   2.110
  184SOL    HW210207   4.042   2.216   2.021
  185SOL     OW10208   3.179   0.800   0.728
  185SOL    HW110209   3.258   0.740   0.736
  185SOL    HW210210   3.210   0.893   0.706
  186SOL     OW10211   3.555   3.386   0.957
  186SOL    HW110212   3.625   3.341   1.012
  186SOL    HW210213   3.478   3.412   1.015
  187SOL     OW10214   3.155   0.266   0.755
  187SOL    HW110215   3.238   0.286   0.703
  187SOL    HW210216   3.086   0.229   0.695
  188SOL     OW10217   3.559   4.303   0.827
  188SOL    HW110218   3.556   4.399   0.854
  188SOL    HW210219   3.545   4.246   0.908
  189SOL     OW10220   2.331   0.648   0.959
  189SOL    HW110221   2.303   0.681   1.049
  189SOL    HW210222   2.385   0.565   0.969
  190SOL     OW10223   2.844   0.092   1.088
  190SOL    HW110224   2.822   0.190   1.090
  190SOL    HW210225   2.796   0.049   1.011
  191SOL     OW10226   2.823   3.751   0.820
  191SOL    HW110227   2.873   3.836   0.804
  191SOL    HW210228   2.725   3.770   0.828
  192SOL     OW10229   3.356   4.032   2.065
  192SOL    HW110230   3.400   4.122   2.059
  192SOL    HW210231   3.407   3.967   2.009
  193SOL     OW10232   3.195   2.573   1.891
  193SOL    HW110233   3.230   2.660   1.926
  193SOL    HW210234   3.099   2.563   1.915
  194SOL     OW10235   3.176   2.852   0.489
  194SOL    HW110236   3.189   2.951   0.502
  194SOL    HW210237   3.169   2.808   0.579
  195SOL     OW10238   2.675   1.565   0.184
  195SOL    HW110239   2.628   1.633   0.128
  195SOL    HW210240   2.627   1.553   0.271
  196SOL     OW10241   3.131   9.136   0.237
  196SOL    HW110242   3.119   9.096   0.146
  196SOL    HW210243   3.161   9.066   0.301
  197SOL     OW10244   3.850   4.233   1.895
  197SOL    HW110245   3.828   4.327   1.921
  197SOL    HW210246   3.824   4.171   1.969
  198SOL     OW10247   2.901   2.212   0.264
  198SOL    HW110248   2.931   2.124   0.226
  198SOL    HW210249   2.802   2.219   0.259
  199SOL     OW10250   3.272   8.560   1.488
  199SOL    HW110251   3.236   8.552   1.396
  199SOL    HW210252   3.196   8.563   1.554
  200SOL     OW10253   3.077   0.767   0.977
  200SOL    HW110254   3.137   0.721   1.043
  200SOL    HW210255   3.128   0.783   0.893
  201SOL     OW10256   2.687   2.301   1.829
  201SOL    HW110257   2.679   2.387   1.780
  201SOL    HW210258   2.599   2.254   1.830
  202SOL     OW10259   3.678   2.741   0.909
  202SOL    HW110260   3.756   2.792   0.873
  202SOL    HW210261   3.710   2.654   0.946
  203SOL     OW10262   3.216   0.201   2.250
  203SOL    HW110263   3.146   0.175   2.316
  203SOL    HW210264   3.285   0.129   2.244
  204SOL     OW10265   2.894   9.809   1.144
  204SOL    HW110266   2.888   9.906   1.123
  204SOL    HW210267   2.990   9.780   1.142
  205SOL     OW10268   4.764   2.554   0.195
  205SOL    HW110269   4.770   2.465   0.241
  205SOL    HW210270   4.837   2.562   0.127
  206SOL     OW10271   3.174   3.494   0.540
  206SOL    HW110272   3.102   3.455   0.482
  206SOL    HW210273   3.137   3.512   0.631
  207SOL     OW10274   3.929   1.410   0.989
  207SOL    HW110275   3.957   1.377   1.079
  207SOL    HW210276   3.839   1.371   0.965
  208SOL     OW10277   2.070   0.601   2.108
  208SOL    HW110278   2.052   0.696   2.135
  208SOL    HW210279   2.165   0.579   2.128
  209SOL     OW10280   3.624   9.213   0.673
  209SOL    HW110281   3.689   9.143   0.703
  209SOL    HW210282   3.674   9.290   0.634
  210SOL     OW10283   2.254   1.862   0.395
  210SOL    HW110284   2.168   1.816   0.415
  210SOL    HW210285   2.316   1.851   0.473
  211SOL     OW10286   4.051   3.539   0.608
  211SOL    HW110287   4.110   3.615   0.581
  211SOL    HW210288   4.043   3.475   0.531
  212SOL     OW10289   3.475   8.711   1.582
  212SOL    HW110290   3.412   8.648   1.537
  212SOL    HW210291   3.446   8.805   1.567
  213SOL     OW10292   2.555   3.337   1.316
  213SOL    HW110293   2.568   3.346   1.217
  213SOL    HW210294   2.623   3.392   1.364
  214SOL     OW10295   1.989   0.969   1.443
  214SOL    HW110296   2.005   1.050   1.499
  214SOL    HW210297   1.893   0.963   1.419
  215SOL     OW10298   2.746   1.482   2.108
  215SOL    HW110299   2.734   1.578   2.084
  215SOL    HW210300   2.841   1.467   2.135
  216SOL     OW10301   2.774   1.611   1.013
  216SOL    HW110302   2.778   1.560   0.927
  216SOL    HW210303   2.681   1.645   1.027
  217SOL     OW10304   2.546   9.594   2.197
  217SOL    HW110305   2.506   9.543   2.273
  217SOL    HW210306   2.622   9.541   2.158
  218SOL     OW10307   2.765   3.904   1.524
  218SOL    HW110308   2.804   3.842   1.455
  218SOL    HW210309   2.711   3.975   1.478
  219SOL     OW10310   3.588   0.572   1.778
  219SOL    HW110311   3.611   0.631   1.856
  219SOL    HW210312   3.576   0.478   1.810
  220SOL     OW10313   2.471   3.766   0.581
  220SOL    HW110314   2.462   3.666   0.586
  220SOL    HW210315   2.480   3.793   0.485
  221SOL     OW10316   3.383   2.482   0.666
  221SOL    HW110317   3.409   2.576   0.690
  221SOL    HW210318   3.366   2.429   0.749
  222SOL     OW10319   3.326   1.931   0.314
  222SOL    HW110320   3.378   2.016   0.323
  222SOL    HW210321   3.232   1.946   0.347
  223SOL     OW10322   2.754   3.473   1.471
  223SOL    HW110323   2.725   3.543   1.536
  223SOL    HW210324   2.782   3.391   1.520
  224SOL     OW10325   4.007   1.816   1.942
  224SOL    HW110326   4.029   1.821   1.845
  224SOL    HW210327   3.915   1.851   1.957
  225SOL     OW10328   3.676   0.735   0.529
  225SOL    HW110329   3.759   0.757   0.477
  225SOL    HW210330   3.686   0.767   0.623
  226SOL     OW10331   3.444   3.573   0.542
  226SOL    HW110332   3.349   3.544   0.554
  226SOL    HW210333   3.488   3.581   0.632
  227SOL     OW10334   2.153   1.801   1.595
  227SOL    HW110335   2.246   1.774   1.568
  227SOL    HW210336   2.087   1.755   1.535
  228SOL     OW10337   4.064   2.465   1.893
  228SOL    HW110338   4.076   2.427   1.801
  228SOL    HW210339   4.098   2.399   1.960
  229SOL     OW10340   4.809   2.994   1.157
  229SOL    HW110341   4.764   3.079   1.185
  229SOL    HW210342   4.854   2.953   1.236
  230SOL     OW10343   2.345   3.218   0.981
  230SOL    HW110344   2.424   3.272   1.008
  230SOL    HW210345   2.261   3.265   1.007
  231SOL     OW10346   2.562   1.487   1.680
  231SOL    HW110347   2.555   1.417   1.609
  231SOL    HW210348   2.631   1.555   1.653
  232SOL     OW10349   3.216   8.924   2.260
  232SOL    HW110350   3.200   8.839   2.211
  232SOL    HW210351   3.283   8.909   2.333
  233SOL     OW10352   2.914   3.653   1.832
  233SOL    HW110353   2.998   3.607   1.803
  233SOL    HW210354   2.896   3.633   1.928
  234SOL     OW10355   3.463   0.383   1.045
  234SOL    HW110356   3.522   0.454   1.005
  234SOL    HW210357   3.368   0.401   1.019
  235SOL     OW10358   4.259   3.968   0.275
  235SOL    HW110359   4.290   4.046   0.221
  235SOL    HW210360   4.159   3.964   0.274
  236SOL     OW10361   3.336   0.163   1.445
  236SOL    HW110362   3.360   0.079   1.493
  236SOL    HW210363   3.399   0.177   1.369
  237SOL     OW10364   3.563   1.633   1.883
  237SOL    HW110365   3.606   1.667   1.799
  237SOL    HW210366   3.633   1.603   1.947
  238SOL     OW10367   2.074   1.096   1.941
  238SOL    HW110368   2.116   1.011   1.975
  238SOL    HW210369   2.030   1.078   1.853
  239SOL     OW10370   4.346   3.642   2.214
  239SOL    HW110371   4.442   3.642   2.188
  239SOL    HW210372   4.335   3.599   2.304
  240SOL     OW10373   2.263   2.126   0.314
  240SOL    HW110374   2.238   2.158   0.406
  240SOL    HW210375   2.258   2.026   0.311
  241SOL     OW10376   2.283   1.051   1.679
  241SOL    HW110377   2.353   1.004   1.626
  241SOL    HW210378   2.326   1.098   1.756
  242SOL     OW10379   3.281   0.687   1.994
  242SOL    HW110380   3.270   0.786   1.981
  242SOL    HW210381   3.214   0.638   1.939
  243SOL     OW10382   3.172   3.445   1.505
  243SOL    HW110383   3.099   3.419   1.441
  243SOL    HW210384   3.131   3.481   1.589
  244SOL     OW10385   4.092   3.912   1.361
  244SOL    HW110386   4.013   3.871   1.316
  244SOL    HW210387   4.064   3.996   1.408
  245SOL     OW10388   3.418   9.367   0.275
  245SOL    HW110389   3.329   9.365   0.230
  245SOL    HW210390   3.416   9.308   0.355
  246SOL     OW10391   2.699   3.358   0.659
  246SOL    HW110392   2.680   3.284   0.594
  246SOL    HW210393   2.726   3.318   0.747
  247SOL     OW10394   4.112   1.620   0.293
  247SOL    HW110395   4.058   1.536   0.296
  247SOL    HW210396   4.123   1.651   0.199
  248SOL     OW10397   4.094   3.118   1.449
  248SOL    HW110398   4.010   3.153   1.491
  248SOL    HW210399   4.172   3.173   1.481
  249SOL     OW10400   2.928   2.382   1.932
  249SOL    HW110401   2.843   2.342   1.896
  249SOL    HW210402   2.915   2.405   2.028
  250SOL     OW10403   4.229   2.316   1.188
  250SOL    HW110404   4.148   2.318   1.246
  250SOL    HW210405   4.271   2.225   1.193
  251SOL     OW10406   2.586   1.834   0.356
  251SOL    HW110407   2.541   1.906   0.408
  251SOL    HW210408   2.682   1.829   0.382
  252SOL     OW10409   3.837   2.572   1.675
  252SOL    HW110410   3.879   2.633   1.742
  252SOL    HW210411   3.741   2.597   1.663
  253SOL     OW10412   2.501   3.192   1.779
  253SOL    HW110413   2.490   3.288   1.753
  253SOL    HW210414   2.505   3.185   1.879
  254SOL     OW10415   2.875   9.114   1.661
  254SOL    HW110416   2.938   9.146   1.590
  254SOL    HW210417   2.902   9.153   1.749
  255SOL     OW10418   4.599   3.808   0.953
  255SOL    HW110419   4.601   3.904   0.982
  255SOL    HW210420   4.597   3.748   1.033
  256SOL     OW10421   3.320   1.663   0.197
  256SOL    HW110422   3.314   1.755   0.235
  256SOL    HW210423   3.286   1.597   0.265
  257SOL     OW10424   3.902   1.216   0.476
  257SOL    HW110425   3.877   1.124   0.506
  257SOL    HW210426   3.992   1.240   0.512
  258SOL     OW10427   2.982   2.964   2.090
  258SOL    HW110428   2.966   3.030   2.163
  258SOL    HW210429   2.929   2.881   2.107
  259SOL     OW10430   2.047   2.071   1.414
  259SOL    HW110431   2.128   2.020   1.386
  259SOL    HW210432   2.054   2.165   1.382
  260SOL     OW10433   3.430   1.893   1.379
  260SOL    HW110434   3.390   1.826   1.316
  260SOL    HW210435   3.411   1.865   1.473
  261SOL     OW10436   2.379   0.150   0.562
  261SOL    HW110437   2.310   0.215   0.596
  261SOL    HW210438   2.421   0.186   0.479
  262SOL     OW10439   2.655   9.650   0.530
  262SOL    HW110440   2.673   9.556   0.559
  262SOL    HW210441   2.606   9.650   0.443
  263SOL     OW10442   2.430   1.950   0.910
  263SOL    HW110443   2.518   1.996   0.905
  263SOL    HW210444   2.357   2.018   0.900
  264SOL     OW10445   3.605   3.890   1.643
  264SOL    HW110446   3.613   3.804   1.592
  264SOL    HW210447   3.550   3.955   1.591
  265SOL     OW10448   3.823   2.480   2.040
  265SOL    HW110449   3.904   2.475   1.982
  265SOL    HW210450   3.821   2.401   2.102
  266SOL     OW10451   2.668   0.876   1.129
  266SOL    HW110452   2.634   0.784   1.152
  266SOL    HW210453   2.646   0.896   1.033
  267SOL     OW10454   4.312   3.405   1.795
  267SOL    HW110455   4.291   3.405   1.893
  267SOL    HW210456   4.298   3.497   1.758
  268SOL     OW10457   3.351   0.605   1.632
  268SOL    HW110458   3.438   0.602   1.683
  268SOL    HW210459   3.308   0.516   1.634
  269SOL     OW10460   2.436   2.078   1.489
  269SOL    HW110461   2.372   2.028   1.431
  269SOL    HW210462   2.417   2.177   1.481
  270SOL     OW10463   3.374   0.709   0.262
  270SOL    HW110464   3.448   0.750   0.208
  270SOL    HW210465   3.411   0.673   0.347
  271SOL     OW10466   3.527   0.145   0.773
  271SOL    HW110467   3.479   0.224   0.735
  271SOL    HW210468   3.471   0.103   0.844
  272SOL     OW10469   2.518   0.181   1.397
  272SOL    HW110470   2.444   0.116   1.412
  272SOL    HW210471   2.599   0.133   1.364
  273SOL     OW10472   3.712   1.227   1.889
  273SOL    HW110473   3.721   1.239   1.988
  273SOL    HW210474   3.746   1.308   1.842
  274SOL     OW10475   3.413   2.830   1.391
  274SOL    HW110476   3.401   2.767   1.314
  274SOL    HW210477   3.375   2.788   1.474
  275SOL     OW10478   2.434   0.780   0.736
  275SOL    HW110479   2.403   0.734   0.820
  275SOL    HW210480   2.354   0.804   0.680
  276SOL     OW10481   3.446   8.616   1.178
  276SOL    HW110482   3.441   8.680   1.100
  276SOL    HW210483   3.353   8.595   1.209
  277SOL     OW10484   3.115   2.591   1.277
  277SOL    HW110485   3.026   2.567   1.239
  277SOL    HW210486   3.102   2.644   1.361
  278SOL     OW10487   3.147   3.527   1.769
  278SOL    HW110488   3.169   3.459   1.839
  278SOL    HW210489   3.218   3.597   1.767
  279SOL     OW10490   2.168   0.642   1.842
  279SOL    HW110491   2.093   0.624   1.906
  279SOL    HW210492   2.137   0.705   1.771
  280SOL     OW10493   4.109   4.228   0.701
  280SOL    HW110494   4.142   4.135   0.715
  280SOL    HW210495   4.093   4.271   0.790
  281SOL     OW10496   2.960   9.977   0.736
  281SOL    HW110497   3.024   9.903   0.718
  281SOL    HW210498   2.972   0.049   0.668
  282SOL     OW10499   3.234   3.882   0.339
  282SOL    HW110500   3.231   3.853   0.244
  282SOL    HW210501   3.160   3.838   0.390
  283SOL     OW10502   2.466   0.217   1.845
  283SOL    HW110503   2.517   0.196   1.929
  283SOL    HW210504   2.397   0.287   1.864
  284SOL     OW10505   4.066   4.377   0.938
  284SOL    HW110506   4.130   4.451   0.918
  284SOL    HW210507   3.981   4.415   0.977
  285SOL     OW10508   3.674   9.914   1.619
  285SOL    HW110509   3.682   9.887   1.523
  285SOL    HW210510   3.754   9.881   1.670
  286SOL     OW10511   3.159   2.215   1.896
  286SOL    HW110512   3.146   2.139   1.959
  286SOL    HW210513   3.080   2.277   1.901
  287SOL     OW10514   4.013   2.722   2.128
  287SOL    HW110515   3.944   2.718   2.200
  287SOL    HW210516   3.969   2.713   2.039
  288SOL     OW10517   4.383   2.097   1.918
  288SOL    HW110518   4.362   2.013   1.868
  288SOL    HW210519   4.426   2.163   1.856
  289SOL     OW10520   3.096   9.638   1.498
  289SOL    HW110521   3.006   9.681   1.482
  289SOL    HW210522   3.106   9.617   1.595
  290SOL     OW10523   3.551   9.312   0.920
  290SOL    HW110524   3.518   9.406   0.915
  290SOL    HW210525   3.560   9.275   0.827
  291SOL     OW10526   4.726   2.614   1.685
  291SOL    HW110527   4.721   2.706   1.723
  291SOL    HW210528   4.701   2.616   1.589
  292SOL     OW10529   3.337   3.466   2.194
  292SOL    HW110530   3.434   3.484   2.209
  292SOL    HW210531   3.312   3.379   2.237
  293SOL     OW10532   2.478   2.957   0.470
  293SOL    HW110533   2.499   2.917   0.381
  293SOL    HW210534   2.521   3.047   0.477
  294SOL     OW10535   3.300   0.199   1.856
  294SOL    HW110536   3.300   0.099   1.857
  294SOL    HW210537   3.226   0.232   1.915
  295SOL     OW10538   2.999   3.076   1.424
  295SOL    HW110539   3.094   3.084   1.454
  295SOL    HW210540   2.956   2.998   1.470
  296SOL     OW10541   3.519   3.856   0.926
  296SOL    HW110542   3.601   3.908   0.900
  296SOL    HW210543   3.518   3.769   0.877
  297SOL     OW10544   3.376   2.691   0.384
  297SOL    HW110545   3.357   2.593   0.384
  297SOL    HW210546   3.295   2.741   0.414
  298SOL     OW10547   3.191   1.665   1.293
  298SOL    HW110548   3.274   1.645   1.240
  298SOL    HW210549   3.112   1.626   1.247
  299SOL     OW10550   4.302   1.643   0.488
  299SOL    HW110551   4.253   1.661   0.573
  299SOL    HW210552   4.237   1.642   0.412
  300SOL     OW10553   3.395   9.251   0.527
  300SOL    HW110554   3.380   9.347   0.550
  300SOL    HW210555   3.477   9.218   0.575
  301SOL     OW10556   2.410   1.831   0.618
  301SOL    HW110557   2.443   1.923   0.638
  301SOL    HW210558   2.464   1.764   0.668
  302SOL     OW10559   2.607   2.830   0.672
  302SOL    HW110560   2.682   2.888   0.706
  302SOL    HW210561   2.556   2.879   0.602
  303SOL     OW10562   4.055   1.992   0.614
  303SOL    HW110563   4.093   2.065   0.556
  303SOL    HW210564   4.017   1.920   0.557
  304SOL     OW10565   4.686   2.946   1.530
  304SOL    HW110566   4.695   2.918   1.625
  304SOL    HW210567   4.589   2.961   1.509
  305SOL     OW10568   4.352   1.574   2.051
  305SOL    HW110569   4.431   1.571   1.989
  305SOL    HW210570   4.330   1.482   2.081
  306SOL     OW10571   2.382   9.951   1.852
  306SOL    HW110572   2.416   9.915   1.938
  306SOL    HW210573   2.408   0.047   1.843
  307SOL     OW10574   3.651   1.771   0.768
  307SOL    HW110575   3.656   1.847   0.704
  307SOL    HW210576   3.562   1.726   0.758
  308SOL     OW10577   2.259   0.293   0.862
  308SOL    HW110578   2.245   0.201   0.900
  308SOL    HW210579   2.328   0.341   0.917
  309SOL     OW10580   3.509   3.354   1.876
  309SOL    HW110581   3.557   3.441   1.881
  309SOL    HW210582   3.567   3.282   1.913
  310SOL     OW10583   2.636   0.923   0.863
  310SOL    HW110584   2.562   0.881   0.810
  310SOL    HW210585   2.722   0.877   0.842
  311SOL     OW10586   2.546   0.344   1.608
  311SOL    HW110587   2.521   0.297   1.693
  311SOL    HW210588   2.541   0.280   1.532
  312SOL     OW10589   4.001   2.568   0.434
  312SOL    HW110590   3.963   2.477   0.412
  312SOL    HW210591   3.947   2.638   0.387
  313SOL     OW10592   2.691   2.614   0.523
  313SOL    HW110593   2.655   2.683   0.585
  313SOL    HW210594   2.726   2.658   0.440
  314SOL     OW10595   2.166   1.516   1.829
  314SOL    HW110596   2.088   1.546   1.883
  314SOL    HW210597   2.137   1.493   1.736
  315SOL     OW10598   2.111   0.837   1.661
  315SOL    HW110599   2.056   0.861   1.581
  315SOL    HW210600   2.175   0.911   1.681
  316SOL     OW10601   2.850   3.247   1.583
  316SOL    HW110602   2.800   3.178   1.635
  316SOL    HW210603   2.913   3.201   1.519
  317SOL     OW10604   2.396   2.477   1.250
  317SOL    HW110605   2.412   2.423   1.167
  317SOL    HW210606   2.307   2.522   1.244
  318SOL     OW10607   3.551   0.305   1.850
  318SOL    HW110608   3.603   0.266   1.774
  318SOL    HW210609   3.456   0.273   1.846
  319SOL     OW10610   2.340   3.187   1.384
  319SOL    HW110611   2.426   3.232   1.363
  319SOL    HW210612   2.264   3.246   1.357
  320SOL     OW10613   4.390   2.503   1.335
  320SOL    HW110614   4.338   2.433   1.286
  320SOL    HW210615   4.342   2.527   1.419
  321SOL     OW10616   3.466   0.947   1.530
  321SOL    HW110617   3.429   1.015   1.466
  321SOL    HW210618   3.394   0.917   1.592
  322SOL     OW10619   3.583   3.605   0.786
  322SOL    HW110620   3.574   3.527   0.848
  322SOL    HW210621   3.680   3.627   0.773
  323SOL     OW10622   2.914   3.740   1.080
  323SOL    HW110623   2.997   3.795   1.071
  323SOL    HW210624   2.866   3.736   0.992
  324SOL     OW10625   3.823   1.835   1.160
  324SOL    HW110626   3.774   1.902   1.103
  324SOL    HW210627   3.880   1.778   1.101
  325SOL     OW10628   2.967   4.119   0.574
  325SOL    HW110629   2.949   4.066   0.491
  325SOL    HW210630   3.037   4.188   0.554
  326SOL     OW10631   4.036   2.790   1.153
  326SOL    HW110632   4.129   2.820   1.132
  326SOL    HW210633   4.013   2.817   1.247
  327SOL     OW10634   2.924   3.557   2.092
  327SOL    HW110635   3.018   3.590   2.086
  327SOL    HW210636   2.924   3.462   2.121
  328SOL     OW10637   3.349   2.417   1.665
  328SOL    HW110638   3.298   2.408   1.750
  328SOL    HW210639   3.423   2.350   1.662
  329SOL     OW10640   2.528   2.103   0.591
  329SOL    HW110641   2.523   2.194   0.551
  329SOL    HW210642   2.619   2.087   0.628
  330SOL     OW10643   3.248   3.888   1.586
  330SOL    HW110644   3.296   3.817   1.637
  330SOL    HW210645   3.158   3.902   1.625
  331SOL     OW10646   3.382   8.965   1.551
  331SOL    HW110647   3.294   8.954   1.505
  331SOL    HW210648   3.417   9.057   1.534
  332SOL     OW10649   3.607   2.401   1.889
  332SOL    HW110650   3.681   2.431   1.950
  332SOL    HW210651   3.521   2.395   1.941
  333SOL     OW10652   3.016   2.916   0.278
  333SOL    HW110653   3.076   2.979   0.228
  333SOL    HW210654   3.068   2.872   0.352
  334SOL     OW10655   2.165   2.846   0.166
  334SOL    HW110656   2.172   2.922   0.231
  334SOL    HW210657   2.243   2.784   0.178
  335SOL     OW10658   2.088   2.394   0.901
  335SOL    HW110659   2.009   2.449   0.873
  335SOL    HW210660   2.171   2.448   0.892
  336SOL     OW10661   2.254   2.848   0.586
  336SOL    HW110662   2.241   2.758   0.545
  336SOL    HW210663   2.338   2.889   0.551
  337SOL     OW10664   3.504   1.523   0.512
  337SOL    HW110665   3.590   1.480   0.538
  337SOL    HW210666   3.473   1.487   0.424
  338SOL     OW10667   4.676   1.483   0.569
  338SOL    HW110668   4.651   1.578   0.589
  338SOL    HW210669   4.604   1.440   0.515
  339SOL     OW10670   2.171   2.309   1.595
  339SOL    HW110671   2.266   2.323   1.566
  339SOL    HW210672   2.111   2.317   1.515
  340SOL     OW10673   2.367   2.665   0.229
  340SOL    HW110674   2.442   2.731   0.232
  340SOL    HW210675   2.399   2.580   0.189
  341SOL     OW10676   3.443   0.598   0.515
  341SOL    HW110677   3.400   0.605   0.605
  341SOL    HW210678   3.533   0.643   0.518
  342SOL     OW10679   2.928   0.962   0.649
  342SOL    HW110680   2.985   0.918   0.579
  342SOL    HW210681   2.913   0.897   0.724
  343SOL     OW10682   3.863   2.299   1.697
  343SOL    HW110683   3.951   2.286   1.651
  343SOL    HW210684   3.839   2.396   1.696
  344SOL     OW10685   3.604   9.565   0.297
  344SOL    HW110686   3.657   9.572   0.213
  344SOL    HW210687   3.532   9.497   0.286
  345SOL     OW10688   3.248   3.341   1.947
  345SOL    HW110689   3.238   3.379   2.039
  345SOL    HW210690   3.344   3.343   1.921
  346SOL     OW10691   3.359   1.187   0.277
  346SOL    HW110692   3.297   1.226   0.345
  346SOL    HW210693   3.305   1.150   0.201
  347SOL     OW10694   2.494   9.835   2.081
  347SOL    HW110695   2.490   9.904   2.153
  347SOL    HW210696   2.504   9.744   2.123
  348SOL     OW10697   3.329   8.662   1.812
  348SOL    HW110698   3.395   8.668   1.737
  348SOL    HW210699   3.239   8.636   1.775
  349SOL     OW10700   3.297   9.778   1.380
  349SOL    HW110701   3.223   9.726   1.420
  349SOL    HW210702   3.336   9.840   1.448
  350SOL     OW10703   2.686   3.616   0.337
  350SOL    HW110704   2.626   3.695   0.323
  350SOL    HW210705   2.725   3.619   0.429
  351SOL     OW10706   3.365   4.129   0.357
  351SOL    HW110707   3.372   4.155   0.453
  351SOL    HW210708   3.312   4.045   0.349
  352SOL     OW10709   3.395   3.334   1.625
  352SOL    HW110710   3.313   3.388   1.606
  352SOL    HW210711   3.423   3.346   1.720
  353SOL     OW10712   3.640   2.479   1.426
  353SOL    HW110713   3.644   2.561   1.369
  353SOL    HW210714   3.696   2.407   1.385
  354SOL     OW10715   2.414   2.769   0.861
  354SOL    HW110716   2.485   2.784   0.793
  354SOL    HW210717   2.423   2.834   0.935
  355SOL     OW10718   4.187   3.671   1.447
  355SOL    HW110719   4.150   3.761   1.425
  355SOL    HW210720   4.148   3.602   1.386
  356SOL     OW10721   2.418   1.177   1.875
  356SOL    HW110722   2.503   1.229   1.881
  356SOL    HW210723   2.349   1.219   1.934
  357SOL     OW10724   2.567   9.640   0.269
  357SOL    HW110725   2.543   9.560   0.214
  357SOL    HW210726   2.654   9.679   0.236
  358SOL     OW10727   3.431   9.554   0.943
  358SOL    HW110728   3.433   9.589   1.036
  358SOL    HW210729   3.340   9.517   0.923
  359SOL     OW10730   3.304   2.714   1.622
  359SOL    HW110731   3.320   2.799   1.673
  359SOL    HW210732   3.312   2.636   1.683
  360SOL     OW10733   2.980   8.833   0.833
  360SOL    HW110734   2.926   8.798   0.909
  360SOL    HW210735   2.957   8.929   0.817
  361SOL     OW10736   2.207   1.643   0.721
  361SOL    HW110737   2.240   1.560   0.676
  361SOL    HW210738   2.258   1.722   0.687
  362SOL     OW10739   3.995   2.863   1.418
  362SOL    HW110740   4.039   2.951   1.432
  362SOL    HW210741   3.907   2.861   1.465
  363SOL     OW10742   2.986   8.776   1.259
  363SOL    HW110743   2.902   8.727   1.235
  363SOL    HW210744   2.988   8.863   1.210
  364SOL     OW10745   2.171   3.212   0.485
  364SOL    HW110746   2.207   3.191   0.576
  364SOL    HW210747   2.126   3.132   0.447
  365SOL     OW10748   2.982   9.017   1.139
  365SOL    HW110749   2.933   9.089   1.188
  365SOL    HW210750   3.077   9.044   1.128
  366SOL     OW10751   2.126   2.779   2.113
  366SOL    HW110752   2.197   2.797   2.181
  366SOL    HW210753   2.053   2.847   2.123
  367SOL     OW10754   2.515   3.835   0.315
  367SOL    HW110755   2.564   3.919   0.336
  367SOL    HW210756   2.455   3.849   0.236
  368SOL     OW10757   4.158   2.185   0.445
  368SOL    HW110758   4.236   2.162   0.387
  368SOL    HW210759   4.187   2.248   0.517
  369SOL     OW10760   3.261   0.442   0.276
  369SOL    HW110761   3.323   0.364   0.266
  369SOL    HW210762   3.310   0.527   0.258
  370SOL     OW10763   2.547   0.679   0.501
  370SOL    HW110764   2.536   0.751   0.433
  370SOL    HW210765   2.508   0.709   0.588
  371SOL     OW10766   2.892   3.804   2.225
  371SOL    HW110767   2.885   3.713   2.184
  371SOL    HW210768   2.982   3.842   2.205
  372SOL     OW10769   4.583   3.524   1.670
  372SOL    HW110770   4.566   3.426   1.679
  372SOL    HW210771   4.535   3.559   1.590
  373SOL     OW10772   4.078   2.533   1.066
  373SOL    HW110773   4.053   2.618   1.113
  373SOL    HW210774   4.123   2.471   1.131
  374SOL     OW10775   3.904   2.155   1.932
  374SOL    HW110776   3.858   2.065   1.932
  374SOL    HW210777   3.883   2.203   1.848
  375SOL     OW10778   3.507   3.475   0.286
  375SOL    HW110779   3.497   3.505   0.381
  375SOL    HW210780   3.420   3.487   0.238
  376SOL     OW10781   2.595   1.197   0.924
  376SOL    HW110782   2.647   1.230   1.003
  376SOL    HW210783   2.617   1.101   0.908
  377SOL     OW10784   2.628   2.263   0.266
  377SOL    HW110785   2.595   2.300   0.353
  377SOL    HW210786   2.556   2.205   0.226
  378SOL     OW10787   2.851   1.828   0.458
  378SOL    HW110788   2.876   1.788   0.546
  378SOL    HW210789   2.924   1.890   0.428
  379SOL     OW10790   2.724   0.016   1.328
  379SOL    HW110791   2.690   9.923   1.316
  379SOL    HW210792   2.773   0.045   1.246
  380SOL     OW10793   3.724   2.419   0.698
  380SOL    HW110794   3.803   2.417   0.759
  380SOL    HW210795   3.666   2.497   0.722
  381SOL     OW10796   3.877   4.658   1.564
  381SOL    HW110797   3.939   4.667   1.486
  381SOL    HW210798   3.827   4.571   1.556
  382SOL     OW10799   3.721   4.278   2.192
  382SOL    HW110800   3.640   4.279   2.132
  382SOL    HW210801   3.751   4.371   2.210
  383SOL     OW10802   2.305   3.421   0.383
  383SOL    HW110803   2.258   3.340   0.417
  383SOL    HW210804   2.239   3.483   0.340
  384SOL     OW10805   2.936   9.497   0.769
  384SOL    HW110806   2.865   9.567   0.780
  384SOL    HW210807   2.912   9.435   0.695
  385SOL     OW10808   4.706   2.341   1.659
  385SOL    HW110809   4.722   2.434   1.692
  385SOL    HW210810   4.733   2.334   1.563
  386SOL     OW10811   4.164   3.205   0.782
  386SOL    HW110812   4.203   3.297   0.784
  386SOL    HW210813   4.082   3.202   0.839
  387SOL     OW10814   3.921   1.724   0.721
  387SOL    HW110815   3.932   1.739   0.623
  387SOL    HW210816   3.824   1.729   0.745
  388SOL     OW10817   3.930   3.612   2.147
  388SOL    HW110818   3.947   3.616   2.049
  388SOL    HW210819   3.994   3.673   2.195
  389SOL     OW10820   2.979   9.298   0.955
  389SOL    HW110821   2.967   9.335   1.047
  389SOL    HW210822   2.961   9.369   0.887
  390SOL     OW10823   2.863   2.525   1.215
  390SOL    HW110824   2.843   2.524   1.117
  390SOL    HW210825   2.777   2.529   1.266
  391SOL     OW10826   3.910   3.209   0.935
  391SOL    HW110827   3.922   3.306   0.914
  391SOL    HW210828   3.853   3.199   1.016
  392SOL     OW10829   3.303   3.220   1.260
  392SOL    HW110830   3.242   3.183   1.190
  392SOL    HW210831   3.288   3.170   1.346
  393SOL     OW10832   2.639   3.179   0.459
  393SOL    HW110833   2.733   3.153   0.439
  393SOL    HW210834   2.608   3.246   0.391
  394SOL     OW10835   2.044   1.717   0.493
  394SOL    HW110836   2.027   1.648   0.422
  394SOL    HW210837   2.069   1.671   0.578
  395SOL     OW10838   3.269   3.670   0.934
  395SOL    HW110839   3.237   3.741   0.997
  395SOL    HW210840   3.313   3.597   0.987
  396SOL     OW10841   2.505   9.331   0.781
  396SOL    HW110842   2.408   9.312   0.774
  396SOL    HW210843   2.527   9.362   0.873
  397SOL     OW10844   3.536   1.795   0.430
  397SOL    HW110845   3.519   1.699   0.455
  397SOL    HW210846   3.452   1.834   0.391
  398SOL     OW10847   3.684   2.653   2.195
  398SOL    HW110848   3.735   2.592   2.135
  398SOL    HW210849   3.644   2.600   2.270
  399SOL     OW10850   3.440   1.647   1.165
  399SOL    HW110851   3.440   1.562   1.112
  399SOL    HW210852   3.525   1.653   1.218
  400SOL     OW10853   3.245   1.082   0.707
  400SOL    HW110854   3.222   1.129   0.622
  400SOL    HW210855   3.180   1.106   0.778
  401SOL     OW10856   2.888   3.225   1.889
  401SOL    HW110857   2.832   3.151   1.850
  401SOL    HW210858   2.920   3.285   1.816
  402SOL     OW10859   3.591   2.278   1.602
  402SOL    HW110860   3.603   2.357   1.541
  402SOL    HW210861   3.672   2.267   1.658
  403SOL     OW10862   3.761   1.856   0.293
  403SOL    HW110863   3.679   1.830   0.344
  403SOL    HW210864   3.736   1.879   0.199
  404SOL     OW10865   2.108   2.041   1.714
  404SOL    HW110866   2.116   1.961   1.655
  404SOL    HW210867   2.107   2.124   1.657
  405SOL     OW10868   3.753   4.501   1.956
  405SOL    HW110869   3.774   4.584   1.904
  405SOL    HW210870   3.759   4.521   2.054
  406SOL     OW10871   4.249   4.575   0.886
  406SOL    HW110872   4.306   4.523   0.821
  406SOL    HW210873   4.306   4.605   0.962
  407SOL     OW10874   3.251   0.351   1.636
  407SOL    HW110875   3.268   0.299   1.721
  407SOL    HW210876   3.286   0.299   1.559
  408SOL     OW10877   2.902   2.205   1.262
  408SOL    HW110878   2.910   2.126   1.324
  408SOL    HW210879   2.952   2.282   1.301
  409SOL     OW10880   2.771   3.216   0.900
  409SOL    HW110881   2.825   3.208   0.984
  409SOL    HW210882   2.779   3.131   0.847
  410SOL     OW10883   3.136   3.135   1.062
  410SOL    HW110884   3.135   3.193   0.981
  410SOL    HW210885   3.044   3.127   1.100
  411SOL     OW10886   4.360   4.057   0.524
  411SOL    HW110887   4.296   4.027   0.595
  411SOL    HW210888   4.331   4.020   0.436
  412SOL     OW10889   2.216   2.349   1.870
  412SOL    HW110890   2.194   2.271   1.929
  412SOL    HW210891   2.181   2.332   1.778
  413SOL     OW10892   4.389   3.426   1.008
  413SOL    HW110893   4.348   3.447   0.919
  413SOL    HW210894   4.407   3.328   1.014
  414SOL     OW10895   3.062   2.759   0.988
  414SOL    HW110896   3.072   2.660   0.992
  414SOL    HW210897   3.142   2.802   1.031
  415SOL     OW10898   3.071   3.559   0.786
  415SOL    HW110899   3.143   3.602   0.840
  415SOL    HW210900   2.984   3.605   0.803
  416SOL     OW10901   2.721   2.981   2.301
  416SOL    HW110902   2.757   2.898   2.259
  416SOL    HW210903   2.622   2.984   2.287
  417SOL     OW10904   3.210   2.136   1.488
  417SOL    HW110905   3.168   2.226   1.478
  417SOL    HW210906   3.243   2.105   1.399
  418SOL     OW10907   3.463   2.738   0.740
  418SOL    HW110908   3.532   2.728   0.813
  418SOL    HW210909   3.486   2.818   0.684
  419SOL     OW10910   3.430   1.320   1.527
  419SOL    HW110911   3.406   1.250   1.460
  419SOL    HW210912   3.354   1.332   1.591
  420SOL     OW10913   2.690   9.654   1.062
  420SOL    HW110914   2.692   9.653   0.962
  420SOL    HW210915   2.764   9.711   1.096
  421SOL     OW10916   3.173   9.129   0.624
  421SOL    HW110917   3.250   9.175   0.579
  421SOL    HW210918   3.197   9.109   0.719
  422SOL     OW10919   2.920   0.817   1.487
  422SOL    HW110920   2.864   0.734   1.486
  422SOL    HW210921   2.938   0.844   1.582
  423SOL     OW10922   4.076   4.061   2.091
  423SOL    HW110923   4.115   4.046   2.182
  423SOL    HW210924   4.137   4.023   2.021
  424SOL     OW10925   3.080   1.993   0.441
  424SOL    HW110926   3.136   1.945   0.509
  424SOL    HW210927   3.055   2.084   0.476
  425SOL     OW10928   2.809   2.482   0.219
  425SOL    HW110929   2.890   2.424   0.213
  425SOL    HW210930   2.728   2.424   0.225
  426SOL     OW10931   2.534   1.308   0.683
  426SOL    HW110932   2.617   1.312   0.627
  426SOL    HW210933   2.555   1.267   0.771
  427SOL     OW10934   4.040   0.878   2.108
  427SOL    HW110935   4.078   0.920   2.026
  427SOL    HW210936   4.001   0.788   2.084
  428SOL     OW10937   3.773   9.229   1.058
  428SOL    HW110938   3.738   9.163   1.124
  428SOL    HW210939   3.699   9.260   0.999
  429SOL     OW10940   2.799   2.782   0.962
  429SOL    HW110941   2.754   2.841   1.029
  429SOL    HW210942   2.897   2.778   0.981
  430SOL     OW10943   4.446   1.565   1.704
  430SOL    HW110944   4.503   1.643   1.732
  430SOL    HW210945   4.411   1.581   1.612
  431SOL     OW10946   2.929   2.478   1.660
  431SOL    HW110947   2.831   2.498   1.658
  431SOL    HW210948   2.954   2.441   1.750
  432SOL     OW10949   3.326   3.438   1.094
  432SOL    HW110950   3.235   3.478   1.102
  432SOL    HW210951   3.331   3.355   1.149
  433SOL     OW10952   3.358   0.708   1.374
  433SOL    HW110953   3.352   0.663   1.464
  433SOL    HW210954   3.429   0.779   1.377
  434SOL     OW10955   2.789   8.848   1.040
  434SOL    HW110956   2.720   8.886   0.979
  434SOL    HW210957   2.854   8.919   1.065
  435SOL     OW10958   2.706   3.664   1.655
  435SOL    HW110959   2.707   3.759   1.621
  435SOL    HW210960   2.774   3.655   1.728
  436SOL     OW10961   2.350   0.583   2.143
  436SOL    HW110962   2.354   0.660   2.207
  436SOL    HW210963   2.419   0.596   2.072
  437SOL     OW10964   3.453   4.024   1.450
  437SOL    HW110965   3.455   3.988   1.357
  437SOL    HW210966   3.371   3.991   1.497
  438SOL     OW10967   4.126   3.956   0.988
  438SOL    HW110968   4.052   3.890   0.999
  438SOL    HW210969   4.110   4.035   1.046
  439SOL     OW10970   3.726   1.967   0.939
  439SOL    HW110971   3.696   1.889   0.884
  439SOL    HW210972   3.820   1.991   0.914
  440SOL     OW10973   2.496   0.018   2.290
  440SOL    HW110974   2.420   0.031   2.354
  440SOL    HW210975   2.575   9.983   2.340
  441SOL     OW10976   2.881   1.886   2.093
  441SOL    HW110977   2.837   1.952   2.033
  441SOL    HW210978   2.825   1.804   2.101
  442SOL     OW10979   3.693   9.841   1.362
  442SOL    HW110980   3.742   9.757   1.339
  442SOL    HW210981   3.656   9.882   1.279
  443SOL     OW10982   3.452   1.411   1.032
  443SOL    HW110983   3.365   1.383   0.990
  443SOL    HW210984   3.527   1.360   0.990
  444SOL     OW10985   2.979   0.901   1.740
  444SOL    HW110986   3.018   0.992   1.753
  444SOL    HW210987   2.903   0.889   1.805
  445SOL     OW10988   2.054   1.179   1.600
  445SOL    HW110989   2.141   1.147   1.638
  445SOL    HW210990   2.055   1.278   1.591
  446SOL     OW10991   3.516   0.196   1.240
  446SOL    HW110992   3.550   0.112   1.197
  446SOL    HW210993   3.496   0.264   1.169
  447SOL     OW10994   2.502   2.214   2.138
  447SOL    HW110995   2.496   2.165   2.051
  447SOL    HW210996   2.583   2.183   2.189
  448SOL     OW10997   2.452   2.328   1.030
  448SOL    HW110998   2.546   2.295   1.038
  448SOL    HW210999   2.394   2.254   0.995
  449SOL     OW11000   3.137   3.817   1.342
  449SOL    HW111001   3.046   3.778   1.357
  449SOL    HW211002   3.175   3.849   1.429
  450SOL     OW11003   3.342   1.887   1.062
  450SOL    HW111004   3.414   1.952   1.038
  450SOL    HW211005   3.383   1.800   1.091
  451SOL     OW11006   3.363   9.511   0.602
  451SOL    HW111007   3.308   9.500   0.684
  451SOL    HW211008   3.310   9.557   0.532
  452SOL     OW11009   2.509   0.065   0.781
  452SOL    HW111010   2.465   0.086   0.694
  452SOL    HW211011   2.440   0.056   0.853
  453SOL     OW11012   4.412   4.441   0.712
  453SOL    HW111013   4.446   4.355   0.674
  453SOL    HW211014   4.383   4.501   0.638
  454SOL     OW11015   2.808   2.756   2.175
  454SOL    HW111016   2.858   2.700   2.242
  454SOL    HW211017   2.733   2.703   2.137
  455SOL     OW11018   3.807   4.035   2.100
  455SOL    HW111019   3.907   4.039   2.098
  455SOL    HW211020   3.772   4.112   2.153
  456SOL     OW11021   3.881   3.219   1.585
  456SOL    HW111022   3.896   3.242   1.682
  456SOL    HW211023   3.785   3.197   1.572
  457SOL     OW11024   4.436   2.643   1.100
  457SOL    HW111025   4.529   2.681   1.095
  457SOL    HW211026   4.424   2.595   1.187
  458SOL     OW11027   2.198   0.533   0.739
  458SOL    HW111028   2.205   0.438   0.767
  458SOL    HW211029   2.231   0.592   0.813
  459SOL     OW11030   4.714   2.883   1.790
  459SOL    HW111031   4.645   2.937   1.840
  459SOL    HW211032   4.804   2.903   1.827
  460SOL     OW11033   2.939   3.281   2.150
  460SOL    HW111034   2.919   3.257   2.055
  460SOL    HW211035   2.855   3.272   2.205
  461SOL     OW11036   2.236   3.139   0.740
  461SOL    HW111037   2.215   3.042   0.754
  461SOL    HW211038   2.291   3.172   0.817
  462SOL     OW11039   3.722   3.775   2.059
  462SOL    HW111040   3.794   3.717   2.097
  462SOL    HW211041   3.747   3.871   2.073
  463SOL     OW11042   4.303   3.276   1.532
  463SOL    HW111043   4.328   3.337   1.457
  463SOL    HW211044   4.297   3.329   1.617
  464SOL     OW11045   3.263   0.959   1.936
  464SOL    HW111046   3.257   0.933   1.840
  464SOL    HW211047   3.334   1.029   1.947
  465SOL     OW11048   3.086   9.187   1.504
  465SOL    HW111049   3.106   9.098   1.461
  465SOL    HW211050   3.109   9.260   1.441
  466SOL     OW11051   2.556   1.531   0.425
  466SOL    HW111052   2.610   1.481   0.493
  466SOL    HW211053   2.533   1.621   0.461
  467SOL     OW11054   2.987   8.862   1.679
  467SOL    HW111055   3.013   8.855   1.776
  467SOL    HW211056   2.928   8.941   1.666
  468SOL     OW11057   4.067   4.145   0.068
  468SOL    HW111058   3.996   4.205   0.105
  468SOL    HW211059   4.032   4.101   2.855
  469SOL     OW11060   3.473   4.158   1.059
  469SOL    HW111061   3.406   4.132   0.989
  469SOL    HW211062   3.484   4.083   1.124
  470SOL     OW11063   3.152   1.755   1.547
  470SOL    HW111064   3.163   1.721   1.453
  470SOL    HW211065   3.240   1.784   1.583
  471SOL     OW11066   3.633   9.063   1.231
  471SOL    HW111067   3.657   9.081   1.326
  471SOL    HW211068   3.671   8.974   1.203
  472SOL     OW11069   3.779   8.843   1.145
  472SOL    HW111070   3.748   8.749   1.162
  472SOL    HW211071   3.829   8.876   1.225
  473SOL     OW11072   1.840   1.894   1.407
  473SOL    HW111073   1.914   1.961   1.416
  473SOL    HW211074   1.756   1.941   1.380
  474SOL     OW11075   3.074   0.784   2.284
  474SOL    HW111076   3.038   0.761   2.194
  474SOL    HW211077   3.167   0.821   2.274
  475SOL     OW11078   3.080   3.531   1.135
  475SOL    HW111079   3.042   3.471   1.205
  475SOL    HW211080   3.013   3.601   1.111
  476SOL     OW11081   2.769   2.142   2.210
  476SOL    HW111082   2.753   2.113   2.116
  476SOL    HW211083   2.827   2.076   2.256
  477SOL     OW11084   3.524   0.088   0.487
  477SOL    HW111085   3.538   9.992   0.462
  477SOL    HW211086   3.543   0.099   0.585
  478SOL     OW11087   3.653   1.726   1.638
  478SOL    HW111088   3.724   1.784   1.597
  478SOL    HW211089   3.645   1.642   1.585
  479SOL     OW11090   3.429   9.442   1.344
  479SOL    HW111091   3.446   9.362   1.287
  479SOL    HW211092   3.458   9.525   1.295
  480SOL     OW11093   2.689   2.799   1.368
  480SOL    HW111094   2.753   2.825   1.439
  480SOL    HW211095   2.670   2.701   1.373
  481SOL     OW11096   2.917   0.972   1.048
  481SOL    HW111097   2.978   0.895   1.035
  481SOL    HW211098   2.832   0.941   1.092
  482SOL     OW11099   2.932   9.427   1.197
  482SOL    HW111100   3.017   9.428   1.249
  482SOL    HW211101   2.904   9.522   1.178
  483SOL     OW11102   3.642   2.053   1.448
  483SOL    HW111103   3.607   2.123   1.510
  483SOL    HW211104   3.565   1.998   1.414
  484SOL     OW11105   4.205   3.517   0.146
  484SOL    HW111106   4.172   3.432   0.188
  484SOL    HW211107   4.190   3.514   0.047
  485SOL     OW11108   3.662   0.722   2.004
  485SOL    HW111109   3.654   0.822   2.002
  485SOL    HW211110   3.597   0.685   2.071
  486SOL     OW11111   2.985   9.546   2.206
  486SOL    HW111112   3.073   9.499   2.204
  486SOL    HW211113   2.978   9.606   2.126
  487SOL     OW11114   3.977   1.692   0.990
  487SOL    HW111115   3.959   1.714   0.894
  487SOL    HW211116   3.973   1.593   1.003
  488SOL     OW11117   3.284   2.902   1.062
  488SOL    HW111118   3.383   2.920   1.063
  488SOL    HW211119   3.235   2.989   1.062
  489SOL     OW11120   4.079   2.470   2.257
  489SOL    HW111121   4.094   2.392   2.197
  489SOL    HW211122   4.078   2.555   2.203
  490SOL     OW11123   2.729   2.275   1.063
  490SOL    HW111124   2.750   2.367   1.030
  490SOL    HW211125   2.790   2.251   1.138
  491SOL     OW11126   3.575   9.530   2.021
  491SOL    HW111127   3.623   9.531   1.933
  491SOL    HW211128   3.577   9.621   2.061
  492SOL     OW11129   4.201   3.967   0.729
  492SOL    HW111130   4.211   3.875   0.691
  492SOL    HW211131   4.182   3.961   0.827
  493SOL     OW11132   2.422   2.965   1.051
  493SOL    HW111133   2.397   3.055   1.016
  493SOL    HW211134   2.366   2.944   1.132
  494SOL     OW11135   2.826   2.978   0.765
  494SOL    HW111136   2.831   2.902   0.830
  494SOL    HW211137   2.916   2.989   0.722
  495SOL     OW11138   3.241   1.874   0.620
  495SOL    HW111139   3.222   1.917   0.709
  495SOL    HW211140   3.306   1.800   0.632
  496SOL     OW11141   4.425   2.446   0.900
  496SOL    HW111142   4.430   2.525   0.960
  496SOL    HW211143   4.334   2.404   0.907
  497SOL     OW11144   3.567   1.115   1.147
  497SOL    HW111145   3.588   1.018   1.158
  497SOL    HW211146   3.645   1.170   1.175
  498SOL     OW11147   4.114   3.782   2.253
  498SOL    HW111148   4.203   3.742   2.232
  498SOL    HW211149   4.127   3.873   2.293
  499SOL     OW11150   4.804   1.317   0.737
  499SOL    HW111151   4.759   1.379   0.673
  499SOL    HW211152   4.889   1.283   0.696
  500SOL     OW11153   2.522   1.614   0.752
  500SOL    HW111154   2.453   1.543   0.739
  500SOL    HW211155   2.517   1.649   0.846
  501SOL     OW11156   3.615   3.171   1.569
  501SOL    HW111157   3.529   3.218   1.592
  501SOL    HW211158   3.598   3.107   1.494
  502SOL     OW11159   3.700   2.233   0.502
  502SOL    HW111160   3.694   2.299   0.577
  502SOL    HW211161   3.779   2.253   0.445
  503SOL     OW11162   4.704   3.509   1.917
  503SOL    HW111163   4.656   3.522   1.830
  503SOL    HW211164   4.800   3.491   1.900
  504SOL     OW11165   4.193   1.865   1.071
  504SOL    HW111166   4.270   1.817   1.030
  504SOL    HW211167   4.107   1.826   1.037
  505SOL     OW11168   2.916   3.959   0.355
  505SOL    HW111169   2.947   3.872   0.393
  505SOL    HW211170   2.935   3.962   0.257
  506SOL     OW11171   2.271   2.944   1.274
  506SOL    HW111172   2.299   3.031   1.313
  506SOL    HW211173   2.241   2.882   1.346
  507SOL     OW11174   4.566   1.832   1.724
  507SOL    HW111175   4.619   1.912   1.754
  507SOL    HW211176   4.471   1.844   1.752
  508SOL     OW11177   3.513   3.871   1.906
  508SOL    HW111178   3.552   3.886   1.815
  508SOL    HW211179   3.584   3.838   1.968
  509SOL     OW11180   2.188   2.626   0.436
  509SOL    HW111181   2.253   2.632   0.360
  509SOL    HW211182   2.096   2.647   0.403
  510SOL     OW11183   2.538   2.375   0.498
  510SOL    HW111184   2.595   2.457   0.510
  510SOL    HW211185   2.445   2.394   0.532
  511SOL     OW11186   3.232   9.427   2.213
  511SOL    HW111187   3.301   9.378   2.160
  511SOL    HW211188   3.258   9.429   2.309
  512SOL     OW11189   2.766   0.040   1.837
  512SOL    HW111190   2.732   9.948   1.853
  512SOL    HW211191   2.766   0.060   1.739
  513SOL     OW11192   3.654   1.978   0.600
  513SOL    HW111193   3.675   2.069   0.565
  513SOL    HW211194   3.607   1.925   0.529
  514SOL     OW11195   3.393   1.828   1.646
  514SOL    HW111196   3.383   1.917   1.690
  514SOL    HW211197   3.487   1.796   1.656
  515SOL     OW11198   4.717   3.221   1.523
  515SOL    HW111199   4.723   3.121   1.525
  515SOL    HW211200   4.659   3.252   1.598
  516SOL     OW11201   3.750   2.260   1.300
  516SOL    HW111202   3.691   2.272   1.220
  516SOL    HW211203   3.722   2.178   1.350
  517SOL     OW11204   3.186   2.766   0.741
  517SOL    HW111205   3.284   2.753   0.756
  517SOL    HW211206   3.139   2.768   0.829
  518SOL     OW11207   3.605   3.547   2.205
  518SOL    HW111208   3.605   3.638   2.162
  518SOL    HW211209   3.699   3.521   2.227
  519SOL     OW11210   3.232   1.491   2.069
  519SOL    HW111211   3.255   1.525   1.978
  519SOL    HW211212   3.305   1.431   2.101
  520SOL     OW11213   2.976   2.246   0.521
  520SOL    HW111214   2.957   2.338   0.557
  520SOL    HW211215   2.952   2.243   0.424
  521SOL     OW11216   2.120   0.088   1.286
  521SOL    HW111217   2.022   0.087   1.305
  521SOL    HW211218   2.154   0.182   1.296
  522SOL     OW11219   2.222   1.312   2.012
  522SOL    HW111220   2.156   1.239   1.995
  522SOL    HW211221   2.203   1.388   1.950
  523SOL     OW11222   1.994   1.669   1.414
  523SOL    HW111223   2.047   1.672   1.329
  523SOL    HW211224   1.924   1.740   1.412
  524SOL     OW11225   2.555   9.415   1.032
  524SOL    HW111226   2.600   9.503   1.046
  524SOL    HW211227   2.561   9.362   1.117
  525SOL     OW11228   4.651   2.569   1.419
  525SOL    HW111229   4.559   2.540   1.391
  525SOL    HW211230   4.701   2.602   1.339
  526SOL     OW11231   3.257   3.113   1.514
  526SOL    HW111232   3.290   3.200   1.551
  526SOL    HW211233   3.290   3.038   1.572
  527SOL     OW11234   3.061   2.363   1.439
  527SOL    HW111235   3.013   2.402   1.517
  527SOL    HW211236   3.100   2.436   1.383
  528SOL     OW11237   4.157   0.918   1.654
  528SOL    HW111238   4.161   0.819   1.659
  528SOL    HW211239   4.143   0.956   1.746
  529SOL     OW11240   4.710   4.361   0.529
  529SOL    HW111241   4.655   4.386   0.449
  529SOL    HW211242   4.656   4.303   0.590
  530SOL     OW11243   3.429   0.224   0.262
  530SOL    HW111244   3.447   0.175   0.177
  530SOL    HW211245   3.466   0.172   0.339
  531SOL     OW11246   3.204   9.448   0.822
  531SOL    HW111247   3.114   9.486   0.805
  531SOL    HW211248   3.195   9.352   0.849
  532SOL     OW11249   3.132   9.773   0.650
  532SOL    HW111250   3.197   9.807   0.582
  532SOL    HW211251   3.080   9.697   0.611
  533SOL     OW11252   3.374   0.016   0.969
  533SOL    HW111253   3.295   0.070   0.999
  533SOL    HW211254   3.343   9.929   0.931
  534SOL     OW11255   2.576   3.357   1.040
  534SOL    HW111256   2.645   3.305   0.988
  534SOL    HW211257   2.547   3.436   0.986
  535SOL     OW11258   2.609   1.844   1.817
  535SOL    HW111259   2.629   1.903   1.739
  535SOL    HW211260   2.526   1.791   1.798
  536SOL     OW11261   2.869   3.720   1.350
  536SOL    HW111262   2.870   3.721   1.250
  536SOL    HW211263   2.833   3.632   1.382
  537SOL     OW11264   2.960   3.376   1.318
  537SOL    HW111265   2.936   3.291   1.271
  537SOL    HW211266   2.882   3.409   1.370
  538SOL     OW11267   2.949   0.723   2.043
  538SOL    HW111268   2.998   0.671   1.974
  538SOL    HW211269   2.890   0.791   1.999
  539SOL     OW11270   3.861   3.668   0.760
  539SOL    HW111271   3.835   3.751   0.712
  539SOL    HW211272   3.925   3.616   0.704
  540SOL     OW11273   3.055   8.844   1.937
  540SOL    HW111274   3.054   8.931   1.987
  540SOL    HW211275   3.099   8.774   1.993
  541SOL     OW11276   3.354   0.866   2.305
  541SOL    HW111277   3.337   0.880   2.402
  541SOL    HW211278   3.394   0.775   2.290
  542SOL     OW11279   2.802   3.608   0.585
  542SOL    HW111280   2.804   3.661   0.670
  542SOL    HW211281   2.774   3.514   0.606
  543SOL     OW11282   2.495   0.250   0.333
  543SOL    HW111283   2.447   0.218   0.251
  543SOL    HW211284   2.527   0.344   0.317
  544SOL     OW11285   2.797   2.742   0.298
  544SOL    HW111286   2.813   2.651   0.259
  544SOL    HW211287   2.878   2.799   0.284
  545SOL     OW11288   2.493   3.553   0.874
  545SOL    HW111289   2.465   3.524   0.783
  545SOL    HW211290   2.516   3.650   0.873
  546SOL     OW11291   3.570   2.618   1.722
  546SOL    HW111292   3.516   2.594   1.642
  546SOL    HW211293   3.577   2.539   1.783
  547SOL     OW11294   4.513   1.295   1.680
  547SOL    HW111295   4.492   1.392   1.690
  547SOL    HW211296   4.610   1.280   1.698
  548SOL     OW11297   3.522   1.067   2.220
  548SOL    HW111298   3.465   0.995   2.257
  548SOL    HW211299   3.509   1.073   2.121
  549SOL     OW11300   4.003   2.585   1.458
  549SOL    HW111301   3.938   2.575   1.532
  549SOL    HW211302   4.011   2.682   1.433
  550SOL     OW11303   2.638   1.701   1.365
  550SOL    HW111304   2.700   1.760   1.315
  550SOL    HW211305   2.675   1.681   1.456
  551SOL     OW11306   4.279   1.170   1.602
  551SOL    HW111307   4.367   1.200   1.640
  551SOL    HW211308   4.267   1.072   1.620
  552SOL     OW11309   3.488   3.199   0.224
  552SOL    HW111310   3.513   3.295   0.231
  552SOL    HW211311   3.499   3.156   0.314
  553SOL     OW11312   3.903   9.461   1.110
  553SOL    HW111313   3.861   9.373   1.090
  553SOL    HW211314   3.984   9.448   1.167
  554SOL     OW11315   3.457   2.174   0.370
  554SOL    HW111316   3.404   2.259   0.373
  554SOL    HW211317   3.546   2.188   0.415
  555SOL     OW11318   2.718   1.104   2.021
  555SOL    HW111319   2.685   1.189   1.981
  555SOL    HW211320   2.715   1.111   2.121
  556SOL     OW11321   4.291   3.058   1.257
  556SOL    HW111322   4.206   3.075   1.308
  556SOL    HW211323   4.279   2.978   1.198
  557SOL     OW11324   3.152   9.746   1.899
  557SOL    HW111325   3.155   9.663   1.843
  557SOL    HW211326   3.063   9.753   1.944
  558SOL     OW11327   3.300   0.941   0.402
  558SOL    HW111328   3.339   0.863   0.353
  558SOL    HW211329   3.347   1.025   0.374
  559SOL     OW11330   3.747   1.282   2.156
  559SOL    HW111331   3.831   1.228   2.155
  559SOL    HW211332   3.683   1.243   2.223
  560SOL     OW11333   3.085   0.538   1.869
  560SOL    HW111334   3.046   0.512   1.780
  560SOL    HW211335   3.098   0.456   1.924
  561SOL     OW11336   2.336   9.986   1.435
  561SOL    HW111337   2.319   9.920   1.507
  561SOL    HW211338   2.249   0.010   1.391
  562SOL     OW11339   2.758   1.348   0.527
  562SOL    HW111340   2.761   1.248   0.523
  562SOL    HW211341   2.795   1.385   0.442
  563SOL     OW11342   2.536   1.473   1.247
  563SOL    HW111343   2.604   1.416   1.202
  563SOL    HW211344   2.579   1.558   1.279
  564SOL     OW11345   3.383   8.939   1.828
  564SOL    HW111346   3.346   8.847   1.842
  564SOL    HW211347   3.380   8.961   1.730
  565SOL     OW11348   3.757   2.879   1.549
  565SOL    HW111349   3.703   2.914   1.472
  565SOL    HW211350   3.706   2.890   1.634
  566SOL     OW11351   3.468   0.623   2.173
  566SOL    HW111352   3.395   0.644   2.108
  566SOL    HW211353   3.461   0.527   2.200
  567SOL     OW11354   2.433   0.857   2.163
  567SOL    HW111355   2.500   0.814   2.102
  567SOL    HW211356   2.472   0.941   2.200
  568SOL     OW11357   3.369   3.692   1.747
  568SOL    HW111358   3.448   3.637   1.722
  568SOL    HW211359   3.393   3.752   1.824
  569SOL     OW11360   2.563   2.855   0.230
  569SOL    HW111361   2.578   2.922   0.157
  569SOL    HW211362   2.650   2.814   0.256
  570SOL     OW11363   3.288   2.322   1.144
  570SOL    HW111364   3.254   2.232   1.171
  570SOL    HW211365   3.303   2.378   1.226
  571SOL     OW11366   3.557   9.076   1.980
  571SOL    HW111367   3.489   9.028   1.924
  571SOL    HW211368   3.515   9.156   2.022
  572SOL     OW11369   3.067   0.395   0.457
  572SOL    HW111370   3.056   0.470   0.522
  572SOL    HW211371   3.147   0.414   0.399
  573SOL     OW11372   3.858   1.896   1.518
  573SOL    HW111373   3.782   1.958   1.497
  573SOL    HW211374   3.928   1.906   1.447
  574SOL     OW11375   4.088   0.762   1.316
  574SOL    HW111376   4.136   0.807   1.391
  574SOL    HW211377   4.022   0.825   1.276
  575SOL     OW11378   4.674   2.773   1.069
  575SOL    HW111379   4.624   2.800   0.986
  575SOL    HW211380   4.733   2.848   1.099
  576SOL     OW11381   3.586   9.932   1.119
  576SOL    HW111382   3.505   9.963   1.069
  576SOL    HW211383   3.664   9.930   1.057
  577SOL     OW11384   3.280   9.779   0.882
  577SOL    HW111385   3.346   9.704   0.877
  577SOL    HW211386   3.222   9.778   0.801
  578SOL     OW11387   4.421   3.019   1.497
  578SOL    HW111388   4.400   3.107   1.539
  578SOL    HW211389   4.391   3.020   1.401
  579SOL     OW11390   3.393   1.308   2.195
  579SOL    HW111391   3.453   1.233   2.222
  579SOL    HW211392   3.314   1.311   2.257
  580SOL     OW11393   2.732   9.688   0.793
  580SOL    HW111394   2.695   9.686   0.700
  580SOL    HW211395   2.739   9.783   0.824
  581SOL     OW11396   4.307   1.855   1.811
  581SOL    HW111397   4.281   1.819   1.901
  581SOL    HW211398   4.230   1.848   1.748
  582SOL     OW11399   2.559   3.820   0.828
  582SOL    HW111400   2.508   3.894   0.871
  582SOL    HW211401   2.527   3.807   0.734
  583SOL     OW11402   1.961   2.731   0.304
  583SOL    HW111403   1.880   2.695   0.258
  583SOL    HW211404   2.024   2.768   0.235
  584SOL     OW11405   4.016   4.078   1.748
  584SOL    HW111406   4.097   4.049   1.799
  584SOL    HW211407   3.962   4.141   1.804
  585SOL     OW11408   3.055   2.683   1.530
  585SOL    HW111409   3.149   2.697   1.561
  585SOL    HW211410   3.015   2.606   1.580
  586SOL     OW11411   3.368   2.428   1.386
  586SOL    HW111412   3.464   2.455   1.385
  586SOL    HW211413   3.336   2.423   1.481
  587SOL     OW11414   3.853   2.962   0.815
  587SOL    HW111415   3.922   2.938   0.747
  587SOL    HW211416   3.877   3.049   0.858
  588SOL     OW11417   3.307   1.571   1.816
  588SOL    HW111418   3.270   1.650   1.768
  588SOL    HW211419   3.403   1.589   1.842
  589SOL     OW11420   2.302   0.416   1.921
  589SOL    HW111421   2.308   0.439   2.018
  589SOL    HW211422   2.253   0.489   1.873
  590SOL     OW11423   2.149   2.592   1.249
  590SOL    HW111424   2.149   2.662   1.321
  590SOL    HW211425   2.126   2.634   1.161
  591SOL     OW11426   2.717   2.058   1.958
  591SOL    HW111427   2.716   2.141   1.902
  591SOL    HW211428   2.670   1.985   1.909
  592SOL     OW11429   4.089   9.205   1.705
  592SOL    HW111430   4.050   9.123   1.746
  592SOL    HW211431   4.183   9.216   1.736
  593SOL     OW11432   4.358   2.112   0.269
  593SOL    HW111433   4.376   2.018   0.241
  593SOL    HW211434   4.375   2.174   0.191
  594SOL     OW11435   3.704   8.594   1.244
  594SOL    HW111436   3.606   8.600   1.226
  594SOL    HW211437   3.738   8.503   1.217
  595SOL     OW11438   3.829   4.101   1.105
  595SOL    HW111439   3.769   4.173   1.138
  595SOL    HW211440   3.925   4.126   1.123
  596SOL     OW11441   2.011   3.289   0.775
  596SOL    HW111442   1.964   3.309   0.689
  596SOL    HW211443   2.091   3.233   0.757
  597SOL     OW11444   2.103   3.338   1.027
  597SOL    HW111445   2.062   3.321   0.938
  597SOL    HW211446   2.055   3.414   1.072
  598SOL     OW11447   3.468   9.304   2.118
  598SOL    HW111448   3.506   9.387   2.079
  598SOL    HW211449   3.523   9.276   2.197
  599SOL     OW11450   3.353   2.962   1.728
  599SOL    HW111451   3.304   2.997   1.808
  599SOL    HW211452   3.449   2.945   1.752
  600SOL     OW11453   3.833   0.519   0.805
  600SOL    HW111454   3.878   0.450   0.861
  600SOL    HW211455   3.885   0.605   0.811
  601SOL     OW11456   2.775   1.519   0.748
  601SOL    HW111457   2.787   1.449   0.677
  601SOL    HW211458   2.681   1.554   0.745
  602SOL     OW11459   3.200   3.063   1.949
  602SOL    HW111460   3.201   3.162   1.938
  602SOL    HW211461   3.110   3.034   1.983
  603SOL     OW11462   3.339   2.088   1.727
  603SOL    HW111463   3.304   2.106   1.635
  603SOL    HW211464   3.278   2.128   1.795
  604SOL     OW11465   3.159   3.901   2.198
  604SOL    HW111466   3.225   3.952   2.144
  604SOL    HW211467   3.154   3.939   2.291
  605SOL     OW11468   3.777   4.553   2.230
  605SOL    HW111469   3.711   4.568   2.303
  605SOL    HW211470   3.848   4.624   2.233
  606SOL     OW11471   3.311   2.414   0.416
  606SOL    HW111472   3.215   2.386   0.420
  606SOL    HW211473   3.343   2.435   0.509
  607SOL     OW11474   3.747   0.763   1.340
  607SOL    HW111475   3.760   0.852   1.383
  607SOL    HW211476   3.748   0.692   1.411
  608SOL     OW11477   2.561   3.376   0.293
  608SOL    HW111478   2.610   3.464   0.296
  608SOL    HW211479   2.465   3.392   0.313
  609SOL     OW11480   3.586   8.783   0.768
  609SOL    HW111481   3.660   8.851   0.771
  609SOL    HW211482   3.550   8.777   0.675
  610SOL     OW11483   4.023   1.354   1.258
  610SOL    HW111484   4.065   1.331   1.346
  610SOL    HW211485   4.085   1.413   1.206
  611SOL     OW11486   3.466   3.906   1.193
  611SOL    HW111487   3.438   3.821   1.239
  611SOL    HW211488   3.488   3.886   1.098
  612SOL     OW11489   3.844   4.342   0.416
  612SOL    HW111490   3.940   4.351   0.443
  612SOL    HW211491   3.791   4.306   0.493
  613SOL     OW11492   3.794   4.728   1.813
  613SOL    HW111493   3.737   4.809   1.802
  613SOL    HW211494   3.832   4.702   1.724
  614SOL     OW11495   2.363   1.711   1.421
  614SOL    HW111496   2.461   1.714   1.402
  614SOL    HW211497   2.331   1.616   1.412
  615SOL     OW11498   4.148   2.617   0.655
  615SOL    HW111499   4.090   2.654   0.727
  615SOL    HW211500   4.094   2.605   0.571
  616SOL     OW11501   3.362   4.169   0.643
  616SOL    HW111502   3.336   4.111   0.720
  616SOL    HW211503   3.432   4.235   0.673
  617SOL     OW11504   2.449   2.174   1.846
  617SOL    HW111505   2.372   2.238   1.847
  617SOL    HW211506   2.414   2.080   1.840
  618SOL     OW11507   4.265   3.695   0.360
  618SOL    HW111508   4.249   3.628   0.287
  618SOL    HW211509   4.280   3.785   0.320
  619SOL     OW11510   3.997   0.490   1.532
  619SOL    HW111511   3.902   0.520   1.533
  619SOL    HW211512   4.028   0.480   1.438
  620SOL     OW11513   4.780   2.314   0.335
  620SOL    HW111514   4.702   2.285   0.391
  620SOL    HW211515   4.863   2.272   0.371
  621SOL     OW11516   3.101   0.293   2.014
  621SOL    HW111517   3.141   0.271   2.103
  621SOL    HW211518   3.007   0.261   2.011
  622SOL     OW11519   3.174   3.651   2.081
  622SOL    HW111520   3.177   3.742   2.122
  622SOL    HW211521   3.241   3.592   2.127
  623SOL     OW11522   2.967   3.401   0.390
  623SOL    HW111523   2.945   3.303   0.391
  623SOL    HW211524   2.894   3.452   0.345
  624SOL     OW11525   2.030   1.518   0.289
  624SOL    HW111526   2.099   1.512   0.217
  624SOL    HW211527   1.962   1.445   0.276
  625SOL     OW11528   2.858   0.968   2.247
  625SOL    HW111529   2.917   1.000   2.172
  625SOL    HW211530   2.906   0.897   2.298
  626SOL     OW11531   3.137   3.291   0.839
  626SOL    HW111532   3.101   3.384   0.829
  626SOL    HW211533   3.234   3.290   0.815
  627SOL     OW11534   3.080   9.358   0.390
  627SOL    HW111535   3.026   9.330   0.468
  627SOL    HW211536   3.096   9.280   0.329
  628SOL     OW11537   2.948   1.722   0.703
  628SOL    HW111538   2.953   1.780   0.784
  628SOL    HW211539   2.883   1.648   0.718
  629SOL     OW11540   3.730   8.720   1.492
  629SOL    HW111541   3.734   8.668   1.406
  629SOL    HW211542   3.637   8.714   1.529
  630SOL     OW11543   4.207   2.350   0.652
  630SOL    HW111544   4.189   2.449   0.646
  630SOL    HW211545   4.217   2.323   0.747
  631SOL     OW11546   3.363   0.607   0.784
  631SOL    HW111547   3.454   0.606   0.826
  631SOL    HW211548   3.301   0.550   0.839
  632SOL     OW11549   3.747   1.922   1.957
  632SOL    HW111550   3.687   1.992   1.918
  632SOL    HW211551   3.693   1.847   1.994
  633SOL     OW11552   3.703   0.182   1.657
  633SOL    HW111553   3.795   0.187   1.696
  633SOL    HW211554   3.681   0.087   1.634
  634SOL     OW11555   2.888   3.129   1.182
  634SOL    HW111556   2.808   3.072   1.163
  634SOL    HW211557   2.928   3.102   1.269
  635SOL     OW11558   3.442   9.232   1.159
  635SOL    HW111559   3.472   9.268   1.070
  635SOL    HW211560   3.511   9.169   1.194
  636SOL     OW11561   4.365   3.438   1.284
  636SOL    HW111562   4.425   3.504   1.330
  636SOL    HW211563   4.387   3.435   1.187
  637SOL     OW11564   3.153   9.739   1.133
  637SOL    HW111565   3.211   9.765   1.210
  637SOL    HW211566   3.200   9.761   1.047
  638SOL     OW11567   3.855   3.850   1.750
  638SOL    HW111568   3.765   3.871   1.713
  638SOL    HW211569   3.912   3.933   1.748
  639SOL     OW11570   2.070   2.335   1.327
  639SOL    HW111571   2.095   2.429   1.305
  639SOL    HW211572   2.036   2.290   1.244
  640SOL     OW11573   3.837   3.174   2.192
  640SOL    HW111574   3.928   3.216   2.200
  640SOL    HW211575   3.813   3.130   2.279
  641SOL     OW11576   3.735   0.572   1.542
  641SOL    HW111577   3.683   0.585   1.626
  641SOL    HW211578   3.700   0.493   1.492
  642SOL     OW11579   2.678   9.780   1.886
  642SOL    HW111580   2.633   9.746   1.804
  642SOL    HW211581   2.610   9.801   1.956
  643SOL     OW11582   2.316   1.429   1.396
  643SOL    HW111583   2.394   1.445   1.336
  643SOL    HW211584   2.282   1.336   1.382
  644SOL     OW11585   4.113   4.366   0.470
  644SOL    HW111586   4.114   4.305   0.549
  644SOL    HW211587   4.151   4.455   0.496
  645SOL     OW11588   3.924   9.429   1.740
  645SOL    HW111589   3.967   9.512   1.705
  645SOL    HW211590   3.986   9.351   1.728
  646SOL     OW11591   2.902   3.129   0.417
  646SOL    HW111592   2.930   3.054   0.357
  646SOL    HW211593   2.950   3.121   0.505
  647SOL     OW11594   2.351   1.307   2.257
  647SOL    HW111595   2.408   1.389   2.254
  647SOL    HW211596   2.295   1.302   2.175
  648SOL     OW11597   4.552   3.068   1.935
  648SOL    HW111598   4.608   3.081   2.016
  648SOL    HW211599   4.455   3.073   1.960
  649SOL     OW11600   3.999   2.700   0.866
  649SOL    HW111601   3.981   2.785   0.917
  649SOL    HW211602   4.026   2.628   0.930
  650SOL     OW11603   3.567   2.301   1.098
  650SOL    HW111604   3.548   2.221   1.041
  650SOL    HW211605   3.482   2.338   1.134
  651SOL     OW11606   3.119   2.019   2.071
  651SOL    HW111607   3.184   1.998   2.144
  651SOL    HW211608   3.038   1.960   2.080
  652SOL     OW11609   3.648   0.341   1.437
  652SOL    HW111610   3.602   0.293   1.362
  652SOL    HW211611   3.665   0.278   1.512
  653SOL     OW11612   2.639   1.338   1.901
  653SOL    HW111613   2.614   1.396   1.824
  653SOL    HW211614   2.676   1.396   1.975
  654SOL     OW11615   2.253   2.164   0.921
  654SOL    HW111616   2.208   2.248   0.891
  654SOL    HW211617   2.185   2.094   0.940
  655SOL     OW11618   3.927   2.303   0.355
  655SOL    HW111619   3.914   2.272   0.261
  655SOL    HW211620   4.008   2.259   0.393
  656SOL     OW11621   2.261   1.579   0.990
  656SOL    HW111622   2.290   1.483   0.990
  656SOL    HW211623   2.227   1.604   0.899
  657SOL     OW11624   2.911   9.748   2.031
  657SOL    HW111625   2.832   9.755   1.970
  657SOL    HW211626   2.892   9.795   2.117
  658SOL     OW11627   4.500   2.169   0.954
  658SOL    HW111628   4.494   2.269   0.958
  658SOL    HW211629   4.487   2.139   0.860
  659SOL     OW11630   3.202   8.944   0.424
  659SOL    HW111631   3.160   8.855   0.439
  659SOL    HW211632   3.185   9.003   0.503
  660SOL     OW11633   3.275   1.935   2.277
  660SOL    HW111634   3.255   1.839   2.259
  660SOL    HW211635   3.325   1.943   2.364
  661SOL     OW11636   2.383   9.849   0.258
  661SOL    HW111637   2.334   9.862   0.344
  661SOL    HW211638   2.444   9.770   0.265
  662SOL     OW11639   3.464   9.678   1.191
  662SOL    HW111640   3.404   9.713   1.263
  662SOL    HW211641   3.524   9.752   1.160
  663SOL     OW11642   3.060   9.075   2.087
  663SOL    HW111643   2.985   9.118   2.137
  663SOL    HW211644   3.124   9.035   2.153
  664SOL     OW11645   2.736   9.951   0.878
  664SOL    HW111646   2.657   9.996   0.835
  664SOL    HW211647   2.817   9.968   0.822
  665SOL     OW11648   3.102   1.142   0.938
  665SOL    HW111649   3.184   1.107   0.983
  665SOL    HW211650   3.023   1.090   0.969
  666SOL     OW11651   3.173   8.580   1.230
  666SOL    HW111652   3.164   8.551   1.134
  666SOL    HW211653   3.107   8.652   1.250
  667SOL     OW11654   3.587   2.117   1.857
  667SOL    HW111655   3.503   2.103   1.806
  667SOL    HW211656   3.603   2.216   1.869
  668SOL     OW11657   3.560   9.808   0.435
  668SOL    HW111658   3.568   9.732   0.371
  668SOL    HW211659   3.626   9.795   0.510
  669SOL     OW11660   3.811   2.251   2.177
  669SOL    HW111661   3.850   2.204   2.257
  669SOL    HW211662   3.836   2.201   2.094
  670SOL     OW11663   2.461   3.494   0.604
  670SOL    HW111664   2.406   3.458   0.528
  670SOL    HW211665   2.543   3.439   0.615
  671SOL     OW11666   2.122   2.501   2.102
  671SOL    HW111667   2.138   2.459   2.012
  671SOL    HW211668   2.117   2.600   2.091
  672SOL     OW11669   2.436   2.446   2.013
  672SOL    HW111670   2.351   2.430   1.962
  672SOL    HW211671   2.463   2.362   2.059
  673SOL     OW11672   2.868   1.832   1.285
  673SOL    HW111673   2.922   1.750   1.266
  673SOL    HW211674   2.918   1.890   1.350
  674SOL     OW11675   2.303   9.805   1.644
  674SOL    HW111676   2.327   9.865   1.720
  674SOL    HW211677   2.217   9.759   1.664
  675SOL     OW11678   3.390   3.674   1.322
  675SOL    HW111679   3.397   3.574   1.322
  675SOL    HW211680   3.294   3.701   1.334
  676SOL     OW11681   2.906   0.348   0.238
  676SOL    HW111682   2.978   0.368   0.305
  676SOL    HW211683   2.835   0.292   0.281
  677SOL     OW11684   3.399   9.936   1.593
  677SOL    HW111685   3.498   9.923   1.600
  677SOL    HW211686   3.358   9.935   1.684
  678SOL     OW11687   3.906   0.979   0.637
  678SOL    HW111688   3.826   0.939   0.681
  678SOL    HW211689   3.956   0.908   0.587
  679SOL     OW11690   2.070   2.965   0.423
  679SOL    HW111691   2.007   2.893   0.394
  679SOL    HW211692   2.130   2.929   0.495
  680SOL     OW11693   4.047   1.895   1.303
  680SOL    HW111694   3.955   1.880   1.268
  680SOL    HW211695   4.112   1.897   1.227
  681SOL     OW11696   2.388   1.673   1.784
  681SOL    HW111697   2.301   1.629   1.805
  681SOL    HW211698   2.450   1.607   1.743
  682SOL     OW11699   3.457   1.150   1.964
  682SOL    HW111700   3.425   1.229   2.017
  682SOL    HW211701   3.538   1.176   1.912
  683SOL     OW11702   3.199   2.069   1.218
  683SOL    HW111703   3.250   1.995   1.175
  683SOL    HW211704   3.101   2.051   1.211
  684SOL     OW11705   3.153   9.413   1.358
  684SOL    HW111706   3.128   9.495   1.409
  684SOL    HW211707   3.252   9.413   1.341
  685SOL     OW11708   3.025   3.726   0.460
  685SOL    HW111709   3.097   3.658   0.475
  685SOL    HW211710   2.939   3.693   0.497
  686SOL     OW11711   2.781   2.414   2.212
  686SOL    HW111712   2.783   2.314   2.212
  686SOL    HW211713   2.690   2.446   2.236
  687SOL     OW11714   2.218   2.135   2.038
  687SOL    HW111715   2.257   2.138   2.130
  687SOL    HW211716   2.238   2.046   1.997
  688SOL     OW11717   3.361   2.384   1.996
  688SOL    HW111718   3.306   2.302   1.984
  688SOL    HW211719   3.307   2.464   1.971
  689SOL     OW11720   1.999   2.214   1.094
  689SOL    HW111721   1.999   2.122   1.053
  689SOL    HW211722   2.027   2.280   1.024
  690SOL     OW11723   2.098   1.457   1.564
  690SOL    HW111724   2.040   1.525   1.520
  690SOL    HW211725   2.183   1.447   1.513
  691SOL     OW11726   3.295   2.803   1.989
  691SOL    HW111727   3.253   2.894   1.986
  691SOL    HW211728   3.389   2.810   2.022
  692SOL     OW11729   4.209   1.787   2.125
  692SOL    HW111730   4.125   1.791   2.072
  692SOL    HW211731   4.260   1.704   2.101
  693SOL     OW11732   4.114   1.440   0.773
  693SOL    HW111733   4.149   1.534   0.771
  693SOL    HW211734   4.051   1.430   0.850
  694SOL     OW11735   3.563   8.762   2.224
  694SOL    HW111736   3.635   8.812   2.175
  694SOL    HW211737   3.523   8.694   2.163
  695SOL     OW11738   3.213   3.109   0.231
  695SOL    HW111739   3.303   3.123   0.188
  695SOL    HW211740   3.211   3.158   0.318
  696SOL     OW11741   4.538   3.260   1.735
  696SOL    HW111742   4.558   3.188   1.801
  696SOL    HW211743   4.452   3.305   1.760
  697SOL     OW11744   3.632   2.651   1.220
  697SOL    HW111745   3.536   2.661   1.193
  697SOL    HW211746   3.683   2.608   1.146
  698SOL     OW11747   2.067   1.967   0.690
  698SOL    HW111748   2.041   1.902   0.619
  698SOL    HW211749   2.127   2.037   0.651
  699SOL     OW11750   2.681   2.950   1.143
  699SOL    HW111751   2.679   2.898   1.228
  699SOL    HW211752   2.588   2.962   1.109
  700SOL     OW11753   3.123   0.122   1.003
  700SOL    HW111754   3.030   0.107   1.036
  700SOL    HW211755   3.119   0.161   0.911
  701SOL     OW11756   3.770   0.172   0.912
  701SOL    HW111757   3.788   0.075   0.928
  701SOL    HW211758   3.685   0.182   0.861
  702SOL     OW11759   2.308   1.933   1.863
  702SOL    HW111760   2.231   1.968   1.809
  702SOL    HW211761   2.328   1.839   1.836
  703SOL     OW11762   2.247   2.158   0.594
  703SOL    HW111763   2.248   2.258   0.602
  703SOL    HW211764   2.340   2.123   0.603
  704SOL     OW11765   4.071   1.813   1.673
  704SOL    HW111766   3.993   1.855   1.626
  704SOL    HW211767   4.089   1.722   1.635
  705SOL     OW11768   4.716   2.064   1.759
  705SOL    HW111769   4.780   2.024   1.693
  705SOL    HW211770   4.716   2.163   1.750
  706SOL     OW11771   2.355   3.028   1.610
  706SOL    HW111772   2.406   3.082   1.677
  706SOL    HW211773   2.350   3.079   1.524
  707SOL     OW11774   2.196   0.862   2.021
  707SOL    HW111775   2.206   0.785   1.958
  707SOL    HW211776   2.278   0.870   2.077
  10.00000  10.00000   2.87000
