chitosan Film  in water:acetic acid 2% t= 2000.00000 step= 2000000
18931
    1CHTO  H203    1   5.538   7.212   1.857 -0.3952  0.3941  0.8223
    1CHTO   O82    2   5.523   7.146   1.922 -1.1785 -0.3773 -0.1274
    1CHTO  C123    3   5.631   7.134   2.018  0.5197 -0.2000 -0.9934
    1CHTO  H227    4   5.621   7.217   2.089  2.3165 -0.5204 -0.3517
    1CHTO   O77    5   5.596   7.004   2.070 -0.0150 -0.2808  0.0198
    1CHTO  C118    6   5.682   6.962   2.170 -0.3522  0.0452  0.1487
    1CHTO  H222    7   5.691   7.038   2.249  1.5587  0.2568 -0.2621
    1CHTO  C125    8   5.620   6.824   2.235  0.2932  0.4811 -0.1277
    1CHTO   O84    9   5.657   6.790   2.371  0.4565  0.0308 -0.9228
    1CHTO  H205   10   5.750   6.805   2.369  0.5594 -0.6917 -2.2551
    1CHTO  C114   11   5.826   6.946   2.122 -0.3561  0.6135 -0.1620
    1CHTO  H218   12   5.826   6.874   2.040 -0.5482 -0.6962  0.9573
    1CHTO  C116   13   5.868   7.082   2.060 -0.3829  0.4547  0.2760
    1CHTO  H220   14   5.881   7.149   2.147  0.1404  0.1420  0.4425
    1CHTO   O79   15   5.996   7.060   1.999 -0.1422  0.1066  0.4035
    1CHTO  H201   16   6.056   7.041   2.068  1.0199 -0.4922 -0.7518
    1CHTO  C120   17   5.768   7.139   1.947 -0.9516 -0.1737 -0.0924
    1CHTO  H224   18   5.767   7.065   1.864 -0.2399 -0.4776  0.1629
    1CHTO   N21   19   5.797   7.268   1.890  1.1547  0.4401 -0.7040
    1CHTO  H211   20   5.759   7.274   1.790  0.9696  1.3176 -0.5825
    1CHTO  H212   21   5.901   7.295   1.903  0.7178  2.3312 -1.0071
    1CHTO   O75   22   5.899   6.901   2.243 -0.2607 -0.2068  0.9393
    1CHTO  C112   23   5.974   6.757   2.207 -0.0599  0.0863 -0.0718
    1CHTO  H216   24   5.985   6.733   2.100  2.0263 -1.7414  0.5165
    1CHTO   O73   25   5.901   6.655   2.281  0.2695  0.3357  0.7890
    1CHTO  C113   26   5.934   6.521   2.250 -0.5744 -0.7250  0.0291
    1CHTO  H217   27   5.931   6.503   2.140  0.2799  1.0273 -0.2981
    1CHTO  C124   28   5.823   6.436   2.308 -0.2998  0.5699 -0.4614
    1CHTO   O83   29   5.699   6.471   2.263  0.6830 -0.3791  0.1053
    1CHTO  H204   30   5.639   6.418   2.312  0.2643 -3.0277 -3.1041
    1CHTO  C109   31   6.086   6.496   2.284 -0.3097  0.4726 -0.2832
    1CHTO  H213   32   6.096   6.494   2.393  1.3815  0.2188 -0.4286
    1CHTO  C110   33   6.176   6.613   2.227 -0.5186  0.1832  0.8193
    1CHTO  H214   34   6.172   6.596   2.120 -0.0479 -1.2549  1.0079
    1CHTO   O78   35   6.310   6.598   2.274 -0.4586  0.0968  0.0206
    1CHTO  H200   36   6.370   6.640   2.216 -1.2470 -0.2486 -1.0636
    1CHTO  C111   37   6.126   6.759   2.252 -0.0133 -0.1763  0.7115
    1CHTO  H215   38   6.122   6.778   2.361 -1.7615 -0.8637  0.7945
    1CHTO   N19   39   6.207   6.869   2.186  0.6507  0.4712 -0.1090
    1CHTO  H207   40   6.169   6.967   2.211 -0.6135 -0.1900  0.6678
    1CHTO  H208   41   6.226   6.848   2.082 -1.3906 -0.3482 -0.3571
    1CHTO   O74   42   6.137   6.364   2.223  0.1374  0.1799 -0.0066
    1CHTO  C115   43   6.233   6.273   2.301 -0.5216  0.4480 -0.0688
    1CHTO  H219   44   6.223   6.291   2.408 -2.0490  3.7360 -0.7008
    1CHTO   O76   45   6.189   6.123   2.292 -0.3196  0.4253  0.2219
    1CHTO  C122   46   6.206   6.064   2.152 -0.0155  0.0049 -0.1668
    1CHTO  H226   47   6.114   6.075   2.094 -0.9102  3.6298  1.8542
    1CHTO  C126   48   6.241   5.910   2.158 -0.2074 -0.3959 -0.4238
    1CHTO   O85   49   6.126   5.848   2.225 -0.1425 -0.0714 -0.0587
    1CHTO  H206   50   6.156   5.799   2.299 -0.9419 -0.0000  0.3280
    1CHTO  C121   51   6.331   6.120   2.076 -0.0621 -0.2342  0.1279
    1CHTO  H225   52   6.379   6.042   2.013 -0.1691 -1.0426  1.0436
    1CHTO   O81   53   6.289   6.214   1.981 -0.1804  0.2530 -0.6537
    1CHTO  H202   54   6.336   6.203   1.901 -0.0737  0.1663 -0.5791
    1CHTO  C119   55   6.436   6.184   2.172 -0.3638 -0.1362 -0.1769
    1CHTO  H223   56   6.468   6.100   2.233 -1.2685 -0.6424 -0.3916
    1CHTO  C117   57   6.385   6.299   2.262 -0.0879 -0.1430 -0.0913
    1CHTO  H221   58   6.387   6.396   2.211 -0.3421  0.0988  0.3561
    1CHTO   N20   59   6.473   6.328   2.379 -0.5338  0.3437 -0.0781
    1CHTO  H209   60   6.470   6.251   2.454 -1.9142  1.5117  1.1057
    1CHTO  H210   61   6.546   6.406   2.367  0.6886 -0.8430 -0.4529
    1CHTO   O80   62   6.583   6.215   2.099  0.3100  0.2948 -0.2046
    1CHTO  C103   63   6.712   6.136   2.157  0.6550  0.1252 -0.2795
    1CHTO  H190   64   6.715   6.148   2.265 -1.3198  3.7193 -0.5206
    1CHTO  C101   65   6.718   5.986   2.114  0.5860 -1.0534  0.1241
    1CHTO  H188   66   6.719   5.970   2.007 -0.6494  1.6479 -0.3218
    1CHTO   O68   67   6.594   5.906   2.181  0.2953  0.2452 -0.6106
    1CHTO  H168   68   6.624   5.819   2.200 -0.5908 -0.1786 -1.1308
    1CHTO   C99   69   6.873   5.932   2.149  1.3547 -0.0769  0.0464
    1CHTO  H186   70   6.903   5.942   2.256  2.3520 -1.0231 -0.1357
    1CHTO   N17   71   6.889   5.797   2.107 -0.3131 -0.0717 -0.3332
    1CHTO  H174   72   6.948   5.785   2.017  2.7368 -0.3959  1.6165
    1CHTO  H175   73   6.932   5.736   2.185  0.7532  3.2015  1.7403
    1CHTO   C97   74   6.973   6.029   2.082  0.0591 -0.3025 -0.1725
    1CHTO  H184   75   6.955   6.033   1.974 -0.3165  0.2802 -0.0869
    1CHTO   O64   76   6.956   6.155   2.144 -0.3697 -0.1526 -0.1501
    1CHTO  C104   77   6.834   6.211   2.102 -0.0236  0.5582  0.1116
    1CHTO  H191   78   6.825   6.211   1.994 -0.0592 -1.2217  0.1055
    1CHTO  C108   79   6.823   6.360   2.147 -0.6376 -0.7534 -0.3498
    1CHTO   O71   80   6.938   6.433   2.103  0.1819  0.5198  0.2186
    1CHTO  H171   81   7.001   6.423   2.172 -1.0017 -1.9670  1.0128
    1CHTO   O62   82   7.103   5.996   2.120  0.0041  0.8345 -0.1726
    1CHTO   C91   83   7.203   6.006   2.014 -0.2655 -0.4155  0.2236
    1CHTO  H178   84   7.153   6.064   1.936 -0.5002  0.4328  0.9957
    1CHTO   C92   85   7.240   5.868   1.944 -0.4735 -0.7887  0.2596
    1CHTO  H179   86   7.144   5.816   1.931 -0.0663 -1.4761 -0.0422
    1CHTO   O66   87   7.275   5.912   1.805  0.3185 -0.1874 -0.0879
    1CHTO  H166   88   7.262   5.841   1.745 -0.1318 -0.2777  0.1113
    1CHTO   C93   89   7.361   5.780   2.002  0.4126 -0.0954 -0.3144
    1CHTO  H180   90   7.386   5.704   1.927 -2.3162 -0.2390 -1.1160
    1CHTO   N16   91   7.319   5.703   2.117  0.1512  0.2956 -0.1770
    1CHTO  H172   92   7.326   5.752   2.212  0.1783  2.6562 -1.3629
    1CHTO  H173   93   7.373   5.609   2.118 -0.5576 -0.1169  0.0515
    1CHTO   C94   94   7.486   5.871   2.030 -0.1468  0.1357  0.0950
    1CHTO  H181   95   7.529   5.860   2.129  0.7114 -1.8492 -0.4643
    1CHTO   O61   96   7.454   6.008   2.016 -0.1990 -0.1378  0.0365
    1CHTO   C95   97   7.339   6.070   2.074  0.0651  0.0704 -0.3501
    1CHTO  H182   98   7.339   6.059   2.182 -0.2087  2.3258 -0.0861
    1CHTO  C106   99   7.342   6.221   2.036 -0.0480 -0.6562 -0.0046
    1CHTO   O69  100   7.235   6.298   2.099  0.1445  0.8249 -0.2270
    1CHTO  H169  101   7.210   6.252   2.176  3.9000  0.1452  0.6681
    1CHTO   O63  102   7.593   5.842   1.934 -0.1482  0.3819 -0.2217
    1CHTO   C96  103   7.701   5.746   1.987  0.2009 -0.5362  0.0294
    1CHTO  H183  104   7.694   5.738   2.095  1.7707  2.0949  0.3459
    1CHTO   C98  105   7.845   5.805   1.970 -0.5501  0.6926 -0.8136
    1CHTO  H185  106   7.843   5.913   1.992 -2.5845  0.3056  1.0885
    1CHTO   O67  107   7.949   5.748   2.056  0.1917  0.2690  0.0244
    1CHTO  H167  108   7.969   5.814   2.120  0.3017  0.7847 -0.5290
    1CHTO  C102  109   7.895   5.784   1.822 -0.0906  0.0267  0.6222
    1CHTO  H189  110   8.002   5.808   1.814  0.3042 -1.0593  2.2043
    1CHTO   N18  111   7.825   5.867   1.719 -0.5893 -0.2416 -0.1610
    1CHTO  H176  112   7.717   5.854   1.719 -0.6459  0.1554  1.0426
    1CHTO  H177  113   7.866   5.874   1.620 -1.0589  0.4986 -0.3091
    1CHTO  C105  114   7.891   5.636   1.783 -0.8954  0.2831 -0.9620
    1CHTO  H192  115   7.921   5.625   1.679  1.5143  0.0589 -0.2939
    1CHTO   O65  116   7.763   5.570   1.797 -0.1788 -0.8199 -0.1978
    1CHTO  C100  117   7.680   5.605   1.914  0.2948  0.1758  0.7770
    1CHTO  H187  118   7.582   5.601   1.866  0.4111 -2.9387  0.7022
    1CHTO  C107  119   7.685   5.487   2.018 -0.1121  0.3548 -0.1188
    1CHTO   O70  120   7.809   5.420   2.029  0.0466 -0.8144 -0.1789
    1CHTO  H170  121   7.827   5.412   2.121 -1.0328 -0.8426  0.0484
    1CHTO   O57  122   8.005   5.559   1.869 -0.2535  0.0110  0.1112
    1CHTO   C85  123   8.089   5.467   1.797 -0.1015  0.0294  0.4489
    1CHTO  H157  124   8.039   5.431   1.704  1.0753 -1.2634  0.3087
    1CHTO   C83  125   8.099   5.343   1.887 -0.3367 -0.9620 -0.4775
    1CHTO  H155  126   8.002   5.292   1.882 -0.2168 -1.3845  1.1001
    1CHTO   O56  127   8.121   5.376   2.029 -0.0417  0.2298 -0.3859
    1CHTO  H135  128   8.124   5.293   2.072  0.4826  1.3891  1.9138
    1CHTO   C81  129   8.211   5.251   1.834 -0.0786 -0.5987  0.3884
    1CHTO  H153  130   8.198   5.236   1.727  1.4616  1.0714 -0.0735
    1CHTO   N14  131   8.202   5.112   1.877  0.0472 -0.8400 -0.2744
    1CHTO  H141  132   8.291   5.059   1.849 -0.0885 -0.1442 -2.0934
    1CHTO  H142  133   8.190   5.116   1.983  0.9408  0.6849 -0.2134
    1CHTO   C79  134   8.354   5.323   1.846  0.0669  0.3515  0.3133
    1CHTO  H151  135   8.430   5.254   1.812  0.0924  1.5238 -2.1317
    1CHTO   O52  136   8.347   5.442   1.754 -0.0723 -0.3222  0.0528
    1CHTO   C86  137   8.231   5.533   1.765  0.7817 -0.0178 -0.3821
    1CHTO  H158  138   8.251   5.598   1.852 -2.2293  0.9395 -0.3551
    1CHTO   C90  139   8.215   5.633   1.648  0.6056 -0.2469 -0.0236
    1CHTO   O60  140   8.166   5.583   1.529 -0.3318  0.2727 -0.1381
    1CHTO  H138  141   8.217   5.508   1.504  1.1433  1.5022 -0.9290
    1CHTO   O50  142   8.375   5.369   1.979  0.2614  0.6414 -0.1815
    1CHTO   C73  143   8.478   5.383   2.077 -0.0903  0.0110 -0.5627
    1CHTO  H145  144   8.569   5.424   2.030  0.0683  0.3095 -0.0102
    1CHTO   C74  145   8.508   5.240   2.137  0.3913 -0.1976  0.5563
    1CHTO  H146  146   8.540   5.170   2.059 -0.1384  0.7236 -0.5060
    1CHTO   O54  147   8.620   5.253   2.223  0.4121  0.7237  0.1051
    1CHTO  H133  148   8.661   5.169   2.231 -0.3863  0.3408  0.2683
    1CHTO   C75  149   8.385   5.189   2.208  0.1337 -0.4389  0.3543
    1CHTO  H147  150   8.301   5.189   2.137  0.3782 -0.1543  0.0674
    1CHTO   N13  151   8.404   5.049   2.249  0.6243 -0.0958  0.0167
    1CHTO  H139  152   8.446   5.044   2.349  0.8349  0.5970 -0.0340
    1CHTO  H140  153   8.316   4.987   2.248  0.6712 -0.1869  1.0718
    1CHTO   C76  154   8.345   5.284   2.332  0.6009 -0.3015  0.6894
    1CHTO  H148  155   8.421   5.285   2.410 -0.0810 -1.3608  1.3923
    1CHTO   O49  156   8.320   5.413   2.275 -0.5451  0.0595  0.4125
    1CHTO   C77  157   8.433   5.471   2.198  0.7121  0.0852 -1.0176
    1CHTO  H149  158   8.515   5.497   2.266 -0.7197 -0.8853  1.1416
    1CHTO   C88  159   8.389   5.605   2.138  1.0307 -0.7127  0.8948
    1CHTO   O58  160   8.488   5.681   2.067  0.5218  0.1894  0.3413
    1CHTO  H136  161   8.442   5.745   2.016 -1.3131 -0.9046  0.5631
    1CHTO   O51  162   8.190   5.230   2.405 -0.0419 -0.2660  0.3491
    1CHTO   C78  163   8.100   5.326   2.462 -0.6520 -0.2397  0.5018
    1CHTO  H150  164   8.116   5.430   2.427 -1.3252 -0.8114 -1.5359
    1CHTO   C80  165   8.119   5.319   2.611 -0.5075 -0.0327 -0.5337
    1CHTO  H152  166   8.097   5.215   2.644 -0.0205  0.0262 -0.0222
    1CHTO   O55  167   8.259   5.335   2.636  0.5431  0.0001  0.1479
    1CHTO  H134  168   8.274   5.342   2.728  1.7369  1.7262 -0.1291
    1CHTO   C84  169   8.029   5.426   2.677  0.6267 -0.0187 -0.6444
    1CHTO  H156  170   8.070   5.522   2.645  0.1095  0.4836  0.1423
    1CHTO   N15  171   8.055   5.424   2.832 -0.3694  0.0550 -0.0987
    1CHTO  H143  172   8.021   5.336   2.882 -0.7403  0.5456  0.5167
    1CHTO  H144  173   8.162   5.430   2.834 -0.4161  0.9498 -0.3055
    1CHTO   C87  174   7.882   5.434   2.632  0.5204  0.0653 -0.3831
    1CHTO  H159  175   7.823   5.360   2.686  1.3562  0.8397  1.6408
    1CHTO   O53  176   7.874   5.402   2.465 -0.2134 -0.6576 -0.3752
    1CHTO   C82  177   7.954   5.290   2.430 -0.4158  0.1991 -0.5338
    1CHTO  H154  178   7.930   5.201   2.488  0.8399 -0.5924 -1.2110
    1CHTO   C89  179   7.943   5.256   2.277 -0.1435 -0.1059 -0.4517
    1CHTO   O59  180   7.806   5.221   2.253  0.3841 -0.2793  0.1147
    1CHTO  H137  181   7.788   5.191   2.166 -2.3926 -0.4235  0.6625
    1CHTO   O45  182   7.821   5.589   2.673 -0.4995 -0.6513 -0.2113
    1CHTO   C67  183   7.846   5.683   2.570 -0.1903 -0.2232 -0.5643
    1CHTO  H124  184   7.933   5.658   2.508  0.1909 -0.2866 -0.0032
    1CHTO   C65  185   7.719   5.697   2.483 -0.1244  0.2229 -0.6747
    1CHTO  H122  186   7.655   5.613   2.510  0.0316  0.0297 -0.8989
    1CHTO   O44  187   7.757   5.678   2.345 -0.6396 -0.5509  0.1829
    1CHTO  H102  188   7.684   5.653   2.291 -1.9228  2.4916  0.4095
    1CHTO   C63  189   7.642   5.835   2.509 -0.1491  0.2573 -0.8476
    1CHTO  H120  190   7.615   5.848   2.613  2.2689  2.7970 -0.5013
    1CHTO   N11  191   7.514   5.840   2.439 -0.1851  0.7068 -0.3679
    1CHTO  H108  192   7.435   5.829   2.509 -0.2817 -1.0185 -0.7456
    1CHTO  H109  193   7.498   5.930   2.383 -2.7629 -0.2262 -1.1713
    1CHTO   C61  194   7.738   5.949   2.481 -0.8305 -0.3563 -0.3296
    1CHTO  H118  195   7.699   6.045   2.517  0.3367  0.7356 -1.9018
    1CHTO   O40  196   7.874   5.936   2.544 -0.3734 -0.1587 -0.0434
    1CHTO   C68  197   7.881   5.821   2.632 -0.3375  0.0299  0.2929
    1CHTO  H125  198   7.811   5.845   2.716 -0.5100  0.0515  0.1444
    1CHTO   C72  199   8.022   5.825   2.693 -0.0279  0.3452  0.3776
    1CHTO   O48  200   8.132   5.801   2.600  0.4890 -0.5690 -0.4754
    1CHTO  H105  201   8.135   5.875   2.542 -0.5257  0.3842  0.6564
    1CHTO   O38  202   7.782   5.964   2.345  0.2191 -0.4119 -0.5927
    1CHTO   C55  203   7.807   6.104   2.306 -0.1373 -0.1786 -0.2483
    1CHTO  H112  204   7.803   6.169   2.394  1.2252  0.7285 -0.8358
    1CHTO   C56  205   7.704   6.153   2.198  0.5031  0.5138  0.2515
    1CHTO  H113  206   7.678   6.065   2.138  1.8931 -1.6791  2.7196
    1CHTO   O42  207   7.585   6.174   2.266  0.0245 -0.4209 -0.1500
    1CHTO  H100  208   7.512   6.200   2.213 -0.3074 -0.6734  0.1825
    1CHTO   C57  209   7.748   6.275   2.117  0.6614  0.4005 -0.0044
    1CHTO  H114  210   7.659   6.337   2.106 -0.4629 -1.5098 -1.9136
    1CHTO   N10  211   7.775   6.246   1.978  0.0410  0.3324  0.5132
    1CHTO  H106  212   7.804   6.332   1.921 -1.8161 -0.0210 -1.0175
    1CHTO  H107  213   7.688   6.200   1.934  0.9686 -0.0085 -1.0318
    1CHTO   C58  214   7.859   6.351   2.191  0.0353 -0.2488  0.4817
    1CHTO  H115  215   7.908   6.423   2.123  1.7226 -0.9120  0.9622
    1CHTO   O37  216   7.970   6.264   2.222  0.7169  0.4308  0.5012
    1CHTO   C59  217   7.951   6.124   2.250 -1.2304 -0.4800  0.0378
    1CHTO  H116  218   7.965   6.069   2.157 -0.6417 -0.8512  0.3424
    1CHTO   C70  219   8.066   6.100   2.345  0.1430  0.2574 -0.2226
    1CHTO   O46  220   8.062   6.179   2.466  0.0753  0.3135 -0.1717
    1CHTO  H103  221   7.980   6.172   2.510 -0.1069 -0.5605 -0.6378
    1CHTO   O39  222   7.800   6.425   2.330  0.2717  0.0122 -0.6098
    1CHTO   C60  223   7.722   6.546   2.305  0.2632  0.0152  0.1459
    1CHTO  H117  224   7.739   6.567   2.199 -2.2847 -0.4595 -0.3884
    1CHTO   C62  225   7.573   6.530   2.330 -0.7274  0.0620 -0.0198
    1CHTO  H119  226   7.534   6.451   2.264 -0.2937 -0.5882  0.4953
    1CHTO   O43  227   7.558   6.491   2.470  0.1779 -0.4692 -0.9280
    1CHTO  H101  228   7.494   6.426   2.492 -0.5318  0.9616  1.3981
    1CHTO   C66  229   7.503   6.665   2.286 -0.2859 -0.4062  0.7649
    1CHTO  H123  230   7.519   6.684   2.180  0.1321  0.3901  0.9631
    1CHTO   N12  231   7.357   6.662   2.299 -0.6525 -0.6310  0.2025
    1CHTO  H110  232   7.335   6.626   2.398 -1.2519 -2.4985 -0.5853
    1CHTO  H111  233   7.316   6.615   2.211  0.8592  0.9015 -1.3418
    1CHTO   C69  234   7.564   6.785   2.361  1.1536  0.5614 -0.0409
    1CHTO  H126  235   7.548   6.783   2.471  0.2105 -0.5984 -0.1868
    1CHTO   O41  236   7.712   6.786   2.327 -0.2909  0.0335  0.1857
    1CHTO   C64  237   7.786   6.667   2.383  0.0219  0.3486 -0.1677
    1CHTO  H121  238   7.763   6.655   2.491  0.1346 -0.2576 -0.2067
    1CHTO   C71  239   7.937   6.684   2.358 -0.8283  0.1292 -0.1797
    1CHTO   O47  240   8.009   6.607   2.456 -0.5257  0.3290  0.4993
    1CHTO  H104  241   8.097   6.636   2.474 -0.8488  1.3566  0.4367
    1CHTO   O34  242   7.501   6.923   2.320  0.7154 -0.0135 -0.2269
    1CHTO   C49  243   7.558   7.038   2.390 -0.2731 -0.0573  0.1467
    1CHTO   H91  244   7.643   7.005   2.449  1.3683  1.6119 -1.2097
    1CHTO   C47  245   7.459   7.105   2.490 -0.0296  0.2918  0.0923
    1CHTO   H89  246   7.515   7.182   2.546  0.2679 -0.1067  0.3445
    1CHTO   O33  247   7.418   7.000   2.577  0.6977  0.0710 -0.4451
    1CHTO   H70  248   7.363   6.938   2.532 -0.2081  0.3270  0.2893
    1CHTO   C45  249   7.332   7.173   2.413 -0.4453 -0.1008 -0.0639
    1CHTO   H87  250   7.281   7.093   2.357 -1.0143  0.8307 -0.9081
    1CHTO    N8  251   7.235   7.225   2.509  0.4893 -0.0882 -0.2956
    1CHTO   H75  252   7.188   7.145   2.565  1.4340 -1.3675 -1.3022
    1CHTO   H76  253   7.159   7.292   2.469  0.8897  1.4987  1.5379
    1CHTO   C43  254   7.399   7.277   2.301  0.4687 -0.3271  0.3542
    1CHTO   H85  255   7.320   7.308   2.232  2.0681  2.7276 -0.1791
    1CHTO   O29  256   7.509   7.223   2.230  0.5465 -0.2603 -0.3761
    1CHTO   C50  257   7.611   7.147   2.301  0.1210 -0.2331 -0.2936
    1CHTO   H92  258   7.679   7.103   2.227  2.0735  1.0127  0.6995
    1CHTO   C54  259   7.718   7.241   2.368  0.2208  0.2802  0.2781
    1CHTO   O36  260   7.800   7.308   2.274 -0.4660  0.1261 -0.1687
    1CHTO   H72  261   7.881   7.262   2.264 -0.3164  0.1454  0.9274
    1CHTO   O27  262   7.436   7.403   2.359 -0.2894  0.4234 -0.6414
    1CHTO   C37  263   7.390   7.542   2.335  0.3337  0.7960 -0.5926
    1CHTO   H79  264   7.382   7.557   2.226  0.2635 -0.3889 -0.7548
    1CHTO   C38  265   7.247   7.573   2.383 -0.5988 -0.3991 -0.5824
    1CHTO   H80  266   7.240   7.544   2.489 -1.1412 -2.3624 -1.1429
    1CHTO   O31  267   7.158   7.495   2.306 -0.5810  0.2948  0.4203
    1CHTO   H68  268   7.071   7.484   2.339 -1.7463  1.1669 -2.1993
    1CHTO   C39  269   7.203   7.723   2.373  0.3632  0.7284  0.5089
    1CHTO   H81  270   7.195   7.728   2.265  2.0759  0.0369  0.3237
    1CHTO    N7  271   7.064   7.754   2.436 -0.0025 -0.2126 -0.1798
    1CHTO   H73  272   7.072   7.743   2.543 -1.1640 -2.7714 -0.3096
    1CHTO   H74  273   7.007   7.833   2.390 -2.7116 -1.4752  0.9022
    1CHTO   C40  274   7.321   7.812   2.445 -0.1142 -0.4848  0.4388
    1CHTO   H82  275   7.328   7.792   2.552  1.8237 -0.5728  0.3194
    1CHTO   O26  276   7.444   7.791   2.376  0.3881  0.2219  0.2781
    1CHTO   C41  277   7.493   7.654   2.385  0.0560  0.1783 -0.3757
    1CHTO   H83  278   7.512   7.629   2.491 -1.1493  0.2012 -0.1457
    1CHTO   C52  279   7.628   7.658   2.304 -0.2880 -0.1552  0.0502
    1CHTO   O35  280   7.585   7.673   2.141  0.2386  0.3088  0.0279
    1CHTO   H71  281   7.502   7.715   2.146  0.2694  0.1435  3.0866
    1CHTO   O28  282   7.305   7.955   2.451  0.2643 -0.4950  0.1556
    1CHTO   C42  283   7.321   8.045   2.332  0.2491 -1.0638  0.4491
    1CHTO   H84  284   7.314   7.976   2.248 -2.4053 -0.0135 -0.2276
    1CHTO   C44  285   7.453   8.118   2.320 -0.4139  0.0628 -0.4039
    1CHTO   H86  286   7.466   8.187   2.404 -1.4689 -0.0885 -0.1170
    1CHTO   O32  287   7.562   8.023   2.333  0.5393  0.7434 -0.0750
    1CHTO   H69  288   7.538   7.935   2.312 -2.4242  1.2681  0.8968
    1CHTO   C48  289   7.469   8.210   2.193 -0.4671 -0.4795 -0.1440
    1CHTO   H90  290   7.473   8.147   2.104 -0.4843 -0.8928  0.1485
    1CHTO    N9  291   7.600   8.286   2.188 -0.7972 -0.3090  0.0620
    1CHTO   H77  292   7.593   8.382   2.139 -3.7911 -0.6049 -0.1692
    1CHTO   H78  293   7.637   8.295   2.289 -0.0747  1.7018 -0.3666
    1CHTO   C51  294   7.342   8.305   2.167 -0.0453  0.8072 -0.3272
    1CHTO   H93  295   7.343   8.397   2.226  1.5113  2.0020 -2.1346
    1CHTO   O30  296   7.227   8.223   2.185 -0.4453  0.3838  0.9378
    1CHTO   C46  297   7.204   8.153   2.311 -0.1944  0.6634 -0.8063
    1CHTO   H88  298   7.203   8.228   2.389 -4.2363  0.5546 -0.6877
    1CHTO   C53  299   7.069   8.089   2.310  0.0351 -0.4746  0.5612
    1CHTO   O72  300   6.960   8.183   2.291 -0.0929  0.1734  0.5180
    1CHTO  H199  301   6.951   8.215   2.203 -2.2751  2.2143  1.4243
    1CHTO   O22  302   7.342   8.332   2.020 -0.2660  0.0179 -0.0413
    1CHTO   C31  303   7.227   8.411   1.969 -0.5062  0.2383 -0.0929
    1CHTO   H59  304   7.154   8.420   2.052 -1.4089  0.0139 -0.8542
    1CHTO   C29  305   7.267   8.560   1.923  0.6385  0.6972 -0.2358
    1CHTO   H57  306   7.361   8.559   1.867  1.6391  0.3978  1.4022
    1CHTO   O21  307   7.305   8.618   2.053  0.5804  0.1101 -0.0644
    1CHTO   H37  308   7.397   8.632   2.061  0.1780  2.5108  0.8036
    1CHTO   C27  309   7.148   8.631   1.851 -0.5463 -0.2840 -0.0108
    1CHTO   H55  310   7.063   8.650   1.918 -0.2754 -0.6238  0.4301
    1CHTO    N5  311   7.201   8.760   1.804  0.2544  0.7781 -0.7602
    1CHTO   H43  312   7.307   8.776   1.814  0.8494 -0.0996 -4.7484
    1CHTO   H44  313   7.148   8.837   1.857  1.0043  0.2710  0.7354
    1CHTO   C25  314   7.084   8.542   1.744 -0.2648 -0.4985  0.2603
    1CHTO   H53  315   7.158   8.506   1.670 -0.6456 -0.5954 -0.0762
    1CHTO   O17  316   7.039   8.412   1.802  0.5492 -0.2149  0.0701
    1CHTO   C32  317   7.150   8.340   1.852  0.3012 -0.0249 -0.8767
    1CHTO   H60  318   7.225   8.313   1.777  0.2806 -1.5613 -0.3681
    1CHTO   C36  319   7.101   8.195   1.894  0.5383  0.4200 -0.1636
    1CHTO   O25  320   7.038   8.129   1.782  0.4142  0.0979 -0.6705
    1CHTO   H40  321   7.009   8.047   1.816 -0.7641  0.8240  0.0956
    1CHTO   O15  322   6.970   8.613   1.665  1.1153  1.0142  0.6913
    1CHTO   C19  323   6.917   8.565   1.540  0.3000  0.1761  0.3326
    1CHTO   H47  324   6.845   8.643   1.513 -0.0112 -0.7062 -1.4642
    1CHTO   C20  325   7.025   8.548   1.427 -0.1709  0.5189  0.3143
    1CHTO   H48  326   7.112   8.493   1.464  0.5180  1.6191  0.3409
    1CHTO   O19  327   7.070   8.684   1.387 -0.2298 -0.1062  0.1060
    1CHTO   H35  328   7.134   8.673   1.320  1.2584 -2.0636  1.8169
    1CHTO   C21  329   6.970   8.474   1.299 -0.3712  0.1805 -0.6648
    1CHTO   H49  330   6.895   8.537   1.250 -0.7071 -0.0867 -0.4947
    1CHTO    N4  331   7.076   8.442   1.199  0.0664  0.2543  0.3777
    1CHTO   H41  332   7.177   8.456   1.233  0.3415 -0.4773 -0.1285
    1CHTO   H42  333   7.056   8.510   1.118  0.1094  1.7111  1.5699
    1CHTO   C22  334   6.888   8.347   1.348 -0.9883 -0.6726  0.1782
    1CHTO   H50  335   6.957   8.280   1.399  0.1710 -1.1559 -1.9640
    1CHTO   O14  336   6.788   8.388   1.435  0.9397 -0.7531 -0.8627
    1CHTO   C23  337   6.831   8.440   1.560  0.1402 -0.1316  0.2793
    1CHTO   H51  338   6.884   8.364   1.619 -1.8722 -0.8626  1.1595
    1CHTO   C34  339   6.699   8.458   1.634 -0.1407 -0.0338 -0.4226
    1CHTO   O23  340   6.705   8.502   1.772 -0.5646  0.1274 -0.0283
    1CHTO   H38  341   6.781   8.555   1.788 -1.2247  0.1819  3.1656
    1CHTO   O16  342   6.817   8.267   1.245  0.4716  0.1522 -0.0564
    1CHTO   C24  343   6.892   8.141   1.174  0.4354 -0.2860 -0.1329
    1CHTO   H52  344   7.000   8.137   1.192  0.0005 -1.1474  2.4862
    1CHTO   C26  345   6.870   8.128   1.017 -0.0343  0.4384 -0.6365
    1CHTO   H54  346   6.762   8.111   1.000  0.1711 -1.8202  0.0794
    1CHTO   O20  347   6.920   8.250   0.957  0.2575  0.1553  1.0644
    1CHTO   H36  348   6.926   8.253   0.863 -1.2387  2.0196  0.9758
    1CHTO   C30  349   6.942   7.998   0.959 -0.3815 -0.0747 -0.5106
    1CHTO   H58  350   7.051   7.997   0.971 -0.4776 -1.3885  0.2468
    1CHTO    N6  351   6.923   7.988   0.810  0.0636  0.3990 -0.8165
    1CHTO   H45  352   6.820   8.004   0.780 -0.4913  0.1894  0.9334
    1CHTO   H46  353   6.953   7.886   0.789 -0.2306  0.1141  0.1200
    1CHTO   C33  354   6.892   7.871   1.036 -0.3346  0.0123 -0.0587
    1CHTO   H61  355   6.786   7.852   1.016 -0.5732  0.8153  0.4470
    1CHTO   O18  356   6.915   7.899   1.177 -0.3868  0.4581 -0.0227
    1CHTO   C28  357   6.841   8.007   1.236  0.3295  0.9488  0.4182
    1CHTO   H56  358   6.734   7.992   1.224  0.6748  0.0109 -1.6205
    1CHTO   C35  359   6.867   7.999   1.393 -0.3763  0.0226  0.9970
    1CHTO   O24  360   6.851   7.877   1.467  0.1574 -0.1941  0.3656
    1CHTO   H39  361   6.763   7.851   1.450  0.1116 -1.0296  1.7614
    1CHTO    O9  362   6.970   7.756   0.992 -0.4955 -0.0276  0.1934
    1CHTO   C13  363   6.941   7.631   1.047 -0.1823  0.1657 -0.2255
    1CHTO   H26  364   6.881   7.643   1.140  2.4250 -1.6889  1.8012
    1CHTO   C11  365   7.079   7.549   1.078  0.2695 -0.1860 -0.1402
    1CHTO   H24  366   7.128   7.594   1.165  1.5755 -0.4631 -0.7320
    1CHTO    O8  367   7.174   7.549   0.968  0.2688 -0.6409  0.0055
    1CHTO    H3  368   7.208   7.636   0.962 -0.0953 -0.5896 -1.6318
    1CHTO    C9  369   7.040   7.405   1.129 -0.1277 -0.2066  0.2392
    1CHTO   H22  370   6.974   7.425   1.215 -0.8848 -0.7191 -0.2145
    1CHTO    N2  371   7.147   7.325   1.187  0.0755 -0.4557 -0.2955
    1CHTO   H10  372   7.165   7.235   1.130  1.2853  0.1536 -0.9123
    1CHTO   H11  373   7.243   7.374   1.190  1.0437 -2.3065 -0.1089
    1CHTO    C7  374   6.971   7.325   1.012  0.1836 -0.7222  0.0306
    1CHTO   H20  375   6.946   7.221   1.043  1.1457 -0.6682  1.0245
    1CHTO    O4  376   6.848   7.398   0.978  0.1443 -0.4349  0.5158
    1CHTO   C14  377   6.851   7.539   0.952 -0.3400  0.2809  0.5178
    1CHTO   H27  378   6.745   7.566   0.967 -0.6924  0.3109 -1.8804
    1CHTO   C18  379   6.880   7.552   0.796  0.7448  0.0784 -0.1954
    1CHTO   O13  380   6.773   7.483   0.728  0.6786 -0.0841 -0.0649
    1CHTO    H7  381   6.693   7.524   0.755 -0.2324 -1.1875 -1.0199
    1CHTO    O2  382   7.072   7.302   0.878 -0.3002 -0.3017  0.0171
    1CHTO    C1  383   7.101   7.174   0.822  0.4763  0.5786 -0.5778
    1CHTO   H14  384   7.138   7.185   0.718 -1.0317 -2.5873 -1.5079
    1CHTO    C2  385   6.986   7.073   0.823  0.1946 -0.1407 -0.1648
    1CHTO   H15  386   6.954   7.047   0.924  0.7917 -0.9890 -0.1924
    1CHTO    O6  387   6.884   7.146   0.753 -0.2965 -0.0359  0.2464
    1CHTO    H1  388   6.836   7.085   0.700  0.9646 -0.7643 -0.0606
    1CHTO    C3  389   7.048   6.952   0.744  0.6868  0.0781  0.5400
    1CHTO   H16  390   7.094   6.995   0.653 -1.9067 -3.6595 -2.6686
    1CHTO    N1  391   6.950   6.848   0.698  0.0375  0.5120  0.0753
    1CHTO    H8  392   6.943   6.848   0.590 -0.3778  1.0838  0.0956
    1CHTO    H9  393   6.978   6.747   0.724  0.5189  0.2519 -1.3774
    1CHTO    C4  394   7.175   6.890   0.822 -0.3533 -0.0011 -0.3958
    1CHTO   H17  395   7.140   6.855   0.919  0.2236  0.3029 -0.0746
    1CHTO    O1  396   7.274   6.990   0.846 -0.5114  0.1600 -0.0081
    1CHTO    C5  397   7.224   7.115   0.901 -0.1531  0.2816 -0.1092
    1CHTO   H18  398   7.192   7.084   1.000 -0.9757  1.2383 -0.0726
    1CHTO   C16  399   7.353   7.208   0.904 -0.5360 -0.0489  0.2499
    1CHTO   O11  400   7.468   7.149   0.964 -0.4094 -0.2214  0.0749
    1CHTO    H5  401   7.512   7.107   0.893  0.0300  0.0059  0.2151
    1CHTO    O3  402   7.229   6.787   0.736 -0.0134  0.9290 -0.1643
    1CHTO    C6  403   7.315   6.693   0.805  0.1905  0.1266  0.4214
    1CHTO   H19  404   7.342   6.730   0.904 -0.6446 -0.9803  1.0817
    1CHTO    C8  405   7.234   6.551   0.813  0.3537  0.0308  0.8833
    1CHTO   H21  406   7.198   6.528   0.714  0.7994 -0.4964  0.8404
    1CHTO    O7  407   7.111   6.564   0.897 -0.2680  0.0602  0.2351
    1CHTO    H2  408   7.065   6.484   0.915  1.3580 -0.9393 -0.0219
    1CHTO   C12  409   7.331   6.432   0.858  0.5612 -0.3576  0.0316
    1CHTO   H25  410   7.349   6.457   0.965  0.5898 -0.1908 -0.0117
    1CHTO    N3  411   7.261   6.300   0.851 -0.0916  0.0236  0.3769
    1CHTO   H12  412   7.254   6.266   0.954  2.7281 -0.1229  0.5697
    1CHTO   H13  413   7.335   6.237   0.805 -0.3955  1.1742 -1.7621
    1CHTO   C15  414   7.472   6.437   0.791  0.9601  0.9151  0.1666
    1CHTO   H28  415   7.455   6.406   0.688 -2.0850  0.4789  0.7662
    1CHTO   O10  416   7.577   6.359   0.866 -0.0615 -0.3983 -0.4301
    1CHTO    H4  417   7.665   6.370   0.836 -0.3755  2.9459 -0.3214
    1CHTO    O5  418   7.528   6.567   0.792 -0.0149  0.0149 -0.0813
    1CHTO   C10  419   7.446   6.665   0.727 -0.2687 -0.3581 -0.2010
    1CHTO   H23  420   7.420   6.616   0.633  0.4856 -0.2781 -0.4552
    1CHTO   C17  421   7.523   6.795   0.708 -0.4334 -0.6574 -0.1149
    1CHTO   O12  422   7.616   6.791   0.598 -0.5095  0.0846  1.0600
    1CHTO    H6  423   7.566   6.801   0.519  0.7955  0.4972  0.2906
    2CHTO  H203  424   6.805   4.923  -0.592 -0.2406 -0.3273  0.0609
    2CHTO   O82  425   6.801   5.013  -0.566  0.6283 -0.1079 -0.5241
    2CHTO  C123  426   6.669   5.039  -0.509 -0.6141  0.4005 -0.5015
    2CHTO  H227  427   6.661   5.146  -0.486 -1.9109  0.4500 -1.1628
    2CHTO   O77  428   6.566   5.017  -0.618 -0.2119  0.2829  0.3841
    2CHTO  C118  429   6.437   5.048  -0.576 -0.0075  0.0587  0.1649
    2CHTO  H222  430   6.437   5.151  -0.539 -1.7703  0.1830 -0.1478
    2CHTO  C125  431   6.340   5.043  -0.699  0.3195  0.3643  0.2778
    2CHTO   O84  432   6.370   5.148  -0.787  0.5510 -0.0039  0.3611
    2CHTO  H205  433   6.381   5.108  -0.871 -1.4410 -0.6612  0.3802
    2CHTO  C114  434   6.390   4.948  -0.466 -0.1494  0.4013  0.1241
    2CHTO  H218  435   6.381   4.848  -0.509 -1.9567 -0.4947  2.4469
    2CHTO  C116  436   6.488   4.953  -0.344 -0.2533 -0.0072  0.1628
    2CHTO  H220  437   6.471   5.050  -0.292  0.1913  0.3704 -0.3887
    2CHTO   O79  438   6.451   4.845  -0.257  0.2162 -0.2740  0.5467
    2CHTO  H201  439   6.376   4.876  -0.209  0.5526 -1.5910  1.9627
    2CHTO  C120  440   6.638   4.941  -0.389 -0.3262 -0.3909  0.1270
    2CHTO  H224  441   6.645   4.835  -0.421 -1.8495 -0.3914 -0.2392
    2CHTO   N21  442   6.736   4.969  -0.279 -0.7451 -0.2864 -0.2123
    2CHTO  H211  443   6.769   4.878  -0.230  1.1672  0.8762  0.7374
    2CHTO  H212  444   6.690   5.042  -0.214 -1.1159 -0.8979  0.2143
    2CHTO   O75  445   6.261   5.001  -0.440  0.0785  0.4466  0.2389
    2CHTO  C112  446   6.127   4.898  -0.383 -0.4352 -0.6054  0.3286
    2CHTO  H216  447   6.167   4.808  -0.334  2.0094  0.2386 -0.0843
    2CHTO   O73  448   6.046   4.863  -0.500 -0.0981  0.0996  0.1572
    2CHTO  C113  449   5.933   4.787  -0.468  0.4208  0.0561  0.3893
    2CHTO  H217  450   5.961   4.692  -0.416  0.9928  0.1117  0.1864
    2CHTO  C124  451   5.868   4.745  -0.597 -0.1364 -0.1778 -0.0531
    2CHTO   O83  452   5.779   4.639  -0.570 -0.0188 -0.0518 -0.8509
    2CHTO  H204  453   5.692   4.671  -0.560  0.3074  0.9495 -1.1887
    2CHTO  C109  454   5.837   4.873  -0.386  0.2500  0.4150  0.2768
    2CHTO  H213  455   5.808   4.960  -0.446  0.5932  0.0044 -0.4788
    2CHTO  C110  456   5.905   4.923  -0.255  0.8040  0.5298 -0.3351
    2CHTO  H214  457   5.910   4.845  -0.179 -0.5490 -0.3945 -1.1989
    2CHTO   O78  458   5.818   5.022  -0.202  0.3335  0.0251  0.2994
    2CHTO  H200  459   5.834   5.108  -0.237 -0.9944  0.5792  1.0124
    2CHTO  C111  460   6.044   4.985  -0.278 -0.4389 -0.4451 -0.3462
    2CHTO  H215  461   6.032   5.080  -0.331 -0.8361  0.4609  1.3449
    2CHTO   N19  462   6.122   5.015  -0.157 -0.0914 -0.0967  0.0743
    2CHTO  H207  463   6.134   4.926  -0.097 -0.5380 -0.9570 -1.1151
    2CHTO  H208  464   6.062   5.085  -0.101  1.1764  1.4198 -0.4310
    2CHTO   O74  465   5.717   4.791  -0.352  0.2321  0.0218 -0.4363
    2CHTO  C115  466   5.577   4.839  -0.424  0.2196  0.5976  0.2863
    2CHTO  H219  467   5.589   4.938  -0.466  3.1515 -0.1449 -0.6923
    2CHTO   O76  468   5.536   4.749  -0.543 -0.1006  0.1228 -0.1272
    2CHTO  C122  469   5.440   4.642  -0.527  0.6458 -0.1678  0.0512
    2CHTO  H226  470   5.488   4.563  -0.470  1.2386  0.2815  0.1799
    2CHTO  C126  471   5.399   4.578  -0.658 -0.4715 -0.2428  0.3793
    2CHTO   O85  472   5.330   4.455  -0.636 -0.1241 -0.4078  0.8253
    2CHTO  H206  473   5.256   4.444  -0.693 -0.3963 -2.4291  1.5687
    2CHTO  C121  474   5.310   4.689  -0.443 -0.0874  0.0117 -0.5227
    2CHTO  H225  475   5.224   4.691  -0.513  0.0764 -0.6765 -0.7463
    2CHTO   O81  476   5.282   4.584  -0.351 -0.1632  0.8939 -0.3125
    2CHTO  H202  477   5.363   4.550  -0.318  1.4732  1.9694 -3.0354
    2CHTO  C119  478   5.330   4.826  -0.382  1.0030 -0.2598  0.2728
    2CHTO  H223  479   5.318   4.892  -0.467 -0.2439 -1.9534 -0.8889
    2CHTO  C117  480   5.470   4.843  -0.315  0.3249  0.2481  0.8284
    2CHTO  H221  481   5.495   4.769  -0.239 -1.5136 -1.0910  0.1665
    2CHTO   N20  482   5.468   4.983  -0.256  0.2084 -0.2396 -0.5728
    2CHTO  H209  483   5.465   5.051  -0.339 -1.7460 -0.5906 -0.8286
    2CHTO  H210  484   5.554   4.987  -0.191 -2.9297 -1.4920  4.0070
    2CHTO   O80  485   5.208   4.860  -0.302  0.0810  0.3575 -0.4458
    2CHTO  C103  486   5.063   4.906  -0.390  0.0014  0.2844 -0.1559
    2CHTO  H190  487   5.087   4.901  -0.496 -2.8685  1.4679 -0.9267
    2CHTO  C101  488   4.938   4.819  -0.356  0.5577 -0.6776 -0.6888
    2CHTO  H188  489   4.922   4.817  -0.248 -0.1611 -0.0302 -0.7813
    2CHTO   O68  490   4.967   4.690  -0.390 -0.1290  0.2775  0.2343
    2CHTO  H168  491   4.897   4.642  -0.350 -1.7894  2.4434  0.0181
    2CHTO   C99  492   4.793   4.872  -0.420 -0.9512  0.2512 -0.3484
    2CHTO  H186  493   4.797   4.874  -0.531 -0.4187  2.1515 -0.3041
    2CHTO   N17  494   4.671   4.795  -0.377  0.1014  0.0741 -0.2379
    2CHTO  H174  495   4.677   4.688  -0.363  0.5851  0.2507  0.9374
    2CHTO  H175  496   4.592   4.818  -0.447 -0.3161  0.8124  0.4625
    2CHTO   C97  497   4.786   5.020  -0.384  0.6088 -0.1885 -0.2681
    2CHTO  H184  498   4.766   5.030  -0.276  1.9081 -0.4124 -0.0039
    2CHTO   O64  499   4.905   5.097  -0.420 -0.7068 -0.3370 -0.0673
    2CHTO  C104  500   5.029   5.059  -0.356 -0.2131  0.0500  0.2505
    2CHTO  H191  501   5.026   5.080  -0.249  0.5290 -1.6548  0.6293
    2CHTO  C108  502   5.155   5.140  -0.404  0.1021 -0.1644  0.3968
    2CHTO   O71  503   5.161   5.272  -0.350  0.1429 -0.6080 -0.2413
    2CHTO  H171  504   5.085   5.325  -0.363  0.7747  0.3161 -0.1642
    2CHTO   O62  505   4.679   5.094  -0.450  0.3280 -0.1486 -0.2842
    2CHTO   C91  506   4.648   5.222  -0.408 -0.8371  0.2242  0.7091
    2CHTO  H178  507   4.679   5.237  -0.304  0.8491 -0.2654  0.2967
    2CHTO   C92  508   4.489   5.236  -0.410  0.0251 -0.1601  0.3213
    2CHTO  H179  509   4.449   5.158  -0.344 -0.8537  0.4930  0.5726
    2CHTO   O66  510   4.463   5.362  -0.345  0.2722 -0.2995 -0.5877
    2CHTO  H166  511   4.371   5.375  -0.338  0.3819  0.7583 -1.0890
    2CHTO   C93  512   4.431   5.235  -0.552 -0.4360  0.2391  0.7199
    2CHTO  H180  513   4.335   5.288  -0.550  0.3460  1.6585  0.7852
    2CHTO   N16  514   4.401   5.099  -0.606  0.1897  0.0909 -0.3933
    2CHTO  H172  515   4.410   5.099  -0.714 -0.4385  1.6107 -0.4708
    2CHTO  H173  516   4.300   5.074  -0.576  1.1744 -1.1100  2.0287
    2CHTO   C94  517   4.533   5.314  -0.651  0.3927  1.1109  0.5249
    2CHTO  H181  518   4.583   5.245  -0.719  0.9446  1.2772  0.7586
    2CHTO   O61  519   4.624   5.403  -0.587  0.0537 -0.0115 -0.1366
    2CHTO   C95  520   4.719   5.325  -0.509  0.2630 -0.2360  0.3194
    2CHTO  H182  521   4.776   5.270  -0.584  1.3487  2.4065 -0.8337
    2CHTO  C106  522   4.806   5.430  -0.430 -0.0399 -0.9635  0.1658
    2CHTO   O69  523   4.886   5.357  -0.335 -0.0193 -0.8635 -0.0529
    2CHTO  H169  524   4.954   5.418  -0.313  3.3111 -3.2863 -2.9504
    2CHTO   O63  525   4.448   5.384  -0.737 -0.1148  0.3185  0.0580
    2CHTO   C96  526   4.394   5.536  -0.678 -0.1276  0.3554  0.4301
    2CHTO  H183  527   4.414   5.544  -0.572  0.9617 -0.5613  0.3075
    2CHTO   C98  528   4.244   5.559  -0.699  0.5240  0.9252  0.2097
    2CHTO  H185  529   4.221   5.548  -0.806  0.7023 -1.5662  0.3968
    2CHTO   O67  530   4.177   5.450  -0.630  0.4281  0.8042 -0.6470
    2CHTO  H167  531   4.206   5.435  -0.542  1.7030  0.1924 -1.1639
    2CHTO  C102  532   4.207   5.701  -0.632 -0.6256 -0.2390 -0.3799
    2CHTO  H189  533   4.251   5.693  -0.532  0.3108 -3.9556 -1.0057
    2CHTO   N18  534   4.069   5.735  -0.617 -0.3958  0.0791  0.1125
    2CHTO  H176  535   4.033   5.816  -0.679 -2.1523  2.0447  3.5181
    2CHTO  H177  536   4.006   5.652  -0.644 -0.2024  0.0037 -0.1002
    2CHTO  C105  537   4.284   5.809  -0.713  0.2681  0.2005 -0.5366
    2CHTO  H192  538   4.249   5.799  -0.816 -0.0959 -1.8265 -0.2269
    2CHTO   O65  539   4.424   5.786  -0.698 -0.8590  0.0922  0.2742
    2CHTO  C100  540   4.463   5.658  -0.756 -1.4737  0.0224 -0.4156
    2CHTO  H187  541   4.429   5.654  -0.861  1.5254  0.2093 -1.4563
    2CHTO  C107  542   4.621   5.656  -0.759 -0.3674  0.4773  0.0727
    2CHTO   O70  543   4.668   5.567  -0.861 -0.1649 -0.1159 -0.0077
    2CHTO  H170  544   4.643   5.596  -0.947 -0.0385  1.0258  0.3317
    2CHTO   O57  545   4.249   5.969  -0.643  0.2583 -0.2434 -0.2467
    2CHTO   C85  546   4.196   6.061  -0.738  0.2478  0.0165 -0.5917
    2CHTO  H157  547   4.123   5.997  -0.791  0.5997 -0.2386 -0.7760
    2CHTO   C83  548   4.299   6.107  -0.838  0.1152  0.3880 -0.4470
    2CHTO  H155  549   4.326   6.018  -0.896 -1.4946  0.1088 -0.7759
    2CHTO   O56  550   4.419   6.141  -0.775  0.2483 -0.1525 -0.0246
    2CHTO  H135  551   4.450   6.072  -0.720  0.2765 -1.5851 -1.7946
    2CHTO   C81  552   4.245   6.204  -0.945  0.0631 -0.3647 -0.6313
    2CHTO  H153  553   4.162   6.152  -0.994  1.1027 -1.6076 -1.0771
    2CHTO   N14  554   4.337   6.233  -1.060 -0.2142 -0.3854 -0.2383
    2CHTO  H141  555   4.353   6.338  -1.075  0.5278 -0.5963 -0.9692
    2CHTO  H142  556   4.433   6.191  -1.039  2.0034  2.6114 -3.6781
    2CHTO   C79  557   4.196   6.327  -0.864  0.0630  0.3048  0.6810
    2CHTO  H151  558   4.142   6.389  -0.936  0.7364  0.7851  0.5873
    2CHTO   O52  559   4.093   6.282  -0.777 -0.0004  0.4408  0.5796
    2CHTO   C86  560   4.135   6.191  -0.678 -0.1893  0.5917  0.0174
    2CHTO  H158  561   4.205   6.249  -0.615 -2.3292  5.4265 -1.7633
    2CHTO   C90  562   4.015   6.153  -0.582  0.3128  0.1431 -0.1720
    2CHTO   O60  563   3.981   6.261  -0.499 -0.0385 -0.2748 -0.7836
    2CHTO  H138  564   3.904   6.256  -0.446 -1.1408 -1.4551 -2.4437
    2CHTO   O50  565   4.307   6.393  -0.800  0.6481  0.0344  0.0722
    2CHTO   C73  566   4.329   6.525  -0.746 -0.4264 -0.1611 -0.4039
    2CHTO  H145  567   4.242   6.563  -0.690 -0.5603  0.5796 -1.1108
    2CHTO   C74  568   4.346   6.631  -0.858  0.2928 -0.3326  0.1314
    2CHTO  H146  569   4.254   6.621  -0.918  0.3292 -4.2410  0.5812
    2CHTO   O54  570   4.357   6.759  -0.791  0.4133  0.5608 -0.3631
    2CHTO  H133  571   4.322   6.824  -0.848 -0.4129 -0.6652 -1.2853
    2CHTO   C75  572   4.469   6.590  -0.943 -0.3913 -0.3513  0.5584
    2CHTO  H147  573   4.444   6.503  -1.007 -1.1144 -1.9216  2.9089
    2CHTO   N13  574   4.498   6.694  -1.048 -0.3540 -0.1194 -0.0313
    2CHTO  H139  575   4.453   6.785  -1.012  0.5368  0.7089 -0.9928
    2CHTO  H140  576   4.605   6.694  -1.059 -0.4381 -0.8982 -0.8492
    2CHTO   C76  577   4.593   6.561  -0.838 -0.1823 -0.2367  0.1066
    2CHTO  H148  578   4.649   6.653  -0.821  0.3005 -0.5002 -0.0644
    2CHTO   O49  579   4.566   6.479  -0.721  0.1363 -1.0868  0.1825
    2CHTO   C77  580   4.450   6.522  -0.649 -0.1203  0.3150  0.0910
    2CHTO  H149  581   4.480   6.618  -0.609 -0.7361  0.2377  0.7385
    2CHTO   C88  582   4.433   6.433  -0.525  0.4173  0.1570  0.1426
    2CHTO   O58  583   4.290   6.456  -0.453 -0.4258  0.8198  0.9033
    2CHTO  H136  584   4.230   6.468  -0.523 -0.2016 -0.1162  0.5444
    2CHTO   O51  585   4.682   6.457  -0.945  0.1489 -0.5667 -0.6076
    2CHTO   C78  586   4.810   6.399  -0.884 -0.8203 -0.0316  0.6843
    2CHTO  H150  587   4.787   6.369  -0.780 -1.9455 -3.3194 -0.4613
    2CHTO   C80  588   4.930   6.500  -0.891 -0.6447  0.6543 -0.8917
    2CHTO  H152  589   4.961   6.516  -0.997 -0.9298 -1.9769 -1.3872
    2CHTO   O55  590   4.896   6.624  -0.830  0.1471  0.3181 -0.3503
    2CHTO  H134  591   4.841   6.678  -0.885  1.2224 -0.3020 -2.0682
    2CHTO   C84  592   5.052   6.432  -0.817 -0.4366  0.5023 -0.4874
    2CHTO  H156  593   5.025   6.425  -0.712  0.8191  0.9287 -0.1340
    2CHTO   N15  594   5.177   6.516  -0.822 -0.4182  0.4546  0.1339
    2CHTO  H143  595   5.194   6.567  -0.730  0.8818  0.1657  0.0720
    2CHTO  H144  596   5.266   6.462  -0.847 -1.8825 -1.5199 -0.9967
    2CHTO   C87  597   5.071   6.286  -0.872  0.6289  0.3196  0.4035
    2CHTO  H159  598   5.132   6.280  -0.962  1.6888  1.2739  1.0373
    2CHTO   O53  599   4.942   6.207  -0.908 -0.1556 -0.1849 -0.1114
    2CHTO   C82  600   4.835   6.273  -0.966  0.4768 -0.4048 -0.7398
    2CHTO  H154  601   4.856   6.302  -1.069 -0.0299 -0.1401 -0.7697
    2CHTO   C89  602   4.715   6.179  -0.967 -0.0680 -0.2488  0.1133
    2CHTO   O59  603   4.731   6.088  -1.076 -0.0855 -0.0338  0.3808
    2CHTO  H137  604   4.728   6.135  -1.156 -0.0503  2.0347  1.5608
    2CHTO   O45  605   5.150   6.200  -0.746  0.2670 -0.3179  0.0223
    2CHTO   C67  606   5.061   6.120  -0.664 -0.3346  0.3870  0.4389
    2CHTO  H124  607   4.956   6.147  -0.674  0.3572  3.2875  0.2768
    2CHTO   C65  608   5.080   5.969  -0.709 -0.0996  0.5412 -0.2712
    2CHTO  H122  609   5.182   5.964  -0.749 -0.6357 -1.3460 -1.4930
    2CHTO   O44  610   4.975   5.940  -0.808  1.0225 -0.1237  0.4968
    2CHTO  H102  611   5.008   5.892  -0.881  0.7264 -3.2195  2.3281
    2CHTO   C63  612   5.081   5.872  -0.581  0.0064 -0.5053  0.4172
    2CHTO  H120  613   5.175   5.879  -0.527 -0.5818 -1.0794  1.5403
    2CHTO   N11  614   5.072   5.719  -0.594 -0.4641  0.1140 -0.2985
    2CHTO  H108  615   5.157   5.701  -0.657 -2.0261 -1.1949 -2.1244
    2CHTO  H109  616   4.978   5.682  -0.629 -0.2447  0.8542 -1.6986
    2CHTO   C61  617   4.980   5.933  -0.471  0.0288 -0.0895  0.1650
    2CHTO  H118  618   5.005   5.868  -0.385  1.8403  0.7898  0.3276
    2CHTO   O40  619   5.015   6.070  -0.425 -0.1903 -0.2072  0.5247
    2CHTO   C68  620   5.107   6.144  -0.513  0.4356 -0.0082  0.4732
    2CHTO  H125  621   5.213   6.112  -0.503 -0.2516 -2.5194  0.0428
    2CHTO   C72  622   5.097   6.281  -0.466  0.7434 -0.2754  0.3345
    2CHTO   O48  623   5.132   6.320  -0.333 -0.1073  0.1785  0.8262
    2CHTO  H105  624   5.102   6.255  -0.273 -1.2057 -1.5374 -1.4870
    2CHTO   O38  625   4.837   5.929  -0.506 -0.6017  0.3306  0.4406
    2CHTO   C55  626   4.743   5.941  -0.401 -0.0406 -0.1779  0.1025
    2CHTO  H112  627   4.788   6.004  -0.324  0.2762 -0.9256  0.5287
    2CHTO   C56  628   4.702   5.802  -0.340  0.3331 -1.1328 -0.0102
    2CHTO  H113  629   4.684   5.729  -0.421  0.1924 -0.1519 -0.8762
    2CHTO   O42  630   4.817   5.752  -0.272 -0.2267 -0.0590 -0.0573
    2CHTO  H100  631   4.787   5.678  -0.221 -1.2105  0.1804 -0.2699
    2CHTO   C57  632   4.576   5.802  -0.246 -0.6158 -0.4461  0.9339
    2CHTO  H114  633   4.602   5.843  -0.149 -1.5555 -3.1563  2.3626
    2CHTO   N10  634   4.536   5.665  -0.210 -0.5793  0.8066 -0.5710
    2CHTO  H106  635   4.468   5.628  -0.286 -1.4241  2.2326 -0.5332
    2CHTO  H107  636   4.612   5.591  -0.189 -0.2337  0.6443 -2.3263
    2CHTO   C58  637   4.460   5.882  -0.297  0.8902 -0.4062 -0.0438
    2CHTO  H115  638   4.416   5.833  -0.386  1.3474  0.7823 -0.9286
    2CHTO   O37  639   4.516   6.012  -0.337 -0.0258 -0.0003 -0.0080
    2CHTO   C59  640   4.610   6.005  -0.449  0.2248 -0.5478  0.3201
    2CHTO  H116  641   4.565   5.953  -0.534  0.9492 -0.7677  0.0712
    2CHTO   C70  642   4.646   6.152  -0.493  0.1373 -0.3975  0.1296
    2CHTO   O46  643   4.700   6.158  -0.622 -0.2323 -0.2545  0.4275
    2CHTO  H103  644   4.666   6.095  -0.683 -2.1225 -1.4491  2.6049
    2CHTO   O39  645   4.343   5.903  -0.184  0.3446  0.1663  0.3313
    2CHTO   C60  646   4.222   5.950  -0.227  0.2283 -0.1564 -0.2290
    2CHTO  H117  647   4.231   5.969  -0.334  2.1495  2.6536  0.3913
    2CHTO   C62  648   4.105   5.856  -0.195 -0.0691 -0.4550 -0.4345
    2CHTO  H119  649   4.122   5.760  -0.247  0.3828  0.3331 -1.7612
    2CHTO   O43  650   4.122   5.832  -0.057  0.0134  0.0391 -0.1581
    2CHTO  H101  651   4.194   5.775  -0.036  1.5881  2.1137  0.1773
    2CHTO   C66  652   3.966   5.923  -0.229 -0.3134  0.2343 -0.1012
    2CHTO  H123  653   3.964   5.947  -0.335  1.4039  1.2626  0.0829
    2CHTO   N12  654   3.853   5.835  -0.190 -0.2410  0.2496 -0.3757
    2CHTO  H110  655   3.756   5.883  -0.195 -0.5833 -0.4390 -0.4703
    2CHTO  H111  656   3.859   5.746  -0.251 -0.7108  1.0949 -1.6669
    2CHTO   C69  657   3.955   6.057  -0.150  0.3031  0.4067  0.3325
    2CHTO  H126  658   3.964   6.040  -0.041  1.6174 -0.7880  0.0500
    2CHTO   O41  659   4.069   6.147  -0.188  0.5350 -0.1225 -0.2465
    2CHTO   C64  660   4.200   6.091  -0.153  0.2933 -0.7008 -0.6154
    2CHTO  H121  661   4.216   6.070  -0.045 -0.8500 -1.0301 -0.5007
    2CHTO   C71  662   4.308   6.198  -0.183  0.0754  0.7165  0.0116
    2CHTO   O47  663   4.268   6.333  -0.156  0.3657 -0.2996 -0.8619
    2CHTO  H104  664   4.238   6.349  -0.068 -0.1445  0.2274 -1.1292
    2CHTO   O34  665   3.812   6.131  -0.170  0.3170 -0.4365 -0.0988
    2CHTO   C49  666   3.732   6.238  -0.100  0.7175 -0.4484  0.1655
    2CHTO   H91  667   3.731   6.209   0.005 -3.0472  1.3527  0.7149
    2CHTO   C47  668   3.592   6.240  -0.161 -0.6402 -0.8148  0.3440
    2CHTO   H89  669   3.522   6.305  -0.105 -3.2994 -0.9934 -2.6058
    2CHTO   O33  670   3.555   6.098  -0.155 -0.4167 -0.1701 -0.8493
    2CHTO   H70  671   3.477   6.081  -0.205  0.0564  1.9410 -2.3830
    2CHTO   C45  672   3.598   6.305  -0.318 -0.1285  0.3314  0.2579
    2CHTO   H87  673   3.660   6.238  -0.380 -0.1239  2.1860 -1.7896
    2CHTO    N8  674   3.459   6.301  -0.368 -0.0770  0.3344  0.4650
    2CHTO   H75  675   3.392   6.332  -0.289  0.2703  0.0419  0.8807
    2CHTO   H76  676   3.438   6.202  -0.404 -1.2066  0.3746  1.0102
    2CHTO   C43  677   3.668   6.453  -0.318 -0.4778  0.5348 -0.2075
    2CHTO   H85  678   3.685   6.479  -0.423  0.6307 -1.4575 -0.5515
    2CHTO   O29  679   3.795   6.440  -0.246  0.0460  0.8425  0.5476
    2CHTO   C50  680   3.799   6.371  -0.114 -0.1296  0.2218  0.0364
    2CHTO   H92  681   3.906   6.359  -0.092 -0.1092  0.5291  0.1055
    2CHTO   C54  682   3.768   6.465   0.004  0.3771 -0.5392  0.1213
    2CHTO   O36  683   3.635   6.514   0.014  0.2761 -0.1575  0.2006
    2CHTO   H72  684   3.598   6.508   0.100 -0.7039  1.8037 -0.0369
    2CHTO   O27  685   3.585   6.563  -0.270 -0.1449 -0.1160  0.2631
    2CHTO   C37  686   3.553   6.697  -0.310 -0.5281  0.9085  0.2721
    2CHTO   H79  687   3.592   6.720  -0.410 -0.1011  0.6802  0.3859
    2CHTO   C38  688   3.402   6.721  -0.313 -0.9764  0.2536 -1.0000
    2CHTO   H80  689   3.359   6.683  -0.219 -2.0375 -3.6600 -2.9604
    2CHTO   O31  690   3.363   6.637  -0.425 -0.6758 -0.6771  0.3556
    2CHTO   H68  691   3.273   6.648  -0.449 -0.3259  0.5399 -0.4643
    2CHTO   C39  692   3.366   6.873  -0.335 -0.0883  0.3445  0.0873
    2CHTO   H81  693   3.400   6.888  -0.437 -0.4732  0.8956  0.0339
    2CHTO    N7  694   3.214   6.902  -0.342  0.2104  0.0754 -0.3293
    2CHTO   H73  695   3.178   6.961  -0.260 -1.0459 -2.1691  0.7657
    2CHTO   H74  696   3.161   6.808  -0.343  1.2108 -0.5021 -0.3692
    2CHTO   C40  697   3.448   6.965  -0.235 -0.2963  0.9930  0.3361
    2CHTO   H82  698   3.410   6.940  -0.136 -2.0451  2.0708 -0.0474
    2CHTO   O26  699   3.585   6.935  -0.252 -0.2781  0.4189 -0.6163
    2CHTO   C41  700   3.620   6.797  -0.218  0.3352 -0.8822  0.2272
    2CHTO   H83  701   3.583   6.776  -0.116 -1.0574  0.9720  0.1405
    2CHTO   C52  702   3.775   6.778  -0.230  0.3783 -0.3874  0.0482
    2CHTO   O35  703   3.856   6.890  -0.135 -0.3342 -0.4482 -0.1550
    2CHTO   H71  704   3.948   6.889  -0.154 -0.3779  2.8326 -1.0210
    2CHTO   O28  705   3.432   7.108  -0.257  0.0553  0.1353  0.2668
    2CHTO   C42  706   3.478   7.189  -0.151  0.1119 -0.0963  0.5110
    2CHTO   H84  707   3.469   7.288  -0.194 -0.8413 -0.8006 -0.9805
    2CHTO   C44  708   3.631   7.174  -0.111  0.3129  0.0744  0.0439
    2CHTO   H86  709   3.646   7.077  -0.064 -1.5062  0.6263  1.8228
    2CHTO   O32  710   3.711   7.203  -0.231 -0.3813  0.3391  0.1115
    2CHTO   H69  711   3.799   7.171  -0.222 -0.9136 -1.3763 -0.6364
    2CHTO   C48  712   3.670   7.282   0.009 -0.4414  0.5012  0.3646
    2CHTO   H90  713   3.665   7.384  -0.030 -3.2974 -0.0122 -0.7765
    2CHTO    N9  714   3.820   7.264   0.055 -0.6263  0.8209  0.3275
    2CHTO   H77  715   3.886   7.319  -0.010 -1.1866  1.7698  0.5463
    2CHTO   H78  716   3.853   7.161   0.058  0.6468  1.2117  0.1159
    2CHTO   C51  717   3.569   7.267   0.127  0.3343  0.4305 -0.3176
    2CHTO   H93  718   3.585   7.166   0.165  1.0482  0.1033 -1.4583
    2CHTO   O30  719   3.435   7.288   0.073  0.2542  0.6160  0.0620
    2CHTO   C46  720   3.384   7.187  -0.020 -0.3147  0.1135  0.3917
    2CHTO   H88  721   3.389   7.095   0.039 -2.1528  1.5685  2.9265
    2CHTO   C53  722   3.231   7.220  -0.052 -0.1924 -0.1230 -0.4077
    2CHTO   O72  723   3.167   7.251   0.071 -0.2546  0.1184  0.1559
    2CHTO  H199  724   3.074   7.245   0.062 -0.6395 -0.3050  3.6758
    2CHTO   O22  725   3.602   7.363   0.231  0.4139  0.4015  0.2408
    2CHTO   C31  726   3.546   7.359   0.370  0.5776 -0.0545 -0.2708
    2CHTO   H59  727   3.609   7.426   0.430  0.6934  0.3197 -0.8072
    2CHTO   C29  728   3.402   7.412   0.379  0.0757 -0.4682 -0.0230
    2CHTO   H57  729   3.361   7.392   0.279  1.0931 -2.6048 -0.0330
    2CHTO   O21  730   3.409   7.556   0.384 -0.2374 -0.3127  0.2624
    2CHTO   H37  731   3.327   7.593   0.357  0.8778  2.5945  0.6722
    2CHTO   C27  732   3.300   7.361   0.495 -0.6721  0.6846 -0.8779
    2CHTO   H55  733   3.313   7.424   0.584  0.4893  3.3123 -2.8534
    2CHTO    N5  734   3.155   7.375   0.463 -0.4401 -0.5013 -0.0334
    2CHTO   H43  735   3.117   7.291   0.406  0.3710 -0.8021 -0.1337
    2CHTO   H44  736   3.122   7.469   0.422 -2.3558 -2.1706 -2.4817
    2CHTO   C25  737   3.345   7.212   0.528 -0.0769 -0.1418  0.1309
    2CHTO   H53  738   3.317   7.159   0.436 -0.7461  0.8931 -0.2655
    2CHTO   O17  739   3.486   7.205   0.556  0.3284 -0.8924  0.4133
    2CHTO   C32  740   3.554   7.215   0.431 -0.0667 -0.0743 -0.4408
    2CHTO   H60  741   3.517   7.142   0.359  0.2965  0.9491 -1.6737
    2CHTO   C36  742   3.693   7.159   0.464  0.1551 -0.5446  0.3069
    2CHTO   O25  743   3.689   7.026   0.510  0.2081  0.1372 -0.1650
    2CHTO   H40  744   3.658   6.973   0.439  0.2088 -0.7353  0.4956
    2CHTO   O15  745   3.283   7.163   0.626  0.2634  0.2104 -0.7783
    2CHTO   C19  746   3.282   7.046   0.718  0.2729  0.3828  0.4279
    2CHTO   H47  747   3.180   7.013   0.697  0.1185  1.6550 -0.8888
    2CHTO   C20  748   3.380   6.932   0.680  0.2341  0.1968  0.0958
    2CHTO   H48  749   3.485   6.964   0.683 -0.3298  2.1131 -0.1763
    2CHTO   O19  750   3.346   6.891   0.548 -0.2147  0.1539 -0.0834
    2CHTO   H35  751   3.382   6.808   0.523 -1.3790 -0.3255 -0.2217
    2CHTO   C21  752   3.377   6.807   0.782  0.0992  0.4295  0.8819
    2CHTO   H49  753   3.280   6.758   0.773  0.4173  0.0993 -1.1374
    2CHTO    N4  754   3.490   6.709   0.759 -0.6772  0.0575  0.0424
    2CHTO   H41  755   3.525   6.704   0.657 -0.3247  2.4727  0.0127
    2CHTO   H42  756   3.467   6.611   0.799 -2.7698 -0.0634 -1.3687
    2CHTO   C22  757   3.377   6.858   0.930 -0.1824  0.0086 -0.3681
    2CHTO   H50  758   3.471   6.908   0.952 -1.0616  2.5203 -2.1612
    2CHTO   O14  759   3.275   6.962   0.950  0.0249  0.2313  0.1729
    2CHTO   C23  760   3.288   7.079   0.874  0.1913 -0.1955  0.5578
    2CHTO   H51  761   3.383   7.125   0.903  0.4630 -0.2459 -0.2309
    2CHTO   C34  762   3.170   7.173   0.923 -0.4100  0.4384 -0.3559
    2CHTO   O23  763   3.159   7.287   0.838 -0.0215  0.2970  0.0815
    2CHTO   H38  764   3.083   7.340   0.853  0.9330  1.9456 -0.8122
    2CHTO   O16  765   3.354   6.744   1.006  0.4879  0.3719 -0.1017
    2CHTO   C24  766   3.385   6.779   1.170 -0.0402 -0.0864 -0.3340
    2CHTO   H52  767   3.400   6.887   1.181  0.5332 -0.2722  0.8434
    2CHTO   C26  768   3.505   6.693   1.210 -0.2120  0.0531  0.2869
    2CHTO   H54  769   3.476   6.586   1.200  2.0414 -0.5176 -0.5402
    2CHTO   O20  770   3.614   6.718   1.122 -0.1072 -0.3505 -0.4607
    2CHTO   H36  771   3.663   6.638   1.119  1.3959  0.5008  0.2912
    2CHTO   C30  772   3.536   6.726   1.359 -0.4459 -0.3100  0.7769
    2CHTO   H58  773   3.593   6.819   1.367 -0.7119 -0.2994  3.0525
    2CHTO    N6  774   3.625   6.618   1.415 -0.5814  0.2253  0.2482
    2CHTO   H45  775   3.562   6.541   1.457 -0.3214  0.7269  1.5808
    2CHTO   H46  776   3.676   6.671   1.494  1.4678 -1.2013 -0.0907
    2CHTO   C33  777   3.412   6.737   1.458 -0.4365 -0.0686  0.3509
    2CHTO   H61  778   3.374   6.639   1.491 -2.7805 -0.1663 -2.4175
    2CHTO   O18  779   3.309   6.802   1.386  0.1763  0.9035 -0.6617
    2CHTO   C28  780   3.271   6.751   1.263  0.3338  0.1705  0.0240
    2CHTO   H56  781   3.257   6.643   1.270 -0.3431  0.1843 -0.9322
    2CHTO   C35  782   3.147   6.839   1.225 -0.2080  1.0718 -0.0289
    2CHTO   O24  783   3.092   6.781   1.105 -0.4510 -0.0024 -0.4936
    2CHTO   H39  784   3.161   6.750   1.049 -0.6386 -0.2694 -0.5785
    2CHTO    O9  785   3.446   6.808   1.577  0.2010 -0.0222 -0.3682
    2CHTO   C13  786   3.321   6.840   1.683  0.4151  0.2135  0.3952
    2CHTO   H26  787   3.246   6.759   1.675  1.7684 -1.0892  0.5783
    2CHTO   C11  788   3.259   6.981   1.663 -0.6647 -0.4391  0.4718
    2CHTO   H24  789   3.207   6.967   1.567  3.8352  0.0926 -2.1902
    2CHTO    O8  790   3.358   7.079   1.641 -0.0675 -0.3487  0.2461
    2CHTO    H3  791   3.333   7.126   1.564  2.1605  0.3529 -0.0626
    2CHTO    C9  792   3.163   7.017   1.775 -0.3655  0.3815 -0.1688
    2CHTO   H22  793   3.092   6.933   1.772  1.7747 -1.5185  0.6320
    2CHTO    N2  794   3.085   7.141   1.751  0.7818 -0.1330  0.6242
    2CHTO   H10  795   2.980   7.126   1.731  0.8717  0.6817 -0.5023
    2CHTO   H11  796   3.129   7.198   1.670 -3.3283  0.5917 -1.2052
    2CHTO    C7  797   3.238   7.025   1.917 -0.2641 -0.0608  0.1623
    2CHTO   H20  798   3.155   7.036   1.991 -0.3735 -2.4855  0.4514
    2CHTO    O4  799   3.286   6.890   1.931  0.0423  0.3851 -0.2197
    2CHTO   C14  800   3.371   6.833   1.833  0.1683 -0.1233  0.6888
    2CHTO   H27  801   3.367   6.725   1.858  0.9820 -0.9042 -2.3866
    2CHTO   C18  802   3.515   6.885   1.859 -0.1316  0.4826 -0.5444
    2CHTO   O13  803   3.585   6.837   1.974  0.2496  0.1873 -0.1105
    2CHTO    H7  804   3.672   6.871   1.983  0.2503 -0.1215  1.1695
    2CHTO    O2  805   3.368   7.135   1.923  0.5274 -0.1916 -0.6652
    2CHTO    C1  806   3.387   7.203   2.049 -0.6560 -0.7527 -0.6266
    2CHTO   H14  807   3.416   7.137   2.133 -0.4097 -0.3872 -0.4222
    2CHTO    C2  808   3.263   7.298   2.092 -0.2814 -0.4544 -0.3951
    2CHTO   H15  809   3.243   7.344   1.995 -0.8507  1.4505  0.6016
    2CHTO    O6  810   3.148   7.222   2.134 -0.0071 -0.3740 -0.2004
    2CHTO    H1  811   3.106   7.173   2.066  1.1115 -0.8219 -0.5805
    2CHTO    C3  812   3.302   7.416   2.192 -0.4017  0.6304  0.1718
    2CHTO   H16  813   3.305   7.360   2.287  1.6975 -0.4451 -0.5080
    2CHTO    N1  814   3.204   7.523   2.196  0.5097  0.3202 -1.0262
    2CHTO    H8  815   3.106   7.497   2.234  1.3024  0.1418  0.9778
    2CHTO    H9  816   3.250   7.599   2.258  1.9631 -0.2857 -1.3415
    2CHTO    C4  817   3.446   7.472   2.159 -1.2579 -0.0262 -0.3391
    2CHTO   H17  818   3.435   7.542   2.076 -1.4577  1.6494  1.0582
    2CHTO    O1  819   3.543   7.365   2.149  0.0164 -0.1344  0.0174
    2CHTO    C5  820   3.516   7.290   2.033  0.0288  1.0279  1.0253
    2CHTO   H18  821   3.483   7.349   1.947 -0.4890 -1.8483 -0.8215
    2CHTO   C16  822   3.649   7.211   1.992 -0.4420 -0.0560 -0.1774
    2CHTO   O11  823   3.678   7.111   2.091  0.1654 -0.1509  0.9357
    2CHTO    H5  824   3.678   7.149   2.177  1.6155  0.3373  0.7448
    2CHTO    O3  825   3.498   7.562   2.268 -0.5328  0.6133 -0.0348
    2CHTO    C6  826   3.573   7.672   2.229  0.0258 -0.0633 -0.0085
    2CHTO   H19  827   3.616   7.666   2.129  0.5477  0.2755  0.1885
    2CHTO    C8  828   3.489   7.801   2.235 -0.3970  0.4163  0.0717
    2CHTO   H21  829   3.440   7.811   2.332 -1.5335  0.9144 -0.5387
    2CHTO    O7  830   3.397   7.792   2.127  0.9899  0.3775 -0.0955
    2CHTO    H2  831   3.346   7.714   2.128 -0.9148  1.5914  1.2116
    2CHTO   C12  832   3.580   7.933   2.227  0.1423  0.6953 -0.5426
    2CHTO   H25  833   3.604   7.938   2.119  0.4836 -1.0327 -0.5618
    2CHTO    N3  834   3.501   8.061   2.245 -1.0125  0.0060  0.2850
    2CHTO   H12  835   3.490   8.078   2.351  0.6136 -0.2291  0.5115
    2CHTO   H13  836   3.409   8.036   2.195  0.5352 -2.4512 -1.4454
    2CHTO   C15  837   3.713   7.916   2.301  0.1941  0.8430 -0.1744
    2CHTO   H28  838   3.692   7.918   2.408 -0.8388 -0.4325 -0.3386
    2CHTO   O10  839   3.822   8.013   2.263  0.9195  0.2322  0.2392
    2CHTO    H4  840   3.789   8.101   2.259 -1.7507 -0.7672 -1.8475
    2CHTO    O5  841   3.775   7.788   2.279  0.1534  0.2667  0.1931
    2CHTO   C10  842   3.700   7.679   2.327  0.0262  0.0769  0.0072
    2CHTO   H23  843   3.676   7.693   2.433 -1.5869 -1.0850 -0.2008
    2CHTO   C17  844   3.776   7.551   2.303  0.5496  0.0750 -0.1233
    2CHTO   O12  845   3.890   7.553   2.386  0.7109 -0.1649 -0.3613
    2CHTO    H6  846   3.850   7.547   2.471  1.1428  2.5678  0.0653
    3CHTO  H203  847   8.054   1.642   1.279  0.8213  1.2349  1.1584
    3CHTO   O82  848   7.982   1.679   1.326 -0.1011  0.6680  0.2075
    3CHTO  C123  849   7.887   1.583   1.388  0.8517  0.2055 -0.7274
    3CHTO  H227  850   7.938   1.527   1.468 -0.8297 -0.1031  0.1511
    3CHTO   O77  851   7.777   1.673   1.443 -0.5131 -0.1395 -0.2223
    3CHTO  C118  852   7.684   1.591   1.523  0.2358  0.0903 -0.6203
    3CHTO  H222  853   7.761   1.542   1.583  0.6530  0.5521 -0.7710
    3CHTO  C125  854   7.596   1.687   1.620 -0.0592  0.0598 -1.0936
    3CHTO   O84  855   7.529   1.772   1.529 -0.0542  0.1664 -0.3136
    3CHTO  H205  856   7.444   1.793   1.562 -0.6065 -0.5863 -1.2211
    3CHTO  C114  857   7.615   1.488   1.435 -0.8781  0.0073  0.2332
    3CHTO  H218  858   7.555   1.537   1.358  0.2277  4.0928  1.8772
    3CHTO  C116  859   7.716   1.400   1.366 -0.3206 -0.2351  0.4471
    3CHTO  H220  860   7.758   1.336   1.447 -0.2536 -2.4486 -1.3002
    3CHTO   O79  861   7.651   1.299   1.279 -0.0022 -0.0028 -0.2371
    3CHTO  H201  862   7.584   1.245   1.317  1.4409  0.0647  2.5280
    3CHTO  C120  863   7.821   1.479   1.284 -0.0394 -0.4612 -0.7807
    3CHTO  H224  864   7.766   1.533   1.204 -0.2086 -0.5939 -0.7533
    3CHTO   N21  865   7.937   1.394   1.229  0.6229 -0.1048  0.7703
    3CHTO  H211  866   7.973   1.430   1.134 -0.8386 -2.0725 -0.5576
    3CHTO  H212  867   8.010   1.385   1.308 -0.3025  0.6890  1.7435
    3CHTO   O75  868   7.530   1.419   1.535  0.3047 -0.2979 -0.3168
    3CHTO  C112  869   7.401   1.354   1.462 -0.4263 -0.2303  0.1151
    3CHTO  H216  870   7.429   1.303   1.369 -1.3168  2.1521 -1.5156
    3CHTO   O73  871   7.313   1.466   1.432 -0.2150 -0.2891 -1.5073
    3CHTO  C113  872   7.188   1.426   1.384 -0.0417  0.1504 -0.0348
    3CHTO  H217  873   7.208   1.373   1.288 -1.1630 -1.2778  0.4961
    3CHTO  C124  874   7.126   1.555   1.340 -0.1236  0.5453 -0.4841
    3CHTO   O83  875   7.001   1.545   1.264  0.7007  0.2909 -0.5981
    3CHTO  H204  876   6.962   1.626   1.238  0.4095 -0.3394 -2.1922
    3CHTO  C109  877   7.110   1.354   1.489  0.1171  0.1796  0.1197
    3CHTO  H213  878   7.102   1.423   1.574 -2.4987  1.8117 -1.3890
    3CHTO  C110  879   7.186   1.221   1.510  0.3618 -0.6847 -0.6307
    3CHTO  H214  880   7.199   1.171   1.413  0.6460 -0.7440 -0.5612
    3CHTO   O78  881   7.120   1.129   1.602  0.4316 -0.4410  0.6458
    3CHTO  H200  882   7.045   1.090   1.562  1.2103 -0.6547 -0.6492
    3CHTO  C111  883   7.327   1.253   1.560  1.0298  0.1975 -0.7441
    3CHTO  H215  884   7.317   1.300   1.659  0.2932 -0.6974 -0.3737
    3CHTO   N19  885   7.417   1.135   1.584  0.1739  0.8298  0.7094
    3CHTO  H207  886   7.412   1.041   1.531  4.2434  0.4865  0.7608
    3CHTO  H208  887   7.456   1.116   1.683  2.5876 -0.7340 -0.4692
    3CHTO   O74  888   6.975   1.328   1.444  0.1751 -0.1695  0.0570
    3CHTO  C115  889   6.859   1.300   1.544  0.0559  0.3268 -0.1312
    3CHTO  H219  890   6.890   1.241   1.630 -0.6012  2.0812  1.3296
    3CHTO   O76  891   6.803   1.433   1.611  0.2846 -0.1026  0.2515
    3CHTO  C122  892   6.716   1.516   1.528 -0.8240  0.4727  0.9438
    3CHTO  H226  893   6.771   1.572   1.453 -1.7097  0.2571  0.1137
    3CHTO  C126  894   6.677   1.621   1.621 -0.1561 -0.5754 -0.5244
    3CHTO   O85  895   6.781   1.709   1.665  0.4343 -0.0271 -0.0838
    3CHTO  H206  896   6.856   1.730   1.612 -0.3277  1.5142 -0.5870
    3CHTO  C121  897   6.602   1.432   1.458 -0.2197  0.0945 -0.7007
    3CHTO  H225  898   6.505   1.472   1.494 -1.4236 -2.8503 -0.4922
    3CHTO   O81  899   6.623   1.462   1.316 -0.2322 -0.4215 -0.0101
    3CHTO  H202  900   6.573   1.415   1.252  0.0465  0.7421 -1.0927
    3CHTO  C119  901   6.609   1.277   1.486  0.0108 -0.3891 -0.4689
    3CHTO  H223  902   6.604   1.270   1.595  0.9321  0.1518 -0.3862
    3CHTO  C117  903   6.746   1.224   1.460  0.3951  0.1794  0.9273
    3CHTO  H221  904   6.781   1.236   1.358 -1.2559  0.5945  0.3894
    3CHTO   N20  905   6.754   1.074   1.487  0.2593 -0.2874  0.7558
    3CHTO  H209  906   6.851   1.029   1.475  1.6255  1.8437  3.2535
    3CHTO  H210  907   6.679   1.022   1.429 -0.0435 -0.8092  1.6072
    3CHTO   O80  908   6.478   1.190   1.430  0.3289  0.5287  0.2179
    3CHTO  C103  909   6.333   1.238   1.478  0.0287  0.4795 -0.3340
    3CHTO  H190  910   6.337   1.306   1.563 -0.5239 -0.4304  0.4257
    3CHTO  C101  911   6.247   1.309   1.368 -0.8244 -0.2399  0.4046
    3CHTO  H188  912   6.268   1.251   1.277  1.6580  0.6308  0.3705
    3CHTO   O68  913   6.308   1.455   1.342 -0.3317 -0.1624  0.8352
    3CHTO  H168  914   6.288   1.506   1.418 -1.0541 -0.7376  1.0226
    3CHTO   C99  915   6.090   1.310   1.397  0.0438  0.1407  0.3690
    3CHTO  H186  916   6.073   1.368   1.490 -0.9560  0.9575 -0.3055
    3CHTO   N17  917   6.004   1.362   1.279 -0.6580  0.2840 -0.0706
    3CHTO  H174  918   5.941   1.285   1.237 -0.5971  0.1541  0.0781
    3CHTO  H175  919   5.941   1.440   1.319 -2.9828 -2.0042  0.8586
    3CHTO   C97  920   6.051   1.166   1.424  0.5957  0.2210  0.2289
    3CHTO  H184  921   6.071   1.099   1.339  1.0853  1.5075 -0.6903
    3CHTO   O64  922   6.114   1.121   1.537 -0.0431 -0.6028 -0.6525
    3CHTO  C104  923   6.260   1.099   1.521  0.3372  0.1957 -0.5536
    3CHTO  H191  924   6.277   1.022   1.445  4.3002 -0.1099  0.5566
    3CHTO  C108  925   6.316   1.036   1.652  0.3405  0.4699  0.1026
    3CHTO   O71  926   6.455   1.006   1.662 -0.0130 -0.5815 -0.3675
    3CHTO  H171  927   6.490   1.089   1.689  0.8866 -1.2824  0.6618
    3CHTO   O62  928   5.913   1.146   1.469  0.1422 -0.5208  0.0913
    3CHTO   C91  929   5.852   1.026   1.430  1.1735  0.3966  0.2380
    3CHTO  H178  930   5.870   1.020   1.322  0.9767  0.5735  0.1947
    3CHTO   C92  931   5.698   1.042   1.427  0.2149 -1.1025  0.0555
    3CHTO  H179  932   5.674   1.078   1.528 -1.3218  0.9271 -0.9947
    3CHTO   O66  933   5.668   1.149   1.338 -0.3635 -0.0408 -0.5720
    3CHTO  H166  934   5.577   1.172   1.336 -0.9138 -1.9275  1.3062
    3CHTO   C93  935   5.615   0.914   1.394 -0.1293 -0.1648  0.0789
    3CHTO  H180  936   5.649   0.895   1.291 -0.5409  0.0710 -0.1013
    3CHTO   N16  937   5.471   0.929   1.378  0.9609  0.0206  0.0964
    3CHTO  H172  938   5.435   1.025   1.410  2.0110 -0.3106  2.3839
    3CHTO  H173  939   5.420   0.856   1.439 -0.1124  1.5573  1.0508
    3CHTO   C94  940   5.661   0.788   1.480 -1.0058  0.6541  0.3652
    3CHTO  H181  941   5.585   0.757   1.551 -2.7180  1.3809 -1.0928
    3CHTO   O61  942   5.780   0.806   1.557  0.5669 -0.0374  0.3333
    3CHTO   C95  943   5.886   0.894   1.509  0.2392  0.2198 -0.9361
    3CHTO  H182  944   5.945   0.925   1.595 -1.1412 -0.7403  0.3681
    3CHTO  C106  945   5.979   0.806   1.427  0.1457 -0.0856 -0.5471
    3CHTO   O69  946   6.065   0.730   1.515 -0.0713 -0.1113 -0.2311
    3CHTO  H169  947   6.083   0.647   1.474 -2.4469 -2.1183  2.5464
    3CHTO   O63  948   5.690   0.659   1.370  0.3851  0.2095 -0.1679
    3CHTO   C96  949   5.608   0.532   1.372  0.0505 -0.6730 -0.0587
    3CHTO  H183  950   5.630   0.465   1.289 -1.5445 -0.4999 -0.6397
    3CHTO   C98  951   5.452   0.546   1.370  0.2357 -0.2141  0.2936
    3CHTO  H185  952   5.417   0.625   1.438  0.8743 -1.7249  2.4659
    3CHTO   O67  953   5.421   0.597   1.235 -0.1523  1.4111  0.5091
    3CHTO  H167  954   5.329   0.580   1.227  0.3305 -0.5272 -1.3428
    3CHTO  C102  955   5.366   0.418   1.407  0.0971 -0.0479 -0.2612
    3CHTO  H189  956   5.379   0.350   1.322 -3.7358  0.6362 -1.4498
    3CHTO   N18  957   5.221   0.434   1.434  0.1614  0.6072  0.4411
    3CHTO  H176  958   5.205   0.528   1.485 -1.9515  0.3636  0.2798
    3CHTO  H177  959   5.179   0.435   1.335  0.8282 -0.8127  0.1202
    3CHTO  C105  960   5.438   0.341   1.525  0.2165  1.0641 -0.3370
    3CHTO  H192  961   5.430   0.401   1.615 -1.8410  0.2854  0.0302
    3CHTO   O65  962   5.570   0.320   1.498 -0.0051  0.1851  0.8561
    3CHTO  C100  963   5.645   0.448   1.501 -0.4346  0.0627  0.0197
    3CHTO  H187  964   5.624   0.503   1.594  1.4685 -0.3614  0.7225
    3CHTO  C107  965   5.801   0.412   1.511 -0.2968 -0.0752 -0.2600
    3CHTO   O70  966   5.844   0.352   1.389  0.3545  0.3769 -0.8134
    3CHTO  H170  967   5.849   0.413   1.318 -0.3701  0.3734 -0.8702
    3CHTO   O57  968   5.369   0.185   1.540 -0.5261  0.0013 -0.0492
    3CHTO   C85  969   5.364   0.120   1.667  0.0737 -0.3787  0.0813
    3CHTO  H157  970   5.344   0.014   1.643 -1.3190  0.1693 -1.2689
    3CHTO   C83  971   5.227   0.155   1.740 -0.4335  0.0353 -0.6790
    3CHTO  H155  972   5.142   0.135   1.675 -0.4340 -0.9271 -0.3862
    3CHTO   O56  973   5.224   0.299   1.767 -0.0483 -0.8073 -0.1944
    3CHTO  H135  974   5.305   0.343   1.785 -1.9736  3.1140 -0.6457
    3CHTO   C81  975   5.217   0.074   1.874  0.3128 -1.0945  0.1573
    3CHTO  H153  976   5.222  -0.031   1.847 -1.9875 -0.9894 -0.8584
    3CHTO   N14  977   5.076   0.088   1.924  1.1750  0.0902 -0.1919
    3CHTO  H141  978   5.011   0.020   1.874 -1.2405 -0.0414  2.9637
    3CHTO  H142  979   5.049   0.191   1.908  1.0924 -0.2466 -2.3557
    3CHTO   C79  980   5.343   0.115   1.970  0.0313  0.4282 -0.6614
    3CHTO  H151  981   5.340   0.056   2.062  0.2089 -0.6705 -1.3588
    3CHTO   O52  982   5.470   0.085   1.901 -0.0193 -0.1515  0.1638
    3CHTO   C86  983   5.484   0.132   1.763 -0.1527 -0.4087  0.0227
    3CHTO  H158  984   5.513   0.238   1.774  1.3324 -0.5803 -1.9648
    3CHTO   C90  985   5.604   0.075   1.693 -1.0681  0.1352 -0.2354
    3CHTO   O60  986   5.627  -0.067   1.711  0.2594 -0.1744  0.2948
    3CHTO  H138  987   5.636  -0.081   1.803  4.0346 -0.6238 -0.0978
    3CHTO   O50  988   5.341   0.253   2.011 -0.1774 -0.1039 -0.2718
    3CHTO   C73  989   5.346   0.352   2.121  0.3795 -0.3538  0.0227
    3CHTO  H145  990   5.421   0.316   2.193  1.2227 -3.2888 -2.2472
    3CHTO   C74  991   5.210   0.358   2.186 -0.2759  1.4309  0.2307
    3CHTO  H146  992   5.188   0.254   2.212  0.7902  1.5823  1.8225
    3CHTO   O54  993   5.221   0.437   2.308  0.0818 -0.4952 -0.1700
    3CHTO  H133  994   5.278   0.402   2.374  0.9433  2.9773  1.0650
    3CHTO   C75  995   5.106   0.426   2.085 -0.4566 -0.2205  0.7125
    3CHTO  H147  996   5.105   0.372   1.990  1.5570 -0.0588  0.5692
    3CHTO   N13  997   4.969   0.445   2.131  0.1243 -0.9068  0.4090
    3CHTO  H139  998   4.960   0.401   2.229  1.1569 -0.6519  0.6231
    3CHTO  H140  999   4.909   0.379   2.071  1.8929 -2.6534  0.5246
    3CHTO   C76 1000   5.159   0.573   2.042  0.4243  0.0802  0.1404
    3CHTO  H148 1001   5.158   0.646   2.123 -0.4665 -0.1943  0.3825
    3CHTO   O49 1002   5.293   0.555   1.977 -0.2200  0.5759 -0.3273
    3CHTO   C77 1003   5.398   0.490   2.057 -0.1717  0.6167 -0.6822
    3CHTO  H149 1004   5.435   0.555   2.137 -0.6744  0.5049 -0.3592
    3CHTO   C88 1005   5.523   0.465   1.972  0.6101 -0.0567  0.7022
    3CHTO   O58 1006   5.594   0.607   1.941  0.0614  0.6365 -0.0201
    3CHTO  H136 1007   5.567   0.678   1.996  1.5250  1.6536 -0.5675
    3CHTO   O51 1008   5.057   0.641   1.922 -0.3389 -0.4463  0.4154
    3CHTO   C78 1009   5.099   0.806   1.901 -0.0731 -0.4851  0.6224
    3CHTO  H150 1010   5.193   0.833   1.953 -0.7284 -0.8790  2.0448
    3CHTO   C80 1011   4.984   0.885   1.959  0.9032 -1.2591 -0.3978
    3CHTO  H152 1012   4.891   0.852   1.908 -0.8821  3.1102 -0.2515
    3CHTO   O55 1013   4.968   0.867   2.098 -0.2669 -0.0077 -0.6581
    3CHTO  H134 1014   4.920   0.789   2.116  0.8242 -0.8889 -1.5092
    3CHTO   C84 1015   4.999   1.043   1.922  0.3368 -0.2348 -0.0558
    3CHTO  H156 1016   5.078   1.085   1.984  0.4349 -1.9916  1.0073
    3CHTO   N15 1017   4.873   1.122   1.962 -0.1037  0.1768  0.3136
    3CHTO  H143 1018   4.842   1.111   2.064 -1.3332  0.6103  0.0008
    3CHTO  H144 1019   4.882   1.227   1.945  2.6050 -0.3198 -1.5254
    3CHTO   C87 1020   5.011   1.063   1.768 -0.3704 -0.3261 -0.0745
    3CHTO  H159 1021   4.919   1.040   1.714 -0.8407  1.7046 -0.1800
    3CHTO   O53 1022   5.127   0.963   1.715  0.6278  0.5656  0.2778
    3CHTO   C82 1023   5.109   0.829   1.747 -0.1316 -0.4585  0.2154
    3CHTO  H154 1024   5.028   0.788   1.688 -0.3050  3.1539 -2.2361
    3CHTO   C89 1025   5.235   0.755   1.697 -0.2441  0.5895  0.3321
    3CHTO   O59 1026   5.233   0.735   1.553 -0.5998  0.7223 -0.3439
    3CHTO  H137 1027   5.184   0.660   1.525  0.8186  0.1695 -1.3934
    3CHTO   O45 1028   5.056   1.226   1.738  0.0600  0.1946 -0.1511
    3CHTO   C67 1029   5.196   1.249   1.739 -0.2469  0.5784  0.7242
    3CHTO  H124 1030   5.244   1.166   1.790 -3.0584 -1.1934  0.6229
    3CHTO   C65 1031   5.257   1.263   1.590  0.3888  0.5171  0.2576
    3CHTO  H122 1032   5.170   1.269   1.525  0.2326  0.8486  0.4969
    3CHTO   O44 1033   5.311   1.132   1.567  0.2752  0.2690  0.0180
    3CHTO  H102 1034   5.303   1.097   1.480  1.3541 -3.1604  1.1936
    3CHTO   C63 1035   5.356   1.392   1.568  0.0737  0.0098  0.0248
    3CHTO  H120 1036   5.295   1.481   1.586  0.0123 -0.1117  0.4208
    3CHTO   N11 1037   5.422   1.407   1.435  0.1930 -0.1531 -0.5986
    3CHTO  H108 1038   5.490   1.325   1.422 -0.1400 -0.2987 -1.4639
    3CHTO  H109 1039   5.354   1.386   1.355 -0.7504  2.3627 -0.5059
    3CHTO   C61 1040   5.457   1.384   1.687 -0.2054  0.5489  0.3173
    3CHTO  H118 1041   5.522   1.471   1.669  2.6581 -1.6233 -0.2986
    3CHTO   O40 1042   5.396   1.394   1.816 -0.1691 -0.0602  0.0680
    3CHTO   C68 1043   5.246   1.371   1.820 -0.1673  0.6348 -0.3301
    3CHTO  H125 1044   5.195   1.464   1.786  0.0936  0.4803 -1.1737
    3CHTO   C72 1045   5.210   1.352   1.968 -0.1272 -0.1356 -0.3570
    3CHTO   O48 1046   5.236   1.470   2.048  0.3255  0.2292  0.2255
    3CHTO  H105 1047   5.160   1.522   2.064  0.9868  1.6771 -1.2387
    3CHTO   O38 1048   5.526   1.262   1.684  0.0026 -0.3704 -0.0392
    3CHTO   C55 1049   5.620   1.231   1.787 -0.0572 -0.0840 -0.1716
    3CHTO  H112 1050   5.583   1.279   1.879  0.6565  1.1250 -0.5075
    3CHTO   C56 1051   5.768   1.285   1.750  0.5247 -0.1511 -0.1786
    3CHTO  H113 1052   5.791   1.233   1.656 -3.0051 -0.1250 -1.1225
    3CHTO   O42 1053   5.759   1.423   1.717 -0.7148  0.4693  0.0553
    3CHTO  H100 1054   5.704   1.467   1.779 -0.5073  1.0747 -0.1842
    3CHTO   C57 1055   5.875   1.243   1.855 -0.3922 -0.8020  0.2543
    3CHTO  H114 1056   5.854   1.291   1.951  1.5017  0.4452  0.0682
    3CHTO   N10 1057   6.012   1.280   1.821  0.0483  0.2194  1.0324
    3CHTO  H106 1058   6.027   1.268   1.714 -1.5151  1.3592  0.6659
    3CHTO  H107 1059   6.023   1.382   1.855 -1.9168  1.0614 -0.6936
    3CHTO   C58 1060   5.855   1.090   1.881 -0.1218  0.0361  0.5390
    3CHTO  H115 1061   5.881   1.037   1.787 -1.2567  2.4914 -1.1778
    3CHTO   O37 1062   5.721   1.051   1.910  0.2900 -0.4809 -0.2337
    3CHTO   C59 1063   5.633   1.083   1.806  1.2648  0.3132  0.2793
    3CHTO  H116 1064   5.663   1.028   1.716  1.1958 -1.2589  1.2007
    3CHTO   C70 1065   5.501   1.024   1.844 -0.2852 -0.1847 -0.3124
    3CHTO   O46 1066   5.503   0.883   1.875 -0.0391 -0.2778 -0.3966
    3CHTO  H103 1067   5.541   0.874   1.960 -0.8904  0.0510  0.0246
    3CHTO   O39 1068   5.922   1.035   2.001 -0.0524  0.2909  0.3334
    3CHTO   C60 1069   5.940   0.895   1.995 -0.0821 -0.6758 -0.1098
    3CHTO  H117 1070   5.867   0.853   1.925 -0.6340 -1.3050  0.8347
    3CHTO   C62 1071   6.090   0.863   1.948 -0.5510 -0.3564  0.2133
    3CHTO  H119 1072   6.112   0.921   1.856  0.9650 -0.7492  0.3123
    3CHTO   O43 1073   6.192   0.894   2.046  0.7399  0.0723 -0.2536
    3CHTO  H101 1074   6.162   0.969   2.093 -3.3655 -1.9015  0.4821
    3CHTO   C66 1075   6.101   0.703   1.911 -0.0105 -0.6383 -0.5652
    3CHTO  H123 1076   6.023   0.680   1.839 -0.2750 -0.7458 -0.2449
    3CHTO   N12 1077   6.227   0.681   1.838  0.9645  0.2043  0.3365
    3CHTO  H110 1078   6.217   0.589   1.781  0.2043  0.0205  0.7640
    3CHTO  H111 1079   6.259   0.764   1.776 -1.3439  0.3746 -0.6742
    3CHTO   C69 1080   6.072   0.624   2.038  0.1591  0.1129  0.0431
    3CHTO  H126 1081   6.155   0.645   2.109  0.3580  1.6240 -0.6210
    3CHTO   O41 1082   5.932   0.666   2.105 -0.1306 -0.2480 -0.3218
    3CHTO   C64 1083   5.917   0.817   2.129 -0.3973  0.2329  0.1853
    3CHTO  H121 1084   5.997   0.847   2.200  1.5038 -2.2248 -0.8992
    3CHTO   C71 1085   5.784   0.851   2.200  0.5258  0.3164 -0.2269
    3CHTO   O47 1086   5.672   0.821   2.122 -0.0694  0.4615  0.0966
    3CHTO  H104 1087   5.678   0.876   2.046 -1.7495 -1.0098 -1.1493
    3CHTO   O34 1088   6.064   0.465   2.015  0.2923 -0.3257  0.8695
    3CHTO   C49 1089   6.131   0.328   1.913 -0.2201  0.9112 -0.6046
    3CHTO   H91 1090   6.224   0.365   1.869 -0.3648  1.4318 -0.4695
    3CHTO   C47 1091   6.029   0.278   1.800 -0.0643  0.0471 -0.1005
    3CHTO   H89 1092   6.059   0.343   1.715 -2.4149  3.5743  1.6263
    3CHTO   O33 1093   5.897   0.321   1.836 -0.4367 -0.0127  0.0171
    3CHTO   H70 1094   5.838   0.304   1.765 -0.3518 -1.2970  0.2390
    3CHTO   C45 1095   6.034   0.115   1.773 -0.1940 -0.3834  0.0655
    3CHTO   H87 1096   5.960   0.075   1.844  0.3041  0.4230  1.0586
    3CHTO    N8 1097   5.987   0.084   1.639 -0.2649  0.1101  0.3582
    3CHTO   H75 1098   5.992   0.162   1.565  1.1708  0.7696  1.1438
    3CHTO   H76 1099   5.892   0.032   1.635  1.0805 -2.3832 -0.0319
    3CHTO   C43 1100   6.183   0.051   1.801 -0.5499 -0.3653  0.0835
    3CHTO   H85 1101   6.188  -0.056   1.778  1.3176 -0.6184  1.5881
    3CHTO   O29 1102   6.201   0.076   1.941 -0.2075  0.0441  0.2599
    3CHTO   C50 1103   6.159   0.205   1.999 -0.5802  0.1206  0.7579
    3CHTO   H92 1104   6.067   0.183   2.055 -1.8932 -1.2209 -1.8496
    3CHTO   C54 1105   6.256   0.244   2.102 -0.5226  0.5657  0.1698
    3CHTO   O36 1106   6.276   0.157   2.211 -0.5881  0.0412 -0.1581
    3CHTO   H72 1107   6.212   0.174   2.277  0.6579 -0.9578  1.3248
    3CHTO   O27 1108   6.293   0.104   1.723 -0.1796  0.5300 -0.2127
    3CHTO   C37 1109   6.416   0.176   1.693  0.0561  0.1440 -0.4676
    3CHTO   H79 1110   6.403   0.280   1.724  1.1558 -0.2200  1.3245
    3CHTO   C38 1111   6.542   0.119   1.768 -0.0261 -0.4551  0.1604
    3CHTO   H80 1112   6.548   0.012   1.745  0.6032 -0.8492  2.0442
    3CHTO   O31 1113   6.525   0.151   1.910 -0.4126 -0.4205  0.7564
    3CHTO   H68 1114   6.600   0.118   1.956  0.3891 -0.5468 -0.6292
    3CHTO   C39 1115   6.674   0.189   1.706 -0.1991 -0.0059  0.0876
    3CHTO   H81 1116   6.673   0.297   1.725  0.7789  0.3317 -1.6336
    3CHTO    N7 1117   6.797   0.140   1.778  0.2739  0.0082 -0.1064
    3CHTO   H73 1118   6.786   0.033   1.771 -0.4864 -0.1226  2.4946
    3CHTO   H74 1119   6.793   0.167   1.883 -0.2638  1.3782 -0.4669
    3CHTO   C40 1120   6.677   0.167   1.551 -0.0290  0.6070 -0.2566
    3CHTO   H82 1121   6.680   0.060   1.533 -1.7663  0.2686  1.2580
    3CHTO   O26 1122   6.560   0.226   1.496 -0.0365  0.2564 -0.0752
    3CHTO   C41 1123   6.435   0.168   1.544  0.3033 -0.4945  0.3637
    3CHTO   H83 1124   6.427   0.068   1.497  1.2966  0.1475 -1.2091
    3CHTO   C52 1125   6.318   0.241   1.474 -0.7186  0.0641 -0.1746
    3CHTO   O35 1126   6.308   0.395   1.517  0.0963 -0.6976 -0.0617
    3CHTO   H71 1127   6.250   0.439   1.457  1.5596  1.7917  0.2958
    3CHTO   O28 1128   6.794   0.238   1.495  0.0502 -0.0100  0.6463
    3CHTO   C42 1129   6.794   0.371   1.438 -0.2010 -0.2233  0.3490
    3CHTO   H84 1130   6.901   0.390   1.430 -0.0008 -1.4311 -0.0249
    3CHTO   C44 1131   6.734   0.481   1.541  0.0947  0.0124  0.2150
    3CHTO   H86 1132   6.639   0.451   1.584  0.6703  0.0250  1.5141
    3CHTO   O32 1133   6.822   0.492   1.656 -0.0295 -0.4793  0.7065
    3CHTO   H69 1134   6.779   0.523   1.733  1.1087  1.1240  0.7205
    3CHTO   C48 1135   6.713   0.627   1.475  0.3937 -0.4365 -0.2202
    3CHTO   H90 1136   6.810   0.676   1.465  0.9594 -1.6699 -0.8631
    3CHTO    N9 1137   6.623   0.712   1.560  0.3923 -0.5782 -0.2615
    3CHTO   H77 1138   6.667   0.803   1.596 -1.4940  0.8689 -1.5464
    3CHTO   H78 1139   6.563   0.654   1.628 -0.1742 -1.4752 -1.4984
    3CHTO   C51 1140   6.654   0.622   1.335 -0.6745 -0.0203 -0.3118
    3CHTO   H93 1141   6.549   0.596   1.342 -0.6672 -0.4862 -1.7089
    3CHTO   O30 1142   6.729   0.537   1.246  0.5026  0.4762  0.4901
    3CHTO   C46 1143   6.735   0.384   1.291 -0.0128 -0.1129  0.2409
    3CHTO   H88 1144   6.637   0.338   1.282 -0.0587  0.0321 -0.0095
    3CHTO   C53 1145   6.840   0.317   1.194  0.0720 -0.2973 -0.8059
    3CHTO   O72 1146   6.803   0.320   1.059 -0.1380  0.0108 -0.0097
    3CHTO  H199 1147   6.748   0.248   1.038  0.0141 -0.4010  0.9768
    3CHTO   O22 1148   6.662   0.753   1.279  0.0244 -0.1723  0.7296
    3CHTO   C31 1149   6.570   0.800   1.181 -0.2741  0.5871  1.0365
    3CHTO   H59 1150   6.542   0.711   1.121 -0.1139  1.7277 -0.7601
    3CHTO   C29 1151   6.439   0.859   1.229 -0.0931 -0.3028  0.1180
    3CHTO   H57 1152   6.459   0.947   1.291 -2.3122 -0.1496  0.6818
    3CHTO   O21 1153   6.376   0.766   1.315 -0.3707  0.2517  0.5617
    3CHTO   H37 1154   6.319   0.815   1.370  0.8710  2.8261 -0.3582
    3CHTO   C27 1155   6.339   0.894   1.116 -0.4050 -0.0358  0.2039
    3CHTO   H55 1156   6.328   0.800   1.061  0.0625  0.1024 -0.1273
    3CHTO    N5 1157   6.200   0.936   1.149 -0.5745 -0.0569  0.1088
    3CHTO   H43 1158   6.187   1.037   1.115 -0.6999  0.3194  1.2702
    3CHTO   H44 1159   6.168   0.937   1.252  0.4376 -3.3429  0.5173
    3CHTO   C25 1160   6.411   0.999   1.023 -0.6973  0.2409 -0.1513
    3CHTO   H53 1161   6.425   1.092   1.080 -0.0728 -1.6302  2.8682
    3CHTO   O17 1162   6.542   0.944   0.978 -0.0133 -0.1529 -0.0321
    3CHTO   C32 1163   6.633   0.898   1.080  0.5633  0.6685  0.3450
    3CHTO   H60 1164   6.664   0.987   1.134  0.4077  0.5429  0.6392
    3CHTO   C36 1165   6.762   0.844   1.009 -0.3770  0.5398 -1.0870
    3CHTO   O25 1166   6.739   0.713   0.947 -0.4866  0.5396 -0.2935
    3CHTO   H40 1167   6.823   0.675   0.929 -0.0968  0.2133  1.9905
    3CHTO   O15 1168   6.335   1.026   0.891  0.1249 -0.0368  0.3466
    3CHTO   C19 1169   6.315   1.139   0.792  0.0279 -0.5906 -0.5996
    3CHTO   H47 1170   6.249   1.099   0.714  2.2100  1.9991 -3.9091
    3CHTO   C20 1171   6.247   1.270   0.847  1.2138  0.0949 -0.2315
    3CHTO   H48 1172   6.306   1.320   0.926  2.1990  1.5822 -1.8421
    3CHTO   O19 1173   6.126   1.216   0.890 -0.6286 -0.3470 -0.1817
    3CHTO   H35 1174   6.058   1.280   0.881  1.5432  1.9459 -0.6956
    3CHTO   C21 1175   6.224   1.378   0.731  0.6505  0.1241 -0.2710
    3CHTO   H49 1176   6.148   1.341   0.661  1.6115 -1.2433 -0.6234
    3CHTO    N4 1177   6.175   1.504   0.784 -0.4630  0.1138 -0.1237
    3CHTO   H41 1178   6.259   1.555   0.828  0.5451 -1.1563 -0.5599
    3CHTO   H42 1179   6.123   1.559   0.708 -1.7318 -0.7439  0.0947
    3CHTO   C22 1180   6.353   1.385   0.643 -0.1744 -0.5126 -0.0222
    3CHTO   H50 1181   6.436   1.432   0.695  0.9285 -1.3466 -0.9829
    3CHTO   O14 1182   6.393   1.257   0.595  0.1449 -0.2245  0.1755
    3CHTO   C23 1183   6.442   1.177   0.707 -0.5843 -0.3420 -0.8973
    3CHTO   H51 1184   6.518   1.234   0.762 -1.3089  1.4750 -1.7437
    3CHTO   C34 1185   6.510   1.053   0.655 -0.0242 -0.5654 -0.0073
    3CHTO   O23 1186   6.428   0.958   0.592 -0.5589 -0.7216 -0.1291
    3CHTO   H38 1187   6.482   0.899   0.544  1.1126  0.4512  0.2437
    3CHTO   O16 1188   6.316   1.440   0.513  0.6033  0.0225 -0.1789
    3CHTO   C24 1189   6.418   1.552   0.466  0.3587 -0.2715  0.2979
    3CHTO   H52 1190   6.459   1.608   0.550 -0.7078  1.0765 -0.0550
    3CHTO   C26 1191   6.324   1.651   0.388  0.1594 -0.1781 -0.2322
    3CHTO   H54 1192   6.263   1.591   0.317  0.9542 -1.1481 -0.0979
    3CHTO   O20 1193   6.236   1.705   0.486 -0.2537  0.6780  0.5553
    3CHTO   H36 1194   6.153   1.740   0.457  0.3922  0.5537 -1.5108
    3CHTO   C30 1195   6.411   1.764   0.317 -0.0835  0.3338 -0.2049
    3CHTO   H58 1196   6.441   1.828   0.401 -0.3991 -2.8997  2.4935
    3CHTO    N6 1197   6.323   1.838   0.224  0.1303 -0.1329  0.2581
    3CHTO   H45 1198   6.305   1.942   0.244 -2.4875 -0.9333  2.3190
    3CHTO   H46 1199   6.348   1.820   0.120  1.0206 -0.3881  0.5134
    3CHTO   C33 1200   6.533   1.696   0.244  0.7444 -0.5805  0.4825
    3CHTO   H61 1201   6.504   1.651   0.148  0.1893  2.2656 -0.7443
    3CHTO   O18 1202   6.603   1.596   0.315  0.2649  0.1465  0.0821
    3CHTO   C28 1203   6.533   1.494   0.382  0.0254 -0.3583 -0.5112
    3CHTO   H56 1204   6.492   1.425   0.309 -1.9492 -1.6857  1.7543
    3CHTO   C35 1205   6.632   1.401   0.479 -0.8138  0.2459 -0.3363
    3CHTO   O24 1206   6.750   1.341   0.428 -0.3328 -0.0155  0.7518
    3CHTO   H39 1207   6.807   1.411   0.402  0.8929 -1.2444  0.0522
    3CHTO    O9 1208   6.620   1.804   0.205 -0.5688  0.0737  0.1819
    3CHTO   C13 1209   6.715   1.869   0.338  0.5052 -0.0720 -0.6321
    3CHTO   H26 1210   6.650   1.859   0.427 -0.5098  0.5158 -1.2988
    3CHTO   C11 1211   6.750   2.020   0.306  0.0339  0.6182  0.4280
    3CHTO   H24 1212   6.655   2.076   0.311 -0.1005  0.4411 -0.1080
    3CHTO    O8 1213   6.812   2.030   0.177  0.0898 -0.9577 -0.3716
    3CHTO    H3 1214   6.808   1.951   0.127 -0.1672 -1.0091 -0.2704
    3CHTO    C9 1215   6.836   2.064   0.431  0.3497 -0.1094  0.6993
    3CHTO   H22 1216   6.775   2.043   0.520  0.9352 -0.1009  1.1014
    3CHTO    N2 1217   6.858   2.211   0.437 -0.1729  0.2173 -0.1507
    3CHTO   H10 1218   6.789   2.264   0.500  1.1313  0.9455  0.6918
    3CHTO   H11 1219   6.866   2.255   0.338 -0.0647 -2.2647 -1.2852
    3CHTO    C7 1220   6.973   1.984   0.443 -1.1924 -0.0421  0.4397
    3CHTO   H20 1221   7.027   2.023   0.531 -1.2000 -1.8928  1.2693
    3CHTO    O4 1222   6.948   1.841   0.454  0.4571  0.2932 -0.0960
    3CHTO   C14 1223   6.851   1.782   0.362 -0.1369 -0.3963 -0.3502
    3CHTO   H27 1224   6.813   1.697   0.424 -2.4715 -0.1771 -1.4182
    3CHTO   C18 1225   6.913   1.721   0.233  0.3567 -0.6802  0.4419
    3CHTO   O13 1226   7.010   1.621   0.261  0.2884 -0.3220  0.3229
    3CHTO    H7 1227   7.056   1.644   0.339 -0.2864 -2.6156  1.3598
    3CHTO    O2 1228   7.090   2.017   0.318  0.3315 -0.1687  0.6033
    3CHTO    C1 1229   7.215   1.940   0.312  0.1249  0.2619 -0.3429
    3CHTO   H14 1230   7.197   1.839   0.269 -1.1376 -0.0328  0.8265
    3CHTO    C2 1231   7.295   1.933   0.454  0.1010 -0.3082  0.9231
    3CHTO   H15 1232   7.321   2.034   0.487  0.2180 -0.8751  2.6101
    3CHTO    O6 1233   7.212   1.861   0.548  0.2793  0.1717 -0.1756
    3CHTO    H1 1234   7.180   1.781   0.510 -1.4137  0.4897  0.5407
    3CHTO    C3 1235   7.429   1.853   0.424 -0.2827  0.0232 -0.4192
    3CHTO   H16 1236   7.405   1.755   0.381 -0.6729  0.3182 -0.8835
    3CHTO    N1 1237   7.511   1.815   0.541  0.1150  0.0081  0.4428
    3CHTO    H8 1238   7.561   1.901   0.583  0.5542 -0.3043  0.5716
    3CHTO    H9 1239   7.454   1.763   0.616 -1.0289 -1.7409 -1.5841
    3CHTO    C4 1240   7.509   1.929   0.316  0.2119  0.2281  0.3650
    3CHTO   H17 1241   7.542   2.024   0.359 -1.3613  0.6735  0.6434
    3CHTO    O1 1242   7.427   1.959   0.195 -0.2539 -0.1855 -0.0930
    3CHTO    C5 1243   7.294   2.017   0.209 -0.0566 -0.3923  0.5534
    3CHTO   H18 1244   7.296   2.122   0.236  2.4430 -0.7137  1.8413
    3CHTO   C16 1245   7.230   2.001   0.072  0.5359  0.1006  0.3686
    3CHTO   O11 1246   7.119   2.087   0.052 -0.1463 -0.4514 -0.2863
    3CHTO    H5 1247   7.068   2.097   0.130  2.0864  0.7883  1.0694
    3CHTO    O3 1248   7.627   1.857   0.270  0.5791  0.3329 -0.1516
    3CHTO    C6 1249   7.714   1.927   0.173 -0.1445 -0.0754 -0.4417
    3CHTO   H19 1250   7.666   2.007   0.116  0.5656  0.4033 -0.3672
    3CHTO    C8 1251   7.834   2.000   0.245  0.9063 -0.1726  0.1039
    3CHTO   H21 1252   7.892   1.924   0.296  0.4663 -1.5966 -1.4714
    3CHTO    O7 1253   7.774   2.100   0.332 -0.1507  0.1105  0.4464
    3CHTO    H2 1254   7.757   2.061   0.416  0.5128 -1.1601  0.0046
    3CHTO   C12 1255   7.926   2.060   0.132  0.1213 -0.5381 -0.1759
    3CHTO   H25 1256   7.859   2.131   0.080  1.4082  0.7346 -0.1330
    3CHTO    N3 1257   8.034   2.134   0.202  0.1493  0.4173 -0.0386
    3CHTO   H12 1258   8.109   2.150   0.126  0.1892 -1.5031 -0.4216
    3CHTO   H13 1259   8.000   2.229   0.242  2.1237  0.7362  0.9630
    3CHTO   C15 1260   7.961   1.947   0.038  0.3247  0.3123  0.1536
    3CHTO   H28 1261   8.020   1.872   0.090 -0.7919  0.0984  1.1322
    3CHTO   O10 1262   8.040   1.991  -0.076 -0.3648 -0.0319  0.6936
    3CHTO    H4 1263   8.009   2.067  -0.121 -0.2658 -1.3128 -1.5668
    3CHTO    O5 1264   7.846   1.882  -0.024 -0.2794  0.2220  0.6596
    3CHTO   C10 1265   7.761   1.817   0.073  0.2208 -0.0633 -0.4141
    3CHTO   H23 1266   7.815   1.740   0.129  0.5742  0.6695  0.2647
    3CHTO   C17 1267   7.638   1.751   0.008 -0.0080  0.0189 -0.3708
    3CHTO   O12 1268   7.678   1.677  -0.103  0.1039  0.1862  0.2694
    3CHTO    H6 1269   7.690   1.725  -0.183 -1.3589  2.1163  1.1717
    4CHTO  H203 1270   6.214   7.598   1.842  2.2664 -0.6441 -1.0757
    4CHTO   O82 1271   6.252   7.596   1.927  0.3129  0.4455 -0.1516
    4CHTO  C123 1272   6.216   7.716   2.003  0.1716 -0.2473  0.4476
    4CHTO  H227 1273   6.155   7.685   2.090 -1.1331 -0.0945 -0.3968
    4CHTO   O77 1274   6.342   7.770   2.026 -0.3935  0.2960  0.2962
    4CHTO  C118 1275   6.346   7.894   2.106  0.0026 -0.1332  0.5308
    4CHTO  H222 1276   6.282   7.882   2.195 -0.3344 -1.1710  0.1594
    4CHTO  C125 1277   6.496   7.945   2.142 -0.7174  0.2046  0.0689
    4CHTO   O84 1278   6.576   7.841   2.203  0.2594 -0.0403  0.5165
    4CHTO  H205 1279   6.615   7.785   2.139 -1.6338  0.8967 -1.5324
    4CHTO  C114 1280   6.281   8.002   2.016 -0.0074 -0.3497 -0.1489
    4CHTO  H218 1281   6.341   8.009   1.926 -1.7924 -0.9922 -1.4118
    4CHTO  C116 1282   6.139   7.958   1.963 -0.0584  1.0142 -0.2090
    4CHTO  H220 1283   6.057   7.972   2.037 -0.6231  0.7682 -0.7834
    4CHTO   O79 1284   6.095   8.042   1.849  0.2347 -0.0890  0.2112
    4CHTO  H201 1285   6.176   8.059   1.805  0.4579  0.7309  0.9232
    4CHTO  C120 1286   6.131   7.805   1.910 -0.6222 -0.2554 -0.5937
    4CHTO  H224 1287   6.178   7.812   1.809 -0.5967 -0.1520 -0.5750
    4CHTO   N21 1288   5.993   7.752   1.897  0.4060  0.3875  0.4829
    4CHTO  H211 1289   5.957   7.700   1.985 -2.7441 -0.4984 -1.2546
    4CHTO  H212 1290   5.926   7.831   1.867 -1.7441 -1.8835 -0.9110
    4CHTO   O75 1291   6.286   8.121   2.104  0.7458 -0.3558 -0.0432
    4CHTO  C112 1292   6.356   8.264   2.029  1.0823  0.1374 -0.2196
    4CHTO  H216 1293   6.359   8.253   1.920  0.3495  2.1550 -0.4649
    4CHTO   O73 1294   6.484   8.290   2.090 -0.0540 -0.6203 -0.7350
    4CHTO  C113 1295   6.545   8.420   2.044 -0.0305  0.5803 -0.0930
    4CHTO  H217 1296   6.563   8.407   1.935 -0.9040 -2.4200  0.0949
    4CHTO  C124 1297   6.679   8.442   2.111  0.1572  0.6498 -0.5348
    4CHTO   O83 1298   6.784   8.348   2.071  0.1337 -0.0936  0.2973
    4CHTO  H204 1299   6.772   8.258   2.094 -1.2534 -0.3824 -1.4082
    4CHTO  C109 1300   6.466   8.552   2.068 -0.0005  0.5487 -0.2877
    4CHTO  H213 1301   6.470   8.570   2.177  0.2926  2.2268 -0.5621
    4CHTO  C110 1302   6.322   8.527   2.015 -0.6290  0.4579  0.1557
    4CHTO  H214 1303   6.336   8.529   1.907 -0.0129  1.5923  0.2484
    4CHTO   O78 1304   6.234   8.631   2.056  0.2336  0.2272 -0.3713
    4CHTO  H200 1305   6.149   8.623   2.017  1.1816 -2.9107 -1.9380
    4CHTO  C111 1306   6.261   8.391   2.058  0.1350 -0.1741 -0.4843
    4CHTO  H215 1307   6.246   8.399   2.167 -0.1622  0.0399 -0.5367
    4CHTO   N19 1308   6.126   8.360   1.993 -0.3402  0.4540  0.0281
    4CHTO  H207 1309   6.052   8.429   2.031 -0.2223  1.8430 -2.1991
    4CHTO  H208 1310   6.101   8.256   2.000  1.0172  0.1881  1.0840
    4CHTO   O74 1311   6.539   8.656   2.003  0.4342 -0.2685 -0.2927
    4CHTO  C115 1312   6.507   8.804   2.064  0.3470  0.0864  0.4550
    4CHTO  H219 1313   6.412   8.804   2.118  0.2779 -1.0247  0.3482
    4CHTO   O76 1314   6.612   8.838   2.167 -0.0956  0.1531  0.2033
    4CHTO  C122 1315   6.755   8.833   2.125  0.6958 -0.1074 -0.3402
    4CHTO  H226 1316   6.773   8.725   2.122  2.8957  0.2174 -0.0674
    4CHTO  C126 1317   6.844   8.891   2.231 -0.3829 -1.1213  0.9888
    4CHTO   O85 1318   6.829   8.810   2.346 -0.0372  0.0838 -0.2917
    4CHTO  H206 1319   6.888   8.829   2.416 -1.4551  0.7306  0.7580
    4CHTO  C121 1320   6.777   8.900   1.982  0.2151  0.5891 -0.2427
    4CHTO  H225 1321   6.862   8.971   1.988  1.0648 -0.5888  2.8787
    4CHTO   O81 1322   6.793   8.803   1.885  0.0734 -0.5731  0.0494
    4CHTO  H202 1323   6.885   8.786   1.883  0.3424  0.8855 -2.2305
    4CHTO  C119 1324   6.646   8.985   1.934 -0.2487  0.4293  0.9295
    4CHTO  H223 1325   6.643   9.071   2.001  1.1208  1.9845 -0.9434
    4CHTO  C117 1326   6.510   8.906   1.947 -0.0322 -0.2524  0.0426
    4CHTO  H221 1327   6.492   8.842   1.860  0.6620 -1.9280  1.1129
    4CHTO   N20 1328   6.389   8.992   1.954  0.2982  0.2474 -0.2280
    4CHTO  H209 1329   6.391   9.061   1.870  0.3298 -0.1026 -0.5132
    4CHTO  H210 1330   6.296   8.938   1.943  1.3068 -1.8053  1.0690
    4CHTO   O80 1331   6.661   9.069   1.786  0.5940 -0.8047  0.6208
    4CHTO  C103 1332   6.658   9.217   1.785  0.0929 -0.2810  0.8389
    4CHTO  H190 1333   6.594   9.255   1.865 -0.7974 -1.4414  0.6904
    4CHTO  C101 1334   6.800   9.293   1.777 -0.5635  0.1536  0.0457
    4CHTO  H188 1335   6.851   9.253   1.690  2.6358 -1.2415  2.4705
    4CHTO   O68 1336   6.887   9.269   1.912  0.0017  0.0680 -0.5103
    4CHTO  H168 1337   6.830   9.259   1.987 -0.2329 -0.2600 -0.7277
    4CHTO   C99 1338   6.771   9.446   1.753 -0.6358  0.0588 -0.1673
    4CHTO  H186 1339   6.715   9.494   1.836 -0.6626  2.4770 -1.5323
    4CHTO   N17 1340   6.900   9.521   1.742 -0.1701  0.6558 -0.1016
    4CHTO  H174 1341   6.897   9.624   1.776  2.5087  0.4567  0.7983
    4CHTO  H175 1342   6.974   9.466   1.797 -0.7076 -0.1003 -0.1184
    4CHTO   C97 1343   6.691   9.474   1.628  0.1785 -1.3350  0.5627
    4CHTO  H184 1344   6.747   9.444   1.538 -1.5172 -2.0351 -0.2825
    4CHTO   O64 1345   6.569   9.402   1.639  0.3607 -0.0077  0.3104
    4CHTO  C104 1346   6.574   9.259   1.651 -0.1221  0.1880  0.1382
    4CHTO  H191 1347   6.629   9.223   1.563 -0.1116  0.8459 -0.1241
    4CHTO  C108 1348   6.434   9.207   1.645  0.3412  0.0804  0.0462
    4CHTO   O71 1349   6.343   9.267   1.737 -0.1149 -0.2988 -0.2214
    4CHTO  H171 1350   6.378   9.353   1.750  0.9216 -0.8360  0.5814
    4CHTO   O62 1351   6.635   9.608   1.624  0.7045 -0.0166  0.1105
    4CHTO   C91 1352   6.615   9.660   1.491 -0.0541 -0.6181  0.0481
    4CHTO  H178 1353   6.611   9.580   1.417  1.6569 -0.0384 -0.6768
    4CHTO   C92 1354   6.730   9.758   1.449  0.2536  0.5229  0.2746
    4CHTO  H179 1355   6.736   9.833   1.528 -0.5180  0.2987  0.5472
    4CHTO   O66 1356   6.859   9.699   1.451 -0.1083 -0.0864  0.5737
    4CHTO  H166 1357   6.901   9.676   1.532 -1.3532 -1.8178  0.7386
    4CHTO   C93 1358   6.709   9.821   1.307 -0.0290 -0.3444  0.0929
    4CHTO  H180 1359   6.726   9.735   1.241  2.4001 -0.5162  0.8991
    4CHTO   N16 1360   6.803   9.926   1.266 -0.0815 -0.0147 -0.1421
    4CHTO  H172 1361   6.852   9.974   1.350  2.3064 -2.0924 -0.2797
    4CHTO  H173 1362   6.748  10.002   1.213 -0.1953 -0.7182 -1.0436
    4CHTO   C94 1363   6.560   9.877   1.285 -0.4937  0.0084  0.4758
    4CHTO  H181 1364   6.532   9.951   1.360  0.6694  1.1146 -0.1713
    4CHTO   O61 1365   6.470   9.768   1.324 -0.0582  0.3560  0.2021
    4CHTO   C95 1366   6.483   9.739   1.463  0.0954 -0.5456  0.6338
    4CHTO  H182 1367   6.476   9.830   1.522 -1.1259  0.6576 -1.3049
    4CHTO  C106 1368   6.351   9.658   1.496 -0.0509 -0.4083  0.2854
    4CHTO   O69 1369   6.345   9.619   1.636 -0.8132  0.1603  0.8601
    4CHTO  H169 1370   6.318   9.530   1.650  1.2898 -0.4972  0.9101
    4CHTO   O63 1371   6.525   9.938   1.120 -0.2572 -0.0050  0.0483
    4CHTO   C96 1372   6.561   9.841   0.985 -0.8670 -0.8321 -0.2908
    4CHTO  H183 1373   6.645   9.775   1.004  0.8311  1.0153 -1.1798
    4CHTO   C98 1374   6.586   9.920   0.854 -0.1572 -0.3410 -0.0062
    4CHTO  H185 1375   6.500   9.983   0.831 -0.4110 -0.5882  0.2647
    4CHTO   O67 1376   6.701  10.011   0.876  0.7301 -0.2763  0.4690
    4CHTO  H167 1377   6.676  10.088   0.923  2.8227  1.1753 -0.7341
    4CHTO  C102 1378   6.619   9.815   0.736  0.1841 -0.5704  0.2511
    4CHTO  H189 1379   6.716   9.776   0.769 -1.0531 -0.5802  4.2253
    4CHTO   N18 1380   6.640   9.865   0.596  0.6283 -0.5962 -0.0575
    4CHTO  H176 1381   6.544   9.892   0.554  2.4348  3.4551 -1.7577
    4CHTO  H177 1382   6.722   9.935   0.585  0.3520 -0.2776 -0.1112
    4CHTO  C105 1383   6.522   9.694   0.740  0.5330  0.9487  0.3542
    4CHTO  H192 1384   6.475   9.676   0.643  0.4107  1.6980  0.2743
    4CHTO   O65 1385   6.404   9.709   0.823 -0.5485 -0.0875  0.1697
    4CHTO  C100 1386   6.433   9.754   0.956  0.0956  0.0278  0.3807
    4CHTO  H187 1387   6.348   9.814   0.992  0.5006  0.4614  0.6169
    4CHTO  C107 1388   6.434   9.632   1.050  0.2178 -0.1356  0.1799
    4CHTO   O70 1389   6.303   9.578   1.078  0.2582  0.2817 -0.0725
    4CHTO  H170 1390   6.314   9.486   1.088 -1.0511  0.2774  1.4341
    4CHTO   O57 1391   6.614   9.560   0.790 -0.0613 -0.7177 -0.0080
    4CHTO   C85 1392   6.607   9.446   0.702  0.2612 -0.6371 -0.5056
    4CHTO  H157 1393   6.515   9.466   0.642 -0.2123 -3.0382 -0.6293
    4CHTO   C83 1394   6.577   9.323   0.796  0.0068  0.2199  0.8032
    4CHTO  H155 1395   6.487   9.344   0.854 -1.6716 -0.1008 -1.6244
    4CHTO   O56 1396   6.681   9.305   0.891 -0.1182  0.7094 -0.6282
    4CHTO  H135 1397   6.723   9.387   0.911 -0.0380  0.8955 -1.5466
    4CHTO   C81 1398   6.543   9.204   0.704 -0.1543 -0.5721 -0.0885
    4CHTO  H153 1399   6.471   9.234   0.628  0.5897 -1.1136 -1.0172
    4CHTO   N14 1400   6.485   9.087   0.775  0.5193 -0.2623  0.3457
    4CHTO  H141 1401   6.435   9.027   0.703  2.5550  0.8966 -2.1313
    4CHTO  H142 1402   6.409   9.125   0.839  0.1778 -0.4701  0.0653
    4CHTO   C79 1403   6.683   9.175   0.628 -0.0421  0.0059  0.7851
    4CHTO  H151 1404   6.670   9.084   0.569  2.1005 -0.7432  1.3963
    4CHTO   O52 1405   6.726   9.291   0.546 -0.0891  0.1637  0.1359
    4CHTO   C86 1406   6.729   9.417   0.611  0.3581  0.9086 -0.0595
    4CHTO  H158 1407   6.819   9.415   0.677  0.3669 -0.2845 -0.0881
    4CHTO   C90 1408   6.751   9.534   0.515 -0.6953 -0.0282 -0.7569
    4CHTO   O60 1409   6.882   9.515   0.467  0.3263  0.8045 -1.1789
    4CHTO  H138 1410   6.891   9.427   0.435 -0.1153  0.3905 -0.1603
    4CHTO   O50 1411   6.790   9.125   0.706 -0.0298  0.3042 -0.4145
    4CHTO   C73 1412   6.924   9.121   0.755 -0.4049 -0.3764 -1.2978
    4CHTO  H145 1413   6.932   9.183   0.845 -0.5164  1.8762 -2.7763
    4CHTO   C74 1414   7.018   9.193   0.655  0.5355  0.2136  0.0729
    4CHTO  H146 1415   6.984   9.296   0.643 -2.4494 -0.4096  2.5077
    4CHTO   O54 1416   7.142   9.202   0.721  0.4909  0.2121  0.8468
    4CHTO  H133 1417   7.215   9.176   0.668  0.2394 -0.8349  1.0025
    4CHTO   C75 1418   7.023   9.112   0.510  0.6421 -0.1947  0.1516
    4CHTO  H147 1419   6.924   9.091   0.466  0.1577 -2.5311  2.2095
    4CHTO   N13 1420   7.115   9.178   0.411  0.1765  0.3179  0.1675
    4CHTO  H139 1421   7.207   9.208   0.458 -0.4568  0.0181  1.6329
    4CHTO  H140 1422   7.145   9.126   0.321  1.8836  0.9018  0.3781
    4CHTO   C76 1423   7.074   8.960   0.553 -0.2546 -0.4055 -0.0246
    4CHTO  H148 1424   7.177   8.958   0.589 -1.0666 -0.7550  2.4159
    4CHTO   O49 1425   6.978   8.913   0.652 -0.2150 -0.1617 -0.1224
    4CHTO   C77 1426   6.977   8.974   0.783  0.7533 -0.1243  0.1073
    4CHTO  H149 1427   7.078   8.986   0.822 -0.7950  3.5641  3.3882
    4CHTO   C88 1428   6.894   8.893   0.884 -0.7729  0.2122 -0.4216
    4CHTO   O58 1429   6.944   8.747   0.894 -0.1041 -0.4798 -0.5336
    4CHTO  H136 1430   6.911   8.709   0.973  1.0246 -0.9520 -0.2715
    4CHTO   O51 1431   7.054   8.850   0.439 -0.4355 -0.0852  0.8919
    4CHTO   C78 1432   7.187   8.819   0.365 -0.7596  0.2616 -0.6530
    4CHTO  H150 1433   7.268   8.893   0.386 -0.5366  0.4839 -2.2425
    4CHTO   C80 1434   7.166   8.816   0.214  0.0179  0.3547 -0.5586
    4CHTO  H152 1435   7.075   8.755   0.196  0.7923 -0.7233 -0.8719
    4CHTO   O55 1436   7.131   8.947   0.166 -0.2945 -0.2383  0.0586
    4CHTO  H134 1437   7.049   8.979   0.198  0.5420  0.5227  1.5307
    4CHTO   C84 1438   7.295   8.754   0.140  0.8349  0.4920 -0.2850
    4CHTO  H156 1439   7.366   8.837   0.137  0.8044  0.4808 -2.4774
    4CHTO   N15 1440   7.262   8.728  -0.005  0.4868 -0.5219  0.7467
    4CHTO  H143 1441   7.332   8.671  -0.063 -0.2676 -1.8568  1.1145
    4CHTO  H144 1442   7.246   8.817  -0.061  4.6898  0.5120  1.0502
    4CHTO   C87 1443   7.331   8.627   0.213  0.5707  0.1182 -0.2586
    4CHTO  H159 1444   7.251   8.554   0.199  3.1982 -2.8252 -0.5047
    4CHTO   O53 1445   7.360   8.656   0.353 -0.1959 -0.7507  0.7944
    4CHTO   C82 1446   7.234   8.689   0.418  0.7479  0.1610  0.1967
    4CHTO  H154 1447   7.160   8.612   0.393  1.3851 -0.0414 -1.0731
    4CHTO   C89 1448   7.252   8.681   0.573 -0.7913  0.1045 -0.7541
    4CHTO   O59 1449   7.364   8.758   0.614  0.2992 -0.4376  0.2281
    4CHTO  H137 1450   7.358   8.778   0.706  0.0134 -0.2188  0.1621
    4CHTO   O45 1451   7.482   8.561   0.148  0.1173 -0.0830 -0.3210
    4CHTO   C67 1452   7.531   8.429   0.188 -0.5057 -0.8089  0.4300
    4CHTO  H124 1453   7.604   8.391   0.117  1.0397  0.1453  1.4713
    4CHTO   C65 1454   7.605   8.449   0.322  0.7091  0.1232 -0.5034
    4CHTO  H122 1455   7.581   8.542   0.373  1.3909 -1.7301  3.3777
    4CHTO   O44 1456   7.740   8.457   0.282 -0.6731  0.3556  0.1676
    4CHTO  H102 1457   7.771   8.546   0.281  2.3822 -0.6366  0.2715
    4CHTO   C63 1458   7.574   8.331   0.428 -0.4709 -0.4001 -0.4594
    4CHTO  H120 1459   7.483   8.355   0.484 -0.2292 -1.7009  0.5229
    4CHTO   N11 1460   7.660   8.331   0.545  0.0086 -0.6247 -0.7554
    4CHTO  H108 1461   7.671   8.435   0.572  0.0093 -0.7743 -0.1678
    4CHTO  H109 1462   7.656   8.253   0.618  0.7275  0.5975  0.6275
    4CHTO   C61 1463   7.549   8.192   0.353 -0.6221 -0.0547  0.2063
    4CHTO  H118 1464   7.502   8.124   0.425 -0.0327  0.7338  1.3360
    4CHTO   O40 1465   7.467   8.192   0.231 -0.1534  0.5104  0.3581
    4CHTO   C68 1466   7.413   8.324   0.194 -0.5967 -0.1486 -0.6415
    4CHTO  H125 1467   7.337   8.351   0.269  0.8820  2.9431 -0.1765
    4CHTO   C72 1468   7.341   8.303   0.060 -0.3534 -0.0691 -0.2187
    4CHTO   O48 1469   7.252   8.187   0.050 -0.2259  0.2028  0.0039
    4CHTO  H105 1470   7.289   8.110   0.088 -2.3168  0.5026  2.8403
    4CHTO   O38 1471   7.678   8.140   0.313  0.5449 -0.3147  0.0845
    4CHTO   C55 1472   7.694   7.998   0.294 -0.5059  0.1866  0.2349
    4CHTO  H112 1473   7.593   7.955   0.285 -1.0871  1.4060  0.8119
    4CHTO   C56 1474   7.768   7.943   0.427  0.2893 -0.2198 -0.2638
    4CHTO  H113 1475   7.848   8.012   0.454  0.0854 -0.5501  1.2214
    4CHTO   O42 1476   7.677   7.961   0.539 -0.1526 -0.3897  0.6772
    4CHTO  H100 1477   7.726   7.933   0.614 -0.8862  1.5651  1.9478
    4CHTO   C57 1478   7.792   7.787   0.423  0.3707  0.0425  0.2857
    4CHTO  H114 1479   7.697   7.736   0.434 -0.5514  1.1378 -2.1667
    4CHTO   N10 1480   7.874   7.739   0.534 -0.5178  0.4222  0.5365
    4CHTO  H106 1481   7.934   7.819   0.574  3.2803 -3.2670  2.6215
    4CHTO  H107 1482   7.820   7.694   0.617 -1.3829 -0.1076 -0.2970
    4CHTO   C58 1483   7.851   7.756   0.285  0.8402 -0.1955  0.1709
    4CHTO  H115 1484   7.958   7.785   0.284  0.4609  1.3172  0.6270
    4CHTO   O37 1485   7.790   7.815   0.171  0.6445 -0.3451  0.6666
    4CHTO   C59 1486   7.783   7.956   0.172 -0.2569  0.2319 -0.1960
    4CHTO  H116 1487   7.885   7.992   0.183  0.7192 -2.9961  2.1550
    4CHTO   C70 1488   7.732   8.004   0.035  0.2915  0.1565  0.2961
    4CHTO   O46 1489   7.607   7.945   0.009  0.3672  0.3481  0.0980
    4CHTO  H103 1490   7.537   7.985   0.058  0.4434  1.6370 -0.8288
    4CHTO   O39 1491   7.845   7.585   0.256  0.5780  0.1025  1.0752
    4CHTO   C60 1492   7.717   7.520   0.275  0.3533 -0.9132 -0.7450
    4CHTO  H117 1493   7.688   7.523   0.380 -1.5857 -0.4750 -1.2768
    4CHTO   C62 1494   7.602   7.585   0.183 -0.7315 -0.2537 -0.4038
    4CHTO  H119 1495   7.586   7.692   0.204  2.8590  0.6146 -1.6393
    4CHTO   O43 1496   7.641   7.559   0.048  0.4064 -0.0955 -0.1352
    4CHTO  H101 1497   7.567   7.555  -0.010  0.2885 -0.3737  0.0296
    4CHTO   C66 1498   7.469   7.508   0.218 -0.3457 -0.1523 -0.3372
    4CHTO  H123 1499   7.455   7.517   0.326  2.7603  2.2346 -0.0707
    4CHTO   N12 1500   7.346   7.564   0.149 -0.1309 -0.2440  0.8391
    4CHTO  H110 1501   7.377   7.648   0.088 -0.2843 -0.9641 -0.2433
    4CHTO  H111 1502   7.268   7.585   0.220 -0.4332 -0.3327  0.5323
    4CHTO   C69 1503   7.468   7.354   0.191  0.3651 -0.3450  0.6309
    4CHTO  H126 1504   7.465   7.345   0.080 -1.6702  0.3700  0.6254
    4CHTO   O41 1505   7.583   7.292   0.246 -0.1205  1.0100 -0.5956
    4CHTO   C64 1506   7.738   7.371   0.235 -0.3511  0.9376 -0.3764
    4CHTO  H121 1507   7.774   7.358   0.131  0.6839 -0.8115  0.1909
    4CHTO   C71 1508   7.823   7.304   0.341  0.3061 -0.3303 -0.4469
    4CHTO   O47 1509   7.866   7.173   0.305  0.1455 -0.2183  0.3211
    4CHTO  H104 1510   7.888   7.124   0.381  2.8074 -0.5419 -0.6090
    4CHTO   O34 1511   7.313   7.264   0.248  0.4198  0.7886 -1.1606
    4CHTO   C49 1512   7.309   7.124   0.287  0.3488  0.2819  0.4323
    4CHTO   H91 1513   7.395   7.078   0.238  1.4061  3.2803 -0.6640
    4CHTO   C47 1514   7.179   7.060   0.233  0.3548 -0.2289  0.2005
    4CHTO   H89 1515   7.193   7.059   0.123 -0.2828  1.8934  0.0804
    4CHTO   O33 1516   7.065   7.142   0.264 -0.0652  0.0807 -0.2548
    4CHTO   H70 1517   6.988   7.101   0.231 -0.2692  1.4431 -1.5130
    4CHTO   C45 1518   7.154   6.916   0.297  0.4275 -0.0557 -0.9362
    4CHTO   H87 1519   7.087   6.936   0.381  2.6350  1.4038  0.5449
    4CHTO    N8 1520   7.087   6.809   0.214  0.4841  0.1425  0.1426
    4CHTO   H75 1521   7.041   6.859   0.130 -1.6262  0.1956  1.2976
    4CHTO   H76 1522   7.155   6.731   0.183  0.8202 -0.0192  1.2347
    4CHTO   C43 1523   7.279   6.861   0.376 -0.4710 -0.4001 -0.2198
    4CHTO   H85 1524   7.251   6.766   0.420  2.3085 -1.2506 -0.2564
    4CHTO   O29 1525   7.327   6.957   0.480 -0.1445  0.2763  0.5918
    4CHTO   C50 1526   7.322   7.096   0.436  0.1851 -0.2260  0.0424
    4CHTO   H92 1527   7.245   7.140   0.502  1.1702  0.5478  0.6903
    4CHTO   C54 1528   7.449   7.158   0.490 -0.7087  0.2056 -0.1894
    4CHTO   O36 1529   7.464   7.156   0.630 -0.2978  0.5881 -0.5074
    4CHTO   H72 1530   7.517   7.081   0.651 -1.4280 -0.3499 -0.9665
    4CHTO   O27 1531   7.379   6.825   0.283  0.1765 -0.5733  0.0633
    4CHTO   C37 1532   7.497   6.772   0.218 -0.0252 -0.7383 -0.8817
    4CHTO   H79 1533   7.487   6.774   0.108  0.0461  1.7680 -0.8634
    4CHTO   C38 1534   7.628   6.861   0.252 -0.3385  0.7094  0.5320
    4CHTO   H80 1535   7.644   6.874   0.360  0.1481 -1.6355  0.7580
    4CHTO   O31 1536   7.609   6.994   0.193 -0.3245 -0.6210 -0.7980
    4CHTO   H68 1537   7.666   7.050   0.242 -1.1780 -0.2886 -0.1601
    4CHTO   C39 1538   7.757   6.793   0.182  0.9621 -0.4006 -0.1131
    4CHTO   H81 1539   7.750   6.813   0.076  1.3724  3.3916  0.5071
    4CHTO    N7 1540   7.890   6.859   0.215  0.0948 -0.8376  0.0600
    4CHTO   H73 1541   7.894   6.954   0.162 -2.3676 -0.2072  0.9109
    4CHTO   H74 1542   7.905   6.885   0.319  1.0897  2.4332 -0.8125
    4CHTO   C40 1543   7.767   6.639   0.215 -0.2957 -0.4345 -0.8479
    4CHTO   H82 1544   7.795   6.621   0.319 -2.2456 -1.1440 -0.4151
    4CHTO   O26 1545   7.645   6.574   0.181 -0.6118  0.1488  0.0201
    4CHTO   C41 1546   7.525   6.620   0.257 -0.2366  0.0586 -0.2950
    4CHTO   H83 1547   7.539   6.616   0.366 -0.2163 -1.2881 -0.3395
    4CHTO   C52 1548   7.417   6.529   0.220  0.4234  0.7249  0.2962
    4CHTO   O35 1549   7.381   6.529   0.064 -0.1317 -0.5949 -0.5045
    4CHTO   H71 1550   7.440   6.479   0.011  2.4641  1.2712  0.5226
    4CHTO   O28 1551   7.857   6.567   0.134  0.1733  0.3375 -0.3429
    4CHTO   C42 1552   7.895   6.427   0.152  0.6850  0.8040  0.4025
    4CHTO   H84 1553   7.926   6.401   0.051 -2.2311  1.5894 -0.7508
    4CHTO   C44 1554   7.794   6.324   0.194 -0.4021  1.0033 -0.2764
    4CHTO   H86 1555   7.745   6.356   0.286 -0.5316  0.4303 -0.1476
    4CHTO   O32 1556   7.693   6.314   0.092 -0.1729 -0.1370 -0.5677
    4CHTO   H69 1557   7.623   6.262   0.127  0.1446 -0.4559 -0.3972
    4CHTO   C48 1558   7.849   6.175   0.231  0.4599  0.0174 -0.0394
    4CHTO   H90 1559   7.895   6.120   0.149 -0.4585 -2.2847  0.9701
    4CHTO    N9 1560   7.740   6.085   0.266 -0.3703  0.7273  0.2102
    4CHTO   H77 1561   7.774   5.986   0.293  0.2046  1.0382  0.6350
    4CHTO   H78 1562   7.653   6.101   0.204  0.4620  0.2677 -1.0954
    4CHTO   C51 1563   7.963   6.185   0.341  0.2247 -0.2780 -0.0196
    4CHTO   H93 1564   7.913   6.235   0.423  1.0222  0.7699 -0.1702
    4CHTO   O30 1565   8.062   6.268   0.285 -0.3379  0.4277 -0.0089
    4CHTO   C46 1566   8.020   6.420   0.241 -0.1545  0.0465  0.1349
    4CHTO   H88 1567   8.003   6.468   0.337 -1.2225  0.6202 -0.3319
    4CHTO   C53 1568   8.149   6.476   0.168  0.3624 -0.2044 -0.2943
    4CHTO   O72 1569   8.165   6.418   0.041  0.3705 -0.4736  0.0535
    4CHTO  H199 1570   8.253   6.422   0.010  0.4022 -2.3186 -0.1644
    4CHTO   O22 1571   8.043   6.065   0.364  0.6870  0.1388 -0.6817
    4CHTO   C31 1572   8.077   6.018   0.507 -0.4514 -0.0804 -0.4355
    4CHTO   H59 1573   8.106   6.112   0.558 -0.2035  0.0468 -0.8083
    4CHTO   C29 1574   7.956   5.959   0.583 -0.1943 -0.3576 -0.0939
    4CHTO   H57 1575   7.929   5.873   0.520  0.4218 -0.8870  0.3615
    4CHTO   O21 1576   7.850   6.051   0.587 -0.3612 -0.7912 -1.0419
    4CHTO   H37 1577   7.830   6.090   0.504  1.1138 -0.7451 -1.3934
    4CHTO   C27 1578   7.982   5.900   0.726  0.5607 -0.6494  0.4507
    4CHTO   H55 1579   7.988   5.990   0.790 -0.8324  0.1169 -0.4604
    4CHTO    N5 1580   7.874   5.808   0.777 -0.8086 -0.2238  0.1553
    4CHTO   H43 1581   7.808   5.769   0.700 -0.7173 -0.8823  0.4144
    4CHTO   H44 1582   7.831   5.859   0.862 -0.2116 -2.2538  1.7154
    4CHTO   C25 1583   8.127   5.830   0.733  0.2086  0.4560  0.2187
    4CHTO   H53 1584   8.124   5.726   0.695 -0.6387 -0.4382  2.6509
    4CHTO   O17 1585   8.235   5.905   0.661  0.0171  0.2086  0.3808
    4CHTO   C32 1586   8.198   5.927   0.519 -1.0895  0.6096 -0.8162
    4CHTO   H60 1587   8.184   5.832   0.468 -2.4334  0.5355 -0.3459
    4CHTO   C36 1588   8.319   5.987   0.458 -0.6339 -0.4552 -0.0705
    4CHTO   O25 1589   8.443   5.914   0.484  0.1073 -0.9754  0.4130
    4CHTO   H40 1590   8.434   5.840   0.542  3.9053 -0.6369  1.5777
    4CHTO   O15 1591   8.172   5.820   0.906  0.1560  0.6342 -0.2263
    4CHTO   C19 1592   8.179   5.949   0.983  0.4982 -0.3150 -0.0958
    4CHTO   H47 1593   8.250   5.928   1.064  0.5589 -1.0614 -0.3420
    4CHTO   C20 1594   8.240   6.082   0.911  0.2362  0.3490 -0.6139
    4CHTO   H48 1595   8.195   6.105   0.813  1.3888 -0.3592 -1.3230
    4CHTO   O19 1596   8.368   6.046   0.871  0.2455  0.5115  0.5440
    4CHTO   H35 1597   8.407   6.126   0.840 -0.2283  0.9724  1.1482
    4CHTO   C21 1598   8.239   6.206   1.005  0.6235  0.8682 -0.3084
    4CHTO   H49 1599   8.304   6.180   1.089 -0.1977  1.7276  0.5975
    4CHTO    N4 1600   8.293   6.331   0.950  0.0709 -0.1670  0.0534
    4CHTO   H41 1601   8.316   6.405   1.026 -2.0621  0.2654  0.3224
    4CHTO   H42 1602   8.249   6.368   0.859  0.0859  0.7608  0.4184
    4CHTO   C22 1603   8.091   6.217   1.049  0.1761  0.5490 -0.4096
    4CHTO   H50 1604   8.035   6.212   0.956 -0.3687  1.2479 -0.1224
    4CHTO   O14 1605   8.048   6.102   1.128  0.1063 -0.6079 -0.1248
    4CHTO   C23 1606   8.043   5.978   1.057  0.7005 -0.0418 -0.8028
    4CHTO   H51 1607   7.959   5.988   0.986  1.8481  0.5559 -2.0897
    4CHTO   C34 1608   8.015   5.877   1.168  0.0094  0.6024  0.4436
    4CHTO   O23 1609   7.956   5.754   1.131 -0.0819 -0.5265  0.2354
    4CHTO   H38 1610   7.878   5.775   1.083  0.3310 -1.2001 -0.7622
    4CHTO   O16 1611   8.051   6.331   1.129  0.1670  0.0444  0.0738
    4CHTO   C24 1612   7.919   6.410   1.081  0.1949  0.3340  0.1870
    4CHTO   H52 1613   7.879   6.368   0.988 -2.2001 -0.3398  1.4749
    4CHTO   C26 1614   7.957   6.548   1.039  0.7729  0.4742  0.0157
    4CHTO   H54 1615   8.006   6.596   1.127  3.1867 -2.3827  0.3110
    4CHTO   O20 1616   8.056   6.553   0.936 -0.2993 -0.7619  0.0618
    4CHTO   H36 1617   8.134   6.514   0.970  0.3586  0.4538 -0.0333
    4CHTO   C30 1618   7.822   6.625   0.999 -0.6194 -0.2028  0.3282
    4CHTO   H58 1619   7.770   6.563   0.924  2.0318 -0.9131 -0.9521
    4CHTO    N6 1620   7.832   6.766   0.947  0.7760 -0.5655 -0.9203
    4CHTO   H45 1621   7.740   6.819   0.968  0.9372 -0.7306  0.2429
    4CHTO   H46 1622   7.911   6.825   0.992 -0.2912  3.4410 -4.0076
    4CHTO   C33 1623   7.726   6.618   1.121 -0.4658 -0.3951 -0.3140
    4CHTO   H61 1624   7.778   6.662   1.206  0.0435 -2.2098  0.3407
    4CHTO   O18 1625   7.698   6.479   1.148 -0.2928 -0.6734  0.2532
    4CHTO   C28 1626   7.808   6.399   1.190  0.2235 -0.3576  0.5334
    4CHTO   H56 1627   7.848   6.435   1.285 -0.6033  0.8959  0.4205
    4CHTO   C35 1628   7.776   6.247   1.202 -0.4853  0.1652 -0.0801
    4CHTO   O24 1629   7.726   6.193   1.076  0.1664  0.4038 -0.5166
    4CHTO   H39 1630   7.635   6.179   1.091  0.5459 -0.3706  1.2696
    4CHTO    O9 1631   7.602   6.695   1.107 -0.1504  0.2254 -0.3566
    4CHTO   C13 1632   7.527   6.725   1.253  0.2537  0.2942  0.4930
    4CHTO   H26 1633   7.501   6.628   1.300 -4.9449  1.3494  0.0948
    4CHTO   C11 1634   7.394   6.809   1.227 -0.5471 -0.4363  0.3780
    4CHTO   H24 1635   7.332   6.738   1.171 -0.6804 -1.4208  1.7413
    4CHTO    O8 1636   7.425   6.918   1.139 -0.3954 -0.1353  0.4103
    4CHTO    H3 1637   7.348   6.945   1.092 -1.2386 -1.1438  1.1759
    4CHTO    C9 1638   7.321   6.850   1.360 -0.1716  0.0118  0.4175
    4CHTO   H22 1639   7.297   6.757   1.414 -2.2342  0.6007  0.5760
    4CHTO    N2 1640   7.191   6.907   1.340 -0.2919 -0.4740  0.0737
    4CHTO   H10 1641   7.140   6.896   1.435 -0.9354  0.1259 -0.1966
    4CHTO   H11 1642   7.140   6.870   1.251 -0.1078 -1.1686  0.2517
    4CHTO    C7 1643   7.420   6.938   1.447 -0.2860  0.1962 -0.1789
    4CHTO   H20 1644   7.366   6.931   1.544 -0.7098 -0.3308 -0.4492
    4CHTO    O4 1645   7.557   6.880   1.459 -0.6471 -0.2277  0.0449
    4CHTO   C14 1646   7.620   6.807   1.354  0.1245 -0.6957 -0.4348
    4CHTO   H27 1647   7.685   6.733   1.406 -0.5736 -0.9353  0.1084
    4CHTO   C18 1648   7.713   6.911   1.278  0.1604  0.0191  0.1478
    4CHTO   O13 1649   7.818   6.972   1.350 -0.3009 -0.1029  0.0362
    4CHTO    H7 1650   7.798   7.022   1.427  1.5184 -2.4870  2.1787
    4CHTO    O2 1651   7.431   7.097   1.404 -0.2851 -0.2958  0.1073
    4CHTO    C1 1652   7.501   7.185   1.485  0.7050 -0.5563 -0.7294
    4CHTO   H14 1653   7.604   7.145   1.480  1.1372  0.5398 -0.5857
    4CHTO    C2 1654   7.460   7.198   1.633  0.6918  0.6985 -0.5529
    4CHTO   H15 1655   7.352   7.211   1.644  0.0469 -3.0868 -1.5641
    4CHTO    O6 1656   7.499   7.068   1.695  0.0043  0.2074  0.1189
    4CHTO    H1 1657   7.425   7.021   1.729 -0.0424  1.8466  2.3951
    4CHTO    C3 1658   7.545   7.317   1.705  0.5452  0.5402 -0.5898
    4CHTO   H16 1659   7.649   7.281   1.715  1.0856  2.8770  2.7554
    4CHTO    N1 1660   7.499   7.336   1.846 -0.4772  0.3140 -0.7441
    4CHTO    H8 1661   7.399   7.306   1.874 -1.5137  3.6512 -0.7555
    4CHTO    H9 1662   7.565   7.281   1.911 -2.0674 -3.1817 -1.9076
    4CHTO    C4 1663   7.559   7.451   1.617 -0.0764 -0.2587 -0.4263
    4CHTO   H17 1664   7.461   7.499   1.616 -0.5059 -1.1013  0.5344
    4CHTO    O1 1665   7.595   7.405   1.485 -0.3195 -0.2394 -0.0041
    4CHTO    C5 1666   7.500   7.324   1.415  0.1549 -0.7661  0.2297
    4CHTO   H18 1667   7.403   7.370   1.433  0.4467 -0.5033  1.1209
    4CHTO   C16 1668   7.535   7.323   1.262  0.1989 -0.1899 -0.2794
    4CHTO   O11 1669   7.526   7.450   1.188 -0.2208 -0.3590 -0.1397
    4CHTO    H5 1670   7.604   7.498   1.206 -0.9696  0.0922  2.1729
    4CHTO    O3 1671   7.675   7.526   1.650  0.3171 -0.2048  0.1241
    4CHTO    C6 1672   7.650   7.672   1.659  0.5395 -0.1306  0.7497
    4CHTO   H19 1673   7.555   7.705   1.617  0.8466  1.1418  1.0368
    4CHTO    C8 1674   7.646   7.732   1.800 -0.0902 -0.5198  0.0320
    4CHTO   H21 1675   7.730   7.696   1.859  0.2854  0.5379  0.1662
    4CHTO    O7 1676   7.522   7.688   1.858  0.0974  0.3612  0.0919
    4CHTO    H2 1677   7.478   7.757   1.906  3.2787 -0.0057  3.8098
    4CHTO   C12 1678   7.667   7.893   1.819 -0.1308 -0.0935 -0.7164
    4CHTO   H25 1679   7.574   7.940   1.779  0.9278  0.4326 -2.6508
    4CHTO    N3 1680   7.677   7.928   1.966  0.6956  0.7086 -0.2290
    4CHTO   H12 1681   7.618   8.017   1.985  0.3891  0.4263  0.1309
    4CHTO   H13 1682   7.782   7.938   1.991  0.5830  0.1069  0.4956
    4CHTO   C15 1683   7.784   7.931   1.727  0.1920  0.5662 -0.0765
    4CHTO   H28 1684   7.877   7.892   1.768 -0.0051 -0.2973 -0.4261
    4CHTO   O10 1685   7.805   8.082   1.694  0.3058 -0.0783 -0.2342
    4CHTO    H4 1686   7.806   8.101   1.602 -2.8341 -1.3891 -0.5959
    4CHTO    O5 1687   7.762   7.885   1.593 -0.2155 -0.5936  0.4319
    4CHTO   C10 1688   7.759   7.745   1.578  0.2736  0.5524 -0.1463
    4CHTO   H23 1689   7.847   7.704   1.628 -0.2184 -0.1168  0.1718
    4CHTO   C17 1690   7.767   7.721   1.426  0.2041  0.1366 -0.3460
    4CHTO   O12 1691   7.902   7.752   1.377  0.1128  0.3808 -0.0053
    4CHTO    H6 1692   7.962   7.694   1.420 -1.0055  0.3244  1.5013
    5CHTO  H203 1693   8.572   4.067   0.922  0.3885 -0.7603  1.5489
    5CHTO   O82 1694   8.524   3.988   0.905 -0.0091 -0.2153  0.0325
    5CHTO  C123 1695   8.536   3.902   1.021  0.3164 -0.3503  0.0044
    5CHTO  H227 1696   8.643   3.882   1.039  0.0285 -0.5154  1.5821
    5CHTO   O77 1697   8.488   3.992   1.132 -0.6443 -0.0472  0.1523
    5CHTO  C118 1698   8.494   3.919   1.252  0.5501 -0.3317  0.1097
    5CHTO  H222 1699   8.592   3.870   1.266  0.4736 -0.8473 -1.0751
    5CHTO  C125 1700   8.471   4.021   1.372  0.2270 -0.1559 -0.4999
    5CHTO   O84 1701   8.574   4.119   1.362 -0.3739  0.4403  0.3109
    5CHTO  H205 1702   8.590   4.147   1.450  0.0736 -0.2336  0.4448
    5CHTO  C114 1703   8.392   3.804   1.248  0.2488 -0.6486  1.1688
    5CHTO  H218 1704   8.301   3.857   1.219  2.5543  1.4387 -2.6007
    5CHTO  C116 1705   8.424   3.700   1.137  0.1201 -0.0335  0.8580
    5CHTO  H220 1706   8.523   3.653   1.158  1.0670  1.2690 -0.5787
    5CHTO   O79 1707   8.327   3.595   1.141  0.4704 -0.1270 -0.1941
    5CHTO  H201 1708   8.351   3.544   1.066  1.4124  0.2670 -0.1730
    5CHTO  C120 1709   8.440   3.777   1.006 -0.2162  0.4455  0.4721
    5CHTO  H224 1710   8.339   3.811   0.973 -0.1057 -0.1923 -0.5417
    5CHTO   N21 1711   8.478   3.684   0.891 -0.5231  0.1751 -0.5409
    5CHTO  H211 1712   8.429   3.588   0.897 -0.1620  0.0354  0.3418
    5CHTO  H212 1713   8.583   3.660   0.890 -0.8420 -1.2097 -1.4955
    5CHTO   O75 1714   8.398   3.749   1.385  0.3416 -0.5652 -0.9887
    5CHTO  C112 1715   8.248   3.715   1.439  0.0816  0.2270 -0.1555
    5CHTO  H216 1716   8.184   3.666   1.365  0.4227 -1.0527  0.3873
    5CHTO   O73 1717   8.186   3.837   1.490  0.1155 -0.2486  0.7001
    5CHTO  C113 1718   8.049   3.816   1.530 -0.1424 -0.5111 -0.5453
    5CHTO  H217 1719   7.998   3.765   1.445  0.0423 -1.4214 -0.1127
    5CHTO  C124 1720   7.986   3.959   1.542  0.3266  0.4600 -0.0006
    5CHTO   O83 1721   7.981   4.013   1.409 -0.1725  0.6217 -0.0300
    5CHTO  H204 1722   7.914   3.966   1.362  1.6776 -1.3495 -0.8220
    5CHTO  C109 1723   8.040   3.733   1.655  0.1097  0.4313  0.0927
    5CHTO  H213 1724   8.086   3.797   1.732 -0.0316 -0.0774  0.6017
    5CHTO  C110 1725   8.118   3.598   1.626  0.0199  0.3266 -0.5432
    5CHTO  H214 1726   8.058   3.537   1.559  1.6266 -2.4381  0.4181
    5CHTO   O78 1727   8.134   3.532   1.749 -0.0462 -0.5055 -0.3514
    5CHTO  H200 1728   8.167   3.445   1.737 -1.2577 -0.9721 -0.3910
    5CHTO  C111 1729   8.259   3.612   1.559  0.1094  0.0849  0.5713
    5CHTO  H215 1730   8.328   3.651   1.635  0.6163 -0.4157  0.3735
    5CHTO   N19 1731   8.315   3.482   1.517 -0.9755 -0.1930 -0.2388
    5CHTO  H207 1732   8.346   3.416   1.597  2.0599  0.7719 -0.5603
    5CHTO  H208 1733   8.256   3.424   1.448  0.0278 -1.3119 -0.1752
    5CHTO   O74 1734   7.898   3.717   1.682  0.5674 -0.5147 -0.4354
    5CHTO  C115 1735   7.882   3.712   1.836 -0.3601 -0.1586  0.0059
    5CHTO  H219 1736   7.975   3.685   1.887  0.8966  1.7354 -1.2390
    5CHTO   O76 1737   7.841   3.850   1.894 -0.0615 -0.0900  0.2146
    5CHTO  C122 1738   7.730   3.910   1.823 -0.0297 -0.1234  0.1231
    5CHTO  H226 1739   7.764   3.947   1.726 -0.9595  0.6054  0.0688
    5CHTO  C126 1740   7.706   4.049   1.899 -0.0134 -0.1666  0.1288
    5CHTO   O85 1741   7.817   4.134   1.894  0.0268 -0.6490 -0.1776
    5CHTO  H206 1742   7.830   4.191   1.968  0.3587  1.3771 -1.7398
    5CHTO  C121 1743   7.611   3.807   1.826  0.0248 -0.9553  0.0110
    5CHTO  H225 1744   7.530   3.866   1.874  1.6150  1.1138  0.2564
    5CHTO   O81 1745   7.587   3.772   1.693 -0.0681  0.2100 -0.3929
    5CHTO  H202 1746   7.495   3.769   1.677 -0.1054 -0.1959 -0.1243
    5CHTO  C119 1747   7.639   3.681   1.916 -0.2902  0.2350  0.1110
    5CHTO  H223 1748   7.657   3.726   2.013 -0.6752  2.9994 -1.0744
    5CHTO  C117 1749   7.768   3.607   1.879  0.1249 -0.4843  0.5705
    5CHTO  H221 1750   7.760   3.535   1.798  2.5479 -0.5295  0.3282
    5CHTO   N20 1751   7.828   3.527   1.991 -0.5835  0.0110  0.3490
    5CHTO  H209 1752   7.769   3.445   2.030 -1.3637  0.1595 -0.5140
    5CHTO  H210 1753   7.860   3.591   2.072 -1.8338 -2.1429  2.6316
    5CHTO   O80 1754   7.506   3.572   1.940 -0.4664 -0.7515  0.4729
    5CHTO  C103 1755   7.399   3.548   1.838  0.2027  0.0943 -0.2031
    5CHTO  H190 1756   7.410   3.629   1.766 -1.8222 -1.0663 -1.8716
    5CHTO  C101 1757   7.410   3.404   1.780  0.6155 -0.1267 -0.3762
    5CHTO  H188 1758   7.389   3.334   1.860 -2.0780 -1.1209 -1.8797
    5CHTO   O68 1759   7.552   3.385   1.730  0.5182  0.2062 -0.1657
    5CHTO  H168 1760   7.571   3.436   1.654  1.1307  0.1801 -0.0349
    5CHTO   C99 1761   7.293   3.380   1.657  0.2226  0.3302 -0.1173
    5CHTO  H186 1762   7.293   3.457   1.578 -0.7915  0.5686  0.1072
    5CHTO   N17 1763   7.301   3.245   1.593  0.0264  0.5556  0.6319
    5CHTO  H174 1764   7.378   3.192   1.647 -0.4339 -0.1217  0.6251
    5CHTO  H175 1765   7.336   3.261   1.492  1.7830  0.4531  1.2215
    5CHTO   C97 1766   7.156   3.401   1.734 -0.4685 -0.8384  0.7851
    5CHTO  H184 1767   7.138   3.320   1.807 -1.0438 -0.2165  1.3379
    5CHTO   O64 1768   7.154   3.527   1.796  0.0650 -0.5715 -0.1383
    5CHTO  C104 1769   7.253   3.556   1.899  0.9702 -0.0205  0.3017
    5CHTO  H191 1770   7.250   3.486   1.982  1.7181  0.6921  0.9447
    5CHTO  C108 1771   7.218   3.691   1.958 -0.2106 -0.2753  0.3627
    5CHTO   O71 1772   7.097   3.698   2.024  0.1092 -0.0668 -0.2694
    5CHTO  H171 1773   7.086   3.778   2.072  1.6974  0.8369 -1.3393
    5CHTO   O62 1774   7.046   3.418   1.640  0.1451  0.2161 -0.1510
    5CHTO   C91 1775   6.917   3.385   1.695  0.4003  0.0177 -0.2197
    5CHTO  H178 1776   6.921   3.397   1.803 -1.0861 -2.7508  0.2038
    5CHTO   C92 1777   6.881   3.234   1.671 -0.7076  0.4357 -0.3979
    5CHTO  H179 1778   6.869   3.213   1.564 -1.2520  1.6629 -0.5892
    5CHTO   O66 1779   6.979   3.141   1.719 -0.6519 -0.1702  0.2805
    5CHTO  H166 1780   7.057   3.132   1.668 -0.5057  0.4636  0.3814
    5CHTO   C93 1781   6.744   3.204   1.743  0.4183 -0.3083 -0.1735
    5CHTO  H180 1782   6.756   3.212   1.852 -0.6653  0.6257 -0.1143
    5CHTO   N16 1783   6.691   3.066   1.726 -0.3035 -0.5193 -0.7376
    5CHTO  H172 1784   6.656   3.058   1.624  0.1106 -1.3465 -0.8180
    5CHTO  H173 1785   6.608   3.058   1.795  0.8498 -1.5402  0.5664
    5CHTO   C94 1786   6.630   3.302   1.696  0.3651 -0.7242 -0.2923
    5CHTO  H181 1787   6.615   3.292   1.589 -0.9365 -1.7220 -0.0344
    5CHTO   O61 1788   6.673   3.441   1.711  0.7240  0.4992 -0.0451
    5CHTO   C95 1789   6.795   3.465   1.634  0.4621  0.3635 -0.4263
    5CHTO  H182 1790   6.777   3.434   1.531 -2.8021 -1.1906  0.5427
    5CHTO  C106 1791   6.806   3.618   1.636  0.0840  0.5197 -0.7185
    5CHTO   O69 1792   6.900   3.654   1.535 -0.1087  0.0086  0.0859
    5CHTO  H169 1793   6.986   3.640   1.569  1.0717  2.0906 -1.8771
    5CHTO   O63 1794   6.488   3.287   1.782 -0.3344 -0.3189  0.5760
    5CHTO   C96 1795   6.365   3.277   1.677 -0.5940  0.1501 -0.1574
    5CHTO  H183 1796   6.404   3.219   1.593 -0.0587  0.6702 -0.2684
    5CHTO   C98 1797   6.301   3.410   1.624  0.1674  0.2455  0.1308
    5CHTO  H185 1798   6.252   3.462   1.707  0.0602 -0.9704  0.8472
    5CHTO   O67 1799   6.413   3.491   1.577  0.3897 -0.0047  0.2979
    5CHTO  H167 1800   6.399   3.577   1.611 -0.4411 -0.0876  0.1747
    5CHTO  C102 1801   6.187   3.382   1.510  0.1042  0.4600  0.6534
    5CHTO  H189 1802   6.235   3.344   1.418 -1.9993  0.6867 -0.5832
    5CHTO   N18 1803   6.112   3.507   1.467 -0.7027  0.1893 -0.2431
    5CHTO  H176 1804   6.010   3.511   1.501 -0.1048 -1.1269  1.8356
    5CHTO  H177 1805   6.164   3.594   1.503 -0.4237  0.2186 -0.7161
    5CHTO  C105 1806   6.087   3.274   1.568  0.2615 -0.1742 -0.4717
    5CHTO  H192 1807   6.015   3.327   1.630 -1.0548 -2.6937  0.2192
    5CHTO   O65 1808   6.140   3.163   1.651  0.2998  0.0765  0.1447
    5CHTO  C100 1809   6.244   3.188   1.747 -0.3608 -0.1102 -0.1668
    5CHTO  H187 1810   6.206   3.231   1.841  2.2704 -0.4929  1.1435
    5CHTO  C107 1811   6.293   3.051   1.794  0.0237 -0.3268  0.0617
    5CHTO   O70 1812   6.182   2.982   1.848  0.0673 -0.3495 -0.2376
    5CHTO  H170 1813   6.125   2.947   1.781 -1.2892 -1.5155  1.4707
    5CHTO   O57 1814   6.025   3.225   1.449  0.0274 -0.1647 -0.8591
    5CHTO   C85 1815   5.905   3.158   1.425  0.1561 -0.2246 -0.2280
    5CHTO  H157 1816   5.818   3.211   1.470 -0.4455 -1.3347 -0.0821
    5CHTO   C83 1817   5.905   3.022   1.507 -0.1406 -0.0299 -0.1271
    5CHTO  H155 1818   5.903   3.056   1.611  0.6832  1.5231 -0.5956
    5CHTO   O56 1819   6.029   2.950   1.487  0.1286  0.4154  0.4456
    5CHTO  H135 1820   6.051   2.915   1.403 -1.5941  2.2452 -0.8215
    5CHTO   C81 1821   5.777   2.938   1.483 -0.7921 -0.1767 -0.2136
    5CHTO  H153 1822   5.689   2.998   1.506 -0.3938  0.7903 -1.1783
    5CHTO   N14 1823   5.763   2.831   1.584 -0.6105 -0.2076  0.6469
    5CHTO  H141 1824   5.758   2.885   1.676 -1.5568  0.0490  0.4521
    5CHTO  H142 1825   5.668   2.785   1.566 -0.7205 -0.3206  1.4601
    5CHTO   C79 1826   5.776   2.900   1.330 -0.5540 -0.2965 -0.0848
    5CHTO  H151 1827   5.684   2.844   1.313 -0.1216 -1.1596  0.4176
    5CHTO   O52 1828   5.767   3.022   1.250  0.0703  0.2032  0.2095
    5CHTO   C86 1829   5.880   3.116   1.271  0.4465 -0.1027 -0.3164
    5CHTO  H158 1830   5.965   3.065   1.221  0.9049 -2.1036  2.3948
    5CHTO   C90 1831   5.860   3.247   1.179 -0.8588 -0.5521 -0.1232
    5CHTO   O60 1832   5.854   3.210   1.042  0.2412  0.0438  0.1237
    5CHTO  H138 1833   5.879   3.277   0.981  1.3040  2.5510  3.2105
    5CHTO   O50 1834   5.890   2.827   1.281 -0.4717 -0.5895 -0.5969
    5CHTO   C73 1835   5.901   2.737   1.170 -0.5201  0.0068 -0.4215
    5CHTO  H145 1836   5.837   2.767   1.086  1.1995 -0.5319 -1.9371
    5CHTO   C74 1837   5.867   2.595   1.217  0.2472  0.2384  0.1501
    5CHTO  H146 1838   5.767   2.589   1.262 -0.3273 -0.0320 -1.1346
    5CHTO   O54 1839   5.864   2.510   1.099  0.1664 -0.2883 -0.0588
    5CHTO  H133 1840   5.832   2.424   1.115  1.1766 -0.6481  0.0206
    5CHTO   C75 1841   5.981   2.548   1.313  0.0364  0.4422 -0.4304
    5CHTO  H147 1842   5.969   2.606   1.406 -1.0015  2.6965 -1.9422
    5CHTO   N13 1843   5.982   2.401   1.354 -0.4195 -0.2312 -0.7511
    5CHTO  H139 1844   5.890   2.366   1.400 -0.2541 -0.4118 -0.5579
    5CHTO  H140 1845   6.067   2.372   1.414  0.9594 -1.6520 -3.2947
    5CHTO   C76 1846   6.130   2.584   1.263  0.1430 -0.1007  0.5743
    5CHTO  H148 1847   6.158   2.509   1.189  0.9363 -0.0963  0.8650
    5CHTO   O49 1848   6.137   2.711   1.194 -0.1892  0.4322  0.6082
    5CHTO   C77 1849   6.038   2.746   1.106 -0.8772  0.4497  0.5941
    5CHTO  H149 1850   6.043   2.678   1.021 -0.9287  1.8071 -0.5286
    5CHTO   C88 1851   6.083   2.881   1.045  0.1029 -0.5452  0.3439
    5CHTO   O58 1852   5.975   2.925   0.959  0.3038  0.4678  0.3015
    5CHTO  H136 1853   5.999   2.953   0.873 -2.6156  0.7956 -0.4628
    5CHTO   O51 1854   6.217   2.599   1.370  1.3559 -0.5052  0.4533
    5CHTO   C78 1855   6.380   2.601   1.313  0.4896  0.4214  0.7604
    5CHTO  H150 1856   6.385   2.636   1.209  2.4029  0.7035  0.9354
    5CHTO   C80 1857   6.443   2.458   1.315 -0.3919 -0.5228 -0.4581
    5CHTO  H152 1858   6.436   2.423   1.420  2.1426  0.7139  0.1746
    5CHTO   O55 1859   6.369   2.377   1.221 -0.5165 -0.3513 -0.0329
    5CHTO  H134 1860   6.393   2.286   1.223  0.4504 -0.1020  0.1935
    5CHTO   C84 1861   6.598   2.460   1.283  0.4591  0.2121 -0.7153
    5CHTO  H156 1862   6.609   2.501   1.183  1.7677  1.2972 -0.1349
    5CHTO   N15 1863   6.659   2.316   1.285  0.3133 -0.1742  0.6073
    5CHTO  H143 1864   6.641   2.270   1.380 -1.5216 -1.7826 -0.4649
    5CHTO  H144 1865   6.764   2.326   1.269  0.3857  1.1460  1.7555
    5CHTO   C87 1866   6.675   2.557   1.375  0.1867  0.4847 -0.1736
    5CHTO  H159 1867   6.658   2.526   1.478 -0.3835  0.8355 -0.1571
    5CHTO   O53 1868   6.602   2.696   1.357  0.4514  0.1056 -0.3872
    5CHTO   C82 1869   6.467   2.695   1.402  0.1817  0.1732  0.4994
    5CHTO  H154 1870   6.465   2.661   1.505  0.6303  2.4263  1.2567
    5CHTO   C89 1871   6.408   2.832   1.404 -0.1972 -0.1684 -0.0301
    5CHTO   O59 1872   6.501   2.915   1.474  0.3807 -0.0245  0.7206
    5CHTO  H137 1873   6.443   2.986   1.495 -0.8135 -0.5523 -0.7137
    5CHTO   O45 1874   6.846   2.571   1.339  0.2072 -0.1132  0.0320
    5CHTO   C67 1875   6.912   2.606   1.464  0.0615 -0.2097  0.8097
    5CHTO  H124 1876   6.836   2.636   1.535  0.2717  2.9308 -0.2161
    5CHTO   C65 1877   6.979   2.481   1.519 -0.0129 -0.6429  0.2998
    5CHTO  H122 1878   6.972   2.417   1.431 -0.4276  0.8880 -0.8003
    5CHTO   O44 1879   6.909   2.421   1.624  0.4446  0.1159 -0.0137
    5CHTO  H102 1880   6.949   2.340   1.649 -1.6017 -0.9047  0.0476
    5CHTO   C63 1881   7.133   2.498   1.538  0.7563  0.8561  0.0525
    5CHTO  H120 1882   7.175   2.515   1.438 -1.3564 -1.6828 -1.3368
    5CHTO   N11 1883   7.220   2.397   1.590  0.3721  0.4592 -0.4646
    5CHTO  H108 1884   7.206   2.379   1.695  0.6029  0.7214 -0.3866
    5CHTO  H109 1885   7.205   2.304   1.539 -0.7756 -0.3088  1.2257
    5CHTO   C61 1886   7.165   2.635   1.618 -0.2689 -0.3180  0.2220
    5CHTO  H118 1887   7.273   2.657   1.611  0.1678 -2.4338  0.0568
    5CHTO   O40 1888   7.095   2.752   1.567  0.0274  0.2707  0.3724
    5CHTO   C68 1889   7.002   2.736   1.446 -0.3980 -0.4536  0.0549
    5CHTO  H125 1890   7.070   2.733   1.359 -2.2020 -1.3627 -1.3515
    5CHTO   C72 1891   6.903   2.858   1.426 -0.2103  0.2223  0.7571
    5CHTO   O48 1892   6.824   2.852   1.308  0.1517  0.2711 -0.2456
    5CHTO  H105 1893   6.763   2.921   1.319 -0.5008 -0.4379  0.5875
    5CHTO   O38 1894   7.137   2.624   1.758  0.0820 -0.0568  0.0975
    5CHTO   C55 1895   7.109   2.740   1.842 -0.3456  0.4748  0.1070
    5CHTO  H112 1896   7.057   2.815   1.780 -0.5876  0.8085  0.7074
    5CHTO   C56 1897   7.244   2.797   1.906 -0.6008  0.1735 -0.6436
    5CHTO  H113 1898   7.310   2.721   1.950  1.2728  1.9645 -0.2284
    5CHTO   O42 1899   7.318   2.863   1.798 -0.1530  0.1195  0.5493
    5CHTO  H100 1900   7.402   2.888   1.832  2.0420 -0.1644 -4.2043
    5CHTO   C57 1901   7.200   2.908   2.016  0.1478  0.7313  1.2157
    5CHTO  H114 1902   7.153   2.990   1.962 -0.6576  0.4527  1.4857
    5CHTO   N10 1903   7.316   2.967   2.081 -0.4418  0.3755  0.1592
    5CHTO  H106 1904   7.305   3.074   2.075 -1.5643  0.1933 -1.4039
    5CHTO  H107 1905   7.315   2.939   2.185 -1.6599 -0.8127 -0.1656
    5CHTO   C58 1906   7.092   2.844   2.109  0.0353  0.2655 -0.4325
    5CHTO  H115 1907   7.142   2.762   2.165 -0.0770  0.0202 -0.6935
    5CHTO   O37 1908   6.977   2.788   2.044 -0.5012  0.0675  0.2517
    5CHTO   C59 1909   7.009   2.685   1.953  0.3445 -0.2484  0.1107
    5CHTO  H116 1910   7.045   2.595   2.003 -0.5968 -0.6488  0.0748
    5CHTO   C70 1911   6.880   2.632   1.905 -0.4537 -0.0902  0.0233
    5CHTO   O46 1912   6.805   2.723   1.825  0.6073 -0.5687  1.3270
    5CHTO  H103 1913   6.779   2.790   1.886  0.6922 -1.1668  2.0233
    5CHTO   O39 1914   7.045   2.964   2.203 -0.0263 -0.2065 -0.1948
    5CHTO   C60 1915   6.936   3.044   2.148  0.4892  0.6546  0.3507
    5CHTO  H117 1916   6.934   3.028   2.040  0.4853  1.4867  0.2221
    5CHTO   C62 1917   6.805   2.996   2.211 -1.1640  0.2722  0.8949
    5CHTO  H119 1918   6.807   2.885   2.205 -2.3618  0.3492 -1.2675
    5CHTO   O43 1919   6.798   3.023   2.350 -0.2963 -0.7547 -0.3622
    5CHTO  H101 1920   6.851   2.959   2.394 -1.4470 -1.5321 -0.1079
    5CHTO   C66 1921   6.691   3.064   2.133  0.4245  0.1298  0.4945
    5CHTO  H123 1922   6.707   3.047   2.026  0.3830  0.0824  0.4959
    5CHTO   N12 1923   6.558   3.009   2.165  0.0382 -0.4034 -0.7641
    5CHTO  H110 1924   6.561   2.960   2.261  1.0305  0.8617 -0.1290
    5CHTO  H111 1925   6.527   2.938   2.090 -1.8030  0.3141 -0.6907
    5CHTO   C69 1926   6.708   3.219   2.155  0.4281 -0.1885  0.2051
    5CHTO  H126 1927   6.705   3.243   2.263 -1.0202 -0.5394  0.2446
    5CHTO   O41 1928   6.853   3.262   2.104 -0.1113 -0.4308  0.1570
    5CHTO   C64 1929   6.961   3.196   2.168  1.0504 -0.8697 -0.7767
    5CHTO  H121 1930   6.951   3.208   2.278  0.3075  1.5077 -1.0744
    5CHTO   C71 1931   7.099   3.245   2.116 -0.4091  0.3344  0.1781
    5CHTO   O47 1932   7.117   3.386   2.136  0.0763  0.2801  0.7198
    5CHTO  H104 1933   7.046   3.443   2.118  0.7379  0.9180  0.1302
    5CHTO   O34 1934   6.602   3.313   2.081  0.0648  0.6396 -0.4389
    5CHTO   C49 1935   6.579   3.467   2.069  0.1205  0.0287 -0.1724
    5CHTO   H91 1936   6.644   3.500   1.988  0.4815 -0.5760 -0.1349
    5CHTO   C47 1937   6.629   3.532   2.201  1.0397 -0.2322 -0.1237
    5CHTO   H89 1938   6.633   3.641   2.183 -1.2773  0.2776  2.2031
    5CHTO   O33 1939   6.763   3.481   2.227 -0.2320 -0.4565 -0.0419
    5CHTO   H70 1940   6.832   3.535   2.194  0.5406 -0.3061  1.7434
    5CHTO   C45 1941   6.524   3.500   2.317  0.3800 -0.2828  0.2966
    5CHTO   H87 1942   6.530   3.391   2.328 -0.0450 -0.6366 -2.5719
    5CHTO    N8 1943   6.565   3.563   2.447  0.5594 -0.4270  0.0538
    5CHTO   H75 1944   6.495   3.520   2.518 -1.7552  1.6914 -0.8477
    5CHTO   H76 1945   6.555   3.670   2.441  1.5850 -0.3790 -0.8506
    5CHTO   C43 1946   6.376   3.545   2.272  0.2577  0.4064  0.0544
    5CHTO   H85 1947   6.303   3.511   2.346 -2.6763 -0.2071 -2.9825
    5CHTO   O29 1948   6.342   3.499   2.142  0.1422  0.0738  0.0468
    5CHTO   C50 1949   6.433   3.507   2.032  0.3158 -0.3507  0.3283
    5CHTO   H92 1950   6.386   3.437   1.962  0.3849  0.0552 -0.1294
    5CHTO   C54 1951   6.414   3.634   1.948  0.2120 -0.5043 -0.0511
    5CHTO   O36 1952   6.448   3.609   1.815 -0.6042 -0.1776  0.1120
    5CHTO   H72 1953   6.539   3.618   1.793 -0.4636 -0.6421  0.4996
    5CHTO   O27 1954   6.363   3.691   2.277  0.1002  0.4576 -0.1903
    5CHTO   C37 1955   6.269   3.794   2.297 -0.2357 -0.2325 -0.5709
    5CHTO   H79 1956   6.285   3.874   2.224  0.6312  0.2278  0.1155
    5CHTO   C38 1957   6.119   3.752   2.283  0.4301 -0.2527  0.0288
    5CHTO   H80 1958   6.100   3.665   2.347 -0.8276  0.0173  0.0234
    5CHTO   O31 1959   6.103   3.718   2.144  0.3110 -0.5838  0.6352
    5CHTO   H68 1960   6.018   3.737   2.111  0.5591 -0.5668  0.0084
    5CHTO   C39 1961   6.016   3.866   2.317  0.3019 -0.5013 -0.3720
    5CHTO   H81 1962   6.030   3.944   2.242  0.1197  1.8679  1.9876
    5CHTO    N7 1963   5.874   3.814   2.315  0.2016 -0.4397  0.5564
    5CHTO   H73 1964   5.819   3.899   2.276  0.1547 -0.9234 -0.4516
    5CHTO   H74 1965   5.842   3.788   2.414  0.3973  1.3247  1.0980
    5CHTO   C40 1966   6.055   3.928   2.458 -0.0142  0.5396  0.4763
    5CHTO   H82 1967   6.032   3.852   2.532 -2.0255  0.1344 -0.5307
    5CHTO   O26 1968   6.193   3.967   2.463 -0.1665 -0.1820  0.2967
    5CHTO   C41 1969   6.289   3.857   2.440  0.9496  0.0011 -0.6146
    5CHTO   H83 1970   6.276   3.787   2.524 -1.1937  1.0081 -0.0536
    5CHTO   C52 1971   6.429   3.919   2.456 -0.3097 -0.0811  0.1913
    5CHTO   O35 1972   6.477   3.962   2.583 -0.9665  0.2638 -0.3560
    5CHTO   H71 1973   6.415   4.024   2.616  0.1124  0.3161  1.6304
    5CHTO   O28 1974   5.983   4.053   2.465 -0.0108  0.4039  0.2965
    5CHTO   C42 1975   5.928   4.100   2.595 -0.2566  0.0412  0.3279
    5CHTO   H84 1976   5.855   4.171   2.557  0.9667  1.4839  0.6495
    5CHTO   C44 1977   6.030   4.170   2.691 -0.0697  0.4115  1.3268
    5CHTO   H86 1978   6.115   4.193   2.627 -0.3884  1.6204  1.3150
    5CHTO   O32 1979   5.975   4.303   2.721 -0.1686  0.2583  0.6838
    5CHTO   H69 1980   5.987   4.366   2.653 -1.9651  3.0480  2.8004
    5CHTO   C48 1981   6.071   4.080   2.819 -0.4222  0.2594  0.2214
    5CHTO   H90 1982   6.013   4.122   2.902 -2.8387  1.4113 -1.9953
    5CHTO    N9 1983   6.208   4.115   2.873  0.0764 -0.3225  0.3702
    5CHTO   H77 1984   6.215   4.216   2.911 -0.1203 -1.2039  2.8655
    5CHTO   H78 1985   6.265   4.043   2.929 -2.3302 -1.1959  1.7558
    5CHTO   C51 1986   6.054   3.923   2.790  0.0482  0.6002  0.2965
    5CHTO   H93 1987   6.115   3.893   2.705 -0.3225 -2.0232  0.9261
    5CHTO   O30 1988   5.918   3.901   2.768  0.6926  0.3660 -0.4183
    5CHTO   C46 1989   5.839   3.996   2.672 -1.1239 -0.3470 -0.6809
    5CHTO   H88 1990   5.781   3.936   2.602  0.3694 -0.1398 -2.1376
    5CHTO   C53 1991   5.741   4.084   2.755  0.2199 -0.0295  0.1161
    5CHTO   O72 1992   5.637   4.008   2.825  0.2943 -1.0929 -0.5611
    5CHTO  H199 1993   5.564   3.976   2.776 -1.2976 -0.9519  1.6039
    5CHTO   O22 1994   6.089   3.829   2.894 -0.1095  0.6750 -0.3840
    5CHTO   C31 1995   6.100   3.682   2.874  0.2533 -0.2421  0.0465
    5CHTO   H59 1996   6.130   3.644   2.974  2.9697  2.4759  0.3487
    5CHTO   C29 1997   5.971   3.611   2.833  0.7329  0.4171  0.4409
    5CHTO   H57 1998   5.922   3.676   2.759 -1.5571 -0.9609  0.6920
    5CHTO   O21 1999   5.883   3.615   2.948  0.2283  0.1061 -0.4192
    5CHTO   H37 2000   5.798   3.635   2.912  0.2175 -1.7823 -1.4869
    5CHTO   C27 2001   5.975   3.463   2.785 -0.2118 -0.0872 -0.3722
    5CHTO   H55 2002   5.990   3.400   2.874 -1.2653  1.6090  1.0215
    5CHTO    N5 2003   5.848   3.420   2.723  0.1639  0.3327 -0.0766
    5CHTO   H43 2004   5.759   3.444   2.780  0.6525  0.1700  0.7608
    5CHTO   H44 2005   5.852   3.314   2.703  0.5307  0.2321  0.5401
    5CHTO   C25 2006   6.103   3.438   2.706 -0.5175  0.7179  0.3281
    5CHTO   H53 2007   6.090   3.484   2.607 -0.1820 -1.7292 -0.8962
    5CHTO   O17 2008   6.218   3.497   2.778 -0.2380 -0.2522 -0.9582
    5CHTO   C32 2009   6.209   3.641   2.774  0.3257 -0.0814 -0.5359
    5CHTO   H60 2010   6.184   3.684   2.677 -1.8405  1.2100  0.5647
    5CHTO   C36 2011   6.346   3.703   2.817  0.4441 -0.3480 -0.3910
    5CHTO   O25 2012   6.460   3.676   2.732 -0.2193  0.0166  0.0426
    5CHTO   H40 2013   6.428   3.664   2.644 -0.1326 -1.7970  0.2363
    5CHTO   O15 2014   6.133   3.300   2.679  0.6735 -0.0908  0.1277
    5CHTO   C19 2015   6.220   3.204   2.748  0.3805 -0.1352  0.0734
    5CHTO   H47 2016   6.277   3.270   2.816 -0.7192  0.0598  0.8390
    5CHTO   C20 2017   6.148   3.102   2.836 -0.8156 -0.9740  0.1732
    5CHTO   H48 2018   6.078   3.042   2.776 -1.1194  1.9748 -2.5910
    5CHTO   O19 2019   6.064   3.172   2.939 -0.8513  0.2477  0.3554
    5CHTO   H35 2020   5.988   3.210   2.900  0.0704  1.3886 -0.3688
    5CHTO   C21 2021   6.255   2.999   2.898  0.4877 -0.1036 -0.6427
    5CHTO   H49 2022   6.307   3.047   2.980  0.7934 -0.7820 -0.4379
    5CHTO    N4 2023   6.187   2.881   2.963 -0.5490 -0.3665  0.3227
    5CHTO   H41 2024   6.128   2.905   3.050 -1.2737  1.1651 -0.5658
    5CHTO   H42 2025   6.260   2.808   2.996 -0.4290 -1.2830 -1.8615
    5CHTO   C22 2026   6.361   2.955   2.792  0.6858  0.5496  0.2270
    5CHTO   H50 2027   6.323   2.876   2.727  0.0081  0.4448  0.7502
    5CHTO   O14 2028   6.413   3.056   2.707 -0.1690  0.0594  0.4826
    5CHTO   C23 2029   6.316   3.141   2.645  0.1301 -1.1830  0.1762
    5CHTO   H51 2030   6.265   3.079   2.571  1.4774 -1.5597 -0.4385
    5CHTO   C34 2031   6.395   3.242   2.567 -0.4392  0.5940 -0.3675
    5CHTO   O23 2032   6.479   3.187   2.464  0.5603  0.1241 -0.1083
    5CHTO   H38 2033   6.506   3.264   2.417  1.0803  0.4513  0.7133
    5CHTO   O16 2034   6.485   2.914   2.859  0.4404 -0.2574 -0.1514
    5CHTO   C24 2035   6.576   2.805   2.766  0.2594  0.1284 -0.2773
    5CHTO   H52 2036   6.547   2.806   2.661 -0.9904 -0.6428  0.0483
    5CHTO   C26 2037   6.565   2.661   2.823  0.4915  0.6596 -0.4115
    5CHTO   H54 2038   6.591   2.660   2.931 -0.3047 -1.4191 -0.2199
    5CHTO   O20 2039   6.433   2.631   2.818 -0.4468  0.0963  0.7472
    5CHTO   H36 2040   6.411   2.602   2.732 -0.2290 -0.1165  0.7648
    5CHTO   C30 2041   6.660   2.561   2.750 -0.3712 -0.4394 -0.9365
    5CHTO   H58 2042   6.633   2.553   2.644  0.3899 -3.4187 -0.9625
    5CHTO    N6 2043   6.663   2.425   2.804  0.0837  0.2619  0.2863
    5CHTO   H45 2044   6.754   2.372   2.781 -0.1095  0.9241 -2.1606
    5CHTO   H46 2045   6.579   2.373   2.760 -0.0721 -2.8575  3.9380
    5CHTO   C33 2046   6.804   2.623   2.761 -0.3113 -0.0527  0.2906
    5CHTO   H61 2047   6.830   2.632   2.868 -0.8557  0.9577  0.3419
    5CHTO   O18 2048   6.802   2.752   2.697 -0.2396 -0.0205  0.1328
    5CHTO   C28 2049   6.722   2.850   2.767 -0.6325 -0.5609 -0.5039
    5CHTO   H56 2050   6.761   2.862   2.868 -0.1420  0.8070 -0.8513
    5CHTO   C35 2051   6.729   2.992   2.707  0.0261  0.6585  0.6973
    5CHTO   O24 2052   6.866   3.027   2.679  0.2554 -0.1045 -0.4845
    5CHTO   H39 2053   6.885   3.109   2.721 -2.8831  0.2469  0.4387
    5CHTO    O9 2054   6.908   2.535   2.701 -0.5149 -0.5998 -0.0599
    5CHTO   C13 2055   6.888   2.525   2.532 -0.0117  0.1109  0.4530
    5CHTO   H26 2056   6.782   2.545   2.504  0.4878  0.5986 -1.1175
    5CHTO   C11 2057   6.929   2.374   2.503  0.4837 -0.0850  0.0251
    5CHTO   H24 2058   6.853   2.310   2.549 -0.1645  0.2578 -0.5590
    5CHTO    O8 2059   7.052   2.347   2.567  0.1061  0.0696 -0.1575
    5CHTO    H3 2060   7.127   2.396   2.537 -0.1743 -0.8378 -2.4504
    5CHTO    C9 2061   6.913   2.344   2.354  0.2046 -0.5607  0.5525
    5CHTO   H22 2062   6.813   2.382   2.329  1.1384  0.7540 -1.2670
    5CHTO    N2 2063   6.896   2.203   2.307 -0.1376  0.1845 -0.1663
    5CHTO   H10 2064   6.922   2.136   2.387  1.1379  1.2463  0.3224
    5CHTO   H11 2065   6.798   2.172   2.273 -0.1213  0.7450 -0.7233
    5CHTO    C7 2066   7.016   2.439   2.280  0.0232 -0.0288  0.2215
    5CHTO   H20 2067   6.979   2.440   2.176  2.1452 -0.1171 -0.5584
    5CHTO    O4 2068   7.002   2.577   2.317 -0.4126  1.2775  0.1367
    5CHTO   C14 2069   6.986   2.621   2.449 -0.6069 -0.7073 -0.3679
    5CHTO   H27 2070   6.935   2.720   2.451  0.5462 -0.1257  0.9829
    5CHTO   C18 2071   7.126   2.640   2.520  0.1198 -0.1282  0.5959
    5CHTO   O13 2072   7.182   2.767   2.495  0.2350  0.4058 -0.1677
    5CHTO    H7 2073   7.242   2.765   2.422 -2.5170  1.6249 -2.5566
    5CHTO    O2 2074   7.170   2.396   2.291  0.0905 -0.9429 -0.1734
    5CHTO    C1 2075   7.238   2.421   2.159  0.2616  0.2039  0.2153
    5CHTO   H14 2076   7.198   2.518   2.123  3.6121  1.6698  0.1891
    5CHTO    C2 2077   7.220   2.305   2.044  0.1943 -0.7890 -0.2193
    5CHTO   H15 2078   7.225   2.211   2.102 -1.7515  0.3082  1.8043
    5CHTO    O6 2079   7.086   2.314   1.998 -0.0728  0.0932  0.8942
    5CHTO    H1 2080   7.063   2.249   1.935 -0.0484  0.6413  0.3182
    5CHTO    C3 2081   7.330   2.318   1.931 -0.5639 -0.6134  0.3010
    5CHTO   H16 2082   7.297   2.399   1.864 -1.6484 -0.6235  0.8144
    5CHTO    N1 2083   7.353   2.198   1.840  0.1067  0.4869 -0.5743
    5CHTO    H8 2084   7.381   2.109   1.895 -0.1407  0.0142 -1.2045
    5CHTO    H9 2085   7.433   2.222   1.772  1.1141 -0.3635  0.2780
    5CHTO    C4 2086   7.472   2.366   1.984  0.5978 -0.0392 -0.4614
    5CHTO   H17 2087   7.521   2.284   2.035  1.7199  1.2466  0.5725
    5CHTO    O1 2088   7.465   2.477   2.079  0.6141  0.2458  0.9045
    5CHTO    C5 2089   7.390   2.443   2.197  0.1686  0.4987  0.2576
    5CHTO   H18 2090   7.424   2.354   2.249 -0.2536  0.1439 -0.0670
    5CHTO   C16 2091   7.415   2.564   2.284 -0.0718 -0.0210  0.4732
    5CHTO   O11 2092   7.552   2.602   2.305  0.4002 -0.2693  0.5246
    5CHTO    H5 2093   7.594   2.624   2.224 -2.0122  0.3987 -0.5869
    5CHTO    O3 2094   7.553   2.424   1.881 -1.0223  0.2944 -0.3436
    5CHTO    C6 2095   7.695   2.407   1.904 -0.1998 -0.8988  0.4735
    5CHTO   H19 2096   7.716   2.358   1.999 -0.3166 -1.7523  0.0600
    5CHTO    C8 2097   7.765   2.316   1.795 -0.6340  0.4148 -0.4125
    5CHTO   H21 2098   7.759   2.358   1.694 -2.1064 -1.7648 -1.2757
    5CHTO    O7 2099   7.701   2.186   1.801  0.2212 -0.5745  0.4120
    5CHTO    H2 2100   7.631   2.174   1.739  1.6193  3.2900 -2.0922
    5CHTO   C12 2101   7.916   2.304   1.839  0.1511  0.6241  0.6061
    5CHTO   H25 2102   7.909   2.265   1.943  1.6687 -0.8269  0.1831
    5CHTO    N3 2103   7.988   2.190   1.764  0.0802  0.2321 -0.0320
    5CHTO   H12 2104   7.983   2.218   1.660 -0.7204  0.3670  0.0413
    5CHTO   H13 2105   7.938   2.096   1.780 -0.5218  0.4281 -0.7467
    5CHTO   C15 2106   7.982   2.447   1.834 -0.4841 -0.3901  0.0588
    5CHTO   H28 2107   7.982   2.492   1.735  0.2129  0.2687  0.3617
    5CHTO   O10 2108   8.124   2.445   1.891 -0.1632 -0.0396 -0.1795
    5CHTO    H4 2109   8.120   2.409   1.977  0.9215 -2.8907 -1.2669
    5CHTO    O5 2110   7.918   2.532   1.931 -0.1156  0.2251 -0.2408
    5CHTO   C10 2111   7.775   2.551   1.903 -0.3927 -0.0668 -0.2745
    5CHTO   H23 2112   7.771   2.600   1.805 -0.4683  1.2029  0.3619
    5CHTO   C17 2113   7.717   2.657   1.997 -0.6429 -0.2895  0.0261
    5CHTO   O12 2114   7.610   2.741   1.947 -0.0522 -0.4337 -0.0401
    5CHTO    H6 2115   7.614   2.825   1.987 -2.6046 -0.4458  0.3125
    6CHTO  H203 2116   7.397   4.974   0.194  0.1427 -0.2673  1.4738
    6CHTO   O82 2117   7.309   4.969   0.228 -0.5846 -0.4114 -0.3693
    6CHTO  C123 2118   7.230   5.083   0.192  0.4327 -0.1619  0.0741
    6CHTO  H227 2119   7.271   5.123   0.098 -1.7978 -1.1016 -1.3300
    6CHTO   O77 2120   7.095   5.022   0.166 -0.4639  0.2848  0.3822
    6CHTO  C118 2121   7.002   5.120   0.115 -0.8562 -0.2333 -0.1601
    6CHTO  H222 2122   7.045   5.185   0.037 -1.3677 -0.4501 -0.6276
    6CHTO  C125 2123   6.879   5.051   0.051  0.2900  1.0939  0.4229
    6CHTO   O84 2124   6.809   4.970   0.148  0.2845 -0.6212  0.1654
    6CHTO  H205 2125   6.763   5.024   0.210 -1.9133 -0.7831 -1.2383
    6CHTO  C114 2126   6.972   5.208   0.232  0.2222  0.7057  0.2089
    6CHTO  H218 2127   6.935   5.148   0.315 -0.8950  0.4532 -0.4646
    6CHTO  C116 2128   7.104   5.278   0.276 -0.8212  0.0119 -0.3021
    6CHTO  H220 2129   7.143   5.348   0.199  0.6244 -1.3263 -0.7927
    6CHTO   O79 2130   7.077   5.356   0.393 -0.5159 -0.6871  0.9811
    6CHTO  H201 2131   7.155   5.405   0.409  0.0588 -1.2755  0.0529
    6CHTO  C120 2132   7.214   5.176   0.314 -0.2816 -0.4434 -0.8966
    6CHTO  H224 2133   7.188   5.115   0.403 -2.0982  1.3701 -0.1469
    6CHTO   N21 2134   7.344   5.235   0.354  0.2167  0.2499  0.1501
    6CHTO  H211 2135   7.369   5.329   0.309  0.8894 -0.4167 -0.9011
    6CHTO  H212 2136   7.368   5.228   0.459  0.9306 -0.4171 -0.0439
    6CHTO   O75 2137   6.879   5.311   0.191  0.4893 -0.3412 -0.1603
    6CHTO  C112 2138   6.729   5.315   0.258  0.1221 -0.3301  0.6541
    6CHTO  H216 2139   6.733   5.282   0.363 -1.9594  0.2942  0.9641
    6CHTO   O73 2140   6.642   5.225   0.184  0.2368  0.5164 -0.2727
    6CHTO  C113 2141   6.508   5.216   0.238 -0.5815 -0.5378 -0.3987
    6CHTO  H217 2142   6.500   5.172   0.340 -0.7059  2.6268  1.0256
    6CHTO  C124 2143   6.454   5.110   0.139  0.5393 -0.3751  0.7512
    6CHTO   O83 2144   6.341   5.034   0.195  0.2107  0.0019  0.6836
    6CHTO  H204 2145   6.257   5.058   0.161  2.0228  2.7334 -2.1814
    6CHTO  C109 2146   6.435   5.347   0.233  0.2448  1.2260  0.9164
    6CHTO  H213 2147   6.416   5.370   0.128  3.6717 -1.2647 -0.3285
    6CHTO  C110 2148   6.525   5.450   0.305  0.5706 -0.2812  0.6518
    6CHTO  H214 2149   6.519   5.431   0.412 -0.6183  0.9282  0.8110
    6CHTO   O78 2150   6.455   5.577   0.282 -0.0752  0.2240 -0.4449
    6CHTO  H200 2151   6.379   5.581   0.337  1.5995  3.5551  1.8270
    6CHTO  C111 2152   6.672   5.461   0.248  0.3694  0.2889  0.0620
    6CHTO  H215 2153   6.662   5.484   0.141 -2.0826 -1.8021 -0.2290
    6CHTO   N19 2154   6.761   5.565   0.315  0.4412  0.0114  0.4305
    6CHTO  H207 2155   6.795   5.642   0.246  2.4506 -0.1514  1.2259
    6CHTO  H208 2156   6.849   5.512   0.346  0.5764 -0.0015  0.0251
    6CHTO   O74 2157   6.304   5.345   0.297  0.4708 -0.0103 -0.2914
    6CHTO  C115 2158   6.303   5.296   0.476 -0.4101 -0.0925 -0.1841
    6CHTO  H219 2159   6.400   5.259   0.507  0.2055  0.7356 -1.0933
    6CHTO   O76 2160   6.279   5.407   0.559 -0.6202  0.4053 -0.7817
    6CHTO  C122 2161   6.148   5.472   0.536 -0.3030  0.2697 -0.0359
    6CHTO  H226 2162   6.164   5.527   0.444 -0.2532 -0.5342 -0.5144
    6CHTO  C126 2163   6.132   5.581   0.648  0.2381  0.2820  0.2074
    6CHTO   O85 2164   6.245   5.663   0.635  0.0806 -0.2133  0.1983
    6CHTO  H206 2165   6.282   5.668   0.721 -0.9764 -0.4595  0.6822
    6CHTO  C121 2166   6.030   5.374   0.526  0.4653  0.5539 -0.1269
    6CHTO  H225 2167   5.958   5.412   0.602 -0.5017  2.0972 -1.7701
    6CHTO   O81 2168   5.971   5.370   0.391 -0.3929 -0.0243  0.7228
    6CHTO  H202 2169   5.880   5.393   0.395 -0.2581  0.6442  0.1511
    6CHTO  C119 2170   6.074   5.231   0.569 -0.2133  0.7724  0.1332
    6CHTO  H223 2171   6.092   5.240   0.676  0.0417 -0.2373  0.1794
    6CHTO  C117 2172   6.200   5.176   0.490  0.4742  0.1303  0.2895
    6CHTO  H221 2173   6.186   5.136   0.390  0.0165  0.7461  0.1103
    6CHTO   N20 2174   6.259   5.059   0.555 -0.0642  0.5571  0.0271
    6CHTO  H209 2175   6.202   4.968   0.552  1.9919 -0.8180  1.3524
    6CHTO  H210 2176   6.361   5.046   0.521 -0.3651  1.5651 -1.3122
    6CHTO   O80 2177   5.955   5.128   0.563 -0.3305 -0.2783  0.3936
    6CHTO  C103 2178   5.893   5.069   0.700  0.7819  1.0449  0.1719
    6CHTO  H190 2179   5.969   5.039   0.772  2.0382 -1.8137 -2.2212
    6CHTO  C101 2180   5.795   5.169   0.781  0.3408 -0.0797  0.6606
    6CHTO  H188 2181   5.723   5.211   0.712  1.4162 -1.0840 -1.1202
    6CHTO   O68 2182   5.886   5.293   0.826 -0.4031 -0.0263 -0.4996
    6CHTO  H168 2183   5.903   5.342   0.748 -0.8385  0.1970 -0.4563
    6CHTO   C99 2184   5.715   5.097   0.901  0.2949  0.0004 -0.6512
    6CHTO  H186 2185   5.786   5.062   0.979  2.4436  1.4642 -1.8744
    6CHTO   N17 2186   5.607   5.179   0.971  0.1869 -0.6610  0.1867
    6CHTO  H174 2187   5.624   5.283   0.947 -1.2264 -0.4380  0.1512
    6CHTO  H175 2188   5.617   5.170   1.078  0.5491 -0.2545  0.1869
    6CHTO   C97 2189   5.655   4.971   0.844  0.0186 -0.8264 -0.0755
    6CHTO  H184 2190   5.570   4.999   0.782  0.9985 -0.5423 -1.3036
    6CHTO   O64 2191   5.742   4.876   0.775  0.2379  0.1189  0.6837
    6CHTO  C104 2192   5.809   4.939   0.666  0.9602  0.2722  1.2117
    6CHTO  H191 2193   5.731   4.963   0.594  1.1823 -2.3366  0.0406
    6CHTO  C108 2194   5.902   4.840   0.593  0.0604  0.2891  0.0867
    6CHTO   O71 2195   5.823   4.725   0.536 -1.1386 -0.2335  0.7046
    6CHTO  H171 2196   5.821   4.657   0.601 -2.1960 -1.0053 -0.1130
    6CHTO   O62 2197   5.613   4.890   0.961 -0.1036  0.6386  0.5359
    6CHTO   C91 2198   5.497   4.808   0.954  0.4193 -0.6830 -0.2602
    6CHTO  H178 2199   5.425   4.881   0.917 -0.0756 -0.4713  1.0728
    6CHTO   C92 2200   5.454   4.766   1.098  0.5021  0.6250 -0.6083
    6CHTO  H179 2201   5.466   4.842   1.176 -0.2761  0.9440 -0.7940
    6CHTO   O66 2202   5.312   4.732   1.095  0.0654  0.6387 -0.3227
    6CHTO  H166 2203   5.257   4.807   1.109 -0.4471  0.1976  0.0472
    6CHTO   C93 2204   5.518   4.625   1.147 -0.4522  0.4700 -0.4068
    6CHTO  H180 2205   5.455   4.589   1.230  0.1643 -2.0273 -0.9865
    6CHTO   N16 2206   5.657   4.636   1.208  0.0556  0.4513  0.1620
    6CHTO  H172 2207   5.676   4.549   1.268  0.0335  1.9255  2.3534
    6CHTO  H173 2208   5.731   4.660   1.133  0.4853  2.1318  1.0873
    6CHTO   C94 2209   5.523   4.513   1.027  0.6752 -0.3681 -0.2768
    6CHTO  H181 2210   5.624   4.500   0.987  1.0032 -2.3072  1.0998
    6CHTO   O61 2211   5.441   4.564   0.915 -0.2701  0.4497 -0.5947
    6CHTO   C95 2212   5.496   4.683   0.856 -0.0596  0.5981 -0.4861
    6CHTO  H182 2213   5.601   4.666   0.835  0.1150  0.0324  0.7993
    6CHTO  C106 2214   5.432   4.709   0.720 -0.0105  0.3799  0.3520
    6CHTO   O69 2215   5.478   4.816   0.636 -0.0126 -0.1752 -0.1899
    6CHTO  H169 2216   5.438   4.821   0.551  0.3233  2.3516 -0.2459
    6CHTO   O63 2217   5.479   4.373   1.084 -0.7206 -0.0907 -0.1161
    6CHTO   C96 2218   5.507   4.256   0.974 -0.4661  0.8343  0.4541
    6CHTO  H183 2219   5.587   4.300   0.914  0.9560  0.7136  2.2042
    6CHTO   C98 2220   5.394   4.214   0.877  0.0158 -0.5763  0.2033
    6CHTO  H185 2221   5.322   4.155   0.935 -0.3120  1.3036  1.7551
    6CHTO   O67 2222   5.324   4.330   0.829  0.3649  0.2979  0.1370
    6CHTO  H167 2223   5.286   4.374   0.903 -0.5973 -2.3239  1.2759
    6CHTO  C102 2224   5.451   4.130   0.756 -0.6983  0.0061  0.0239
    6CHTO  H189 2225   5.491   4.200   0.681  1.4521  0.4231  1.5230
    6CHTO   N18 2226   5.348   4.054   0.687 -0.0964 -0.5063  0.1322
    6CHTO  H176 2227   5.310   4.096   0.594  0.3077  3.2539  1.5738
    6CHTO  H177 2228   5.392   3.960   0.657  1.3696  0.2485 -0.1184
    6CHTO  C105 2229   5.586   4.056   0.797  0.4211 -0.3400 -0.0861
    6CHTO  H192 2230   5.589   3.954   0.759 -2.3916 -0.1236 -1.0016
    6CHTO   O65 2231   5.620   4.045   0.938 -0.6985 -0.1194  0.0858
    6CHTO  C100 2232   5.567   4.127   1.042 -0.3282 -1.0925  0.0052
    6CHTO  H187 2233   5.484   4.072   1.089 -1.0536  0.8320  1.0728
    6CHTO  C107 2234   5.679   4.156   1.148 -0.5528  0.1475 -0.8673
    6CHTO   O70 2235   5.689   4.043   1.235  0.5421  0.1987  0.6212
    6CHTO  H170 2236   5.739   3.973   1.198  0.3487  0.6162 -0.4406
    6CHTO   O57 2237   5.696   4.149   0.737  0.5137 -0.3085 -0.0889
    6CHTO   C85 2238   5.811   4.107   0.663  0.1161 -0.7295 -0.5166
    6CHTO  H157 2239   5.772   4.044   0.580 -0.8654  0.8835 -1.3077
    6CHTO   C83 2240   5.905   4.013   0.752  0.6185 -0.1646  0.9526
    6CHTO  H155 2241   5.853   3.918   0.745  1.1393 -0.3319 -1.1330
    6CHTO   O56 2242   5.902   4.043   0.890 -0.5662 -0.1722  0.5879
    6CHTO  H135 2243   5.908   4.136   0.895  1.6802 -0.3113  1.1761
    6CHTO   C81 2244   6.048   3.997   0.691  0.2893 -0.1624  0.1155
    6CHTO  H153 2245   6.030   3.945   0.597 -1.3820 -0.4841  0.5937
    6CHTO   N14 2246   6.139   3.904   0.766  0.1754  0.4953 -0.0194
    6CHTO  H141 2247   6.173   3.823   0.704 -0.2403 -0.1511  0.5891
    6CHTO  H142 2248   6.224   3.949   0.812  0.3711  0.3392 -0.2286
    6CHTO   C79 2249   6.107   4.141   0.663  0.6313 -0.3382 -0.2509
    6CHTO  H151 2250   6.204   4.128   0.615  0.0665 -0.7803 -1.2893
    6CHTO   O52 2251   6.021   4.211   0.568  0.2119  1.0510 -0.3546
    6CHTO   C86 2252   5.886   4.236   0.618  0.2036 -0.0288 -0.2834
    6CHTO  H158 2253   5.891   4.308   0.702  0.3658 -1.4751  0.9624
    6CHTO   C90 2254   5.812   4.302   0.500  0.0478 -0.3532  0.1411
    6CHTO   O60 2255   5.857   4.431   0.453  0.2212 -0.1898 -0.3956
    6CHTO  H138 2256   5.789   4.450   0.392 -0.3732 -0.1465  0.2721
    6CHTO   O50 2257   6.124   4.223   0.779  0.1116  0.0234  0.2039
    6CHTO   C73 2258   6.172   4.235   0.911 -0.2299  0.5522 -0.5676
    6CHTO  H145 2259   6.166   4.133   0.952  0.2884  0.2764 -1.1696
    6CHTO   C74 2260   6.081   4.327   0.997  0.1655 -0.5931 -0.0062
    6CHTO  H146 2261   5.981   4.281   0.993 -0.4932  0.6790  1.5850
    6CHTO   O54 2262   6.127   4.318   1.137  0.6079 -0.3604  0.6745
    6CHTO  H133 2263   6.080   4.377   1.193  1.7912 -1.8697  3.3838
    6CHTO   C75 2264   6.086   4.472   0.936  0.2498 -0.8614 -0.8164
    6CHTO  H147 2265   6.045   4.474   0.834 -1.4836  1.0990 -0.1128
    6CHTO   N13 2266   5.983   4.557   1.001  0.1747 -0.0694 -0.3461
    6CHTO  H139 2267   5.887   4.514   0.978 -0.4311  2.1771 -2.2584
    6CHTO  H140 2268   5.975   4.655   0.958 -2.1628 -0.9591 -2.0368
    6CHTO   C76 2269   6.238   4.523   0.947  0.7790  0.3004 -0.5633
    6CHTO  H148 2270   6.272   4.543   1.049 -0.7721  2.7267 -0.4810
    6CHTO   O49 2271   6.329   4.428   0.875 -0.0687  0.2034  0.0946
    6CHTO   C77 2272   6.314   4.293   0.924  0.3847 -0.1492 -0.2052
    6CHTO  H149 2273   6.338   4.290   1.031 -0.7563 -1.2634  0.0226
    6CHTO   C88 2274   6.423   4.213   0.859  0.0219  1.1617 -0.1077
    6CHTO   O58 2275   6.425   4.205   0.720  0.4542  0.0141  0.2766
    6CHTO  H136 2276   6.501   4.163   0.686 -0.0320  0.4876 -1.4206
    6CHTO   O51 2277   6.255   4.663   0.870  0.2012 -0.1272  0.4266
    6CHTO   C78 2278   6.311   4.786   0.955 -1.0600  0.0320  0.2935
    6CHTO  H150 2279   6.311   4.760   1.062 -0.2077 -0.9569  0.0649
    6CHTO   C80 2280   6.219   4.901   0.926 -0.3911  0.2261  0.3610
    6CHTO  H152 2281   6.214   4.907   0.815  0.3645 -0.6324  0.2660
    6CHTO   O55 2282   6.097   4.869   0.991  0.4439 -0.7028  0.5513
    6CHTO  H134 2283   6.104   4.872   1.084 -1.5126  2.4596  0.6879
    6CHTO   C84 2284   6.285   5.040   0.981  0.6867 -0.2708 -0.4083
    6CHTO  H156 2285   6.293   5.037   1.090 -0.1549 -0.2729 -0.3366
    6CHTO   N15 2286   6.189   5.158   0.943 -0.0454 -0.5734  0.0256
    6CHTO  H143 2287   6.197   5.228   1.024  1.4750 -0.7557  0.0477
    6CHTO  H144 2288   6.222   5.205   0.853  0.6047 -1.0038  0.0291
    6CHTO   C87 2289   6.432   5.050   0.941  0.3018 -0.1256  0.6598
    6CHTO  H159 2290   6.443   5.070   0.834  1.2149  4.1199  1.4828
    6CHTO   O53 2291   6.498   4.931   0.988  0.3806  0.3338  0.3505
    6CHTO   C82 2292   6.459   4.817   0.907 -0.0599  0.4532  0.2938
    6CHTO  H154 2293   6.466   4.849   0.803 -3.1654  1.4206  0.3263
    6CHTO   C89 2294   6.559   4.702   0.926 -0.9627 -0.6025 -0.2360
    6CHTO   O59 2295   6.685   4.742   0.873 -0.1010  0.2904 -0.1844
    6CHTO  H137 2296   6.725   4.678   0.817 -1.4354 -1.2430  0.5753
    6CHTO   O45 2297   6.501   5.180   1.013  0.5323  0.1027  0.0576
    6CHTO   C67 2298   6.634   5.216   0.962  0.6817  0.0054 -0.4789
    6CHTO  H124 2299   6.696   5.127   0.975  1.0381  0.4426  0.9169
    6CHTO   C65 2300   6.631   5.256   0.811 -0.0849  0.5067 -0.1761
    6CHTO  H122 2301   6.528   5.268   0.777  0.3267  1.4677 -1.1080
    6CHTO   O44 2302   6.685   5.141   0.748 -0.3981  0.3807  0.4995
    6CHTO  H102 2303   6.639   5.107   0.674 -1.2805  0.9034  0.8032
    6CHTO   C63 2304   6.705   5.395   0.774  0.6874 -0.0183 -0.5175
    6CHTO  H120 2305   6.644   5.475   0.816 -1.7423 -1.9176 -0.2997
    6CHTO   N11 2306   6.716   5.429   0.630  0.4250  0.3244  0.1698
    6CHTO  H108 2307   6.619   5.459   0.595  0.2621 -1.3397 -0.8696
    6CHTO  H109 2308   6.762   5.523   0.611  0.4726 -0.4445 -3.8720
    6CHTO   C61 2309   6.833   5.400   0.863 -0.4450 -0.3591  0.2638
    6CHTO  H118 2310   6.869   5.504   0.860 -0.8326 -0.2222  0.4059
    6CHTO   O40 2311   6.827   5.365   1.000 -0.2518  0.3049  0.1431
    6CHTO   C68 2312   6.702   5.321   1.055  0.9985  0.3363 -0.6501
    6CHTO  H125 2313   6.641   5.414   1.061  2.5710  1.2386  3.2938
    6CHTO   C72 2314   6.721   5.274   1.204  0.3327  0.0403 -0.3191
    6CHTO   O48 2315   6.817   5.173   1.221 -0.1925  0.6183  0.1909
    6CHTO  H105 2316   6.776   5.099   1.262  2.5467 -1.4468 -0.6491
    6CHTO   O38 2317   6.936   5.315   0.804  0.4703 -0.2456 -0.2814
    6CHTO   C55 2318   7.075   5.338   0.843 -0.4315 -0.2596  0.1823
    6CHTO  H112 2319   7.072   5.390   0.940 -1.5540  2.9238 -1.4914
    6CHTO   C56 2320   7.140   5.428   0.730 -0.0069  0.4311 -0.2972
    6CHTO  H113 2321   7.125   5.370   0.637  0.0673 -0.0763  0.0078
    6CHTO   O42 2322   7.063   5.551   0.724  0.0472  0.2051  0.1639
    6CHTO  H100 2323   7.103   5.597   0.653  0.2248 -0.1842  0.0103
    6CHTO   C57 2324   7.290   5.463   0.758  0.0422  0.5884  0.1935
    6CHTO  H114 2325   7.284   5.522   0.849 -1.2541  1.7726 -0.6335
    6CHTO   N10 2326   7.354   5.548   0.658  0.1136 -0.4928  0.1193
    6CHTO  H106 2327   7.321   5.651   0.666  0.0083 -0.3403 -1.8837
    6CHTO  H107 2328   7.327   5.513   0.559 -3.4873  0.5272  0.6424
    6CHTO   C58 2329   7.362   5.327   0.787  0.1569 -0.0463  0.1384
    6CHTO  H115 2330   7.379   5.272   0.692 -0.1927 -0.3739  0.2610
    6CHTO   O37 2331   7.293   5.239   0.878 -0.3536  0.2769 -0.0192
    6CHTO   C59 2332   7.153   5.210   0.860 -0.1841 -0.4393  0.8890
    6CHTO  H116 2333   7.132   5.142   0.777  0.0422 -0.6292  0.9893
    6CHTO   C70 2334   7.114   5.130   0.985 -0.2689 -0.4691  0.2019
    6CHTO   O46 2335   6.976   5.083   0.979  0.2284  0.2939  0.2841
    6CHTO  H103 2336   6.964   5.000   1.020  3.0809 -1.5360 -2.3984
    6CHTO   O39 2337   7.499   5.363   0.876  0.6210  0.3067 -0.5447
    6CHTO   C60 2338   7.619   5.295   0.832 -0.3678  0.7677 -0.0640
    6CHTO  H117 2339   7.599   5.189   0.822  1.5352  0.4312 -0.5608
    6CHTO   C62 2340   7.678   5.356   0.705  0.4391  0.3084 -0.6301
    6CHTO  H119 2341   7.604   5.335   0.626 -1.1190 -2.0366  1.3784
    6CHTO   O43 2342   7.687   5.493   0.720 -0.2912  0.4910 -0.1047
    6CHTO  H101 2343   7.604   5.534   0.707  0.5411  2.4400  0.6462
    6CHTO   C66 2344   7.819   5.288   0.670  0.1971  0.1157 -0.1167
    6CHTO  H123 2345   7.810   5.180   0.661  2.2022  0.1666 -3.4402
    6CHTO   N12 2346   7.874   5.330   0.541  0.3737  0.4373  0.0031
    6CHTO  H110 2347   7.964   5.271   0.529 -0.3697 -0.7767  0.3302
    6CHTO  H111 2348   7.799   5.297   0.471 -0.7116  2.1771  0.3243
    6CHTO   C69 2349   7.918   5.318   0.788  0.4248  0.9641  0.2030
    6CHTO  H126 2350   7.919   5.427   0.807  1.6446  1.4244 -2.2757
    6CHTO   O41 2351   7.866   5.246   0.913 -0.4575  0.3977 -0.2056
    6CHTO   C64 2352   7.725   5.307   0.948 -0.4233 -0.2820  0.1482
    6CHTO  H121 2353   7.739   5.416   0.959 -1.5244  0.1021 -1.8758
    6CHTO   C71 2354   7.671   5.235   1.074 -0.0377 -0.2554 -0.1815
    6CHTO   O47 2355   7.696   5.097   1.073  0.0426  0.0023 -0.1684
    6CHTO  H104 2356   7.678   5.060   1.157 -1.2141  2.0379  0.4953
    6CHTO   O34 2357   8.072   5.270   0.759  0.7734  0.1910 -0.0197
    6CHTO   C49 2358   8.230   5.311   0.717 -0.0584  0.0134  0.0146
    6CHTO   H91 2359   8.245   5.283   0.612 -0.3260  0.5507 -0.1682
    6CHTO   C47 2360   8.327   5.246   0.812  0.1929  0.4110 -0.0208
    6CHTO   H89 2361   8.423   5.281   0.770  1.0725 -0.8490  0.9125
    6CHTO   O33 2362   8.316   5.103   0.792  0.3999  0.3342  0.4531
    6CHTO   H70 2363   8.231   5.073   0.817 -0.2339 -1.2833 -3.2929
    6CHTO   C45 2364   8.315   5.303   0.964 -0.3477 -0.1606 -0.0504
    6CHTO   H87 2365   8.214   5.283   1.002 -0.1718 -0.7892  0.0844
    6CHTO    N8 2366   8.416   5.239   1.053 -0.0477  0.1001 -0.1335
    6CHTO   H75 2367   8.425   5.136   1.023 -1.9464 -0.2009  0.2871
    6CHTO   H76 2368   8.506   5.298   1.069  1.6574 -3.0666  2.6351
    6CHTO   C43 2369   8.330   5.464   0.969  0.6451  0.4866  0.0173
    6CHTO   H85 2370   8.286   5.490   1.065 -0.3312 -1.4738  0.1194
    6CHTO   O29 2371   8.266   5.533   0.861  0.1564 -0.1099  0.4744
    6CHTO   C50 2372   8.254   5.468   0.730  0.0270 -0.6688 -0.0784
    6CHTO   H92 2373   8.165   5.519   0.691  0.4689 -0.7456 -1.2105
    6CHTO   C54 2374   8.369   5.521   0.637 -0.5504 -0.3226  0.3397
    6CHTO   O36 2375   8.505   5.468   0.655 -0.3925  0.4104 -0.2504
    6CHTO   H72 2376   8.505   5.394   0.713  0.6363 -0.7642 -1.7207
    6CHTO   O27 2377   8.462   5.521   0.975  0.1681  0.5709  0.0792
    6CHTO   C37 2378   8.558   5.605   1.047  0.2103  0.0568  0.8790
    6CHTO   H79 2379   8.660   5.565   1.035  0.6396  1.3688  0.0914
    6CHTO   C38 2380   8.575   5.739   0.968  0.0954  0.7579 -0.3558
    6CHTO   H80 2381   8.477   5.788   0.965 -0.7563 -0.8464  0.6393
    6CHTO   O31 2382   8.612   5.712   0.832  0.3364 -0.0730 -0.1232
    6CHTO   H68 2383   8.697   5.672   0.839  1.4200  2.4026  1.3103
    6CHTO   C39 2384   8.677   5.837   1.043 -0.0936  0.5200 -0.3689
    6CHTO   H81 2385   8.772   5.785   1.048 -0.3116  0.2106  0.7845
    6CHTO    N7 2386   8.711   5.971   0.977  0.4069  0.0755  0.1955
    6CHTO   H73 2387   8.818   5.984   0.987  0.6052 -2.7126  2.5794
    6CHTO   H74 2388   8.677   5.964   0.875  1.3920  1.5408 -0.2461
    6CHTO   C40 2389   8.618   5.857   1.191  0.2448 -0.4854 -0.0628
    6CHTO   H82 2390   8.518   5.898   1.174  0.5581  0.6186  0.6910
    6CHTO   O26 2391   8.618   5.733   1.254  0.5069 -0.3567  0.7858
    6CHTO   C41 2392   8.524   5.635   1.197 -0.1350 -0.0857 -0.5715
    6CHTO   H83 2393   8.422   5.673   1.211  0.5524  1.4402  0.3126
    6CHTO   C52 2394   8.542   5.514   1.295 -0.1117  0.3862 -0.7467
    6CHTO   O35 2395   8.504   5.550   1.432 -0.1350  0.2679 -0.8618
    6CHTO   H71 2396   8.571   5.611   1.456 -1.1243  0.8756  0.3945
    6CHTO   O28 2397   8.706   5.924   1.288 -0.0308 -0.2317 -0.4420
    6CHTO   C42 2398   8.654   5.995   1.407  0.0544 -0.2244 -0.1029
    6CHTO   H84 2399   8.744   6.029   1.457 -1.8151  0.2926  3.0779
    6CHTO   C44 2400   8.576   5.912   1.522 -0.9884  1.1798  1.3626
    6CHTO   H86 2401   8.487   5.862   1.481  0.7782  0.6537 -2.0336
    6CHTO   O32 2402   8.673   5.809   1.552 -0.4916  0.2769  0.4286
    6CHTO   H69 2403   8.735   5.838   1.616 -1.6904 -0.1908  1.8005
    6CHTO   C48 2404   8.524   6.003   1.641  0.2415  0.2476  0.3495
    6CHTO   H90 2405   8.605   6.060   1.688  0.1482  0.5167  0.1891
    6CHTO    N9 2406   8.454   5.938   1.757 -0.4736  0.3704  0.1163
    6CHTO   H77 2407   8.481   5.986   1.850  0.4358  0.2740 -0.0946
    6CHTO   H78 2408   8.456   5.830   1.759  1.8834  0.3911  0.4287
    6CHTO   C51 2409   8.441   6.126   1.575  0.5566  0.6078  0.2911
    6CHTO   H93 2410   8.351   6.089   1.527  1.5716 -1.6279  0.0434
    6CHTO   O30 2411   8.522   6.205   1.487 -0.7502 -0.4772 -0.3646
    6CHTO   C46 2412   8.572   6.128   1.369  0.2043 -0.7502  0.5526
    6CHTO   H88 2413   8.486   6.101   1.308 -1.0921 -0.0403  2.0249
    6CHTO   C53 2414   8.659   6.231   1.289 -0.2717 -0.5777 -0.3582
    6CHTO   O72 2415   8.594   6.339   1.219  0.3526 -0.4371  0.5618
    6CHTO  H199 2416   8.638   6.378   1.146 -0.8268 -1.9861 -1.0260
    6CHTO   O22 2417   8.405   6.218   1.680 -0.0369  0.2467 -0.1398
    6CHTO   C31 2418   8.290   6.303   1.682  0.8759 -0.1011 -0.1948
    6CHTO   H59 2419   8.301   6.370   1.770 -0.6909  0.1868 -0.2047
    6CHTO   C29 2420   8.283   6.396   1.562  0.0728  0.6441 -0.1252
    6CHTO   H57 2421   8.306   6.331   1.477 -0.4017 -0.2425  0.4217
    6CHTO   O21 2422   8.399   6.483   1.565 -0.4963 -0.6414 -0.1623
    6CHTO   H37 2423   8.469   6.465   1.624  0.9949  1.5992 -1.1413
    6CHTO   C27 2424   8.156   6.481   1.535  0.5331  0.1046  0.5104
    6CHTO   H55 2425   8.156   6.572   1.598 -1.0716 -1.1152  2.3301
    6CHTO    N5 2426   8.144   6.522   1.399 -0.4990 -0.1726 -0.5523
    6CHTO   H43 2427   8.130   6.438   1.332  1.3803 -0.4549 -0.6186
    6CHTO   H44 2428   8.232   6.576   1.365  0.6170 -1.8100 -0.3366
    6CHTO   C25 2429   8.025   6.404   1.586 -0.4942  0.2454 -0.6977
    6CHTO   H53 2430   7.989   6.329   1.514 -0.5096 -0.9121  0.4985
    6CHTO   O17 2431   8.052   6.337   1.718  0.3383 -0.2827 -0.3573
    6CHTO   C32 2432   8.148   6.232   1.702  0.1575 -0.7934  0.0099
    6CHTO   H60 2433   8.136   6.160   1.620 -1.7380  0.3230 -0.7238
    6CHTO   C36 2434   8.165   6.151   1.838  0.7240 -0.1382 -0.2299
    6CHTO   O25 2435   8.040   6.087   1.866 -0.3493  0.0025 -0.4089
    6CHTO   H40 2436   8.038   6.052   1.952 -0.0812  1.9529  0.4255
    6CHTO   O15 2437   7.913   6.508   1.591  1.1751  0.1089  0.5939
    6CHTO   C19 2438   7.819   6.544   1.700 -0.0490 -0.2437  0.0314
    6CHTO   H47 2439   7.826   6.456   1.765 -1.5548  0.1458  0.7532
    6CHTO   C20 2440   7.856   6.665   1.784  0.1462  0.0946  0.3834
    6CHTO   H48 2441   7.874   6.754   1.722 -1.6420  0.9784  1.0861
    6CHTO   O19 2442   7.983   6.628   1.835 -0.0195 -0.0716  0.0075
    6CHTO   H35 2443   8.055   6.669   1.792 -0.1178  0.6288  0.5128
    6CHTO   C21 2444   7.755   6.694   1.904 -0.6612 -0.0257  0.1446
    6CHTO   H49 2445   7.766   6.619   1.982  4.6361  1.4759  1.0439
    6CHTO    N4 2446   7.787   6.817   1.977  0.3409  0.2716 -0.2601
    6CHTO   H41 2447   7.706   6.859   2.034  0.1762 -0.6153  0.1714
    6CHTO   H42 2448   7.842   6.893   1.924  0.9072  0.0859  0.0535
    6CHTO   C22 2449   7.613   6.690   1.854  0.0346  0.3330  0.5935
    6CHTO   H50 2450   7.602   6.769   1.780  0.6409 -1.8308 -1.8942
    6CHTO   O14 2451   7.604   6.566   1.778  0.6933  0.4868 -0.0324
    6CHTO   C23 2452   7.679   6.546   1.652 -0.4422 -0.5826 -0.0389
    6CHTO   H51 2453   7.658   6.637   1.593 -0.8977  1.0004  2.4806
    6CHTO   C34 2454   7.644   6.422   1.581 -0.9447 -0.0627 -0.1688
    6CHTO   O23 2455   7.648   6.309   1.666  0.3200 -0.0325 -0.1396
    6CHTO   H38 2456   7.645   6.236   1.607 -1.4179 -0.0619 -0.0353
    6CHTO   O16 2457   7.508   6.700   1.949  0.2675  0.3462 -0.1185
    6CHTO   C24 2458   7.384   6.802   1.897 -0.0609  0.3349 -0.3865
    6CHTO   H52 2459   7.399   6.835   1.794 -0.4670 -0.0629 -0.5748
    6CHTO   C26 2460   7.362   6.914   1.995  0.2523 -0.0652 -0.4058
    6CHTO   H54 2461   7.341   6.872   2.095  0.5075 -0.0029 -0.3258
    6CHTO   O20 2462   7.483   6.993   2.010 -0.2858  0.0217  0.6921
    6CHTO   H36 2463   7.476   7.064   2.071 -1.0834  0.5091  0.0414
    6CHTO   C30 2464   7.243   7.003   1.947  0.3345  0.2076 -0.1825
    6CHTO   H58 2465   7.256   7.037   1.843  0.0597 -1.8693 -0.9143
    6CHTO    N6 2466   7.236   7.119   2.034 -0.0171 -0.3875  1.0382
    6CHTO   H45 2467   7.206   7.094   2.135 -1.0886  2.3105  1.4289
    6CHTO   H46 2468   7.169   7.191   1.990  0.3968 -0.8515 -0.3789
    6CHTO   C33 2469   7.117   6.910   1.939  0.6552  0.4537  0.6823
    6CHTO   H61 2470   7.087   6.882   2.041 -0.1975  0.9439  0.5687
    6CHTO   O18 2471   7.138   6.788   1.865  0.3194 -0.7837  0.3197
    6CHTO   C28 2472   7.259   6.708   1.893 -0.3140 -0.2004  0.5584
    6CHTO   H56 2473   7.256   6.659   1.990  1.0770 -0.3170  0.5517
    6CHTO   C35 2474   7.268   6.606   1.775 -0.0785 -0.4000  0.1659
    6CHTO   O24 2475   7.167   6.499   1.776 -1.0090 -0.7797  0.7363
    6CHTO   H39 2476   7.086   6.538   1.748  0.1375  0.7577 -0.4829
    6CHTO    O9 2477   7.005   6.984   1.890 -0.4824 -0.0550 -0.0318
    6CHTO   C13 2478   6.858   6.969   1.981 -0.3969 -0.0669 -0.5872
    6CHTO   H26 2479   6.875   7.035   2.069 -0.3562  0.4091 -0.9483
    6CHTO   C11 2480   6.816   6.817   2.026  0.4368  0.5198 -0.0595
    6CHTO   H24 2481   6.878   6.787   2.111 -2.6225 -0.0696  2.0446
    6CHTO    O8 2482   6.833   6.724   1.917 -0.1675  0.3271 -0.3717
    6CHTO    H3 2483   6.913   6.677   1.932 -2.6227 -3.6338  1.3159
    6CHTO    C9 2484   6.660   6.827   2.067 -0.3024 -0.2695 -0.8210
    6CHTO   H22 2485   6.650   6.888   2.158 -3.2443 -0.0089 -1.2936
    6CHTO    N2 2486   6.617   6.697   2.125 -0.8299  0.2436 -0.6072
    6CHTO   H10 2487   6.662   6.675   2.221  0.1050  1.7071 -0.6876
    6CHTO   H11 2488   6.510   6.683   2.118 -0.5595 -1.5871 -1.2150
    6CHTO    C7 2489   6.569   6.884   1.953  1.3010 -0.0314  0.2063
    6CHTO   H20 2490   6.468   6.891   1.998  0.6856  0.9484 -1.2943
    6CHTO    O4 2491   6.613   7.014   1.915 -0.4338 -0.0008 -0.2394
    6CHTO   C14 2492   6.754   7.045   1.883 -0.4481 -0.5099 -0.1495
    6CHTO   H27 2493   6.765   7.155   1.889 -0.0255 -0.6218  1.2647
    6CHTO   C18 2494   6.779   7.010   1.731 -0.0008 -0.4560  0.2973
    6CHTO   O13 2495   6.695   7.075   1.633 -0.2610 -0.1309  0.1579
    6CHTO    H7 2496   6.655   7.010   1.578 -1.5786  2.5414 -2.1135
    6CHTO    O2 2497   6.552   6.797   1.813  0.7014 -0.2385  0.3432
    6CHTO    C1 2498   6.424   6.780   1.755  0.4596  0.2477  0.1405
    6CHTO   H14 2499   6.432   6.725   1.659  0.5478  2.4292 -1.1463
    6CHTO    C2 2500   6.337   6.917   1.728  0.0391 -0.4552  0.4633
    6CHTO   H15 2501   6.322   6.964   1.826  0.0032  2.2099 -0.7826
    6CHTO    O6 2502   6.402   7.010   1.631  0.0808  0.2511  0.2531
    6CHTO    H1 2503   6.494   6.994   1.634 -0.1421 -1.1438  0.4038
    6CHTO    C3 2504   6.186   6.867   1.679  0.0006 -0.3971 -0.0740
    6CHTO   H16 2505   6.186   6.825   1.577 -1.3181  0.5619 -0.4823
    6CHTO    N1 2506   6.099   6.989   1.676  0.6116  0.7233  0.7029
    6CHTO    H8 2507   6.137   7.053   1.598  1.0904 -0.4348 -0.0301
    6CHTO    H9 2508   6.089   7.042   1.770 -0.1665  2.4006 -0.3005
    6CHTO    C4 2509   6.119   6.754   1.773 -0.5241 -0.5138 -0.1341
    6CHTO   H17 2510   6.099   6.802   1.869  1.2708  2.3501 -1.1334
    6CHTO    O1 2511   6.212   6.648   1.781 -0.1621  0.1308 -0.1403
    6CHTO    C5 2512   6.340   6.681   1.841  0.2395  0.0023 -0.2494
    6CHTO   H18 2513   6.315   6.729   1.936 -1.1245  0.5266 -0.8656
    6CHTO   C16 2514   6.407   6.540   1.873 -0.7571  0.8959 -0.5300
    6CHTO   O11 2515   6.345   6.477   1.989  0.5012 -0.0366  0.7192
    6CHTO    H5 2516   6.345   6.535   2.062  1.2694 -0.9657  1.4713
    6CHTO    O3 2517   6.002   6.689   1.719  0.0669  0.5615 -0.1431
    6CHTO    C6 2518   5.889   6.656   1.808  0.2690 -0.0411  0.1900
    6CHTO   H19 2519   5.900   6.691   1.910  0.5706 -1.8313  0.7868
    6CHTO    C8 2520   5.751   6.716   1.752  0.7068  0.5037 -0.5191
    6CHTO   H21 2521   5.736   6.674   1.652  0.3441 -0.8636  0.0934
    6CHTO    O7 2522   5.769   6.862   1.746  0.3598 -0.2066 -0.4691
    6CHTO    H2 2523   5.697   6.900   1.699 -0.0851 -1.0672 -0.4910
    6CHTO   C12 2524   5.632   6.668   1.838  0.1063 -0.1409 -0.0130
    6CHTO   H25 2525   5.651   6.712   1.938  1.1392 -0.7224  0.0489
    6CHTO    N3 2526   5.497   6.724   1.801  0.5896 -0.1365 -0.2820
    6CHTO   H12 2527   5.451   6.649   1.738  0.1521  0.7015 -0.9716
    6CHTO   H13 2528   5.503   6.817   1.746 -1.8733  0.6312  0.6763
    6CHTO   C15 2529   5.635   6.509   1.861  0.6947  0.9839  0.0064
    6CHTO   H28 2530   5.611   6.459   1.767 -1.7636  1.1306  0.5125
    6CHTO   O10 2531   5.538   6.447   1.977 -0.3330 -0.1679 -0.6839
    6CHTO    H4 2532   5.518   6.510   2.043  2.7055 -1.3959  1.5240
    6CHTO    O5 2533   5.764   6.473   1.909  0.2628 -0.4977 -0.0746
    6CHTO   C10 2534   5.873   6.505   1.823 -0.4158  0.2988  0.5369
    6CHTO   H23 2535   5.856   6.467   1.722 -2.2831  0.8909  0.6207
    6CHTO   C17 2536   5.989   6.430   1.880 -0.4013 -0.3249  0.5402
    6CHTO   O12 2537   5.972   6.291   1.869  0.0526  0.0890 -0.7308
    6CHTO    H6 2538   6.053   6.249   1.846  0.7218  1.2381 -0.5165
    7CHTO  H203 2539   5.073   2.500   2.049  0.8708  1.5746 -0.3415
    7CHTO   O82 2540   5.157   2.459   2.046  0.1296  0.0011 -0.3691
    7CHTO  C123 2541   5.258   2.558   2.061 -0.3591 -0.0482 -0.0448
    7CHTO  H227 2542   5.208   2.653   2.083 -0.6790  0.1811 -1.7346
    7CHTO   O77 2543   5.324   2.512   2.174 -0.1550 -0.1539  0.8782
    7CHTO  C118 2544   5.442   2.587   2.218  0.2690 -0.0211  0.0309
    7CHTO  H222 2545   5.406   2.689   2.237 -1.6138 -0.6836  0.0541
    7CHTO  C125 2546   5.504   2.529   2.354 -0.0017  0.0107 -0.1900
    7CHTO   O84 2547   5.409   2.547   2.460 -0.3001 -0.3068  0.4192
    7CHTO  H205 2548   5.377   2.636   2.463 -1.8827 -0.6676 -3.0982
    7CHTO  C114 2549   5.541   2.601   2.099 -0.1002  0.4166  1.1349
    7CHTO  H218 2550   5.598   2.509   2.085 -0.2309  0.2818  1.4813
    7CHTO  C116 2551   5.477   2.659   1.969  0.2971  0.0951 -0.2392
    7CHTO  H220 2552   5.443   2.764   1.977 -0.0509 -0.1364  1.3347
    7CHTO   O79 2553   5.568   2.654   1.856  0.3022 -0.4338  0.7225
    7CHTO  H201 2554   5.529   2.694   1.781  0.4577 -0.1545  0.7893
    7CHTO  C120 2555   5.349   2.576   1.935  0.1569  0.0587 -0.1110
    7CHTO  H224 2556   5.386   2.476   1.903  0.2168  0.3164 -0.8692
    7CHTO   N21 2557   5.265   2.621   1.821  0.1911 -0.3288  0.0581
    7CHTO  H211 2558   5.195   2.693   1.860  0.2654 -0.7623  0.9987
    7CHTO  H212 2559   5.328   2.674   1.751 -0.3102  1.6506  1.0739
    7CHTO   O75 2560   5.644   2.686   2.159 -0.5016 -0.1393 -0.0417
    7CHTO  C112 2561   5.802   2.611   2.145 -0.6491 -0.2207 -0.9971
    7CHTO  H216 2562   5.791   2.552   2.053  1.6057  0.3632 -1.6640
    7CHTO   O73 2563   5.830   2.526   2.261  0.6836  0.0487  0.6853
    7CHTO  C113 2564   5.955   2.450   2.254  0.7530  0.7888 -0.3756
    7CHTO  H217 2565   5.945   2.371   2.176  0.1209 -0.5243  1.0010
    7CHTO  C124 2566   5.962   2.362   2.380 -0.6890 -0.1889  0.0437
    7CHTO   O83 2567   5.839   2.299   2.417  0.2196 -0.0902  0.0845
    7CHTO  H204 2568   5.844   2.273   2.507  1.0980  1.2752  0.4420
    7CHTO  C109 2569   6.074   2.533   2.237 -0.3909 -0.4734 -0.4510
    7CHTO  H213 2570   6.081   2.593   2.329 -0.9162 -1.2719  0.1154
    7CHTO  C110 2571   6.049   2.626   2.115 -0.3705 -0.2520  0.0502
    7CHTO  H214 2572   6.067   2.564   2.027  0.8030 -0.5310  0.4790
    7CHTO   O78 2573   6.163   2.710   2.103  0.0053 -0.2433  0.0690
    7CHTO  H200 2574   6.138   2.790   2.062 -0.8620 -0.0511  0.9638
    7CHTO  C111 2575   5.917   2.710   2.128 -0.4288 -0.6996 -0.4697
    7CHTO  H215 2576   5.925   2.777   2.215 -1.3893 -2.7818  1.2720
    7CHTO   N19 2577   5.894   2.790   2.003 -0.3905  0.3442 -0.3629
    7CHTO  H207 2578   5.939   2.888   2.002 -0.2425  0.2805 -0.1077
    7CHTO  H208 2579   5.802   2.780   1.949  0.2642 -1.4927 -1.1869
    7CHTO   O74 2580   6.193   2.448   2.227 -0.2179 -0.0435 -0.5721
    7CHTO  C115 2581   6.316   2.521   2.314 -0.3674  0.5469  0.7400
    7CHTO  H219 2582   6.314   2.630   2.306  0.3564  0.4545 -0.7767
    7CHTO   O76 2583   6.296   2.491   2.471 -0.0866  0.3109  0.3882
    7CHTO  C122 2584   6.327   2.356   2.516 -0.2243 -0.0628  0.5643
    7CHTO  H226 2585   6.258   2.282   2.476  0.9510 -1.0958  0.4363
    7CHTO  C126 2586   6.313   2.347   2.673 -0.1135 -0.1164  0.0139
    7CHTO   O85 2587   6.324   2.212   2.726  0.0074  0.1608  0.0796
    7CHTO  H206 2588   6.345   2.202   2.817 -0.8154  3.2912  0.6935
    7CHTO  C121 2589   6.475   2.318   2.470  0.1237 -0.4647  0.8368
    7CHTO  H225 2590   6.550   2.390   2.507  0.0231 -0.1003  0.3345
    7CHTO   O81 2591   6.522   2.190   2.517 -0.4664 -0.0483 -0.5104
    7CHTO  H202 2592   6.505   2.132   2.446 -0.9781 -0.6942  0.1238
    7CHTO  C119 2593   6.479   2.319   2.316  0.7598  0.6584 -0.0886
    7CHTO  H223 2594   6.579   2.284   2.289  0.4241 -0.8976  0.6057
    7CHTO  C117 2595   6.449   2.460   2.252 -0.3583 -0.0427  0.3516
    7CHTO  H221 2596   6.425   2.466   2.146 -0.6121  0.8579  0.4533
    7CHTO   N20 2597   6.551   2.560   2.279  0.0406  0.2523 -0.4924
    7CHTO  H209 2598   6.521   2.663   2.293  3.4442  1.3052 -0.6626
    7CHTO  H210 2599   6.642   2.522   2.322 -0.9422 -1.8057 -0.1587
    7CHTO   O80 2600   6.382   2.196   2.251 -0.2915  0.5178 -0.6638
    7CHTO  C103 2601   6.406   2.138   2.089  0.5521  0.1435  0.0493
    7CHTO  H190 2602   6.388   2.212   2.011 -0.1005 -0.9972 -0.9005
    7CHTO  C101 2603   6.554   2.084   2.069  0.1637  0.5242  0.3909
    7CHTO  H188 2604   6.588   2.040   2.163  1.2400  0.1181 -0.1858
    7CHTO   O68 2605   6.648   2.204   2.043  0.1472 -0.0884  0.3110
    7CHTO  H168 2606   6.737   2.173   2.037  0.7536  1.5321  0.9128
    7CHTO   C99 2607   6.568   1.967   1.955  0.4467  0.8891  0.1463
    7CHTO  H186 2608   6.559   2.015   1.855  0.0025  1.2222  0.3419
    7CHTO   N17 2609   6.694   1.897   1.967  0.3038 -0.4924 -0.1243
    7CHTO  H174 2610   6.764   1.961   1.916 -0.2563  1.1708  1.1753
    7CHTO  H175 2611   6.727   1.881   2.069  1.5387  2.0085 -0.0817
    7CHTO   C97 2612   6.444   1.872   1.960  0.0228 -0.6343  0.4214
    7CHTO  H184 2613   6.448   1.822   2.058 -0.3619 -1.1323  0.1857
    7CHTO   O64 2614   6.320   1.950   1.944 -0.2487  0.5261 -0.4809
    7CHTO  C104 2615   6.302   2.019   2.068  0.4974 -0.1777  0.5716
    7CHTO  H191 2616   6.298   1.956   2.157  1.1422  0.4325  1.0387
    7CHTO  C108 2617   6.160   2.079   2.061 -0.1211  0.1892 -0.6611
    7CHTO   O71 2618   6.054   1.984   2.066  0.4711 -0.0446 -0.0358
    7CHTO  H171 2619   5.982   2.026   2.108 -0.8674 -2.1511 -0.1696
    7CHTO   O62 2620   6.435   1.775   1.859 -0.4895 -0.0084  0.2747
    7CHTO   C91 2621   6.320   1.685   1.859  0.8988 -0.4162 -0.1971
    7CHTO  H178 2622   6.352   1.595   1.807  1.6529 -1.3049  1.8027
    7CHTO   C92 2623   6.213   1.746   1.755 -0.1761  0.4888  0.5500
    7CHTO  H179 2624   6.180   1.846   1.785 -2.0821  0.0690 -0.0422
    7CHTO   O66 2625   6.281   1.757   1.626 -0.4512  0.6518 -0.0275
    7CHTO  H166 2626   6.373   1.777   1.625 -0.6537  1.8837  1.9060
    7CHTO   C93 2627   6.085   1.648   1.753 -0.2038  0.0483  0.0133
    7CHTO  H180 2628   6.121   1.546   1.737 -2.1397 -0.7050  0.3317
    7CHTO   N16 2629   5.995   1.676   1.641  0.6072 -0.0316  0.6727
    7CHTO  H172 2630   5.894   1.649   1.667 -0.8861  2.2469 -2.4986
    7CHTO  H173 2631   6.034   1.634   1.550  1.2564  1.8717  0.0487
    7CHTO   C94 2632   6.024   1.666   1.900  0.4109  0.4792  0.6091
    7CHTO  H181 2633   6.015   1.770   1.934 -2.6086  0.3167  0.4960
    7CHTO   O61 2634   6.111   1.595   1.989  0.8748 -0.1960 -0.3247
    7CHTO   C95 2635   6.245   1.646   1.993 -0.2480 -0.6283  0.2039
    7CHTO  H182 2636   6.256   1.724   2.067 -1.2299  0.5611 -0.8889
    7CHTO  C106 2637   6.324   1.530   2.059 -0.0300  0.3196 -0.4785
    7CHTO   O69 2638   6.291   1.520   2.201 -0.7842 -0.2319  0.1435
    7CHTO  H169 2639   6.346   1.448   2.227  0.1932  0.0714 -1.0060
    7CHTO   O63 2640   5.884   1.595   1.924  0.5332  0.2398 -0.8609
    7CHTO   C96 2641   5.799   1.650   2.024 -0.0926  0.6185 -0.1356
    7CHTO  H183 2642   5.778   1.755   2.001 -0.5810 -0.0194 -2.7676
    7CHTO   C98 2643   5.849   1.627   2.171  0.4802  0.1395  0.2460
    7CHTO  H185 2644   5.951   1.668   2.179  0.3188  0.8061 -0.8973
    7CHTO   O67 2645   5.768   1.710   2.259  0.4794 -0.5295  0.4683
    7CHTO  H167 2646   5.780   1.678   2.346  0.4013 -2.1834 -0.1136
    7CHTO  C102 2647   5.832   1.478   2.229 -0.1191  0.1672  0.3425
    7CHTO  H189 2648   5.821   1.489   2.338 -1.1579  1.2278  0.1390
    7CHTO   N18 2649   5.947   1.394   2.208  0.0554  0.0061  0.1115
    7CHTO  H176 2650   6.028   1.430   2.147  0.4704 -1.5558 -0.2652
    7CHTO  H177 2651   5.992   1.348   2.295 -1.1035 -1.0036  0.1916
    7CHTO  C105 2652   5.697   1.414   2.180  0.1286  0.2618  0.2676
    7CHTO  H192 2653   5.726   1.347   2.098  1.3692  1.7185 -0.5039
    7CHTO   O65 2654   5.611   1.517   2.120  0.4783  0.2940  0.2860
    7CHTO  C100 2655   5.668   1.569   2.000 -0.0609  0.4590 -0.3042
    7CHTO  H187 2656   5.690   1.478   1.942 -1.1889  0.7269 -1.1725
    7CHTO  C107 2657   5.560   1.650   1.928 -0.3671  1.0729 -0.0392
    7CHTO   O70 2658   5.509   1.761   2.002 -0.0611 -0.2921 -0.6376
    7CHTO  H170 2659   5.555   1.840   1.979 -0.2579  0.1348  0.4357
    7CHTO   O57 2660   5.630   1.330   2.316  0.0058 -0.2739 -0.2190
    7CHTO   C85 2661   5.607   1.191   2.304  0.1499  0.1919 -0.1968
    7CHTO  H157 2662   5.666   1.155   2.217 -0.0839  1.5835 -0.9492
    7CHTO   C83 2663   5.452   1.170   2.268  0.2904  0.4164 -0.2227
    7CHTO  H155 2664   5.436   1.213   2.169 -1.6253  1.6182  0.5932
    7CHTO   O56 2665   5.361   1.239   2.361 -0.0294  0.8064  0.2126
    7CHTO  H135 2666   5.361   1.193   2.443 -0.0141  0.8321  0.2275
    7CHTO   C81 2667   5.428   1.012   2.256 -0.0152  0.4493 -0.1230
    7CHTO  H153 2668   5.476   0.975   2.165  0.0495  2.0446 -0.7652
    7CHTO   N14 2669   5.283   0.979   2.231  0.5011  0.0930 -0.2280
    7CHTO  H141 2670   5.251   1.031   2.144 -1.6525 -1.5626 -0.4812
    7CHTO  H142 2671   5.260   0.876   2.213 -1.1583  0.0537  1.8914
    7CHTO   C79 2672   5.485   0.923   2.378 -0.2803 -0.1696  0.3127
    7CHTO  H151 2673   5.505   0.827   2.329  0.2216  0.0916  0.0023
    7CHTO   O52 2674   5.618   0.970   2.418  0.4569 -0.6084  0.3914
    7CHTO   C86 2675   5.644   1.114   2.439  0.1396 -0.1908  0.1764
    7CHTO  H158 2676   5.591   1.156   2.527 -1.7174 -1.5793 -0.2329
    7CHTO   C90 2677   5.798   1.121   2.465  0.1437  0.1070 -0.6497
    7CHTO   O60 2678   5.823   1.132   2.603 -0.3997  0.4403  0.0595
    7CHTO  H138 2679   5.914   1.121   2.623 -0.5977  0.1626  0.8230
    7CHTO   O50 2680   5.393   0.909   2.492 -0.1546  0.3901 -0.1555
    7CHTO   C73 2681   5.366   0.801   2.574  0.3072 -0.1584 -0.2012
    7CHTO  H145 2682   5.461   0.747   2.581  0.7028  0.5695  0.0990
    7CHTO   C74 2683   5.259   0.716   2.504 -0.1571  0.5938 -0.0953
    7CHTO  H146 2684   5.294   0.683   2.405 -0.5496 -2.8692  0.8468
    7CHTO   O54 2685   5.241   0.590   2.572 -0.1756 -0.0692 -0.2087
    7CHTO  H133 2686   5.175   0.532   2.538  0.3724 -0.0086 -1.3882
    7CHTO   C75 2687   5.124   0.788   2.495  0.4509  0.0412  0.2667
    7CHTO  H147 2688   5.136   0.884   2.442 -1.7216  0.4617  0.4906
    7CHTO   N13 2689   5.020   0.713   2.421 -0.5219 -0.3815  0.0291
    7CHTO  H139 2690   4.966   0.760   2.341  0.5749 -1.6736 -1.4929
    7CHTO  H140 2691   4.962   0.653   2.490 -0.6337  1.1265  1.2740
    7CHTO   C76 2692   5.077   0.837   2.644  0.1390  1.2694  0.0665
    7CHTO  H148 2693   5.062   0.747   2.703  1.7711 -0.1140 -1.5930
    7CHTO   O49 2694   5.189   0.913   2.702  0.3566  0.0549  0.3160
    7CHTO   C77 2695   5.316   0.855   2.714  0.0817 -0.0355  0.1174
    7CHTO  H149 2696   5.308   0.772   2.784 -1.8970  2.8398  3.5002
    7CHTO   C88 2697   5.404   0.953   2.792 -0.4887  0.3134 -0.2712
    7CHTO   O58 2698   5.344   0.963   2.937  0.1716 -0.3759 -0.3327
    7CHTO  H136 2699   5.254   0.988   2.934 -0.0540 -1.2049 -0.4407
    7CHTO   O51 2700   4.941   0.930   2.649  0.8662 -0.3132 -0.1979
    7CHTO   C78 2701   4.929   0.951   2.821  0.3391 -0.1771  0.5865
    7CHTO  H150 2702   5.010   0.913   2.887 -0.9617 -0.8156  1.8607
    7CHTO   C80 2703   4.794   0.881   2.860  0.2906 -0.1272  0.1502
    7CHTO  H152 2704   4.712   0.933   2.806  1.6917  1.9400 -0.0442
    7CHTO   O55 2705   4.813   0.741   2.824  0.1236  0.5775 -0.1168
    7CHTO  H134 2706   4.893   0.708   2.861 -0.5603 -0.8943  0.0877
    7CHTO   C84 2707   4.768   0.899   3.011  0.1190 -0.0320  0.2090
    7CHTO  H156 2708   4.857   0.870   3.066  0.3548  0.2574 -0.0193
    7CHTO   N15 2709   4.659   0.816   3.074  0.7144 -0.1286  0.2931
    7CHTO  H143 2710   4.564   0.862   3.055  0.4035 -0.8995 -0.0374
    7CHTO  H144 2711   4.653   0.714   3.044  0.0692 -0.4621  1.5435
    7CHTO   C87 2712   4.746   1.049   3.040  0.1156  0.6856  0.0193
    7CHTO  H159 2713   4.655   1.083   2.991 -0.0641  1.3773  0.8226
    7CHTO   O53 2714   4.877   1.132   2.981 -0.6679 -0.2280  0.0598
    7CHTO   C82 2715   4.915   1.100   2.843  0.1186  0.0629  0.3897
    7CHTO  H154 2716   4.834   1.121   2.773 -0.4344 -2.3590  0.2763
    7CHTO   C89 2717   5.037   1.185   2.794 -0.0112 -0.0867 -0.5407
    7CHTO   O59 2718   5.019   1.195   2.654 -0.1989 -0.2235  0.1307
    7CHTO  H137 2719   5.067   1.268   2.620 -0.8144  0.9360  1.6849
    7CHTO   O45 2720   4.729   1.076   3.197 -0.1556 -0.1012 -0.4931
    7CHTO   C67 2721   4.817   1.174   3.263 -0.3243 -0.4766  0.0379
    7CHTO  H124 2722   4.909   1.186   3.206  0.6096 -3.4473  0.8530
    7CHTO   C65 2723   4.756   1.314   3.275  0.5147  0.3607  0.1379
    7CHTO  H122 2724   4.648   1.306   3.265  0.6515 -2.3833  0.6397
    7CHTO   O44 2725   4.807   1.376   3.159  0.2180  0.2879 -0.3625
    7CHTO  H102 2726   4.900   1.370   3.145  0.6461  0.3096  2.3745
    7CHTO   C63 2727   4.769   1.394   3.406  0.3016 -0.0020 -0.1830
    7CHTO  H120 2728   4.703   1.347   3.479 -0.7095  0.8135 -0.5694
    7CHTO   N11 2729   4.720   1.540   3.407 -0.5373  0.0737  0.2107
    7CHTO  H108 2730   4.699   1.566   3.305  0.2058 -0.3522 -0.0554
    7CHTO  H109 2731   4.810   1.597   3.409 -1.2024  1.1374  0.1451
    7CHTO   C61 2732   4.913   1.371   3.461 -0.7139  0.3105  0.3998
    7CHTO  H118 2733   4.909   1.409   3.564  1.1145 -2.2831  1.4733
    7CHTO   O40 2734   4.953   1.235   3.466  0.5330  0.3728 -0.0246
    7CHTO   C68 2735   4.863   1.128   3.407 -0.0251 -0.2242  0.6241
    7CHTO  H125 2736   4.783   1.115   3.483 -0.5357 -1.0520 -0.0427
    7CHTO   C72 2737   4.949   0.997   3.403  0.6138  0.2016 -0.3063
    7CHTO   O48 2738   5.069   1.005   3.322  0.5184 -0.0925 -0.3017
    7CHTO  H105 2739   5.094   0.916   3.308 -2.7737 -1.2443  0.5725
    7CHTO   O38 2740   5.006   1.448   3.386  0.1924  0.3135  0.6159
    7CHTO   C55 2741   5.146   1.445   3.416 -1.1431 -0.2397 -0.0706
    7CHTO  H112 2742   5.159   1.363   3.487  2.8767 -1.3623 -1.9811
    7CHTO   C56 2743   5.190   1.585   3.470 -0.3477  0.1843  0.4245
    7CHTO  H113 2744   5.148   1.662   3.404  0.6799  1.2568  1.0046
    7CHTO   O42 2745   5.127   1.624   3.592  0.0631  0.0960 -0.7687
    7CHTO  H100 2746   5.040   1.660   3.587  0.2099  0.4553 -0.7580
    7CHTO   C57 2747   5.347   1.594   3.495 -0.1434 -0.0545 -0.2525
    7CHTO  H114 2748   5.377   1.531   3.579 -0.5680 -1.9756 -1.4959
    7CHTO   N10 2749   5.407   1.718   3.551  0.0785  0.1460  0.1671
    7CHTO  H106 2750   5.357   1.758   3.638 -0.2128  0.8942 -0.3375
    7CHTO  H107 2751   5.511   1.708   3.575 -0.1317 -1.8955  0.3132
    7CHTO   C58 2752   5.420   1.540   3.371 -0.7470 -0.1832  0.3020
    7CHTO  H115 2753   5.395   1.610   3.288 -0.5849  0.6170  0.9203
    7CHTO   O37 2754   5.372   1.410   3.344  0.6333  0.1294  0.3712
    7CHTO   C59 2755   5.241   1.413   3.289  1.0283 -0.2256 -0.0588
    7CHTO  H116 2756   5.219   1.482   3.208 -0.6646 -0.6637  0.0021
    7CHTO   C70 2757   5.205   1.279   3.225 -0.2080 -0.1567  0.7787
    7CHTO   O46 2758   5.277   1.249   3.109 -0.3432  0.0768 -0.4652
    7CHTO  H103 2759   5.274   1.326   3.054 -0.7979 -1.1568 -2.2223
    7CHTO   O39 2760   5.598   1.529   3.392 -0.0112  0.2425 -0.9798
    7CHTO   C60 2761   5.675   1.426   3.327  0.0747  0.4320 -0.6371
    7CHTO  H117 2762   5.638   1.324   3.342  0.8680  0.3040  0.4939
    7CHTO   C62 2763   5.667   1.446   3.174  0.3546 -0.2926  0.5292
    7CHTO  H119 2764   5.566   1.409   3.148 -0.0609 -0.6137  2.5054
    7CHTO   O43 2765   5.690   1.587   3.153 -0.0281 -0.2471  0.5809
    7CHTO  H101 2766   5.699   1.597   3.060 -0.8195 -2.5771  0.2274
    7CHTO   C66 2767   5.763   1.346   3.095  0.3898 -0.2752 -0.3514
    7CHTO  H123 2768   5.727   1.245   3.115 -1.8879  0.4400 -0.7105
    7CHTO   N12 2769   5.745   1.376   2.953  0.4692 -0.6231  0.6026
    7CHTO  H110 2770   5.739   1.286   2.893  1.1362 -1.4386  1.7507
    7CHTO  H111 2771   5.827   1.432   2.909 -1.1055 -0.3331 -2.0971
    7CHTO   C69 2772   5.909   1.344   3.142 -0.4242 -0.6250  0.3211
    7CHTO  H126 2773   5.947   1.448   3.133 -1.4931 -0.2749 -0.1446
    7CHTO   O41 2774   5.909   1.313   3.299 -0.2288  0.1461 -0.4131
    7CHTO   C64 2775   5.821   1.429   3.377 -0.2208 -0.3939  0.7497
    7CHTO  H121 2776   5.875   1.523   3.354  0.2661 -0.1861  2.6126
    7CHTO   C71 2777   5.822   1.398   3.527 -0.3280  0.0669  0.0246
    7CHTO   O47 2778   5.824   1.510   3.615  0.0182 -0.4774  0.1653
    7CHTO  H104 2779   5.739   1.547   3.618 -0.0915 -0.7800  0.7770
    7CHTO   O34 2780   6.007   1.238   3.066 -0.3144 -0.0835 -0.0597
    7CHTO   C49 2781   6.074   1.138   2.994 -0.5132 -0.1307 -0.5995
    7CHTO   H91 2782   6.115   1.070   3.068 -0.9980 -1.9355 -1.9647
    7CHTO   C47 2783   6.195   1.191   2.914  0.4498 -0.4714  0.6139
    7CHTO   H89 2784   6.281   1.183   2.984 -0.1478  1.7643  1.6455
    7CHTO   O33 2785   6.181   1.331   2.873 -0.2920 -0.2072 -0.2918
    7CHTO   H70 2786   6.093   1.335   2.840 -0.4144  0.1975  0.0730
    7CHTO   C45 2787   6.233   1.112   2.773  0.5253  0.4633 -0.0293
    7CHTO   H87 2788   6.168   1.155   2.695  2.5125  1.5538 -1.1076
    7CHTO    N8 2789   6.372   1.136   2.733 -0.6194 -0.4321  0.2346
    7CHTO   H75 2790   6.452   1.109   2.800  1.6100 -0.1843 -2.2166
    7CHTO   H76 2791   6.389   1.083   2.640 -1.1078  3.0342 -1.9078
    7CHTO   C43 2792   6.183   0.956   2.789 -0.4143  0.2527 -0.3161
    7CHTO   H85 2793   6.202   0.912   2.692 -0.2341 -4.1929  1.6327
    7CHTO   O29 2794   6.041   0.952   2.826 -0.7964  0.1299  0.0497
    7CHTO   C50 2795   5.982   1.060   2.899  0.1780 -0.6654  0.1611
    7CHTO   H92 2796   5.940   1.128   2.823  0.3156 -0.5547  0.1851
    7CHTO   C54 2797   5.857   1.006   2.966 -0.1716  0.3649 -0.2035
    7CHTO   O36 2798   5.760   0.957   2.873  0.3188  0.0863 -0.2341
    7CHTO   H72 2799   5.756   1.020   2.804  1.1179  0.6076  0.1864
    7CHTO   O27 2800   6.269   0.870   2.872  0.5464 -0.2298 -0.2317
    7CHTO   C37 2801   6.292   0.733   2.913 -0.0029 -0.9023  0.4529
    7CHTO   H79 2802   6.271   0.724   3.021  1.9359  0.7896  1.0130
    7CHTO   C38 2803   6.196   0.629   2.840 -0.1452 -0.8201 -0.0838
    7CHTO   H80 2804   6.206   0.642   2.731  1.4419 -1.3338 -0.0037
    7CHTO   O31 2805   6.060   0.654   2.875  0.5673  0.1586 -0.6283
    7CHTO   H68 2806   6.049   0.642   2.967  1.9421  2.9761 -0.0332
    7CHTO   C39 2807   6.243   0.485   2.878 -0.3432 -0.0904  0.2259
    7CHTO   H81 2808   6.216   0.481   2.984 -2.8763  0.0209 -0.3837
    7CHTO    N7 2809   6.171   0.373   2.804 -0.1287 -0.1619  0.4213
    7CHTO   H73 2810   6.074   0.352   2.847 -0.3520  0.1845  0.0864
    7CHTO   H74 2811   6.167   0.396   2.699  2.0875  0.9421  0.5484
    7CHTO   C40 2812   6.399   0.469   2.865 -0.1188  0.3427 -0.3932
    7CHTO   H82 2813   6.433   0.455   2.763  2.6775 -0.1039  0.5638
    7CHTO   O26 2814   6.472   0.574   2.933 -0.1860  0.8937  0.4851
    7CHTO   C41 2815   6.438   0.701   2.882  0.5147 -0.4389  0.1978
    7CHTO   H83 2816   6.445   0.708   2.772 -5.0857  0.1906 -0.2757
    7CHTO   C52 2817   6.546   0.798   2.945 -0.5745 -0.1027 -0.4064
    7CHTO   O35 2818   6.680   0.767   2.913 -0.8117  0.2396  0.0010
    7CHTO   H71 2819   6.723   0.752   2.996 -1.9611 -0.8304  0.4116
    7CHTO   O28 2820   6.456   0.362   2.948 -0.2762 -0.4267 -0.0214
    7CHTO   C42 2821   6.592   0.304   2.923 -0.0375 -0.7997  0.7260
    7CHTO   H84 2822   6.613   0.252   3.016 -0.5320 -0.7207  0.8815
    7CHTO   C44 2823   6.709   0.413   2.905  0.5101  0.3237  1.0231
    7CHTO   H86 2824   6.666   0.486   2.837 -1.1155 -1.5136  0.0440
    7CHTO   O32 2825   6.729   0.474   3.042 -0.2839  0.2946 -0.1617
    7CHTO   H69 2826   6.693   0.413   3.103 -1.4399  0.5186 -0.6083
    7CHTO   C48 2827   6.847   0.363   2.839 -0.2116 -0.5677  0.2068
    7CHTO   H90 2828   6.893   0.301   2.916 -0.3198  0.1444  0.8418
    7CHTO    N9 2829   6.945   0.474   2.828 -0.1532 -0.3784  0.3765
    7CHTO   H77 2830   7.040   0.449   2.782  0.1946 -1.5098  1.6903
    7CHTO   H78 2831   6.913   0.562   2.775  0.8437  0.0513  0.4809
    7CHTO   C51 2832   6.802   0.283   2.717 -0.8120 -0.0924 -0.1111
    7CHTO   H93 2833   6.740   0.348   2.656 -2.8516 -2.5875 -0.8129
    7CHTO   O30 2834   6.730   0.167   2.761 -0.0295 -0.2337  0.1309
    7CHTO   C46 2835   6.593   0.198   2.811 -0.5534 -0.6302  0.9055
    7CHTO   H88 2836   6.532   0.226   2.725  0.4097  1.9190  1.0141
    7CHTO   C53 2837   6.529   0.077   2.875  0.8382 -0.1906 -0.0963
    7CHTO   O72 2838   6.510  -0.028   2.789  0.3772  0.5597  0.5131
    7CHTO  H199 2839   6.581  -0.084   2.814  0.4770  1.7633  3.1037
    7CHTO   O22 2840   6.914   0.225   2.648  0.0091  0.0497  0.3625
    7CHTO   C31 2841   6.910   0.227   2.499 -0.6702 -0.1842 -0.5717
    7CHTO   H59 2842   7.000   0.168   2.473  1.4524  1.2188  3.2797
    7CHTO   C29 2843   6.785   0.161   2.434 -0.1546  0.5835 -0.1819
    7CHTO   H57 2844   6.696   0.214   2.470 -0.1760 -1.9668  3.8205
    7CHTO   O21 2845   6.778   0.033   2.496  0.0896  0.3407  0.1115
    7CHTO   H37 2846   6.705  -0.021   2.473  1.7795 -1.5925 -0.9200
    7CHTO   C27 2847   6.789   0.174   2.276 -0.7462 -1.3821  0.1369
    7CHTO   H55 2848   6.885   0.135   2.237  0.8962  1.1539  1.4950
    7CHTO    N5 2849   6.675   0.112   2.208 -0.4011  0.1650 -0.4623
    7CHTO   H43 2850   6.621   0.183   2.148 -0.8629  1.0960  1.0375
    7CHTO   H44 2851   6.702   0.023   2.153 -0.0475  0.8952 -1.4900
    7CHTO   C25 2852   6.807   0.331   2.244  1.2019 -0.1896 -0.5775
    7CHTO   H53 2853   6.723   0.386   2.289  1.9875  4.6613 -4.6797
    7CHTO   O17 2854   6.930   0.378   2.302  0.2013  0.2062  0.0598
    7CHTO   C32 2855   6.938   0.371   2.444 -0.1714 -0.5980  0.7738
    7CHTO   H60 2856   6.866   0.445   2.480  0.4371 -0.0701  0.9104
    7CHTO   C36 2857   7.088   0.415   2.469  0.4133 -0.0012 -0.5735
    7CHTO   O25 2858   7.114   0.553   2.476 -0.4863  0.4012 -0.5994
    7CHTO   H40 2859   7.156   0.577   2.556  0.3552 -2.4753 -0.1049
    7CHTO   O15 2860   6.809   0.350   2.093  0.3214  0.0208  0.2974
    7CHTO   C19 2861   6.801   0.471   2.013  0.3345  0.3815  0.5620
    7CHTO   H47 2862   6.790   0.413   1.921  0.8863  0.7380  0.2723
    7CHTO   C20 2863   6.672   0.558   2.026  0.6144 -0.8864 -0.5810
    7CHTO   H48 2864   6.643   0.575   2.130 -3.7362 -0.9684 -1.6785
    7CHTO   O19 2865   6.562   0.486   1.967  0.2129  0.2387  0.7702
    7CHTO   H35 2866   6.582   0.431   1.894  1.5717  0.4414  0.9836
    7CHTO   C21 2867   6.688   0.709   1.956 -0.2856  0.4743 -0.1203
    7CHTO   H49 2868   6.656   0.705   1.852 -1.2044  3.5072 -0.0115
    7CHTO    N4 2869   6.586   0.812   2.003 -0.0733  0.3809 -0.5123
    7CHTO   H41 2870   6.495   0.765   2.039 -1.4422  2.8536 -0.6259
    7CHTO   H42 2871   6.570   0.889   1.929 -1.8929  1.2627  0.7559
    7CHTO   C22 2872   6.834   0.766   1.963  0.7079 -0.5589 -0.5992
    7CHTO   H50 2873   6.863   0.794   2.065 -1.3474 -1.4581  0.2543
    7CHTO   O14 2874   6.931   0.673   1.920 -0.7370 -0.2470  0.2803
    7CHTO   C23 2875   6.936   0.553   2.005 -0.2235 -0.1852  0.7440
    7CHTO   H51 2876   6.974   0.580   2.105  1.0777  2.0249 -0.3110
    7CHTO   C34 2877   7.060   0.483   1.943  0.1269 -0.3962  0.0863
    7CHTO   O23 2878   7.089   0.352   1.992 -0.1192  0.4487 -0.3861
    7CHTO   H38 2879   7.178   0.338   2.017 -0.7938  0.4825  2.1957
    7CHTO   O16 2880   6.843   0.885   1.871 -0.2234 -0.2854 -0.0817
    7CHTO   C24 2881   6.873   1.027   1.958  0.4916 -0.3881 -0.5173
    7CHTO   H52 2882   6.858   1.013   2.066  3.6644 -1.7497 -0.1785
    7CHTO   C26 2883   6.785   1.144   1.913 -0.6312 -0.0436 -0.6192
    7CHTO   H54 2884   6.795   1.153   1.802  1.4252  0.7333 -0.3831
    7CHTO   O20 2885   6.654   1.100   1.945  1.0530  0.2437  0.4658
    7CHTO   H36 2886   6.615   1.083   1.862  1.2273 -0.4162  0.5133
    7CHTO   C30 2887   6.829   1.276   1.987  0.1114 -0.3259  0.0377
    7CHTO   H58 2888   6.824   1.261   2.095 -1.5533  0.0842  0.0306
    7CHTO    N6 2889   6.740   1.392   1.962 -0.4850 -0.2706 -0.8327
    7CHTO   H45 2890   6.642   1.350   1.946  0.4046 -2.5790 -0.4254
    7CHTO   H46 2891   6.771   1.451   1.877  2.4352 -1.6214 -0.7501
    7CHTO   C33 2892   6.979   1.298   1.942  0.4015  0.5480  0.0786
    7CHTO   H61 2893   6.995   1.309   1.834  1.4154 -1.5667  0.0031
    7CHTO   O18 2894   7.058   1.183   1.988 -0.0248  0.0645  0.3625
    7CHTO   C28 2895   7.024   1.054   1.940  0.1172  0.2321  0.1351
    7CHTO   H56 2896   7.053   1.044   1.835  0.4166  0.9557  0.1503
    7CHTO   C35 2897   7.117   0.947   2.001 -1.0956  0.4662  0.7859
    7CHTO   O24 2898   7.108   0.944   2.143  0.0802 -0.2598 -0.4544
    7CHTO   H39 2899   7.110   1.030   2.181  1.7447 -0.3650 -0.2462
    7CHTO    O9 2900   7.030   1.415   1.996  0.5536  0.1566  0.0544
    7CHTO   C13 2901   7.140   1.496   1.911  0.1680  0.0733 -0.8894
    7CHTO   H26 2902   7.133   1.470   1.803  1.3838  2.3204 -1.5355
    7CHTO   C11 2903   7.277   1.455   1.978  0.1484  0.1118  0.1360
    7CHTO   H24 2904   7.284   1.347   1.959 -1.9810 -0.1689  0.7863
    7CHTO    O8 2905   7.273   1.462   2.126 -0.2149 -0.1876  0.8121
    7CHTO    H3 2906   7.213   1.397   2.155 -2.5485  0.8257 -1.5738
    7CHTO    C9 2907   7.392   1.530   1.909  0.3182  0.4826  0.1089
    7CHTO   H22 2908   7.376   1.509   1.802  1.1910 -1.7011  0.3926
    7CHTO    N2 2909   7.526   1.479   1.949  0.3317  1.0258  0.7951
    7CHTO   H10 2910   7.540   1.474   2.056  0.1016 -0.2693  0.7808
    7CHTO   H11 2911   7.542   1.375   1.923 -1.1193  1.2499 -1.1136
    7CHTO    C7 2912   7.370   1.684   1.930 -0.8963 -0.5437  0.1683
    7CHTO   H20 2913   7.446   1.730   1.863 -0.2325  3.9299  3.8115
    7CHTO    O4 2914   7.240   1.729   1.890  0.2778 -0.4975 -0.0348
    7CHTO   C14 2915   7.121   1.653   1.911  0.5790 -0.1431  0.0104
    7CHTO   H27 2916   7.051   1.691   1.834  0.9253 -0.7090 -0.5914
    7CHTO   C18 2917   7.074   1.699   2.045 -0.2545  0.3927  0.3002
    7CHTO   O13 2918   7.015   1.834   2.042 -0.3350 -0.2124 -0.2383
    7CHTO    H7 2919   6.959   1.842   2.116 -1.0006 -1.1652 -0.6266
    7CHTO    O2 2920   7.406   1.741   2.080 -0.7718  0.4254 -0.1357
    7CHTO    C1 2921   7.481   1.863   2.097  0.2487  0.2258  0.3216
    7CHTO   H14 2922   7.443   1.938   2.025  0.3116  0.7979  0.8847
    7CHTO    C2 2923   7.638   1.856   2.078 -0.1622  0.3192 -0.6178
    7CHTO   H15 2924   7.678   1.770   2.133 -0.2534  1.3408  1.0897
    7CHTO    O6 2925   7.672   1.826   1.943  0.4059  0.7308  1.0261
    7CHTO    H1 2926   7.764   1.815   1.933  0.1599  0.9489 -1.8043
    7CHTO    C3 2927   7.707   1.993   2.117 -0.0136  0.7844  0.5276
    7CHTO   H16 2928   7.688   2.065   2.036  0.2934 -1.0264 -1.1940
    7CHTO    N1 2929   7.858   1.976   2.124 -0.8887 -0.0260  0.0609
    7CHTO    H8 2930   7.902   2.075   2.129 -1.8715  0.3738  1.0897
    7CHTO    H9 2931   7.886   1.921   2.213 -2.4314 -2.1606 -0.7402
    7CHTO    C4 2932   7.644   2.051   2.253  0.2117 -0.0310 -0.1101
    7CHTO   H17 2933   7.687   1.993   2.334  0.5592 -0.8707 -0.8806
    7CHTO    O1 2934   7.499   2.043   2.251  0.1697  0.2305  0.1217
    7CHTO    C5 2935   7.453   1.906   2.242  0.2428 -0.2072 -0.3513
    7CHTO   H18 2936   7.504   1.839   2.311  3.0768  1.1543 -1.0521
    7CHTO   C16 2937   7.301   1.916   2.285 -0.1533 -0.3295  0.1768
    7CHTO   O11 2938   7.227   1.987   2.185  0.3632  0.1919  0.0988
    7CHTO    H5 2939   7.135   1.994   2.202  0.8146  1.6825  2.0933
    7CHTO    O3 2940   7.672   2.192   2.264 -0.1295  0.4053 -0.2650
    7CHTO    C6 2941   7.769   2.247   2.362  0.8995  0.7525  0.3893
    7CHTO   H19 2942   7.826   2.167   2.410  2.4671  1.6842  0.1212
    7CHTO    C8 2943   7.859   2.362   2.300  0.3455 -1.0362 -0.1926
    7CHTO   H21 2944   7.789   2.430   2.252  1.5276  0.7465  0.5892
    7CHTO    O7 2945   7.946   2.299   2.196  0.4383 -0.6530 -0.2719
    7CHTO    H2 2946   7.895   2.278   2.120 -0.0049 -0.2496 -0.0914
    7CHTO   C12 2947   7.944   2.439   2.412  0.5092 -0.5281 -0.9109
    7CHTO   H25 2948   8.014   2.368   2.461 -2.2178 -3.3790 -1.0208
    7CHTO    N3 2949   8.025   2.551   2.357  0.5083  0.2538 -0.1711
    7CHTO   H12 2950   8.132   2.549   2.372  0.3173  1.2695  1.4819
    7CHTO   H13 2951   7.984   2.649   2.378 -0.1646  0.0830 -0.6905
    7CHTO   C15 2952   7.836   2.484   2.518 -0.6211  0.2592  0.8519
    7CHTO   H28 2953   7.767   2.555   2.474  0.4887  0.6994 -0.2108
    7CHTO   O10 2954   7.896   2.531   2.645 -0.4269 -0.0280 -0.4331
    7CHTO    H4 2955   7.932   2.465   2.702  1.9849 -0.3137 -2.2248
    7CHTO    O5 2956   7.761   2.372   2.569  0.0994 -0.5746 -0.1184
    7CHTO   C10 2957   7.681   2.314   2.470 -0.2024  1.0874 -0.0221
    7CHTO   H23 2958   7.619   2.394   2.430  0.2864  2.2368  1.4896
    7CHTO   C17 2959   7.586   2.211   2.539  0.6851 -0.3997  0.0655
    7CHTO   O12 2960   7.512   2.274   2.640  0.2586 -0.4024 -0.3323
    7CHTO    H6 2961   7.435   2.319   2.611  0.1754 -0.3366 -0.0193
    8CHTO  H203 2962   6.891   9.662   1.000  2.7170 -0.8216 -0.0207
    8CHTO   O82 2963   6.871   9.572   0.980 -0.0028 -0.1461 -0.5558
    8CHTO  C123 2964   6.877   9.504   1.107 -0.2351  0.2476  0.0536
    8CHTO  H227 2965   6.918   9.575   1.180  1.0415 -0.6358  0.2084
    8CHTO   O77 2966   6.740   9.474   1.132 -0.0139  0.4171  0.1825
    8CHTO  C118 2967   6.712   9.383   1.243 -0.2768  0.4065  0.3218
    8CHTO  H222 2968   6.749   9.424   1.339  1.1055 -0.5776  0.2317
    8CHTO  C125 2969   6.560   9.359   1.250  0.4671 -0.3493  0.4627
    8CHTO   O84 2970   6.502   9.307   1.374 -1.0653 -0.0657  0.3143
    8CHTO  H205 2971   6.457   9.226   1.355 -2.5722  0.1198  2.8148
    8CHTO  C114 2972   6.787   9.254   1.214  0.0277  0.0643  0.1593
    8CHTO  H218 2973   6.758   9.222   1.113 -0.8011  0.5723  0.2336
    8CHTO  C116 2974   6.941   9.275   1.217 -0.0388  0.0294  0.0506
    8CHTO  H220 2975   6.980   9.325   1.309 -0.4497  0.4410  0.0043
    8CHTO   O79 2976   7.014   9.150   1.194  0.5766 -0.1785 -0.3832
    8CHTO  H201 2977   6.996   9.081   1.254  1.7387  1.1762  1.5786
    8CHTO  C120 2978   6.964   9.373   1.098  0.4644  0.2077 -0.7240
    8CHTO  H224 2979   6.942   9.322   1.002  1.8411 -1.0333 -0.3975
    8CHTO   N21 2980   7.109   9.417   1.095  0.4385  0.2814  0.4698
    8CHTO  H211 2981   7.121   9.439   0.990 -3.3870  1.0452  0.1149
    8CHTO  H212 2982   7.177   9.342   1.132 -0.5381 -0.6699  0.3875
    8CHTO   O75 2983   6.749   9.157   1.317  0.4085  0.0168  0.4224
    8CHTO  C112 2984   6.676   9.014   1.281 -0.1659 -0.9175 -1.3816
    8CHTO  H216 2985   6.750   8.963   1.217  1.1004 -1.3257  0.3675
    8CHTO   O73 2986   6.559   9.049   1.216  0.7725  0.0822  0.3266
    8CHTO  C113 2987   6.470   8.935   1.200  0.6636 -0.3004  0.2907
    8CHTO  H217 2988   6.523   8.846   1.158  2.5965  1.1719 -0.4597
    8CHTO  C124 2989   6.364   8.974   1.102 -0.4945  0.0256 -0.1774
    8CHTO   O83 2990   6.310   9.102   1.127 -0.1427 -0.0092  0.0208
    8CHTO  H204 2991   6.222   9.090   1.157 -0.2243 -1.5351 -0.7798
    8CHTO  C109 2992   6.419   8.894   1.342 -0.6323  0.8688 -0.5466
    8CHTO  H213 2993   6.374   8.984   1.387  0.2918  0.3846  1.4012
    8CHTO  C110 2994   6.542   8.844   1.429  0.1377  1.0586  0.1552
    8CHTO  H214 2995   6.582   8.757   1.376  0.2229  0.9903  0.3316
    8CHTO   O78 2996   6.512   8.795   1.559  0.2861 -0.0409  0.4415
    8CHTO  H200 2997   6.555   8.846   1.624 -0.6912  0.2192  0.8938
    8CHTO  C111 2998   6.651   8.952   1.418 -0.3374 -0.4811 -0.5176
    8CHTO  H215 2999   6.617   9.036   1.481  1.4902  0.8754 -1.2946
    8CHTO   N19 3000   6.780   8.903   1.466  0.0168 -0.4246 -0.0590
    8CHTO  H207 3001   6.760   8.824   1.538 -0.6823  1.7601  2.2293
    8CHTO  H208 3002   6.828   8.985   1.518 -2.2544  0.8974  0.0487
    8CHTO   O74 3003   6.320   8.783   1.339  0.6615  0.2252  0.3558
    8CHTO  C115 3004   6.173   8.800   1.441  0.3034  0.5947 -0.1922
    8CHTO  H219 3005   6.134   8.701   1.467  1.3743  0.1944 -0.0986
    8CHTO   O76 3006   6.205   8.881   1.587  0.1085  0.1998  0.4763
    8CHTO  C122 3007   6.090   8.881   1.677  0.7372 -0.9308  0.3829
    8CHTO  H226 3008   6.125   8.946   1.757  0.5927 -0.5128  0.1080
    8CHTO  C126 3009   6.063   8.749   1.752 -0.2896 -0.3935  0.0629
    8CHTO   O85 3010   6.122   8.631   1.704  0.1496  0.0461 -0.1370
    8CHTO  H206 3011   6.082   8.559   1.748 -0.9211 -0.6915 -2.2694
    8CHTO  C121 3012   5.960   8.926   1.592 -0.4424 -0.0177 -0.5169
    8CHTO  H225 3013   5.892   8.840   1.575  0.3217 -0.9300  0.9682
    8CHTO   O81 3014   5.872   9.010   1.665  0.7560 -0.4200 -0.0135
    8CHTO  H202 3015   5.836   8.961   1.737  1.8830  0.4249  1.1464
    8CHTO  C119 3016   5.992   8.984   1.458 -0.1279  0.5079  0.2792
    8CHTO  H223 3017   5.898   9.012   1.411 -0.3568 -0.8486 -0.0758
    8CHTO  C117 3018   6.054   8.876   1.361 -0.3379 -0.0973  0.1789
    8CHTO  H221 3019   6.107   8.910   1.272 -0.7965 -0.8487 -0.3941
    8CHTO   N20 3020   5.955   8.771   1.311 -0.1705 -0.5969 -0.3637
    8CHTO  H209 3021   5.920   8.715   1.396  0.1110  1.0770  0.8660
    8CHTO  H210 3022   5.868   8.813   1.263 -0.3015 -3.0941 -2.4340
    8CHTO   O80 3023   6.070   9.133   1.462  0.6124  0.7174 -0.2826
    8CHTO  C103 3024   5.970   9.280   1.425  0.6728 -0.5228  0.0449
    8CHTO  H190 3025   5.868   9.242   1.435  0.9863 -1.7972 -1.4585
    8CHTO  C101 3026   5.989   9.402   1.528  0.5328 -0.0707 -0.5045
    8CHTO  H188 3027   6.093   9.424   1.554  0.9188 -0.8055 -1.4186
    8CHTO   O68 3028   5.920   9.360   1.661 -0.0262 -0.2624 -0.2181
    8CHTO  H168 3029   5.957   9.276   1.679  1.8052  0.7854  1.2277
    8CHTO   C99 3030   5.915   9.536   1.467 -0.1225  0.4883  0.0811
    8CHTO  H186 3031   5.805   9.518   1.460  0.2812 -1.6877 -1.2614
    8CHTO   N17 3032   5.940   9.663   1.542 -0.1695  0.0666 -0.2724
    8CHTO  H174 3033   5.890   9.743   1.490  2.2707 -1.2493 -4.8904
    8CHTO  H175 3034   6.044   9.691   1.544 -0.2781  0.5950 -1.5493
    8CHTO   C97 3035   5.971   9.559   1.323  0.5987 -0.7023 -0.4799
    8CHTO  H184 3036   6.080   9.565   1.333  0.3694  0.0290  1.9560
    8CHTO   O64 3037   5.926   9.449   1.240 -0.5182 -0.3365  0.0992
    8CHTO  C104 3038   5.986   9.321   1.268 -0.2566 -0.1261 -1.2207
    8CHTO  H191 3039   6.093   9.332   1.253 -0.2967  0.8046 -0.8584
    8CHTO  C108 3040   5.934   9.215   1.175 -0.0418  0.3543 -0.6009
    8CHTO   O71 3041   5.984   9.229   1.048 -0.6583 -0.1778  0.2123
    8CHTO  H171 3042   5.969   9.148   1.004 -2.8356 -0.0001  0.5878
    8CHTO   O62 3043   5.910   9.665   1.252  0.1222 -0.1953  0.0763
    8CHTO   C91 3044   6.001   9.734   1.165  0.3284  0.4213 -0.0178
    8CHTO  H178 3045   6.087   9.671   1.143  0.7913  1.3234 -0.8328
    8CHTO   C92 3046   6.049   9.872   1.235  0.3209  0.0218 -0.3089
    8CHTO  H179 3047   5.962   9.913   1.288 -0.1088 -2.1214  0.6756
    8CHTO   O66 3048   6.144   9.849   1.346 -0.0504  0.0900 -0.3634
    8CHTO  H166 3049   6.106   9.850   1.432  0.6103 -2.3077  0.0168
    8CHTO   C93 3050   6.121   9.964   1.130  0.0195  0.3306 -0.8957
    8CHTO  H180 3051   6.219   9.921   1.105 -0.1979 -1.7440  1.5809
    8CHTO   N16 3052   6.158  10.105   1.173  0.0293  0.4169  0.3868
    8CHTO  H172 3053   6.069  10.161   1.196 -1.7760 -2.0421 -0.3232
    8CHTO  H173 3054   6.221  10.092   1.260 -0.4647  0.6686  0.7864
    8CHTO   C94 3055   6.041   9.980   0.998 -0.1244  0.1871 -0.2998
    8CHTO  H181 3056   5.942  10.021   1.018 -0.4305 -1.4408  1.7182
    8CHTO   O61 3057   6.016   9.848   0.945 -0.0765 -0.4775  0.2189
    8CHTO   C95 3058   5.940   9.760   1.032 -0.0283 -0.4047  0.7375
    8CHTO  H182 3059   5.844   9.804   1.060  0.0119  1.0528 -1.2531
    8CHTO  C106 3060   5.905   9.626   0.947  0.0259 -0.2542 -0.9410
    8CHTO   O69 3061   5.829   9.664   0.832  0.0022 -0.2787 -0.5443
    8CHTO  H169 3062   5.738   9.670   0.851  0.7071  0.7002  2.8602
    8CHTO   O63 3063   6.113  10.049   0.878 -0.1390  0.2154 -0.1160
    8CHTO   C96 3064   6.044  10.056   0.731 -0.1336  0.1606 -0.9494
    8CHTO  H183 3065   5.967   9.979   0.732  0.0995 -0.0575  0.5663
    8CHTO   C98 3066   6.133  10.023   0.617 -0.1998 -0.5243 -0.8488
    8CHTO  H185 3067   6.212  10.099   0.608 -1.1678  0.8409  1.7159
    8CHTO   O67 3068   6.199   9.897   0.637 -0.3595 -0.6709 -0.4273
    8CHTO  H167 3069   6.284   9.897   0.598 -0.9485 -1.9504 -1.7809
    8CHTO  C102 3070   6.048  10.022   0.483  0.2009 -0.9296  0.3566
    8CHTO  H189 3071   5.970   9.946   0.499 -0.3407 -0.7375 -1.2909
    8CHTO   N18 3072   6.104   9.978   0.351 -0.1467 -0.0637 -0.3945
    8CHTO  H176 3073   6.137   9.876   0.355  0.0764  0.0817  2.9782
    8CHTO  H177 3074   6.186  10.041   0.320  1.5724 -1.5078  1.1176
    8CHTO  C105 3075   5.977  10.163   0.476  0.1337 -0.2449 -0.3630
    8CHTO  H192 3076   6.050  10.244   0.470 -0.2076  0.0104 -1.1948
    8CHTO   O65 3077   5.899  10.180   0.590  0.4778 -0.0923  0.2505
    8CHTO  C100 3078   5.976  10.198   0.708 -0.9213 -0.8348  0.0136
    8CHTO  H187 3079   6.053  10.274   0.688 -1.4798 -0.0274  0.8803
    8CHTO  C107 3080   5.874  10.241   0.821  0.9904 -0.0417  0.5772
    8CHTO   O70 3081   5.939  10.305   0.929 -0.3079  0.3265  0.5482
    8CHTO  H170 3082   6.002  10.246   0.966 -0.8628 -0.0842  0.8292
    8CHTO   O57 3083   5.861  10.157   0.341  0.0414 -0.3168 -0.2054
    8CHTO   C85 3084   5.804  10.279   0.282 -0.0716  0.2918 -0.1650
    8CHTO  H157 3085   5.886  10.336   0.235 -0.6287  0.7219 -0.6222
    8CHTO   C83 3086   5.759  10.377   0.395  0.2292 -0.3153  0.2372
    8CHTO  H155 3087   5.847  10.407   0.452  0.7691 -0.8667 -0.2921
    8CHTO   O56 3088   5.666  10.312   0.482 -0.0532 -0.0608 -0.2808
    8CHTO  H135 3089   5.707  10.275   0.558  0.4364 -0.7729 -0.8828
    8CHTO   C81 3090   5.699  10.507   0.334 -0.4290 -0.6806 -0.8041
    8CHTO  H153 3091   5.777  10.555   0.273 -0.0558  0.7856  0.7780
    8CHTO   N14 3092   5.662  10.610   0.430 -0.5347  0.3994 -0.3855
    8CHTO  H141 3093   5.733  10.690   0.439 -0.8221  0.4818  1.3644
    8CHTO  H142 3094   5.565  10.652   0.417 -1.4483 -2.0046 -1.6977
    8CHTO   C79 3095   5.581  10.474   0.237  0.0417  0.7278 -0.4450
    8CHTO  H151 3096   5.558  10.568   0.187 -0.3140 -0.0999 -1.8622
    8CHTO   O52 3097   5.624  10.377   0.139 -0.3404  0.4514 -0.2982
    8CHTO   C86 3098   5.687  10.251   0.178 -0.3427 -1.0485 -0.0436
    8CHTO  H158 3099   5.604  10.194   0.225 -1.8180 -0.7523 -2.2095
    8CHTO   C90 3100   5.733  10.163   0.053  0.3884  0.0682 -0.0292
    8CHTO   O60 3101   5.623  10.160  -0.041  0.4320  0.4074 -0.3351
    8CHTO  H138 3102   5.606  10.248  -0.069  0.5170  0.1893 -1.0701
    8CHTO   O50 3103   5.458  10.428   0.299  0.2862 -0.2370  0.2452
    8CHTO   C73 3104   5.325  10.385   0.265 -0.3957  0.1819  0.2122
    8CHTO  H145 3105   5.329  10.352   0.160  0.3746  1.0094 -0.0323
    8CHTO   C74 3106   5.212  10.493   0.276  0.2478 -0.3195 -0.2260
    8CHTO  H146 3107   5.255  10.578   0.221  1.0275 -0.0736  0.7614
    8CHTO   O54 3108   5.095  10.453   0.209  0.0262 -0.7436 -0.3370
    8CHTO  H133 3109   5.089  10.359   0.218  0.7405 -0.9227 -1.6216
    8CHTO   C75 3110   5.188  10.524   0.426 -0.1999 -0.4335 -0.7443
    8CHTO  H147 3111   5.273  10.579   0.468 -0.2123 -2.1534  1.6348
    8CHTO   N13 3112   5.082  10.621   0.452 -0.0628 -0.2357  0.1359
    8CHTO  H139 3113   5.128  10.718   0.452 -0.0176 -0.2293 -1.6668
    8CHTO  H140 3114   5.008  10.620   0.374  2.3325  0.8171 -2.2582
    8CHTO   C76 3115   5.178  10.391   0.517 -0.5781 -0.4371  0.1623
    8CHTO  H148 3116   5.086  10.343   0.485 -0.7994  0.6442 -0.8797
    8CHTO   O49 3117   5.282  10.294   0.488  0.4860 -0.4068 -0.6145
    8CHTO   C77 3118   5.281  10.260   0.349 -0.6838 -0.4568  0.3329
    8CHTO  H149 3119   5.179  10.233   0.323 -0.4191  0.9213 -2.2594
    8CHTO   C88 3120   5.364  10.136   0.337 -0.4254 -0.0406 -0.5827
    8CHTO   O58 3121   5.357  10.084   0.223 -0.0955 -0.5866  0.3015
    8CHTO  H136 3122   5.434  10.031   0.216  0.0960 -0.5950  2.3022
    8CHTO   O51 3123   5.177  10.433   0.670 -0.4504 -0.3063 -0.0572
    8CHTO   C78 3124   5.197  10.331   0.783  0.2944 -0.2839 -0.3020
    8CHTO  H150 3125   5.209  10.234   0.731  0.8452  0.7642 -2.1831
    8CHTO   C80 3126   5.070  10.328   0.866 -0.3952  0.2782 -0.2059
    8CHTO  H152 3127   5.029  10.429   0.888  1.0934  0.4340  2.0485
    8CHTO   O55 3128   4.967  10.265   0.779 -0.4128 -0.0851  0.5724
    8CHTO  H134 3129   4.966  10.322   0.705 -0.2181  1.0592  1.4365
    8CHTO   C84 3130   5.081  10.248   1.008 -0.6898 -0.2659 -0.3506
    8CHTO  H156 3131   5.104  10.144   0.983  1.8417  0.4577 -1.1553
    8CHTO   N15 3132   4.965  10.245   1.082 -0.0393 -0.2734 -0.1158
    8CHTO  H143 3133   4.924  10.147   1.068  3.8851 -1.8183 -1.4043
    8CHTO  H144 3134   4.964  10.269   1.187 -1.0734 -3.8883  0.8020
    8CHTO   C87 3135   5.211  10.289   1.085 -0.4587  0.1364 -0.6662
    8CHTO  H159 3136   5.212  10.389   1.128  0.2210 -0.5596  0.9691
    8CHTO   O53 3137   5.333  10.268   0.978 -0.1338  0.2300 -0.9400
    8CHTO   C82 3138   5.319  10.359   0.866 -0.5628 -0.3837 -0.6693
    8CHTO  H154 3139   5.318  10.460   0.908  1.1198 -1.4190  2.0479
    8CHTO   C89 3140   5.455  10.340   0.799 -0.6708  0.8944 -0.1816
    8CHTO   O59 3141   5.473  10.428   0.690  0.2383 -0.1616 -0.1545
    8CHTO  H137 3142   5.496  10.387   0.609  2.0522  3.0864 -1.4011
    8CHTO   O45 3143   5.247  10.155   1.211  0.3002  0.6004 -0.2358
    8CHTO   C67 3144   5.294  10.030   1.162 -0.1417  1.0685  0.0521
    8CHTO  H124 3145   5.251  10.007   1.065 -0.0808 -0.1036  0.2961
    8CHTO   C65 3146   5.454  10.026   1.155  0.3856  0.0175  0.7609
    8CHTO  H122 3147   5.485  10.123   1.117 -1.0868  0.8068  1.5475
    8CHTO   O44 3148   5.487   9.928   1.052  0.0892  0.3222  0.0818
    8CHTO  H102 3149   5.578   9.908   1.044 -0.1569 -0.1781 -1.6023
    8CHTO   C63 3150   5.520  10.019   1.297  0.1379  0.2044  0.0331
    8CHTO  H120 3151   5.484  10.107   1.351  1.4397  1.6525 -1.3977
    8CHTO   N11 3152   5.668  10.036   1.295 -0.1301 -0.4678 -0.0550
    8CHTO  H108 3153   5.700  10.048   1.397 -1.3523 -0.0434  0.2843
    8CHTO  H109 3154   5.722   9.949   1.262 -0.4209 -0.4777 -0.5055
    8CHTO   C61 3155   5.468   9.888   1.367  0.7088 -0.4148  0.0378
    8CHTO  H118 3156   5.509   9.897   1.469  1.4001 -1.0106 -0.1836
    8CHTO   O40 3157   5.314   9.888   1.381 -0.6404  0.0512  0.4312
    8CHTO   C68 3158   5.238   9.919   1.255  0.6193 -0.4437 -0.5316
    8CHTO  H125 3159   5.141   9.965   1.284  1.1695 -0.4597  1.3856
    8CHTO   C72 3160   5.214   9.788   1.179  0.2467 -0.0860 -0.2655
    8CHTO   O48 3161   5.147   9.797   1.047 -0.3007  0.1316 -0.3815
    8CHTO  H105 3162   5.056   9.776   1.049  0.1660 -2.0861 -1.1126
    8CHTO   O38 3163   5.520   9.775   1.299 -0.3997  0.4116 -0.3115
    8CHTO   C55 3164   5.498   9.641   1.345 -0.2588  0.6869 -0.2516
    8CHTO  H112 3165   5.393   9.616   1.322 -0.9465  1.8238  1.4325
    8CHTO   C56 3166   5.534   9.613   1.496  0.3067 -0.0007 -0.9494
    8CHTO  H113 3167   5.641   9.625   1.516 -0.3700  1.0430  2.3477
    8CHTO   O42 3168   5.487   9.712   1.584  0.3514  0.5752  0.1399
    8CHTO  H100 3169   5.479   9.677   1.670 -1.5310 -0.6939 -0.5246
    8CHTO   C57 3170   5.490   9.467   1.540 -0.3337 -0.2748  0.2057
    8CHTO  H114 3171   5.381   9.475   1.541 -0.5420 -2.7169  0.7644
    8CHTO   N10 3172   5.517   9.423   1.676 -0.9470 -0.0319 -0.4160
    8CHTO  H106 3173   5.515   9.502   1.750  1.1248 -0.6082  0.2804
    8CHTO  H107 3174   5.448   9.347   1.709 -2.4314  1.4961  0.0882
    8CHTO   C58 3175   5.533   9.365   1.436 -0.5801 -0.2766  0.3433
    8CHTO  H115 3176   5.639   9.337   1.457 -0.6759 -0.3749  0.6984
    8CHTO   O37 3177   5.523   9.412   1.302 -0.0763 -0.1818 -0.4873
    8CHTO   C59 3178   5.578   9.542   1.267 -0.5551  0.1322 -0.2061
    8CHTO  H116 3179   5.683   9.547   1.297  0.0646 -0.8981 -2.1214
    8CHTO   C70 3180   5.561   9.572   1.114  0.4587 -0.4517  0.5109
    8CHTO   O46 3181   5.437   9.536   1.055  0.2724  0.3852 -0.4142
    8CHTO  H103 3182   5.369   9.579   1.103  0.1411  1.5193 -1.5764
    8CHTO   O39 3183   5.430   9.224   1.429  0.4957 -0.3600 -0.3109
    8CHTO   C60 3184   5.285   9.244   1.433  0.0292  0.5021 -1.2725
    8CHTO  H117 3185   5.250   9.295   1.523  0.0639 -1.6088 -0.0348
    8CHTO   C62 3186   5.226   9.343   1.331  0.6174 -0.2659 -0.0323
    8CHTO  H119 3187   5.268   9.443   1.354 -1.0956  0.2747  0.8003
    8CHTO   O43 3188   5.282   9.299   1.203 -0.1095  0.6000 -0.4873
    8CHTO  H101 3189   5.223   9.323   1.135 -0.3829 -0.7303 -0.7378
    8CHTO   C66 3190   5.067   9.350   1.348 -0.4075 -0.4522 -0.4923
    8CHTO  H123 3191   5.050   9.404   1.441  0.4964  0.2960 -0.7572
    8CHTO   N12 3192   5.013   9.449   1.258  0.3899 -0.0742 -0.8336
    8CHTO  H110 3193   4.911   9.426   1.231  0.0250  1.3032 -0.6837
    8CHTO  H111 3194   5.073   9.444   1.168  3.7721 -0.4535  1.3801
    8CHTO   C69 3195   5.002   9.212   1.331  0.0974 -0.5648  0.0869
    8CHTO  H126 3196   5.009   9.156   1.235 -1.8976 -1.3842  0.3745
    8CHTO   O41 3197   5.058   9.122   1.428 -0.5342 -0.8030 -0.3418
    8CHTO   C64 3198   5.216   9.106   1.434 -0.2022  0.0998 -0.4000
    8CHTO  H121 3199   5.260   9.056   1.345 -0.3958 -0.6389 -0.0794
    8CHTO   C71 3200   5.275   9.022   1.548  0.1808  0.2945 -0.4684
    8CHTO   O47 3201   5.252   9.070   1.676 -0.1355 -0.3249  0.0745
    8CHTO  H104 3202   5.167   9.038   1.700  0.4501 -1.9628  0.0219
    8CHTO   O34 3203   4.855   9.218   1.361  0.7769  0.2389  0.2908
    8CHTO   C49 3204   4.729   9.249   1.458 -0.7687  0.1998  0.5329
    8CHTO   H91 3205   4.727   9.177   1.540 -0.0921  0.0957  0.4620
    8CHTO   C47 3206   4.601   9.236   1.369 -0.4424  0.0788  0.1385
    8CHTO   H89 3207   4.515   9.261   1.433 -1.2000 -1.6026 -0.1841
    8CHTO   O33 3208   4.596   9.094   1.339  0.1741 -0.1937  1.0930
    8CHTO   H70 3209   4.664   9.069   1.279 -0.1043  3.0720 -0.6656
    8CHTO   C45 3210   4.603   9.341   1.246 -0.5160 -0.1714  0.7260
    8CHTO   H87 3211   4.696   9.324   1.191 -0.3566  1.1213  0.5694
    8CHTO    N8 3212   4.496   9.329   1.151  0.4828  0.3302  0.4996
    8CHTO   H75 3213   4.410   9.313   1.214  0.1255  0.1352 -0.0328
    8CHTO   H76 3214   4.507   9.241   1.090 -0.5891  2.1731 -2.4447
    8CHTO   C43 3215   4.623   9.485   1.310  0.7016 -0.0628 -0.1878
    8CHTO   H85 3216   4.635   9.555   1.227  0.0268  0.9907  0.5900
    8CHTO   O29 3217   4.730   9.489   1.403 -0.1742  0.6127  0.6169
    8CHTO   C50 3218   4.739   9.395   1.510  1.0828  0.3366  0.1665
    8CHTO   H92 3219   4.842   9.401   1.549  1.2360  0.9669 -0.3308
    8CHTO   C54 3220   4.646   9.429   1.637 -0.1820  0.2850  0.1159
    8CHTO   O36 3221   4.652   9.339   1.747  0.0884 -0.0779  0.2693
    8CHTO   H72 3222   4.655   9.247   1.726  1.9672 -0.0120  0.1336
    8CHTO   O27 3223   4.510   9.543   1.382 -0.5090  0.1621 -0.1534
    8CHTO   C37 3224   4.462   9.676   1.410 -0.6333  1.1025  0.1436
    8CHTO   H79 3225   4.410   9.670   1.506 -1.5926  2.8651 -0.2542
    8CHTO   C38 3226   4.584   9.783   1.435 -0.0810  0.1632 -0.0332
    8CHTO   H80 3227   4.662   9.770   1.359  0.3004  0.9200  0.2166
    8CHTO   O31 3228   4.639   9.755   1.561 -0.3744  0.3182  0.2276
    8CHTO   H68 3229   4.581   9.699   1.610 -1.0238  0.8608  0.0696
    8CHTO   C39 3230   4.546   9.935   1.436  0.3952  0.3396  0.0461
    8CHTO   H81 3231   4.488   9.954   1.526 -0.6925 -2.1428 -0.1032
    8CHTO    N7 3232   4.663  10.035   1.432  0.5237 -0.6589  0.2495
    8CHTO   H73 3233   4.622  10.132   1.457  0.4815 -0.2528 -1.2963
    8CHTO   H74 3234   4.742  10.010   1.500 -1.2801  0.0201  2.6718
    8CHTO   C40 3235   4.441   9.954   1.317 -0.3937 -0.7856 -0.3059
    8CHTO   H82 3236   4.484   9.950   1.217 -0.8555 -1.4664 -0.4777
    8CHTO   O26 3237   4.332   9.861   1.335 -0.0264 -0.0543  0.3263
    8CHTO   C41 3238   4.361   9.725   1.306 -0.6802  1.0441  0.4510
    8CHTO   H83 3239   4.414   9.724   1.210 -0.5641 -1.0752  0.5212
    8CHTO   C52 3240   4.224   9.654   1.293 -0.0617 -0.2285 -0.5235
    8CHTO   O35 3241   4.237   9.529   1.242 -0.1297  0.0036  0.2623
    8CHTO   H71 3242   4.308   9.485   1.285 -0.4844 -1.0617 -0.2398
    8CHTO   O28 3243   4.381  10.089   1.329 -0.2439 -0.1909 -0.7977
    8CHTO   C42 3244   4.329  10.161   1.211 -0.0045 -0.9877 -0.3359
    8CHTO   H84 3245   4.283  10.247   1.259  1.7187 -0.3000  0.1367
    8CHTO   C44 3246   4.213  10.099   1.121 -0.5058  0.2862 -0.7703
    8CHTO   H86 3247   4.243  10.001   1.083  1.9234  0.4867  0.5755
    8CHTO   O32 3248   4.103  10.082   1.209 -0.1547  0.1488  0.2040
    8CHTO   H69 3249   4.048  10.016   1.171  0.4223  1.1150 -2.4216
    8CHTO   C48 3250   4.166  10.185   0.996 -0.3111  0.4336  0.1126
    8CHTO   H90 3251   4.126  10.279   1.034  3.2152  2.5006 -1.0589
    8CHTO    N9 3252   4.062  10.125   0.905  0.1369  0.3517 -0.3477
    8CHTO   H77 3253   4.010  10.197   0.843  0.0440  0.3224 -0.3042
    8CHTO   H78 3254   4.104  10.041   0.853  1.4047  0.4606  0.4703
    8CHTO   C51 3255   4.296  10.234   0.914  0.1606  0.2698  0.2547
    8CHTO   H93 3256   4.344  10.154   0.857 -0.2487  0.8360 -0.8978
    8CHTO   O30 3257   4.380  10.303   1.005  0.0352  0.1192 -0.1154
    8CHTO   C46 3258   4.445  10.216   1.121 -0.4551  0.1626 -0.1164
    8CHTO   H88 3259   4.492  10.135   1.064 -1.1132  0.2170 -0.7406
    8CHTO   C53 3260   4.549  10.309   1.188 -0.1673 -0.2756 -0.1191
    8CHTO   O72 3261   4.492  10.432   1.239 -1.2357  0.7330  0.0287
    8CHTO  H199 3262   4.503  10.433   1.332 -1.0651  2.1795  0.0086
    8CHTO   O22 3263   4.263  10.329   0.810 -0.1315  0.6920  0.2784
    8CHTO   C31 3264   4.358  10.367   0.704  0.2680  0.4858 -0.7392
    8CHTO   H59 3265   4.312  10.456   0.656  0.0125 -0.3536 -2.0974
    8CHTO   C29 3266   4.496  10.417   0.750  0.2659  0.0268  0.2767
    8CHTO   H57 3267   4.537  10.339   0.816 -3.1780 -0.7905  1.5919
    8CHTO   O21 3268   4.479  10.526   0.840 -0.7685  0.1540  0.4954
    8CHTO   H37 3269   4.564  10.564   0.851 -0.1359 -1.2334  0.5715
    8CHTO   C27 3270   4.591  10.443   0.635  1.2570 -0.3411 -0.0063
    8CHTO   H55 3271   4.553  10.533   0.584  1.9356  0.6054  1.1264
    8CHTO    N5 3272   4.731  10.477   0.676  0.4760  0.8103 -0.0670
    8CHTO   H43 3273   4.790  10.522   0.597  2.9542  0.7636  1.6917
    8CHTO   H44 3274   4.784  10.387   0.704 -1.3638 -0.7146 -1.3958
    8CHTO   C25 3275   4.584  10.320   0.533  0.1157  0.4116  0.3705
    8CHTO   H53 3276   4.619  10.237   0.596  1.6815  1.4258  0.8738
    8CHTO   O17 3277   4.461  10.286   0.485 -0.5545 -0.4703  0.0392
    8CHTO   C32 3278   4.365  10.256   0.588 -0.1956 -0.3973 -0.6862
    8CHTO   H60 3279   4.402  10.160   0.624 -2.8788 -1.2487 -0.0989
    8CHTO   C36 3280   4.226  10.225   0.510 -0.2983  0.5043 -0.3977
    8CHTO   O25 3281   4.124  10.175   0.602 -0.2066 -0.1803  0.1141
    8CHTO   H40 3282   4.044  10.166   0.555 -1.0132  0.9864  1.2218
    8CHTO   O15 3283   4.674  10.345   0.416  0.0276 -0.7853  0.0056
    8CHTO   C19 3284   4.694  10.264   0.298 -0.0748  0.5723 -0.7125
    8CHTO   H47 3285   4.610  10.195   0.280  1.9399 -1.8049 -1.2535
    8CHTO   C20 3286   4.703  10.358   0.165  0.2204  0.3474 -0.4485
    8CHTO   H48 3287   4.781  10.436   0.173 -0.6207  1.1734 -0.1091
    8CHTO   O19 3288   4.582  10.432   0.144  0.0947  0.2357  0.4783
    8CHTO   H35 3289   4.565  10.496   0.211 -0.5553  1.3583 -0.7402
    8CHTO   C21 3290   4.733  10.273   0.035 -0.3973 -0.9316  0.3547
    8CHTO   H49 3291   4.644  10.213   0.013 -0.1285 -1.1315 -0.1922
    8CHTO    N4 3292   4.757  10.362  -0.087 -0.5872  0.5090 -0.3317
    8CHTO   H41 3293   4.662  10.393  -0.126 -1.0354  0.9201  1.0389
    8CHTO   H42 3294   4.811  10.448  -0.049 -0.1829 -0.1257  0.5590
    8CHTO   C22 3295   4.859  10.179   0.059 -0.0152  0.5646  0.2889
    8CHTO   H50 3296   4.944  10.243   0.080  0.9288 -0.5848  0.0350
    8CHTO   O14 3297   4.829  10.107   0.179  0.0594 -0.1036 -0.3852
    8CHTO   C23 3298   4.827  10.170   0.305 -0.4108  0.7326  0.0863
    8CHTO   H51 3299   4.919  10.230   0.315 -0.8953  1.4524  0.2458
    8CHTO   C34 3300   4.811  10.069   0.418 -0.3671 -0.1803  0.1507
    8CHTO   O23 3301   4.837  10.123   0.554  0.3055  0.0067 -0.0738
    8CHTO   H38 3302   4.899  10.072   0.602  0.2453  0.0337  0.0309
    8CHTO   O16 3303   4.879  10.092  -0.053 -0.3727  0.4611 -0.4239
    8CHTO   C24 3304   5.013  10.000  -0.073 -0.1135  0.1761 -0.0077
    8CHTO   H52 3305   5.041   9.945   0.017  0.2085  0.0617 -0.1756
    8CHTO   C26 3306   5.131  10.083  -0.122 -0.2669  0.3943 -0.4321
    8CHTO   H54 3307   5.095  10.128  -0.217 -1.7957  0.5949  0.2225
    8CHTO   O20 3308   5.165  10.176  -0.019  0.0346  0.0636 -0.9528
    8CHTO   H36 3309   5.227  10.238  -0.052 -0.8004  1.1013 -0.6035
    8CHTO   C30 3310   5.249   9.995  -0.169  0.3491  0.7827 -0.5794
    8CHTO   H58 3311   5.287   9.937  -0.084 -0.2426  2.6579  0.9870
    8CHTO    N6 3312   5.361  10.081  -0.218  0.1017  0.1194  0.7119
    8CHTO   H45 3313   5.334  10.185  -0.216 -0.1576  0.0375  1.6185
    8CHTO   H46 3314   5.450  10.064  -0.159  0.4080 -1.0651 -0.0582
    8CHTO   C33 3315   5.200   9.883  -0.265  0.2070 -0.1295  0.6875
    8CHTO   H61 3316   5.170   9.924  -0.363  2.4758  0.0549  0.0390
    8CHTO   O18 3317   5.087   9.809  -0.208  0.7293 -0.1670 -0.1778
    8CHTO   C28 3318   4.974   9.895  -0.188 -0.3407 -0.1490 -0.2185
    8CHTO   H56 3319   4.961   9.952  -0.280  1.5670 -0.3492 -0.6248
    8CHTO   C35 3320   4.850   9.811  -0.151 -0.4713  0.3521  0.1697
    8CHTO   O24 3321   4.873   9.735  -0.030 -0.1322 -0.8064  0.0511
    8CHTO   H39 3322   4.863   9.792   0.044 -1.2354 -1.3195  0.3086
    8CHTO    O9 3323   5.302   9.792  -0.304 -0.5478  0.2151 -0.1690
    8CHTO   C13 3324   5.241   9.678  -0.401 -0.3204  0.2506  0.3771
    8CHTO   H26 3325   5.147   9.714  -0.448 -0.2109 -0.9541 -0.8209
    8CHTO   C11 3326   5.220   9.542  -0.313 -0.1356 -0.0911 -1.3890
    8CHTO   H24 3327   5.117   9.539  -0.274 -0.2177  1.2359 -1.4655
    8CHTO    O8 3328   5.301   9.551  -0.194  0.5028 -0.0604  0.7293
    8CHTO    H3 3329   5.282   9.474  -0.143 -1.2064  0.4595  0.8770
    8CHTO    C9 3330   5.255   9.413  -0.391  0.0380  0.2785 -0.0073
    8CHTO   H22 3331   5.193   9.422  -0.482  0.0175  1.1828  0.0907
    8CHTO    N2 3332   5.210   9.278  -0.339  0.4687 -0.4736  0.0593
    8CHTO   H10 3333   5.193   9.281  -0.233 -1.9982 -0.8681 -0.2982
    8CHTO   H11 3334   5.119   9.249  -0.391  1.1233  2.0106 -2.5898
    8CHTO    C7 3335   5.411   9.421  -0.428 -0.0992  0.8418 -0.7119
    8CHTO   H20 3336   5.400   9.338  -0.501 -1.0611  0.0024  0.3657
    8CHTO    O4 3337   5.437   9.549  -0.484  0.2258 -0.2074  0.2755
    8CHTO   C14 3338   5.333   9.643  -0.528  0.6089  0.3500 -0.6960
    8CHTO   H27 3339   5.273   9.589  -0.604 -0.3696  2.7629 -1.6744
    8CHTO   C18 3340   5.395   9.762  -0.597  0.1540  0.3622 -0.0057
    8CHTO   O13 3341   5.461   9.735  -0.721 -0.4176  0.8113  0.0674
    8CHTO    H7 3342   5.395   9.721  -0.786  1.0669  1.7843 -1.7037
    8CHTO    O2 3343   5.498   9.395  -0.298  0.3286  0.2047 -0.7891
    8CHTO    C1 3344   5.640   9.409  -0.301  0.4273  0.0816 -0.5174
    8CHTO   H14 3345   5.656   9.517  -0.282 -3.3032  0.4978  0.6247
    8CHTO    C2 3346   5.721   9.361  -0.430 -0.7626 -0.5355 -0.7129
    8CHTO   H15 3347   5.684   9.263  -0.464 -0.3248 -0.7103 -0.6934
    8CHTO    O6 3348   5.694   9.464  -0.526 -0.0705 -1.0318 -0.5190
    8CHTO    H1 3349   5.723   9.448  -0.614  1.8040  1.3325 -0.4057
    8CHTO    C3 3350   5.883   9.355  -0.404  0.2649  0.3229 -0.1126
    8CHTO   H16 3351   5.928   9.456  -0.398 -0.1842  0.6211 -1.7114
    8CHTO    N1 3352   5.954   9.274  -0.511  0.0797 -0.9902 -0.2555
    8CHTO    H8 3353   6.062   9.279  -0.504 -0.0774 -0.3225  2.6008
    8CHTO    H9 3354   5.915   9.173  -0.517 -0.3460 -0.6809 -3.0246
    8CHTO    C4 3355   5.915   9.288  -0.263 -0.3166 -0.2786  0.4582
    8CHTO   H17 3356   5.903   9.180  -0.273 -0.3568  0.0034 -3.3191
    8CHTO    O1 3357   5.843   9.350  -0.155 -0.0415  0.0991  0.2215
    8CHTO    C5 3358   5.704   9.346  -0.175  0.8990  0.2264 -0.1496
    8CHTO   H18 3359   5.686   9.238  -0.179 -0.0709  0.4079 -0.9305
    8CHTO   C16 3360   5.634   9.402  -0.049 -0.3828  0.2674 -0.1382
    8CHTO   O11 3361   5.637   9.319   0.072 -0.2342 -0.1907  0.4923
    8CHTO    H5 3362   5.595   9.236   0.058 -0.7939  0.1488  0.1629
    8CHTO    O3 3363   6.052   9.318  -0.235  0.1926  0.4960 -0.3181
    8CHTO    C6 3364   6.103   9.205  -0.153 -0.3936 -0.4371  0.1117
    8CHTO   H19 3365   6.032   9.131  -0.117  0.9745 -0.9924  1.7183
    8CHTO    C8 3366   6.205   9.125  -0.240  0.1202  0.0209 -1.0958
    8CHTO   H21 3367   6.293   9.186  -0.258  2.2358 -3.4667 -3.2082
    8CHTO    O7 3368   6.139   9.099  -0.368  0.2895 -0.3494 -0.1792
    8CHTO    H2 3369   6.190   9.047  -0.427 -0.0458 -2.0516  1.0079
    8CHTO   C12 3370   6.257   9.000  -0.152  0.2829  0.0633  0.0282
    8CHTO   H25 3371   6.166   8.938  -0.139  1.4228 -1.4273  1.0968
    8CHTO    N3 3372   6.355   8.922  -0.229  0.0220 -0.6116 -0.7034
    8CHTO   H12 3373   6.333   8.918  -0.335  2.6930  0.2864 -1.3156
    8CHTO   H13 3374   6.360   8.821  -0.189 -0.1519 -0.6367 -0.7449
    8CHTO   C15 3375   6.318   9.049  -0.014 -0.1066 -0.4320 -0.2705
    8CHTO   H28 3376   6.418   9.092  -0.027 -0.8936  1.6380  0.2472
    8CHTO   O10 3377   6.316   8.948   0.089 -0.0877 -0.4519  0.7595
    8CHTO    H4 3378   6.388   8.892   0.071  0.8938  0.0781  2.8849
    8CHTO    O5 3379   6.226   9.139   0.044  0.4387 -0.7239 -0.2512
    8CHTO   C10 3380   6.179   9.253  -0.029 -0.3280 -0.1519  0.2878
    8CHTO   H23 3381   6.271   9.310  -0.040  1.5652 -3.0203  0.7398
    8CHTO   C17 3382   6.093   9.336   0.066  0.4962  0.5794  0.2551
    8CHTO   O12 3383   5.978   9.254   0.102 -0.3536  0.4130  0.5307
    8CHTO    H6 3384   5.923   9.289   0.169 -1.3715  1.8570 -1.0117
    9CHTO  H203 3385   8.122   4.029   3.877 -0.4804 -0.9330  0.4115
    9CHTO   O82 3386   8.124   4.015   3.785 -0.3757  0.3433  0.2139
    9CHTO  C123 3387   8.111   4.142   3.719  0.5086  0.0831  0.6662
    9CHTO  H227 3388   8.062   4.215   3.784 -0.3865 -0.8927  1.1187
    9CHTO   O77 3389   8.256   4.174   3.701 -0.0468  0.3196  0.0412
    9CHTO  C118 3390   8.293   4.295   3.630 -0.2560  0.5160  0.3623
    9CHTO  H222 3391   8.250   4.388   3.667  1.2670  1.5232 -0.3535
    9CHTO  C125 3392   8.447   4.300   3.649  0.0352  0.8748  0.7133
    9CHTO   O84 3393   8.489   4.433   3.621 -0.3064 -0.0291  0.1565
    9CHTO  H205 3394   8.464   4.460   3.535 -0.6048 -1.2687 -0.1441
    9CHTO  C114 3395   8.243   4.275   3.487  0.7164 -0.3964 -0.0569
    9CHTO  H218 3396   8.285   4.179   3.455 -0.3633 -0.6044 -0.8583
    9CHTO  C116 3397   8.086   4.251   3.491  0.0173 -0.3246  0.3943
    9CHTO  H220 3398   8.038   4.344   3.525  2.0520  0.6700  0.5953
    9CHTO   O79 3399   8.043   4.247   3.349  0.6253  0.9257 -0.1590
    9CHTO  H201 3400   7.950   4.261   3.342  0.5972  0.9231  0.2304
    9CHTO  C120 3401   8.042   4.128   3.578  0.3985 -0.1387  0.2808
    9CHTO  H224 3402   8.076   4.043   3.515 -1.3024  0.0645 -0.9515
    9CHTO   N21 3403   7.894   4.118   3.591 -0.2651  0.1236 -0.4634
    9CHTO  H211 3404   7.831   4.145   3.508 -1.9932  1.0059  1.0918
    9CHTO  H212 3405   7.869   4.181   3.675  0.7135  0.7855 -0.6609
    9CHTO   O75 3406   8.295   4.382   3.416  0.0597 -0.0304 -0.5200
    9CHTO  C112 3407   8.340   4.343   3.262 -0.2491 -0.2267 -0.1822
    9CHTO  H216 3408   8.250   4.308   3.211 -1.2753  1.1380  0.6507
    9CHTO   O73 3409   8.442   4.240   3.269  0.1472  0.0526 -0.1870
    9CHTO  C113 3410   8.486   4.184   3.142 -0.5217  0.0983  0.1964
    9CHTO  H217 3411   8.397   4.142   3.090 -0.2472 -1.3546  0.8740
    9CHTO  C124 3412   8.576   4.063   3.155 -0.0560 -0.3984  0.3622
    9CHTO   O83 3413   8.513   3.955   3.219 -0.0294 -0.1664  0.0306
    9CHTO  H204 3414   8.576   3.888   3.199  3.6998  2.7752  1.3068
    9CHTO  C109 3415   8.542   4.292   3.047 -0.0230  0.1936 -0.1064
    9CHTO  H213 3416   8.641   4.315   3.090 -0.5705 -1.0882  1.9482
    9CHTO  C110 3417   8.453   4.421   3.043  0.5473 -0.7054 -0.0834
    9CHTO  H214 3418   8.364   4.399   2.982  0.0061 -1.8113  1.0758
    9CHTO   O78 3419   8.516   4.522   2.965  0.2906 -0.4973  0.3330
    9CHTO  H200 3420   8.480   4.605   2.990 -0.2039 -0.0826 -1.6163
    9CHTO  C111 3421   8.412   4.467   3.190  0.4558 -0.1892 -0.4643
    9CHTO  H215 3422   8.503   4.491   3.247  1.2978 -0.3429 -1.7308
    9CHTO   N19 3423   8.329   4.589   3.189 -0.3716 -0.3667  0.2101
    9CHTO  H207 3424   8.266   4.598   3.276 -1.1443 -0.1760 -0.3677
    9CHTO  H208 3425   8.271   4.598   3.099  0.8238  0.9284 -0.4336
    9CHTO   O74 3426   8.555   4.233   2.917 -0.4287 -0.1593 -0.0009
    9CHTO  C115 3427   8.718   4.225   2.852 -0.5651  0.0277  0.0432
    9CHTO  H219 3428   8.794   4.227   2.930  0.8260 -1.6762 -1.2239
    9CHTO   O76 3429   8.747   4.086   2.773  0.7725 -0.5964  0.1528
    9CHTO  C122 3430   8.887   4.066   2.740  0.0559 -0.0100  0.1576
    9CHTO  H226 3431   8.900   3.999   2.655  2.3931 -0.3463  0.7469
    9CHTO  C126 3432   8.946   3.992   2.864  0.1973  0.1380 -0.3364
    9CHTO   O85 3433   9.089   3.971   2.830 -0.1575 -0.5303 -0.3307
    9CHTO  H206 3434   9.138   3.932   2.899  0.5423 -1.4803 -1.3435
    9CHTO  C121 3435   8.958   4.197   2.700 -0.1695 -0.5780  0.2504
    9CHTO  H225 3436   8.995   4.238   2.796 -0.1493 -0.6544  0.2750
    9CHTO   O81 3437   9.062   4.171   2.611 -0.3881  0.1016  0.3980
    9CHTO  H202 3438   9.134   4.123   2.647 -0.4538 -1.5862 -1.6406
    9CHTO  C119 3439   8.853   4.294   2.643 -0.2411 -0.1785  0.7725
    9CHTO  H223 3440   8.907   4.380   2.602  0.3965 -0.9038  0.0779
    9CHTO  C117 3441   8.753   4.343   2.754 -0.4387 -0.8585  0.6873
    9CHTO  H221 3442   8.655   4.376   2.720  0.3439  0.2331 -0.5311
    9CHTO   N20 3443   8.803   4.464   2.826 -0.0783  0.2032 -0.2711
    9CHTO  H209 3444   8.728   4.520   2.879  0.5610  1.3666 -0.5860
    9CHTO  H210 3445   8.870   4.525   2.768  0.9974 -0.4661  0.2431
    9CHTO   O80 3446   8.786   4.230   2.508  0.0644 -0.4270 -0.0918
    9CHTO  C103 3447   8.686   4.310   2.428  0.2717  0.0950 -0.3718
    9CHTO  H190 3448   8.597   4.326   2.489 -0.1082 -0.8927 -0.6558
    9CHTO  C101 3449   8.730   4.447   2.366 -0.1432 -0.0127  0.3128
    9CHTO  H188 3450   8.817   4.427   2.303  0.2071 -0.6809  1.0110
    9CHTO   O68 3451   8.777   4.564   2.492 -0.3678 -0.1090 -0.4857
    9CHTO  H168 3452   8.868   4.579   2.507 -0.4738 -0.3686  0.4465
    9CHTO   C99 3453   8.609   4.498   2.288  0.0573 -0.0651  0.5836
    9CHTO  H186 3454   8.528   4.520   2.360  0.0874 -1.7696  1.1475
    9CHTO   N17 3455   8.636   4.632   2.229  0.6147 -0.2081  0.0114
    9CHTO  H174 3456   8.655   4.622   2.123 -1.3855  0.6533 -0.4533
    9CHTO  H175 3457   8.561   4.703   2.261  2.0380  2.2822 -2.0096
    9CHTO   C97 3458   8.551   4.403   2.181 -0.3024  1.2063  0.4843
    9CHTO  H184 3459   8.621   4.398   2.097 -1.0654  1.3158 -0.1650
    9CHTO   O64 3460   8.525   4.272   2.237  0.3487  0.0260  0.5803
    9CHTO  C104 3461   8.641   4.216   2.308  0.0250  0.4164 -0.0147
    9CHTO  H191 3462   8.720   4.215   2.233  0.5600 -0.5510  0.5594
    9CHTO  C108 3463   8.602   4.069   2.346 -0.6024 -0.0144 -0.5327
    9CHTO   O71 3464   8.712   4.003   2.403 -0.0127 -0.7441 -0.1716
    9CHTO  H171 3465   8.680   3.923   2.440 -0.6118 -0.8161 -0.8363
    9CHTO   O62 3466   8.419   4.442   2.131  0.4959 -0.3693  0.4441
    9CHTO   C91 3467   8.372   4.399   2.003 -0.6028 -0.5533  0.2766
    9CHTO  H178 3468   8.425   4.305   1.985 -1.7037 -1.5869  2.3842
    9CHTO   C92 3469   8.406   4.510   1.892  0.0175  0.4023  0.5513
    9CHTO  H179 3470   8.512   4.537   1.904 -0.4448  2.9271 -0.7935
    9CHTO   O66 3471   8.405   4.431   1.771  0.6066  0.3170  0.0547
    9CHTO  H166 3472   8.395   4.485   1.695 -2.5637 -0.5375 -0.1881
    9CHTO   C93 3473   8.304   4.633   1.894  0.4523  0.5984  0.2256
    9CHTO  H180 3474   8.299   4.680   1.794 -0.5424 -0.3937 -0.1928
    9CHTO   N16 3475   8.355   4.736   1.981 -0.4351  0.2380  0.4899
    9CHTO  H172 3476   8.445   4.774   1.935 -1.0310  0.3160 -0.6308
    9CHTO  H173 3477   8.287   4.819   1.975  1.0431  1.3335 -2.0597
    9CHTO   C94 3478   8.159   4.583   1.934 -0.5548  0.1172  0.0434
    9CHTO  H181 3479   8.128   4.610   2.035 -1.8166 -3.5074  0.7085
    9CHTO   O61 3480   8.147   4.444   1.909  0.1079  0.0790  0.6119
    9CHTO   C95 3481   8.216   4.350   1.992 -0.3451 -0.9981 -0.0785
    9CHTO  H182 3482   8.174   4.357   2.092 -1.0408  1.9642 -0.5423
    9CHTO  C106 3483   8.195   4.205   1.944 -0.1410 -0.3205 -0.1906
    9CHTO   O69 3484   8.241   4.102   2.031 -0.6218  0.3494  0.6682
    9CHTO  H169 3485   8.331   4.113   2.054  0.0096 -0.0230 -1.4914
    9CHTO   O63 3486   8.047   4.651   1.842  0.5891  0.1273  0.2344
    9CHTO   C96 3487   7.901   4.639   1.903 -0.0736 -0.0425 -0.3882
    9CHTO  H183 3488   7.904   4.597   2.004 -4.9224 -0.7153 -0.3861
    9CHTO   C98 3489   7.810   4.558   1.812  0.6434  0.0853 -0.0790
    9CHTO  H185 3490   7.835   4.580   1.707 -1.3329  2.9180 -0.0083
    9CHTO   O67 3491   7.844   4.421   1.833 -0.2900  0.0625  0.4301
    9CHTO  H167 3492   7.785   4.361   1.791 -0.9485  0.0261  1.3956
    9CHTO  C102 3493   7.654   4.583   1.847 -0.1989  0.3161  0.4564
    9CHTO  H189 3494   7.633   4.528   1.940 -0.4540  1.1817  0.9238
    9CHTO   N18 3495   7.559   4.522   1.750 -0.0264 -0.5328  0.5908
    9CHTO  H176 3496   7.463   4.515   1.801  0.2031 -0.4852  1.0348
    9CHTO  H177 3497   7.548   4.562   1.650 -2.2943 -2.0940  0.1865
    9CHTO  C105 3498   7.608   4.724   1.896 -0.5976 -0.4843  0.7424
    9CHTO  H192 3499   7.603   4.792   1.812  1.9132 -0.8771  0.2146
    9CHTO   O65 3500   7.709   4.777   1.978  0.0539  0.1702 -0.2700
    9CHTO  C100 3501   7.840   4.782   1.919  0.2595 -0.1762  0.0500
    9CHTO  H187 3502   7.828   4.830   1.821 -0.2948 -2.1374 -0.8630
    9CHTO  C107 3503   7.932   4.866   2.006 -0.2795  0.1272 -0.5538
    9CHTO   O70 3504   7.875   4.990   2.035 -0.5588  0.2958 -0.0335
    9CHTO  H170 3505   7.878   5.048   1.962  2.8563 -0.4027 -0.5683
    9CHTO   O57 3506   7.471   4.713   1.980 -0.0519  0.1280  0.1458
    9CHTO   C85 3507   7.375   4.814   1.950  0.0040 -0.0537  0.1746
    9CHTO  H157 3508   7.365   4.807   1.840 -2.8185  0.2712  0.3778
    9CHTO   C83 3509   7.425   4.958   1.982  0.1397  0.0935 -0.5191
    9CHTO  H155 3510   7.506   4.986   1.915  1.7087 -1.6955  0.5507
    9CHTO   O56 3511   7.483   4.960   2.118  0.2906  0.1324 -0.0192
    9CHTO  H135 3512   7.418   4.953   2.185  0.4018 -0.2535  0.0455
    9CHTO   C81 3513   7.313   5.067   1.966  0.1018  0.0510  0.0062
    9CHTO  H153 3514   7.275   5.064   1.864  0.5480  1.2857 -0.2085
    9CHTO   N14 3515   7.359   5.207   1.986  0.1438  0.5357 -0.4915
    9CHTO  H141 3516   7.326   5.253   2.077 -0.4003 -0.7714 -0.0192
    9CHTO  H142 3517   7.351   5.280   1.909 -0.4096  1.1074  0.1069
    9CHTO   C79 3518   7.187   5.035   2.062 -0.1185  0.4727 -0.3393
    9CHTO  H151 3519   7.107   5.105   2.038  0.1547  0.4690 -1.2855
    9CHTO   O52 3520   7.131   4.905   2.026 -0.2105 -0.6292 -0.2484
    9CHTO   C86 3521   7.230   4.794   2.024  0.5309  0.5891  0.3310
    9CHTO  H158 3522   7.251   4.768   2.130  1.8675  1.6173  0.3348
    9CHTO   C90 3523   7.152   4.678   1.966  0.1623 -0.7777  0.3753
    9CHTO   O60 3524   7.017   4.666   2.019  0.1021 -0.1868 -0.4429
    9CHTO  H138 3525   6.985   4.585   1.984  0.4170 -0.6027  0.2376
    9CHTO   O50 3526   7.211   5.042   2.207  0.3056  0.3657  0.3269
    9CHTO   C73 3527   7.186   5.107   2.334  0.5016  0.4270  0.9532
    9CHTO  H145 3528   7.077   5.125   2.342  0.1667 -1.6676  1.4056
    9CHTO   C74 3529   7.251   5.246   2.355  0.2493 -0.6140  0.3973
    9CHTO  H146 3530   7.222   5.312   2.271 -0.9281 -0.8188  0.6251
    9CHTO   O54 3531   7.189   5.311   2.462 -0.0639  0.1694  0.0304
    9CHTO  H133 3532   7.248   5.341   2.528  0.9333 -1.4191 -0.1358
    9CHTO   C75 3533   7.405   5.226   2.361  0.1779  0.4587 -0.0897
    9CHTO  H147 3534   7.431   5.195   2.259  0.3522 -0.8915  0.3550
    9CHTO   N13 3535   7.472   5.356   2.379  0.3586 -0.0402  0.1803
    9CHTO  H139 3536   7.437   5.412   2.465  3.0385  0.5665  0.9404
    9CHTO  H140 3537   7.469   5.415   2.289  0.5781 -0.8514 -0.3659
    9CHTO   C76 3538   7.447   5.099   2.458  0.6896 -0.6362 -0.2042
    9CHTO  H148 3539   7.436   5.138   2.559 -0.2898 -0.3318 -0.4180
    9CHTO   O49 3540   7.367   4.980   2.454  0.4441  0.2026  0.1523
    9CHTO   C77 3541   7.227   5.012   2.453  0.2298  0.1376  0.1797
    9CHTO  H149 3542   7.210   5.060   2.549  0.3799 -0.6356  0.5958
    9CHTO   C88 3543   7.141   4.881   2.448  0.0058  0.3389 -0.5424
    9CHTO   O58 3544   7.143   4.803   2.589 -0.0712  0.4015  0.1709
    9CHTO  H136 3545   7.227   4.761   2.587  0.3364  1.1577  0.8156
    9CHTO   O51 3546   7.594   5.066   2.414  0.2424  0.0702  0.0383
    9CHTO   C78 3547   7.659   4.969   2.524  0.1604 -1.0022 -0.0550
    9CHTO  H150 3548   7.577   4.899   2.549  0.2029 -0.5387  1.4047
    9CHTO   C80 3549   7.710   5.061   2.642 -0.2314 -0.0801  0.0357
    9CHTO  H152 3550   7.753   5.154   2.599 -0.7372  0.4387  0.6460
    9CHTO   O55 3551   7.602   5.112   2.727  0.2270 -0.1024  0.3292
    9CHTO  H134 3552   7.550   5.035   2.744  0.0447 -0.0785 -0.1218
    9CHTO   C84 3553   7.819   4.990   2.730 -0.0890  0.4677 -0.2525
    9CHTO  H156 3554   7.767   4.913   2.787 -2.7126  2.9031  0.7425
    9CHTO   N15 3555   7.887   5.086   2.819 -0.4176 -0.0436  0.1999
    9CHTO  H143 3556   7.949   5.148   2.759 -2.3207 -0.5816 -2.4048
    9CHTO  H144 3557   7.809   5.146   2.861 -0.6391 -0.3231  0.1886
    9CHTO   C87 3558   7.922   4.903   2.652  0.2793 -0.1466 -0.1648
    9CHTO  H159 3559   8.000   4.961   2.602 -0.5707  1.8916  0.8052
    9CHTO   O53 3560   7.847   4.814   2.559 -0.6592  0.2523 -0.3236
    9CHTO   C82 3561   7.770   4.890   2.460 -0.0924  0.3650 -0.0975
    9CHTO  H154 3562   7.838   4.957   2.407  1.0167  1.0785  2.1454
    9CHTO   C89 3563   7.706   4.802   2.353 -0.1999  0.3681 -0.2105
    9CHTO   O59 3564   7.813   4.717   2.284  0.0700 -0.3218  0.2616
    9CHTO  H137 3565   7.813   4.634   2.327 -1.9227 -0.1204  0.7045
    9CHTO   O45 3566   7.998   4.813   2.747  0.1973  0.5263 -0.2278
    9CHTO   C67 3567   8.102   4.727   2.702  0.5546 -0.3333 -0.4343
    9CHTO  H124 3568   8.052   4.666   2.627  0.1197 -2.2162  1.3516
    9CHTO   C65 3569   8.221   4.804   2.635  0.4199 -0.2408 -0.2297
    9CHTO  H122 3570   8.236   4.894   2.693  2.3687  0.2297 -1.4053
    9CHTO   O44 3571   8.173   4.831   2.502  0.4312 -0.5524  0.2420
    9CHTO  H102 3572   8.129   4.913   2.495 -2.5526 -2.1996 -1.2657
    9CHTO   C63 3573   8.362   4.741   2.656 -1.2262  0.5800 -0.0691
    9CHTO  H120 3574   8.414   4.774   2.746  2.6409 -2.4881 -1.0343
    9CHTO   N11 3575   8.465   4.796   2.566  0.3955  0.3666 -0.0260
    9CHTO  H108 3576   8.476   4.902   2.574 -1.1426  0.5434 -0.1127
    9CHTO  H109 3577   8.557   4.750   2.598 -0.0450 -0.7241 -0.3124
    9CHTO   C61 3578   8.349   4.580   2.672 -0.2292 -0.6444 -0.1229
    9CHTO  H118 3579   8.448   4.540   2.698 -0.7707 -1.7394  0.3024
    9CHTO   O40 3580   8.255   4.538   2.768 -0.6721  0.2959 -0.6731
    9CHTO   C68 3581   8.156   4.633   2.811  1.1452  0.3681  0.4387
    9CHTO  H125 3582   8.193   4.692   2.898  2.2975  1.3790 -0.7329
    9CHTO   C72 3583   8.034   4.551   2.866  0.5971  0.1362  0.8569
    9CHTO   O48 3584   8.063   4.498   2.996 -0.2966  0.5491 -0.4196
    9CHTO  H105 3585   8.006   4.529   3.064 -1.4264 -0.1147 -1.0534
    9CHTO   O38 3586   8.315   4.511   2.551 -0.4622 -0.2168  0.4781
    9CHTO   C55 3587   8.243   4.383   2.539 -0.0479 -0.2180  0.4990
    9CHTO  H112 3588   8.147   4.408   2.588 -0.1948  0.6202 -0.2151
    9CHTO   C56 3589   8.297   4.256   2.601  0.2333 -0.3409  0.4374
    9CHTO  H113 3590   8.399   4.244   2.560  0.7567 -0.2524  1.6927
    9CHTO   O42 3591   8.321   4.266   2.741  0.4864 -0.1997  0.0681
    9CHTO  H100 3592   8.237   4.289   2.776  0.4932  1.8972 -1.1510
    9CHTO   C57 3593   8.209   4.125   2.564  0.4246  0.1496 -0.2526
    9CHTO  H114 3594   8.123   4.118   2.631 -0.8514  0.2723 -1.8528
    9CHTO   N10 3595   8.278   3.994   2.587  0.9629 -0.3709  0.0468
    9CHTO  H106 3596   8.375   3.994   2.540 -0.4132 -1.4012 -2.9165
    9CHTO  H107 3597   8.291   3.997   2.694  0.2769  0.0906  0.1236
    9CHTO   C58 3598   8.160   4.131   2.420 -0.4551 -0.2708 -0.4606
    9CHTO  H115 3599   8.247   4.112   2.352 -0.6868 -0.2678 -0.7615
    9CHTO   O37 3600   8.116   4.256   2.379 -0.3965 -0.2929  0.0923
    9CHTO   C59 3601   8.206   4.364   2.389 -0.0875 -0.3612  0.1830
    9CHTO  H116 3602   8.300   4.339   2.339 -0.0882  1.0917 -0.5758
    9CHTO   C70 3603   8.136   4.486   2.323  0.7996 -0.4549  0.6998
    9CHTO   O46 3604   8.227   4.592   2.301  0.4941  0.1602  0.2859
    9CHTO  H103 3605   8.200   4.645   2.228  1.1838  0.1354  0.0082
    9CHTO   O39 3606   8.013   4.045   2.378 -0.7837 -0.2456 -0.6458
    9CHTO   C60 3607   7.996   3.912   2.414 -0.0537 -0.4688 -0.0509
    9CHTO  H117 3608   8.098   3.876   2.400  1.1065  2.9536 -1.0581
    9CHTO   C62 3609   7.934   3.901   2.555  0.3915 -0.6551 -1.2077
    9CHTO  H119 3610   8.006   3.948   2.625 -1.0513 -2.4955  1.5793
    9CHTO   O43 3611   7.809   3.972   2.566  0.0858 -0.3968  0.0583
    9CHTO  H101 3612   7.755   3.926   2.504 -0.4736 -2.3734  1.9331
    9CHTO   C66 3613   7.914   3.749   2.598 -0.2112 -0.2272  0.3568
    9CHTO  H123 3614   8.012   3.700   2.597 -0.1428 -0.0970  0.6998
    9CHTO   N12 3615   7.859   3.734   2.733 -0.6716 -0.4945  0.6470
    9CHTO  H110 3616   7.930   3.678   2.792 -2.7302 -2.6805  1.1220
    9CHTO  H111 3617   7.757   3.698   2.737 -1.1591  0.7062 -0.4255
    9CHTO   C69 3618   7.837   3.671   2.491  0.4180 -0.0103  0.3424
    9CHTO  H126 3619   7.730   3.700   2.484  1.0826  2.2564 -0.8604
    9CHTO   O41 3620   7.897   3.701   2.340 -0.2790 -0.5361  0.8762
    9CHTO   C64 3621   7.912   3.842   2.313 -0.1205 -0.0664 -0.0194
    9CHTO  H121 3622   7.809   3.882   2.321  0.0482  0.9485 -2.6065
    9CHTO   C71 3623   7.956   3.871   2.172 -0.5634  0.0387 -0.0862
    9CHTO   O47 3624   8.069   3.788   2.136  0.6244  0.3811  0.2855
    9CHTO  H104 3625   8.098   3.808   2.048  0.7561 -1.4286 -0.1182
    9CHTO   O34 3626   7.863   3.509   2.519 -0.2169 -0.3102 -0.4061
    9CHTO   C49 3627   7.928   3.410   2.442  0.1329  0.0374  0.1785
    9CHTO   H91 3628   7.890   3.406   2.340  1.6079  0.8851 -0.4249
    9CHTO   C47 3629   7.920   3.274   2.509 -0.8498 -0.2067 -0.3568
    9CHTO   H89 3630   7.967   3.211   2.431 -0.0374 -0.4374  0.3216
    9CHTO   O33 3631   7.779   3.234   2.524  0.1786  0.0586 -0.5620
    9CHTO   H70 3632   7.733   3.234   2.442 -0.0179 -0.2164 -0.4517
    9CHTO   C45 3633   8.001   3.278   2.650  0.1313 -0.0651 -0.6125
    9CHTO   H87 3634   7.930   3.297   2.731 -2.1576 -1.6726 -2.1846
    9CHTO    N8 3635   8.056   3.143   2.661  0.1902  0.0528 -0.4632
    9CHTO   H75 3636   7.982   3.067   2.681  1.1783 -1.1202 -1.2271
    9CHTO   H76 3637   8.109   3.111   2.573  0.1216 -1.2853 -0.0288
    9CHTO   C43 3638   8.108   3.396   2.663 -0.3628  0.3724  0.3306
    9CHTO   H85 3639   8.051   3.484   2.696 -0.4862 -0.1141  1.4354
    9CHTO   O29 3640   8.163   3.414   2.532  0.3598 -0.6373  0.9469
    9CHTO   C50 3641   8.072   3.453   2.425  0.5776  0.4441 -0.5237
    9CHTO   H92 3642   8.081   3.561   2.440  1.7893  0.0264  2.0496
    9CHTO   C54 3643   8.130   3.413   2.284 -0.4729  0.1793  0.2991
    9CHTO   O36 3644   8.265   3.452   2.258 -0.1591 -0.6931  0.1414
    9CHTO   H72 3645   8.295   3.516   2.320  2.1191 -1.0968 -0.5139
    9CHTO   O27 3646   8.207   3.381   2.762 -0.0175 -0.6381 -0.4059
    9CHTO   C37 3647   8.237   3.449   2.884 -0.1288  1.0158  0.1887
    9CHTO   H79 3648   8.294   3.392   2.959 -1.9268 -0.7307  0.2802
    9CHTO   C38 3649   8.331   3.567   2.839 -0.6217 -0.3010 -0.7436
    9CHTO   H80 3650   8.283   3.614   2.752  1.6449  1.1626 -1.2421
    9CHTO   O31 3651   8.454   3.502   2.805  0.3629  0.4189  0.6441
    9CHTO   H68 3652   8.467   3.501   2.713 -0.0759 -2.2948  0.5631
    9CHTO   C39 3653   8.351   3.669   2.957  0.8842 -0.5352  0.5851
    9CHTO   H81 3654   8.418   3.632   3.034  1.2321 -1.0564  0.0379
    9CHTO    N7 3655   8.423   3.797   2.907  0.9234  0.0794  0.4865
    9CHTO   H73 3656   8.403   3.884   2.967 -0.8907 -1.0761  1.6077
    9CHTO   H74 3657   8.404   3.804   2.801 -0.4701 -0.7202  0.6651
    9CHTO   C40 3658   8.211   3.710   3.023 -0.3971 -0.5369 -0.8454
    9CHTO   H82 3659   8.152   3.756   2.944 -1.0045  2.1619  1.1040
    9CHTO   O26 3660   8.154   3.590   3.068 -0.2809 -0.2111 -0.5589
    9CHTO   C41 3661   8.114   3.506   2.960  0.0443  0.7730  0.1697
    9CHTO   H83 3662   8.045   3.559   2.892 -1.0582  0.1090  0.7627
    9CHTO   C52 3663   8.013   3.407   3.025  0.3177  0.1972 -0.1691
    9CHTO   O35 3664   7.996   3.278   2.965 -0.4963  0.0975 -0.0529
    9CHTO   H71 3665   7.905   3.259   2.962 -0.2764 -1.2628  0.9171
    9CHTO   O28 3666   8.220   3.812   3.125  0.2109  0.1732  0.5019
    9CHTO   C42 3667   8.100   3.872   3.174  0.3747  0.3433 -0.3745
    9CHTO   H84 3668   8.146   3.939   3.247  1.6012 -0.5739 -0.2950
    9CHTO   C44 3669   7.993   3.778   3.255 -0.4419  0.9574  0.8418
    9CHTO   H86 3670   7.968   3.691   3.195 -0.4766 -0.6585  3.1622
    9CHTO   O32 3671   8.057   3.714   3.365  0.0741  0.0110  0.4344
    9CHTO   H69 3672   7.991   3.668   3.413 -0.4825 -0.6024 -0.9100
    9CHTO   C48 3673   7.861   3.863   3.288 -0.0506 -0.0704  0.3152
    9CHTO   H90 3674   7.890   3.939   3.361  0.0524  1.8151 -1.6511
    9CHTO    N9 3675   7.766   3.764   3.345 -0.6693 -0.6355  0.1018
    9CHTO   H77 3676   7.713   3.695   3.281 -1.4168  0.6614 -0.6986
    9CHTO   H78 3677   7.811   3.711   3.428 -0.8705  0.1578  0.7235
    9CHTO   C51 3678   7.807   3.933   3.161 -0.2163  0.3707  0.9371
    9CHTO   H93 3679   7.778   3.856   3.089 -0.6734  1.0937  0.3358
    9CHTO   O30 3680   7.915   4.017   3.114  0.1099 -0.0606  0.0301
    9CHTO   C46 3681   8.034   3.961   3.071  0.6821  0.8684  0.0139
    9CHTO   H88 3682   8.007   3.901   2.984 -0.9973 -0.1528  1.2054
    9CHTO   C53 3683   8.126   4.083   3.036 -0.9233 -0.5593 -0.0914
    9CHTO   O72 3684   8.072   4.155   2.924 -0.4098 -0.3163 -0.1554
    9CHTO  H199 3685   8.082   4.105   2.845  0.0067 -0.5751  0.0620
    9CHTO   O22 3686   7.693   4.017   3.180  0.2644 -0.4000 -0.6835
    9CHTO   C31 3687   7.645   4.129   3.093 -0.1862 -0.0917 -0.1180
    9CHTO   H59 3688   7.534   4.135   3.098 -0.0647  0.5182  2.3447
    9CHTO   C29 3689   7.706   4.257   3.142  0.0072 -0.6913  0.1862
    9CHTO   H57 3690   7.813   4.232   3.137  0.7183  2.1426  0.2250
    9CHTO   O21 3691   7.667   4.279   3.274 -0.3565 -0.4354  0.0354
    9CHTO   H37 3692   7.694   4.205   3.326  0.8755 -0.1279 -0.1547
    9CHTO   C27 3693   7.684   4.386   3.052  0.9180  1.0340  0.4441
    9CHTO   H55 3694   7.575   4.397   3.041  0.6513 -1.0024  0.8528
    9CHTO    N5 3695   7.745   4.509   3.106 -0.1540  0.3201 -0.2224
    9CHTO   H43 3696   7.849   4.484   3.121  0.2020  1.7820 -0.2043
    9CHTO   H44 3697   7.740   4.592   3.037 -3.3037  0.6837  0.3899
    9CHTO   C25 3698   7.721   4.345   2.902 -0.0541 -0.4860 -0.5661
    9CHTO   H53 3699   7.825   4.316   2.881 -0.4330 -1.8081 -0.6596
    9CHTO   O17 3700   7.641   4.229   2.864 -0.4679 -0.1080 -0.5549
    9CHTO   C32 3701   7.677   4.105   2.933 -0.2923  0.3586  0.2346
    9CHTO   H60 3702   7.784   4.090   2.919 -0.0910  0.2813  1.7773
    9CHTO   C36 3703   7.606   3.977   2.869  0.1470  0.5038  0.2359
    9CHTO   O25 3704   7.466   3.980   2.895 -0.6708  0.3451 -0.7258
    9CHTO   H40 3705   7.415   3.997   2.818 -0.4567 -1.0935 -1.1833
    9CHTO   O15 3706   7.692   4.479   2.800 -0.2299  0.4601 -0.0652
    9CHTO   C19 3707   7.665   4.485   2.654 -0.1416  0.2385 -1.1027
    9CHTO   H47 3708   7.713   4.582   2.636  1.6108 -0.1585  1.1277
    9CHTO   C20 3709   7.748   4.385   2.567  0.1182  0.6426  0.7729
    9CHTO   H48 3710   7.735   4.282   2.604  1.8599 -0.7748 -2.3710
    9CHTO   O19 3711   7.888   4.410   2.594  0.5263 -0.1258  0.4777
    9CHTO   H35 3712   7.905   4.382   2.682 -1.0843  0.9963  1.1730
    9CHTO   C21 3713   7.714   4.377   2.415 -0.0851  0.0460 -0.5704
    9CHTO   H49 3714   7.761   4.463   2.369  3.4399 -1.7545 -0.5311
    9CHTO    N4 3715   7.777   4.259   2.346 -0.1009 -0.2656  0.4225
    9CHTO   H41 3716   7.762   4.169   2.404  2.1827 -0.3866  0.8499
    9CHTO   H42 3717   7.735   4.242   2.247 -0.1494  1.7420  0.0807
    9CHTO   C22 3718   7.559   4.390   2.397 -0.3766  0.3684 -0.6336
    9CHTO   H50 3719   7.515   4.304   2.449  2.3106 -0.2736  0.6536
    9CHTO   O14 3720   7.511   4.504   2.471 -0.5160 -0.2842  0.6029
    9CHTO   C23 3721   7.516   4.494   2.612 -0.3681 -0.4407 -0.1831
    9CHTO   H51 3722   7.462   4.407   2.652 -0.2005 -0.4935 -0.0727
    9CHTO   C34 3723   7.444   4.611   2.679  0.0625  0.1588  0.4627
    9CHTO   O23 3724   7.307   4.604   2.656  0.2748  0.0710  0.1035
    9CHTO   H38 3725   7.267   4.686   2.678 -2.5615 -1.1758 -0.2787
    9CHTO   O16 3726   7.518   4.408   2.259 -0.4489 -0.1631 -0.2548
    9CHTO   C24 3727   7.379   4.314   2.233  0.3530  0.0955  0.6815
    9CHTO   H52 3728   7.355   4.248   2.317  2.0299  0.3673  1.3831
    9CHTO   C26 3729   7.414   4.228   2.109  0.4215 -0.4536  0.1799
    9CHTO   H54 3730   7.451   4.296   2.029 -1.1407  1.5073  1.0957
    9CHTO   O20 3731   7.516   4.138   2.152  0.1211  0.3549 -0.0003
    9CHTO   H36 3732   7.479   4.056   2.178  1.3820 -0.3279 -0.3118
    9CHTO   C30 3733   7.286   4.153   2.060 -0.4510 -0.2749  0.1146
    9CHTO   H58 3734   7.257   4.072   2.129 -0.7654  0.0107  0.3165
    9CHTO    N6 3735   7.310   4.081   1.932 -0.4264 -0.1516 -0.6803
    9CHTO   H45 3736   7.395   4.015   1.938 -0.6180 -0.3524 -0.1038
    9CHTO   H46 3737   7.317   4.147   1.847  1.9500 -2.3593 -2.2614
    9CHTO   C33 3738   7.162   4.246   2.047  0.4678  0.0395 -0.0816
    9CHTO   H61 3739   7.178   4.310   1.959 -1.9089 -0.3266 -0.8086
    9CHTO   O18 3740   7.149   4.328   2.166  0.3614 -0.2262 -0.3661
    9CHTO   C28 3741   7.261   4.409   2.202 -0.2777  0.2205 -0.0196
    9CHTO   H56 3742   7.282   4.470   2.114 -1.7610  0.9932  0.1531
    9CHTO   C35 3743   7.222   4.500   2.317 -0.8540  0.1933  0.0918
    9CHTO   O24 3744   7.109   4.583   2.279  0.7060  0.6393 -0.2143
    9CHTO   H39 3745   7.036   4.541   2.238 -0.3757  1.2339  1.0730
    9CHTO    O9 3746   7.041   4.170   2.023  0.2063  0.2452  0.2359
    9CHTO   C13 3747   6.909   4.255   1.979  0.1717  0.2867  0.0195
    9CHTO   H26 3748   6.929   4.316   1.888 -3.0182  2.8080  0.8866
    9CHTO   C11 3749   6.865   4.344   2.096  0.5066 -0.4550  0.7779
    9CHTO   H24 3750   6.948   4.415   2.108  0.2921  0.0864 -0.8621
    9CHTO    O8 3751   6.853   4.275   2.222  0.2584  0.4030 -0.2437
    9CHTO    H3 3752   6.913   4.312   2.283 -0.8257 -0.6995  1.5281
    9CHTO    C9 3753   6.731   4.412   2.047  0.0777 -0.3926 -0.3235
    9CHTO   H22 3754   6.747   4.438   1.941  1.4660 -1.4758 -0.3921
    9CHTO    N2 3755   6.702   4.534   2.127 -0.2888 -0.4085  0.2248
    9CHTO   H10 3756   6.700   4.493   2.227  1.5393 -0.8030  0.1021
    9CHTO   H11 3757   6.781   4.608   2.122 -0.5116 -0.0938  1.1831
    9CHTO    C7 3758   6.624   4.312   2.045  0.1033  1.1512  0.1759
    9CHTO   H20 3759   6.538   4.363   1.996 -1.1461 -0.7874  0.2909
    9CHTO    O4 3760   6.658   4.204   1.956  0.0952 -0.5036 -0.1607
    9CHTO   C14 3761   6.791   4.161   1.941  0.0546  0.2490  0.3933
    9CHTO   H27 3762   6.800   4.144   1.832  3.5893 -1.0042  0.8133
    9CHTO   C18 3763   6.800   4.020   2.004 -0.7246 -0.0505 -0.1154
    9CHTO   O13 3764   6.740   4.022   2.135 -0.6769  0.3133 -0.5917
    9CHTO    H7 3765   6.743   3.939   2.178  1.6032  0.1421 -1.0128
    9CHTO    O2 3766   6.578   4.247   2.202 -0.2812 -0.0170  0.1611
    9CHTO    C1 3767   6.441   4.218   2.223 -0.1418 -1.2249 -0.4721
    9CHTO   H14 3768   6.438   4.147   2.308  0.4004  0.4652  1.0075
    9CHTO    C2 3769   6.358   4.163   2.105 -0.0509  0.2852  0.0451
    9CHTO   H15 3770   6.371   4.222   2.013  0.1136  0.3435  0.1064
    9CHTO    O6 3771   6.405   4.030   2.078 -0.0005  0.0249  0.2965
    9CHTO    H1 3772   6.378   3.986   2.000  1.0342 -0.6703  0.3229
    9CHTO    C3 3773   6.197   4.155   2.147 -0.6027  1.0954 -0.2054
    9CHTO   H16 3774   6.177   4.070   2.214 -2.8968  0.7800 -1.2659
    9CHTO    N1 3775   6.114   4.124   2.027  0.2759 -0.4212 -0.0160
    9CHTO    H8 3776   6.120   4.203   1.953 -2.0805  0.3239  0.5511
    9CHTO    H9 3777   6.012   4.111   2.059  0.8976 -2.0764  1.3643
    9CHTO    C4 3778   6.141   4.282   2.228 -0.4721  0.1467  0.9346
    9CHTO   H17 3779   6.122   4.363   2.158 -2.5882 -2.0065 -1.0811
    9CHTO    O1 3780   6.242   4.320   2.321 -0.2709  0.1328 -0.2161
    9CHTO    C5 3781   6.372   4.348   2.275  0.2938 -0.1558 -0.1113
    9CHTO   H18 3782   6.377   4.415   2.189  0.1545 -0.8367 -0.6495
    9CHTO   C16 3783   6.450   4.412   2.393  0.3748 -0.1517  0.0114
    9CHTO   O11 3784   6.418   4.547   2.419  0.0985  0.5446 -0.1574
    9CHTO    H5 3785   6.471   4.572   2.493  0.5490 -0.4350 -0.1325
    9CHTO    O3 3786   6.026   4.269   2.312  0.4805  0.2854 -0.5669
    9CHTO    C6 3787   5.916   4.352   2.289  0.4863 -0.0137  0.5614
    9CHTO   H19 3788   5.925   4.421   2.205 -1.6584 -0.1644  0.1670
    9CHTO    C8 3789   5.791   4.269   2.269  0.1514  0.2877  0.2218
    9CHTO   H21 3790   5.795   4.188   2.342  1.3896  0.4392  0.3303
    9CHTO    O7 3791   5.792   4.208   2.140  0.3674 -0.1579 -0.3030
    9CHTO    H2 3792   5.785   4.282   2.083  0.3190 -0.5463 -0.7998
    9CHTO   C12 3793   5.654   4.355   2.294 -0.3700  0.2121  0.8239
    9CHTO   H25 3794   5.640   4.420   2.205 -1.1605 -0.1004  0.7148
    9CHTO    N3 3795   5.539   4.254   2.297  0.1943  0.0819  0.1758
    9CHTO   H12 3796   5.489   4.264   2.203  0.5536 -4.3459 -0.6333
    9CHTO   H13 3797   5.467   4.274   2.375  1.8954 -1.1787  2.1293
    9CHTO   C15 3798   5.663   4.442   2.422 -0.7486 -0.2988 -0.2373
    9CHTO   H28 3799   5.659   4.386   2.516 -0.0717  1.4168  0.8393
    9CHTO   O10 3800   5.551   4.543   2.424  0.0953 -0.6983  0.3658
    9CHTO    H4 3801   5.479   4.497   2.463  1.2938 -1.5657  1.6115
    9CHTO    O5 3802   5.780   4.526   2.401 -0.1521 -0.2862  0.1553
    9CHTO   C10 3803   5.899   4.444   2.413  0.6132 -0.5353 -0.7747
    9CHTO   H23 3804   5.886   4.379   2.499  0.7660  0.7809  0.2561
    9CHTO   C17 3805   6.018   4.533   2.429  0.0580  0.0087  0.1215
    9CHTO   O12 3806   6.045   4.574   2.566  0.2470  0.4385 -0.5141
    9CHTO    H6 3807   6.000   4.655   2.582  0.5622  0.0257  2.8667
   10CHTO  H203 3808   5.200   6.911  -0.445 -1.5775  0.6598  0.4090
   10CHTO   O82 3809   5.192   6.889  -0.536 -0.0328  0.5349  0.2842
   10CHTO  C123 3810   5.051   6.884  -0.569  0.1474  0.4758 -0.4190
   10CHTO  H227 3811   5.049   6.885  -0.679  0.6951  2.1498 -0.4265
   10CHTO   O77 3812   5.013   6.757  -0.511 -0.3769 -0.1967 -0.0738
   10CHTO  C118 3813   4.870   6.728  -0.522  0.7043  0.0151 -0.4444
   10CHTO  H222 3814   4.841   6.714  -0.627 -1.3258  0.2416  0.0644
   10CHTO  C125 3815   4.864   6.580  -0.454 -0.0884  0.2188 -0.4045
   10CHTO   O84 3816   4.735   6.521  -0.469 -0.1193  0.0234  0.0770
   10CHTO  H205 3817   4.728   6.441  -0.420  1.8263 -0.2526 -0.0522
   10CHTO  C114 3818   4.782   6.829  -0.451  0.1332 -0.8126  0.1627
   10CHTO  H218 3819   4.807   6.836  -0.345 -1.3729 -2.1919  0.6201
   10CHTO  C116 3820   4.809   6.974  -0.505 -0.5335  0.1044  0.5856
   10CHTO  H220 3821   4.777   6.998  -0.608  2.6118 -0.0188 -0.4693
   10CHTO   O79 3822   4.731   7.059  -0.425 -0.3751  0.1194 -0.2140
   10CHTO  H201 3823   4.771   7.143  -0.438 -1.4371  0.5560 -0.6753
   10CHTO  C120 3824   4.964   6.991  -0.489  0.5826 -0.5904 -0.2521
   10CHTO  H224 3825   4.988   6.986  -0.381  0.0871  0.8944 -0.0690
   10CHTO   N21 3826   5.007   7.126  -0.540 -0.0476 -0.1014 -0.1717
   10CHTO  H211 3827   4.993   7.198  -0.460 -1.3755 -0.2959 -0.2337
   10CHTO  H212 3828   5.108   7.130  -0.580 -0.5125  0.7564 -1.2946
   10CHTO   O75 3829   4.641   6.792  -0.461  0.0174 -0.5870 -0.2433
   10CHTO  C112 3830   4.560   6.797  -0.320 -0.3431 -0.0696  0.1059
   10CHTO  H216 3831   4.599   6.877  -0.256 -0.2392  2.0401 -2.5254
   10CHTO   O73 3832   4.577   6.667  -0.258  0.2052  0.3023  0.2219
   10CHTO  C113 3833   4.525   6.645  -0.127 -0.0951  0.1952 -0.0044
   10CHTO  H217 3834   4.578   6.706  -0.051 -1.0502  1.0310  0.0034
   10CHTO  C124 3835   4.548   6.505  -0.080  0.2089  0.2450  0.7168
   10CHTO   O83 3836   4.686   6.492  -0.052  0.2182  0.5133 -0.7047
   10CHTO  H204 3837   4.731   6.473  -0.132  2.0296  0.5084  0.2756
   10CHTO  C109 3838   4.378   6.680  -0.116 -0.0699 -0.1593  0.5009
   10CHTO  H213 3839   4.326   6.596  -0.165  0.5129  0.4989 -1.2821
   10CHTO  C110 3840   4.341   6.811  -0.192  0.8521 -1.1864 -0.0218
   10CHTO  H214 3841   4.378   6.892  -0.129 -1.0955 -0.3615  0.0891
   10CHTO   O78 3842   4.197   6.836  -0.193 -0.7335 -0.3435  0.2507
   10CHTO  H200 3843   4.155   6.763  -0.235 -0.4318 -0.5030  0.2189
   10CHTO  C111 3844   4.404   6.827  -0.336  0.4597 -0.5661 -0.9844
   10CHTO  H215 3845   4.355   6.753  -0.401  2.4899 -4.1013  1.3725
   10CHTO   N19 3846   4.386   6.966  -0.392 -0.2544  0.1819  0.4404
   10CHTO  H207 3847   4.286   6.980  -0.429  0.4665 -0.1232 -1.7093
   10CHTO  H208 3848   4.452   6.982  -0.476  0.4259 -0.0798  0.9149
   10CHTO   O74 3849   4.343   6.682   0.025 -0.1447  0.2300 -0.6656
   10CHTO  C115 3850   4.205   6.663   0.054  0.8736 -0.1835  0.1488
   10CHTO  H219 3851   4.144   6.691  -0.031 -0.5292  0.8036  1.4543
   10CHTO   O76 3852   4.170   6.500   0.065  0.3767  0.0798 -0.9201
   10CHTO  C122 3853   4.172   6.453   0.196 -0.3918 -0.6281 -0.2586
   10CHTO  H226 3854   4.279   6.453   0.220 -0.2412 -0.9240 -0.9308
   10CHTO  C126 3855   4.127   6.302   0.193 -0.1087  0.8899  0.0202
   10CHTO   O85 3856   4.141   6.225   0.313  0.0356 -0.3216 -0.6088
   10CHTO  H206 3857   4.092   6.262   0.384 -0.1223  1.0162 -1.4099
   10CHTO  C121 3858   4.083   6.533   0.298  0.6726 -0.8798  0.3837
   10CHTO  H225 3859   3.989   6.474   0.308  0.6443 -1.5464 -3.1812
   10CHTO   O81 3860   4.149   6.554   0.421  0.4861  0.6120  0.6899
   10CHTO  H202 3861   4.092   6.519   0.487 -0.2211  1.3395  0.4843
   10CHTO  C119 3862   4.037   6.671   0.245 -0.7988  0.2415 -0.2043
   10CHTO  H223 3863   3.966   6.649   0.165 -2.1648  1.3241  0.6829
   10CHTO  C117 3864   4.163   6.739   0.185 -0.1380  0.1850  0.3054
   10CHTO  H221 3865   4.251   6.742   0.250  0.2121  1.0713 -0.2026
   10CHTO   N20 3866   4.134   6.880   0.156  0.5727 -0.3061 -0.8716
   10CHTO  H209 3867   4.052   6.902   0.090 -0.7809 -2.0520  0.2069
   10CHTO  H210 3868   4.111   6.927   0.250 -2.5376  0.5435 -1.9977
   10CHTO   O80 3869   3.953   6.762   0.350  0.4857  0.2085 -0.1637
   10CHTO  C103 3870   3.799   6.744   0.375 -0.3510  0.0457  1.5504
   10CHTO  H190 3871   3.768   6.802   0.462 -0.9422  3.0550 -0.5546
   10CHTO  C101 3872   3.713   6.791   0.260 -0.6351  0.5754  0.1346
   10CHTO  H188 3873   3.740   6.734   0.171  0.1779  1.0950  0.0423
   10CHTO   O68 3874   3.755   6.934   0.232 -0.3841 -0.7567 -0.4571
   10CHTO  H168 3875   3.835   6.934   0.182 -0.7624  1.8445 -1.1083
   10CHTO   C99 3876   3.558   6.768   0.283 -0.6132 -0.0529  0.0962
   10CHTO  H186 3877   3.522   6.825   0.372 -1.0991  3.3946 -2.2123
   10CHTO   N17 3878   3.472   6.816   0.164  0.0755  0.2418  0.1221
   10CHTO  H174 3879   3.373   6.782   0.188  0.5224 -1.7782 -0.7628
   10CHTO  H175 3880   3.489   6.922   0.156  2.1090  0.0759  1.8938
   10CHTO   C97 3881   3.538   6.618   0.310 -0.3429 -0.0955 -0.1667
   10CHTO  H184 3882   3.538   6.548   0.226 -1.6603  0.0569 -0.3077
   10CHTO   O64 3883   3.622   6.572   0.416 -0.1991  0.5929 -0.3713
   10CHTO  C104 3884   3.762   6.597   0.395 -0.5091  0.2508 -0.0200
   10CHTO  H191 3885   3.807   6.534   0.317 -2.7670 -0.4695 -0.7634
   10CHTO  C108 3886   3.829   6.550   0.530  0.8640  0.3591 -0.3161
   10CHTO   O71 3887   3.810   6.415   0.571  0.1680  0.4855  0.0682
   10CHTO  H171 3888   3.735   6.405   0.626 -1.0638  0.0649 -1.6643
   10CHTO   O62 3889   3.408   6.592   0.371 -0.2692  0.2300 -0.4563
   10CHTO   C91 3890   3.350   6.464   0.333 -1.1025  0.0544  0.3200
   10CHTO  H178 3891   3.367   6.443   0.228  2.8711  0.8948  0.7053
   10CHTO   C92 3892   3.198   6.470   0.339 -0.1039  0.0079 -0.6141
   10CHTO  H179 3893   3.165   6.554   0.277  0.1911  0.4748 -0.1361
   10CHTO   O66 3894   3.146   6.349   0.277 -0.1410  0.0378  0.1488
   10CHTO  H166 3895   3.055   6.360   0.261 -0.1161  0.4929  0.3342
   10CHTO   C93 3896   3.140   6.476   0.487 -0.1849 -0.1686  0.3373
   10CHTO  H180 3897   3.037   6.439   0.479 -0.6993  1.3593 -0.1243
   10CHTO   N16 3898   3.130   6.612   0.551 -0.4084  0.7708 -0.1686
   10CHTO  H172 3899   3.194   6.638   0.633  0.7926  0.0635 -0.8671
   10CHTO  H173 3900   3.132   6.687   0.474  0.5824  1.1229  0.1985
   10CHTO   C94 3901   3.227   6.383   0.583  0.1953 -0.1160  0.2181
   10CHTO  H181 3902   3.299   6.444   0.637  0.6429  0.8806 -1.4478
   10CHTO   O61 3903   3.302   6.289   0.506  0.3601  0.6656  0.3464
   10CHTO   C95 3904   3.405   6.344   0.416  0.1800  0.0027  0.5729
   10CHTO  H182 3905   3.489   6.380   0.474  0.1264  0.3989  0.4112
   10CHTO  C106 3906   3.474   6.234   0.329  0.1166  0.4331  0.4061
   10CHTO   O69 3907   3.590   6.295   0.265 -0.3545 -0.5154 -0.0936
   10CHTO  H169 3908   3.664   6.238   0.270  0.9993  1.0391 -1.9433
   10CHTO   O63 3909   3.126   6.319   0.688  0.0030 -0.1983 -0.3974
   10CHTO   C96 3910   3.216   6.244   0.810 -0.2669  0.8164 -0.1876
   10CHTO  H183 3911   3.317   6.282   0.794  0.2026  0.5259  1.9701
   10CHTO   C98 3912   3.210   6.093   0.809  0.4207  0.0418  0.2483
   10CHTO  H185 3913   3.105   6.060   0.808  0.0862  0.9491 -3.0312
   10CHTO   O67 3914   3.258   6.050   0.681 -0.0628 -0.7817 -0.3714
   10CHTO  H167 3915   3.237   5.960   0.664 -0.0418 -0.3691 -2.7493
   10CHTO  C102 3916   3.284   6.021   0.928 -0.1990 -0.0013  0.2507
   10CHTO  H189 3917   3.391   6.029   0.904 -0.2934  0.4098 -0.0359
   10CHTO   N18 3918   3.256   5.877   0.955  0.0714 -0.3139  0.6586
   10CHTO  H176 3919   3.149   5.860   0.956 -0.2509  1.5756 -0.8427
   10CHTO  H177 3920   3.311   5.836   1.039  2.6272  0.3843 -0.6311
   10CHTO  C105 3921   3.271   6.105   1.059  0.2610  0.1089  0.4686
   10CHTO  H192 3922   3.182   6.071   1.113 -1.3120  0.5682 -1.7648
   10CHTO   O65 3923   3.252   6.248   1.049  0.2244  0.9172 -0.1169
   10CHTO  C100 3924   3.170   6.301   0.953  0.2283  0.1926  0.4718
   10CHTO  H187 3925   3.072   6.268   0.990 -0.7404  0.8864 -1.3820
   10CHTO  C107 3926   3.193   6.458   0.972 -0.2639 -0.6578 -0.2408
   10CHTO   O70 3927   3.083   6.524   0.916 -0.0600 -0.2167 -0.4830
   10CHTO  H170 3928   3.054   6.486   0.835 -1.2966 -1.0913  0.3606
   10CHTO   O57 3929   3.404   6.084   1.141 -0.4378  0.1086  0.5726
   10CHTO   C85 3930   3.388   6.088   1.282 -0.2168  0.1317  0.3296
   10CHTO  H157 3931   3.285   6.055   1.308 -0.9927  3.0224  1.0935
   10CHTO   C83 3932   3.395   6.235   1.337  0.0749  0.1183  0.6635
   10CHTO  H155 3933   3.317   6.292   1.287 -0.4070 -2.0358 -1.1455
   10CHTO   O56 3934   3.525   6.293   1.301  0.5020 -0.0555 -0.2241
   10CHTO  H135 3935   3.534   6.308   1.209 -1.4596 -0.5739 -0.5206
   10CHTO   C81 3936   3.355   6.226   1.487 -1.0300  0.9056 -0.0148
   10CHTO  H153 3937   3.258   6.178   1.497  0.9920 -3.4129  0.3839
   10CHTO   N14 3938   3.339   6.357   1.552  0.3967 -0.7875 -0.3663
   10CHTO  H141 3939   3.247   6.356   1.608  1.9112  0.1741  2.2411
   10CHTO  H142 3940   3.334   6.437   1.482  2.2763 -1.6843 -1.5340
   10CHTO   C79 3941   3.454   6.135   1.569  0.6797 -0.1445 -0.1793
   10CHTO  H151 3942   3.408   6.115   1.666 -2.1080 -2.1068 -1.8448
   10CHTO   O52 3943   3.468   6.000   1.501 -0.7817  0.5577  0.6559
   10CHTO   C86 3944   3.496   6.006   1.358 -0.1039  0.8551  0.2101
   10CHTO  H158 3945   3.593   6.061   1.352  1.0930 -1.0889  1.3077
   10CHTO   C90 3946   3.520   5.858   1.297  0.4529  0.6501  0.1008
   10CHTO   O60 3947   3.560   5.864   1.162  0.3969 -0.4509  0.0031
   10CHTO  H138 3948   3.637   5.918   1.159  0.8997 -1.1619 -0.0430
   10CHTO   O50 3949   3.580   6.198   1.581  0.2838  0.1236 -0.0555
   10CHTO   C73 3950   3.655   6.168   1.700  0.2401 -0.7126 -0.3056
   10CHTO  H145 3951   3.656   6.061   1.728  2.0811 -0.5932  0.1734
   10CHTO   C74 3952   3.599   6.245   1.821 -0.6565 -0.2717 -0.2190
   10CHTO  H146 3953   3.492   6.226   1.836 -0.5604  0.3005  1.3321
   10CHTO   O54 3954   3.642   6.185   1.941 -0.3722  0.3956 -0.7552
   10CHTO  H133 3955   3.605   6.236   2.010 -1.0702 -0.9334 -0.1308
   10CHTO   C75 3956   3.635   6.402   1.814  0.1208 -0.1185  0.0179
   10CHTO  H147 3957   3.575   6.446   1.733 -0.1807  1.4448  1.0650
   10CHTO   N13 3958   3.591   6.487   1.927 -0.5831 -0.2071 -0.4279
   10CHTO  H139 3959   3.636   6.585   1.923 -2.6416  0.8175  0.6756
   10CHTO  H140 3960   3.617   6.436   2.019 -0.1478 -1.6408 -1.3220
   10CHTO   C76 3961   3.785   6.433   1.772 -0.2172  0.1536 -0.6817
   10CHTO  H148 3962   3.852   6.414   1.856 -2.2791 -0.4052  0.8804
   10CHTO   O49 3963   3.826   6.347   1.654 -0.0168  0.0782  0.6219
   10CHTO   C77 3964   3.806   6.208   1.679  0.3169 -0.0559  0.3038
   10CHTO  H149 3965   3.863   6.167   1.762  0.6863  0.8856  0.5210
   10CHTO   C88 3966   3.858   6.128   1.558 -0.1866 -0.2008  0.0965
   10CHTO   O58 3967   3.843   5.977   1.589 -0.6152 -0.0488 -0.2588
   10CHTO  H136 3968   3.829   5.933   1.508 -0.7608 -0.5828  0.0556
   10CHTO   O51 3969   3.803   6.598   1.729 -0.8694 -0.3102 -0.1759
   10CHTO   C78 3970   3.930   6.670   1.784 -0.0451 -0.0833 -0.2116
   10CHTO  H150 3971   4.027   6.624   1.758  0.6304  1.1727  0.0612
   10CHTO   C80 3972   3.920   6.692   1.939 -0.4655  0.3540  0.1383
   10CHTO  H152 3973   3.819   6.734   1.960  0.5291  2.3833  1.0104
   10CHTO   O55 3974   3.928   6.564   2.002 -0.0733  0.0083  0.2067
   10CHTO  H134 3975   3.891   6.564   2.088 -2.5209  1.2093 -0.7912
   10CHTO   C84 3976   4.037   6.789   1.988  0.4264 -0.4964 -0.2224
   10CHTO  H156 3977   4.131   6.746   1.955  1.6487  2.6740 -1.0318
   10CHTO   N15 3978   4.045   6.799   2.133  0.6006  0.3659 -0.2339
   10CHTO  H143 3979   4.059   6.700   2.171 -2.1205  0.1849  0.3448
   10CHTO  H144 3980   3.951   6.831   2.173  1.4728 -0.7964  2.9205
   10CHTO   C87 3981   4.021   6.923   1.915  0.6693  0.2301  1.1637
   10CHTO  H159 3982   3.937   6.985   1.949 -0.2545  0.0267 -0.6840
   10CHTO   O53 3983   4.009   6.903   1.755 -0.3308 -0.3590  0.3086
   10CHTO   C82 3984   3.924   6.798   1.709  0.4086 -0.3740  0.0868
   10CHTO  H154 3985   3.821   6.833   1.715  0.4982 -0.4194  2.2012
   10CHTO   C89 3986   3.961   6.784   1.562 -0.0558  0.1311 -0.2671
   10CHTO   O59 3987   3.905   6.881   1.473 -0.1783 -0.2889  0.2221
   10CHTO  H137 3988   3.823   6.921   1.494 -0.5026 -1.3175  0.9360
   10CHTO   O45 3989   4.156   7.011   1.944 -0.3475 -0.2327  0.2487
   10CHTO   C67 3990   4.146   7.154   1.913  0.0479 -0.2164  0.2811
   10CHTO  H124 3991   4.080   7.164   1.828 -0.2470 -3.2101  0.1047
   10CHTO   C65 3992   4.100   7.244   2.030 -0.6620 -0.0396  0.6784
   10CHTO  H122 3993   4.121   7.184   2.118 -1.1009 -0.6494  0.3665
   10CHTO   O44 3994   3.956   7.270   2.014  0.4040  0.0929 -0.7183
   10CHTO  H102 3995   3.913   7.190   1.990  0.0020  0.5460 -1.5316
   10CHTO   C63 3996   4.191   7.372   2.053  0.1481 -0.3367 -0.6818
   10CHTO  H120 3997   4.280   7.336   2.104 -0.3604  0.5504  0.8634
   10CHTO   N11 3998   4.144   7.461   2.159  0.4023  0.4307 -0.0447
   10CHTO  H108 3999   4.232   7.505   2.202  1.5718 -2.8019  0.9575
   10CHTO  H109 4000   4.095   7.398   2.230  0.9013  1.7066  1.4628
   10CHTO   C61 4001   4.221   7.430   1.910  0.5647 -0.8441  0.3049
   10CHTO  H118 4002   4.299   7.506   1.925 -0.3293 -0.1049  1.3734
   10CHTO   O40 4003   4.272   7.336   1.813 -0.2698 -0.0705  0.6428
   10CHTO   C68 4004   4.287   7.204   1.859 -0.7845  0.5801  0.6636
   10CHTO  H125 4005   4.372   7.198   1.930 -0.5992  0.9510  0.4717
   10CHTO   C72 4006   4.334   7.119   1.734  0.1212 -0.3508  0.0592
   10CHTO   O48 4007   4.471   7.141   1.709  0.6886 -0.1926 -0.0113
   10CHTO  H105 4008   4.493   7.083   1.639 -1.5971  1.0208 -1.8148
   10CHTO   O38 4009   4.101   7.488   1.845  0.1717 -0.8210 -0.3596
   10CHTO   C55 4010   4.101   7.603   1.755 -0.4708 -0.5499  0.2524
   10CHTO  H112 4011   4.007   7.611   1.698  1.5789  0.1451 -3.1855
   10CHTO   C56 4012   4.223   7.605   1.650 -0.0911  0.4756 -0.4376
   10CHTO  H113 4013   4.318   7.575   1.696 -0.4400 -1.3634 -0.8569
   10CHTO   O42 4014   4.199   7.503   1.557 -0.0126  0.6636 -0.8415
   10CHTO  H100 4015   4.166   7.427   1.602  0.0667  1.2201  0.1848
   10CHTO   C57 4016   4.240   7.749   1.586  0.7568 -0.5063 -0.5657
   10CHTO  H114 4017   4.150   7.747   1.524 -0.8246 -2.6299  1.7000
   10CHTO   N10 4018   4.349   7.750   1.491 -0.1774 -0.1978 -0.2126
   10CHTO  H106 4019   4.361   7.656   1.438 -0.4555 -0.7579  0.7034
   10CHTO  H107 4020   4.439   7.768   1.547  0.4252 -0.7782 -0.9856
   10CHTO   C58 4021   4.230   7.857   1.690 -0.1181  1.1110  0.4390
   10CHTO  H115 4022   4.309   7.842   1.766 -1.0059 -1.4774  0.9262
   10CHTO   O37 4023   4.108   7.847   1.755  0.5492  0.1601 -0.1004
   10CHTO   C59 4024   4.102   7.729   1.842  0.5443 -0.4613 -0.1297
   10CHTO  H116 4025   4.181   7.715   1.915 -1.0612 -2.0962  1.3551
   10CHTO   C70 4026   3.971   7.728   1.923 -0.6604 -0.3116 -0.1087
   10CHTO   O46 4027   3.984   7.810   2.046  0.2690 -0.6838  0.7111
   10CHTO  H103 4028   3.899   7.830   2.080 -1.0918 -0.3382 -2.7169
   10CHTO   O39 4029   4.241   8.001   1.617  0.0962  0.1799  0.4586
   10CHTO   C60 4030   4.259   8.109   1.711  0.3371  0.7192 -0.8642
   10CHTO  H117 4031   4.208   8.080   1.803  0.3611 -0.4104 -1.1995
   10CHTO   C62 4032   4.412   8.136   1.724  0.6622  0.5197 -0.5994
   10CHTO  H119 4033   4.466   8.054   1.776  0.6288  2.3858  2.4908
   10CHTO   O43 4034   4.471   8.148   1.597 -0.0419  0.0524  0.4478
   10CHTO  H101 4035   4.563   8.131   1.604 -0.1449 -0.6364  0.1945
   10CHTO   C66 4036   4.440   8.266   1.816  0.8131  0.4385 -0.0456
   10CHTO  H123 4037   4.400   8.240   1.914  1.0760  0.7121  0.1340
   10CHTO   N12 4038   4.581   8.301   1.852 -0.3820 -1.0161 -0.0163
   10CHTO  H110 4039   4.643   8.225   1.898  2.2579  1.8281  1.3058
   10CHTO  H111 4040   4.574   8.396   1.903  1.6328  0.2913 -2.0787
   10CHTO   C69 4041   4.359   8.388   1.757  0.8550 -0.0406 -0.0576
   10CHTO  H126 4042   4.402   8.404   1.656 -0.1102  0.2455 -0.4256
   10CHTO   O41 4043   4.221   8.345   1.752  0.2548  0.1406 -0.0415
   10CHTO   C64 4044   4.191   8.243   1.663 -0.5135 -0.3987 -0.1776
   10CHTO  H121 4045   4.239   8.273   1.568  0.1598 -1.4302 -0.1612
   10CHTO   C71 4046   4.029   8.235   1.656  0.7635 -0.6950 -0.6669
   10CHTO   O47 4047   3.983   8.316   1.548 -0.4006  0.3422 -0.3662
   10CHTO  H104 4048   4.000   8.261   1.473  1.5840  1.4264 -0.7298
   10CHTO   O34 4049   4.364   8.517   1.849  0.3067 -0.0502  0.2583
   10CHTO   C49 4050   4.461   8.636   1.863  0.1566  0.7709 -0.1553
   10CHTO   H91 4051   4.563   8.598   1.871  0.2622  0.9471 -0.6348
   10CHTO   C47 4052   4.414   8.710   1.990  0.0580 -0.2803 -0.4395
   10CHTO   H89 4053   4.495   8.786   1.994 -0.2863  0.2159 -2.3193
   10CHTO   O33 4054   4.420   8.632   2.103 -0.8141  0.2768  0.1339
   10CHTO   H70 4055   4.416   8.683   2.181 -1.4752  2.1358 -1.0811
   10CHTO   C45 4056   4.273   8.781   1.971 -0.0992 -0.6026  0.1780
   10CHTO   H87 4057   4.198   8.704   1.948  1.3738 -1.5408 -1.7053
   10CHTO    N8 4058   4.228   8.862   2.085 -0.3221 -0.3552  0.0136
   10CHTO   H75 4059   4.240   8.803   2.174 -0.5385 -0.1477  0.1802
   10CHTO   H76 4060   4.121   8.877   2.080 -0.4781 -0.3165  2.9398
   10CHTO   C43 4061   4.282   8.877   1.844  0.5445  0.7435 -0.2063
   10CHTO   H85 4062   4.178   8.905   1.826 -0.5044 -3.0697 -0.6297
   10CHTO   O29 4063   4.325   8.795   1.743  0.0786 -0.0932 -0.0011
   10CHTO   C50 4064   4.452   8.725   1.743  0.0690  0.7820 -0.6177
   10CHTO   H92 4065   4.458   8.658   1.656 -1.1250 -0.5582  0.2991
   10CHTO   C54 4066   4.569   8.823   1.719 -0.1373  0.3785 -0.1250
   10CHTO   O36 4067   4.554   8.887   1.595 -0.0485 -0.3014 -0.4326
   10CHTO   H72 4068   4.627   8.945   1.582  0.4236 -0.8978 -0.4619
   10CHTO   O27 4069   4.355   9.001   1.857 -0.0673  0.0756  0.7500
   10CHTO   C37 4070   4.365   9.127   1.789 -0.1568  1.2184 -0.4797
   10CHTO   H79 4071   4.468   9.135   1.750  1.7028 -2.1613  3.3151
   10CHTO   C38 4072   4.273   9.144   1.669 -0.1046  0.5070  0.1393
   10CHTO   H80 4073   4.171   9.127   1.705  0.6033  1.3658  2.6796
   10CHTO   O31 4074   4.321   9.059   1.561  0.5939 -0.9281 -0.3215
   10CHTO   H68 4075   4.279   8.975   1.551  0.8883 -1.3903  1.9863
   10CHTO   C39 4076   4.276   9.295   1.621  0.4984 -0.0667  0.3191
   10CHTO   H81 4077   4.380   9.317   1.596 -0.0072  0.8931 -0.9623
   10CHTO    N7 4078   4.187   9.322   1.498  0.3102  0.1746 -0.1375
   10CHTO   H73 4079   4.236   9.322   1.402 -0.6311  0.8122 -0.6350
   10CHTO   H74 4080   4.110   9.246   1.495  1.1272 -0.6960  0.5814
   10CHTO   C40 4081   4.257   9.397   1.736  0.0650 -0.2604  0.2677
   10CHTO   H82 4082   4.156   9.390   1.777 -0.0245  0.5416  0.1810
   10CHTO   O26 4083   4.359   9.369   1.839 -0.3672 -0.0195 -0.1376
   10CHTO   C41 4084   4.343   9.237   1.892 -0.5764  0.3159 -0.0276
   10CHTO   H83 4085   4.240   9.236   1.932 -0.1261  0.9456  1.1702
   10CHTO   C52 4086   4.449   9.215   2.005 -0.6490 -0.1763  0.0586
   10CHTO   O35 4087   4.429   9.271   2.111 -0.6977 -0.3324  0.0764
   10CHTO   H71 4088   4.351   9.242   2.155 -1.0101 -0.0324 -0.2801
   10CHTO   O28 4089   4.303   9.528   1.693  0.1984 -0.1401 -0.3019
   10CHTO   C42 4090   4.256   9.652   1.743  0.2168 -0.4831 -0.2888
   10CHTO   H84 4091   4.195   9.619   1.828  0.1485  1.1208  0.2956
   10CHTO   C44 4092   4.152   9.724   1.653  0.1597  1.3954  0.2473
   10CHTO   H86 4093   4.201   9.730   1.556 -1.0432  2.4729 -0.3221
   10CHTO   O32 4094   4.034   9.644   1.640  0.2927  0.0726  0.1464
   10CHTO   H69 4095   3.957   9.697   1.635  0.1319  0.1075  2.5435
   10CHTO   C48 4096   4.126   9.881   1.690  0.7925  0.5659  1.1752
   10CHTO   H90 4097   4.055   9.884   1.773  0.0358 -1.5933  0.6320
   10CHTO    N9 4098   4.056   9.948   1.575 -0.1278  0.1111 -0.8359
   10CHTO   H77 4099   4.030  10.049   1.603 -1.5293 -0.5386  0.2902
   10CHTO   H78 4100   3.971   9.894   1.537  1.7061 -2.9363 -0.7893
   10CHTO   C51 4101   4.262   9.944   1.730  1.2850  0.1218  1.2737
   10CHTO   H93 4102   4.325   9.943   1.641 -2.3222  0.5071 -1.3843
   10CHTO   O30 4103   4.314   9.873   1.841 -0.0123 -0.1902  0.5163
   10CHTO   C46 4104   4.363   9.751   1.802 -0.3370  0.7705 -0.1339
   10CHTO   H88 4105   4.436   9.766   1.723  3.2322  1.5285  3.1953
   10CHTO   C53 4106   4.449   9.696   1.922  0.5109  0.2971  0.5825
   10CHTO   O72 4107   4.561   9.774   1.960  0.8170  0.4204  0.5613
   10CHTO  H199 4108   4.611   9.798   1.884  1.2239  2.9524  1.5898
   10CHTO   O22 4109   4.241  10.076   1.776  0.3385  0.2053 -0.0433
   10CHTO   C31 4110   4.348  10.181   1.768 -0.0741  0.4431 -0.5320
   10CHTO   H59 4111   4.321  10.249   1.852 -0.1615 -0.2094 -0.0183
   10CHTO   C29 4112   4.494  10.146   1.798  0.4505 -0.1475 -0.3846
   10CHTO   H57 4113   4.543  10.089   1.717  0.2868  2.2414 -2.2330
   10CHTO   O21 4114   4.497  10.064   1.919 -0.2441  0.2692 -0.0992
   10CHTO   H37 4115   4.535   9.981   1.899 -1.2701  0.1827 -1.7016
   10CHTO   C27 4116   4.582  10.275   1.822 -0.1309 -0.8846  0.2327
   10CHTO   H55 4117   4.528  10.336   1.896  2.3877 -1.9351  3.0712
   10CHTO    N5 4118   4.720  10.256   1.864 -0.2938 -0.1597 -0.5100
   10CHTO   H43 4119   4.737  10.311   1.956 -1.4614  0.3795 -0.6019
   10CHTO   H44 4120   4.746  10.152   1.874  1.7002  0.3653 -0.0608
   10CHTO   C25 4121   4.577  10.345   1.684 -0.1551 -0.1802  0.0267
   10CHTO   H53 4122   4.622  10.275   1.611  0.3542 -1.4627  1.5448
   10CHTO   O17 4123   4.434  10.376   1.640 -0.2817  0.0785  0.0174
   10CHTO   C32 4124   4.345  10.262   1.636  0.6083  0.2838 -0.2048
   10CHTO   H60 4125   4.387  10.197   1.559  2.2735  1.0112  0.0724
   10CHTO   C36 4126   4.203  10.311   1.611  0.2030 -0.5595 -0.2221
   10CHTO   O25 4127   4.137  10.385   1.718 -0.4709 -0.2473  0.3803
   10CHTO   H40 4128   4.187  10.462   1.738  0.6365 -1.2195  1.3949
   10CHTO   O15 4129   4.650  10.479   1.683  0.9690  0.0043  0.7445
   10CHTO   C19 4130   4.668  10.578   1.581  0.5101 -1.0814  0.3570
   10CHTO   H47 4131   4.585  10.560   1.511  2.2825  0.8928 -2.3704
   10CHTO   C20 4132   4.643  10.724   1.630 -0.0100  0.2343 -0.5984
   10CHTO   H48 4133   4.706  10.744   1.718  0.2120 -1.9438 -0.2395
   10CHTO   O19 4134   4.506  10.733   1.665  0.1108 -0.2452 -0.3846
   10CHTO   H35 4135   4.492  10.791   1.737 -1.8999 -0.3860 -0.6382
   10CHTO   C21 4136   4.683  10.847   1.536 -0.4830 -0.2704  0.6598
   10CHTO   H49 4137   4.611  10.848   1.454  2.0560  0.5284 -1.6471
   10CHTO    N4 4138   4.676  10.981   1.594  0.6721 -0.5599  0.0172
   10CHTO   H41 4139   4.773  11.029   1.599  0.9071 -0.9276 -0.8470
   10CHTO   H42 4140   4.620  10.987   1.686 -0.8541  0.7125 -0.9795
   10CHTO   C22 4141   4.820  10.809   1.467 -0.2400  0.0974  0.1227
   10CHTO   H50 4142   4.907  10.820   1.531 -0.2142 -0.6135  0.2142
   10CHTO   O14 4143   4.815  10.676   1.416 -0.5274 -0.3344  0.0647
   10CHTO   C23 4144   4.801  10.563   1.503  0.7028  0.4307 -0.3068
   10CHTO   H51 4145   4.889  10.562   1.569  1.2456  0.2273 -1.0236
   10CHTO   C34 4146   4.816  10.430   1.422  0.1834 -0.1673  0.1492
   10CHTO   O23 4147   4.860  10.331   1.510  0.4324  0.3989 -0.0254
   10CHTO   H38 4148   4.828  10.248   1.480  0.9774 -0.1065  0.7816
   10CHTO   O16 4149   4.826  10.883   1.343  0.0225  0.2103  0.1008
   10CHTO   C24 4150   4.970  10.927   1.289  0.0492  1.1659  0.2728
   10CHTO   H52 4151   5.049  10.901   1.359 -1.4998  0.5135  1.8180
   10CHTO   C26 4152   4.969  11.081   1.275 -0.2768 -0.3461 -0.5281
   10CHTO   H54 4153   4.883  11.117   1.214 -0.0495 -1.5683 -1.5823
   10CHTO   O20 4154   4.951  11.131   1.406  0.3579 -1.0502 -0.4065
   10CHTO   H36 4155   5.012  11.097   1.468 -0.3442 -1.8789 -0.1547
   10CHTO   C30 4156   5.105  11.130   1.215  0.6054  0.6463  0.2816
   10CHTO   H58 4157   5.179  11.126   1.296 -1.8250  2.3349  2.6934
   10CHTO    N6 4158   5.094  11.276   1.177  0.5848  0.8668  0.3723
   10CHTO   H45 4159   5.082  11.330   1.270 -5.5190 -1.3638  1.1137
   10CHTO   H46 4160   5.003  11.285   1.120 -0.9819  1.7179  2.9253
   10CHTO   C33 4161   5.148  11.050   1.090  0.9518  0.4507 -0.1194
   10CHTO   H61 4162   5.093  11.079   1.000 -0.4486  0.0520  0.5925
   10CHTO   O18 4163   5.134  10.905   1.114  0.5052  0.0122  0.1016
   10CHTO   C28 4164   5.004  10.864   1.154 -0.5320  0.0320 -0.2973
   10CHTO   H56 4165   4.930  10.894   1.080 -1.2779  0.6753  0.6936
   10CHTO   C35 4166   5.003  10.706   1.156 -0.2406  0.5216  0.4778
   10CHTO   O24 4167   5.102  10.655   1.237  0.3301  0.1586  0.3328
   10CHTO   H39 4168   5.142  10.592   1.179 -0.1183  1.6679 -1.6845
   10CHTO    O9 4169   5.285  11.089   1.063 -0.0094 -0.1434 -0.4004
   10CHTO   C13 4170   5.345  11.061   0.915 -0.2965 -0.2507 -0.5928
   10CHTO   H26 4171   5.288  11.130   0.849 -0.6497 -0.4558 -0.5043
   10CHTO   C11 4172   5.339  10.912   0.871 -0.1083 -0.9438  0.1330
   10CHTO   H24 4173   5.232  10.890   0.856 -1.0043  1.1187  2.9923
   10CHTO    O8 4174   5.395  10.822   0.960 -0.4255 -0.1303 -0.5624
   10CHTO    H3 4175   5.364  10.830   1.048  0.1139 -0.5034 -0.3391
   10CHTO    C9 4176   5.421  10.900   0.739 -0.1644  0.8021 -0.5294
   10CHTO   H22 4177   5.373  10.974   0.673 -0.4742  1.5912  0.5750
   10CHTO    N2 4178   5.398  10.768   0.679 -0.2592  0.2117 -0.0604
   10CHTO   H10 4179   5.485  10.705   0.664 -1.5379 -1.1795 -1.8430
   10CHTO   H11 4180   5.340  10.784   0.590  0.3646 -0.4640 -0.5964
   10CHTO    C7 4181   5.577  10.929   0.762  0.1641  0.5382  0.3112
   10CHTO   H20 4182   5.613  10.982   0.672 -0.1698 -1.5189 -1.0559
   10CHTO    O4 4183   5.586  11.010   0.882  0.1036  0.1214  0.0713
   10CHTO   C14 4184   5.492  11.115   0.902  0.2775  0.0999  0.0040
   10CHTO   H27 4185   5.499  11.183   0.815  1.3617 -0.3791 -0.2884
   10CHTO   C18 4186   5.544  11.196   1.025  0.5382 -0.1327 -0.1173
   10CHTO   O13 4187   5.481  11.320   1.047 -0.1031 -0.2601 -0.0214
   10CHTO    H7 4188   5.405  11.311   1.101  1.1585  0.4774  1.9602
   10CHTO    O2 4189   5.667  10.787   0.787  0.0549 -0.1961 -0.2912
   10CHTO    C1 4190   5.795  10.799   0.839 -0.1414  0.3341  0.2628
   10CHTO   H14 4191   5.795  10.874   0.921  2.1979 -2.9984  3.5148
   10CHTO    C2 4192   5.911  10.837   0.733 -0.1108  0.0772  0.4371
   10CHTO   H15 4193   5.893  10.804   0.629 -1.9624 -0.3784  0.8847
   10CHTO    O6 4194   5.902  10.979   0.712  0.4238  0.4978 -0.2797
   10CHTO    H1 4195   5.812  10.999   0.692  0.3879 -1.6721 -2.4286
   10CHTO    C3 4196   6.058  10.795   0.782  0.5675 -0.7814 -1.3439
   10CHTO   H16 4197   6.097  10.875   0.848  0.8432  2.4504 -5.2255
   10CHTO    N1 4198   6.160  10.799   0.674 -0.5808 -0.8818  0.5132
   10CHTO    H8 4199   6.124  10.722   0.607 -1.3684 -0.4700  0.4510
   10CHTO    H9 4200   6.258  10.779   0.714 -0.9143  1.3336  2.4991
   10CHTO    C4 4201   6.064  10.660   0.864  0.3555 -0.2703  0.0836
   10CHTO   H17 4202   6.049  10.579   0.793 -3.2471  0.6526 -0.3210
   10CHTO    O1 4203   5.959  10.652   0.963 -0.3035  0.1311  0.1695
   10CHTO    C5 4204   5.827  10.654   0.908  0.0028 -0.4554 -0.2233
   10CHTO   H18 4205   5.815  10.575   0.833  0.3785  0.4898 -1.3033
   10CHTO   C16 4206   5.740  10.627   1.030  0.8922 -0.0664  0.3948
   10CHTO   O11 4207   5.754  10.498   1.083  0.6417 -0.5268  0.2500
   10CHTO    H5 4208   5.698  10.429   1.052  1.6526 -0.4351 -1.8678
   10CHTO    O3 4209   6.193  10.650   0.931 -0.3053 -0.1858  0.1544
   10CHTO    C6 4210   6.244  10.513   0.942  0.1143  0.9890 -0.5057
   10CHTO   H19 4211   6.163  10.441   0.933  0.1731  0.8246  0.2394
   10CHTO    C8 4212   6.344  10.494   0.830 -0.3276 -0.8774  0.2345
   10CHTO   H21 4213   6.410  10.581   0.832 -2.0734  0.5364 -1.5495
   10CHTO    O7 4214   6.282  10.480   0.705  0.4081  0.0172 -0.3289
   10CHTO    H2 4215   6.338  10.509   0.635  0.6027 -0.4899 -0.3884
   10CHTO   C12 4216   6.429  10.362   0.856  0.6743 -0.6971  0.3537
   10CHTO   H25 4217   6.352  10.287   0.828  0.9554 -0.3737 -1.3431
   10CHTO    N3 4218   6.550  10.358   0.772  0.0169 -0.6892 -0.4402
   10CHTO   H12 4219   6.537  10.366   0.665 -0.5466 -4.1202 -0.7004
   10CHTO   H13 4220   6.623  10.428   0.810 -0.3164  0.1554 -1.3284
   10CHTO   C15 4221   6.462  10.356   1.012  0.7093 -0.3049  0.1683
   10CHTO   H28 4222   6.542  10.421   1.047 -0.1539  0.7867  0.1041
   10CHTO   O10 4223   6.478  10.210   1.050  0.1682 -0.2407 -0.3669
   10CHTO    H4 4224   6.489  10.203   1.143  0.4918  1.3679 -0.2779
   10CHTO    O5 4225   6.348  10.373   1.097  0.0881  0.5203  0.1799
   10CHTO   C10 4226   6.298  10.501   1.087  0.7236 -0.5004  0.5019
   10CHTO   H23 4227   6.381  10.568   1.109  0.0252  0.9004 -1.0112
   10CHTO   C17 4228   6.189  10.518   1.197 -0.8559  0.2353 -0.0991
   10CHTO   O12 4229   6.064  10.450   1.181 -0.2958  0.1471  0.2781
   10CHTO    H6 4230   6.066  10.399   1.101 -1.2827  0.6656 -0.0889
   11CHTO  H203 4231   7.596   5.428   0.322 -0.6438 -2.3504 -0.7458
   11CHTO   O82 4232   7.603   5.464   0.235  0.2454 -0.1159  0.2071
   11CHTO  C123 4233   7.568   5.601   0.229  0.0635  0.8856 -0.2962
   11CHTO  H227 4234   7.605   5.649   0.137 -2.8970  0.5308 -1.7104
   11CHTO   O77 4235   7.428   5.588   0.226 -0.0048 -0.3359 -0.2302
   11CHTO  C118 4236   7.379   5.718   0.189  0.2025  0.0556  0.4203
   11CHTO  H222 4237   7.439   5.772   0.114  0.3444 -1.3121 -0.4728
   11CHTO  C125 4238   7.231   5.704   0.145  0.2361 -0.2891  0.4205
   11CHTO   O84 4239   7.143   5.660   0.253  0.2126  0.1098 -0.5850
   11CHTO  H205 4240   7.073   5.608   0.218  0.2389  0.8451 -1.7589
   11CHTO  C114 4241   7.389   5.798   0.324  0.8218  0.3080  0.2866
   11CHTO  H218 4242   7.335   5.738   0.397  2.7845  0.6936  2.1055
   11CHTO  C116 4243   7.539   5.816   0.362 -0.3314  0.0473  0.1213
   11CHTO  H220 4244   7.588   5.882   0.287  0.5855 -2.7185 -1.8104
   11CHTO   O79 4245   7.538   5.885   0.488 -0.1544  0.1044  0.5906
   11CHTO  H201 4246   7.484   5.962   0.490 -0.9936 -0.3584 -2.0455
   11CHTO  C120 4247   7.613   5.682   0.361  0.2336  0.1040 -0.7406
   11CHTO  H224 4248   7.593   5.628   0.456  0.2939  0.5222 -0.4879
   11CHTO   N21 4249   7.764   5.701   0.361  0.4701  0.5171  0.0673
   11CHTO  H211 4250   7.814   5.612   0.395  0.8632 -0.5461 -3.1361
   11CHTO  H212 4251   7.772   5.779   0.435 -1.0518  0.1450  0.6483
   11CHTO   O75 4252   7.317   5.921   0.303 -0.0237 -0.3992  0.1214
   11CHTO  C112 4253   7.248   5.976   0.427  0.4443  0.0732 -0.4253
   11CHTO  H216 4254   7.298   5.948   0.521 -1.8445 -0.0620  0.8065
   11CHTO   O73 4255   7.117   5.926   0.422 -0.6413  0.1663 -0.2470
   11CHTO  C113 4256   7.025   5.969   0.517  0.6033  0.3716 -0.2833
   11CHTO  H217 4257   7.060   5.947   0.620 -3.4495 -3.3993  0.4336
   11CHTO  C124 4258   6.893   5.892   0.483 -0.4702  0.2195 -0.2538
   11CHTO   O83 4259   6.921   5.754   0.516 -0.0742 -0.1253 -0.2685
   11CHTO  H204 4260   6.923   5.749   0.610 -0.0257  0.1377 -0.2562
   11CHTO  C109 4261   7.007   6.122   0.505  0.3524  0.3677  0.0140
   11CHTO  H213 4262   6.967   6.137   0.403 -1.9279  0.1363  0.8521
   11CHTO  C110 4263   7.150   6.187   0.529  0.0926 -0.0207  0.3456
   11CHTO  H214 4264   7.180   6.155   0.628  0.7970 -0.4659 -0.0037
   11CHTO   O78 4265   7.132   6.332   0.531 -0.5960  0.5421 -0.1514
   11CHTO  H200 4266   7.216   6.373   0.536 -0.3634  0.2772 -1.5911
   11CHTO  C111 4267   7.258   6.138   0.422  0.3147  0.5174  0.0193
   11CHTO  H215 4268   7.222   6.163   0.322  0.3297 -2.4651 -0.7770
   11CHTO   N19 4269   7.395   6.194   0.441  0.1153  0.3408 -0.1474
   11CHTO  H207 4270   7.395   6.289   0.493  0.3087 -0.2570  0.9461
   11CHTO  H208 4271   7.462   6.129   0.496  1.0962  3.3120  2.3038
   11CHTO   O74 4272   6.902   6.174   0.606  0.0338 -0.3078 -0.6633
   11CHTO  C115 4273   6.762   6.222   0.537 -0.3085  0.0965  0.2819
   11CHTO  H219 4274   6.768   6.240   0.430 -0.4442 -0.1686  0.2320
   11CHTO   O76 4275   6.661   6.123   0.551 -0.7107 -0.0854  0.3234
   11CHTO  C122 4276   6.534   6.141   0.488  0.5898  0.7658 -0.1519
   11CHTO  H226 4277   6.468   6.062   0.523  0.6040  0.6936 -0.2878
   11CHTO  C126 4278   6.554   6.122   0.333 -0.2376 -0.9030 -0.2314
   11CHTO   O85 4279   6.603   5.986   0.307  0.2691 -0.2702  0.5876
   11CHTO  H206 4280   6.536   5.928   0.339 -0.6762  0.8061  0.5814
   11CHTO  C121 4281   6.470   6.279   0.532  0.2156 -0.2710 -0.0654
   11CHTO  H225 4282   6.417   6.308   0.439 -0.0064  1.2918  0.5343
   11CHTO   O81 4283   6.384   6.270   0.645  0.2940 -0.2724  0.0762
   11CHTO  H202 4284   6.319   6.337   0.647 -0.0810 -0.6269 -0.1748
   11CHTO  C119 4285   6.576   6.395   0.555  1.0602 -0.1212 -0.3022
   11CHTO  H223 4286   6.586   6.447   0.460  0.6825  1.6232  0.5863
   11CHTO  C117 4287   6.718   6.358   0.602 -0.1659 -0.0904  0.5626
   11CHTO  H221 4288   6.722   6.348   0.711  1.3832  1.7824  0.7191
   11CHTO   N20 4289   6.820   6.471   0.569  0.1385 -0.1741 -0.1242
   11CHTO  H209 4290   6.809   6.546   0.646 -0.6850  0.3912 -0.7827
   11CHTO  H210 4291   6.918   6.426   0.576  0.3423  0.2194 -0.4827
   11CHTO   O80 4292   6.517   6.511   0.638  0.0213 -0.4957 -0.6345
   11CHTO  C103 4293   6.476   6.480   0.818  0.1208  0.3535  0.6222
   11CHTO  H190 4294   6.380   6.428   0.822 -0.3544  0.9955 -1.8762
   11CHTO  C101 4295   6.558   6.409   0.924 -0.4474 -0.0397 -0.0131
   11CHTO  H188 4296   6.662   6.436   0.904 -0.3851 -0.8421 -0.8016
   11CHTO   O68 4297   6.541   6.277   0.901 -0.1650  0.2750 -0.2553
   11CHTO  H168 4298   6.571   6.223   0.971  1.4035 -1.2711 -2.0425
   11CHTO   C99 4299   6.526   6.453   1.071 -0.0705  0.1187  0.2554
   11CHTO  H186 4300   6.425   6.415   1.099  0.5044 -1.5761  0.0889
   11CHTO   N17 4301   6.620   6.398   1.170  0.4764 -0.2949  1.0478
   11CHTO  H174 4302   6.574   6.389   1.267 -0.4968 -3.8897  0.3152
   11CHTO  H175 4303   6.722   6.433   1.163 -0.2790  1.5992 -1.3899
   11CHTO   C97 4304   6.521   6.604   1.082 -0.4301  0.3299  0.2646
   11CHTO  H184 4305   6.613   6.645   1.039 -1.5868  1.6708 -1.0083
   11CHTO   O64 4306   6.410   6.650   1.007 -0.0803 -0.3498 -0.0981
   11CHTO  C104 4307   6.453   6.628   0.871  0.3448  0.0153  0.7645
   11CHTO  H191 4308   6.546   6.681   0.849  1.8957 -3.4384 -1.5204
   11CHTO  C108 4309   6.348   6.699   0.781  0.1226 -0.5923 -0.1982
   11CHTO   O71 4310   6.214   6.662   0.815 -0.1737 -0.6619 -0.0607
   11CHTO  H171 4311   6.158   6.687   0.744  1.7057  0.8352 -1.0363
   11CHTO   O62 4312   6.505   6.668   1.207 -0.0494  0.3810 -0.1911
   11CHTO   C91 4313   6.516   6.815   1.199 -0.9045  0.6035 -0.1160
   11CHTO  H178 4314   6.540   6.831   1.094 -1.4320 -1.2531 -0.5313
   11CHTO   C92 4315   6.648   6.873   1.267 -0.3119 -0.5200 -0.6203
   11CHTO  H179 4316   6.643   6.843   1.372  0.6737  2.0828  0.2162
   11CHTO   O66 4317   6.757   6.787   1.223 -0.0763 -0.2607 -0.4859
   11CHTO  H166 4318   6.773   6.816   1.135 -3.4748  0.9671 -0.7757
   11CHTO   C93 4319   6.665   7.025   1.245  0.0588  0.7153 -0.4836
   11CHTO  H180 4320   6.664   7.044   1.137  0.0321  0.3522 -0.5462
   11CHTO   N16 4321   6.794   7.075   1.298  0.1728  0.0600 -0.2423
   11CHTO  H172 4322   6.809   7.181   1.300  0.4534  0.0502 -1.8301
   11CHTO  H173 4323   6.794   7.047   1.403 -2.6697  2.4279  0.4630
   11CHTO   C94 4324   6.534   7.095   1.309 -0.1085 -0.1188 -0.2138
   11CHTO  H181 4325   6.534   7.081   1.417  0.4667 -0.2604 -0.2319
   11CHTO   O61 4326   6.411   7.042   1.247 -0.1533  0.0092  0.3892
   11CHTO   C95 4327   6.397   6.904   1.257  0.8471  0.0341 -0.2997
   11CHTO  H182 4328   6.384   6.875   1.362  1.1100  1.8436  0.2420
   11CHTO  C106 4329   6.261   6.864   1.193 -0.0853  0.4903  0.1377
   11CHTO   O69 4330   6.242   6.901   1.057  0.1261  0.5943 -0.0658
   11CHTO  H169 4331   6.167   6.858   1.019  1.1362 -0.6413 -0.7200
   11CHTO   O63 4332   6.524   7.257   1.260  0.7305 -0.3188 -0.8763
   11CHTO   C96 4333   6.485   7.341   1.374  0.7927  0.1627  0.3285
   11CHTO  H183 4334   6.522   7.291   1.464  1.5222 -0.1906 -0.1664
   11CHTO   C98 4335   6.334   7.346   1.411 -0.5305 -0.1653 -0.0138
   11CHTO  H185 4336   6.277   7.395   1.331  0.5751 -0.0770 -0.7681
   11CHTO   O67 4337   6.280   7.215   1.418 -0.1484 -0.2095 -0.3735
   11CHTO  H167 4338   6.304   7.172   1.338  0.6959  1.6829 -1.1570
   11CHTO  C102 4339   6.314   7.431   1.545 -0.3267 -0.2420 -0.1792
   11CHTO  H189 4340   6.341   7.361   1.625  1.8186 -1.4751 -1.9444
   11CHTO   N18 4341   6.180   7.479   1.572  0.6054  0.0970  0.3521
   11CHTO  H176 4342   6.139   7.552   1.503  0.3945 -0.6919 -0.3637
   11CHTO  H177 4343   6.158   7.501   1.675 -3.3093 -0.2845 -0.3188
   11CHTO  C105 4344   6.418   7.540   1.552 -1.0351 -0.7542  0.3764
   11CHTO  H192 4345   6.377   7.633   1.593  0.9890  0.5507 -0.4727
   11CHTO   O65 4346   6.478   7.579   1.429  0.1299  0.7219  0.2772
   11CHTO  C100 4347   6.538   7.481   1.348 -0.4119 -0.2559 -0.3788
   11CHTO  H187 4348   6.529   7.507   1.242  1.6965  2.3463  0.0232
   11CHTO  C107 4349   6.692   7.482   1.365  0.3702  0.2298 -0.0808
   11CHTO   O70 4350   6.743   7.610   1.338  0.3986  0.0376 -0.2067
   11CHTO  H170 4351   6.707   7.679   1.390  2.1261  1.7587 -1.2116
   11CHTO   O57 4352   6.524   7.477   1.666  0.1787  0.6919 -0.3207
   11CHTO   C85 4353   6.563   7.547   1.779 -0.5408 -0.4093 -0.2631
   11CHTO  H157 4354   6.465   7.589   1.811  0.3472  0.2303  1.6920
   11CHTO   C83 4355   6.651   7.669   1.730  0.4219  0.1850 -0.0610
   11CHTO  H155 4356   6.590   7.732   1.664  1.1460  0.5287 -0.4009
   11CHTO   O56 4357   6.763   7.620   1.648 -0.2554 -0.6210 -0.3448
   11CHTO  H135 4358   6.743   7.600   1.559 -4.1917  1.4363 -0.0604
   11CHTO   C81 4359   6.704   7.752   1.847  0.5899 -0.9499 -0.9253
   11CHTO  H153 4360   6.619   7.790   1.902 -0.0383 -3.2087 -0.2836
   11CHTO   N14 4361   6.781   7.876   1.798  0.2819  0.3940 -0.2332
   11CHTO  H141 4362   6.706   7.930   1.746 -1.3289 -0.1531  1.4427
   11CHTO  H142 4363   6.816   7.935   1.880  1.4185  0.1578 -0.5322
   11CHTO   C79 4364   6.795   7.661   1.942  0.3759  0.1376  0.3026
   11CHTO  H151 4365   6.825   7.725   2.025 -0.4390  1.1551 -0.1840
   11CHTO   O52 4366   6.712   7.558   1.991 -0.1747 -0.5471  0.3403
   11CHTO   C86 4367   6.639   7.472   1.901 -0.3934  0.5089  0.1296
   11CHTO  H158 4368   6.716   7.408   1.852  0.4222  3.8403 -3.1767
   11CHTO   C90 4369   6.539   7.371   1.968  0.1399 -0.0479 -0.2277
   11CHTO   O60 4370   6.460   7.302   1.866 -0.3369 -0.2281  0.3179
   11CHTO  H138 4371   6.501   7.303   1.782  2.1091  0.8881  1.4607
   11CHTO   O50 4372   6.914   7.602   1.885 -0.5277 -0.0732  0.6953
   11CHTO   C73 4373   7.045   7.536   1.893 -0.1402  0.1196 -0.9248
   11CHTO  H145 4374   7.034   7.438   1.942  1.0092  0.9003  0.9738
   11CHTO   C74 4375   7.144   7.622   1.982 -0.8503 -0.4588  0.0866
   11CHTO  H146 4376   7.097   7.628   2.082 -0.5621  2.0677  0.0979
   11CHTO   O54 4377   7.260   7.546   2.002  0.4709 -0.1905  0.3546
   11CHTO  H133 4378   7.306   7.571   2.080  0.1831 -0.4520  0.6092
   11CHTO   C75 4379   7.157   7.766   1.912 -0.2876 -0.0166 -0.2698
   11CHTO  H147 4380   7.055   7.805   1.908 -0.5256 -0.4059  1.6270
   11CHTO   N13 4381   7.240   7.871   1.984  0.5169  0.4906 -0.4029
   11CHTO  H139 4382   7.236   7.860   2.092 -1.6540 -0.4957 -0.5572
   11CHTO  H140 4383   7.342   7.865   1.951  0.8288  1.1391  0.4163
   11CHTO   C76 4384   7.203   7.740   1.762  0.0636 -0.5064  0.1007
   11CHTO  H148 4385   7.307   7.706   1.761 -0.2403 -1.4978  1.3779
   11CHTO   O49 4386   7.124   7.649   1.693  0.7499 -0.0418  0.0122
   11CHTO   C77 4387   7.106   7.519   1.752  0.2939  0.0215  0.1269
   11CHTO  H149 4388   7.206   7.479   1.769 -0.5608 -1.7817  1.0750
   11CHTO   C88 4389   7.035   7.415   1.663 -0.4006  0.6461 -0.0709
   11CHTO   O58 4390   7.117   7.374   1.520 -0.0576  0.5363  0.4036
   11CHTO  H136 4391   7.055   7.363   1.451  0.2907 -0.3195  0.2244
   11CHTO   O51 4392   7.184   7.880   1.681  0.2301  0.9490 -0.4841
   11CHTO   C78 4393   7.320   7.928   1.582 -0.3253 -1.1841  0.2094
   11CHTO  H150 4394   7.411   7.871   1.612  1.7597  1.0659 -1.6187
   11CHTO   C80 4395   7.354   8.082   1.602  0.1317 -0.1191  0.5655
   11CHTO  H152 4396   7.260   8.140   1.595  0.3079  0.2052  0.8614
   11CHTO   O55 4397   7.420   8.093   1.725  0.3582 -0.3580  0.4943
   11CHTO  H134 4398   7.368   8.043   1.785 -0.4342 -0.1132  0.0269
   11CHTO   C84 4399   7.445   8.143   1.483  0.7900 -0.2282  0.0832
   11CHTO  H156 4400   7.541   8.093   1.485 -0.5184 -2.7866  0.3909
   11CHTO   N15 4401   7.474   8.292   1.492 -0.4141  0.0506 -0.8451
   11CHTO  H143 4402   7.517   8.329   1.401 -1.5053  0.6403 -1.1327
   11CHTO  H144 4403   7.373   8.327   1.499 -0.9006 -1.4464 -0.3449
   11CHTO   C87 4404   7.391   8.096   1.344  0.2018 -0.4403  0.1512
   11CHTO  H159 4405   7.296   8.145   1.323 -0.0260  0.0340  2.1941
   11CHTO   O53 4406   7.375   7.936   1.343 -0.6114 -0.3614  0.1284
   11CHTO   C82 4407   7.281   7.893   1.442  0.0387  0.1536  0.2038
   11CHTO  H154 4408   7.183   7.933   1.413 -0.5838 -0.2240  1.7493
   11CHTO   C89 4409   7.268   7.741   1.406  0.5229 -0.5456 -0.3744
   11CHTO   O59 4410   7.399   7.672   1.422 -0.6203 -0.6636 -0.1415
   11CHTO  H137 4411   7.409   7.643   1.511 -1.3836 -1.4931 -0.3096
   11CHTO   O45 4412   7.515   8.133   1.223  0.8035  0.3046  0.5055
   11CHTO   C67 4413   7.462   8.111   1.088 -0.7625 -0.1653 -0.2945
   11CHTO  H124 4414   7.409   8.017   1.099  0.7657 -1.2160 -1.7808
   11CHTO   C65 4415   7.358   8.227   1.042  0.1006 -0.5450 -0.3517
   11CHTO  H122 4416   7.384   8.311   1.108 -1.5375 -0.9813  0.8778
   11CHTO   O44 4417   7.231   8.187   1.088 -0.4811  0.4985 -0.2007
   11CHTO  H102 4418   7.215   8.202   1.179 -0.5540  0.2909 -0.1796
   11CHTO   C63 4419   7.375   8.273   0.896  0.5856 -0.7819 -0.2092
   11CHTO  H120 4420   7.463   8.337   0.891  0.1725 -0.3200 -2.4525
   11CHTO   N11 4421   7.268   8.371   0.859  0.3930  0.3880 -0.0727
   11CHTO  H108 4422   7.181   8.366   0.921  0.8650 -1.4588  0.4634
   11CHTO  H109 4423   7.238   8.360   0.756 -1.3731 -1.8319  0.6497
   11CHTO   C61 4424   7.397   8.153   0.801  0.1431 -0.9706 -0.0789
   11CHTO  H118 4425   7.427   8.202   0.707  0.1548 -1.3140 -0.2546
   11CHTO   O40 4426   7.501   8.062   0.841 -0.3358 -0.1783 -0.4230
   11CHTO   C68 4427   7.571   8.087   0.967 -0.4468  0.8112  0.4826
   11CHTO  H125 4428   7.631   8.178   0.946  1.5057 -0.4186  0.6385
   11CHTO   C72 4429   7.668   7.962   0.998  0.6894  0.2223 -0.3185
   11CHTO   O48 4430   7.769   7.966   0.896  0.3122 -0.3865  0.2203
   11CHTO  H105 4431   7.804   8.051   0.875 -1.0453 -0.1215 -0.9731
   11CHTO   O38 4432   7.282   8.068   0.782 -0.4204  0.2029 -0.2134
   11CHTO   C55 4433   7.287   7.993   0.661 -0.3957  0.1879  1.1947
   11CHTO  H112 4434   7.394   7.984   0.639 -0.5314 -2.8801  1.4847
   11CHTO   C56 4435   7.203   8.058   0.543 -0.2755 -0.6863  0.7863
   11CHTO  H113 4436   7.101   8.071   0.583 -1.4204  0.4207 -2.2912
   11CHTO   O42 4437   7.257   8.189   0.512  0.5617 -0.7183 -0.0326
   11CHTO  H100 4438   7.235   8.250   0.580  1.7243 -1.3622  0.9293
   11CHTO   C57 4439   7.196   7.967   0.418 -0.2632  0.5288 -0.3560
   11CHTO  H114 4440   7.293   7.954   0.370 -0.2094  0.5941 -0.2633
   11CHTO   N10 4441   7.104   8.019   0.319 -0.2606 -0.2969  0.4946
   11CHTO  H106 4442   7.018   8.069   0.361 -0.1944  0.3031 -0.0770
   11CHTO  H107 4443   7.155   8.094   0.261 -0.4587 -0.3922  0.1998
   11CHTO   C58 4444   7.146   7.826   0.465  0.6877  0.7151  0.0318
   11CHTO  H115 4445   7.045   7.836   0.510  0.8105  0.2816  0.4100
   11CHTO   O37 4446   7.240   7.768   0.559  0.4837  0.2427  0.5517
   11CHTO   C59 4447   7.245   7.841   0.682  0.7586 -0.6428  0.1235
   11CHTO  H116 4448   7.151   7.832   0.736  0.4516 -1.3969 -0.5188
   11CHTO   C70 4449   7.349   7.778   0.773  0.3001 -0.0806 -0.4181
   11CHTO   O46 4450   7.474   7.753   0.704 -0.3207 -0.4322  0.1543
   11CHTO  H103 4451   7.500   7.665   0.720  0.1824 -0.3446 -0.1752
   11CHTO   O39 4452   7.135   7.709   0.361  0.4011  0.0881 -0.1651
   11CHTO   C60 4453   7.027   7.616   0.383  0.6627  0.4854 -0.2781
   11CHTO  H117 4454   6.988   7.636   0.483 -0.8237  1.5272 -1.0363
   11CHTO   C62 4455   6.915   7.633   0.278  0.5922 -0.4131 -0.3506
   11CHTO  H119 4456   6.882   7.736   0.303 -0.5150 -1.2703  1.8572
   11CHTO   O43 4457   6.974   7.628   0.146  0.5700  0.0613  0.4077
   11CHTO  H101 4458   7.021   7.709   0.138  2.1226 -0.7881  0.7694
   11CHTO   C66 4459   6.788   7.540   0.301 -0.3398 -0.0109 -0.3272
   11CHTO  H123 4460   6.753   7.566   0.401 -1.0274 -0.0298 -0.5572
   11CHTO   N12 4461   6.679   7.558   0.202 -0.5576 -0.0792 -0.2049
   11CHTO  H110 4462   6.650   7.662   0.210 -2.6774 -0.6837  0.3538
   11CHTO  H111 4463   6.714   7.541   0.102 -0.1944  2.5581 -0.5816
   11CHTO   C69 4464   6.828   7.391   0.313  0.2851 -0.7090 -0.3694
   11CHTO  H126 4465   6.853   7.349   0.213 -0.2462 -0.1558 -0.7353
   11CHTO   O41 4466   6.943   7.379   0.416 -0.4532 -0.2078 -0.3829
   11CHTO   C64 4467   7.069   7.467   0.378 -1.1066 -0.3675  0.2867
   11CHTO  H121 4468   7.113   7.432   0.282 -1.6171  1.8095 -0.7709
   11CHTO   C71 4469   7.182   7.449   0.480  0.8893  0.1652 -0.5215
   11CHTO   O47 4470   7.138   7.456   0.616  0.5838 -0.4203  0.0238
   11CHTO  H104 4471   7.182   7.386   0.661  4.2078  1.9624  0.3875
   11CHTO   O34 4472   6.724   7.313   0.369 -0.0360  0.2457  0.4789
   11CHTO   C49 4473   6.666   7.182   0.399  0.3762  0.0833 -0.3886
   11CHTO   H91 4474   6.748   7.110   0.409  0.8702  0.2901 -2.6312
   11CHTO   C47 4475   6.580   7.135   0.275  0.0120  0.1541  0.0010
   11CHTO   H89 4476   6.533   7.037   0.297  0.0256  0.4360  1.3469
   11CHTO   O33 4477   6.658   7.131   0.152  0.1085  0.5682  0.3711
   11CHTO   H70 4478   6.708   7.052   0.149  0.5312  0.8579 -0.3589
   11CHTO   C45 4479   6.456   7.246   0.268  0.2994  0.7446  0.1414
   11CHTO   H87 4480   6.503   7.345   0.257  1.6311 -0.0402 -1.4802
   11CHTO    N8 4481   6.374   7.226   0.144  1.1057 -0.0087  0.5966
   11CHTO   H75 4482   6.301   7.148   0.155  1.7458 -0.8913 -1.2594
   11CHTO   H76 4483   6.325   7.316   0.109  1.3957  0.2922  0.9569
   11CHTO   C43 4484   6.371   7.227   0.403 -0.2813  0.6628  0.1754
   11CHTO   H85 4485   6.289   7.298   0.395 -0.2103  0.9495  1.8986
   11CHTO   O29 4486   6.459   7.261   0.508 -0.0147  0.5377 -0.4616
   11CHTO   C50 4487   6.588   7.197   0.529 -0.0802 -0.1745  0.1795
   11CHTO   H92 4488   6.649   7.253   0.601 -0.8743  0.7628  0.1230
   11CHTO   C54 4489   6.571   7.057   0.601 -0.5635 -0.1115 -0.0052
   11CHTO   O36 4490   6.488   7.061   0.717  0.1911 -0.1934 -0.4969
   11CHTO   H72 4491   6.538   7.023   0.787 -4.1246 -0.9632  2.3171
   11CHTO   O27 4492   6.316   7.095   0.417  0.1518  0.1086 -0.3903
   11CHTO   C37 4493   6.245   6.995   0.493  0.9117  0.3196 -0.0824
   11CHTO   H79 4494   6.293   6.971   0.589  1.5065  0.5096 -0.3314
   11CHTO   C38 4495   6.099   7.050   0.525  0.0281 -0.6995 -0.0430
   11CHTO   H80 4496   6.058   7.098   0.435  1.6055  0.9376  0.0713
   11CHTO   O31 4497   6.107   7.147   0.631  0.0496  0.4075  0.3748
   11CHTO   H68 4498   6.131   7.228   0.590  2.5000 -0.6522 -0.3777
   11CHTO   C39 4499   5.990   6.941   0.575  0.3304  0.3079  0.2506
   11CHTO   H81 4500   6.018   6.917   0.678  0.2002 -2.5254 -0.3329
   11CHTO    N7 4501   5.853   6.987   0.580 -0.6367  0.1717 -0.1878
   11CHTO   H73 4502   5.827   7.061   0.505 -1.3973 -0.3626 -0.4485
   11CHTO   H74 4503   5.785   6.904   0.577  1.3880 -1.5193 -0.8480
   11CHTO   C40 4504   6.013   6.811   0.491  0.5159  0.1484  0.9491
   11CHTO   H82 4505   5.957   6.811   0.397 -0.8921  1.4140  1.7513
   11CHTO   O26 4506   6.150   6.770   0.467 -0.7055  0.5154 -0.2512
   11CHTO   C41 4507   6.231   6.868   0.405 -0.3444 -0.1898 -1.2431
   11CHTO   H83 4508   6.196   6.898   0.305  0.2636  0.5812 -1.2261
   11CHTO   C52 4509   6.368   6.804   0.398 -1.2679 -0.0132  0.6381
   11CHTO   O35 4510   6.374   6.702   0.290 -0.2482  0.2986 -0.8629
   11CHTO   H71 4511   6.457   6.662   0.311 -0.5386  0.7399  1.2334
   11CHTO   O28 4512   5.968   6.702   0.575 -0.6091 -0.0725 -0.2576
   11CHTO   C42 4513   5.898   6.585   0.524 -0.1293 -0.4617 -0.3847
   11CHTO   H84 4514   5.935   6.584   0.421  0.7792  1.0650 -0.0962
   11CHTO   C44 4515   5.740   6.593   0.521 -1.0496  0.1717 -0.4184
   11CHTO   H86 4516   5.704   6.598   0.624  0.2292 -1.9240  0.1694
   11CHTO   O32 4517   5.708   6.706   0.444  0.0140 -0.3292 -0.0370
   11CHTO   H69 4518   5.620   6.729   0.467 -0.1857  1.1006 -2.1288
   11CHTO   C48 4519   5.684   6.464   0.467 -0.2539  0.5567  0.4300
   11CHTO   H90 4520   5.711   6.461   0.361  0.1862  1.0693  0.5252
   11CHTO    N9 4521   5.536   6.444   0.468 -0.6115  0.0778  0.2924
   11CHTO   H77 4522   5.506   6.474   0.568 -2.4219 -0.1982 -0.1545
   11CHTO   H78 4523   5.501   6.511   0.391  0.5748 -0.5717 -0.8209
   11CHTO   C51 4524   5.752   6.339   0.547  0.1265 -0.6006  0.2859
   11CHTO   H93 4525   5.723   6.350   0.652 -1.5140 -0.2324 -0.1907
   11CHTO   O30 4526   5.889   6.333   0.535  0.0847 -0.3002  0.0849
   11CHTO   C46 4527   5.948   6.452   0.596  0.2259 -0.5257 -0.2142
   11CHTO   H88 4528   5.923   6.446   0.702  0.6035 -1.7568 -0.1839
   11CHTO   C53 4529   6.100   6.425   0.579  0.1747 -0.4626 -0.3099
   11CHTO   O72 4530   6.143   6.411   0.448 -0.1895 -0.6560  0.1345
   11CHTO  H199 4531   6.165   6.495   0.413  0.2358 -0.3114  1.1882
   11CHTO   O22 4532   5.719   6.213   0.487  0.1029  0.2954 -0.1621
   11CHTO   C31 4533   5.703   6.105   0.573  0.0678  0.8350 -0.0291
   11CHTO   H59 4534   5.740   6.139   0.671 -1.2945  0.5629  0.5885
   11CHTO   C29 4535   5.554   6.073   0.595  0.1596  0.4143 -0.1471
   11CHTO   H57 4536   5.506   6.039   0.502 -2.3042 -0.0528  1.2687
   11CHTO   O21 4537   5.489   6.195   0.637 -0.0430  0.4227  0.5234
   11CHTO   H37 4538   5.444   6.245   0.571 -0.6441  1.0574  1.3951
   11CHTO   C27 4539   5.538   5.957   0.702  0.2041  0.2671 -0.2010
   11CHTO   H55 4540   5.567   5.995   0.801  0.6676 -0.8938  0.1102
   11CHTO    N5 4541   5.397   5.906   0.715 -1.1020 -0.0374 -0.5612
   11CHTO   H43 4542   5.384   5.881   0.820  1.2707  2.7123  0.4452
   11CHTO   H44 4543   5.389   5.817   0.655 -1.0408 -1.4873  1.5123
   11CHTO   C25 4544   5.641   5.844   0.666  0.0178  0.2650  0.1666
   11CHTO   H53 4545   5.606   5.809   0.568 -0.6584  1.1607  0.0934
   11CHTO   O17 4546   5.780   5.894   0.645  0.1170  0.3866 -0.0879
   11CHTO   C32 4547   5.784   5.978   0.534 -0.1906  0.4891 -0.1684
   11CHTO   H60 4548   5.739   5.935   0.445  0.8130 -3.6608  1.2244
   11CHTO   C36 4549   5.939   6.015   0.506 -0.0316  0.1252 -0.0358
   11CHTO   O25 4550   5.952   6.055   0.373 -0.1910 -0.4421  0.3798
   11CHTO   H40 4551   5.920   6.143   0.368 -2.5297 -1.2006  1.1450
   11CHTO   O15 4552   5.650   5.732   0.764  0.0058 -0.1812 -0.0564
   11CHTO   C19 4553   5.603   5.601   0.803  0.5620  0.0887 -0.5939
   11CHTO   H47 4554   5.699   5.557   0.831  0.3542  0.5938  0.9179
   11CHTO   C20 4555   5.500   5.604   0.920 -0.3130  0.1551 -0.0564
   11CHTO   H48 4556   5.440   5.696   0.913  0.9522  0.9110 -1.4434
   11CHTO   O19 4557   5.577   5.632   1.037 -0.1766  0.2230 -0.3341
   11CHTO   H35 4558   5.607   5.550   1.072  1.5243 -0.0536 -2.3345
   11CHTO   C21 4559   5.410   5.477   0.939  0.6487 -0.2496  1.0494
   11CHTO   H49 4560   5.455   5.400   1.002 -1.7392 -1.8791  0.7943
   11CHTO    N4 4561   5.288   5.498   1.026  0.0027 -0.0064 -0.3953
   11CHTO   H41 4562   5.303   5.527   1.129  0.8870 -1.5687 -0.0668
   11CHTO   H42 4563   5.225   5.568   0.972  1.9153  1.2729 -1.0246
   11CHTO   C22 4564   5.367   5.423   0.799 -0.0145 -0.1853  0.9251
   11CHTO   H50 4565   5.309   5.497   0.744 -0.6850 -2.1692 -1.1287
   11CHTO   O14 4566   5.488   5.397   0.728 -0.0962  0.1332  0.1678
   11CHTO   C23 4567   5.546   5.520   0.677 -0.7949  0.6169  0.4823
   11CHTO   H51 4568   5.474   5.577   0.617  0.1512 -0.7072 -1.9958
   11CHTO   C34 4569   5.663   5.480   0.580  0.5754 -0.3967 -0.3269
   11CHTO   O23 4570   5.714   5.601   0.518  0.0854 -0.3551  0.3452
   11CHTO   H38 4571   5.808   5.605   0.522  0.0622  0.3087  0.1425
   11CHTO   O16 4572   5.303   5.295   0.777  0.0008 -0.3563 -0.5045
   11CHTO   C24 4573   5.208   5.294   0.643 -0.1634  0.5060  0.2175
   11CHTO   H52 4574   5.240   5.371   0.573  3.0973 -0.8282  0.1417
   11CHTO   C26 4575   5.061   5.303   0.681 -0.3428 -0.0625 -1.1189
   11CHTO   H54 4576   5.041   5.225   0.758  0.7395  0.4694 -0.2787
   11CHTO   O20 4577   5.030   5.429   0.749 -0.2630  0.1708  0.2689
   11CHTO   H36 4578   4.938   5.442   0.731 -0.4691 -1.1521  0.3332
   11CHTO   C30 4579   4.970   5.276   0.563  0.6979 -0.4687 -0.1505
   11CHTO   H58 4580   4.974   5.364   0.497  1.4677  1.4072  2.3444
   11CHTO    N6 4581   4.828   5.268   0.610  0.1631 -0.1992 -0.3936
   11CHTO   H45 4582   4.808   5.365   0.653 -0.8088  0.0439 -1.3779
   11CHTO   H46 4583   4.818   5.193   0.687  0.4789  2.2188  2.0605
   11CHTO   C33 4584   5.007   5.150   0.480 -0.0442 -0.5378  0.8408
   11CHTO   H61 4585   4.966   5.058   0.526 -0.4181 -1.4919 -1.3574
   11CHTO   O18 4586   5.154   5.138   0.465  0.3394  0.5198  0.0967
   11CHTO   C28 4587   5.240   5.157   0.576  0.0982  0.0096 -0.4341
   11CHTO   H56 4588   5.222   5.076   0.647 -1.4042 -0.8530 -1.7499
   11CHTO   C35 4589   5.379   5.157   0.511  0.2153  0.0999 -0.1681
   11CHTO   O24 4590   5.484   5.144   0.603  0.8812  0.2852 -0.1449
   11CHTO   H39 4591   5.519   5.231   0.602  2.0269 -0.1524  0.9382
   11CHTO    O9 4592   4.941   5.161   0.353 -0.2341  0.0631 -0.1422
   11CHTO   C13 4593   5.007   5.266   0.248  0.7649 -0.1235  0.1108
   11CHTO   H26 4594   5.086   5.324   0.300 -0.5534 -0.0292  2.0624
   11CHTO   C11 4595   4.901   5.366   0.190  0.4124  0.4676  0.5510
   11CHTO   H24 4596   4.860   5.419   0.277  1.1806  1.1490  0.5078
   11CHTO    O8 4597   4.802   5.295   0.115  0.1787  0.2289  0.5188
   11CHTO    H3 4598   4.751   5.232   0.163 -0.1241 -0.0083 -0.1120
   11CHTO    C9 4599   4.979   5.467   0.108 -0.9224 -0.9384 -0.4575
   11CHTO   H22 4600   5.036   5.533   0.176  1.3700 -0.1995 -3.0077
   11CHTO    N2 4601   4.891   5.557   0.030 -0.2095  0.0813 -0.3348
   11CHTO   H10 4602   4.944   5.644  -0.006 -0.0384  0.3475  0.5627
   11CHTO   H11 4603   4.810   5.522  -0.033 -0.3247  1.6816 -1.1013
   11CHTO    C7 4604   5.094   5.400   0.016 -0.1824 -0.9544  0.0657
   11CHTO   H20 4605   5.188   5.409   0.075 -0.0711 -0.9422 -0.1168
   11CHTO    O4 4606   5.079   5.256   0.007  0.5268 -0.3151  0.6732
   11CHTO   C14 4607   5.085   5.185   0.133 -0.1952 -0.9291  0.1640
   11CHTO   H27 4608   5.188   5.155   0.164 -0.5796 -2.6617 -0.1626
   11CHTO   C18 4609   5.016   5.054   0.093 -0.4417 -0.5228 -0.6562
   11CHTO   O13 4610   5.104   4.982   0.003  0.0484 -0.2282 -0.2159
   11CHTO    H7 4611   5.107   5.027  -0.079 -2.8955  1.6885  0.6781
   11CHTO    O2 4612   5.114   5.468  -0.139  0.0979 -0.6157  0.3413
   11CHTO    C1 4613   5.214   5.571  -0.145  0.2113 -0.5021  0.3266
   11CHTO   H14 4614   5.265   5.586  -0.048 -0.6144  0.1368  0.6660
   11CHTO    C2 4615   5.169   5.721  -0.192 -0.0248  0.1635 -1.1532
   11CHTO   H15 4616   5.121   5.706  -0.290 -2.9966  1.6768 -0.0192
   11CHTO    O6 4617   5.075   5.766  -0.090  0.4234 -0.1186  0.6631
   11CHTO    H1 4618   4.994   5.719  -0.100 -0.9692  2.5997 -1.3682
   11CHTO    C3 4619   5.299   5.822  -0.194 -0.1113  0.0216 -0.0218
   11CHTO   H16 4620   5.341   5.814  -0.092  2.2727  1.5048 -0.8606
   11CHTO    N1 4621   5.267   5.965  -0.221 -0.5485 -0.0465 -0.3131
   11CHTO    H8 4622   5.177   5.986  -0.165 -0.6775 -0.8883 -0.1966
   11CHTO    H9 4623   5.265   5.990  -0.326  2.0549  1.6769  0.0029
   11CHTO    C4 4624   5.403   5.750  -0.286  0.3930 -0.6854  0.4714
   11CHTO   H17 4625   5.364   5.753  -0.388 -1.9700  2.0246  1.3943
   11CHTO    O1 4626   5.434   5.618  -0.240 -0.2212 -0.0882 -0.2212
   11CHTO    C5 4627   5.327   5.518  -0.235 -0.0816  0.3124 -0.1283
   11CHTO   H18 4628   5.292   5.491  -0.335  2.0483 -0.8665 -0.5654
   11CHTO   C16 4629   5.401   5.401  -0.172 -0.1376  0.0624  0.3157
   11CHTO   O11 4630   5.512   5.347  -0.249 -0.2697  0.1281  0.8900
   11CHTO    H5 4631   5.572   5.415  -0.276 -1.7962  1.2735  0.3048
   11CHTO    O3 4632   5.529   5.816  -0.273 -0.5974 -0.3472 -0.0654
   11CHTO    C6 4633   5.601   5.831  -0.404  0.0106 -0.6332  0.5197
   11CHTO   H19 4634   5.563   5.763  -0.480 -1.7519  1.1987 -0.2628
   11CHTO    C8 4635   5.574   5.976  -0.468 -0.1652  0.1752 -0.7998
   11CHTO   H21 4636   5.594   6.050  -0.390 -0.4295  0.0635 -0.6267
   11CHTO    O7 4637   5.434   5.979  -0.502 -0.5102  0.2878  0.0660
   11CHTO    H2 4638   5.398   6.050  -0.552 -0.2335  1.1614  1.0894
   11CHTO   C12 4639   5.679   5.996  -0.588 -0.4572 -0.2832  0.4190
   11CHTO   H25 4640   5.646   5.930  -0.671  0.3177  0.7468 -0.7366
   11CHTO    N3 4641   5.672   6.141  -0.644  0.1022  0.3486 -0.4296
   11CHTO   H12 4642   5.695   6.208  -0.562 -0.9120  2.0033 -1.4717
   11CHTO   H13 4643   5.574   6.158  -0.686 -0.2229 -2.4295 -0.9375
   11CHTO   C15 4644   5.819   5.949  -0.542 -0.1297 -0.3818 -0.7118
   11CHTO   H28 4645   5.855   6.011  -0.460 -1.2015 -1.6455  0.7508
   11CHTO   O10 4646   5.917   5.944  -0.653 -0.3894 -0.5982  0.1348
   11CHTO    H4 4647   5.979   6.012  -0.636  0.2046 -1.2787  0.7125
   11CHTO    O5 4648   5.816   5.811  -0.503 -0.1239  0.0169  0.2237
   11CHTO   C10 4649   5.748   5.790  -0.380 -0.2305  0.6416 -0.2227
   11CHTO   H23 4650   5.801   5.839  -0.298  1.1022 -0.1684 -0.5937
   11CHTO   C17 4651   5.769   5.645  -0.348  0.1051  0.6709  0.2482
   11CHTO   O12 4652   5.691   5.560  -0.428  0.1618 -0.1802  0.1775
   11CHTO    H6 4653   5.721   5.473  -0.413  0.3015 -0.1337  0.1642
   12CHTO  H203 4654   5.564  12.315  -0.553 -0.4160 -0.4388  2.0352
   12CHTO   O82 4655   5.575  12.222  -0.543 -0.1689 -0.5205  1.0711
   12CHTO  C123 4656   5.504  12.155  -0.440  0.6256  0.2355  0.1105
   12CHTO  H227 4657   5.495  12.219  -0.350  1.5797  1.9998 -1.0144
   12CHTO   O77 4658   5.367  12.134  -0.499 -0.2889 -0.1223  0.0518
   12CHTO  C118 4659   5.280  12.078  -0.401  0.8947  0.4311 -0.0744
   12CHTO  H222 4660   5.285  12.139  -0.309  3.3247  1.4937 -0.8634
   12CHTO  C125 4661   5.137  12.084  -0.459 -0.1081  0.3092 -0.4112
   12CHTO   O84 4662   5.105  12.219  -0.488  0.1256 -0.5252 -0.2779
   12CHTO  H205 4663   5.145  12.280  -0.428  2.2128 -3.7439  1.7926
   12CHTO  C114 4664   5.321  11.931  -0.366 -0.0836 -0.4343  0.5649
   12CHTO  H218 4665   5.316  11.873  -0.458  2.6710  0.1652 -0.0041
   12CHTO  C116 4666   5.471  11.924  -0.318 -0.2930 -0.2515 -0.2153
   12CHTO  H220 4667   5.478  11.960  -0.213  1.8479 -0.4976 -0.2645
   12CHTO   O79 4668   5.518  11.788  -0.306  0.0481 -0.5011 -0.7605
   12CHTO  H201 4669   5.454  11.733  -0.347 -1.4209 -0.0948  0.9716
   12CHTO  C120 4670   5.566  12.011  -0.412  0.0872 -0.2656  0.1162
   12CHTO  H224 4671   5.590  11.961  -0.508 -0.2585 -2.4706  1.1550
   12CHTO   N21 4672   5.696  12.027  -0.341  0.3996 -0.3821  0.0907
   12CHTO  H211 4673   5.781  12.025  -0.408  2.2538 -1.4678  2.3805
   12CHTO  H212 4674   5.710  11.951  -0.265 -2.0858 -3.0562 -2.0009
   12CHTO   O75 4675   5.227  11.881  -0.275  0.0385 -0.3425 -0.2674
   12CHTO  C112 4676   5.160  11.743  -0.322  0.6968  0.1035 -0.5453
   12CHTO  H216 4677   5.227  11.691  -0.393  1.8028 -0.6088  0.9956
   12CHTO   O73 4678   5.029  11.772  -0.378  0.1299 -0.3133 -0.4155
   12CHTO  C113 4679   4.960  11.659  -0.423 -1.1749  0.1619 -0.6060
   12CHTO  H217 4680   5.024  11.612  -0.501 -0.8721  0.2380 -0.4058
   12CHTO  C124 4681   4.840  11.715  -0.505 -0.4828  0.0004 -0.8275
   12CHTO   O83 4682   4.746  11.778  -0.416  0.2805 -0.4828  0.2180
   12CHTO  H204 4683   4.751  11.868  -0.440  2.1534 -1.0407 -1.5536
   12CHTO  C109 4684   4.930  11.558  -0.302  0.1837  0.2887  0.2389
   12CHTO  H213 4685   4.869  11.617  -0.232 -3.6064 -1.7536 -1.2509
   12CHTO  C110 4686   5.063  11.514  -0.236 -0.0616 -0.5813  0.2274
   12CHTO  H214 4687   5.115  11.464  -0.317  1.9828 -0.8565  1.6839
   12CHTO   O78 4688   5.053  11.419  -0.126  0.1326  0.7282 -0.4796
   12CHTO  H200 4689   5.000  11.457  -0.059 -0.1981 -0.6398  0.0443
   12CHTO  C111 4690   5.147  11.641  -0.197  0.0276  0.4016 -0.3586
   12CHTO  H215 4691   5.104  11.691  -0.109  0.6017 -0.6499  0.5314
   12CHTO   N19 4692   5.293  11.602  -0.162 -0.1999 -0.1933  0.2614
   12CHTO  H207 4693   5.345  11.672  -0.098 -1.4147  1.3395 -0.4036
   12CHTO  H208 4694   5.280  11.506  -0.113 -2.2526  1.0147  2.2123
   12CHTO   O74 4695   4.857  11.446  -0.353 -0.0868 -0.6348 -0.2274
   12CHTO  C115 4696   4.782  11.326  -0.213  0.6783  0.2140  0.1441
   12CHTO  H219 4697   4.838  11.336  -0.120 -0.2693 -0.7663  0.8321
   12CHTO   O76 4698   4.634  11.371  -0.178  0.3288 -0.5203 -0.2943
   12CHTO  C122 4699   4.538  11.282  -0.121  0.1588  0.5524 -0.1167
   12CHTO  H226 4700   4.444  11.326  -0.152 -0.4315 -0.8078 -0.2988
   12CHTO  C126 4701   4.536  11.290   0.035 -0.2646 -0.1432  0.1893
   12CHTO   O85 4702   4.655  11.271   0.107 -0.3147 -0.1701 -0.0180
   12CHTO  H206 4703   4.665  11.339   0.172  1.7113 -1.8459  1.5016
   12CHTO  C121 4704   4.555  11.131  -0.169  0.8555 -0.1546 -0.3755
   12CHTO  H225 4705   4.503  11.061  -0.100  0.2291 -0.4384 -1.1354
   12CHTO   O81 4706   4.494  11.115  -0.300 -0.5014 -0.2072  0.0825
   12CHTO  H202 4707   4.460  11.193  -0.340  1.5241  1.1667  0.9569
   12CHTO  C119 4708   4.707  11.091  -0.176  0.0807  0.1858 -0.7557
   12CHTO  H223 4709   4.746  11.112  -0.076  0.6987  0.5321 -1.0671
   12CHTO  C117 4710   4.789  11.184  -0.276  0.2803 -0.4488  0.0589
   12CHTO  H221 4711   4.744  11.198  -0.375  1.8814 -2.2179 -0.9363
   12CHTO   N20 4712   4.938  11.140  -0.296  0.4380 -0.6417  0.3982
   12CHTO  H209 4713   4.938  11.046  -0.350  0.2238 -0.6837  0.4723
   12CHTO  H210 4714   4.969  11.123  -0.194  1.2738 -2.3822 -0.1269
   12CHTO   O80 4715   4.729  10.937  -0.181  0.4297 -0.0424  0.1693
   12CHTO  C103 4716   4.614  10.819  -0.257  0.1384  0.0322 -0.2177
   12CHTO  H190 4717   4.517  10.868  -0.253  0.9406  1.8352 -1.9409
   12CHTO  C101 4718   4.632  10.779  -0.408 -0.0190 -0.4111 -0.3982
   12CHTO  H188 4719   4.734  10.741  -0.417  0.5235  1.1340 -1.0443
   12CHTO   O68 4720   4.609  10.913  -0.504 -0.0406 -0.6630 -0.3444
   12CHTO  H168 4721   4.649  10.908  -0.588 -0.1020  1.7870 -0.5685
   12CHTO   C99 4722   4.521  10.667  -0.442  0.1041  0.2747 -0.5459
   12CHTO  H186 4723   4.418  10.705  -0.426  0.5568  0.7768  1.4044
   12CHTO   N17 4724   4.534  10.617  -0.584  0.5458  0.2986  0.2673
   12CHTO  H174 4725   4.588  10.688  -0.645 -0.3559  1.2152  0.5093
   12CHTO  H175 4726   4.582  10.521  -0.582  1.6329  0.7902 -1.2498
   12CHTO   C97 4727   4.527  10.548  -0.348 -0.1518 -0.0800  0.9235
   12CHTO  H184 4728   4.621  10.498  -0.374 -0.9981  0.2421 -3.1142
   12CHTO   O64 4729   4.522  10.596  -0.211  0.5313  0.8824  0.0594
   12CHTO  C104 4730   4.609  10.695  -0.158  0.3277  0.4160 -0.3332
   12CHTO  H191 4731   4.709  10.653  -0.153 -0.1196 -0.9752 -2.2832
   12CHTO  C108 4732   4.561  10.728  -0.011 -0.4482  0.0426  0.6103
   12CHTO   O71 4733   4.447  10.809  -0.020 -0.0391  0.0929  0.6399
   12CHTO  H171 4734   4.397  10.806   0.059 -0.7761 -0.5206  0.1524
   12CHTO   O62 4735   4.415  10.463  -0.349 -0.0065 -0.9281 -0.2182
   12CHTO   C91 4736   4.394  10.342  -0.275 -0.5195  0.5045 -0.3066
   12CHTO  H178 4737   4.476  10.334  -0.204 -2.2763 -1.4044  1.5901
   12CHTO   C92 4738   4.389  10.226  -0.376  0.5557 -0.0569 -0.1579
   12CHTO  H179 4739   4.315  10.238  -0.456  0.2933 -0.8455 -0.0379
   12CHTO   O66 4740   4.520  10.227  -0.429 -0.3311  0.0562 -0.2690
   12CHTO  H166 4741   4.534  10.147  -0.475 -1.0268  0.2096 -0.7681
   12CHTO   C93 4742   4.350  10.090  -0.302 -0.4400  0.1828 -0.0099
   12CHTO  H180 4743   4.442  10.055  -0.252  0.6948 -0.2016 -2.2907
   12CHTO   N16 4744   4.321   9.972  -0.390  0.0449 -0.0915  0.3803
   12CHTO  H172 4745   4.287   9.897  -0.321 -2.8714 -0.1717 -1.0591
   12CHTO  H173 4746   4.406   9.942  -0.449  0.4825  3.3249 -0.8611
   12CHTO   C94 4747   4.235  10.107  -0.197 -0.2246 -0.5622  0.5204
   12CHTO  H181 4748   4.139  10.129  -0.242 -0.8854 -0.5168  1.9193
   12CHTO   O61 4749   4.258  10.214  -0.110 -0.2619  0.5495 -0.0128
   12CHTO   C95 4750   4.263  10.338  -0.179  0.2332  0.7500  1.1039
   12CHTO  H182 4751   4.169  10.348  -0.234  1.1368 -1.0295 -0.8111
   12CHTO  C106 4752   4.267  10.447  -0.070 -0.0638  0.0169 -0.0764
   12CHTO   O69 4753   4.267  10.576  -0.126 -0.6314 -0.5032  0.0561
   12CHTO  H169 4754   4.324  10.573  -0.200  0.6467 -0.3680  1.0238
   12CHTO   O63 4755   4.215   9.974  -0.101  0.4121 -0.2938 -1.8284
   12CHTO   C96 4756   4.302   9.962   0.042 -0.5520  1.0314 -0.1704
   12CHTO  H183 4757   4.322  10.068   0.060  2.3014  1.0849 -3.1041
   12CHTO   C98 4758   4.438   9.892   0.040 -0.5647  0.2028  0.6612
   12CHTO  H185 4759   4.429   9.794  -0.009 -0.8700 -0.4784  2.0719
   12CHTO   O67 4760   4.532   9.970  -0.036 -0.0474 -0.1658 -0.7553
   12CHTO  H167 4761   4.511  10.062  -0.035  0.5591 -0.0267  1.4592
   12CHTO  C102 4762   4.497   9.871   0.185 -0.7659 -0.2247  0.2069
   12CHTO  H189 4763   4.525   9.966   0.233  0.3201 -0.5949  0.3157
   12CHTO   N18 4764   4.621   9.789   0.198 -0.0625 -0.0992  0.6129
   12CHTO  H176 4765   4.700   9.847   0.154  0.2556 -0.3275  0.8842
   12CHTO  H177 4766   4.613   9.690   0.154  2.5323  1.1438 -2.8888
   12CHTO  C105 4767   4.386   9.805   0.270  0.1860  0.6828 -0.5929
   12CHTO  H192 4768   4.369   9.708   0.224  1.9719 -0.4005  0.9555
   12CHTO   O65 4769   4.272   9.883   0.274  0.1516  0.0984 -0.1409
   12CHTO  C100 4770   4.203   9.896   0.146 -0.3473 -0.8294 -0.2132
   12CHTO  H187 4771   4.170   9.795   0.118 -1.0329  0.3979 -4.1320
   12CHTO  C107 4772   4.075   9.982   0.174  0.0421  0.8541  0.1290
   12CHTO   O70 4773   4.107  10.119   0.198 -0.0297  0.2406  0.6173
   12CHTO  H170 4774   4.039  10.180   0.176  0.5422  0.4900 -0.4708
   12CHTO   O57 4775   4.436   9.790   0.425  0.1248 -0.1936 -0.7194
   12CHTO   C85 4776   4.386   9.699   0.521  0.3534 -0.5930  0.0797
   12CHTO  H157 4777   4.307   9.645   0.464 -1.1296  3.5564 -1.9909
   12CHTO   C83 4778   4.323   9.779   0.634  0.0624 -0.3798  0.0778
   12CHTO  H155 4779   4.232   9.822   0.593  0.2581 -0.6363 -0.6271
   12CHTO   O56 4780   4.412   9.893   0.669  0.4700  0.1556 -0.0684
   12CHTO  H135 4781   4.498   9.895   0.634  0.8319 -0.1510  0.7881
   12CHTO   C81 4782   4.288   9.679   0.752 -0.1958  0.6838 -0.0499
   12CHTO  H153 4783   4.221   9.604   0.711 -0.1395  1.2338 -1.1628
   12CHTO   N14 4784   4.208   9.741   0.861 -0.3925  0.3617  0.2131
   12CHTO  H141 4785   4.264   9.781   0.944  0.9757  0.6489 -0.8423
   12CHTO  H142 4786   4.131   9.806   0.823  0.8770  1.0841 -1.1685
   12CHTO   C79 4787   4.415   9.605   0.801  0.5151 -0.2877 -0.2811
   12CHTO  H151 4788   4.386   9.524   0.869 -0.2776  1.1009  1.0839
   12CHTO   O52 4789   4.476   9.529   0.691 -0.9350  0.0586  0.1861
   12CHTO   C86 4790   4.501   9.604   0.572 -1.1590  0.8837 -0.2183
   12CHTO  H158 4791   4.585   9.669   0.606 -1.1318  1.2201 -0.9186
   12CHTO   C90 4792   4.551   9.513   0.459  0.3763  0.3859 -0.2517
   12CHTO   O60 4793   4.454   9.421   0.403 -0.0026 -0.7780 -0.5026
   12CHTO  H138 4794   4.457   9.343   0.454  0.5254 -0.6236 -0.2962
   12CHTO   O50 4795   4.522   9.690   0.861  0.1965 -0.0914 -0.2363
   12CHTO   C73 4796   4.603   9.718   0.972 -0.6369  0.4121 -0.3200
   12CHTO  H145 4797   4.556   9.683   1.065 -1.3134 -0.0328 -0.8308
   12CHTO   C74 4798   4.618   9.879   0.985 -0.5063 -0.3000 -0.0502
   12CHTO  H146 4799   4.516   9.918   0.993 -0.6609 -0.2816 -1.8695
   12CHTO   O54 4800   4.694   9.908   1.105  0.1128 -0.2459  0.0843
   12CHTO  H133 4801   4.637   9.932   1.176  0.2776  2.0691 -0.5299
   12CHTO   C75 4802   4.691   9.925   0.853 -0.4317  0.2963  0.0970
   12CHTO  H147 4803   4.627   9.904   0.766 -0.7638  0.2842  0.3393
   12CHTO   N13 4804   4.715  10.071   0.837  0.1412 -0.2061  0.1924
   12CHTO  H139 4805   4.794  10.097   0.905 -0.4495 -4.4392  2.6945
   12CHTO  H140 4806   4.742  10.088   0.733  0.2428  1.1635  0.4316
   12CHTO   C76 4807   4.828   9.840   0.823  0.7379 -0.1336 -0.4691
   12CHTO  H148 4808   4.893   9.871   0.905  1.6382  1.2255 -1.6730
   12CHTO   O49 4809   4.795   9.699   0.821  0.1439  0.2858 -0.2727
   12CHTO   C77 4810   4.743   9.655   0.951 -0.4590  0.2661  0.1342
   12CHTO  H149 4811   4.809   9.682   1.033  0.2891 -1.4523  0.1372
   12CHTO   C88 4812   4.732   9.506   0.940  0.4144  0.6303  0.5106
   12CHTO   O58 4813   4.849   9.434   0.946 -0.2889 -0.0758 -0.9828
   12CHTO  H136 4814   4.897   9.441   0.866 -1.5303  0.2095 -1.7177
   12CHTO   O51 4815   4.899   9.861   0.686  0.2509  0.1822 -0.2369
   12CHTO   C78 4816   5.043   9.811   0.662  0.3931  0.1922 -0.8023
   12CHTO  H150 4817   5.056   9.720   0.724 -1.6177 -0.0471 -0.6864
   12CHTO   C80 4818   5.144   9.921   0.705 -0.0692  0.2227  0.2394
   12CHTO  H152 4819   5.138  10.003   0.630 -0.5808  0.0101  0.0465
   12CHTO   O55 4820   5.116   9.965   0.835  0.3800  0.3270 -0.2198
   12CHTO  H134 4821   5.135  10.057   0.842 -2.4051  0.8275  2.1096
   12CHTO   C84 4822   5.286   9.868   0.699 -0.1011  0.1902 -0.1979
   12CHTO  H156 4823   5.294   9.787   0.771  1.9963 -1.7402 -2.5055
   12CHTO   N15 4824   5.387   9.973   0.737  0.5155 -0.4255  0.5750
   12CHTO  H143 4825   5.369  10.006   0.838 -1.5800  0.4436 -0.0426
   12CHTO  H144 4826   5.488   9.940   0.728  0.2985 -0.9841  0.2176
   12CHTO   C87 4827   5.327   9.799   0.561  0.1721  0.8018  0.1882
   12CHTO  H159 4828   5.345   9.877   0.486  0.5728  0.5625  0.0337
   12CHTO   O53 4829   5.199   9.707   0.500  0.2833 -0.0589 -1.2071
   12CHTO   C82 4830   5.069   9.776   0.517 -0.7428  0.3598 -0.2294
   12CHTO  H154 4831   5.068   9.868   0.458 -4.7780  1.0598  0.7751
   12CHTO   C89 4832   4.958   9.687   0.460  0.4252 -0.2249 -0.5818
   12CHTO   O59 4833   4.983   9.672   0.323 -0.2147  0.2123 -0.3235
   12CHTO  H137 4834   4.905   9.691   0.274 -1.3608  2.4841  2.2323
   12CHTO   O45 4835   5.456   9.705   0.576 -0.3090  0.4746  0.4569
   12CHTO   C67 4836   5.550   9.695   0.466  0.6074  0.0058 -0.1366
   12CHTO  H124 4837   5.625   9.623   0.500  1.7035  0.2228 -2.0346
   12CHTO   C65 4838   5.484   9.637   0.337 -0.2079 -0.3740 -0.3413
   12CHTO  H122 4839   5.395   9.589   0.378  0.6111 -0.7959  0.9504
   12CHTO   O44 4840   5.576   9.535   0.287  0.5063 -0.1284 -0.0506
   12CHTO  H102 4841   5.656   9.567   0.251  1.5692 -0.1086  2.2132
   12CHTO   C63 4842   5.445   9.749   0.233  0.5515 -0.0746 -0.8672
   12CHTO  H120 4843   5.377   9.818   0.282 -0.2181 -1.0202 -0.5787
   12CHTO   N11 4844   5.358   9.707   0.114  0.4139 -0.0222 -0.1059
   12CHTO  H108 4845   5.279   9.640   0.141  1.1087 -0.8807 -0.1589
   12CHTO  H109 4846   5.336   9.787   0.048 -0.4017  0.0414  0.2366
   12CHTO   C61 4847   5.588   9.814   0.191 -0.2519 -0.1432  0.3303
   12CHTO  H118 4848   5.564   9.914   0.151  1.0357  0.4576  1.0513
   12CHTO   O40 4849   5.684   9.832   0.303  0.2030 -0.4164  0.1405
   12CHTO   C68 4850   5.628   9.830   0.437 -0.2294 -0.2512  0.4782
   12CHTO  H125 4851   5.554   9.912   0.441 -0.9661 -0.9956  3.2280
   12CHTO   C72 4852   5.731   9.861   0.541  0.7729  0.2424  0.2648
   12CHTO   O48 4853   5.677   9.871   0.676  0.0777 -0.0315  0.4055
   12CHTO  H105 4854   5.620   9.946   0.677  2.6597  1.9591  2.1478
   12CHTO   O38 4855   5.664   9.730   0.097 -0.0180 -0.1965 -0.2971
   12CHTO   C55 4856   5.767   9.783   0.013  0.9361 -0.0930 -0.0225
   12CHTO  H112 4857   5.794   9.882   0.052  1.5191 -0.3509  0.2355
   12CHTO   C56 4858   5.719   9.786  -0.140  0.0564  0.3607  0.6816
   12CHTO  H113 4859   5.701   9.679  -0.156 -0.1253  0.8312 -2.5910
   12CHTO   O42 4860   5.586   9.858  -0.136 -0.5433  0.1427 -0.2259
   12CHTO  H100 4861   5.555   9.876  -0.223  0.8569 -0.8320 -0.9358
   12CHTO   C57 4862   5.848   9.845  -0.220  0.3109 -0.6248  0.3445
   12CHTO  H114 4863   5.874   9.943  -0.179  0.7957 -0.4766 -0.3238
   12CHTO   N10 4864   5.810   9.871  -0.361 -0.2963  0.6032 -0.0739
   12CHTO  H106 4865   5.733   9.799  -0.387 -0.0750  0.4045 -0.1853
   12CHTO  H107 4866   5.761   9.966  -0.350 -2.3391  0.0919 -3.8129
   12CHTO   C58 4867   5.970   9.746  -0.206 -0.5377  0.1027 -0.5536
   12CHTO  H115 4868   5.947   9.643  -0.240 -2.9873  0.3464  0.3133
   12CHTO   O37 4869   6.006   9.732  -0.066  0.1043  0.2945 -0.4312
   12CHTO   C59 4870   5.898   9.696   0.019 -0.1926  0.2807  0.3618
   12CHTO  H116 4871   5.877   9.591  -0.003 -0.5841  0.3381  0.4584
   12CHTO   C70 4872   5.965   9.691   0.154 -0.2203  0.1179 -0.4005
   12CHTO   O46 4873   5.887   9.632   0.256  0.3588  0.0922  0.0371
   12CHTO  H103 4874   5.813   9.591   0.215  0.6313  0.0581 -0.4302
   12CHTO   O39 4875   6.096   9.817  -0.290 -0.2363  0.2867 -0.5413
   12CHTO   C60 4876   6.187   9.710  -0.308 -0.4697  0.5747  0.6881
   12CHTO  H117 4877   6.178   9.620  -0.248  2.5308 -1.5517 -1.8799
   12CHTO   C62 4878   6.171   9.669  -0.456  0.1360 -0.4521 -0.0217
   12CHTO  H119 4879   6.066   9.638  -0.477  0.1892  1.1042 -2.7607
   12CHTO   O43 4880   6.194   9.779  -0.547  0.7697 -0.8531 -0.0919
   12CHTO  H101 4881   6.281   9.798  -0.576  0.7459  1.9609  1.5432
   12CHTO   C66 4882   6.269   9.541  -0.480  0.1728  0.4549  0.4894
   12CHTO  H123 4883   6.239   9.459  -0.414 -2.1801  0.4111 -0.5625
   12CHTO   N12 4884   6.247   9.501  -0.624 -0.0030 -0.2541 -0.2014
   12CHTO  H110 4885   6.247   9.394  -0.642 -0.3337 -0.1854 -0.5984
   12CHTO  H111 4886   6.328   9.545  -0.680  1.9959 -0.4732  2.4284
   12CHTO   C69 4887   6.415   9.581  -0.442 -0.6748 -0.5008 -0.2959
   12CHTO  H126 4888   6.450   9.655  -0.517  1.0277  2.0116  2.8974
   12CHTO   O41 4889   6.429   9.656  -0.310  0.5230  0.2748 -0.3731
   12CHTO   C64 4890   6.327   9.765  -0.281 -0.4994  0.9320  0.2401
   12CHTO  H121 4891   6.342   9.855  -0.344  1.0458 -1.1255 -2.4766
   12CHTO   C71 4892   6.344   9.797  -0.136  0.4299 -0.0126  0.6515
   12CHTO   O47 4893   6.291   9.927  -0.114 -0.3284  0.1169  0.0932
   12CHTO  H104 4894   6.220   9.910  -0.055 -1.4854  1.3782 -0.8941
   12CHTO   O34 4895   6.505   9.458  -0.449 -0.1478  0.5816 -0.0683
   12CHTO   C49 4896   6.649   9.415  -0.431  0.0046 -0.5623  0.1343
   12CHTO   H91 4897   6.681   9.399  -0.534 -2.4660  3.4475 -1.3621
   12CHTO   C47 4898   6.655   9.281  -0.357 -0.2733  0.1466  0.2368
   12CHTO   H89 4899   6.755   9.241  -0.386  0.3918  0.7660  1.5893
   12CHTO   O33 4900   6.553   9.191  -0.404 -0.6528 -0.1385  0.2364
   12CHTO   H70 4901   6.586   9.103  -0.404  0.0693  0.1313 -0.3814
   12CHTO   C45 4902   6.643   9.296  -0.189 -0.5257 -0.1382 -0.7203
   12CHTO   H87 4903   6.539   9.266  -0.167  0.0088 -0.0509  2.0853
   12CHTO    N8 4904   6.733   9.191  -0.133  0.4499 -0.0780 -0.3422
   12CHTO   H75 4905   6.840   9.204  -0.126  0.6400 -1.2032 -0.9915
   12CHTO   H76 4906   6.702   9.089  -0.152 -0.5652  0.3265 -0.8696
   12CHTO   C43 4907   6.653   9.443  -0.141 -0.4896  0.2209  0.9325
   12CHTO   H85 4908   6.561   9.497  -0.163  0.6140  1.1284 -1.5940
   12CHTO   O29 4909   6.758   9.506  -0.219 -0.3604 -0.2819 -0.1203
   12CHTO   C50 4910   6.738   9.519  -0.360  0.3539 -0.4060 -0.3793
   12CHTO   H92 4911   6.698   9.619  -0.382  0.2111 -0.3115  0.3015
   12CHTO   C54 4912   6.885   9.527  -0.421 -0.3306  0.7643  0.8223
   12CHTO   O36 4913   6.960   9.411  -0.387  0.0914 -0.6392  0.6677
   12CHTO   H72 4914   7.034   9.403  -0.443 -0.7109 -0.6593 -0.3929
   12CHTO   O27 4915   6.670   9.456   0.003  0.0465 -0.3595 -0.2255
   12CHTO   C37 4916   6.620   9.471   0.138  1.7485 -0.2440 -0.0869
   12CHTO   H79 4917   6.704   9.510   0.198  2.0381 -0.4123 -0.3856
   12CHTO   C38 4918   6.505   9.573   0.156 -0.2165 -0.1711 -0.1200
   12CHTO   H80 4919   6.431   9.549   0.079 -1.7268  0.3635  1.1403
   12CHTO   O31 4920   6.559   9.701   0.132 -0.7871  0.0227 -0.1422
   12CHTO   H68 4921   6.515   9.775   0.171 -1.9369 -0.9395  0.4068
   12CHTO   C39 4922   6.441   9.568   0.301 -0.3194  0.7246  0.4707
   12CHTO   H81 4923   6.519   9.597   0.371  0.6534 -0.7529  0.0032
   12CHTO    N7 4924   6.325   9.665   0.323  0.5924 -0.4188 -0.4125
   12CHTO   H73 4925   6.352   9.732   0.402  1.2045 -0.4942 -0.5560
   12CHTO   H74 4926   6.294   9.722   0.236  0.0003 -2.1923 -1.4090
   12CHTO   C40 4927   6.393   9.420   0.322  0.0232  0.1118  1.0508
   12CHTO   H82 4928   6.317   9.399   0.246 -0.0432 -0.6056  1.3120
   12CHTO   O26 4929   6.509   9.336   0.312  0.2699  0.5232 -0.2758
   12CHTO   C41 4930   6.578   9.336   0.187  0.2803  0.7015 -0.5965
   12CHTO   H83 4931   6.504   9.294   0.117 -0.3706  0.8002  0.0320
   12CHTO   C52 4932   6.696   9.244   0.216 -0.1434 -0.0215  0.4054
   12CHTO   O35 4933   6.659   9.115   0.272  0.4181 -0.2369  0.1686
   12CHTO   H71 4934   6.618   9.128   0.355  0.8186 -0.9784  0.4829
   12CHTO   O28 4935   6.355   9.383   0.454 -0.4138 -0.0582  0.0843
   12CHTO   C42 4936   6.246   9.289   0.482 -0.2304  0.2001 -0.4474
   12CHTO   H84 4937   6.267   9.259   0.585  1.3522 -0.5059 -0.9653
   12CHTO   C44 4938   6.240   9.152   0.410 -0.8942  0.4584 -0.8792
   12CHTO   H86 4939   6.244   9.180   0.304  1.0252 -0.1976 -1.0153
   12CHTO   O32 4940   6.361   9.080   0.442  0.0664  0.9498  0.3400
   12CHTO   H69 4941   6.370   8.993   0.409  0.7973  1.7729 -1.6514
   12CHTO   C48 4942   6.116   9.068   0.450 -0.0895 -0.2369  0.0250
   12CHTO   H90 4943   6.126   9.037   0.555 -1.0868 -1.4681 -0.2289
   12CHTO    N9 4944   6.094   8.945   0.364 -0.7370 -0.2140  0.5399
   12CHTO   H77 4945   6.187   8.890   0.364 -1.2840 -1.1566  1.2798
   12CHTO   H78 4946   6.068   8.975   0.264 -0.5029 -0.9591  0.2495
   12CHTO   C51 4947   5.984   9.157   0.447 -0.2063  0.3521  0.4958
   12CHTO   H93 4948   5.953   9.177   0.345  1.5421 -0.7815 -0.2648
   12CHTO   O30 4949   6.006   9.279   0.530 -0.4213  0.4843  0.3084
   12CHTO   C46 4950   6.117   9.369   0.485  0.1524  0.1840 -0.1907
   12CHTO   H88 4951   6.094   9.403   0.384  0.3168 -4.0680 -1.7674
   12CHTO   C53 4952   6.110   9.493   0.592  0.3684 -0.1899 -0.1707
   12CHTO   O72 4953   5.986   9.566   0.588  0.0417  0.1360 -0.4582
   12CHTO  H199 4954   5.918   9.507   0.614 -0.0250  0.4162  0.0101
   12CHTO   O22 4955   5.878   9.094   0.518  0.2531 -0.4344 -0.7632
   12CHTO   C31 4956   5.742   9.139   0.534  0.7084 -0.0505 -0.1607
   12CHTO   H59 4957   5.687   9.057   0.584 -0.0453 -0.6000 -1.8393
   12CHTO   C29 4958   5.727   9.266   0.620 -0.1096  0.1360  0.3245
   12CHTO   H57 4959   5.781   9.346   0.567 -0.8657 -1.8327 -3.5516
   12CHTO   O21 4960   5.801   9.246   0.741 -0.0025  0.0247 -0.0283
   12CHTO   H37 4961   5.888   9.216   0.725 -0.8965 -2.5604 -0.2940
   12CHTO   C27 4962   5.578   9.302   0.640 -0.3535 -0.1439 -1.1688
   12CHTO   H55 4963   5.531   9.220   0.697  1.2720 -1.8781 -2.2497
   12CHTO    N5 4964   5.567   9.431   0.717 -0.3536 -0.6520  0.2651
   12CHTO   H43 4965   5.612   9.500   0.648 -1.3741 -0.3329 -0.0997
   12CHTO   H44 4966   5.629   9.419   0.805 -0.0974 -1.3304 -0.0035
   12CHTO   C25 4967   5.494   9.309   0.505 -0.2908 -0.1246  0.8108
   12CHTO   H53 4968   5.519   9.396   0.444 -0.7832 -1.2565 -1.0681
   12CHTO   O17 4969   5.524   9.187   0.429  0.4141  0.4101  0.0688
   12CHTO   C32 4970   5.660   9.164   0.399  0.0610 -0.1407 -0.2573
   12CHTO   H60 4971   5.710   9.247   0.347  1.3595 -1.7902 -1.7350
   12CHTO   C36 4972   5.659   9.044   0.303 -0.1051 -0.5235  0.3498
   12CHTO   O25 4973   5.774   9.052   0.221 -0.2084 -0.5999 -0.2896
   12CHTO   H40 4974   5.829   8.977   0.224  1.4231  0.4339 -2.6638
   12CHTO   O15 4975   5.326   9.305   0.537 -0.1790  0.5104  0.0820
   12CHTO   C19 4976   5.217   9.344   0.448 -0.4101  0.2491  0.1015
   12CHTO   H47 4977   5.224   9.453   0.450  2.0795  0.1039  1.4811
   12CHTO   C20 4978   5.221   9.303   0.299 -0.1292  0.1751  0.0733
   12CHTO   H48 4979   5.250   9.197   0.287 -3.0889 -0.4128 -2.7745
   12CHTO   O19 4980   5.330   9.368   0.240 -0.5014 -0.3065 -0.4008
   12CHTO   H35 4981   5.352   9.339   0.153  1.4329  1.1335 -0.4163
   12CHTO   C21 4982   5.099   9.346   0.211  0.1327 -0.1446 -0.9261
   12CHTO   H49 4983   5.101   9.454   0.200  0.0280  0.0979  1.3804
   12CHTO    N4 4984   5.106   9.286   0.075  0.5165 -0.1471 -0.3868
   12CHTO   H41 4985   5.087   9.180   0.086  0.4471  0.0457  1.5470
   12CHTO   H42 4986   5.024   9.333   0.022 -0.0848 -1.1562 -0.3661
   12CHTO   C22 4987   4.971   9.310   0.283  0.0771 -0.6895 -0.6954
   12CHTO   H50 4988   4.974   9.201   0.286  2.8151 -0.6096  1.5192
   12CHTO   O14 4989   4.977   9.364   0.417 -0.4188 -0.3607 -0.1590
   12CHTO   C23 4990   5.080   9.304   0.502  1.1454 -0.2440  0.5232
   12CHTO   H51 4991   5.067   9.195   0.498  0.3732 -0.0903 -2.1304
   12CHTO   C34 4992   5.067   9.361   0.644 -0.2849  0.5299  0.0649
   12CHTO   O23 4993   4.952   9.301   0.699 -0.4885 -0.4623 -0.0737
   12CHTO   H38 4994   4.942   9.338   0.784 -1.0048 -1.3456  0.2508
   12CHTO   O16 4995   4.852   9.360   0.220 -0.0463 -0.3942 -0.2440
   12CHTO   C24 4996   4.771   9.243   0.131 -0.3398 -0.6193  0.1498
   12CHTO   H52 4997   4.833   9.155   0.116 -1.0196 -0.9975 -0.4746
   12CHTO   C26 4998   4.724   9.304  -0.000  0.4375 -0.0518 -0.5064
   12CHTO   H54 4999   4.653   9.386   0.024 -0.2258 -0.7632 -0.0210
   12CHTO   O20 5000   4.833   9.340  -0.082 -0.1845 -0.6215 -0.3538
   12CHTO   H36 5001   4.810   9.361  -0.170  0.0715  0.5587 -0.1524
   12CHTO   C30 5002   4.638   9.200  -0.075  0.1344  0.3715  0.1388
   12CHTO   H58 5003   4.698   9.113  -0.103 -0.4885 -0.5389  1.5950
   12CHTO    N6 5004   4.574   9.248  -0.198 -0.3538  0.6579  0.2130
   12CHTO   H45 5005   4.491   9.181  -0.217  0.3655 -0.3293  0.4820
   12CHTO   H46 5006   4.541   9.351  -0.195 -2.9659 -0.1480  0.0969
   12CHTO   C33 5007   4.529   9.131   0.016 -0.1281 -0.6710  0.8305
   12CHTO   H61 5008   4.440   9.195   0.028  0.5830  0.4564  0.1516
   12CHTO   O18 5009   4.590   9.093   0.135  0.6261 -0.8562 -0.1870
   12CHTO   C28 5010   4.651   9.201   0.207 -0.0975  0.5284 -0.0668
   12CHTO   H56 5011   4.588   9.287   0.228  1.1734  1.2708  0.6832
   12CHTO   C35 5012   4.688   9.151   0.349  0.3101 -0.8607  0.2866
   12CHTO   O24 5013   4.565   9.106   0.402 -0.3042 -0.6271  0.3272
   12CHTO   H39 5014   4.544   9.159   0.476 -2.0403  0.3022 -0.8140
   12CHTO    O9 5015   4.479   9.015  -0.055 -0.1961 -0.4801  0.1592
   12CHTO   C13 5016   4.565   8.878  -0.044 -0.2358 -0.3383  0.4866
   12CHTO   H26 5017   4.661   8.895   0.010 -0.8092  2.5195  0.6739
   12CHTO   C11 5018   4.589   8.822  -0.197  0.0207  0.4844 -0.0728
   12CHTO   H24 5019   4.657   8.887  -0.255 -1.3716  1.9740 -0.0617
   12CHTO    O8 5020   4.461   8.821  -0.260 -0.4673  0.3470 -0.4102
   12CHTO    H3 5021   4.475   8.777  -0.342 -0.4612  0.9234 -0.7179
   12CHTO    C9 5022   4.665   8.688  -0.190  0.3336 -0.4178 -0.4024
   12CHTO   H22 5023   4.760   8.707  -0.138 -0.1073  0.3616  0.1384
   12CHTO    N2 5024   4.706   8.641  -0.321  0.1907 -0.0258 -0.1549
   12CHTO   H10 5025   4.771   8.556  -0.331  0.7653  0.5330 -1.3847
   12CHTO   H11 5026   4.618   8.624  -0.382  0.2533 -0.7469 -0.0412
   12CHTO    C7 5027   4.593   8.583  -0.097 -0.3055 -0.5624 -0.2207
   12CHTO   H20 5028   4.661   8.496  -0.082 -0.9725 -1.3249 -1.5752
   12CHTO    O4 5029   4.574   8.642   0.030  0.4209 -0.1453  0.1365
   12CHTO   C14 5030   4.499   8.769   0.049 -0.1284  0.3815 -0.5475
   12CHTO   H27 5031   4.517   8.799   0.154  0.8590 -2.9379  0.2587
   12CHTO   C18 5032   4.346   8.759   0.034  0.1516  0.0704 -0.2534
   12CHTO   O13 5033   4.264   8.658   0.095  0.5163 -0.1379  0.3461
   12CHTO    H7 5034   4.179   8.699   0.099  0.6356  0.2553 -0.7890
   12CHTO    O2 5035   4.448   8.536  -0.149 -0.4140  0.8819 -0.1511
   12CHTO    C1 5036   4.429   8.394  -0.160  0.0262 -0.0920  0.0589
   12CHTO   H14 5037   4.527   8.342  -0.159  0.7092  1.0212 -2.8485
   12CHTO    C2 5038   4.357   8.362  -0.297 -1.0924 -0.1840  0.3917
   12CHTO   H15 5039   4.288   8.446  -0.314  1.6784  2.0237 -0.2049
   12CHTO    O6 5040   4.455   8.377  -0.401  0.6339  0.0168 -0.2403
   12CHTO    H1 5041   4.401   8.391  -0.476 -2.9331  0.7291  2.2930
   12CHTO    C3 5042   4.290   8.218  -0.316 -0.3155  0.0028 -0.2447
   12CHTO   H16 5043   4.370   8.146  -0.333 -0.1736 -0.1762  1.1102
   12CHTO    N1 5044   4.194   8.209  -0.429 -0.4262 -0.0925 -0.0540
   12CHTO    H8 5045   4.100   8.251  -0.396  0.1718  0.1740  1.3344
   12CHTO    H9 5046   4.234   8.259  -0.516 -2.4375 -0.2718 -1.1251
   12CHTO    C4 5047   4.228   8.180  -0.172 -0.2203  0.5957  0.7740
   12CHTO   H17 5048   4.140   8.243  -0.158  0.2995  1.2466  1.1575
   12CHTO    O1 5049   4.321   8.202  -0.064 -0.0422  0.3520  0.3185
   12CHTO    C5 5050   4.355   8.335  -0.035  0.2771  0.1929  0.1463
   12CHTO   H18 5051   4.261   8.390  -0.031  0.2310  0.1635 -0.5364
   12CHTO   C16 5052   4.425   8.348   0.093 -0.5898  0.4425 -0.1381
   12CHTO   O11 5053   4.330   8.315   0.200  0.7216 -0.3295 -0.0931
   12CHTO    H5 5054   4.311   8.223   0.196  3.6610 -0.8653 -3.8823
   12CHTO    O3 5055   4.182   8.037  -0.168  0.4333  0.9739 -0.5133
   12CHTO    C6 5056   4.141   7.978  -0.043 -0.0993 -0.4810  0.5857
   12CHTO   H19 5057   4.178   8.027   0.047  0.7475 -0.6456  0.3261
   12CHTO    C8 5058   3.984   7.975  -0.031  0.4400  0.6649  0.2238
   12CHTO   H21 5059   3.945   7.934  -0.124  1.9998  0.7142 -0.4654
   12CHTO    O7 5060   3.940   8.111  -0.016 -0.3616 -0.5479  0.6914
   12CHTO    H2 5061   4.001   8.165   0.030  1.4204 -1.9777  0.0361
   12CHTO   C12 5062   3.943   7.888   0.091 -0.6924 -0.5890 -0.7549
   12CHTO   H25 5063   3.978   7.957   0.171 -2.3285  1.3927 -1.6974
   12CHTO    N3 5064   3.796   7.879   0.086 -0.0311 -0.1273  0.1362
   12CHTO   H12 5065   3.740   7.823   0.160 -1.7105 -0.0258 -1.0143
   12CHTO   H13 5066   3.767   7.844  -0.012  1.6269  1.1077 -0.8100
   12CHTO   C15 5067   4.013   7.755   0.096 -0.1397  0.2910 -0.0924
   12CHTO   H28 5068   3.964   7.690   0.023 -0.6790  3.3998 -2.5913
   12CHTO   O10 5069   4.004   7.693   0.235  0.4298  0.2085  0.2678
   12CHTO    H4 5070   4.062   7.619   0.239 -2.6378 -2.2725  0.4754
   12CHTO    O5 5071   4.160   7.761   0.079  0.2575  0.2026 -0.2731
   12CHTO   C10 5072   4.192   7.833  -0.037 -0.3614  0.0384 -0.1831
   12CHTO   H23 5073   4.151   7.774  -0.119  0.6332 -0.6474 -0.1901
   12CHTO   C17 5074   4.342   7.840  -0.062  0.2640  0.3383  0.2751
   12CHTO   O12 5075   4.394   7.712  -0.096  0.3587 -0.2639 -0.1798
   12CHTO    H6 5076   4.388   7.698  -0.188 -0.4052 -0.9056 -0.0415
   13CHTO  H203 5077   8.539   4.790   1.602 -0.7184 -1.5703  1.7316
   13CHTO   O82 5078   8.465   4.845   1.622  0.1015  0.2069 -0.0104
   13CHTO  C123 5079   8.404   4.914   1.519 -0.0343 -0.3429  0.4749
   13CHTO  H227 5080   8.425   4.868   1.420 -0.4833  0.2743  0.0906
   13CHTO   O77 5081   8.265   4.901   1.558  0.4791  0.0740  0.2073
   13CHTO  C118 5082   8.170   4.940   1.460 -0.1015 -0.0732 -0.1760
   13CHTO  H222 5083   8.196   4.893   1.364  1.1218 -1.1223  0.6561
   13CHTO  C125 5084   8.027   4.898   1.496 -0.1682 -0.3600 -0.4589
   13CHTO   O84 5085   7.977   4.964   1.609  0.3393  0.4339 -0.1184
   13CHTO  H205 5086   7.966   4.889   1.664  1.1425 -0.2562 -0.8774
   13CHTO  C114 5087   8.178   5.090   1.443  0.3994  0.2008 -0.6137
   13CHTO  H218 5088   8.169   5.139   1.540  0.4499  1.0364 -1.0229
   13CHTO  C116 5089   8.322   5.130   1.408  0.6720 -0.1393  0.5087
   13CHTO  H220 5090   8.339   5.085   1.308  0.7176 -1.6416  1.1659
   13CHTO   O79 5091   8.338   5.274   1.410  0.2121  0.2774  0.3222
   13CHTO  H201 5092   8.306   5.312   1.489 -0.7903  0.4495 -0.1544
   13CHTO  C120 5093   8.434   5.070   1.506  0.1123  0.3225  0.8127
   13CHTO  H224 5094   8.414   5.128   1.598 -0.3927  0.6193  0.5177
   13CHTO   N21 5095   8.573   5.109   1.473  0.2449  0.3080  0.3058
   13CHTO  H211 5096   8.637   5.094   1.558 -2.3205  1.8114  2.6013
   13CHTO  H212 5097   8.617   5.070   1.382 -1.6940  0.2469 -0.6447
   13CHTO   O75 5098   8.074   5.143   1.357 -0.2396 -0.0004 -0.2213
   13CHTO  C112 5099   7.987   5.274   1.410  0.2635  0.4698  0.0609
   13CHTO  H216 5100   8.048   5.333   1.480 -0.5410 -3.0316  3.9290
   13CHTO   O73 5101   7.876   5.222   1.476 -0.1307  0.0931  0.3464
   13CHTO  C113 5102   7.796   5.330   1.523 -0.1854  0.2603  0.1911
   13CHTO  H217 5103   7.869   5.397   1.573 -0.4030 -0.3483  1.3510
   13CHTO  C124 5104   7.700   5.277   1.634 -0.1806  0.3614  0.3567
   13CHTO   O83 5105   7.771   5.237   1.752  0.2278 -0.1123  0.8760
   13CHTO  H204 5106   7.795   5.318   1.793 -0.9226 -0.1786  1.7124
   13CHTO  C109 5107   7.729   5.398   1.413  0.2234  0.0562  0.1040
   13CHTO  H213 5108   7.675   5.319   1.358  1.0153 -0.8501  0.6248
   13CHTO  C110 5109   7.843   5.464   1.325  0.5983 -0.1728 -0.3506
   13CHTO  H214 5110   7.886   5.541   1.388  0.6900 -2.1191  2.0437
   13CHTO   O78 5111   7.778   5.510   1.203 -0.0383 -0.4030  0.3235
   13CHTO  H200 5112   7.766   5.445   1.136 -3.0344 -0.2434  0.6350
   13CHTO  C111 5113   7.953   5.361   1.283 -0.5528  0.4848 -0.5899
   13CHTO  H215 5114   7.896   5.290   1.220 -0.1087 -0.4805  0.0941
   13CHTO   N19 5115   8.070   5.406   1.204 -0.7749 -0.2654  0.3868
   13CHTO  H207 5116   8.099   5.326   1.137  1.5758 -1.6793  2.9802
   13CHTO  H208 5117   8.157   5.429   1.264  1.5840 -2.6916 -1.9600
   13CHTO   O74 5118   7.634   5.504   1.452  0.6264  0.4198 -0.2313
   13CHTO  C115 5119   7.478   5.481   1.441 -0.0415  0.4012  0.2236
   13CHTO  H219 5120   7.435   5.534   1.356 -0.3722 -1.6340 -0.9014
   13CHTO   O76 5121   7.440   5.330   1.409 -0.0654  0.0895  0.3180
   13CHTO  C122 5122   7.297   5.311   1.410  0.6650 -0.6934  0.6269
   13CHTO  H226 5123   7.280   5.203   1.410 -1.9078 -0.3245 -0.3768
   13CHTO  C126 5124   7.233   5.356   1.268 -0.1533 -0.3209  0.4939
   13CHTO   O85 5125   7.103   5.294   1.266 -0.1545  0.2214 -0.0146
   13CHTO  H206 5126   7.109   5.219   1.210  1.3972  0.6302 -0.4153
   13CHTO  C121 5127   7.223   5.370   1.533  0.7847  0.0832 -0.5652
   13CHTO  H225 5128   7.115   5.363   1.510  1.0888 -1.4882 -1.5843
   13CHTO   O81 5129   7.262   5.298   1.655 -0.2863  0.2366  0.4476
   13CHTO  H202 5130   7.243   5.207   1.643  0.2719  0.1134  0.4867
   13CHTO  C119 5131   7.259   5.522   1.550 -0.4729 -1.0743 -0.8759
   13CHTO  H223 5132   7.233   5.575   1.459 -1.0472  0.4023  0.1105
   13CHTO  C117 5133   7.416   5.532   1.572  0.3198  0.0205 -0.1701
   13CHTO  H221 5134   7.455   5.469   1.652 -0.0670 -0.2446 -0.1894
   13CHTO   N20 5135   7.453   5.673   1.613 -0.9066 -0.2857 -0.1898
   13CHTO  H209 5136   7.435   5.693   1.718  1.2030  2.4067 -0.2640
   13CHTO  H210 5137   7.422   5.744   1.537 -1.3885 -0.5394 -0.2287
   13CHTO   O80 5138   7.168   5.612   1.678  0.6821  0.7716 -0.3606
   13CHTO  C103 5139   7.006   5.673   1.653 -1.0957 -0.3241 -0.3894
   13CHTO  H190 5140   6.985   5.725   1.746  0.7867  1.2337 -0.8041
   13CHTO  C101 5141   6.979   5.768   1.527 -0.4268  0.1607 -0.5610
   13CHTO  H188 5142   7.008   5.715   1.436  0.2327  2.1098 -1.5148
   13CHTO   O68 5143   7.060   5.905   1.535 -0.1107 -0.3743 -0.4132
   13CHTO  H168 5144   7.045   5.952   1.615 -2.2443  1.1590 -1.6708
   13CHTO   C99 5145   6.823   5.795   1.517  0.5149 -0.0778  0.2138
   13CHTO  H186 5146   6.784   5.840   1.611 -0.1594  0.9401 -0.5326
   13CHTO   N17 5147   6.789   5.886   1.400  0.1620 -0.2811 -0.4296
   13CHTO  H174 5148   6.684   5.899   1.379 -0.2634 -2.0678  0.5078
   13CHTO  H175 5149   6.828   5.986   1.413 -1.9890  0.6581 -1.0230
   13CHTO   C97 5150   6.753   5.662   1.501 -0.0318  0.2397 -0.4252
   13CHTO  H184 5151   6.795   5.614   1.411  3.0869  0.4058  0.8820
   13CHTO   O64 5152   6.779   5.581   1.617 -0.2603  0.5628 -0.2563
   13CHTO  C104 5153   6.917   5.543   1.642  0.4554 -0.2023 -0.2716
   13CHTO  H191 5154   6.950   5.483   1.557  0.3057  1.0809 -1.2430
   13CHTO  C108 5155   6.935   5.459   1.769  0.0006  0.0606 -0.5461
   13CHTO   O71 5156   6.883   5.326   1.760 -0.3995 -0.4742 -0.5222
   13CHTO  H171 5157   6.952   5.271   1.791  1.7766  1.6532 -1.3398
   13CHTO   O62 5158   6.612   5.660   1.497  1.1126  0.1569  0.4704
   13CHTO   C91 5159   6.563   5.553   1.421  0.0410 -0.5817 -0.1725
   13CHTO  H178 5160   6.642   5.486   1.387  0.1538 -0.3477 -0.3716
   13CHTO   C92 5161   6.506   5.620   1.293 -0.1278 -0.2944  0.3263
   13CHTO  H179 5162   6.455   5.713   1.322  1.9824  1.2393 -0.7607
   13CHTO   O66 5163   6.603   5.670   1.206  0.3302  0.4108 -0.1824
   13CHTO  H166 5164   6.629   5.759   1.222 -0.8612  0.2192  3.1994
   13CHTO   C93 5165   6.411   5.526   1.207 -0.1225 -0.7206  0.3086
   13CHTO  H180 5166   6.484   5.463   1.155  2.4493  0.8782  1.8669
   13CHTO   N16 5167   6.328   5.592   1.101 -0.0180  0.4750  0.5357
   13CHTO  H172 5168   6.224   5.561   1.094 -0.6270  2.5983 -0.5105
   13CHTO  H173 5169   6.331   5.699   1.119 -0.3277  0.8598 -1.5436
   13CHTO   C94 5170   6.318   5.441   1.296 -0.5185 -0.1189 -0.0935
   13CHTO  H181 5171   6.246   5.504   1.350  2.1875  0.6087  2.8284
   13CHTO   O61 5172   6.387   5.378   1.405  1.1715 -0.1257 -0.0528
   13CHTO   C95 5173   6.453   5.471   1.496  0.1511  0.5135 -0.1335
   13CHTO  H182 5174   6.378   5.542   1.531 -0.4874 -0.0555 -0.3532
   13CHTO  C106 5175   6.505   5.391   1.616  0.4718  0.2018 -0.0216
   13CHTO   O69 5176   6.605   5.297   1.590 -0.0737  0.0691 -0.2199
   13CHTO  H169 5177   6.686   5.345   1.593 -0.3483  0.5030  0.3369
   13CHTO   O63 5178   6.246   5.321   1.221 -0.7016 -0.1598  0.6098
   13CHTO   C96 5179   6.088   5.301   1.258 -0.0729 -0.0078  0.0148
   13CHTO  H183 5180   6.049   5.218   1.199 -1.4744  0.2764  0.5412
   13CHTO   C98 5181   5.998   5.416   1.228  0.0331  0.0415  0.4608
   13CHTO  H185 5182   6.023   5.512   1.276  0.2314 -0.4122  1.2705
   13CHTO   O67 5183   5.993   5.448   1.084 -0.0219 -0.5813  0.4737
   13CHTO  H167 5184   5.973   5.539   1.072 -2.5860 -1.2789 -0.9911
   13CHTO  C102 5185   5.847   5.380   1.282 -0.4426  0.0736  0.2927
   13CHTO  H189 5186   5.806   5.297   1.223 -2.1354  0.5644  0.7482
   13CHTO   N18 5187   5.752   5.493   1.274 -0.8007 -0.2230 -0.2357
   13CHTO  H176 5188   5.746   5.529   1.172  0.0734  1.9222  0.4385
   13CHTO  H177 5189   5.666   5.499   1.338 -0.0575  1.9678  0.6103
   13CHTO  C105 5190   5.858   5.341   1.433  0.9133  0.1599 -0.6028
   13CHTO  H192 5191   5.904   5.427   1.483 -0.4872  1.6602 -1.8447
   13CHTO   O65 5192   5.937   5.235   1.451 -0.0647  0.3989 -0.1678
   13CHTO  C100 5193   6.072   5.249   1.411  0.1190 -0.3357  0.0352
   13CHTO  H187 5194   6.105   5.332   1.476 -0.6196  0.6982 -0.8788
   13CHTO  C107 5195   6.156   5.124   1.432  0.1855  0.1583  0.2451
   13CHTO   O70 5196   6.180   5.103   1.573  0.0241 -0.2657  0.2095
   13CHTO  H170 5197   6.113   5.048   1.610 -0.3488  0.2254  0.2791
   13CHTO   O57 5198   5.718   5.314   1.494 -0.1730  0.1203 -0.4289
   13CHTO   C85 5199   5.651   5.189   1.478 -0.5962 -0.1987  0.6103
   13CHTO  H157 5200   5.712   5.125   1.411  1.3412  1.1480  1.0374
   13CHTO   C83 5201   5.520   5.225   1.408  0.3019 -0.1994  0.1920
   13CHTO  H155 5202   5.538   5.276   1.314 -1.2165  0.6512  0.3348
   13CHTO   O56 5203   5.451   5.326   1.483  0.0623  0.2486  0.1835
   13CHTO  H135 5204   5.426   5.292   1.566  2.1849 -3.2869 -0.5486
   13CHTO   C81 5205   5.440   5.091   1.383  0.2335  0.3064  0.1901
   13CHTO  H153 5206   5.505   5.021   1.331  1.9311  0.7639  1.6522
   13CHTO   N14 5207   5.325   5.115   1.295  0.1185  0.0558 -0.1630
   13CHTO  H141 5208   5.255   5.178   1.346 -0.3147 -1.4970  1.1857
   13CHTO  H142 5209   5.273   5.023   1.280  0.4572  0.1722 -2.2260
   13CHTO   C79 5210   5.397   5.033   1.521 -0.7890  0.0730 -0.0968
   13CHTO  H151 5211   5.360   4.933   1.499  1.1313 -0.8326  0.6870
   13CHTO   O52 5212   5.517   5.001   1.597 -0.1928 -0.3677  0.2330
   13CHTO   C86 5213   5.615   5.116   1.614  0.0080 -0.0167 -0.1537
   13CHTO  H158 5214   5.569   5.170   1.700  1.2394 -1.3236  1.3582
   13CHTO   C90 5215   5.752   5.067   1.661  0.8996 -0.2209  1.4119
   13CHTO   O60 5216   5.728   4.995   1.784  0.3590 -0.0937 -0.0481
   13CHTO  H138 5217   5.696   5.063   1.839 -0.8002  0.0111 -0.8238
   13CHTO   O50 5218   5.314   5.111   1.607 -0.6206 -0.0098 -0.3954
   13CHTO   C73 5219   5.175   5.115   1.657 -0.4000 -0.2822 -0.4718
   13CHTO  H145 5220   5.114   5.035   1.612 -2.3332  0.2077  1.1945
   13CHTO   C74 5221   5.104   5.258   1.619 -0.0091 -0.3214  0.7706
   13CHTO  H146 5222   5.107   5.275   1.510 -0.8369  0.6398  0.8971
   13CHTO   O54 5223   4.966   5.247   1.662  0.0402  0.0161  0.1241
   13CHTO  H133 5224   4.919   5.328   1.662 -2.0911 -1.1137 -3.0573
   13CHTO   C75 5225   5.184   5.367   1.696 -0.3128 -0.0549  0.8730
   13CHTO  H147 5226   5.290   5.357   1.668  0.0015 -1.6648  2.5357
   13CHTO   N13 5227   5.125   5.496   1.665  0.3076  0.0094 -0.5124
   13CHTO  H139 5228   5.095   5.502   1.562  0.6283 -1.1013 -0.6823
   13CHTO  H140 5229   5.194   5.576   1.685 -0.5316  0.8064 -0.7429
   13CHTO   C76 5230   5.190   5.347   1.851  0.7443  0.5796 -0.5923
   13CHTO  H148 5231   5.088   5.350   1.891  0.4573 -0.8155 -1.1815
   13CHTO   O49 5232   5.240   5.213   1.873  0.8626  0.3353  0.4705
   13CHTO   C77 5233   5.169   5.104   1.811 -0.2946  0.4570  0.1006
   13CHTO  H149 5234   5.066   5.103   1.848  0.2278 -3.3827  1.5853
   13CHTO   C88 5235   5.247   4.978   1.851  0.7201 -0.0276 -0.0422
   13CHTO   O58 5236   5.165   4.871   1.806 -0.0614  0.6955  0.1852
   13CHTO  H136 5237   5.207   4.787   1.803 -3.0656 -0.8695  0.5465
   13CHTO   O51 5238   5.284   5.463   1.936  0.1486 -0.8641 -0.0308
   13CHTO   C78 5239   5.431   5.506   1.908 -0.9068 -0.0175  0.0561
   13CHTO  H150 5240   5.463   5.567   1.996  0.8911 -2.2756  0.9993
   13CHTO   C80 5241   5.449   5.585   1.778 -0.7050  0.4722 -0.2380
   13CHTO  H152 5242   5.412   5.521   1.695  0.8548  0.6482 -1.0894
   13CHTO   O55 5243   5.380   5.709   1.800  0.1667  0.4782 -0.2800
   13CHTO  H134 5244   5.287   5.694   1.799  0.0407  0.9110  1.8312
   13CHTO   C84 5245   5.607   5.621   1.748 -0.1834 -0.3391  1.3768
   13CHTO  H156 5246   5.638   5.704   1.813 -2.2174  0.7847  0.9550
   13CHTO   N15 5247   5.633   5.672   1.611 -0.2940  0.6041 -0.1969
   13CHTO  H143 5248   5.644   5.778   1.619  1.5360  0.4491 -0.6109
   13CHTO  H144 5249   5.559   5.648   1.537 -1.7856 -1.2147  1.7871
   13CHTO   C87 5250   5.709   5.509   1.780 -0.0741 -0.0151 -0.3694
   13CHTO  H159 5251   5.704   5.434   1.701 -0.0560  0.7978 -1.1519
   13CHTO   O53 5252   5.662   5.428   1.912 -0.1395  0.1097 -0.9660
   13CHTO   C82 5253   5.526   5.386   1.913 -0.4092  0.1713 -0.2878
   13CHTO  H154 5254   5.518   5.333   1.818  2.1676  2.6236 -1.9622
   13CHTO   C89 5255   5.502   5.290   2.036  0.3628  0.5736  0.5957
   13CHTO   O59 5256   5.561   5.157   2.036  0.4226  0.6339  0.4285
   13CHTO  H137 5257   5.629   5.156   2.101  1.6126 -2.0569 -0.7354
   13CHTO   O45 5258   5.860   5.565   1.793  0.1824 -0.6985  0.1652
   13CHTO   C67 5259   5.957   5.462   1.792 -0.4303 -0.1786 -0.1137
   13CHTO  H124 5260   5.923   5.380   1.729  1.7984 -0.5339 -0.9103
   13CHTO   C65 5261   6.083   5.530   1.723 -0.3203 -0.4404 -0.1879
   13CHTO  H122 5262   6.053   5.585   1.633 -2.7509  1.5588  1.7769
   13CHTO   O44 5263   6.178   5.425   1.691  0.3336 -0.4925  0.2266
   13CHTO  H102 5264   6.191   5.373   1.768  0.2646 -0.6189  0.1527
   13CHTO   C63 5265   6.128   5.637   1.839  0.7880 -0.6548  0.6064
   13CHTO  H120 5266   6.049   5.705   1.868  1.0922 -0.9086  2.0881
   13CHTO   N11 5267   6.234   5.728   1.788 -0.5139  0.1161  0.0237
   13CHTO  H108 5268   6.323   5.692   1.836  0.5333  1.7611 -0.6076
   13CHTO  H109 5269   6.217   5.833   1.799  0.3462 -0.0177  3.1557
   13CHTO   C61 5270   6.168   5.561   1.968  0.9483 -0.3943  0.4784
   13CHTO  H118 5271   6.193   5.640   2.041  0.4738  0.1175  0.0979
   13CHTO   O40 5272   6.059   5.487   2.024  0.2833 -0.3712  0.0883
   13CHTO   C68 5273   5.979   5.410   1.934  0.4980  0.2221 -0.8943
   13CHTO  H125 5274   5.880   5.413   1.985  2.0603  3.6494  2.1357
   13CHTO   C72 5275   6.024   5.259   1.917  1.0779 -0.3316 -0.7530
   13CHTO   O48 5276   5.978   5.189   2.032 -0.7248  0.0631  0.1060
   13CHTO  H105 5277   5.888   5.164   2.030 -0.8743  0.5485  0.5254
   13CHTO   O38 5278   6.288   5.488   1.948 -0.6845 -0.2983 -0.3089
   13CHTO   C55 5279   6.373   5.468   2.059 -0.0393 -0.2431 -0.0803
   13CHTO  H112 5280   6.438   5.396   2.006  1.7150  1.5243 -0.3917
   13CHTO   C56 5281   6.311   5.408   2.196  0.5286  0.0879 -0.2521
   13CHTO  H113 5282   6.231   5.475   2.228 -0.0796 -0.1622 -1.2274
   13CHTO   O42 5283   6.236   5.289   2.181 -0.1932 -0.0835  0.3828
   13CHTO  H100 5284   6.298   5.219   2.174  1.0296  0.5653  3.8188
   13CHTO   C57 5285   6.418   5.402   2.314 -0.6244 -0.4680  1.5581
   13CHTO  H114 5286   6.481   5.319   2.281  0.5335  0.6313  0.9353
   13CHTO   N10 5287   6.370   5.371   2.446 -0.1044 -0.6889  0.1484
   13CHTO  H106 5288   6.264   5.390   2.454 -0.3832 -1.9621 -0.3577
   13CHTO  H107 5289   6.424   5.429   2.520 -2.4242  1.9436 -0.1180
   13CHTO   C58 5290   6.503   5.532   2.317  0.5696  0.8827 -0.1012
   13CHTO  H115 5291   6.433   5.612   2.348 -0.8173 -0.3622  0.0587
   13CHTO   O37 5292   6.560   5.573   2.195  0.3640  0.2303 -0.0233
   13CHTO   C59 5293   6.464   5.597   2.087 -0.6614  0.2741  0.9353
   13CHTO  H116 5294   6.404   5.686   2.103 -0.3082  0.4299  1.4034
   13CHTO   C70 5295   6.544   5.627   1.956 -0.1525 -0.0997  1.1334
   13CHTO   O46 5296   6.635   5.518   1.905  0.6916 -0.9307 -0.6081
   13CHTO  H103 5297   6.710   5.513   1.960  0.4106 -4.3556 -0.4481
   13CHTO   O39 5298   6.637   5.549   2.436 -0.3131 -0.1397 -0.1244
   13CHTO   C60 5299   6.698   5.675   2.433  0.4450  0.1302  0.4942
   13CHTO  H117 5300   6.708   5.700   2.327  0.8951  1.3543  0.8175
   13CHTO   C62 5301   6.620   5.786   2.510  0.3243 -0.1678 -0.3352
   13CHTO  H119 5302   6.523   5.795   2.458  0.2166  1.0227  0.0528
   13CHTO   O43 5303   6.593   5.749   2.648  0.3979  0.2744  0.1212
   13CHTO  H101 5304   6.639   5.800   2.712  0.1630 -0.4330  0.8658
   13CHTO   C66 5305   6.705   5.922   2.498  1.1397 -0.6192 -0.2091
   13CHTO  H123 5306   6.710   5.946   2.392  1.2424  0.2141 -0.0185
   13CHTO   N12 5307   6.636   6.044   2.556  0.1648 -0.3848 -0.2095
   13CHTO  H110 5308   6.697   6.132   2.542  1.4464 -0.8003  2.3564
   13CHTO  H111 5309   6.542   6.057   2.505  0.7926 -2.5454 -2.0242
   13CHTO   C69 5310   6.853   5.913   2.544  0.0347  0.1364 -0.5420
   13CHTO  H126 5311   6.854   5.902   2.655  1.4437  1.5676 -0.3934
   13CHTO   O41 5312   6.914   5.774   2.461 -0.7776  0.2957 -0.0723
   13CHTO   C64 5313   6.845   5.667   2.483  1.0109  0.1618  0.2795
   13CHTO  H121 5314   6.841   5.647   2.592  2.8983 -0.6409  0.2360
   13CHTO   C71 5315   6.930   5.559   2.423  0.3375  0.7544  0.5479
   13CHTO   O47 5316   6.902   5.435   2.490  0.2541  0.5719 -0.4567
   13CHTO  H104 5317   6.963   5.370   2.460  0.7436  0.8462 -0.0665
   13CHTO   O34 5318   6.927   6.041   2.514  0.1434  0.6335 -0.2400
   13CHTO   C49 5319   7.066   6.111   2.551  0.0205 -0.4284  0.1055
   13CHTO   H91 5320   7.143   6.035   2.554  1.3413  0.9118  0.5374
   13CHTO   C47 5321   7.057   6.173   2.695 -1.1529  0.8701  0.8031
   13CHTO   H89 5322   7.160   6.204   2.723 -1.0222 -0.0570  1.3619
   13CHTO   O33 5323   7.017   6.074   2.790  0.2562 -0.1178 -0.6997
   13CHTO   H70 5324   6.938   6.032   2.764 -1.4922  0.1278  3.8031
   13CHTO   C45 5325   6.957   6.298   2.699 -0.0136  0.3560 -0.8516
   13CHTO   H87 5326   6.861   6.266   2.742 -0.2643  3.0971  0.7127
   13CHTO    N8 5327   7.015   6.402   2.784  0.0300  0.7747 -0.1974
   13CHTO   H75 5328   6.943   6.483   2.787  0.5576  1.2554 -0.3307
   13CHTO   H76 5329   7.044   6.359   2.878 -0.2872 -0.0734 -0.4812
   13CHTO   C43 5330   6.917   6.351   2.549  0.1084  0.0600 -0.2445
   13CHTO   H85 5331   6.837   6.284   2.517  0.3551  0.4666 -1.7393
   13CHTO   O29 5332   7.027   6.352   2.454 -1.3533 -0.3436  0.1596
   13CHTO   C50 5333   7.108   6.229   2.449 -0.0345 -0.1561  1.2240
   13CHTO   H92 5334   7.114   6.184   2.349 -1.6780  0.8272  0.6563
   13CHTO   C54 5335   7.257   6.277   2.470 -0.1019  0.1691 -0.0944
   13CHTO   O36 5336   7.351   6.176   2.432 -0.3444  0.6843 -0.3637
   13CHTO   H72 5337   7.320   6.098   2.474 -2.1923  1.9306  0.7054
   13CHTO   O27 5338   6.849   6.480   2.544 -0.0128  0.5602  0.1554
   13CHTO   C37 5339   6.848   6.624   2.553  1.1434  0.9136 -0.9864
   13CHTO   H79 5340   6.886   6.655   2.651 -0.3108  1.1929 -0.5010
   13CHTO   C38 5341   6.955   6.691   2.456  0.1230 -0.3874 -0.0414
   13CHTO   H80 5342   6.943   6.652   2.354 -0.0056  1.1132 -0.6084
   13CHTO   O31 5343   7.084   6.651   2.511  0.4346  0.1173  0.9397
   13CHTO   H68 5344   7.141   6.638   2.438 -0.0678  1.1716  0.3493
   13CHTO   C39 5345   6.943   6.852   2.457  0.1008  0.0322  0.1382
   13CHTO   H81 5346   6.973   6.888   2.555 -1.2033  0.2978  0.4473
   13CHTO    N7 5347   7.028   6.919   2.347  0.8575 -0.4151 -0.2111
   13CHTO   H73 5348   7.117   6.864   2.322  3.1021  2.7816  0.3285
   13CHTO   H74 5349   7.067   7.015   2.378  2.0002 -1.4308  1.6085
   13CHTO   C40 5350   6.795   6.896   2.442 -0.3158 -0.0869 -0.1302
   13CHTO   H82 5351   6.753   6.883   2.342 -0.7746 -3.2846  0.4231
   13CHTO   O26 5352   6.721   6.825   2.539  0.2922  0.6118 -0.3300
   13CHTO   C41 5353   6.708   6.681   2.527  0.9129 -0.1572 -0.2446
   13CHTO   H83 5354   6.664   6.665   2.427 -1.7730  1.7437  0.5689
   13CHTO   C52 5355   6.608   6.633   2.639 -0.3296  0.2174  0.5077
   13CHTO   O35 5356   6.485   6.719   2.637 -0.2701  0.2831  0.6803
   13CHTO   H71 5357   6.436   6.707   2.558  2.5278  0.2545 -1.1204
   13CHTO   O28 5358   6.772   7.027   2.492  0.4874  0.5542  0.4695
   13CHTO   C42 5359   6.705   7.121   2.406 -0.5583  0.0534  1.0577
   13CHTO   H84 5360   6.724   7.093   2.302  0.9819 -1.2206  1.6763
   13CHTO   C44 5361   6.765   7.266   2.424 -0.0732 -0.5992  0.1729
   13CHTO   H86 5362   6.753   7.303   2.526  0.2569 -0.1748  0.0617
   13CHTO   O32 5363   6.907   7.253   2.394 -0.2442  0.2375 -0.5831
   13CHTO   H69 5364   6.929   7.252   2.303  0.1710 -2.7020 -0.4921
   13CHTO   C48 5365   6.698   7.381   2.348  0.4010 -0.3607 -0.6416
   13CHTO   H90 5366   6.702   7.360   2.241  0.0163  0.0188 -0.7338
   13CHTO    N9 5367   6.773   7.511   2.372 -0.0217 -0.5195 -0.0803
   13CHTO   H77 5368   6.876   7.493   2.400  0.5252  1.4611 -0.7938
   13CHTO   H78 5369   6.719   7.575   2.440  0.4895  1.1775 -1.2490
   13CHTO   C51 5370   6.546   7.380   2.389  0.5380 -0.1665 -0.2520
   13CHTO   H93 5371   6.552   7.389   2.497  2.0550  1.7929 -0.4540
   13CHTO   O30 5372   6.499   7.252   2.343 -0.3092  0.8539  0.4818
   13CHTO   C46 5373   6.558   7.142   2.423 -0.2784 -0.1049  0.1988
   13CHTO   H88 5374   6.541   7.160   2.529  1.0454  1.8031  0.0944
   13CHTO   C53 5375   6.481   7.015   2.380  0.5370  0.0540 -0.2234
   13CHTO   O72 5376   6.390   6.948   2.470  0.3217 -0.4627 -0.5266
   13CHTO  H199 5377   6.437   6.906   2.540 -1.0559 -3.0426 -1.1224
   13CHTO   O22 5378   6.481   7.490   2.326  0.1228 -0.3837 -0.3222
   13CHTO   C31 5379   6.346   7.539   2.355  0.9246  0.5720 -0.3333
   13CHTO   H59 5380   6.331   7.636   2.305  0.3692  0.3839 -0.5338
   13CHTO   C29 5381   6.232   7.450   2.305 -0.5405 -0.2204 -0.8550
   13CHTO   H57 5382   6.235   7.356   2.362  0.7613 -0.2966 -1.0342
   13CHTO   O21 5383   6.263   7.410   2.172 -0.1304  0.5106  0.1091
   13CHTO   H37 5384   6.195   7.361   2.129  3.5065 -1.3835 -3.8186
   13CHTO   C27 5385   6.093   7.520   2.326  0.0879  0.2900 -0.4790
   13CHTO   H55 5386   6.092   7.610   2.264 -1.3418 -1.0973 -2.5656
   13CHTO    N5 5387   5.976   7.428   2.286  0.3745 -0.2628  0.3863
   13CHTO   H43 5388   5.989   7.395   2.185  1.0564  3.0921 -0.6954
   13CHTO   H44 5389   5.963   7.346   2.355 -2.6503 -0.5531 -0.4686
   13CHTO   C25 5390   6.070   7.560   2.480 -0.0187 -0.4078  0.6537
   13CHTO   H53 5391   6.052   7.467   2.537 -0.1648 -0.9028 -0.1983
   13CHTO   O17 5392   6.196   7.617   2.538 -0.1157  0.0245 -0.0392
   13CHTO   C32 5393   6.326   7.565   2.509 -0.0051 -0.0169 -0.2463
   13CHTO   H60 5394   6.343   7.476   2.570  0.1700 -0.6399 -1.1882
   13CHTO   C36 5395   6.432   7.666   2.568 -0.1127  0.1802 -0.3544
   13CHTO   O25 5396   6.443   7.772   2.477  0.2884  0.2748 -0.5780
   13CHTO   H40 5397   6.364   7.805   2.440  0.3841  0.9817 -0.1589
   13CHTO   O15 5398   5.942   7.666   2.500 -0.4011 -0.0790 -0.1617
   13CHTO   C19 5399   5.822   7.739   2.458 -0.8106 -0.3544  0.4667
   13CHTO   H47 5400   5.804   7.798   2.549  1.6296  1.8195 -0.4103
   13CHTO   C20 5401   5.837   7.829   2.330 -0.5812 -0.3784 -0.1119
   13CHTO   H48 5402   5.875   7.774   2.243 -0.3567  0.2430 -0.4103
   13CHTO   O19 5403   5.916   7.941   2.373  0.1834 -0.1798  0.2297
   13CHTO   H35 5404   5.994   7.911   2.414 -0.2174  0.0366  1.1746
   13CHTO   C21 5405   5.697   7.877   2.269  0.3275  0.6059 -0.6853
   13CHTO   H49 5406   5.656   7.956   2.333  0.4057  0.0563  0.0595
   13CHTO    N4 5407   5.711   7.943   2.135  0.5255 -0.1504  0.1021
   13CHTO   H41 5408   5.800   7.998   2.107  0.3460  0.5893  0.9595
   13CHTO   H42 5409   5.626   8.001   2.102  0.1321  0.5385  2.2435
   13CHTO   C22 5410   5.588   7.761   2.277 -0.0003 -0.2550 -0.4426
   13CHTO   H50 5411   5.628   7.683   2.214 -0.1056 -0.6191 -0.0647
   13CHTO   O14 5412   5.585   7.703   2.411  0.1703 -0.1536 -0.2996
   13CHTO   C23 5413   5.709   7.633   2.444 -0.0276  0.0105 -0.3839
   13CHTO   H51 5414   5.728   7.555   2.368 -2.6026 -0.5049 -0.5536
   13CHTO   C34 5415   5.671   7.556   2.570  0.8936 -0.1130 -1.1984
   13CHTO   O23 5416   5.643   7.642   2.672 -0.0295 -0.4025 -0.1950
   13CHTO   H38 5417   5.631   7.587   2.747  0.2854 -2.1892 -1.4123
   13CHTO   O16 5418   5.455   7.812   2.249 -0.1905 -0.1124  0.1785
   13CHTO   C24 5419   5.324   7.733   2.277  0.5258 -0.2688  0.3869
   13CHTO   H52 5420   5.320   7.685   2.375 -1.4532 -0.4798  0.2387
   13CHTO   C26 5421   5.297   7.633   2.164 -0.2817 -0.2333  0.3621
   13CHTO   H54 5422   5.285   7.688   2.068  1.0367 -2.7495 -1.3065
   13CHTO   O20 5423   5.412   7.546   2.164 -0.0962 -0.8333  0.1273
   13CHTO   H36 5424   5.384   7.461   2.192 -1.8443 -0.2910  0.0593
   13CHTO   C30 5425   5.162   7.563   2.193  0.5269 -0.3705 -0.1249
   13CHTO   H58 5426   5.164   7.505   2.286 -0.2681  0.9089  0.7014
   13CHTO    N6 5427   5.122   7.478   2.075  0.4495 -0.2576  0.7592
   13CHTO   H45 5428   5.126   7.530   1.980 -2.0853 -0.8310  0.3212
   13CHTO   H46 5429   5.185   7.391   2.070  0.3451 -0.5182  3.5789
   13CHTO   C33 5430   5.047   7.668   2.217 -0.6605  0.2186 -0.9659
   13CHTO   H61 5431   5.028   7.725   2.125  2.1512  1.2458 -0.9683
   13CHTO   O18 5432   5.090   7.759   2.317  0.2960 -0.4847  0.1352
   13CHTO   C28 5433   5.205   7.828   2.280 -0.8566 -0.0223  0.0435
   13CHTO   H56 5434   5.190   7.872   2.181  0.5258 -0.2356 -0.2652
   13CHTO   C35 5435   5.220   7.932   2.386  0.4261 -0.8989  0.0912
   13CHTO   O24 5436   5.110   8.030   2.376  0.1443  0.2942 -0.2838
   13CHTO   H39 5437   5.038   8.013   2.434 -1.0922  0.6570 -1.6489
   13CHTO    O9 5438   4.921   7.608   2.254 -0.1858 -0.4934 -0.3090
   13CHTO   C13 5439   4.912   7.526   2.403 -0.1536 -0.4896 -0.4172
   13CHTO   H26 5440   5.004   7.544   2.463 -1.2091  1.8705  0.5589
   13CHTO   C11 5441   4.891   7.380   2.370 -0.3950  0.2487  0.1184
   13CHTO   H24 5442   4.990   7.343   2.340  1.0328  2.0690  2.4086
   13CHTO    O8 5443   4.790   7.372   2.271  0.2990  0.3586 -0.0012
   13CHTO    H3 5444   4.749   7.288   2.259 -0.0412  0.6586 -0.9567
   13CHTO    C9 5445   4.853   7.309   2.502 -0.2090  0.3287 -0.5814
   13CHTO   H22 5446   4.929   7.331   2.578  1.2525 -1.1583 -1.5790
   13CHTO    N2 5447   4.863   7.159   2.495  0.4015  0.3704  0.3752
   13CHTO   H10 5448   4.853   7.113   2.398  1.5139  0.7181  0.0855
   13CHTO   H11 5449   4.956   7.123   2.536  0.3893  0.4018  0.4318
   13CHTO    C7 5450   4.710   7.352   2.552 -0.7502  0.1000 -0.3743
   13CHTO   H20 5451   4.714   7.367   2.661 -3.6675  2.5120 -0.5359
   13CHTO    O4 5452   4.675   7.484   2.497  0.6309  0.9056  0.1523
   13CHTO   C14 5453   4.785   7.577   2.488 -0.6023  0.5827 -0.2449
   13CHTO   H27 5454   4.815   7.587   2.594 -1.3984  0.3018  0.0146
   13CHTO   C18 5455   4.730   7.720   2.447  0.1693 -0.1460  0.1409
   13CHTO   O13 5456   4.825   7.823   2.487 -0.2318 -0.0397  0.1066
   13CHTO    H7 5457   4.819   7.904   2.439 -0.6771 -0.1550 -0.0385
   13CHTO    O2 5458   4.569   7.235   2.520 -0.5632  0.7517 -0.4754
   13CHTO    C1 5459   4.479   7.227   2.638 -0.0131 -0.3883  0.3883
   13CHTO   H14 5460   4.404   7.148   2.615 -0.0062 -0.7371  1.5283
   13CHTO    C2 5461   4.406   7.364   2.686 -0.1255  0.0811  0.0645
   13CHTO   H15 5462   4.492   7.427   2.715 -2.2997  3.1598 -0.0368
   13CHTO    O6 5463   4.331   7.412   2.572 -0.3117  0.5170  0.0742
   13CHTO    H1 5464   4.272   7.478   2.604 -1.9980 -1.7396  1.8241
   13CHTO    C3 5465   4.335   7.351   2.824  0.5204  0.5109 -0.5565
   13CHTO   H16 5466   4.249   7.284   2.817 -0.0817  1.1932  0.1600
   13CHTO    N1 5467   4.288   7.483   2.884 -0.0045 -0.2612 -0.4773
   13CHTO    H8 5468   4.211   7.516   2.816  0.4885  2.0942  0.0738
   13CHTO    H9 5469   4.233   7.455   2.973  1.6613 -1.3358  0.2388
   13CHTO    C4 5470   4.420   7.270   2.931  0.0092 -0.4226  0.1925
   13CHTO   H17 5471   4.507   7.327   2.963 -1.0465 -0.4846  3.3689
   13CHTO    O1 5472   4.458   7.146   2.869 -0.3629 -0.0946  0.1482
   13CHTO    C5 5473   4.557   7.161   2.762 -0.5011  0.2135  0.0524
   13CHTO   H18 5474   4.636   7.231   2.788  1.3443 -1.3060 -1.3567
   13CHTO   C16 5475   4.624   7.026   2.727  0.0069  0.2168  0.3637
   13CHTO   O11 5476   4.708   6.991   2.835 -0.4707 -0.3186 -0.0814
   13CHTO    H5 5477   4.777   7.054   2.845  1.4491 -2.0602 -1.9144
   13CHTO    O3 5478   4.343   7.235   3.049 -0.2482  0.6394 -0.0315
   13CHTO    C6 5479   4.263   7.120   3.063 -0.2605  0.2120 -0.0591
   13CHTO   H19 5480   4.233   7.077   2.967  0.1041  0.8046 -0.4384
   13CHTO    C8 5481   4.339   7.015   3.148 -0.0333 -0.3235  0.3022
   13CHTO   H21 5482   4.370   7.064   3.241  0.1252  1.5191 -0.6946
   13CHTO    O7 5483   4.459   6.978   3.080 -0.1583 -0.3464  0.1161
   13CHTO    H2 5484   4.519   7.050   3.084  1.2099 -1.3556 -1.3340
   13CHTO   C12 5485   4.255   6.881   3.187 -0.1623  0.3191  0.8680
   13CHTO   H25 5486   4.240   6.823   3.094 -1.6176 -0.1224  1.3685
   13CHTO    N3 5487   4.328   6.792   3.286 -0.0621 -0.2462 -0.3276
   13CHTO   H12 5488   4.311   6.822   3.389  0.0436 -0.7081 -0.1760
   13CHTO   H13 5489   4.433   6.789   3.262  0.1662 -2.2757  0.8046
   13CHTO   C15 5490   4.113   6.924   3.242  0.6361  0.1809  0.2439
   13CHTO   H28 5491   4.118   6.969   3.341  0.1808  2.2622 -0.6496
   13CHTO   O10 5492   3.999   6.815   3.239  0.2559  0.1228 -0.3443
   13CHTO    H4 5493   3.918   6.858   3.261 -0.2382 -0.3094 -1.2659
   13CHTO    O5 5494   4.059   7.019   3.149 -0.2308 -0.1754  0.4533
   13CHTO   C10 5495   4.128   7.146   3.138 -1.1065 -0.7443  0.6932
   13CHTO   H23 5496   4.149   7.186   3.238 -0.5512  0.6446  0.0314
   13CHTO   C17 5497   4.048   7.255   3.068  0.8440  0.2267  0.3691
   13CHTO   O12 5498   4.014   7.211   2.934 -0.2530 -0.1711 -0.8640
   13CHTO    H6 5499   3.934   7.240   2.896  0.0830 -0.2260 -1.6165
   14CHTO  H203 5500   6.910   4.957   1.625 -0.9880  1.1192 -1.7909
   14CHTO   O82 5501   6.847   5.008   1.671 -0.2397  0.4250  0.0557
   14CHTO  C123 5502   6.717   4.945   1.669  0.7826 -0.0015 -0.7388
   14CHTO  H227 5503   6.653   5.005   1.736 -0.1697  0.6319 -2.1713
   14CHTO   O77 5504   6.670   4.965   1.535 -0.0384  0.4316  0.1378
   14CHTO  C118 5505   6.542   4.903   1.503  0.1324  0.0442  0.2714
   14CHTO  H222 5506   6.460   4.952   1.558 -0.1946 -1.2403  0.9667
   14CHTO  C125 5507   6.514   4.929   1.339 -0.3819  0.5145 -0.1592
   14CHTO   O84 5508   6.495   5.069   1.312 -0.0793  0.2460  0.3609
   14CHTO  H205 5509   6.516   5.090   1.223  1.4746 -1.7715  0.2071
   14CHTO  C114 5510   6.538   4.755   1.531  0.0088  0.5654  0.0526
   14CHTO  H218 5511   6.621   4.708   1.478 -0.1944  1.8840 -1.4567
   14CHTO  C116 5512   6.570   4.735   1.683  0.7455  0.3151  0.7169
   14CHTO  H220 5513   6.495   4.787   1.746  1.0266 -0.9191  2.1074
   14CHTO   O79 5514   6.561   4.594   1.721 -0.1362 -0.2172 -0.2765
   14CHTO  H201 5515   6.583   4.595   1.812 -0.8500 -0.9229 -0.0855
   14CHTO  C120 5516   6.711   4.793   1.709 -0.1033 -0.5035 -0.4155
   14CHTO  H224 5517   6.781   4.742   1.639 -1.5657 -2.7544 -0.2799
   14CHTO   N21 5518   6.772   4.770   1.842  0.3042  0.2832 -0.6019
   14CHTO  H211 5519   6.878   4.754   1.825 -0.3017 -2.8689 -1.6782
   14CHTO  H212 5520   6.769   4.861   1.899  0.7314 -0.4437  0.5903
   14CHTO   O75 5521   6.425   4.690   1.482 -0.0887 -0.8987  0.0299
   14CHTO  C112 5522   6.274   4.711   1.546 -0.0049  0.2797 -0.0180
   14CHTO  H216 5523   6.252   4.819   1.551 -3.0259 -0.3177  0.3565
   14CHTO   O73 5524   6.279   4.652   1.676  0.3596 -0.8858  0.1144
   14CHTO  C113 5525   6.151   4.657   1.746 -0.5624  0.2800 -0.1419
   14CHTO  H217 5526   6.108   4.758   1.762  0.4065  1.1225 -2.6402
   14CHTO  C124 5527   6.184   4.608   1.886  0.3431 -0.0243 -0.4653
   14CHTO   O83 5528   6.240   4.475   1.897  0.2444 -0.5826 -0.2828
   14CHTO  H204 5529   6.327   4.473   1.862  0.2133  2.1403 -0.6119
   14CHTO  C109 5530   6.053   4.568   1.663  0.5295 -0.3541 -0.1517
   14CHTO  H213 5531   6.087   4.463   1.663  1.8178  0.0555  0.3685
   14CHTO  C110 5532   6.038   4.634   1.518 -0.2221  0.9343  0.7036
   14CHTO  H214 5533   5.986   4.729   1.523 -3.7803 -0.6530 -2.8580
   14CHTO   O78 5534   5.947   4.561   1.446  0.0635 -0.1752  0.2276
   14CHTO  H200 5535   5.862   4.556   1.486 -0.2884  2.0670 -0.1751
   14CHTO  C111 5536   6.177   4.639   1.448  0.1986  0.7111 -0.1984
   14CHTO  H215 5537   6.214   4.536   1.435  0.0272  0.6229  0.0033
   14CHTO   N19 5538   6.173   4.704   1.316 -0.0646  0.1724  0.6867
   14CHTO  H207 5539   6.214   4.642   1.237 -0.8750 -0.8393  1.0441
   14CHTO  H208 5540   6.085   4.762   1.295 -0.6021 -0.3950  1.3659
   14CHTO   O74 5541   5.930   4.570   1.740 -0.5117 -0.6376 -0.2370
   14CHTO  C115 5542   5.830   4.453   1.717 -0.1341  0.2579  0.3906
   14CHTO  H219 5543   5.836   4.416   1.615  0.4937  2.9109 -0.5540
   14CHTO   O76 5544   5.866   4.335   1.805  0.2257 -0.6271 -0.1364
   14CHTO  C122 5545   5.792   4.213   1.784  0.7116 -0.0793  0.1638
   14CHTO  H226 5546   5.816   4.150   1.869 -0.1459  0.6984  1.0026
   14CHTO  C126 5547   5.837   4.130   1.659 -0.2535 -0.5876 -0.5429
   14CHTO   O85 5548   5.968   4.087   1.661  0.3814 -0.2323 -0.7955
   14CHTO  H206 5549   5.990   4.048   1.743 -0.1046  1.8727  0.3582
   14CHTO  C121 5550   5.630   4.246   1.784 -0.4538  0.6520  0.0770
   14CHTO  H225 5551   5.587   4.150   1.748 -1.7246  1.1370  0.3006
   14CHTO   O81 5552   5.589   4.268   1.915  0.2149 -0.0717 -0.7084
   14CHTO  H202 5553   5.649   4.300   1.980 -1.2372  0.7046  0.2773
   14CHTO  C119 5554   5.597   4.368   1.693 -1.0592 -0.5056  0.1902
   14CHTO  H223 5555   5.640   4.341   1.596  2.0278  3.2565  0.3846
   14CHTO  C117 5556   5.682   4.495   1.733 -0.9162  0.3073  0.7296
   14CHTO  H221 5557   5.677   4.524   1.838  0.3682  1.2440  0.5481
   14CHTO   N20 5558   5.638   4.621   1.662  0.2588  0.2647  0.5147
   14CHTO  H209 5559   5.681   4.703   1.717  0.6816  1.3105 -1.3542
   14CHTO  H210 5560   5.531   4.632   1.652  0.0983 -0.2346  1.5854
   14CHTO   O80 5561   5.440   4.376   1.658  0.8396  0.1027 -0.3555
   14CHTO  C103 5562   5.389   4.353   1.518 -0.0114  0.7149 -0.3026
   14CHTO  H190 5563   5.452   4.395   1.439  0.6055 -0.5453 -0.5133
   14CHTO  C101 5564   5.361   4.199   1.491 -0.6224 -0.2455  0.0097
   14CHTO  H188 5565   5.297   4.159   1.570 -1.1455  0.0615 -0.2546
   14CHTO   O68 5566   5.487   4.111   1.485  0.1204  0.4632 -0.0226
   14CHTO  H168 5567   5.575   4.138   1.498  0.2355 -0.7332  1.8967
   14CHTO   C99 5568   5.289   4.185   1.346  0.8872 -0.0133 -0.6577
   14CHTO  H186 5569   5.347   4.243   1.271 -2.7065  2.8045 -1.3809
   14CHTO   N17 5570   5.265   4.042   1.296  0.0953 -0.1938 -0.4212
   14CHTO  H174 5571   5.177   4.019   1.354  1.6165  0.0890  2.0941
   14CHTO  H175 5572   5.344   3.976   1.329 -3.1053 -3.3213  1.3286
   14CHTO   C97 5573   5.158   4.268   1.357  0.2753  0.1444 -0.5472
   14CHTO  H184 5574   5.095   4.224   1.435  0.1578  2.7342  0.8590
   14CHTO   O64 5575   5.193   4.405   1.386  0.4848  0.3582  0.1372
   14CHTO  C104 5576   5.252   4.433   1.509  0.3021 -0.1221 -0.7369
   14CHTO  H191 5577   5.190   4.413   1.597  0.4006  0.9555 -0.4114
   14CHTO  C108 5578   5.284   4.586   1.519 -0.0449  0.1450 -0.0091
   14CHTO   O71 5579   5.167   4.644   1.578  0.2347  0.0885 -0.0550
   14CHTO  H171 5580   5.191   4.679   1.662  1.4884  2.9210 -1.5203
   14CHTO   O62 5581   5.095   4.290   1.234  0.7932 -0.0587 -0.1592
   14CHTO   C91 5582   4.948   4.307   1.232 -0.1514  0.4991  0.2615
   14CHTO  H178 5583   4.899   4.217   1.270 -1.1739  1.3774  1.0746
   14CHTO   C92 5584   4.905   4.308   1.078  0.2541 -0.1877 -0.1346
   14CHTO  H179 5585   4.951   4.225   1.023  0.0231  0.4290 -1.2752
   14CHTO   O66 5586   4.768   4.271   1.078  0.5221 -0.2752 -0.3564
   14CHTO  H166 5587   4.717   4.334   1.126 -0.2407  0.1824 -1.7357
   14CHTO   C93 5588   4.924   4.451   1.015  0.0422 -0.1606  0.1935
   14CHTO  H180 5589   4.860   4.454   0.925  0.9613 -3.0494 -0.6057
   14CHTO   N16 5590   5.060   4.474   0.969  0.0642  0.0747 -0.7273
   14CHTO  H172 5591   5.115   4.460   1.061  1.3943  0.8805 -1.3810
   14CHTO  H173 5592   5.095   4.404   0.894  0.2938  0.7307 -1.2362
   14CHTO   C94 5593   4.879   4.568   1.116 -0.4646  0.3126  0.4569
   14CHTO  H181 5594   4.964   4.628   1.149  0.4171 -1.5287  1.6100
   14CHTO   O61 5595   4.811   4.519   1.235  0.1482  0.0712 -0.0451
   14CHTO   C95 5596   4.900   4.435   1.311 -0.3516 -0.0559  1.0018
   14CHTO  H182 5597   4.990   4.490   1.339  0.4754 -1.3377  0.8741
   14CHTO  C106 5598   4.823   4.398   1.440 -0.7105 -0.1234 -0.3431
   14CHTO   O69 5599   4.748   4.514   1.498 -0.1261  0.1267 -0.5177
   14CHTO  H169 5600   4.664   4.517   1.457  0.1779  0.2950 -1.1292
   14CHTO   O63 5601   4.782   4.664   1.034 -0.2097  0.4890 -0.5423
   14CHTO   C96 5602   4.814   4.823   1.068  0.0345  0.1537  0.1188
   14CHTO  H183 5603   4.739   4.886   1.020  0.2530  0.2354 -0.1207
   14CHTO   C98 5604   4.959   4.862   1.021  0.0902 -0.5932 -0.2607
   14CHTO  H185 5605   5.036   4.800   1.070  0.6694  0.7241  0.5288
   14CHTO   O67 5606   4.964   4.823   0.884 -0.3486  0.2172 -0.3544
   14CHTO  H167 5607   5.004   4.739   0.871 -1.9505 -0.6014 -0.0841
   14CHTO  C102 5608   4.977   5.021   1.052 -0.2065 -0.4777  0.3715
   14CHTO  H189 5609   4.899   5.067   0.989 -0.7766 -0.8581  0.7976
   14CHTO   N18 5610   5.106   5.079   1.007  0.4307 -0.1761 -0.4657
   14CHTO  H176 5611   5.124   5.038   0.909  0.2543  0.7694 -0.8971
   14CHTO  H177 5612   5.092   5.185   0.990  1.8619  0.2173  0.7425
   14CHTO  C105 5613   4.941   5.046   1.202 -0.6565 -0.4586 -0.2903
   14CHTO  H192 5614   5.018   5.005   1.267 -0.4320 -1.2803 -1.0711
   14CHTO   O65 5615   4.819   4.989   1.254  0.3288 -0.0991 -0.3187
   14CHTO  C100 5616   4.813   4.850   1.226  0.0979 -0.2511 -0.3946
   14CHTO  H187 5617   4.896   4.802   1.280 -0.6303  1.3573  2.2011
   14CHTO  C107 5618   4.684   4.797   1.282  0.6991  0.2629 -0.0830
   14CHTO   O70 5619   4.573   4.876   1.227 -0.0130  0.0603 -0.6154
   14CHTO  H170 5620   4.552   4.951   1.280 -1.9852 -1.2702  0.5421
   14CHTO   O57 5621   4.949   5.208   1.226 -0.7217 -0.2249 -0.0271
   14CHTO   C85 5622   4.828   5.287   1.203  0.0543 -0.1933 -0.0340
   14CHTO  H157 5623   4.746   5.221   1.168 -1.7262  0.4970  2.6040
   14CHTO   C83 5624   4.848   5.379   1.073  0.3040  0.3600  0.1855
   14CHTO  H155 5625   4.853   5.308   0.991  0.3266 -1.7309  1.9621
   14CHTO   O56 5626   4.985   5.432   1.083  0.2593 -0.1523  0.0542
   14CHTO  H135 5627   5.036   5.357   1.104 -0.8096 -1.2164 -1.0575
   14CHTO   C81 5628   4.731   5.482   1.056  0.0402  0.0296  0.5827
   14CHTO  H153 5629   4.641   5.422   1.042  0.1088  0.0992 -0.1922
   14CHTO   N14 5630   4.740   5.561   0.932  0.5280 -0.2483 -0.2181
   14CHTO  H141 5631   4.663   5.546   0.860 -0.7014 -0.4863  1.1323
   14CHTO  H142 5632   4.833   5.584   0.884  0.2370  1.9592  0.2264
   14CHTO   C79 5633   4.710   5.570   1.182  1.1251  0.0982  0.1446
   14CHTO  H151 5634   4.620   5.629   1.167  1.2842 -0.0659 -1.5210
   14CHTO   O52 5635   4.683   5.480   1.295 -0.6365  0.2886 -0.2733
   14CHTO   C86 5636   4.783   5.377   1.328  0.1294  0.5083  0.3936
   14CHTO  H158 5637   4.867   5.436   1.371  1.9028 -0.9071 -1.0674
   14CHTO   C90 5638   4.719   5.287   1.441  0.2472 -0.2439 -0.4337
   14CHTO   O60 5639   4.602   5.214   1.394 -0.3701  0.2466 -0.2727
   14CHTO  H138 5640   4.554   5.169   1.461 -0.8446  1.2288  0.0558
   14CHTO   O50 5641   4.817   5.665   1.211  0.4776  0.2724 -0.2746
   14CHTO   C73 5642   4.785   5.801   1.244  0.0940 -0.1777  0.6152
   14CHTO  H145 5643   4.685   5.815   1.287 -0.2405  2.4400 -0.9222
   14CHTO   C74 5644   4.788   5.886   1.118 -0.2913 -0.5028 -0.1342
   14CHTO  H146 5645   4.710   5.844   1.053 -0.3965  1.1419 -1.0747
   14CHTO   O54 5646   4.743   6.020   1.164 -0.2163 -0.5900 -0.6849
   14CHTO  H133 5647   4.654   6.020   1.192 -0.0139  2.8433  0.1076
   14CHTO   C75 5648   4.931   5.874   1.055  0.0463  0.3235  0.2321
   14CHTO  H147 5649   4.947   5.771   1.021 -2.5047  0.6320 -2.0555
   14CHTO   N13 5650   4.943   5.952   0.930  0.6152  0.1646 -1.1377
   14CHTO  H139 5651   5.045   5.949   0.896  1.2785  1.7613  0.6818
   14CHTO  H140 5652   4.905   6.052   0.939  0.6590  0.2962 -2.3327
   14CHTO   C76 5653   5.031   5.921   1.166 -0.9381  0.2536 -0.9029
   14CHTO  H148 5654   5.018   6.025   1.193  0.1749 -0.3277  2.0063
   14CHTO   O49 5655   5.013   5.850   1.296 -0.5585  0.0963 -0.2590
   14CHTO   C77 5656   4.883   5.851   1.349  0.0617  0.2968 -0.8702
   14CHTO  H149 5657   4.865   5.957   1.363 -0.9748  0.2404 -1.7043
   14CHTO   C88 5658   4.887   5.773   1.484  0.4324 -0.0969  0.4648
   14CHTO   O58 5659   4.751   5.792   1.555  0.4629  0.2032 -0.5705
   14CHTO  H136 5660   4.685   5.742   1.511  1.4129 -0.0533 -1.7332
   14CHTO   O51 5661   5.178   5.884   1.131 -0.3806 -0.0364 -0.2625
   14CHTO   C78 5662   5.288   5.960   1.205 -0.3654 -0.0147  0.7183
   14CHTO  H150 5663   5.260   6.000   1.304  1.3269  2.0113  0.4270
   14CHTO   C80 5664   5.329   6.079   1.119 -0.1943  0.4767  0.0569
   14CHTO  H152 5665   5.301   6.050   1.015 -0.4596 -0.0790  0.2822
   14CHTO   O55 5666   5.251   6.192   1.165  0.0255  0.3413  0.0252
   14CHTO  H134 5667   5.165   6.169   1.193 -0.1740  2.3604  1.1471
   14CHTO   C84 5668   5.477   6.129   1.125 -0.3025  0.1237 -0.7745
   14CHTO  H156 5669   5.497   6.174   1.223  0.1416 -0.6223 -0.5206
   14CHTO   N15 5670   5.526   6.222   1.016 -0.0846  0.1109  0.4907
   14CHTO  H143 5671   5.517   6.185   0.916 -1.5003  1.4509  0.0971
   14CHTO  H144 5672   5.477   6.317   1.028  0.6390  0.3183  1.8651
   14CHTO   C87 5673   5.566   6.003   1.129  0.3508 -0.6350 -0.2529
   14CHTO  H159 5674   5.563   5.941   1.040 -0.3810  0.0433 -0.7009
   14CHTO   O53 5675   5.530   5.926   1.235  0.1438  0.1652  0.4218
   14CHTO   C82 5676   5.405   5.861   1.222 -0.2322 -0.5545  0.6316
   14CHTO  H154 5677   5.416   5.786   1.144  1.1723 -0.0280  0.3228
   14CHTO   C89 5678   5.382   5.777   1.350  0.0085 -0.1094 -0.1276
   14CHTO   O59 5679   5.278   5.690   1.316  0.1755  0.2904 -0.7799
   14CHTO  H137 5680   5.251   5.622   1.375 -1.2547  0.7070 -0.9402
   14CHTO   O45 5681   5.723   6.042   1.156  0.6320  0.3962 -0.1091
   14CHTO   C67 5682   5.813   5.942   1.108 -0.2682  0.5497 -0.4675
   14CHTO  H124 5683   5.773   5.840   1.103 -0.6537  0.5149  2.5873
   14CHTO   C65 5684   5.869   5.974   0.970  0.0736 -0.3190  0.0451
   14CHTO  H122 5685   5.779   5.993   0.912  0.5427  2.2985  0.1056
   14CHTO   O44 5686   5.944   5.870   0.910 -0.1015  0.4550 -0.3062
   14CHTO  H102 5687   6.032   5.867   0.942  0.4344  1.7502 -1.6050
   14CHTO   C63 5688   5.942   6.111   0.980  0.0518 -0.0102  0.4815
   14CHTO  H120 5689   5.869   6.185   1.014 -0.8351  0.0079 -1.3927
   14CHTO   N11 5690   5.979   6.183   0.852 -0.6501 -0.3647  0.7536
   14CHTO  H108 5691   6.075   6.230   0.849 -0.7635 -0.1857 -1.3796
   14CHTO  H109 5692   5.971   6.118   0.767 -1.8237 -1.3652  1.6184
   14CHTO   C61 5693   6.060   6.102   1.079  0.4350 -0.1380  0.8104
   14CHTO  H118 5694   6.111   6.197   1.098  0.3678  0.2388 -0.8464
   14CHTO   O40 5695   6.023   6.047   1.208 -0.0717 -0.5495 -0.3736
   14CHTO   C68 5696   5.918   5.939   1.219 -0.7227 -0.0569 -0.0912
   14CHTO  H125 5697   5.872   5.951   1.319 -1.3736  1.7861 -0.5896
   14CHTO   C72 5698   5.993   5.800   1.221  0.1650  0.8752  0.0330
   14CHTO   O48 5699   6.061   5.766   1.342  0.6963 -0.1793  0.5232
   14CHTO  H105 5700   6.015   5.695   1.383  1.0563 -0.3759  0.5928
   14CHTO   O38 5701   6.163   6.003   1.040  0.4617 -0.0215  1.1160
   14CHTO   C55 5702   6.294   6.036   0.996  0.0791 -0.3668 -0.2979
   14CHTO  H112 5703   6.296   6.144   0.977  2.3892 -0.4685 -0.8417
   14CHTO   C56 5704   6.336   5.947   0.865 -0.5519  0.3212 -0.4412
   14CHTO  H113 5705   6.297   5.845   0.875  0.3690  0.1172  1.1480
   14CHTO   O42 5706   6.275   5.997   0.744  0.3190 -0.0747  0.4782
   14CHTO  H100 5707   6.192   5.954   0.737 -0.1907  0.7931  1.2180
   14CHTO   C57 5708   6.496   5.930   0.839 -0.2879  0.8045 -0.6057
   14CHTO  H114 5709   6.520   6.011   0.770  1.8592 -0.1112 -0.9806
   14CHTO   N10 5710   6.535   5.815   0.760  0.7106 -0.2382 -0.4870
   14CHTO  H106 5711   6.630   5.814   0.709  1.7758  0.1514  1.4274
   14CHTO  H107 5712   6.519   5.728   0.822 -1.4509 -0.8884 -1.8991
   14CHTO   C58 5713   6.584   5.942   0.964  0.4089 -0.5509 -0.1071
   14CHTO  H115 5714   6.585   5.845   1.018 -1.1267  0.3782  1.6728
   14CHTO   O37 5715   6.539   6.031   1.066  0.3688 -0.7662  0.5125
   14CHTO   C59 5716   6.400   6.001   1.105  0.4983 -0.1912  0.2014
   14CHTO  H116 5717   6.391   5.894   1.122 -0.7096 -0.0751  0.3575
   14CHTO   C70 5718   6.378   6.078   1.236 -0.3869  0.1196  0.1391
   14CHTO   O46 5719   6.433   6.004   1.346  0.3894 -0.0079 -0.0535
   14CHTO  H103 5720   6.357   5.982   1.397  0.8946 -0.9890  0.2881
   14CHTO   O39 5721   6.738   5.982   0.913  0.2245  0.3120 -0.7223
   14CHTO   C60 5722   6.845   5.953   1.002  0.3764 -0.0156  0.2815
   14CHTO  H117 5723   6.809   5.975   1.103 -0.2582 -0.6342  0.1984
   14CHTO   C62 5724   6.872   5.796   1.002  0.0394 -1.0762  0.6337
   14CHTO  H119 5725   6.790   5.742   1.054 -1.1269 -0.7040 -0.7857
   14CHTO   O43 5726   6.876   5.761   0.864  0.6009  0.4200  0.3730
   14CHTO  H101 5727   6.848   5.673   0.847  1.6337  0.6101 -2.6706
   14CHTO   C66 5728   6.999   5.764   1.092 -0.3489  0.1344  0.0713
   14CHTO  H123 5729   6.998   5.815   1.188  1.2311  0.4632 -0.0710
   14CHTO   N12 5730   7.027   5.624   1.113 -0.5567  0.2298 -0.1975
   14CHTO  H110 5731   7.133   5.607   1.105 -0.5985 -1.7002  2.5054
   14CHTO  H111 5732   6.993   5.606   1.214  1.5687  1.6641  0.8022
   14CHTO   C69 5733   7.120   5.847   1.037  0.2544 -0.5700 -0.4961
   14CHTO  H126 5734   7.131   5.835   0.927 -0.3108  0.0407 -0.6276
   14CHTO   O41 5735   7.085   6.009   1.078  0.0486  0.7207  0.0623
   14CHTO   C64 5736   6.965   6.050   0.976 -0.1288  0.5512  0.9738
   14CHTO  H121 5737   7.010   6.044   0.875  2.6209 -0.1310  2.1993
   14CHTO   C71 5738   6.916   6.192   1.012 -0.0758 -0.4673  0.0392
   14CHTO   O47 5739   6.819   6.247   0.920  0.1459  0.3513 -0.2352
   14CHTO  H104 5740   6.759   6.305   0.963  1.4814  4.0336 -3.0251
   14CHTO   O34 5741   7.252   5.818   1.107 -0.1292 -0.4282 -0.4481
   14CHTO   C49 5742   7.374   5.820   1.012  0.3911  0.4433  0.5157
   14CHTO   H91 5743   7.355   5.747   0.933  3.1058 -0.6219  0.7808
   14CHTO   C47 5744   7.497   5.781   1.097 -0.7497 -0.0454 -0.1724
   14CHTO   H89 5745   7.580   5.791   1.024 -0.5960  2.0803  0.2662
   14CHTO   O33 5746   7.491   5.640   1.137 -0.4337  0.5518 -0.1750
   14CHTO   H70 5747   7.555   5.622   1.204  1.0358  1.5165 -1.2742
   14CHTO   C45 5748   7.519   5.879   1.228  0.1909 -0.4065 -0.2159
   14CHTO   H87 5749   7.467   5.842   1.318  0.8017 -2.1326 -0.5471
   14CHTO    N8 5750   7.661   5.880   1.265  0.0324  1.1519  0.3843
   14CHTO   H75 5751   7.669   5.892   1.372 -0.0889 -0.9012  0.6583
   14CHTO   H76 5752   7.710   5.962   1.216  0.1259  0.7561 -0.1948
   14CHTO   C43 5753   7.435   6.018   1.189  0.0429  1.1870  0.4937
   14CHTO   H85 5754   7.328   5.995   1.197 -0.3100  2.2047 -1.1382
   14CHTO   O29 5755   7.472   6.054   1.052 -0.2574 -0.5702  0.4373
   14CHTO   C50 5756   7.413   5.958   0.957  0.2826  0.9831 -0.6968
   14CHTO   H92 5757   7.326   6.013   0.921 -1.0587  1.6161  3.2706
   14CHTO   C54 5758   7.509   5.951   0.835  0.5479 -0.0661  0.3030
   14CHTO   O36 5759   7.504   6.063   0.741 -0.0931  0.6377 -0.0576
   14CHTO   H72 5760   7.461   6.027   0.666 -0.8212  2.7800 -0.7086
   14CHTO   O27 5761   7.458   6.127   1.274 -0.1571 -0.1052 -0.5814
   14CHTO   C37 5762   7.371   6.216   1.352  0.1110 -0.0347 -0.2419
   14CHTO   H79 5763   7.436   6.277   1.417  1.0992 -0.3095 -0.9487
   14CHTO   C38 5764   7.295   6.309   1.261  0.4091 -0.4036 -0.3789
   14CHTO   H80 5765   7.250   6.244   1.185 -0.8317  1.4248 -1.2387
   14CHTO   O31 5766   7.388   6.387   1.197 -0.1969 -0.1273  0.2392
   14CHTO   H68 5767   7.338   6.434   1.132 -1.1718  1.5336  2.1196
   14CHTO   C39 5768   7.182   6.388   1.336  0.7350 -0.4165  0.7930
   14CHTO   H81 5769   7.239   6.459   1.396  1.2381  1.3869 -1.6919
   14CHTO    N7 5770   7.088   6.467   1.241 -0.0567  0.4608 -0.4842
   14CHTO   H73 5771   7.019   6.394   1.202  1.2699 -1.4454  0.6820
   14CHTO   H74 5772   7.138   6.507   1.154  1.5283 -0.3095  0.0477
   14CHTO   C40 5773   7.099   6.301   1.441  0.7383 -0.5355  0.2644
   14CHTO   H82 5774   7.029   6.246   1.378  1.4874 -1.3469  0.1223
   14CHTO   O26 5775   7.186   6.213   1.515  0.5091  0.5482 -0.0322
   14CHTO   C41 5776   7.270   6.129   1.432  0.7572 -0.1135 -0.0571
   14CHTO   H83 5777   7.203   6.069   1.368  3.8753 -1.2717 -2.3493
   14CHTO   C52 5778   7.347   6.030   1.521 -0.2457 -0.2563  0.2311
   14CHTO   O35 5779   7.454   6.089   1.616  0.0638 -0.7437 -0.5671
   14CHTO   H71 5780   7.531   6.036   1.611 -0.1096 -1.1128  0.5549
   14CHTO   O28 5781   7.035   6.382   1.538  0.4514  0.8908 -0.5781
   14CHTO   C42 5782   6.900   6.361   1.590  0.5169  0.8491 -0.2530
   14CHTO   H84 5783   6.917   6.429   1.673 -1.3256  1.2989 -0.2083
   14CHTO   C44 5784   6.859   6.219   1.651 -0.5291 -0.0699  0.0813
   14CHTO   H86 5785   6.870   6.148   1.569  1.5496  0.9210 -0.5603
   14CHTO   O32 5786   6.957   6.180   1.747 -0.0403  0.0592  0.3186
   14CHTO   H69 5787   6.998   6.252   1.791 -2.2172  0.4228  1.8111
   14CHTO   C48 5788   6.719   6.225   1.708  0.0584 -0.3156 -0.7827
   14CHTO   H90 5789   6.725   6.292   1.795 -0.1828  0.2524 -1.1972
   14CHTO    N9 5790   6.670   6.092   1.761 -0.0972 -0.2083 -0.0662
   14CHTO   H77 5791   6.575   6.108   1.809  0.3089 -1.0299  1.0351
   14CHTO   H78 5792   6.738   6.053   1.836 -1.0546  1.0604  1.4925
   14CHTO   C51 5793   6.611   6.277   1.606 -0.1775 -0.1757  0.9968
   14CHTO   H93 5794   6.616   6.211   1.520 -2.0974  1.0555 -0.0858
   14CHTO   O30 5795   6.648   6.411   1.569  0.0893  0.0333 -0.8138
   14CHTO   C46 5796   6.787   6.427   1.498 -0.1895  0.5541 -0.8134
   14CHTO   H88 5797   6.790   6.365   1.409 -1.4128  0.8367 -1.0642
   14CHTO   C53 5798   6.810   6.577   1.472  0.0957  0.1142 -0.5836
   14CHTO   O72 5799   6.772   6.660   1.581 -0.3086 -0.1857 -0.8951
   14CHTO  H199 5800   6.740   6.742   1.548 -0.0599 -0.4147 -1.7358
   14CHTO   O22 5801   6.476   6.292   1.653 -0.1756  0.3487 -0.4010
   14CHTO   C31 5802   6.353   6.275   1.578  0.4390  0.2422  0.1342
   14CHTO   H59 5803   6.383   6.234   1.479  0.3809  0.4570  0.0264
   14CHTO   C29 5804   6.260   6.172   1.646 -1.0308 -0.4144 -0.0821
   14CHTO   H57 5805   6.227   6.222   1.739 -0.1446 -1.2385  0.6814
   14CHTO   O21 5806   6.347   6.060   1.666 -0.5715  0.1725 -0.5326
   14CHTO   H37 5807   6.302   5.979   1.656 -0.6100  0.0584  0.5517
   14CHTO   C27 5808   6.139   6.137   1.557 -0.7016  0.2108 -0.0944
   14CHTO   H55 5809   6.179   6.093   1.464 -0.1298  1.7888 -0.6007
   14CHTO    N5 5810   6.042   6.038   1.617  0.2710  0.0282  0.8230
   14CHTO   H43 5811   6.089   5.953   1.663  1.7699 -0.5883 -1.7939
   14CHTO   H44 5812   5.966   6.019   1.543  0.6098  0.6964  0.2939
   14CHTO   C25 5813   6.056   6.263   1.507  0.6761 -0.4940  0.1191
   14CHTO   H53 5814   6.002   6.313   1.589  1.1124  0.7955 -0.3700
   14CHTO   O17 5815   6.148   6.368   1.456 -0.6794  0.1289 -0.1306
   14CHTO   C32 5816   6.264   6.399   1.537 -0.2367  0.1980 -0.1999
   14CHTO   H60 5817   6.230   6.451   1.626 -1.6351  0.1275 -0.6896
   14CHTO   C36 5818   6.354   6.505   1.469  0.4084 -0.2769 -0.4787
   14CHTO   O25 5819   6.293   6.632   1.463  0.2628  0.7796 -0.2591
   14CHTO   H40 5820   6.223   6.625   1.400 -0.4165  0.7670  0.4947
   14CHTO   O15 5821   5.935   6.238   1.396 -0.1087  0.4575 -0.3158
   14CHTO   C19 5822   5.793   6.285   1.386 -0.3215  0.0910 -0.7334
   14CHTO   H47 5823   5.758   6.222   1.303  0.4414  0.9737 -1.7509
   14CHTO   C20 5824   5.707   6.250   1.509 -0.8983 -0.5191 -0.0866
   14CHTO   H48 5825   5.746   6.294   1.602  0.4294 -0.5943 -0.5970
   14CHTO   O19 5826   5.714   6.105   1.528 -0.2108  0.0874 -0.0465
   14CHTO   H35 5827   5.633   6.060   1.527  0.9426 -2.1522  2.6923
   14CHTO   C21 5828   5.559   6.291   1.483  1.0792  0.6946 -0.3797
   14CHTO   H49 5829   5.519   6.231   1.402 -0.2765  1.5519 -0.3539
   14CHTO    N4 5830   5.454   6.278   1.589  0.2237  0.0967  0.0238
   14CHTO   H41 5831   5.352   6.277   1.553  0.3794 -1.5492 -0.4055
   14CHTO   H42 5832   5.475   6.188   1.644  2.0754  1.3624  1.4437
   14CHTO   C22 5833   5.563   6.434   1.423 -0.2977 -0.1518 -0.4745
   14CHTO   H50 5834   5.599   6.499   1.503  1.8815  0.5897 -2.0122
   14CHTO   O14 5835   5.648   6.447   1.310  0.2104 -0.5507  0.3061
   14CHTO   C23 5836   5.786   6.433   1.333  0.6702  0.1338 -0.3651
   14CHTO   H51 5837   5.816   6.506   1.410 -1.2886 -0.8373  1.3458
   14CHTO   C34 5838   5.867   6.451   1.202 -0.1055  0.0087  0.1404
   14CHTO   O23 5839   6.007   6.455   1.219 -0.1135 -0.4007  0.0886
   14CHTO   H38 5840   6.054   6.435   1.140  0.5106  0.2561  0.2876
   14CHTO   O16 5841   5.437   6.478   1.374  0.3424  0.3092  0.2230
   14CHTO   C24 5842   5.394   6.638   1.355  0.3955  0.4742 -0.0874
   14CHTO   H52 5843   5.365   6.657   1.252  0.2876  0.5247 -0.0476
   14CHTO   C26 5844   5.498   6.750   1.388 -0.2489 -0.4302 -0.4489
   14CHTO   H54 5845   5.547   6.727   1.485  0.9423  1.4774 -0.5673
   14CHTO   O20 5846   5.593   6.739   1.292  0.5431  0.4749  0.2370
   14CHTO   H36 5847   5.555   6.737   1.206  0.7723  0.0358  0.1462
   14CHTO   C30 5848   5.438   6.893   1.396  0.1840 -0.0827 -0.2834
   14CHTO   H58 5849   5.396   6.911   1.296 -0.6673  1.3108  0.3112
   14CHTO    N6 5850   5.545   6.986   1.433  0.3676 -0.1964 -0.2508
   14CHTO   H45 5851   5.582   6.979   1.534  0.7957  0.1796 -0.3802
   14CHTO   H46 5852   5.531   7.091   1.413  2.4868  0.9037  3.6032
   14CHTO   C33 5853   5.316   6.895   1.493  0.0940  0.4068  0.1432
   14CHTO   H61 5854   5.345   6.863   1.594  0.2977  1.8330  0.5447
   14CHTO   O18 5855   5.224   6.794   1.436  0.1927 -0.2420 -0.5829
   14CHTO   C28 5856   5.267   6.654   1.442 -0.1268 -0.3127  0.7937
   14CHTO   H56 5857   5.288   6.622   1.544  0.1358  0.0343  0.8502
   14CHTO   C35 5858   5.148   6.586   1.386  0.3333 -0.9704 -0.5142
   14CHTO   O24 5859   5.149   6.445   1.422  0.0937 -0.3927 -0.0203
   14CHTO   H39 5860   5.128   6.437   1.513 -0.3405 -1.4322 -0.2078
   14CHTO    O9 5861   5.250   7.020   1.511  0.4850 -0.0728 -0.1373
   14CHTO   C13 5862   5.162   7.036   1.649  0.6670 -0.5876 -0.7880
   14CHTO   H26 5863   5.204   6.972   1.729  1.8423  0.7282 -0.3399
   14CHTO   C11 5864   5.013   6.999   1.612 -0.3678  0.4942  0.0697
   14CHTO   H24 5865   5.006   6.890   1.620 -0.9841  0.5013 -0.3536
   14CHTO    O8 5866   4.988   7.027   1.475 -0.7973  0.4150  0.3973
   14CHTO    H3 5867   5.047   6.974   1.424 -1.8992  0.9510 -1.4933
   14CHTO    C9 5868   4.905   7.052   1.713  0.8456  0.1650  0.2099
   14CHTO   H22 5869   4.927   7.002   1.808  2.4373 -1.5671 -1.0453
   14CHTO    N2 5870   4.766   7.001   1.691 -0.3029  1.3993  0.9875
   14CHTO   H10 5871   4.736   6.918   1.752  0.9208 -0.8892 -1.3900
   14CHTO   H11 5872   4.755   6.978   1.586  2.0336  0.9996  0.7830
   14CHTO    C7 5873   4.922   7.207   1.738 -0.3935  0.0996 -0.2577
   14CHTO   H20 5874   4.916   7.212   1.849  0.3277 -0.0743 -0.2105
   14CHTO    O4 5875   5.043   7.256   1.685 -0.0954  0.1541  0.4610
   14CHTO   C14 5876   5.162   7.181   1.705  0.3190 -0.6016  0.1140
   14CHTO   H27 5877   5.179   7.171   1.814 -0.2902 -0.9526  0.1767
   14CHTO   C18 5878   5.279   7.270   1.651  0.7596 -0.2675  0.2158
   14CHTO   O13 5879   5.309   7.397   1.698  0.1172  0.6080 -0.1906
   14CHTO    H7 5880   5.341   7.396   1.786  0.8122  2.8040 -0.3982
   14CHTO    O2 5881   4.809   7.301   1.668  0.1879  0.3265 -0.0092
   14CHTO    C1 5882   4.803   7.444   1.708 -0.5766 -0.1095 -0.2595
   14CHTO   H14 5883   4.717   7.490   1.654 -0.2151  2.5719  1.3582
   14CHTO    C2 5884   4.936   7.531   1.701  0.0875  0.4367 -0.4277
   14CHTO   H15 5885   5.002   7.492   1.779 -2.8439 -2.1209  0.9019
   14CHTO    O6 5886   5.002   7.520   1.576 -0.3301  0.2401 -0.0757
   14CHTO    H1 5887   4.955   7.565   1.508 -0.4616 -0.6399 -0.5852
   14CHTO    C3 5888   4.895   7.685   1.734 -0.0305  0.4989 -0.3300
   14CHTO   H16 5889   4.815   7.704   1.661 -1.1148 -0.3275  0.6330
   14CHTO    N1 5890   4.997   7.786   1.715  0.2781  0.3677  0.4022
   14CHTO    H8 5891   5.087   7.771   1.774  1.2747 -0.5868 -1.2890
   14CHTO    H9 5892   4.964   7.888   1.720  0.4844  0.5786 -2.0536
   14CHTO    C4 5893   4.825   7.700   1.875  0.3108  0.0241  0.0005
   14CHTO   H17 5894   4.894   7.698   1.959 -1.0414 -0.0826  1.1299
   14CHTO    O1 5895   4.739   7.589   1.907  0.3270  0.6091 -0.4513
   14CHTO    C5 5896   4.767   7.460   1.863  0.1173  0.8056 -0.2659
   14CHTO   H18 5897   4.855   7.433   1.922 -0.7774  1.6440  1.4871
   14CHTO   C16 5898   4.644   7.378   1.911  0.1812  0.0854  0.1644
   14CHTO   O11 5899   4.663   7.241   1.923  0.7459 -0.4553  0.1433
   14CHTO    H5 5900   4.600   7.211   1.986  0.9352  2.8332  2.0306
   14CHTO    O3 5901   4.738   7.816   1.890  0.4443  0.0683 -0.6159
   14CHTO    C6 5902   4.736   7.872   2.026  0.4253 -0.7015  0.1526
   14CHTO   H19 5903   4.775   7.804   2.101 -0.0747 -0.2705  0.8132
   14CHTO    C8 5904   4.813   8.007   2.045 -0.0785 -0.2800  0.1041
   14CHTO   H21 5905   4.771   8.087   1.983 -1.0957 -1.6342 -0.9973
   14CHTO    O7 5906   4.954   7.980   2.014 -0.0034  0.1318 -0.0820
   14CHTO    H2 5907   4.977   7.889   2.013 -0.7830 -0.0825  0.6700
   14CHTO   C12 5908   4.794   8.066   2.195  0.3535 -0.7981 -0.2683
   14CHTO   H25 5909   4.840   7.991   2.261  0.5776  0.8521  1.5017
   14CHTO    N3 5910   4.866   8.203   2.198 -0.5434  0.3791 -0.3050
   14CHTO   H12 5911   4.912   8.235   2.290 -4.5171  2.3085  1.1284
   14CHTO   H13 5912   4.801   8.281   2.161  0.1687  1.4814  0.7346
   14CHTO   C15 5913   4.640   8.081   2.223 -0.1461 -0.1065 -1.1669
   14CHTO   H28 5914   4.597   8.169   2.175  0.7369  0.5647 -0.7479
   14CHTO   O10 5915   4.618   8.103   2.383 -0.1306 -0.4411 -0.3401
   14CHTO    H4 5916   4.578   8.187   2.395  1.5797  0.4788 -0.9129
   14CHTO    O5 5917   4.568   7.954   2.200  0.9964 -0.1002 -0.0809
   14CHTO   C10 5918   4.579   7.894   2.062 -0.5130 -0.3488 -0.1722
   14CHTO   H23 5919   4.523   7.955   1.991  0.1647 -0.6885 -0.9965
   14CHTO   C17 5920   4.501   7.764   2.074  0.0565 -0.3882 -0.2447
   14CHTO   O12 5921   4.564   7.671   2.155 -0.0691 -0.3482  0.1484
   14CHTO    H6 5922   4.535   7.584   2.134 -4.5048  1.4517 -1.4757
   15CHTO  H203 5923   7.681   4.976   1.619 -0.1584  0.3564 -0.4324
   15CHTO   O82 5924   7.588   4.973   1.632 -0.1907 -0.0317 -0.7393
   15CHTO  C123 5925   7.521   4.882   1.544 -0.3395 -0.8352  0.3655
   15CHTO  H227 5926   7.560   4.782   1.566  0.7299 -0.7653 -1.1065
   15CHTO   O77 5927   7.386   4.898   1.594  0.0566 -0.0158 -0.0821
   15CHTO  C118 5928   7.270   4.860   1.524  0.0693 -0.2428  0.8444
   15CHTO  H222 5929   7.256   4.752   1.531 -0.8971 -0.2180 -0.6130
   15CHTO  C125 5930   7.149   4.933   1.593  0.5284 -0.4995  1.0234
   15CHTO   O84 5931   7.120   4.877   1.714  0.5141 -0.3188  0.3850
   15CHTO  H205 5932   7.085   4.790   1.711  0.7527 -0.4102  0.2521
   15CHTO  C114 5933   7.277   4.898   1.375 -0.4341 -0.3571 -0.3093
   15CHTO  H218 5934   7.264   5.006   1.366 -2.8754 -0.7130 -1.5428
   15CHTO  C116 5935   7.412   4.866   1.310  0.1501  0.3234 -0.3560
   15CHTO  H220 5936   7.417   4.755   1.313 -0.4009  0.2763 -1.0181
   15CHTO   O79 5937   7.406   4.921   1.175 -0.1627 -0.4174  0.4739
   15CHTO  H201 5938   7.463   4.995   1.170 -0.1315 -0.6233 -2.9485
   15CHTO  C120 5939   7.538   4.925   1.394 -0.0519 -0.2278 -0.0616
   15CHTO  H224 5940   7.537   5.035   1.382 -0.2939  0.1930  3.3375
   15CHTO   N21 5941   7.667   4.881   1.332  0.3010 -0.0758  0.9628
   15CHTO  H211 5942   7.697   4.785   1.369  2.4056 -0.0030 -0.4999
   15CHTO  H212 5943   7.749   4.949   1.348  1.2237 -0.6325 -1.1504
   15CHTO   O75 5944   7.155   4.850   1.317  0.1756 -0.2905 -0.1110
   15CHTO  C112 5945   7.130   4.690   1.301  0.2096 -1.0009 -0.0057
   15CHTO  H216 5946   7.119   4.644   1.400  0.6203  1.9357  1.4656
   15CHTO   O73 5947   7.240   4.631   1.225 -0.1426  0.8027 -0.1338
   15CHTO  C113 5948   7.218   4.489   1.222 -0.3370  0.3415 -0.0770
   15CHTO  H217 5949   7.200   4.451   1.324 -0.7346 -0.8668 -0.5889
   15CHTO  C124 5950   7.349   4.420   1.168 -0.2084  0.1764  0.1895
   15CHTO   O83 5951   7.460   4.446   1.252  0.1708 -0.7457 -0.0211
   15CHTO  H204 5952   7.534   4.396   1.224  1.4969  0.5074  1.1275
   15CHTO  C109 5953   7.096   4.456   1.135 -0.2472 -0.6718  0.1424
   15CHTO  H213 5954   7.115   4.490   1.032  1.0734  2.2916  1.2960
   15CHTO  C110 5955   6.969   4.529   1.184  0.3826  0.1287  0.1210
   15CHTO  H214 5956   6.920   4.469   1.261  0.0684 -1.2714 -1.1397
   15CHTO   O78 5957   6.880   4.525   1.074 -0.3083 -0.1283 -0.0753
   15CHTO  H200 5958   6.793   4.502   1.098  0.0947 -0.0744  1.5324
   15CHTO  C111 5959   6.993   4.676   1.233 -0.1822  0.1304 -0.0219
   15CHTO  H215 5960   7.014   4.738   1.145  1.7456 -0.8003 -0.2376
   15CHTO   N19 5961   6.873   4.730   1.304  0.0171 -0.1506  0.5853
   15CHTO  H207 5962   6.851   4.827   1.262 -1.4285 -1.8850 -2.8671
   15CHTO  H208 5963   6.896   4.755   1.407  1.0063  1.3168  0.0280
   15CHTO   O74 5964   7.072   4.316   1.131  0.1339  0.0559 -0.6578
   15CHTO  C115 5965   7.020   4.250   1.009  0.0658  0.1988  0.2480
   15CHTO  H219 5966   6.991   4.319   0.930  0.1641 -0.7050 -0.5923
   15CHTO   O76 5967   7.139   4.160   0.940 -0.3175 -0.1209  0.0420
   15CHTO  C122 5968   7.195   4.058   1.024  0.0680  0.2427 -0.4602
   15CHTO  H226 5969   7.236   4.110   1.111 -1.8787 -1.7789  1.7223
   15CHTO  C126 5970   7.310   3.995   0.950  0.3614 -0.2257  0.6490
   15CHTO   O85 5971   7.415   4.081   0.923  0.8583  0.4279  0.3763
   15CHTO  H206 5972   7.421   4.096   0.830  0.1402 -0.2052  0.2224
   15CHTO  C121 5973   7.080   3.957   1.068  0.2987  0.3789 -0.1599
   15CHTO  H225 5974   7.112   3.862   1.021 -0.9437  0.4163 -1.1114
   15CHTO   O81 5975   7.082   3.951   1.205  0.2630 -0.2181  0.1436
   15CHTO  H202 5976   7.055   3.865   1.232  3.0104 -0.5086  2.2350
   15CHTO  C119 5977   6.936   3.999   1.010  0.0850 -0.0205 -0.4104
   15CHTO  H223 5978   6.938   3.990   0.901  2.6838  0.2469 -0.4268
   15CHTO  C117 5979   6.901   4.149   1.047  0.0073  0.2156  0.0019
   15CHTO  H221 5980   6.882   4.169   1.152  0.2521 -0.1332  0.1146
   15CHTO   N20 5981   6.772   4.186   0.976  0.1555  0.5675  0.8318
   15CHTO  H209 5982   6.716   4.102   0.938 -0.1851  0.2590  1.9873
   15CHTO  H210 5983   6.714   4.240   1.051 -2.2167 -0.3481 -0.2993
   15CHTO   O80 5984   6.818   3.874   1.056 -0.3784 -0.2344 -0.1147
   15CHTO  C103 5985   6.746   3.790   0.936  0.2542  0.0199  0.3452
   15CHTO  H190 5986   6.679   3.715   0.979 -3.2826  1.5660 -2.2346
   15CHTO  C101 5987   6.658   3.873   0.843  0.1330  0.1510 -0.3666
   15CHTO  H188 5988   6.715   3.949   0.788  1.6615 -0.3097  0.5322
   15CHTO   O68 5989   6.546   3.942   0.947 -0.4386  0.3349  0.3038
   15CHTO  H168 5990   6.460   3.939   0.909 -0.1344 -2.3646 -0.2680
   15CHTO   C99 5991   6.588   3.777   0.734 -0.3636  0.5280 -0.6105
   15CHTO  H186 5992   6.513   3.713   0.785  2.0225 -0.5120  1.6995
   15CHTO   N17 5993   6.502   3.842   0.637  0.9237  0.0828 -0.4739
   15CHTO  H174 5994   6.553   3.861   0.544  1.3187  1.9464  0.1182
   15CHTO  H175 5995   6.466   3.934   0.682  0.4511 -0.7236  0.8427
   15CHTO   C97 5996   6.691   3.671   0.677 -0.6880  0.4320  1.2610
   15CHTO  H184 5997   6.741   3.726   0.596 -1.5265 -2.4910 -1.3679
   15CHTO   O64 5998   6.788   3.611   0.770  0.7757  0.6949 -0.7499
   15CHTO  C104 5999   6.847   3.705   0.860  0.0222 -0.1703  0.3025
   15CHTO  H191 6000   6.915   3.767   0.801 -0.8012  1.8404  1.4402
   15CHTO  C108 6001   6.935   3.636   0.963  0.2341  0.4250 -0.5261
   15CHTO   O71 6002   7.052   3.577   0.904 -0.0523  0.0688 -0.0632
   15CHTO  H171 6003   7.043   3.501   0.850  0.4703 -0.5920  0.7765
   15CHTO   O62 6004   6.625   3.564   0.610 -0.1596 -0.2482  0.4940
   15CHTO   C91 6005   6.693   3.498   0.499 -0.3474 -0.0599  0.2772
   15CHTO  H178 6006   6.758   3.570   0.449 -1.2552  0.5156 -0.0872
   15CHTO   C92 6007   6.579   3.457   0.401  1.1697  0.1355  0.6859
   15CHTO  H179 6008   6.510   3.542   0.391  2.0125  0.4989 -2.6599
   15CHTO   O66 6009   6.636   3.426   0.269  0.2607 -0.1160 -0.1090
   15CHTO  H166 6010   6.574   3.387   0.210 -0.1026 -1.1128  0.9259
   15CHTO   C93 6011   6.497   3.333   0.455 -0.7363  0.3194 -0.1247
   15CHTO  H180 6012   6.448   3.282   0.371  1.7831 -1.7783 -0.3712
   15CHTO   N16 6013   6.377   3.358   0.536  0.3704 -0.0652 -0.2400
   15CHTO  H172 6014   6.332   3.260   0.541  0.9290 -0.2793  0.6488
   15CHTO  H173 6015   6.406   3.396   0.633  1.4225 -0.8963 -0.2248
   15CHTO   C94 6016   6.586   3.221   0.528 -0.2098  0.6649  0.0554
   15CHTO  H181 6017   6.580   3.230   0.636  0.6619  0.2942  0.1334
   15CHTO   O61 6018   6.725   3.242   0.499 -0.3482 -0.8105 -0.2724
   15CHTO   C95 6019   6.776   3.374   0.543 -0.2980  0.0196  0.1080
   15CHTO  H182 6020   6.781   3.372   0.652  0.3447  1.1411  0.1188
   15CHTO  C106 6021   6.935   3.373   0.508 -0.0061  0.1027 -0.3014
   15CHTO   O69 6022   6.996   3.498   0.536 -0.2347  0.3283  0.4016
   15CHTO  H169 6023   7.025   3.540   0.458  0.0351  0.1120  0.3816
   15CHTO   O63 6024   6.532   3.079   0.494 -0.2319  0.0217  0.2061
   15CHTO   C96 6025   6.565   2.956   0.593 -1.2487 -0.5457 -0.0141
   15CHTO  H183 6026   6.617   2.988   0.683  1.5587 -0.3715 -1.6382
   15CHTO   C98 6027   6.668   2.857   0.529  0.3007 -0.1486 -0.4227
   15CHTO  H185 6028   6.639   2.852   0.423  1.6600  0.3075 -0.8198
   15CHTO   O67 6029   6.805   2.908   0.526 -0.7155 -0.0046  0.1569
   15CHTO  H167 6030   6.815   2.961   0.448  1.3316 -0.3896  0.1477
   15CHTO  C102 6031   6.660   2.712   0.598 -0.0587  0.0443 -0.2049
   15CHTO  H189 6032   6.694   2.732   0.701 -2.1632 -0.2252  0.5518
   15CHTO   N18 6033   6.759   2.612   0.538 -0.2344  0.5761 -0.1847
   15CHTO  H176 6034   6.738   2.516   0.584  0.0657  0.7290  0.2652
   15CHTO  H177 6035   6.861   2.645   0.551  0.0249 -0.2666 -0.0571
   15CHTO  C105 6036   6.510   2.662   0.591  0.4360 -0.0648  0.0983
   15CHTO  H192 6037   6.468   2.686   0.493 -0.1025  0.4216  0.4399
   15CHTO   O65 6038   6.434   2.746   0.678 -0.2944 -0.9259  0.4880
   15CHTO  C100 6039   6.429   2.883   0.634  0.1238 -0.3198  0.1323
   15CHTO  H187 6040   6.360   2.888   0.549  0.5800  0.7838 -0.1897
   15CHTO  C107 6041   6.352   2.971   0.740 -0.3666  0.1383 -0.4044
   15CHTO   O70 6042   6.217   2.929   0.742  0.3574 -0.4249 -0.4952
   15CHTO  H170 6043   6.182   2.930   0.829 -0.3416  1.1516 -0.7790
   15CHTO   O57 6044   6.496   2.519   0.625 -0.6198 -0.3107 -0.0562
   15CHTO   C85 6045   6.494   2.468   0.758  0.7196 -0.5069  0.3719
   15CHTO  H157 6046   6.533   2.540   0.834 -1.6489  0.2396  0.9274
   15CHTO   C83 6047   6.591   2.344   0.764 -0.4072  0.2160 -0.2927
   15CHTO  H155 6048   6.688   2.393   0.756  0.2328 -1.0962 -0.6138
   15CHTO   O56 6049   6.567   2.254   0.654 -0.0065  0.2311  1.1595
   15CHTO  H135 6050   6.642   2.218   0.610 -0.1748  0.4518  0.6988
   15CHTO   C81 6051   6.584   2.286   0.902 -0.4978  0.1323  0.2733
   15CHTO  H153 6052   6.614   2.363   0.974  0.8660 -1.6249  1.6123
   15CHTO   N14 6053   6.695   2.182   0.920 -0.1282 -0.2481 -0.6407
   15CHTO  H141 6054   6.784   2.200   0.864  0.9402 -1.2304  0.6876
   15CHTO  H142 6055   6.662   2.081   0.908 -1.0584  0.0219 -0.3659
   15CHTO   C79 6056   6.440   2.227   0.942 -0.7989  0.1946  0.6276
   15CHTO  H151 6057   6.446   2.186   1.043  2.1761 -0.5442  0.1878
   15CHTO   O52 6058   6.350   2.344   0.938  0.5037  0.0451  0.1960
   15CHTO   C86 6059   6.354   2.411   0.801 -0.4476  0.1558  0.2822
   15CHTO  H158 6060   6.321   2.336   0.727  2.0993 -0.2748 -0.4695
   15CHTO   C90 6061   6.252   2.528   0.804 -0.6390 -0.1747  0.4737
   15CHTO   O60 6062   6.264   2.608   0.923 -0.5109  0.4509  0.3997
   15CHTO  H138 6063   6.350   2.606   0.961  0.2793  0.1919 -1.3842
   15CHTO   O50 6064   6.390   2.123   0.854  0.6335  0.5027 -0.7070
   15CHTO   C73 6065   6.297   2.014   0.829 -0.6452  0.2053 -0.6134
   15CHTO  H145 6066   6.207   2.059   0.784  0.0385  1.7277 -0.4689
   15CHTO   C74 6067   6.243   1.942   0.958  0.1101 -0.6060  0.0011
   15CHTO  H146 6068   6.206   2.025   1.020  2.7932 -0.5530  1.5946
   15CHTO   O54 6069   6.134   1.854   0.920 -0.2309 -0.1150  0.5894
   15CHTO  H133 6070   6.154   1.779   0.867 -2.2264 -1.3451  1.5126
   15CHTO   C75 6071   6.355   1.863   1.033 -0.5558  0.3054 -0.1694
   15CHTO  H147 6072   6.423   1.940   1.071 -2.5067  2.5595 -1.0660
   15CHTO   N13 6073   6.318   1.787   1.157 -0.2081 -0.2627  0.6198
   15CHTO  H139 6074   6.407   1.742   1.198  2.1653  1.4799 -2.3360
   15CHTO  H140 6075   6.280   1.860   1.228 -0.0847  0.4228 -0.0087
   15CHTO   C76 6076   6.441   1.772   0.930  0.4057  0.5006 -0.4146
   15CHTO  H148 6077   6.380   1.683   0.917 -1.9780  1.9077  0.7832
   15CHTO   O49 6078   6.459   1.838   0.803 -0.2357  0.0075 -0.2763
   15CHTO   C77 6079   6.351   1.902   0.734  0.1365  0.1293 -0.6117
   15CHTO  H149 6080   6.274   1.831   0.704 -0.1974  0.3247 -0.2198
   15CHTO   C88 6081   6.409   1.960   0.611  1.1318 -0.1454  0.3774
   15CHTO   O58 6082   6.296   2.019   0.539 -0.1187  0.0625 -0.1685
   15CHTO  H136 6083   6.301   1.998   0.448 -1.3517  0.2224 -0.2815
   15CHTO   O51 6084   6.568   1.754   0.970 -0.2973 -0.2834  0.4946
   15CHTO   C78 6085   6.663   1.640   0.908  0.2838 -0.4302  0.0781
   15CHTO  H150 6086   6.626   1.621   0.805 -2.4852 -1.3366  1.1758
   15CHTO   C80 6087   6.664   1.501   0.989  0.0309 -0.8137 -0.5794
   15CHTO  H152 6088   6.710   1.518   1.089 -1.0594 -2.8574  0.3069
   15CHTO   O55 6089   6.525   1.461   1.004 -0.1866 -0.1823  0.1996
   15CHTO  H134 6090   6.471   1.477   0.929 -0.0137 -0.6890 -0.0351
   15CHTO   C84 6091   6.757   1.406   0.908  0.6715 -0.1927 -0.7368
   15CHTO  H156 6092   6.730   1.383   0.804  1.4423 -1.4551 -0.6638
   15CHTO   N15 6093   6.759   1.270   0.973 -0.3810 -0.0964 -0.1104
   15CHTO  H143 6094   6.743   1.188   0.906  0.2220 -1.6565  1.6125
   15CHTO  H144 6095   6.848   1.259   1.031 -0.7777  0.3925  0.6063
   15CHTO   C87 6096   6.899   1.461   0.884 -0.0611 -0.3302 -0.0853
   15CHTO  H159 6097   6.946   1.479   0.981 -0.4350 -1.3265  0.2889
   15CHTO   O53 6098   6.877   1.606   0.808 -0.5537 -0.7778 -0.5112
   15CHTO   C82 6099   6.800   1.698   0.889  0.3383  0.6577  0.3531
   15CHTO  H154 6100   6.845   1.707   0.988  0.7166  2.3920  0.0304
   15CHTO   C89 6101   6.804   1.845   0.823 -0.1072  0.6100  0.2621
   15CHTO   O59 6102   6.751   1.849   0.691 -1.0779 -0.0835  0.3646
   15CHTO  H137 6103   6.657   1.845   0.694 -1.0033 -3.0206  0.8926
   15CHTO   O45 6104   6.999   1.391   0.784  0.2728 -0.5944 -0.1214
   15CHTO   C67 6105   7.138   1.417   0.821  0.5300  0.4614  0.0703
   15CHTO  H124 6106   7.147   1.504   0.885 -1.5140  0.9404 -0.2613
   15CHTO   C65 6107   7.195   1.301   0.904  0.2280  0.8118 -0.4567
   15CHTO  H122 6108   7.141   1.209   0.886 -1.1718  1.3046  1.1685
   15CHTO   O44 6109   7.167   1.343   1.037  0.6313  0.0920  0.3982
   15CHTO  H102 6110   7.200   1.283   1.101  0.3749 -0.7008 -0.1962
   15CHTO   C63 6111   7.350   1.272   0.870  0.4450 -0.1336  0.0032
   15CHTO  H120 6112   7.346   1.218   0.775  1.7481  1.9064 -1.2504
   15CHTO   N11 6113   7.420   1.168   0.951  0.2922 -0.1134 -0.4279
   15CHTO  H108 6114   7.512   1.149   0.898  0.9199 -2.4098  1.3882
   15CHTO  H109 6115   7.363   1.077   0.949 -0.7754  0.5379  0.0739
   15CHTO   C61 6116   7.429   1.406   0.837  0.0013 -0.5134 -0.5817
   15CHTO  H118 6117   7.529   1.377   0.802 -0.7341 -1.7505 -1.6940
   15CHTO   O40 6118   7.365   1.478   0.727 -0.2115 -0.7472  0.2983
   15CHTO   C68 6119   7.221   1.439   0.693  0.3376 -0.0013  0.2232
   15CHTO  H125 6120   7.224   1.348   0.629 -0.9144 -0.9133  1.4304
   15CHTO   C72 6121   7.179   1.551   0.604  0.4147 -0.3418 -0.2141
   15CHTO   O48 6122   7.059   1.525   0.528 -0.5195  0.0611  0.0080
   15CHTO  H105 6123   6.986   1.521   0.588 -1.2532 -0.3584 -0.8950
   15CHTO   O38 6124   7.450   1.504   0.942  0.1267  0.4279  0.0187
   15CHTO   C55 6125   7.504   1.631   0.910  0.0916  0.6877  0.2889
   15CHTO  H112 6126   7.475   1.659   0.808 -1.2724 -1.4109  0.0765
   15CHTO   C56 6127   7.658   1.622   0.928 -0.0533 -0.1560  0.1230
   15CHTO  H113 6128   7.669   1.575   1.027 -0.8270  0.3189  0.4463
   15CHTO   O42 6129   7.721   1.522   0.846 -0.1757 -0.5295 -0.0479
   15CHTO  H100 6130   7.813   1.517   0.858  0.1173 -1.2476 -2.4216
   15CHTO   C57 6131   7.717   1.768   0.912 -0.9025  0.0968 -0.0720
   15CHTO  H114 6132   7.703   1.781   0.804  0.7164 -0.0823 -0.3072
   15CHTO   N10 6133   7.858   1.774   0.949 -0.5234 -0.2488 -0.8424
   15CHTO  H106 6134   7.900   1.864   0.907  0.3045  0.0992  0.7013
   15CHTO  H107 6135   7.910   1.688   0.909  0.2070 -0.8095  1.2071
   15CHTO   C58 6136   7.643   1.880   0.989  0.0867 -0.3728  0.2299
   15CHTO  H115 6137   7.667   1.865   1.097  2.7483 -0.5457 -0.3586
   15CHTO   O37 6138   7.500   1.868   0.971 -0.0713  0.0405 -0.1011
   15CHTO   C59 6139   7.449   1.737   1.009 -0.0193 -0.4788 -0.4648
   15CHTO  H116 6140   7.475   1.722   1.114  2.8022  0.8389 -0.9229
   15CHTO   C70 6141   7.295   1.740   0.990  0.0118 -0.2630 -0.0079
   15CHTO   O46 6142   7.238   1.826   1.094  0.4224  0.4961  0.0895
   15CHTO  H103 6143   7.227   1.915   1.069  1.7217  0.9308  1.0017
   15CHTO   O39 6144   7.691   2.040   0.938 -0.1814 -0.3603 -0.3185
   15CHTO   C60 6145   7.625   2.091   0.819 -0.1349 -0.6275  0.2949
   15CHTO  H117 6146   7.615   2.000   0.761 -0.0155 -0.5237  0.1111
   15CHTO   C62 6147   7.498   2.167   0.838  0.0396 -0.0052 -0.7579
   15CHTO  H119 6148   7.419   2.108   0.889 -0.5136  1.3321 -0.0077
   15CHTO   O43 6149   7.523   2.282   0.929 -0.0022  0.3857  0.0322
   15CHTO  H101 6150   7.608   2.318   0.912 -0.8715  2.0233 -1.1012
   15CHTO   C66 6151   7.442   2.212   0.697  0.0724  0.8115 -0.1611
   15CHTO  H123 6152   7.442   2.124   0.632  0.8771 -0.1013  1.0536
   15CHTO   N12 6153   7.298   2.266   0.703  0.6108 -0.0072  0.5296
   15CHTO  H110 6154   7.284   2.339   0.782 -1.9386 -0.2854  0.3524
   15CHTO  H111 6155   7.273   2.298   0.603  2.5138 -0.9090 -0.2623
   15CHTO   C69 6156   7.541   2.315   0.633  1.3192 -0.5313 -0.0857
   15CHTO  H126 6157   7.565   2.398   0.702 -0.5522 -0.8781  1.0150
   15CHTO   O41 6158   7.683   2.238   0.616  0.2852  0.2439  0.3719
   15CHTO   C64 6159   7.732   2.186   0.743  0.1036  0.1600 -0.0083
   15CHTO  H121 6160   7.745   2.269   0.816 -0.8620 -0.1982  0.5817
   15CHTO   C71 6161   7.869   2.123   0.735 -0.1994  0.3341 -0.1037
   15CHTO   O47 6162   7.871   2.037   0.614  0.4387 -0.0176 -0.3681
   15CHTO  H104 6163   7.951   1.987   0.612  0.2285 -0.3056 -3.0860
   15CHTO   O34 6164   7.497   2.364   0.514  0.1682 -0.2998 -0.0851
   15CHTO   C49 6165   7.477   2.396   0.378  0.3807 -0.1490 -0.0452
   15CHTO   H91 6166   7.440   2.309   0.325 -1.7523 -0.0538  1.2045
   15CHTO   C47 6167   7.603   2.473   0.325  0.5359 -0.4952  0.6021
   15CHTO   H89 6168   7.580   2.474   0.217  1.2086 -0.6418  0.4548
   15CHTO   O33 6169   7.719   2.388   0.348  0.7631 -0.0585 -0.0538
   15CHTO   H70 6170   7.806   2.423   0.348  0.9227 -0.3827  1.8056
   15CHTO   C45 6171   7.627   2.612   0.391 -0.3322 -0.9785  0.5295
   15CHTO   H87 6172   7.647   2.595   0.497  2.0150 -2.9960 -0.1859
   15CHTO    N8 6173   7.746   2.692   0.337 -0.3939  0.2572 -0.3298
   15CHTO   H75 6174   7.794   2.638   0.257  1.1367  0.4237  0.4717
   15CHTO   H76 6175   7.728   2.794   0.306 -1.1786  0.2120 -0.0414
   15CHTO   C43 6176   7.499   2.711   0.391 -0.1164 -0.3593  0.3013
   15CHTO   H85 6177   7.513   2.790   0.465 -3.5056 -1.4019  2.1849
   15CHTO   O29 6178   7.382   2.626   0.430 -0.1598 -0.3746 -0.0062
   15CHTO   C50 6179   7.352   2.495   0.380  0.2691 -0.3095  0.0827
   15CHTO   H92 6180   7.273   2.468   0.451  0.3204 -0.7892 -0.0434
   15CHTO   C54 6181   7.279   2.509   0.245 -0.1538 -0.2209  0.0264
   15CHTO   O36 6182   7.258   2.389   0.176  0.4595 -0.2076 -0.6902
   15CHTO   H72 6183   7.320   2.326   0.208  0.7434  0.8782  0.9461
   15CHTO   O27 6184   7.491   2.784   0.268  0.5545  0.0503  0.2400
   15CHTO   C37 6185   7.392   2.856   0.184  0.7175 -0.2401  0.2389
   15CHTO   H79 6186   7.321   2.779   0.151  0.7031 -0.0065 -0.2799
   15CHTO   C38 6187   7.317   2.972   0.262 -0.0328 -0.5677 -1.0240
   15CHTO   H80 6188   7.388   3.041   0.309 -1.4257  0.9527 -1.1164
   15CHTO   O31 6189   7.244   2.903   0.365  0.4673  0.2024  0.3948
   15CHTO   H68 6190   7.252   2.955   0.443 -0.8970 -1.9844  2.0474
   15CHTO   C39 6191   7.221   3.055   0.173  0.2471 -0.3254 -0.2769
   15CHTO   H81 6192   7.142   2.988   0.140  0.4805  0.1488 -1.8517
   15CHTO    N7 6193   7.144   3.167   0.234 -0.4923  0.1734 -0.9959
   15CHTO   H73 6194   7.216   3.237   0.274 -0.2467 -2.5273  3.5718
   15CHTO   H74 6195   7.076   3.206   0.159  0.4078 -0.5619 -2.2152
   15CHTO   C40 6196   7.291   3.098   0.045  0.7084 -0.0378  0.0091
   15CHTO   H82 6197   7.363   3.173   0.079  0.0830  0.0312  1.2019
   15CHTO   O26 6198   7.358   2.984  -0.021  0.6849 -0.4192  0.7677
   15CHTO   C41 6199   7.459   2.909   0.061 -0.1413 -0.1534  0.5195
   15CHTO   H83 6200   7.539   2.974   0.097 -0.9084  0.2356  1.5388
   15CHTO   C52 6201   7.522   2.803  -0.033  0.3280 -0.4801 -0.1598
   15CHTO   O35 6202   7.571   2.868  -0.132  0.3539 -0.0516  0.0094
   15CHTO   H71 6203   7.658   2.836  -0.152  0.5025 -3.5603  5.3453
   15CHTO   O28 6204   7.202   3.148  -0.058  0.1388  0.2425  0.7553
   15CHTO   C42 6205   7.210   3.271  -0.136  0.1018 -0.5781 -0.1770
   15CHTO   H84 6206   7.167   3.251  -0.233  0.6412 -0.0561 -0.5276
   15CHTO   C44 6207   7.358   3.323  -0.165  0.2884  0.0878 -0.1961
   15CHTO   H86 6208   7.416   3.321  -0.073 -2.1879 -0.1810  1.4021
   15CHTO   O32 6209   7.423   3.214  -0.237 -0.5256  0.1506  0.0276
   15CHTO   H69 6210   7.420   3.132  -0.192 -0.3837  0.5399  0.7567
   15CHTO   C48 6211   7.365   3.464  -0.241  0.7588  0.1591  0.3461
   15CHTO   H90 6212   7.351   3.435  -0.345 -0.7407 -1.8046  1.0505
   15CHTO    N9 6213   7.501   3.523  -0.225 -0.5473 -0.6456  0.5443
   15CHTO   H77 6214   7.549   3.500  -0.131 -1.1487  1.2839  1.3600
   15CHTO   H78 6215   7.560   3.486  -0.308 -2.2874  0.6551 -1.3164
   15CHTO   C51 6216   7.251   3.570  -0.203  0.4728  0.2721 -0.1606
   15CHTO   H93 6217   7.276   3.609  -0.104  0.1802 -0.2925  0.1419
   15CHTO   O30 6218   7.127   3.499  -0.197  0.0904 -0.5037 -0.2529
   15CHTO   C46 6219   7.125   3.389  -0.081 -0.4967 -0.0292  0.2037
   15CHTO   H88 6220   7.166   3.420   0.015  1.5223  0.2203 -0.7102
   15CHTO   C53 6221   6.975   3.358  -0.049  0.1365 -0.3379 -0.3266
   15CHTO   O72 6222   6.904   3.471   0.003 -0.3099  0.1487  0.7966
   15CHTO  H199 6223   6.897   3.539  -0.062 -2.2094 -0.6769  0.1268
   15CHTO   O22 6224   7.237   3.677  -0.299  0.2572 -0.1547 -0.1648
   15CHTO   C31 6225   7.168   3.803  -0.267  0.5355 -0.3700  0.5099
   15CHTO   H59 6226   7.152   3.848  -0.368  3.1335  0.6505  0.5349
   15CHTO   C29 6227   7.028   3.786  -0.204  0.3700  0.5279 -0.0103
   15CHTO   H57 6228   7.043   3.739  -0.105 -1.1426  1.6844  0.7890
   15CHTO   O21 6229   6.955   3.690  -0.285  0.0971  0.1470 -0.1055
   15CHTO   H37 6230   6.865   3.687  -0.258  0.8103 -1.1657  2.2938
   15CHTO   C27 6231   6.951   3.929  -0.195  0.3436  0.0127 -0.7179
   15CHTO   H55 6232   6.937   3.969  -0.297 -3.5081 -0.8982 -0.6341
   15CHTO    N5 6233   6.816   3.925  -0.136  0.0080 -0.3991  0.5992
   15CHTO   H43 6234   6.791   3.820  -0.128 -0.3953 -0.3876 -0.3937
   15CHTO   H44 6235   6.819   3.964  -0.035 -2.5765  0.6696  0.3090
   15CHTO   C25 6236   7.052   4.016  -0.110  0.2011 -0.0173 -0.2212
   15CHTO   H53 6237   7.056   3.967  -0.012  0.2936  0.6559  0.1185
   15CHTO   O17 6238   7.188   4.025  -0.162  0.0717 -0.5118  0.4652
   15CHTO   C32 6239   7.257   3.904  -0.184 -0.1982  0.0298 -0.2757
   15CHTO   H60 6240   7.276   3.864  -0.084  1.2363  1.8354  0.1921
   15CHTO   C36 6241   7.404   3.924  -0.242  0.5543  0.6887  0.3363
   15CHTO   O25 6242   7.472   4.022  -0.167 -0.8055 -0.0254 -0.5758
   15CHTO   H40 6243   7.541   3.975  -0.125 -0.6529  0.3447 -0.4127
   15CHTO   O15 6244   6.987   4.167  -0.081 -0.1361  0.1865 -0.1455
   15CHTO   C19 6245   7.012   4.299  -0.028 -0.3176 -0.0022 -0.8304
   15CHTO   H47 6246   7.077   4.346  -0.104 -0.8217  1.9787 -0.0691
   15CHTO   C20 6247   6.887   4.390  -0.017  1.0489  0.1719 -0.4327
   15CHTO   H48 6248   6.808   4.341   0.043  1.1950 -0.4618 -0.7599
   15CHTO   O19 6249   6.826   4.398  -0.147 -0.2621 -0.1593  0.1238
   15CHTO   H35 6250   6.732   4.391  -0.146 -0.2224 -0.6937  0.0425
   15CHTO   C21 6251   6.919   4.533   0.035 -0.3685 -0.8143  0.3392
   15CHTO   H49 6252   6.978   4.590  -0.036  1.3540  0.4283  2.6842
   15CHTO    N4 6253   6.792   4.616   0.053  0.3424  0.0098 -0.3505
   15CHTO   H41 6254   6.746   4.607  -0.044 -1.9141  0.1895  0.6609
   15CHTO   H42 6255   6.716   4.579   0.120 -0.1278 -0.5536 -1.1851
   15CHTO   C22 6256   6.992   4.518   0.168  0.6931  0.3259  0.0034
   15CHTO   H50 6257   6.922   4.469   0.235  2.0561 -2.5397 -0.6270
   15CHTO   O14 6258   7.102   4.440   0.161  0.1868  0.3397  0.5558
   15CHTO   C23 6259   7.089   4.300   0.112 -0.2584  0.6011  0.0365
   15CHTO   H51 6260   7.033   4.244   0.188 -1.0625  0.6113 -0.5382
   15CHTO   C34 6261   7.232   4.258   0.100  0.0840  0.3410  0.3811
   15CHTO   O23 6262   7.294   4.217   0.227  0.7622 -0.0189 -0.0629
   15CHTO   H38 6263   7.385   4.197   0.215  0.5812 -0.8184 -0.0858
   15CHTO   O16 6264   7.032   4.647   0.216  0.2080  0.2228 -0.3472
   15CHTO   C24 6265   7.032   4.669   0.362 -0.7460  0.1240  0.2565
   15CHTO   H52 6266   6.991   4.584   0.416 -1.5954  0.9116  0.8712
   15CHTO   C26 6267   6.946   4.797   0.399  0.3315 -0.0242  0.0885
   15CHTO   H54 6268   6.962   4.876   0.322 -3.0595 -0.1309 -0.7880
   15CHTO   O20 6269   6.815   4.742   0.398  0.4814 -0.3646 -0.6455
   15CHTO   H36 6270   6.785   4.748   0.309 -1.0028 -0.8243 -0.1868
   15CHTO   C30 6271   6.985   4.865   0.539  0.1549 -0.5253  0.4295
   15CHTO   H58 6272   6.953   4.800   0.622 -1.5271  1.6176  1.4945
   15CHTO    N6 6273   6.916   4.994   0.557 -0.7540 -0.3775 -0.1997
   15CHTO   H45 6274   6.809   4.993   0.546 -0.7600  2.3527 -0.7472
   15CHTO   H46 6275   6.945   5.028   0.655  0.1298  0.3843 -0.7186
   15CHTO   C33 6276   7.140   4.870   0.541  0.1946 -0.1049  0.7422
   15CHTO   H61 6277   7.181   4.918   0.451 -0.4640 -1.7512 -0.4681
   15CHTO   O18 6278   7.189   4.738   0.541  0.3427  0.0753  0.5036
   15CHTO   C28 6279   7.178   4.685   0.409 -0.1876 -0.1753 -0.2877
   15CHTO   H56 6280   7.233   4.747   0.338  0.1932 -1.4903 -1.1702
   15CHTO   C35 6281   7.249   4.546   0.417  0.6057 -0.1941  0.1983
   15CHTO   O24 6282   7.179   4.442   0.486  0.8404  0.3707 -0.1667
   15CHTO   H39 6283   7.162   4.462   0.576  1.2149 -0.5452  0.1148
   15CHTO    O9 6284   7.203   4.945   0.646  0.2323 -0.0839  0.1362
   15CHTO   C13 6285   7.361   4.938   0.695 -0.0646  0.5267  0.1188
   15CHTO   H26 6286   7.381   5.034   0.747 -1.3699  0.4125  0.8470
   15CHTO   C11 6287   7.466   4.916   0.576  0.1440  0.2894  0.2084
   15CHTO   H24 6288   7.439   4.992   0.500 -1.3773  0.8841  1.3195
   15CHTO    O8 6289   7.455   4.790   0.511  0.1890 -0.3380  0.6519
   15CHTO    H3 6290   7.384   4.789   0.450  1.0180 -1.9457 -0.3117
   15CHTO    C9 6291   7.608   4.943   0.631 -0.5446 -0.0482  0.5025
   15CHTO   H22 6292   7.607   5.045   0.673  0.2351 -0.0510  0.5367
   15CHTO    N2 6293   7.720   4.945   0.530 -0.2075  0.0541 -0.0129
   15CHTO   H10 6294   7.694   5.030   0.468  0.4082  1.0568  1.0888
   15CHTO   H11 6295   7.698   4.865   0.461 -1.1015  0.5901 -0.3491
   15CHTO    C7 6296   7.629   4.847   0.753 -0.1981  0.2881  0.2991
   15CHTO   H20 6297   7.650   4.924   0.830 -0.5263  0.9456 -0.2732
   15CHTO    O4 6298   7.511   4.767   0.796  0.5051  0.0807 -0.3234
   15CHTO   C14 6299   7.391   4.839   0.816  0.4046 -0.3795  0.8861
   15CHTO   H27 6300   7.393   4.899   0.909  1.7564  1.0960 -0.0702
   15CHTO   C18 6301   7.288   4.729   0.839 -0.0782  0.1954 -0.1705
   15CHTO   O13 6302   7.171   4.780   0.890 -0.1411  0.3027 -0.2960
   15CHTO    H7 6303   7.168   4.776   0.983  0.4595 -1.7906 -0.3491
   15CHTO    O2 6304   7.750   4.749   0.761 -0.0715 -0.4121 -0.3947
   15CHTO    C1 6305   7.810   4.743   0.893  0.4436  0.1305 -0.1290
   15CHTO   H14 6306   7.736   4.779   0.968 -0.7139  0.0643 -1.2071
   15CHTO    C2 6307   7.943   4.821   0.906 -0.0793 -0.1500 -0.1247
   15CHTO   H15 6308   8.007   4.779   0.827 -0.5022  0.9399 -1.0561
   15CHTO    O6 6309   7.926   4.961   0.880 -0.2627  0.0078  0.4601
   15CHTO    H1 6310   7.865   4.979   0.811  0.9263  0.8328 -0.4036
   15CHTO    C3 6311   8.004   4.802   1.056 -0.4507  0.1740 -0.7105
   15CHTO   H16 6312   7.952   4.863   1.131  2.0453  0.5447  0.7854
   15CHTO    N1 6313   8.146   4.847   1.060  0.5080  0.5154  0.1554
   15CHTO    H8 6314   8.193   4.800   0.975 -2.4697  0.7070 -1.6954
   15CHTO    H9 6315   8.156   4.955   1.066 -2.7268  0.8116  1.7813
   15CHTO    C4 6316   7.996   4.651   1.106 -0.5466  0.2100 -0.2414
   15CHTO   H17 6317   8.079   4.601   1.056 -1.1256 -0.0677 -0.9298
   15CHTO    O1 6318   7.872   4.597   1.066  0.7425  0.7699 -0.6237
   15CHTO    C5 6319   7.831   4.597   0.932 -0.2542 -0.4120  0.1894
   15CHTO   H18 6320   7.907   4.561   0.862  0.1777  0.5689  0.1387
   15CHTO   C16 6321   7.706   4.508   0.922  0.2201  0.8274  0.0212
   15CHTO   O11 6322   7.594   4.555   1.001  0.6624 -0.0215 -0.3492
   15CHTO    H5 6323   7.526   4.492   0.991  1.2177 -0.4600 -1.3800
   15CHTO    O3 6324   8.009   4.647   1.252 -0.0696  0.0638  0.1293
   15CHTO    C6 6325   8.070   4.521   1.305 -0.4325  0.4300 -0.3693
   15CHTO   H19 6326   8.054   4.432   1.244 -1.5438  0.1500  0.3181
   15CHTO    C8 6327   8.223   4.554   1.337  0.1312 -0.1767  0.5118
   15CHTO   H21 6328   8.234   4.624   1.419  1.8262 -0.7136  0.7664
   15CHTO    O7 6329   8.291   4.601   1.219 -0.6162  0.6024  0.4446
   15CHTO    H2 6330   8.384   4.583   1.222 -0.3984  1.5364 -0.4284
   15CHTO   C12 6331   8.290   4.424   1.387 -1.0476 -0.5184 -0.9019
   15CHTO   H25 6332   8.275   4.345   1.310  1.3522 -0.7158 -1.2017
   15CHTO    N3 6333   8.438   4.428   1.413 -0.2115  0.1912 -0.1801
   15CHTO   H12 6334   8.461   4.395   1.513 -0.6512 -0.8963 -0.4304
   15CHTO   H13 6335   8.490   4.375   1.334 -1.2123  0.9952 -1.4201
   15CHTO   C15 6336   8.212   4.376   1.514  0.8522 -0.7633 -0.1891
   15CHTO   H28 6337   8.237   4.438   1.600 -0.7782  2.5710 -2.0446
   15CHTO   O10 6338   8.231   4.230   1.549 -0.4119  0.3076 -0.1588
   15CHTO    H4 6339   8.244   4.217   1.641  0.8534 -1.2391 -0.5367
   15CHTO    O5 6340   8.070   4.375   1.497  0.3902 -0.1374  0.5425
   15CHTO   C10 6341   8.009   4.491   1.440  0.3685 -0.3110 -0.3653
   15CHTO   H23 6342   8.028   4.569   1.513  1.7885 -0.3323 -0.7028
   15CHTO   C17 6343   7.856   4.458   1.450 -0.3881 -0.2429  0.6132
   15CHTO   O12 6344   7.762   4.561   1.428 -0.8067  0.0246  0.3268
   15CHTO    H6 6345   7.797   4.623   1.368  0.9031  0.9338  2.2018
   16CHTO  H203 6346   6.094   4.797   0.179 -0.0907 -0.5403 -0.0470
   16CHTO   O82 6347   6.107   4.711   0.214  0.0606 -0.1637  0.8174
   16CHTO  C123 6348   6.240   4.707   0.268  0.0168 -0.0147 -0.4895
   16CHTO  H227 6349   6.265   4.803   0.317  0.5467  0.7629 -2.2313
   16CHTO   O77 6350   6.216   4.600   0.363 -0.0067  0.2694 -0.2857
   16CHTO  C118 6351   6.313   4.591   0.463 -0.2752  0.3830  0.0440
   16CHTO  H222 6352   6.344   4.688   0.504  1.2727 -0.8077  1.7850
   16CHTO  C125 6353   6.252   4.498   0.572  0.0859  0.0607  0.3862
   16CHTO   O84 6354   6.126   4.535   0.620  0.0495 -0.1410  0.4543
   16CHTO  H205 6355   6.131   4.627   0.641 -1.1597  0.6112 -2.3595
   16CHTO  C114 6356   6.432   4.525   0.391 -0.2019  0.6675 -0.3033
   16CHTO  H218 6357   6.412   4.420   0.368  0.6561  0.4288  0.0138
   16CHTO  C116 6358   6.468   4.598   0.260 -0.8906 -0.1525 -0.1266
   16CHTO  H220 6359   6.533   4.683   0.291 -1.2915 -0.1677  0.7622
   16CHTO   O79 6360   6.553   4.512   0.186  0.2655  0.1958 -0.5925
   16CHTO  H201 6361   6.613   4.552   0.126 -0.2597 -0.6971 -1.7457
   16CHTO  C120 6362   6.347   4.655   0.178  0.4652 -0.0377 -0.5342
   16CHTO  H224 6363   6.303   4.569   0.122  1.9408 -1.3366  0.2448
   16CHTO   N21 6364   6.385   4.749   0.076 -0.3140 -0.1219 -0.2769
   16CHTO  H211 6365   6.390   4.851   0.112 -0.2676  0.3687 -1.6323
   16CHTO  H212 6366   6.324   4.740  -0.012 -2.0727 -0.0736  0.9177
   16CHTO   O75 6367   6.538   4.533   0.486 -0.4795 -0.0425  0.4956
   16CHTO  C112 6368   6.678   4.436   0.457  0.1360  0.2764 -0.0426
   16CHTO  H216 6369   6.740   4.505   0.397  0.3048 -1.0539 -1.4482
   16CHTO   O73 6370   6.637   4.326   0.383  0.2177  0.2141 -0.0318
   16CHTO  C113 6371   6.743   4.243   0.338 -0.2015 -0.3101 -0.5916
   16CHTO  H217 6372   6.797   4.303   0.261  1.4483  0.2972  1.0023
   16CHTO  C124 6373   6.691   4.127   0.256  0.2110  0.1882 -0.3721
   16CHTO   O83 6374   6.645   4.163   0.127  0.0357 -0.5350 -0.5702
   16CHTO  H204 6375   6.624   4.086   0.077 -0.3498 -1.0185  0.3243
   16CHTO  C109 6376   6.834   4.188   0.458  0.7094  0.2225  0.0579
   16CHTO  H213 6377   6.776   4.114   0.516 -0.4380  0.9228 -0.1890
   16CHTO  C110 6378   6.870   4.300   0.553 -0.8260  0.0583 -0.1238
   16CHTO  H214 6379   6.935   4.367   0.497 -0.1712 -0.1969  0.3273
   16CHTO   O78 6380   6.944   4.257   0.669 -0.6080 -0.4335  0.1127
   16CHTO  H200 6381   6.942   4.164   0.685  0.4183 -0.7588 -1.5473
   16CHTO  C111 6382   6.748   4.391   0.590  0.1501 -0.2559 -0.1771
   16CHTO  H215 6383   6.680   4.330   0.650 -0.4270 -0.1832 -0.7459
   16CHTO   N19 6384   6.781   4.515   0.668 -0.5856  0.4375 -0.0461
   16CHTO  H207 6385   6.705   4.589   0.645  0.0836  0.9930 -0.4915
   16CHTO  H208 6386   6.790   4.487   0.771 -1.4553 -0.5122 -0.2221
   16CHTO   O74 6387   6.953   4.135   0.399  0.2786  0.0799  0.0384
   16CHTO  C115 6388   6.990   3.996   0.472 -0.0262  0.3703  0.3664
   16CHTO  H219 6389   6.976   4.001   0.580  0.9947 -0.8418  0.5621
   16CHTO   O76 6390   6.892   3.873   0.411  0.5712 -0.2035  0.2667
   16CHTO  C122 6391   6.937   3.828   0.278  0.0661  0.6971 -1.3175
   16CHTO  H226 6392   6.948   3.920   0.222  1.4551  1.2098 -0.2158
   16CHTO  C126 6393   6.820   3.746   0.209 -0.2229  0.6596  0.4118
   16CHTO   O85 6394   6.715   3.823   0.152 -0.6555 -0.6370  0.1329
   16CHTO  H206 6395   6.644   3.770   0.121 -1.8177 -0.4538  2.4039
   16CHTO  C121 6396   7.071   3.750   0.290 -1.0639 -0.2958  0.5819
   16CHTO  H225 6397   7.049   3.643   0.309  3.0984 -1.0760  1.6185
   16CHTO   O81 6398   7.144   3.751   0.167  0.2905 -0.2054  0.1282
   16CHTO  H202 6399   7.085   3.733   0.097  1.2744 -1.5637 -0.3763
   16CHTO  C119 6400   7.157   3.802   0.417  0.6636 -0.1176 -0.3665
   16CHTO  H223 6401   7.118   3.754   0.506  1.6226  0.8602  0.5864
   16CHTO  C117 6402   7.140   3.956   0.436  0.3424 -0.7068  0.6678
   16CHTO  H221 6403   7.166   4.014   0.347 -0.2339  1.0160  1.6035
   16CHTO   N20 6404   7.221   4.008   0.551 -0.5282 -0.4449  0.0390
   16CHTO  H209 6405   7.256   4.109   0.535  1.1073 -1.2862 -1.8790
   16CHTO  H210 6406   7.303   3.938   0.559 -0.1353  0.1113  1.0629
   16CHTO   O80 6407   7.313   3.748   0.421  0.3191  0.5147 -0.8886
   16CHTO  C103 6408   7.343   3.581   0.407 -0.4891  0.8833  0.3818
   16CHTO  H190 6409   7.253   3.521   0.418  0.7439 -1.2499 -0.8369
   16CHTO  C101 6410   7.427   3.534   0.285 -0.4100 -0.5801  0.5135
   16CHTO  H188 6411   7.500   3.613   0.264 -0.8050 -0.9303 -2.3509
   16CHTO   O68 6412   7.338   3.539   0.169  0.0199 -0.2652 -0.4347
   16CHTO  H168 6413   7.248   3.521   0.187  0.3078 -0.0421  1.3528
   16CHTO   C99 6414   7.504   3.395   0.297  0.6317  0.3062  0.2406
   16CHTO  H186 6415   7.430   3.322   0.259  1.3106 -1.1010  1.6156
   16CHTO   N17 6416   7.621   3.377   0.199 -0.5993 -0.1920  0.0108
   16CHTO  H174 6417   7.704   3.328   0.248 -1.4757  2.1239  4.0953
   16CHTO  H175 6418   7.645   3.471   0.151  1.1879 -1.1626 -1.0328
   16CHTO   C97 6419   7.530   3.354   0.444  0.1958  0.2678 -0.8739
   16CHTO  H184 6420   7.636   3.372   0.468  0.0833 -0.6162  0.3560
   16CHTO   O64 6421   7.439   3.412   0.538  1.2358 -0.2524 -0.6952
   16CHTO  C104 6422   7.433   3.554   0.533  0.1283 -0.6580  0.1753
   16CHTO  H191 6423   7.528   3.607   0.519  0.3528 -1.7315 -2.7128
   16CHTO  C108 6424   7.371   3.609   0.664  0.1971 -0.1259  0.2695
   16CHTO   O71 6425   7.434   3.584   0.787 -0.1133 -0.1737  0.1243
   16CHTO  H171 6426   7.425   3.655   0.848 -0.6378 -1.4686  1.5889
   16CHTO   O62 6427   7.518   3.212   0.453 -0.2658 -0.2450 -0.7804
   16CHTO   C91 6428   7.533   3.143   0.576 -0.6111 -0.1522  0.1841
   16CHTO  H178 6429   7.556   3.216   0.654 -0.4569 -1.3989  1.3273
   16CHTO   C92 6430   7.657   3.039   0.567 -0.1535 -0.3946 -0.2778
   16CHTO  H179 6431   7.623   2.968   0.489  1.2053 -0.3583 -0.9085
   16CHTO   O66 6432   7.772   3.113   0.522  0.1688  0.5086  0.3729
   16CHTO  H166 6433   7.756   3.177   0.455  0.7880 -1.6968 -1.9573
   16CHTO   C93 6434   7.685   2.969   0.711 -0.0187  0.5976 -0.7697
   16CHTO  H180 6435   7.701   3.047   0.788  0.6025 -0.8598  0.6110
   16CHTO   N16 6436   7.802   2.882   0.714  0.1965 -0.1496  0.2475
   16CHTO  H172 6437   7.833   2.851   0.813 -0.9435  0.7423  0.8890
   16CHTO  H173 6438   7.879   2.929   0.655  0.6893 -1.1757  0.0565
   16CHTO   C94 6439   7.551   2.888   0.745  0.7661  0.0315  0.5808
   16CHTO  H181 6440   7.523   2.817   0.667  0.3874 -0.7779  1.4452
   16CHTO   O61 6441   7.444   2.986   0.761 -0.0302 -0.0047 -0.5417
   16CHTO   C95 6442   7.407   3.058   0.636  0.3608  0.2939  0.2667
   16CHTO  H182 6443   7.369   2.988   0.561 -0.5910  1.2287 -0.1332
   16CHTO  C106 6444   7.290   3.150   0.677 -0.0034  0.4748  0.3556
   16CHTO   O69 6445   7.175   3.081   0.728  0.2099  0.1723 -0.4223
   16CHTO  H169 6446   7.202   3.042   0.809 -3.1173 -0.4914  0.4093
   16CHTO   O63 6447   7.564   2.820   0.890  0.3605 -0.4074  0.1775
   16CHTO   C96 6448   7.413   2.768   0.953  0.0779 -0.2123  0.1391
   16CHTO  H183 6449   7.438   2.692   1.026  0.4653 -0.9728 -0.7711
   16CHTO   C98 6450   7.309   2.713   0.850 -0.9647 -0.0181  0.4029
   16CHTO  H185 6451   7.294   2.782   0.765  0.4091 -0.6154 -0.3473
   16CHTO   O67 6452   7.366   2.590   0.793  0.4008  0.4924 -0.5484
   16CHTO  H167 6453   7.397   2.536   0.864  2.8981  0.0627 -1.9130
   16CHTO  C102 6454   7.165   2.693   0.919  0.5204  0.5697  0.1338
   16CHTO  H189 6455   7.188   2.626   1.003  2.3820 -0.4003 -1.1159
   16CHTO   N18 6456   7.060   2.631   0.836 -0.4218 -0.1275 -0.6173
   16CHTO  H176 6457   7.008   2.555   0.892 -0.1947  1.2071  1.4585
   16CHTO  H177 6458   6.986   2.707   0.816 -0.6790  0.3616  2.0399
   16CHTO  C105 6459   7.125   2.836   0.969 -0.3150 -0.0131  0.9317
   16CHTO  H192 6460   7.131   2.903   0.883 -3.0766 -0.2753  0.4715
   16CHTO   O65 6461   7.223   2.879   1.065 -0.0759 -0.2931  0.0831
   16CHTO  C100 6462   7.362   2.893   1.035 -0.1854  0.4843  0.1466
   16CHTO  H187 6463   7.365   2.986   0.976  1.4189  0.3836  0.0666
   16CHTO  C107 6464   7.444   2.925   1.165  0.2645 -0.3097  0.0213
   16CHTO   O70 6465   7.376   3.027   1.236  0.1533 -0.8532  0.0327
   16CHTO  H170 6466   7.434   3.055   1.304 -0.0785  1.1534 -0.5547
   16CHTO   O57 6467   6.965   2.837   1.028  0.1792  0.2035 -0.4290
   16CHTO   C85 6468   6.871   2.923   0.959  0.0218 -0.3458 -0.3143
   16CHTO  H157 6469   6.895   2.917   0.851  0.0974 -0.1265 -0.3113
   16CHTO   C83 6470   6.901   3.073   1.004 -0.8296  0.0440 -0.8608
   16CHTO  H155 6471   7.003   3.102   0.976 -1.6933  1.9037 -2.1705
   16CHTO   O56 6472   6.880   3.087   1.150  0.2826 -0.6624  0.0398
   16CHTO  H135 6473   6.935   3.022   1.188 -0.8804 -1.1522  0.9232
   16CHTO   C81 6474   6.805   3.150   0.913  0.3000  0.4590  0.1094
   16CHTO  H153 6475   6.834   3.134   0.809  0.0811  1.9641 -0.1856
   16CHTO   N14 6476   6.824   3.294   0.929  0.0330 -0.0338  0.2892
   16CHTO  H141 6477   6.803   3.334   1.027 -2.1785 -0.0648 -0.1454
   16CHTO  H142 6478   6.758   3.347   0.863 -0.9762  0.6248  1.7871
   16CHTO   C79 6479   6.648   3.115   0.932 -0.2502  0.8421 -0.3521
   16CHTO  H151 6480   6.596   3.148   0.842 -1.8247 -3.2496 -1.0370
   16CHTO   O52 6481   6.624   2.971   0.915 -0.1452  0.2070  0.2405
   16CHTO   C86 6482   6.722   2.894   0.994 -0.1577 -0.1401  0.0542
   16CHTO  H158 6483   6.687   2.915   1.097 -0.8097 -1.6120  0.1529
   16CHTO   C90 6484   6.689   2.743   0.972 -0.4148  0.5361  0.0028
   16CHTO   O60 6485   6.567   2.698   1.029 -0.2264  0.1646 -0.4976
   16CHTO  H138 6486   6.562   2.605   1.036 -2.5694  0.2329 -1.0582
   16CHTO   O50 6487   6.578   3.159   1.053 -0.1337  0.1946 -0.5826
   16CHTO   C73 6488   6.475   3.146   1.138  0.5975  0.0330 -0.1749
   16CHTO  H145 6489   6.457   3.047   1.182  0.8388 -0.3396 -0.9094
   16CHTO   C74 6490   6.339   3.184   1.063  0.0429 -0.0243 -0.4514
   16CHTO  H146 6491   6.324   3.113   0.980  0.1280  0.8082 -1.1822
   16CHTO   O54 6492   6.235   3.155   1.156  0.4110  0.1717 -0.6165
   16CHTO  H133 6493   6.151   3.177   1.119 -0.3153  1.8037  1.8950
   16CHTO   C75 6494   6.333   3.332   1.014  0.0565  0.4073  0.3363
   16CHTO  H147 6495   6.413   3.348   0.941 -1.1636 -1.8469 -1.5780
   16CHTO   N13 6496   6.218   3.358   0.923  0.0596 -0.5878 -0.2483
   16CHTO  H139 6497   6.226   3.321   0.822 -0.4615 -0.4164 -0.3537
   16CHTO  H140 6498   6.123   3.347   0.974 -0.0108  0.6729 -0.0849
   16CHTO   C76 6499   6.356   3.426   1.140  0.7333 -0.1833 -0.7068
   16CHTO  H148 6500   6.275   3.398   1.207  0.0190 -2.0199 -2.3021
   16CHTO   O49 6501   6.493   3.388   1.207  0.3833  1.0284  0.0866
   16CHTO   C77 6502   6.497   3.247   1.252 -0.0694  0.1284 -0.1397
   16CHTO  H149 6503   6.413   3.241   1.321 -0.5917 -1.1914 -0.8700
   16CHTO   C88 6504   6.628   3.224   1.328 -0.2307 -0.1667 -0.9462
   16CHTO   O58 6505   6.630   3.121   1.381 -0.1655 -0.1825 -0.0441
   16CHTO  H136 6506   6.569   3.117   1.452  1.2561  0.0729  1.2206
   16CHTO   O51 6507   6.384   3.580   1.112  0.1371  0.3793  0.3831
   16CHTO   C78 6508   6.339   3.682   1.215  0.1242  0.3436  0.5449
   16CHTO  H150 6509   6.319   3.637   1.315  1.6750  0.1191  0.7713
   16CHTO   C80 6510   6.212   3.766   1.176  0.3416 -0.5951  0.3481
   16CHTO  H152 6511   6.238   3.827   1.087 -1.8148  0.3349  0.3265
   16CHTO   O55 6512   6.105   3.673   1.157  0.1411 -0.2543 -0.4831
   16CHTO  H134 6513   6.021   3.706   1.180  0.2655 -1.1326  1.3746
   16CHTO   C84 6514   6.181   3.878   1.287  0.0088 -0.6303  0.5300
   16CHTO  H156 6515   6.151   3.818   1.373  2.3733  1.7933  3.1540
   16CHTO   N15 6516   6.058   3.959   1.253  0.1620  0.5016 -0.5391
   16CHTO  H143 6517   5.977   3.889   1.257  0.0607  0.5919 -0.9738
   16CHTO  H144 6518   6.059   4.002   1.155 -0.0818  0.0025 -0.7629
   16CHTO   C87 6519   6.313   3.958   1.307  0.2722 -0.0825  0.5070
   16CHTO  H159 6520   6.346   4.003   1.213 -0.7343 -0.4284 -0.0221
   16CHTO   O53 6521   6.419   3.857   1.356 -0.2412  0.0849  0.3315
   16CHTO   C82 6522   6.461   3.770   1.249 -0.4422 -0.2948 -0.0185
   16CHTO  H154 6523   6.499   3.820   1.160 -0.6576 -1.0744 -0.5500
   16CHTO   C89 6524   6.571   3.680   1.300 -0.1510  0.2895  0.2290
   16CHTO   O59 6525   6.680   3.773   1.318 -0.3396 -0.0282  0.1272
   16CHTO  H137 6526   6.763   3.732   1.333 -1.4248 -1.9262  1.1881
   16CHTO   O45 6527   6.295   4.083   1.422 -0.4820 -0.4309  0.5683
   16CHTO   C67 6528   6.419   4.151   1.451  0.3407 -0.9353 -0.6586
   16CHTO  H124 6529   6.495   4.075   1.468  0.3342 -1.1606 -1.5889
   16CHTO   C65 6530   6.471   4.240   1.331  0.3372 -0.1646 -0.2104
   16CHTO  H122 6531   6.381   4.259   1.273  0.0350 -1.0447 -0.0355
   16CHTO   O44 6532   6.565   4.161   1.252  0.1217  0.6595 -0.0001
   16CHTO  H102 6533   6.542   4.168   1.161 -0.3357 -1.0217 -0.0317
   16CHTO   C63 6534   6.514   4.386   1.369  0.4152  1.6159  0.4903
   16CHTO  H120 6535   6.424   4.432   1.408 -0.1036  0.5517  0.5667
   16CHTO   N11 6536   6.553   4.475   1.256  0.4671 -1.2403  0.3741
   16CHTO  H108 6537   6.474   4.475   1.184 -1.4913 -0.8403  2.4491
   16CHTO  H109 6538   6.571   4.572   1.297  2.1022 -0.2900 -2.4496
   16CHTO   C61 6539   6.606   4.375   1.490 -0.6988  0.0640  0.4147
   16CHTO  H118 6540   6.634   4.476   1.523  1.8763 -0.8345  1.1095
   16CHTO   O40 6541   6.546   4.301   1.604  0.2818  0.3602  0.0832
   16CHTO   C68 6542   6.414   4.234   1.584  0.2485 -0.1640  0.7522
   16CHTO  H125 6543   6.345   4.321   1.585 -1.2414 -1.2869 -0.8725
   16CHTO   C72 6544   6.373   4.142   1.702 -0.0092 -0.9107 -0.0898
   16CHTO   O48 6545   6.466   4.043   1.742 -0.4368  0.6622  0.3058
   16CHTO  H105 6546   6.442   3.993   1.818  0.7784 -2.0554 -1.0425
   16CHTO   O38 6547   6.730   4.317   1.436 -0.0626 -1.1280  0.4493
   16CHTO   C55 6548   6.835   4.279   1.526 -0.5422 -0.3640 -0.4227
   16CHTO  H112 6549   6.786   4.249   1.620  0.9064  1.4974  0.9513
   16CHTO   C56 6550   6.940   4.395   1.554 -1.5205 -0.0594  0.3549
   16CHTO  H113 6551   6.974   4.430   1.455  1.2041 -0.2280  1.1900
   16CHTO   O42 6552   6.878   4.508   1.622  0.1519 -0.0286  0.3156
   16CHTO  H100 6553   6.817   4.472   1.684  0.5334 -1.3054 -0.0206
   16CHTO   C57 6554   7.071   4.337   1.629  0.1527  0.1358 -0.0842
   16CHTO  H114 6555   7.034   4.296   1.723 -3.0195  1.1924 -0.7960
   16CHTO   N10 6556   7.173   4.439   1.655 -0.3327  0.4209  0.1987
   16CHTO  H106 6557   7.179   4.507   1.570 -2.1586 -0.2898 -0.5080
   16CHTO  H107 6558   7.270   4.397   1.680 -0.5857  0.3844  1.1467
   16CHTO   C58 6559   7.122   4.228   1.542 -0.1873  0.0541  0.4961
   16CHTO  H115 6560   7.141   4.270   1.441  0.9319 -0.0551  0.6580
   16CHTO   O37 6561   7.026   4.119   1.536  0.1471  0.0370 -0.3595
   16CHTO   C59 6562   6.906   4.147   1.475 -0.1831  0.0611  0.5651
   16CHTO  H116 6563   6.941   4.160   1.372 -0.0012 -0.2844  0.5830
   16CHTO   C70 6564   6.816   4.012   1.468  0.0869  0.0264 -0.4024
   16CHTO   O46 6565   6.807   3.954   1.591  0.4676 -0.3517  0.2555
   16CHTO  H103 6566   6.742   3.886   1.591 -1.4539  1.4086 -1.9953
   16CHTO   O39 6567   7.249   4.165   1.584 -0.4069 -0.4235  0.1564
   16CHTO   C60 6568   7.321   4.091   1.483 -0.1391  0.2104  0.0037
   16CHTO  H117 6569   7.266   4.072   1.391  0.5425 -1.0309 -0.1483
   16CHTO   C62 6570   7.448   4.167   1.449  0.6483  0.5538  0.7410
   16CHTO  H119 6571   7.416   4.267   1.414  2.5261  1.8204  2.5797
   16CHTO   O43 6572   7.524   4.192   1.566  0.0764  0.2918  0.5470
   16CHTO  H101 6573   7.531   4.123   1.629 -1.5996 -0.3011  0.0971
   16CHTO   C66 6574   7.518   4.088   1.317  0.2174  0.3882 -0.8963
   16CHTO  H123 6575   7.438   4.073   1.244  0.0939 -0.4873 -0.5813
   16CHTO   N12 6576   7.625   4.160   1.245 -0.5104  0.7168  0.0380
   16CHTO  H110 6577   7.721   4.126   1.281 -0.8525 -0.8187 -0.4538
   16CHTO  H111 6578   7.620   4.177   1.138  0.3973  0.9718  0.0374
   16CHTO   C69 6579   7.567   3.946   1.356  0.1814  0.7586 -0.3330
   16CHTO  H126 6580   7.637   3.952   1.442 -0.9450  0.7748  0.5962
   16CHTO   O41 6581   7.443   3.866   1.417  0.4708 -0.1842 -0.3394
   16CHTO   C64 6582   7.361   3.949   1.537 -0.0672 -0.4308  0.3121
   16CHTO  H121 6583   7.420   3.951   1.632 -1.5501 -0.0184  1.2414
   16CHTO   C71 6584   7.231   3.868   1.565 -0.3961  0.0680 -0.5610
   16CHTO   O47 6585   7.265   3.735   1.590  0.5152 -0.2464 -0.1093
   16CHTO  H104 6586   7.282   3.690   1.508  0.1166  0.3445 -0.5144
   16CHTO   O34 6587   7.635   3.848   1.235 -0.3195 -0.1255 -0.1803
   16CHTO   C49 6588   7.700   3.731   1.158  0.0936  0.0424  0.1970
   16CHTO   H91 6589   7.719   3.757   1.054 -0.7700 -2.1244 -0.5483
   16CHTO   C47 6590   7.594   3.620   1.154 -0.3239  0.0067  0.6229
   16CHTO   H89 6591   7.622   3.536   1.088  0.5961  1.2238 -0.5516
   16CHTO   O33 6592   7.475   3.681   1.099  0.7450 -0.3047 -0.9686
   16CHTO   H70 6593   7.458   3.645   1.014 -0.0271  0.4843 -1.1571
   16CHTO   C45 6594   7.577   3.554   1.300 -0.2815  0.3530 -0.1752
   16CHTO   H87 6595   7.545   3.641   1.360  0.5357  0.3327  0.2942
   16CHTO    N8 6596   7.469   3.453   1.309  0.8913  0.3273  0.5098
   16CHTO   H75 6597   7.383   3.498   1.357  0.9578  1.4719 -0.4259
   16CHTO   H76 6598   7.493   3.374   1.378  1.0833 -0.2784 -0.2445
   16CHTO   C43 6599   7.717   3.504   1.357 -0.0546 -0.0065 -0.1548
   16CHTO   H85 6600   7.696   3.477   1.461 -1.3753  0.5090 -0.2892
   16CHTO   O29 6601   7.810   3.613   1.348  0.3805 -0.0727 -0.5719
   16CHTO   C50 6602   7.836   3.686   1.225  0.1191  0.3387  0.2884
   16CHTO   H92 6603   7.894   3.774   1.255 -0.9507  1.3543 -0.5472
   16CHTO   C54 6604   7.925   3.610   1.123 -0.0390  0.3434  0.0208
   16CHTO   O36 6605   8.061   3.605   1.163 -0.0240 -0.0710  0.2250
   16CHTO   H72 6606   8.092   3.693   1.168 -1.5447  0.3931  2.0328
   16CHTO   O27 6607   7.768   3.383   1.297 -0.3479 -0.3929  0.1514
   16CHTO   C37 6608   7.817   3.257   1.341  0.5173 -0.8397  0.0859
   16CHTO   H79 6609   7.926   3.259   1.323  0.7102  1.8714  1.3540
   16CHTO   C38 6610   7.794   3.239   1.491 -0.1729 -0.0823  0.6288
   16CHTO   H80 6611   7.687   3.259   1.509 -0.4879 -1.5878  0.5392
   16CHTO   O31 6612   7.887   3.329   1.554  0.6797  0.3378  0.9726
   16CHTO   H68 6613   7.902   3.289   1.638 -1.1565 -1.2495  0.5864
   16CHTO   C39 6614   7.811   3.090   1.540  0.9334 -0.0277  0.1107
   16CHTO   H81 6615   7.919   3.073   1.532  1.0600  1.1278 -0.7950
   16CHTO    N7 6616   7.771   3.061   1.679 -0.5706 -0.1937  0.1797
   16CHTO   H73 6617   7.666   3.035   1.670 -0.8433  1.4675 -1.9416
   16CHTO   H74 6618   7.772   3.134   1.758  1.5533 -0.3151  0.2782
   16CHTO   C40 6619   7.756   2.986   1.434 -0.1014  0.1852  0.2450
   16CHTO   H82 6620   7.649   2.973   1.445 -0.2777 -0.4569 -1.8719
   16CHTO   O26 6621   7.794   3.019   1.297  0.4584  0.1280  0.2312
   16CHTO   C41 6622   7.754   3.152   1.257  0.0052 -0.0722 -0.2411
   16CHTO   H83 6623   7.646   3.154   1.276  0.0944  0.3012  0.2201
   16CHTO   C52 6624   7.774   3.176   1.103 -0.9194  0.0952 -0.1794
   16CHTO   O35 6625   7.715   3.086   1.020  0.1308  0.8057  0.1438
   16CHTO   H71 6626   7.637   3.120   0.981 -0.2272  0.4128  0.5058
   16CHTO   O28 6627   7.803   2.850   1.453 -0.5686  0.2351 -0.2593
   16CHTO   C42 6628   7.754   2.727   1.394 -0.2862  0.5421 -0.3190
   16CHTO   H84 6629   7.826   2.653   1.428  0.1909  0.6208 -1.1480
   16CHTO   C44 6630   7.755   2.727   1.243  0.5618 -0.1851 -0.0115
   16CHTO   H86 6631   7.682   2.803   1.212  1.1760  1.0159  1.4726
   16CHTO   O32 6632   7.883   2.775   1.197 -1.0147  0.3912 -0.6128
   16CHTO   H69 6633   7.884   2.793   1.105  1.2899 -0.2126 -0.7308
   16CHTO   C48 6634   7.723   2.579   1.189  0.4146 -0.0137 -0.4488
   16CHTO   H90 6635   7.795   2.508   1.229  0.3152  0.2136  0.1452
   16CHTO    N9 6636   7.724   2.572   1.040 -0.2266  0.0994 -0.0283
   16CHTO   H77 6637   7.647   2.634   0.996 -1.3479 -2.2217 -1.4205
   16CHTO   H78 6638   7.706   2.470   1.011  1.2492 -0.3871  0.7686
   16CHTO   C51 6639   7.575   2.541   1.243  0.1591  0.5824 -0.3822
   16CHTO   H93 6640   7.506   2.619   1.209 -1.1138  0.5517  2.0371
   16CHTO   O30 6641   7.589   2.543   1.386  0.1897 -1.2465 -0.6298
   16CHTO   C46 6642   7.613   2.683   1.448 -0.0918  0.3761 -0.5610
   16CHTO   H88 6643   7.527   2.743   1.419 -0.8765  0.8031  2.4547
   16CHTO   C53 6644   7.619   2.675   1.602 -0.9779  0.3261 -0.2640
   16CHTO   O72 6645   7.504   2.628   1.668 -0.7254 -0.3663  0.1931
   16CHTO  H199 6646   7.517   2.628   1.760  0.2647 -2.2853  0.0843
   16CHTO   O22 6647   7.533   2.409   1.211 -0.3603  0.4029  0.9009
   16CHTO   C31 6648   7.417   2.325   1.255  0.2824 -0.5153 -0.1993
   16CHTO   H59 6649   7.403   2.354   1.361  0.9047 -0.6701 -0.0743
   16CHTO   C29 6650   7.285   2.354   1.179 -0.5039 -0.0964 -0.2765
   16CHTO   H57 6651   7.308   2.353   1.071 -0.8248  0.9194 -0.3566
   16CHTO   O21 6652   7.251   2.487   1.195  0.1870 -0.7839 -0.1325
   16CHTO   H37 6653   7.323   2.545   1.177  1.1758 -1.3077  1.9628
   16CHTO   C27 6654   7.168   2.256   1.209  0.1274 -0.1641 -0.5781
   16CHTO   H55 6655   7.136   2.275   1.313  3.0444  0.4911  0.2336
   16CHTO    N5 6656   7.054   2.262   1.117 -0.7262 -0.4272  0.1568
   16CHTO   H43 6657   7.018   2.363   1.125 -2.2191 -0.8132 -1.4239
   16CHTO   H44 6658   6.985   2.190   1.158  0.5922 -1.4350  0.6714
   16CHTO   C25 6659   7.217   2.108   1.220 -0.0079 -0.1316  0.5371
   16CHTO   H53 6660   7.245   2.071   1.119 -0.9800 -0.8686  0.5343
   16CHTO   O17 6661   7.331   2.105   1.309  0.2566 -0.2572  0.0512
   16CHTO   C32 6662   7.450   2.175   1.253 -0.2263  0.5390 -0.9864
   16CHTO   H60 6663   7.484   2.151   1.152  0.0364 -0.0623 -0.7571
   16CHTO   C36 6664   7.568   2.145   1.350  0.6353  0.5368 -0.0196
   16CHTO   O25 6665   7.631   2.015   1.331  0.2152 -0.3033 -0.0108
   16CHTO   H40 6666   7.649   1.966   1.409  0.2882  0.8213  0.6968
   16CHTO   O15 6667   7.114   2.016   1.303 -0.1049 -0.3395 -0.1986
   16CHTO   C19 6668   7.007   1.987   1.402  0.1428 -0.4627 -0.4344
   16CHTO   H47 6669   7.013   1.879   1.423 -1.4282 -0.7783 -1.4973
   16CHTO   C20 6670   7.022   2.066   1.532  0.1710 -0.0550  0.3061
   16CHTO   H48 6671   7.048   2.173   1.519 -1.7533  0.3640 -0.1985
   16CHTO   O19 6672   7.138   2.009   1.594 -0.4131  0.3306  0.0692
   16CHTO   H35 6673   7.214   2.019   1.539 -0.1498  1.6932  0.6644
   16CHTO   C21 6674   6.895   2.048   1.631  0.9403  0.2811 -0.3257
   16CHTO   H49 6675   6.884   1.944   1.660 -0.0365  0.4297 -0.1652
   16CHTO    N4 6676   6.905   2.121   1.758  0.2882  0.4833 -0.1119
   16CHTO   H41 6677   6.890   2.051   1.839  1.1222  0.1014 -0.2784
   16CHTO   H42 6678   6.839   2.206   1.767 -0.8383 -0.4898  1.0224
   16CHTO   C22 6679   6.767   2.072   1.551 -0.3828  0.3578  0.4390
   16CHTO   H50 6680   6.764   2.169   1.503 -0.8116  0.7163  1.1758
   16CHTO   O14 6681   6.758   1.982   1.445  0.3849  0.1720  0.1990
   16CHTO   C23 6682   6.859   2.006   1.344  0.1750  0.3081 -0.2025
   16CHTO   H51 6683   6.846   2.107   1.303  2.1228  0.2550 -1.0193
   16CHTO   C34 6684   6.840   1.904   1.232 -0.0119  0.2055  0.1377
   16CHTO   O23 6685   6.707   1.907   1.187 -0.1782 -0.2658 -0.1369
   16CHTO   H38 6686   6.652   1.879   1.257 -2.3600  2.3921 -0.6931
   16CHTO   O16 6687   6.645   2.036   1.624  0.2278 -0.1853 -0.0297
   16CHTO   C24 6688   6.542   2.155   1.609  0.1444 -0.4447  0.2949
   16CHTO   H52 6689   6.555   2.206   1.513  0.1484 -4.3600 -1.8879
   16CHTO   C26 6690   6.534   2.256   1.722  0.1329  0.4170 -0.5879
   16CHTO   H54 6691   6.533   2.205   1.820  3.1998  1.8753  0.2715
   16CHTO   O20 6692   6.648   2.339   1.713 -0.3597  0.4046  0.2579
   16CHTO   H36 6693   6.655   2.399   1.785  0.1141 -0.1464  0.6743
   16CHTO   C30 6694   6.400   2.341   1.714  0.0987  0.7805  0.6018
   16CHTO   H58 6695   6.407   2.404   1.625 -0.5760  0.6466  0.4529
   16CHTO    N6 6696   6.392   2.428   1.835  0.0931  1.0025  0.1806
   16CHTO   H45 6697   6.293   2.414   1.875  0.2309 -0.4864  0.0303
   16CHTO   H46 6698   6.413   2.532   1.811  1.0651  0.1869 -2.8094
   16CHTO   C33 6699   6.276   2.245   1.697  0.0440  0.3879  0.2681
   16CHTO   H61 6700   6.262   2.193   1.793 -0.7505  3.4654  1.8816
   16CHTO   O18 6701   6.293   2.148   1.593 -0.1366 -0.4118 -0.2487
   16CHTO   C28 6702   6.412   2.073   1.595 -0.3273  0.7283  0.5144
   16CHTO   H56 6703   6.407   2.001   1.676  0.9373 -0.7202 -0.6553
   16CHTO   C35 6704   6.422   1.997   1.458  0.1231  0.2970 -0.0439
   16CHTO   O24 6705   6.400   2.070   1.340 -0.2281  0.1682  0.1063
   16CHTO   H39 6706   6.316   2.044   1.306  0.9601 -0.7099 -2.2059
   16CHTO    O9 6707   6.158   2.327   1.677 -0.3835 -0.6060 -0.2729
   16CHTO   C13 6708   6.038   2.285   1.770  0.1769 -0.7261  0.4431
   16CHTO   H26 6709   6.083   2.287   1.872  2.1998 -2.0379 -0.3990
   16CHTO   C11 6710   5.972   2.148   1.737  0.3116  0.0745 -0.1000
   16CHTO   H24 6711   6.044   2.071   1.769  1.7015  0.6367 -1.8123
   16CHTO    O8 6712   5.963   2.134   1.601  0.0329 -0.2398 -0.1985
   16CHTO    H3 6713   5.878   2.165   1.577  1.0587  1.4328 -1.7713
   16CHTO    C9 6714   5.835   2.132   1.810 -0.1398 -0.2750  0.6139
   16CHTO   H22 6715   5.852   2.141   1.918  0.8439  2.6176  0.2497
   16CHTO    N2 6716   5.777   1.997   1.798 -0.3868 -0.2584  0.6989
   16CHTO   H10 6717   5.714   1.976   1.883 -3.4486  0.4190 -1.3207
   16CHTO   H11 6718   5.720   1.990   1.707  1.6177  0.5243 -0.6545
   16CHTO    C7 6719   5.737   2.245   1.760 -0.9368 -0.1880  0.2433
   16CHTO   H20 6720   5.672   2.271   1.846  1.1254  0.6627  1.5643
   16CHTO    O4 6721   5.801   2.370   1.722  0.5167  0.5959 -0.6436
   16CHTO   C14 6722   5.927   2.408   1.777  1.0084 -0.0553 -0.3550
   16CHTO   H27 6723   5.908   2.434   1.884  0.7977  1.2250 -0.6957
   16CHTO   C18 6724   5.976   2.537   1.709 -0.0604  0.4423  0.1400
   16CHTO   O13 6725   6.074   2.605   1.786 -0.2424  0.2703  0.1195
   16CHTO    H7 6726   6.121   2.666   1.733  1.8870 -0.4966  1.0757
   16CHTO    O2 6727   5.636   2.206   1.634 -0.7438 -0.0420 -0.7275
   16CHTO    C1 6728   5.504   2.260   1.656  0.2698 -0.7023  0.2978
   16CHTO   H14 6729   5.508   2.343   1.729 -0.0646 -0.8809  0.5171
   16CHTO    C2 6730   5.404   2.147   1.711 -0.1378  0.1460 -0.2005
   16CHTO   H15 6731   5.422   2.055   1.653 -0.4187 -0.0540  0.0284
   16CHTO    O6 6732   5.445   2.138   1.848 -0.5803  0.0919 -0.1619
   16CHTO    H1 6733   5.396   2.081   1.905 -0.5437 -2.1055 -2.2502
   16CHTO    C3 6734   5.261   2.205   1.701  0.1803  0.0690  0.5378
   16CHTO   H16 6735   5.245   2.283   1.777 -0.0174  1.8132 -1.2647
   16CHTO    N1 6736   5.164   2.093   1.726 -0.3409 -0.3520 -0.0818
   16CHTO    H8 6737   5.150   2.031   1.639  0.2858  2.2399 -2.0880
   16CHTO    H9 6738   5.064   2.125   1.754  1.4154  4.4790  1.0984
   16CHTO    C4 6739   5.237   2.271   1.561 -0.2376 -0.1090 -0.0211
   16CHTO   H17 6740   5.243   2.193   1.486  1.9571 -0.2286  0.2399
   16CHTO    O1 6741   5.329   2.371   1.528 -0.2544  0.0786 -0.4992
   16CHTO    C5 6742   5.465   2.326   1.522  0.5900 -0.2459 -0.0394
   16CHTO   H18 6743   5.487   2.256   1.441  1.0647  0.8086 -0.8357
   16CHTO   C16 6744   5.546   2.457   1.493 -0.3385  0.1345  0.2497
   16CHTO   O11 6745   5.671   2.406   1.447  0.3882  0.3930  0.4601
   16CHTO    H5 6746   5.727   2.370   1.514  0.0097 -2.0185 -0.4480
   16CHTO    O3 6747   5.122   2.350   1.569  0.0846 -0.2033  0.2743
   16CHTO    C6 6748   5.045   2.366   1.446 -0.9824 -0.3795 -0.4558
   16CHTO   H19 6749   5.090   2.308   1.365  1.1137  2.4306 -1.3636
   16CHTO    C8 6750   4.899   2.318   1.470 -0.1053 -0.0536  1.4880
   16CHTO   H21 6751   4.853   2.378   1.549  1.1269  0.8153  1.5518
   16CHTO    O7 6752   4.904   2.185   1.514  0.0885  0.0659 -0.3083
   16CHTO    H2 6753   4.936   2.184   1.603 -3.4124 -1.1281  1.0200
   16CHTO   C12 6754   4.801   2.336   1.345  1.0035  0.1930 -0.5815
   16CHTO   H25 6755   4.843   2.260   1.276  0.5995 -1.4019  0.8769
   16CHTO    N3 6756   4.661   2.290   1.371  0.1093  0.3624 -0.1167
   16CHTO   H12 6757   4.586   2.365   1.348  1.0621  0.9085 -1.5147
   16CHTO   H13 6758   4.641   2.208   1.305  1.1813 -0.5096  0.6282
   16CHTO   C15 6759   4.815   2.481   1.282 -0.6017  0.3972 -0.2577
   16CHTO   H28 6760   4.773   2.556   1.349  0.3422  0.6804  0.0137
   16CHTO   O10 6761   4.764   2.484   1.136 -0.7135 -0.7891 -0.3918
   16CHTO    H4 6762   4.822   2.447   1.072  1.3454  2.9036 -0.7746
   16CHTO    O5 6763   4.959   2.498   1.271  0.1818  0.5090  0.1925
   16CHTO   C10 6764   5.028   2.511   1.398 -0.1208 -0.3189  0.1400
   16CHTO   H23 6765   4.970   2.579   1.460 -1.2729  1.2213 -2.5390
   16CHTO   C17 6766   5.160   2.578   1.368  0.1736  0.8958 -0.2867
   16CHTO   O12 6767   5.133   2.716   1.328  0.1020  0.0723  0.4644
   16CHTO    H6 6768   5.082   2.713   1.250  0.3146 -0.0808  0.3293
   17CHTO  H203 6769   5.760   4.617   0.111  0.0938  0.1325  1.0012
   17CHTO   O82 6770   5.674   4.653   0.101 -0.1574 -0.7257  0.0227
   17CHTO  C123 6771   5.647   4.769   0.181 -0.5170  0.1064 -0.5267
   17CHTO  H227 6772   5.637   4.739   0.286  1.4136 -0.6462 -0.5364
   17CHTO   O77 6773   5.766   4.852   0.144 -0.3244  0.1930 -0.1099
   17CHTO  C118 6774   5.764   4.976   0.206 -0.6952 -1.2266 -0.7713
   17CHTO  H222 6775   5.759   4.971   0.316  4.0489 -0.8683 -0.4683
   17CHTO  C125 6776   5.903   5.030   0.171 -1.0567  0.0632 -0.1593
   17CHTO   O84 6777   5.943   5.141   0.250  0.4979 -0.2096  0.6719
   17CHTO  H205 6778   5.976   5.203   0.188 -0.5407  0.7983  1.1056
   17CHTO  C114 6779   5.649   5.057   0.149 -0.1851 -0.2133 -0.5442
   17CHTO  H218 6780   5.662   5.068   0.042 -0.8285 -0.4547 -0.6471
   17CHTO  C116 6781   5.508   4.989   0.169  0.9144  0.5772 -0.3238
   17CHTO  H220 6782   5.476   5.001   0.275 -1.3225 -0.1609 -0.8798
   17CHTO   O79 6783   5.415   5.063   0.094  0.0159  0.6230  0.3695
   17CHTO  H201 6784   5.374   5.123   0.152 -2.7822  1.9570 -2.7934
   17CHTO  C120 6785   5.508   4.836   0.122  0.5286 -0.6878 -1.0108
   17CHTO  H224 6786   5.513   4.850   0.012 -0.3750 -1.2356 -1.1223
   17CHTO   N21 6787   5.384   4.759   0.158 -0.0282  0.1558 -0.2322
   17CHTO  H211 6788   5.403   4.665   0.208 -2.1153  0.0284  0.3649
   17CHTO  H212 6789   5.315   4.738   0.077 -1.4353  0.4856  0.8602
   17CHTO   O75 6790   5.667   5.178   0.220  0.1234 -0.2291 -0.2838
   17CHTO  C112 6791   5.660   5.321   0.127 -0.4012 -0.1189  0.4304
   17CHTO  H216 6792   5.609   5.310   0.030  1.1899  1.1517 -0.5711
   17CHTO   O73 6793   5.792   5.362   0.105 -0.1394  0.2115  0.0031
   17CHTO  C113 6794   5.801   5.472   0.020  0.3016  0.6870  0.0991
   17CHTO  H217 6795   5.745   5.436  -0.069  1.4883 -0.9394 -0.0172
   17CHTO  C124 6796   5.949   5.505  -0.016  0.7303 -0.1000 -0.1691
   17CHTO   O83 6797   6.040   5.528   0.094 -0.0930  0.0685  0.0102
   17CHTO  H204 6798   6.007   5.594   0.152 -1.7393 -0.2705 -0.5300
   17CHTO  C109 6799   5.745   5.603   0.087 -0.0588 -0.1597 -0.0876
   17CHTO  H213 6800   5.808   5.628   0.173  2.0121  0.5151 -1.7588
   17CHTO  C110 6801   5.602   5.568   0.139  0.0324  0.4924  0.0779
   17CHTO  H214 6802   5.537   5.569   0.051  0.4440  1.1805 -0.2301
   17CHTO   O78 6803   5.551   5.674   0.218 -0.2184  0.7501  0.1072
   17CHTO  H200 6804   5.606   5.690   0.292 -0.6775  0.7646  0.4499
   17CHTO  C111 6805   5.593   5.430   0.214  0.0200 -0.6627  0.0052
   17CHTO  H215 6806   5.638   5.443   0.313  0.8216  0.2745 -0.4707
   17CHTO   N19 6807   5.450   5.386   0.236 -0.2765 -0.4475 -0.0842
   17CHTO  H207 6808   5.415   5.336   0.147 -2.8300  0.2929  0.4900
   17CHTO  H208 6809   5.386   5.471   0.255 -0.2766 -0.4593 -0.0334
   17CHTO   O74 6810   5.748   5.716  -0.001  0.3032  0.0023 -0.3042
   17CHTO  C115 6811   5.841   5.845   0.041 -0.0125  0.0354 -1.0092
   17CHTO  H219 6812   5.876   5.838   0.143 -1.1241 -1.0323 -0.6876
   17CHTO   O76 6813   5.968   5.855  -0.045  0.1180 -0.1196 -0.2042
   17CHTO  C122 6814   6.052   5.971  -0.032  0.4629 -0.1125 -0.2922
   17CHTO  H226 6815   6.131   5.961  -0.107 -2.1565 -0.4497 -3.0717
   17CHTO  C126 6816   6.125   5.977   0.104  0.1038  0.7746 -0.1921
   17CHTO   O85 6817   6.189   5.852   0.142 -0.5212 -0.2862 -0.4795
   17CHTO  H206 6818   6.271   5.848   0.096 -0.7449 -1.5326 -0.7845
   17CHTO  C121 6819   5.972   6.102  -0.060 -0.3397  0.8283 -0.6485
   17CHTO  H225 6820   6.046   6.179  -0.029 -0.2157  0.7412 -0.7237
   17CHTO   O81 6821   5.936   6.107  -0.198 -0.4463 -0.1328 -0.4954
   17CHTO  H202 6822   5.889   6.033  -0.230  0.5419 -0.4429 -1.2516
   17CHTO  C119 6823   5.849   6.101   0.035 -0.4127 -0.8775  0.3476
   17CHTO  H223 6824   5.884   6.111   0.137  0.2881 -1.4667  0.1717
   17CHTO  C117 6825   5.755   5.977   0.016  0.0785  0.3756  0.2790
   17CHTO  H221 6826   5.708   5.960  -0.081  1.5495 -1.7667 -0.1097
   17CHTO   N20 6827   5.641   5.996   0.107  0.0092  0.7624 -0.1817
   17CHTO  H209 6828   5.566   6.067   0.074  0.3628  1.6696  0.9451
   17CHTO  H210 6829   5.599   5.903   0.141  0.7357  0.3488 -0.4083
   17CHTO   O80 6830   5.777   6.247   0.006  0.0967 -0.4670  1.2738
   17CHTO  C103 6831   5.805   6.364   0.086  0.1046 -0.3594  0.7934
   17CHTO  H190 6832   5.790   6.341   0.192  1.4692  1.7810  1.4899
   17CHTO  C101 6833   5.944   6.433   0.061 -0.0984 -0.9763  0.0862
   17CHTO  H188 6834   5.971   6.431  -0.044 -3.2333 -0.4216 -0.7757
   17CHTO   O68 6835   6.050   6.354   0.136  0.8997 -0.0318  0.0726
   17CHTO  H168 6836   6.014   6.324   0.217  2.8397  0.7817  1.2662
   17CHTO   C99 6837   5.950   6.583   0.113  0.2037 -0.0680  0.9611
   17CHTO  H186 6838   5.947   6.584   0.224  1.0755  1.1497  0.9895
   17CHTO   N17 6839   6.077   6.659   0.074  0.2689 -0.4026 -0.8280
   17CHTO  H174 6840   6.073   6.697  -0.027  0.7071 -0.3280 -0.8180
   17CHTO  H175 6841   6.161   6.594   0.093 -0.3650 -0.9966 -0.0284
   17CHTO   C97 6842   5.826   6.659   0.075 -0.5594 -0.0608 -0.1870
   17CHTO  H184 6843   5.822   6.687  -0.031  1.2772 -0.1517 -0.2948
   17CHTO   O64 6844   5.708   6.584   0.116 -0.0341 -0.7731  0.2374
   17CHTO  C104 6845   5.692   6.464   0.043  0.5555 -0.8251  0.0359
   17CHTO  H191 6846   5.696   6.479  -0.065  1.6667 -1.3679 -0.0003
   17CHTO  C108 6847   5.549   6.408   0.070  0.4661 -0.1777 -0.3641
   17CHTO   O71 6848   5.449   6.512   0.034  0.0212 -0.6435 -0.3776
   17CHTO  H171 6849   5.396   6.515   0.112 -0.0435 -0.2093 -0.4354
   17CHTO   O62 6850   5.815   6.775   0.164 -0.3361 -0.0162 -0.2661
   17CHTO   C91 6851   5.725   6.881   0.124 -0.3028 -0.1383  0.6177
   17CHTO  H178 6852   5.652   6.832   0.060  0.9901  0.4821 -1.3745
   17CHTO   C92 6853   5.793   6.981   0.023  0.6730  0.8970  0.2346
   17CHTO  H179 6854   5.848   6.923  -0.052 -0.6422 -2.6592  1.9022
   17CHTO   O66 6855   5.687   7.045  -0.053  0.1448 -0.3919 -0.1778
   17CHTO  H166 6856   5.710   7.032  -0.143  2.3901 -2.3444  0.6309
   17CHTO   C93 6857   5.872   7.092   0.089  0.2028  0.1608  0.1727
   17CHTO  H180 6858   5.899   7.169   0.016 -2.9270 -0.4308 -1.6865
   17CHTO   N16 6859   6.008   7.036   0.129 -1.2238  0.3946  0.0693
   17CHTO  H172 6860   6.042   7.081   0.221  0.4203  0.8637 -0.7481
   17CHTO  H173 6861   6.014   6.929   0.143 -0.3368  0.5799  1.1086
   17CHTO   C94 6862   5.790   7.154   0.208 -0.9412 -0.5378 -0.3827
   17CHTO  H181 6863   5.846   7.145   0.302 -0.6668  2.6025 -0.2081
   17CHTO   O61 6864   5.658   7.105   0.224 -0.2058 -0.8002  0.1804
   17CHTO   C95 6865   5.642   6.964   0.239 -0.2838 -0.8754  0.5825
   17CHTO  H182 6866   5.694   6.942   0.332  0.7087  2.6043  0.9405
   17CHTO  C106 6867   5.495   6.926   0.245  0.2286  0.4970  0.8435
   17CHTO   O69 6868   5.456   6.790   0.270 -0.3653  0.0817 -0.0010
   17CHTO  H169 6869   5.506   6.735   0.214 -1.2175 -0.7432  0.0267
   17CHTO   O63 6870   5.772   7.303   0.174 -0.2015  0.3606  0.3127
   17CHTO   C96 6871   5.745   7.387   0.307  0.8613  0.0499 -0.0050
   17CHTO  H183 6872   5.755   7.319   0.391  0.5457  2.1586  1.7865
   17CHTO   C98 6873   5.602   7.454   0.323 -0.2118  0.1426 -1.1298
   17CHTO  H185 6874   5.579   7.520   0.237  0.6820  2.8554  0.6389
   17CHTO   O67 6875   5.501   7.350   0.323  0.3088 -0.2251  0.2212
   17CHTO  H167 6876   5.496   7.306   0.240 -0.2886 -1.2052  0.7646
   17CHTO  C102 6877   5.593   7.540   0.456 -0.0854  0.8984 -0.4297
   17CHTO  H189 6878   5.592   7.464   0.535 -2.0514  2.6675  1.3036
   17CHTO   N18 6879   5.465   7.615   0.478  0.4543  0.6186 -0.6257
   17CHTO  H176 6880   5.408   7.563   0.554 -0.0503  0.0447 -1.3911
   17CHTO  H177 6881   5.409   7.634   0.387 -0.4482 -1.4344 -0.5349
   17CHTO  C105 6882   5.724   7.623   0.475  0.2584 -0.0452 -0.2245
   17CHTO  H192 6883   5.713   7.715   0.418  1.5930  0.2760  0.0193
   17CHTO   O65 6884   5.846   7.564   0.442  1.2563  0.1687  0.0389
   17CHTO  C100 6885   5.850   7.494   0.313  0.1585 -0.7428 -0.2895
   17CHTO  H187 6886   5.826   7.568   0.235  1.9915  0.5028  0.2922
   17CHTO  C107 6887   5.992   7.448   0.278  0.0179  0.5294 -0.1821
   17CHTO   O70 6888   6.045   7.354   0.371 -0.4618 -0.3490  0.1593
   17CHTO  H170 6889   6.138   7.345   0.373 -0.0861  2.1019 -2.3152
   17CHTO   O57 6890   5.729   7.647   0.642  0.3450  0.0591 -0.4275
   17CHTO   C85 6891   5.803   7.763   0.685 -0.0836 -0.4104 -0.0147
   17CHTO  H157 6892   5.768   7.852   0.629  0.5806  0.1322  0.4068
   17CHTO   C83 6893   5.954   7.750   0.635  0.7698  0.7782 -1.0398
   17CHTO  H155 6894   5.951   7.766   0.527  1.0532 -1.7266 -1.4332
   17CHTO   O56 6895   5.997   7.610   0.670 -0.4078 -0.0104 -0.4706
   17CHTO  H135 6896   5.941   7.549   0.627  0.9698 -0.1877 -2.0489
   17CHTO   C81 6897   6.033   7.867   0.701  0.6359  0.2573  0.3306
   17CHTO  H153 6898   5.983   7.959   0.671 -0.1033 -0.0664  0.5424
   17CHTO   N14 6899   6.177   7.878   0.659  0.4222 -0.0227  0.4523
   17CHTO  H141 6900   6.204   7.796   0.595 -0.3187 -0.0525  0.1657
   17CHTO  H142 6901   6.186   7.965   0.598  0.5292 -1.6501 -1.9731
   17CHTO   C79 6902   6.023   7.867   0.859  0.1920  0.5716  0.4736
   17CHTO  H151 6903   6.076   7.956   0.894  1.1174 -0.0246  0.6116
   17CHTO   O52 6904   5.888   7.891   0.895 -0.3966  0.0934  0.5248
   17CHTO   C86 6905   5.795   7.789   0.843 -0.2351  0.2258  0.3215
   17CHTO  H158 6906   5.815   7.697   0.901 -2.0001 -0.0543  0.5028
   17CHTO   C90 6907   5.648   7.819   0.870 -0.1530 -0.2925 -0.5585
   17CHTO   O60 6908   5.586   7.740   0.973 -0.4759 -0.0701 -0.1934
   17CHTO  H138 6909   5.626   7.655   0.968  0.8825  0.4721  1.0863
   17CHTO   O50 6910   6.087   7.746   0.902  0.3531  0.4011  0.1349
   17CHTO   C73 6911   6.194   7.734   1.002 -0.1914  0.1843  0.6028
   17CHTO  H145 6912   6.217   7.831   1.050  1.2996  0.5414 -0.7817
   17CHTO   C74 6913   6.324   7.664   0.948  0.7050 -0.0901 -0.1746
   17CHTO  H146 6914   6.366   7.732   0.873  0.0773 -0.2534 -0.6814
   17CHTO   O54 6915   6.417   7.669   1.063 -0.0243  0.3902  0.0979
   17CHTO  H133 6916   6.449   7.758   1.063 -0.6081  0.6076 -0.7588
   17CHTO   C75 6917   6.275   7.525   0.888 -0.3383 -0.5636  0.7778
   17CHTO  H147 6918   6.204   7.546   0.806 -1.1064  0.7311  1.7753
   17CHTO   N13 6919   6.383   7.444   0.826 -0.2574 -0.2191  0.2532
   17CHTO  H139 6920   6.440   7.388   0.900 -1.5454  1.9456  2.9392
   17CHTO  H140 6921   6.349   7.379   0.746  2.4145 -1.5584  0.1191
   17CHTO   C76 6922   6.188   7.436   0.987  0.5430 -0.0090  0.6839
   17CHTO  H148 6923   6.255   7.389   1.059  0.1829  1.5964  2.1180
   17CHTO   O49 6924   6.088   7.522   1.052 -0.2127 -0.3189 -0.0062
   17CHTO   C77 6925   6.141   7.640   1.111  0.5637  0.4890  0.0595
   17CHTO  H149 6926   6.216   7.613   1.185  0.6843  2.8213  0.8158
   17CHTO   C88 6927   6.028   7.704   1.194 -0.4174 -0.3225 -0.5095
   17CHTO   O58 6928   5.960   7.597   1.288  0.1240 -0.0879 -0.3825
   17CHTO  H136 6929   5.868   7.613   1.281 -0.0672 -1.2147 -0.5458
   17CHTO   O51 6930   6.100   7.323   0.905  0.3980 -0.0041 -0.2696
   17CHTO   C78 6931   5.959   7.263   0.969 -0.3110  0.9921  0.1735
   17CHTO  H150 6932   5.900   7.343   1.019  0.0322  1.6483 -0.4583
   17CHTO   C80 6933   5.990   7.157   1.079  0.3160  0.0579 -0.0684
   17CHTO  H152 6934   6.057   7.079   1.036 -0.2276 -0.5107  0.1083
   17CHTO   O55 6935   6.055   7.221   1.192  0.0255 -0.0692  0.7252
   17CHTO  H134 6936   6.004   7.294   1.221  0.3133  0.0905  0.8373
   17CHTO   C84 6937   5.861   7.084   1.125  0.0895 -0.4784 -0.7055
   17CHTO  H156 6938   5.806   7.165   1.172 -1.0705 -1.4022 -0.4341
   17CHTO   N15 6939   5.882   6.975   1.231  0.1417 -0.4942  0.2185
   17CHTO  H143 6940   5.869   6.878   1.187  0.4249  0.1325 -1.2733
   17CHTO  H144 6941   5.978   6.982   1.278  0.0329 -1.3278  0.5742
   17CHTO   C87 6942   5.785   7.027   0.999  0.1547  0.1403 -0.5890
   17CHTO  H159 6943   5.850   6.965   0.937 -1.8082 -1.1108 -1.4200
   17CHTO   O53 6944   5.746   7.156   0.923  0.0760 -0.2245  0.0642
   17CHTO   C82 6945   5.865   7.210   0.861  0.4042 -0.0160 -0.2864
   17CHTO  H154 6946   5.919   7.148   0.790  1.1534  0.2101  0.0751
   17CHTO   C89 6947   5.825   7.337   0.783 -0.0605  0.5006  1.0563
   17CHTO   O59 6948   5.720   7.315   0.692  0.0956 -0.2267 -0.6860
   17CHTO  H137 6949   5.748   7.260   0.621 -0.3625 -1.2850 -0.0647
   17CHTO   O45 6950   5.645   6.960   1.047  0.3125  0.0902  0.5594
   17CHTO   C67 6951   5.560   6.893   0.953 -0.0436 -0.1252  0.0875
   17CHTO  H124 6952   5.484   6.844   1.015 -0.0393 -1.1253 -0.6832
   17CHTO   C65 6953   5.480   6.984   0.851 -0.6165  0.3070 -0.0190
   17CHTO  H122 6954   5.533   7.079   0.851  0.7158 -0.4169  0.8467
   17CHTO   O44 6955   5.350   7.009   0.911  0.3178 -0.3664 -0.8891
   17CHTO  H102 6956   5.304   7.074   0.862 -0.1386 -1.0908 -1.4358
   17CHTO   C63 6957   5.490   6.935   0.705 -0.3031 -0.2059  0.4832
   17CHTO  H120 6958   5.595   6.941   0.674 -0.5030  2.0532  0.1887
   17CHTO   N11 6959   5.430   7.013   0.593 -0.0862 -0.5556  0.1502
   17CHTO  H108 6960   5.327   7.041   0.596 -0.4412 -1.4614 -2.1499
   17CHTO  H109 6961   5.440   6.957   0.502  0.3967  1.3703 -1.0061
   17CHTO   C61 6962   5.447   6.784   0.716 -0.2712  0.2926  0.1640
   17CHTO  H118 6963   5.443   6.742   0.614  0.5630 -2.1830  1.1235
   17CHTO   O40 6964   5.545   6.705   0.788 -0.2075  0.2590 -0.4832
   17CHTO   C68 6965   5.637   6.777   0.886 -0.1486  0.9199  0.0557
   17CHTO  H125 6966   5.724   6.815   0.829  1.3821 -2.8237 -0.2646
   17CHTO   C72 6967   5.683   6.675   0.984  0.3734  0.1723 -0.2129
   17CHTO   O48 6968   5.737   6.561   0.916 -0.1844 -0.4042 -0.1499
   17CHTO  H105 6969   5.820   6.575   0.876  1.1799 -3.2840  1.5368
   17CHTO   O38 6970   5.320   6.763   0.769  0.9013  0.3289  0.4809
   17CHTO   C55 6971   5.271   6.665   0.856 -0.4181 -1.2337  0.1814
   17CHTO  H112 6972   5.331   6.672   0.948  0.4449  1.8660 -0.5704
   17CHTO   C56 6973   5.270   6.524   0.793 -0.5727  0.9663  0.0818
   17CHTO  H113 6974   5.235   6.533   0.689 -0.0215 -1.4124 -0.3410
   17CHTO   O42 6975   5.402   6.475   0.785  0.0897 -0.6471  0.2913
   17CHTO  H100 6976   5.458   6.488   0.859  1.1995 -0.7008 -0.5116
   17CHTO   C57 6977   5.175   6.413   0.858  0.4829  0.6071  1.0361
   17CHTO  H114 6978   5.219   6.376   0.950  3.5106  2.4347  0.4109
   17CHTO   N10 6979   5.163   6.291   0.775 -0.2348 -0.1007 -0.7395
   17CHTO  H106 6980   5.136   6.208   0.838  1.4486 -1.3412 -1.6330
   17CHTO  H107 6981   5.261   6.262   0.741  1.3814 -1.2743  4.3635
   17CHTO   C58 6982   5.040   6.475   0.891  0.1844 -0.3812  0.8790
   17CHTO  H115 6983   4.983   6.493   0.797  0.1648  0.1829  0.9930
   17CHTO   O37 6984   5.069   6.594   0.964  0.5507 -0.1586 -0.2987
   17CHTO   C59 6985   5.122   6.703   0.885 -0.6263  0.8455  0.1123
   17CHTO  H116 6986   5.070   6.712   0.789 -2.2339 -0.7573  0.8084
   17CHTO   C70 6987   5.103   6.830   0.968 -0.2517 -0.8394 -0.8010
   17CHTO   O46 6988   4.969   6.852   1.012 -0.3539 -0.2557 -0.1933
   17CHTO  H103 6989   4.953   6.944   0.999 -0.5838 -0.4826 -1.5270
   17CHTO   O39 6990   4.928   6.357   0.981 -0.2916  0.1469  0.3910
   17CHTO   C60 6991   4.793   6.406   0.977 -0.1742 -0.1917  0.5517
   17CHTO  H117 6992   4.798   6.514   0.986  0.2219 -0.2036  0.4545
   17CHTO   C62 6993   4.717   6.377   0.850 -0.1919  0.2429  0.2056
   17CHTO  H119 6994   4.779   6.438   0.780 -0.6818  0.1009 -0.3510
   17CHTO   O43 6995   4.702   6.238   0.818 -0.7855  0.3847 -0.1089
   17CHTO  H101 6996   4.785   6.195   0.820 -0.7376  0.5244  1.3131
   17CHTO   C66 6997   4.568   6.446   0.842  0.6160 -0.0270  0.3450
   17CHTO  H123 6998   4.576   6.555   0.835 -0.0711  0.4080  4.5147
   17CHTO   N12 6999   4.490   6.412   0.721  0.3682 -0.6964 -0.0647
   17CHTO  H110 7000   4.390   6.454   0.716  0.0117 -0.7539  4.3239
   17CHTO  H111 7001   4.475   6.305   0.709  1.3429 -0.8538  0.1304
   17CHTO   C69 7002   4.486   6.413   0.974 -0.7936 -0.1377  0.0887
   17CHTO  H126 7003   4.455   6.307   0.983  0.5436 -0.2847  4.2137
   17CHTO   O41 7004   4.579   6.441   1.110  0.2088  0.2818  0.0488
   17CHTO   C64 7005   4.704   6.359   1.102  0.0118 -0.6996  0.4265
   17CHTO  H121 7006   4.677   6.254   1.076 -0.5841 -0.3447 -0.4079
   17CHTO   C71 7007   4.777   6.376   1.232 -0.6251  0.4794  0.2961
   17CHTO   O47 7008   4.695   6.340   1.338  0.0198 -0.3546 -0.4941
   17CHTO  H104 7009   4.621   6.395   1.353  0.3273 -0.7531  2.8208
   17CHTO   O34 7010   4.343   6.492   0.977  0.9516 -0.3085 -0.1521
   17CHTO   C49 7011   4.266   6.619   1.038  0.0318  0.0104  0.5329
   17CHTO   H91 7012   4.331   6.703   1.015  1.7123 -0.9087  1.7076
   17CHTO   C47 7013   4.253   6.616   1.196  0.2458 -0.4780 -0.1613
   17CHTO   H89 7014   4.206   6.714   1.220 -0.6273 -0.6879 -0.9576
   17CHTO   O33 7015   4.377   6.621   1.258  0.0710  0.3641 -0.7952
   17CHTO   H70 7016   4.447   6.614   1.195  1.0243  1.7346  0.0817
   17CHTO   C45 7017   4.165   6.481   1.231 -0.4351  0.2485 -0.1185
   17CHTO   H87 7018   4.237   6.398   1.244 -2.6719 -1.6287  0.5411
   17CHTO    N8 7019   4.106   6.508   1.360  0.4261  0.1903  0.4936
   17CHTO   H75 7020   4.033   6.587   1.352 -0.0501 -0.5515 -3.3269
   17CHTO   H76 7021   4.057   6.415   1.388 -2.3114  0.9893 -1.4275
   17CHTO   C43 7022   4.059   6.446   1.109 -0.0566 -0.5549  0.3395
   17CHTO   H85 7023   4.109   6.376   1.042 -1.5278 -2.0559  0.7689
   17CHTO   O29 7024   4.021   6.561   1.040 -0.4151  0.2013  0.2505
   17CHTO   C50 7025   4.123   6.633   0.975  0.2773  0.5367  0.2002
   17CHTO   H92 7026   4.127   6.593   0.872  0.0336  0.4107  0.2376
   17CHTO   C54 7027   4.065   6.775   0.962 -0.6121 -0.8070 -0.1199
   17CHTO   O36 7028   3.938   6.787   0.902  0.3657 -0.2786  0.0470
   17CHTO   H72 7029   3.902   6.873   0.908 -3.1649 -1.5332 -1.2715
   17CHTO   O27 7030   3.945   6.375   1.161  0.6425 -0.0766  0.1149
   17CHTO   C37 7031   3.858   6.273   1.107  0.1673 -0.2111 -0.1602
   17CHTO   H79 7032   3.781   6.249   1.183 -1.8055  1.0629 -1.7117
   17CHTO   C38 7033   3.788   6.309   0.974 -0.4957 -0.2378 -0.1355
   17CHTO   H80 7034   3.868   6.340   0.905  0.4922 -0.6333  0.8026
   17CHTO   O31 7035   3.705   6.421   1.004 -0.2941 -0.8327 -0.0946
   17CHTO   H68 7036   3.661   6.449   0.927  0.9115 -0.2330 -0.5673
   17CHTO   C39 7037   3.718   6.181   0.904 -0.1276 -0.3524 -0.1324
   17CHTO   H81 7038   3.639   6.153   0.974 -0.6272  1.9495  0.2738
   17CHTO    N7 7039   3.663   6.209   0.773  0.1622 -0.0424 -0.3638
   17CHTO   H73 7040   3.680   6.131   0.700 -0.9521  1.0747 -1.8463
   17CHTO   H74 7041   3.555   6.210   0.775  0.1809  0.6540  1.6836
   17CHTO   C40 7042   3.828   6.069   0.899  0.1666  0.0745  0.2553
   17CHTO   H82 7043   3.906   6.112   0.835  0.2851 -0.4821  0.0275
   17CHTO   O26 7044   3.874   6.042   1.030  0.5307 -0.6260 -0.2505
   17CHTO   C41 7045   3.950   6.148   1.093 -0.9572 -0.6864  0.5243
   17CHTO   H83 7046   4.036   6.174   1.028 -2.6220  1.2691 -0.9793
   17CHTO   C52 7047   3.993   6.098   1.225 -0.6332 -0.0091 -0.3886
   17CHTO   O35 7048   4.080   5.980   1.216  0.0845 -0.0907 -0.5882
   17CHTO   H71 7049   4.151   5.996   1.158  1.0934 -0.1068  0.6234
   17CHTO   O28 7050   3.786   5.953   0.825  0.2958 -0.4042 -0.2515
   17CHTO   C42 7051   3.889   5.868   0.766 -0.1744 -0.4441 -0.7188
   17CHTO   H84 7052   3.837   5.788   0.713 -0.4211 -1.9101  1.6849
   17CHTO   C44 7053   3.979   5.791   0.875 -0.1231  0.1458 -0.7187
   17CHTO   H86 7054   3.992   5.857   0.961  1.1419 -1.0930  0.0585
   17CHTO   O32 7055   3.884   5.695   0.927 -0.1939 -0.2925  0.0958
   17CHTO   H69 7056   3.901   5.677   1.017 -0.5011  0.1698  0.2490
   17CHTO   C48 7057   4.113   5.728   0.829 -0.9132  0.2815  0.3463
   17CHTO   H90 7058   4.100   5.628   0.786  0.2893 -0.1642  0.9877
   17CHTO    N9 7059   4.208   5.715   0.942  0.5167 -0.3880  0.1932
   17CHTO   H77 7060   4.175   5.658   1.027 -0.0827 -0.0660  0.1825
   17CHTO   H78 7061   4.301   5.686   0.896  0.2548  2.2774 -2.2008
   17CHTO   C51 7062   4.167   5.802   0.703 -0.1192 -0.9536  0.1248
   17CHTO   H93 7063   4.206   5.897   0.739 -1.7629 -0.8866  1.8285
   17CHTO   O30 7064   4.065   5.818   0.609 -0.0620 -0.0246  0.0693
   17CHTO   C46 7065   3.978   5.939   0.660 -0.0583  0.6931 -0.1989
   17CHTO   H88 7066   4.032   6.025   0.701  0.4137  0.0207  0.6017
   17CHTO   C53 7067   3.898   5.987   0.530  0.1772 -0.1019  0.6710
   17CHTO   O72 7068   3.850   6.117   0.546 -0.7652  0.1686 -0.1514
   17CHTO  H199 7069   3.769   6.118   0.498 -0.7099  0.1972 -0.2446
   17CHTO   O22 7070   4.271   5.722   0.642  0.1144 -0.0807  0.0699
   17CHTO   C31 7071   4.376   5.779   0.566  0.9071  0.6122 -0.2592
   17CHTO   H59 7072   4.450   5.698   0.548 -1.3972 -1.3966 -1.0367
   17CHTO   C29 7073   4.337   5.839   0.425 -0.0884  0.2830  0.0173
   17CHTO   H57 7074   4.260   5.916   0.440 -0.0022  0.8726 -2.4514
   17CHTO   O21 7075   4.275   5.735   0.353 -0.1459 -0.4759  0.3386
   17CHTO   H37 7076   4.329   5.658   0.352  1.6913  0.7705  0.7262
   17CHTO   C27 7077   4.449   5.905   0.343  0.3414 -0.5914 -0.0361
   17CHTO   H55 7078   4.530   5.832   0.329 -0.0403 -1.3730  1.6913
   17CHTO    N5 7079   4.413   5.965   0.207  0.5267  0.3559 -0.2554
   17CHTO   H43 7080   4.347   6.049   0.223  1.2527  1.7344 -3.9804
   17CHTO   H44 7081   4.501   6.013   0.165  0.6193 -0.2534 -0.7612
   17CHTO   C25 7082   4.508   6.012   0.430 -0.5189 -0.2328 -0.0704
   17CHTO   H53 7083   4.430   6.084   0.458 -0.2939  0.7052 -1.8291
   17CHTO   O17 7084   4.561   5.953   0.555 -0.5204  0.6389  0.0442
   17CHTO   C32 7085   4.460   5.897   0.637 -0.0548  0.3415 -0.4978
   17CHTO   H60 7086   4.387   5.967   0.677 -2.0886 -2.9366  1.8122
   17CHTO   C36 7087   4.522   5.827   0.760 -0.1959  0.2441 -0.0349
   17CHTO   O25 7088   4.572   5.924   0.853  0.4098 -0.1624  0.0302
   17CHTO   H40 7089   4.609   5.866   0.917 -0.7804  0.2978  1.1549
   17CHTO   O15 7090   4.629   6.099   0.371  0.2841  0.3967 -0.2988
   17CHTO   C19 7091   4.697   6.224   0.371 -0.0947 -0.6243  0.5777
   17CHTO   H47 7092   4.762   6.212   0.283 -1.4188 -3.1232 -0.1196
   17CHTO   C20 7093   4.590   6.335   0.344 -0.4144 -0.0953  0.4592
   17CHTO   H48 7094   4.514   6.340   0.424 -2.3893  0.1412 -1.3919
   17CHTO   O19 7095   4.508   6.292   0.230 -0.0360 -0.0219  0.5655
   17CHTO   H35 7096   4.547   6.322   0.150 -1.4797  0.0045 -0.1594
   17CHTO   C21 7097   4.659   6.478   0.321 -0.0351  0.3980 -0.0071
   17CHTO   H49 7098   4.716   6.472   0.228  1.0962 -1.5518  0.7701
   17CHTO    N4 7099   4.557   6.584   0.313  0.1947  0.0854 -0.5697
   17CHTO   H41 7100   4.556   6.631   0.215 -0.1564  1.6086  0.1423
   17CHTO   H42 7101   4.461   6.542   0.337  0.4303  0.7593  1.6267
   17CHTO   C22 7102   4.754   6.500   0.438  0.0478 -0.4141  0.6382
   17CHTO   H50 7103   4.692   6.514   0.526  0.6601  1.3955  0.8045
   17CHTO   O14 7104   4.844   6.392   0.470  0.0302  0.2372 -0.0170
   17CHTO   C23 7105   4.786   6.266   0.496  1.1058 -0.6552  0.0155
   17CHTO   H51 7106   4.725   6.278   0.587 -0.4775 -1.5456 -0.8957
   17CHTO   C34 7107   4.897   6.170   0.529 -0.2054  0.0662 -0.2085
   17CHTO   O23 7108   4.860   6.049   0.598 -0.7201  0.5201  0.2743
   17CHTO   H38 7109   4.833   6.072   0.685 -0.8799 -0.0872  0.3879
   17CHTO   O16 7110   4.832   6.620   0.405 -0.1357 -0.0243  0.5188
   17CHTO   C24 7111   4.880   6.714   0.535 -0.1470  0.0127  0.5570
   17CHTO   H52 7112   4.913   6.656   0.621 -0.7413 -0.2934  0.5814
   17CHTO   C26 7113   4.759   6.808   0.567 -0.1737 -0.2922  0.1971
   17CHTO   H54 7114   4.741   6.871   0.478 -1.5437 -1.0257 -0.0632
   17CHTO   O20 7115   4.640   6.728   0.598  0.0033 -0.7161  0.7464
   17CHTO   H36 7116   4.658   6.694   0.684  0.6094 -0.9256  0.5364
   17CHTO   C30 7117   4.804   6.905   0.683  0.6235 -0.2357  0.0607
   17CHTO   H58 7118   4.830   6.849   0.774  0.7643  0.6716  0.5881
   17CHTO    N6 7119   4.689   6.992   0.707  0.4260  0.1650  0.0393
   17CHTO   H45 7120   4.666   6.995   0.813  2.4137  3.7761  0.4266
   17CHTO   H46 7121   4.704   7.092   0.670  0.6699 -0.1446 -0.7015
   17CHTO   C33 7122   4.934   6.978   0.639 -0.1730  0.6399  0.3039
   17CHTO   H61 7123   4.915   7.043   0.552  0.1490 -0.3609 -0.5226
   17CHTO   O18 7124   5.038   6.881   0.604  0.1756 -0.3145  0.0361
   17CHTO   C28 7125   5.007   6.796   0.499 -0.3171 -0.4412  0.0870
   17CHTO   H56 7126   4.986   6.861   0.414 -0.2853  0.7770  0.9893
   17CHTO   C35 7127   5.119   6.699   0.486  1.0957  0.6776 -0.6229
   17CHTO   O24 7128   5.239   6.760   0.437  0.4761  0.0001  0.1840
   17CHTO   H39 7129   5.270   6.840   0.473  0.8258  0.1033 -0.3415
   17CHTO    O9 7130   4.978   7.074   0.745 -0.2940 -0.6587  0.1391
   17CHTO   C13 7131   5.068   7.198   0.662 -0.1505  0.0014  0.5771
   17CHTO   H26 7132   5.128   7.155   0.579  1.7990  2.1844  0.8015
   17CHTO   C11 7133   5.164   7.258   0.778  0.0907 -0.0047 -0.1548
   17CHTO   H24 7134   5.238   7.182   0.804  0.3125  0.9503  2.0639
   17CHTO    O8 7135   5.096   7.282   0.904 -0.0439  0.1328 -0.1086
   17CHTO    H3 7136   5.118   7.365   0.941  0.6503  0.1020 -0.4284
   17CHTO    C9 7137   5.244   7.376   0.715  0.5401 -0.2054 -0.1556
   17CHTO   H22 7138   5.299   7.341   0.627  0.6500  1.8323 -0.9347
   17CHTO    N2 7139   5.346   7.445   0.801 -0.2336 -0.0504  0.5039
   17CHTO   H10 7140   5.417   7.521   0.772 -0.7907 -0.1612 -1.1642
   17CHTO   H11 7141   5.390   7.377   0.872 -4.7261 -2.5320  1.0720
   17CHTO    C7 7142   5.135   7.476   0.672 -0.3664  0.1679  0.0642
   17CHTO   H20 7143   5.193   7.554   0.617  0.7452 -1.9384 -1.8814
   17CHTO    O4 7144   5.039   7.431   0.581  0.2500 -0.6996 -0.6315
   17CHTO   C14 7145   4.969   7.307   0.602  0.2309 -0.5060 -0.2641
   17CHTO   H27 7146   4.930   7.261   0.509  0.8985  0.0089 -0.8051
   17CHTO   C18 7147   4.849   7.327   0.688  0.5699  0.0162 -0.7115
   17CHTO   O13 7148   4.753   7.414   0.623  0.2967 -0.1318 -0.3373
   17CHTO    H7 7149   4.668   7.422   0.661  0.3331 -2.5207  0.3794
   17CHTO    O2 7150   5.051   7.544   0.810  0.2972 -0.0524 -0.9609
   17CHTO    C1 7151   5.014   7.681   0.804  0.5998 -0.1449 -0.3462
   17CHTO   H14 7152   4.960   7.694   0.708 -2.0352  0.1485  1.1460
   17CHTO    C2 7153   5.136   7.789   0.804  0.4050 -0.0320 -0.4239
   17CHTO   H15 7154   5.193   7.755   0.892  0.3052  1.0835  0.0835
   17CHTO    O6 7155   5.206   7.769   0.679  0.1266  0.0619 -0.0205
   17CHTO    H1 7156   5.167   7.817   0.609 -0.0344 -1.8327 -1.2735
   17CHTO    C3 7157   5.087   7.939   0.841  0.6341 -0.4647  0.2762
   17CHTO   H16 7158   5.031   7.968   0.751 -0.9932  3.9042  2.5582
   17CHTO    N1 7159   5.203   8.037   0.850 -0.2255  0.5698  0.6791
   17CHTO    H8 7160   5.177   8.134   0.809  2.8496  0.8913 -0.6306
   17CHTO    H9 7161   5.300   7.997   0.825 -0.0659  1.6024 -0.4005
   17CHTO    C4 7162   4.986   7.941   0.954  0.5807  0.2737  0.4185
   17CHTO   H17 7163   5.028   7.911   1.050 -0.7772  0.1807  0.9862
   17CHTO    O1 7164   4.878   7.850   0.916  0.0871  0.2362 -0.3521
   17CHTO    C5 7165   4.921   7.713   0.926  0.1334 -0.4202 -1.0883
   17CHTO   H18 7166   4.978   7.676   1.011 -0.8909  0.7256  0.1127
   17CHTO   C16 7167   4.778   7.648   0.925 -0.2593 -0.5099 -0.4417
   17CHTO   O11 7168   4.781   7.511   0.940 -0.1889 -0.4212  0.3983
   17CHTO    H5 7169   4.867   7.476   0.928 -1.1213 -2.2838 -0.9730
   17CHTO    O3 7170   4.905   8.063   0.962 -0.5251  0.0861  0.0565
   17CHTO    C6 7171   4.856   8.102   1.092  0.0775  0.6169 -0.3089
   17CHTO   H19 7172   4.767   8.164   1.086 -1.0623 -1.0665 -1.0433
   17CHTO    C8 7173   4.791   7.992   1.186 -0.0282 -0.2279  0.0702
   17CHTO   H21 7174   4.853   7.902   1.185 -1.2901 -1.1107 -1.6231
   17CHTO    O7 7175   4.661   7.963   1.126 -0.4308 -0.3096 -0.0314
   17CHTO    H2 7176   4.647   7.871   1.123 -2.2017 -0.0582  0.2334
   17CHTO   C12 7177   4.776   8.035   1.337  0.7952  0.2356  0.2667
   17CHTO   H25 7178   4.690   8.104   1.350  1.5741  1.3302 -0.2402
   17CHTO    N3 7179   4.735   7.916   1.424 -0.6947 -0.2458 -0.8442
   17CHTO   H12 7180   4.717   7.828   1.364 -0.7959 -1.7632  1.3568
   17CHTO   H13 7181   4.653   7.938   1.490  0.1181 -0.8276  0.3642
   17CHTO   C15 7182   4.910   8.111   1.380 -0.4365  0.4919  0.0834
   17CHTO   H28 7183   5.001   8.051   1.383  0.2904  1.5138 -1.1411
   17CHTO   O10 7184   4.899   8.163   1.511  0.1021 -0.0852 -0.0068
   17CHTO    H4 7185   4.894   8.098   1.578  0.6327 -0.5980 -0.4634
   17CHTO    O5 7186   4.933   8.223   1.304  0.0849  0.5880 -0.1846
   17CHTO   C10 7187   4.961   8.187   1.168  0.5746  0.7564  0.5814
   17CHTO   H23 7188   5.058   8.137   1.166  1.1651  1.9143 -0.6893
   17CHTO   C17 7189   4.981   8.321   1.097 -0.1692 -0.1468 -0.4872
   17CHTO   O12 7190   4.872   8.415   1.095  0.3058 -0.1457  0.0435
   17CHTO    H6 7191   4.817   8.415   1.020  0.6033 -1.3860 -0.1856
   18CHTO  H203 7192   6.500   8.119   1.761 -2.0699 -2.1879  2.9400
   18CHTO   O82 7193   6.427   8.098   1.705 -0.3905 -0.3097 -0.0886
   18CHTO  C123 7194   6.453   8.149   1.571 -0.2157 -0.3112 -0.8144
   18CHTO  H227 7195   6.553   8.196   1.575 -0.9416  1.1621  1.5582
   18CHTO   O77 7196   6.438   8.036   1.485 -0.5921 -0.1311 -0.0459
   18CHTO  C118 7197   6.436   8.050   1.347  0.0686 -0.1379  0.4726
   18CHTO  H222 7198   6.543   8.065   1.323  0.7009 -2.5053  1.6116
   18CHTO  C125 7199   6.400   7.904   1.305  0.6533  0.0395 -0.7255
   18CHTO   O84 7200   6.281   7.851   1.373 -0.1118  0.4339  0.2816
   18CHTO  H205 7201   6.307   7.797   1.446 -0.8809 -0.3979 -0.0475
   18CHTO  C114 7202   6.336   8.158   1.304  0.4734  0.2934  0.0117
   18CHTO  H218 7203   6.234   8.121   1.314  0.1188  1.3896  0.5700
   18CHTO  C116 7204   6.358   8.289   1.386 -0.0933  0.5780  0.0644
   18CHTO  H220 7205   6.459   8.330   1.365  0.9099 -2.3371 -0.9691
   18CHTO   O79 7206   6.265   8.391   1.344 -0.2571  0.3981  0.3015
   18CHTO  H201 7207   6.180   8.378   1.381 -0.9172 -1.6721 -1.8449
   18CHTO  C120 7208   6.343   8.254   1.539  0.4298 -0.3468 -0.4566
   18CHTO  H224 7209   6.246   8.200   1.550 -0.5049  1.2758 -0.6515
   18CHTO   N21 7210   6.354   8.373   1.626 -0.1153 -0.0682  0.4626
   18CHTO  H211 7211   6.337   8.459   1.563 -0.1357  0.0572  0.6384
   18CHTO  H212 7212   6.291   8.368   1.714  0.8670 -1.3619  1.1118
   18CHTO   O75 7213   6.353   8.188   1.162  0.0307  0.1510  0.1081
   18CHTO  C112 7214   6.492   8.244   1.095 -0.5740 -0.1211 -0.1722
   18CHTO  H216 7215   6.577   8.194   1.144 -0.3457  0.6881  0.2741
   18CHTO   O73 7216   6.500   8.383   1.114  0.1089 -0.0116  0.0090
   18CHTO  C113 7217   6.615   8.434   1.037 -0.0266 -0.1279 -0.3726
   18CHTO  H217 7218   6.711   8.385   1.061 -0.2941 -0.1417  0.6928
   18CHTO  C124 7219   6.640   8.582   1.078 -0.1421  0.6346 -0.2745
   18CHTO   O83 7220   6.661   8.589   1.219 -0.5205 -0.6736  0.1287
   18CHTO  H204 7221   6.639   8.678   1.239 -0.6971 -0.4545 -1.0097
   18CHTO  C109 7222   6.593   8.423   0.882 -0.1274 -0.4064 -0.6474
   18CHTO  H213 7223   6.505   8.485   0.859  0.1027  0.6901  1.3118
   18CHTO  C110 7224   6.557   8.279   0.835  0.4017  0.2952 -0.4445
   18CHTO  H214 7225   6.650   8.223   0.827 -0.2977 -1.1590  1.1289
   18CHTO   O78 7226   6.489   8.286   0.711  0.3043 -0.3941  0.4118
   18CHTO  H200 7227   6.519   8.218   0.654  1.5030 -0.5536  1.2218
   18CHTO  C111 7228   6.469   8.208   0.940  0.2232 -0.2585  0.1331
   18CHTO  H215 7229   6.366   8.239   0.916  0.5213  1.7131  1.2528
   18CHTO   N19 7230   6.477   8.056   0.922  0.1105  0.5001 -0.1007
   18CHTO  H207 7231   6.421   7.983   0.979  0.9429  0.4692  0.7005
   18CHTO  H208 7232   6.477   8.025   0.819 -0.9653 -2.6286  0.7764
   18CHTO   O74 7233   6.708   8.476   0.813  0.6894  0.1502  0.0867
   18CHTO  C115 7234   6.668   8.540   0.673  0.1141 -0.5305  0.1618
   18CHTO  H219 7235   6.596   8.482   0.617 -0.9721  1.9309 -1.0756
   18CHTO   O76 7236   6.592   8.672   0.694 -0.1326  0.3108  0.1606
   18CHTO  C122 7237   6.539   8.728   0.573 -0.2315  0.1965  0.3500
   18CHTO  H226 7238   6.506   8.827   0.602 -1.9972  0.3079 -1.8777
   18CHTO  C126 7239   6.409   8.655   0.516 -0.0623 -0.7126 -0.0165
   18CHTO   O85 7240   6.351   8.725   0.402  0.0550  0.5332  0.6704
   18CHTO  H206 7241   6.281   8.784   0.427  0.7814  0.8470  2.0119
   18CHTO  C121 7242   6.650   8.741   0.462  0.2604  0.4338 -0.4225
   18CHTO  H225 7243   6.598   8.748   0.364  0.2592 -3.2975 -0.7530
   18CHTO   O81 7244   6.713   8.871   0.465 -0.0121 -0.1434  0.5113
   18CHTO  H202 7245   6.648   8.928   0.429 -0.4963 -0.9292  0.1195
   18CHTO  C119 7246   6.748   8.622   0.451 -0.7533 -0.8497  0.3210
   18CHTO  H223 7247   6.688   8.545   0.401 -2.2166  0.1222  0.5696
   18CHTO  C117 7248   6.797   8.569   0.592 -0.0496  0.0418 -0.8523
   18CHTO  H221 7249   6.861   8.630   0.656  0.2196 -0.8416 -0.2686
   18CHTO   N20 7250   6.869   8.434   0.576 -0.4870 -0.0837  0.5803
   18CHTO  H209 7251   6.909   8.400   0.671  2.8315 -0.1599 -0.7424
   18CHTO  H210 7252   6.814   8.357   0.523  1.5039 -1.0848 -0.1151
   18CHTO   O80 7253   6.861   8.639   0.331  0.7064 -0.6047  0.4629
   18CHTO  C103 7254   6.850   8.565   0.196  0.0735  0.4750 -0.3147
   18CHTO  H190 7255   6.929   8.585   0.123  0.3014  2.1401  0.3824
   18CHTO  C101 7256   6.855   8.406   0.216  0.4403 -0.2058 -0.3424
   18CHTO  H188 7257   6.794   8.386   0.304 -1.3637 -0.1582 -1.5637
   18CHTO   O68 7258   7.018   8.356   0.262 -0.0184  0.4966  0.0045
   18CHTO  H168 7259   7.022   8.350   0.355 -0.2229 -1.7634 -0.1050
   18CHTO   C99 7260   6.807   8.327   0.089  0.5208 -0.5166 -0.0512
   18CHTO  H186 7261   6.880   8.349   0.007  0.7533 -2.1257 -0.2856
   18CHTO   N17 7262   6.808   8.175   0.097  0.6073  0.2076  0.0067
   18CHTO  H174 7263   6.791   8.150   0.201 -1.3906 -0.0427 -0.3584
   18CHTO  H175 7264   6.902   8.129   0.071  0.4360 -0.9004  1.2752
   18CHTO   C97 7265   6.671   8.378   0.044  0.7428  0.1334  0.5300
   18CHTO  H184 7266   6.607   8.364   0.132  0.0684 -0.5117 -0.0564
   18CHTO   O64 7267   6.692   8.519   0.016  0.6787  0.0055 -0.2667
   18CHTO  C104 7268   6.714   8.609   0.126  0.5620  0.4353  0.1898
   18CHTO  H191 7269   6.630   8.605   0.196 -0.6581 -2.8379 -1.3346
   18CHTO  C108 7270   6.737   8.753   0.079 -0.2866  0.6467  0.6435
   18CHTO   O71 7271   6.619   8.799   0.008 -0.4413  0.1006 -0.0726
   18CHTO  H171 7272   6.544   8.774   0.058 -0.4701  0.5337  0.1025
   18CHTO   O62 7273   6.617   8.320  -0.078  0.7519  0.3508 -0.1308
   18CHTO   C91 7274   6.470   8.311  -0.080 -0.0713  0.6438  0.3145
   18CHTO  H178 7275   6.430   8.345   0.015 -0.9012  0.2905  0.0898
   18CHTO   C92 7276   6.419   8.163  -0.097 -0.0022  0.0943 -0.0040
   18CHTO  H179 7277   6.438   8.140  -0.203 -0.9630 -0.8780  0.0250
   18CHTO   O66 7278   6.492   8.073  -0.012  0.4648  0.1986  1.1616
   18CHTO  H166 7279   6.584   8.070  -0.032  0.5421  1.5753  1.2889
   18CHTO   C93 7280   6.266   8.163  -0.075  0.0858  0.1838  0.1325
   18CHTO  H180 7281   6.262   8.194   0.031 -0.2790 -0.4242  0.3017
   18CHTO   N16 7282   6.206   8.019  -0.089 -0.1677 -0.5436  0.0213
   18CHTO  H172 7283   6.126   8.027  -0.161  0.1678  0.1405 -0.2814
   18CHTO  H173 7284   6.145   8.003  -0.001  1.8971  0.6956  1.7257
   18CHTO   C94 7285   6.193   8.266  -0.172  0.5049  0.6324  0.6295
   18CHTO  H181 7286   6.192   8.228  -0.274 -2.2463 -1.8382  1.5104
   18CHTO   O61 7287   6.262   8.396  -0.171 -0.4614  0.2816 -0.4700
   18CHTO   C95 7288   6.405   8.400  -0.193  0.6813  0.0453  0.2459
   18CHTO  H182 7289   6.420   8.365  -0.295 -1.1987  1.7358 -0.6463
   18CHTO  C106 7290   6.443   8.548  -0.181  0.0459 -0.1160  0.1162
   18CHTO   O69 7291   6.429   8.624  -0.058 -0.0429  0.1226  0.0246
   18CHTO  H169 7292   6.469   8.590   0.019 -1.1652  0.5884  0.8102
   18CHTO   O63 7293   6.049   8.296  -0.114  0.0399  0.0615 -0.0422
   18CHTO   C96 7294   6.008   8.454  -0.137 -0.0967  0.1856 -0.1055
   18CHTO  H183 7295   6.071   8.509  -0.207 -0.4638  0.1585 -0.4578
   18CHTO   C98 7296   6.009   8.534   0.001  0.3773  1.0939  0.1970
   18CHTO  H185 7297   5.945   8.479   0.071 -0.2095  0.3148 -0.9401
   18CHTO   O67 7298   6.139   8.541   0.062  0.2838 -0.2622 -0.3991
   18CHTO  H167 7299   6.187   8.620   0.045  1.3794 -0.4538  1.6395
   18CHTO  C102 7300   5.945   8.684  -0.013  0.6391 -0.7127 -0.4094
   18CHTO  H189 7301   6.024   8.748  -0.056  0.7692  0.1849  1.1344
   18CHTO   N18 7302   5.904   8.744   0.117 -0.7928 -0.2478 -0.0761
   18CHTO  H176 7303   5.964   8.831   0.138 -1.1970  0.4395 -1.7529
   18CHTO  H177 7304   5.906   8.668   0.194 -0.1109  0.0155  0.1708
   18CHTO  C105 7305   5.824   8.687  -0.117  0.4216  0.9276 -0.1872
   18CHTO  H192 7306   5.734   8.659  -0.061  1.6397  1.4386  2.0852
   18CHTO   O65 7307   5.836   8.599  -0.227  0.6784 -0.4174 -0.2605
   18CHTO  C100 7308   5.864   8.466  -0.197  0.5271 -0.1793 -0.2578
   18CHTO  H187 7309   5.789   8.431  -0.124 -0.6261  1.5447 -0.5954
   18CHTO  C107 7310   5.840   8.383  -0.327 -0.0887 -0.6870  0.1264
   18CHTO   O70 7311   5.705   8.372  -0.378  0.1508 -0.2032  0.6985
   18CHTO  H170 7312   5.637   8.386  -0.315  0.5387 -1.1975  1.3384
   18CHTO   O57 7313   5.825   8.844  -0.165  0.4237 -0.4473 -0.2832
   18CHTO   C85 7314   5.709   8.905  -0.225  0.2777  0.3447  0.2003
   18CHTO  H157 7315   5.749   9.001  -0.264  0.9257 -0.4768 -1.2118
   18CHTO   C83 7316   5.617   8.950  -0.112  0.4194  0.1769  0.1433
   18CHTO  H155 7317   5.668   9.012  -0.039  1.9422 -0.9631  0.0810
   18CHTO   O56 7318   5.579   8.838  -0.028  0.1059  0.3294 -0.4991
   18CHTO  H135 7319   5.501   8.860   0.019 -1.8341 -3.0871 -1.9590
   18CHTO   C81 7320   5.489   9.026  -0.167  1.1263 -0.2475  0.2242
   18CHTO  H153 7321   5.528   9.115  -0.218 -0.8118  0.2229 -0.5007
   18CHTO   N14 7322   5.414   9.089  -0.057  0.4301 -0.9626  0.1802
   18CHTO  H141 7323   5.317   9.120  -0.091  1.1930 -1.4176 -2.5107
   18CHTO  H142 7324   5.404   9.021   0.025  1.8426 -3.0417 -1.3290
   18CHTO   C79 7325   5.419   8.944  -0.272  0.0840  0.0148  0.1775
   18CHTO  H151 7326   5.354   9.014  -0.326  0.2988 -0.2885 -0.4782
   18CHTO   O52 7327   5.512   8.904  -0.373  0.6310  0.3741 -0.5116
   18CHTO   C86 7328   5.631   8.832  -0.339  0.3596 -0.8891  0.1074
   18CHTO  H158 7329   5.597   8.734  -0.299  1.2678 -1.3295 -0.1874
   18CHTO   C90 7330   5.715   8.802  -0.462  0.4621 -0.3394  0.2437
   18CHTO   O60 7331   5.774   8.921  -0.520 -0.3197 -0.1253  0.0199
   18CHTO  H138 7332   5.859   8.941  -0.485  0.8581 -1.6707 -1.8829
   18CHTO   O50 7333   5.357   8.818  -0.230  0.0934  0.3758 -0.3070
   18CHTO   C73 7334   5.257   8.721  -0.256 -0.1026  0.3014 -0.3501
   18CHTO  H145 7335   5.274   8.660  -0.346 -0.2878 -1.0566  0.5059
   18CHTO   C74 7336   5.118   8.799  -0.269  0.3257 -1.3153  0.3800
   18CHTO  H146 7337   5.125   8.876  -0.347 -1.1419 -2.1880 -0.6214
   18CHTO   O54 7338   5.024   8.698  -0.310 -0.3947 -0.0420 -0.0210
   18CHTO  H133 7339   4.941   8.739  -0.325 -0.9962 -0.0649  2.8329
   18CHTO   C75 7340   5.082   8.867  -0.126  0.8005 -0.7372 -0.4990
   18CHTO  H147 7341   5.154   8.949  -0.112  0.3182 -0.3852 -0.0885
   18CHTO   N13 7342   4.947   8.936  -0.121 -0.7046 -0.2235 -0.1761
   18CHTO  H139 7343   4.926   8.965  -0.223 -0.2403  0.3843 -0.0972
   18CHTO  H140 7344   4.948   9.027  -0.064  0.3697  0.2655 -0.9582
   18CHTO   C76 7345   5.087   8.758  -0.008  0.0485 -0.0907  0.5566
   18CHTO  H148 7346   5.007   8.684  -0.015  0.5569 -0.6836  0.9524
   18CHTO   O49 7347   5.216   8.694  -0.010  0.3191 -0.3298  0.2894
   18CHTO   C77 7348   5.248   8.627  -0.131  0.1752 -0.3067 -0.0321
   18CHTO  H149 7349   5.174   8.551  -0.158  0.3574  0.1343 -1.8450
   18CHTO   C88 7350   5.379   8.539  -0.124  0.1821  0.1509  0.3606
   18CHTO   O58 7351   5.410   8.459  -0.239 -0.4282  0.3950 -0.6348
   18CHTO  H136 7352   5.376   8.498  -0.318  0.7552 -0.0150 -1.3564
   18CHTO   O51 7353   5.069   8.837   0.133  0.5031 -0.7502  0.0868
   18CHTO   C78 7354   5.084   8.767   0.261 -0.0742  0.1719 -0.6031
   18CHTO  H150 7355   5.096   8.658   0.241  1.3213  0.0484  0.8331
   18CHTO   C80 7356   4.952   8.784   0.344  0.5212  0.5427  0.1312
   18CHTO  H152 7357   4.922   8.890   0.338 -1.0875  0.0989 -0.0653
   18CHTO   O55 7358   4.842   8.713   0.287  0.4969 -0.1912  0.4976
   18CHTO  H134 7359   4.766   8.712   0.342  0.1296 -2.2734  0.0006
   18CHTO   C84 7360   4.964   8.742   0.494 -1.5086  0.3801  0.3718
   18CHTO  H156 7361   4.995   8.638   0.503  0.4731  0.8914 -0.3896
   18CHTO   N15 7362   4.841   8.783   0.570 -0.0716  0.0399 -0.1779
   18CHTO  H143 7363   4.800   8.699   0.623 -1.0326 -0.1921 -1.2704
   18CHTO  H144 7364   4.765   8.835   0.516 -0.1732  0.2569  0.1659
   18CHTO   C87 7365   5.087   8.813   0.552  0.5340 -0.1897 -0.4970
   18CHTO  H159 7366   5.068   8.920   0.559  0.9509 -0.2273  1.8073
   18CHTO   O53 7367   5.207   8.767   0.467  0.2136  0.2978  0.3969
   18CHTO   C82 7368   5.205   8.832   0.334 -0.5829  0.0815  0.5856
   18CHTO  H154 7369   5.196   8.941   0.339  0.0525  0.3869 -3.4390
   18CHTO   C89 7370   5.346   8.799   0.272  0.3517 -0.6384  0.4133
   18CHTO   O59 7371   5.374   8.659   0.262 -0.0978  0.4112  0.0280
   18CHTO  H137 7372   5.399   8.651   0.172  3.8228  1.6715  0.8862
   18CHTO   O45 7373   5.115   8.769   0.711 -0.2072 -0.6497  0.0681
   18CHTO   C67 7374   5.252   8.778   0.754  0.8079  0.5783 -1.0704
   18CHTO  H124 7375   5.312   8.749   0.668 -0.2390 -2.4470 -0.8410
   18CHTO   C65 7376   5.276   8.925   0.791  0.4499 -0.5490 -0.1886
   18CHTO  H122 7377   5.183   8.961   0.835  1.1608 -0.6628  1.4435
   18CHTO   O44 7378   5.303   9.005   0.670  0.1357  0.2322  0.0695
   18CHTO  H102 7379   5.241   8.988   0.602  0.5814  0.7489 -0.4718
   18CHTO   C63 7380   5.376   8.940   0.913  0.4868  0.1023  0.5578
   18CHTO  H120 7381   5.317   8.907   0.998 -1.5805 -2.6992 -1.8836
   18CHTO   N11 7382   5.428   9.075   0.951  0.3924 -0.8360 -0.1197
   18CHTO  H108 7383   5.523   9.095   0.906  0.2087  1.4012  0.3989
   18CHTO  H109 7384   5.431   9.078   1.058 -0.4221  0.3967 -0.1216
   18CHTO   C61 7385   5.493   8.835   0.903 -0.1767 -0.0599 -0.1669
   18CHTO  H118 7386   5.547   8.829   0.998 -0.7036 -0.9739  0.0779
   18CHTO   O40 7387   5.446   8.701   0.873 -0.7764 -0.1636 -0.0922
   18CHTO   C68 7388   5.304   8.679   0.871 -0.1692  0.2063  0.5988
   18CHTO  H125 7389   5.258   8.698   0.970  0.0059  3.8811  0.0407
   18CHTO   C72 7390   5.279   8.534   0.831 -0.0482  0.2709  0.6504
   18CHTO   O48 7391   5.311   8.434   0.930  0.1535  0.1260 -0.0801
   18CHTO  H105 7392   5.279   8.354   0.894  1.2781 -1.7869  2.9802
   18CHTO   O38 7393   5.578   8.869   0.794 -0.0586 -0.2972  0.5692
   18CHTO   C55 7394   5.703   8.800   0.787  0.2190  0.8792  0.5547
   18CHTO  H112 7395   5.691   8.707   0.845  1.7682 -0.6427 -1.4841
   18CHTO   C56 7396   5.816   8.893   0.845 -0.1474 -0.0315  0.0407
   18CHTO  H113 7397   5.811   8.987   0.788 -1.3560 -0.5015 -0.6466
   18CHTO   O42 7398   5.783   8.928   0.982  0.5651 -0.0769 -0.2235
   18CHTO  H100 7399   5.696   8.956   1.004  1.0177  0.9093  0.3080
   18CHTO   C57 7400   5.958   8.824   0.830  0.3000  0.4893 -0.7331
   18CHTO  H114 7401   5.957   8.758   0.917 -0.4507  2.4687  0.7897
   18CHTO   N10 7402   6.074   8.920   0.847 -0.0464 -0.1446  0.1859
   18CHTO  H106 7403   6.160   8.890   0.789  0.7656  2.4413  0.0291
   18CHTO  H107 7404   6.041   9.018   0.815  0.2725 -0.6368 -1.7258
   18CHTO   C58 7405   5.983   8.750   0.700 -0.0591 -0.1002  0.6813
   18CHTO  H115 7406   6.013   8.818   0.618  0.2962 -1.5035 -0.3857
   18CHTO   O37 7407   5.868   8.675   0.657 -0.1079 -0.1821  0.3197
   18CHTO   C59 7408   5.748   8.756   0.647  0.4234 -0.5317  1.0356
   18CHTO  H116 7409   5.768   8.847   0.591 -0.3174  0.7202  2.7737
   18CHTO   C70 7410   5.651   8.667   0.571  0.0001 -0.1631  0.3101
   18CHTO   O46 7411   5.588   8.562   0.651 -0.6784 -0.2526  0.2702
   18CHTO  H103 7412   5.516   8.595   0.702 -0.9139 -3.0174  1.7862
   18CHTO   O39 7413   6.096   8.622   0.723  0.0619 -0.1896  0.1133
   18CHTO   C60 7414   6.044   8.518   0.809  0.3884  0.9769 -0.3924
   18CHTO  H117 7415   5.960   8.555   0.868  1.9865  2.5600  0.9509
   18CHTO   C62 7416   5.994   8.388   0.724 -0.6945 -0.2917  0.9146
   18CHTO  H119 7417   5.936   8.441   0.645  1.3019  2.7644  1.3674
   18CHTO   O43 7418   6.101   8.320   0.647  0.3027  0.3356  0.5696
   18CHTO  H101 7419   6.155   8.385   0.607 -0.7883 -0.4451 -2.2628
   18CHTO   C66 7420   5.918   8.299   0.826  0.2085  0.3175 -0.3914
   18CHTO  H123 7421   5.852   8.368   0.879 -1.3096 -0.1035 -1.7115
   18CHTO   N12 7422   5.839   8.194   0.761  0.1545 -0.0888 -0.0659
   18CHTO  H110 7423   5.780   8.136   0.831 -0.4280 -0.9664 -1.2694
   18CHTO  H111 7424   5.908   8.135   0.702  0.5445 -1.5277  1.7809
   18CHTO   C69 7425   6.020   8.244   0.925  0.2836 -0.1083  0.6239
   18CHTO  H126 7426   6.091   8.176   0.874 -1.5487 -1.4248 -0.2449
   18CHTO   O41 7427   6.100   8.363   1.002 -0.2316 -0.5620  0.6921
   18CHTO   C64 7428   6.154   8.482   0.910  0.0813  0.0374  0.4389
   18CHTO  H121 7429   6.246   8.459   0.853 -0.4787  2.0117 -1.3315
   18CHTO   C71 7430   6.200   8.603   0.999  0.1206  0.3233  0.2815
   18CHTO   O47 7431   6.283   8.571   1.107  0.7759  0.1716 -0.0456
   18CHTO  H104 7432   6.356   8.525   1.073  0.3306 -1.3673  1.0396
   18CHTO   O34 7433   5.952   8.155   1.034  0.4486  0.3182  0.2275
   18CHTO   C49 7434   5.916   8.166   1.184  0.2221 -0.0023 -0.3099
   18CHTO   H91 7435   5.987   8.112   1.246  0.8504 -0.7897 -1.6784
   18CHTO   C47 7436   5.774   8.106   1.206  0.0668  0.1053 -0.6663
   18CHTO   H89 7437   5.748   8.130   1.311 -0.7952 -2.4618 -0.2475
   18CHTO   O33 7438   5.774   7.960   1.189  0.2756  0.6277 -0.0587
   18CHTO   H70 7439   5.749   7.945   1.100  0.0638 -0.5200  0.1813
   18CHTO   C45 7440   5.666   8.190   1.111 -0.2993 -0.0061 -0.0831
   18CHTO   H87 7441   5.712   8.196   1.011  0.2227 -1.6277  0.0533
   18CHTO    N8 7442   5.534   8.129   1.099  0.5431  0.0242  0.6482
   18CHTO   H75 7443   5.504   8.117   0.996  0.8440  0.5843  0.4913
   18CHTO   H76 7444   5.456   8.183   1.151  2.2256  2.2961  0.9249
   18CHTO   C43 7445   5.664   8.341   1.156  0.2935 -0.2464  0.1844
   18CHTO   H85 7446   5.605   8.395   1.082 -1.2156  0.6789  2.0104
   18CHTO   O29 7447   5.796   8.390   1.164 -0.1073  0.5248 -0.0876
   18CHTO   C50 7448   5.902   8.316   1.230  0.3727 -0.4875  1.2729
   18CHTO   H92 7449   5.999   8.361   1.206  1.3991 -2.0500  2.3589
   18CHTO   C54 7450   5.895   8.338   1.382 -0.5848  0.1566  0.1077
   18CHTO   O36 7451   6.007   8.275   1.446 -0.5816 -0.5363  0.2733
   18CHTO   H72 7452   6.007   8.293   1.538  2.1041 -0.8213  0.3544
   18CHTO   O27 7453   5.599   8.349   1.288 -0.2700  0.0586  0.7534
   18CHTO   C37 7454   5.511   8.443   1.347 -0.1702  0.0185 -0.3631
   18CHTO   H79 7455   5.534   8.457   1.454 -1.3892 -0.9220  0.0408
   18CHTO   C38 7456   5.528   8.592   1.289 -0.4039  0.3712 -0.5357
   18CHTO   H80 7457   5.515   8.578   1.180  2.3802 -1.9433 -0.6370
   18CHTO   O31 7458   5.660   8.628   1.325 -0.2954 -0.5488  0.6929
   18CHTO   H68 7459   5.720   8.580   1.271 -1.0341 -0.7521  0.0370
   18CHTO   C39 7460   5.425   8.694   1.344  0.3207 -0.4150  0.1727
   18CHTO   H81 7461   5.446   8.715   1.449  0.3903  2.2025 -0.3293
   18CHTO    N7 7462   5.429   8.830   1.269 -0.1674 -0.2243  0.4230
   18CHTO   H73 7463   5.411   8.911   1.339  0.1565 -0.8367  1.2245
   18CHTO   H74 7464   5.367   8.842   1.182 -1.2852  1.6496  1.4439
   18CHTO   C40 7465   5.280   8.642   1.347  0.0551 -0.1751  0.0058
   18CHTO   H82 7466   5.250   8.643   1.242  3.8007 -1.7349 -1.1658
   18CHTO   O26 7467   5.277   8.510   1.405 -0.0065 -0.1576  0.1784
   18CHTO   C41 7468   5.361   8.409   1.341  0.1046 -0.5246  0.3196
   18CHTO   H83 7469   5.341   8.397   1.233 -0.6454  2.9065  0.0347
   18CHTO   C52 7470   5.343   8.276   1.420  0.4669 -0.3495 -0.7304
   18CHTO   O35 7471   5.220   8.214   1.381  0.4073 -0.1420 -0.1166
   18CHTO   H71 7472   5.220   8.123   1.401  1.7858  0.2591  1.8186
   18CHTO   O28 7473   5.197   8.720   1.427 -0.1545 -0.2134  0.1566
   18CHTO   C42 7474   5.054   8.718   1.439 -0.4707  0.5034  0.4524
   18CHTO   H84 7475   5.020   8.803   1.498  1.4967  0.2978  1.9311
   18CHTO   C44 7476   5.009   8.597   1.523 -0.7194  0.2933  0.0190
   18CHTO   H86 7477   5.049   8.507   1.476  1.6971 -0.0074  2.5685
   18CHTO   O32 7478   5.076   8.612   1.659 -0.0292  0.5619  0.7676
   18CHTO   H69 7479   5.023   8.649   1.726 -0.8821 -0.1120  0.4777
   18CHTO   C48 7480   4.853   8.589   1.545  0.9638  0.2784  0.6528
   18CHTO   H90 7481   4.813   8.676   1.598  0.5687 -0.4922  1.6290
   18CHTO    N9 7482   4.810   8.469   1.618 -0.0909 -0.1618  0.1957
   18CHTO   H77 7483   4.797   8.387   1.548 -0.5554 -0.0820  0.1894
   18CHTO   H78 7484   4.715   8.492   1.663  0.1275  1.4702 -0.1437
   18CHTO   C51 7485   4.788   8.583   1.402 -0.2935  1.3085 -0.0353
   18CHTO   H93 7486   4.813   8.497   1.340 -0.2528  1.9010 -0.8505
   18CHTO   O30 7487   4.825   8.705   1.338 -0.5005 -0.2310 -0.1770
   18CHTO   C46 7488   4.969   8.713   1.304 -0.0938 -1.1406 -0.1793
   18CHTO   H88 7489   4.995   8.624   1.248 -0.2019 -1.7114  0.6698
   18CHTO   C53 7490   5.011   8.841   1.226  0.1851 -0.2233 -0.4742
   18CHTO   O72 7491   4.950   8.836   1.099  0.5671 -0.4924  0.0717
   18CHTO  H199 7492   5.021   8.845   1.039  1.3360  1.6662  1.2243
   18CHTO   O22 7493   4.647   8.595   1.409  0.4170  0.1185  0.2353
   18CHTO   C31 7494   4.555   8.603   1.290 -1.2078  0.2459  0.1460
   18CHTO   H59 7495   4.457   8.630   1.335 -1.3784 -1.6535  0.9816
   18CHTO   C29 7496   4.584   8.701   1.172 -0.3996 -0.2107  0.1947
   18CHTO   H57 7497   4.687   8.701   1.136  0.2741 -2.4658  2.0033
   18CHTO   O21 7498   4.569   8.835   1.227  0.0493 -0.6660  0.1998
   18CHTO   H37 7499   4.634   8.853   1.293  0.9193 -0.7094 -0.6204
   18CHTO   C27 7500   4.490   8.689   1.047  0.0094  0.5559 -0.3138
   18CHTO   H55 7501   4.385   8.700   1.080  0.5035 -0.4269  1.6681
   18CHTO    N5 7502   4.522   8.787   0.937 -0.0406  0.1315  0.3874
   18CHTO   H43 7503   4.455   8.774   0.854 -0.6097 -1.8178  1.1394
   18CHTO   H44 7504   4.503   8.888   0.971  2.0707  1.0641 -1.0727
   18CHTO   C25 7505   4.492   8.545   0.998  0.1012  0.0220 -0.7609
   18CHTO   H53 7506   4.595   8.530   0.964 -0.1445 -0.1744 -1.4189
   18CHTO   O17 7507   4.456   8.455   1.106  0.2632  0.0072 -0.7293
   18CHTO   C32 7508   4.534   8.458   1.231 -0.0711 -0.1435  0.5826
   18CHTO   H60 7509   4.634   8.418   1.213  0.1284  0.4704  0.2863
   18CHTO   C36 7510   4.456   8.365   1.328 -0.0602 -0.3449 -0.2119
   18CHTO   O25 7511   4.316   8.405   1.336 -0.0903 -0.0063 -0.0212
   18CHTO   H40 7512   4.269   8.372   1.411  0.5154 -0.4567  0.1622
   18CHTO   O15 7513   4.394   8.513   0.873  0.9578 -0.5182  0.5029
   18CHTO   C19 7514   4.427   8.460   0.742 -0.0610 -0.5931 -0.4031
   18CHTO   H47 7515   4.337   8.396   0.735  0.1039 -1.2514  2.9455
   18CHTO   C20 7516   4.429   8.576   0.629  0.5703  0.6211  0.7237
   18CHTO   H48 7517   4.491   8.663   0.655  0.8588  1.0042 -1.1444
   18CHTO   O19 7518   4.296   8.633   0.609 -0.3084  0.3295  0.3978
   18CHTO   H35 7519   4.280   8.676   0.527 -2.6119 -1.5498 -0.1711
   18CHTO   C21 7520   4.482   8.526   0.483  0.1069  0.5481 -0.6956
   18CHTO   H49 7521   4.402   8.464   0.445  0.0780 -0.5850  1.1433
   18CHTO    N4 7522   4.505   8.632   0.389 -0.4731  0.4818  0.6365
   18CHTO   H41 7523   4.410   8.664   0.348  0.7537  1.4679 -1.5249
   18CHTO   H42 7524   4.551   8.718   0.436  0.6163  0.9137 -1.1670
   18CHTO   C22 7525   4.601   8.432   0.505 -0.1513  0.4826 -0.2727
   18CHTO   H50 7526   4.681   8.495   0.544  1.7542 -2.1769  0.2688
   18CHTO   O14 7527   4.572   8.327   0.596  0.0042  0.9645 -0.2097
   18CHTO   C23 7528   4.551   8.369   0.728 -0.4434 -0.2817 -0.4006
   18CHTO   H51 7529   4.646   8.423   0.744 -0.0153 -0.5939 -1.8099
   18CHTO   C34 7530   4.535   8.243   0.808  0.1096  0.1281 -1.0057
   18CHTO   O23 7531   4.661   8.171   0.819  0.2334 -0.0445 -0.0655
   18CHTO   H38 7532   4.681   8.139   0.733  0.4223  1.5588 -0.6495
   18CHTO   O16 7533   4.649   8.378   0.380 -0.1319 -0.3010  0.2841
   18CHTO   C24 7534   4.814   8.395   0.358 -0.3599 -0.0781 -0.0344
   18CHTO   H52 7535   4.852   8.492   0.390 -1.8045 -0.2156  2.1820
   18CHTO   C26 7536   4.837   8.385   0.213  0.3696  0.4368  0.6017
   18CHTO   H54 7537   4.804   8.284   0.181  3.3526 -0.1237 -0.8278
   18CHTO   O20 7538   4.766   8.490   0.146  0.1226 -0.2323  0.3817
   18CHTO   H36 7539   4.804   8.574   0.167 -1.1443  0.5199 -0.2650
   18CHTO   C30 7540   4.992   8.375   0.180  0.2501  0.5681  0.5856
   18CHTO   H58 7541   5.046   8.467   0.205 -0.4243  0.2102  3.5116
   18CHTO    N6 7542   5.015   8.355   0.034 -0.1761 -0.1679 -0.9913
   18CHTO   H45 7543   5.044   8.254   0.008  3.3976 -0.0901  2.2634
   18CHTO   H46 7544   4.939   8.390  -0.034 -0.3697  0.6915 -0.3405
   18CHTO   C33 7545   5.062   8.267   0.267 -0.6282 -0.4243  0.0059
   18CHTO   H61 7546   5.022   8.169   0.235 -0.6985  0.0437 -1.3603
   18CHTO   O18 7547   5.033   8.288   0.408 -0.0523 -0.0904 -0.2650
   18CHTO   C28 7548   4.894   8.287   0.440 -0.7504  0.2315 -0.0116
   18CHTO   H56 7549   4.847   8.192   0.418 -0.3518  0.1589 -0.5540
   18CHTO   C35 7550   4.891   8.303   0.599  0.4581  0.4598  0.3096
   18CHTO   O24 7551   4.965   8.212   0.677  0.0600  0.2797  0.2301
   18CHTO   H39 7552   4.916   8.132   0.680 -0.7965  0.8270  1.6255
   18CHTO    O9 7553   5.206   8.267   0.248 -0.4718 -0.0530 -0.2057
   18CHTO   C13 7554   5.279   8.138   0.308  0.5592 -0.6597 -0.0029
   18CHTO   H26 7555   5.203   8.059   0.321 -0.5812  0.6924  1.8886
   18CHTO   C11 7556   5.352   8.175   0.448  0.6969 -0.2328 -0.3576
   18CHTO   H24 7557   5.283   8.191   0.533 -0.1472 -1.3455 -0.8149
   18CHTO    O8 7558   5.418   8.302   0.430  0.0601 -0.1717 -0.4648
   18CHTO    H3 7559   5.492   8.289   0.374  0.7168  1.5830 -0.0403
   18CHTO    C9 7560   5.440   8.052   0.488 -0.1465 -0.8713 -0.0310
   18CHTO   H22 7561   5.368   7.973   0.513 -0.3331 -0.6339  0.1933
   18CHTO    N2 7562   5.505   8.079   0.618  0.8216 -0.0223  0.1205
   18CHTO   H10 7563   5.584   8.007   0.634 -0.9191 -1.5400  2.1670
   18CHTO   H11 7564   5.433   8.076   0.698 -1.3836  1.8903 -1.7427
   18CHTO    C7 7565   5.539   8.008   0.366 -0.0327  0.0048  0.3346
   18CHTO   H20 7566   5.577   7.910   0.404  1.5135  1.3651  2.4511
   18CHTO    O4 7567   5.476   7.994   0.235 -0.1618 -0.0716 -0.4271
   18CHTO   C14 7568   5.371   8.085   0.191 -0.2773  0.5521  0.9997
   18CHTO   H27 7569   5.303   8.041   0.115  1.7672  1.3057 -1.3385
   18CHTO   C18 7570   5.446   8.198   0.107  0.5299  0.3938 -0.2201
   18CHTO   O13 7571   5.500   8.151  -0.013 -0.4855  0.2006  0.3294
   18CHTO    H7 7572   5.539   8.226  -0.054 -0.1924 -0.2415 -0.2068
   18CHTO    O2 7573   5.659   8.113   0.350 -0.1299  0.4112  0.0479
   18CHTO    C1 7574   5.779   8.094   0.276  0.3017  0.3994  0.5049
   18CHTO   H14 7575   5.756   8.121   0.171 -1.7932 -2.1162  0.2863
   18CHTO    C2 7576   5.823   7.943   0.271  0.2288  0.1709 -0.2421
   18CHTO   H15 7577   5.825   7.912   0.376  0.3822  1.6577  0.2047
   18CHTO    O6 7578   5.728   7.874   0.186  0.4801  0.2596  0.1104
   18CHTO    H1 7579   5.648   7.851   0.228  1.0021 -2.1199 -0.1684
   18CHTO    C3 7580   5.972   7.938   0.217  0.8061 -0.1447  0.5975
   18CHTO   H16 7581   5.963   7.976   0.114 -0.3605 -2.9243 -0.3814
   18CHTO    N1 7582   6.027   7.797   0.212  0.0365 -0.3047  0.4932
   18CHTO    H8 7583   6.128   7.807   0.175 -1.2031  0.3624 -2.9533
   18CHTO    H9 7584   6.033   7.754   0.311  1.3836 -0.4363  0.3699
   18CHTO    C4 7585   6.066   8.033   0.298 -0.1477 -0.1661  0.2526
   18CHTO   H17 7586   6.064   8.007   0.404  2.0610  0.6981  0.5240
   18CHTO    O1 7587   6.014   8.162   0.284  0.1043 -0.2150  0.0798
   18CHTO    C5 7588   5.884   8.193   0.327 -0.4242  0.2218  0.3189
   18CHTO   H18 7589   5.885   8.188   0.436  1.2800  0.9118  0.3554
   18CHTO   C16 7590   5.854   8.345   0.294 -0.3570  0.0182 -0.3692
   18CHTO   O11 7591   5.954   8.437   0.349  0.0003 -0.7295  0.3727
   18CHTO    H5 7592   5.906   8.517   0.357 -0.1346 -0.6382 -1.1751
   18CHTO    O3 7593   6.196   8.047   0.248  0.5084 -0.4991  0.1396
   18CHTO    C6 7594   6.304   8.047   0.339 -0.7960 -0.2779 -0.5870
   18CHTO   H19 7595   6.264   8.052   0.440 -0.5101  0.0709 -0.4913
   18CHTO    C8 7596   6.401   7.917   0.327  0.2896  0.7941 -0.2716
   18CHTO   H21 7597   6.431   7.906   0.222 -0.5356 -2.2332 -0.2185
   18CHTO    O7 7598   6.324   7.802   0.358  0.6266 -0.4113 -0.7438
   18CHTO    H2 7599   6.317   7.743   0.285  1.0088  1.7014 -2.5554
   18CHTO   C12 7600   6.514   7.925   0.434 -0.0922 -0.2277 -0.1659
   18CHTO   H25 7601   6.458   7.949   0.528 -2.0676  0.5226 -1.5067
   18CHTO    N3 7602   6.592   7.804   0.466 -0.0357 -0.3982  0.1421
   18CHTO   H12 7603   6.520   7.727   0.492  0.0046  0.1420  1.8816
   18CHTO   H13 7604   6.666   7.805   0.545  0.8180 -1.3251 -0.6302
   18CHTO   C15 7605   6.598   8.059   0.395 -0.1082  0.3285 -0.2243
   18CHTO   H28 7606   6.656   8.044   0.304 -0.5909  2.2358 -0.8774
   18CHTO   O10 7607   6.702   8.099   0.475 -0.6708  0.1521  0.3609
   18CHTO    H4 7608   6.762   8.159   0.436 -0.0534 -1.2949 -0.9902
   18CHTO    O5 7609   6.509   8.171   0.396  0.4593  0.0300  0.0271
   18CHTO   C10 7610   6.387   8.176   0.314  0.1528  0.2289 -0.3138
   18CHTO   H23 7611   6.427   8.185   0.213  1.4001 -2.1039 -0.0587
   18CHTO   C17 7612   6.313   8.302   0.355  0.4808  0.4146 -0.3375
   18CHTO   O12 7613   6.209   8.338   0.264  0.1119 -0.5769 -0.3802
   18CHTO    H6 7614   6.129   8.292   0.283  0.1056 -0.6279 -0.5301
   19CHTO  H203 7615   4.817   9.739   2.013  0.3967  0.8333  0.5068
   19CHTO   O82 7616   4.899   9.696   2.004  0.1462  0.3951  0.3189
   19CHTO  C123 7617   4.876   9.563   1.972 -0.1789 -0.1993 -0.4026
   19CHTO  H227 7618   4.800   9.564   1.892 -0.0128 -0.2975 -0.5616
   19CHTO   O77 7619   5.002   9.517   1.927 -0.2033  0.3956 -0.3969
   19CHTO  C118 7620   5.013   9.397   1.852 -0.3344 -0.6156  0.1563
   19CHTO  H222 7621   4.938   9.410   1.773  0.4540  2.3852 -0.1626
   19CHTO  C125 7622   5.159   9.381   1.786 -0.3160 -0.4153 -0.4971
   19CHTO   O84 7623   5.258   9.370   1.887 -0.4577 -0.1717 -0.4508
   19CHTO  H205 7624   5.287   9.281   1.889  2.8938  0.8199 -1.0581
   19CHTO  C114 7625   4.978   9.290   1.954  0.2661 -0.1761  0.7946
   19CHTO  H218 7626   5.055   9.285   2.031  1.5382  0.4987 -0.4211
   19CHTO  C116 7627   4.848   9.321   2.034 -0.1608  0.5534 -0.0546
   19CHTO  H220 7628   4.763   9.303   1.964  1.3930  0.4055 -1.9624
   19CHTO   O79 7629   4.839   9.219   2.142  0.0607  0.2105 -0.1025
   19CHTO  H201 7630   4.915   9.211   2.196  0.6785 -0.1543 -1.0081
   19CHTO  C120 7631   4.840   9.468   2.097 -0.4458  0.3413  0.4372
   19CHTO  H224 7632   4.918   9.476   2.175 -0.6903  2.6543  0.4788
   19CHTO   N21 7633   4.709   9.508   2.146  0.5609 -0.2200  0.6311
   19CHTO  H211 7634   4.724   9.576   2.229  1.5938 -2.1265  2.0627
   19CHTO  H212 7635   4.651   9.419   2.168  0.2032 -1.0337 -3.2777
   19CHTO   O75 7636   4.971   9.173   1.876 -1.1808  0.1719 -0.4760
   19CHTO  C112 7637   5.041   9.053   1.957 -0.8069  0.1681  0.3158
   19CHTO  H216 7638   5.023   9.057   2.066  4.4155 -0.6761  1.3219
   19CHTO   O73 7639   5.182   9.056   1.928  0.7245  0.3391  0.2557
   19CHTO  C113 7640   5.274   8.964   1.996  0.0313 -0.2423  0.0284
   19CHTO  H217 7641   5.256   8.973   2.106 -0.1778  0.6264 -0.0722
   19CHTO  C124 7642   5.420   8.993   1.957 -0.1624  0.2771 -0.6827
   19CHTO   O83 7643   5.452   9.129   1.984 -0.4180 -0.5132 -0.4829
   19CHTO  H204 7644   5.517   9.152   1.922 -0.4344 -0.8920 -0.6416
   19CHTO  C109 7645   5.233   8.829   1.955  0.3055  0.5018 -0.3514
   19CHTO  H213 7646   5.244   8.829   1.846  1.3689  0.9704 -0.2555
   19CHTO  C110 7647   5.080   8.807   1.985  0.3743  0.0156  0.4285
   19CHTO  H214 7648   5.073   8.809   2.093  1.6419  0.0424  0.5263
   19CHTO   O78 7649   5.036   8.679   1.931  0.4098 -0.9211  0.0698
   19CHTO  H200 7650   4.962   8.644   1.977  0.5161 -1.3280 -0.0710
   19CHTO  C111 7651   4.990   8.912   1.920  0.6485 -0.4809  0.3274
   19CHTO  H215 7652   5.007   8.907   1.812  2.4676 -0.2274  0.5900
   19CHTO   N19 7653   4.844   8.894   1.948 -0.3342  0.6572  0.3342
   19CHTO  H207 7654   4.787   8.927   1.863  1.0465 -0.0305 -0.8775
   19CHTO  H208 7655   4.803   8.881   2.047 -0.9913 -0.0642 -0.0314
   19CHTO   O74 7656   5.324   8.731   2.015 -0.1501 -0.0007  0.0137
   19CHTO  C115 7657   5.353   8.622   1.912 -0.1719 -0.3008  0.3980
   19CHTO  H219 7658   5.261   8.583   1.868  0.4585  0.9520 -2.1400
   19CHTO   O76 7659   5.442   8.685   1.779  0.4287 -0.4753 -0.4884
   19CHTO  C122 7660   5.589   8.675   1.798 -0.3262 -0.8519  0.2278
   19CHTO  H226 7661   5.616   8.750   1.872 -3.6643 -0.2898  0.9649
   19CHTO  C126 7662   5.657   8.722   1.658  0.0645  0.1584  0.5488
   19CHTO   O85 7663   5.605   8.853   1.636 -0.0703  0.4646  0.8094
   19CHTO  H206 7664   5.667   8.918   1.663  0.0518  0.6200  0.1771
   19CHTO  C121 7665   5.634   8.524   1.835  0.1017 -0.5118  0.8696
   19CHTO  H225 7666   5.684   8.483   1.744 -1.1834  1.8923 -0.9833
   19CHTO   O81 7667   5.730   8.532   1.941  0.1449 -0.3373 -0.0567
   19CHTO  H202 7668   5.793   8.463   1.931 -2.6559 -3.0471  0.1029
   19CHTO  C119 7669   5.526   8.422   1.882 -0.9702 -0.5029 -0.2567
   19CHTO  H223 7670   5.469   8.406   1.790 -0.6307 -2.9965 -0.0809
   19CHTO  C117 7671   5.431   8.503   1.984  0.7549 -0.2339  0.1910
   19CHTO  H221 7672   5.483   8.542   2.072 -0.5095 -0.1360  0.9028
   19CHTO   N20 7673   5.339   8.398   2.035 -0.2143  0.1574  0.2334
   19CHTO  H209 7674   5.393   8.305   2.042  0.2629  0.5023  1.3334
   19CHTO  H210 7675   5.249   8.380   1.978  0.7333 -1.6651 -0.7415
   19CHTO   O80 7676   5.586   8.267   1.899  0.2082  0.0672  0.1939
   19CHTO  C103 7677   5.611   8.177   1.764  0.4321 -0.3616 -0.5852
   19CHTO  H190 7678   5.569   8.226   1.676  0.4840  2.7458  1.0582
   19CHTO  C101 7679   5.765   8.134   1.748  0.1671 -0.0803 -0.4198
   19CHTO  H188 7680   5.801   8.076   1.834 -1.0751 -1.7121 -0.9663
   19CHTO   O68 7681   5.860   8.272   1.721 -0.2201  0.0340  0.8400
   19CHTO  H168 7682   5.802   8.342   1.698 -1.0314 -0.7285  0.5504
   19CHTO   C99 7683   5.774   8.034   1.624 -0.5888 -0.1317 -0.0164
   19CHTO  H186 7684   5.740   8.094   1.537  1.8219 -0.6119 -1.3464
   19CHTO   N17 7685   5.917   7.988   1.594  0.0947  0.1362  0.1848
   19CHTO  H174 7686   5.908   7.916   1.515 -1.5174 -0.4556  0.8948
   19CHTO  H175 7687   5.990   8.066   1.576 -1.8482  1.5682 -1.7916
   19CHTO   C97 7688   5.678   7.917   1.628  0.5531  0.4841 -0.2834
   19CHTO  H184 7689   5.721   7.828   1.677 -0.6816  1.1632  2.1023
   19CHTO   O64 7690   5.547   7.945   1.687  0.1121 -0.7746  0.2034
   19CHTO  C104 7691   5.532   8.042   1.793 -0.5355 -0.3327 -0.1226
   19CHTO  H191 7692   5.566   7.998   1.887  0.4499 -1.1334 -0.8424
   19CHTO  C108 7693   5.382   8.068   1.807 -0.6951  0.7702 -0.0712
   19CHTO   O71 7694   5.308   7.969   1.877  0.0188 -0.7407 -0.2031
   19CHTO  H171 7695   5.292   8.007   1.961  0.8589  1.4738 -0.9798
   19CHTO   O62 7696   5.638   7.886   1.497 -0.2090 -0.1102  0.8429
   19CHTO   C91 7697   5.578   7.760   1.478 -0.2847  0.1117  0.1187
   19CHTO  H178 7698   5.548   7.718   1.574 -2.1972  1.3302  0.0925
   19CHTO   C92 7699   5.681   7.655   1.416  0.1423 -0.3895  0.4443
   19CHTO  H179 7700   5.725   7.698   1.325  1.5493 -0.9165  0.8552
   19CHTO   O66 7701   5.795   7.652   1.503  0.9007  0.3053 -0.2316
   19CHTO  H166 7702   5.844   7.572   1.504 -1.5385 -1.2508 -1.2379
   19CHTO   C93 7703   5.621   7.515   1.385 -0.5632  0.1262 -0.1620
   19CHTO  H180 7704   5.607   7.475   1.487  1.0984  2.2401  0.9345
   19CHTO   N16 7705   5.703   7.417   1.311 -0.2421 -0.0692  0.3764
   19CHTO  H172 7706   5.759   7.453   1.226 -1.3629 -0.7789 -0.6973
   19CHTO  H173 7707   5.758   7.354   1.380  2.7582 -0.8577 -2.5991
   19CHTO   C94 7708   5.476   7.525   1.323 -0.4312  0.0160 -0.1870
   19CHTO  H181 7709   5.482   7.560   1.220  1.6260 -0.3984 -0.2187
   19CHTO   O61 7710   5.400   7.621   1.396  0.2138  0.4263 -0.0791
   19CHTO   C95 7711   5.448   7.758   1.384  0.3595  0.6033 -0.6320
   19CHTO  H182 7712   5.479   7.775   1.281 -0.1553 -1.5449 -1.1642
   19CHTO  C106 7713   5.335   7.854   1.427 -0.2291 -0.1127 -0.2734
   19CHTO   O69 7714   5.278   7.827   1.556 -0.3011  0.0222 -0.2210
   19CHTO  H169 7715   5.327   7.764   1.606 -0.0151 -1.5251 -2.3845
   19CHTO   O63 7716   5.385   7.384   1.334  0.5130 -0.5091  0.7485
   19CHTO   C96 7717   5.232   7.373   1.246 -0.1249  0.4650  0.1229
   19CHTO  H183 7718   5.253   7.372   1.140  0.0651  2.0267  0.1426
   19CHTO   C98 7719   5.140   7.493   1.282  0.0982 -0.0772 -0.5375
   19CHTO  H185 7720   5.150   7.524   1.387 -1.8164 -1.1534 -0.0106
   19CHTO   O67 7721   5.203   7.596   1.207  0.0590 -0.6422 -0.0455
   19CHTO  H167 7722   5.155   7.677   1.201 -1.1593 -1.1383  2.4551
   19CHTO  C102 7723   4.986   7.471   1.241 -0.3287  0.5746  0.3525
   19CHTO  H189 7724   4.979   7.457   1.132 -1.9178  1.2087  0.3652
   19CHTO   N18 7725   4.899   7.588   1.273 -0.0100  0.6762 -0.0788
   19CHTO  H176 7726   4.903   7.630   1.372 -1.6202  3.8334 -1.2901
   19CHTO  H177 7727   4.798   7.570   1.237  0.3970  0.4989 -1.1637
   19CHTO  C105 7728   4.946   7.338   1.302  0.0051  0.5640  0.1521
   19CHTO  H192 7729   4.973   7.337   1.408  3.9801 -5.0747 -0.7038
   19CHTO   O65 7730   5.030   7.235   1.248 -0.2946  0.0787  0.3779
   19CHTO  C100 7731   5.170   7.241   1.275  0.0349 -0.2965 -0.3016
   19CHTO  H187 7732   5.194   7.210   1.378 -2.2300 -1.5902 -0.1411
   19CHTO  C107 7733   5.224   7.135   1.180 -0.1360  0.9435 -0.0084
   19CHTO   O70 7734   5.364   7.120   1.173  0.9405 -0.0682  0.9622
   19CHTO  H170 7735   5.393   7.110   1.085  0.8796  2.5872  0.5829
   19CHTO   O57 7736   4.795   7.297   1.262 -0.1385  0.2737 -0.5441
   19CHTO   C85 7737   4.726   7.183   1.327  0.5959 -0.4444  0.3470
   19CHTO  H157 7738   4.782   7.162   1.421 -2.5333 -2.5742  1.8097
   19CHTO   C83 7739   4.745   7.059   1.243  0.0418 -0.9022  0.6124
   19CHTO  H155 7740   4.852   7.040   1.251  0.3154 -1.9363 -3.9588
   19CHTO   O56 7741   4.709   7.085   1.105 -0.1889  0.0467 -0.4251
   19CHTO  H135 7742   4.787   7.052   1.065  0.6204  1.5777 -0.1703
   19CHTO   C81 7743   4.668   6.942   1.308 -0.4439 -0.1688 -0.0050
   19CHTO  H153 7744   4.710   6.916   1.406  0.5513  1.6124  0.0699
   19CHTO   N14 7745   4.688   6.818   1.230 -0.4419  0.4478 -0.3285
   19CHTO  H141 7746   4.644   6.818   1.132  1.4939 -0.5157 -1.2211
   19CHTO  H142 7747   4.791   6.792   1.222 -0.3991  0.8571 -1.2221
   19CHTO   C79 7748   4.517   6.972   1.319  0.2155 -0.6084  0.3264
   19CHTO  H151 7749   4.472   6.886   1.368  1.5665 -0.3122  2.1685
   19CHTO   O52 7750   4.493   7.095   1.402  0.1460 -0.2773 -0.5033
   19CHTO   C86 7751   4.568   7.208   1.356 -0.5462 -0.3842  0.1435
   19CHTO  H158 7752   4.514   7.238   1.264  0.4592 -1.1161 -0.6978
   19CHTO   C90 7753   4.551   7.327   1.450 -0.1427  1.3760 -0.7175
   19CHTO   O60 7754   4.557   7.447   1.380 -0.3796 -0.1168 -0.5103
   19CHTO  H138 7755   4.626   7.438   1.317  0.1862  0.5578  0.0057
   19CHTO   O50 7756   4.465   7.007   1.187 -0.0985  0.1754  0.2054
   19CHTO   C73 7757   4.370   7.005   1.077 -0.0672  0.2581 -0.0444
   19CHTO  H145 7758   4.349   6.902   1.045  4.3317 -0.0670 -2.3229
   19CHTO   C74 7759   4.412   7.077   0.943 -0.9255 -0.1399 -0.0330
   19CHTO  H146 7760   4.494   7.017   0.902  0.7497  1.4197  0.9364
   19CHTO   O54 7761   4.305   7.072   0.846 -0.1688 -0.0786 -0.2504
   19CHTO  H133 7762   4.264   7.157   0.845  2.2219  1.1065 -0.1855
   19CHTO   C75 7763   4.455   7.220   0.979 -0.1471 -0.6760 -0.1581
   19CHTO  H147 7764   4.525   7.213   1.063 -0.7879  2.8156  0.7438
   19CHTO   N13 7765   4.518   7.303   0.879 -0.1785 -0.2714  0.0911
   19CHTO  H139 7766   4.600   7.356   0.925  0.9574 -0.8701 -1.1946
   19CHTO  H140 7767   4.554   7.249   0.793  0.0648  1.4458 -0.9128
   19CHTO   C76 7768   4.327   7.288   1.040  0.2623  0.4034 -0.4884
   19CHTO  H148 7769   4.257   7.294   0.956  0.8381  2.3763 -0.8744
   19CHTO   O49 7770   4.264   7.216   1.148  0.5332  0.5482  0.4455
   19CHTO   C77 7771   4.235   7.073   1.123 -1.0545 -0.0730 -0.5190
   19CHTO  H149 7772   4.157   7.050   1.050 -1.0221  0.4976 -0.7350
   19CHTO   C88 7773   4.190   7.005   1.255  0.1839 -0.3624 -0.3098
   19CHTO   O58 7774   4.080   7.073   1.335  0.0765 -0.6344 -0.4699
   19CHTO  H136 7775   4.002   7.025   1.316 -0.3683 -0.5699  1.1589
   19CHTO   O51 7776   4.371   7.424   1.114 -0.0191 -0.0803 -0.4499
   19CHTO   C78 7777   4.277   7.551   1.056  0.1515 -0.3735  0.3561
   19CHTO  H150 7778   4.213   7.512   0.974  0.2713  0.2135 -0.0191
   19CHTO   C80 7779   4.356   7.672   1.002 -0.0963  0.4159 -0.2181
   19CHTO  H152 7780   4.418   7.700   1.090  0.6812 -1.6318 -0.0957
   19CHTO   O55 7781   4.432   7.629   0.893 -0.2820 -0.2534  0.1565
   19CHTO  H134 7782   4.505   7.688   0.889  0.9251 -1.7774 -1.3293
   19CHTO   C84 7783   4.265   7.798   0.962 -0.3452  0.1325  0.1121
   19CHTO  H156 7784   4.205   7.760   0.880  1.6919 -0.9841 -0.9082
   19CHTO   N15 7785   4.340   7.914   0.907 -0.0463 -1.1020  0.2333
   19CHTO  H143 7786   4.425   7.940   0.967  0.7105 -1.9423 -0.4666
   19CHTO  H144 7787   4.373   7.902   0.805 -0.3039  2.2409 -0.3212
   19CHTO   C87 7788   4.173   7.839   1.080  0.4845  0.1217  0.6558
   19CHTO  H159 7789   4.227   7.884   1.162  1.1387 -1.4493  1.1149
   19CHTO   O53 7790   4.103   7.716   1.129  0.7077  0.1626 -0.3347
   19CHTO   C82 7791   4.184   7.606   1.167 -0.6111 -0.1292 -0.3885
   19CHTO  H154 7792   4.241   7.633   1.255  0.2551 -0.9121 -0.7049
   19CHTO   C89 7793   4.080   7.495   1.208 -0.3412 -0.3158 -0.1560
   19CHTO   O59 7794   4.000   7.527   1.320  0.3930  0.1212 -0.1316
   19CHTO  H137 7795   3.922   7.560   1.279  1.3884  1.9601 -0.6065
   19CHTO   O45 7796   4.042   7.937   1.014 -0.3329 -0.2254  0.2175
   19CHTO   C67 7797   3.951   7.989   1.115  0.5098 -0.2083 -0.8268
   19CHTO  H124 7798   3.967   7.925   1.202 -0.8609  1.7205  0.8969
   19CHTO   C65 7799   3.969   8.145   1.154 -0.1634 -0.1343  0.7411
   19CHTO  H122 7800   3.994   8.199   1.062 -3.8756 -0.0252 -0.2876
   19CHTO   O44 7801   4.078   8.150   1.247  0.6180 -0.2817  0.4316
   19CHTO  H102 7802   4.149   8.208   1.225  0.3489  0.4411  1.4487
   19CHTO   C63 7803   3.834   8.218   1.192 -0.4496 -0.6118  0.1165
   19CHTO  H120 7804   3.787   8.248   1.099  2.1877 -1.5123 -1.5770
   19CHTO   N11 7805   3.846   8.354   1.250 -0.3440  0.5243  0.7960
   19CHTO  H108 7806   3.778   8.375   1.330  0.2853  1.5514  1.0586
   19CHTO  H109 7807   3.944   8.373   1.287  0.2066 -0.8625  0.1143
   19CHTO   C61 7808   3.738   8.121   1.275 -0.1488  0.4194 -0.3696
   19CHTO  H118 7809   3.637   8.162   1.290 -0.0405  0.6124 -0.1590
   19CHTO   O40 7810   3.725   7.999   1.197 -0.3614 -0.2804  0.6296
   19CHTO   C68 7811   3.798   7.966   1.077  0.0562 -0.1605  0.2411
   19CHTO  H125 7812   3.768   8.028   0.990 -1.2447  1.6494  1.9472
   19CHTO   C72 7813   3.778   7.824   1.036  0.2495  0.0303 -0.3352
   19CHTO   O48 7814   3.648   7.807   0.985 -0.4929 -0.4287 -0.3224
   19CHTO  H105 7815   3.634   7.714   0.982 -0.3988 -0.4897  0.8490
   19CHTO   O38 7816   3.795   8.085   1.405 -0.4192 -0.6000 -0.0855
   19CHTO   C55 7817   3.718   7.995   1.490  0.2002 -0.4567  0.1654
   19CHTO  H112 7818   3.669   7.922   1.424  2.8705 -1.0302 -1.2821
   19CHTO   C56 7819   3.618   8.066   1.588 -0.2242  0.1198  0.2665
   19CHTO  H113 7820   3.669   8.142   1.649 -0.0634 -0.1825  0.5131
   19CHTO   O42 7821   3.517   8.130   1.517 -0.7289 -0.0412 -0.2137
   19CHTO  H100 7822   3.527   8.223   1.523  2.2505 -0.2631 -0.9155
   19CHTO   C57 7823   3.548   7.965   1.688 -0.6298  0.3609 -0.4365
   19CHTO  H114 7824   3.486   7.900   1.626 -0.9108  0.9115 -0.7402
   19CHTO   N10 7825   3.459   8.033   1.791 -0.8407  0.2460  0.6352
   19CHTO  H106 7826   3.402   8.113   1.747 -0.3686  0.0130 -0.4247
   19CHTO  H107 7827   3.386   7.959   1.822 -0.9254  1.4429  3.4794
   19CHTO   C58 7828   3.654   7.875   1.758 -0.7317 -0.1949 -0.1045
   19CHTO  H115 7829   3.721   7.932   1.826  2.1777 -2.9535 -0.5695
   19CHTO   O37 7830   3.749   7.826   1.663 -0.3638 -0.2948  0.3482
   19CHTO   C59 7831   3.818   7.908   1.569 -1.1244  0.1062  0.0333
   19CHTO  H116 7832   3.888   7.971   1.623  0.5271  0.2227 -2.2012
   19CHTO   C70 7833   3.901   7.820   1.483 -0.0060 -0.8457  0.1139
   19CHTO   O46 7834   3.823   7.716   1.414 -1.1089  0.4904 -0.3623
   19CHTO  H103 7835   3.804   7.648   1.476 -1.1796  0.8680  0.0360
   19CHTO   O39 7836   3.574   7.743   1.819  0.6540 -0.3172 -0.2210
   19CHTO   C60 7837   3.564   7.637   1.717  0.2691 -0.2726 -0.1166
   19CHTO  H117 7838   3.556   7.687   1.621 -0.6336  1.0252  0.6229
   19CHTO   C62 7839   3.693   7.545   1.728  0.3437  0.2191  0.1698
   19CHTO  H119 7840   3.781   7.609   1.706 -0.1000  0.5524 -0.6544
   19CHTO   O43 7841   3.713   7.491   1.863  0.5958 -0.1787 -0.4285
   19CHTO  H101 7842   3.727   7.555   1.930  0.8525  0.1860 -0.8359
   19CHTO   C66 7843   3.682   7.443   1.609  0.2818 -0.0528  0.0234
   19CHTO  H123 7844   3.689   7.502   1.518 -1.6396  0.6237  0.2922
   19CHTO   N12 7845   3.807   7.356   1.600  0.1058  0.4360  0.4337
   19CHTO  H110 7846   3.824   7.308   1.504 -2.2293 -1.2308  0.7942
   19CHTO  H111 7847   3.796   7.280   1.676  1.0696  1.3603  1.5193
   19CHTO   C69 7848   3.550   7.355   1.618 -0.6519 -0.3789 -0.1073
   19CHTO  H126 7849   3.560   7.294   1.710  3.1375 -1.1356 -0.9549
   19CHTO   O41 7850   3.427   7.445   1.637 -0.3343  0.0327  0.5884
   19CHTO   C64 7851   3.435   7.559   1.735 -0.0665 -0.2372  0.0375
   19CHTO  H121 7852   3.436   7.516   1.837  0.7388 -1.9795 -0.7044
   19CHTO   C71 7853   3.318   7.662   1.714 -0.1312  0.2662  0.3305
   19CHTO   O47 7854   3.188   7.607   1.684 -0.1210  0.5066 -0.0608
   19CHTO  H104 7855   3.117   7.655   1.722 -0.6626  0.1628 -0.6456
   19CHTO   O34 7856   3.527   7.261   1.487 -0.1854 -0.2027  0.6282
   19CHTO   C49 7857   3.477   7.296   1.340 -0.2270 -0.4501 -0.2165
   19CHTO   H91 7858   3.371   7.319   1.349 -0.1637 -0.3876  0.4198
   19CHTO   C47 7859   3.508   7.182   1.243 -0.1792 -0.0260 -0.0515
   19CHTO   H89 7860   3.459   7.213   1.148 -0.6422 -0.0377  0.1801
   19CHTO   O33 7861   3.443   7.066   1.294 -0.0586  0.0709  0.4589
   19CHTO   H70 7862   3.463   6.989   1.245 -0.2526  0.2760  0.0576
   19CHTO   C45 7863   3.674   7.173   1.215 -0.0774 -0.4263 -0.0696
   19CHTO   H87 7864   3.715   7.165   1.317 -0.0766 -1.1097 -0.1212
   19CHTO    N8 7865   3.718   7.055   1.137  0.3860  0.4742  0.3836
   19CHTO   H75 7866   3.642   7.008   1.075 -0.9855  2.4403  0.5124
   19CHTO   H76 7867   3.807   7.081   1.081  2.2313 -1.1076  2.5131
   19CHTO   C43 7868   3.719   7.312   1.155  0.2097 -0.6754  0.2763
   19CHTO   H85 7869   3.825   7.299   1.136  0.6849  3.0301 -0.0466
   19CHTO   O29 7870   3.691   7.418   1.247  0.5288 -0.3374 -0.2494
   19CHTO   C50 7871   3.548   7.423   1.289 -0.4006 -0.2202  0.8418
   19CHTO   H92 7872   3.554   7.490   1.375  0.8869 -0.6758  1.1154
   19CHTO   C54 7873   3.456   7.490   1.187  0.0761 -0.3892  0.0556
   19CHTO   O36 7874   3.506   7.617   1.149 -0.2870  0.0819  0.2505
   19CHTO   H72 7875   3.518   7.671   1.224 -0.6319  1.6741 -0.8181
   19CHTO   O27 7876   3.670   7.342   1.023  0.3967 -0.0141  0.1098
   19CHTO   C37 7877   3.705   7.370   0.884  0.8983 -0.0782  0.1391
   19CHTO   H79 7878   3.681   7.280   0.826  2.1440 -0.6421  0.4881
   19CHTO   C38 7879   3.629   7.497   0.830  0.3746  0.1265  0.3966
   19CHTO   H80 7880   3.632   7.579   0.902  0.1039  0.3603  0.1464
   19CHTO   O31 7881   3.501   7.436   0.816  0.2391 -0.2731  0.1941
   19CHTO   H68 7882   3.478   7.397   0.734  0.1961 -3.9344  1.8640
   19CHTO   C39 7883   3.686   7.560   0.697  0.9430 -0.0469 -0.1159
   19CHTO   H81 7884   3.680   7.493   0.611  0.6652  0.8414 -0.7940
   19CHTO    N7 7885   3.614   7.691   0.661 -0.3476  0.4228 -0.2669
   19CHTO   H73 7886   3.596   7.760   0.743  1.5436  3.6660 -2.4864
   19CHTO   H74 7887   3.652   7.730   0.568  1.8149 -1.3688 -0.1528
   19CHTO   C40 7888   3.839   7.587   0.720  0.0773 -0.4400  0.5468
   19CHTO   H82 7889   3.857   7.658   0.800  2.7152  1.2618 -1.4601
   19CHTO   O26 7890   3.899   7.460   0.744 -0.0683 -0.2196 -0.7118
   19CHTO   C41 7891   3.860   7.406   0.871  0.2312 -0.6735 -0.1783
   19CHTO   H83 7892   3.901   7.475   0.946  1.7853 -0.8780 -0.8118
   19CHTO   C52 7893   3.944   7.278   0.877 -0.1780 -0.7119  0.8885
   19CHTO   O35 7894   3.930   7.193   0.767 -0.2369  0.7700 -0.3708
   19CHTO   H71 7895   3.966   7.222   0.685 -1.6845  0.8973 -0.9723
   19CHTO   O28 7896   3.903   7.633   0.607 -1.0059 -0.7447  0.2184
   19CHTO   C42 7897   4.013   7.726   0.613 -0.1543 -0.7692  0.2165
   19CHTO   H84 7898   4.028   7.760   0.715  0.9883  1.5800 -0.6933
   19CHTO   C44 7899   3.992   7.858   0.533 -0.9811  0.4373 -0.1519
   19CHTO   H86 7900   3.992   7.844   0.424  1.0480  0.0447 -0.1337
   19CHTO   O32 7901   3.877   7.916   0.588 -0.1954 -0.4689  0.4171
   19CHTO   H69 7902   3.895   7.954   0.672  1.4260 -0.9114  0.2776
   19CHTO   C48 7903   4.124   7.949   0.551 -0.5104 -0.4657  0.5771
   19CHTO   H90 7904   4.126   7.979   0.655 -2.9323  0.8083  0.2908
   19CHTO    N9 7905   4.104   8.075   0.467  0.4448  0.2309 -0.0160
   19CHTO   H77 7906   4.200   8.122   0.455  0.2678  0.7087  0.4278
   19CHTO   H78 7907   4.029   8.142   0.509  1.9773  1.9173  0.0900
   19CHTO   C51 7908   4.247   7.875   0.500 -0.2818  0.3559 -0.5186
   19CHTO   H93 7909   4.222   7.855   0.396 -1.7744  1.4322 -0.3709
   19CHTO   O30 7910   4.266   7.751   0.578  0.6137 -0.4990  0.0086
   19CHTO   C46 7911   4.147   7.652   0.563 -0.8668  0.7851  0.4582
   19CHTO   H88 7912   4.139   7.626   0.458  2.9392  0.2662  0.2399
   19CHTO   C53 7913   4.188   7.525   0.652  0.1551 -0.3328  0.2658
   19CHTO   O72 7914   4.315   7.473   0.611  0.5432 -0.2360 -0.3982
   19CHTO  H199 7915   4.353   7.411   0.671  1.7041  1.0686  0.2473
   19CHTO   O22 7916   4.376   7.945   0.512  0.4987  0.3184  0.0660
   19CHTO   C31 7917   4.491   7.899   0.427 -0.1654  0.3484 -0.4607
   19CHTO   H59 7918   4.469   7.795   0.393  0.3241 -0.2732  1.0761
   19CHTO   C29 7919   4.518   7.990   0.302 -0.2643 -0.2720 -0.0653
   19CHTO   H57 7920   4.546   8.087   0.346  0.1453 -0.3556 -0.1432
   19CHTO   O21 7921   4.395   8.009   0.234  0.1637 -0.1366 -0.0290
   19CHTO   H37 7922   4.370   8.099   0.240 -1.3571 -0.5824  0.5204
   19CHTO   C27 7923   4.630   7.940   0.212 -0.0292 -0.6566 -0.3098
   19CHTO   H55 7924   4.600   7.846   0.165  1.0923 -1.2233  0.0782
   19CHTO    N5 7925   4.671   8.032   0.104  0.4194 -0.6811 -0.7468
   19CHTO   H43 7926   4.694   8.133   0.133  0.1077 -0.1365 -2.3171
   19CHTO   H44 7927   4.599   8.016   0.025 -0.8916  2.7155 -0.3274
   19CHTO   C25 7928   4.752   7.900   0.305  0.3609 -0.9596  0.2740
   19CHTO   H53 7929   4.806   7.992   0.331  0.0202 -0.2760 -1.3879
   19CHTO   O17 7930   4.726   7.826   0.429  0.7505  0.4541  0.2372
   19CHTO   C32 7931   4.623   7.886   0.513 -0.1796 -0.3695 -0.1212
   19CHTO   H60 7932   4.656   7.988   0.533 -1.2347 -0.6150  3.2520
   19CHTO   C36 7933   4.597   7.809   0.644  0.5026 -0.1374  0.5019
   19CHTO   O25 7934   4.576   7.674   0.616  0.7445  0.3614  0.3097
   19CHTO   H40 7935   4.599   7.633   0.697 -0.7613 -0.7711  0.1897
   19CHTO   O15 7936   4.849   7.818   0.225 -0.2087 -0.5214 -0.6543
   19CHTO   C19 7937   4.955   7.735   0.168  0.1544 -0.0800  0.0019
   19CHTO   H47 7938   4.930   7.723   0.061 -0.0091 -1.1219  0.1592
   19CHTO   C20 7939   5.096   7.790   0.176 -0.2518 -0.3682 -0.3432
   19CHTO   H48 7940   5.131   7.802   0.280  0.2039  2.4449 -0.7783
   19CHTO   O19 7941   5.100   7.922   0.125 -0.0343  1.0135  1.1121
   19CHTO   H35 7942   5.057   7.996   0.164  1.9380  2.0441  1.3932
   19CHTO   C21 7943   5.202   7.697   0.088 -0.4157  0.9442 -0.1086
   19CHTO   H49 7944   5.174   7.712  -0.016  1.7786  3.6060 -0.3640
   19CHTO    N4 7945   5.343   7.736   0.087 -0.3490  0.0160  0.4559
   19CHTO   H41 7946   5.339   7.841   0.060 -0.8340 -0.5819 -1.9354
   19CHTO   H42 7947   5.404   7.677   0.021  0.1689  0.2209  0.7487
   19CHTO   C22 7948   5.176   7.544   0.117  0.2725  0.0269  0.7914
   19CHTO   H50 7949   5.248   7.509   0.191  1.3564 -1.5629 -0.9819
   19CHTO   O14 7950   5.036   7.513   0.143 -0.5766 -0.2244 -0.0984
   19CHTO   C23 7951   4.966   7.598   0.232  0.1122 -0.4250  0.0441
   19CHTO   H51 7952   5.017   7.599   0.330  0.4433  3.0456 -0.1086
   19CHTO   C34 7953   4.827   7.536   0.264 -0.5745 -0.1352  0.3601
   19CHTO   O23 7954   4.819   7.404   0.316  0.5326  0.0772  0.5096
   19CHTO   H38 7955   4.861   7.344   0.257 -4.5154 -3.0301 -0.1758
   19CHTO   O16 7956   5.183   7.468  -0.011 -0.7070  0.1881  0.2283
   19CHTO   C24 7957   5.278   7.338  -0.007 -0.1784 -0.2570  1.1394
   19CHTO   H52 7958   5.372   7.358   0.045  0.1810  2.0131 -0.3228
   19CHTO   C26 7959   5.308   7.318  -0.157  0.7206  0.5641  0.2692
   19CHTO   H54 7960   5.212   7.338  -0.210  0.7696  0.9900  0.3381
   19CHTO   O20 7961   5.395   7.414  -0.207  0.1586 -0.2921 -0.0288
   19CHTO   H36 7962   5.361   7.500  -0.196 -0.8970 -0.6845 -0.1163
   19CHTO   C30 7963   5.359   7.171  -0.187 -0.6716  0.6035 -0.5632
   19CHTO   H58 7964   5.463   7.152  -0.157 -0.7513  0.3668 -0.4332
   19CHTO    N6 7965   5.356   7.144  -0.331 -0.0010 -0.4178  0.1725
   19CHTO   H45 7966   5.399   7.052  -0.368  2.4472  0.6657  0.2009
   19CHTO   H46 7967   5.396   7.226  -0.389  0.4701 -0.4332  0.4698
   19CHTO   C33 7968   5.267   7.072  -0.114 -0.3703  1.1609 -0.3744
   19CHTO   H61 7969   5.162   7.074  -0.146 -0.3445 -2.3773 -0.8264
   19CHTO   O18 7970   5.274   7.105   0.026 -0.4114 -0.1414  0.4058
   19CHTO   C28 7971   5.208   7.224   0.064 -0.0051  0.4952 -0.0187
   19CHTO   H56 7972   5.103   7.218   0.037 -0.3868 -0.7754  1.7070
   19CHTO   C35 7973   5.206   7.222   0.220  0.0764  0.5644  0.0962
   19CHTO   O24 7974   5.153   7.114   0.288 -0.6400 -0.3840 -0.3586
   19CHTO   H39 7975   5.130   7.123   0.378 -1.4126 -0.3166 -0.5587
   19CHTO    O9 7976   5.298   6.932  -0.138 -0.6746 -1.1180  0.1383
   19CHTO   C13 7977   5.161   6.838  -0.156  0.3088  0.3691  0.1027
   19CHTO   H26 7978   5.099   6.880  -0.237 -0.5325  2.6017  1.8481
   19CHTO   C11 7979   5.083   6.838  -0.021  0.3494 -0.5859 -0.0540
   19CHTO   H24 7980   5.032   6.935  -0.024 -2.3297 -2.0048 -1.5793
   19CHTO    O8 7981   5.173   6.819   0.085  0.6237  0.1092 -0.5701
   19CHTO    H3 7982   5.232   6.892   0.091 -0.4603  1.2512 -3.2127
   19CHTO    C9 7983   4.975   6.726  -0.015 -1.0102  0.2280  0.3423
   19CHTO   H22 7984   4.906   6.742  -0.099 -0.5420  1.7022  0.2222
   19CHTO    N2 7985   4.885   6.744   0.099 -0.3617  0.9195  0.0484
   19CHTO   H10 7986   4.830   6.652   0.103 -0.5243  0.9611 -1.1165
   19CHTO   H11 7987   4.952   6.752   0.183  0.5972 -3.5377 -0.2116
   19CHTO    C7 7988   5.046   6.582  -0.044 -0.3862  0.3097 -0.0749
   19CHTO   H20 7989   4.982   6.544  -0.126 -0.3344 -2.3369  1.0742
   19CHTO    O4 7990   5.186   6.596  -0.080  0.0240  0.7790  0.4212
   19CHTO   C14 7991   5.200   6.684  -0.193 -0.1150  0.3153  0.1583
   19CHTO   H27 7992   5.134   6.633  -0.267 -0.0708 -0.9643  0.9880
   19CHTO   C18 7993   5.348   6.662  -0.239  0.8548 -0.0597 -0.0456
   19CHTO   O13 7994   5.358   6.615  -0.377 -0.2523 -0.2040  0.2108
   19CHTO    H7 7995   5.445   6.590  -0.400  0.0896  0.1183  1.1645
   19CHTO    O2 7996   5.034   6.494   0.065  0.0732 -0.1582 -0.2479
   19CHTO    C1 7997   5.045   6.352   0.043  0.0504  0.1008  0.6383
   19CHTO   H14 7998   5.130   6.335  -0.025  0.7285 -1.2457  1.8029
   19CHTO    C2 7999   4.924   6.276  -0.013  0.3852 -0.1840  0.9728
   19CHTO   H15 8000   4.837   6.314   0.042 -0.2373 -2.1903  1.4123
   19CHTO    O6 8001   4.898   6.315  -0.154  0.1124 -1.0010  0.2808
   19CHTO    H1 8002   4.819   6.280  -0.191  0.5430 -0.7811 -0.8714
   19CHTO    C3 8003   4.937   6.114  -0.001  0.2374 -0.4108 -0.4078
   19CHTO   H16 8004   5.008   6.062  -0.066 -0.8166 -1.9803 -0.3309
   19CHTO    N1 8005   4.805   6.055  -0.034  0.8009 -0.2231  1.1589
   19CHTO    H8 8006   4.738   6.128  -0.078  0.9192 -1.0218 -0.4141
   19CHTO    H9 8007   4.761   5.995   0.044 -0.4132 -1.9489 -0.8025
   19CHTO    C4 8008   4.985   6.080   0.142  0.4151  0.3912 -0.1426
   19CHTO   H17 8009   4.903   6.102   0.211  1.0801 -1.9994  1.4917
   19CHTO    O1 8010   5.103   6.156   0.177  0.5848 -0.5997 -0.4502
   19CHTO    C5 8011   5.086   6.298   0.186 -0.1267  1.2101 -0.5626
   19CHTO   H18 8012   5.006   6.327   0.253 -1.7674  0.8211 -2.2974
   19CHTO   C16 8013   5.218   6.356   0.249 -0.4363  0.0500  0.0050
   19CHTO   O11 8014   5.208   6.493   0.278 -0.2392  0.1967 -0.2334
   19CHTO    H5 8015   5.137   6.504   0.338 -1.1534 -2.3885 -0.7539
   19CHTO    O3 8016   5.020   5.938   0.155  0.0988 -0.3683  0.2826
   19CHTO    C6 8017   5.054   5.892   0.291 -0.0173  0.5521  0.4370
   19CHTO   H19 8018   5.067   5.972   0.363 -4.6398  1.8179 -0.0011
   19CHTO    C8 8019   4.935   5.806   0.337 -0.3169  0.1931  0.2959
   19CHTO   H21 8020   4.929   5.718   0.273 -0.9042  0.7617 -0.4376
   19CHTO    O7 8021   4.808   5.878   0.330 -0.2749 -0.3985 -0.5227
   19CHTO    H2 8022   4.784   5.925   0.408 -1.0356  2.0593 -2.1702
   19CHTO   C12 8023   4.977   5.752   0.483  0.5669 -0.3721  0.3100
   19CHTO   H25 8024   4.988   5.839   0.550  0.5311  1.1441 -1.6241
   19CHTO    N3 8025   4.866   5.663   0.549 -0.4958 -0.1265  0.3689
   19CHTO   H12 8026   4.822   5.587   0.486 -2.3414 -0.7486  2.3694
   19CHTO   H13 8027   4.792   5.729   0.592  0.2897  2.7810 -2.5187
   19CHTO   C15 8028   5.110   5.674   0.474  1.1094  1.0987  0.0354
   19CHTO   H28 8029   5.109   5.574   0.431  1.5290  1.3630 -0.5840
   19CHTO   O10 8030   5.180   5.656   0.613 -0.4987 -0.1954  0.4165
   19CHTO    H4 8031   5.239   5.584   0.604 -1.7825 -1.0901 -1.1964
   19CHTO    O5 8032   5.209   5.754   0.415  0.5761  0.6191 -0.6296
   19CHTO   C10 8033   5.191   5.810   0.284  0.3422 -0.1287  0.0460
   19CHTO   H23 8034   5.190   5.732   0.209 -1.7471 -0.6542  0.5752
   19CHTO   C17 8035   5.312   5.901   0.268  0.4794 -0.5031 -0.4466
   19CHTO   O12 8036   5.308   5.972   0.140  0.1824 -0.2947 -0.2940
   19CHTO    H6 8037   5.237   6.032   0.137 -0.9680 -1.4820  1.8249
   20CHTO  H203 8038   4.749   1.501   1.951  1.2397  1.9746 -0.3545
   20CHTO   O82 8039   4.766   1.452   1.873 -0.6778 -0.3018  0.6022
   20CHTO  C123 8040   4.806   1.553   1.780  0.1126  0.2601 -0.5182
   20CHTO  H227 8041   4.737   1.638   1.784 -0.0680  0.0986 -0.2275
   20CHTO   O77 8042   4.933   1.594   1.826 -0.0863  0.1413  1.0321
   20CHTO  C118 8043   4.981   1.710   1.755  0.5323  0.1733  0.1421
   20CHTO  H222 8044   4.910   1.793   1.767 -0.2392 -0.5238  0.4430
   20CHTO  C125 8045   5.121   1.751   1.820  0.1367 -0.1801  0.5228
   20CHTO   O84 8046   5.111   1.807   1.954 -0.4629 -0.3047 -0.0683
   20CHTO  H205 8047   5.119   1.734   2.012  0.4840 -0.2272 -0.1043
   20CHTO  C114 8048   5.005   1.670   1.606 -0.6617  0.3144 -0.7045
   20CHTO  H218 8049   5.095   1.608   1.602  0.9839  2.5481  0.2198
   20CHTO  C116 8050   4.877   1.608   1.544  0.5505 -0.3287  0.4228
   20CHTO  H220 8051   4.809   1.695   1.540  1.1366  0.0896 -0.3292
   20CHTO   O79 8052   4.910   1.563   1.412  0.5985 -0.4975  0.1831
   20CHTO  H201 8053   4.835   1.521   1.376  0.9936  0.0032 -1.2288
   20CHTO  C120 8054   4.820   1.491   1.633 -0.0905 -0.4166 -0.5192
   20CHTO  H224 8055   4.887   1.404   1.621  0.2710 -0.2077 -0.0548
   20CHTO   N21 8056   4.694   1.442   1.576 -0.1905  0.1041 -0.3765
   20CHTO  H211 8057   4.605   1.483   1.623 -1.0083  0.6356 -2.3563
   20CHTO  H212 8058   4.701   1.334   1.577  0.3215  0.1294 -0.9522
   20CHTO   O75 8059   5.037   1.798   1.551 -0.4311  0.4910 -0.1311
   20CHTO  C112 8060   5.162   1.802   1.452  0.1999 -0.2068  0.0926
   20CHTO  H216 8061   5.150   1.720   1.380 -1.7328 -0.0704  0.2396
   20CHTO   O73 8062   5.285   1.787   1.531  0.0232  0.2158  0.0333
   20CHTO  C113 8063   5.407   1.790   1.453 -0.4252 -0.3354 -0.5835
   20CHTO  H217 8064   5.398   1.705   1.382  1.1856 -0.4861 -0.6190
   20CHTO  C124 8065   5.516   1.764   1.555  0.3565 -0.2355 -0.7971
   20CHTO   O83 8066   5.622   1.677   1.507  0.0983 -0.5541  0.0112
   20CHTO  H204 8067   5.591   1.597   1.471 -1.9721  0.9270 -1.6437
   20CHTO  C109 8068   5.431   1.920   1.383  0.2197  0.1875  0.7325
   20CHTO  H213 8069   5.448   1.994   1.462 -1.2906  1.8663 -0.4788
   20CHTO  C110 8070   5.303   1.960   1.303  0.8705  0.1266 -0.2158
   20CHTO  H214 8071   5.317   1.887   1.224  3.4614  0.1531  0.1855
   20CHTO   O78 8072   5.315   2.099   1.258  0.1939  0.2174 -0.4379
   20CHTO  H200 8073   5.233   2.132   1.226 -0.3305 -0.4347  0.2132
   20CHTO  C111 8074   5.160   1.937   1.373  0.0377  0.3234  0.2075
   20CHTO  H215 8075   5.152   2.020   1.445 -0.7368 -1.1600  1.8935
   20CHTO   N19 8076   5.045   1.947   1.282 -0.0693  0.4157 -0.7434
   20CHTO  H207 8077   5.001   1.850   1.262 -0.4544  0.1819  1.1514
   20CHTO  H208 8078   4.972   2.015   1.323 -1.0793 -1.1892  0.1884
   20CHTO   O74 8079   5.550   1.910   1.300 -0.1883  0.1396  0.1018
   20CHTO  C115 8080   5.634   2.033   1.300 -0.5342 -0.1792 -0.2068
   20CHTO  H219 8081   5.596   2.110   1.368  2.0177  0.0285  1.0218
   20CHTO   O76 8082   5.771   2.004   1.353  0.1184 -0.3270 -0.2471
   20CHTO  C122 8083   5.845   1.897   1.297 -0.1065  0.0052 -0.2822
   20CHTO  H226 8084   5.818   1.807   1.352 -0.8333  1.1052  1.1978
   20CHTO  C126 8085   5.996   1.923   1.336  0.3015  0.3594  0.2142
   20CHTO   O85 8086   6.052   2.034   1.261  0.3960  0.0775 -0.4732
   20CHTO  H206 8087   6.144   2.023   1.275 -0.0010  0.5913  2.9045
   20CHTO  C121 8088   5.820   1.883   1.139  0.4029  0.6212 -0.2335
   20CHTO  H225 8089   5.919   1.866   1.091 -0.5387  1.5418 -2.5585
   20CHTO   O81 8090   5.732   1.777   1.121 -0.2693 -0.5958  0.0181
   20CHTO  H202 8091   5.724   1.753   1.031  1.8285 -2.5932  0.3212
   20CHTO  C119 8092   5.767   2.018   1.085  0.3433  0.0231  0.1076
   20CHTO  H223 8093   5.851   2.086   1.096 -1.9849  2.7617  1.5066
   20CHTO  C117 8094   5.648   2.091   1.157  0.2699 -0.0316 -0.2872
   20CHTO  H221 8095   5.553   2.065   1.109  0.7855  1.7760 -2.3902
   20CHTO   N20 8096   5.646   2.238   1.161  0.2198 -0.2782 -0.2762
   20CHTO  H209 8097   5.563   2.271   1.221  0.4884 -2.7002  1.5529
   20CHTO  H210 8098   5.747   2.269   1.183  0.1534 -0.2517 -0.0100
   20CHTO   O80 8099   5.740   2.023   0.927  0.2877  0.6260 -0.0814
   20CHTO  C103 8100   5.856   2.037   0.830 -0.3442  0.1188 -0.2687
   20CHTO  H190 8101   5.950   2.007   0.876 -1.3169 -1.0163  0.9985
   20CHTO  C101 8102   5.822   1.944   0.704  0.1391 -0.4111  0.1727
   20CHTO  H188 8103   5.715   1.943   0.684  0.5407 -0.7839 -1.9907
   20CHTO   O68 8104   5.866   1.796   0.751  0.2896  0.3329 -0.1133
   20CHTO  H168 8105   5.848   1.729   0.688  1.7584  0.9829 -1.2424
   20CHTO   C99 8106   5.893   1.984   0.574  0.5915 -0.5238 -0.6058
   20CHTO  H186 8107   6.000   1.971   0.601 -0.1330 -0.6924  2.3891
   20CHTO   N17 8108   5.861   1.897   0.456  0.6454 -0.6160  0.0162
   20CHTO  H174 8109   5.770   1.840   0.463  0.6027 -0.9495 -2.5681
   20CHTO  H175 8110   5.867   1.958   0.367 -0.5875 -1.4072 -0.6236
   20CHTO   C97 8111   5.872   2.137   0.545  0.1300  0.7417 -0.3797
   20CHTO  H184 8112   5.763   2.153   0.544 -0.0342 -0.2116  0.4308
   20CHTO   O64 8113   5.933   2.209   0.654  0.2765 -0.1766  0.8838
   20CHTO  C104 8114   5.869   2.184   0.782 -0.0856 -0.6504 -0.0412
   20CHTO  H191 8115   5.766   2.219   0.773 -0.6191 -2.3306 -0.7162
   20CHTO  C108 8116   5.934   2.283   0.881  0.8706  0.0748  0.3253
   20CHTO   O71 8117   6.064   2.243   0.916 -0.7522 -0.6209 -0.0124
   20CHTO  H171 8118   6.060   2.194   0.996 -2.0739 -0.0301  0.2976
   20CHTO   O62 8119   5.938   2.177   0.426 -0.3224 -0.1149 -0.4961
   20CHTO   C91 8120   5.903   2.314   0.382 -0.0809  0.5618 -0.6096
   20CHTO  H178 8121   5.852   2.360   0.467  1.5113  0.9411  0.1478
   20CHTO   C92 8122   5.798   2.300   0.269  0.1213  0.4476  0.4586
   20CHTO  H179 8123   5.839   2.243   0.184 -3.0636  0.6291 -1.3025
   20CHTO   O66 8124   5.683   2.232   0.323  0.4014  0.3380 -0.3128
   20CHTO  H166 8125   5.701   2.171   0.391  0.7646  1.6752  0.8074
   20CHTO   C93 8126   5.758   2.443   0.227 -0.2751  0.4972  0.7467
   20CHTO  H180 8127   5.703   2.488   0.311  2.0959  1.5229  1.8059
   20CHTO   N16 8128   5.672   2.448   0.111  0.0762  0.1740  0.4821
   20CHTO  H172 8129   5.624   2.351   0.105 -0.9891  0.4365  3.7920
   20CHTO  H173 8130   5.593   2.520   0.127 -0.4593 -0.1306 -0.6850
   20CHTO   C94 8131   5.889   2.533   0.202 -0.2440 -0.1578 -0.1689
   20CHTO  H181 8132   5.944   2.500   0.113 -0.5160  0.3429 -0.5217
   20CHTO   O61 8133   5.982   2.522   0.311 -0.0930  0.4660 -0.3796
   20CHTO   C95 8134   6.032   2.397   0.346 -0.4904  0.3716  0.2574
   20CHTO  H182 8135   6.078   2.349   0.259 -1.6481  0.0449 -0.1762
   20CHTO  C106 8136   6.135   2.402   0.468  0.2245 -0.6005  0.3096
   20CHTO   O69 8137   6.239   2.506   0.444 -0.3751  0.0152 -0.1392
   20CHTO  H169 8138   6.325   2.469   0.449 -0.7859 -0.8969  0.3144
   20CHTO   O63 8139   5.846   2.691   0.189  0.5696  0.3123  0.6817
   20CHTO   C96 8140   5.891   2.745   0.034  0.7405  0.4921 -0.1901
   20CHTO  H183 8141   5.861   2.669  -0.038  2.2745 -0.7992  0.5037
   20CHTO   C98 8142   6.044   2.773   0.013 -0.5238 -0.6309 -0.6366
   20CHTO  H185 8143   6.074   2.836   0.098 -2.6822  1.6166 -1.4690
   20CHTO   O67 8144   6.114   2.648   0.033  0.2385 -0.2704 -0.2633
   20CHTO  H167 8145   6.112   2.608   0.119  1.0739  0.0015 -0.1150
   20CHTO  C102 8146   6.064   2.836  -0.130 -0.8785 -0.1809  0.1903
   20CHTO  H189 8147   6.015   2.762  -0.195  1.2767 -3.2670  1.9444
   20CHTO   N18 8148   6.205   2.846  -0.175  0.6225  0.6383 -0.2153
   20CHTO  H176 8149   6.211   2.875  -0.279  0.9505  0.1883 -0.3198
   20CHTO  H177 8150   6.253   2.751  -0.156 -2.0413 -0.7934 -0.4284
   20CHTO  C105 8151   5.980   2.966  -0.150 -0.3424 -0.2869  0.7571
   20CHTO  H192 8152   6.015   3.037  -0.075  0.9892 -0.1709  0.0451
   20CHTO   O65 8153   5.844   2.935  -0.122  0.2143  0.1756 -0.1436
   20CHTO  C100 8154   5.815   2.878   0.003 -0.4948  0.0546 -0.4890
   20CHTO  H187 8155   5.845   2.954   0.076 -0.2043  0.6730 -1.2467
   20CHTO  C107 8156   5.660   2.854   0.013  0.9828  0.4360 -0.1826
   20CHTO   O70 8157   5.604   2.981   0.030 -0.6444  0.0071  0.1978
   20CHTO  H170 8158   5.515   2.968   0.056 -0.5990  0.5861  0.6405
   20CHTO   O57 8159   5.982   3.028  -0.290 -0.0854 -0.1036 -0.2975
   20CHTO   C85 8160   5.976   3.172  -0.296 -0.9636 -0.0782 -0.5322
   20CHTO  H157 8161   6.026   3.210  -0.204  0.4362  1.0348 -1.7259
   20CHTO   C83 8162   5.826   3.223  -0.283  0.2474  0.9274 -0.1497
   20CHTO  H155 8163   5.792   3.195  -0.184  0.3821 -1.3942 -0.7434
   20CHTO   O56 8164   5.745   3.168  -0.392  0.0413 -0.3487  0.3570
   20CHTO  H135 8165   5.694   3.092  -0.371 -2.1611  0.4662 -1.7765
   20CHTO   C81 8166   5.833   3.380  -0.297 -0.5894  0.2706  0.4384
   20CHTO  H153 8167   5.898   3.416  -0.217  0.7779 -0.8683 -0.1195
   20CHTO   N14 8168   5.696   3.445  -0.268 -0.1622 -0.8582 -0.3588
   20CHTO  H141 8169   5.612   3.380  -0.284 -0.2707 -0.5292 -1.1853
   20CHTO  H142 8170   5.686   3.528  -0.335  0.5613  1.6758  2.5698
   20CHTO   C79 8171   5.894   3.423  -0.438  0.5970  0.0430  0.0400
   20CHTO  H151 8172   5.901   3.531  -0.444  2.8235 -0.1676 -1.9177
   20CHTO   O52 8173   6.032   3.376  -0.443  0.0626  0.4420  0.1581
   20CHTO   C86 8174   6.053   3.232  -0.426  0.2894 -0.3051 -0.2792
   20CHTO  H158 8175   6.006   3.188  -0.517  3.1699 -1.9440 -1.0218
   20CHTO   C90 8176   6.201   3.189  -0.423  0.3620 -0.1725 -0.0031
   20CHTO   O60 8177   6.212   3.053  -0.459  0.0029  0.1072  0.1319
   20CHTO  H138 8178   6.201   2.996  -0.385  2.0197 -1.1340 -0.4695
   20CHTO   O50 8179   5.826   3.379  -0.550  0.2436 -0.0110  0.0603
   20CHTO   C73 8180   5.867   3.395  -0.683 -0.3326  0.5246 -0.4448
   20CHTO  H145 8181   5.957   3.336  -0.704 -1.5760 -0.8973 -1.9785
   20CHTO   C74 8182   5.898   3.546  -0.725 -0.2914 -0.1540  0.2653
   20CHTO  H146 8183   5.979   3.586  -0.661 -1.0963 -1.4543  2.1496
   20CHTO   O54 8184   5.950   3.545  -0.859 -0.6983 -0.4944  0.4348
   20CHTO  H133 8185   6.039   3.517  -0.865 -0.8531 -2.2266  4.4567
   20CHTO   C75 8186   5.768   3.628  -0.706  0.5450  0.6827 -0.5594
   20CHTO  H147 8187   5.734   3.623  -0.602  1.4266 -1.0607 -0.3345
   20CHTO   N13 8188   5.791   3.777  -0.733 -0.6738  0.1885  0.6262
   20CHTO  H139 8189   5.839   3.826  -0.649  0.4263  0.5093 -0.1717
   20CHTO  H140 8190   5.693   3.820  -0.742 -1.2527 -1.8208 -3.7055
   20CHTO   C76 8191   5.656   3.565  -0.797 -0.1668  0.5714  0.3780
   20CHTO  H148 8192   5.683   3.570  -0.902  0.0569 -1.5570  0.3045
   20CHTO   O49 8193   5.635   3.423  -0.762  0.1781  1.0099 -0.3224
   20CHTO   C77 8194   5.752   3.343  -0.778  0.2904 -0.6513  0.2216
   20CHTO  H149 8195   5.779   3.356  -0.883  1.9256 -2.0225  0.4453
   20CHTO   C88 8196   5.720   3.193  -0.754  0.3039  1.1144  0.2965
   20CHTO   O58 8197   5.621   3.177  -0.656 -0.3108  0.0656  0.1862
   20CHTO  H136 8198   5.598   3.086  -0.662 -0.5663  0.1271  0.2338
   20CHTO   O51 8199   5.503   3.638  -0.776 -0.6422  0.5007  0.6754
   20CHTO   C78 8200   5.426   3.646  -0.633 -0.1372 -0.4532  0.5473
   20CHTO  H150 8201   5.495   3.629  -0.547  0.4955 -3.1232 -0.4328
   20CHTO   C80 8202   5.319   3.529  -0.626 -0.5022 -0.5326  0.6859
   20CHTO  H152 8203   5.263   3.539  -0.722 -1.5417  1.1904  1.4499
   20CHTO   O55 8204   5.377   3.400  -0.636 -0.5395  0.0260 -0.1048
   20CHTO  H134 8205   5.316   3.335  -0.606  1.9263 -1.3224  2.3495
   20CHTO   C84 8206   5.230   3.546  -0.497  0.6999  0.7920 -0.1521
   20CHTO  H156 8207   5.298   3.531  -0.413  0.6402 -1.2011 -0.4414
   20CHTO   N15 8208   5.118   3.448  -0.490 -0.0986  0.5816  0.0227
   20CHTO  H143 8209   5.022   3.489  -0.515 -0.5802 -0.1400  0.6488
   20CHTO  H144 8210   5.112   3.393  -0.398 -0.5370 -0.9792 -0.9238
   20CHTO   C87 8211   5.176   3.691  -0.487 -0.1796 -0.3252  0.6017
   20CHTO  H159 8212   5.096   3.702  -0.559  0.6746  1.7429 -0.0656
   20CHTO   O53 8213   5.290   3.806  -0.503  0.4524  0.5999 -0.1361
   20CHTO   C82 8214   5.362   3.785  -0.627 -0.0744 -0.3725 -0.1528
   20CHTO  H154 8215   5.290   3.800  -0.707 -2.6459 -1.3646  1.8817
   20CHTO   C89 8216   5.471   3.896  -0.638 -0.3156  1.3996  0.5633
   20CHTO   O59 8217   5.409   4.024  -0.635 -0.0525 -0.1637 -0.1572
   20CHTO  H137 8218   5.482   4.075  -0.608 -1.5926  0.7429  2.4458
   20CHTO   O45 8219   5.118   3.726  -0.344  0.1190 -0.5124 -0.1190
   20CHTO   C67 8220   5.192   3.691  -0.226 -0.2975  0.9147 -0.0817
   20CHTO  H124 8221   5.238   3.594  -0.247 -2.0946 -0.0283  0.1878
   20CHTO   C65 8222   5.299   3.796  -0.204 -0.1043 -0.3682 -0.1864
   20CHTO  H122 8223   5.293   3.878  -0.276  0.0370 -1.6035 -1.6225
   20CHTO   O44 8224   5.422   3.730  -0.234  0.2526  0.1848 -0.6407
   20CHTO  H102 8225   5.428   3.645  -0.196 -1.4869 -0.9843 -2.8038
   20CHTO   C63 8226   5.285   3.868  -0.064  0.0806 -0.3565 -0.5815
   20CHTO  H120 8227   5.200   3.937  -0.061  2.4873  2.6365  1.6366
   20CHTO   N11 8228   5.395   3.960  -0.026 -0.0064  0.4377  0.0007
   20CHTO  H108 8229   5.491   3.914  -0.022 -0.2555  0.0289  1.5571
   20CHTO  H109 8230   5.375   4.004   0.070 -1.9785 -0.3322 -0.0392
   20CHTO   C61 8231   5.267   3.758   0.047 -0.6286 -0.0319  0.2659
   20CHTO  H118 8232   5.246   3.810   0.142  2.5618  0.2832  0.8431
   20CHTO   O40 8233   5.166   3.667   0.029  0.1949 -0.1247 -0.6793
   20CHTO   C68 8234   5.094   3.672  -0.099  0.3856  0.5973 -0.0945
   20CHTO  H125 8235   5.028   3.762  -0.093 -0.5818 -0.2160  1.9787
   20CHTO   C72 8236   5.003   3.548  -0.113  0.2604 -0.5037  0.0949
   20CHTO   O48 8237   4.904   3.533  -0.002  0.0646 -0.1958 -0.5397
   20CHTO  H105 8238   4.819   3.547  -0.040  0.0132 -0.5337 -0.5443
   20CHTO   O38 8239   5.388   3.681   0.065  0.2301  0.0493 -0.0051
   20CHTO   C55 8240   5.402   3.624   0.195  0.0434 -0.6808 -0.7543
   20CHTO  H112 8241   5.303   3.593   0.232 -2.1792  1.4819 -4.6955
   20CHTO   C56 8242   5.481   3.718   0.296 -0.3697  0.3843 -0.0967
   20CHTO  H113 8243   5.586   3.731   0.265 -0.0842 -0.4632  0.4868
   20CHTO   O42 8244   5.408   3.841   0.310  0.2289  0.5082 -0.5436
   20CHTO  H100 8245   5.454   3.909   0.355  0.1956 -0.2548  0.6727
   20CHTO   C57 8246   5.494   3.649   0.433 -0.0945 -0.0519 -0.2953
   20CHTO  H114 8247   5.394   3.647   0.476 -1.0782  0.8118 -2.4892
   20CHTO   N10 8248   5.563   3.726   0.534 -0.7365  0.5105 -0.4527
   20CHTO  H106 8249   5.527   3.710   0.634 -0.4424  2.3301 -0.0568
   20CHTO  H107 8250   5.667   3.699   0.527 -0.7460 -0.1658  1.6752
   20CHTO   C58 8251   5.546   3.500   0.420 -0.2020 -0.3282 -0.4241
   20CHTO  H115 8252   5.657   3.499   0.416 -0.1038  0.9380  1.3998
   20CHTO   O37 8253   5.484   3.427   0.314 -0.4790  0.2150  0.9583
   20CHTO   C59 8254   5.484   3.496   0.187 -0.3674 -0.5190  0.0858
   20CHTO  H116 8255   5.587   3.518   0.159 -0.0692 -1.2270  0.6185
   20CHTO   C70 8256   5.413   3.397   0.091 -1.1381  0.1318 -0.2099
   20CHTO   O46 8257   5.493   3.278   0.066 -0.3927 -0.4082 -0.0704
   20CHTO  H103 8258   5.565   3.303   0.011  0.4995 -2.2647  0.2043
   20CHTO   O39 8259   5.509   3.420   0.557 -0.0087  0.2691 -0.0765
   20CHTO   C60 8260   5.564   3.288   0.568 -0.5060  0.3911  0.2800
   20CHTO  H117 8261   5.574   3.240   0.471  0.7309  0.2996  0.4455
   20CHTO   C62 8262   5.704   3.300   0.636  0.1154 -0.1574  0.2477
   20CHTO  H119 8263   5.771   3.356   0.567  1.1304 -1.1090  0.4346
   20CHTO   O43 8264   5.697   3.368   0.759 -0.3434  0.2232 -0.0133
   20CHTO  H101 8265   5.652   3.309   0.817  1.2393 -0.7640  0.2469
   20CHTO   C66 8266   5.766   3.146   0.645  0.4632 -0.5766 -0.1963
   20CHTO  H123 8267   5.772   3.104   0.545 -0.3873  0.1708 -0.5718
   20CHTO   N12 8268   5.908   3.142   0.696  0.4591  0.3241  0.1813
   20CHTO  H110 8269   5.900   3.160   0.802  2.1788  0.2168  0.3552
   20CHTO  H111 8270   5.963   3.222   0.648 -3.2379  2.0288 -1.3619
   20CHTO   C69 8271   5.673   3.047   0.722  0.0921 -0.0366 -0.2831
   20CHTO  H126 8272   5.672   3.083   0.827 -2.3047  2.7853 -1.2273
   20CHTO   O41 8273   5.523   3.065   0.654  0.2100  0.5930  0.0652
   20CHTO   C64 8274   5.471   3.196   0.647  0.2584 -0.4275  0.1777
   20CHTO  H121 8275   5.454   3.237   0.749  0.8587 -0.7329  0.4006
   20CHTO   C71 8276   5.334   3.189   0.571 -0.1533 -0.5836  0.4969
   20CHTO   O47 8277   5.241   3.115   0.637 -0.1169 -0.3129 -0.1308
   20CHTO  H104 8278   5.154   3.147   0.628  0.3978  1.5035  1.1875
   20CHTO   O34 8279   5.717   2.919   0.721  0.0966 -0.4453 -0.1233
   20CHTO   C49 8280   5.648   2.781   0.763  0.1180  0.2305  0.7361
   20CHTO   H91 8281   5.582   2.746   0.685 -0.9611  1.4496  1.0760
   20CHTO   C47 8282   5.559   2.797   0.892  0.4915  0.4294  0.1764
   20CHTO   H89 8283   5.456   2.828   0.864 -0.0972 -1.9305 -0.3681
   20CHTO   O33 8284   5.621   2.902   0.976 -0.3542 -0.2223 -0.1506
   20CHTO   H70 8285   5.604   2.985   0.937 -0.2996  0.7061  1.7838
   20CHTO   C45 8286   5.560   2.665   0.983 -0.8661  1.1082  0.0951
   20CHTO   H87 8287   5.647   2.664   1.050 -0.6157 -0.6819 -0.2283
   20CHTO    N8 8288   5.439   2.667   1.065  0.4023 -0.8689  0.5940
   20CHTO   H75 8289   5.354   2.644   1.002 -1.5092  3.3413  1.4573
   20CHTO   H76 8290   5.435   2.611   1.157 -1.7759 -3.1883 -0.8477
   20CHTO   C43 8291   5.577   2.531   0.888 -0.7845 -0.4311 -0.7932
   20CHTO   H85 8292   5.576   2.445   0.956  2.5864  0.0923  0.0240
   20CHTO   O29 8293   5.705   2.540   0.818 -0.1080 -0.2351 -0.4817
   20CHTO   C50 8294   5.753   2.674   0.786 -0.2150 -0.5270  0.2305
   20CHTO   H92 8295   5.829   2.714   0.854  0.6011  2.3821 -2.3287
   20CHTO   C54 8296   5.831   2.672   0.656 -0.0785 -0.6810 -0.1253
   20CHTO   O36 8297   5.948   2.600   0.673 -0.6022 -0.5268  0.3853
   20CHTO   H72 8298   6.001   2.640   0.740  0.2760 -1.6149  0.3593
   20CHTO   O27 8299   5.469   2.527   0.793  0.0300  0.3500  0.4095
   20CHTO   C37 8300   5.385   2.471   0.691  0.1784  0.4364 -0.1425
   20CHTO   H79 8301   5.281   2.457   0.724 -0.1752 -1.5963 -2.0497
   20CHTO   C38 8302   5.378   2.577   0.576  0.4302 -0.0963  0.0283
   20CHTO   H80 8303   5.479   2.604   0.541  0.4237 -1.3853 -1.0492
   20CHTO   O31 8304   5.308   2.691   0.616  0.5394  0.5660 -0.2294
   20CHTO   H68 8305   5.327   2.709   0.706 -1.3070 -3.7330  1.1697
   20CHTO   C39 8306   5.310   2.505   0.441 -0.5112 -0.8114 -0.6343
   20CHTO   H81 8307   5.202   2.499   0.454 -0.5241 -1.4071 -0.9671
   20CHTO    N7 8308   5.324   2.584   0.314 -0.1588 -0.2862  0.1334
   20CHTO   H73 8309   5.297   2.521   0.230  0.9311  0.1105 -0.5268
   20CHTO   H74 8310   5.270   2.677   0.315  1.8404  0.9062 -0.4845
   20CHTO   C40 8311   5.357   2.356   0.424 -0.3044  0.0175  0.3718
   20CHTO   H82 8312   5.459   2.352   0.387 -0.1341  0.3564  0.7956
   20CHTO   O26 8313   5.346   2.279   0.548  0.2903  0.6907 -0.3673
   20CHTO   C41 8314   5.440   2.330   0.647  0.1072  0.0990 -0.9397
   20CHTO   H83 8315   5.541   2.328   0.605 -0.0045  1.5551 -1.2914
   20CHTO   C52 8316   5.458   2.228   0.765 -0.0472  0.9756 -0.2714
   20CHTO   O35 8317   5.458   2.079   0.722 -0.1509  0.4583  0.4535
   20CHTO   H71 8318   5.418   2.069   0.638 -1.1543 -1.6754  1.1650
   20CHTO   O28 8319   5.271   2.285   0.337 -0.1829  0.2467 -0.6014
   20CHTO   C42 8320   5.304   2.158   0.270 -0.6926 -0.3610 -0.1900
   20CHTO   H84 8321   5.206   2.124   0.236 -0.8000  0.8108 -1.0905
   20CHTO   C44 8322   5.353   2.043   0.363  0.2023  0.9744 -0.2117
   20CHTO   H86 8323   5.449   2.071   0.406  1.8354 -1.0306 -2.4400
   20CHTO   O32 8324   5.254   2.049   0.466  0.1222  0.7513  0.1024
   20CHTO   H69 8325   5.257   2.127   0.518  1.1757  0.8253 -0.0590
   20CHTO   C48 8326   5.370   1.905   0.285  0.1152  0.6443 -0.3066
   20CHTO   H90 8327   5.271   1.886   0.244  0.6327 -1.1477 -0.7512
   20CHTO    N9 8328   5.407   1.792   0.378  0.3431 -0.0022 -0.2404
   20CHTO   H77 8329   5.491   1.820   0.438  1.7056 -2.6657 -0.8059
   20CHTO   H78 8330   5.422   1.693   0.337 -1.2202 -1.9541  3.6357
   20CHTO   C51 8331   5.475   1.932   0.175  0.0526 -0.5909 -0.1244
   20CHTO   H93 8332   5.564   1.972   0.226  0.2294 -3.3050  1.8174
   20CHTO   O30 8333   5.421   2.029   0.085 -0.1145  0.0936 -0.2567
   20CHTO   C46 8334   5.392   2.173   0.146  0.4333 -0.1141 -0.0319
   20CHTO   H88 8335   5.484   2.220   0.179  0.7436 -0.9778  0.3706
   20CHTO   C53 8336   5.321   2.259   0.042  0.0706  0.2957 -0.2339
   20CHTO   O72 8337   5.393   2.264  -0.075 -0.3674 -0.0122 -0.2740
   20CHTO  H199 8338   5.385   2.181  -0.118  0.7023 -1.0010  1.3850
   20CHTO   O22 8339   5.500   1.825   0.088 -0.5134  0.6897  0.6752
   20CHTO   C31 8340   5.642   1.822   0.030  0.5002  0.4645  0.4101
   20CHTO   H59 8341   5.632   1.822  -0.081  2.2364 -1.2384  0.2164
   20CHTO   C29 8342   5.748   1.934   0.064  0.5481 -0.3612  0.2309
   20CHTO   H57 8343   5.769   1.932   0.172  2.8280 -0.0852 -0.1679
   20CHTO   O21 8344   5.690   2.060   0.030 -0.4073 -0.0456 -0.4003
   20CHTO   H37 8345   5.624   2.084   0.093  0.4016  1.7721 -0.2134
   20CHTO   C27 8346   5.893   1.920  -0.008 -0.2214 -0.2602  0.4907
   20CHTO   H55 8347   5.874   1.929  -0.116 -2.1223 -3.9185  0.4287
   20CHTO    N5 8348   5.992   2.020   0.035  0.4981  0.1178  0.5090
   20CHTO   H43 8349   5.987   2.106  -0.030  0.7010 -0.0506  0.2675
   20CHTO   H44 8350   5.963   2.068   0.127 -1.8868 -2.0351  0.9081
   20CHTO   C25 8351   5.940   1.770   0.019 -0.2434 -0.1959  0.3935
   20CHTO   H53 8352   5.983   1.755   0.119 -1.1276 -0.5623  0.7221
   20CHTO   O17 8353   5.843   1.670  -0.005  0.5552  0.4019 -0.4919
   20CHTO   C32 8354   5.720   1.686   0.064 -0.2235  0.1108  0.2282
   20CHTO   H60 8355   5.724   1.671   0.172 -1.9456  0.1378  0.3173
   20CHTO   C36 8356   5.620   1.567   0.030 -0.2696  0.2363  0.2600
   20CHTO   O25 8357   5.505   1.551   0.107  0.2308  0.4760 -0.3590
   20CHTO   H40 8358   5.448   1.487   0.069  0.5483 -0.3441  0.5248
   20CHTO   O15 8359   6.045   1.729  -0.094 -0.2684  0.4096 -0.0579
   20CHTO   C19 8360   6.173   1.685  -0.146  0.0030 -0.8184 -0.1369
   20CHTO   H47 8361   6.151   1.647  -0.247 -0.4928 -1.6671  0.2926
   20CHTO   C20 8362   6.271   1.805  -0.160  0.6827  0.6241  0.5296
   20CHTO   H48 8363   6.303   1.846  -0.063  0.0249 -0.2216  1.0995
   20CHTO   O19 8364   6.202   1.914  -0.227 -0.1696  0.1847  0.0862
   20CHTO   H35 8365   6.261   1.942  -0.294  2.5626  0.3134  2.4758
   20CHTO   C21 8366   6.408   1.765  -0.222  0.5808  0.3335 -0.5248
   20CHTO   H49 8367   6.389   1.742  -0.327  1.0270  1.2118 -0.8018
   20CHTO    N4 8368   6.507   1.869  -0.234 -0.1595 -0.2444 -0.6001
   20CHTO   H41 8369   6.606   1.829  -0.248  0.6978  2.2160 -1.8153
   20CHTO   H42 8370   6.489   1.942  -0.312 -2.0983  0.2124  0.2401
   20CHTO   C22 8371   6.464   1.642  -0.148 -0.0285  0.8338  0.1741
   20CHTO   H50 8372   6.525   1.671  -0.063  0.3447  1.4035 -0.2831
   20CHTO   O14 8373   6.370   1.544  -0.118 -0.3527  0.1020  0.2175
   20CHTO   C23 8374   6.241   1.564  -0.066 -0.0456 -0.4139 -1.1289
   20CHTO   H51 8375   6.230   1.573   0.043  3.1445  0.0750 -0.8052
   20CHTO   C34 8376   6.148   1.440  -0.102  0.7284 -0.6572  0.5846
   20CHTO   O23 8377   6.012   1.433  -0.054 -0.5698  0.0349 -0.1024
   20CHTO   H38 8378   5.999   1.347  -0.018  1.3110 -0.1313  0.2356
   20CHTO   O16 8379   6.536   1.554  -0.241  0.2384 -0.1333 -0.5605
   20CHTO   C24 8380   6.650   1.459  -0.175  0.6531  0.1784  1.0590
   20CHTO   H52 8381   6.626   1.426  -0.074  0.4975 -1.2391  0.5722
   20CHTO   C26 8382   6.783   1.533  -0.181 -0.2663 -0.6966 -0.6649
   20CHTO   H54 8383   6.808   1.569  -0.283  0.5188 -1.0256 -0.5924
   20CHTO   O20 8384   6.777   1.656  -0.105  0.1787  0.3800  0.3385
   20CHTO   H36 8385   6.854   1.710  -0.108 -0.3809  1.1058 -2.2065
   20CHTO   C30 8386   6.894   1.438  -0.121  0.3763  0.2283 -0.2346
   20CHTO   H58 8387   6.872   1.429  -0.014  0.1029 -2.4137 -0.4652
   20CHTO    N6 8388   7.027   1.498  -0.141 -0.0660  0.0254 -0.5007
   20CHTO   H45 8389   7.083   1.450  -0.062 -3.3483  1.0080  2.5757
   20CHTO   H46 8390   7.036   1.603  -0.116  1.5189 -0.9570  3.5140
   20CHTO   C33 8391   6.895   1.297  -0.187 -0.1543 -0.5992  0.3964
   20CHTO   H61 8392   6.945   1.300  -0.285  0.3330 -0.1956  0.6557
   20CHTO   O18 8393   6.763   1.252  -0.194  0.3408  0.1550  0.0973
   20CHTO   C28 8394   6.668   1.335  -0.259 -0.1306 -0.2941  0.0273
   20CHTO   H56 8395   6.691   1.367  -0.360 -1.7730  0.1394 -0.2241
   20CHTO   C35 8396   6.527   1.256  -0.281  0.2263 -0.2360 -0.5797
   20CHTO   O24 8397   6.558   1.153  -0.376  0.4296  0.1571  0.0752
   20CHTO   H39 8398   6.612   1.188  -0.445  1.1346  0.5798  0.8390
   20CHTO    O9 8399   6.976   1.200  -0.113  0.4566 -0.6658 -0.5591
   20CHTO   C13 8400   6.941   1.037  -0.079  0.1060  0.0476 -0.0812
   20CHTO   H26 8401   7.032   1.002  -0.027  0.4452  1.1690  0.1043
   20CHTO   C11 8402   6.907   0.953  -0.212 -0.4594 -0.2588 -0.0178
   20CHTO   H24 8403   7.004   0.927  -0.255 -0.7673 -1.4755 -0.0184
   20CHTO    O8 8404   6.827   1.017  -0.309 -0.7582  0.0826  0.4576
   20CHTO    H3 8405   6.848   0.975  -0.390  2.0251  0.2300  1.0581
   20CHTO    C9 8406   6.842   0.822  -0.170 -0.0590 -0.4551  1.0260
   20CHTO   H22 8407   6.905   0.780  -0.089 -0.3805  1.7069  2.4573
   20CHTO    N2 8408   6.835   0.720  -0.279 -0.4659  0.4375  0.4490
   20CHTO   H10 8409   6.768   0.739  -0.362  0.1651  0.4221 -0.0719
   20CHTO   H11 8410   6.811   0.624  -0.235 -1.5003 -0.0621 -1.1506
   20CHTO    C7 8411   6.710   0.851  -0.093 -0.3092  0.3568 -0.3489
   20CHTO   H20 8412   6.706   0.770  -0.017  1.0215 -1.1410 -1.8326
   20CHTO    O4 8413   6.704   0.976  -0.019  0.0924  0.1597 -0.1201
   20CHTO   C14 8414   6.830   1.025   0.030  0.4637  0.2834 -0.0202
   20CHTO   H27 8415   6.867   0.945   0.098  0.1997  0.2800  0.1218
   20CHTO   C18 8416   6.809   1.152   0.111  0.3339 -0.0501 -0.2199
   20CHTO   O13 8417   6.714   1.120   0.218  0.0801 -0.3492  0.0264
   20CHTO    H7 8418   6.632   1.097   0.177  0.4456  0.1218 -0.9883
   20CHTO    O2 8419   6.572   0.837  -0.186  0.4840  0.0934 -0.2046
   20CHTO    C1 8420   6.465   0.744  -0.147  0.4332 -0.3064  0.3260
   20CHTO   H14 8421   6.452   0.767  -0.039 -0.8840  1.1901 -0.1285
   20CHTO    C2 8422   6.484   0.588  -0.167 -0.0621 -0.1162  0.2394
   20CHTO   H15 8423   6.506   0.572  -0.274 -0.4411 -0.6794  0.2427
   20CHTO    O6 8424   6.591   0.539  -0.088 -0.0731 -0.5153  0.1436
   20CHTO    H1 8425   6.569   0.544   0.003 -1.5057  0.5792 -0.2618
   20CHTO    C3 8426   6.345   0.508  -0.130 -0.0706  0.7035 -0.0133
   20CHTO   H16 8427   6.331   0.518  -0.022  3.3069  0.4805  0.5007
   20CHTO    N1 8428   6.355   0.360  -0.155  0.0386  0.5068  0.2526
   20CHTO    H8 8429   6.262   0.327  -0.197  1.6779  1.1203 -4.1124
   20CHTO    H9 8430   6.383   0.310  -0.063 -0.6440 -1.9437 -0.8086
   20CHTO    C4 8431   6.218   0.576  -0.195 -0.0500  0.0842 -0.4008
   20CHTO   H17 8432   6.215   0.553  -0.301  2.0533 -0.4485 -0.3573
   20CHTO    O1 8433   6.225   0.715  -0.183  0.2108 -0.1274 -0.6251
   20CHTO    C5 8434   6.342   0.778  -0.230  0.3969 -0.1690  0.0662
   20CHTO   H18 8435   6.372   0.759  -0.333  0.1040 -2.2558  0.3595
   20CHTO   C16 8436   6.306   0.931  -0.211 -0.3226  0.2842  0.0193
   20CHTO   O11 8437   6.180   0.970  -0.275 -0.3443  0.3882  0.3935
   20CHTO    H5 8438   6.156   1.049  -0.230  0.6728  0.8772  0.0870
   20CHTO    O3 8439   6.095   0.540  -0.128  0.0079  0.3415  0.3692
   20CHTO    C6 8440   5.961   0.571  -0.186  0.0659  0.2240 -0.1865
   20CHTO   H19 8441   5.959   0.649  -0.263 -0.7759  0.6127  0.2185
   20CHTO    C8 8442   5.910   0.439  -0.247 -0.4154 -0.0678  0.2737
   20CHTO   H21 8443   5.908   0.366  -0.167 -0.7382 -1.3234 -0.8536
   20CHTO    O7 8444   5.996   0.397  -0.357  0.3035 -0.2604  0.4217
   20CHTO    H2 8445   6.082   0.376  -0.325 -0.0221 -0.6597  1.0336
   20CHTO   C12 8446   5.765   0.455  -0.295 -0.2880  0.0501  0.2354
   20CHTO   H25 8447   5.769   0.522  -0.383  0.3463 -0.4269 -0.1057
   20CHTO    N3 8448   5.713   0.317  -0.336  0.2433  0.2842 -0.3104
   20CHTO   H12 8449   5.609   0.321  -0.367  0.6369  1.2985 -1.5133
   20CHTO   H13 8450   5.725   0.253  -0.250  1.2704 -0.7330 -1.2062
   20CHTO   C15 8451   5.676   0.527  -0.189 -0.1857  0.0176 -0.9146
   20CHTO   H28 8452   5.647   0.462  -0.106  0.5921  0.8757  0.0367
   20CHTO   O10 8453   5.556   0.574  -0.252 -0.2709 -0.3918 -0.2826
   20CHTO    H4 8454   5.484   0.526  -0.214  0.0423 -1.4771 -1.0524
   20CHTO    O5 8455   5.740   0.648  -0.137  0.4968 -0.2274 -0.1593
   20CHTO   C10 8456   5.865   0.622  -0.074 -0.5528  0.9295 -0.2857
   20CHTO   H23 8457   5.868   0.546   0.003  0.9382  0.4627 -0.7774
   20CHTO   C17 8458   5.897   0.759  -0.006  0.5594 -0.0804 -0.4620
   20CHTO   O12 8459   5.970   0.839  -0.103  1.1829 -0.0565  0.3301
   20CHTO    H6 8460   6.011   0.908  -0.054 -2.0396  2.1111  0.1090
   21GLOH   H03 8461   9.208   3.979   1.827  0.3348 -0.0477  0.0334
   21GLOH    O1 8462   9.276   3.915   1.800 -0.1000 -0.4846 -0.0316
   21GLOH    C1 8463   9.393   3.992   1.773 -0.6484  0.0268 -0.9716
   21GLOH   H02 8464   9.370   4.055   1.687  1.3441  1.1469 -0.7090
   21GLOH   H08 8465   9.469   3.926   1.733  0.6433  0.2287  1.0639
   21GLOH    C2 8466   9.450   4.053   1.903  0.2733 -0.6848  0.0203
   21GLOH   H04 8467   9.371   4.105   1.960  0.1103 -0.2277 -0.6135
   21GLOH    O2 8468   9.509   3.954   1.992  0.0461 -0.3372  0.4561
   21GLOH   H05 8469   9.445   3.892   2.031  1.8177 -1.9143  0.9758
   21GLOH    C3 8470   9.555   4.154   1.858  0.0028  0.3691 -0.2338
   21GLOH   H06 8471   9.632   4.108   1.795 -1.2434 -2.4926  0.2575
   21GLOH   H07 8472   9.595   4.191   1.952 -1.5128 -0.4280  0.7503
   21GLOH    O3 8473   9.496   4.263   1.789 -0.5561  0.1479  0.2832
   21GLOH   H01 8474   9.462   4.329   1.852  1.9501 -0.6767  2.6186
   22GLOH   H03 8475   3.069   1.655   0.154 -0.6297  0.4767 -2.0820
   22GLOH    O1 8476   3.162   1.628   0.147 -0.5291  0.2784 -0.3105
   22GLOH    C1 8477   3.196   1.626   0.009 -0.3327  0.3941 -0.2416
   22GLOH   H02 8478   3.169   1.716  -0.046  0.4081  0.2920 -0.7910
   22GLOH   H08 8479   3.141   1.552  -0.048  0.0215  0.7111 -1.0110
   22GLOH    C2 8480   3.347   1.595   0.008  0.1358 -0.1998 -0.0855
   22GLOH   H04 8481   3.361   1.502   0.066  0.9475  0.2955  0.5221
   22GLOH    O2 8482   3.389   1.575  -0.128 -0.5550  0.1177 -0.1953
   22GLOH   H05 8483   3.426   1.487  -0.144 -0.4349 -0.2775  2.1325
   22GLOH    C3 8484   3.435   1.700   0.077 -0.4711 -0.0400  0.3748
   22GLOH   H06 8485   3.386   1.742   0.164 -0.6403  0.3263  0.1068
   22GLOH   H07 8486   3.442   1.789   0.013  3.3789 -0.0607  0.6697
   22GLOH    O3 8487   3.567   1.655   0.110 -0.2405  0.4604 -0.0709
   22GLOH   H01 8488   3.621   1.734   0.125 -0.6602  0.6648  0.3733
   23GLOH   H03 8489   0.489   5.122   0.217 -1.6833  1.1722  1.7957
   23GLOH    O1 8490   0.565   5.117   0.277 -0.1854  0.3469 -0.1310
   23GLOH    C1 8491   0.511   5.060   0.400  0.1598 -0.1810  0.1573
   23GLOH   H02 8492   0.502   4.952   0.385 -2.8883  0.0584 -0.0456
   23GLOH   H08 8493   0.408   5.095   0.411  0.1887  0.2162 -0.7555
   23GLOH    C2 8494   0.605   5.080   0.526  0.5668 -0.1888  0.7396
   23GLOH   H04 8495   0.638   5.184   0.525 -0.1939  0.1089  2.7900
   23GLOH    O2 8496   0.523   5.062   0.646  0.0257  0.3831  0.2207
   23GLOH   H05 8497   0.459   5.135   0.650 -0.0021  0.2436  2.5669
   23GLOH    C3 8498   0.723   4.978   0.537 -0.3221  0.1493 -0.0905
   23GLOH   H06 8499   0.682   4.881   0.564 -0.6453  0.1265 -0.6554
   23GLOH   H07 8500   0.783   5.016   0.620 -0.1293  0.7835 -0.5133
   23GLOH    O3 8501   0.808   4.971   0.422  0.0400  0.2969 -0.5816
   23GLOH   H01 8502   0.828   5.064   0.401  1.7680  0.0973  0.1393
   24GLOH   H03 8503   8.959   5.029   2.300 -2.5010  0.4580 -0.0743
   24GLOH    O1 8504   8.965   5.082   2.382  0.7175  0.0377  0.0184
   24GLOH    C1 8505   8.828   5.099   2.417  0.5815  0.4057  0.3206
   24GLOH   H02 8506   8.767   5.033   2.355  1.1862  0.7566 -0.6655
   24GLOH   H08 8507   8.797   5.200   2.390  0.4308  0.4499  0.6578
   24GLOH    C2 8508   8.796   5.079   2.569 -0.0183  0.5686  0.0792
   24GLOH   H04 8509   8.689   5.100   2.585 -0.1663  0.8213 -1.1326
   24GLOH    O2 8510   8.816   4.944   2.621  0.0312  0.0257 -0.5934
   24GLOH   H05 8511   8.902   4.911   2.592  0.5847 -0.6556  1.6723
   24GLOH    C3 8512   8.888   5.168   2.646 -0.2368  0.1605 -0.4375
   24GLOH   H06 8513   8.987   5.130   2.620 -0.1378 -1.0593  1.6328
   24GLOH   H07 8514   8.879   5.144   2.752  0.1778  0.0967 -0.4176
   24GLOH    O3 8515   8.876   5.314   2.629 -0.1002 -0.0026 -0.2091
   24GLOH   H01 8516   8.947   5.372   2.663 -1.3339  0.7661  1.0747
   25GLOH   H03 8517   1.190   4.867   1.725  0.1612  1.4226 -2.5360
   25GLOH    O1 8518   1.283   4.890   1.746  0.1684 -0.4257 -0.2859
   25GLOH    C1 8519   1.389   4.804   1.707  0.6134  0.6520 -0.4358
   25GLOH   H02 8520   1.363   4.698   1.702  2.6295  0.2108 -3.0415
   25GLOH   H08 8521   1.460   4.818   1.789 -0.0785  0.5846  0.1744
   25GLOH    C2 8522   1.436   4.834   1.560  0.2574 -0.1939 -0.4179
   25GLOH   H04 8523   1.503   4.920   1.573 -0.8413  0.9015 -1.8545
   25GLOH    O2 8524   1.522   4.730   1.502  0.0249  0.1937 -0.3370
   25GLOH   H05 8525   1.582   4.704   1.574 -0.1215  0.9084  0.0434
   25GLOH    C3 8526   1.323   4.880   1.465  0.2464  0.2150  0.4314
   25GLOH   H06 8527   1.303   4.982   1.496  0.5490  0.5410 -0.4145
   25GLOH   H07 8528   1.240   4.815   1.494 -0.2124 -0.2332 -1.7191
   25GLOH    O3 8529   1.355   4.887   1.324 -0.4801  0.5705 -0.5030
   25GLOH   H01 8530   1.335   4.796   1.294  0.3318 -0.1288  1.0149
   26GLOH   H03 8531   9.971   4.331   0.782  0.2792  0.4583 -0.8129
   26GLOH    O1 8532   9.911   4.401   0.750  0.0527  0.5850 -0.1341
   26GLOH    C1 8533   9.867   4.489   0.860  0.6913 -0.4842 -0.3177
   26GLOH   H02 8534   9.955   4.535   0.906 -0.6424  1.0220  0.7771
   26GLOH   H08 8535   9.833   4.427   0.943  3.7502  0.8411  2.0179
   26GLOH    C2 8536   9.766   4.598   0.814  1.5546  0.0343 -1.1689
   26GLOH   H04 8537   9.683   4.538   0.774  0.6166 -1.0702  2.2578
   26GLOH    O2 8538   9.712   4.684   0.915  0.5281  0.9733 -0.5393
   26GLOH   H05 8539   9.663   4.751   0.864  1.5191  1.9545 -0.2251
   26GLOH    C3 8540   9.838   4.674   0.699 -0.1807 -0.0522 -1.0125
   26GLOH   H06 8541   9.928   4.722   0.737 -0.0670 -1.2773  0.3176
   26GLOH   H07 8542   9.777   4.753   0.655  0.8657 -0.1585 -2.6684
   26GLOH    O3 8543   9.862   4.581   0.593  0.0144 -0.1239  0.0497
   26GLOH   H01 8544   9.894   4.494   0.622  1.1767  0.1136 -0.5045
   27GLOH   H03 8545   1.032   4.455   1.735  0.7339 -0.6160  1.0663
   27GLOH    O1 8546   0.955   4.416   1.780 -0.2423  0.1363  0.0801
   27GLOH    C1 8547   0.847   4.511   1.777 -0.6246  0.0906 -0.8400
   27GLOH   H02 8548   0.758   4.449   1.773  0.6142 -1.6847 -1.8650
   27GLOH   H08 8549   0.851   4.570   1.686  1.8474 -0.7931 -1.3386
   27GLOH    C2 8550   0.836   4.608   1.899  0.4106 -0.0853 -0.0369
   27GLOH   H04 8551   0.837   4.536   1.982 -0.6303 -1.2262 -0.9947
   27GLOH    O2 8552   0.950   4.695   1.903  0.0327 -0.1500 -0.7583
   27GLOH   H05 8553   0.992   4.699   1.991 -0.4739  3.0928 -0.5761
   27GLOH    C3 8554   0.711   4.690   1.870 -0.0652 -0.0961  0.7953
   27GLOH   H06 8555   0.745   4.752   1.787  1.0341 -0.2016  1.1546
   27GLOH   H07 8556   0.690   4.760   1.951 -2.2313  0.0198  0.1554
   27GLOH    O3 8557   0.586   4.621   1.830 -0.0267  0.3321 -0.1170
   27GLOH   H01 8558   0.537   4.692   1.784  0.0827 -0.5107 -1.5681
   28GLOH   H03 8559   1.005   3.439   0.250 -1.8007 -0.1850 -0.4773
   28GLOH    O1 8560   0.978   3.459   0.341 -0.1446 -0.2016  0.0351
   28GLOH    C1 8561   0.886   3.567   0.338  0.2180  0.4941  0.4289
   28GLOH   H02 8562   0.941   3.652   0.297  1.2656 -0.0409  0.6905
   28GLOH   H08 8563   0.857   3.603   0.437 -0.1775  2.0684 -0.2545
   28GLOH    C2 8564   0.757   3.529   0.260 -0.2922  0.2609  0.1311
   28GLOH   H04 8565   0.792   3.510   0.158  1.2858  2.0039  0.3285
   28GLOH    O2 8566   0.696   3.406   0.313  0.1617  0.1222  0.7830
   28GLOH   H05 8567   0.769   3.358   0.355  0.7549  1.6126  1.4741
   28GLOH    C3 8568   0.674   3.659   0.250 -0.0494 -0.7778 -0.2042
   28GLOH   H06 8569   0.624   3.674   0.346  3.8130  0.0012  1.8036
   28GLOH   H07 8570   0.595   3.635   0.179  0.3126 -1.9709 -0.2071
   28GLOH    O3 8571   0.757   3.772   0.214 -0.4549  0.5430  0.1055
   28GLOH   H01 8572   0.695   3.837   0.176 -1.2204 -0.7479 -0.9057
   29GLOH   H03 8573   2.403   2.883   0.626 -1.4258 -0.0910 -0.8420
   29GLOH    O1 8574   2.395   2.793   0.661 -0.3371  0.1181  0.0004
   29GLOH    C1 8575   2.433   2.699   0.556 -0.3915 -0.1829  0.2996
   29GLOH   H02 8576   2.414   2.735   0.455  3.3165  0.4623 -0.2238
   29GLOH   H08 8577   2.374   2.608   0.570  0.1151 -0.6225 -0.4103
   29GLOH    C2 8578   2.578   2.667   0.561  0.0128 -0.1150  0.0311
   29GLOH   H04 8579   2.602   2.585   0.631  0.0707 -0.3811 -0.2983
   29GLOH    O2 8580   2.615   2.612   0.430 -0.1728 -0.1596  0.0185
   29GLOH   H05 8581   2.571   2.528   0.410 -1.0921  1.0414 -3.4838
   29GLOH    C3 8582   2.669   2.785   0.608 -0.1248  0.3520  0.3665
   29GLOH   H06 8583   2.769   2.747   0.626 -0.7853 -0.1574  3.1390
   29GLOH   H07 8584   2.623   2.822   0.699 -1.9135  2.2480 -1.2452
   29GLOH    O3 8585   2.672   2.890   0.511  0.4795 -0.9106  0.2102
   29GLOH   H01 8586   2.587   2.936   0.518  0.7817 -0.3945  0.4946
   30GLOH   H03 8587   2.419   7.784   2.533 -1.1883  2.6678 -1.1605
   30GLOH    O1 8588   2.467   7.839   2.597  0.0122  0.4032 -0.0380
   30GLOH    C1 8589   2.599   7.872   2.555 -0.5068  0.6525 -0.3224
   30GLOH   H02 8590   2.656   7.792   2.507  1.5567  0.9137  1.5822
   30GLOH   H08 8591   2.656   7.885   2.647  0.3766  1.0777 -0.9173
   30GLOH    C2 8592   2.602   8.008   2.478 -1.1031  0.2619  0.0901
   30GLOH   H04 8593   2.543   8.085   2.528 -0.2488  0.5500  0.6587
   30GLOH    O2 8594   2.740   8.048   2.450 -0.2067  0.1455 -0.2979
   30GLOH   H05 8595   2.755   8.031   2.355  0.7741 -1.9664  0.2074
   30GLOH    C3 8596   2.547   7.993   2.336 -0.7097  0.4895  1.0477
   30GLOH   H06 8597   2.526   8.095   2.303 -1.6865 -0.7149 -2.2861
   30GLOH   H07 8598   2.453   7.941   2.349  0.8521 -2.9602 -0.6750
   30GLOH    O3 8599   2.642   7.936   2.242 -0.0988 -0.1927  0.4832
   30GLOH   H01 8600   2.596   7.895   2.166 -1.3147  1.0156  0.5594
   31GLOH   H03 8601   3.830   9.723   1.421  0.9174 -0.3929 -0.0292
   31GLOH    O1 8602   3.785   9.700   1.504  0.2604 -0.0686 -0.2908
   31GLOH    C1 8603   3.661   9.633   1.467  1.0577  0.3789 -0.4388
   31GLOH   H02 8604   3.650   9.627   1.359  0.1373 -1.7573 -0.2495
   31GLOH   H08 8605   3.570   9.675   1.510  1.7097 -0.4834  1.8633
   31GLOH    C2 8606   3.673   9.486   1.513  0.4501 -0.2606  0.1128
   31GLOH   H04 8607   3.772   9.449   1.481  0.2845 -1.7612  1.3004
   31GLOH    O2 8608   3.641   9.451   1.648 -0.1350  0.4284 -0.3886
   31GLOH   H05 8609   3.710   9.479   1.711  1.5886  1.1726 -2.5209
   31GLOH    C3 8610   3.579   9.392   1.434 -0.5159 -0.1443  0.1578
   31GLOH   H06 8611   3.476   9.414   1.463  0.4098  2.9297  1.2656
   31GLOH   H07 8612   3.604   9.294   1.474  0.6250  0.3139  0.5763
   31GLOH    O3 8613   3.599   9.403   1.291 -0.4061 -0.4463  0.3551
   31GLOH   H01 8614   3.542   9.342   1.242  1.3746  0.3494 -2.8407
   32GLOH   H03 8615   2.706   3.058   0.102 -0.3522 -0.5287 -1.7620
   32GLOH    O1 8616   2.637   3.116   0.141  0.5030 -0.8140  0.2196
   32GLOH    C1 8617   2.530   3.118   0.047  0.0500  0.6310  0.0514
   32GLOH   H02 8618   2.466   3.030   0.049  0.8049  0.0656 -0.3198
   32GLOH   H08 8619   2.568   3.139  -0.053 -1.1004 -0.3221 -0.6075
   32GLOH    C2 8620   2.441   3.241   0.069  0.9466  0.3954 -0.8578
   32GLOH   H04 8621   2.362   3.245  -0.008 -0.9862  1.3778  1.1240
   32GLOH    O2 8622   2.375   3.226   0.194 -0.3086 -0.6201 -0.0418
   32GLOH   H05 8623   2.423   3.247   0.276 -2.4577  0.1397  1.0536
   32GLOH    C3 8624   2.506   3.377   0.064 -0.3333  0.2768  0.9608
   32GLOH   H06 8625   2.438   3.457   0.093 -0.6489 -0.0354  1.0914
   32GLOH   H07 8626   2.528   3.397  -0.041 -1.6599 -1.8907  0.2334
   32GLOH    O3 8627   2.620   3.393   0.154 -0.0019 -0.1477 -0.0088
   32GLOH   H01 8628   2.657   3.307   0.180  0.7512  0.5365  1.2470
   33GLOH   H03 8629   3.086   5.393   1.267 -0.4178 -1.3134 -0.5006
   33GLOH    O1 8630   3.039   5.314   1.234 -0.0160 -1.5326 -0.5536
   33GLOH    C1 8631   2.993   5.325   1.097  0.0365 -0.4893  0.0846
   33GLOH   H02 8632   3.075   5.371   1.041 -1.8066  0.6789 -1.7528
   33GLOH   H08 8633   2.900   5.382   1.092  0.1992 -0.1719  0.7187
   33GLOH    C2 8634   2.966   5.196   1.027  0.3589  0.6382 -0.4388
   33GLOH   H04 8635   2.920   5.211   0.929  1.2686 -0.6787 -1.0954
   33GLOH    O2 8636   3.078   5.110   1.014  0.0454 -0.0544 -0.4119
   33GLOH   H05 8637   3.155   5.170   1.014  0.7090 -0.8014  2.6242
   33GLOH    C3 8638   2.862   5.118   1.104  0.9916  0.1605  0.3218
   33GLOH   H06 8639   2.897   5.091   1.203 -1.8963 -3.4818  0.4687
   33GLOH   H07 8640   2.834   5.022   1.059 -1.8816 -0.3609  3.0440
   33GLOH    O3 8641   2.740   5.202   1.104 -0.0479  0.3088  0.3246
   33GLOH   H01 8642   2.728   5.216   1.008  0.7192  0.5932  0.2635
   34GLOH   H03 8643   2.869   2.429   1.114 -0.1334 -0.0908  1.5407
   34GLOH    O1 8644   2.821   2.512   1.129 -0.3724  0.0949 -0.1705
   34GLOH    C1 8645   2.750   2.547   1.012 -0.1383 -0.2310 -0.1399
   34GLOH   H02 8646   2.723   2.460   0.952  0.0100  0.5069 -1.3108
   34GLOH   H08 8647   2.807   2.615   0.949 -0.5100 -0.1911 -0.4374
   34GLOH    C2 8648   2.613   2.605   1.051  0.0321  0.0411  0.2073
   34GLOH   H04 8649   2.633   2.689   1.118  2.4101  1.1046 -1.7680
   34GLOH    O2 8650   2.562   2.635   0.921 -0.0341  0.4642  0.7250
   34GLOH   H05 8651   2.569   2.730   0.902  0.2145  0.3155  0.0705
   34GLOH    C3 8652   2.526   2.491   1.112 -0.1517  0.3165 -0.4664
   34GLOH   H06 8653   2.584   2.437   1.187 -1.1688 -2.5370 -1.6442
   34GLOH   H07 8654   2.502   2.419   1.034 -0.6305  1.7536 -1.6661
   34GLOH    O3 8655   2.408   2.533   1.175  0.8415 -0.4492 -0.2535
   34GLOH   H01 8656   2.332   2.518   1.116  0.8949  0.9862 -0.7153
   35GLOH   H03 8657   2.793   5.905   0.287 -1.6610  0.4178  1.7103
   35GLOH    O1 8658   2.744   5.850   0.224  0.2025  0.2676  0.3571
   35GLOH    C1 8659   2.735   5.709   0.258  0.1177 -0.6962  0.2030
   35GLOH   H02 8660   2.681   5.656   0.180  0.7011 -1.3719  0.2578
   35GLOH   H08 8661   2.677   5.691   0.348  0.0537 -0.5990  0.1816
   35GLOH    C2 8662   2.871   5.636   0.249 -0.8619  0.1955  0.2259
   35GLOH   H04 8663   2.911   5.652   0.148  2.2466  3.6889  1.8880
   35GLOH    O2 8664   2.973   5.694   0.336 -0.0923  0.3977 -0.0763
   35GLOH   H05 8665   2.928   5.729   0.415 -0.5552 -1.5896  0.5869
   35GLOH    C3 8666   2.860   5.484   0.275  0.4329  0.3947  0.2895
   35GLOH   H06 8667   2.821   5.465   0.375 -1.2901  1.3054 -0.1869
   35GLOH   H07 8668   2.963   5.449   0.275  0.6078  0.8473  2.0991
   35GLOH    O3 8669   2.776   5.426   0.172 -0.0691  0.0734 -0.1840
   35GLOH   H01 8670   2.816   5.451   0.087  0.4771 -2.2278 -0.6086
   36GLOH   H03 8671   9.799   4.031   0.853 -0.3340  0.3652  0.1365
   36GLOH    O1 8672   9.735   4.044   0.781 -0.3816  0.0701  0.1273
   36GLOH    C1 8673   9.664   4.170   0.811 -0.2535  0.5054  0.2594
   36GLOH   H02 8674   9.737   4.237   0.855 -1.5452  3.3657 -1.7378
   36GLOH   H08 8675   9.594   4.150   0.892 -1.6931 -1.6314 -1.4425
   36GLOH    C2 8676   9.598   4.232   0.691 -0.4350  0.4905  0.2337
   36GLOH   H04 8677   9.515   4.167   0.658 -1.4458  1.5821  0.6149
   36GLOH    O2 8678   9.543   4.353   0.719  0.9595 -0.0710 -0.0600
   36GLOH   H05 8679   9.474   4.353   0.789  0.2585  0.3173 -0.7488
   36GLOH    C3 8680   9.699   4.248   0.579  0.3068  0.1400 -0.0243
   36GLOH   H06 8681   9.745   4.345   0.598 -1.4420  1.5401 -2.6865
   36GLOH   H07 8682   9.643   4.257   0.486 -0.2088  1.4173  0.4075
   36GLOH    O3 8683   9.786   4.135   0.567 -0.1176 -0.2668 -0.4006
   36GLOH   H01 8684   9.799   4.091   0.653  3.2586  1.0855 -0.1510
   37GLOH   H03 8685   3.787   5.502   1.914  0.2466 -1.4250  1.5897
   37GLOH    O1 8686   3.732   5.560   1.970  0.4029  0.2470  0.0525
   37GLOH    C1 8687   3.737   5.515   2.103  0.4332 -0.3119 -0.6103
   37GLOH   H02 8688   3.758   5.603   2.163  0.7264  1.0476 -2.6350
   37GLOH   H08 8689   3.816   5.441   2.121 -0.1038 -0.4373  1.3753
   37GLOH    C2 8690   3.601   5.455   2.142 -0.1898  0.3078  0.1356
   37GLOH   H04 8691   3.570   5.381   2.068  0.9902 -0.4688  0.4015
   37GLOH    O2 8692   3.618   5.385   2.274  0.5089 -0.1564 -0.1172
   37GLOH   H05 8693   3.551   5.413   2.338 -0.8833 -0.4946 -1.4007
   37GLOH    C3 8694   3.487   5.556   2.153  0.4771 -0.2061 -0.2323
   37GLOH   H06 8695   3.517   5.635   2.223 -1.7013 -0.1521  0.6633
   37GLOH   H07 8696   3.402   5.513   2.206  1.0835 -1.3921 -0.2221
   37GLOH    O3 8697   3.452   5.607   2.022  0.2444  0.6914 -0.6313
   37GLOH   H01 8698   3.524   5.600   1.957  0.9611 -1.2348  0.3341
   38GLOH   H03 8699   0.141   4.561   0.568  1.0148 -0.5104 -0.0749
   38GLOH    O1 8700   0.123   4.468   0.547  0.1926 -0.3088 -0.2743
   38GLOH    C1 8701   0.224   4.384   0.613  0.4520 -0.5141 -0.0350
   38GLOH   H02 8702   0.232   4.416   0.717 -0.2725 -1.2412  0.2458
   38GLOH   H08 8703   0.319   4.416   0.570  0.7745 -2.0644 -0.5030
   38GLOH    C2 8704   0.222   4.230   0.609  0.2343 -0.0903  0.5735
   38GLOH   H04 8705   0.219   4.203   0.502 -0.4492 -1.0312  0.8294
   38GLOH    O2 8706   0.335   4.164   0.667  0.4124  0.3099 -0.2698
   38GLOH   H05 8707   0.342   4.067   0.675 -0.4878  0.3363  1.0529
   38GLOH    C3 8708   0.093   4.178   0.681  0.2710  0.1519 -0.4628
   38GLOH   H06 8709   0.096   4.069   0.684 -2.7337  0.0288 -0.4400
   38GLOH   H07 8710   0.011   4.215   0.619  1.3451  2.1924 -0.7174
   38GLOH    O3 8711   0.076   4.228   0.814 -0.2922  0.1750  0.0913
   38GLOH   H01 8712   0.151   4.199   0.869  0.2997  1.1285 -0.1869
   39GLOH   H03 8713   9.082   3.702   1.205  0.2195 -0.0400 -0.2329
   39GLOH    O1 8714   8.996   3.726   1.165  0.2166  0.5418  0.1061
   39GLOH    C1 8715   9.015   3.806   1.051 -0.3855  0.4945 -0.0815
   39GLOH   H02 8716   8.926   3.806   0.987 -1.0716  1.0898  0.8706
   39GLOH   H08 8717   9.109   3.784   0.999 -0.8264 -0.4035 -0.5137
   39GLOH    C2 8718   9.022   3.953   1.104  0.0429  0.2979  0.6020
   39GLOH   H04 8719   9.117   3.955   1.159 -0.0653 -0.3978  0.8060
   39GLOH    O2 8720   9.029   4.046   0.992 -0.4506  0.2724 -0.2372
   39GLOH   H05 8721   9.038   4.129   1.042 -2.6414  0.3268  0.1459
   39GLOH    C3 8722   8.903   3.991   1.198  0.7225 -0.5537 -0.2544
   39GLOH   H06 8723   8.818   3.971   1.133  0.4644 -2.3322  0.6016
   39GLOH   H07 8724   8.905   4.100   1.206 -0.5561 -0.6525  1.7765
   39GLOH    O3 8725   8.886   3.912   1.313 -0.6817  0.5045  0.4732
   39GLOH   H01 8726   8.903   3.824   1.273  0.3458 -1.2981  4.5610
   40GLOH   H03 8727   4.574   3.653   2.335  0.3366  0.4780  0.7752
   40GLOH    O1 8728   4.553   3.738   2.292 -0.0037 -0.3555 -0.7217
   40GLOH    C1 8729   4.454   3.807   2.375 -0.4960  0.1866  0.2574
   40GLOH   H02 8730   4.488   3.909   2.389  1.2168 -0.6880  3.0082
   40GLOH   H08 8731   4.454   3.767   2.477  1.7322  1.0078  0.6019
   40GLOH    C2 8732   4.308   3.784   2.337 -0.1649  0.2792  0.4155
   40GLOH   H04 8733   4.240   3.815   2.418  0.3982 -0.2543  1.0903
   40GLOH    O2 8734   4.280   3.861   2.221  0.6192  0.1608  0.0253
   40GLOH   H05 8735   4.329   3.828   2.144 -1.3143  3.2579 -2.6088
   40GLOH    C3 8736   4.285   3.631   2.309  0.3067 -0.2196 -0.6793
   40GLOH   H06 8737   4.350   3.594   2.229 -0.9999  0.8960 -2.2949
   40GLOH   H07 8738   4.182   3.617   2.276  0.1687 -1.2904  0.1821
   40GLOH    O3 8739   4.319   3.554   2.428 -0.8485 -0.4496  0.2006
   40GLOH   H01 8740   4.296   3.459   2.417 -0.8497 -0.5902  1.3104
   41GLOH   H03 8741   2.331   7.578   2.069 -0.1078  0.1671  1.6251
   41GLOH    O1 8742   2.286   7.664   2.055 -0.1603 -0.0702  0.2779
   41GLOH    C1 8743   2.181   7.673   2.150  0.2579 -0.0572  0.6296
   41GLOH   H02 8744   2.201   7.757   2.217 -3.3674  2.1706 -0.9225
   41GLOH   H08 8745   2.172   7.584   2.211  1.3372  1.7053  3.4284
   41GLOH    C2 8746   2.043   7.695   2.087 -0.5437 -0.1678  0.4840
   41GLOH   H04 8747   2.004   7.596   2.060 -0.0592  0.4656 -2.6675
   41GLOH    O2 8748   1.954   7.751   2.172 -0.0599  0.5070 -0.1122
   41GLOH   H05 8749   1.950   7.846   2.150  2.6321  1.4894  3.1405
   41GLOH    C3 8750   2.055   7.771   1.948 -0.1090  0.2613 -0.5514
   41GLOH   H06 8751   2.079   7.705   1.865 -2.0428 -0.1306 -0.8172
   41GLOH   H07 8752   2.141   7.837   1.962  0.0127 -0.6060  3.3004
   41GLOH    O3 8753   1.937   7.844   1.911 -0.3042  0.1503  0.1705
   41GLOH   H01 8754   1.942   7.937   1.939 -1.8090  1.2873 -3.0426
   42GLOH   H03 8755   1.533   8.287  -0.228  2.2995  0.6520 -2.0891
   42GLOH    O1 8756   1.585   8.336  -0.163 -0.1641  0.3930  0.1680
   42GLOH    C1 8757   1.494   8.421  -0.098  0.1896  0.5398  0.6228
   42GLOH   H02 8758   1.400   8.366  -0.092  0.1711  0.5162  0.1383
   42GLOH   H08 8759   1.482   8.512  -0.157 -0.0004 -0.9431 -1.6596
   42GLOH    C2 8760   1.549   8.472   0.032  0.9913 -0.0799 -0.0099
   42GLOH   H04 8761   1.646   8.520   0.014  0.9577  0.6030  1.5943
   42GLOH    O2 8762   1.444   8.564   0.077  0.7596 -0.2852  0.5448
   42GLOH   H05 8763   1.482   8.654   0.080  1.1725 -0.4036 -0.7075
   42GLOH    C3 8764   1.557   8.355   0.132  0.3958  0.0246 -0.0156
   42GLOH   H06 8765   1.458   8.313   0.150 -0.0854  1.0354 -0.2900
   42GLOH   H07 8766   1.593   8.388   0.230 -2.8407  0.0923  1.1921
   42GLOH    O3 8767   1.649   8.255   0.084  0.3820 -0.2872  0.3458
   42GLOH   H01 8768   1.642   8.256  -0.013 -0.4706  1.1350  0.4119
   43GLOH   H03 8769   4.767   4.800   0.242 -0.1541  0.1659 -0.1981
   43GLOH    O1 8770   4.827   4.773   0.171  0.2712 -0.2878  0.3365
   43GLOH    C1 8771   4.868   4.632   0.183 -0.4596 -0.7084  0.0932
   43GLOH   H02 8772   4.785   4.569   0.151 -0.5204 -0.6645  0.1650
   43GLOH   H08 8773   4.890   4.611   0.287  0.1977  0.3492  0.1780
   43GLOH    C2 8774   4.991   4.597   0.096 -0.0862 -0.3381 -0.0962
   43GLOH   H04 8775   5.070   4.649   0.153 -0.3985  0.7062 -0.6006
   43GLOH    O2 8776   5.026   4.459   0.114  0.0459  0.2783 -0.1432
   43GLOH   H05 8777   4.947   4.402   0.112  1.7298 -2.1885  1.9537
   43GLOH    C3 8778   4.991   4.645  -0.050 -0.9130 -0.8843  0.2676
   43GLOH   H06 8779   5.073   4.601  -0.106 -1.5619 -3.9810  1.6128
   43GLOH   H07 8780   5.003   4.751  -0.068 -1.6700 -0.8164  0.1508
   43GLOH    O3 8781   4.860   4.607  -0.114  0.1299 -0.2300 -0.1504
   43GLOH   H01 8782   4.789   4.668  -0.088  1.1842  0.8168  0.3236
   44GLOH   H03 8783   4.513   5.087   0.778  2.3718 -2.4340 -1.1411
   44GLOH    O1 8784   4.509   5.018   0.846  0.0479 -0.6196  0.6396
   44GLOH    C1 8785   4.435   5.075   0.957  0.9007  0.3717 -0.5522
   44GLOH   H02 8786   4.478   5.171   0.982  0.2225  0.1708  1.4550
   44GLOH   H08 8787   4.427   5.014   1.047 -2.7599  0.7151 -0.5522
   44GLOH    C2 8788   4.289   5.116   0.921 -0.3152 -0.2248 -0.0643
   44GLOH   H04 8789   4.246   5.029   0.870  0.9820 -1.5852  1.1131
   44GLOH    O2 8790   4.198   5.151   1.033 -0.1276 -0.1082  0.2119
   44GLOH   H05 8791   4.119   5.097   1.019 -0.4224  0.3687  0.0139
   44GLOH    C3 8792   4.293   5.233   0.819 -1.2449  0.2324  0.3092
   44GLOH   H06 8793   4.316   5.326   0.870  2.0451 -1.3328  1.7971
   44GLOH   H07 8794   4.189   5.245   0.786 -1.6004 -0.1711  1.2478
   44GLOH    O3 8795   4.387   5.194   0.716 -0.1314  0.3781  0.2340
   44GLOH   H01 8796   4.330   5.152   0.649  2.4947 -2.0038 -0.5960
   45GLOH   H03 8797   0.473   6.395   0.027  1.2630  0.3164  0.3494
   45GLOH    O1 8798   0.479   6.297   0.029 -0.0515  0.2313  0.3992
   45GLOH    C1 8799   0.538   6.247   0.151  0.2627  0.0604  0.1750
   45GLOH   H02 8800   0.490   6.158   0.193  0.3993 -0.1196 -0.0478
   45GLOH   H08 8801   0.546   6.324   0.227  0.4847  0.0231  0.1889
   45GLOH    C2 8802   0.686   6.195   0.122 -0.3230  0.4848 -0.4140
   45GLOH   H04 8803   0.746   6.284   0.098  0.2357  0.3968  0.6576
   45GLOH    O2 8804   0.738   6.129   0.239  0.5503 -0.7638 -0.5388
   45GLOH   H05 8805   0.827   6.157   0.268 -0.6616  2.1227  0.5709
   45GLOH    C3 8806   0.685   6.105  -0.005  0.2753  0.0488 -0.4840
   45GLOH   H06 8807   0.601   6.036   0.001  1.6192 -1.6574 -0.8089
   45GLOH   H07 8808   0.777   6.048   0.002  1.1214  1.3057 -1.1573
   45GLOH    O3 8809   0.675   6.182  -0.126 -0.5027  0.2804 -0.7481
   45GLOH   H01 8810   0.590   6.228  -0.114 -0.1767  0.8526 -0.6389
   46GLOH   H03 8811   3.877   0.280   0.345 -0.7023 -1.1372  0.0270
   46GLOH    O1 8812   3.890   0.273   0.442  0.6060  0.6956  0.0382
   46GLOH    C1 8813   3.877   0.400   0.502 -0.4401 -0.0924  0.2641
   46GLOH   H02 8814   3.786   0.453   0.472 -1.4436 -1.4880  0.7741
   46GLOH   H08 8815   3.962   0.458   0.466  0.6056 -2.2789 -0.8250
   46GLOH    C2 8816   3.873   0.400   0.656  0.3878  1.0971 -0.4781
   46GLOH   H04 8817   3.977   0.388   0.690 -0.2941 -0.8699  1.0349
   46GLOH    O2 8818   3.833   0.521   0.727  0.1526 -0.0494  0.2813
   46GLOH   H05 8819   3.803   0.503   0.817 -0.3529 -3.5844 -0.5126
   46GLOH    C3 8820   3.801   0.275   0.714  0.1579  0.2724  0.2135
   46GLOH   H06 8821   3.700   0.282   0.675  0.0206  0.2546  0.5650
   46GLOH   H07 8822   3.785   0.267   0.822 -1.1986 -0.5406 -0.0406
   46GLOH    O3 8823   3.850   0.153   0.653  0.0197  0.1553 -0.3183
   46GLOH   H01 8824   3.875   0.186   0.564  0.0019  0.9002 -0.0510
   47GLOH   H03 8825   3.385   8.901   1.039 -0.2130  0.9276 -0.1675
   47GLOH    O1 8826   3.407   8.929   1.130 -0.0967 -0.0640  0.1210
   47GLOH    C1 8827   3.493   8.831   1.187  0.1606 -0.2142 -0.2490
   47GLOH   H02 8828   3.586   8.819   1.132  0.2434 -1.2035  0.0866
   47GLOH   H08 8829   3.439   8.737   1.173 -0.7934  0.2604  0.1568
   47GLOH    C2 8830   3.521   8.853   1.340  1.0479 -0.4756  0.4018
   47GLOH   H04 8831   3.535   8.960   1.361  1.7346 -1.1236  3.4658
   47GLOH    O2 8832   3.410   8.814   1.426 -0.1524  0.1662 -0.3729
   47GLOH   H05 8833   3.340   8.881   1.425 -1.0199 -0.7133  0.7989
   47GLOH    C3 8834   3.656   8.783   1.370  0.0277 -0.1050 -0.3762
   47GLOH   H06 8835   3.637   8.679   1.345 -0.2433 -0.1564  0.0512
   47GLOH   H07 8836   3.677   8.783   1.477  2.3101 -1.8477 -0.7890
   47GLOH    O3 8837   3.768   8.834   1.296  0.3567  0.3791  0.3069
   47GLOH   H01 8838   3.791   8.921   1.333  1.7165  0.0041  0.3872
   48GLOH   H03 8839   1.419   3.127   1.944  3.4033 -1.7077 -1.3749
   48GLOH    O1 8840   1.451   3.208   1.901 -0.4477  0.3694 -0.5190
   48GLOH    C1 8841   1.335   3.273   1.852  0.9284  0.2310  0.3935
   48GLOH   H02 8842   1.250   3.259   1.919  1.8120 -2.1107  1.0860
   48GLOH   H08 8843   1.297   3.241   1.754  0.1429  1.4562  0.2904
   48GLOH    C2 8844   1.375   3.421   1.839  0.6195  0.2197  0.2481
   48GLOH   H04 8845   1.444   3.436   1.755 -1.2168 -0.3419 -1.3997
   48GLOH    O2 8846   1.258   3.494   1.787 -0.8041  0.1260  0.4387
   48GLOH   H05 8847   1.284   3.543   1.707  1.5982 -1.0386  0.4402
   48GLOH    C3 8848   1.435   3.487   1.966  0.2626 -0.0677 -0.2852
   48GLOH   H06 8849   1.514   3.425   2.008 -0.1011  0.0085  0.5247
   48GLOH   H07 8850   1.349   3.501   2.032  1.7779  0.7506  1.5542
   48GLOH    O3 8851   1.504   3.615   1.940 -0.4549 -0.2601 -0.2107
   48GLOH   H01 8852   1.530   3.657   2.024  3.0698 -2.2468 -0.2149
   49GLOH   H03 8853   3.197   3.071   1.406 -0.6801 -0.4647 -0.2228
   49GLOH    O1 8854   3.259   3.023   1.347  0.0818 -0.0402  0.2284
   49GLOH    C1 8855   3.386   3.005   1.408  0.2976  0.7167 -0.3551
   49GLOH   H02 8856   3.449   2.945   1.343  0.3069  1.5211 -1.0868
   49GLOH   H08 8857   3.372   2.946   1.499  0.1601 -0.7388 -1.2992
   49GLOH    C2 8858   3.462   3.131   1.452  0.1990  0.2233  0.1009
   49GLOH   H04 8859   3.424   3.155   1.552  1.2581 -3.3359  1.4598
   49GLOH    O2 8860   3.605   3.117   1.469 -0.4122  0.2015  0.1280
   49GLOH   H05 8861   3.657   3.195   1.495 -0.9103 -0.1373  2.1920
   49GLOH    C3 8862   3.433   3.239   1.344  0.5625 -0.0308 -0.2551
   49GLOH   H06 8863   3.332   3.276   1.362 -0.1275 -0.9652 -2.0612
   49GLOH   H07 8864   3.423   3.198   1.243  0.0022  1.6081 -0.8743
   49GLOH    O3 8865   3.523   3.350   1.347  0.0281 -0.1027 -0.4470
   49GLOH   H01 8866   3.601   3.320   1.297 -0.0680  1.8031 -1.7869
   50GLOH   H03 8867   1.878   0.437  -0.066  0.4905  0.2193 -1.2213
   50GLOH    O1 8868   1.792   0.482  -0.074  0.2167 -0.1199 -0.2554
   50GLOH    C1 8869   1.758   0.550   0.043 -0.1166  0.0458  0.4912
   50GLOH   H02 8870   1.760   0.656   0.019 -0.3057 -0.6215 -2.7034
   50GLOH   H08 8871   1.829   0.535   0.124  1.1576  0.6399 -0.5068
   50GLOH    C2 8872   1.617   0.525   0.097  0.0552 -0.5988 -0.2282
   50GLOH   H04 8873   1.616   0.428   0.148  1.1351 -0.9937 -0.9408
   50GLOH    O2 8874   1.584   0.620   0.197  0.0222 -0.0873 -0.4386
   50GLOH   H05 8875   1.620   0.581   0.279 -1.3682 -1.1994 -0.3342
   50GLOH    C3 8876   1.511   0.531  -0.016  0.2165 -0.0112 -0.8616
   50GLOH   H06 8877   1.512   0.626  -0.071  0.2470  0.2515 -0.4081
   50GLOH   H07 8878   1.414   0.524   0.033  1.0096 -1.2245  0.5644
   50GLOH    O3 8879   1.533   0.424  -0.109  0.1003  0.5453  0.1867
   50GLOH   H01 8880   1.630   0.415  -0.116  0.0810  0.3437  0.1804
   51GLOH   H03 8881   1.951   9.347   1.768 -1.7611  2.5713  0.5380
   51GLOH    O1 8882   1.889   9.290   1.718  0.2269  0.6535  0.1661
   51GLOH    C1 8883   1.937   9.278   1.582  0.1105  0.1154 -0.4733
   51GLOH   H02 8884   2.034   9.229   1.575 -0.1375 -0.9051  2.7203
   51GLOH   H08 8885   1.950   9.379   1.541 -0.9711 -0.0057 -1.1198
   51GLOH    C2 8886   1.837   9.205   1.493 -0.0800  0.3190  0.6099
   51GLOH   H04 8887   1.738   9.252   1.500 -1.7166 -3.1324  1.8526
   51GLOH    O2 8888   1.878   9.196   1.350  0.2342 -0.2649  0.5397
   51GLOH   H05 8889   1.809   9.170   1.288 -1.9623  2.5385  1.6854
   51GLOH    C3 8890   1.818   9.062   1.554 -0.8683  0.7835 -0.0896
   51GLOH   H06 8891   1.815   9.070   1.663  2.9763 -1.4841  0.2939
   51GLOH   H07 8892   1.902   8.996   1.533 -2.1868 -1.9250  2.7828
   51GLOH    O3 8893   1.701   8.999   1.497 -0.0210 -0.7386 -0.0538
   51GLOH   H01 8894   1.696   9.021   1.402  2.3072 -0.5779 -0.1641
   52GLOH   H03 8895   3.455   5.379   1.637 -1.6524 -1.9684 -0.1570
   52GLOH    O1 8896   3.386   5.447   1.629 -0.2644 -0.5029  0.0630
   52GLOH    C1 8897   3.341   5.479   1.763 -0.3522  0.1791  0.1239
   52GLOH   H02 8898   3.381   5.576   1.793 -0.1879 -0.5688  2.4865
   52GLOH   H08 8899   3.371   5.413   1.844  2.1490  1.1088 -0.0111
   52GLOH    C2 8900   3.191   5.487   1.766  0.1583 -0.1680 -0.4670
   52GLOH   H04 8901   3.150   5.399   1.714  0.2652 -1.3816  1.4381
   52GLOH    O2 8902   3.136   5.488   1.905  0.3956 -0.1216  0.3160
   52GLOH   H05 8903   3.159   5.402   1.944  0.8789  0.0723  0.4714
   52GLOH    C3 8904   3.139   5.613   1.692  0.2012 -0.1542 -0.8458
   52GLOH   H06 8905   3.176   5.702   1.742  1.3368  0.6929 -3.0999
   52GLOH   H07 8906   3.031   5.627   1.690  0.3668  1.3395  0.2426
   52GLOH    O3 8907   3.196   5.628   1.553 -0.1424  0.0905  0.3845
   52GLOH   H01 8908   3.283   5.584   1.554  0.3834  0.8102 -3.7187
   53GLOH   H03 8909   9.421   4.273   0.415 -1.8645  0.7455 -1.3068
   53GLOH    O1 8910   9.458   4.362   0.401  0.2973  0.0596 -0.0711
   53GLOH    C1 8911   9.343   4.445   0.377 -0.1669  0.5018 -0.1600
   53GLOH   H02 8912   9.363   4.546   0.412  0.0930  0.6859 -0.8402
   53GLOH   H08 8913   9.258   4.401   0.429  0.5818 -1.2078 -0.3478
   53GLOH    C2 8914   9.301   4.446   0.228 -0.0123 -0.8603 -0.4039
   53GLOH   H04 8915   9.286   4.340   0.205  2.4984 -1.0630 -1.2473
   53GLOH    O2 8916   9.180   4.526   0.206  0.6435  1.0149  0.6863
   53GLOH   H05 8917   9.151   4.510   0.115  1.6066 -1.4638  0.7915
   53GLOH    C3 8918   9.414   4.509   0.145 -0.2032 -1.3888  0.0151
   53GLOH   H06 8919   9.418   4.610   0.184  2.4317 -0.8959 -1.3810
   53GLOH   H07 8920   9.384   4.501   0.040 -1.3677 -2.0921  0.3927
   53GLOH    O3 8921   9.532   4.434   0.167  0.4753  0.6817 -0.1357
   53GLOH   H01 8922   9.536   4.412   0.262 -1.1163  1.8182  0.2064
   54GLOH   H03 8923   3.661   3.633   1.425 -0.3444  0.7503 -0.0820
   54GLOH    O1 8924   3.690   3.689   1.350  0.4046  0.1110 -0.2732
   54GLOH    C1 8925   3.720   3.606   1.234  0.3925  0.1692 -0.0656
   54GLOH   H02 8926   3.715   3.669   1.145 -0.4579 -2.1268 -1.6999
   54GLOH   H08 8927   3.648   3.526   1.218  2.4578 -1.8001  0.1899
   54GLOH    C2 8928   3.866   3.555   1.238  0.6410 -1.1269  0.7022
   54GLOH   H04 8929   3.928   3.638   1.275  0.9212 -0.9513 -0.1445
   54GLOH    O2 8930   3.887   3.447   1.323  0.1448  0.1173  0.3479
   54GLOH   H05 8931   3.983   3.432   1.328  0.1964  0.6981  1.2742
   54GLOH    C3 8932   3.925   3.524   1.096  0.0184 -0.4664 -0.8005
   54GLOH   H06 8933   4.020   3.471   1.104 -0.9113 -1.7643  2.1206
   54GLOH   H07 8934   3.948   3.620   1.049  1.8923 -0.0521  0.8924
   54GLOH    O3 8935   3.823   3.456   1.029  0.1131  0.4642  0.6833
   54GLOH   H01 8936   3.814   3.466   0.933 -2.8954 -0.6465  0.8023
   55GLOH   H03 8937   3.750   8.745   2.647  0.2110  0.6474  1.0280
   55GLOH    O1 8938   3.843   8.739   2.618 -0.1388  0.0494 -0.0138
   55GLOH    C1 8939   3.849   8.650   2.507 -0.6911 -0.3086 -0.0026
   55GLOH   H02 8940   3.818   8.699   2.414 -1.0678  2.4783  1.5285
   55GLOH   H08 8941   3.780   8.567   2.512 -1.0215 -0.2340 -2.6529
   55GLOH    C2 8942   3.988   8.593   2.482 -0.7968 -0.2224 -0.3773
   55GLOH   H04 8943   4.024   8.548   2.575  0.1880 -0.8738 -1.0697
   55GLOH    O2 8944   3.987   8.492   2.377  0.9919  0.4324  0.1976
   55GLOH   H05 8945   3.960   8.521   2.289 -0.5975 -0.7468  0.2794
   55GLOH    C3 8946   4.081   8.713   2.443  0.5877  0.7765 -0.4009
   55GLOH   H06 8947   4.033   8.746   2.351 -0.1977  1.1752  0.1463
   55GLOH   H07 8948   4.182   8.687   2.412  0.7763 -0.7404  1.3834
   55GLOH    O3 8949   4.073   8.814   2.540  0.0308  0.1954  0.4149
   55GLOH   H01 8950   3.980   8.810   2.566 -0.5279 -0.7025 -1.5903
   56GLOH   H03 8951   9.015   5.511   0.730 -0.0677  1.1912  1.9592
   56GLOH    O1 8952   8.919   5.526   0.742 -0.5433 -0.1538  0.1389
   56GLOH    C1 8953   8.844   5.410   0.720  0.3874  0.4159 -0.0191
   56GLOH   H02 8954   8.788   5.423   0.628 -0.5268 -1.4120  0.2596
   56GLOH   H08 8955   8.775   5.396   0.804  0.8831  1.2151  0.5306
   56GLOH    C2 8956   8.928   5.278   0.718 -0.0806  0.2186  0.1493
   56GLOH   H04 8957   8.860   5.191   0.726 -1.4463  1.2117 -0.3673
   56GLOH    O2 8958   9.014   5.266   0.599 -0.3666  0.8455 -0.3975
   56GLOH   H05 8959   9.055   5.178   0.605 -0.3638  0.9739  1.5051
   56GLOH    C3 8960   9.014   5.250   0.839 -0.2160  0.2007 -0.4717
   56GLOH   H06 8961   9.083   5.333   0.853  0.1125 -0.2855  0.8510
   56GLOH   H07 8962   9.070   5.158   0.827 -1.9443 -0.7142 -1.8033
   56GLOH    O3 8963   8.933   5.231   0.959  0.6451 -0.1736 -0.2330
   56GLOH   H01 8964   8.906   5.322   0.984 -0.4144 -0.6144  0.2581
   57GLOH   H03 8965   3.253   7.678   0.980 -1.3026 -0.2125  0.7576
   57GLOH    O1 8966   3.243   7.628   0.897  0.3310  0.5851  0.0572
   57GLOH    C1 8967   3.238   7.715   0.783 -0.3866  0.3943 -0.3732
   57GLOH   H02 8968   3.276   7.652   0.702 -0.8593  0.2976 -0.5268
   57GLOH   H08 8969   3.316   7.787   0.805  0.2765 -1.0085  2.0727
   57GLOH    C2 8970   3.098   7.761   0.745  0.4559 -1.2311 -0.2948
   57GLOH   H04 8971   3.049   7.818   0.826 -0.7136 -0.0614 -1.7989
   57GLOH    O2 8972   3.102   7.840   0.621  0.3800 -0.3882 -0.0230
   57GLOH   H05 8973   3.010   7.866   0.605  0.9332  1.2085 -0.6859
   57GLOH    C3 8974   3.006   7.645   0.711 -0.2370 -0.1780 -0.3454
   57GLOH   H06 8975   3.062   7.597   0.630  0.0419 -3.9691  2.0007
   57GLOH   H07 8976   2.919   7.698   0.672 -2.5823 -0.2066  4.5542
   57GLOH    O3 8977   2.994   7.574   0.830 -0.2943  0.0331  0.6457
   57GLOH   H01 8978   3.087   7.571   0.859 -0.0695  1.1774  0.0721
   58GLOH   H03 8979   4.002   4.991   1.850 -3.0927  0.7045  0.6528
   58GLOH    O1 8980   3.976   4.932   1.923 -0.8517 -0.1625  0.8087
   58GLOH    C1 8981   4.045   4.979   2.042  0.9402  0.4391 -0.0566
   58GLOH   H02 8982   4.150   4.989   2.015  0.9067  2.4061  0.5158
   58GLOH   H08 8983   4.036   4.912   2.128  1.2423 -0.0730 -0.4175
   58GLOH    C2 8984   3.981   5.118   2.075 -0.2211 -0.1350 -0.2680
   58GLOH   H04 8985   3.876   5.105   2.105 -0.3956 -0.8177 -1.1419
   58GLOH    O2 8986   4.040   5.169   2.195 -0.5400 -0.5429 -0.4438
   58GLOH   H05 8987   3.986   5.148   2.273  1.0671  0.1075  0.8722
   58GLOH    C3 8988   3.987   5.216   1.957  1.2851  0.6265 -0.9533
   58GLOH   H06 8989   4.092   5.218   1.931  1.9953  1.0082  1.7955
   58GLOH   H07 8990   3.953   5.313   1.994  3.4086  1.2293 -0.5574
   58GLOH    O3 8991   3.912   5.169   1.850  0.2763  0.1518 -0.6007
   58GLOH   H01 8992   3.890   5.242   1.789  0.6815 -0.9302 -2.0790
   59GLOH   H03 8993   3.254   5.250   0.171 -1.5105  1.6943  0.8285
   59GLOH    O1 8994   3.293   5.334   0.139  0.2348  0.5764 -0.0203
   59GLOH    C1 8995   3.321   5.406   0.264 -0.4208 -0.1844 -0.6905
   59GLOH   H02 8996   3.344   5.346   0.352  0.9340 -0.2655 -1.0755
   59GLOH   H08 8997   3.223   5.445   0.292  0.2122 -0.4596  2.0313
   59GLOH    C2 8998   3.415   5.527   0.257  0.0736  0.1346  0.4835
   59GLOH   H04 8999   3.369   5.606   0.195  0.9996  0.7408  0.5515
   59GLOH    O2 9000   3.434   5.569   0.397  0.3675  0.4026 -1.0531
   59GLOH   H05 9001   3.355   5.612   0.433  0.9141  2.6603 -2.4100
   59GLOH    C3 9002   3.562   5.489   0.210 -0.7196  0.0683  0.0317
   59GLOH   H06 9003   3.635   5.569   0.219  2.3220 -2.7873  1.7675
   59GLOH   H07 9004   3.565   5.466   0.103  1.9026 -0.9099  0.2877
   59GLOH    O3 9005   3.629   5.382   0.283 -0.2825  0.3689 -0.7350
   59GLOH   H01 9006   3.616   5.397   0.378  1.2337 -0.0034 -0.4697
   60GLOH   H03 9007   4.326   4.701   0.977 -0.3775  1.3488  1.0661
   60GLOH    O1 9008   4.236   4.668   0.994 -0.1262 -0.0912 -0.3345
   60GLOH    C1 9009   4.170   4.661   0.867  0.1379 -0.5063  0.4400
   60GLOH   H02 9010   4.191   4.564   0.823 -0.2236 -0.0377 -0.7744
   60GLOH   H08 9011   4.210   4.732   0.794  0.0371  0.8896  1.7211
   60GLOH    C2 9012   4.014   4.684   0.876 -0.4674 -0.5961  0.5135
   60GLOH   H04 9013   3.998   4.784   0.918 -1.3364  0.6613 -2.6460
   60GLOH    O2 9014   3.968   4.673   0.736 -0.2766  0.0685  0.2422
   60GLOH   H05 9015   4.011   4.596   0.696 -0.2618  0.4342 -0.4542
   60GLOH    C3 9016   3.950   4.573   0.962  0.9020 -0.2135 -0.2646
   60GLOH   H06 9017   3.844   4.594   0.979  0.7510 -0.2489 -1.1338
   60GLOH   H07 9018   4.000   4.576   1.058  0.3016  2.0767  0.0209
   60GLOH    O3 9019   3.969   4.440   0.910 -0.1578 -0.3100 -0.2478
   60GLOH   H01 9020   3.941   4.370   0.971  0.1565  0.0548  0.3195
   61GLOH   H03 9021   4.238   5.091   1.713  2.9324 -0.8650  0.7873
   61GLOH    O1 9022   4.252   5.187   1.725 -0.6460 -0.2152  0.1033
   61GLOH    C1 9023   4.349   5.234   1.628  0.1492  1.0706  0.1184
   61GLOH   H02 9024   4.348   5.170   1.539 -0.6613  0.5428  0.4984
   61GLOH   H08 9025   4.449   5.219   1.669  0.4592  0.3473 -0.8756
   61GLOH    C2 9026   4.324   5.377   1.576  0.2898 -0.2127 -0.2156
   61GLOH   H04 9027   4.359   5.454   1.647 -2.8249  0.9629  0.1449
   61GLOH    O2 9028   4.383   5.404   1.452 -0.1586  0.2952  0.2506
   61GLOH   H05 9029   4.340   5.353   1.382  0.8857  1.5892 -1.3678
   61GLOH    C3 9030   4.175   5.404   1.558  0.2905 -0.0642  0.4189
   61GLOH   H06 9031   4.140   5.342   1.475 -0.6551  0.0250  0.7444
   61GLOH   H07 9032   4.165   5.510   1.534  1.9233  0.1075  0.4585
   61GLOH    O3 9033   4.102   5.374   1.672 -0.2386 -0.0317  0.5022
   61GLOH   H01 9034   4.161   5.306   1.709 -0.5807  0.2740  1.6406
   62GLOH   H03 9035   4.476   1.942   0.250  1.4121  0.0111 -1.1509
   62GLOH    O1 9036   4.506   1.856   0.283  0.2828  0.1226  0.2223
   62GLOH    C1 9037   4.595   1.803   0.187  0.1434 -0.1215 -0.1815
   62GLOH   H02 9038   4.691   1.855   0.194 -0.5405  1.1084  0.2737
   62GLOH   H08 9039   4.564   1.839   0.088 -1.1079 -0.0609  0.2209
   62GLOH    C2 9040   4.621   1.650   0.184  0.5673  0.0943 -0.0833
   62GLOH   H04 9041   4.524   1.599   0.191  1.3233 -1.2166  1.2025
   62GLOH    O2 9042   4.701   1.604   0.076 -0.0956  0.0568 -0.0145
   62GLOH   H05 9043   4.645   1.605  -0.004 -1.0958  4.0444  0.6487
   62GLOH    C3 9044   4.695   1.600   0.312 -0.3502  0.3304 -0.2354
   62GLOH   H06 9045   4.792   1.650   0.311 -0.0426 -0.2178  1.5173
   62GLOH   H07 9046   4.728   1.496   0.302 -0.4312  0.0279  2.3660
   62GLOH    O3 9047   4.635   1.613   0.444  0.0311 -0.2783 -0.4125
   62GLOH   H01 9048   4.575   1.540   0.465 -0.3808  0.0298 -0.5006
   63GLOH   H03 9049   1.149   3.673   1.540  0.7565  2.8958 -2.7155
   63GLOH    O1 9050   1.052   3.678   1.531  0.3066 -0.0312 -0.2062
   63GLOH    C1 9051   1.024   3.774   1.432 -0.6609  0.5238  0.6498
   63GLOH   H02 9052   1.091   3.753   1.349 -0.3404 -1.9513  1.5124
   63GLOH   H08 9053   1.050   3.874   1.467 -1.1338  0.8252  0.1513
   63GLOH    C2 9054   0.877   3.768   1.380  0.6610 -0.6079 -0.2566
   63GLOH   H04 9055   0.865   3.665   1.343 -1.4754 -0.4923  0.0435
   63GLOH    O2 9056   0.773   3.797   1.476 -0.4639 -0.4323  0.2515
   63GLOH   H05 9057   0.763   3.892   1.492  1.7240  0.2742 -2.3224
   63GLOH    C3 9058   0.865   3.868   1.261 -0.0082  0.9074 -0.3626
   63GLOH   H06 9059   0.889   3.971   1.285  1.4817  0.2109  1.1754
   63GLOH   H07 9060   0.759   3.867   1.232 -0.3199 -1.8753  0.6627
   63GLOH    O3 9061   0.948   3.822   1.147 -0.3051 -0.5517  0.3900
   63GLOH   H01 9062   0.913   3.874   1.072 -3.2234  0.3168  2.2584
   64GLOH   H03 9063   0.167   3.400   0.666  0.7407  0.0514  3.0260
   64GLOH    O1 9064   0.190   3.494   0.656  0.4665 -0.1376  0.2012
   64GLOH    C1 9065   0.313   3.510   0.726 -0.5034  0.5491 -0.2017
   64GLOH   H02 9066   0.305   3.501   0.834 -2.2814  0.7946 -0.2902
   64GLOH   H08 9067   0.347   3.612   0.704  1.8581 -0.4703 -1.4315
   64GLOH    C2 9068   0.422   3.411   0.686  0.0626  0.7396 -0.5018
   64GLOH   H04 9069   0.448   3.415   0.579 -1.9484 -2.5262 -1.1853
   64GLOH    O2 9070   0.539   3.422   0.767 -0.0087  0.1730  0.2924
   64GLOH   H05 9071   0.556   3.517   0.781  0.3026  0.4783 -1.9234
   64GLOH    C3 9072   0.376   3.261   0.702  0.1331 -0.3438 -0.0501
   64GLOH   H06 9073   0.375   3.247   0.810  0.8528  0.3465  0.0534
   64GLOH   H07 9074   0.454   3.200   0.656  0.3665  0.4602 -0.7379
   64GLOH    O3 9075   0.242   3.231   0.650 -0.2576  0.2768 -0.5879
   64GLOH   H01 9076   0.247   3.244   0.553 -2.2052 -1.5468 -0.9759
   65GLOH   H03 9077   2.905   6.828   2.275  0.7370  0.2172  1.6072
   65GLOH    O1 9078   2.903   6.731   2.268 -0.1724  0.3397 -0.0878
   65GLOH    C1 9079   2.896   6.688   2.405 -0.2304 -0.0321  0.4976
   65GLOH   H02 9080   2.995   6.663   2.442 -0.2397  1.1063  1.3228
   65GLOH   H08 9081   2.837   6.596   2.406 -1.2255  0.6000  1.1751
   65GLOH    C2 9082   2.827   6.786   2.499  0.6659 -0.7435 -0.1450
   65GLOH   H04 9083   2.724   6.802   2.462  0.7785  0.6519  0.1392
   65GLOH    O2 9084   2.817   6.737   2.633  0.6317 -0.1348  0.3824
   65GLOH   H05 9085   2.740   6.682   2.654 -0.6900  0.6515 -2.1272
   65GLOH    C3 9086   2.894   6.923   2.501 -0.3372  0.1759  0.0934
   65GLOH   H06 9087   2.997   6.902   2.529 -1.1305 -2.6050  1.1741
   65GLOH   H07 9088   2.852   6.988   2.577 -2.2011  0.2468 -0.9693
   65GLOH    O3 9089   2.892   6.980   2.370  0.1070 -0.0425  0.6344
   65GLOH   H01 9090   2.890   7.077   2.373  2.2448  0.1211 -1.7967
   66GLOH   H03 9091   3.868   8.440   1.785  0.1798 -0.3467 -0.5381
   66GLOH    O1 9092   3.931   8.515   1.792  0.4847 -0.6444 -0.1227
   66GLOH    C1 9093   3.921   8.585   1.911  0.9533 -0.1086 -0.4711
   66GLOH   H02 9094   3.820   8.623   1.924  0.2348 -2.3062  0.7107
   66GLOH   H08 9095   3.991   8.667   1.896  2.3256 -1.6455 -2.8633
   66GLOH    C2 9096   3.952   8.521   2.046  0.0036 -0.3114 -0.0010
   66GLOH   H04 9097   4.061   8.510   2.058 -0.0698 -0.5608  0.4691
   66GLOH    O2 9098   3.915   8.612   2.157 -0.4399 -0.7522  0.4182
   66GLOH   H05 9099   3.831   8.660   2.155 -0.5062 -0.9132 -2.0939
   66GLOH    C3 9100   3.891   8.377   2.047 -0.1721 -0.1773 -0.4054
   66GLOH   H06 9101   3.930   8.332   2.138 -0.1285 -0.1623 -0.4166
   66GLOH   H07 9102   3.944   8.323   1.968  2.4690  0.9037  0.5628
   66GLOH    O3 9103   3.747   8.362   2.036 -0.0517 -0.6878  0.0505
   66GLOH   H01 9104   3.706   8.373   2.124  2.7606 -0.5740  1.4127
   67GLOH   H03 9105   3.716   5.684   1.681 -1.8346 -0.3104 -0.5816
   67GLOH    O1 9106   3.758   5.616   1.625  0.2923  0.5856 -0.1475
   67GLOH    C1 9107   3.722   5.653   1.491  0.3587  0.1072 -0.6887
   67GLOH   H02 9108   3.750   5.757   1.473 -1.2484  0.7965  0.6158
   67GLOH   H08 9109   3.618   5.642   1.459  0.9696 -3.0070 -1.7214
   67GLOH    C2 9110   3.804   5.580   1.382 -0.6774  0.5735 -0.1807
   67GLOH   H04 9111   3.795   5.471   1.384 -2.6649  0.7090  3.0277
   67GLOH    O2 9112   3.778   5.627   1.253 -0.5441 -0.2147 -0.7878
   67GLOH   H05 9113   3.856   5.627   1.196 -0.4247  2.0204 -0.6443
   67GLOH    C3 9114   3.954   5.609   1.414 -0.1799 -0.6181  0.1272
   67GLOH   H06 9115   3.972   5.559   1.509  0.6231 -0.5465  0.0139
   67GLOH   H07 9116   3.954   5.715   1.441  0.6586 -0.8604  1.1005
   67GLOH    O3 9117   4.047   5.578   1.313 -0.0052 -0.1939  0.5371
   67GLOH   H01 9118   4.125   5.632   1.333 -1.0424  1.0389  1.3357
   68GLOH   H03 9119   1.436   5.263   1.726  1.9287  0.3499 -2.0950
   68GLOH    O1 9120   1.412   5.357   1.720 -0.2242 -0.0200 -0.0201
   68GLOH    C1 9121   1.325   5.390   1.827 -0.1744 -0.5200 -0.5843
   68GLOH   H02 9122   1.298   5.495   1.823 -0.8414 -0.5931  1.5276
   68GLOH   H08 9123   1.361   5.373   1.928 -0.6701 -0.5248 -0.4057
   68GLOH    C2 9124   1.192   5.314   1.819 -0.1974 -0.0220  0.0440
   68GLOH   H04 9125   1.213   5.207   1.803 -2.1558 -0.0516 -2.6487
   68GLOH    O2 9126   1.119   5.341   1.942 -0.2390 -0.6232 -0.4158
   68GLOH   H05 9127   1.143   5.424   1.987 -1.3433 -0.3061 -0.4095
   68GLOH    C3 9128   1.113   5.356   1.697 -0.1350  0.1864  0.0117
   68GLOH   H06 9129   1.181   5.340   1.613 -0.3905  1.8529 -0.5092
   68GLOH   H07 9130   1.080   5.459   1.704 -0.8364 -0.1086  1.3209
   68GLOH    O3 9131   0.991   5.281   1.680 -0.2691 -0.0152  0.7930
   68GLOH   H01 9132   0.950   5.298   1.593  2.5546 -0.7820 -0.7920
   69GLOH   H03 9133   3.586   5.208   1.754  0.2482  1.6344  1.1800
   69GLOH    O1 9134   3.551   5.242   1.670  0.4095 -0.4125  0.2316
   69GLOH    C1 9135   3.642   5.233   1.558  0.1498 -0.3945  0.0517
   69GLOH   H02 9136   3.698   5.140   1.569  0.7877 -0.0288 -0.0535
   69GLOH   H08 9137   3.713   5.315   1.569  0.1588 -0.4528  0.4320
   69GLOH    C2 9138   3.566   5.238   1.423 -0.6346 -0.0600 -0.7241
   69GLOH   H04 9139   3.499   5.325   1.423  0.7557  1.0329  0.0523
   69GLOH    O2 9140   3.664   5.262   1.322 -0.0342 -0.0779  0.3054
   69GLOH   H05 9141   3.620   5.253   1.235 -0.4057  0.2928  0.4523
   69GLOH    C3 9142   3.494   5.104   1.397 -0.1005 -0.7286  0.1398
   69GLOH   H06 9143   3.470   5.060   1.493 -1.9310  3.6711  1.8154
   69GLOH   H07 9144   3.563   5.031   1.354  1.0587  0.2651  0.2801
   69GLOH    O3 9145   3.378   5.110   1.310 -0.6526  0.3118 -0.2083
   69GLOH   H01 9146   3.381   5.035   1.248 -1.2338  0.5273 -0.4995
   70GLOH   H03 9147   4.900   3.568   0.714  1.4284  0.3665  0.5007
   70GLOH    O1 9148   4.900   3.598   0.621  0.0808  0.1971  0.4270
   70GLOH    C1 9149   4.957   3.726   0.597 -0.4656  0.6533 -0.3104
   70GLOH   H02 9150   5.052   3.722   0.650 -0.5681 -0.6593 -0.2225
   70GLOH   H08 9151   4.887   3.803   0.629  0.4620  1.1852  0.4598
   70GLOH    C2 9152   5.003   3.749   0.454 -0.3308  0.1939 -0.3394
   70GLOH   H04 9153   4.913   3.761   0.392 -1.2633  2.0189  1.3336
   70GLOH    O2 9154   5.077   3.872   0.442  0.3795 -0.0540 -0.3332
   70GLOH   H05 9155   5.068   3.908   0.352  1.7032 -1.8514 -1.2261
   70GLOH    C3 9156   5.089   3.638   0.402 -0.1977  0.2657  0.0480
   70GLOH   H06 9157   5.178   3.626   0.465 -0.1862 -0.8489 -0.1683
   70GLOH   H07 9158   5.122   3.660   0.301 -0.7727  1.6614  0.1589
   70GLOH    O3 9159   5.014   3.516   0.388 -0.1561  0.1533 -0.1224
   70GLOH   H01 9160   4.986   3.487   0.476 -2.6156  1.0923 -0.5561
   71GLOH   H03 9161   1.928   4.796   1.600  0.8541  1.5993  0.8906
   71GLOH    O1 9162   1.984   4.729   1.644  0.3353  0.3861 -0.2885
   71GLOH    C1 9163   1.920   4.598   1.629 -0.8672 -0.6802 -0.0387
   71GLOH   H02 9164   1.988   4.516   1.603 -2.0773 -0.8461 -2.9571
   71GLOH   H08 9165   1.848   4.600   1.547 -0.1126  0.2959 -0.6907
   71GLOH    C2 9166   1.847   4.554   1.757 -0.1314  0.6459  0.2320
   71GLOH   H04 9167   1.815   4.454   1.724 -0.0445  1.0857 -1.2111
   71GLOH    O2 9168   1.941   4.520   1.870 -0.2071  0.0822 -0.1358
   71GLOH   H05 9169   1.997   4.592   1.904  1.3993 -1.2897  0.1991
   71GLOH    C3 9170   1.726   4.634   1.805  0.0548 -0.1717  0.0747
   71GLOH   H06 9171   1.751   4.737   1.833  1.4311 -0.7441  1.0137
   71GLOH   H07 9172   1.692   4.594   1.901  0.8517 -3.2501 -0.8689
   71GLOH    O3 9173   1.626   4.637   1.712 -0.2292 -0.0771  0.7041
   71GLOH   H01 9174   1.568   4.562   1.733 -0.2804 -0.2722 -0.1122
   72GLOH   H03 9175   1.776   1.356   0.480  0.2730  0.4223  0.2673
   72GLOH    O1 9176   1.704   1.420   0.463 -0.0203  0.0659  0.1525
   72GLOH    C1 9177   1.679   1.500   0.578 -0.1930  0.8766 -0.5655
   72GLOH   H02 9178   1.648   1.434   0.659  0.3749  1.1914 -0.0870
   72GLOH   H08 9179   1.602   1.574   0.554 -1.8157 -0.6611 -0.1901
   72GLOH    C2 9180   1.802   1.570   0.644 -0.3126 -0.2022  0.4746
   72GLOH   H04 9181   1.886   1.499   0.641  0.4499  0.7072  0.1034
   72GLOH    O2 9182   1.838   1.688   0.571  0.4299  0.1463 -0.1476
   72GLOH   H05 9183   1.935   1.684   0.559  0.4781 -1.7108  0.7733
   72GLOH    C3 9184   1.776   1.602   0.791 -0.0111  0.4090  0.3817
   72GLOH   H06 9185   1.684   1.659   0.802  0.2241  1.5087 -2.8288
   72GLOH   H07 9186   1.855   1.671   0.824  0.5773  0.2355 -0.6452
   72GLOH    O3 9187   1.773   1.485   0.869  0.2598  0.8592 -0.0067
   72GLOH   H01 9188   1.850   1.429   0.850 -0.6627 -0.8521  1.1754
   73GLOH   H03 9189   4.463   2.883   1.147  2.6922 -0.0148 -1.2487
   73GLOH    O1 9190   4.487   2.901   1.240 -0.4092  0.3879 -0.4761
   73GLOH    C1 9191   4.614   2.964   1.270  0.1051  0.4567 -0.0944
   73GLOH   H02 9192   4.626   2.954   1.378 -0.8281 -2.0311 -0.1859
   73GLOH   H08 9193   4.636   3.064   1.233 -0.7869 -0.1147 -2.2933
   73GLOH    C2 9194   4.723   2.873   1.213 -0.5659  0.0727  0.8918
   73GLOH   H04 9195   4.730   2.777   1.265 -1.6357  0.0084  0.9091
   73GLOH    O2 9196   4.712   2.854   1.068 -1.0433 -0.1865  0.4600
   73GLOH   H05 9197   4.632   2.799   1.057 -0.9491 -0.2148 -0.1131
   73GLOH    C3 9198   4.862   2.939   1.227 -0.4859  0.1965 -0.0432
   73GLOH   H06 9199   4.861   3.035   1.176  0.8920 -0.9509 -2.2895
   73GLOH   H07 9200   4.936   2.880   1.172  0.5011 -0.8913  2.3459
   73GLOH    O3 9201   4.916   2.961   1.353  0.3358 -0.1705 -0.0914
   73GLOH   H01 9202   4.867   2.910   1.419  1.6476 -1.3519  0.0024
   74GLOH   H03 9203   9.215   4.356   2.560 -1.5145 -0.1194 -1.4223
   74GLOH    O1 9204   9.173   4.440   2.588  0.2075  0.1354  0.5804
   74GLOH    C1 9205   9.109   4.495   2.470 -0.4516 -0.4129  0.2088
   74GLOH   H02 9206   9.047   4.581   2.492 -1.6829 -1.1668 -0.2782
   74GLOH   H08 9207   9.034   4.417   2.458 -0.8507 -0.0131  0.1023
   74GLOH    C2 9208   9.184   4.515   2.335  0.0139  0.0284  0.0651
   74GLOH   H04 9209   9.270   4.579   2.361  0.2876  0.2118 -1.2428
   74GLOH    O2 9210   9.233   4.398   2.278  0.0077 -0.2682 -0.1287
   74GLOH   H05 9211   9.301   4.350   2.329  0.5597 -2.0642 -2.4631
   74GLOH    C3 9212   9.090   4.608   2.250  0.0539  0.1522 -0.7400
   74GLOH   H06 9213   8.990   4.565   2.248 -0.5413  1.4781 -0.3790
   74GLOH   H07 9214   9.113   4.603   2.144  1.8257 -1.3811 -0.3019
   74GLOH    O3 9215   9.086   4.743   2.301 -0.0773  0.7662  0.1678
   74GLOH   H01 9216   9.179   4.769   2.284  1.2447 -3.5783  0.0936
   75GLOH   H03 9217   8.935   5.585   1.779 -3.0204 -1.6296 -0.5597
   75GLOH    O1 9218   8.945   5.517   1.848 -0.4544 -0.2803  0.5002
   75GLOH    C1 9219   8.823   5.446   1.858  0.3329  0.3750 -0.5467
   75GLOH   H02 9220   8.738   5.514   1.845  0.4992  0.6135 -0.3787
   75GLOH   H08 9221   8.803   5.419   1.962 -1.7301  1.6074 -0.5919
   75GLOH    C2 9222   8.807   5.333   1.753 -0.3403 -0.0622 -0.1505
   75GLOH   H04 9223   8.895   5.269   1.764 -0.1379  0.5330  1.9648
   75GLOH    O2 9224   8.689   5.255   1.780  0.1028 -0.0661  0.3189
   75GLOH   H05 9225   8.714   5.165   1.752  0.7416 -0.8378  3.2199
   75GLOH    C3 9226   8.807   5.379   1.606 -0.2458 -0.3898  0.0911
   75GLOH   H06 9227   8.719   5.442   1.590 -0.2051 -0.1264  0.9319
   75GLOH   H07 9228   8.794   5.299   1.532  1.3027 -1.1717  0.6523
   75GLOH    O3 9229   8.929   5.457   1.563 -0.1183  0.3564 -0.2931
   75GLOH   H01 9230   9.008   5.400   1.567 -1.2583 -1.2204  0.1920
   76GLOH   H03 9231   4.533   4.309   1.760  1.0927 -1.4161 -4.5035
   76GLOH    O1 9232   4.468   4.371   1.723  0.1777  0.4073 -0.1646
   76GLOH    C1 9233   4.436   4.322   1.595 -0.2140 -0.1794 -0.0741
   76GLOH   H02 9234   4.509   4.360   1.524  1.0295  1.9326  2.2579
   76GLOH   H08 9235   4.340   4.361   1.562 -0.5391  0.5303  1.6178
   76GLOH    C2 9236   4.421   4.169   1.580 -0.2222 -0.4702 -0.5260
   76GLOH   H04 9237   4.338   4.132   1.642  0.5030 -1.0168  0.1284
   76GLOH    O2 9238   4.381   4.144   1.447  0.0453  0.0741  0.2304
   76GLOH   H05 9239   4.357   4.050   1.453  0.1128 -0.0252 -1.0329
   76GLOH    C3 9240   4.551   4.097   1.616 -0.2910 -0.4421  0.2034
   76GLOH   H06 9241   4.622   4.136   1.544  1.5371  0.4630  2.4581
   76GLOH   H07 9242   4.549   3.990   1.594 -1.6409 -0.7555  1.6988
   76GLOH    O3 9243   4.591   4.129   1.749  0.2374  0.1532  0.8559
   76GLOH   H01 9244   4.676   4.085   1.764  1.5225  2.3939  0.3729
   77GLOH   H03 9245   2.522   8.360   0.339  0.7208 -0.0837  0.7827
   77GLOH    O1 9246   2.519   8.424   0.412 -0.7401  0.3481  0.3503
   77GLOH    C1 9247   2.384   8.473   0.397 -0.8279  0.4042 -1.2248
   77GLOH   H02 9248   2.317   8.387   0.396  1.0618 -1.1404  0.1160
   77GLOH   H08 9249   2.382   8.535   0.307  0.6507 -0.8056 -2.1114
   77GLOH    C2 9250   2.316   8.568   0.491 -0.7473  0.0596 -0.3478
   77GLOH   H04 9251   2.346   8.672   0.474  1.4269  0.1942  3.7323
   77GLOH    O2 9252   2.176   8.577   0.478  0.3806  0.1337  0.0829
   77GLOH   H05 9253   2.136   8.526   0.550  2.2815  2.2622  2.7783
   77GLOH    C3 9254   2.350   8.532   0.637 -0.2856 -0.6540  0.4700
   77GLOH   H06 9255   2.312   8.615   0.696  0.2419 -0.2618  0.2641
   77GLOH   H07 9256   2.458   8.540   0.655 -0.2575  2.5135 -0.6463
   77GLOH    O3 9257   2.300   8.404   0.683  0.0034  0.1690 -0.1798
   77GLOH   H01 9258   2.205   8.415   0.702  0.0829  1.2405 -0.3480
   78GLOH   H03 9259   5.297   3.024   1.400  0.2545 -0.0453 -0.0097
   78GLOH    O1 9260   5.394   3.030   1.396  0.2682 -0.3846 -0.1847
   78GLOH    C1 9261   5.422   3.018   1.255 -0.4790  0.2163  0.0072
   78GLOH   H02 9262   5.445   2.917   1.221  0.1534  0.2941  0.1841
   78GLOH   H08 9263   5.515   3.070   1.229  0.4742 -1.0672  0.7760
   78GLOH    C2 9264   5.314   3.076   1.163  0.4615 -0.2582  0.5760
   78GLOH   H04 9265   5.321   3.185   1.179  0.0847  0.3230 -2.9914
   78GLOH    O2 9266   5.352   3.067   1.024 -0.0228 -0.5192 -0.3521
   78GLOH   H05 9267   5.400   3.149   1.007  2.9711 -1.7638  1.7470
   78GLOH    C3 9268   5.181   3.022   1.208  0.5023 -0.2321  0.8612
   78GLOH   H06 9269   5.186   2.915   1.188 -1.7504  0.0313 -1.3403
   78GLOH   H07 9270   5.110   3.074   1.144  0.5028 -0.7389  0.4437
   78GLOH    O3 9271   5.155   3.040   1.349 -0.3035  0.1625 -0.2546
   78GLOH   H01 9272   5.063   3.011   1.369 -1.0046  2.0797 -0.6092
   79GLOH   H03 9273   3.950   9.075   2.602 -0.5693  1.2087  0.1679
   79GLOH    O1 9274   3.898   9.065   2.520  0.2136  0.5291 -0.2647
   79GLOH    C1 9275   3.957   9.152   2.419  0.0499  0.4276 -0.0735
   79GLOH   H02 9276   3.962   9.257   2.448  2.0374  0.5498 -0.7881
   79GLOH   H08 9277   3.894   9.146   2.331 -0.8722  1.8258  0.4696
   79GLOH    C2 9278   4.099   9.103   2.379 -0.0936 -0.0813  0.0111
   79GLOH   H04 9279   4.083   9.000   2.345 -1.4541 -0.2867  1.2528
   79GLOH    O2 9280   4.131   9.196   2.269 -0.0972  0.1357  0.0004
   79GLOH   H05 9281   4.085   9.169   2.188 -0.4329  0.2282  0.1598
   79GLOH    C3 9282   4.205   9.113   2.488 -0.3005 -0.1472  0.2140
   79GLOH   H06 9283   4.228   9.217   2.507  0.5321 -0.6390  2.0193
   79GLOH   H07 9284   4.291   9.067   2.439  0.8152  1.0510  1.0126
   79GLOH    O3 9285   4.185   9.032   2.608  0.3680 -0.8994  0.1973
   79GLOH   H01 9286   4.152   8.944   2.583  1.0439 -1.1986  0.3330
   80GLOH   H03 9287   3.480   1.795   0.954 -0.6433  1.1862 -1.7986
   80GLOH    O1 9288   3.402   1.739   0.939 -0.1107 -0.0066 -0.2025
   80GLOH    C1 9289   3.440   1.662   0.822  0.1387  0.2941 -0.0181
   80GLOH   H02 9290   3.538   1.619   0.841  0.2583 -0.1552 -1.6179
   80GLOH   H08 9291   3.448   1.729   0.737  1.5177  0.4764  0.2436
   80GLOH    C2 9292   3.344   1.546   0.787 -0.4368  0.1445  0.0265
   80GLOH   H04 9293   3.245   1.595   0.782 -0.3804  0.5795  2.3610
   80GLOH    O2 9294   3.383   1.495   0.660  0.2889  0.3968  0.1372
   80GLOH   H05 9295   3.345   1.540   0.583  0.6104  0.2505 -0.1107
   80GLOH    C3 9296   3.340   1.440   0.900 -0.3965 -0.4513  0.5337
   80GLOH   H06 9297   3.323   1.494   0.993 -1.4050  0.0019  0.1029
   80GLOH   H07 9298   3.442   1.401   0.906 -0.0522  0.1574 -1.1296
   80GLOH    O3 9299   3.244   1.336   0.891  0.0511 -0.4942 -0.0208
   80GLOH   H01 9300   3.176   1.365   0.828 -1.6378  0.6586  2.2361
   81GLOH   H03 9301   1.833   5.772   2.510  2.5662 -0.3955 -0.3802
   81GLOH    O1 9302   1.846   5.868   2.506 -0.2918  0.0244 -0.5293
   81GLOH    C1 9303   1.989   5.888   2.498  0.0884  0.1683  0.3789
   81GLOH   H02 9304   2.003   5.920   2.395 -1.5457  0.7682  0.3295
   81GLOH   H08 9305   2.041   5.792   2.509  0.1712 -0.3213 -3.5889
   81GLOH    C2 9306   2.042   5.984   2.601  0.7488 -0.4003 -0.3737
   81GLOH   H04 9307   2.017   5.949   2.703  0.1589 -0.2078 -0.4530
   81GLOH    O2 9308   2.187   5.988   2.581  0.3816  0.4392  0.5754
   81GLOH   H05 9309   2.218   5.981   2.673  1.0879 -1.1973  0.2368
   81GLOH    C3 9310   1.978   6.125   2.580 -0.7775  0.1335 -0.0121
   81GLOH   H06 9311   2.012   6.163   2.484 -2.8397  2.3732  0.1014
   81GLOH   H07 9312   1.994   6.190   2.665 -1.7769  0.9272 -0.4221
   81GLOH    O3 9313   1.836   6.103   2.573  0.0912  0.0348  0.0471
   81GLOH   H01 9314   1.836   6.010   2.543  0.0877 -0.4082  1.3643
   82GLOH   H03 9315   2.611   0.381  -0.072  1.6130  1.4281 -0.0799
   82GLOH    O1 9316   2.676   0.317  -0.106  0.0571  0.0129 -0.4621
   82GLOH    C1 9317   2.644   0.194  -0.043  0.1054 -0.1557  0.0121
   82GLOH   H02 9318   2.714   0.120  -0.081 -0.1728  0.3207 -1.4893
   82GLOH   H08 9319   2.541   0.171  -0.071  0.1708 -0.9240  0.3908
   82GLOH    C2 9320   2.653   0.203   0.111 -0.1375  0.2320 -0.2589
   82GLOH   H04 9321   2.749   0.237   0.153  0.5581 -3.6431  1.4839
   82GLOH    O2 9322   2.552   0.292   0.168  0.0611  0.1325  0.4597
   82GLOH   H05 9323   2.551   0.374   0.116  2.0858 -1.5931 -2.5147
   82GLOH    C3 9324   2.644   0.060   0.174  0.6986  0.3540 -0.7593
   82GLOH   H06 9325   2.545   0.026   0.145  0.7741  1.5745 -2.5166
   82GLOH   H07 9326   2.649   0.065   0.283 -1.3219  1.3129 -0.7077
   82GLOH    O3 9327   2.733  -0.038   0.123 -0.5068  0.1112 -0.1993
   82GLOH   H01 9328   2.825  -0.005   0.133  0.2192 -1.6483 -0.8189
   83GLOH   H03 9329   3.259   8.277   0.066  0.5461 -0.9647 -2.2487
   83GLOH    O1 9330   3.295   8.362   0.035 -0.0979  0.1577 -0.0368
   83GLOH    C1 9331   3.428   8.389   0.086  0.0310  0.2562 -0.4482
   83GLOH   H02 9332   3.448   8.337   0.179  1.0845  0.5351 -0.5119
   83GLOH   H08 9333   3.435   8.495   0.112 -2.1488  0.2047  0.4194
   83GLOH    C2 9334   3.531   8.334  -0.019 -0.2954  0.1241  0.6328
   83GLOH   H04 9335   3.523   8.397  -0.109 -1.5864 -0.9344 -0.0191
   83GLOH    O2 9336   3.663   8.340   0.034 -0.4973  0.8315 -0.5442
   83GLOH   H05 9337   3.719   8.303  -0.037  1.5717 -0.2845  1.6304
   83GLOH    C3 9338   3.503   8.188  -0.062 -0.1934  0.3589  0.0420
   83GLOH   H06 9339   3.593   8.147  -0.109 -1.4134 -0.9461 -1.2249
   83GLOH   H07 9340   3.438   8.194  -0.149  1.4536 -2.6275 -1.5005
   83GLOH    O3 9341   3.455   8.097   0.038  0.5057  0.3819  0.0307
   83GLOH   H01 9342   3.502   8.114   0.122 -0.5326  2.0671  0.3034
   84GLOH   H03 9343   0.788   4.809   2.398  1.3793 -0.4445  0.8252
   84GLOH    O1 9344   0.735   4.737   2.437  0.3085 -0.1149 -0.0033
   84GLOH    C1 9345   0.832   4.665   2.521 -0.1873  0.4996  0.1102
   84GLOH   H02 9346   0.884   4.740   2.580  2.2320 -0.6599 -0.4933
   84GLOH   H08 9347   0.912   4.607   2.475 -2.5764 -2.4185 -0.5923
   84GLOH    C2 9348   0.756   4.569   2.617 -0.3882 -1.0680 -0.0140
   84GLOH   H04 9349   0.702   4.495   2.556 -0.9045 -0.5528 -0.1884
   84GLOH    O2 9350   0.845   4.495   2.693 -0.1574  0.1736  0.0349
   84GLOH   H05 9351   0.815   4.403   2.699 -0.1139  0.2573  1.8712
   84GLOH    C3 9352   0.647   4.646   2.698 -0.4544 -0.1335  0.3325
   84GLOH   H06 9353   0.679   4.741   2.739 -1.6856 -0.8684  3.1100
   84GLOH   H07 9354   0.630   4.589   2.790  0.7697 -0.9886  0.0459
   84GLOH    O3 9355   0.520   4.653   2.624 -0.0833 -0.2321 -0.1855
   84GLOH   H01 9356   0.533   4.634   2.529  0.2231 -0.9211 -0.0051
   85GLOH   H03 9357   2.888   1.749   2.366  0.4198  1.2967  1.4265
   85GLOH    O1 9358   2.797   1.780   2.352  0.1982 -0.1405 -0.6343
   85GLOH    C1 9359   2.766   1.862   2.471  0.7914  0.3511  1.3198
   85GLOH   H02 9360   2.677   1.921   2.450 -0.1391 -1.8308 -1.0358
   85GLOH   H08 9361   2.850   1.927   2.496  2.6250 -1.2721 -0.4628
   85GLOH    C2 9362   2.736   1.770   2.586 -0.4400 -0.2359 -0.1260
   85GLOH   H04 9363   2.706   1.672   2.547  1.6630 -0.5759 -0.9916
   85GLOH    O2 9364   2.854   1.736   2.658 -0.3419  0.7097 -0.1099
   85GLOH   H05 9365   2.870   1.788   2.738  2.2870 -1.9723  1.2188
   85GLOH    C3 9366   2.638   1.823   2.695 -0.2260 -0.0126  0.7818
   85GLOH   H06 9367   2.636   1.765   2.787 -0.8486 -0.5272  0.4485
   85GLOH   H07 9368   2.535   1.818   2.659 -0.0852  2.9060 -0.1737
   85GLOH    O3 9369   2.659   1.966   2.723  0.0738 -0.1314 -0.4868
   85GLOH   H01 9370   2.634   2.027   2.651  0.8252  0.7135 -0.0359
   86GLOH   H03 9371   3.027   7.469   1.371  0.6563  0.1994 -0.5100
   86GLOH    O1 9372   2.992   7.381   1.346 -0.1678  0.2533  0.4339
   86GLOH    C1 9373   2.951   7.385   1.203 -0.8474  0.3648  0.0737
   86GLOH   H02 9374   3.044   7.364   1.151 -0.9146 -1.8444  0.7973
   86GLOH   H08 9375   2.908   7.478   1.166 -1.4679  1.1872  2.7455
   86GLOH    C2 9376   2.849   7.275   1.166  0.1441  0.0879 -0.0922
   86GLOH   H04 9377   2.752   7.282   1.217 -1.4124 -1.5783 -2.7284
   86GLOH    O2 9378   2.818   7.281   1.032 -0.0942  0.0258  0.6104
   86GLOH   H05 9379   2.774   7.365   1.011 -0.1097  0.1085  0.9709
   86GLOH    C3 9380   2.903   7.137   1.210 -0.3715 -0.2810 -0.0762
   86GLOH   H06 9381   2.980   7.110   1.139 -0.1329  0.2827 -0.0350
   86GLOH   H07 9382   2.824   7.069   1.179 -0.0306 -0.5484 -0.3491
   86GLOH    O3 9383   2.959   7.126   1.345 -0.4167 -0.5711 -0.0852
   86GLOH   H01 9384   2.982   7.216   1.375 -0.5022 -0.3038 -0.8003
   87GLOH   H03 9385   3.116   1.542   1.460  1.6064 -0.7749 -2.4533
   87GLOH    O1 9386   3.185   1.584   1.514 -1.0510  0.4678  0.1135
   87GLOH    C1 9387   3.312   1.555   1.452  0.6535 -0.6107 -0.0432
   87GLOH   H02 9388   3.305   1.568   1.344  1.1118 -2.4482 -0.3104
   87GLOH   H08 9389   3.349   1.454   1.471  1.3194 -0.5756 -1.1815
   87GLOH    C2 9390   3.429   1.645   1.503 -0.0878 -0.0649  0.7506
   87GLOH   H04 9391   3.444   1.622   1.610  1.5768  0.2478  0.6080
   87GLOH    O2 9392   3.553   1.604   1.434 -1.0171  0.0175 -0.4756
   87GLOH   H05 9393   3.623   1.615   1.500  0.6595  0.8875 -2.3811
   87GLOH    C3 9394   3.389   1.793   1.482  0.1672  0.3540  0.2806
   87GLOH   H06 9395   3.391   1.816   1.376 -1.5934  2.6104  0.6982
   87GLOH   H07 9396   3.470   1.850   1.528  1.2351 -0.0401 -1.1146
   87GLOH    O3 9397   3.268   1.823   1.547  0.0729  0.0883  0.8791
   87GLOH   H01 9398   3.207   1.749   1.532  0.3750  0.4244 -2.2601
   88GLOH   H03 9399   5.125   4.106   2.007 -1.6285  2.1073 -0.5160
   88GLOH    O1 9400   5.146   4.127   1.915 -0.0964  0.2987 -0.6131
   88GLOH    C1 9401   5.116   4.008   1.838 -0.4213 -0.3697 -0.7449
   88GLOH   H02 9402   5.051   3.942   1.895 -0.6257  0.9417  0.5727
   88GLOH   H08 9403   5.207   3.956   1.811 -0.8964 -1.2110 -0.7181
   88GLOH    C2 9404   5.035   4.047   1.706 -0.2275  0.2822 -0.5902
   88GLOH   H04 9405   5.097   4.124   1.656  1.2476  0.1459  0.9750
   88GLOH    O2 9406   5.012   3.936   1.624 -0.2990  0.2198  1.3085
   88GLOH   H05 9407   5.069   3.860   1.643  1.0934  0.8171 -0.3448
   88GLOH    C3 9408   4.903   4.117   1.745  0.1659  0.1122 -0.6102
   88GLOH   H06 9409   4.859   4.169   1.660  2.3743  0.8914 -1.3184
   88GLOH   H07 9410   4.930   4.202   1.808  0.9202  0.3159 -1.1970
   88GLOH    O3 9411   4.817   4.032   1.825 -0.4234  0.5514 -0.3125
   88GLOH   H01 9412   4.807   4.083   1.908 -0.7189  1.5824 -0.9619
   89GLOH   H03 9413   9.669   3.335   2.038 -0.9671  1.5248  2.0836
   89GLOH    O1 9414   9.623   3.392   1.974  0.4265 -0.0352 -0.3957
   89GLOH    C1 9415   9.713   3.471   1.904  0.2158 -0.3329  0.3636
   89GLOH   H02 9416   9.665   3.532   1.828  1.3603 -0.3343 -0.3797
   89GLOH   H08 9417   9.787   3.412   1.849 -1.1775 -0.4059 -1.4847
   89GLOH    C2 9418   9.794   3.569   1.990  0.6179 -0.1414  0.6160
   89GLOH   H04 9419   9.860   3.510   2.055 -0.9411 -1.1632  1.3012
   89GLOH    O2 9420   9.873   3.658   1.908 -0.1131  0.1867  0.5307
   89GLOH   H05 9421   9.819   3.738   1.891  0.6434  0.2589 -1.6815
   89GLOH    C3 9422   9.707   3.649   2.084  0.5412  0.2832 -0.4579
   89GLOH   H06 9423   9.618   3.697   2.044  1.7793  2.9093 -0.1831
   89GLOH   H07 9424   9.765   3.735   2.118  0.6988 -0.7475  2.0069
   89GLOH    O3 9425   9.666   3.578   2.203  0.0333 -0.5558  0.2306
   89GLOH   H01 9426   9.570   3.589   2.216  0.0061  0.8023 -1.0234
   90GLOH   H03 9427   0.647   4.406   1.359 -0.7147  1.0976  1.1500
   90GLOH    O1 9428   0.664   4.331   1.419 -0.5315  0.1866 -0.0123
   90GLOH    C1 9429   0.626   4.204   1.358  0.2296 -0.1075  0.0414
   90GLOH   H02 9430   0.700   4.173   1.284 -1.4278 -0.1348 -1.6408
   90GLOH   H08 9431   0.527   4.206   1.312  1.0849  0.7325 -1.7787
   90GLOH    C2 9432   0.633   4.087   1.455  0.5061  0.0012  0.9638
   90GLOH   H04 9433   0.579   4.004   1.406  0.3221  0.8707 -0.3508
   90GLOH    O2 9434   0.770   4.054   1.481  0.0848  0.2771  0.4161
   90GLOH   H05 9435   0.827   4.124   1.517  2.8392 -2.1269  0.9492
   90GLOH    C3 9436   0.545   4.112   1.582  0.0207 -0.5870  0.0238
   90GLOH   H06 9437   0.601   4.183   1.643  0.2355 -2.1826  1.7355
   90GLOH   H07 9438   0.543   4.024   1.646  0.1882 -1.0830 -0.6396
   90GLOH    O3 9439   0.411   4.155   1.537 -0.0007  0.2991 -0.1935
   90GLOH   H01 9440   0.412   4.252   1.528 -0.2216  0.4452  1.1272
   91GLOH   H03 9441   2.959   1.063   0.266  0.5969  0.9379 -1.4615
   91GLOH    O1 9442   2.881   1.113   0.238 -0.8143 -0.0994  0.4265
   91GLOH    C1 9443   2.767   1.104   0.326  0.0509  0.2989 -0.7973
   91GLOH   H02 9444   2.769   1.165   0.416  3.2097 -2.2370  0.9615
   91GLOH   H08 9445   2.755   0.999   0.354 -0.9149  0.6166  0.0443
   91GLOH    C2 9446   2.640   1.122   0.244  1.1427  0.9317  0.2050
   91GLOH   H04 9447   2.625   1.045   0.167  0.1479 -1.4635  2.6983
   91GLOH    O2 9448   2.527   1.103   0.336  0.2984 -0.4467 -0.0855
   91GLOH   H05 9449   2.528   1.014   0.374  0.8659  0.2699  1.6247
   91GLOH    C3 9450   2.645   1.259   0.170  0.3695  0.3611  0.7549
   91GLOH   H06 9451   2.548   1.268   0.121 -1.0611  0.6352  3.5194
   91GLOH   H07 9452   2.716   1.267   0.088 -2.1933  1.1998 -1.4078
   91GLOH    O3 9453   2.661   1.373   0.261 -0.2400 -0.1016 -0.2311
   91GLOH   H01 9454   2.728   1.429   0.217  1.5600 -0.5433  1.8451
   92GLOH   H03 9455   2.064   6.933   2.353  1.1842 -0.1123 -1.1506
   92GLOH    O1 9456   2.139   6.948   2.413  0.3012  0.2267 -0.1135
   92GLOH    C1 9457   2.194   6.823   2.448 -0.3274  0.3171  0.1694
   92GLOH   H02 9458   2.236   6.782   2.357  0.2071 -0.5193  0.7886
   92GLOH   H08 9459   2.119   6.751   2.481 -0.9152  0.6787 -0.3701
   92GLOH    C2 9460   2.314   6.828   2.542  0.2266 -0.0446 -0.1943
   92GLOH   H04 9461   2.284   6.885   2.631  0.4937 -0.1883 -0.0121
   92GLOH    O2 9462   2.348   6.693   2.572 -0.5635  0.1584 -0.1787
   92GLOH   H05 9463   2.425   6.688   2.632 -0.5952  0.7107 -0.0921
   92GLOH    C3 9464   2.429   6.896   2.466 -0.2440 -0.1211  0.6840
   92GLOH   H06 9465   2.525   6.890   2.517  0.7289  1.5854 -0.8984
   92GLOH   H07 9466   2.401   6.998   2.442 -2.4854 -0.9661 -0.4471
   92GLOH    O3 9467   2.459   6.820   2.349 -0.1127 -0.0200  0.3548
   92GLOH   H01 9468   2.466   6.726   2.374 -0.4807  0.0973  0.9086
   93GLOH   H03 9469   3.684   5.512   1.190  1.3980 -1.0724 -0.2269
   93GLOH    O1 9470   3.622   5.454   1.142  0.1475  0.3870 -0.4198
   93GLOH    C1 9471   3.651   5.449   1.002 -0.1533 -0.0306  0.0190
   93GLOH   H02 9472   3.660   5.551   0.964 -0.7072  0.3431  0.8568
   93GLOH   H08 9473   3.584   5.394   0.937  0.7698 -1.3886  0.2048
   93GLOH    C2 9474   3.789   5.381   0.979  0.0512  0.5221  0.1537
   93GLOH   H04 9475   3.861   5.457   1.013 -0.1934  0.0822  1.6531
   93GLOH    O2 9476   3.802   5.258   1.052 -0.3419 -0.0282  0.4264
   93GLOH   H05 9477   3.881   5.270   1.108  0.4267  0.6207 -0.7507
   93GLOH    C3 9478   3.821   5.367   0.830  0.4907 -0.0690  0.0542
   93GLOH   H06 9479   3.921   5.325   0.820  0.6395  0.5961 -1.4861
   93GLOH   H07 9480   3.830   5.469   0.792 -0.7634  0.3818  0.9332
   93GLOH    O3 9481   3.721   5.297   0.759 -0.3176  0.7528  0.6189
   93GLOH   H01 9482   3.712   5.210   0.803  0.5786  0.4948  0.2970
   94GLOH   H03 9483   0.522   4.271   2.428  0.2382  0.0618  0.3560
   94GLOH    O1 9484   0.436   4.315   2.442  0.1843 -0.0146  0.2623
   94GLOH    C1 9485   0.334   4.219   2.414 -0.4120 -1.0764  0.1918
   94GLOH   H02 9486   0.250   4.242   2.480 -0.9336 -0.4098 -0.6938
   94GLOH   H08 9487   0.359   4.117   2.445  1.7769 -0.8716 -0.7665
   94GLOH    C2 9488   0.280   4.218   2.268 -0.2236  0.9853  0.5220
   94GLOH   H04 9489   0.363   4.191   2.201  0.5149 -0.2792  1.9167
   94GLOH    O2 9490   0.180   4.114   2.267  0.1893  0.3269 -0.4772
   94GLOH   H05 9491   0.185   4.079   2.176 -0.2490  0.6254 -0.6185
   94GLOH    C3 9492   0.219   4.355   2.224 -0.0023 -0.3810 -0.3159
   94GLOH   H06 9493   0.291   4.433   2.246 -1.8809  0.7756  2.0007
   94GLOH   H07 9494   0.132   4.376   2.286  0.2534 -4.1460  1.4656
   94GLOH    O3 9495   0.176   4.350   2.088  0.2499 -0.0462  0.0796
   94GLOH   H01 9496   0.259   4.343   2.038  0.2742  0.0802  0.1030
   95GLOH   H03 9497   2.862   9.737   1.510  0.0631 -0.6983 -1.4078
   95GLOH    O1 9498   2.810   9.804   1.462  0.0914  0.4130  0.0706
   95GLOH    C1 9499   2.827   9.791   1.323  0.1729 -0.3848  1.2067
   95GLOH   H02 9500   2.790   9.882   1.274  0.7823 -0.7349  0.0698
   95GLOH   H08 9501   2.759   9.720   1.275  0.6312  0.1073 -0.1934
   95GLOH    C2 9502   2.963   9.749   1.267 -0.6242 -0.0418 -0.6072
   95GLOH   H04 9503   2.998   9.664   1.327  0.8933  1.4440  0.6880
   95GLOH    O2 9504   2.968   9.712   1.129 -0.2562  0.8768  0.3438
   95GLOH   H05 9505   3.062   9.717   1.106 -0.6328  3.2086 -0.9067
   95GLOH    C3 9506   3.060   9.870   1.296 -0.5123 -0.0820  0.3229
   95GLOH   H06 9507   3.162   9.853   1.261 -0.0962  1.1900  0.8659
   95GLOH   H07 9508   3.068   9.872   1.405  0.2458 -1.5829  0.3060
   95GLOH    O3 9509   3.018   9.999   1.246  0.4733  0.3462  0.4747
   95GLOH   H01 9510   3.100  10.052   1.242 -1.0308  3.0387  2.8271
   96GLOH   H03 9511   4.151   0.913   2.219  3.0358 -2.4763 -0.8401
   96GLOH    O1 9512   4.134   0.834   2.274 -0.5465 -0.9944  0.3737
   96GLOH    C1 9513   4.047   0.739   2.208  0.2829 -0.1095 -0.7339
   96GLOH   H02 9514   4.066   0.636   2.240 -2.1952 -0.1895  0.6178
   96GLOH   H08 9515   4.049   0.744   2.099  0.3465  2.0236 -0.6562
   96GLOH    C2 9516   3.900   0.759   2.254 -0.0330  0.8248  0.1731
   96GLOH   H04 9517   3.866   0.858   2.221 -0.7181  1.2420  2.0358
   96GLOH    O2 9518   3.809   0.660   2.195  0.5306 -0.0758 -0.3639
   96GLOH   H05 9519   3.832   0.570   2.225 -2.9640 -1.3259 -1.1755
   96GLOH    C3 9520   3.888   0.729   2.406  0.1949  0.1598 -0.3592
   96GLOH   H06 9521   3.905   0.623   2.424 -0.3193  0.4758  2.3397
   96GLOH   H07 9522   3.782   0.749   2.423  0.1917 -1.4972  1.8027
   96GLOH    O3 9523   3.983   0.803   2.484  0.0608  0.1596 -0.1145
   96GLOH   H01 9524   4.063   0.818   2.431  0.9340 -1.9405  0.5766
   97GLOH   H03 9525   3.962   4.764   1.870  4.5932  0.7012  1.1195
   97GLOH    O1 9526   3.980   4.676   1.832  0.2421  0.4522 -0.6598
   97GLOH    C1 9527   3.890   4.572   1.869  0.4329 -0.3603 -0.0072
   97GLOH   H02 9528   3.841   4.518   1.788  1.2362 -3.8111  1.7215
   97GLOH   H08 9529   3.817   4.621   1.933  0.1031 -1.5762  0.5628
   97GLOH    C2 9530   3.969   4.468   1.944  0.0265  0.0322  0.8308
   97GLOH   H04 9531   3.905   4.380   1.958 -1.5982  1.4661  2.7228
   97GLOH    O2 9532   4.073   4.415   1.862 -0.2755 -0.1162 -0.6862
   97GLOH   H05 9533   4.041   4.353   1.794 -0.5077  1.3104 -1.9098
   97GLOH    C3 9534   4.009   4.513   2.081  0.1818 -0.0323 -0.6301
   97GLOH   H06 9535   4.110   4.475   2.095  0.4541  1.7825  3.1396
   97GLOH   H07 9536   3.947   4.475   2.164  0.9346  0.4324  0.1502
   97GLOH    O3 9537   4.006   4.655   2.104  0.0605  0.0908 -0.3205
   97GLOH   H01 9538   4.085   4.688   2.057  0.4127  0.6867  0.6666
   98GLOH   H03 9539   8.919   4.542   0.465  1.4788  0.9331  0.9034
   98GLOH    O1 9540   8.883   4.487   0.537  0.4359  0.4525  0.0254
   98GLOH    C1 9541   8.804   4.574   0.624 -0.2962  0.4243  0.1461
   98GLOH   H02 9542   8.699   4.563   0.597 -0.3620  0.9480  0.1908
   98GLOH   H08 9543   8.846   4.672   0.600 -1.1509  0.8917  0.5718
   98GLOH    C2 9544   8.805   4.533   0.771 -0.3296  0.2340 -0.2160
   98GLOH   H04 9545   8.909   4.537   0.807 -0.8147  0.1345  1.2623
   98GLOH    O2 9546   8.733   4.614   0.854  0.0586 -0.2356 -0.3778
   98GLOH   H05 9547   8.725   4.701   0.811 -1.3862 -0.5403 -0.7682
   98GLOH    C3 9548   8.743   4.387   0.784 -0.0216  0.4671  0.9312
   98GLOH   H06 9549   8.635   4.391   0.766 -0.0454 -1.9028  0.2807
   98GLOH   H07 9550   8.757   4.361   0.889 -1.1187  3.0693  1.7573
   98GLOH    O3 9551   8.815   4.295   0.695  0.1310  0.1190 -0.0163
   98GLOH   H01 9552   8.847   4.355   0.625  0.4060 -1.8424 -1.6584
   99GLOH   H03 9553   1.865   0.725   1.895 -2.1434 -0.0529 -0.5082
   99GLOH    O1 9554   1.891   0.729   1.801 -0.0254 -0.0058  0.0540
   99GLOH    C1 9555   2.001   0.818   1.791 -0.3856  0.0458 -0.1217
   99GLOH   H02 9556   2.042   0.801   1.692 -1.0045 -1.4645 -0.1291
   99GLOH   H08 9557   2.076   0.803   1.869 -0.4415  1.6331  0.2629
   99GLOH    C2 9558   1.967   0.962   1.786  0.0912  0.0731  0.5010
   99GLOH   H04 9559   1.897   0.980   1.869  1.1371 -3.1967  2.1796
   99GLOH    O2 9560   2.081   1.044   1.815 -0.5985 -0.1305 -0.1403
   99GLOH   H05 9561   2.170   1.005   1.824  0.2402  1.5821 -0.7874
   99GLOH    C3 9562   1.898   1.004   1.651 -0.3898  0.1440 -0.4617
   99GLOH   H06 9563   1.860   1.106   1.650  2.7738  1.3388 -1.7833
   99GLOH   H07 9564   1.821   0.929   1.630 -2.1224  1.9550 -0.7151
   99GLOH    O3 9565   1.985   1.002   1.540 -0.5021  0.6554 -0.3514
   99GLOH   H01 9566   2.034   1.086   1.533 -2.1612  1.9371  2.3255
  100GLOH   H03 9567   3.344   8.666   1.479 -0.9043  0.6496 -2.4170
  100GLOH    O1 9568   3.308   8.576   1.475  0.0770  0.1088  0.1797
  100GLOH    C1 9569   3.250   8.554   1.605  0.6046 -0.2013 -0.2611
  100GLOH   H02 9570   3.154   8.604   1.612  0.8221  0.1039  0.6848
  100GLOH   H08 9571   3.309   8.604   1.683 -0.2321  0.9227 -0.3403
  100GLOH    C2 9572   3.219   8.403   1.643 -0.0429 -0.2053 -0.4059
  100GLOH   H04 9573   3.303   8.335   1.622  0.0496 -0.6723  1.3970
  100GLOH    O2 9574   3.174   8.389   1.777 -0.2713  0.3810 -0.0788
  100GLOH   H05 9575   3.190   8.296   1.799  1.5586  0.4535 -1.0040
  100GLOH    C3 9576   3.118   8.353   1.544 -0.1703 -0.1128 -0.0926
  100GLOH   H06 9577   3.150   8.375   1.442 -0.5769 -2.4834 -0.7851
  100GLOH   H07 9578   3.029   8.415   1.552 -2.2811 -2.9203 -0.5793
  100GLOH    O3 9579   3.086   8.215   1.560 -0.4681  0.2535 -0.1567
  100GLOH   H01 9580   3.056   8.181   1.474 -2.3371  0.5473  0.3492
  101GLOH   H03 9581   1.023   7.491   1.435  0.0045 -1.2412  0.0383
  101GLOH    O1 9582   1.053   7.428   1.367  0.2661 -0.3362 -0.7127
  101GLOH    C1 9583   1.171   7.373   1.415  0.6419 -0.0531 -0.3638
  101GLOH   H02 9584   1.223   7.442   1.481 -0.7736 -0.1626  0.8849
  101GLOH   H08 9585   1.240   7.360   1.331  0.9714 -1.4699  0.1164
  101GLOH    C2 9586   1.172   7.233   1.489 -0.2396  0.0457 -0.1995
  101GLOH   H04 9587   1.264   7.212   1.546 -1.2071 -3.2911  0.2326
  101GLOH    O2 9588   1.059   7.223   1.583 -0.1686  0.3002 -0.4633
  101GLOH   H05 9589   1.078   7.163   1.657  3.4050 -1.1636 -2.4688
  101GLOH    C3 9590   1.149   7.122   1.391 -0.6972 -0.2653  0.6664
  101GLOH   H06 9591   1.067   7.160   1.330  2.8767 -0.7244 -4.7794
  101GLOH   H07 9592   1.107   7.034   1.441  2.0798 -0.9996  1.7855
  101GLOH    O3 9593   1.266   7.098   1.315 -0.0023 -0.0794 -0.0030
  101GLOH   H01 9594   1.336   7.045   1.357  0.4049 -1.6954 -2.5535
  102GLOH   H03 9595   5.124   3.675   1.310 -1.6381  1.6595 -2.0258
  102GLOH    O1 9596   5.200   3.684   1.250  0.3035 -0.3264  0.0279
  102GLOH    C1 9597   5.135   3.691   1.122  0.0827  0.0688 -0.4691
  102GLOH   H02 9598   5.095   3.791   1.107 -1.0339 -0.4091 -0.6931
  102GLOH   H08 9599   5.057   3.616   1.113  0.6316 -0.6550  0.7245
  102GLOH    C2 9600   5.241   3.669   1.012 -0.7063  0.9067 -0.4320
  102GLOH   H04 9601   5.288   3.573   1.037 -1.4091  0.9934  1.3038
  102GLOH    O2 9602   5.181   3.675   0.885 -0.0232 -0.5689  0.3617
  102GLOH   H05 9603   5.109   3.738   0.874  1.5203  0.9614 -1.2850
  102GLOH    C3 9604   5.344   3.783   1.018 -0.1998 -0.1422  0.7054
  102GLOH   H06 9605   5.297   3.878   0.992 -0.7910 -0.2675  1.2883
  102GLOH   H07 9606   5.413   3.764   0.935  1.9070  0.7417  2.2321
  102GLOH    O3 9607   5.414   3.789   1.142 -0.7533  0.2973  0.3970
  102GLOH   H01 9608   5.353   3.744   1.204 -1.9861  1.3369 -0.0265
  103GLOH   H03 9609   1.504   3.893   1.477  0.2343  0.6047  1.7096
  103GLOH    O1 9610   1.586   3.841   1.467 -0.0649  0.3757  0.1713
  103GLOH    C1 9611   1.702   3.919   1.501 -0.2602 -0.2355 -0.0814
  103GLOH   H02 9612   1.686   4.022   1.469  3.2331  0.7480  1.1391
  103GLOH   H08 9613   1.786   3.882   1.442  1.1169  1.0331  1.0362
  103GLOH    C2 9614   1.749   3.909   1.646  0.1180  0.2271 -0.1869
  103GLOH   H04 9615   1.843   3.965   1.663  0.8396 -1.1624  0.4728
  103GLOH    O2 9616   1.649   3.967   1.737  0.5016  0.2087 -0.1856
  103GLOH   H05 9617   1.567   3.916   1.734  0.3021  0.4236  1.5098
  103GLOH    C3 9618   1.790   3.770   1.685 -0.2836 -0.2037  0.4949
  103GLOH   H06 9619   1.704   3.708   1.706 -0.9255  1.4000  2.7931
  103GLOH   H07 9620   1.839   3.783   1.781 -1.5195  1.6077  0.9045
  103GLOH    O3 9621   1.885   3.712   1.593  0.0752  0.3142 -0.2394
  103GLOH   H01 9622   1.977   3.741   1.609 -0.0931  0.3734  0.6590
  104GLOH   H03 9623   2.371   9.351   1.937 -2.0586 -0.0277  1.3890
  104GLOH    O1 9624   2.383   9.437   1.981 -0.1745  0.3096  0.2516
  104GLOH    C1 9625   2.326   9.543   1.897  0.6436 -0.0486 -0.6348
  104GLOH   H02 9626   2.328   9.519   1.791  2.7641  0.7835 -0.8099
  104GLOH   H08 9627   2.402   9.621   1.901 -0.3042  0.8832 -0.6004
  104GLOH    C2 9628   2.177   9.577   1.934  0.3467  0.5401  0.6773
  104GLOH   H04 9629   2.176   9.628   2.031  1.5913  1.3039  0.2963
  104GLOH    O2 9630   2.121   9.674   1.843 -0.1167 -0.3384  0.4330
  104GLOH   H05 9631   2.074   9.624   1.774 -2.2215  0.8798  0.9104
  104GLOH    C3 9632   2.085   9.451   1.949  0.5090  0.4547  0.1351
  104GLOH   H06 9633   1.986   9.498   1.954  0.5687  0.7962 -1.4936
  104GLOH   H07 9634   2.100   9.392   2.039 -3.9335 -0.8569  0.1507
  104GLOH    O3 9635   2.090   9.369   1.832 -0.3628 -0.2717 -0.0498
  104GLOH   H01 9636   2.175   9.320   1.831  0.2005  0.6230  2.1070
  105GLOH   H03 9637   0.793   5.819   1.151  0.3724  1.7432 -0.1753
  105GLOH    O1 9638   0.749   5.795   1.067 -0.1704 -0.2686  0.6470
  105GLOH    C1 9639   0.668   5.907   1.033  0.2550  0.2584 -0.4499
  105GLOH   H02 9640   0.599   5.919   1.117 -1.6282 -0.9854 -1.7792
  105GLOH   H08 9641   0.608   5.886   0.944 -0.5872  0.4030  0.0735
  105GLOH    C2 9642   0.743   6.039   1.015 -0.1073 -0.0034 -0.1275
  105GLOH   H04 9643   0.812   6.047   1.100 -2.5184  0.8212  1.8198
  105GLOH    O2 9644   0.816   6.035   0.893 -0.5623 -0.3121 -0.0458
  105GLOH   H05 9645   0.777   5.965   0.837 -3.0409  1.2569 -0.3589
  105GLOH    C3 9646   0.653   6.167   1.010  0.0433  0.3693  0.0043
  105GLOH   H06 9647   0.589   6.152   0.923 -0.4910 -0.9638  0.5956
  105GLOH   H07 9648   0.704   6.261   0.992 -1.3686  1.0636 -0.4195
  105GLOH    O3 9649   0.575   6.181   1.126 -0.0201  0.3764  0.3791
  105GLOH   H01 9650   0.564   6.278   1.136 -1.4103  0.4579 -1.5760
  106GLOH   H03 9651   2.751   6.995   2.079 -1.1212  0.0619 -1.6515
  106GLOH    O1 9652   2.776   6.999   1.985  0.1145 -0.2488 -1.3490
  106GLOH    C1 9653   2.845   6.881   1.946 -0.1029 -0.4483  0.0490
  106GLOH   H02 9654   2.815   6.795   2.007 -2.3018  0.2987  0.0544
  106GLOH   H08 9655   2.951   6.903   1.954 -0.6098  2.0205  0.2526
  106GLOH    C2 9656   2.807   6.844   1.810  1.0786  0.5792 -0.4394
  106GLOH   H04 9657   2.833   6.927   1.743  0.3340  1.2381  0.0777
  106GLOH    O2 9658   2.881   6.726   1.775  0.1886  0.3729  0.3193
  106GLOH   H05 9659   2.900   6.669   1.852  1.1840  1.1150  0.6390
  106GLOH    C3 9660   2.649   6.829   1.805 -0.2641 -0.3301  0.0467
  106GLOH   H06 9661   2.614   6.757   1.878 -0.6969 -1.9069 -1.6764
  106GLOH   H07 9662   2.624   6.793   1.705  1.7433 -1.6811  0.0011
  106GLOH    O3 9663   2.582   6.954   1.828 -0.5167 -0.0341  0.1532
  106GLOH   H01 9664   2.649   7.012   1.870  1.9221 -1.9860 -0.9492
  107GLOH   H03 9665   3.838   3.986   0.951  0.1876  1.3789  1.8610
  107GLOH    O1 9666   3.927   4.016   0.923 -0.1961  0.4980 -0.4642
  107GLOH    C1 9667   3.935   4.001   0.782  0.4465 -0.3750 -0.1930
  107GLOH   H02 9668   4.014   4.059   0.733  1.8830 -0.5943  1.8078
  107GLOH   H08 9669   3.845   4.039   0.734 -0.9841 -1.2153  1.7672
  107GLOH    C2 9670   3.933   3.856   0.742 -0.0719 -0.3751  0.2741
  107GLOH   H04 9671   3.834   3.826   0.780 -0.1259 -0.4464  0.0772
  107GLOH    O2 9672   3.928   3.837   0.600  0.3779 -0.5557 -0.2222
  107GLOH   H05 9673   3.839   3.856   0.564 -0.5134 -1.0211  1.6635
  107GLOH    C3 9674   4.045   3.777   0.807 -0.2692 -0.0922 -0.2703
  107GLOH   H06 9675   4.143   3.796   0.762 -1.2601  1.3897 -1.8658
  107GLOH   H07 9676   4.031   3.671   0.789 -0.4007 -0.3380  1.2770
  107GLOH    O3 9677   4.059   3.805   0.949 -0.2915  0.1631  0.1354
  107GLOH   H01 9678   4.020   3.894   0.962 -3.2156 -1.1360  0.6336
  108GLOH   H03 9679   4.074   2.084   2.458 -0.5184 -3.3472 -0.8007
  108GLOH    O1 9680   4.157   2.069   2.410  0.3696 -0.2679 -0.3242
  108GLOH    C1 9681   4.164   1.925   2.387 -0.5322 -0.4764  0.1148
  108GLOH   H02 9682   4.178   1.906   2.281 -1.1754 -0.1117 -0.0389
  108GLOH   H08 9683   4.076   1.872   2.424  0.0243 -1.5770 -0.1361
  108GLOH    C2 9684   4.279   1.856   2.464  0.3385  0.1703  0.0125
  108GLOH   H04 9685   4.272   1.750   2.438 -1.5967  0.3915 -0.4725
  108GLOH    O2 9686   4.410   1.898   2.423 -0.0705  0.0103  0.6518
  108GLOH   H05 9687   4.411   1.899   2.326  1.5553  1.7140  0.6476
  108GLOH    C3 9688   4.261   1.872   2.616 -0.5952  0.1797  0.2116
  108GLOH   H06 9689   4.256   1.974   2.651 -0.2264 -0.0864  1.0529
  108GLOH   H07 9690   4.357   1.844   2.660 -0.1604  1.6360  0.1901
  108GLOH    O3 9691   4.150   1.788   2.667  0.4458  0.3862  0.0974
  108GLOH   H01 9692   4.191   1.704   2.693  0.5348  0.2309 -0.5166
  109GLOH   H03 9693   5.033   3.984   2.183 -1.4233  1.4387 -1.1273
  109GLOH    O1 9694   5.095   4.058   2.166 -0.2757  0.6969 -0.2706
  109GLOH    C1 9695   5.127   4.123   2.281 -0.4812 -0.3856  0.9238
  109GLOH   H02 9696   5.171   4.219   2.252 -1.2862  0.0876  1.2317
  109GLOH   H08 9697   5.214   4.078   2.329 -0.5597 -1.3139  0.2023
  109GLOH    C2 9698   5.010   4.143   2.379 -0.0898 -0.1617 -0.5584
  109GLOH   H04 9699   4.929   4.205   2.338  1.2190  0.5173 -2.1694
  109GLOH    O2 9700   4.939   4.024   2.417  0.1315  0.3544  0.8159
  109GLOH   H05 9701   4.903   4.021   2.507  1.8342 -3.7475  1.4698
  109GLOH    C3 9702   5.060   4.212   2.508 -0.0513  0.0263  0.4343
  109GLOH   H06 9703   5.139   4.152   2.553  0.6231  0.3054 -0.3844
  109GLOH   H07 9704   4.980   4.218   2.583 -1.3482 -0.7119 -0.8671
  109GLOH    O3 9705   5.106   4.346   2.484  0.3114  0.1943  0.4758
  109GLOH   H01 9706   5.067   4.406   2.550  1.2333 -0.8398  1.9816
  110GLOH   H03 9707   2.506   0.581   2.547  0.1319 -0.0664  0.5104
  110GLOH    O1 9708   2.482   0.489   2.567 -0.5097  0.0375  0.2260
  110GLOH    C1 9709   2.349   0.468   2.517 -0.4961 -0.3332  0.3775
  110GLOH   H02 9710   2.279   0.504   2.592 -1.0678 -2.7288  1.0615
  110GLOH   H08 9711   2.331   0.361   2.503 -1.7500  0.0679 -1.2111
  110GLOH    C2 9712   2.329   0.536   2.387  0.1458 -0.2145  0.4171
  110GLOH   H04 9713   2.392   0.492   2.308 -0.7413 -0.2431 -0.2760
  110GLOH    O2 9714   2.193   0.513   2.338 -0.0385 -0.8318 -0.2167
  110GLOH   H05 9715   2.192   0.417   2.327  0.0372 -0.7493 -0.9904
  110GLOH    C3 9716   2.349   0.688   2.405 -0.2384  0.2457  0.3371
  110GLOH   H06 9717   2.281   0.717   2.485 -0.4467 -0.0330  0.2596
  110GLOH   H07 9718   2.311   0.734   2.314  1.5797 -1.6988 -1.4341
  110GLOH    O3 9719   2.489   0.725   2.431  0.0251 -0.3585  0.1494
  110GLOH   H01 9720   2.491   0.822   2.443 -0.2982 -0.2161 -0.9317
  111GLOH   H03 9721   2.138   5.746   1.818 -0.4772  0.8503 -0.4799
  111GLOH    O1 9722   2.064   5.810   1.815 -0.7433  0.5988  0.4676
  111GLOH    C1 9723   2.068   5.885   1.690 -0.3205  0.6185  0.1901
  111GLOH   H02 9724   2.160   5.866   1.635 -0.0291 -0.4386  1.0181
  111GLOH   H08 9725   2.056   5.992   1.704  1.9321  1.1704 -1.6725
  111GLOH    C2 9726   1.951   5.837   1.597  0.0082 -0.4508 -0.1224
  111GLOH   H04 9727   1.950   5.910   1.514 -0.7988 -2.1276 -1.6281
  111GLOH    O2 9728   1.974   5.709   1.540  0.3229  0.4825  0.4557
  111GLOH   H05 9729   1.969   5.632   1.600  0.5725 -1.0343 -1.4020
  111GLOH    C3 9730   1.820   5.830   1.665  1.6875 -0.2097 -0.1683
  111GLOH   H06 9731   1.819   5.908   1.741 -0.1529 -1.5687  1.2496
  111GLOH   H07 9732   1.828   5.743   1.729 -0.3862  0.6994  1.3937
  111GLOH    O3 9733   1.703   5.838   1.579  0.1888 -0.3302  0.1761
  111GLOH   H01 9734   1.701   5.760   1.521  0.4197  1.8237 -2.8539
  112GLOH   H03 9735   4.149   5.045   0.552 -0.0277  0.4221 -0.8623
  112GLOH    O1 9736   4.232   5.022   0.507  0.2282 -0.8523  0.2481
  112GLOH    C1 9737   4.258   5.099   0.392  0.6826  0.7495  0.4180
  112GLOH   H02 9738   4.252   5.205   0.414  0.1137  0.5737  1.1108
  112GLOH   H08 9739   4.177   5.089   0.319  0.8481  2.0446  0.0411
  112GLOH    C2 9740   4.397   5.066   0.325  0.9499  0.1165 -0.1301
  112GLOH   H04 9741   4.390   4.960   0.297  2.6036  0.0844 -0.5076
  112GLOH    O2 9742   4.411   5.169   0.220  0.2025 -0.1623 -0.4036
  112GLOH   H05 9743   4.385   5.254   0.260  2.3583  0.2192  0.2201
  112GLOH    C3 9744   4.511   5.080   0.429 -0.4958 -0.2318 -0.2540
  112GLOH   H06 9745   4.513   5.177   0.477  0.4207 -0.9847  1.2536
  112GLOH   H07 9746   4.609   5.077   0.381  0.2296 -0.2074  1.2212
  112GLOH    O3 9747   4.516   4.972   0.527  0.2969  0.0118  0.6137
  112GLOH   H01 9748   4.435   4.947   0.575  1.1321 -2.4244  0.8117
  113GLOH   H03 9749   3.368   0.564   1.658  2.3032 -1.2983 -0.9055
  113GLOH    O1 9750   3.372   0.622   1.579  0.6963 -0.1153 -0.1474
  113GLOH    C1 9751   3.468   0.720   1.601  0.3592  0.0095  0.3492
  113GLOH   H02 9752   3.561   0.706   1.546 -0.1673 -2.3487  0.0107
  113GLOH   H08 9753   3.498   0.727   1.705  0.7480  1.7082  0.1538
  113GLOH    C2 9754   3.426   0.867   1.575  0.5305 -0.6674 -0.1498
  113GLOH   H04 9755   3.360   0.865   1.487 -0.9131 -1.2458  0.9342
  113GLOH    O2 9756   3.345   0.928   1.679  1.0620 -0.2322 -0.2035
  113GLOH   H05 9757   3.323   0.861   1.745  1.8083  0.1608  0.4458
  113GLOH    C3 9758   3.544   0.961   1.543  0.1346 -0.3084 -0.2619
  113GLOH   H06 9759   3.511   1.062   1.519  2.0188  0.5503  0.5658
  113GLOH   H07 9760   3.588   0.921   1.452 -0.2021  0.8130 -0.9320
  113GLOH    O3 9761   3.642   0.973   1.643 -0.2295 -0.2985  0.2431
  113GLOH   H01 9762   3.601   0.961   1.731  0.5868 -2.5971  0.3582
  114GLOH   H03 9763   8.924   4.215   1.605 -0.6231 -1.5103  0.8533
  114GLOH    O1 9764   8.954   4.250   1.691  0.1830 -0.6627  0.2475
  114GLOH    C1 9765   9.000   4.386   1.670 -0.2743 -0.1179 -0.7228
  114GLOH   H02 9766   8.942   4.432   1.590 -0.8148 -0.4114 -0.4993
  114GLOH   H08 9767   9.105   4.377   1.641 -0.3422 -0.7102 -0.7879
  114GLOH    C2 9768   9.007   4.477   1.791  0.3677  0.7308 -0.0123
  114GLOH   H04 9769   9.091   4.450   1.857  0.5057 -1.2968 -0.9806
  114GLOH    O2 9770   9.037   4.611   1.754  0.0522 -0.2621  0.2315
  114GLOH   H05 9771   9.132   4.632   1.754  0.2090 -0.8057 -2.5674
  114GLOH    C3 9772   8.871   4.482   1.864 -1.0326  0.4380  0.5071
  114GLOH   H06 9773   8.788   4.460   1.796 -0.8573  1.2713  0.0259
  114GLOH   H07 9774   8.855   4.582   1.903 -1.5609  0.2954  0.6618
  114GLOH    O3 9775   8.861   4.382   1.970  0.2378  0.0303  0.1319
  114GLOH   H01 9776   8.942   4.373   2.025  0.5423  0.4767 -0.2402
  115GLOH   H03 9777  10.038   4.406   0.418  1.4378  0.5606 -2.0836
  115GLOH    O1 9778   9.986   4.346   0.362  0.1584  0.1331 -0.5039
  115GLOH    C1 9779   9.878   4.417   0.306  0.6501 -0.5888  0.5098
  115GLOH   H02 9780   9.888   4.521   0.337  1.7153 -0.8923  1.2135
  115GLOH   H08 9781   9.784   4.383   0.349  0.2409 -1.4625 -1.0581
  115GLOH    C2 9782   9.873   4.391   0.157  0.1549 -0.1021 -0.8684
  115GLOH   H04 9783   9.836   4.288   0.147  0.3953 -0.4623  1.5613
  115GLOH    O2 9784   9.782   4.481   0.087 -0.2814  0.1166 -0.0204
  115GLOH   H05 9785   9.693   4.464   0.121  0.4060  0.1307  1.8142
  115GLOH    C3 9786  10.011   4.400   0.090  0.2936 -0.3628  0.4653
  115GLOH   H06 9787  10.083   4.329   0.132 -4.3121 -2.4409  5.3979
  115GLOH   H07 9788  10.052   4.500   0.105 -0.0544 -0.1439 -0.0172
  115GLOH    O3 9789  10.011   4.376  -0.052  0.0361 -0.0586  0.2056
  115GLOH   H01 9790  10.074   4.437  -0.095 -0.7278 -0.7853 -2.0279
  116GLOH   H03 9791   4.548   4.097   0.672 -3.1896 -0.3078  1.1666
  116GLOH    O1 9792   4.521   4.190   0.683 -0.8483  0.5134  0.1801
  116GLOH    C1 9793   4.561   4.227   0.818 -0.3855 -0.3922  0.4723
  116GLOH   H02 9794   4.604   4.327   0.825  0.4534 -0.7154  0.0190
  116GLOH   H08 9795   4.641   4.160   0.849  1.3896 -0.6744 -4.2718
  116GLOH    C2 9796   4.436   4.223   0.904  0.1742  0.8538 -0.7271
  116GLOH   H04 9797   4.390   4.124   0.900  1.0141  0.4081  0.3997
  116GLOH    O2 9798   4.479   4.235   1.047  0.2340 -0.7375  0.6371
  116GLOH   H05 9799   4.478   4.329   1.073 -1.2826 -1.0292  1.6807
  116GLOH    C3 9800   4.319   4.319   0.878 -0.4302  0.1357  0.0569
  116GLOH   H06 9801   4.346   4.423   0.900 -0.3046  0.1503 -0.1671
  116GLOH   H07 9802   4.244   4.301   0.955  1.1835 -0.3542  1.5306
  116GLOH    O3 9803   4.273   4.302   0.744  0.3277  0.1811  0.3486
  116GLOH   H01 9804   4.326   4.230   0.705  0.3854 -0.5841  1.7983
  117GLOH   H03 9805   3.039   8.021   2.176 -1.0440  0.0315  0.9435
  117GLOH    O1 9806   3.119   8.028   2.230 -0.2370  0.3236 -0.2628
  117GLOH    C1 9807   3.110   8.142   2.315 -0.0714  0.2234 -0.1270
  117GLOH   H02 9808   3.182   8.135   2.397  0.6836 -1.4417 -0.9159
  117GLOH   H08 9809   3.008   8.150   2.354 -0.1232  1.3938 -0.4898
  117GLOH    C2 9810   3.125   8.275   2.231 -0.2990 -0.5252 -0.4010
  117GLOH   H04 9811   3.049   8.270   2.152 -0.1581 -0.4369 -0.5407
  117GLOH    O2 9812   3.092   8.396   2.307  0.1962 -0.0660  0.1454
  117GLOH   H05 9813   3.118   8.481   2.267  0.5070  0.2165  0.9391
  117GLOH    C3 9814   3.261   8.301   2.161  0.3078 -0.1007 -0.3225
  117GLOH   H06 9815   3.241   8.365   2.075  2.3109 -2.0963 -2.3499
  117GLOH   H07 9816   3.298   8.207   2.120  2.1240  0.4178  0.0854
  117GLOH    O3 9817   3.363   8.351   2.250 -0.4807 -0.2696  0.0396
  117GLOH   H01 9818   3.308   8.402   2.313 -0.3482 -0.5009  0.3401
  118GLOH   H03 9819   1.729   8.605   1.941 -1.4338 -1.4876  0.5886
  118GLOH    O1 9820   1.758   8.582   1.851 -0.4823  0.3134  0.4052
  118GLOH    C1 9821   1.704   8.448   1.832 -0.3385  0.2545 -0.3049
  118GLOH   H02 9822   1.679   8.437   1.727 -0.2904 -1.9660 -0.1075
  118GLOH   H08 9823   1.617   8.438   1.897 -0.3253  0.4177 -0.2631
  118GLOH    C2 9824   1.812   8.341   1.872  0.1966 -0.1301 -0.1741
  118GLOH   H04 9825   1.851   8.365   1.971 -0.1333  1.6448 -0.4604
  118GLOH    O2 9826   1.750   8.207   1.887  0.0779  0.3906 -0.4519
  118GLOH   H05 9827   1.692   8.181   1.813 -0.8999  0.8486  0.1420
  118GLOH    C3 9828   1.917   8.332   1.764  0.3925  0.1132 -0.1352
  118GLOH   H06 9829   1.959   8.430   1.740  0.9139 -0.0003  0.2972
  118GLOH   H07 9830   1.871   8.298   1.672 -1.8002  0.2741  0.8650
  118GLOH    O3 9831   2.025   8.249   1.807 -0.0289  0.5783 -0.1993
  118GLOH   H01 9832   2.009   8.161   1.770 -0.7816  0.9351 -0.7251
  119GLOH   H03 9833   3.870   0.200  -0.186  2.9536 -0.6678  0.1962
  119GLOH    O1 9834   3.877   0.296  -0.175  0.2862 -0.4901  0.7943
  119GLOH    C1 9835   3.930   0.327  -0.040  0.6943  0.5978 -0.5700
  119GLOH   H02 9836   3.967   0.429  -0.036 -0.7027  1.1374 -1.1170
  119GLOH   H08 9837   4.013   0.262  -0.012  0.3154  0.6647  0.7098
  119GLOH    C2 9838   3.829   0.312   0.075 -0.3077  0.8089 -0.1091
  119GLOH   H04 9839   3.797   0.208   0.087 -0.2487  0.7428 -0.5344
  119GLOH    O2 9840   3.890   0.352   0.199 -0.1782  0.0101 -0.5562
  119GLOH   H05 9841   3.914   0.446   0.201  1.8474 -0.4840  4.2481
  119GLOH    C3 9842   3.704   0.395   0.056 -0.8916  0.2452  0.1481
  119GLOH   H06 9843   3.672   0.384  -0.048  0.4866  0.1083 -0.2726
  119GLOH   H07 9844   3.716   0.503   0.069  0.4559  0.3436 -1.6487
  119GLOH    O3 9845   3.605   0.346   0.153  0.1650  0.1465  0.3935
  119GLOH   H01 9846   3.606   0.249   0.159  0.9907  0.2016  1.2318
  120GLOH   H03 9847   3.078   0.484   2.329  0.1104 -1.1815 -2.4765
  120GLOH    O1 9848   3.005   0.536   2.289 -0.2142  0.0322 -0.3967
  120GLOH    C1 9849   3.028   0.677   2.273 -0.0913 -0.0337  0.2909
  120GLOH   H02 9850   3.119   0.690   2.214 -0.5745  2.4810  0.0230
  120GLOH   H08 9851   3.044   0.731   2.367 -1.0642 -2.3639  1.8331
  120GLOH    C2 9852   2.919   0.753   2.198 -0.1351 -0.4716 -0.2326
  120GLOH   H04 9853   2.821   0.763   2.248 -0.1231  2.9377 -0.7805
  120GLOH    O2 9854   2.976   0.884   2.175  0.0257 -0.0171 -0.7529
  120GLOH   H05 9855   2.925   0.952   2.222  0.5487  0.2770 -0.6101
  120GLOH    C3 9856   2.899   0.678   2.062  0.5794 -0.5632  0.0620
  120GLOH   H06 9857   2.878   0.575   2.089 -1.0000 -0.1124  0.6140
  120GLOH   H07 9858   2.994   0.684   2.009 -0.2127 -0.1338 -1.3583
  120GLOH    O3 9859   2.789   0.728   1.990 -0.1000  0.2386 -0.4189
  120GLOH   H01 9860   2.715   0.726   2.053  0.5054  0.0461  0.2929
  121ACOH    H4 9861   2.135   1.321   1.652  0.7439 -2.6747  1.5518
  121ACOH    O2 9862   2.172   1.358   1.734  0.1032  0.5363  0.4499
  121ACOH    C2 9863   2.254   1.264   1.782  0.0338 -0.5274  0.4798
  121ACOH    O1 9864   2.338   1.217   1.715  0.2860  0.1213 -0.4631
  121ACOH    C1 9865   2.287   1.283   1.919 -0.8615 -0.1132  0.1840
  121ACOH    H1 9866   2.392   1.300   1.940 -0.2603 -1.6318 -1.4875
  121ACOH    H2 9867   2.253   1.197   1.977 -0.4052 -0.3782  0.0621
  121ACOH    H3 9868   2.230   1.367   1.958 -4.1833 -1.4152 -1.6748
  122ACOH    H4 9869   2.748   7.228   0.826 -0.2183  0.3248  0.6237
  122ACOH    O2 9870   2.802   7.225   0.746  0.0741  0.0848  0.8248
  122ACOH    C2 9871   2.847   7.098   0.735 -0.0632  0.2263  0.2596
  122ACOH    O1 9872   2.918   7.067   0.640 -0.0202  0.5457 -0.4987
  122ACOH    C1 9873   2.818   7.007   0.849 -0.0799  0.2020 -0.3531
  122ACOH    H1 9874   2.904   6.973   0.907  1.0900  0.4078 -1.9515
  122ACOH    H2 9875   2.771   6.912   0.824  1.5518 -0.6757 -0.1251
  122ACOH    H3 9876   2.768   7.063   0.929  2.7560  0.7819  1.0960
  123ACOH    H4 9877   2.103   6.967   0.202  0.3401 -1.9029 -0.3850
  123ACOH    O2 9878   2.031   6.974   0.137 -0.2270 -0.2160  0.4105
  123ACOH    C2 9879   2.017   6.850   0.090  0.1425  1.0371 -0.4752
  123ACOH    O1 9880   2.065   6.743   0.132 -0.8860 -0.4778  0.1172
  123ACOH    C1 9881   1.905   6.840  -0.009 -0.1046 -0.1021 -0.6553
  123ACOH    H1 9882   1.925   6.761  -0.081  0.1419 -1.3086  0.7019
  123ACOH    H2 9883   1.883   6.929  -0.068 -1.7490 -1.4175 -2.0851
  123ACOH    H3 9884   1.816   6.812   0.047  1.2759 -1.4347  0.9479
  124ACOH    H4 9885   9.260   3.757  -0.011 -0.4413  0.5587  0.6251
  124ACOH    O2 9886   9.172   3.715  -0.009 -0.2975  0.2312  0.0600
  124ACOH    C2 9887   9.160   3.654   0.108 -0.6901  0.2330  0.0937
  124ACOH    O1 9888   9.254   3.633   0.185  0.0370 -0.2743  0.1835
  124ACOH    C1 9889   9.021   3.596   0.123  0.7127 -0.4117 -0.3324
  124ACOH    H1 9890   9.005   3.587   0.230  1.0729  0.1403 -0.2311
  124ACOH    H2 9891   9.003   3.502   0.071 -2.1366  0.1094 -0.4007
  124ACOH    H3 9892   8.950   3.668   0.080  1.8096  1.6403  1.2231
  125ACOH    H4 9893   0.180   3.140   0.753  0.5719 -1.0883 -0.3162
  125ACOH    O2 9894   0.138   3.094   0.827  0.3357 -0.5810 -0.1318
  125ACOH    C2 9895   0.045   3.179   0.886  0.4958 -0.4354  1.0143
  125ACOH    O1 9896   0.024   3.294   0.848  0.0053 -0.2998 -0.5303
  125ACOH    C1 9897  -0.041   3.120   0.999 -0.2830 -0.7965 -0.1213
  125ACOH    H1 9898  -0.005   3.028   1.045 -0.0681  0.8524  3.0670
  125ACOH    H2 9899  -0.143   3.095   0.969 -0.8732  1.2505  0.1088
  125ACOH    H3 9900  -0.035   3.192   1.080 -1.0100 -2.1119  1.1408
  126ACOH    H4 9901   1.215   0.275   1.371 -0.0831 -1.6243 -0.7696
  126ACOH    O2 9902   1.171   0.267   1.458  0.4783  0.4807 -0.2779
  126ACOH    C2 9903   1.237   0.166   1.514  0.3249 -0.0460 -0.0628
  126ACOH    O1 9904   1.306   0.085   1.456 -0.3904 -0.4596  0.6029
  126ACOH    C1 9905   1.199   0.158   1.652 -0.0687 -0.5884 -0.6617
  126ACOH    H1 9906   1.109   0.213   1.678  0.6714 -0.3233  1.5186
  126ACOH    H2 9907   1.282   0.197   1.712  0.0517  1.3695 -2.0967
  126ACOH    H3 9908   1.185   0.055   1.684  2.8111 -0.4545  1.2878
  127ACOH    H4 9909   4.256   0.688   1.073  0.1850  1.0141 -0.6893
  127ACOH    O2 9910   4.307   0.714   1.152  0.4487  0.0347 -0.5268
  127ACOH    C2 9911   4.250   0.639   1.250 -0.4725 -0.0125 -0.8924
  127ACOH    O1 9912   4.138   0.604   1.262 -0.3083 -0.1889 -0.4784
  127ACOH    C1 9913   4.332   0.641   1.380  0.2569 -0.0169  0.2090
  127ACOH    H1 9914   4.281   0.694   1.460 -0.1241  0.1588 -0.1461
  127ACOH    H2 9915   4.433   0.680   1.363  0.3421 -0.0856  0.5548
  127ACOH    H3 9916   4.349   0.538   1.411 -0.9168 -0.4545 -0.5747
  128ACOH    H4 9917   3.463   7.958  -0.013 -0.7210  0.3115 -0.9561
  128ACOH    O2 9918   3.472   7.865  -0.039  0.2965  0.1606 -0.0756
  128ACOH    C2 9919   3.399   7.796   0.052  0.6475 -0.0823  0.5929
  128ACOH    O1 9920   3.321   7.832   0.140  0.3133 -0.1094 -0.0639
  128ACOH    C1 9921   3.433   7.652   0.031 -0.0470  0.2704  0.5816
  128ACOH    H1 9922   3.411   7.594   0.120  1.5295  1.5275  1.8251
  128ACOH    H2 9923   3.539   7.638   0.009  0.5612  2.2527  2.1928
  128ACOH    H3 9924   3.368   7.615  -0.048  0.2659  2.3742 -0.6876
  129ACOH    H4 9925   4.174   9.329   2.322 -0.1815  0.7644 -0.0332
  129ACOH    O2 9926   4.210   9.411   2.363 -0.1430  0.2486  0.9841
  129ACOH    C2 9927   4.257   9.501   2.273  0.6404  0.4296 -0.5791
  129ACOH    O1 9928   4.231   9.501   2.155 -0.3922  0.5000  0.1385
  129ACOH    C1 9929   4.356   9.600   2.330  0.5296  0.5126  0.6256
  129ACOH    H1 9930   4.394   9.667   2.252  1.2453 -2.6312 -1.8327
  129ACOH    H2 9931   4.430   9.542   2.383 -0.3972 -1.4656 -0.2067
  129ACOH    H3 9932   4.297   9.663   2.397  0.5215  3.4231 -2.0020
  130ACOH    H4 9933   4.888   9.856   1.465 -1.4417 -2.5109  3.3677
  130ACOH    O2 9934   4.954   9.788   1.445  0.3963  0.1901 -0.4261
  130ACOH    C2 9935   5.041   9.777   1.552 -0.7233  0.2966  0.0632
  130ACOH    O1 9936   5.038   9.848   1.650 -0.7327 -1.1217  0.2377
  130ACOH    C1 9937   5.142   9.670   1.531 -0.7845  0.1419  0.4057
  130ACOH    H1 9938   5.156   9.635   1.429 -2.0280 -3.0464  1.2539
  130ACOH    H2 9939   5.099   9.592   1.594 -2.4144  1.1927  0.6483
  130ACOH    H3 9940   5.239   9.698   1.570 -1.7267  1.5916  1.7855
  131ACOH    H4 9941   4.295   1.027   2.125  2.0184  0.5401 -0.5082
  131ACOH    O2 9942   4.288   0.974   2.044 -0.0779  0.0069  0.0038
  131ACOH    C2 9943   4.357   1.030   1.952  0.5594 -0.5333 -0.0546
  131ACOH    O1 9944   4.441   1.116   1.962  0.1378  0.0020  0.0091
  131ACOH    C1 9945   4.325   0.965   1.822 -0.2740 -0.0781  0.4212
  131ACOH    H1 9946   4.237   0.901   1.834  0.0152 -0.6656 -0.4920
  131ACOH    H2 9947   4.411   0.901   1.801  1.3526  1.6650  1.6226
  131ACOH    H3 9948   4.320   1.037   1.740 -1.2655 -0.2965  0.2856
  132ACOH    H4 9949   9.386   6.137   1.076 -1.0838 -1.3314 -1.6408
  132ACOH    O2 9950   9.303   6.166   1.118  0.4700  0.6076  0.2248
  132ACOH    C2 9951   9.203   6.079   1.091  0.0751  0.3488 -0.5527
  132ACOH    O1 9952   9.211   5.975   1.027 -0.4694 -0.2202  0.3705
  132ACOH    C1 9953   9.071   6.137   1.125  0.1702 -0.0084  0.3385
  132ACOH    H1 9954   9.031   6.177   1.032 -2.3832 -1.1034  0.9204
  132ACOH    H2 9955   9.087   6.218   1.197 -0.0155 -1.8934  2.5600
  132ACOH    H3 9956   9.003   6.064   1.169  1.3160 -0.1562  1.9358
  133ACOH    H4 9957   8.824   5.619   0.637  1.6176  1.4641 -0.2245
  133ACOH    O2 9958   8.780   5.683   0.579 -0.4641 -0.2092 -0.5197
  133ACOH    C2 9959   8.845   5.801   0.577 -0.7100 -0.7876  0.2838
  133ACOH    O1 9960   8.963   5.816   0.611 -0.5815 -0.1363  0.8342
  133ACOH    C1 9961   8.772   5.896   0.491  0.1468  0.9063  0.4136
  133ACOH    H1 9962   8.840   5.961   0.437  0.7292  1.5376  1.8934
  133ACOH    H2 9963   8.707   5.953   0.557 -0.5195  0.6141  0.0149
  133ACOH    H3 9964   8.705   5.844   0.422 -0.6424 -0.2966  2.0459
  134ACOH    H4 9965   4.910   2.433   2.331 -0.0878 -0.5388  1.4796
  134ACOH    O2 9966   4.824   2.390   2.318 -0.1907  0.0422  0.1858
  134ACOH    C2 9967   4.845   2.259   2.329  0.2013  0.3615 -0.1314
  134ACOH    O1 9968   4.912   2.203   2.415  0.0467  0.4632  0.2900
  134ACOH    C1 9969   4.730   2.184   2.271 -0.2474  0.4427  0.5656
  134ACOH    H1 9970   4.746   2.087   2.223  1.1456 -0.2501  2.3657
  134ACOH    H2 9971   4.682   2.247   2.196  1.1485 -1.1977 -1.7816
  134ACOH    H3 9972   4.656   2.170   2.349 -0.5852 -0.2144  0.1330
  135ACOH    H4 9973   8.995   3.569   1.103 -0.1564  0.1483  0.1893
  135ACOH    O2 9974   8.994   3.473   1.118 -0.3958  0.1444  0.1491
  135ACOH    C2 9975   9.066   3.421   1.013  0.5738 -0.2501 -0.4170
  135ACOH    O1 9976   9.137   3.480   0.930  0.0797  0.2173  0.4077
  135ACOH    C1 9977   9.073   3.272   1.026  0.5988  0.2955  0.5581
  135ACOH    H1 9978   9.029   3.235   0.934  0.7385 -0.7190  0.8900
  135ACOH    H2 9979   9.027   3.243   1.120  2.8939 -1.2587  1.2622
  135ACOH    H3 9980   9.178   3.241   1.031  0.9574  1.7053  2.8666
  136ACOH    H4 9981   5.038   2.819   2.081 -0.8780 -2.6494  1.7379
  136ACOH    O2 9982   5.023   2.778   1.994 -0.1548  0.3373  0.1423
  136ACOH    C2 9983   4.894   2.743   1.983 -0.0573 -0.0915  0.1270
  136ACOH    O1 9984   4.812   2.764   2.066 -0.3051  0.7475  0.0244
  136ACOH    C1 9985   4.864   2.688   1.852  0.1164 -0.1230 -0.7809
  136ACOH    H1 9986   4.799   2.757   1.798  1.7179  1.8614 -0.2473
  136ACOH    H2 9987   4.821   2.593   1.882 -0.2212 -0.2047 -1.5166
  136ACOH    H3 9988   4.953   2.678   1.790  0.0570 -0.6167 -0.7884
  137ACOH    H4 9989   9.767   3.791   1.293  1.3229  0.3793 -1.9396
  137ACOH    O2 9990   9.817   3.708   1.295  0.0357 -0.4009 -0.3424
  137ACOH    C2 9991   9.737   3.603   1.299 -0.1131 -0.7475  0.9390
  137ACOH    O1 9992   9.619   3.610   1.272 -0.7376  0.0933 -0.9617
  137ACOH    C1 9993   9.804   3.495   1.376 -0.1045 -0.0730 -0.5111
  137ACOH    H1 9994   9.864   3.433   1.309 -0.1857 -0.8010  0.0863
  137ACOH    H2 9995   9.736   3.431   1.433  1.0065  0.1746  1.1037
  137ACOH    H3 9996   9.881   3.529   1.444 -1.6325  0.2522  1.1024
  138ACOH    H4 9997   1.211   1.278   2.233 -1.0298 -0.3445  1.4808
  138ACOH    O2 9998   1.150   1.275   2.157 -0.1669  0.5997  0.7305
  138ACOH    C2 9999   1.188   1.174   2.076  0.5468  1.1457 -1.0704
  138ACOH    O110000   1.303   1.138   2.052  0.0821 -0.7571  0.4895
  138ACOH    C110001   1.084   1.113   1.994 -0.0286  0.3268 -0.4660
  138ACOH    H110002   1.078   1.006   2.015 -0.6985  0.2176 -1.1680
  138ACOH    H210003   1.096   1.131   1.887 -2.2911  2.6926 -0.3903
  138ACOH    H310004   0.989   1.162   2.017  0.5016  2.3391 -2.3456
  139ACOH    H410005   8.618   4.894   0.920 -0.9701 -0.2149 -1.3150
  139ACOH    O210006   8.556   4.864   0.989  0.3103 -0.0835 -0.0741
  139ACOH    C210007   8.617   4.889   1.103  0.1408 -0.6875 -0.8096
  139ACOH    O110008   8.706   4.969   1.127 -0.2818 -0.5060 -0.1181
  139ACOH    C110009   8.531   4.830   1.205  1.0528  0.3585  0.1436
  139ACOH    H110010   8.485   4.739   1.168  2.3162 -0.5387  0.7470
  139ACOH    H210011   8.445   4.891   1.233 -0.6176 -1.4182 -1.0001
  139ACOH    H310012   8.593   4.806   1.292  0.1177 -0.8949  0.4727
  140ACOH    H410013   0.959   2.387   1.487 -0.0717 -0.1880  0.2338
  140ACOH    O210014   0.880   2.406   1.435 -0.0112  0.1674  0.2721
  140ACOH    C210015   0.893   2.528   1.379  0.5846  0.4044 -0.3490
  140ACOH    O110016   0.999   2.593   1.391 -0.0144  0.3248 -0.5379
  140ACOH    C110017   0.770   2.571   1.302 -0.2141 -0.4698 -1.0955
  140ACOH    H110018   0.758   2.505   1.215 -1.2487 -0.1602 -1.1888
  140ACOH    H210019   0.769   2.677   1.279 -2.3940 -0.3831 -0.7150
  140ACOH    H310020   0.684   2.549   1.365  0.1166 -2.3898 -1.2847
  141ACOH    H410021   5.122   4.429   0.235  0.0005 -0.4472  0.3339
  141ACOH    O210022   5.171   4.427   0.319  0.4289  0.5365  0.1105
  141ACOH    C210023   5.256   4.327   0.317  0.0308  0.1339 -0.0983
  141ACOH    O110024   5.256   4.236   0.236 -0.4086  0.1003  0.0485
  141ACOH    C110025   5.341   4.328   0.440 -0.4304 -0.5138  0.0931
  141ACOH    H110026   5.276   4.357   0.522  0.0235 -1.4635  0.8041
  141ACOH    H210027   5.418   4.403   0.420 -1.5449  0.2156 -1.4798
  141ACOH    H310028   5.385   4.229   0.455  2.2289  0.4672 -0.8594
  142ACOH    H410029   4.330   8.966   0.681  0.5877  0.2822 -1.6006
  142ACOH    O210030   4.416   9.009   0.687  0.5469  0.2603 -0.7770
  142ACOH    C210031   4.421   9.129   0.738 -0.3465  0.0140 -0.3663
  142ACOH    O110032   4.330   9.205   0.780 -0.4593  0.4548 -0.5409
  142ACOH    C110033   4.557   9.181   0.722 -0.4154 -0.0264  0.6004
  142ACOH    H110034   4.624   9.102   0.688 -0.3256  0.0339  0.6349
  142ACOH    H210035   4.601   9.218   0.814 -1.0844 -0.7868  1.2389
  142ACOH    H310036   4.565   9.263   0.651  2.5046 -1.7125 -1.1355
  143ACOH    H410037   3.149   6.718   2.654 -0.9787 -1.9170  0.6105
  143ACOH    O210038   3.216   6.675   2.599 -0.1048  0.2935 -0.1215
  143ACOH    C210039   3.197   6.543   2.618 -0.5056 -0.6205  0.1005
  143ACOH    O110040   3.091   6.489   2.625  0.7654  0.4163 -0.2514
  143ACOH    C110041   3.310   6.458   2.569 -0.4830 -0.4672 -0.6368
  143ACOH    H110042   3.404   6.510   2.589  0.1923 -1.3370 -1.5304
  143ACOH    H210043   3.297   6.433   2.464 -1.0071 -0.9730 -0.4546
  143ACOH    H310044   3.305   6.362   2.621 -0.6957 -1.2385 -2.0601
  144ACOH    H410045   5.560   3.767   1.101 -0.1284 -1.2532  0.5099
  144ACOH    O210046   5.652   3.767   1.067 -0.1414  0.2011  0.4311
  144ACOH    C210047   5.683   3.640   1.035 -0.4656  0.1110 -0.5139
  144ACOH    O110048   5.629   3.543   1.081 -0.2192  0.2325  0.0501
  144ACOH    C110049   5.825   3.623   0.991 -0.4424 -0.7756  0.0151
  144ACOH    H110050   5.875   3.536   1.034  1.0292  0.5542  1.0441
  144ACOH    H210051   5.890   3.709   1.006  0.8187 -1.4019 -1.6561
  144ACOH    H310052   5.819   3.615   0.882 -0.1976  1.1047 -0.1541
  145ACOH    H410053   1.565   8.015   0.172 -0.0337  2.5712 -1.1755
  145ACOH    O210054   1.506   8.034   0.247  0.3887  0.2768 -0.2161
  145ACOH    C210055   1.386   8.089   0.204  0.6191  0.6806 -0.4956
  145ACOH    O110056   1.345   8.074   0.095  0.0221  1.0111  0.5815
  145ACOH    C110057   1.292   8.131   0.312 -0.8196 -0.3088 -0.0237
  145ACOH    H110058   1.281   8.238   0.295  3.6124  0.2221  0.0291
  145ACOH    H210059   1.338   8.108   0.408 -2.6108 -1.2339  0.6365
  145ACOH    H310060   1.199   8.074   0.307  0.0188 -1.6608 -0.7607
  146ACOH    H410061   4.854   2.055   0.927  0.6563  1.2520 -1.6745
  146ACOH    O210062   4.943   2.024   0.953 -0.1986  0.2531  0.0923
  146ACOH    C210063   4.991   1.948   0.851 -0.6930  0.3979  0.4886
  146ACOH    O110064   4.932   1.880   0.767  0.0362  0.1924  0.7546
  146ACOH    C110065   5.135   1.974   0.850 -0.1007 -0.2461  0.8048
  146ACOH    H110066   5.187   1.893   0.799 -1.6044 -0.4102 -0.5270
  146ACOH    H210067   5.168   1.995   0.951  2.3476 -0.2033  0.0152
  146ACOH    H310068   5.152   2.067   0.795 -0.8876 -1.8177 -2.2009
  147ACOH    H410069   3.892   8.764   1.239 -0.2491 -0.3524 -1.1929
  147ACOH    O210070   3.973   8.714   1.216  0.1808 -0.1332 -0.1776
  147ACOH    C210071   3.975   8.678   1.087 -0.4520 -0.1697  0.1308
  147ACOH    O110072   3.874   8.644   1.022  0.4996 -0.0764 -0.6037
  147ACOH    C110073   4.110   8.649   1.032 -0.7727  0.3078  0.2956
  147ACOH    H110074   4.095   8.576   0.952  0.2419 -0.5946  0.9104
  147ACOH    H210075   4.177   8.596   1.100  2.0734  2.2876 -0.8329
  147ACOH    H310076   4.156   8.740   0.991  1.9456 -0.7006  0.9655
  148ACOH    H410077   3.177   5.687   2.266  0.5841 -0.6648  0.4781
  148ACOH    O210078   3.225   5.770   2.281 -0.0231 -0.1665 -0.2968
  148ACOH    C210079   3.182   5.817   2.405 -0.2040 -0.0096 -0.0730
  148ACOH    O110080   3.066   5.804   2.443  0.2676  0.0323 -0.1690
  148ACOH    C110081   3.272   5.913   2.467 -0.1801 -0.2142 -0.8136
  148ACOH    H110082   3.293   6.001   2.406  1.0022  0.1525  0.1115
  148ACOH    H210083   3.365   5.861   2.487 -0.0567  1.0525  2.0801
  148ACOH    H310084   3.218   5.943   2.557  2.8904  1.9342  0.3887
  149ACOH    H410085   3.236   8.037   1.126 -0.5039 -1.2213 -0.4025
  149ACOH    O210086   3.275   8.016   1.212  0.0421  0.1820 -0.2926
  149ACOH    C210087   3.317   7.886   1.200 -0.0211  0.2370  0.6132
  149ACOH    O110088   3.267   7.805   1.121  0.4415 -0.0098 -0.7692
  149ACOH    C110089   3.416   7.859   1.308  0.2175  0.6475  0.1917
  149ACOH    H110090   3.414   7.937   1.384 -1.4178  0.5645  0.2467
  149ACOH    H210091   3.515   7.849   1.263 -0.1539 -0.8813 -0.3295
  149ACOH    H310092   3.383   7.767   1.357 -1.6507  0.8057 -0.7431
  150ACOH    H410093   3.047   2.528  -0.090 -1.7079  2.0779  0.3705
  150ACOH    O210094   2.995   2.470  -0.032  0.0057 -0.2134 -0.2978
  150ACOH    C210095   2.895   2.549   0.024 -0.3113 -0.0816 -0.4316
  150ACOH    O110096   2.879   2.667   0.004  0.3946  0.3126 -0.7685
  150ACOH    C110097   2.792   2.466   0.094  0.1237 -0.7620  0.3631
  150ACOH    H110098   2.793   2.506   0.195 -0.2013  3.0423 -1.0758
  150ACOH    H210099   2.829   2.363   0.099  3.2998  0.2894 -0.8857
  150ACOH    H310100   2.696   2.476   0.043 -0.1509  0.3304  1.0783
  151ACOH    H410101   3.698   8.350   1.873 -0.1488 -0.5212 -0.4279
  151ACOH    O210102   3.708   8.376   1.780  0.0624  0.3346 -0.1726
  151ACOH    C210103   3.594   8.437   1.749 -0.2765 -0.3947 -0.1078
  151ACOH    O110104   3.498   8.443   1.823  0.1675  1.0863  0.4213
  151ACOH    C110105   3.619   8.513   1.623  0.4631 -0.2238 -0.4414
  151ACOH    H110106   3.612   8.439   1.544 -1.7739 -1.0572  0.5038
  151ACOH    H210107   3.723   8.543   1.639  1.1609 -2.0550 -1.4509
  151ACOH    H310108   3.552   8.599   1.609 -1.8199 -1.7948  0.5159
  152ACOH    H410109   8.754   4.538   0.993  0.3208  0.0270  0.1400
  152ACOH    O210110   8.759   4.499   1.082  0.3510  0.1208  0.1793
  152ACOH    C210111   8.808   4.593   1.168 -0.9393  0.3691 -0.1241
  152ACOH    O110112   8.874   4.687   1.140 -0.1156 -0.5404 -0.7075
  152ACOH    C110113   8.819   4.523   1.300  0.7572  0.3139  0.8807
  152ACOH    H110114   8.851   4.592   1.378 -0.0682  0.2945  1.2446
  152ACOH    H210115   8.897   4.447   1.291 -0.6467 -1.4024  2.7622
  152ACOH    H310116   8.724   4.483   1.337 -0.3478  0.6038 -1.5077
  153ACOH    H410117   8.737   5.366   2.623  1.3233  1.7321  4.3945
  153ACOH    O210118   8.641   5.381   2.631  0.4416 -0.8200  0.2752
  153ACOH    C210119   8.621   5.509   2.590 -0.1766 -0.3308  0.1084
  153ACOH    O110120   8.696   5.568   2.518 -0.3914 -0.0223  0.4766
  153ACOH    C110121   8.482   5.557   2.609  1.2377 -0.0205  0.1026
  153ACOH    H110122   8.444   5.520   2.704 -1.7469 -1.8402 -1.7012
  153ACOH    H210123   8.427   5.508   2.528  2.5315  0.1482 -0.9064
  153ACOH    H310124   8.476   5.665   2.600  0.1017 -0.1311 -0.6072
  154ACOH    H410125   8.982   5.575   1.491 -0.1196 -0.1169 -0.0071
  154ACOH    O210126   9.045   5.646   1.474 -0.3427  0.1522  0.2900
  154ACOH    C210127   9.032   5.747   1.563 -0.5741  0.1693 -0.4977
  154ACOH    O110128   8.964   5.744   1.665  0.3689 -0.3936 -0.4496
  154ACOH    C110129   9.125   5.861   1.541 -0.4372  0.2248  0.7551
  154ACOH    H110130   9.093   5.915   1.451  0.7417  0.9257  0.7430
  154ACOH    H210131   9.225   5.824   1.518 -0.8097 -0.2803 -0.0762
  154ACOH    H310132   9.117   5.924   1.629 -0.1547 -0.1478  1.0483
  155ACOH    H410133   0.502   4.210   0.787  1.2250 -0.5756 -1.1528
  155ACOH    O210134   0.587   4.247   0.817  0.3208  0.7880 -0.2038
  155ACOH    C210135   0.598   4.264   0.948  0.7520  0.2732  0.4832
  155ACOH    O110136   0.510   4.259   1.036 -0.4270  0.6188  0.2532
  155ACOH    C110137   0.738   4.315   0.975 -0.0178  0.3557 -0.0376
  155ACOH    H110138   0.788   4.223   1.006 -0.5104  1.1453  3.3173
  155ACOH    H210139   0.741   4.382   1.061 -2.5892  0.7359 -0.2110
  155ACOH    H310140   0.781   4.354   0.883  0.1551  1.5402  0.5445
  156ACOH    H410141   1.856   5.720   0.349 -1.9450 -1.0893  0.2855
  156ACOH    O210142   1.854   5.736   0.445 -0.0154 -0.1148  0.1856
  156ACOH    C210143   1.786   5.850   0.448  0.3768 -0.6546 -0.5359
  156ACOH    O110144   1.794   5.937   0.364  0.4502 -0.3924  0.0100
  156ACOH    C110145   1.745   5.869   0.583  0.0719 -0.3215  0.4289
  156ACOH    H110146   1.670   5.792   0.602  0.3695 -0.4295  1.1704
  156ACOH    H210147   1.690   5.956   0.619  0.1476 -0.8386  1.8401
  156ACOH    H310148   1.825   5.852   0.655 -0.4587  1.6356  1.5225
  157ACOH    H410149   1.741   0.871   0.045  0.1623  0.6360 -3.5052
  157ACOH    O210150   1.647   0.894   0.060  0.5108  0.1561  0.0513
  157ACOH    C210151   1.608   0.881   0.183  0.5669 -0.1440 -0.2465
  157ACOH    O110152   1.670   0.891   0.283 -0.3121 -0.0014 -0.4227
  157ACOH    C110153   1.455   0.879   0.187 -0.3896 -0.2210  0.5907
  157ACOH    H110154   1.426   0.983   0.197  1.7171  0.2642  2.0241
  157ACOH    H210155   1.418   0.827   0.275  0.3482 -0.4338  0.7798
  157ACOH    H310156   1.400   0.838   0.102 -0.0301  1.5275 -0.5207
  158ACOH    H410157   9.874   3.291   2.341  0.6322 -0.0894  1.3312
  158ACOH    O210158   9.898   3.199   2.321  0.0349 -0.1672  0.9414
  158ACOH    C210159   9.827   3.169   2.207 -0.0616 -0.3492 -0.2852
  158ACOH    O110160   9.764   3.254   2.143  0.3041 -0.9097 -0.2797
  158ACOH    C110161   9.815   3.020   2.198  0.7059  0.1795 -0.1144
  158ACOH    H110162   9.784   2.983   2.296  0.3492  0.2016 -0.2196
  158ACOH    H210163   9.917   2.980   2.199  0.6693  0.1116  1.3226
  158ACOH    H310164   9.752   2.972   2.122  1.8114  2.3781 -2.4897
  159ACOH    H410165   8.488   5.299   0.396 -0.7855  0.8632  0.6797
  159ACOH    O210166   8.530   5.386   0.380  0.3633  0.0314 -0.9164
  159ACOH    C210167   8.657   5.353   0.340  0.1626  0.1149 -0.1847
  159ACOH    O110168   8.694   5.245   0.305 -0.2017  0.1651  0.5016
  159ACOH    C110169   8.731   5.479   0.325 -0.0378 -0.2523  0.4043
  159ACOH    H110170   8.774   5.490   0.226  1.8554 -2.4564  0.9272
  159ACOH    H210171   8.815   5.481   0.395 -0.0306  0.4040  0.3837
  159ACOH    H310172   8.663   5.560   0.352 -1.5010 -0.8693 -1.3886
  160ACOH    H410173   4.813   1.693   2.656 -0.2564  0.8829  1.3177
  160ACOH    O210174   4.894   1.746   2.653  0.1450  0.2102 -0.4046
  160ACOH    C210175   4.853   1.860   2.599 -0.8707 -0.6464  0.1488
  160ACOH    O110176   4.754   1.883   2.536 -0.2693  0.1947  0.5715
  160ACOH    C110177   4.970   1.959   2.609  0.1305 -0.0089 -0.1601
  160ACOH    H110178   5.037   1.935   2.691  0.1800 -1.0312 -0.4872
  160ACOH    H210179   4.919   2.054   2.624 -0.3472 -0.2213 -0.4061
  160ACOH    H310180   5.028   1.957   2.516  0.2914 -1.9766 -0.0340
  161ACOH    H410181   5.268   2.960   0.900 -1.6587 -0.7892  3.3283
  161ACOH    O210182   5.232   2.881   0.856  0.0787 -0.0245  0.3958
  161ACOH    C210183   5.100   2.899   0.890 -0.0574  1.0460 -0.6443
  161ACOH    O110184   5.044   3.004   0.886 -0.3293  0.3920 -0.3375
  161ACOH    C110185   5.042   2.763   0.867  0.2749 -0.3007 -0.1024
  161ACOH    H110186   5.054   2.748   0.759 -0.6835  0.9231 -0.3889
  161ACOH    H210187   4.935   2.757   0.886  0.5400 -1.1093  1.1344
  161ACOH    H310188   5.100   2.691   0.923  2.7081 -0.1920 -2.3675
  162ACOH    H410189   1.151   8.471   0.286 -0.0775 -0.3625 -2.3465
  162ACOH    O210190   1.055   8.462   0.295  0.0134  0.0744 -0.6040
  162ACOH    C210191   1.008   8.386   0.387 -0.0919  0.2575 -0.2555
  162ACOH    O110192   1.079   8.335   0.474 -0.2715  0.1209 -0.2149
  162ACOH    C110193   0.870   8.346   0.352  0.1511 -0.6592  0.1113
  162ACOH    H110194   0.872   8.263   0.282  1.2158 -0.5868  0.0501
  162ACOH    H210195   0.808   8.429   0.317  4.1005  1.5636 -2.0152
  162ACOH    H310196   0.831   8.303   0.444  2.8477 -0.6351  1.3105
  163ACOH    H410197   1.719   2.471   1.460 -1.6711 -3.2383 -1.9865
  163ACOH    O210198   1.805   2.483   1.415 -0.3295 -0.2456  1.1397
  163ACOH    C210199   1.860   2.604   1.448  0.2353 -1.1362  0.4667
  163ACOH    O110200   1.805   2.690   1.514 -0.1373  0.1517 -0.2044
  163ACOH    C110201   1.982   2.636   1.365  0.2996  0.6474  0.8190
  163ACOH    H110202   2.017   2.736   1.391 -1.4388  1.6042 -0.4131
  163ACOH    H210203   1.962   2.640   1.258 -0.1146 -1.6069  0.8014
  163ACOH    H310204   2.053   2.556   1.382 -2.6616 -2.4950 -1.0400
  164ACOH    H410205   1.123   1.659   2.287 -1.1203  1.1205  0.2447
  164ACOH    O210206   1.101   1.690   2.376 -0.3885  0.2365  0.7464
  164ACOH    C210207   1.108   1.824   2.367 -0.0269  0.3965 -0.4694
  164ACOH    O110208   1.075   1.891   2.272 -0.7320 -0.4427 -0.1542
  164ACOH    C110209   1.095   1.890   2.498 -0.2965 -0.2343 -0.1129
  164ACOH    H110210   1.106   1.830   2.588 -1.4910 -0.7349 -0.2933
  164ACOH    H210211   0.996   1.935   2.510 -0.1371  0.0336  0.2290
  164ACOH    H310212   1.166   1.972   2.482 -1.1565  0.4734 -0.3409
  165ACOH    H410213   9.642   5.786   2.021 -1.2214 -1.8779 -1.2830
  165ACOH    O210214   9.679   5.707   2.065  0.3800 -0.4432 -0.0195
  165ACOH    C210215   9.675   5.716   2.196  0.4051  0.9594 -0.0541
  165ACOH    O110216   9.593   5.786   2.248 -0.2309 -0.5093  0.0431
  165ACOH    C110217   9.741   5.596   2.266 -0.6615  0.3632  0.2024
  165ACOH    H110218   9.674   5.510   2.258  1.8011 -1.6675  0.7281
  165ACOH    H210219   9.760   5.600   2.373 -1.3725  0.2227  0.3348
  165ACOH    H310220   9.831   5.573   2.209 -0.0067 -1.4891  1.9096
  166ACOH    H410221   3.993   8.948   1.632 -1.5129 -0.8995 -4.5839
  166ACOH    O210222   3.957   9.038   1.631 -0.0255 -0.1463 -0.3434
  166ACOH    C210223   3.925   9.055   1.757 -0.4069 -0.7947  0.2747
  166ACOH    O110224   3.952   8.987   1.853  0.4118 -0.5369 -0.3508
  166ACOH    C110225   3.841   9.177   1.778  0.1746 -0.3984 -0.1032
  166ACOH    H110226   3.793   9.205   1.683 -3.3824 -0.8312  1.4785
  166ACOH    H210227   3.896   9.264   1.813  0.9292 -1.3713  1.1530
  166ACOH    H310228   3.762   9.146   1.846  2.6085 -1.4019  2.3680
  167ACOH    H410229   4.498   1.043   0.883  0.2399 -0.0460 -0.8903
  167ACOH    O210230   4.521   1.001   0.968  0.6012  0.2729 -0.8289
  167ACOH    C210231   4.594   0.889   0.944  0.3374 -0.3611 -0.1734
  167ACOH    O110232   4.629   0.855   0.830 -0.1287 -0.1458  0.2126
  167ACOH    C110233   4.614   0.818   1.073 -0.8055  0.3971 -0.0464
  167ACOH    H110234   4.644   0.713   1.073  0.3625  0.7201 -1.5351
  167ACOH    H210235   4.529   0.838   1.139 -0.8157 -1.7119  0.6442
  167ACOH    H310236   4.698   0.869   1.119  0.8190 -1.8171 -0.4709
  168ACOH    H410237   3.804   0.687   1.522 -0.2584  1.0707  0.3712
  168ACOH    O210238   3.776   0.651   1.608 -0.0353 -0.8323 -0.3374
  168ACOH    C210239   3.858   0.700   1.706 -0.0494 -0.0163  0.7028
  168ACOH    O110240   3.978   0.724   1.696 -0.3056  0.7154 -0.1687
  168ACOH    C110241   3.801   0.690   1.840  0.6343  0.1390  0.0577
  168ACOH    H110242   3.698   0.653   1.836 -0.2655  2.6547 -1.9075
  168ACOH    H210243   3.799   0.790   1.885 -0.3590  1.2145 -2.2874
  168ACOH    H310244   3.865   0.629   1.904 -1.0588 -0.9205  0.7717
  169ACOH    H410245   5.477   3.164   1.438  0.8091  0.0116  2.2551
  169ACOH    O210246   5.544   3.232   1.421  0.2059  0.2020  0.4526
  169ACOH    C210247   5.479   3.342   1.403 -0.3470  0.0049  0.2279
  169ACOH    O110248   5.361   3.344   1.374  0.2412  0.0446  0.4911
  169ACOH    C110249   5.562   3.462   1.401 -0.1663  0.1733 -0.0044
  169ACOH    H110250   5.645   3.452   1.330 -0.4061 -1.5981 -0.0595
  169ACOH    H210251   5.605   3.469   1.501  0.0374  2.1062 -0.2092
  169ACOH    H310252   5.504   3.549   1.370  0.9880  0.4589 -1.3973
  170ACOH    H410253   4.884   3.880   1.504 -0.5795  0.1655 -0.5114
  170ACOH    O210254   4.846   3.858   1.417 -0.4893  0.0463 -0.5221
  170ACOH    C210255   4.861   3.723   1.415  0.4864 -0.1728 -0.2232
  170ACOH    O110256   4.970   3.667   1.432 -0.0596 -0.0100 -0.3041
  170ACOH    C110257   4.756   3.662   1.326 -0.0139  0.2367 -0.8365
  170ACOH    H110258   4.779   3.683   1.222 -0.9304  0.9108 -0.9136
  170ACOH    H210259   4.656   3.696   1.356  0.4985 -0.7761  2.1842
  170ACOH    H310260   4.757   3.553   1.332 -0.4541  0.3051  0.8692
  171ACOH    H410261   2.622   3.109   1.340 -0.0505  1.0134  2.1065
  171ACOH    O210262   2.672   3.191   1.320  0.1642  0.4959  0.4564
  171ACOH    C210263   2.682   3.183   1.183  0.0717  0.8336 -0.3227
  171ACOH    O110264   2.617   3.114   1.102 -0.1668 -0.8812 -0.0771
  171ACOH    C110265   2.766   3.286   1.119 -0.0057  0.7522 -0.1751
  171ACOH    H110266   2.814   3.258   1.025 -0.4322  0.0633 -0.1903
  171ACOH    H210267   2.843   3.309   1.192  0.9951  1.8044 -1.5356
  171ACOH    H310268   2.706   3.376   1.106 -1.2782 -0.3731 -2.4284
  172ACOH    H410269   4.159   0.600   0.524  0.6147 -0.4808  0.2410
  172ACOH    O210270   4.212   0.564   0.451 -0.1070 -0.6129 -0.2245
  172ACOH    C210271   4.284   0.671   0.408 -0.6134  0.4868 -0.7711
  172ACOH    O110272   4.276   0.790   0.445 -0.0266  0.0003 -0.0614
  172ACOH    C110273   4.379   0.626   0.292  0.3169  0.3894 -0.8538
  172ACOH    H110274   4.419   0.530   0.325 -0.9631 -0.1925 -0.9590
  172ACOH    H210275   4.455   0.701   0.272  0.6207  0.5400  0.7733
  172ACOH    H310276   4.310   0.603   0.211  3.3208 -2.1874 -2.8261
  173ACOH    H410277   0.151   3.110   2.008  1.4220  0.2318  0.7139
  173ACOH    O210278   0.142   3.027   2.058 -0.0798 -0.4899 -0.6881
  173ACOH    C210279   0.229   3.051   2.159  0.2508 -0.6528 -0.4995
  173ACOH    O110280   0.340   3.105   2.144  0.7279  0.4978  0.0375
  173ACOH    C110281   0.185   2.960   2.270  0.1711  0.5878 -0.4956
  173ACOH    H110282   0.257   2.965   2.352 -1.4774 -0.0501  1.0222
  173ACOH    H210283   0.171   2.860   2.228  0.5672 -0.0108  0.7706
  173ACOH    H310284   0.089   2.992   2.310  0.7975 -0.0658  1.6380
  174ACOH    H410285   8.938   5.652   0.848  1.5783  0.9744 -2.0724
  174ACOH    O210286   8.989   5.685   0.924  0.1176 -0.2825 -0.4955
  174ACOH    C210287   8.966   5.598   1.022  0.3786 -0.2597 -0.0695
  174ACOH    O110288   8.901   5.496   1.022  0.2172 -0.7645  0.9867
  174ACOH    C110289   9.014   5.665   1.145 -0.4382 -0.4858 -0.3115
  174ACOH    H110290   8.938   5.666   1.223 -0.9335 -1.2005 -0.7784
  174ACOH    H210291   9.056   5.765   1.137 -1.1527 -0.1200  0.4601
  174ACOH    H310292   9.095   5.603   1.185  0.4091  0.5669 -0.3988
  175ACOH    H410293   4.253   9.046   0.127 -2.8607 -1.4055 -0.6455
  175ACOH    O210294   4.253   9.051   0.224  0.4020 -0.2291 -0.6457
  175ACOH    C210295   4.230   9.180   0.262 -0.8277 -0.0938  0.8400
  175ACOH    O110296   4.260   9.280   0.200 -0.2486 -0.3205  0.2666
  175ACOH    C110297   4.191   9.186   0.404 -0.5508 -0.5333 -0.2864
  175ACOH    H110298   4.215   9.097   0.463  2.6961  2.4136  3.0611
  175ACOH    H210299   4.083   9.200   0.412 -0.6016 -0.2231 -1.4133
  175ACOH    H310300   4.239   9.266   0.460 -0.0588 -1.6465  0.9189
  176ACOH    H410301   4.607   4.895   0.785  1.1375  1.2578 -0.9684
  176ACOH    O210302   4.658   4.816   0.762 -0.3124 -0.0921  0.3565
  176ACOH    C210303   4.578   4.710   0.788  0.4869  0.3188 -0.6566
  176ACOH    O110304   4.513   4.690   0.891 -0.1039  0.3271  1.0633
  176ACOH    C110305   4.620   4.600   0.705 -1.0502  0.4942 -0.3235
  176ACOH    H110306   4.684   4.634   0.623 -0.5740 -0.4096 -0.3432
  176ACOH    H210307   4.533   4.556   0.658  0.0470 -2.7051  0.5027
  176ACOH    H310308   4.679   4.526   0.759  0.3284  2.1493  0.4902
  177ACOH    H410309   3.160   7.927   2.336 -0.1980 -0.1129 -0.4878
  177ACOH    O210310   3.176   7.868   2.412 -0.3244  0.7847  0.2401
  177ACOH    C210311   3.066   7.795   2.437 -0.3663 -0.1686  0.4240
  177ACOH    O110312   2.981   7.785   2.354 -0.3824  0.4643  0.0750
  177ACOH    C110313   3.077   7.700   2.546 -0.0477  0.0685  0.3765
  177ACOH    H110314   3.113   7.749   2.636  1.4338 -0.3231  0.0104
  177ACOH    H210315   3.141   7.619   2.512  2.6510  2.0980  0.4688
  177ACOH    H310316   2.980   7.658   2.573 -0.1764  0.0362 -0.1178
  178ACOH    H410317   4.051   8.564   1.674  0.4451 -1.3647 -0.4178
  178ACOH    O210318   4.095   8.575   1.588  0.4545  0.1052 -0.2339
  178ACOH    C210319   4.115   8.701   1.558 -0.1680 -0.0871  0.7214
  178ACOH    O110320   4.058   8.797   1.599  0.5045  0.0582  0.0038
  178ACOH    C110321   4.216   8.702   1.455 -0.2545  0.7062 -0.2836
  178ACOH    H110322   4.305   8.641   1.474  0.4203  2.3199  1.9760
  178ACOH    H210323   4.251   8.802   1.429  1.8855  0.0958  0.1338
  178ACOH    H310324   4.165   8.658   1.370 -2.3636 -0.5079  1.5721
  179ACOH    H410325   8.796   4.226   1.916  0.9543 -0.1986  1.3708
  179ACOH    O210326   8.756   4.137   1.921  0.1424  0.0878  0.2248
  179ACOH    C210327   8.683   4.107   1.812  0.1971 -0.4453 -0.1634
  179ACOH    O110328   8.675   4.167   1.705 -0.5645  0.2070 -0.0576
  179ACOH    C110329   8.628   3.970   1.814 -0.8025  0.7196  0.2700
  179ACOH    H110330   8.694   3.896   1.769 -1.5184 -0.2160  0.7349
  179ACOH    H210331   8.528   3.972   1.771 -1.4224 -0.4238  1.6056
  179ACOH    H310332   8.605   3.943   1.918 -2.2845  0.2614 -0.1613
  180ACOH    H410333   5.295   3.117   2.536 -0.3923 -0.2641 -0.0332
  180ACOH    O210334   5.365   3.149   2.477 -0.2342  0.2327  0.4130
  180ACOH    C210335   5.314   3.151   2.354 -0.5177  0.2972 -0.0468
  180ACOH    O110336   5.201   3.124   2.324  0.0454  0.8790  0.8178
  180ACOH    C110337   5.429   3.167   2.251  0.6033 -0.5032  0.4307
  180ACOH    H110338   5.393   3.155   2.149  1.3518  0.2922  0.0639
  180ACOH    H210339   5.500   3.087   2.272  0.1006 -0.8517  0.8098
  180ACOH    H310340   5.472   3.266   2.268  2.2093 -1.1445  0.1924
  181ACOH    H410341   4.552   4.725   1.656 -0.7794  1.4647  0.4418
  181ACOH    O210342   4.640   4.765   1.648 -0.2016  0.0953 -0.3952
  181ACOH    C210343   4.623   4.899   1.634  0.9409 -0.4026 -0.0721
  181ACOH    O110344   4.521   4.962   1.606  0.0767  0.2452 -0.0981
  181ACOH    C110345   4.759   4.961   1.619  0.1887 -0.4726  0.2020
  181ACOH    H110346   4.819   4.895   1.556 -0.7851 -0.3144 -0.8977
  181ACOH    H210347   4.812   4.963   1.714 -1.1721 -0.8129  0.9852
  181ACOH    H310348   4.741   5.064   1.589 -0.4214 -1.1200 -1.6927
  182ACOH    H410349   4.650   1.572   1.179  2.3655 -0.5750  0.4190
  182ACOH    O210350   4.671   1.666   1.192  0.0467  0.0231  0.2436
  182ACOH    C210351   4.591   1.711   1.296 -0.0401  0.5747 -0.2926
  182ACOH    O110352   4.506   1.646   1.358  0.0666 -0.4629 -0.2067
  182ACOH    C110353   4.618   1.851   1.334  0.7447 -0.3893 -0.4351
  182ACOH    H110354   4.568   1.854   1.431 -1.2762 -2.6650 -1.3548
  182ACOH    H210355   4.574   1.923   1.265  1.3562  1.0139  0.6151
  182ACOH    H310356   4.721   1.882   1.350  0.1367  1.1599  0.7034
  183ACOH    H410357   1.132   2.019   1.783 -1.3113  1.7698  1.6623
  183ACOH    O210358   1.116   2.074   1.704  0.2516 -0.1322 -0.0451
  183ACOH    C210359   1.128   2.007   1.591  0.1422  0.4275  0.1628
  183ACOH    O110360   1.205   1.915   1.581  0.3481 -0.5578 -0.3490
  183ACOH    C110361   1.060   2.065   1.475  0.3130 -0.1632  0.0563
  183ACOH    H110362   1.101   2.164   1.454 -0.9483  0.1733 -0.8661
  183ACOH    H210363   0.957   2.088   1.502  0.3513 -0.2841  0.3083
  183ACOH    H310364   1.069   2.008   1.382 -1.5449  0.2143 -0.3816
  184ACOH    H410365   3.161   3.313   1.099 -1.6978  1.0951  0.5818
  184ACOH    O210366   3.220   3.368   1.152 -0.1558  0.4425 -0.4369
  184ACOH    C210367   3.166   3.489   1.157 -0.2098 -0.1377  0.3277
  184ACOH    O110368   3.058   3.517   1.112 -0.2881  0.7253  0.2789
  184ACOH    C110369   3.234   3.560   1.273  0.3732  0.1824 -0.3011
  184ACOH    H110370   3.341   3.539   1.274 -0.1815 -2.7969 -0.4542
  184ACOH    H210371   3.189   3.520   1.363  0.9217  1.8084  0.7184
  184ACOH    H310372   3.210   3.666   1.259  0.0030  0.3080  1.2456
  185ACOH    H410373   2.647   7.909   1.179  0.7722  0.0258  0.4743
  185ACOH    O210374   2.710   7.894   1.107  0.0803  0.1953 -0.1718
  185ACOH    C210375   2.824   7.841   1.161 -0.1618 -0.0091 -0.1725
  185ACOH    O110376   2.844   7.800   1.276  0.3394  0.4608  0.3317
  185ACOH    C110377   2.911   7.822   1.048 -0.6891 -0.3925 -0.4718
  185ACOH    H110378   2.935   7.922   1.012  1.0809 -0.2514  1.0138
  185ACOH    H210379   2.856   7.775   0.967  0.0785  4.3894 -3.9747
  185ACOH    H310380   3.006   7.772   1.066 -0.5258  0.2516  0.5324
  186ACOH    H410381   5.047   4.519   0.614 -1.5399 -0.3796 -3.1857
  186ACOH    O210382   5.106   4.592   0.587 -0.2288  0.0491  0.6262
  186ACOH    C210383   5.036   4.676   0.514  0.8283 -0.7312 -0.6419
  186ACOH    O110384   4.914   4.689   0.514  0.9493  0.1924 -0.3879
  186ACOH    C110385   5.125   4.779   0.458  0.0888 -0.4539  0.3398
  186ACOH    H110386   5.228   4.746   0.472 -0.5730 -2.3856  0.8496
  186ACOH    H210387   5.111   4.873   0.510  0.9008 -1.4640  2.4363
  186ACOH    H310388   5.110   4.788   0.350  1.3381  1.3004  0.2998
  187ACOH    H410389   1.755   9.345   1.743 -0.0654 -0.2979  2.5429
  187ACOH    O210390   1.670   9.393   1.747 -0.0807 -0.0711  0.2717
  187ACOH    C210391   1.608   9.316   1.841 -0.3938  0.2759  0.4888
  187ACOH    O110392   1.654   9.215   1.893  0.1331  0.1363 -0.1089
  187ACOH    C110393   1.478   9.377   1.875  0.4036 -0.1352 -0.3939
  187ACOH    H110394   1.451   9.326   1.967 -0.6461 -0.0285 -0.6297
  187ACOH    H210395   1.401   9.348   1.804  0.0449  1.9910 -0.9157
  187ACOH    H310396   1.475   9.484   1.897 -0.4253 -0.2671  0.1818
  188ACOH    H410397   4.043   5.457   0.491 -1.3417 -0.5368 -0.6723
  188ACOH    O210398   4.064   5.505   0.410 -0.3164  0.5793  0.2318
  188ACOH    C210399   3.954   5.582   0.381  0.0885  0.3258  0.7832
  188ACOH    O110400   3.861   5.602   0.457  0.2020 -0.5172 -0.0741
  188ACOH    C110401   3.977   5.667   0.261  0.0624  0.1330  0.2989
  188ACOH    H110402   4.027   5.761   0.284  0.1757  0.0472  0.4013
  188ACOH    H210403   3.885   5.696   0.211  1.3907  1.0312 -1.7124
  188ACOH    H310404   4.044   5.601   0.204  3.4914  1.8176  2.2020
  189ACOH    H410405   5.223   3.352   1.685  1.2829  0.4984  1.0425
  189ACOH    O210406   5.260   3.262   1.691  0.3175  0.0312  0.1112
  189ACOH    C210407   5.167   3.182   1.751 -0.4062  0.0123 -0.0748
  189ACOH    O110408   5.072   3.233   1.807 -0.2134  0.1815 -0.5126
  189ACOH    C110409   5.204   3.037   1.753  0.1890  0.0008  0.5191
  189ACOH    H110410   5.217   2.999   1.855 -1.1538 -0.5642  0.4804
  189ACOH    H210411   5.298   3.027   1.698 -0.1562 -1.3099  0.1514
  189ACOH    H310412   5.128   2.981   1.699 -0.1686  2.0974 -1.2237
  190ACOH    H410413   4.021  10.071   2.072  1.4930  1.7717 -3.0756
  190ACOH    O210414   4.044   9.986   2.030 -0.2496 -0.3338  0.0336
  190ACOH    C210415   3.996   9.883   2.102 -0.4641 -0.5727  0.1791
  190ACOH    O110416   3.940   9.898   2.209  0.5557 -0.1129  0.0229
  190ACOH    C110417   4.023   9.747   2.040 -0.2940  0.2598  0.3646
  190ACOH    H110418   3.966   9.748   1.947 -0.2923 -2.7018  0.2956
  190ACOH    H210419   3.987   9.663   2.100 -5.5509  2.0451  0.0122
  190ACOH    H310420   4.130   9.748   2.019 -0.0947  0.9864  1.3828
  191ACOH    H410421   4.612   4.640  -0.033  0.5412 -0.2815 -0.4124
  191ACOH    O210422   4.634   4.729  -0.064  0.6460 -0.0291  0.3668
  191ACOH    C210423   4.574   4.820   0.017 -1.1655  0.2048 -0.0335
  191ACOH    O110424   4.479   4.788   0.082 -0.2345 -0.0383 -0.0506
  191ACOH    C110425   4.617   4.954  -0.004  0.1423  0.2858  0.0189
  191ACOH    H110426   4.548   5.013   0.056 -0.1059  0.2729 -0.2517
  191ACOH    H210427   4.599   4.980  -0.108  2.6720 -0.4415 -0.6373
  191ACOH    H310428   4.720   4.968   0.028 -0.0405  0.7625  0.4089
  192ACOH    H410429   8.479   4.954   0.305  0.3534 -0.5519  0.2152
  192ACOH    O210430   8.423   4.918   0.375 -0.4525 -0.1950 -0.2419
  192ACOH    C210431   8.343   5.017   0.409 -0.0384 -0.3204 -0.2949
  192ACOH    O110432   8.380   5.128   0.439  0.8230 -0.2063  0.8533
  192ACOH    C110433   8.209   4.975   0.451 -0.5014 -0.5877 -0.6452
  192ACOH    H110434   8.204   4.982   0.560  0.1194  1.7346 -0.7293
  192ACOH    H210435   8.188   4.876   0.412 -0.4860 -0.5531 -0.7396
  192ACOH    H310436   8.141   5.041   0.397  0.1472  1.8837  1.4604
  193ACOH    H410437   3.118   8.088   1.666 -1.2211  0.2288 -0.8493
  193ACOH    O210438   3.106   8.001   1.708 -0.1643  0.1090 -0.7859
  193ACOH    C210439   3.113   8.024   1.839  0.5621  0.8171 -0.2719
  193ACOH    O110440   3.109   8.132   1.898 -0.3363  1.1538  0.1435
  193ACOH    C110441   3.116   7.900   1.923 -0.0571  0.4803 -0.1844
  193ACOH    H110442   3.014   7.861   1.926 -0.1870  0.8449  0.1629
  193ACOH    H210443   3.158   7.917   2.022  0.3190  0.7069 -0.3802
  193ACOH    H310444   3.175   7.826   1.870 -0.1745  0.1359  0.1643
  194ACOH    H410445   2.952   6.621   2.153 -1.7033  2.8736 -0.8511
  194ACOH    O210446   2.999   6.608   2.069 -0.2872 -0.2149  0.3354
  194ACOH    C210447   3.089   6.503   2.078  0.2137  0.0341 -0.1788
  194ACOH    O110448   3.117   6.442   2.178  0.5188 -0.3692 -0.1045
  194ACOH    C110449   3.178   6.501   1.960  0.3101  0.2434  0.2219
  194ACOH    H110450   3.202   6.606   1.943  1.2781 -0.2446 -1.4732
  194ACOH    H210451   3.122   6.463   1.875  2.0559  0.6272 -1.1051
  194ACOH    H310452   3.269   6.444   1.979  2.3424  3.2265 -0.1462
  195ACOH    H410453   8.756   3.918   0.798  0.4689  0.7044 -3.3152
  195ACOH    O210454   8.750   3.826   0.767 -0.1475 -0.3853 -0.0623
  195ACOH    C210455   8.831   3.822   0.662 -0.1032 -0.5647  0.9233
  195ACOH    O110456   8.934   3.875   0.655 -0.2133  0.0746 -0.0724
  195ACOH    C110457   8.810   3.703   0.575  0.4894  0.5430  0.4943
  195ACOH    H110458   8.817   3.740   0.473 -0.7076  1.7078  0.8252
  195ACOH    H210459   8.706   3.673   0.585  0.2972  0.4035 -1.5878
  195ACOH    H310460   8.876   3.621   0.604  0.3141  0.7339  1.4512
  196ACOH    H410461   1.814   8.385   0.561  0.0450 -1.3046 -0.6562
  196ACOH    O210462   1.840   8.356   0.651  0.6248  0.3401 -0.2699
  196ACOH    C210463   1.923   8.250   0.630  0.2984 -0.1752 -0.8533
  196ACOH    O110464   1.976   8.215   0.527 -0.3269 -0.8945 -0.1475
  196ACOH    C110465   1.962   8.181   0.760  0.3222  0.1047 -0.0562
  196ACOH    H110466   1.983   8.077   0.738 -1.1175  0.0819 -1.4613
  196ACOH    H210467   1.877   8.189   0.828  0.5443  0.0056  0.2295
  196ACOH    H310468   2.049   8.231   0.801  1.2717  0.0527 -1.9488
  197ACOH    H410469   5.147   4.282   1.867 -1.4836 -0.2982  0.6014
  197ACOH    O210470   5.117   4.367   1.832 -0.4037 -0.2349 -0.2034
  197ACOH    C210471   5.031   4.423   1.924 -0.3316 -0.7742  0.5342
  197ACOH    O110472   5.022   4.393   2.042 -0.3965  0.6803 -0.0818
  197ACOH    C110473   4.984   4.553   1.878  0.3139 -0.0686  0.3512
  197ACOH    H110474   4.949   4.618   1.957  0.3305  2.6395 -1.7751
  197ACOH    H210475   4.901   4.533   1.810  1.1224 -1.8760 -0.1287
  197ACOH    H310476   5.056   4.608   1.816 -0.6211 -1.0727 -1.6921
  198ACOH    H410477   3.720   5.703   0.474  0.0899  0.6380 -2.1623
  198ACOH    O210478   3.653   5.773   0.486 -0.2458 -0.0266  0.0902
  198ACOH    C210479   3.594   5.755   0.606  0.0972  0.9963 -0.1415
  198ACOH    O110480   3.610   5.661   0.680  0.5849 -0.3587 -0.0653
  198ACOH    C110481   3.505   5.874   0.624  0.2040  0.4173 -0.3056
  198ACOH    H110482   3.429   5.883   0.547  0.7873  1.9773 -0.7211
  198ACOH    H210483   3.560   5.968   0.615  1.3109 -0.1040  0.8445
  198ACOH    H310484   3.460   5.856   0.721 -0.1684  0.3110 -0.5001
  199ACOH    H410485   1.460   3.793   0.787  1.3480  0.3757 -2.8483
  199ACOH    O210486   1.499   3.705   0.775 -0.1097 -0.6758 -0.1758
  199ACOH    C210487   1.418   3.618   0.840 -0.3921 -0.5114 -0.0485
  199ACOH    O110488   1.347   3.641   0.938  0.1057 -0.3613  0.0680
  199ACOH    C110489   1.433   3.481   0.789 -0.1838  0.2938  0.5820
  199ACOH    H110490   1.472   3.484   0.688  0.0277 -0.4916  0.6414
  199ACOH    H210491   1.336   3.434   0.805  0.2154 -0.8878 -0.4776
  199ACOH    H310492   1.506   3.434   0.855 -1.5497  0.0221  1.9397
  200ACOH    H410493   3.393   5.963   1.915  0.3869  0.3606 -0.8744
  200ACOH    O210494   3.485   5.944   1.938  0.0501 -0.0140  0.1836
  200ACOH    C210495   3.488   5.932   2.071  0.5711 -0.8415 -0.3966
  200ACOH    O110496   3.404   5.973   2.149 -0.0914 -0.2422 -0.0673
  200ACOH    C110497   3.631   5.906   2.115 -0.4365 -0.0501 -0.3651
  200ACOH    H110498   3.644   5.913   2.223 -0.4658 -0.5064 -0.3323
  200ACOH    H210499   3.702   5.978   2.075 -1.5020  0.2696 -1.7228
  200ACOH    H310500   3.658   5.805   2.086 -0.4749 -0.6183  1.5328
  201ACOH    H410501   1.974   8.878   2.114  1.7450 -1.8162 -0.4440
  201ACOH    O210502   2.010   8.936   2.182 -0.3649 -0.5747 -0.3483
  201ACOH    C210503   1.935   8.933   2.294 -0.1821  0.5551 -0.7105
  201ACOH    O110504   1.835   8.866   2.317 -0.3119 -0.3591 -0.5077
  201ACOH    C110505   1.984   9.032   2.403 -0.0307 -0.0038  0.1970
  201ACOH    H110506   2.090   9.010   2.415  0.2986  1.8284  0.7133
  201ACOH    H210507   1.948   9.019   2.505 -0.5581 -1.4990 -0.1562
  201ACOH    H310508   1.963   9.130   2.362  2.4486  0.6801  0.4599
  202ACOH    H410509   4.467   5.581   1.406  1.3597 -0.6197  0.2421
  202ACOH    O210510   4.497   5.665   1.444 -0.4843  0.1068  0.1547
  202ACOH    C210511   4.390   5.746   1.452  0.1438  0.7192 -0.3391
  202ACOH    O110512   4.285   5.725   1.396  0.2926 -0.3969  0.4640
  202ACOH    C110513   4.429   5.879   1.493  0.2666  0.7506 -0.4798
  202ACOH    H110514   4.512   5.911   1.430  0.0670  0.7084 -0.7647
  202ACOH    H210515   4.460   5.867   1.598  0.9163  0.0193 -0.7443
  202ACOH    H310516   4.351   5.955   1.491  0.2808  0.7796 -0.0513
  203ACOH    H410517  10.065   4.124   1.442 -0.8755  0.4220  0.4842
  203ACOH    O210518  10.049   4.094   1.351  0.1359  0.0590  0.4216
  203ACOH    C210519   9.988   4.182   1.272  0.5309 -1.0800  0.3441
  203ACOH    O110520   9.941   4.149   1.167  0.4394 -0.2094 -0.6669
  203ACOH    C110521   9.958   4.313   1.343 -0.3830  0.0658 -0.8979
  203ACOH    H110522   9.901   4.372   1.271 -0.9872 -1.9234 -2.0881
  203ACOH    H210523  10.049   4.367   1.370 -0.9216  1.9274 -2.6629
  203ACOH    H310524   9.906   4.290   1.436 -0.6804  0.1292 -1.0487
  204ACOH    H410525   3.933   0.372   2.323  1.7774  0.4461  1.3218
  204ACOH    O210526   3.953   0.433   2.250 -0.0789 -0.3847  0.0969
  204ACOH    C210527   3.984   0.339   2.152  0.1436  0.1120 -0.1621
  204ACOH    O110528   4.001   0.224   2.181 -0.3289 -0.1115  0.4907
  204ACOH    C110529   4.034   0.397   2.025  0.0622  0.3852 -0.1567
  204ACOH    H110530   4.067   0.324   1.951 -0.0605  0.6934 -0.5158
  204ACOH    H210531   4.121   0.458   2.047  2.2847 -2.5050 -0.6728
  204ACOH    H310532   3.958   0.461   1.979  1.1522  2.4648  0.8739
  205ACOH    H410533   1.176   1.334   1.523  0.0406 -0.4020  0.4132
  205ACOH    O210534   1.106   1.358   1.587  0.2139 -0.0191  0.4590
  205ACOH    C210535   1.170   1.428   1.684  0.3723  0.2624 -0.1131
  205ACOH    O110536   1.287   1.466   1.677 -0.1842 -0.0191  0.0062
  205ACOH    C110537   1.077   1.484   1.788  0.3900 -0.5267  0.0576
  205ACOH    H110538   1.131   1.516   1.876  0.7101  0.6626 -0.5640
  205ACOH    H210539   1.008   1.405   1.817 -1.9553  0.7291 -1.8975
  205ACOH    H310540   1.031   1.564   1.731  0.6444  0.2675  0.9600
  206ACOH    H410541   3.009   8.227   0.894  0.7738  1.6350  0.5936
  206ACOH    O210542   3.071   8.234   0.820  0.1120  0.3489 -0.1099
  206ACOH    C210543   3.170   8.148   0.839 -0.3598  0.2102 -0.8785
  206ACOH    O110544   3.212   8.108   0.948  0.2964  0.1761  0.5657
  206ACOH    C110545   3.261   8.143   0.713  0.4028  0.2507 -0.0743
  206ACOH    H110546   3.323   8.233   0.706  0.3031  0.1378 -2.8914
  206ACOH    H210547   3.200   8.141   0.623  0.2793  0.5376  0.0001
  206ACOH    H310548   3.327   8.057   0.709 -0.1408 -0.0985 -1.8127
  207ACOH    H410549   5.099   3.636   1.778 -0.8381  0.7963  0.3031
  207ACOH    O210550   5.152   3.707   1.737 -0.2935  0.1304 -0.1406
  207ACOH    C210551   5.238   3.643   1.653 -0.4178 -0.0096 -1.1216
  207ACOH    O110552   5.244   3.526   1.637 -0.5592 -0.0218  0.0763
  207ACOH    C110553   5.315   3.739   1.562 -0.7685  0.0396  0.3326
  207ACOH    H110554   5.422   3.718   1.554 -1.1731 -2.4861  1.0452
  207ACOH    H210555   5.309   3.846   1.582  0.7455  0.2900 -0.4134
  207ACOH    H310556   5.276   3.737   1.460  1.3490  1.0113 -0.5368
  208ACOH    H410557   5.066   2.343   0.674 -0.1390  0.1842  0.3476
  208ACOH    O210558   5.082   2.318   0.767 -0.0189  0.2910  0.3560
  208ACOH    C210559   4.980   2.360   0.834 -0.5962  0.1996  0.2740
  208ACOH    O110560   4.883   2.429   0.805 -0.2152  0.0324  0.5235
  208ACOH    C110561   4.995   2.319   0.975 -0.3104  0.1611 -0.0090
  208ACOH    H110562   5.082   2.254   0.987 -1.5835 -1.5182  0.4477
  208ACOH    H210563   4.906   2.265   1.007  0.5243 -2.8923 -2.5316
  208ACOH    H310564   5.002   2.409   1.036 -0.8106  0.4913 -0.4427
  209ACOH    H410565   3.323   5.836   0.131 -1.9540  3.3417 -1.5999
  209ACOH    O210566   3.404   5.888   0.145  0.0316  0.0175 -0.1042
  209ACOH    C210567   3.520   5.828   0.105 -0.1587  0.5164 -0.1197
  209ACOH    O110568   3.539   5.732   0.031 -0.6043 -0.3573 -0.1785
  209ACOH    C110569   3.630   5.901   0.174  0.1645 -0.2393 -0.6115
  209ACOH    H110570   3.641   6.000   0.130 -1.3560 -0.7887 -2.2525
  209ACOH    H210571   3.715   5.833   0.173 -0.9892 -1.6895 -1.4912
  209ACOH    H310572   3.586   5.908   0.274 -1.4753 -1.1038 -1.2618
  210ACOH    H410573   4.561   5.508   0.472 -0.4966 -0.5556  0.1255
  210ACOH    O210574   4.600   5.498   0.384  0.0950 -0.5558  0.3836
  210ACOH    C210575   4.494   5.497   0.301 -0.1647  1.0345  0.5658
  210ACOH    O110576   4.386   5.454   0.333  0.2910  0.3553 -0.2576
  210ACOH    C110577   4.539   5.547   0.166  0.5240 -0.2426  0.6875
  210ACOH    H110578   4.621   5.489   0.124 -0.7006 -0.0799 -2.0485
  210ACOH    H210579   4.570   5.652   0.165  0.4446 -0.2270 -1.4058
  210ACOH    H310580   4.453   5.540   0.100 -0.7419  0.2962  2.2633
  211ACOH    H410581   4.122   5.307   2.243 -1.3969  0.6635  0.5879
  211ACOH    O210582   4.174   5.372   2.294 -0.0925 -0.1524  0.3229
  211ACOH    C210583   4.105   5.397   2.405 -0.7658 -0.6997 -0.7534
  211ACOH    O110584   3.987   5.379   2.416  0.3794  0.9018  0.7992
  211ACOH    C110585   4.182   5.491   2.487  0.7888  0.2273  0.1138
  211ACOH    H110586   4.208   5.580   2.429  2.1955  0.8588  1.6321
  211ACOH    H210587   4.274   5.440   2.516  0.7591  1.2096  2.1065
  211ACOH    H310588   4.129   5.525   2.577  2.1579  1.3048  0.5460
  212ACOH    H410589   5.028   1.805   0.600  0.6139 -0.1911  0.0801
  212ACOH    O210590   5.043   1.719   0.557  0.1798 -0.0666 -0.3261
  212ACOH    C210591   5.023   1.734   0.424  0.4642  0.2529  0.4406
  212ACOH    O110592   4.989   1.839   0.373 -0.1820  0.1407  0.2968
  212ACOH    C110593   5.079   1.615   0.346  0.4448 -0.1552 -0.2899
  212ACOH    H110594   5.042   1.606   0.244 -1.4057  0.0595  0.3499
  212ACOH    H210595   5.066   1.521   0.400 -1.4536 -1.6493 -3.2381
  212ACOH    H310596   5.187   1.622   0.339  0.8049 -1.7111  2.6900
  213ACOH    H410597   2.051   9.682   2.464  0.5311 -0.1830 -0.6492
  213ACOH    O210598   2.110   9.605   2.474  0.3673 -0.2297 -0.0567
  213ACOH    C210599   2.087   9.522   2.366 -0.0029 -0.4191 -0.7099
  213ACOH    O110600   2.019   9.541   2.269 -0.0153  0.3439  0.2745
  213ACOH    C110601   2.165   9.398   2.383  0.4150 -0.2177 -1.1016
  213ACOH    H110602   2.271   9.418   2.367  0.6240  1.6388  2.0158
  213ACOH    H210603   2.136   9.314   2.320 -2.0538  1.2086 -1.9499
  213ACOH    H310604   2.164   9.363   2.486 -0.2969 -0.7076 -1.2713
  214ACOH    H410605   3.832  10.013   0.709  0.4442 -0.5021  0.1779
  214ACOH    O210606   3.802   9.932   0.752 -0.3523 -0.3458 -0.0832
  214ACOH    C210607   3.867   9.830   0.684 -0.8924 -0.0320  0.3588
  214ACOH    O110608   3.886   9.723   0.734 -0.1539  0.0709 -0.0983
  214ACOH    C110609   3.948   9.868   0.559  0.6854 -0.1229 -0.2532
  214ACOH    H110610   3.979   9.779   0.503  2.7943 -0.2320  1.0507
  214ACOH    H210611   4.032   9.932   0.584  0.2065  0.0152  1.0311
  214ACOH    H310612   3.885   9.927   0.492 -1.0853 -2.5119 -0.7934
  215SOL     OW10613   2.355   7.621   0.095 -0.3191 -0.2289 -0.3057
  215SOL    HW110614   2.375   7.714   0.063 -1.0296  0.2429  0.5849
  215SOL    HW210615   2.439   7.567   0.097  0.1185  0.4317 -0.7120
  216SOL     OW10616   2.049   0.842   0.705  0.0981 -0.0893 -0.5780
  216SOL    HW110617   2.044   0.887   0.794  0.4921 -0.3871 -0.4023
  216SOL    HW210618   1.975   0.875   0.647 -0.2636 -0.0205 -0.0822
  217SOL     OW10619   2.620   0.794   0.174  0.0231  0.4673 -0.2994
  217SOL    HW110620   2.689   0.727   0.150  0.5752  1.7439 -2.3293
  217SOL    HW210621   2.595   0.782   0.270  2.8117 -0.2119  0.3896
  218SOL     OW10622   3.595   0.551   0.290 -0.5584 -0.1345 -0.5251
  218SOL    HW110623   3.599   0.550   0.390  1.8629 -0.3752 -0.6060
  218SOL    HW210624   3.601   0.458   0.255 -1.3300 -0.0436 -0.9044
  219SOL     OW10625   3.560   2.105   1.367  0.1601 -0.4348  0.0810
  219SOL    HW110626   3.552   2.168   1.444  0.3630 -2.4963  1.8599
  219SOL    HW210627   3.469   2.083   1.332  0.0809  0.6871 -0.4190
  220SOL     OW10628   2.177   8.797   1.755 -0.3597  0.3869 -0.2435
  220SOL    HW110629   2.169   8.887   1.711  2.3627  0.2805 -1.0112
  220SOL    HW210630   2.194   8.810   1.852 -1.4962  0.6530 -0.0619
  221SOL     OW10631   4.339   2.586   2.153  0.6996 -0.1114 -0.0348
  221SOL    HW110632   4.344   2.624   2.245  2.1093  0.0223 -0.1525
  221SOL    HW210633   4.418   2.617   2.100  0.6736 -1.3661 -0.8299
  222SOL     OW10634   2.882   5.445   1.959 -0.6519 -0.3163  0.1353
  222SOL    HW110635   2.848   5.382   1.889 -1.0298  1.5995 -1.4795
  222SOL    HW210636   2.980   5.460   1.944 -0.5926 -0.4074  0.4321
  223SOL     OW10637   1.866   4.173   1.292 -0.7435 -0.6055  0.3489
  223SOL    HW110638   1.889   4.075   1.292  0.2355 -0.4148 -1.6758
  223SOL    HW210639   1.817   4.194   1.207  2.2090  1.3283 -0.9525
  224SOL     OW10640   1.850   1.940   0.106 -0.4210 -0.0378 -0.2550
  224SOL    HW110641   1.914   2.007   0.144 -1.5353  0.6360  0.4861
  224SOL    HW210642   1.819   1.879   0.179 -1.3175  0.2192 -0.4127
  225SOL     OW10643   2.386   6.202   1.230 -0.3132  0.2583  0.1390
  225SOL    HW110644   2.286   6.198   1.223 -0.2155 -0.2323 -1.0065
  225SOL    HW210645   2.427   6.134   1.169  0.7433  1.1966 -0.2159
  226SOL     OW10646   2.748   4.047   0.429 -0.1547 -0.1746  0.3855
  226SOL    HW110647   2.828   4.071   0.484  0.1005 -1.1335  0.4382
  226SOL    HW210648   2.719   3.954   0.451 -1.1108  0.0630  0.1528
  227SOL     OW10649   4.593   2.825   0.595 -0.1591  0.3203  0.1286
  227SOL    HW110650   4.559   2.881   0.670  2.3341 -0.2513  1.7531
  227SOL    HW210651   4.589   2.728   0.621  0.8727  0.1272 -0.4032
  228SOL     OW10652   0.528   2.806   2.576 -0.3822 -0.0651  0.1163
  228SOL    HW110653   0.583   2.805   2.659 -0.2847  0.6867  0.0603
  228SOL    HW210654   0.587   2.798   2.496 -0.2117  2.2335 -0.0128
  229SOL     OW10655   3.361   3.007   0.634  0.5074  0.8211  0.1026
  229SOL    HW110656   3.270   3.019   0.594  0.6525 -0.5804 -0.6844
  229SOL    HW210657   3.426   3.065   0.585  0.5702 -0.4202 -1.2996
  230SOL     OW10658   9.640   3.923   1.329  0.5832  0.2249 -0.4716
  230SOL    HW110659   9.656   4.019   1.350  1.8942  0.0076 -0.4284
  230SOL    HW210660   9.584   3.916   1.246 -0.0441  1.0210 -0.1210
  231SOL     OW10661   1.672   5.568   1.138 -0.0705 -0.0038 -0.1062
  231SOL    HW110662   1.575   5.594   1.143  0.3617  1.5105  0.4821
  231SOL    HW210663   1.715   5.586   1.226  0.9526  0.0804 -0.6268
  232SOL     OW10664   1.098   3.891   0.724  0.3146 -0.3134 -0.1467
  232SOL    HW110665   1.186   3.874   0.768  0.4328 -1.4257 -0.7887
  232SOL    HW210666   1.101   3.856   0.630 -0.1330  1.4711 -0.8484
  233SOL     OW10667   3.044   6.768   0.158  0.5420 -0.3318 -0.7106
  233SOL    HW110668   2.947   6.743   0.149  0.9223 -2.6120  1.0246
  233SOL    HW210669   3.057   6.820   0.242  0.8131 -0.0200 -0.9459
  234SOL     OW10670   3.145   1.219   2.436 -0.3466 -0.1389  1.0977
  234SOL    HW110671   3.105   1.280   2.368 -1.7303  0.2970  2.2657
  234SOL    HW210672   3.218   1.165   2.394 -0.6545  0.6672 -0.5213
  235SOL     OW10673   3.826   1.881   1.142  0.2452 -0.8864  0.2367
  235SOL    HW110674   3.816   1.906   1.238 -0.5957 -1.4787  0.3146
  235SOL    HW210675   3.908   1.826   1.129  0.0276 -1.3230  0.7215
  236SOL     OW10676   0.911   3.645   2.595  0.0015  0.3789  0.5867
  236SOL    HW110677   0.880   3.681   2.507 -1.6495  0.0317  1.0070
  236SOL    HW210678   0.845   3.671   2.666  1.6146  1.1544  1.8265
  237SOL     OW10679   1.876   3.053   1.472 -0.0395 -0.2021 -0.7346
  237SOL    HW110680   1.842   2.961   1.456  0.0088  0.1264 -2.8363
  237SOL    HW210681   1.877   3.105   1.386  2.9855  0.7204 -0.2322
  238SOL     OW10682   2.333   5.412   1.855  0.8019 -0.6905  0.1563
  238SOL    HW110683   2.240   5.397   1.889  0.4516  2.0675  0.5081
  238SOL    HW210684   2.398   5.404   1.931  0.9661 -3.1861 -0.1903
  239SOL     OW10685   9.921   3.732   0.835 -0.2906 -0.3152 -0.0439
  239SOL    HW110686   9.952   3.750   0.742  0.9937 -0.5424  0.3194
  239SOL    HW210687   9.888   3.817   0.877  0.6856  0.1224 -0.1518
  240SOL     OW10688   2.549   4.321   0.193 -0.0825 -0.4383  0.1271
  240SOL    HW110689   2.466   4.300   0.246 -0.5844  0.0084 -0.4832
  240SOL    HW210690   2.590   4.235   0.161  0.5048 -0.7584  1.6446
  241SOL     OW10691   1.135   8.011   2.104  0.5672 -0.6723 -0.5552
  241SOL    HW110692   1.156   7.953   2.182 -0.2645 -0.6932 -0.3502
  241SOL    HW210693   1.061   8.073   2.127 -0.4522 -1.4513 -1.6933
  242SOL     OW10694   2.315   0.302   0.641 -0.0588  0.8474  0.3582
  242SOL    HW110695   2.375   0.365   0.690  0.4204  0.5037  0.2133
  242SOL    HW210696   2.314   0.213   0.686 -0.3006  0.7912  0.2462
  243SOL     OW10697   1.644   3.030   0.229 -0.1439 -0.2304  0.7410
  243SOL    HW110698   1.559   2.980   0.243 -0.4438  0.2635  0.6851
  243SOL    HW210699   1.713   2.969   0.189  0.4367 -1.4338  3.4618
  244SOL     OW10700   2.333   4.567   0.607  0.1679  0.5167  0.0176
  244SOL    HW110701   2.265   4.545   0.677  0.5165  0.2720  0.2841
  244SOL    HW210702   2.396   4.637   0.643 -0.6553  1.6083 -0.6581
  245SOL     OW10703   2.922   4.340   1.525  0.1548  0.1568  0.5401
  245SOL    HW110704   2.925   4.438   1.503  0.7149 -0.1518 -0.7587
  245SOL    HW210705   2.833   4.319   1.566 -1.3304  0.5529 -2.3735
  246SOL     OW10706   3.893   2.356   2.488  0.4110  0.0824 -0.1724
  246SOL    HW110707   3.904   2.456   2.496  1.2603 -0.0505  0.3981
  246SOL    HW210708   3.857   2.334   2.398  0.0455  0.9244 -0.2414
  247SOL     OW10709   1.050   4.157   1.141  0.4593 -0.5149  0.7245
  247SOL    HW110710   1.076   4.203   1.227  1.1698  0.7423 -0.1437
  247SOL    HW210711   0.951   4.151   1.136  0.4317 -1.9130  2.3025
  248SOL     OW10712   0.891   5.972   2.295  0.0858 -0.1584  0.2710
  248SOL    HW110713   0.917   5.949   2.389 -0.6072  0.2761  0.5693
  248SOL    HW210714   0.793   5.991   2.291  0.3824  1.3501 -0.2378
  249SOL     OW10715   0.334   5.632   2.000  0.1720  0.2379  0.6257
  249SOL    HW110716   0.415   5.591   1.959 -0.0572  1.4209 -1.0398
  249SOL    HW210717   0.258   5.627   1.936 -1.1140 -0.9233  2.1992
  250SOL     OW10718   2.943   1.725   1.345 -0.5556  0.2110  0.3747
  250SOL    HW110719   2.895   1.788   1.284  0.9583  0.0657 -0.9963
  250SOL    HW210720   2.944   1.762   1.438 -0.4108  1.8143 -0.2532
  251SOL     OW10721   0.225   6.229   2.375  0.2815  0.2672  0.3384
  251SOL    HW110722   0.294   6.293   2.340  0.5093  0.2471  0.7499
  251SOL    HW210723   0.265   6.174   2.448  0.1329 -0.4522 -0.1161
  252SOL     OW10724   3.606   9.414   0.438  0.2370 -0.3200 -0.1966
  252SOL    HW110725   3.588   9.346   0.367 -1.9454  2.3184 -2.2599
  252SOL    HW210726   3.675   9.479   0.405 -1.6608  1.6227 -0.4061
  253SOL     OW10727   3.231   0.743   1.857  0.0137  0.3763  0.4352
  253SOL    HW110728   3.244   0.643   1.854  1.6570  0.5621  0.7927
  253SOL    HW210729   3.136   0.765   1.836 -0.4354 -1.2934  0.6465
  254SOL     OW10730   3.636   4.094   1.736  0.5903  0.1113 -0.4086
  254SOL    HW110731   3.666   4.127   1.825  1.2066  0.8968 -0.9088
  254SOL    HW210732   3.536   4.101   1.730  0.2850 -2.2397  1.1466
  255SOL     OW10733   1.855   1.333   1.917 -0.5963  0.0657 -0.4869
  255SOL    HW110734   1.900   1.403   1.862 -0.0640 -0.8057 -1.1620
  255SOL    HW210735   1.795   1.278   1.859 -0.3641 -0.5830 -0.1124
  256SOL     OW10736   2.158   2.144   2.599 -0.1752 -0.1989 -0.0283
  256SOL    HW110737   2.167   2.243   2.595  1.1237 -0.3226 -0.1542
  256SOL    HW210738   2.105   2.111   2.521  0.4438  0.2696 -0.6405
  257SOL     OW10739   3.362   9.096   0.291 -0.1339 -0.0927  0.3717
  257SOL    HW110740   3.451   9.140   0.277  0.2303 -0.9215  0.0432
  257SOL    HW210741   3.314   9.140   0.366  0.9382 -0.2212  1.1406
  258SOL     OW10742   3.857   9.458   2.286 -0.7042  0.0914  0.1728
  258SOL    HW110743   3.860   9.404   2.202  0.7840  0.3377  0.0404
  258SOL    HW210744   3.768   9.448   2.330 -1.7280  0.5035 -1.7823
  259SOL     OW10745   2.126   1.535   0.868 -0.6216  0.9063  0.3523
  259SOL    HW110746   2.109   1.454   0.811  1.3500  0.1368  0.8107
  259SOL    HW210747   2.224   1.554   0.870 -0.9050  2.2836  1.6530
  260SOL     OW10748   1.664   3.852   1.202 -0.3757  0.5478 -0.0216
  260SOL    HW110749   1.711   3.790   1.139  1.5560  1.7118  0.2286
  260SOL    HW210750   1.643   3.804   1.286  0.1566 -0.0648 -0.2322
  261SOL     OW10751   1.973   3.479   0.948 -0.8173  0.3849 -0.2512
  261SOL    HW110752   1.915   3.423   0.889  0.7777 -0.4492 -1.0821
  261SOL    HW210753   2.038   3.420   0.996 -0.8479  1.2687  0.8824
  262SOL     OW10754   1.503   5.891   0.914  0.5338  0.2964  0.0778
  262SOL    HW110755   1.413   5.875   0.874 -0.4914  0.2331  2.3456
  262SOL    HW210756   1.543   5.804   0.944  1.9535  0.1612 -2.1402
  263SOL     OW10757   9.799   5.557   1.717 -0.3256 -0.2779  0.0514
  263SOL    HW110758   9.787   5.486   1.647  0.5467 -2.7900  2.3440
  263SOL    HW210759   9.723   5.553   1.781 -0.7607  1.5473 -0.3336
  264SOL     OW10760   4.881   3.130   2.024  0.3970 -0.0498  0.0030
  264SOL    HW110761   4.953   3.164   1.964 -0.1640 -0.7768 -1.0888
  264SOL    HW210762   4.792   3.157   1.989 -0.0916 -2.8036 -1.0486
  265SOL     OW10763   3.334   4.380   1.230  0.1135  0.0266  0.1415
  265SOL    HW110764   3.348   4.446   1.303  0.2520  0.0258  0.1166
  265SOL    HW210765   3.382   4.410   1.148  1.2723 -0.7519  0.5170
  266SOL     OW10766   1.661   8.674   2.114  0.2177 -0.1592  0.3663
  266SOL    HW110767   1.707   8.620   2.185  1.7976 -0.2163 -0.6892
  266SOL    HW210768   1.678   8.771   2.130 -0.7081 -0.0836  0.9363
  267SOL     OW10769   9.883   5.231   2.270 -0.6029 -0.0306 -0.2065
  267SOL    HW110770   9.801   5.177   2.289 -0.0723 -0.8976 -0.3334
  267SOL    HW210771   9.921   5.266   2.355 -0.5977 -0.3802 -0.0657
  268SOL     OW10772   4.988   3.874   0.886 -0.6144  0.7470 -0.3793
  268SOL    HW110773   4.953   3.896   0.977  1.7427  2.7581  0.1005
  268SOL    HW210774   5.000   3.958   0.833  0.2128 -0.1794 -1.7097
  269SOL     OW10775   2.283   4.651   0.087  0.5708 -0.2680 -0.0821
  269SOL    HW110776   2.215   4.645   0.160  0.7902  0.8277  0.2276
  269SOL    HW210777   2.375   4.638   0.125  0.6244 -0.5676 -0.3090
  270SOL     OW10778   3.876   3.425   0.363 -0.1002  0.1604  0.3335
  270SOL    HW110779   3.941   3.418   0.439  2.2346  1.9062 -1.4375
  270SOL    HW210780   3.849   3.333   0.334  3.8057 -0.7285 -0.7353
  271SOL     OW10781   1.809   8.696   0.516  0.4438 -0.2460  0.2853
  271SOL    HW110782   1.788   8.598   0.514  0.1582 -0.1929  0.5518
  271SOL    HW210783   1.885   8.716   0.454  0.3014 -0.5888 -0.0001
  272SOL     OW10784   2.454   2.408   2.430  0.0066 -0.0288 -0.0451
  272SOL    HW110785   2.522   2.369   2.368  0.3132  0.3093  0.0736
  272SOL    HW210786   2.411   2.335   2.483 -1.4242 -0.4941 -1.8238
  273SOL     OW10787   0.100   4.995   1.612  0.4252 -0.5558  0.2825
  273SOL    HW110788   0.091   5.072   1.674 -0.2004 -1.2024  1.0079
  273SOL    HW210789   0.117   5.028   1.519 -1.3152  0.4915  0.3198
  274SOL     OW10790   4.622   1.862   1.909  0.4668  0.4714  0.3335
  274SOL    HW110791   4.688   1.787   1.905  2.2485  2.0227 -0.1284
  274SOL    HW210792   4.555   1.853   1.836  0.7986 -0.5491  0.1600
  275SOL     OW10793   2.770   9.218   0.340 -0.8086  0.0092  0.1110
  275SOL    HW110794   2.780   9.124   0.373 -1.6515  0.1267  0.7193
  275SOL    HW210795   2.673   9.243   0.341 -1.0301 -0.4293 -3.6424
  276SOL     OW10796   1.184   7.789   1.524 -0.1865  0.1093 -0.4001
  276SOL    HW110797   1.141   7.878   1.538  2.2417  0.7608  3.7664
  276SOL    HW210798   1.121   7.717   1.550 -0.7470  0.7995  0.1805
  277SOL     OW10799   0.825   6.970   2.405 -0.3618  0.1048 -0.0828
  277SOL    HW110800   0.809   7.061   2.368  1.1073  0.5574  0.3623
  277SOL    HW210801   0.912   6.934   2.369 -0.0458 -0.3746  1.1458
  278SOL     OW10802   2.350   5.831   0.522 -0.3634 -0.1810  0.0191
  278SOL    HW110803   2.267   5.868   0.481 -0.2196 -0.3185 -0.4039
  278SOL    HW210804   2.404   5.905   0.561  0.9534  0.3534 -2.6728
  279SOL     OW10805   1.846   4.845   2.619 -0.3721  0.3898 -0.2389
  279SOL    HW110806   1.894   4.840   2.707 -0.1196 -1.0208 -0.4451
  279SOL    HW210807   1.912   4.834   2.545 -0.8557 -0.4407 -0.5541
  280SOL     OW10808   1.825   1.059   0.843  0.0406 -0.6918 -0.4342
  280SOL    HW110809   1.745   1.074   0.901  0.2862 -0.2332 -0.2052
  280SOL    HW210810   1.891   1.001   0.892  0.9688  1.0434  0.4303
  281SOL     OW10811   2.464   8.898   1.630  0.5081 -0.2291 -0.1016
  281SOL    HW110812   2.492   8.849   1.548  1.9518  0.4166 -0.0003
  281SOL    HW210813   2.468   8.836   1.709  2.2042 -0.0130  0.0034
  282SOL     OW10814   2.373   7.350   2.455  0.1384 -0.3619  0.6252
  282SOL    HW110815   2.278   7.325   2.439  0.1862  0.8162 -1.8780
  282SOL    HW210816   2.431   7.307   2.386  0.9988  1.4455  0.1747
  283SOL     OW10817   3.779   2.198   1.761 -0.5082  0.1250 -0.0310
  283SOL    HW110818   3.719   2.240   1.694 -0.9936  0.4783  0.6154
  283SOL    HW210819   3.729   2.185   1.847  0.1882 -0.0329  0.3551
  284SOL     OW10820   4.058   4.235   2.160  0.1875 -0.0768 -0.1860
  284SOL    HW110821   4.007   4.274   2.237 -1.5220 -0.9394 -0.8479
  284SOL    HW210822   4.151   4.272   2.159 -0.0687  0.6692  1.7204
  285SOL     OW10823   3.630   1.802   1.842  0.1124 -0.6809  0.5651
  285SOL    HW110824   3.542   1.757   1.822 -1.5258  3.1630 -1.4895
  285SOL    HW210825   3.629   1.839   1.935 -0.8958  0.2406  0.1989
  286SOL     OW10826   2.129   2.419   2.591 -0.6389 -0.1443 -0.1534
  286SOL    HW110827   2.099   2.488   2.525 -1.8969 -0.6852 -0.1542
  286SOL    HW210828   2.147   2.463   2.679  0.8976  0.5541 -0.7867
  287SOL     OW10829   1.457   7.690   1.108  0.7156  0.3038 -0.3770
  287SOL    HW110830   1.386   7.649   1.165  1.0017 -1.2807 -1.1388
  287SOL    HW210831   1.538   7.708   1.164 -0.7646  3.5650  0.8538
  288SOL     OW10832   0.634   7.041   0.178  0.1445  0.0524 -1.0825
  288SOL    HW110833   0.640   7.137   0.154  1.0706  0.7573  1.7483
  288SOL    HW210834   0.726   7.001   0.179  0.1991  0.1145  1.2419
  289SOL     OW10835   2.155   3.160   0.757  0.3525  0.3190 -0.2890
  289SOL    HW110836   2.062   3.188   0.783  0.3389  0.6139 -0.6642
  289SOL    HW210837   2.210   3.148   0.840  0.4807  1.8423 -0.1406
  290SOL     OW10838   4.580   3.578   0.086  0.1239 -0.0618  0.0563
  290SOL    HW110839   4.491   3.625   0.083 -0.0200 -0.1399  2.1761
  290SOL    HW210840   4.575   3.500   0.149  1.5392 -0.3927 -0.2188
  291SOL     OW10841   1.724   7.596   0.660 -0.5299  0.2303 -0.1307
  291SOL    HW110842   1.677   7.543   0.730 -1.3200  0.0606 -0.7802
  291SOL    HW210843   1.816   7.559   0.647 -0.6772 -0.2718  0.2108
  292SOL     OW10844   2.065   1.446   1.149 -0.1174  0.5473 -0.1377
  292SOL    HW110845   1.970   1.471   1.168  0.7546  1.6147  3.0990
  292SOL    HW210846   2.094   1.489   1.064 -2.2975  0.8055 -0.7792
  293SOL     OW10847   1.509   8.544   0.956 -0.1939  0.2279  0.3026
  293SOL    HW110848   1.497   8.444   0.952 -0.9614  0.3211  0.2571
  293SOL    HW210849   1.604   8.565   0.979 -0.1221 -0.5232  0.7161
  294SOL     OW10850   0.461   5.400   1.095  0.8106 -0.1793  0.4348
  294SOL    HW110851   0.515   5.476   1.131 -0.6816  1.5281 -0.8984
  294SOL    HW210852   0.380   5.386   1.152  0.5040 -0.0469  0.0313
  295SOL     OW10853   3.350   5.494   1.060 -0.4364 -0.1050 -0.0773
  295SOL    HW110854   3.302   5.527   1.141  0.8380 -0.4380  0.8289
  295SOL    HW210855   3.448   5.487   1.080  0.0484  0.8605 -1.9870
  296SOL     OW10856   1.328   1.313   0.160 -0.5284 -0.6114  0.3476
  296SOL    HW110857   1.349   1.410   0.156 -0.1483 -0.6186  1.7941
  296SOL    HW210858   1.271   1.287   0.081 -1.1779  0.8987  0.3131
  297SOL     OW10859   3.483   9.866   1.212 -0.4345 -0.2295  0.5250
  297SOL    HW110860   3.470   9.953   1.261 -1.8270  0.4333 -0.9810
  297SOL    HW210861   3.564   9.873   1.154 -2.1357  1.1055 -1.7612
  298SOL     OW10862   3.245   4.559   0.581 -0.0972 -0.4090 -0.1265
  298SOL    HW110863   3.177   4.614   0.531  0.6087 -1.0495 -1.8405
  298SOL    HW210864   3.268   4.605   0.667 -2.1883  0.1529  0.1621
  299SOL     OW10865   3.511   1.377   2.283 -0.6217 -0.7517 -0.2057
  299SOL    HW110866   3.427   1.379   2.229 -0.4680 -0.3795 -0.4261
  299SOL    HW210867   3.491   1.339   2.374 -0.6248 -2.5961 -0.9601
  300SOL     OW10868   9.409   3.816   0.008 -0.1997  0.6275  0.1453
  300SOL    HW110869   9.470   3.770   0.072 -2.5076  0.0807  2.0599
  300SOL    HW210870   9.450   3.818  -0.083  1.6906 -1.6269  0.8997
  301SOL     OW10871   2.769   6.238   1.343 -0.0027 -0.1564  0.3504
  301SOL    HW110872   2.710   6.318   1.341  1.5299  0.9986 -0.3695
  301SOL    HW210873   2.851   6.256   1.287  0.7737 -1.8938  0.8913
  302SOL     OW10874   2.016   2.890   2.201 -0.2371 -0.1314 -0.6616
  302SOL    HW110875   2.028   2.848   2.291 -0.0053  0.5564 -0.3669
  302SOL    HW210876   2.076   2.845   2.135  1.0634  0.6735 -0.0446
  303SOL     OW10877   1.287   5.006   2.016  0.9234  0.0428  0.4208
  303SOL    HW110878   1.258   4.982   1.923  2.7183 -0.7985  0.0508
  303SOL    HW210879   1.224   4.965   2.082  0.6974 -0.9384 -0.3834
  304SOL     OW10880   3.216   0.864   1.157 -0.4212 -0.1101 -0.5690
  304SOL    HW110881   3.293   0.914   1.116  1.1628  0.0553  2.4444
  304SOL    HW210882   3.145   0.929   1.185  0.2225  0.1863  0.4266
  305SOL     OW10883   0.949   5.634   1.973 -0.2255  0.1879  0.0023
  305SOL    HW110884   0.953   5.730   1.946 -3.0983  0.7041  1.2218
  305SOL    HW210885   1.035   5.608   2.019  0.4387  2.2293 -0.0621
  306SOL     OW10886   0.337   4.606   0.188 -0.6014 -0.0684 -0.7578
  306SOL    HW110887   0.258   4.665   0.178 -0.1023  0.5392 -1.1795
  306SOL    HW210888   0.396   4.616   0.108 -0.9174 -1.7503 -1.2107
  307SOL     OW10889   2.438   1.095   2.175  0.0285 -0.0692 -0.6215
  307SOL    HW110890   2.355   1.039   2.172 -0.0054 -0.0431 -0.2308
  307SOL    HW210891   2.478   1.100   2.084  0.2079 -0.9931 -0.5989
  308SOL     OW10892   2.032   6.014   0.750  0.0912 -0.1092  0.2069
  308SOL    HW110893   2.117   6.017   0.803 -0.5367  0.2947  1.2070
  308SOL    HW210894   1.964   5.960   0.799 -0.6975  0.7890  0.1217
  309SOL     OW10895   3.749   3.210   0.231  0.3944 -0.4930 -0.2082
  309SOL    HW110896   3.719   3.161   0.313  1.0287  0.6574  0.7195
  309SOL    HW210897   3.702   3.172   0.151  0.3136 -2.1088  0.5793
  310SOL     OW10898   3.109   8.832   1.696 -0.2538 -0.0176  0.0876
  310SOL    HW110899   3.068   8.774   1.766 -0.6088  0.1832  0.0472
  310SOL    HW210900   3.114   8.926   1.729  3.1832 -0.5658  1.3937
  311SOL     OW10901   4.023   2.603   2.526  0.0185 -0.7071  0.0580
  311SOL    HW110902   4.036   2.652   2.440 -1.5854 -1.4081 -0.6092
  311SOL    HW210903   4.111   2.590   2.571  0.6687  1.2016 -0.6259
  312SOL     OW10904   0.934   5.357   1.426 -0.0201 -0.1242 -0.2653
  312SOL    HW110905   0.846   5.404   1.421 -0.7134 -1.1474  1.6699
  312SOL    HW210906   0.989   5.379   1.345 -1.4650  1.6817 -0.7866
  313SOL     OW10907   3.539   1.801   0.385  0.1646 -0.3711 -0.5474
  313SOL    HW110908   3.611   1.750   0.431  0.4375  1.1274  0.7319
  313SOL    HW210909   3.461   1.741   0.367  0.4691 -1.2168  0.9306
  314SOL     OW10910   0.094   3.505   0.354  0.1187  0.2494 -0.2773
  314SOL    HW110911   0.151   3.438   0.401  0.7835  1.0443  0.0622
  314SOL    HW210912   0.013   3.524   0.409 -0.4688 -0.8424 -0.7364
  315SOL     OW10913   2.301   3.790   0.593  0.6868  0.0401  0.0175
  315SOL    HW110914   2.347   3.879   0.588 -1.6042  1.1757 -1.7097
  315SOL    HW210915   2.272   3.773   0.687  0.7169  1.3377  0.2721
  316SOL     OW10916   1.377   6.890   1.088 -0.4844 -0.2824  0.5147
  316SOL    HW110917   1.420   6.814   1.137 -1.1776 -0.6052  0.6360
  316SOL    HW210918   1.412   6.977   1.123  2.3594 -0.5584 -1.4919
  317SOL     OW10919   3.211   9.001   0.648  0.1404  0.0821  0.0107
  317SOL    HW110920   3.145   8.932   0.679 -1.1948  1.6611  0.7537
  317SOL    HW210921   3.303   8.974   0.678 -0.5365 -0.7290  1.4479
  318SOL     OW10922   3.104   2.593   0.293  0.2137  0.0694  0.9278
  318SOL    HW110923   3.024   2.626   0.344 -0.7394  1.1268 -1.1795
  318SOL    HW210924   3.161   2.670   0.267  0.5705 -0.4343  0.2084
  319SOL     OW10925   0.571   3.646   2.527  0.2861  0.0218 -0.4207
  319SOL    HW110926   0.535   3.554   2.539  1.0727 -0.2689 -0.2354
  319SOL    HW210927   0.648   3.643   2.463  0.5198  0.4997 -0.1648
  320SOL     OW10928   3.693   2.919   2.278  0.3843  0.3185  0.1364
  320SOL    HW110929   3.734   2.987   2.218  1.1850 -0.4722 -0.2106
  320SOL    HW210930   3.718   2.827   2.248 -1.8271 -0.1952 -0.2191
  321SOL     OW10931   3.789   1.618   2.463 -0.0028 -0.4464  0.1879
  321SOL    HW110932   3.769   1.574   2.551  0.7793 -2.0942 -0.4544
  321SOL    HW210933   3.771   1.554   2.389  2.0999 -0.0275 -0.7056
  322SOL     OW10934   1.553   0.451   2.250 -0.1606  0.4632 -0.4977
  322SOL    HW110935   1.518   0.537   2.212  0.0255  0.5408 -0.4936
  322SOL    HW210936   1.535   0.447   2.348 -0.1094  0.5258 -0.4862
  323SOL     OW10937   9.810   6.273   0.139  0.7120 -0.3824  0.1034
  323SOL    HW110938   9.865   6.297   0.219 -0.9533  2.0725  0.5286
  323SOL    HW210939   9.839   6.328   0.061 -0.4446  0.1696  0.0629
  324SOL     OW10940   0.976   2.820   0.100 -0.3597 -0.5911 -0.1890
  324SOL    HW110941   0.915   2.822   0.021  0.1685  0.9046 -0.5770
  324SOL    HW210942   1.060   2.870   0.079 -0.4275  0.2660  1.4730
  325SOL     OW10943   2.626   0.920   1.720 -0.3915  0.1061 -0.5756
  325SOL    HW110944   2.709   0.962   1.683  0.6477 -2.6707 -1.5252
  325SOL    HW210945   2.570   0.884   1.646 -1.0060 -0.5928  0.2140
  326SOL     OW10946   0.595   5.290   0.894 -0.3417  0.1304  0.4120
  326SOL    HW110947   0.618   5.194   0.910 -0.6000  0.1012  0.6158
  326SOL    HW210948   0.552   5.328   0.977 -0.8456  0.2377  0.1021
  327SOL     OW10949   1.501   0.075   0.240 -0.3952 -0.3983 -0.4481
  327SOL    HW110950   1.527   0.156   0.293 -0.4469 -0.2316 -0.6812
  327SOL    HW210951   1.402   0.064   0.242 -0.3482 -0.8010  0.0922
  328SOL     OW10952   3.542   0.893   0.378 -0.7072 -0.5138  0.3019
  328SOL    HW110953   3.553   0.817   0.442 -0.1009 -0.7867 -0.1204
  328SOL    HW210954   3.565   0.862   0.286 -2.7379 -0.4388 -0.2426
  329SOL     OW10955   1.919   6.206   1.367 -1.1152 -0.4540 -0.1729
  329SOL    HW110956   1.920   6.227   1.464 -0.8699  1.9268 -0.6574
  329SOL    HW210957   1.836   6.244   1.325  0.1976  1.1860 -1.4016
  330SOL     OW10958   4.470   2.918   2.068  0.1025 -0.2991  0.7047
  330SOL    HW110959   4.409   2.954   1.998 -0.2663  0.3842  1.3690
  330SOL    HW210960   4.543   2.865   2.025 -1.4570 -1.8827 -0.0364
  331SOL     OW10961   3.567   1.666   2.102  0.2470  0.8634 -0.1679
  331SOL    HW110962   3.666   1.663   2.089  0.1542  1.1922 -0.9387
  331SOL    HW210963   3.544   1.736   2.169  0.4684  1.3659 -0.6180
  332SOL     OW10964   3.029   2.593   2.217  0.1653 -0.0744 -0.1264
  332SOL    HW110965   3.097   2.588   2.289  0.1030 -0.7478 -0.1051
  332SOL    HW210966   2.945   2.634   2.253  0.5415  0.7187 -0.1440
  333SOL     OW10967   1.641   5.022   2.276 -0.4427  0.0287 -0.3476
  333SOL    HW110968   1.615   5.102   2.330 -0.7156 -0.0634 -0.3439
  333SOL    HW210969   1.613   5.036   2.181  0.6112  0.4713 -0.6074
  334SOL     OW10970   2.273   4.130   1.201 -0.1507  0.5785 -0.0598
  334SOL    HW110971   2.212   4.056   1.173 -0.1901  0.3046  0.7101
  334SOL    HW210972   2.368   4.104   1.181 -0.1909  0.4589 -0.0966
  335SOL     OW10973   2.743   5.944   1.426 -0.7478  0.1201 -0.1100
  335SOL    HW110974   2.741   6.039   1.396 -0.8459 -0.0772 -0.7500
  335SOL    HW210975   2.783   5.938   1.517  1.2532  0.5504 -0.9325
  336SOL     OW10976   4.793   3.160   1.542 -0.4653  0.0179 -0.5078
  336SOL    HW110977   4.827   3.066   1.547 -0.7307 -0.0425  0.1827
  336SOL    HW210978   4.867   3.224   1.564 -0.2403 -0.0187 -1.1434
  337SOL     OW10979   2.404   5.780   2.542 -0.3295 -0.0592 -0.1927
  337SOL    HW110980   2.341   5.841   2.495 -0.1455 -0.5388 -1.0820
  337SOL    HW210981   2.486   5.831   2.569 -0.0914  0.0512 -1.1043
  338SOL     OW10982   2.769   9.092   0.939 -0.0350  0.0108  0.2204
  338SOL    HW110983   2.822   9.040   0.873  0.8772  0.5811  0.5000
  338SOL    HW210984   2.807   9.078   1.031 -0.9461 -0.3274  0.5631
  339SOL     OW10985   2.000   8.075   1.218  0.5190 -0.0703  0.4425
  339SOL    HW110986   1.978   7.982   1.189  3.2187 -0.5347 -0.3043
  339SOL    HW210987   1.984   8.139   1.143  1.9993 -0.4524 -0.2117
  340SOL     OW10988   1.518   8.263   0.941  0.7315  0.4227 -0.0200
  340SOL    HW110989   1.544   8.203   0.865 -1.0059 -1.1384  0.6069
  340SOL    HW210990   1.588   8.257   1.013  1.3203  0.3215 -0.5900
  341SOL     OW10991   1.976   3.660   0.657 -0.3359  0.6102  0.0022
  341SOL    HW110992   2.052   3.606   0.623 -0.4563  1.3526 -1.4746
  341SOL    HW210993   2.002   3.705   0.742  0.7569  0.6159 -0.3347
  342SOL     OW10994   1.276   6.697   1.480  0.0667  0.8407 -0.0668
  342SOL    HW110995   1.347   6.700   1.409 -0.4692  1.1357 -0.5961
  342SOL    HW210996   1.279   6.609   1.527  0.5567  0.7186 -0.3225
  343SOL     OW10997   1.613   1.308   1.780 -0.2615  0.6906 -0.0952
  343SOL    HW110998   1.574   1.393   1.815 -0.4952  0.3523  0.4793
  343SOL    HW210999   1.608   1.308   1.681 -2.0768  0.4991 -0.0306
  344SOL     OW11000   3.254   1.775   1.800  0.8721  1.0244  0.2334
  344SOL    HW111001   3.321   1.703   1.818 -2.0440 -1.9921 -0.6173
  344SOL    HW211002   3.246   1.790   1.701  0.0488  1.1499  0.3161
  345SOL     OW11003   9.261   3.873   0.591  0.0423  0.1357 -0.0971
  345SOL    HW111004   9.248   3.788   0.643  0.6154  0.6647  0.9410
  345SOL    HW211005   9.335   3.860   0.525  1.9357  0.5912  1.8555
  346SOL     OW11006   9.819   5.048   1.263 -0.6417  0.2430  0.2326
  346SOL    HW111007   9.874   5.125   1.231 -1.0911  1.1269  1.5543
  346SOL    HW211008   9.845   4.966   1.213  0.9673  0.9236 -0.0835
  347SOL     OW11009   3.147   2.489   1.993 -0.1882  0.0741  0.5055
  347SOL    HW111010   3.078   2.432   1.948  0.1655 -0.5902  0.7888
  347SOL    HW211011   3.103   2.543   2.065 -0.3418 -0.7039  1.0081
  348SOL     OW11012   3.647   8.180   0.759  0.5437 -0.4988  0.6536
  348SOL    HW111013   3.708   8.257   0.780  0.5117 -0.3180  0.0867
  348SOL    HW211014   3.683   8.097   0.801  2.4197 -0.8578 -1.6120
  349SOL     OW11015   3.403   0.201   2.429  0.1075  0.0400  0.0997
  349SOL    HW111016   3.410   0.235   2.335  0.0153 -2.0181 -0.6945
  349SOL    HW211017   3.405   0.101   2.428 -0.8279 -0.0349  2.2266
  350SOL     OW11018   1.309   5.554   1.529  0.4929  0.3482 -0.2724
  350SOL    HW111019   1.365   5.637   1.531 -1.0324  1.3550  3.6842
  350SOL    HW211020   1.354   5.483   1.583  0.0084 -0.2486 -0.6462
  351SOL     OW11021   3.935   5.174   1.391  0.1233  0.3205  0.4258
  351SOL    HW111022   3.991   5.232   1.332 -0.4773  0.8776  0.4023
  351SOL    HW211023   3.839   5.197   1.378 -0.1671 -1.0862 -0.0350
  352SOL     OW11024   9.542   6.140   0.974 -0.2804 -0.1405 -0.0527
  352SOL    HW111025   9.536   6.109   0.879  0.7771  1.0182 -0.5051
  352SOL    HW211026   9.615   6.090   1.020  1.4940  1.6953 -0.8114
  353SOL     OW11027   3.272   4.090   2.168  0.2935 -0.1151  0.2223
  353SOL    HW111028   3.181   4.120   2.194  0.6273  1.3437 -0.2534
  353SOL    HW211029   3.313   4.038   2.243  0.5824  2.5518  1.9549
  354SOL     OW11030   0.332   3.355   1.758  0.0737 -0.8944 -0.4650
  354SOL    HW111031   0.393   3.284   1.794 -0.0440 -1.0015 -0.4755
  354SOL    HW211032   0.278   3.317   1.683 -0.3869 -0.9477 -0.1062
  355SOL     OW11033   2.718   8.159   1.336  0.6389 -0.0758  0.5353
  355SOL    HW111034   2.643   8.094   1.347  0.8153 -0.2319  0.8076
  355SOL    HW211035   2.739   8.202   1.424  3.1614 -2.5571  1.2051
  356SOL     OW11036   9.671   6.076   0.312  0.0692 -0.4996 -0.3043
  356SOL    HW111037   9.737   6.070   0.387 -0.4717  1.3104  0.3370
  356SOL    HW211038   9.688   6.159   0.259 -2.0015  0.3021  0.2134
  357SOL     OW11039   2.142   6.138   1.227  0.1027 -0.5118 -0.1728
  357SOL    HW111040   2.062   6.149   1.286  0.1912  0.9474 -0.2961
  357SOL    HW211041   2.169   6.042   1.225 -0.9146 -0.8343  0.8244
  358SOL     OW11042   2.661   8.652   0.175 -0.4053 -0.5809  0.3961
  358SOL    HW111043   2.726   8.675   0.248  1.7838 -0.9587 -1.3877
  358SOL    HW211044   2.574   8.698   0.192  0.5413  0.5027  2.4582
  359SOL     OW11045   2.516   4.698   1.088 -0.1279  0.3205  0.1765
  359SOL    HW111046   2.477   4.621   1.140  0.3918 -0.2109 -0.2095
  359SOL    HW211047   2.567   4.662   1.009  0.8571  1.0253  0.4895
  360SOL     OW11048   0.095   4.074   2.580 -0.6044 -0.2646 -0.7295
  360SOL    HW111049   0.096   4.170   2.553  0.9593 -0.3321 -0.9221
  360SOL    HW211050   0.082   4.017   2.499 -1.3284 -0.2393 -0.6394
  361SOL     OW11051   0.178   3.835   1.215  0.2286  0.2405 -0.3630
  361SOL    HW111052   0.225   3.864   1.299 -1.2179  0.1402  0.4850
  361SOL    HW211053   0.121   3.756   1.234 -1.8525  1.5734 -0.9330
  362SOL     OW11054   1.146   6.759   1.199 -0.1715  0.2240  0.7266
  362SOL    HW111055   1.213   6.803   1.140 -0.1829  0.4304  0.8666
  362SOL    HW211056   1.160   6.789   1.294 -1.4147  1.4554  0.5545
  363SOL     OW11057   1.284   9.157   0.409  0.0931  0.3145 -0.1510
  363SOL    HW111058   1.241   9.182   0.322 -1.1811  0.7410  0.5902
  363SOL    HW211059   1.275   9.232   0.474 -2.1785 -1.3413  1.5103
  364SOL     OW11060   2.263   4.977   0.743  0.4783  0.1099 -0.4666
  364SOL    HW111061   2.314   5.022   0.816  0.9919 -1.8062  0.3938
  364SOL    HW211062   2.178   5.028   0.725 -0.2402 -0.0246  2.2889
  365SOL     OW11063   9.640   5.311   0.811  0.3869  0.0176 -0.0020
  365SOL    HW111064   9.665   5.334   0.904  0.5961  1.4062 -0.3918
  365SOL    HW211065   9.625   5.395   0.758  1.6999 -0.7123 -1.6044
  366SOL     OW11066   3.824   0.038   2.424 -0.2267 -0.4353  0.2940
  366SOL    HW111067   3.800  -0.025   2.499  1.2533 -0.5365  0.6961
  366SOL    HW211068   3.884  -0.009   2.359 -0.4755  0.0504 -0.2911
  367SOL     OW11069   1.464   7.350   2.424 -0.3530 -0.0742  0.0725
  367SOL    HW111070   1.460   7.272   2.487  0.1430 -1.7091 -1.8852
  367SOL    HW211071   1.560   7.367   2.400 -0.4603  1.1581  0.4736
  368SOL     OW11072   4.469   2.173   1.649 -0.0641  0.0326  0.1125
  368SOL    HW111073   4.437   2.265   1.670 -0.1108 -0.0640  0.4852
  368SOL    HW211074   4.533   2.143   1.720 -1.2806 -0.8334  0.8804
  369SOL     OW11075   0.151   5.802   2.365  0.5256  0.2766  0.4460
  369SOL    HW111076   0.105   5.889   2.348 -0.3030 -0.2551 -0.1051
  369SOL    HW211077   0.107   5.755   2.441  1.2826  0.5546  1.0601
  370SOL     OW11078   1.852   7.929   0.245 -0.3454 -0.5241  0.1210
  370SOL    HW111079   1.849   7.882   0.333  0.6609 -0.1783  0.3559
  370SOL    HW211080   1.945   7.924   0.209 -0.6358 -0.2082 -0.6755
  371SOL     OW11081   2.080   1.795   1.132  0.8212  0.0739 -0.5879
  371SOL    HW111082   2.124   1.796   1.042 -1.6374  0.4477 -1.8147
  371SOL    HW211083   2.003   1.859   1.132  0.8395  0.1392  1.8249
  372SOL     OW11084   9.411   4.409   0.931  0.0415  0.0290  0.2546
  372SOL    HW111085   9.321   4.444   0.903  0.6654  1.2797 -0.2025
  372SOL    HW211086   9.398   4.333   0.996 -1.3427  0.0185 -0.0183
  373SOL     OW11087   2.111   5.339   1.507  0.1489 -1.0025 -0.4383
  373SOL    HW111088   2.049   5.311   1.434  1.2392 -1.0758 -1.3484
  373SOL    HW211089   2.205   5.320   1.481  0.6443  0.0321  0.5050
  374SOL     OW11090   4.579   3.910   0.666 -0.2515  0.3290  0.1791
  374SOL    HW111091   4.625   3.848   0.602 -1.3041 -0.4242  0.1321
  374SOL    HW211092   4.543   3.858   0.743 -1.1612  0.8705  0.1341
  375SOL     OW11093   2.173   9.759   1.125 -0.1950  0.6893  0.4554
  375SOL    HW111094   2.175   9.711   1.038 -1.1202  1.1514  0.1683
  375SOL    HW211095   2.245   9.828   1.128  1.1303 -0.6894  0.8629
  376SOL     OW11096   1.787   6.454   2.097  0.0519 -0.2922 -0.1819
  376SOL    HW111097   1.763   6.403   2.179  0.6566  0.0693  0.2305
  376SOL    HW211098   1.884   6.441   2.076 -0.0725 -0.3055 -0.7845
  377SOL     OW11099   2.583   1.408   2.448  0.3857 -0.3976 -0.6911
  377SOL    HW111100   2.584   1.313   2.415 -0.5171  0.0516 -2.0430
  377SOL    HW211101   2.670   1.427   2.494  1.7373 -1.0474 -2.8562
  378SOL     OW11102   1.565   7.887   2.164  0.0803  0.0303  0.1348
  378SOL    HW111103   1.505   7.926   2.095  1.2095  0.6059 -0.5339
  378SOL    HW211104   1.611   7.806   2.126  0.1538 -0.0793  0.4562
  379SOL     OW11105   3.725   9.068   0.666 -0.0040  0.8379 -0.2920
  379SOL    HW111106   3.810   9.042   0.710 -1.0305  0.8348  1.7677
  379SOL    HW211107   3.705   9.164   0.686 -1.4411  0.3197  0.9259
  380SOL     OW11108   2.559   0.724   1.200 -0.0829 -0.2911 -0.6299
  380SOL    HW111109   2.624   0.762   1.134 -0.3537 -0.5381 -1.0425
  380SOL    HW211110   2.490   0.793   1.223  0.8644  0.3003  0.5476
  381SOL     OW11111   4.973   3.533   1.800 -0.0061  0.0181 -0.3583
  381SOL    HW111112   4.916   3.586   1.863  0.4027  0.6480 -0.5201
  381SOL    HW211113   4.984   3.440   1.837 -0.3415  0.1764  0.1535
  382SOL     OW11114   2.592   6.087   1.053 -0.1928  0.1273  0.1627
  382SOL    HW111115   2.540   6.171   1.036 -0.6607 -0.0909  0.5092
  382SOL    HW211116   2.678   6.109   1.100  0.3120  0.5543 -0.9372
  383SOL     OW11117   4.031   3.865   2.608 -0.6663 -0.4192 -0.1070
  383SOL    HW111118   4.023   3.943   2.546 -1.4275  0.5887  1.2118
  383SOL    HW211119   3.948   3.810   2.603 -0.6266 -0.4731 -0.1635
  384SOL     OW11120   2.375   1.614   0.431 -0.8732 -0.0897 -0.3333
  384SOL    HW111121   2.276   1.602   0.434 -0.7493 -1.0393  0.1255
  384SOL    HW211122   2.419   1.525   0.423  0.0292  0.1432  1.8393
  385SOL     OW11123   1.009   6.443   1.614  0.3141  0.3491 -0.2333
  385SOL    HW111124   1.004   6.379   1.538 -2.0726  0.0460  0.1477
  385SOL    HW211125   1.105   6.460   1.637  0.9915 -2.3067 -0.9772
  386SOL     OW11126   2.642   6.343   1.617  0.1422  0.0820 -0.1510
  386SOL    HW111127   2.613   6.437   1.597 -0.6395  0.0479  0.7725
  386SOL    HW211128   2.698   6.342   1.700 -0.5646 -0.3739  0.3277
  387SOL     OW11129   2.603   5.166   1.874 -0.3106 -0.0602  0.2826
  387SOL    HW111130   2.595   5.202   1.967 -2.1661  0.5353 -0.0626
  387SOL    HW211131   2.544   5.220   1.813  0.3033 -0.9115 -1.0968
  388SOL     OW11132   1.714   0.014   1.278  0.1175  0.1520  0.2364
  388SOL    HW111133   1.760  -0.019   1.195 -0.2798 -0.8908  0.4193
  388SOL    HW211134   1.622   0.044   1.255  0.6578  1.6790 -0.0240
  389SOL     OW11135   3.814   9.837   2.606 -0.1247  0.2897  0.2469
  389SOL    HW111136   3.731   9.785   2.630 -0.7539  1.1973  0.0543
  389SOL    HW211137   3.876   9.778   2.556  0.1458 -0.9386  1.9818
  390SOL     OW11138   1.794   9.670   0.515  0.9004  0.3829 -0.2450
  390SOL    HW111139   1.809   9.574   0.494  1.0532  0.7160 -1.7558
  390SOL    HW211140   1.778   9.682   0.613  3.5301 -0.8378  0.3626
  391SOL     OW11141   2.670   6.648   0.834 -0.1665  0.4328  0.3306
  391SOL    HW111142   2.727   6.678   0.757  0.7634 -1.1710  0.3576
  391SOL    HW211143   2.602   6.717   0.855 -0.4322  0.8763 -1.9523
  392SOL     OW11144   4.381   4.358   2.162  0.0169  0.1108 -0.4650
  392SOL    HW111145   4.454   4.386   2.225 -0.0406 -2.3719  0.7536
  392SOL    HW211146   4.372   4.426   2.089  3.4184  0.5587 -0.5367
  393SOL     OW11147   4.078   1.417   1.629  0.5147  0.3353 -0.1537
  393SOL    HW111148   4.136   1.374   1.559  0.6859 -0.0826  0.2423
  393SOL    HW211149   4.071   1.515   1.611 -1.3204 -0.1190 -2.0983
  394SOL     OW11150   9.864   5.590   1.200 -0.2058 -0.0317  0.0185
  394SOL    HW111151   9.960   5.576   1.227 -0.8422 -0.6848  2.0501
  394SOL    HW211152   9.824   5.663   1.256 -1.1759 -0.4452 -0.1292
  395SOL     OW11153   3.694   1.882   0.138  0.9771 -0.4927  0.5453
  395SOL    HW111154   3.790   1.897   0.159  1.5347 -0.7410 -1.6462
  395SOL    HW211155   3.673   1.923   0.049 -0.9064 -0.5609  0.9368
  396SOL     OW11156   3.935   9.083   0.160 -0.5630 -0.3001  0.0443
  396SOL    HW111157   4.031   9.058   0.173 -0.4348  0.0320 -0.2614
  396SOL    HW211158   3.884   9.066   0.244  0.0624  0.9220  0.6756
  397SOL     OW11159   3.055   0.967   0.306 -0.3380  0.3672  0.3612
  397SOL    HW111160   3.137   0.982   0.360  0.2558 -2.4005  0.3132
  397SOL    HW211161   3.073   0.897   0.236 -2.0426  1.4765 -1.2452
  398SOL     OW11162   3.722   5.119   2.586 -0.0848 -0.7356 -0.3747
  398SOL    HW111163   3.807   5.085   2.625  0.3474  1.9478  1.1463
  398SOL    HW211164   3.736   5.142   2.490  1.5783  1.8328  0.4484
  399SOL     OW11165   3.523   0.757   1.219 -0.3695 -0.4661 -0.7785
  399SOL    HW111166   3.616   0.749   1.254 -0.4992  0.3079 -0.2241
  399SOL    HW211167   3.524   0.764   1.120  0.0675 -1.8282 -0.8873
  400SOL     OW11168   9.433   5.064   0.639  0.1525  0.4487  0.1127
  400SOL    HW111169   9.414   5.093   0.733  1.8775  0.1341  0.5856
  400SOL    HW211170   9.527   5.030   0.634  0.1642  0.7421 -1.8024
  401SOL     OW11171   0.987   6.150   0.355 -0.1333  0.2802  0.0195
  401SOL    HW111172   0.959   6.077   0.417  0.4122  0.4909  0.5195
  401SOL    HW211173   1.038   6.219   0.406  3.1077 -1.0756 -1.2071
  402SOL     OW11174   1.464   4.034   1.160  0.3464 -0.2986 -0.1041
  402SOL    HW111175   1.372   3.995   1.166  0.8400 -1.2568  1.8468
  402SOL    HW211176   1.532   3.961   1.169  1.2857  0.6364  0.5740
  403SOL     OW11177   1.632   7.191   1.391 -0.1823  0.2408 -0.0014
  403SOL    HW111178   1.620   7.270   1.331 -0.7958 -0.3645 -0.6824
  403SOL    HW211179   1.576   7.202   1.473 -0.9793  0.0755 -0.5281
  404SOL     OW11180   1.121   7.006   0.479 -0.1895 -0.1290  0.2496
  404SOL    HW111181   1.173   7.076   0.529  0.4103 -0.1859 -0.2832
  404SOL    HW211182   1.174   6.921   0.475 -0.5277 -0.3347  0.1140
  405SOL     OW11183   1.408   4.201   2.091  0.2332  0.5855  0.4109
  405SOL    HW111184   1.328   4.260   2.096  1.4024  2.2023  0.1670
  405SOL    HW211185   1.489   4.250   2.123  1.1635 -1.0092  0.6111
  406SOL     OW11186   1.008   3.020   1.954 -0.6352 -0.8320 -0.1814
  406SOL    HW111187   0.989   2.932   1.911 -0.6198 -0.4830 -0.8987
  406SOL    HW211188   0.936   3.085   1.929 -0.7242 -0.6727  0.4608
  407SOL     OW11189   1.894   6.936   2.273  0.4075  0.6053 -0.1318
  407SOL    HW111190   1.842   6.851   2.281  2.4296 -0.5643  1.0238
  407SOL    HW211191   1.867   6.984   2.190  0.4645 -2.0435 -1.7516
  408SOL     OW11192   1.693   4.673   2.133 -0.3828  0.1866  0.3781
  408SOL    HW111193   1.612   4.668   2.192 -1.8668  2.5970 -1.3701
  408SOL    HW211194   1.719   4.768   2.120  2.4585 -0.5272  0.4524
  409SOL     OW11195   0.195   4.529   2.467 -0.1583 -0.1053 -0.6388
  409SOL    HW111196   0.292   4.508   2.460 -0.1204  0.1356 -0.8829
  409SOL    HW211197   0.183   4.628   2.471 -0.3599 -0.1539 -0.0227
  410SOL     OW11198   0.724   2.730   0.588  0.2192 -0.0110  0.2741
  410SOL    HW111199   0.624   2.732   0.588  0.2061  0.7346  2.3476
  410SOL    HW211200   0.757   2.739   0.494 -1.6501 -0.2987 -0.4433
  411SOL     OW11201   2.598   9.876   1.092  0.0612 -0.1132  0.4307
  411SOL    HW111202   2.659   9.946   1.128 -0.2991  0.4625 -0.0769
  411SOL    HW211203   2.513   9.874   1.146  0.6146 -1.0770  1.2875
  412SOL     OW11204   1.499   4.474   0.526  0.1385  0.6548 -0.0013
  412SOL    HW111205   1.440   4.422   0.587 -0.6541  0.6178 -0.7885
  412SOL    HW211206   1.457   4.563   0.507  0.7228  0.9479  0.0711
  413SOL     OW11207   2.029   4.849   0.237  0.5917  0.1466 -0.2694
  413SOL    HW111208   2.068   4.941   0.245  0.7090 -0.0583  1.7646
  413SOL    HW211209   2.075   4.788   0.301 -2.4335 -0.3197  1.5185
  414SOL     OW11210   3.286   8.464   0.747 -0.1364 -0.1293  0.4344
  414SOL    HW111211   3.365   8.436   0.802  0.0975  2.5623  1.5639
  414SOL    HW211212   3.227   8.523   0.802 -1.0170  0.8744 -1.5331
  415SOL     OW11213   1.552   6.444   0.480 -0.5981  0.2468 -0.2323
  415SOL    HW111214   1.481   6.437   0.550  0.3789 -1.1302  0.6384
  415SOL    HW211215   1.563   6.540   0.453 -1.9411  0.6144  0.4878
  416SOL     OW11216   0.245   3.263   0.397 -0.0197  0.1164  0.2012
  416SOL    HW111217   0.329   3.289   0.350 -0.0059  0.2016  0.2730
  416SOL    HW211218   0.175   3.240   0.329  0.0149  0.1936  0.1395
  417SOL     OW11219   3.127   9.794   0.202 -0.2090 -0.3448  0.6428
  417SOL    HW111220   3.132   9.749   0.291  1.1776  0.0522  0.7759
  417SOL    HW211221   3.095   9.887   0.213  0.8226 -0.0050  0.8464
  418SOL     OW11222   2.899   1.274   2.070  0.1627  0.2394  0.5978
  418SOL    HW111223   2.964   1.232   2.006  0.4507 -0.2770  1.2229
  418SOL    HW211224   2.816   1.298   2.021  0.5313  0.1994 -0.0560
  419SOL     OW11225   2.851   1.052   1.593  0.5361 -0.0703  0.6667
  419SOL    HW111226   2.933   1.105   1.575  0.6051 -0.4442 -0.1731
  419SOL    HW211227   2.871   0.954   1.583  0.0472 -0.1767  0.6747
  420SOL     OW11228   2.823   5.215   0.626 -0.0562 -0.5192 -0.2779
  420SOL    HW111229   2.776   5.221   0.538 -1.2335  3.4614  0.5137
  420SOL    HW211230   2.907   5.269   0.624 -0.8798  0.8896  1.4723
  421SOL     OW11231   0.333   5.392   2.547  0.3885  0.1867  0.6959
  421SOL    HW111232   0.341   5.411   2.449 -0.6869 -1.2765  0.2972
  421SOL    HW211233   0.424   5.388   2.587  0.7666  3.0198  0.2350
  422SOL     OW11234   3.108   3.726   0.845  0.7684  0.2712  0.1888
  422SOL    HW111235   3.074   3.768   0.929 -1.3502 -0.3072 -0.3329
  422SOL    HW211236   3.149   3.637   0.867 -0.0358 -0.0086  0.6103
  423SOL     OW11237   2.855   7.303   1.925 -0.3260  0.2677  0.7125
  423SOL    HW111238   2.797   7.336   1.851  0.5770  1.8377  0.6725
  423SOL    HW211239   2.879   7.208   1.909  0.1731  0.6971 -1.2258
  424SOL     OW11240   5.186   3.087   0.027 -0.7562  0.0239 -0.7248
  424SOL    HW111241   5.092   3.087  -0.007 -0.6139 -2.0095 -1.1446
  424SOL    HW211242   5.185   3.074   0.126 -0.8554 -1.5956 -0.9343
  425SOL     OW11243   0.617   3.079   0.488 -0.4092 -0.6279 -0.0511
  425SOL    HW111244   0.549   3.006   0.490  0.2083 -1.2105 -0.3375
  425SOL    HW211245   0.708   3.041   0.501  0.0300 -0.0582 -1.3367
  426SOL     OW11246   4.002   3.361   2.478 -0.4681  0.3754  0.2932
  426SOL    HW111247   4.083   3.335   2.425 -0.5632  2.0724 -0.6814
  426SOL    HW211248   4.004   3.312   2.565  2.0564  1.0077  0.6469
  427SOL     OW11249   2.428   3.366   2.266 -0.3424  0.1519 -0.1076
  427SOL    HW111250   2.453   3.378   2.170  0.9435  0.4226  0.2592
  427SOL    HW211251   2.506   3.332   2.317 -0.6950  1.0500  1.0611
  428SOL     OW11252   1.491   2.501   2.186  0.1587 -0.0454 -0.7490
  428SOL    HW111253   1.495   2.417   2.132 -0.4672 -0.8539  0.4312
  428SOL    HW211254   1.396   2.529   2.197  0.4164  1.2311 -1.7562
  429SOL     OW11255   9.132   4.903   1.411 -0.1272  0.5305 -0.0865
  429SOL    HW111256   9.093   4.968   1.346 -1.1501  0.2872  0.2752
  429SOL    HW211257   9.139   4.813   1.368 -2.6145 -0.0974  0.7148
  430SOL     OW11258   1.811   4.170   2.418 -0.1248  0.0545  0.5942
  430SOL    HW111259   1.737   4.236   2.405 -1.6706 -1.3466  2.0611
  430SOL    HW211260   1.835   4.164   2.515  0.8965 -0.5856  0.3127
  431SOL     OW11261   0.735   3.132   1.834 -0.1289  0.2113 -0.1094
  431SOL    HW111262   0.789   3.217   1.830 -1.7979  1.2812 -0.7221
  431SOL    HW211263   0.757   3.075   1.754 -0.5081  1.0134 -0.7945
  432SOL     OW11264   3.168   9.265   0.875  0.1421  0.3221  0.4348
  432SOL    HW111265   3.125   9.183   0.836  1.9758 -0.3072 -0.3504
  432SOL    HW211266   3.166   9.259   0.975 -1.6602  0.3735  0.4235
  433SOL     OW11267   3.518   9.914   0.757  0.3164 -0.6316  0.3266
  433SOL    HW111268   3.615   9.891   0.758  0.0892 -1.5980  1.0622
  433SOL    HW211269   3.497   9.970   0.837 -0.0617 -1.8950  1.1358
  434SOL     OW11270   3.111   9.307   1.135 -0.0853  0.2258 -0.6317
  434SOL    HW111271   3.100   9.211   1.159 -1.2325  0.5432  0.1567
  434SOL    HW211272   3.021   9.348   1.119  0.4413  0.9609 -1.8071
  435SOL     OW11273   4.310   3.425   0.266 -0.2322  0.1694 -0.1639
  435SOL    HW111274   4.235   3.473   0.220 -1.3247 -0.1137  1.2848
  435SOL    HW211275   4.362   3.490   0.322 -0.8393 -0.0596  0.6755
  436SOL     OW11276   2.113   3.413   0.044 -0.4317 -0.1543  0.2293
  436SOL    HW111277   2.047   3.488   0.045 -0.8092 -0.4850 -0.0212
  436SOL    HW211278   2.127   3.382  -0.051 -0.0078 -0.1596  0.2939
  437SOL     OW11279   1.572   2.949   2.537 -0.4448 -0.1189  0.1466
  437SOL    HW111280   1.532   3.036   2.564  0.0698 -0.0041  0.5498
  437SOL    HW211281   1.659   2.965   2.491  1.0874 -0.5389  2.8034
  438SOL     OW11282   0.077   5.728   1.408  0.3447 -0.4826 -0.0677
  438SOL    HW111283   0.164   5.745   1.454  0.3829 -0.5158 -0.1276
  438SOL    HW211284   0.004   5.721   1.476  0.2655  0.3125 -0.0699
  439SOL     OW11285   4.320   1.498   0.728  0.0042 -0.0214  0.1356
  439SOL    HW111286   4.334   1.582   0.782  0.8925  0.1795 -0.4139
  439SOL    HW211287   4.221   1.484   0.715 -0.1221  1.7195 -0.9773
  440SOL     OW11288   2.086   4.988   1.139 -0.2907  0.2547 -0.1427
  440SOL    HW111289   2.089   4.964   1.042  1.2817  0.5532 -0.1782
  440SOL    HW211290   2.158   4.938   1.188  1.1106  2.6236  0.2802
  441SOL     OW11291   3.221   9.686   1.003  0.3087 -0.0782 -0.3314
  441SOL    HW111292   3.224   9.633   0.918  1.8645 -0.9256  0.2469
  441SOL    HW211293   3.262   9.633   1.077 -0.7537  0.7891  0.8920
  442SOL     OW11294   3.107   2.709   1.385 -0.6160 -0.3266 -0.0252
  442SOL    HW111295   3.125   2.774   1.311  0.0557 -0.4473  0.0309
  442SOL    HW211296   3.152   2.740   1.468  0.0484 -1.0741 -0.1038
  443SOL     OW11297   3.805   4.005   0.283 -0.3954 -0.0462  0.3222
  443SOL    HW111298   3.757   4.073   0.227 -0.1492  0.4631  0.7154
  443SOL    HW211299   3.861   3.947   0.225 -0.2633  0.3778  0.0206
  444SOL     OW11300   2.109   7.334   0.521  0.3363 -0.1140  0.0640
  444SOL    HW111301   2.110   7.379   0.432  1.4831 -2.2503 -1.0298
  444SOL    HW211302   2.202   7.310   0.548 -0.3051 -2.5441  0.2334
  445SOL     OW11303   3.419   4.258   2.352  0.2839  0.2939  0.1119
  445SOL    HW111304   3.413   4.352   2.387 -0.1003  0.1657  0.3893
  445SOL    HW211305   3.332   4.233   2.309 -0.3276 -0.6533  1.8433
  446SOL     OW11306   2.207   1.317   0.703 -0.0822 -0.1930 -0.4169
  446SOL    HW111307   2.280   1.258   0.738 -0.0790  0.2429  0.3411
  446SOL    HW211308   2.229   1.346   0.610  0.7228 -0.0582 -0.1948
  447SOL     OW11309   0.665   5.446   0.280  0.2078 -0.3728 -0.1849
  447SOL    HW111310   0.726   5.523   0.260 -1.3414  0.7662 -0.6450
  447SOL    HW211311   0.654   5.390   0.199 -2.3973  1.6375 -1.3255
  448SOL     OW11312   2.427   3.021   0.502 -0.2175 -0.0416 -0.2393
  448SOL    HW111313   2.353   2.999   0.438 -2.8818  1.6229  2.1158
  448SOL    HW211314   2.451   3.118   0.493  0.5103 -0.1815  0.1764
  449SOL     OW11315   1.054   5.679   1.453 -0.1423  0.4492  0.3901
  449SOL    HW111316   1.076   5.745   1.524  1.8359  0.5048 -0.2579
  449SOL    HW211317   1.107   5.596   1.466  0.6298  0.6525 -1.3135
  450SOL     OW11318   1.985   9.149   0.914  0.3430 -0.0911  0.0994
  450SOL    HW111319   1.978   9.244   0.943 -0.8357 -0.2859  0.4852
  450SOL    HW211320   1.900   9.122   0.868  1.2777 -0.4798 -1.4649
  451SOL     OW11321   3.375   4.424   1.789 -0.5909  0.2371  0.1091
  451SOL    HW111322   3.468   4.434   1.825 -0.5745 -1.2162  0.4942
  451SOL    HW211323   3.338   4.335   1.816 -2.7951  1.5243  1.5014
  452SOL     OW11324   2.285   2.736   1.553  0.0663  0.3082 -0.3338
  452SOL    HW111325   2.229   2.675   1.609  1.0446  2.0902  2.7400
  452SOL    HW211326   2.354   2.683   1.505  0.3404 -1.1196  1.5635
  453SOL     OW11327   4.458   1.544   2.247  0.0335  0.3493 -0.0575
  453SOL    HW111328   4.500   1.466   2.200 -0.0649  0.1640  0.1598
  453SOL    HW211329   4.365   1.520   2.274 -0.3586  0.8968 -0.8901
  454SOL     OW11330   1.985   4.230   1.599 -0.3577 -0.0143  0.7244
  454SOL    HW111331   2.018   4.252   1.691 -1.6102  2.0772  0.7142
  454SOL    HW211332   1.887   4.249   1.594 -0.5359 -1.2879 -0.6939
  455SOL     OW11333   1.791   1.432   2.174  0.1541 -0.3796  0.0816
  455SOL    HW111334   1.800   1.392   2.083  0.0675 -2.5611  1.0114
  455SOL    HW211335   1.874   1.482   2.197 -1.1740  3.3099 -2.6317
  456SOL     OW11336   3.293   2.026   0.661  0.0801 -0.4599  0.1310
  456SOL    HW111337   3.343   2.068   0.585 -0.8706 -0.9338 -0.7848
  456SOL    HW211338   3.356   2.004   0.735  0.7364  1.6224  0.1996
  457SOL     OW11339   3.237   3.875   0.181  0.7098 -0.6210  0.1121
  457SOL    HW111340   3.218   3.845   0.088  2.5208 -1.7794  0.0821
  457SOL    HW211341   3.314   3.939   0.181 -0.4355  0.7607  0.6276
  458SOL     OW11342   0.358   6.028   1.440  0.0702  0.3857 -0.0467
  458SOL    HW111343   0.338   5.931   1.456 -0.9476  0.7534  0.9415
  458SOL    HW211344   0.457   6.043   1.447  0.0364 -0.2158  1.7885
  459SOL     OW11345   0.644   5.230   1.226  0.7368  0.0042 -0.4014
  459SOL    HW111346   0.551   5.221   1.189  1.1493 -2.4367 -0.9502
  459SOL    HW211347   0.640   5.271   1.317 -0.8380  0.3550 -0.6185
  460SOL     OW11348   2.168   3.619   1.463  1.1886  0.0143  0.3701
  460SOL    HW111349   2.157   3.696   1.525 -0.4405  1.0730 -1.1848
  460SOL    HW211350   2.099   3.624   1.391  3.6257 -0.6551 -2.0848
  461SOL     OW11351   0.731   6.522   1.542 -0.2797  0.4476  0.2065
  461SOL    HW111352   0.725   6.580   1.460 -0.9041  0.0579 -0.0281
  461SOL    HW211353   0.826   6.491   1.554 -0.4713 -0.7968 -1.2941
  462SOL     OW11354   9.935   5.349   0.166  0.5150  0.3908  0.0417
  462SOL    HW111355   9.873   5.294   0.223 -0.7216  1.3885 -0.3165
  462SOL    HW211356   9.944   5.305   0.076 -0.0887  0.5088 -0.0820
  463SOL     OW11357   1.755   9.491   1.039 -0.5945  0.0348 -0.2689
  463SOL    HW111358   1.837   9.480   0.983 -0.7077 -0.0162 -0.4247
  463SOL    HW211359   1.770   9.564   1.106 -0.2999 -0.2095 -0.0673
  464SOL     OW11360   2.795   0.953   1.278 -0.3960 -0.3272  0.4174
  464SOL    HW111361   2.776   0.867   1.325 -3.1562  0.7375  1.4068
  464SOL    HW211362   2.729   1.022   1.308  1.0648  1.8403 -1.1762
  465SOL     OW11363   2.414   4.585   1.934 -0.3610 -0.2538 -0.2404
  465SOL    HW111364   2.463   4.603   2.019  0.0165  0.0265 -0.5162
  465SOL    HW211365   2.453   4.506   1.887 -0.8712 -0.7012  0.0765
  466SOL     OW11366   4.304   1.554   0.082 -0.2854 -0.1520  0.6531
  466SOL    HW111367   4.373   1.562   0.010 -0.1034  0.5491  0.8978
  466SOL    HW211368   4.346   1.574   0.170 -0.1228 -2.6443  1.1768
  467SOL     OW11369   2.479   0.926   2.591  0.3523  0.5784 -0.1191
  467SOL    HW111370   2.513   0.868   2.665  0.4661  0.0271 -0.6031
  467SOL    HW211371   2.423   0.999   2.630 -3.8373 -2.6250  0.2138
  468SOL     OW11372   3.109   2.332   0.179  0.2449 -0.6313 -0.5810
  468SOL    HW111373   3.058   2.312   0.095  0.9440 -0.5670 -1.0201
  468SOL    HW211374   3.118   2.431   0.190 -1.1909 -0.5924  0.3816
  469SOL     OW11375   2.916   5.545   2.544  0.2477  0.3192  0.3343
  469SOL    HW111376   2.877   5.469   2.492 -1.2407  0.7474  0.8015
  469SOL    HW211377   2.962   5.608   2.482 -1.1470  0.6019 -0.4173
  470SOL     OW11378   3.236   0.253   1.812 -0.5381  0.0138 -0.0490
  470SOL    HW111379   3.144   0.234   1.847 -0.5347  0.0569 -0.0159
  470SOL    HW211380   3.229   0.306   1.728 -0.5531 -0.3448 -0.2736
  471SOL     OW11381   0.116   6.148   0.397  0.5470 -0.7438 -0.5011
  471SOL    HW111382   0.207   6.174   0.427  0.6195  0.0556 -1.4094
  471SOL    HW211383   0.066   6.229   0.367 -0.3334 -1.2272 -0.3567
  472SOL     OW11384   1.198   7.005   0.837  0.2807  0.5672 -0.2549
  472SOL    HW111385   1.110   7.027   0.796 -0.4131  1.0449  1.4662
  472SOL    HW211386   1.205   7.047   0.927  1.7081 -0.6294  0.2210
  473SOL     OW11387   9.669   5.074   2.236 -0.2729 -0.0746 -0.0351
  473SOL    HW111388   9.698   4.984   2.203  0.5934 -0.3030  1.2896
  473SOL    HW211389   9.649   5.133   2.158  0.7563 -0.8958 -0.9417
  474SOL     OW11390   1.300   2.832   0.956  0.5435  0.5633 -0.2180
  474SOL    HW111391   1.263   2.914   0.915 -0.5578 -0.4528 -1.2834
  474SOL    HW211392   1.226   2.768   0.976  1.7348 -1.9450 -3.3503
  475SOL     OW11393   3.017   8.555   0.863  0.1008 -0.3182 -0.1845
  475SOL    HW111394   3.029   8.474   0.806 -1.9997  0.5945 -2.0234
  475SOL    HW211395   2.927   8.552   0.907  0.5914  0.3356  0.8900
  476SOL     OW11396   0.056   5.798   0.898 -0.1186 -0.0582 -0.0673
  476SOL    HW111397  -0.020   5.734   0.900  0.1684 -0.3939  0.1273
  476SOL    HW211398   0.110   5.790   0.982 -1.1905  1.7937  0.8292
  477SOL     OW11399   1.064   5.882   1.629 -0.3260  0.0962  0.2767
  477SOL    HW111400   1.157   5.875   1.665 -0.4546 -0.6528  0.4740
  477SOL    HW211401   0.999   5.879   1.705 -0.4520  2.3133  0.2805
  478SOL     OW11402   0.736   6.022   1.993  0.7232  0.2004  0.3301
  478SOL    HW111403   0.665   6.025   1.923  1.5901  3.6788 -0.4977
  478SOL    HW211404   0.695   6.001   2.082 -0.9213 -0.5449 -0.5793
  479SOL     OW11405   1.921   4.154   0.592 -0.7185  0.5916 -0.1704
  479SOL    HW111406   2.002   4.210   0.609  0.9506 -1.3786 -1.3598
  479SOL    HW211407   1.857   4.206   0.536 -0.2404  2.1270  0.6580
  480SOL     OW11408   2.324   7.872   0.930 -0.4241  0.7884  0.2432
  480SOL    HW111409   2.246   7.836   0.878 -0.0948 -0.7812  0.8150
  480SOL    HW211410   2.290   7.923   1.009 -0.8664 -0.5337  0.9097
  481SOL     OW11411   2.464   3.992   1.021  0.4059  0.5610  0.0950
  481SOL    HW111412   2.558   4.025   1.017  0.5095  0.2013 -0.5904
  481SOL    HW211413   2.464   3.894   1.041  0.1210  0.8608  1.5937
  482SOL     OW11414   3.616   2.025   2.548  0.4059 -0.0512 -0.2744
  482SOL    HW111415   3.520   2.051   2.539  0.8529  2.0601  0.9217
  482SOL    HW211416   3.666   2.096   2.598  2.4768 -1.3928 -0.3820
  483SOL     OW11417   1.489   4.443   1.791  0.4603 -0.2884  0.1227
  483SOL    HW111418   1.460   4.399   1.706  2.5928 -1.6560  0.0703
  483SOL    HW211419   1.537   4.376   1.848 -1.7544  0.3308  2.8482
  484SOL     OW11420   3.574   3.578   0.623  0.1021  0.2232 -0.6270
  484SOL    HW111421   3.643   3.538   0.684 -0.9563  0.1461  0.5267
  484SOL    HW211422   3.614   3.656   0.575  1.8020 -1.3942 -1.9365
  485SOL     OW11423   9.360   4.119   0.385 -0.1940  0.2172 -0.2810
  485SOL    HW111424   9.434   4.055   0.367  0.8972  0.8823  1.6322
  485SOL    HW211425   9.289   4.074   0.438 -0.1866  0.1496 -0.3286
  486SOL     OW11426   1.726   8.857   0.689  0.0939 -0.1934  0.3562
  486SOL    HW111427   1.731   8.788   0.616  1.5298  1.0633 -0.7620
  486SOL    HW211428   1.634   8.896   0.691 -0.7077 -2.0691  0.9392
  487SOL     OW11429   9.391   5.356   0.626  0.1424  0.0699 -0.0519
  487SOL    HW111430   9.415   5.259   0.629 -0.5629 -0.1515 -1.2454
  487SOL    HW211431   9.469   5.410   0.658  0.8721 -0.8377 -0.2582
  488SOL     OW11432   2.064   0.271   1.671  0.4003 -0.6162 -0.2666
  488SOL    HW111433   2.033   0.255   1.765 -1.0729 -1.8002 -0.9394
  488SOL    HW211434   2.113   0.358   1.666 -0.9989  0.2577  1.2509
  489SOL     OW11435   4.470   2.727   1.446 -0.2838 -0.7063 -0.5436
  489SOL    HW111436   4.426   2.644   1.412 -1.4494 -0.3093 -0.0494
  489SOL    HW211437   4.479   2.793   1.371 -1.4274 -0.4283 -0.4513
  490SOL     OW11438   9.199   5.704   0.092 -0.3569  0.8858 -0.4037
  490SOL    HW111439   9.209   5.738  -0.001 -1.2668  1.4290 -0.3110
  490SOL    HW211440   9.194   5.781   0.156 -0.3221  0.5350  0.0305
  491SOL     OW11441   9.826   4.170   2.514  0.3714  0.1117 -0.1354
  491SOL    HW111442   9.881   4.243   2.555  0.6822  0.5931 -1.4108
  491SOL    HW211443   9.745   4.155   2.570  1.0356  0.4337  0.9279
  492SOL     OW11444   3.497   4.153   1.234  0.2139 -0.2653  0.1704
  492SOL    HW111445   3.564   4.169   1.305  1.2257  0.2283 -0.8742
  492SOL    HW211446   3.437   4.233   1.226 -0.3339 -0.5967  0.9167
  493SOL     OW11447   1.129   2.098   0.638  0.1012  0.4277 -0.1655
  493SOL    HW111448   1.225   2.087   0.611  0.8531  2.6897  1.4228
  493SOL    HW211449   1.109   2.035   0.713  0.6314  0.6511  0.1690
  494SOL     OW11450   1.500   1.097   1.382  0.2296 -0.0274 -0.4402
  494SOL    HW111451   1.556   1.068   1.304  0.4869  0.1348 -0.3193
  494SOL    HW211452   1.490   1.022   1.446  0.0746 -0.1410 -0.5980
  495SOL     OW11453   2.105   7.211   2.308 -0.0978 -0.2757 -0.0590
  495SOL    HW111454   2.031   7.229   2.372  0.0146  0.0504 -0.0200
  495SOL    HW211455   2.156   7.130   2.338 -0.4372 -0.4985 -0.0861
  496SOL     OW11456   4.211   4.909   1.703 -0.6663 -0.0823  0.1068
  496SOL    HW111457   4.168   4.831   1.657  0.2592 -0.9154  0.6407
  496SOL    HW211458   4.289   4.940   1.648  0.0809 -0.7016  0.8196
  497SOL     OW11459   2.015   5.470   2.403 -0.0451 -0.1683  0.2252
  497SOL    HW111460   2.012   5.371   2.387 -0.7420  0.4076 -3.4858
  497SOL    HW211461   2.109   5.497   2.425  0.6257 -1.3306 -1.1210
  498SOL     OW11462   9.838   4.589   2.476  0.0631  0.0316  0.3664
  498SOL    HW111463   9.856   4.542   2.563 -1.1636 -1.1145  0.0093
  498SOL    HW211464   9.882   4.538   2.402  1.8001  1.4570  0.3915
  499SOL     OW11465   2.031   6.199   0.373  0.3029 -0.0531  0.3921
  499SOL    HW111466   2.108   6.239   0.323 -0.7116 -0.5060 -1.6011
  499SOL    HW211467   1.947   6.209   0.319 -0.2472 -3.5415  0.4512
  500SOL     OW11468   2.179   5.681   0.872 -0.3599 -0.1779  0.4492
  500SOL    HW111469   2.170   5.606   0.936 -3.1309 -1.2888 -1.1435
  500SOL    HW211470   2.175   5.646   0.778 -0.8209  1.8579 -0.3304
  501SOL     OW11471   2.997   3.396   2.019 -0.0897 -0.2466  0.2649
  501SOL    HW111472   2.974   3.492   2.038  0.4418  0.2657 -1.5962
  501SOL    HW211473   2.973   3.374   1.925  1.3550 -1.4681  0.1681
  502SOL     OW11474   1.573   5.328   0.138  0.0708 -0.0754  0.6651
  502SOL    HW111475   1.494   5.301   0.193 -0.2075  1.1363  0.8656
  502SOL    HW211476   1.561   5.422   0.106  0.8896 -0.2891 -0.2849
  503SOL     OW11477   1.476   6.696   1.287 -0.0285  0.2088 -0.2303
  503SOL    HW111478   1.574   6.683   1.299 -0.2891 -1.3042  0.3584
  503SOL    HW211479   1.438   6.619   1.236 -0.9970  0.5694 -0.0713
  504SOL     OW11480   1.861   1.253   0.210 -0.4541 -0.0531 -0.2413
  504SOL    HW111481   1.768   1.217   0.201 -0.5188  0.4498 -1.7583
  504SOL    HW211482   1.927   1.178   0.198 -0.5990  0.2274 -3.0458
  505SOL     OW11483   2.449   7.221   1.622  0.0963 -0.2908  0.2616
  505SOL    HW111484   2.522   7.196   1.559 -0.2314 -0.6003 -0.0030
  505SOL    HW211485   2.386   7.284   1.577  0.7075  0.7298  0.8011
  506SOL     OW11486   2.782   8.172   0.538 -0.1884 -0.1733 -0.0763
  506SOL    HW111487   2.684   8.176   0.518 -0.2070  0.1214  0.0726
  506SOL    HW211488   2.827   8.252   0.499 -0.1623  0.1987  0.7226
  507SOL     OW11489   3.417   3.202   2.502  0.2125 -0.9228  0.3314
  507SOL    HW111490   3.351   3.167   2.436 -1.2264  4.0396 -1.0915
  507SOL    HW211491   3.500   3.233   2.455  1.3250 -2.0985  1.4750
  508SOL     OW11492   1.786   4.663   0.246 -0.2735 -0.1795  0.5832
  508SOL    HW111493   1.872   4.702   0.214 -0.1932  0.2391  1.2795
  508SOL    HW211494   1.803   4.574   0.287 -0.1377 -0.0008  0.9166
  509SOL     OW11495   1.089   7.918   0.574  0.6463 -0.3408 -0.7232
  509SOL    HW111496   1.150   7.845   0.545 -0.5726 -1.4066 -0.6245
  509SOL    HW211497   1.014   7.880   0.627 -0.1170  0.9579 -0.8571
  510SOL     OW11498   4.028   4.081   2.450 -0.0303  0.5690 -0.3886
  510SOL    HW111499   3.972   4.159   2.426  1.5377  1.5504 -0.9395
  510SOL    HW211500   4.038   4.021   2.371 -0.7311  0.1098 -0.1365
  511SOL     OW11501   2.655   6.969   2.248 -0.5353 -0.0269  0.3522
  511SOL    HW111502   2.734   6.947   2.306 -0.2994 -0.1229 -0.0040
  511SOL    HW211503   2.578   6.912   2.273 -0.0529 -0.9662 -0.2810
  512SOL     OW11504   0.618   3.038   1.301  1.3912  0.2423  0.5612
  512SOL    HW111505   0.579   3.061   1.390 -0.5475 -0.9231  0.0454
  512SOL    HW211506   0.592   3.107   1.234 -0.4794 -0.9130  0.0540
  513SOL     OW11507   1.511   5.291   0.825 -0.4333  0.2839  0.3866
  513SOL    HW111508   1.467   5.380   0.835 -0.9262  0.2401 -1.2910
  513SOL    HW211509   1.461   5.224   0.880  0.0627  1.0706  1.8246
  514SOL     OW11510   1.732   2.422   1.988 -0.3108  0.2540 -0.7786
  514SOL    HW111511   1.714   2.324   1.985  0.2719  0.1503 -0.9774
  514SOL    HW211512   1.694   2.461   2.072 -0.0279 -0.2506 -0.4131
  515SOL     OW11513   1.455   7.724   2.340 -0.1420  0.2291 -0.8527
  515SOL    HW111514   1.501   7.786   2.276 -0.4268  2.0728  0.6698
  515SOL    HW211515   1.522   7.683   2.401 -0.2337  1.2055 -0.0731
  516SOL     OW11516   5.096   3.313   1.288 -0.4853 -0.1355 -0.2796
  516SOL    HW111517   5.185   3.348   1.316 -2.5548  4.5087  0.9189
  516SOL    HW211518   5.053   3.264   1.364 -0.3412  0.5294  0.2303
  517SOL     OW11519   4.824   2.866   0.153 -0.1674 -0.4082  0.2663
  517SOL    HW111520   4.752   2.803   0.123 -1.3027  1.3638 -0.8353
  517SOL    HW211521   4.871   2.827   0.233 -1.7827 -1.9860  0.4958
  518SOL     OW11522   0.714   7.207   0.513  0.2054 -0.1045  0.0601
  518SOL    HW111523   0.802   7.241   0.546 -0.6686  0.3378  1.9807
  518SOL    HW211524   0.699   7.239   0.420  1.0084  1.8058  0.5691
  519SOL     OW11525   3.425   2.896   1.770 -0.3215 -0.3912 -0.3164
  519SOL    HW111526   3.481   2.838   1.828  1.7288  2.6974  0.9530
  519SOL    HW211527   3.372   2.959   1.828 -0.3134  0.9053 -1.6958
  520SOL     OW11528   2.612   3.768   1.852  0.1579 -0.2038 -0.0275
  520SOL    HW111529   2.553   3.721   1.786 -1.0590 -0.2149  1.0466
  520SOL    HW211530   2.603   3.725   1.942  1.2527  0.2613  0.3194
  521SOL     OW11531   0.895   6.875   0.558  0.2577 -0.0849  0.1668
  521SOL    HW111532   0.936   6.806   0.617 -0.2418 -1.0857 -0.6266
  521SOL    HW211533   0.965   6.939   0.526  0.9655 -0.9670 -0.0866
  522SOL     OW11534   4.463   3.832   1.034 -0.0872  0.1314  0.2431
  522SOL    HW111535   4.510   3.789   0.957 -0.2921  1.6234 -0.7381
  522SOL    HW211536   4.364   3.824   1.022 -0.1167  0.1329  0.4809
  523SOL     OW11537   2.873   8.912   0.751 -0.2019  0.8912 -0.0665
  523SOL    HW111538   2.817   8.831   0.771  0.9768  0.0756 -0.0002
  523SOL    HW211539   2.969   8.887   0.756  0.1558  1.9851 -1.4506
  524SOL     OW11540   2.334   1.302   2.312 -0.3143  0.3406 -0.0697
  524SOL    HW111541   2.371   1.230   2.254 -2.3660 -0.4933 -0.3836
  524SOL    HW211542   2.360   1.392   2.276  0.2968 -0.2053 -0.9919
  525SOL     OW11543   2.518   1.751   0.645  0.2222 -0.4768  0.2767
  525SOL    HW111544   2.507   1.660   0.606 -0.0434  0.2686 -1.3928
  525SOL    HW211545   2.528   1.819   0.572 -0.0581  0.9017  1.4903
  526SOL     OW11546   2.067   6.749   0.764  0.3300  0.1764 -0.3127
  526SOL    HW111547   1.993   6.704   0.714  0.5969 -0.6347  0.0304
  526SOL    HW211548   2.141   6.771   0.701  0.2798 -0.0348 -0.4457
  527SOL     OW11549   3.560   1.291   0.690  0.1397 -0.5137  0.0857
  527SOL    HW111550   3.608   1.310   0.775  2.3165  0.8876 -1.4130
  527SOL    HW211551   3.485   1.356   0.679 -0.6778 -1.2391  1.3333
  528SOL     OW11552   3.483   4.867   2.058 -0.8240 -0.6689  0.2054
  528SOL    HW111553   3.456   4.961   2.077  0.5206 -0.4283  0.9981
  528SOL    HW211554   3.582   4.862   2.050 -0.9928 -1.7350 -1.5192
  529SOL     OW11555   2.114   3.720   0.358  0.1531  0.3008  0.0434
  529SOL    HW111556   2.203   3.755   0.389 -0.1889  0.7425  0.5227
  529SOL    HW211557   2.041   3.775   0.397 -0.4039 -1.1293  1.0672
  530SOL     OW11558   1.690   1.007   1.213 -0.1207  0.4709  0.3078
  530SOL    HW111559   1.701   1.090   1.159 -1.1257 -0.6130 -1.6274
  530SOL    HW211560   1.780   0.967   1.232  0.2119  0.4841 -1.2044
  531SOL     OW11561   1.344   7.400   2.101  0.1079  0.4832  0.0288
  531SOL    HW111562   1.330   7.425   2.197 -0.8380  0.9568 -0.2283
  531SOL    HW211563   1.323   7.479   2.043  0.5300  0.1517 -0.5753
  532SOL     OW11564   2.110   6.577   1.834 -0.7844 -0.9156  0.4108
  532SOL    HW111565   2.197   6.543   1.799 -0.9903 -2.0867  1.0249
  532SOL    HW211566   2.053   6.606   1.757  0.1871 -0.0164  0.0108
  533SOL     OW11567   1.843   2.764   2.018 -0.1268 -0.4522 -0.6580
  533SOL    HW111568   1.808   2.697   2.084 -0.9526 -1.4269 -2.0595
  533SOL    HW211569   1.861   2.850   2.065 -2.3399 -0.5965  0.5467
  534SOL     OW11570   1.270   7.488   0.814 -0.2898  0.6316 -0.2011
  534SOL    HW111571   1.191   7.506   0.872 -0.0753  0.3107  0.1954
  534SOL    HW211572   1.329   7.570   0.811  1.1086 -0.2430  2.2702
  535SOL     OW11573   3.134   3.854   2.083  0.6845 -0.3928 -0.1426
  535SOL    HW111574   3.079   3.915   2.026 -0.3188 -0.7947  0.3774
  535SOL    HW211575   3.204   3.906   2.131 -0.4224  0.4074  0.6086
  536SOL     OW11576   0.855   5.624   0.206 -0.7378 -0.1517  0.1135
  536SOL    HW111577   0.891   5.715   0.185 -0.1709 -0.3687  0.1543
  536SOL    HW211578   0.879   5.561   0.132  0.4724 -0.7054  0.9779
  537SOL     OW11579   4.354   3.987   0.494 -0.0715 -0.1166  0.4397
  537SOL    HW111580   4.381   4.038   0.412 -0.2593  0.1493  0.5402
  537SOL    HW211581   4.427   3.924   0.520 -0.1290 -0.3969 -0.0888
  538SOL     OW11582   2.230   6.310   0.244 -0.1343  0.2943 -0.5517
  538SOL    HW111583   2.283   6.323   0.328  0.1273 -2.4926 -0.2563
  538SOL    HW211584   2.269   6.366   0.171  0.6881  1.4198  0.7330
  539SOL     OW11585   0.487   4.571   2.370 -0.5721  0.3954  0.2702
  539SOL    HW111586   0.488   4.477   2.402  1.8639  0.2980 -0.0269
  539SOL    HW211587   0.491   4.572   2.270 -1.1731  0.8185  0.2462
  540SOL     OW11588   3.971   2.801   1.921 -0.0852  0.1972 -0.7388
  540SOL    HW111589   4.032   2.819   1.998 -1.4496  0.1608  0.3657
  540SOL    HW211590   3.958   2.885   1.868  0.2940  0.3968 -0.5164
  541SOL     OW11591   4.728   3.055   0.909 -0.6637  0.7007 -0.3499
  541SOL    HW111592   4.814   3.105   0.920 -0.6112  0.3137  1.2094
  541SOL    HW211593   4.731   2.973   0.966 -1.7518  0.2589 -0.9280
  542SOL     OW11594   1.997   5.493   1.696  0.0553 -0.0087  0.4688
  542SOL    HW111595   2.038   5.486   1.787 -0.1148 -1.1166  0.4710
  542SOL    HW211596   2.050   5.438   1.631  0.3797  1.0587 -0.1823
  543SOL     OW11597   4.227   4.762   1.970 -0.1202 -0.4660  0.1187
  543SOL    HW111598   4.281   4.686   1.933  0.4984  0.0192  0.0278
  543SOL    HW211599   4.216   4.833   1.901 -0.4310 -0.3319  0.3050
  544SOL     OW11600   4.289   3.003   1.868 -0.3572 -0.5220 -0.0731
  544SOL    HW111601   4.250   3.085   1.825 -1.7509 -0.7749  0.6730
  544SOL    HW211602   4.302   2.932   1.799  1.6024  0.5786 -0.8767
  545SOL     OW11603   1.639   5.054   0.123  0.0386 -0.3577  0.0252
  545SOL    HW111604   1.699   5.002   0.062 -1.7002 -0.1961 -1.8860
  545SOL    HW211605   1.666   5.150   0.122 -1.4103  0.0534 -2.3425
  546SOL     OW11606   0.077   5.998   1.327  0.6708 -0.2104 -0.4699
  546SOL    HW111607   0.169   6.020   1.358  1.6107 -2.5767 -1.4364
  546SOL    HW211608   0.062   5.899   1.335 -0.9479 -0.1566 -2.4847
  547SOL     OW11609   0.390   4.801   2.284 -0.2732  0.6594 -0.2308
  547SOL    HW111610   0.445   4.732   2.333 -0.8076 -0.1265 -0.7256
  547SOL    HW211611   0.303   4.760   2.256 -0.1532  1.2288 -1.4630
  548SOL     OW11612   1.576   3.562   1.524  0.3584 -0.6159  0.7664
  548SOL    HW111613   1.618   3.651   1.539  0.3002 -0.1393 -1.7540
  548SOL    HW211614   1.641   3.490   1.547  1.3127  0.1039  0.3458
  549SOL     OW11615   1.614   8.167   1.670  0.5282  0.2441 -0.4143
  549SOL    HW111616   1.531   8.117   1.643 -0.2406  1.0458  0.4463
  549SOL    HW211617   1.683   8.156   1.599 -1.0431  1.3223 -2.1702
  550SOL     OW11618   2.466   1.553   2.245  0.0452 -0.1781 -0.4961
  550SOL    HW111619   2.517   1.515   2.323 -1.0198 -0.8146 -0.1021
  550SOL    HW211620   2.528   1.609   2.190  0.4311  1.7253  1.7533
  551SOL     OW11621   3.841   1.875   0.593 -0.5073 -0.0118 -0.3429
  551SOL    HW111622   3.775   1.802   0.613  0.3864 -0.7693 -0.1540
  551SOL    HW211623   3.917   1.870   0.657 -0.4892  1.1655 -0.2523
  552SOL     OW11624   3.799   4.415   0.711 -0.1210  0.1270 -0.4331
  552SOL    HW111625   3.880   4.431   0.768  0.3027  3.1250 -1.7711
  552SOL    HW211626   3.827   4.386   0.620 -0.6042 -0.3590 -0.4261
  553SOL     OW11627   3.202   2.786   1.621  0.0491  0.0514  0.0859
  553SOL    HW111628   3.277   2.834   1.664  0.1253  0.1587 -0.1653
  553SOL    HW211629   3.116   2.812   1.664  0.0934  0.3867 -0.0270
  554SOL     OW11630   2.043   1.301   2.359  0.2843 -0.5087  0.5439
  554SOL    HW111631   2.014   1.222   2.306 -1.3747 -1.0715  2.2200
  554SOL    HW211632   2.143   1.309   2.356  0.2687 -0.8673 -2.1039
  555SOL     OW11633   9.974   6.272   2.504  0.3739 -0.4520 -0.1908
  555SOL    HW111634  10.006   6.211   2.577 -0.4552  0.7222  1.1728
  555SOL    HW211635  10.048   6.287   2.438  0.2394 -3.8732 -1.2075
  556SOL     OW11636   1.374   4.625   2.041 -0.0612 -0.1054  0.1419
  556SOL    HW111637   1.392   4.567   1.962  2.7156  0.4707  0.2965
  556SOL    HW211638   1.459   4.637   2.093 -0.4952  4.2292  0.0057
  557SOL     OW11639   1.985   1.574   2.336  0.4981  0.2100  0.8241
  557SOL    HW111640   1.985   1.479   2.366  0.5407  0.3121  1.1455
  557SOL    HW211641   1.914   1.625   2.384  0.7041  0.4203  0.9066
  558SOL     OW11642   0.012   5.595   1.988  0.4230  0.1483  0.4415
  558SOL    HW111643   0.049   5.558   2.073 -0.3502 -0.6571  0.4288
  558SOL    HW211644   0.000   5.694   1.998 -0.2914 -0.0287  1.5097
  559SOL     OW11645   3.925   2.404   1.323 -0.5746 -0.3875 -0.2653
  559SOL    HW111646   3.920   2.389   1.422  2.3608  1.0585  0.1439
  559SOL    HW211647   3.877   2.488   1.299  0.0498  0.0966  0.1650
  560SOL     OW11648   2.896   9.182   2.210  0.1526 -0.1620  0.5863
  560SOL    HW111649   2.908   9.142   2.301  0.3370 -1.0511  0.1828
  560SOL    HW211650   2.986   9.202   2.170  0.1265 -1.1517  0.0116
  561SOL     OW11651   0.692   6.810   2.618  0.1347  0.5349  0.4538
  561SOL    HW111652   0.658   6.887   2.671  1.8346  0.7964  1.2245
  561SOL    HW211653   0.751   6.844   2.545 -0.0168  0.0373  0.1042
  562SOL     OW11654   2.294   3.618   1.959 -0.5187  0.0345  0.4718
  562SOL    HW111655   2.332   3.655   2.044  0.4311  0.1898 -0.0147
  562SOL    HW211656   2.240   3.689   1.913  1.0062  0.7254 -0.2826
  563SOL     OW11657   2.864   3.591   0.162 -0.0779  0.0050  0.0349
  563SOL    HW111658   2.882   3.687   0.185  0.7348  0.4273 -2.2484
  563SOL    HW211659   2.767   3.572   0.170 -0.7239  1.9020 -2.5320
  564SOL     OW11660   2.307   7.110   0.953  0.0100  0.5378  0.8660
  564SOL    HW111661   2.274   7.016   0.957  0.8454  0.2602  1.3227
  564SOL    HW211662   2.300   7.152   1.044  1.0858  0.4121  1.0115
  565SOL     OW11663   3.442   5.503   2.460  0.1935 -0.2802  0.4709
  565SOL    HW111664   3.499   5.551   2.526  1.0862  0.6265 -0.9091
  565SOL    HW211665   3.348   5.498   2.493  0.0614  2.5410  0.5918
  566SOL     OW11666   1.580   8.287   0.495 -0.9944  0.2463  0.3577
  566SOL    HW111667   1.532   8.334   0.569 -1.4540 -0.8974  0.8069
  566SOL    HW211668   1.587   8.189   0.517  1.3477  0.3494  0.2031
  567SOL     OW11669   1.447   7.251   1.090 -0.2193 -0.0367  0.2275
  567SOL    HW111670   1.364   7.213   1.050  0.1229  0.3488 -0.8528
  567SOL    HW211671   1.429   7.278   1.185 -0.8942 -1.4262  0.5085
  568SOL     OW11672   2.551   8.309   1.975 -0.0974  0.0616 -0.5044
  568SOL    HW111673   2.633   8.259   1.947  0.0799  0.3052 -0.4211
  568SOL    HW211674   2.503   8.343   1.895  1.7037  2.8482 -0.4451
  569SOL     OW11675   2.006   6.166   1.979 -0.0124  0.1211 -0.1154
  569SOL    HW111676   2.027   6.264   1.990 -0.8655  0.4689 -1.4192
  569SOL    HW211677   2.092   6.115   1.971  0.4159  1.0760 -1.8764
  570SOL     OW11678   4.179   2.216   0.994  0.5482 -0.4483 -0.8732
  570SOL    HW111679   4.250   2.165   1.042  0.7510  1.0436  0.4198
  570SOL    HW211680   4.091   2.170   1.008  0.8407 -0.8593 -0.3405
  571SOL     OW11681   9.961   6.149   1.148  0.4897 -0.1517 -0.2452
  571SOL    HW111682   9.971   6.247   1.166 -2.1669  0.2006 -0.4277
  571SOL    HW211683   9.999   6.098   1.225 -0.0736  1.0965  0.9017
  572SOL     OW11684   3.065   4.285   1.749  0.1199  0.3044  0.1048
  572SOL    HW111685   3.158   4.255   1.729 -0.4338 -1.4843  0.1205
  572SOL    HW211686   3.020   4.316   1.665  0.7781  1.3833  0.1336
  573SOL     OW11687   2.482   4.832   0.647 -0.0199  0.3170  0.1422
  573SOL    HW111688   2.543   4.901   0.687 -0.7213  1.3291 -0.4956
  573SOL    HW211689   2.387   4.860   0.661 -0.3418 -1.1491  0.9527
  574SOL     OW11690   0.712   3.533   1.024 -0.5336 -0.2190  0.3643
  574SOL    HW111691   0.699   3.583   0.938  0.7110  1.8663  1.3496
  574SOL    HW211692   0.627   3.532   1.075 -0.0676  2.7939  1.2861
  575SOL     OW11693   4.690   3.691   0.488  0.4297  0.2657  0.4410
  575SOL    HW111694   4.764   3.675   0.552  0.3165 -0.2896  0.4380
  575SOL    HW211695   4.660   3.603   0.449  1.0461  0.6722 -0.9811
  576SOL     OW11696   0.737   6.696   2.272  0.0150  0.0398 -0.9458
  576SOL    HW111697   0.825   6.683   2.226  1.6015  0.3635  1.8751
  576SOL    HW211698   0.717   6.794   2.277  1.0985  0.1786  1.2217
  577SOL     OW11699   3.331   2.756   0.230 -0.1814 -0.3692  0.4461
  577SOL    HW111700   3.373   2.846   0.240 -0.0488 -0.5480  1.5318
  577SOL    HW211701   3.375   2.706   0.156 -0.1418  0.3893 -0.0473
  578SOL     OW11702   2.732   7.925   1.722 -0.3317  0.1614 -0.1281
  578SOL    HW111703   2.641   7.891   1.745 -0.2098 -0.1878 -0.1596
  578SOL    HW211704   2.783   7.854   1.673  0.4097 -0.1043  1.0171
  579SOL     OW11705   2.832   7.902   0.534  0.0828  0.4189 -0.3959
  579SOL    HW111706   2.756   7.843   0.507 -0.1843 -0.5918  2.2957
  579SOL    HW211707   2.803   7.997   0.533 -0.2232  0.3248 -2.4758
  580SOL     OW11708   2.470   5.089   0.103  0.3937  0.0965 -0.2620
  580SOL    HW111709   2.508   5.037   0.179  2.1295  0.2255 -1.0185
  580SOL    HW211710   2.370   5.077   0.101  0.6477 -2.3804  0.1808
  581SOL     OW11711   0.876   7.148   1.886 -0.0350  0.7430 -0.2286
  581SOL    HW111712   0.875   7.051   1.910 -0.8791  0.5465 -1.0304
  581SOL    HW211713   0.846   7.160   1.791 -2.1100  1.9591  0.5475
  582SOL     OW11714   9.414   6.146   0.144  0.5483 -0.3635 -0.2507
  582SOL    HW111715   9.458   6.107   0.225 -0.1118 -0.1421  0.2187
  582SOL    HW211716   9.319   6.169   0.166  0.3696 -0.3057 -1.0920
  583SOL     OW11717   1.865   5.701   0.187  0.0084  0.1425  0.0390
  583SOL    HW111718   1.961   5.691   0.161 -0.2278 -1.4432 -0.2551
  583SOL    HW211719   1.807   5.655   0.120 -0.8525 -0.5016  1.2029
  584SOL     OW11720   3.427   4.417   1.516 -0.4183  0.0158  0.1447
  584SOL    HW111721   3.516   4.378   1.536 -1.0106 -1.6509 -0.4093
  584SOL    HW211722   3.372   4.420   1.599 -0.3141 -0.2036  0.2216
  585SOL     OW11723   2.758   0.162   1.411  0.2466 -0.5125 -0.2659
  585SOL    HW111724   2.855   0.141   1.404  0.8394  1.4273  1.4499
  585SOL    HW211725   2.717   0.163   1.320  2.0399 -0.4056 -1.0892
  586SOL     OW11726   3.740   3.793   2.047  0.3068 -0.1736 -0.2136
  586SOL    HW111727   3.697   3.877   2.080  1.8021  0.3014  0.5914
  586SOL    HW211728   3.749   3.797   1.948  0.1302  0.5098 -0.2082
  587SOL     OW11729   3.975   8.704   0.721 -0.7960  0.0695 -0.5611
  587SOL    HW111730   3.933   8.705   0.631  0.6643 -0.9039 -1.2683
  587SOL    HW211731   3.910   8.740   0.789 -0.8896  3.6126 -2.4186
  588SOL     OW11732   2.851   4.020   2.275 -0.2349  0.0186 -0.7469
  588SOL    HW111733   2.759   4.039   2.309 -1.0050 -0.8678 -2.2707
  588SOL    HW211734   2.905   4.104   2.275 -0.7561  0.3680  0.9748
  589SOL     OW11735   9.192   5.896   0.316  0.2276 -0.0593  0.0750
  589SOL    HW111736   9.291   5.883   0.315 -0.0018 -2.0134  0.3111
  589SOL    HW211737   9.151   5.840   0.388 -0.9009  2.0628  1.1340
  590SOL     OW11738   1.137   4.495   1.623  0.2943  0.1282  1.0824
  590SOL    HW111739   1.079   4.539   1.554  0.5894  1.4089  1.6265
  590SOL    HW211740   1.209   4.443   1.579 -0.6722 -0.6490  0.4053
  591SOL     OW11741   2.316   9.243   0.042 -0.2195 -0.0016 -0.1413
  591SOL    HW111742   2.411   9.213   0.033  0.7666  2.6136  1.1929
  591SOL    HW211743   2.311   9.342   0.038 -3.0282 -0.1306 -1.0349
  592SOL     OW11744   2.670   6.359   0.676  0.2074  0.8288 -0.0816
  592SOL    HW111745   2.734   6.310   0.735 -0.8501  0.8745  1.1193
  592SOL    HW211746   2.636   6.298   0.605  0.5960  0.4545  0.0566
  593SOL     OW11747   2.006   2.192   1.482  0.2271 -0.3295 -0.0199
  593SOL    HW111748   1.973   2.251   1.556  3.2838 -1.2976  2.2115
  593SOL    HW211749   2.085   2.235   1.438 -0.8817 -0.2939 -2.0308
  594SOL     OW11750   2.452   4.971   2.162 -0.0640  0.5093 -0.0008
  594SOL    HW111751   2.499   4.891   2.126 -0.3568 -0.9641  2.7946
  594SOL    HW211752   2.367   4.985   2.111  0.7850  0.0640 -1.5795
  595SOL     OW11753   2.942   9.324   0.159  0.6272  0.0034  0.2929
  595SOL    HW111754   2.874   9.267   0.206  0.1302  0.3758  0.0365
  595SOL    HW211755   2.989   9.270   0.090 -0.3103  0.0681 -0.4126
  596SOL     OW11756   9.280   5.470   2.390  0.6938 -0.2477 -0.2698
  596SOL    HW111757   9.187   5.505   2.399  0.8362  0.1082 -0.2050
  596SOL    HW211758   9.277   5.372   2.370  0.2900 -0.0595 -1.1362
  597SOL     OW11759   2.587   6.438   1.209 -0.3930 -0.2258 -0.1593
  597SOL    HW111760   2.498   6.417   1.169 -0.1237 -1.1306 -0.3096
  597SOL    HW211761   2.577   6.508   1.279 -0.9713  0.9147 -1.3500
  598SOL     OW11762   9.958   5.268   1.419  0.3496 -0.5064 -0.1026
  598SOL    HW111763   9.882   5.322   1.455 -0.2543 -1.0557 -0.5286
  598SOL    HW211764   9.946   5.256   1.320  1.0612 -0.4905 -0.1954
  599SOL     OW11765   3.809   8.291   2.413 -0.5197  0.1582  0.2764
  599SOL    HW111766   3.750   8.327   2.341 -0.9876 -0.7179  0.2199
  599SOL    HW211767   3.893   8.346   2.417 -1.4202  1.5464  0.5050
  600SOL     OW11768   0.787   7.771   1.742  0.4331  0.3546 -0.2882
  600SOL    HW111769   0.727   7.774   1.822  1.7679  0.1038  0.7364
  600SOL    HW211770   0.771   7.852   1.685  0.9607  1.6125  1.3203
  601SOL     OW11771   2.842   0.572   1.001 -0.2646 -0.2717 -0.2663
  601SOL    HW111772   2.885   0.586   0.912  1.0490  0.7175  0.5019
  601SOL    HW211773   2.765   0.634   1.011 -0.2505 -0.1990 -0.6066
  602SOL     OW11774   3.161   4.949   0.595  0.2422  0.2517 -0.0626
  602SOL    HW111775   3.084   4.980   0.538 -0.6282 -3.2918 -1.0152
  602SOL    HW211776   3.233   4.912   0.536  0.5282 -0.9514  1.0137
  603SOL     OW11777   2.886   1.594   1.906 -0.0838 -0.4661  0.7036
  603SOL    HW111778   2.942   1.674   1.925 -0.9044  0.1620  0.4994
  603SOL    HW211779   2.930   1.539   1.834  0.4103 -0.1349  0.7521
  604SOL     OW11780   1.312   5.871   0.304 -0.1958 -0.0726 -0.3682
  604SOL    HW111781   1.378   5.939   0.334 -1.4515  0.4491  1.2775
  604SOL    HW211782   1.326   5.852   0.206  1.4745  1.0196 -0.3629
  605SOL     OW11783   2.290   2.111   0.963  0.1471  0.4494  0.1545
  605SOL    HW111784   2.195   2.142   0.953  0.5620  1.0907 -2.0299
  605SOL    HW211785   2.323   2.135   1.054 -1.8815 -0.0455  1.0485
  606SOL     OW11786   1.414   2.070   0.981 -0.0143  0.3644 -0.2961
  606SOL    HW111787   1.417   1.975   0.948 -0.7617  0.5020 -0.7771
  606SOL    HW211788   1.496   2.118   0.951  1.8673 -0.9574  2.5413
  607SOL     OW11789   1.486   7.444   1.313 -0.4005  0.1722 -0.1621
  607SOL    HW111790   1.486   7.460   1.412  0.7639 -2.4653  0.2923
  607SOL    HW211791   1.505   7.531   1.266  1.6859  0.9694  2.0319
  608SOL     OW11792   0.920   4.885   1.451  0.5404 -0.1953 -0.0015
  608SOL    HW111793   0.980   4.856   1.525 -0.4701 -0.0236  0.8846
  608SOL    HW211794   0.962   4.963   1.404  1.7208 -1.0212 -0.3504
  609SOL     OW11795   1.780   0.076   2.039 -0.0218 -0.4110 -0.0100
  609SOL    HW111796   1.795  -0.013   1.996 -0.9061 -0.3799 -0.3884
  609SOL    HW211797   1.687   0.080   2.077 -0.5359  0.8855 -1.3213
  610SOL     OW11798   2.151   1.611   2.125 -0.0235 -0.1338  0.4527
  610SOL    HW111799   2.248   1.629   2.138  0.3209 -2.4937  1.4579
  610SOL    HW211800   2.104   1.617   2.213 -0.9077  1.6059 -0.1262
  611SOL     OW11801   3.466   9.772   2.246  0.0712  0.3533  1.1049
  611SOL    HW111802   3.488   9.711   2.170  3.4884  1.3586  1.1872
  611SOL    HW211803   3.377   9.813   2.231 -0.5883 -1.6891 -0.8837
  612SOL     OW11804   2.655   8.591   2.082  0.5860 -0.0630 -0.0677
  612SOL    HW111805   2.661   8.635   2.172 -0.3840  1.4151 -0.6961
  612SOL    HW211806   2.561   8.563   2.065  0.6320  0.2778 -0.9032
  613SOL     OW11807   1.176   8.757   1.394  0.1005  0.0605 -0.6284
  613SOL    HW111808   1.197   8.705   1.477 -1.3368  1.3785  0.5673
  613SOL    HW211809   1.085   8.732   1.360  0.5246 -0.1960 -1.6133
  614SOL     OW11810   0.316   6.498   2.490 -0.5185  0.1368 -0.1109
  614SOL    HW111811   0.239   6.556   2.463 -0.6523 -0.0408 -0.1113
  614SOL    HW211812   0.389   6.505   2.422 -0.7336 -0.0751 -0.3654
  615SOL     OW11813   2.402   9.097   2.160 -0.8947  0.0402 -0.8228
  615SOL    HW111814   2.460   9.087   2.079 -2.2107  1.3308 -1.9640
  615SOL    HW211815   2.447   9.157   2.226 -0.1043 -0.4740 -0.8908
  616SOL     OW11816   4.004   3.231   0.092 -0.0910 -0.5906 -0.3808
  616SOL    HW111817   4.056   3.148   0.111 -0.7954 -0.9593 -0.0412
  616SOL    HW211818   3.910   3.220   0.125 -0.0088  0.6008  0.2825
  617SOL     OW11819   9.063   4.849   2.604  0.1487  0.1216 -0.0573
  617SOL    HW111820   9.157   4.864   2.634 -0.1881  0.2907  0.9607
  617SOL    HW211821   9.055   4.868   2.506  1.1998 -0.0400 -0.1737
  618SOL     OW11822   1.811   4.999   1.887 -0.0547 -0.2495  0.0034
  618SOL    HW111823   1.859   4.969   1.804 -1.6794  2.3047 -1.9773
  618SOL    HW211824   1.832   5.096   1.903 -2.3741  0.1809  0.6204
  619SOL     OW11825   2.980   4.591   1.370 -0.0398 -0.3308 -0.0133
  619SOL    HW111826   2.961   4.683   1.336  0.2242 -0.6432 -1.0060
  619SOL    HW211827   3.016   4.535   1.296 -0.9321 -1.4622  0.3983
  620SOL     OW11828   3.302   5.349   0.592 -0.1380 -0.3751  0.0944
  620SOL    HW111829   3.379   5.397   0.550 -0.2698  1.6577  2.0396
  620SOL    HW211830   3.328   5.254   0.611  0.8131 -0.5648 -2.0572
  621SOL     OW11831   3.742   4.836   2.034  0.5984 -0.2282  0.2060
  621SOL    HW111832   3.772   4.770   2.102  0.0461 -1.5408 -0.8036
  621SOL    HW211833   3.815   4.902   2.017  1.0629 -0.4182  1.4063
  622SOL     OW11834   3.979   5.007   0.999 -0.2210 -0.3203  0.4370
  622SOL    HW111835   3.898   5.062   0.982 -0.9484 -1.7666 -0.8823
  622SOL    HW211836   3.975   4.967   1.090 -1.1050 -0.5657  0.2898
  623SOL     OW11837   0.454   6.540   0.288  0.2043  0.1663  0.4657
  623SOL    HW111838   0.551   6.522   0.303  0.3382 -0.5212 -1.0973
  623SOL    HW211839   0.406   6.540   0.375  1.5503  0.1212  1.2127
  624SOL     OW11840   2.479   5.432   2.080  0.1094 -0.9020  0.5686
  624SOL    HW111841   2.434   5.514   2.116  0.8891  0.2490 -1.0561
  624SOL    HW211842   2.472   5.359   2.148  1.5246  1.2240  3.0891
  625SOL     OW11843   3.153   8.595   1.247 -0.4582  0.2074  0.1748
  625SOL    HW111844   3.165   8.664   1.176  0.4690 -1.5782 -1.4473
  625SOL    HW211845   3.227   8.603   1.314  0.4286 -0.1030 -0.7628
  626SOL     OW11846   3.332   3.695   1.866 -0.2706 -0.1170  0.4691
  626SOL    HW111847   3.409   3.637   1.892  0.3092  0.2493 -0.4339
  626SOL    HW211848   3.293   3.738   1.948  0.8131  0.1123  0.8680
  627SOL     OW11849   3.379   0.491   1.787  0.1693 -0.1070 -0.2390
  627SOL    HW111850   3.368   0.392   1.785 -0.7063 -0.0442  0.6451
  627SOL    HW211851   3.435   0.517   1.866  1.1621  0.0368 -0.9927
  628SOL     OW11852   4.338   2.284   0.640 -0.6434 -0.5084 -0.4582
  628SOL    HW111853   4.250   2.330   0.650 -0.6922 -0.6642 -0.1768
  628SOL    HW211854   4.325   2.187   0.623 -0.5313 -0.4867 -0.6743
  629SOL     OW11855   3.563   9.245   0.196 -0.1239  0.2717  0.5546
  629SOL    HW111856   3.657   9.275   0.180 -0.2561  1.6523  2.2831
  629SOL    HW211857   3.507   9.269   0.117  0.6581  0.8040  0.1515
  630SOL     OW11858   4.489   4.481   1.135 -0.3705 -0.2629 -0.4038
  630SOL    HW111859   4.446   4.482   1.226  0.6104  0.1383  0.0622
  630SOL    HW211860   4.481   4.572   1.094  0.1301 -0.1596 -0.2709
  631SOL     OW11861   0.346   5.746   1.518 -0.1827 -0.0258  0.9648
  631SOL    HW111862   0.403   5.714   1.442 -0.0320  1.3938  0.4534
  631SOL    HW211863   0.387   5.718   1.605 -0.5234 -1.9298  0.5202
  632SOL     OW11864   0.244   4.392   1.150 -0.2238  0.4637 -0.5596
  632SOL    HW111865   0.251   4.300   1.112  0.7460  0.3126 -0.0365
  632SOL    HW211866   0.313   4.452   1.108 -0.2482  0.7154 -0.2458
  633SOL     OW11867   0.994   4.112   2.561  0.3715 -0.4741 -0.1560
  633SOL    HW111868   1.078   4.086   2.610  1.4732 -0.5253 -2.0444
  633SOL    HW211869   0.965   4.038   2.501  0.0287  0.2557 -0.9074
  634SOL     OW11870   2.565   2.030   1.738 -0.6944  0.1812 -0.1286
  634SOL    HW111871   2.621   1.999   1.815 -0.8344  1.0381  0.3283
  634SOL    HW211872   2.480   1.977   1.736 -1.2607  1.0094  1.0967
  635SOL     OW11873   0.053   4.117   1.844  0.2829  0.1610  0.2836
  635SOL    HW111874   0.043   4.205   1.890  0.1271 -0.4338  1.4181
  635SOL    HW211875   0.059   4.131   1.745  0.1901  1.4311  0.4502
  636SOL     OW11876   2.482   2.385   0.398  0.0489  0.0393 -0.1122
  636SOL    HW111877   2.540   2.318   0.444 -0.1608 -0.4252 -0.5178
  636SOL    HW211878   2.391   2.384   0.440  0.3107  0.7172  0.4780
  637SOL     OW11879   3.288   4.871   2.477 -0.2700 -0.1875 -0.2442
  637SOL    HW111880   3.290   4.960   2.522  2.0054  0.0013 -0.6430
  637SOL    HW211881   3.266   4.800   2.543  1.4432  0.2688  0.8565
  638SOL     OW11882   2.733   7.533   1.525  0.0132 -0.0174 -0.1738
  638SOL    HW111883   2.828   7.510   1.503 -0.3202 -1.3233 -0.2879
  638SOL    HW211884   2.704   7.610   1.468  0.8933  0.1608 -0.3907
  639SOL     OW11885   1.331   2.239   1.798  0.0874  0.1750 -0.0319
  639SOL    HW111886   1.296   2.150   1.827 -2.5519  0.8729 -0.9867
  639SOL    HW211887   1.356   2.235   1.701  1.0506  0.1695  0.2110
  640SOL     OW11888   2.560   7.262   0.889 -0.6958 -0.1612  0.1889
  640SOL    HW111889   2.509   7.212   0.819  0.6714 -0.3156 -0.7054
  640SOL    HW211890   2.519   7.353   0.900 -0.6956  0.0099 -1.0823
  641SOL     OW11891   2.841   1.494   0.135 -0.3094 -0.1773 -0.9527
  641SOL    HW111892   2.911   1.431   0.101 -1.7757 -0.6942 -3.1258
  641SOL    HW211893   2.850   1.583   0.089  0.0107  0.3251  0.0617
  642SOL     OW11894   4.122   4.624   1.607 -0.2125  0.6380 -0.8237
  642SOL    HW111895   4.090   4.624   1.702  0.9371 -0.8415 -0.4225
  642SOL    HW211896   4.095   4.539   1.563 -0.0686  0.9930 -1.6003
  643SOL     OW11897   2.481   8.272   0.200  0.2870  0.8603 -0.6229
  643SOL    HW111898   2.509   8.321   0.117  1.7202  0.6095 -0.2982
  643SOL    HW211899   2.445   8.182   0.175  1.7839  0.3268 -0.9081
  644SOL     OW11900   2.244   6.945   0.291 -0.1225  0.2502  0.0650
  644SOL    HW111901   2.332   6.944   0.242 -0.2126 -0.7716 -0.0732
  644SOL    HW211902   2.240   6.867   0.353 -1.3758 -0.3100 -0.7054
  645SOL     OW11903   1.882   2.014   1.144  0.0405 -0.1314 -0.8416
  645SOL    HW111904   1.910   2.070   1.066 -1.1277  0.2112 -1.0270
  645SOL    HW211905   1.858   2.074   1.220 -1.0970 -0.3809 -1.0006
  646SOL     OW11906   3.614   4.383   1.891  0.2896 -0.1362 -0.0601
  646SOL    HW111907   3.585   4.427   1.976  0.8722  0.5029 -0.1909
  646SOL    HW211908   3.686   4.316   1.911  0.6302  0.2246 -0.0944
  647SOL     OW11909   2.429   4.019   0.560  0.1025 -0.2890  0.2974
  647SOL    HW111910   2.506   3.977   0.512 -0.0348 -0.7498  0.4694
  647SOL    HW211911   2.457   4.049   0.650  0.8352  2.2828 -0.7530
  648SOL     OW11912   1.420   5.666   1.120 -0.4060 -0.1948 -0.0229
  648SOL    HW111913   1.354   5.611   1.172 -1.5332  1.1545  0.0101
  648SOL    HW211914   1.376   5.751   1.091  0.4137 -0.6014 -2.5888
  649SOL     OW11915   2.667   4.245   1.140  0.3168 -0.8405  0.2994
  649SOL    HW111916   2.626   4.284   1.223 -2.9719 -1.1675 -1.0918
  649SOL    HW211917   2.735   4.309   1.104 -0.2447  0.5867  1.6862
  650SOL     OW11918   3.793   0.498   0.986 -0.2228 -0.5619  0.2162
  650SOL    HW111919   3.821   0.594   0.994 -1.9031 -0.1673  1.8661
  650SOL    HW211920   3.863   0.439   1.028 -0.1120  0.1142  0.9996
  651SOL     OW11921   9.820   4.098   2.059 -0.4651  0.8877  0.2123
  651SOL    HW111922   9.848   4.016   2.010  1.5201  0.2785  2.3145
  651SOL    HW211923   9.875   4.176   2.028 -0.7625  0.9590 -0.1371
  652SOL     OW11924   3.669   2.611   1.657 -0.0478 -0.6478  0.2872
  652SOL    HW111925   3.667   2.706   1.626 -0.6709 -0.5635  0.5724
  652SOL    HW211926   3.607   2.557   1.600 -0.2820 -0.7278  0.6156
  653SOL     OW11927   3.163   2.592   2.437 -0.0450  0.4425  1.0808
  653SOL    HW111928   3.198   2.679   2.473 -0.7740  0.7586  1.0406
  653SOL    HW211929   3.237   2.543   2.392  0.2943  1.2211  0.7691
  654SOL     OW11930   2.333   6.523   1.617 -0.0284 -0.0158 -0.6785
  654SOL    HW111931   2.396   6.549   1.543  0.5247 -0.5033 -0.3888
  654SOL    HW211932   2.245   6.568   1.604  0.7350  1.5617 -0.4694
  655SOL     OW11933   1.645   1.305   1.515 -0.3226 -0.3968  0.4414
  655SOL    HW111934   1.574   1.354   1.464  2.1737  1.0379 -1.8152
  655SOL    HW211935   1.657   1.214   1.476  0.8866  0.3388 -0.9830
  656SOL     OW11936   0.562   2.603   0.301 -0.5595  0.5323  0.1482
  656SOL    HW111937   0.607   2.513   0.299 -1.4803  0.0551  0.7059
  656SOL    HW211938   0.557   2.639   0.208  3.3857  1.8232  0.3339
  657SOL     OW11939   2.503   5.352   0.190  0.3679 -0.1190  0.0592
  657SOL    HW111940   2.502   5.262   0.147 -0.4668 -0.0203 -0.1416
  657SOL    HW211941   2.591   5.396   0.173  0.4915 -0.5801 -0.5131
  658SOL     OW11942   2.268   7.687   0.572 -0.1452 -0.4218 -0.0946
  658SOL    HW111943   2.251   7.785   0.572 -1.0601 -0.5619 -1.4133
  658SOL    HW211944   2.361   7.669   0.604  0.3148  0.9299 -0.6329
  659SOL     OW11945   0.902   6.242   2.107 -0.5064  0.1889 -0.1944
  659SOL    HW111946   0.884   6.278   2.198  0.1314 -2.1802  0.9134
  659SOL    HW211947   0.841   6.165   2.089  0.0346  0.0201 -1.3664
  660SOL     OW11948   2.295   0.797   0.587  0.1766 -0.4803  0.0028
  660SOL    HW111949   2.325   0.712   0.542  1.8674  0.6135 -0.9834
  660SOL    HW211950   2.202   0.784   0.622  0.2878 -2.6461 -0.3886
  661SOL     OW11951   2.226   7.372   1.549  0.3533  0.5264  0.1748
  661SOL    HW111952   2.188   7.456   1.510  1.0605  0.6091 -0.3486
  661SOL    HW211953   2.155   7.323   1.599 -0.4271  0.7065 -0.7431
  662SOL     OW11954   3.588   0.710   0.557  0.1230 -0.4762  0.1263
  662SOL    HW111955   3.659   0.640   0.568  0.5018 -0.0511  0.4183
  662SOL    HW211956   3.535   0.718   0.641  1.3700  0.9774  0.8156
  663SOL     OW11957   2.923   4.259   1.996  0.1344 -0.1476 -0.1725
  663SOL    HW111958   2.825   4.247   1.982  0.6989 -2.8827 -2.3017
  663SOL    HW211959   2.969   4.263   1.907  2.0715 -0.2070  0.7977
  664SOL     OW11960   1.307   1.306   2.364 -0.1966 -0.0395  0.1780
  664SOL    HW111961   1.274   1.370   2.433  0.0657  0.9487 -0.5965
  664SOL    HW211962   1.399   1.332   2.335  0.4368 -1.5218  0.7788
  665SOL     OW11963   9.474   5.579   1.157 -0.0706 -0.0664  0.4407
  665SOL    HW111964   9.540   5.521   1.109  1.1070  0.3977  1.4551
  665SOL    HW211965   9.411   5.619   1.090  1.9765  1.1363 -0.8501
  666SOL     OW11966   2.869   0.469   1.796 -0.1328 -0.0662  0.1898
  666SOL    HW111967   2.812   0.447   1.717  1.2987 -0.1564 -0.8489
  666SOL    HW211968   2.963   0.487   1.766  0.1017  1.4541  1.7008
  667SOL     OW11969   1.933   8.668   1.650  0.0876 -0.8226 -0.0303
  667SOL    HW111970   2.005   8.716   1.700 -0.5088  1.1661 -1.0574
  667SOL    HW211971   1.855   8.654   1.710  0.2190 -0.4156  0.2349
  668SOL     OW11972   2.856   4.725   1.577 -0.2250 -0.0627 -0.3776
  668SOL    HW111973   2.898   4.658   1.516  1.0061  1.0630 -0.7910
  668SOL    HW211974   2.793   4.783   1.525 -1.0844 -0.7096 -0.0728
  669SOL     OW11975   3.330   2.073   1.236 -0.3106  0.2120  0.4585
  669SOL    HW111976   3.340   2.098   1.139  1.7994 -1.2953  0.2418
  669SOL    HW211977   3.239   2.036   1.252  0.7673 -3.8851 -2.0445
  670SOL     OW11978   1.768   7.854   0.555 -0.8113 -0.7302  0.1551
  670SOL    HW111979   1.760   7.760   0.589 -0.9407 -0.7007  0.2053
  670SOL    HW211980   1.808   7.911   0.626  1.1011 -1.1565 -0.5568
  671SOL     OW11981   1.346   8.884   0.496 -0.0682  0.3980  0.0575
  671SOL    HW111982   1.363   8.824   0.417 -0.2499 -0.0696  0.3700
  671SOL    HW211983   1.305   8.969   0.464 -2.4873 -0.7907 -0.1343
  672SOL     OW11984   2.354   5.044   1.000  0.3089 -0.0587  0.0667
  672SOL    HW111985   2.409   5.092   1.068  0.0775  0.1478  0.1113
  672SOL    HW211986   2.374   4.946   1.003  0.4575 -0.0213  0.2823
  673SOL     OW11987   3.922   5.125   0.330  0.2298  0.3560  0.4471
  673SOL    HW111988   3.843   5.083   0.375  0.6264 -1.3283 -0.3783
  673SOL    HW211989   3.915   5.112   0.231  0.9312  1.2531  0.2799
  674SOL     OW11990   1.099   2.320   0.199 -0.4124 -0.2382 -0.1310
  674SOL    HW111991   1.032   2.374   0.148  1.6255  1.4813 -1.0879
  674SOL    HW211992   1.053   2.267   0.270 -2.6395  1.8880  0.0683
  675SOL     OW11993   1.647   0.272   0.358  0.3659 -0.1334  0.4164
  675SOL    HW111994   1.671   0.366   0.379  0.6430 -0.0702 -0.1945
  675SOL    HW211995   1.704   0.210   0.411  1.2050  0.0270 -0.2924
  676SOL     OW11996   9.904   6.035   0.552 -0.0204  0.4258  0.0492
  676SOL    HW111997   9.971   6.051   0.480 -0.4436 -1.1886 -0.7156
  676SOL    HW211998   9.923   6.096   0.629  0.9625  1.5528 -1.0576
  677SOL     OW11999   0.927   4.251   2.035  0.2899  0.1878 -0.1197
  677SOL    HW112000   1.006   4.242   2.095 -0.0352 -0.0286  0.2777
  677SOL    HW212001   0.947   4.316   1.962  1.3025 -0.8617 -0.7884
  678SOL     OW12002   3.343   3.885   1.428 -0.0749  0.2904  0.2529
  678SOL    HW112003   3.352   3.979   1.461 -0.4425  0.2166  0.5789
  678SOL    HW212004   3.360   3.882   1.330  1.4534  0.4454  0.5024
  679SOL     OW12005   2.424   1.185   0.779  0.1011 -0.3784  0.4046
  679SOL    HW112006   2.391   1.093   0.761 -2.4174  0.3415  1.1523
  679SOL    HW212007   2.523   1.189   0.763 -0.1251 -2.6176 -1.8165
  680SOL     OW12008   1.306   8.510   0.294 -0.6354 -0.5688  0.9546
  680SOL    HW112009   1.377   8.492   0.363  0.4709 -0.2667 -0.0747
  680SOL    HW212010   1.350   8.531   0.206 -2.0185 -1.1584  0.1029
  681SOL     OW12011   1.666   6.403   0.215 -0.8981  0.0693 -0.3031
  681SOL    HW112012   1.690   6.306   0.214 -1.0048  0.0446 -1.7560
  681SOL    HW212013   1.617   6.425   0.299  1.2189 -0.6193  1.1236
  682SOL     OW12014   3.203   0.405   1.073 -0.1600  0.5537 -0.3520
  682SOL    HW112015   3.204   0.504   1.082  1.9256  0.3848  1.9584
  682SOL    HW212016   3.198   0.380   0.976  0.9700  2.9233 -1.0556
  683SOL     OW12017   2.162   6.410   1.380 -0.0073 -0.1195  0.5078
  683SOL    HW112018   2.215   6.359   1.449  2.0624 -0.3814 -1.2196
  683SOL    HW212019   2.081   6.357   1.354 -0.9487  0.0882  2.8950
  684SOL     OW12020   3.206   0.387   2.413 -0.1471  0.0083 -0.3998
  684SOL    HW112021   3.284   0.329   2.435  0.8664  1.3167 -0.5132
  684SOL    HW212022   3.121   0.335   2.427  0.7186 -1.3106  0.0435
  685SOL     OW12023   3.685   1.451   0.039 -0.1864 -0.5177 -0.0837
  685SOL    HW112024   3.673   1.368   0.093 -0.4603 -0.6265 -0.3060
  685SOL    HW212025   3.631   1.525   0.079 -1.7341 -1.0348 -1.1419
  686SOL     OW12026   2.371   9.404   1.239 -0.2976 -0.1274 -0.2157
  686SOL    HW112027   2.381   9.319   1.187  2.6727  0.9900 -1.6216
  686SOL    HW212028   2.290   9.399   1.297 -2.5815 -2.2396 -3.4158
  687SOL     OW12029   1.188   9.036   1.235  0.5802  0.0936 -0.2154
  687SOL    HW112030   1.091   9.044   1.210  0.9618 -0.1664 -1.8446
  687SOL    HW212031   1.218   8.941   1.221  1.0949  0.1880  0.2311
  688SOL     OW12032   1.844   2.102   1.927 -0.8273 -0.2165 -0.2385
  688SOL    HW112033   1.870   2.009   1.898 -0.5789  0.2724 -1.6132
  688SOL    HW212034   1.918   2.141   1.981 -0.1143 -0.0983 -1.2932
  689SOL     OW12035   3.483   0.123   1.368 -0.1542  0.0804 -0.1125
  689SOL    HW112036   3.562   0.169   1.328 -1.2130  2.3471  0.3410
  689SOL    HW212037   3.493   0.119   1.468 -0.5796  0.3426 -0.0556
  690SOL     OW12038   0.957   3.302   1.847 -0.0326  0.1554  0.2581
  690SOL    HW112039   0.933   3.359   1.768  0.6123  1.3931  0.9460
  690SOL    HW212040   0.987   3.360   1.923 -0.6368 -1.0278  1.4216
  691SOL     OW12041   2.551   2.908   0.920 -0.2384 -0.1612  0.1417
  691SOL    HW112042   2.594   2.982   0.972 -1.9928  0.4660  0.7127
  691SOL    HW212043   2.491   2.947   0.850 -1.0289 -1.0564  0.3208
  692SOL     OW12044   9.621   4.548   0.514 -0.0319  0.1214  0.5550
  692SOL    HW112045   9.578   4.458   0.509 -2.0071  0.9924  1.1762
  692SOL    HW212046   9.710   4.540   0.559  0.5978 -1.7672 -0.9773
  693SOL     OW12047   3.281   1.568   0.428 -0.3032  0.3107 -0.3841
  693SOL    HW112048   3.226   1.641   0.467  0.1225  0.7445 -0.5928
  693SOL    HW212049   3.251   1.549   0.335  0.1366  0.7944 -0.6248
  694SOL     OW12050   3.573   5.133   0.196 -0.5983 -0.2050 -0.6039
  694SOL    HW112051   3.584   5.224   0.237 -0.1112 -1.4221  2.0537
  694SOL    HW212052   3.621   5.130   0.109  0.4549  1.6856 -0.1189
  695SOL     OW12053   2.404   3.118   2.058  0.3654 -0.2043 -0.5738
  695SOL    HW112054   2.378   3.213   2.044  0.2652 -0.2261 -0.5379
  695SOL    HW212055   2.327   3.058   2.036 -0.0725 -0.1951  0.8776
  696SOL     OW12056   0.774   4.052   2.168  0.4949 -0.1868 -0.0252
  696SOL    HW112057   0.690   4.003   2.147  1.0470 -1.9626  1.7687
  696SOL    HW212058   0.840   4.038   2.095 -0.9225  1.7121 -1.7379
  697SOL     OW12059   1.253   8.909   1.614  0.2935 -0.0472  0.5059
  697SOL    HW112060   1.198   8.893   1.532 -2.0398  0.0607  2.0159
  697SOL    HW212061   1.311   8.989   1.600 -2.0765  1.6238 -0.0692
  698SOL     OW12062   1.375   6.118   0.646  0.3015 -0.5380  0.3842
  698SOL    HW112063   1.335   6.032   0.614 -1.3253  0.6212 -0.7406
  698SOL    HW212064   1.447   6.147   0.584 -1.1518  0.4141 -0.8871
  699SOL     OW12065   3.295   9.283   2.331 -0.6102 -0.3129 -0.0780
  699SOL    HW112066   3.211   9.316   2.375 -0.8033 -0.3978 -0.3798
  699SOL    HW212067   3.318   9.193   2.369 -1.5773 -1.0356 -1.1619
  700SOL     OW12068   1.898   9.407   0.693 -0.1127 -0.2384 -0.2437
  700SOL    HW112069   1.952   9.409   0.778 -1.9257  0.2431  0.9225
  700SOL    HW212070   1.852   9.318   0.686 -1.3785  0.3739  0.1924
  701SOL     OW12071   2.019   7.429   1.816 -0.0869 -0.2029 -0.2962
  701SOL    HW112072   2.037   7.397   1.909  0.3125  0.6252 -0.0806
  701SOL    HW212073   1.975   7.357   1.763  0.1691 -0.8563  0.3824
  702SOL     OW12074   2.973   0.448   1.218 -0.8507  0.5356 -0.1992
  702SOL    HW112075   3.028   0.378   1.173 -0.7645 -0.3345  1.2346
  702SOL    HW212076   2.930   0.506   1.149  1.3645  0.8521 -1.3550
  703SOL     OW12077   1.322   3.551   2.526  0.2066  0.1517 -1.2118
  703SOL    HW112078   1.329   3.466   2.474  0.5277  0.1463 -1.1561
  703SOL    HW212079   1.381   3.547   2.606 -2.8692 -1.2559  1.1097
  704SOL     OW12080   1.797   1.530   1.224 -0.1737 -0.4501  0.0975
  704SOL    HW112081   1.699   1.512   1.220 -0.2319 -0.1405  0.0798
  704SOL    HW212082   1.812   1.629   1.234  0.0900 -0.6196  1.5982
  705SOL     OW12083   4.310   3.129   2.226 -0.3310 -0.4276 -0.3136
  705SOL    HW112084   4.389   3.087   2.182  1.0677  2.5274 -0.7775
  705SOL    HW212085   4.252   3.171   2.157 -1.7456 -1.6274  0.1273
  706SOL     OW12086   0.913   6.875   1.991 -0.1320  0.1376 -1.0686
  706SOL    HW112087   0.906   6.829   1.902 -0.2945  0.0891 -1.0307
  706SOL    HW212088   0.931   6.806   2.062 -2.0966 -0.0934 -0.7608
  707SOL     OW12089   1.115   6.912   2.318  0.2250 -0.2927  0.1406
  707SOL    HW112090   1.134   6.925   2.221 -0.3648 -2.8983 -0.3582
  707SOL    HW212091   1.182   6.963   2.372  1.5332 -0.1087 -1.6081
  708SOL     OW12092   0.895   4.358   1.306 -0.3047  0.1324  0.1050
  708SOL    HW112093   0.805   4.363   1.349  0.1703  2.7271  0.8781
  708SOL    HW212094   0.959   4.315   1.370 -0.1429  1.8335  1.1310
  709SOL     OW12095   3.040   8.831   2.361 -0.5778 -0.0747  0.1800
  709SOL    HW112096   2.947   8.795   2.370 -0.7715  0.6053  0.8695
  709SOL    HW212097   3.047   8.918   2.408  0.2857  0.1102 -0.2845
  710SOL     OW12098   2.423   5.459   0.949 -0.5418 -0.3045 -0.5207
  710SOL    HW112099   2.413   5.365   0.983  0.9388 -0.4368 -0.4120
  710SOL    HW212100   2.378   5.468   0.861  1.9911 -2.0072 -2.0691
  711SOL     OW12101   1.280   1.259   1.405 -0.1101 -0.3299 -0.2667
  711SOL    HW112102   1.278   1.309   1.318  0.9319 -0.1582 -0.2074
  711SOL    HW212103   1.359   1.198   1.406 -1.3401 -1.9557 -0.3117
  712SOL     OW12104   1.165   4.313   0.131  0.1800 -0.2464  0.1427
  712SOL    HW112105   1.263   4.321   0.118  0.3633  0.4693  1.9392
  712SOL    HW212106   1.120   4.310   0.041  1.8626 -1.1594 -0.6937
  713SOL     OW12107   3.296   1.219   0.132 -0.2263  0.6859  0.3048
  713SOL    HW112108   3.310   1.121   0.150 -0.4777  0.5097 -0.4649
  713SOL    HW212109   3.198   1.238   0.128 -0.1763  0.7452 -0.7579
  714SOL     OW12110   0.081   3.450   2.181  0.3132 -0.5237 -0.3615
  714SOL    HW112111   0.160   3.509   2.195  0.7975 -1.2372 -0.0291
  714SOL    HW212112   0.009   3.473   2.247 -0.0439  0.5986 -1.1271
  715SOL     OW12113   1.331   2.510   1.381  0.2367  0.3421  1.1982
  715SOL    HW112114   1.271   2.437   1.349  0.7065 -0.0406  1.1874
  715SOL    HW212115   1.306   2.596   1.336  1.4708 -0.3640 -0.8677
  716SOL     OW12116   4.419   3.270   1.565 -0.3110  0.1433  0.5409
  716SOL    HW112117   4.424   3.362   1.525  0.0401  0.4919  1.3593
  716SOL    HW212118   4.405   3.203   1.493  2.0826  0.5666 -0.3631
  717SOL     OW12119   1.733   3.273   2.366 -0.1000  0.5863  0.2528
  717SOL    HW112120   1.659   3.306   2.424 -0.6078  0.9670 -0.6043
  717SOL    HW212121   1.774   3.350   2.317 -1.0691  0.0262 -1.4946
  718SOL     OW12122   1.391   7.970   0.748 -0.0380  0.0266 -0.9063
  718SOL    HW112123   1.325   8.044   0.761 -0.6831 -0.5322 -0.9697
  718SOL    HW212124   1.428   7.974   0.655  2.7240  2.5203  0.2225
  719SOL     OW12125   2.317   6.881   1.301 -0.0852  0.7533 -0.3465
  719SOL    HW112126   2.315   6.923   1.391 -0.1488  1.8012 -0.8337
  719SOL    HW212127   2.404   6.903   1.256  0.2251 -0.3192 -0.2765
  720SOL     OW12128   1.429   2.977   2.096  0.3037  0.2779 -0.3756
  720SOL    HW112129   1.412   2.946   2.189 -2.4744  1.4250 -0.4530
  720SOL    HW212130   1.461   2.900   2.040 -2.8180 -1.6195  0.3289
  721SOL     OW12131   4.242   2.110   1.528  0.3081  0.5916  0.2937
  721SOL    HW112132   4.157   2.111   1.580 -0.8441 -2.8314 -1.3992
  721SOL    HW212133   4.320   2.105   1.590 -0.9326 -1.1517  1.7443
  722SOL     OW12134   0.335   5.774   1.067  0.2792  0.2936 -0.5407
  722SOL    HW112135   0.409   5.751   1.131  0.1042 -1.0074 -0.8003
  722SOL    HW212136   0.332   5.874   1.055  0.9081  0.4839  0.7633
  723SOL     OW12137   1.983   3.926   1.227 -0.3580  0.3370  0.0070
  723SOL    HW112138   2.008   3.948   1.133 -0.4409 -2.0557 -0.5993
  723SOL    HW212139   2.009   3.832   1.248 -0.4434  0.7989  2.3528
  724SOL     OW12140   4.420   3.797   1.996 -0.0516  0.2099 -0.7672
  724SOL    HW112141   4.478   3.718   1.978 -0.4076 -0.0947 -0.5803
  724SOL    HW212142   4.388   3.835   1.910 -0.4033 -0.2373 -0.8335
  725SOL     OW12143   1.391   1.266   0.691 -0.0765  0.4896  0.0684
  725SOL    HW112144   1.354   1.174   0.706  1.5501 -0.5165 -1.7940
  725SOL    HW212145   1.379   1.291   0.595  0.5374  1.7424  0.3113
  726SOL     OW12146   3.593   2.270   1.584  0.6688  0.3428  0.0160
  726SOL    HW112147   3.517   2.271   1.649  0.8057 -0.6484  0.2070
  726SOL    HW212148   3.591   2.353   1.528  0.9607  1.5289  1.7466
  727SOL     OW12149   2.556   4.603   0.143 -0.1575 -0.0086 -0.0034
  727SOL    HW112150   2.591   4.593   0.050  0.1802 -0.0252  0.1236
  727SOL    HW212151   2.540   4.512   0.182  1.0612 -0.0343  0.4601
  728SOL     OW12152   3.176   9.728   2.530 -0.2513  0.0911 -0.1404
  728SOL    HW112153   3.170   9.721   2.629 -0.8050 -0.1892 -0.1903
  728SOL    HW212154   3.088   9.758   2.493 -0.6934 -1.8687 -0.7208
  729SOL     OW12155   4.180   1.964   1.914 -0.1166  0.0240  0.0337
  729SOL    HW112156   4.139   2.011   1.836 -1.9991 -1.0491  0.3139
  729SOL    HW212157   4.107   1.917   1.966  1.6068 -2.8541 -0.0519
  730SOL     OW12158   3.336   3.448   2.573 -0.4583  0.2600  0.9787
  730SOL    HW112159   3.373   3.356   2.561 -2.0214 -0.2149 -0.3149
  730SOL    HW212160   3.246   3.442   2.617  0.2574  1.3082  2.6663
  731SOL     OW12161   9.123   4.126   1.849  0.1531 -0.2908  0.2528
  731SOL    HW112162   9.076   4.173   1.775 -0.6616  0.5324  1.2882
  731SOL    HW212163   9.069   4.132   1.933  1.2172 -0.9331  1.0010
  732SOL     OW12164   4.019   3.833   2.272  0.2541 -0.0952  0.1651
  732SOL    HW112165   4.116   3.859   2.264  0.3015  0.8886  3.3329
  732SOL    HW212166   4.012   3.738   2.303  0.2290  0.4144  1.7273
  733SOL     OW12167   3.941   3.553   2.314 -0.3689  0.3186 -0.1684
  733SOL    HW112168   3.842   3.563   2.318 -0.5941 -1.2739 -1.4188
  733SOL    HW212169   3.971   3.484   2.380 -0.5902 -2.2918 -2.6916
  734SOL     OW12170   2.882   2.864   0.873  0.0659 -0.8984  0.4384
  734SOL    HW112171   2.923   2.918   0.947 -0.5399 -0.1994  0.2655
  734SOL    HW212172   2.783   2.867   0.881  0.0056 -1.0867 -0.2308
  735SOL     OW12173   0.175   4.790   1.780 -0.4857  0.7567  0.0355
  735SOL    HW112174   0.273   4.791   1.803 -0.4942  0.4352  0.0793
  735SOL    HW212175   0.157   4.859   1.710 -0.1340  0.4270 -0.3773
  736SOL     OW12176   3.155   5.241   1.958  0.0723  0.6949  0.1480
  736SOL    HW112177   3.158   5.192   1.871  0.3371 -0.4985  0.8301
  736SOL    HW212178   3.097   5.192   2.023  1.2285  0.6828  1.1861
  737SOL     OW12179   1.371   6.269   1.394 -0.4035  0.2759 -0.1640
  737SOL    HW112180   1.460   6.291   1.435 -1.4199  1.7645  1.3125
  737SOL    HW212181   1.361   6.320   1.309 -0.1978  0.8172  0.1294
  738SOL     OW12182   2.266   1.439   1.332 -0.5235  0.0945  0.1362
  738SOL    HW112183   2.206   1.434   1.253  0.0776  1.2431 -0.4217
  738SOL    HW212184   2.233   1.511   1.394  0.3981  0.9257 -0.3119
  739SOL     OW12185   4.191   1.459   2.328 -0.3722 -0.2410  0.1315
  739SOL    HW112186   4.142   1.482   2.412 -1.3772 -0.5280 -0.3688
  739SOL    HW212187   4.188   1.359   2.314  2.7508 -0.6099  1.5625
  740SOL     OW12188   1.411   4.486   1.501  0.7087  0.5987  0.0387
  740SOL    HW112189   1.471   4.566   1.507  1.2410  0.1459  0.7662
  740SOL    HW212190   1.452   4.418   1.441  0.9276  0.2897  0.5343
  741SOL     OW12191   2.238   1.115   2.486 -0.7277  0.2524  0.2892
  741SOL    HW112192   2.235   1.060   2.402 -0.2939 -0.2667  0.6099
  741SOL    HW212193   2.254   1.211   2.462  2.2902 -0.2883 -0.0899
  742SOL     OW12194   2.877   3.818   1.312  0.5180 -0.3730  0.3168
  742SOL    HW112195   2.909   3.751   1.379  0.3662 -2.2535 -1.4452
  742SOL    HW212196   2.945   3.829   1.240 -0.0876  0.2723 -0.1632
  743SOL     OW12197   2.981   0.041   0.248  0.2618 -0.2150 -0.1055
  743SOL    HW112198   3.011   0.134   0.228  2.0877 -0.6773  0.4323
  743SOL    HW212199   2.986   0.026   0.347  0.1851 -0.9594 -0.2157
  744SOL     OW12200   9.348   4.466   1.923  0.4100 -0.5460 -0.2879
  744SOL    HW112201   9.318   4.554   1.885 -1.8466 -0.6103  1.2198
  744SOL    HW212202   9.380   4.479   2.017 -0.8500 -1.4498  0.2892
  745SOL     OW12203   4.354   3.065   1.395  0.0228  0.0309  0.1930
  745SOL    HW112204   4.277   3.032   1.449 -0.1253  0.3357  0.1720
  745SOL    HW212205   4.394   2.990   1.344 -0.2192 -0.1408  0.2559
  746SOL     OW12206   0.447   3.395   0.286  0.1689  0.5762 -0.2848
  746SOL    HW112207   0.545   3.414   0.295  0.1176  1.3818 -1.3183
  746SOL    HW212208   0.395   3.474   0.317 -0.1096  0.8596 -1.4317
  747SOL     OW12209   0.787   4.233   0.098 -0.3434 -0.3196  0.6136
  747SOL    HW112210   0.854   4.170   0.058  0.0604  1.1401 -1.0810
  747SOL    HW212211   0.695   4.194   0.090  0.0900 -1.4830  1.2134
  748SOL     OW12212   1.735   2.044   0.394 -0.2632  0.4849 -0.3212
  748SOL    HW112213   1.815   2.104   0.406 -0.1857  0.0697  1.3817
  748SOL    HW212214   1.654   2.100   0.377  0.2666  0.9401 -1.4062
  749SOL     OW12215   3.699   1.125   2.184  0.2924 -0.0374 -0.4606
  749SOL    HW112216   3.792   1.142   2.150  0.6402  0.8644  0.8947
  749SOL    HW212217   3.634   1.133   2.108  1.3168 -0.6585 -1.4160
  750SOL     OW12218   2.969   0.841   1.830 -0.2638 -0.1018  0.1064
  750SOL    HW112219   2.897   0.812   1.893 -1.5337 -1.2557 -1.8373
  750SOL    HW212220   2.947   0.810   1.738  3.1361 -1.2103 -0.4094
  751SOL     OW12221   4.514   2.870   2.341 -0.0443 -0.3723  0.5849
  751SOL    HW112222   4.614   2.872   2.352  0.0807  0.7743 -0.5949
  751SOL    HW212223   4.491   2.876   2.244 -1.2436 -2.1619  0.7409
  752SOL     OW12224   2.532   7.943   1.299  0.3771 -0.3213 -0.1821
  752SOL    HW112225   2.445   7.970   1.259  0.1982 -0.2638  0.2442
  752SOL    HW212226   2.517   7.886   1.380  0.6995  0.6060  0.5537
  753SOL     OW12227   1.744   4.363   1.462 -0.2241  0.1015 -0.3137
  753SOL    HW112228   1.797   4.299   1.407  0.4254 -1.0608  1.6273
  753SOL    HW212229   1.735   4.449   1.413  1.3374 -0.5194 -1.7343
  754SOL     OW12230   2.756   5.447   1.622 -0.1355 -0.0774 -0.4930
  754SOL    HW112231   2.683   5.393   1.663 -0.8150  1.6512  0.6123
  754SOL    HW212232   2.770   5.418   1.527 -2.0019 -0.6856 -0.6005
  755SOL     OW12233   1.384   8.373   2.081  0.3126 -1.0532  0.1295
  755SOL    HW112234   1.417   8.460   2.044 -2.8718 -0.2410 -0.9547
  755SOL    HW212235   1.285   8.377   2.094  0.2488 -4.1551  1.1293
  756SOL     OW12236   1.813   2.930   0.771 -0.1260  0.1109 -0.5722
  756SOL    HW112237   1.737   2.918   0.708 -0.1925 -4.0360  0.1520
  756SOL    HW212238   1.899   2.931   0.720 -0.3669 -0.0968 -0.9783
  757SOL     OW12239   1.606   7.261   2.081 -0.1802 -0.7774 -0.1563
  757SOL    HW112240   1.613   7.161   2.088 -1.0221 -1.0930 -2.8916
  757SOL    HW212241   1.517   7.285   2.043  0.7689  0.8635 -1.4227
  758SOL     OW12242   1.853   1.323   2.560 -0.1599 -0.0866  0.3253
  758SOL    HW112243   1.884   1.303   2.653 -0.0570  0.5438  0.4269
  758SOL    HW212244   1.932   1.325   2.499 -0.3096 -1.2809  0.0793
  759SOL     OW12245   0.442   6.270   1.983  0.5207  0.3959 -0.0827
  759SOL    HW112246   0.412   6.187   2.031  0.4569 -1.0171 -2.4733
  759SOL    HW212247   0.369   6.302   1.923  1.5610  0.5031 -1.3120
  760SOL     OW12248   2.257   6.262   2.523  0.1203 -0.1264  0.6852
  760SOL    HW112249   2.201   6.331   2.569 -0.2266 -0.7268  1.1750
  760SOL    HW212250   2.232   6.171   2.557  1.0311 -0.4404  0.5258
  761SOL     OW12251   0.204   3.867   0.080 -0.6489 -0.0187 -0.1448
  761SOL    HW112252   0.263   3.819   0.015 -1.8077  0.0607 -1.2770
  761SOL    HW212253   0.184   3.959   0.045 -0.8949  0.1919  0.5493
  762SOL     OW12254   0.495   3.599   2.078  0.6359 -0.9007 -0.0808
  762SOL    HW112255   0.483   3.584   1.980  1.5984 -1.9746 -0.0534
  762SOL    HW212256   0.457   3.521   2.128 -2.6046  1.0233  0.5850
  763SOL     OW12257   1.469   8.913   0.726  0.0507  0.3282  0.0509
  763SOL    HW112258   1.430   8.893   0.636 -2.6901 -2.0444  1.6832
  763SOL    HW212259   1.407   8.972   0.777 -0.2888 -1.4472  1.7674
  764SOL     OW12260   9.498   6.081   1.563 -0.0302  0.1288  0.1455
  764SOL    HW112261   9.591   6.063   1.596 -0.2565 -3.7555 -1.0569
  764SOL    HW212262   9.502   6.141   1.483  1.5917 -1.2355 -0.8274
  765SOL     OW12263   2.981   2.070   0.957 -0.1090  0.2453  0.0077
  765SOL    HW112264   2.884   2.093   0.958  0.3417  2.2121  0.9440
  765SOL    HW212265   3.017   2.083   0.865 -0.1594  2.0532  0.2358
  766SOL     OW12266   4.018   8.460   0.569 -0.1623 -0.0399 -0.5513
  766SOL    HW112267   4.027   8.479   0.471  0.4384  0.0115 -0.4868
  766SOL    HW212268   4.090   8.508   0.619 -1.8556  1.8710  0.1531
  767SOL     OW12269   1.492   8.453   0.682 -0.5588  0.3307  0.3697
  767SOL    HW112270   1.410   8.503   0.655  0.3916  1.0880 -1.2151
  767SOL    HW212271   1.534   8.497   0.761 -0.2880  1.4864 -0.3939
  768SOL     OW12272   3.932   9.453   0.655 -0.6436 -0.2911  0.1451
  768SOL    HW112273   3.935   9.544   0.697  1.3141 -0.3919  0.2311
  768SOL    HW212274   3.971   9.457   0.564  0.6400 -1.2988  0.6383
  769SOL     OW12275   2.992   1.845   0.244  0.4876  0.7917  0.2198
  769SOL    HW112276   3.059   1.917   0.225  1.9155  0.2951  3.0496
  769SOL    HW212277   2.966   1.848   0.340 -0.3082 -1.7472  0.1353
  770SOL     OW12278   1.308   5.487   1.272 -0.6372  0.7270  0.1864
  770SOL    HW112279   1.316   5.391   1.245  0.4892  0.7992  0.2098
  770SOL    HW212280   1.314   5.495   1.371  2.6338  1.0788  0.0249
  771SOL     OW12281   2.822   6.609   1.542  0.0161  0.2095 -0.3776
  771SOL    HW112282   2.856   6.659   1.621 -1.3134  0.5066  0.0034
  771SOL    HW212283   2.857   6.515   1.545  0.5522  0.4235  0.1743
  772SOL     OW12284   4.991   2.793   0.382 -0.2873 -0.1508  0.1831
  772SOL    HW112285   4.948   2.703   0.374  0.2334 -0.4552  0.7599
  772SOL    HW212286   4.980   2.826   0.476  0.5388 -0.1206  0.2671
  773SOL     OW12287   4.339   0.797   0.746 -0.4027  0.3725 -0.3258
  773SOL    HW112288   4.430   0.763   0.769 -0.4350  1.1315  0.9735
  773SOL    HW212289   4.330   0.804   0.647  0.8630  0.0645 -0.4716
  774SOL     OW12290   3.223   3.990   1.709  0.0192 -0.0086 -0.1514
  774SOL    HW112291   3.249   4.044   1.630  0.7482 -0.9693 -0.5775
  774SOL    HW212292   3.148   3.928   1.684 -1.1548  1.1196  0.4635
  775SOL     OW12293   3.726   1.033   1.045  0.1485 -0.8789  0.0795
  775SOL    HW112294   3.769   1.020   0.956 -1.5364 -1.9599 -0.6037
  775SOL    HW212295   3.775   0.980   1.115  1.3288 -0.2108 -0.2219
  776SOL     OW12296   2.872   4.311   0.326  0.0253  0.1161  0.2378
  776SOL    HW112297   2.812   4.231   0.336  0.4477 -0.3940 -1.2085
  776SOL    HW212298   2.967   4.281   0.330  0.1872  0.6571  0.4522
  777SOL     OW12299   2.954   4.933   0.779 -0.7321 -0.5840  0.0204
  777SOL    HW112300   2.919   5.020   0.746 -0.8214 -1.0703 -1.1656
  777SOL    HW212301   3.027   4.901   0.719  0.5813 -0.4254  1.4984
  778SOL     OW12302   2.539   1.422   0.522 -0.3682  0.1411  0.5035
  778SOL    HW112303   2.579   1.363   0.452  1.8269  1.6376  0.4536
  778SOL    HW212304   2.578   1.400   0.611  1.5709  2.4427  0.2654
  779SOL     OW12305   2.505   6.547   2.351 -0.6380  0.6091 -0.0238
  779SOL    HW112306   2.547   6.480   2.290 -0.0332 -0.3370  1.4077
  779SOL    HW212307   2.526   6.524   2.446  0.5179  3.4574  0.4647
  780SOL     OW12308   2.480   8.818   0.290 -0.2202 -0.6056 -0.4435
  780SOL    HW112309   2.467   8.784   0.383  2.2070  0.8373  0.4451
  780SOL    HW212310   2.427   8.902   0.278 -0.3981 -0.6992 -0.3271
  781SOL     OW12311   0.823   5.645   1.580  0.3915 -0.0461  0.4149
  781SOL    HW112312   0.913   5.654   1.537  0.4637 -0.6669  0.4319
  781SOL    HW212313   0.829   5.583   1.658 -0.2900 -1.0129 -0.2879
  782SOL     OW12314   1.210   4.569   0.463  0.2584  0.4150  0.1299
  782SOL    HW112315   1.149   4.535   0.391  0.6759 -0.6784  0.2752
  782SOL    HW212316   1.291   4.610   0.422  1.2430 -1.6166 -0.0370
  783SOL     OW12317   1.120   3.224   2.543  0.0017  0.7935 -0.2394
  783SOL    HW112318   1.037   3.272   2.517 -1.0189 -0.4348  0.6994
  783SOL    HW212319   1.197   3.258   2.488 -1.5473  0.2417 -2.8499
  784SOL     OW12320   2.330   0.068   1.935  0.4918 -0.0347  0.5147
  784SOL    HW112321   2.266   0.023   1.874  0.5661  1.3167 -0.5817
  784SOL    HW212322   2.412   0.012   1.945  0.7564  0.0404 -1.1553
  785SOL     OW12323   2.434   4.384   2.248  0.5351  0.0197 -0.1115
  785SOL    HW112324   2.440   4.300   2.302 -0.6176 -1.1647 -1.7663
  785SOL    HW212325   2.345   4.427   2.262  0.4588  0.0266 -0.6065
  786SOL     OW12326   4.451   1.423   0.484  0.0438 -0.5206  0.0153
  786SOL    HW112327   4.420   1.443   0.576 -0.3538 -1.7238  0.1485
  786SOL    HW212328   4.385   1.364   0.438 -0.7524  1.6902 -1.7375
  787SOL     OW12329   1.217   3.496   1.171 -0.2938 -0.0354 -0.1372
  787SOL    HW112330   1.309   3.496   1.210 -0.3597 -0.6704  0.0197
  787SOL    HW212331   1.219   3.546   1.084 -0.2513  1.7686  0.8792
  788SOL     OW12332   1.697   6.925   0.593 -0.3222 -0.4444 -0.4232
  788SOL    HW112333   1.767   6.995   0.575  0.7810 -1.3046  0.3934
  788SOL    HW212334   1.611   6.969   0.616  0.2083  0.6539 -0.4860
  789SOL     OW12335   0.082   3.631   0.111  0.3703  0.0093  0.2365
  789SOL    HW112336   0.093   3.596   0.204  3.2390  1.8434  0.6568
  789SOL    HW212337   0.095   3.730   0.111 -0.6297  0.1802 -1.9833
  790SOL     OW12338   2.256   2.002   0.273  0.4441  0.2482 -0.0293
  790SOL    HW112339   2.172   2.030   0.227  0.5420 -0.7735 -0.8479
  790SOL    HW212340   2.313   1.950   0.209  1.8505  1.2222  0.4131
  791SOL     OW12341   3.993   4.764   0.179 -0.1128 -0.1889  0.2204
  791SOL    HW112342   4.070   4.702   0.164  0.9788  0.9439  1.0521
  791SOL    HW212343   3.998   4.800   0.272 -1.4076  0.2402  0.1302
  792SOL     OW12344   1.463   2.185   0.117 -0.0223 -0.5101 -0.2473
  792SOL    HW112345   1.418   2.209   0.203 -0.7748  0.6081 -0.9337
  792SOL    HW212346   1.493   2.090   0.120 -2.4204 -1.2927  0.2625
  793SOL     OW12347   3.573   8.298   0.494 -0.2503  0.2076  0.0036
  793SOL    HW112348   3.498   8.361   0.513 -1.3574 -0.7449 -1.0834
  793SOL    HW212349   3.609   8.261   0.579 -1.6318 -0.0162  0.5039
  794SOL     OW12350   8.780   5.004   1.774  0.2032  0.2493 -0.6709
  794SOL    HW112351   8.785   4.981   1.871 -0.9094 -0.9925 -0.8928
  794SOL    HW212352   8.873   5.011   1.737  0.6312  1.0531  0.5525
  795SOL     OW12353   0.524   4.861   0.798  0.1028 -0.1732  0.8722
  795SOL    HW112354   0.522   4.941   0.739 -0.6822 -0.0475  1.0609
  795SOL    HW212355   0.436   4.851   0.844 -0.0287 -1.5226  0.3526
  796SOL     OW12356   1.679   5.662   0.875 -0.6191 -0.1229 -0.2451
  796SOL    HW112357   1.716   5.607   0.800 -0.2714 -0.4272  0.1452
  796SOL    HW212358   1.684   5.610   0.960  0.3715  0.7734  0.2589
  797SOL     OW12359   4.617   3.961   2.132  0.2146  1.0497  0.2220
  797SOL    HW112360   4.590   3.869   2.160 -1.3344  1.2966 -0.4287
  797SOL    HW212361   4.542   4.005   2.083  1.1233  2.4765  0.0683
  798SOL     OW12362   1.564   2.457   1.523  0.0581 -0.1878  0.4144
  798SOL    HW112363   1.527   2.434   1.613 -1.0259  0.0389  0.0291
  798SOL    HW212364   1.496   2.508   1.471  1.1659  0.8369 -0.0440
  799SOL     OW12365   2.118   5.161   0.018  0.0944 -0.1574 -0.3109
  799SOL    HW112366   2.160   5.071   0.033  2.3614  0.7930 -0.8360
  799SOL    HW212367   2.118   5.212   0.104 -1.6423 -0.8081  0.1046
  800SOL     OW12368   2.309   4.907   2.375 -0.1236 -0.6965 -0.7343
  800SOL    HW112369   2.324   4.811   2.399  2.1682 -0.1832 -0.0010
  800SOL    HW212370   2.366   4.931   2.297 -0.0796  0.2831 -0.3987
  801SOL     OW12371   3.652   5.782   1.782  0.2310 -0.2738 -0.3361
  801SOL    HW112372   3.681   5.732   1.863 -1.5156 -1.5597 -0.4906
  801SOL    HW212373   3.611   5.869   1.809  1.0128 -0.0176  0.0552
  802SOL     OW12374   0.748   3.643   2.334 -0.3260  0.2788  0.0043
  802SOL    HW112375   0.693   3.583   2.276  0.5401 -2.7680  2.2475
  802SOL    HW212376   0.786   3.717   2.278 -1.5855 -1.0990 -2.7835
  803SOL     OW12377   3.314   8.930   2.149 -0.0764 -0.1971  0.0821
  803SOL    HW112378   3.391   8.891   2.098  0.6314  2.4368 -0.9888
  803SOL    HW212379   3.341   8.943   2.245  0.8400  0.6479 -0.2735
  804SOL     OW12380   1.618   2.721   0.542 -0.1113  0.2574 -0.4305
  804SOL    HW112381   1.556   2.660   0.493 -1.6632  0.1061  1.6419
  804SOL    HW212382   1.594   2.816   0.522  0.4839  0.1964 -1.4440
  805SOL     OW12383   1.768   1.999   2.481  0.1849  0.0706  0.5313
  805SOL    HW112384   1.699   1.927   2.472 -0.5228  0.6174  1.4864
  805SOL    HW212385   1.807   1.995   2.573 -0.6467  1.6099  0.9544
  806SOL     OW12386   1.892   6.204   0.603 -0.1577  0.4963 -0.0295
  806SOL    HW112387   1.932   6.202   0.511 -1.3583  0.4381 -0.5656
  806SOL    HW212388   1.941   6.141   0.663  0.5459  0.4284 -0.6779
  807SOL     OW12389   2.420   6.594   0.726  0.4911 -0.6016 -0.0294
  807SOL    HW112390   2.509   6.577   0.767  0.9323 -2.4583 -1.6648
  807SOL    HW212391   2.348   6.569   0.790  1.1611 -2.4213  0.0228
  808SOL     OW12392   1.408   4.029   1.463  0.2797  0.4441  0.5601
  808SOL    HW112393   1.432   4.046   1.368 -1.1683  0.1877  0.1312
  808SOL    HW212394   1.453   4.096   1.522  2.9136 -0.6989 -0.0741
  809SOL     OW12395   0.377   4.421   1.399  0.4351  0.1603 -0.0703
  809SOL    HW112396   0.320   4.397   1.320  1.7284  1.1331 -1.3182
  809SOL    HW212397   0.470   4.440   1.368  1.0434  0.1943  1.7493
  810SOL     OW12398   3.276   4.669   0.058 -0.0872  0.2072  0.3163
  810SOL    HW112399   3.365   4.634   0.087 -0.5742 -1.8532 -0.5818
  810SOL    HW212400   3.203   4.612   0.095 -0.9658  0.8871 -0.3128
  811SOL     OW12401   3.043   1.084   1.228 -0.1712  0.0891 -0.2181
  811SOL    HW112402   3.051   1.153   1.156  1.5593  0.1925  0.0486
  811SOL    HW212403   2.951   1.045   1.226 -0.2797  0.3620 -2.2271
  812SOL     OW12404   1.508   1.551   2.197  0.1306  0.4525  0.3248
  812SOL    HW112405   1.551   1.519   2.281 -2.8753  0.7241  2.0688
  812SOL    HW212406   1.553   1.635   2.166  2.3957 -0.6161  0.6367
  813SOL     OW12407   2.982   5.447   0.601 -0.0245 -0.1338  0.2579
  813SOL    HW112408   3.056   5.475   0.662  0.1719 -0.2895  0.0885
  813SOL    HW212409   2.919   5.524   0.587  0.2516  0.0759  0.1818
  814SOL     OW12410   3.433   0.676   0.807 -0.8074  0.5832  0.7299
  814SOL    HW112411   3.346   0.651   0.850 -0.3243 -0.0525  1.3595
  814SOL    HW212412   3.476   0.750   0.859  0.4222 -1.0948  2.1854
  815SOL     OW12413   1.276   4.519   2.442  0.0094 -0.2443 -0.0965
  815SOL    HW112414   1.198   4.458   2.458 -0.6873  0.0781 -2.1432
  815SOL    HW212415   1.245   4.614   2.450  0.0077 -0.1054 -1.6383
  816SOL     OW12416   2.545   0.837   0.458 -0.3069 -0.2809  0.4469
  816SOL    HW112417   2.464   0.855   0.514  0.0114 -0.5290  0.9944
  816SOL    HW212418   2.616   0.795   0.515 -0.0274 -0.6586 -0.1743
  817SOL     OW12419   1.299   4.122   2.378  0.3682  0.4276  0.7360
  817SOL    HW112420   1.251   4.076   2.453  0.7162 -0.5980  0.3427
  817SOL    HW212421   1.235   4.140   2.304  0.0927  1.1545  1.1472
  818SOL     OW12422   3.333   4.674   0.867  0.0502  0.1741 -0.2927
  818SOL    HW112423   3.255   4.725   0.904  0.4557  0.7050 -0.1619
  818SOL    HW212424   3.370   4.614   0.938 -0.7487 -0.6924 -0.5999
  819SOL     OW12425   4.411   4.644   1.629  0.1495 -0.1410  0.0565
  819SOL    HW112426   4.437   4.548   1.618  0.9465  0.0377  0.3143
  819SOL    HW212427   4.312   4.652   1.630  0.0777 -0.8039 -1.2981
  820SOL     OW12428   1.753   8.573   1.169  0.0505 -0.0753  0.1688
  820SOL    HW112429   1.787   8.639   1.102 -1.5043  1.4684  0.8714
  820SOL    HW212430   1.785   8.598   1.260 -1.5203  0.3990  0.6002
  821SOL     OW12431   1.843   2.701   0.418  0.1062  0.0998 -0.3355
  821SOL    HW112432   1.826   2.699   0.320  0.7716 -0.5659 -0.4508
  821SOL    HW212433   1.756   2.698   0.468 -0.1992 -0.8265 -0.9040
  822SOL     OW12434   3.554   2.568   2.400  0.3790  0.0920 -0.0329
  822SOL    HW112435   3.490   2.586   2.325 -1.0743  0.9436  1.3746
  822SOL    HW212436   3.635   2.625   2.389  0.0720  0.3864 -0.8309
  823SOL     OW12437   4.207   4.190   1.196 -0.4127 -0.4006  0.1284
  823SOL    HW112438   4.269   4.139   1.137  0.4872 -1.0109  1.5662
  823SOL    HW212439   4.257   4.226   1.275 -1.3690  1.3252 -0.0122
  824SOL     OW12440   1.598   1.066   1.927 -0.1243  0.3400  0.1393
  824SOL    HW112441   1.613   1.147   1.871  0.9639  1.9940  2.7387
  824SOL    HW212442   1.519   1.081   1.986  1.3527  0.4037  2.1510
  825SOL     OW12443   2.950   2.874   1.736  0.3194 -0.1241 -0.2655
  825SOL    HW112444   2.942   2.926   1.821  0.9951  0.6078 -0.6429
  825SOL    HW212445   2.888   2.795   1.739  0.2462 -0.0286  0.8442
  826SOL     OW12446   1.654   4.717   0.645  0.1127 -0.2862 -0.4486
  826SOL    HW112447   1.650   4.675   0.554 -0.4310 -1.1500 -0.0389
  826SOL    HW212448   1.577   4.683   0.700  1.0506 -0.5981  0.6820
  827SOL     OW12449   1.276   5.754   2.306 -0.1007  0.2751 -0.5172
  827SOL    HW112450   1.364   5.782   2.267 -0.6089  0.4702 -1.5307
  827SOL    HW212451   1.290   5.673   2.364  1.3489  2.4393  2.2657
  828SOL     OW12452   2.058   1.726   0.396 -0.2819 -0.2810  0.1030
  828SOL    HW112453   2.026   1.649   0.342  0.1032 -0.6643  0.4103
  828SOL    HW212454   2.084   1.802   0.336 -0.6473 -0.3983 -0.1996
  829SOL     OW12455   5.240   3.416   0.829  0.4481 -0.0862 -0.2223
  829SOL    HW112456   5.339   3.406   0.815  0.9491  0.4359  2.6734
  829SOL    HW212457   5.218   3.513   0.841 -0.2361 -0.3015  0.2858
  830SOL     OW12458   0.665   3.489   1.499 -0.5916 -0.1331  0.0248
  830SOL    HW112459   0.756   3.502   1.539 -1.0050  1.2598  0.5417
  830SOL    HW212460   0.670   3.506   1.400  0.5401 -4.0967 -0.6942
  831SOL     OW12461   3.375   9.406   2.090  0.2542  0.0753 -0.0673
  831SOL    HW112462   3.352   9.380   2.184 -1.0074  0.6588 -0.2024
  831SOL    HW212463   3.360   9.328   2.030 -0.3698  0.1419  0.0017
  832SOL     OW12464   3.444   4.068   0.168 -0.2963 -0.0667  0.5440
  832SOL    HW112465   3.393   4.135   0.222 -0.4405  0.2390  0.0304
  832SOL    HW212466   3.464   4.106   0.078 -0.4431 -0.7442  0.2257
  833SOL     OW12467   2.010   3.641   1.224 -0.0137 -0.0702 -0.2885
  833SOL    HW112468   1.914   3.618   1.207 -0.6563  2.1764  0.0922
  833SOL    HW212469   2.069   3.568   1.189 -1.9668 -3.0038  2.2478
  834SOL     OW12470   9.602   4.190   0.073 -0.3306 -0.0481  0.3614
  834SOL    HW112471   9.530   4.121   0.084 -2.0122  1.7997  1.2193
  834SOL    HW212472   9.562   4.281   0.077  2.3350  1.0789  2.9444
  835SOL     OW12473   0.971   7.306   0.547  0.3056  0.2337  0.4593
  835SOL    HW112474   1.054   7.285   0.598 -0.1777  0.0442  1.1772
  835SOL    HW212475   0.983   7.280   0.451 -0.1111 -3.0004  1.2213
  836SOL     OW12476   2.293   2.515   2.246 -0.7170  0.8790  0.1705
  836SOL    HW112477   2.294   2.425   2.201 -1.8407  0.9615 -0.0297
  836SOL    HW212478   2.363   2.517   2.317 -0.8193 -0.2242  0.3162
  837SOL     OW12479   3.517   1.584   1.170 -0.0324  0.1833  0.4308
  837SOL    HW112480   3.515   1.597   1.269 -1.5584 -0.8941  0.5604
  837SOL    HW212481   3.476   1.664   1.125 -0.7699 -0.0165  0.7460
  838SOL     OW12482   3.734   4.127   0.030  0.3702  0.8735  0.2991
  838SOL    HW112483   3.648   4.119  -0.021 -0.3455 -0.1893  1.6581
  838SOL    HW212484   3.733   4.211   0.084  0.0717  0.7340  0.5129
  839SOL     OW12485   4.050   4.213   1.676  0.2772  0.3034 -0.0845
  839SOL    HW112486   4.002   4.138   1.630 -1.0746  0.8622  0.3929
  839SOL    HW212487   4.096   4.178   1.758  0.9097 -0.2856 -0.6849
  840SOL     OW12488   2.333   5.182   1.460 -0.0679  0.4299 -0.3563
  840SOL    HW112489   2.389   5.141   1.388 -0.7555  0.7456 -1.0650
  840SOL    HW212490   2.257   5.120   1.482  0.5412  0.0095  0.5950
  841SOL     OW12491   3.974   9.084   0.791  0.4093  0.5197  0.1069
  841SOL    HW112492   3.974   9.069   0.890 -0.6752  1.5989  0.2792
  841SOL    HW212493   4.067   9.108   0.762  0.8364 -0.2631  0.7748
  842SOL     OW12494   3.669   2.889   1.607 -0.3473  0.3286 -0.5654
  842SOL    HW112495   3.580   2.878   1.652 -0.8556  0.6747 -1.4717
  842SOL    HW212496   3.666   2.968   1.547  0.7666  0.6767 -0.1664
  843SOL     OW12497   2.403   1.303   1.018 -0.0883 -0.0336 -0.5182
  843SOL    HW112498   2.416   1.295   0.919  2.5743  0.6403 -0.2536
  843SOL    HW212499   2.362   1.391   1.039 -3.0898 -1.1947 -1.1754
  844SOL     OW12500   3.504   3.297   0.625  0.4069 -0.0953 -0.3208
  844SOL    HW112501   3.525   3.395   0.623  3.1302 -0.5683  1.2685
  844SOL    HW212502   3.475   3.272   0.717 -2.7614 -0.3838 -1.3341
  845SOL     OW12503   1.726   9.724   2.113  0.0711 -0.0800 -0.5232
  845SOL    HW112504   1.757   9.650   2.173 -0.2681  0.2396  0.0530
  845SOL    HW212505   1.661   9.782   2.163 -0.6147 -0.1206 -1.3690
  846SOL     OW12506   3.357   8.818   0.897  0.1748  0.9806 -0.3386
  846SOL    HW112507   3.422   8.742   0.905 -1.0938 -0.1647 -0.6838
  846SOL    HW212508   3.382   8.875   0.819  0.2625  0.0331 -1.0158
  847SOL     OW12509   1.122   3.132   2.209 -0.1524 -0.4679  0.4958
  847SOL    HW112510   1.150   3.066   2.279  2.6020  0.5647  0.4470
  847SOL    HW212511   1.106   3.084   2.123 -0.1483 -1.3233  0.9654
  848SOL     OW12512   2.858   9.468   1.153 -0.0371  0.3333  0.2175
  848SOL    HW112513   2.783   9.462   1.219 -1.0627  1.0966 -0.8682
  848SOL    HW212514   2.887   9.564   1.144  0.0446  0.2468 -0.4823
  849SOL     OW12515   4.063   3.535   2.076 -0.6693  0.0435  0.0610
  849SOL    HW112516   4.032   3.610   2.016  0.3933 -0.5692 -1.2836
  849SOL    HW212517   4.012   3.539   2.162 -3.0422  0.2848 -1.2984
  850SOL     OW12518   3.741   2.781   0.623 -0.3789 -0.3050 -0.0182
  850SOL    HW112519   3.644   2.773   0.646 -0.2504 -0.7376  0.3624
  850SOL    HW212520   3.786   2.693   0.637  0.2020  0.0614  0.4366
  851SOL     OW12521   2.449   6.205   2.340 -0.1604 -0.1849  0.0185
  851SOL    HW112522   2.384   6.217   2.414 -0.2470  0.3030 -0.1344
  851SOL    HW212523   2.401   6.211   2.252  0.4023  2.4341 -0.1696
  852SOL     OW12524   0.176   5.181   0.481  0.2155  0.2174 -0.3115
  852SOL    HW112525   0.210   5.248   0.415  0.3370 -0.2430 -0.7193
  852SOL    HW212526   0.089   5.213   0.518  1.2552  1.5738  1.0104
  853SOL     OW12527   9.182   5.518   0.737  0.5084 -0.1634 -0.1695
  853SOL    HW112528   9.232   5.458   0.674  1.7960  0.3027  0.3824
  853SOL    HW212529   9.211   5.501   0.831  0.2545  0.7029  0.0790
  854SOL     OW12530   2.382   8.031   0.143 -0.0456 -0.1847  0.1742
  854SOL    HW112531   2.282   8.034   0.137  0.1373  2.7895 -2.7994
  854SOL    HW212532   2.417   7.963   0.079 -0.1416 -1.2673  1.2563
  855SOL     OW12533   2.820   3.481   1.403 -0.3305  0.2860 -0.0087
  855SOL    HW112534   2.864   3.392   1.416 -1.0974 -0.0732  0.1540
  855SOL    HW212535   2.880   3.553   1.438  0.9825 -0.0278 -1.5668
  856SOL     OW12536   0.352   5.405   1.618 -0.8156 -0.3771 -0.2745
  856SOL    HW112537   0.391   5.349   1.691 -1.3125 -1.5657 -0.9032
  856SOL    HW212538   0.256   5.426   1.640 -0.5938  0.3491  0.0217
  857SOL     OW12539   4.064   2.765   0.354 -0.3418  0.7100  0.4228
  857SOL    HW112540   4.009   2.771   0.271  0.2213  2.1598  0.1406
  857SOL    HW212541   4.132   2.838   0.354  1.4042 -0.8726  0.9069
  858SOL     OW12542   9.852   3.461   2.375 -0.6384 -0.3645  0.2182
  858SOL    HW112543   9.858   3.544   2.430 -2.5561 -1.8998  2.9058
  858SOL    HW212544   9.774   3.467   2.313 -0.1721  0.2550 -0.3025
  859SOL     OW12545   9.278   4.955   1.114  0.0241 -0.0527 -0.1971
  859SOL    HW112546   9.260   4.890   1.039  0.9633 -0.8943  0.3023
  859SOL    HW212547   9.337   4.912   1.182  0.0093  1.0691  0.5328
  860SOL     OW12548   1.922   5.125   1.614  0.6690 -0.1705 -0.6192
  860SOL    HW112549   1.842   5.155   1.563 -0.5399 -1.3412  0.5728
  860SOL    HW212550   1.975   5.205   1.642 -1.5478  0.7772  0.9579
  861SOL     OW12551   8.817   4.064   0.829  0.1317  0.0503 -0.3076
  861SOL    HW112552   8.887   4.052   0.899  1.3838  0.2983 -1.4947
  861SOL    HW212553   8.817   4.159   0.797  0.5757 -0.3935 -1.6684
  862SOL     OW12554   2.017   3.660   2.588 -0.1735  0.5947 -0.3346
  862SOL    HW112555   1.943   3.681   2.652 -0.0709  0.1799 -0.0857
  862SOL    HW212556   1.984   3.676   2.495 -0.1540  1.7238 -0.1638
  863SOL     OW12557   2.313   2.977   2.466 -0.2583  0.1447  0.0033
  863SOL    HW112558   2.225   3.022   2.479 -0.1037  0.5390 -0.2953
  863SOL    HW212559   2.306   2.881   2.495 -0.4907  0.4479  0.9645
  864SOL     OW12560   1.041   5.858   2.499 -0.0112 -0.3527 -0.5991
  864SOL    HW112561   1.054   5.761   2.519  0.6176  0.1575  1.5801
  864SOL    HW212562   1.129   5.904   2.500 -0.6253  0.8939  2.1264
  865SOL     OW12563   0.103   3.202   0.169  0.4655  0.1266  0.3879
  865SOL    HW112564   0.067   3.274   0.110 -2.2886 -1.3735  0.2045
  865SOL    HW212565   0.142   3.129   0.113 -1.0778 -0.7398  0.4118
  866SOL     OW12566   2.830   0.658   0.092  0.6006  0.7582 -0.1071
  866SOL    HW112567   2.869   0.741   0.051  2.1993 -0.0680 -0.3020
  866SOL    HW212568   2.904   0.598   0.123 -0.5486  0.3524  1.9792
  867SOL     OW12569   1.664   0.339   1.774  0.4103 -0.4209 -0.3367
  867SOL    HW112570   1.631   0.303   1.861 -0.6946 -0.4490 -0.7681
  867SOL    HW212571   1.635   0.279   1.699  1.0536 -0.2041 -0.7663
  868SOL     OW12572   3.122   1.693   2.189 -0.5312  0.4058  0.4583
  868SOL    HW112573   3.100   1.740   2.105 -2.5567  1.9492  1.8084
  868SOL    HW212574   3.213   1.721   2.221 -0.6020  1.3333 -0.1496
  869SOL     OW12575   4.965   3.408   0.804  0.5955 -0.8168 -0.5029
  869SOL    HW112576   4.922   3.352   0.733 -0.7578 -0.6496  0.1831
  869SOL    HW212577   5.062   3.384   0.811  0.3064 -2.1874 -1.0755
  870SOL     OW12578   1.474   8.295   1.287  0.1146 -0.0400  0.9930
  870SOL    HW112579   1.522   8.379   1.314  0.0760  0.0459  0.8025
  870SOL    HW212580   1.382   8.295   1.327  1.0578 -1.2767  3.2373
  871SOL     OW12581   0.371   5.459   2.284  0.2535  0.6608 -0.5089
  871SOL    HW112582   0.301   5.522   2.248 -0.5599 -0.4895 -0.9514
  871SOL    HW212583   0.400   5.397   2.211  0.1535 -0.2903  0.2557
  872SOL     OW12584   3.901   2.744   0.085 -0.0152 -0.1947 -0.3978
  872SOL    HW112585   3.956   2.694   0.018  0.9272  1.9154 -1.2702
  872SOL    HW212586   3.857   2.822   0.040  1.1852  1.6693  1.5710
  873SOL     OW12587   0.967   5.621   0.822 -0.1420  0.7363  0.2127
  873SOL    HW112588   1.030   5.553   0.860 -1.0321  1.3700  2.9192
  873SOL    HW212589   0.880   5.577   0.798  0.0382  0.5477 -0.1132
  874SOL     OW12590   3.940   2.474   1.599 -0.2157  0.1666 -1.2308
  874SOL    HW112591   3.870   2.456   1.668  0.7037 -1.4326 -0.6984
  874SOL    HW212592   3.962   2.572   1.599 -0.3724  0.2190  0.6006
  875SOL     OW12593   0.037   5.389   2.461 -0.0317  0.2255  0.1950
  875SOL    HW112594   0.137   5.383   2.467 -0.1972 -0.7172  2.3881
  875SOL    HW212595   0.006   5.467   2.515 -0.5092  0.5457 -0.5268
  876SOL     OW12596   2.835   4.413   1.035 -0.1821 -0.2506  0.3343
  876SOL    HW112597   2.844   4.503   0.992 -0.6100 -0.3856 -0.0433
  876SOL    HW212598   2.924   4.383   1.068  0.1476 -0.1367 -0.4517
  877SOL     OW12599   2.799   5.325   2.323 -0.0776  0.3359 -0.0512
  877SOL    HW112600   2.736   5.247   2.331 -1.0057  1.2557  1.9962
  877SOL    HW212601   2.759   5.394   2.263  0.1176 -0.1644 -0.7592
  878SOL     OW12602   1.991   5.260   0.282 -0.0082  0.2706 -0.2302
  878SOL    HW112603   2.022   5.325   0.351  0.8389 -0.2650 -0.0870
  878SOL    HW212604   1.893   5.269   0.268  0.4468  3.1524 -1.8871
  879SOL     OW12605   0.506   4.342   0.377  0.0686  0.1500  0.0006
  879SOL    HW112606   0.566   4.303   0.447 -0.4565  0.3168  0.5410
  879SOL    HW212607   0.477   4.433   0.404  0.8597  0.7169 -1.0140
  880SOL     OW12608   2.594   2.507   2.060  0.4447 -0.2127 -0.0040
  880SOL    HW112609   2.589   2.591   2.114  1.3111  0.2870 -0.6776
  880SOL    HW212610   2.671   2.514   1.996  0.5838 -1.5590  0.0050
  881SOL     OW12611   3.553   3.808   0.199 -0.0016 -0.1082  0.4271
  881SOL    HW112612   3.635   3.786   0.146  0.6949  0.0428  1.4051
  881SOL    HW212613   3.530   3.905   0.185  1.1881  0.3804  1.6981
  882SOL     OW12614   4.191   2.868   1.122 -0.8991 -0.3231  0.6348
  882SOL    HW112615   4.125   2.839   1.053 -0.4052  0.0313  0.0121
  882SOL    HW212616   4.168   2.825   1.210 -1.3249 -1.0514  0.1744
  883SOL     OW12617   2.053   2.625   2.400 -0.4264 -0.4650 -0.1263
  883SOL    HW112618   2.048   2.547   2.337 -1.3307 -1.1565  0.7795
  883SOL    HW212619   2.137   2.677   2.382 -1.0975 -0.1190 -2.5008
  884SOL     OW12620   2.516   5.829   1.282 -0.3570  0.0204 -0.5316
  884SOL    HW112621   2.600   5.872   1.315 -0.2291 -1.1783  0.7951
  884SOL    HW212622   2.537   5.773   1.202  0.1482 -0.3288 -0.1655
  885SOL     OW12623   1.968   1.301   0.805 -0.2042  0.3736  0.1336
  885SOL    HW112624   2.060   1.277   0.774 -0.2227  1.4715 -0.8215
  885SOL    HW212625   1.924   1.220   0.844  0.2031 -0.8423 -1.8224
  886SOL     OW12626   2.828   5.666   2.236 -0.1514  0.0747 -0.3728
  886SOL    HW112627   2.784   5.653   2.147 -0.6950 -2.4411  0.2448
  886SOL    HW212628   2.759   5.680   2.306 -0.0591 -3.8271  0.5878
  887SOL     OW12629   3.115   5.895   1.569 -0.4697 -0.3613 -0.1008
  887SOL    HW112630   3.025   5.899   1.612  0.4154  0.3055  1.7287
  887SOL    HW212631   3.142   5.800   1.555  0.5456 -0.6863  3.6684
  888SOL     OW12632   1.764   7.234   0.740 -0.0263 -0.5605 -0.3746
  888SOL    HW112633   1.731   7.227   0.835 -0.5704 -0.3109 -0.5429
  888SOL    HW212634   1.686   7.232   0.678  0.2455  0.5884 -0.7549
  889SOL     OW12635   4.598   3.006   1.719  0.0414  0.3211  0.5914
  889SOL    HW112636   4.589   3.090   1.666  0.1252  0.5486  0.9355
  889SOL    HW212637   4.509   2.960   1.726 -0.1200  0.6776  0.8900
  890SOL     OW12638   0.874   6.742   1.754 -0.1811 -0.0018  0.2524
  890SOL    HW112639   0.818   6.776   1.679  0.1724 -0.4988 -0.2408
  890SOL    HW212640   0.871   6.642   1.755 -1.8385  0.0204  2.1578
  891SOL     OW12641   1.478   5.777   1.890 -0.5322  0.3912  0.1555
  891SOL    HW112642   1.520   5.687   1.908 -1.6339 -0.3326 -0.8266
  891SOL    HW212643   1.512   5.843   1.957  1.3188 -0.4372  0.0777
  892SOL     OW12644   0.889   4.441   2.261  0.1911 -0.0851 -0.3721
  892SOL    HW112645   0.889   4.389   2.176  1.5941 -0.5638 -0.1046
  892SOL    HW212646   0.849   4.531   2.246  1.7701  0.3843 -1.8845
  893SOL     OW12647   0.568   6.424   1.198  0.6434  0.2971 -0.5739
  893SOL    HW112648   0.663   6.447   1.174  0.3690 -0.5392 -2.6309
  893SOL    HW212649   0.509   6.500   1.172  0.3550 -0.5765 -2.5703
  894SOL     OW12650   0.098   5.550   2.257  0.7283  0.0743  0.5050
  894SOL    HW112651   0.102   5.626   2.321  1.6725 -0.4023  1.0230
  894SOL    HW212652   0.075   5.466   2.306  0.6319 -0.1424  0.0947
  895SOL     OW12653   3.951   1.361   0.450 -0.1421  0.1186 -0.0981
  895SOL    HW112654   3.997   1.372   0.362  1.1568  2.7123  0.8430
  895SOL    HW212655   3.854   1.384   0.440 -0.8475 -3.2216 -1.6078
  896SOL     OW12656   3.674   2.932   1.909  0.1799 -0.0426 -0.1401
  896SOL    HW112657   3.636   3.025   1.907 -0.4768 -0.2943  0.4715
  896SOL    HW212658   3.700   2.905   1.816 -2.3954 -0.3758 -0.8003
  897SOL     OW12659   1.066   7.849   2.529 -0.1144  0.3162 -0.0707
  897SOL    HW112660   1.045   7.942   2.559  1.0118  0.4471  0.3574
  897SOL    HW212661   1.123   7.804   2.598 -1.5875 -1.0853  0.2471
  898SOL     OW12662   3.700   3.679   2.322 -0.5685  0.0942  0.2577
  898SOL    HW112663   3.607   3.643   2.313 -0.0427 -0.7759 -2.1755
  898SOL    HW212664   3.730   3.714   2.233  1.3845  0.5008  1.0684
  899SOL     OW12665   0.146   4.640   2.139 -0.1717  0.2408  0.3825
  899SOL    HW112666   0.140   4.545   2.109  1.4160  1.0391 -2.6123
  899SOL    HW212667   0.055   4.673   2.164 -0.9721 -1.5637 -0.0923
  900SOL     OW12668   3.499   0.908   0.959 -0.2007  0.0198 -0.2321
  900SOL    HW112669   3.577   0.967   0.981 -0.2617  0.6783 -1.6853
  900SOL    HW212670   3.417   0.964   0.953 -0.2830 -0.2261 -1.4801
  901SOL     OW12671   9.670   5.405   1.062 -0.4042 -0.0524  0.6828
  901SOL    HW112672   9.728   5.466   1.116  0.9607 -2.5452  2.1224
  901SOL    HW212673   9.619   5.345   1.124 -0.7855 -1.2101 -0.7297
  902SOL     OW12674   4.358   3.211   0.057 -0.5194 -0.2978 -0.0788
  902SOL    HW112675   4.315   3.268   0.127 -0.7924  0.5553 -0.9224
  902SOL    HW212676   4.454   3.194   0.082 -0.7012 -0.2653  0.6513
  903SOL     OW12677   1.563   2.751   1.676 -0.3455 -0.4769  0.0591
  903SOL    HW112678   1.633   2.737   1.607  0.7194 -0.2359  1.0857
  903SOL    HW212679   1.543   2.664   1.721 -0.5375 -0.4953 -0.0582
  904SOL     OW12680   2.156   8.088   2.308 -0.3174 -0.0317 -0.3696
  904SOL    HW112681   2.147   8.161   2.375  1.7452 -1.5959  1.6915
  904SOL    HW212682   2.245   8.094   2.262 -0.6702 -0.4642 -1.1225
  905SOL     OW12683   4.426   3.898   1.394 -0.2147 -0.3386  0.2926
  905SOL    HW112684   4.451   3.832   1.465  0.1440 -1.1329 -0.5571
  905SOL    HW212685   4.508   3.921   1.340 -0.8015 -1.0655 -0.9448
  906SOL     OW12686   4.305   4.498   1.346  0.5563  0.3179 -0.0124
  906SOL    HW112687   4.298   4.597   1.331  1.0906  0.4729  0.7237
  906SOL    HW212688   4.219   4.464   1.385 -0.5116  0.0625 -2.5048
  907SOL     OW12689   0.951   5.845   0.532  0.4346 -0.7489  0.2245
  907SOL    HW112690   0.932   5.856   0.630  1.2049 -0.0912  0.3144
  907SOL    HW212691   0.869   5.865   0.479  0.1176 -0.7233  0.7267
  908SOL     OW12692   3.854   1.646   1.870  0.3281 -0.1205  0.5236
  908SOL    HW112693   3.924   1.698   1.919  0.6713 -0.7982  0.7570
  908SOL    HW212694   3.766   1.692   1.879  0.8889  1.1654 -0.4369
  909SOL     OW12695   2.609   4.052   2.407 -0.3348 -0.0262  0.4940
  909SOL    HW112696   2.512   4.075   2.415 -0.2725  0.5150 -0.2377
  909SOL    HW212697   2.631   3.977   2.469 -1.1331  0.1236  0.9588
  910SOL     OW12698   4.680   3.376   0.904  0.4328 -0.0843 -0.6201
  910SOL    HW112699   4.772   3.414   0.900 -0.5658  2.4035 -0.9201
  910SOL    HW212700   4.665   3.333   0.993  0.5071  3.1872  1.0239
  911SOL     OW12701   3.240   0.897   2.128  0.4239  0.5768  0.1905
  911SOL    HW112702   3.148   0.920   2.158 -0.2320  0.0148 -1.3192
  911SOL    HW212703   3.237   0.865   2.033  2.1043  0.0482  0.2945
  912SOL     OW12704   2.368   4.129   2.474 -0.1628  0.4712  0.0588
  912SOL    HW112705   2.293   4.179   2.430 -0.2614 -1.7573 -2.4215
  912SOL    HW212706   2.334   4.085   2.558 -1.2957  0.5490 -0.3561
  913SOL     OW12707   5.096   4.012   0.213 -0.1628  0.1511 -0.3079
  913SOL    HW112708   5.008   4.015   0.165 -0.6244 -0.1435  0.5067
  913SOL    HW212709   5.150   4.093   0.188 -1.4876  1.3711  0.7293
  914SOL     OW12710   2.413   1.837   0.898  0.0037 -0.1968  0.0137
  914SOL    HW112711   2.362   1.923   0.900  1.3674  0.6005  1.1804
  914SOL    HW212712   2.454   1.825   0.808 -0.3607  0.2675 -0.2208
  915SOL     OW12713   1.104   9.595   0.830 -0.3396 -0.3381  0.1969
  915SOL    HW112714   1.012   9.558   0.847 -1.2594  1.4145 -0.7525
  915SOL    HW212715   1.173   9.532   0.866 -1.9195 -1.5439  1.1789
  916SOL     OW12716   9.953   3.516   1.014  0.6874 -0.1208  0.1242
  916SOL    HW112717   9.959   3.444   0.944 -0.3388 -1.3405  1.2575
  916SOL    HW212718   9.920   3.600   0.971  2.3379 -0.1687 -1.3118
  917SOL     OW12719   3.094   4.497   0.186 -0.0994  0.1899 -0.6337
  917SOL    HW112720   3.127   4.441   0.110 -0.6906 -0.7926 -0.1793
  917SOL    HW212721   2.995   4.506   0.180  0.0621  1.6947 -1.0328
  918SOL     OW12722   0.987   4.525   1.111 -0.0311  0.0596  0.1609
  918SOL    HW112723   0.984   4.587   1.190  0.4845 -0.4512  0.5887
  918SOL    HW212724   0.932   4.444   1.130 -0.0060 -0.0065 -0.0509
  919SOL     OW12725   1.828   6.678   0.637 -0.3726  0.3210  0.2955
  919SOL    HW112726   1.871   6.648   0.552 -0.2319  0.6741  0.2414
  919SOL    HW212727   1.788   6.768   0.624  0.8595  0.9810  1.0018
  920SOL     OW12728   3.825   9.334   0.137 -0.3357 -0.1527  1.0911
  920SOL    HW112729   3.858   9.239   0.146 -1.5996 -0.6261  0.8022
  920SOL    HW212730   3.904   9.395   0.130  0.5199 -1.4510 -1.6012
  921SOL     OW12731   1.592   0.871   2.407  0.1746  0.1030 -0.7777
  921SOL    HW112732   1.504   0.903   2.371  1.2775  3.5284 -0.5750
  921SOL    HW212733   1.598   0.893   2.505  1.2575 -0.1043 -0.7919
  922SOL     OW12734   1.633   8.948   2.020  0.0503 -0.2418 -0.1517
  922SOL    HW112735   1.634   8.901   1.931  1.4148 -0.7162  0.1081
  922SOL    HW212736   1.628   9.047   2.005  1.9060 -0.2317 -0.8036
  923SOL     OW12737   2.149   8.949   0.831 -0.2195 -0.4733 -0.0575
  923SOL    HW112738   2.120   9.036   0.872  3.0904  0.9896 -0.6941
  923SOL    HW212739   2.077   8.881   0.844 -2.8041  2.2845  0.6326
  924SOL     OW12740   1.028   4.837   1.700  0.0994 -0.3996  0.0563
  924SOL    HW112741   0.969   4.905   1.744  0.1692 -0.2389 -0.0991
  924SOL    HW212742   1.022   4.751   1.750 -1.2088 -0.7376 -0.6962
  925SOL     OW12743   2.271   7.039   1.568  0.0198  0.4886  0.1510
  925SOL    HW112744   2.348   7.102   1.575  1.3780 -1.2237  1.0434
  925SOL    HW212745   2.193   7.076   1.619  1.0593  1.0784  1.3462
  926SOL     OW12746   0.372   6.313   1.338 -0.6749 -0.2912  0.2617
  926SOL    HW112747   0.365   6.213   1.336  1.2404 -0.4550  0.9887
  926SOL    HW212748   0.451   6.342   1.283  0.2541  0.6506  2.0625
  927SOL     OW12749   9.679   5.901   0.639 -0.0464 -0.0143 -0.2152
  927SOL    HW112750   9.754   5.965   0.623  1.1869 -1.4632 -0.3117
  927SOL    HW212751   9.702   5.840   0.715 -1.1969 -0.3555 -0.1270
  928SOL     OW12752   3.719   4.358   0.178  0.5261 -0.5822  0.0075
  928SOL    HW112753   3.699   4.425   0.106  1.4793  0.3615  0.6175
  928SOL    HW212754   3.805   4.381   0.222  0.2034 -1.4699  1.1149
  929SOL     OW12755   9.631   3.769   0.172 -0.3255  0.2244  0.7196
  929SOL    HW112756   9.699   3.842   0.160  0.2480 -0.0823  2.0557
  929SOL    HW212757   9.677   3.681   0.168 -0.9378 -0.0539 -0.3186
  930SOL     OW12758   2.886   5.651   1.262 -0.2959 -0.3826  0.1217
  930SOL    HW112759   2.871   5.736   1.313 -1.1038  0.5288 -1.6165
  930SOL    HW212760   2.811   5.588   1.280  0.3865 -0.8322  1.5423
  931SOL     OW12761   9.814   4.834   0.093  0.0710  0.4237 -0.2182
  931SOL    HW112762   9.893   4.800   0.042 -0.3822  0.2856 -0.8251
  931SOL    HW212763   9.755   4.757   0.119  0.3010  0.4924  0.5179
  932SOL     OW12764   2.532   9.109   1.431  0.4542 -0.0348  0.1540
  932SOL    HW112765   2.477   9.133   1.350 -1.0317 -0.2256  1.0934
  932SOL    HW212766   2.487   9.035   1.481  1.6486 -0.2840  0.8786
  933SOL     OW12767   3.145   9.148   2.117 -0.8285 -0.0060  0.0225
  933SOL    HW112768   3.215   9.079   2.099 -2.5353 -2.0321  0.8932
  933SOL    HW212769   3.175   9.207   2.192  1.1055  0.8945 -1.4382
  934SOL     OW12770   0.134   4.663   1.200 -0.1282 -0.3599 -0.2272
  934SOL    HW112771   0.190   4.710   1.268 -0.3082  0.1723 -0.4477
  934SOL    HW212772   0.166   4.568   1.191  2.0244  0.4531 -1.7470
  935SOL     OW12773   9.943   5.362   0.852 -0.2830  0.0849 -0.0877
  935SOL    HW112774   9.923   5.457   0.876  0.6619  0.3113 -0.1419
  935SOL    HW212775   9.900   5.339   0.765  1.4101  1.2141 -1.2566
  936SOL     OW12776   2.814   4.457   2.454  0.0810  0.0157  0.3475
  936SOL    HW112777   2.736   4.504   2.496 -0.4518  0.1410 -0.7651
  936SOL    HW212778   2.818   4.363   2.488 -0.7938 -0.1105  0.1232
  937SOL     OW12779   1.600   5.247   2.457 -0.0438 -0.0175 -0.5750
  937SOL    HW112780   1.651   5.190   2.521  1.1470  0.0019 -1.4766
  937SOL    HW212781   1.616   5.343   2.478  0.8753 -0.0073 -1.2930
  938SOL     OW12782   3.264   4.855   0.316 -0.3218 -0.2499  0.8171
  938SOL    HW112783   3.203   4.933   0.303 -0.4845 -0.1981  1.8182
  938SOL    HW212784   3.212   4.778   0.352  0.0993 -0.3765  1.1610
  939SOL     OW12785   1.804   0.242   0.145 -0.2728  0.3887  0.1506
  939SOL    HW112786   1.890   0.264   0.192 -0.3672  0.8562  0.1065
  939SOL    HW212787   1.728   0.248   0.210 -0.4889  1.7203 -0.2169
  940SOL     OW12788   3.396   9.735   0.215  0.2699 -0.0053 -0.4736
  940SOL    HW112789   3.298   9.743   0.197 -0.0617 -0.3019  1.1970
  940SOL    HW212790   3.413   9.740   0.313  1.8116 -1.1578 -0.6599
  941SOL     OW12791   1.037   5.489   1.186 -0.2526 -0.4720 -0.2259
  941SOL    HW112792   1.118   5.532   1.226 -0.1960  0.0290 -0.8660
  941SOL    HW212793   1.062   5.442   1.101 -0.6407 -0.2587 -0.4614
  942SOL     OW12794   0.374   5.635   0.826  0.4799 -0.6325 -0.3263
  942SOL    HW112795   0.397   5.553   0.878  0.4449 -0.6221 -0.2946
  942SOL    HW212796   0.351   5.709   0.889  2.2419 -0.0836 -0.3047
  943SOL     OW12797   3.666   9.528   1.004 -0.2045  0.2521 -0.2452
  943SOL    HW112798   3.653   9.575   0.917 -0.8847  0.4982 -0.0214
  943SOL    HW212799   3.627   9.436   0.999  1.3046 -0.3603 -0.7455
  944SOL     OW12800   3.688   1.368   0.453  0.7615  0.1238  0.0740
  944SOL    HW112801   3.653   1.310   0.527  1.8920 -0.8546 -0.1336
  944SOL    HW212802   3.619   1.377   0.381 -0.4752  1.3651  1.3900
  945SOL     OW12803   0.890   4.123   0.722 -0.2545 -0.0366 -0.0058
  945SOL    HW112804   0.953   4.046   0.715  0.6447  0.6024  0.9982
  945SOL    HW212805   0.941   4.207   0.739 -1.1993  0.8513 -1.4266
  946SOL     OW12806   2.930   8.345   0.048 -0.2484 -0.1344  0.2311
  946SOL    HW112807   2.936   8.250   0.018 -0.7462  0.2275 -1.0219
  946SOL    HW212808   2.846   8.386   0.013 -0.4409  0.5395  1.4477
  947SOL     OW12809   9.896   6.113   1.954 -0.7832 -0.7230 -0.7565
  947SOL    HW112810   9.819   6.161   1.997  0.0065 -0.1533  0.0248
  947SOL    HW212811   9.954   6.178   1.905  0.3312 -0.8435  0.3703
  948SOL     OW12812   9.060   4.845   0.732 -0.0010  0.0226 -0.2210
  948SOL    HW112813   9.105   4.763   0.766 -0.4550 -0.2108 -0.1730
  948SOL    HW212814   9.009   4.888   0.807 -0.3209 -0.0297 -0.4086
  949SOL     OW12815   0.290   5.983   1.885 -0.0298 -0.0560  0.0005
  949SOL    HW112816   0.281   5.994   1.984  1.6039  2.1722 -0.0718
  949SOL    HW212817   0.220   6.038   1.839 -2.1883 -2.7670 -0.0958
  950SOL     OW12818   4.650   3.383   1.708  0.2272 -0.4111  0.2279
  950SOL    HW112819   4.739   3.375   1.663 -0.0379  1.0731 -0.5572
  950SOL    HW212820   4.578   3.352   1.647  0.0334 -0.0066  0.2503
  951SOL     OW12821   1.704   2.336   0.557 -0.2010  0.4104 -0.6591
  951SOL    HW112822   1.705   2.366   0.461 -1.2958  1.6954 -0.2804
  951SOL    HW212823   1.611   2.309   0.582 -0.1520  1.1943  0.3820
  952SOL     OW12824   1.963   3.196   0.446  0.0420 -0.1786 -0.3415
  952SOL    HW112825   2.034   3.248   0.398 -0.6210  0.0197 -1.1232
  952SOL    HW212826   1.973   3.099   0.423 -0.2769 -0.0836 -0.8965
  953SOL     OW12827   0.789   3.345   0.600 -0.0851 -0.3712  0.2689
  953SOL    HW112828   0.704   3.326   0.649  0.1188 -0.1205  0.7233
  953SOL    HW212829   0.839   3.419   0.647  0.4633 -0.6346  0.1039
  954SOL     OW12830   0.881   7.072   0.783  0.0799  0.4718  0.3100
  954SOL    HW112831   0.849   7.009   0.714  1.4403 -0.9120  0.8982
  954SOL    HW212832   0.829   7.157   0.779  0.0720  0.3604 -2.3099
  955SOL     OW12833   3.509   0.333   0.955  0.2350 -0.1499  0.6529
  955SOL    HW112834   3.433   0.383   0.995  0.8925  0.9082  0.5929
  955SOL    HW212835   3.595   0.371   0.988  0.7861  0.6605 -1.6278
  956SOL     OW12836   0.294   6.098   2.134 -0.2833  0.1188  0.0707
  956SOL    HW112837   0.329   6.010   2.166 -1.0953 -0.6873 -1.2255
  956SOL    HW212838   0.230   6.135   2.201 -2.1700 -1.6723 -0.6843
  957SOL     OW12839   3.312   3.031   2.254  0.1227  0.4521 -0.6499
  957SOL    HW112840   3.378   2.986   2.194 -0.5872  0.9810 -1.8324
  957SOL    HW212841   3.251   3.089   2.200 -2.5969 -1.5686  0.1399
  958SOL     OW12842   3.538   2.106   0.788 -0.0585 -0.8059 -0.2277
  958SOL    HW112843   3.502   2.184   0.841  1.6176 -0.7293  0.8194
  958SOL    HW212844   3.605   2.139   0.722  1.6088 -1.4858  1.0962
  959SOL     OW12845   9.339   5.486   2.041 -0.5193 -0.2943  0.5136
  959SOL    HW112846   9.242   5.468   2.024 -0.7781  2.2651 -1.0710
  959SOL    HW212847   9.354   5.504   2.138 -1.7649 -0.0717  0.6665
  960SOL     OW12848   1.723   1.941   0.658  0.2021  0.0600 -0.2411
  960SOL    HW112849   1.723   1.994   0.573 -3.5264 -0.6785 -0.7521
  960SOL    HW212850   1.717   1.844   0.637  0.1715 -0.1806  0.8633
  961SOL     OW12851   0.127   3.823   1.657  0.2052  0.5132 -0.1386
  961SOL    HW112852   0.064   3.759   1.613  1.1978  1.0746 -2.4609
  961SOL    HW212853   0.157   3.785   1.745 -0.0133 -1.7344 -1.0034
  962SOL     OW12854   3.662   4.227   2.235  0.4659  0.0412  0.0949
  962SOL    HW112855   3.567   4.243   2.262  1.0182  0.7648  1.6604
  962SOL    HW212856   3.696   4.145   2.281  1.0876  0.6693  0.7552
  963SOL     OW12857   8.923   4.972   0.941 -0.1912 -0.2292 -0.3374
  963SOL    HW112858   8.904   4.943   1.035 -0.7010 -0.0252 -0.3720
  963SOL    HW212859   8.944   5.070   0.941  1.8929 -0.6463 -0.1685
  964SOL     OW12860   3.465   2.870   2.091  0.3101 -0.4359  0.4039
  964SOL    HW112861   3.422   2.788   2.054 -0.0955 -1.6803  3.4901
  964SOL    HW212862   3.564   2.867   2.074  0.1400 -1.0057 -0.4900
  965SOL     OW12863   1.288   2.525   0.221  0.6788 -0.4311 -0.5364
  965SOL    HW112864   1.286   2.590   0.146  0.5807  1.2586  0.8993
  965SOL    HW212865   1.231   2.446   0.199 -1.5027  1.2694 -1.1508
  966SOL     OW12866   1.935   6.271   1.624 -0.1151  0.5978  0.3803
  966SOL    HW112867   2.028   6.260   1.659 -0.8086  0.1208  2.1369
  966SOL    HW212868   1.870   6.225   1.685 -1.5966  1.6849 -0.3213
  967SOL     OW12869   2.973   1.134   0.650  0.0456 -0.6740 -0.4680
  967SOL    HW112870   2.997   1.229   0.668 -0.1646 -0.6838 -0.1393
  967SOL    HW212871   2.889   1.111   0.698  0.3271 -1.1507 -0.1943
  968SOL     OW12872   1.728   8.762   0.945 -0.9107 -0.5025 -0.0104
  968SOL    HW112873   1.650   8.807   0.989 -1.3678 -0.5858 -0.7163
  968SOL    HW212874   1.722   8.776   0.846  0.3387  0.0483 -0.0148
  969SOL     OW12875   2.137   7.577   2.485 -0.3658  0.0364  0.5170
  969SOL    HW112876   2.048   7.560   2.441  0.3880 -1.2179 -0.5499
  969SOL    HW212877   2.142   7.526   2.571 -0.7455  0.2510  0.6679
  970SOL     OW12878   1.515   6.113   1.838  0.2982  0.3484 -0.0422
  970SOL    HW112879   1.510   6.102   1.739  1.6071  1.1141 -0.2070
  970SOL    HW212880   1.454   6.187   1.866 -0.5150 -0.2597 -0.2038
  971SOL     OW12881   3.751   9.880   1.064 -0.5336 -0.1399 -0.5853
  971SOL    HW112882   3.814   9.828   1.121  0.0687  0.3695 -0.7797
  971SOL    HW212883   3.769   9.859   0.968 -2.1285 -1.6678 -0.5691
  972SOL     OW12884   2.316   2.711   2.547  0.0317 -0.2386  0.1023
  972SOL    HW112885   2.369   2.636   2.506 -1.5990 -0.8752 -0.8619
  972SOL    HW212886   2.310   2.697   2.646  0.0179 -1.1986 -0.0290
  973SOL     OW12887   2.585   0.723   2.166  0.4729  0.0100  0.0882
  973SOL    HW112888   2.496   0.740   2.124 -0.1257  0.7082  1.6160
  973SOL    HW212889   2.574   0.713   2.265  1.9393 -1.0474  0.1582
  974SOL     OW12890   1.363   2.240   0.371 -0.4327  0.0768 -0.4674
  974SOL    HW112891   1.368   2.204   0.464  2.2539 -0.3924 -0.7455
  974SOL    HW212892   1.326   2.333   0.373  0.3916  0.4013  1.1821
  975SOL     OW12893   2.882   2.348   0.703  0.7631  0.5056 -0.2701
  975SOL    HW112894   2.934   2.424   0.665  1.2374  0.6798  0.7374
  975SOL    HW212895   2.938   2.265   0.701  0.4867  0.3273 -0.7326
  976SOL     OW12896   2.993   8.057   1.374 -0.0654 -0.0093 -0.2267
  976SOL    HW112897   2.981   7.960   1.397 -1.0838  0.1109 -0.2280
  976SOL    HW212898   2.909   8.091   1.331  0.3738  0.8170 -0.4219
  977SOL     OW12899   3.628   5.107   1.876  0.0818  0.6703  0.0471
  977SOL    HW112900   3.574   5.104   1.960  0.0109 -1.8694 -0.0504
  977SOL    HW212901   3.725   5.117   1.900  0.2047 -1.3998  0.5273
  978SOL     OW12902   2.985   0.870   2.612 -0.3545 -0.3151 -0.0413
  978SOL    HW112903   3.072   0.903   2.577 -0.3336 -0.4224 -0.0922
  978SOL    HW212904   2.910   0.920   2.570 -0.3796 -1.1763 -1.0566
  979SOL     OW12905   1.905   7.274   2.496  0.4905  0.0471  0.1321
  979SOL    HW112906   1.831   7.211   2.521 -0.0986  0.6222 -0.1605
  979SOL    HW212907   1.958   7.296   2.578  0.9092 -1.0905  0.1803
  980SOL     OW12908   9.088   4.326   2.080 -0.1988 -0.7399 -0.1725
  980SOL    HW112909   9.143   4.354   2.001 -0.9733 -0.2608 -0.5571
  980SOL    HW212910   9.138   4.344   2.164 -0.0507  0.3588 -0.4872
  981SOL     OW12911   0.248   4.002   2.040  0.3550  0.4261 -0.7005
  981SOL    HW112912   0.186   3.939   1.994 -0.1668  1.1076 -0.9385
  981SOL    HW212913   0.304   4.050   1.972 -0.7612  1.7956 -0.6749
  982SOL     OW12914   8.939   4.881   0.255  0.1303 -0.1758 -0.4384
  982SOL    HW112915   8.901   4.865   0.165 -0.3406 -2.1289  0.0996
  982SOL    HW212916   8.995   4.964   0.253 -0.0078 -0.1178 -2.4661
  983SOL     OW12917   4.255   3.833   1.764  0.9678  0.4380  0.2008
  983SOL    HW112918   4.192   3.769   1.807  1.6064 -0.6990 -0.5218
  983SOL    HW212919   4.217   3.926   1.768 -0.7749 -0.2314 -0.2617
  984SOL     OW12920   2.826   6.389   1.820  0.1214 -0.3823  0.0267
  984SOL    HW112921   2.913   6.352   1.788 -0.7369 -0.5805 -2.2051
  984SOL    HW212922   2.808   6.358   1.913  0.7977 -3.1850 -0.7395
  985SOL     OW12923   0.838   6.740   0.906  0.0288  0.1764  0.2047
  985SOL    HW112924   0.915   6.744   0.842  1.4720  2.8177  2.0029
  985SOL    HW212925   0.871   6.710   0.996 -1.6204 -1.5929  0.2597
  986SOL     OW12926   4.044   3.226   0.951  0.2043 -0.1354 -0.1574
  986SOL    HW112927   4.062   3.311   0.900  0.9176  0.0295  0.3693
  986SOL    HW212928   3.946   3.220   0.970  0.2031  0.7788  0.1576
  987SOL     OW12929   1.753   6.638   1.162  0.2920 -0.4262  0.7395
  987SOL    HW112930   1.833   6.666   1.109 -0.1254 -0.7118 -0.0420
  987SOL    HW212931   1.762   6.671   1.256 -0.0162  2.0275 -0.0546
  988SOL     OW12932   3.405   4.623   1.339 -0.1012 -0.1421  0.1510
  988SOL    HW112933   3.359   4.707   1.368  0.2168  0.0299  0.1483
  988SOL    HW212934   3.423   4.565   1.419 -1.1489 -0.6282  0.0584
  989SOL     OW12935   3.446   5.131   2.077  0.3271 -0.0221  0.0570
  989SOL    HW112936   3.352   5.163   2.079  0.6247  0.8404  1.3717
  989SOL    HW212937   3.482   5.129   2.171  1.6129 -0.3385 -0.4338
  990SOL     OW12938   3.108   5.067   1.305  0.1767 -0.2196 -0.3403
  990SOL    HW112939   3.202   5.091   1.331  0.5146 -1.6418 -0.1919
  990SOL    HW212940   3.070   5.138   1.246  0.3697  1.7356  1.8185
  991SOL     OW12941   4.189   3.755   1.320 -0.3439 -0.2684  0.2663
  991SOL    HW112942   4.120   3.822   1.293 -0.5671  0.4110  2.4284
  991SOL    HW212943   4.274   3.802   1.346 -0.0685 -0.8966  0.5360
  992SOL     OW12944   1.802   0.687   2.363  0.0406  0.0170 -0.4452
  992SOL    HW112945   1.726   0.750   2.376 -1.5279 -1.7283 -1.0183
  992SOL    HW212946   1.784   0.601   2.410  3.0729  0.6406  2.0681
  993SOL     OW12947   2.256   5.951   0.893  0.8574 -0.0587 -0.3856
  993SOL    HW112948   2.254   5.972   0.991  2.6132  0.5366 -0.4705
  993SOL    HW212949   2.231   5.855   0.879 -2.2993  0.6000  0.4025
  994SOL     OW12950   3.597   9.701   0.031  0.1031 -0.3908 -0.4756
  994SOL    HW112951   3.561   9.650  -0.047 -0.2834  0.0464 -0.5917
  994SOL    HW212952   3.522   9.720   0.095  0.1471  0.4223 -0.6552
  995SOL     OW12953   1.852   2.792   1.020 -0.0930  0.0772  0.1589
  995SOL    HW112954   1.765   2.811   1.066  0.5121  1.2628  0.8491
  995SOL    HW212955   1.846   2.820   0.925 -1.1166 -1.7117 -0.3334
  996SOL     OW12956   0.409   3.368   2.218  0.1657  0.9615  0.0805
  996SOL    HW112957   0.366   3.363   2.308 -0.3304 -1.1827 -0.2567
  996SOL    HW212958   0.385   3.288   2.164  1.3672  1.6685 -1.5766
  997SOL     OW12959   4.441   3.512   1.458  0.5367 -0.0242 -0.0620
  997SOL    HW112960   4.448   3.599   1.507 -0.2434  0.7333 -1.2686
  997SOL    HW212961   4.465   3.525   1.362 -0.0328 -1.0374 -0.3612
  998SOL     OW12962   1.770   3.447   0.311  0.2736 -0.5969  0.1076
  998SOL    HW112963   1.697   3.382   0.291  1.0514 -1.0960 -1.1707
  998SOL    HW212964   1.857   3.399   0.317  0.4324 -0.0861  2.2218
  999SOL     OW12965   0.456   6.999   1.217  0.0217  0.2523 -0.2846
  999SOL    HW112966   0.369   7.014   1.265  0.4427 -1.2393  0.9808
  999SOL    HW212967   0.444   7.017   1.119 -1.5988  0.4405 -0.0588
 1000SOL     OW12968   1.458   3.940   2.177 -0.3458 -0.7488 -0.5419
 1000SOL    HW112969   1.461   4.021   2.119 -1.1591 -0.1268  0.2809
 1000SOL    HW212970   1.449   3.967   2.273 -0.8436 -1.8110 -0.2735
 1001SOL     OW12971   3.067   2.016   1.483 -0.3463 -0.4952  0.3764
 1001SOL    HW112972   3.127   1.955   1.534  0.7897  0.4872  0.2423
 1001SOL    HW212973   3.073   1.996   1.385  0.9801  0.6381  0.2151
 1002SOL     OW12974   3.604   2.185   1.971  0.5957  0.6354 -0.0034
 1002SOL    HW112975   3.584   2.221   2.063  0.1120 -0.3775  0.3001
 1002SOL    HW212976   3.522   2.193   1.915  1.3065  2.5919 -0.8111
 1003SOL     OW12977   3.396   9.584   2.470  0.4722 -0.0819  0.3379
 1003SOL    HW112978   3.312   9.629   2.500  1.0306  1.4324 -0.3563
 1003SOL    HW212979   3.413   9.604   2.374  0.2148 -2.5884 -0.2748
 1004SOL     OW12980   0.982   3.558   1.021 -0.6180  0.4613 -0.1021
 1004SOL    HW112981   0.943   3.635   1.070 -1.6672  0.4805 -0.9461
 1004SOL    HW212982   0.926   3.477   1.035 -1.1259  0.5526 -1.5263
 1005SOL     OW12983   3.217   8.994   1.482 -0.1931  0.7062  0.5383
 1005SOL    HW112984   3.241   9.078   1.529  0.4617  0.9589 -0.2508
 1005SOL    HW212985   3.163   8.936   1.543  0.2720  1.2272  1.4463
 1006SOL     OW12986   2.475   2.237   0.792 -0.2030 -0.7412 -0.0265
 1006SOL    HW112987   2.442   2.179   0.866  0.3428  2.0297  2.5036
 1006SOL    HW212988   2.429   2.326   0.796 -0.6980 -0.7767 -3.5058
 1007SOL     OW12989   1.440   1.907   0.678  0.3301  0.2140  0.4676
 1007SOL    HW112990   1.517   1.880   0.736 -0.4110  0.9974  1.8230
 1007SOL    HW212991   1.424   1.835   0.609  0.7849 -1.0461  1.6557
 1008SOL     OW12992   9.785   3.545   0.190 -0.2445 -0.1909  0.0917
 1008SOL    HW112993   9.709   3.488   0.222 -0.1121 -0.1547  0.4806
 1008SOL    HW212994   9.862   3.487   0.164 -0.8365 -0.2901 -1.4733
 1009SOL     OW12995   2.301   6.259   0.751 -0.5221 -0.4326  0.4984
 1009SOL    HW112996   2.232   6.289   0.817 -0.4948  2.2169 -0.6288
 1009SOL    HW212997   2.286   6.305   0.663  2.3258 -0.2321  0.0716
 1010SOL     OW12998   3.585   3.211   1.880  0.3502  0.2184 -0.1144
 1010SOL    HW112999   3.486   3.218   1.867  0.2368 -0.3986  0.3787
 1010SOL    HW213000   3.632   3.262   1.808 -0.2963 -1.5263 -1.8351
 1011SOL     OW13001   3.833   8.379   0.745  0.1828  0.2490 -0.6597
 1011SOL    HW113002   3.898   8.398   0.671 -2.6296  2.1661 -2.7244
 1011SOL    HW213003   3.842   8.448   0.817  0.7136  0.2593 -0.7344
 1012SOL     OW13004   9.132   4.291   1.091 -0.0678 -0.2179  0.0768
 1012SOL    HW113005   9.115   4.308   1.188  2.1201 -0.0645  0.4590
 1012SOL    HW213006   9.225   4.256   1.079 -1.3206 -3.1188 -1.6604
 1013SOL     OW13007   4.661   3.534   2.431 -1.1874 -0.0345  0.0920
 1013SOL    HW113008   4.638   3.545   2.528  0.7128 -0.9522  0.6605
 1013SOL    HW213009   4.656   3.438   2.406 -1.1784  0.1443 -0.6051
 1014SOL     OW13010   1.565   5.776   2.515 -0.0677  0.0768 -0.1281
 1014SOL    HW113011   1.610   5.826   2.588  0.4261 -1.4519  0.6332
 1014SOL    HW213012   1.589   5.817   2.427  1.7776  0.0768  0.3648
 1015SOL     OW13013   3.957   3.993   1.557  0.0477  0.3876  0.8467
 1015SOL    HW113014   4.012   4.017   1.478 -3.6288 -1.2212 -2.3879
 1015SOL    HW213015   3.934   3.895   1.554  0.7487  0.0036  4.5831
 1016SOL     OW13016   1.462   8.783   1.780  0.1021 -0.3269  0.0301
 1016SOL    HW113017   1.536   8.773   1.714  1.1221 -1.5156  1.3111
 1016SOL    HW213018   1.390   8.842   1.743  1.2739  0.0867 -1.5828
 1017SOL     OW13019   2.742   4.855   2.405  0.4306  0.1624 -0.3788
 1017SOL    HW113020   2.831   4.850   2.449  0.0552 -2.6707  0.1559
 1017SOL    HW213021   2.746   4.920   2.328  2.2586  1.8413  1.0746
 1018SOL     OW13022   2.342   5.382   2.347 -0.1541 -0.0753 -0.2886
 1018SOL    HW113023   2.333   5.448   2.422  1.7019  0.5128 -0.5601
 1018SOL    HW213024   2.264   5.320   2.348 -0.8993  0.8582  1.2231
 1019SOL     OW13025   2.525   2.989   1.379 -0.1311 -0.1505 -1.0034
 1019SOL    HW113026   2.459   2.977   1.453 -0.3764  0.6380 -1.0856
 1019SOL    HW213027   2.511   2.919   1.309  0.1145 -0.9099 -0.2910
 1020SOL     OW13028   2.848   3.026   1.966 -0.2376  0.0395  0.1662
 1020SOL    HW113029   2.837   3.001   2.062  0.3566 -1.2799 -0.0875
 1020SOL    HW213030   2.765   3.071   1.933 -1.2145 -1.2639  0.7883
 1021SOL     OW13031   2.285   0.218   2.159 -0.5981  0.3486  0.1739
 1021SOL    HW113032   2.303   0.160   2.080 -0.7912 -0.3801  0.6576
 1021SOL    HW213033   2.344   0.299   2.155  0.0681 -0.1470 -0.2205
 1022SOL     OW13034   2.907   0.072   1.886 -0.8333 -0.4019 -0.3930
 1022SOL    HW113035   2.874   0.151   1.938 -0.4496 -0.9521  0.6974
 1022SOL    HW213036   2.837   0.000   1.889  0.3732 -1.5325  1.8344
 1023SOL     OW13037   2.960   6.358   1.211 -0.2062  0.6689 -0.1014
 1023SOL    HW113038   2.952   6.414   1.128 -1.1836  1.3358  0.4330
 1023SOL    HW213039   2.978   6.417   1.289 -0.7251  0.1843  0.3912
 1024SOL     OW13040   0.029   5.804   0.616  0.5746 -0.2665 -0.1777
 1024SOL    HW113041   0.055   5.803   0.712 -2.6163 -0.4550  0.7566
 1024SOL    HW213042  -0.016   5.890   0.594 -0.5623 -1.0361 -0.9473
 1025SOL     OW13043   1.680   8.029   2.409  0.2445  0.1501  0.4847
 1025SOL    HW113044   1.766   8.043   2.361  0.4307  0.3502  0.8756
 1025SOL    HW213045   1.611   7.996   2.344  0.4737  0.4844  0.0646
 1026SOL     OW13046   3.159   5.783   0.165  0.2587  0.2526  0.3020
 1026SOL    HW113047   3.116   5.745   0.247  1.2212  1.0488  1.2003
 1026SOL    HW213048   3.105   5.760   0.085 -1.1865  0.2074  1.2705
 1027SOL     OW13049   2.123   3.989   1.015  0.0272 -0.2824  0.4210
 1027SOL    HW113050   2.131   3.898   0.974  0.3424  0.7366 -1.8640
 1027SOL    HW213051   2.197   4.047   0.982 -0.5692  1.0123  1.3044
 1028SOL     OW13052   2.136   2.720   0.729  0.6712  0.1872 -0.0182
 1028SOL    HW113053   2.235   2.724   0.718  0.7478 -1.7072 -0.1963
 1028SOL    HW213054   2.113   2.733   0.826  1.2482 -1.4181  0.3484
 1029SOL     OW13055   2.353   7.414   2.099 -0.0193  0.2624  0.4335
 1029SOL    HW113056   2.434   7.360   2.074 -0.7678  0.0337 -1.5464
 1029SOL    HW213057   2.315   7.378   2.184  1.0707 -0.5934  0.5834
 1030SOL     OW13058   3.391   9.429   1.734 -0.0145  0.1416  0.7616
 1030SOL    HW113059   3.488   9.441   1.714 -0.1700 -0.9076 -0.7597
 1030SOL    HW213060   3.380   9.377   1.819  0.7164  2.0522  2.0454
 1031SOL     OW13061   2.131   4.297   0.708 -0.3299  0.1964 -0.1220
 1031SOL    HW113062   2.182   4.242   0.774 -2.7223 -0.5788  1.1072
 1031SOL    HW213063   2.127   4.392   0.740  2.5851  0.8892 -1.5592
 1032SOL     OW13064   3.150   0.078   0.765  0.5676  0.0977  0.4425
 1032SOL    HW113065   3.126   0.017   0.689 -1.0158  0.8883  0.2902
 1032SOL    HW213066   3.192   0.026   0.838 -0.4987 -1.1339  0.1875
 1033SOL     OW13067   4.396   2.605   0.776  0.2396  0.0923  0.0723
 1033SOL    HW113068   4.400   2.506   0.761  1.3616  0.2321 -0.6008
 1033SOL    HW213069   4.304   2.638   0.755 -0.2911 -0.8798  0.7981
 1034SOL     OW13070   0.506   7.254   0.680 -0.1133 -0.0554 -0.1972
 1034SOL    HW113071   0.463   7.329   0.631  0.4353 -0.3652 -1.1610
 1034SOL    HW213072   0.586   7.222   0.629 -0.1895 -1.1208  0.3340
 1035SOL     OW13073   4.285   5.019   2.436 -0.3649 -0.0065 -0.7507
 1035SOL    HW113074   4.278   5.107   2.387 -0.0097 -0.5843 -1.8503
 1035SOL    HW213075   4.279   5.036   2.534 -0.2829  1.2631 -0.9474
 1036SOL     OW13076   1.783   9.694   1.243 -0.2406 -0.1543  0.2444
 1036SOL    HW113077   1.862   9.636   1.225 -0.0253  0.5751 -1.2528
 1036SOL    HW213078   1.813   9.780   1.284  0.0481  1.1597 -2.6074
 1037SOL     OW13079   3.849   9.275   1.238  0.3454 -0.2791 -0.0171
 1037SOL    HW113080   3.912   9.336   1.190 -0.3243 -0.3102 -0.9702
 1037SOL    HW213081   3.756   9.310   1.230  0.3207  0.1357  1.9823
 1038SOL     OW13082   0.395   4.301   1.964 -0.0822  0.0785 -0.1312
 1038SOL    HW113083   0.441   4.213   1.976  0.4425  0.5457  1.4173
 1038SOL    HW213084   0.416   4.338   1.874  0.4949 -0.9225 -0.4113
 1039SOL     OW13085   2.723   7.682   2.174 -0.1279 -0.4210  0.2634
 1039SOL    HW113086   2.789   7.751   2.204  2.0527 -2.5391  0.5813
 1039SOL    HW213087   2.646   7.726   2.129  0.8614  2.2396  1.0876
 1040SOL     OW13088   2.861   6.002   0.383 -0.4056 -0.1552  0.2133
 1040SOL    HW113089   2.868   6.045   0.473 -2.1417 -0.6280  0.5834
 1040SOL    HW213090   2.929   6.042   0.322 -0.8813  1.9337  1.0292
 1041SOL     OW13091   2.389   6.451   1.961  0.0779 -0.3897  0.2856
 1041SOL    HW113092   2.392   6.551   1.960  0.4430 -0.3884  1.2563
 1041SOL    HW213093   2.482   6.415   1.956 -0.1204 -0.7034 -1.4147
 1042SOL     OW13094   3.214   3.587   2.135 -0.1977  0.0363  0.0985
 1042SOL    HW113095   3.174   3.676   2.113  0.3016  0.5955  1.4019
 1042SOL    HW213096   3.144   3.516   2.126 -0.2810  0.3860 -2.1605
 1043SOL     OW13097   1.771   5.646   1.387 -1.0020 -0.0489  0.4818
 1043SOL    HW113098   1.845   5.708   1.416 -0.3536 -0.8547  0.5649
 1043SOL    HW213099   1.771   5.565   1.445 -1.5469 -0.3446  0.0692
 1044SOL     OW13100   3.272   2.495   1.612 -0.4667 -0.1715  0.1297
 1044SOL    HW113101   3.219   2.577   1.632 -1.5126 -0.1379 -2.5796
 1044SOL    HW213102   3.210   2.423   1.581  0.7476 -1.1160 -0.1414
 1045SOL     OW13103   2.021   8.726   0.941  0.2673  0.7924 -0.5082
 1045SOL    HW113104   1.924   8.740   0.962 -0.2368  1.6689 -3.1928
 1045SOL    HW213105   2.069   8.698   1.024 -2.6336 -1.6284  0.4886
 1046SOL     OW13106   1.430   0.532   1.926  0.7658  0.0914 -0.4844
 1046SOL    HW113107   1.346   0.509   1.878 -0.5705  1.5730  1.0612
 1046SOL    HW213108   1.494   0.455   1.922 -0.5415 -0.9464 -1.8861
 1047SOL     OW13109   1.788   3.673   0.458  0.3452  0.2002 -0.7847
 1047SOL    HW113110   1.825   3.667   0.550 -0.7044 -0.0981 -0.3672
 1047SOL    HW213111   1.768   3.580   0.424  0.3598  0.3285 -1.1475
 1048SOL     OW13112   3.546   8.611   0.925 -0.1848 -0.1295  0.0066
 1048SOL    HW113113   3.638   8.622   0.964 -0.8959 -0.2722  1.7585
 1048SOL    HW213114   3.513   8.519   0.946 -0.6329 -0.1669 -0.8554
 1049SOL     OW13115   1.414   7.770   1.372  0.4048  0.7354 -0.1984
 1049SOL    HW113116   1.410   7.860   1.330 -1.3544  0.8522  0.2170
 1049SOL    HW213117   1.333   7.755   1.429  1.2285 -0.6575  0.6468
 1050SOL     OW13118   3.919   9.755   1.286  0.2348 -0.2677 -0.0666
 1050SOL    HW113119   3.929   9.674   1.229 -0.3104 -0.2508 -0.1782
 1050SOL    HW213120   4.002   9.812   1.279  1.2672 -1.5670  1.1833
 1051SOL     OW13121   2.647   5.495   1.246  0.5820  0.3077  0.2576
 1051SOL    HW113122   2.554   5.476   1.278  0.6241 -0.5486 -0.0977
 1051SOL    HW213123   2.643   5.562   1.171  0.0011 -1.5586 -1.4373
 1052SOL     OW13124   3.462   0.245   2.140  0.3794  0.3364 -0.7588
 1052SOL    HW113125   3.512   0.159   2.138  2.6636  1.6371 -1.9500
 1052SOL    HW213126   3.365   0.227   2.125  0.6755 -2.1060  0.0267
 1053SOL     OW13127   1.751   0.512   0.432  0.7191 -0.1528 -0.6706
 1053SOL    HW113128   1.772   0.476   0.523  3.9800  0.6198 -1.0633
 1053SOL    HW213129   1.753   0.612   0.435 -1.8803 -0.0466 -1.0334
 1054SOL     OW13130   2.027   4.691   2.148 -0.0479  0.2173  0.3411
 1054SOL    HW113131   1.943   4.745   2.148 -0.1087  0.1239  0.9533
 1054SOL    HW213132   2.082   4.715   2.068 -1.9714 -1.7962 -1.6455
 1055SOL     OW13133   4.155   3.414   1.302 -0.2019 -0.3547 -0.3788
 1055SOL    HW113134   4.229   3.359   1.263  0.7045  0.4069  0.2382
 1055SOL    HW213135   4.186   3.456   1.387 -1.3227  0.0558 -0.1625
 1056SOL     OW13136   3.378   9.341   0.003  0.2679 -0.1415  0.0028
 1056SOL    HW113137   3.375   9.373  -0.092 -0.4010 -0.0409  0.0586
 1056SOL    HW213138   3.344   9.413   0.063 -0.4965 -0.6680  0.2023
 1057SOL     OW13139   2.703   9.736   2.133  0.4947 -0.2304 -0.6537
 1057SOL    HW113140   2.711   9.636   2.137  0.6226 -0.2446 -1.2380
 1057SOL    HW213141   2.641   9.767   2.205  0.7038 -0.7011 -0.2635
 1058SOL     OW13142   1.941   8.141   2.607  0.2766  0.2395 -0.0738
 1058SOL    HW113143   1.993   8.074   2.555  1.9909  2.1450 -0.8746
 1058SOL    HW213144   1.960   8.129   2.705  0.2950 -0.6602 -0.1832
 1059SOL     OW13145   2.550   6.024   0.286 -0.0572 -0.0901  0.3272
 1059SOL    HW113146   2.621   5.964   0.248  0.8059  0.2113  1.4488
 1059SOL    HW213147   2.536   6.101   0.225  0.7149 -0.0534  0.1920
 1060SOL     OW13148   1.365   7.029   2.246  0.1590 -0.3033 -0.0930
 1060SOL    HW113149   1.375   7.014   2.148 -1.9219  2.0797 -0.7227
 1060SOL    HW213150   1.410   7.115   2.271  0.0758 -0.5484  0.9207
 1061SOL     OW13151   1.126   2.650   1.098 -0.7325 -0.3661 -0.1305
 1061SOL    HW113152   1.036   2.689   1.078 -2.0251 -3.1390  0.0312
 1061SOL    HW213153   1.152   2.674   1.191 -1.6403 -0.1366  0.0733
 1062SOL     OW13154   9.451   5.590   0.215 -0.3190  0.4854 -0.1022
 1062SOL    HW113155   9.372   5.647   0.192  0.8190  2.9453  1.8032
 1062SOL    HW213156   9.420   5.503   0.253 -2.1776  2.0697  2.1553
 1063SOL     OW13157   8.960   5.128   1.271  0.2113 -0.7582 -0.2043
 1063SOL    HW113158   8.888   5.158   1.333  1.4884 -0.1851  1.0363
 1063SOL    HW213159   8.945   5.167   1.181  1.8902  3.8543  1.3779
 1064SOL     OW13160   1.508   7.027   0.810  0.1053  0.5031 -0.3081
 1064SOL    HW113161   1.416   7.011   0.847 -0.1258  0.1263 -1.0453
 1064SOL    HW213162   1.573   6.969   0.858 -0.1081  0.4157 -0.1210
 1065SOL     OW13163   1.712   5.550   1.909  0.1584 -0.3478 -0.3879
 1065SOL    HW113164   1.764   5.632   1.935 -1.2136  0.3996  0.0566
 1065SOL    HW213165   1.708   5.543   1.809  1.8723 -0.9109 -0.4244
 1066SOL     OW13166   1.028   5.191   0.766  0.4617 -0.0287  0.5007
 1066SOL    HW113167   1.051   5.096   0.747 -1.0784 -0.4226  0.5098
 1066SOL    HW213168   1.007   5.238   0.681  1.9534  0.5119  0.4227
 1067SOL     OW13169   1.045   4.353   2.446  0.0794 -0.0729  0.0084
 1067SOL    HW113170   0.984   4.385   2.374  1.1317 -1.7341 -1.6828
 1067SOL    HW213171   1.010   4.267   2.483 -0.1559  0.4858  1.0968
 1068SOL     OW13172   2.947   4.108   0.644 -0.9146 -0.2065 -0.4958
 1068SOL    HW113173   2.970   4.204   0.661 -0.9766  0.0883 -2.0279
 1068SOL    HW213174   3.023   4.064   0.596 -1.8663 -0.2988 -1.9244
 1069SOL     OW13175   4.336   1.664   0.345  0.0687 -0.0757  0.1124
 1069SOL    HW113176   4.363   1.614   0.427  1.8758  0.8607  0.1093
 1069SOL    HW213177   4.389   1.748   0.338  1.0056 -0.8140 -2.7359
 1070SOL     OW13178   0.497   6.297   2.264  0.7718 -0.2090  0.1403
 1070SOL    HW113179   0.523   6.386   2.302  1.1261 -0.0243 -0.5342
 1070SOL    HW213180   0.490   6.304   2.165 -0.7592 -0.5493  0.2231
 1071SOL     OW13181   1.023   3.336   1.337 -0.0038  0.1576 -0.3050
 1071SOL    HW113182   1.062   3.245   1.351 -0.6900 -0.6015 -3.0612
 1071SOL    HW213183   1.084   3.391   1.279 -1.0210  0.4042 -1.1604
 1072SOL     OW13184   2.022   0.667   2.495 -0.3396 -0.6311  0.1430
 1072SOL    HW113185   2.037   0.569   2.483 -0.0027 -0.5298 -0.2885
 1072SOL    HW213186   1.985   0.706   2.411 -1.4382 -0.5678  0.6472
 1073SOL     OW13187   2.439   3.630   1.703 -0.0494 -0.4616 -0.6017
 1073SOL    HW113188   2.367   3.592   1.763 -0.7832  0.6288 -0.7815
 1073SOL    HW213189   2.499   3.556   1.673 -0.3708 -1.2069  0.5354
 1074SOL     OW13190   3.610   2.836   1.019  0.4278 -0.6299  0.3013
 1074SOL    HW113191   3.626   2.878   1.108 -0.1460  1.6009 -0.6276
 1074SOL    HW213192   3.694   2.842   0.964  0.1113  0.0463 -0.1192
 1075SOL     OW13193   1.553   2.939   0.917 -0.9465 -0.0161 -0.5803
 1075SOL    HW113194   1.617   2.933   0.994  0.0485  0.9138 -1.3418
 1075SOL    HW213195   1.479   2.873   0.932  0.5981 -1.6867 -0.1039
 1076SOL     OW13196   0.138   4.919   0.566  0.3658  0.4468  0.0709
 1076SOL    HW113197   0.115   5.010   0.533  1.1917  0.7968  0.4548
 1076SOL    HW213198   0.079   4.851   0.522 -1.2615  1.3114  0.8697
 1077SOL     OW13199   1.857   8.422   0.146 -0.4903  0.5108  0.4917
 1077SOL    HW113200   1.780   8.372   0.106 -1.6302  1.0425  1.9681
 1077SOL    HW213201   1.928   8.436   0.077 -1.7748  0.1168 -0.9162
 1078SOL     OW13202   4.033   1.872   0.767 -0.1150  0.0145  0.3840
 1078SOL    HW113203   4.088   1.794   0.794 -0.6693  0.0317  1.6154
 1078SOL    HW213204   4.013   1.928   0.848 -0.9463  0.6313 -0.2421
 1079SOL     OW13205   0.629   5.025   0.979  0.0845 -0.1528  0.0646
 1079SOL    HW113206   0.669   4.994   1.066 -1.0642 -1.1445  0.2604
 1079SOL    HW213207   0.626   4.948   0.915 -2.0343 -0.2371  0.2543
 1080SOL     OW13208   2.122   1.796   0.855  0.1594  0.1661  0.0224
 1080SOL    HW113209   2.111   1.696   0.858 -0.0947  0.2185  0.7250
 1080SOL    HW213210   2.156   1.822   0.764 -0.6613 -0.4717 -0.4766
 1081SOL     OW13211   2.488   0.603   1.514  0.6729  0.5742 -0.3852
 1081SOL    HW113212   2.587   0.612   1.502  0.6341 -0.7000 -1.9084
 1081SOL    HW213213   2.451   0.546   1.440 -0.8476 -0.9359  1.5010
 1082SOL     OW13214   9.856   4.766   2.084 -0.2786  0.3524  0.1536
 1082SOL    HW113215   9.826   4.781   2.178 -1.3683 -1.6659  0.1495
 1082SOL    HW213216   9.777   4.771   2.022  0.2334  0.3642 -0.5093
 1083SOL     OW13217   1.932   2.004   0.829 -0.3147 -0.4571  0.2938
 1083SOL    HW113218   1.994   1.926   0.838 -2.0546 -1.6580  2.0910
 1083SOL    HW213219   1.869   1.988   0.753  0.4002 -0.0276 -0.4020
 1084SOL     OW13220   3.152   4.756   1.693  0.0970 -0.0989  0.5557
 1084SOL    HW113221   3.079   4.727   1.755 -1.1927  0.5663 -0.6380
 1084SOL    HW213222   3.231   4.786   1.747 -0.8659  0.1238  1.8757
 1085SOL     OW13223   3.134   4.189   0.346  0.6334 -0.1982  0.0469
 1085SOL    HW113224   3.163   4.160   0.255  0.7801  1.4577 -0.4677
 1085SOL    HW213225   3.215   4.197   0.405  0.6719 -0.1670 -0.0099
 1086SOL     OW13226   2.005   9.542   1.234  0.2181  0.3378  0.0347
 1086SOL    HW113227   2.075   9.611   1.250  2.0657 -1.6084  0.5535
 1086SOL    HW213228   2.031   9.457   1.280 -1.7142 -0.8913 -1.0919
 1087SOL     OW13229   1.987   1.145   2.129 -0.2115  0.0102  0.0755
 1087SOL    HW113230   1.954   1.197   2.050 -0.1202  0.6941  0.4851
 1087SOL    HW213231   1.918   1.078   2.156  0.2022 -0.9864 -1.2592
 1088SOL     OW13232   1.192   6.450   0.909  0.9404  0.2368 -0.3969
 1088SOL    HW113233   1.208   6.548   0.897  0.4133  0.4404  0.5208
 1088SOL    HW213234   1.094   6.432   0.906  1.0034 -0.1848 -0.0110
 1089SOL     OW13235   9.694   4.223   2.264  0.4026  0.1871  0.2107
 1089SOL    HW113236   9.718   4.169   2.184 -2.2793  0.8814 -1.0928
 1089SOL    HW213237   9.724   4.174   2.347 -0.0288 -2.2418 -1.0311
 1090SOL     OW13238   3.274   0.607   0.136  0.0606  0.0787 -0.3422
 1090SOL    HW113239   3.239   0.674   0.071 -1.1396 -0.6571 -0.4856
 1090SOL    HW213240   3.330   0.539   0.088 -0.7118 -0.3855 -0.6014
 1091SOL     OW13241   2.956   6.370   1.537 -0.4165  0.5019 -0.1569
 1091SOL    HW113242   2.880   6.313   1.505  1.0430 -1.1970 -0.6846
 1091SOL    HW213243   3.014   6.317   1.600  0.9234  1.4245 -0.5804
 1092SOL     OW13244   2.490   9.882   0.621 -0.3508  0.4235 -0.1989
 1092SOL    HW113245   2.431   9.961   0.635 -2.2620 -0.8282 -0.9601
 1092SOL    HW213246   2.563   9.881   0.689 -0.2483  2.8831 -0.2586
 1093SOL     OW13247   2.837   5.760   0.580 -0.1451  0.2835  0.3079
 1093SOL    HW113248   2.740   5.750   0.604 -1.0527  0.2780 -3.0432
 1093SOL    HW213249   2.860   5.858   0.574  0.0214  0.2851  0.9660
 1094SOL     OW13250   2.821   4.483   0.575 -0.3175 -0.1876  0.1027
 1094SOL    HW113251   2.827   4.425   0.494  0.2999  0.5606 -0.4037
 1094SOL    HW213252   2.880   4.447   0.647  1.2253  0.6234 -0.7314
 1095SOL     OW13253   4.052   2.288   0.419  0.0967  0.1786 -0.0089
 1095SOL    HW113254   4.064   2.379   0.460 -2.2044 -0.0419  1.2395
 1095SOL    HW213255   4.087   2.219   0.482 -2.0753 -0.0612  0.9662
 1096SOL     OW13256   3.326   5.247   0.996 -0.1833  0.0951 -0.2382
 1096SOL    HW113257   3.323   5.346   1.014 -0.5680 -0.1661  1.2158
 1096SOL    HW213258   3.408   5.209   1.037 -1.3020 -0.5914  1.4211
 1097SOL     OW13259   0.948   3.138   0.553 -0.1387  0.2315  0.2895
 1097SOL    HW113260   0.931   3.066   0.620  0.4415  0.2939  0.5026
 1097SOL    HW213261   0.890   3.217   0.574 -0.9402 -0.2498 -0.0772
 1098SOL     OW13262   2.319   6.882   1.793  0.5729 -0.4468 -0.4360
 1098SOL    HW113263   2.278   6.914   1.707 -0.0472 -1.6853 -0.6059
 1098SOL    HW213264   2.416   6.907   1.794  0.4142  0.2509 -1.1535
 1099SOL     OW13265   3.015   3.129   1.209 -0.6274  0.3681  0.2429
 1099SOL    HW113266   2.963   3.044   1.218 -0.0102 -0.0824 -0.4736
 1099SOL    HW213267   3.039   3.144   1.114  1.5220 -0.0058  0.7076
 1100SOL     OW13268   2.228   2.385   0.486 -0.2267 -0.2393 -0.1884
 1100SOL    HW113269   2.152   2.440   0.522  0.0340 -0.3911  0.5989
 1100SOL    HW213270   2.231   2.297   0.534  0.2434 -0.3665 -0.4549
 1101SOL     OW13271   3.787   3.714   2.615  0.3872 -0.2059 -0.1675
 1101SOL    HW113272   3.752   3.698   2.523 -1.7408  0.3589  0.5337
 1101SOL    HW213273   3.743   3.651   2.679  0.5459  0.6003  0.7483
 1102SOL     OW13274   2.313   0.937   1.863  0.0005 -0.2132 -0.3499
 1102SOL    HW113275   2.343   0.873   1.934  0.8549 -0.7184 -1.1716
 1102SOL    HW213276   2.375   1.016   1.860  0.0441 -0.2597 -0.6403
 1103SOL     OW13277   0.897   6.541   0.054  0.1529 -0.3196  0.2025
 1103SOL    HW113278   0.799   6.521   0.064  0.4527 -0.4383  3.6263
 1103SOL    HW213279   0.945   6.459   0.024 -0.4627 -1.0466  1.1561
 1104SOL     OW13280   0.756   2.312   0.506  0.2206 -0.3544  0.4668
 1104SOL    HW113281   0.802   2.400   0.514  0.8110 -0.7723  1.7647
 1104SOL    HW213282   0.709   2.291   0.591  1.2050 -1.9102  0.6484
 1105SOL     OW13283   3.690   4.862   1.049  0.0851 -0.2962  0.4142
 1105SOL    HW113284   3.642   4.776   1.067  0.8568 -0.7907  0.1146
 1105SOL    HW213285   3.789   4.846   1.050  0.2362  0.6220  0.5378
 1106SOL     OW13286   3.591   8.875   0.332 -0.2162  0.8274 -0.3281
 1106SOL    HW113287   3.509   8.901   0.281 -0.1339  0.4689 -0.6433
 1106SOL    HW213288   3.572   8.791   0.383 -1.2071  2.6431  2.4415
 1107SOL     OW13289   3.019   6.220   2.603 -0.0032  0.0725  0.4072
 1107SOL    HW113290   3.015   6.214   2.503  3.0123  1.1815  0.1552
 1107SOL    HW213291   3.055   6.309   2.629 -0.4194 -0.3520  2.4990
 1108SOL     OW13292   4.271   4.159   2.600 -0.5845  0.0769 -0.3079
 1108SOL    HW113293   4.190   4.130   2.548  0.2911  0.3259 -1.8394
 1108SOL    HW213294   4.317   4.078   2.636 -1.0730 -0.1162 -0.1083
 1109SOL     OW13295   2.363   0.691   1.957  0.0245 -0.3623  0.6939
 1109SOL    HW113296   2.430   0.671   1.886 -0.6361 -0.4524  0.0890
 1109SOL    HW213297   2.288   0.625   1.952 -0.9096  0.7209  0.3281
 1110SOL     OW13298   4.645   1.861   0.519  0.4689 -0.5525 -0.6465
 1110SOL    HW113299   4.600   1.908   0.443 -0.3588 -2.3344 -1.2844
 1110SOL    HW213300   4.660   1.765   0.495 -0.5331 -1.3421  1.7403
 1111SOL     OW13301   2.918   7.608   1.878  0.6538  0.4660 -0.7047
 1111SOL    HW113302   2.914   7.509   1.861 -1.4998  0.5488 -0.8149
 1111SOL    HW213303   2.885   7.627   1.970  2.5536  0.9570 -0.1192
 1112SOL     OW13304   1.484   9.127   2.309  1.4045  0.1964 -0.4712
 1112SOL    HW113305   1.426   9.166   2.237 -0.0930  1.5530  1.4278
 1112SOL    HW213306   1.546   9.197   2.343 -1.0734  0.9224  2.7357
 1113SOL     OW13307   1.219   2.903   1.669  0.2116 -0.3796  0.2322
 1113SOL    HW113308   1.312   2.916   1.636 -0.2272 -0.9369 -1.2643
 1113SOL    HW213309   1.169   2.989   1.664  0.3302 -0.3233  0.0315
 1114SOL     OW13310   3.213   4.331   0.925  0.5415 -0.5805 -0.3477
 1114SOL    HW113311   3.209   4.253   0.862 -1.1105  0.5792 -1.7282
 1114SOL    HW213312   3.172   4.304   1.013 -1.0316 -0.9565 -1.1795
 1115SOL     OW13313   0.336   4.687   1.403 -0.2281  0.0149 -0.3259
 1115SOL    HW113314   0.396   4.740   1.344 -0.8304  1.0153 -0.0437
 1115SOL    HW213315   0.369   4.593   1.409  0.3445  0.1379 -1.5334
 1116SOL     OW13316   1.592   6.551   1.947  0.1804 -0.4798 -0.0121
 1116SOL    HW113317   1.648   6.511   2.019  0.1482 -0.3249  0.0980
 1116SOL    HW213318   1.637   6.536   1.858  0.1166 -0.8479  0.0192
 1117SOL     OW13319   0.705   4.274   0.567  0.1040 -0.0134 -0.1994
 1117SOL    HW113320   0.666   4.334   0.636 -0.9904 -2.0304  0.9922
 1117SOL    HW213321   0.772   4.213   0.610 -0.9873 -1.6604 -0.7956
 1118SOL     OW13322   9.994   5.865   2.046 -0.0864  0.0802 -0.5094
 1118SOL    HW113323   9.954   5.948   2.006  1.6212  0.7143 -0.9215
 1118SOL    HW213324  10.038   5.888   2.133 -1.6397 -0.8479  0.5661
 1119SOL     OW13325   1.369   5.536   0.761 -0.1297  0.3217  0.6435
 1119SOL    HW113326   1.353   5.631   0.786  2.8839  0.8536  0.8251
 1119SOL    HW213327   1.375   5.528   0.662 -3.1945 -0.2104  0.4698
 1120SOL     OW13328   1.782   6.184   1.816 -0.4355  0.0336  0.0950
 1120SOL    HW113329   1.823   6.140   1.896  0.9777 -0.1490 -0.7220
 1120SOL    HW213330   1.682   6.176   1.821 -0.3644  0.0812  1.8644
 1121SOL     OW13331   2.711   8.482   2.570  0.0341  0.0668 -0.0386
 1121SOL    HW113332   2.623   8.441   2.548  0.1683  0.4219 -1.2531
 1121SOL    HW213333   2.699   8.551   2.642 -0.2887 -1.6294  1.5763
 1122SOL     OW13334   1.998   4.847   2.393 -0.4552 -0.3870  0.1306
 1122SOL    HW113335   1.922   4.844   2.329 -0.5656  0.1272  0.2386
 1122SOL    HW213336   2.081   4.812   2.349 -0.2219  1.1914 -0.7010
 1123SOL     OW13337   4.552   3.696   0.819 -0.2675  0.0495 -0.4068
 1123SOL    HW113338   4.526   3.624   0.755  2.3056  0.1536 -1.6474
 1123SOL    HW213339   4.644   3.678   0.853 -0.3153  1.7843  0.7015
 1124SOL     OW13340   2.962   9.410   0.470 -0.4372 -0.1475  0.3952
 1124SOL    HW113341   2.878   9.458   0.498  1.3349  2.3247  1.6893
 1124SOL    HW213342   2.940   9.345   0.397 -3.3127  1.2359 -0.0668
 1125SOL     OW13343   9.073   4.102   0.519 -0.0374  0.0228 -0.2456
 1125SOL    HW113344   8.992   4.122   0.465  0.1399  1.3052 -0.0464
 1125SOL    HW213345   9.069   4.007   0.551 -1.5869  0.1586  0.0041
 1126SOL     OW13346   0.584   6.565   0.028 -0.4612 -0.3302  0.3903
 1126SOL    HW113347   0.513   6.575   0.097  1.1250 -0.9553  2.1629
 1126SOL    HW213348   0.635   6.651   0.020  0.9711 -1.0126  1.8618
 1127SOL     OW13349   2.639   6.075   1.796 -0.1210  0.0158 -0.0788
 1127SOL    HW113350   2.559   6.016   1.794 -0.9554  1.0691  1.0241
 1127SOL    HW213351   2.636   6.138   1.718  0.0533 -0.4847 -0.4888
 1128SOL     OW13352   1.496   9.449   2.362  0.7348 -0.1086 -0.0422
 1128SOL    HW113353   1.455   9.449   2.453  1.6166 -0.5548  0.3665
 1128SOL    HW213354   1.580   9.394   2.363 -0.7720 -2.5834 -1.8222
 1129SOL     OW13355   3.529   3.559   1.500 -0.0395 -0.1077 -0.1537
 1129SOL    HW113356   3.449   3.619   1.495  0.4627  0.6993  1.1411
 1129SOL    HW213357   3.515   3.480   1.441 -1.2890  0.6134 -0.8470
 1130SOL     OW13358   0.936   6.316   0.962 -0.8425 -0.1074 -0.4097
 1130SOL    HW113359   0.987   6.251   1.020  0.2485  0.9249 -0.2058
 1130SOL    HW213360   0.933   6.281   0.869 -0.6895 -0.6949 -0.2018
 1131SOL     OW13361   9.943   4.367   1.977  0.1137 -0.6526  0.3928
 1131SOL    HW113362   9.942   4.430   1.899  0.6301 -1.1180  0.0060
 1131SOL    HW213363  10.036   4.359   2.012  0.0087 -1.0114  0.5946
 1132SOL     OW13364   1.167   3.606   2.275 -0.4536 -0.3441 -0.0493
 1132SOL    HW113365   1.127   3.515   2.268 -0.5194 -0.2677 -0.6729
 1132SOL    HW213366   1.218   3.613   2.361 -0.5578 -0.9198  0.0634
 1133SOL     OW13367   1.914   2.312   1.699  0.5697 -0.1106 -0.1499
 1133SOL    HW113368   1.928   2.410   1.714  2.1986 -0.3432 -0.0639
 1133SOL    HW213369   1.880   2.270   1.784  2.4428 -0.0771  0.6480
 1134SOL     OW13370   1.520   0.741   2.070 -0.0497 -0.2701  0.3137
 1134SOL    HW113371   1.484   0.669   2.010 -1.0610 -0.0666  0.6589
 1134SOL    HW213372   1.487   0.830   2.038  1.0754  0.0267 -0.0243
 1135SOL     OW13373   1.586   2.795   1.961  0.4024  0.4438 -0.5221
 1135SOL    HW113374   1.684   2.777   1.970  0.1698 -1.5407 -1.6270
 1135SOL    HW213375   1.555   2.764   1.871 -1.4524  0.0156  0.2478
 1136SOL     OW13376   1.874   6.608   0.377 -0.3292 -0.4293 -0.0805
 1136SOL    HW113377   1.931   6.663   0.316  1.2063 -1.6667  0.2171
 1136SOL    HW213378   1.853   6.520   0.334  0.8710 -1.3617  1.2091
 1137SOL     OW13379   9.860   4.645   1.401 -0.1419  0.2746 -0.2198
 1137SOL    HW113380   9.870   4.745   1.404 -0.1758  0.2442  0.8923
 1137SOL    HW213381   9.931   4.603   1.457 -0.7298 -0.2999  0.0974
 1138SOL     OW13382   2.663   9.942   1.662  0.4886 -0.5018  0.1881
 1138SOL    HW113383   2.696   9.976   1.575  0.2851 -1.1757 -0.1515
 1138SOL    HW213384   2.717   9.863   1.691  1.2711  0.3952  1.2116
 1139SOL     OW13385   1.375   6.607   2.117  0.2530 -0.2228  0.2039
 1139SOL    HW113386   1.453   6.570   2.066  0.4305  0.8182 -0.2900
 1139SOL    HW213387   1.301   6.628   2.054 -0.4720 -1.3003  0.6865
 1140SOL     OW13388   1.529   4.602   2.336  0.1342  0.4525 -0.1386
 1140SOL    HW113389   1.431   4.586   2.347  0.2715 -1.7725 -1.7909
 1140SOL    HW213390   1.561   4.666   2.407 -1.7899 -1.6716  2.7786
 1141SOL     OW13391   9.068   5.453   0.109  0.1906 -0.0693  0.1546
 1141SOL    HW113392   9.132   5.530   0.106  1.7982 -1.4002 -0.3661
 1141SOL    HW213393   9.060   5.420   0.203 -0.5556  0.7673  0.3913
 1142SOL     OW13394   3.215   4.550   1.988  0.2956 -0.5433  0.3773
 1142SOL    HW113395   3.253   4.507   1.906  1.1928  1.4725 -0.2906
 1142SOL    HW213396   3.160   4.629   1.961  0.6653  0.1767  1.7311
 1143SOL     OW13397   9.971   4.756   0.418 -0.0799 -0.1962 -0.5772
 1143SOL    HW113398   9.908   4.694   0.464 -0.0475 -0.8800 -1.4453
 1143SOL    HW213399   9.921   4.836   0.384 -0.0355  0.5044  0.9759
 1144SOL     OW13400   3.484   2.556   0.551 -0.0013 -0.3082  0.0747
 1144SOL    HW113401   3.476   2.643   0.601  0.4945  0.2984 -0.8733
 1144SOL    HW213402   3.470   2.573   0.453 -0.1912 -1.3493 -0.0822
 1145SOL     OW13403   3.312   1.183   1.625 -0.4258 -0.1662 -0.9572
 1145SOL    HW113404   3.328   1.087   1.646  0.7504 -0.2920 -2.3580
 1145SOL    HW213405   3.397   1.234   1.637 -0.3830  0.2191 -2.7801
 1146SOL     OW13406   1.967   5.225   2.092 -0.2907  0.9405 -0.1237
 1146SOL    HW113407   1.957   5.198   2.188 -2.5846 -3.1582 -1.3783
 1146SOL    HW213408   1.876   5.237   2.051  0.5901  0.4680 -2.3030
 1147SOL     OW13409   1.903   7.589   0.235 -0.0094  0.1480  0.6699
 1147SOL    HW113410   1.881   7.655   0.163  0.6856 -0.4396 -0.0879
 1147SOL    HW213411   1.996   7.605   0.267  0.3265 -0.7544  0.1609
 1148SOL     OW13412   4.483   3.045   0.755 -0.3747  0.0318 -0.4676
 1148SOL    HW113413   4.558   3.033   0.820 -1.3035 -2.4538  0.2096
 1148SOL    HW213414   4.403   3.083   0.801 -0.4860 -0.1394 -0.5162
 1149SOL     OW13415   0.924   7.574   0.540  0.5204  0.3130  0.3133
 1149SOL    HW113416   0.879   7.596   0.453 -1.5475  1.0489  1.5406
 1149SOL    HW213417   0.911   7.477   0.561  0.9778  0.1461 -0.1689
 1150SOL     OW13418   1.124   8.585   2.039  0.2043 -0.0554 -0.0634
 1150SOL    HW113419   1.189   8.660   2.026 -0.7854  0.7086 -0.6648
 1150SOL    HW213420   1.063   8.606   2.115 -0.0075 -0.2942 -0.1647
 1151SOL     OW13421   2.282   9.511   0.061 -0.0723  0.1560  0.0831
 1151SOL    HW113422   2.210   9.539  -0.002  1.4131  1.1141 -1.2243
 1151SOL    HW213423   2.312   9.590   0.114  0.1971 -0.1904  0.4521
 1152SOL     OW13424   3.058   1.204   1.520 -0.7882 -0.7793 -0.4157
 1152SOL    HW113425   3.047   1.274   1.450  1.9283 -1.1426 -1.2593
 1152SOL    HW213426   3.152   1.205   1.554 -0.9161 -3.4634  0.1639
 1153SOL     OW13427   9.315   4.727   0.939 -0.1068  0.3317 -0.4999
 1153SOL    HW113428   9.270   4.641   0.914  1.7513 -0.8335  0.0033
 1153SOL    HW213429   9.401   4.735   0.888  1.3071  0.3025  1.7641
 1154SOL     OW13430   2.756   1.085   2.244  0.3067 -0.0812  0.7244
 1154SOL    HW113431   2.792   1.167   2.201 -0.9008 -0.8768 -1.9081
 1154SOL    HW213432   2.657   1.079   2.228 -0.2328 -0.3028  3.8480
 1155SOL     OW13433   4.220   2.021   0.636 -0.3940 -0.2822  0.0176
 1155SOL    HW113434   4.176   1.948   0.689 -1.3096  1.2985  1.4962
 1155SOL    HW213435   4.202   2.007   0.539  2.2531 -3.8638 -0.0521
 1156SOL     OW13436   2.855   7.234   2.378 -0.2056  0.3002 -0.6483
 1156SOL    HW113437   2.887   7.239   2.472  1.9583  0.3512 -1.3496
 1156SOL    HW213438   2.842   7.326   2.342  0.9954  0.3291 -1.0367
 1157SOL     OW13439   2.975   3.359   0.768  0.3023  0.1736  0.3299
 1157SOL    HW113440   2.915   3.288   0.731 -0.0541 -0.3107  1.8027
 1157SOL    HW213441   2.926   3.446   0.772  0.7336  0.5252 -1.4567
 1158SOL     OW13442   4.044   0.666   0.640  0.1032  1.0116 -0.5979
 1158SOL    HW113443   3.967   0.615   0.679  0.3504  1.7280  0.8707
 1158SOL    HW213444   4.012   0.753   0.604  0.0566  0.8404 -0.9725
 1159SOL     OW13445   1.391   4.290   1.238 -0.0993 -0.3682 -0.0265
 1159SOL    HW113446   1.341   4.345   1.171  1.0592 -0.2163 -0.7761
 1159SOL    HW213447   1.429   4.209   1.193  0.1406 -0.6000  0.5853
 1160SOL     OW13448   1.657   7.948   0.038 -0.4855 -0.0002 -0.9115
 1160SOL    HW113449   1.666   7.992  -0.052  1.6340 -2.3887 -1.9132
 1160SOL    HW213450   1.733   7.977   0.096  0.7231 -2.0096 -1.4593
 1161SOL     OW13451   3.772   3.976   2.339 -0.3485 -0.1008  0.2489
 1161SOL    HW113452   3.750   4.012   2.430 -1.0627 -1.1235  0.4865
 1161SOL    HW213453   3.839   3.902   2.349 -0.1686  0.0166 -0.0932
 1162SOL     OW13454   9.697   5.405   1.502  0.7308  0.2637  0.0663
 1162SOL    HW113455   9.613   5.444   1.466  1.3390 -0.7000 -2.4775
 1162SOL    HW213456   9.676   5.345   1.579 -0.8501  0.3910 -0.2619
 1163SOL     OW13457   0.587   5.659   0.662 -0.5182  0.6247  0.7701
 1163SOL    HW113458   0.547   5.619   0.579  0.7461 -1.9697  1.3558
 1163SOL    HW213459   0.517   5.665   0.733 -1.1091  0.9175  0.1711
 1164SOL     OW13460   2.206   8.943   1.182  0.1088  0.1654  0.0216
 1164SOL    HW113461   2.177   8.921   1.089  0.3450  2.4130 -0.6258
 1164SOL    HW213462   2.164   8.879   1.246 -2.4937  0.4133 -1.3362
 1165SOL     OW13463   0.143   4.695   0.919  0.1614 -0.0469 -0.2861
 1165SOL    HW113464   0.154   4.665   1.014  3.3689 -0.4151 -0.7115
 1165SOL    HW213465   0.160   4.793   0.912 -0.5215  0.0655 -0.4250
 1166SOL     OW13466   2.771   2.036   2.218 -0.1717 -0.3460 -0.5459
 1166SOL    HW113467   2.791   1.945   2.254 -0.2716 -1.0472 -2.2378
 1166SOL    HW213468   2.832   2.103   2.262  0.9436 -1.4388 -0.3897
 1167SOL     OW13469   3.995   3.984   2.043 -0.0518 -0.6070 -0.4292
 1167SOL    HW113470   4.033   4.061   2.094 -1.5170  0.0301 -0.2630
 1167SOL    HW213471   3.953   3.920   2.107 -0.9507 -0.3356 -0.7401
 1168SOL     OW13472   1.280   9.395   0.818  0.0336 -0.6525  0.6246
 1168SOL    HW113473   1.311   9.301   0.832 -1.4148 -1.1256  0.7411
 1168SOL    HW213474   1.346   9.458   0.858  0.6518 -1.6397  1.1904
 1169SOL     OW13475   1.517   5.156   2.022  0.1609  0.2004 -0.0278
 1169SOL    HW113476   1.503   5.227   2.092  0.1379  0.8963 -0.7283
 1169SOL    HW213477   1.434   5.100   2.015 -0.1865  0.7203 -0.1494
 1170SOL     OW13478   2.345   8.906   2.596 -1.0251  0.3642 -0.2677
 1170SOL    HW113479   2.425   8.963   2.614 -0.0469 -1.3737  1.0191
 1170SOL    HW213480   2.262   8.958   2.617 -0.2136  1.7086 -0.2957
 1171SOL     OW13481   3.231   0.951   2.571 -0.2500 -0.2424 -0.2386
 1171SOL    HW113482   3.223   1.023   2.502 -1.8385 -0.0485  0.1264
 1171SOL    HW213483   3.317   0.901   2.558 -0.5990 -0.3007 -2.4241
 1172SOL     OW13484   0.895   2.523   0.589  0.1906  0.3360  0.1538
 1172SOL    HW113485   0.985   2.559   0.567  0.2615 -0.2866 -0.5936
 1172SOL    HW213486   0.828   2.597   0.586  0.4348  0.5176 -0.7548
 1173SOL     OW13487   3.244   4.252   0.048  0.6154  0.3335 -0.8894
 1173SOL    HW113488   3.200   4.293  -0.031  1.7042  1.0598 -1.1233
 1173SOL    HW213489   3.311   4.315   0.086  1.7126 -0.8937 -0.7499
 1174SOL     OW13490   3.414   3.600   2.334  0.2310  0.0553 -0.4500
 1174SOL    HW113491   3.384   3.540   2.407  1.1456 -1.2826 -1.1543
 1174SOL    HW213492   3.375   3.570   2.247  0.8352  0.3631 -0.8334
 1175SOL     OW13493   2.857   7.188   0.360  0.0993  0.0715  0.1261
 1175SOL    HW113494   2.868   7.274   0.410 -0.5776 -0.0876  0.5498
 1175SOL    HW213495   2.786   7.133   0.403  0.8785 -0.9239  0.1473
 1176SOL     OW13496   9.622   5.213   1.687  0.3960 -0.7213  0.3285
 1176SOL    HW113497   9.562   5.150   1.637 -0.6776 -0.6054  1.4509
 1176SOL    HW213498   9.696   5.160   1.730  1.3984 -0.8001 -1.4840
 1177SOL     OW13499   3.374   9.916   2.443 -0.0830  0.1274 -0.1871
 1177SOL    HW113500   3.314   9.844   2.479  0.1150 -0.4253 -0.9568
 1177SOL    HW213501   3.453   9.874   2.398  0.5702  0.8456  0.2790
 1178SOL     OW13502   1.035   6.517   0.502 -0.4479 -0.2060  0.1045
 1178SOL    HW113503   1.050   6.439   0.563  0.4628  1.1624  1.6796
 1178SOL    HW213504   1.116   6.529   0.444 -0.9831 -1.0042 -0.8284
 1179SOL     OW13505   1.460   1.664   1.007 -0.6769  0.0233  0.2412
 1179SOL    HW113506   1.550   1.706   1.002 -0.6300 -0.2034 -0.9152
 1179SOL    HW213507   1.422   1.677   1.099 -0.5575  2.3757 -0.0036
 1180SOL     OW13508   3.141   8.622   1.908  0.2680  0.0231  0.6544
 1180SOL    HW113509   3.073   8.600   1.979  1.7738 -0.6827  1.9303
 1180SOL    HW213510   3.155   8.542   1.850 -1.4914  0.8294 -0.9112
 1181SOL     OW13511   2.102   1.183   1.220 -0.0726  0.3038 -0.0199
 1181SOL    HW113512   2.100   1.102   1.163  1.2843  0.6002 -0.5081
 1181SOL    HW213513   2.072   1.263   1.167 -0.1371  0.3446  0.0770
 1182SOL     OW13514   1.479   0.893   1.545 -0.7381 -0.6401  0.5111
 1182SOL    HW113515   1.432   0.806   1.559 -3.3578  0.7657  0.9248
 1182SOL    HW213516   1.551   0.904   1.613  0.1591 -2.8361 -0.0685
 1183SOL     OW13517   2.515   9.028   1.917 -0.0512 -0.3207  0.0275
 1183SOL    HW113518   2.598   9.039   1.972 -0.6710  0.7140  0.7656
 1183SOL    HW213519   2.535   8.967   1.840  1.0512 -1.0851  0.8978
 1184SOL     OW13520   5.148   2.836   2.235  0.2355  0.1759  0.4205
 1184SOL    HW113521   5.200   2.921   2.222 -0.8986  0.8405  0.0906
 1184SOL    HW213522   5.098   2.841   2.322 -1.3532  0.6847 -0.4993
 1185SOL     OW13523   1.050   2.348   0.738 -0.5018  0.4863  0.2855
 1185SOL    HW113524   0.973   2.382   0.684 -1.4982  1.9718  2.5792
 1185SOL    HW213525   1.073   2.255   0.708 -1.4326  1.0265 -2.2145
 1186SOL     OW13526   2.612   6.222   0.109 -0.2698  0.0119 -0.1030
 1186SOL    HW113527   2.661   6.278   0.176 -1.3904  2.5642 -1.3453
 1186SOL    HW213528   2.618   6.264   0.019 -1.5532 -1.6410 -0.9939
 1187SOL     OW13529   1.316   9.088   2.069  0.0890 -0.5482 -0.4270
 1187SOL    HW113530   1.231   9.048   2.035  0.7245 -0.4311 -2.1674
 1187SOL    HW213531   1.371   9.017   2.113 -0.4263 -0.8288 -0.2322
 1188SOL     OW13532   1.700   3.377   0.021  0.2891  0.1221  0.1055
 1188SOL    HW113533   1.751   3.300   0.059  1.6669  0.8015 -0.3151
 1188SOL    HW213534   1.763   3.439  -0.026 -0.7307  1.7585  0.8375
 1189SOL     OW13535   1.624   7.540   0.250  0.1579  0.2746  0.5436
 1189SOL    HW113536   1.606   7.446   0.221  0.1837  0.5404 -0.3683
 1189SOL    HW213537   1.717   7.548   0.284  0.5010  0.1907 -0.3627
 1190SOL     OW13538   0.774   2.941   1.604 -0.0878  0.1198  0.1356
 1190SOL    HW113539   0.844   2.941   1.532 -0.4254  1.2045 -0.2103
 1190SOL    HW213540   0.685   2.961   1.564 -0.4141 -0.0924  0.7440
 1191SOL     OW13541   1.340   1.687   1.504  0.0927 -0.1627  0.1866
 1191SOL    HW113542   1.287   1.761   1.545 -0.1673  0.0305 -0.4902
 1191SOL    HW213543   1.320   1.601   1.551 -0.8934 -0.1125 -0.1354
 1192SOL     OW13544   2.333   2.799   0.200 -0.4855  0.0176 -0.0910
 1192SOL    HW113545   2.270   2.864   0.242  0.4064  1.0599 -0.3535
 1192SOL    HW213546   2.428   2.825   0.222 -0.1500 -1.9859  0.9740
 1193SOL     OW13547   2.172   3.443   0.587  0.2456 -0.2577  0.2549
 1193SOL    HW113548   2.147   3.428   0.491 -0.2727 -0.6271  0.4476
 1193SOL    HW213549   2.247   3.381   0.612 -0.7822 -1.3808  0.5806
 1194SOL     OW13550   2.777   4.211   2.566 -0.5899  0.4162  0.4023
 1194SOL    HW113551   2.742   4.174   2.652  0.0019  1.4958  1.1203
 1194SOL    HW213552   2.708   4.199   2.494 -0.0348 -2.9412  0.3594
 1195SOL     OW13553   2.093   6.620   1.221 -0.3838 -0.5246  0.3805
 1195SOL    HW113554   2.178   6.622   1.273 -0.3565 -0.1605  0.3225
 1195SOL    HW213555   2.075   6.527   1.191 -0.5974 -0.8179  1.3748
 1196SOL     OW13556   2.756   5.686   1.749  0.0029  0.6194 -0.3721
 1196SOL    HW113557   2.759   5.659   1.845 -0.6377 -1.1396 -0.8349
 1196SOL    HW213558   2.770   5.606   1.691  1.7058  1.8770 -1.7473
 1197SOL     OW13559   3.193   3.559   0.336  0.3237 -0.3050 -0.0075
 1197SOL    HW113560   3.269   3.623   0.326 -0.1754  0.2003 -0.5843
 1197SOL    HW213561   3.109   3.608   0.357 -0.0025 -0.7901 -0.1511
 1198SOL     OW13562   1.825   4.871   1.492  0.7758 -0.4446  0.3612
 1198SOL    HW113563   1.836   4.832   1.401 -1.4478 -2.3329  0.8729
 1198SOL    HW213564   1.739   4.922   1.497  1.8134  1.3048  0.8510
 1199SOL     OW13565   4.053   5.025   0.720 -0.3508 -0.4203  0.3956
 1199SOL    HW113566   4.055   5.048   0.817 -0.6226  0.4799  0.1954
 1199SOL    HW213567   3.967   4.978   0.699 -0.5595 -0.0843  0.4825
 1200SOL     OW13568   0.406   5.831   0.081  0.3230 -0.3283 -0.2853
 1200SOL    HW113569   0.326   5.781   0.114  1.0460 -0.9371  0.5453
 1200SOL    HW213570   0.376   5.913   0.033 -0.8151 -0.7231 -0.2585
 1201SOL     OW13571   1.095   3.272   1.033 -0.3884 -0.6486 -0.6403
 1201SOL    HW113572   1.114   3.366   1.006  0.9740 -0.5113  0.7008
 1201SOL    HW213573   1.110   3.211   0.955 -0.5270  0.1610 -1.3027
 1202SOL     OW13574   3.134   3.879   0.600  0.6888  0.0412  0.1170
 1202SOL    HW113575   3.081   3.818   0.541 -2.0224  1.9186  0.5093
 1202SOL    HW213576   3.140   3.840   0.692 -2.3383  0.9943  0.7737
 1203SOL     OW13577   1.336   6.017   2.600  0.2721 -0.3069 -0.4148
 1203SOL    HW113578   1.264   6.075   2.638 -0.5277 -0.3651 -1.8064
 1203SOL    HW213579   1.397   6.073   2.544  0.9095 -0.3813  0.2077
 1204SOL     OW13580   2.878   8.564   2.368 -0.0609  0.6797 -0.2730
 1204SOL    HW113581   2.830   8.538   2.452 -0.3449  0.9642 -0.3482
 1204SOL    HW213582   2.946   8.494   2.347  0.1078  0.6772  0.2676
 1205SOL     OW13583   2.427   6.146   1.508 -0.0507 -0.1145 -0.0598
 1205SOL    HW113584   2.428   6.173   1.412  1.4076 -0.4752 -0.1548
 1205SOL    HW213585   2.489   6.205   1.560  1.0203 -1.4752  0.2264
 1206SOL     OW13586   2.509   7.914   0.725 -0.0648  0.1287  0.0196
 1206SOL    HW113587   2.454   7.900   0.807 -0.1099 -1.8805 -0.3344
 1206SOL    HW213588   2.474   7.993   0.674 -1.1978  0.2471  0.9681
 1207SOL     OW13589   0.533   6.553   2.361 -0.2437  0.2471  0.1179
 1207SOL    HW113590   0.589   6.624   2.317  0.6808 -0.3168  0.3755
 1207SOL    HW213591   0.560   6.544   2.457  1.4373 -2.2305 -0.5467
 1208SOL     OW13592   2.229   5.982   1.957 -0.1198  0.3968 -0.0721
 1208SOL    HW113593   2.323   5.948   1.958 -0.6922 -1.2276 -0.4292
 1208SOL    HW213594   2.169   5.912   1.920 -1.0078  2.6618 -3.1685
 1209SOL     OW13595   3.059   2.148   0.695 -0.7602  0.2242  0.5773
 1209SOL    HW113596   3.158   2.135   0.705 -0.4801  1.1580 -0.7234
 1209SOL    HW213597   3.034   2.132   0.599 -1.2850  3.4231  0.1366
 1210SOL     OW13598   2.089   1.266   1.484 -0.1582 -0.2930 -0.0436
 1210SOL    HW113599   2.025   1.342   1.496 -1.1884 -1.0649 -0.5270
 1210SOL    HW213600   2.124   1.267   1.390  2.3978  1.5368  0.8960
 1211SOL     OW13601   3.604   0.489   2.288  0.1484 -0.3201  0.1181
 1211SOL    HW113602   3.637   0.531   2.203  0.5863 -1.2973 -0.2003
 1211SOL    HW213603   3.554   0.405   2.266  1.6597 -1.4499  0.9273
 1212SOL     OW13604   1.427   1.296   0.423  0.1628 -0.0289 -0.3556
 1212SOL    HW113605   1.522   1.327   0.418  0.3335 -0.5244 -0.2461
 1212SOL    HW213606   1.382   1.311   0.335  0.1682  0.7502 -0.2309
 1213SOL     OW13607   4.080   0.919   1.126  0.0675 -0.0309  0.2744
 1213SOL    HW113608   4.174   0.933   1.157 -0.4483  1.7198  1.1257
 1213SOL    HW213609   4.020   0.909   1.205 -0.3027 -2.4104 -0.2827
 1214SOL     OW13610   2.140   5.662   0.553 -0.0402  0.0103  0.3776
 1214SOL    HW113611   2.226   5.704   0.522 -0.0239  0.3825  0.9303
 1214SOL    HW213612   2.063   5.717   0.523 -0.0525  0.0703  0.5211
 1215SOL     OW13613   2.913   8.509   2.046 -0.1648  0.0599  0.2528
 1215SOL    HW113614   2.963   8.501   2.133  0.0598  2.2930  0.3697
 1215SOL    HW213615   2.818   8.534   2.064 -0.2474  0.0237 -0.1203
 1216SOL     OW13616   2.886   1.538   0.507  0.5453 -0.1085  0.2083
 1216SOL    HW113617   2.867   1.631   0.474 -0.4066 -0.7345 -1.0342
 1216SOL    HW213618   2.906   1.479   0.430 -1.7843 -1.6230  0.7259
 1217SOL     OW13619   0.633   5.776   0.294 -0.1696  0.3814 -0.2461
 1217SOL    HW113620   0.687   5.698   0.261 -0.6538 -0.4984  0.9974
 1217SOL    HW213621   0.556   5.792   0.232 -0.9447 -1.1166  0.3065
 1218SOL     OW13622   2.180   2.984   1.968 -0.1217  0.0748  0.2724
 1218SOL    HW113623   2.182   2.884   1.976  0.4385  0.1399  0.9832
 1218SOL    HW213624   2.094   3.019   2.005 -0.1653 -0.1132  0.3484
 1219SOL     OW13625   1.544   3.873   0.089 -0.5682  0.3433 -0.2346
 1219SOL    HW113626   1.525   3.897  -0.007 -2.6270  1.9050  0.5188
 1219SOL    HW213627   1.600   3.945   0.130  5.1315 -2.9628 -1.7001
 1220SOL     OW13628   1.380   6.416   0.686  0.1731 -0.3187  0.4058
 1220SOL    HW113629   1.345   6.323   0.692  1.1758 -0.6541  1.2978
 1220SOL    HW213630   1.384   6.456   0.777 -4.0881  2.0847 -0.3288
 1221SOL     OW13631   3.275   1.051   0.934 -0.1140  0.4279 -0.0094
 1221SOL    HW113632   3.246   1.145   0.951 -1.7731 -0.3930  1.9347
 1221SOL    HW213633   3.219   1.013   0.860 -0.0226  0.7107 -0.2248
 1222SOL     OW13634   4.055   2.769   0.914  0.6093 -0.0886  0.1689
 1222SOL    HW113635   4.035   2.671   0.922  0.8579 -0.2062 -0.6083
 1222SOL    HW213636   4.092   2.788   0.823  0.2047  0.7931  0.1815
 1223SOL     OW13637   2.309   6.025   0.188  0.0913 -0.2712  0.8118
 1223SOL    HW113638   2.394   6.025   0.241  0.0328  2.0330  0.9240
 1223SOL    HW213639   2.254   6.105   0.212 -1.5315 -1.0548 -0.2064
 1224SOL     OW13640   2.249   9.557   0.824 -0.2525 -0.0234 -0.1956
 1224SOL    HW113641   2.216   9.620   0.754 -0.9056  0.8360  0.8728
 1224SOL    HW213642   2.343   9.582   0.848 -0.3631  0.2876 -0.0771
 1225SOL     OW13643   4.437   1.239   1.636  0.3012  0.6702  0.3267
 1225SOL    HW113644   4.466   1.209   1.727 -1.6999 -1.5489  0.2692
 1225SOL    HW213645   4.500   1.203   1.567  0.0943 -0.2131  0.5939
 1226SOL     OW13646   3.355   1.798   2.352  0.4570 -0.6681  0.2582
 1226SOL    HW113647   3.447   1.838   2.346  0.9693 -2.0491 -1.4833
 1226SOL    HW213648   3.361   1.708   2.394 -0.3167 -0.1296  1.5390
 1227SOL     OW13649   0.523   3.170   1.538  0.5835  0.2904 -0.1463
 1227SOL    HW113650   0.564   3.261   1.537 -0.3707  0.7289 -0.5621
 1227SOL    HW213651   0.517   3.137   1.632  2.4383 -0.0469 -0.1351
 1228SOL     OW13652   3.142   3.056   0.480  0.0272  0.6954 -0.1355
 1228SOL    HW113653   3.082   3.116   0.427 -1.3113  0.7590  1.3911
 1228SOL    HW213654   3.087   2.988   0.529  1.0340  1.6737  2.4659
 1229SOL     OW13655   2.860   1.250   0.960  0.1684  0.3657 -0.2193
 1229SOL    HW113656   2.915   1.315   1.013  0.7086 -0.3805  0.1488
 1229SOL    HW213657   2.787   1.214   1.018  2.0652 -2.1062  0.7639
 1230SOL     OW13658   0.954   5.414   0.586  0.0498  0.0360  0.4116
 1230SOL    HW113659   0.883   5.440   0.651  0.1188  0.8254  0.1762
 1230SOL    HW213660   1.005   5.496   0.558 -0.8129 -0.1030 -1.6393
 1231SOL     OW13661   2.809   9.107   1.394 -0.1466  0.0488  0.2189
 1231SOL    HW113662   2.843   9.192   1.432  0.2072  1.0705 -2.2662
 1231SOL    HW213663   2.710   9.102   1.406 -0.2966  1.2545 -0.4339
 1232SOL     OW13664   2.563   5.134   1.307 -0.6819  0.6833 -0.1868
 1232SOL    HW113665   2.618   5.139   1.224 -0.2797  0.4488  0.0664
 1232SOL    HW213666   2.622   5.135   1.387 -1.1106  1.7084  0.1267
 1233SOL     OW13667   3.478   8.935   0.686 -0.1992 -0.3794 -0.1353
 1233SOL    HW113668   3.482   8.852   0.631 -1.2805  0.2134 -1.1312
 1233SOL    HW213669   3.564   8.985   0.677 -0.6242  0.0551 -1.8349
 1234SOL     OW13670   9.471   4.562   1.533  0.1781  0.1323 -0.4561
 1234SOL    HW113671   9.372   4.563   1.519  0.0721  0.7699  0.3527
 1234SOL    HW213672   9.517   4.573   1.444 -0.5046  4.1613 -0.4174
 1235SOL     OW13673   3.301   8.545   2.447  0.2316  0.5081  0.5030
 1235SOL    HW113674   3.206   8.576   2.442  0.0041 -0.2156  0.3642
 1235SOL    HW213675   3.313   8.485   2.525  0.5867  0.6235  0.5381
 1236SOL     OW13676   1.474   9.342   1.507  0.0549  0.6309  0.0546
 1236SOL    HW113677   1.547   9.392   1.459 -1.5428  3.4029  0.3621
 1236SOL    HW213678   1.389   9.351   1.455 -0.4071 -1.3797  0.4161
 1237SOL     OW13679   3.962   4.238   1.075 -0.1435 -0.2859 -0.9471
 1237SOL    HW113680   3.954   4.154   1.022  0.4696 -0.9480 -0.0129
 1237SOL    HW213681   4.040   4.230   1.138 -1.5680  0.0198  0.8961
 1238SOL     OW13682   2.878   9.522   2.209  0.2924 -0.3832  0.6163
 1238SOL    HW113683   2.948   9.460   2.172  0.2724 -0.9076  1.4465
 1238SOL    HW213684   2.868   9.507   2.307 -0.2998  0.3734  0.6801
 1239SOL     OW13685   4.440   2.886   0.176 -0.2914 -0.1324  0.2325
 1239SOL    HW113686   4.495   2.809   0.145 -0.8921 -0.5587  0.2327
 1239SOL    HW213687   4.403   2.935   0.096 -0.1986 -0.0512  0.2391
 1240SOL     OW13688   1.852   9.224   2.135  0.2289 -0.3013 -0.5348
 1240SOL    HW113689   1.769   9.221   2.079 -0.0986 -1.0670 -0.0184
 1240SOL    HW213690   1.933   9.221   2.076 -0.1060  1.1968 -1.0754
 1241SOL     OW13691   2.835   2.223   2.440 -0.7451  0.2047  0.5065
 1241SOL    HW113692   2.754   2.189   2.488  0.4277  0.1963  2.5248
 1241SOL    HW213693   2.881   2.292   2.496  0.1530  0.8755 -1.0137
 1242SOL     OW13694   1.733   8.192   2.165  0.1038  0.8315  0.8646
 1242SOL    HW113695   1.716   8.176   2.068  2.7672  0.2912  0.4387
 1242SOL    HW213696   1.646   8.197   2.214 -1.3243  2.5748 -1.7525
 1243SOL     OW13697   1.155   7.073   1.774  0.0366  0.0722 -0.8943
 1243SOL    HW113698   1.127   6.984   1.738  1.8175 -0.1295 -1.8530
 1243SOL    HW213699   1.122   7.083   1.867 -1.5597 -0.9136 -1.3238
 1244SOL     OW13700   2.176   2.711   2.080 -0.6405 -0.0411  0.5448
 1244SOL    HW113701   2.227   2.651   2.141  0.4153  1.2097  0.9128
 1244SOL    HW213702   2.094   2.664   2.049 -1.2104 -0.6896  2.9288
 1245SOL     OW13703   9.985   5.516   0.587 -0.5357  0.8194 -0.3879
 1245SOL    HW113704  10.054   5.478   0.648 -1.8422 -0.1728  0.4922
 1245SOL    HW213705   9.980   5.615   0.600  0.4286  0.8367 -0.1606
 1246SOL     OW13706   9.303   5.402   0.957 -0.3550 -0.0654  0.1134
 1246SOL    HW113707   9.340   5.325   0.905  0.7878 -0.2437  1.1609
 1246SOL    HW213708   9.261   5.367   1.041 -2.9037  0.1411 -1.0466
 1247SOL     OW13709   9.353   4.853   1.577  0.2918 -0.1365 -0.1466
 1247SOL    HW113710   9.273   4.872   1.519  0.3898 -0.6537 -0.4585
 1247SOL    HW213711   9.381   4.937   1.624  0.0963  0.2489 -0.7109
 1248SOL     OW13712   0.352   6.050   1.051  0.1375  0.0946 -0.0831
 1248SOL    HW113713   0.434   6.104   1.071 -1.0187  1.9070 -0.1925
 1248SOL    HW213714   0.270   6.103   1.073 -1.0284 -1.5330 -0.4012
 1249SOL     OW13715   4.266   2.583   0.043 -0.5927 -0.1706 -0.6415
 1249SOL    HW113716   4.315   2.508  -0.002 -0.8656 -1.4591  1.1673
 1249SOL    HW213717   4.259   2.564   0.141  0.4711  2.8298  0.0663
 1250SOL     OW13718   1.187   7.728   0.106  0.5887  0.3329  0.0652
 1250SOL    HW113719   1.173   7.748   0.203  1.7126 -0.8767  0.4917
 1250SOL    HW213720   1.283   7.742   0.082  0.5306 -0.3753 -0.6112
 1251SOL     OW13721   4.147   2.399   0.797 -0.4898  0.0844  0.3679
 1251SOL    HW113722   4.168   2.343   0.877  0.0511  0.1883  0.2957
 1251SOL    HW213723   4.096   2.480   0.826  0.2137  0.4166  0.6820
 1252SOL     OW13724   1.249   4.028   0.007 -0.5814  0.2437  0.3382
 1252SOL    HW113725   1.347   4.025   0.028 -0.1464  1.6370 -1.3400
 1252SOL    HW213726   1.214   3.935  -0.003  0.6671 -0.2563  0.5763
 1253SOL     OW13727   5.010   2.856   2.483  0.3073 -0.1224 -0.0536
 1253SOL    HW113728   5.018   2.786   2.554  3.1567 -1.1189 -1.2557
 1253SOL    HW213729   5.003   2.946   2.525 -0.2118 -0.8550  1.4850
 1254SOL     OW13730   1.590   4.448   0.054  0.3457 -0.0630  0.2121
 1254SOL    HW113731   1.689   4.436   0.062  0.3174  0.3009  1.1267
 1254SOL    HW213732   1.544   4.395   0.124 -0.0760  0.3252  0.2295
 1255SOL     OW13733   3.536   3.571   1.951 -0.4281 -0.0601  0.0726
 1255SOL    HW113734   3.605   3.637   1.982  1.1162 -1.2549 -0.7642
 1255SOL    HW213735   3.515   3.508   2.026 -2.1668  1.5480  0.9888
 1256SOL     OW13736   2.641   1.503   1.185 -0.0363 -0.1036  0.4780
 1256SOL    HW113737   2.557   1.456   1.158 -0.6369  0.2488  1.6864
 1256SOL    HW213738   2.628   1.601   1.174  1.8847 -0.2270 -3.9361
 1257SOL     OW13739   3.656   4.178   1.454 -0.4973  0.4354  0.1556
 1257SOL    HW113740   3.649   4.102   1.519  0.8364 -0.1718 -0.3906
 1257SOL    HW213741   3.678   4.262   1.502  0.7922 -0.0721  0.4760
 1258SOL     OW13742   2.646   6.344   2.099  0.3684  0.3796  0.4536
 1258SOL    HW113743   2.593   6.279   2.153  1.3760 -1.0206 -0.2253
 1258SOL    HW213744   2.740   6.346   2.133  0.5186  0.9668  0.0124
 1259SOL     OW13745   3.944   3.057   1.808 -0.1992 -0.1978 -0.0862
 1259SOL    HW113746   3.882   3.082   1.882 -0.8782 -0.2600 -0.6285
 1259SOL    HW213747   4.018   3.124   1.803 -0.5130  0.1753  0.2332
 1260SOL     OW13748   0.022   6.278   1.783 -0.1361 -1.0866 -0.3295
 1260SOL    HW113749  -0.011   6.352   1.724 -0.7598 -0.2619  1.0140
 1260SOL    HW213750   0.106   6.240   1.745  1.2236  1.5542 -0.1213
 1261SOL     OW13751   1.031   7.775   2.268 -0.3539  0.1344  0.0746
 1261SOL    HW113752   0.934   7.770   2.244 -0.0189  0.8473 -1.5068
 1261SOL    HW213753   1.040   7.795   2.366 -1.7780 -0.8175  0.4305
 1262SOL     OW13754   4.369   2.488   1.460 -0.0764 -0.3319 -0.0761
 1262SOL    HW113755   4.319   2.452   1.539  2.2083 -2.5554  0.4251
 1262SOL    HW213756   4.349   2.433   1.379 -0.2295  0.2068 -0.4062
 1263SOL     OW13757   2.081   3.365   1.170 -0.3050  0.3035 -0.2560
 1263SOL    HW113758   2.012   3.309   1.217 -0.8345 -0.0858 -1.4945
 1263SOL    HW213759   2.171   3.346   1.210 -0.6095 -0.7632 -0.0625
 1264SOL     OW13760   2.820   2.739   2.341  0.0482 -0.2707 -0.1244
 1264SOL    HW113761   2.834   2.750   2.439 -0.9967 -0.2645  0.0275
 1264SOL    HW213762   2.806   2.828   2.299  1.5293 -0.1771 -0.4504
 1265SOL     OW13763   4.069   9.476   0.083  0.0350 -0.5829  0.0686
 1265SOL    HW113764   4.055   9.475  -0.017  0.7636  0.1422 -0.0414
 1265SOL    HW213765   4.148   9.420   0.105 -0.3377 -1.0303  0.2795
 1266SOL     OW13766   9.074   5.415   0.390 -0.2163 -0.1415 -0.3960
 1266SOL    HW113767   9.100   5.505   0.426 -1.7995 -0.2572  1.1032
 1266SOL    HW213768   9.034   5.360   0.463 -2.5288 -0.7817 -2.0906
 1267SOL     OW13769   1.294   4.008   1.935 -1.1285 -0.4525  0.3609
 1267SOL    HW113770   1.351   4.071   1.987 -1.6786  0.2915  0.0650
 1267SOL    HW213771   1.249   3.944   1.998  0.5591 -1.4978  0.5460
 1268SOL     OW13772   3.506   2.500   1.458 -0.1172 -0.1446 -0.1990
 1268SOL    HW113773   3.490   2.534   1.366 -0.9021  0.5857  0.2047
 1268SOL    HW213774   3.421   2.502   1.511  0.5081  0.2618  0.8092
 1269SOL     OW13775   1.943   3.958   0.412  0.2926  0.6442  0.3373
 1269SOL    HW113776   1.875   3.888   0.435 -0.2023  0.8772 -0.4158
 1269SOL    HW213777   1.950   4.023   0.487  0.3755  0.0820  0.8209
 1270SOL     OW13778   1.820   4.450   1.077  0.1555  0.0954  0.7048
 1270SOL    HW113779   1.777   4.521   1.021 -0.3057 -1.4760 -0.9645
 1270SOL    HW213780   1.753   4.378   1.096  0.5642  0.1797  2.5458
 1271SOL     OW13781   3.260   3.703   1.596 -0.2245 -0.5013 -0.2022
 1271SOL    HW113782   3.289   3.713   1.691  0.6969 -1.0701 -0.4187
 1271SOL    HW213783   3.306   3.772   1.540  0.2845 -1.0376 -0.4527
 1272SOL     OW13784   3.984   1.619   1.317  0.3067 -0.6683  0.3866
 1272SOL    HW113785   4.047   1.664   1.380  0.0210  0.4158 -0.0986
 1272SOL    HW213786   4.024   1.616   1.226 -0.4754  0.3515 -0.0030
 1273SOL     OW13787   1.437   6.946   1.427  0.4703  0.1778 -0.3868
 1273SOL    HW113788   1.459   6.859   1.383 -2.2024 -0.5148 -0.4472
 1273SOL    HW213789   1.447   6.938   1.526 -0.6040 -0.4810 -0.3224
 1274SOL     OW13790   3.204   9.463   1.345  0.5098 -0.2714  0.4208
 1274SOL    HW113791   3.262   9.511   1.279 -1.2051  1.4862  0.1731
 1274SOL    HW213792   3.149   9.395   1.296  0.0260  0.2876  0.1754
 1275SOL     OW13793   9.833   5.093   2.604  0.2015 -0.1675  0.1782
 1275SOL    HW113794   9.750   5.137   2.568  0.3729  0.0156  0.0064
 1275SOL    HW213795   9.807   5.020   2.667 -0.0649  0.7482  1.1452
 1276SOL     OW13796   1.216   4.970   0.702  0.4369 -0.2634  0.2894
 1276SOL    HW113797   1.235   5.005   0.610  1.2671  2.3863  1.4240
 1276SOL    HW213798   1.200   4.871   0.697 -1.2428  0.1018 -2.9251
 1277SOL     OW13799   2.161   0.091   1.249  0.5812  0.4868  0.0735
 1277SOL    HW113800   2.078   0.073   1.196  0.3622  1.4805  0.0740
 1277SOL    HW213801   2.149   0.174   1.303  0.3793 -1.1023  2.5526
 1278SOL     OW13802   9.647   5.505   0.417 -0.4135 -0.1594  0.1574
 1278SOL    HW113803   9.672   5.420   0.372 -0.3636  0.2087 -0.5248
 1278SOL    HW213804   9.600   5.565   0.351 -2.4520 -0.5526  1.2001
 1279SOL     OW13805   4.916   3.185   2.294 -0.1530 -0.1910 -0.3444
 1279SOL    HW113806   4.888   3.131   2.215 -1.4118  0.3257 -0.2647
 1279SOL    HW213807   5.016   3.191   2.297 -0.0944  0.0705 -2.0941
 1280SOL     OW13808   2.628   2.248   0.572 -1.0901  0.0282 -0.2119
 1280SOL    HW113809   2.574   2.224   0.652  0.2071  0.9701  0.9831
 1280SOL    HW213810   2.717   2.284   0.602 -0.1412 -0.6946 -2.0931
 1281SOL     OW13811   9.851   4.898   1.507  0.1563 -0.1477  0.4161
 1281SOL    HW113812   9.934   4.928   1.553  0.3893 -0.8179  0.4317
 1281SOL    HW213813   9.824   4.967   1.440  0.5645  0.1984  0.6010
 1282SOL     OW13814   4.127   4.526   0.381 -0.3365  0.0778  0.1999
 1282SOL    HW113815   4.200   4.561   0.323  1.2538 -2.1215  0.8162
 1282SOL    HW213816   4.066   4.467   0.327 -0.9160  0.8713 -0.0199
 1283SOL     OW13817   9.203   5.705   1.893 -0.4946 -0.5091  0.2720
 1283SOL    HW113818   9.263   5.639   1.938  1.2197 -0.5865 -2.0105
 1283SOL    HW213819   9.110   5.670   1.891 -0.0270 -1.8332  1.0992
 1284SOL     OW13820   9.353   5.818   2.508  0.8410  0.7182 -0.1953
 1284SOL    HW113821   9.393   5.909   2.499  2.4522  0.0726  0.3033
 1284SOL    HW213822   9.417   5.750   2.471 -1.2175 -0.0274 -2.4877
 1285SOL     OW13823   3.370   9.472   0.557 -0.0519 -0.1448 -0.4053
 1285SOL    HW113824   3.447   9.433   0.507  0.1493 -0.0323 -0.1804
 1285SOL    HW213825   3.291   9.411   0.550 -0.7630  0.9807 -2.8918
 1286SOL     OW13826   2.556   9.903   1.926 -0.2163  0.1169  0.0966
 1286SOL    HW113827   2.582   9.811   1.955  1.6396  0.9384  1.0494
 1286SOL    HW213828   2.602   9.925   1.840 -1.0953 -0.0456 -0.4214
 1287SOL     OW13829   1.465   2.033   1.272  0.2482 -0.4281  0.0246
 1287SOL    HW113830   1.460   2.056   1.174 -0.6157 -0.6004  0.0220
 1287SOL    HW213831   1.557   2.051   1.305  0.4774 -0.0982 -0.7601
 1288SOL     OW13832   0.510   3.872   2.170 -0.1940 -1.3200  0.2346
 1288SOL    HW113833   0.529   3.784   2.128  0.9999 -1.0975  0.2812
 1288SOL    HW213834   0.426   3.910   2.133  0.0211 -1.8417 -0.7855
 1289SOL     OW13835   4.857   2.545   0.303 -0.0432  0.1219 -0.3811
 1289SOL    HW113836   4.900   2.486   0.235  1.0156  0.1955  0.2184
 1289SOL    HW213837   4.760   2.524   0.309 -0.3186  0.6365 -2.4790
 1290SOL     OW13838   1.576   6.861   2.559  0.1895 -0.0995 -0.3256
 1290SOL    HW113839   1.600   6.778   2.608  0.2171  0.2352  0.2268
 1290SOL    HW213840   1.543   6.837   2.467  0.3181 -0.7064 -0.2159
 1291SOL     OW13841   3.096   9.683   1.871  0.1940  0.3526  0.3234
 1291SOL    HW113842   3.145   9.608   1.915  0.4065 -0.1161 -0.6998
 1291SOL    HW213843   3.162   9.749   1.835  0.0611 -0.0258 -0.6120
 1292SOL     OW13844   2.694   5.106   2.540  0.5606  0.3874 -0.0777
 1292SOL    HW113845   2.616   5.084   2.599  0.7610  0.2044  0.1234
 1292SOL    HW213846   2.697   5.041   2.464  0.7407  0.1570  0.1261
 1293SOL     OW13847   1.484   9.711   2.291 -0.4420 -0.1523 -0.0039
 1293SOL    HW113848   1.431   9.741   2.370 -1.3817 -0.0387 -0.6586
 1293SOL    HW213849   1.504   9.613   2.299 -1.3739 -0.3614 -0.0800
 1294SOL     OW13850   1.593   1.841   1.530  0.2626 -0.6583 -0.1394
 1294SOL    HW113851   1.603   1.882   1.620  0.5472  2.2447 -1.4248
 1294SOL    HW213852   1.499   1.808   1.518 -0.0648 -0.0669  0.8134
 1295SOL     OW13853   2.318   6.720   2.072 -0.1264 -0.1417  0.4340
 1295SOL    HW113854   2.349   6.781   2.145  0.2290 -0.8732  0.8990
 1295SOL    HW213855   2.300   6.774   1.990  1.4071  0.4270  0.4607
 1296SOL     OW13856   2.866   2.691   0.370 -0.2171 -0.9351  0.2514
 1296SOL    HW113857   2.780   2.651   0.401 -0.6954  1.0161  1.5014
 1296SOL    HW213858   2.851   2.786   0.343  1.5853 -0.5339  0.5880
 1297SOL     OW13859   1.259   5.433   2.422 -0.1158 -0.1857 -0.8689
 1297SOL    HW113860   1.178   5.469   2.377  0.2437  1.5619 -0.1604
 1297SOL    HW213861   1.231   5.374   2.498 -0.8169  3.0857  1.5352
 1298SOL     OW13862   0.640   5.184   2.470  0.3418  0.5811  0.0398
 1298SOL    HW113863   0.629   5.278   2.502 -0.7702  0.0806  1.1949
 1298SOL    HW213864   0.689   5.131   2.539  1.4941  0.4578 -0.8763
 1299SOL     OW13865   1.478   3.206   0.017 -0.2213 -0.5950  0.6317
 1299SOL    HW113866   1.460   3.195   0.115 -0.3631  0.0045  0.6706
 1299SOL    HW213867   1.549   3.275   0.003  0.9906 -1.8556  0.3950
 1300SOL     OW13868   3.536   1.289   1.427 -0.1312  0.4733  0.2606
 1300SOL    HW113869   3.464   1.234   1.386 -1.4732  1.3350  1.4141
 1300SOL    HW213870   3.524   1.385   1.399  1.7708  0.3311 -1.1736
 1301SOL     OW13871   4.616   2.692   0.100  0.2682  0.3406  0.4907
 1301SOL    HW113872   4.584   2.633   0.174 -0.4096  0.0094 -0.0642
 1301SOL    HW213873   4.652   2.636   0.025 -1.3221  0.5724 -0.4766
 1302SOL     OW13874   4.732   2.121   0.861 -0.0486  0.1460 -0.1048
 1302SOL    HW113875   4.761   2.125   0.765  1.4842  0.4211  0.3561
 1302SOL    HW213876   4.676   2.201   0.882 -3.0908 -1.4944 -1.5934
 1303SOL     OW13877   2.323   3.226   1.529  0.3003 -0.1920 -0.0354
 1303SOL    HW113878   2.309   3.132   1.559  0.9220 -0.2317  0.1224
 1303SOL    HW213879   2.282   3.289   1.596  0.1861 -0.3379  0.0314
 1304SOL     OW13880   3.009   6.956   0.378  0.2898  0.0009 -0.0502
 1304SOL    HW113881   2.987   7.040   0.329  1.0469  0.6129  0.6416
 1304SOL    HW213882   3.020   6.975   0.475  2.0196 -0.5858 -0.1005
 1305SOL     OW13883   1.260   4.459   1.053  0.1602 -0.5923 -0.8977
 1305SOL    HW113884   1.160   4.468   1.049  0.2935  1.0356 -0.6945
 1305SOL    HW213885   1.299   4.486   0.965  0.4740 -0.4314 -0.7088
 1306SOL     OW13886   4.186   2.395   2.005  0.1049  0.7782 -0.1144
 1306SOL    HW113887   4.088   2.382   2.019  0.3785 -0.9807  0.1870
 1306SOL    HW213888   4.217   2.471   2.061 -0.6418 -0.1462  1.5878
 1307SOL     OW13889   1.983   7.238   1.606  0.1818  0.2253 -0.5630
 1307SOL    HW113890   1.952   7.154   1.650 -1.2718  0.9686 -0.1484
 1307SOL    HW213891   2.023   7.216   1.517  0.1407 -0.9444 -0.2974
 1308SOL     OW13892   4.220   3.510   1.838 -0.1593 -0.4426 -0.0127
 1308SOL    HW113893   4.317   3.536   1.837 -0.0678 -0.6946  1.4719
 1308SOL    HW213894   4.176   3.546   1.919 -1.3793 -0.1600 -0.7814
 1309SOL     OW13895   4.189   1.117   2.564 -0.6096  0.2284 -0.1894
 1309SOL    HW113896   4.220   1.066   2.644 -2.0933  0.2777  0.4388
 1309SOL    HW213897   4.114   1.177   2.591 -2.0153 -0.7439 -1.8890
 1310SOL     OW13898   0.309   3.863   1.447 -0.4538 -0.3230 -0.3811
 1310SOL    HW113899   0.362   3.942   1.477 -1.2077  0.2703 -0.6053
 1310SOL    HW213900   0.260   3.824   1.525  0.5120 -1.0422 -0.1159
 1311SOL     OW13901   1.693   5.245   1.529 -0.3698 -0.2065  0.0477
 1311SOL    HW113902   1.653   5.244   1.438 -0.3441  1.5686  0.0018
 1311SOL    HW213903   1.629   5.205   1.595 -0.4737 -1.2853 -0.7021
 1312SOL     OW13904   2.501   3.780   1.461 -0.2551  0.1364  0.0395
 1312SOL    HW113905   2.459   3.743   1.544 -0.8452 -0.1640 -0.3888
 1312SOL    HW213906   2.510   3.707   1.393 -1.3242  0.7290 -0.7682
 1313SOL     OW13907   1.576   0.305   2.012 -0.3696  0.3701  0.3126
 1313SOL    HW113908   1.566   0.372   2.085  1.5450  0.0993  0.8440
 1313SOL    HW213909   1.522   0.223   2.034 -2.0400  1.3930  0.0588
 1314SOL     OW13910   9.741   5.908   2.498 -0.0373 -0.1707  0.5220
 1314SOL    HW113911   9.660   5.960   2.524  0.5584  0.8436  0.3759
 1314SOL    HW213912   9.716   5.839   2.429 -0.2956  1.9362 -1.5463
 1315SOL     OW13913   3.688   9.858   1.737  0.0154 -0.3085 -0.3634
 1315SOL    HW113914   3.728   9.804   1.663  0.0503 -1.4688  0.4964
 1315SOL    HW213915   3.613   9.807   1.779 -0.6849  0.7836 -0.2687
 1316SOL     OW13916   3.157   3.744   2.555  0.0621  0.0529 -0.1563
 1316SOL    HW113917   3.202   3.655   2.558  0.5054  0.3299  2.0463
 1316SOL    HW213918   3.075   3.738   2.497 -0.4704 -2.0467  0.7820
 1317SOL     OW13919   9.328   4.233   2.470  0.1745  0.1367  0.3159
 1317SOL    HW113920   9.346   4.172   2.547  0.9795 -1.1405 -0.8465
 1317SOL    HW213921   9.354   4.187   2.385 -2.2268  0.8490 -0.8682
 1318SOL     OW13922   2.722   4.180   1.643 -0.4488 -0.7562 -0.6677
 1318SOL    HW113923   2.698   4.135   1.729  0.4922  0.6283  0.3433
 1318SOL    HW213924   2.718   4.114   1.569 -0.2701 -2.2215  0.5973
 1319SOL     OW13925   3.124   5.120   0.206 -0.3810 -0.1578 -0.1375
 1319SOL    HW113926   3.055   5.112   0.278  0.2398 -0.0299  0.4641
 1319SOL    HW213927   3.077   5.128   0.117 -1.1481  0.0820  0.2795
 1320SOL     OW13928   0.907   4.852   0.171 -0.3612 -0.7910  0.6454
 1320SOL    HW113929   0.904   4.860   0.270  1.6352 -1.2051  0.7453
 1320SOL    HW213930   0.980   4.789   0.144 -0.3308 -0.0388 -1.1231
 1321SOL     OW13931   3.981   1.269   2.095  0.2961  0.6779 -0.7910
 1321SOL    HW113932   3.939   1.213   2.024  1.6965  0.9730 -1.8608
 1321SOL    HW213933   4.063   1.314   2.059  0.1287  2.0981  0.5419
 1322SOL     OW13934   2.196   2.534   0.219 -0.2388 -0.0081  0.2355
 1322SOL    HW113935   2.201   2.485   0.306 -1.0400  0.9064  0.8010
 1322SOL    HW213936   2.220   2.630   0.234  0.1839  0.0288 -0.6578
 1323SOL     OW13937   1.621   2.402   1.135 -0.6044 -0.7382 -0.1449
 1323SOL    HW113938   1.692   2.445   1.079 -0.5914  2.1468  1.9666
 1323SOL    HW213939   1.536   2.453   1.128 -0.6493 -0.4103  2.3011
 1324SOL     OW13940   3.889   1.075   1.576 -0.2759 -0.4459  0.9733
 1324SOL    HW113941   3.803   1.033   1.606 -0.9158  2.3691  3.3193
 1324SOL    HW213942   3.879   1.174   1.577  2.1611 -0.1302 -1.4588
 1325SOL     OW13943   1.655   6.942   1.757  0.6556  0.3959 -0.5270
 1325SOL    HW113944   1.566   6.974   1.724 -0.5501 -1.1230  1.1264
 1325SOL    HW213945   1.699   7.014   1.811 -0.3560  0.5703  0.0698
 1326SOL     OW13946   3.334   5.091   0.735  0.2398 -0.5223 -0.6410
 1326SOL    HW113947   3.309   5.122   0.827  0.4488 -0.2574 -0.6729
 1326SOL    HW213948   3.258   5.041   0.695 -0.5293  0.9743 -1.0590
 1327SOL     OW13949   1.899   0.964   0.463 -0.3997 -0.0185 -0.1451
 1327SOL    HW113950   1.828   0.979   0.393  1.6494  2.7844 -1.7249
 1327SOL    HW213951   1.964   0.895   0.430 -0.5447 -0.1534 -0.1494
 1328SOL     OW13952   1.707   0.202   0.842 -0.3407 -0.2035 -0.2997
 1328SOL    HW113953   1.722   0.271   0.771 -2.8758 -0.5248 -1.1872
 1328SOL    HW213954   1.674   0.246   0.925 -0.5534 -0.1983 -0.3879
 1329SOL     OW13955   9.545   5.758   1.651  0.2436 -0.3700 -0.2865
 1329SOL    HW113956   9.501   5.692   1.712 -0.2400 -0.5213 -0.7967
 1329SOL    HW213957   9.543   5.849   1.692 -1.0964 -0.2605 -0.5784
 1330SOL     OW13958   4.374   2.811   0.449 -0.1823  0.4108 -0.2447
 1330SOL    HW113959   4.461   2.818   0.498 -0.8109  0.2646  0.9144
 1330SOL    HW213960   4.376   2.870   0.369  0.3324  1.8260  0.7800
 1331SOL     OW13961   3.764   2.309   0.368  0.3413  0.0707  0.1617
 1331SOL    HW113962   3.856   2.299   0.331  0.4624 -0.1118  0.5072
 1331SOL    HW213963   3.748   2.238   0.437  0.2797  0.6684  0.7759
 1332SOL     OW13964   2.142   5.061   0.367  0.2883 -0.2095  0.4598
 1332SOL    HW113965   2.113   5.029   0.457 -2.1309 -1.2158 -0.6412
 1332SOL    HW213966   2.068   5.114   0.325  0.2078 -2.3644 -2.2074
 1333SOL     OW13967   2.337   9.831   0.089 -0.3512  0.3300 -0.4195
 1333SOL    HW113968   2.296   9.874   0.008 -0.5703  2.4023  0.7760
 1333SOL    HW213969   2.288   9.860   0.171 -0.7952 -2.5956  0.3834
 1334SOL     OW13970   2.026   2.546   0.560 -0.0117 -0.0682 -0.4226
 1334SOL    HW113971   1.971   2.591   0.489  0.6718  0.5068 -0.5929
 1334SOL    HW213972   2.053   2.614   0.628  0.7233 -0.2978 -0.4872
 1335SOL     OW13973   0.270   5.864   0.468  0.6679 -0.7014  0.1404
 1335SOL    HW113974   0.234   5.829   0.381 -0.9364 -0.0156  0.5120
 1335SOL    HW213975   0.214   5.832   0.543  1.5926 -0.6515  0.8608
 1336SOL     OW13976   2.285   7.132   1.880 -0.1925 -0.0215 -0.0545
 1336SOL    HW113977   2.295   7.034   1.862  0.5033 -0.0872  0.6685
 1336SOL    HW213978   2.347   7.183   1.820  1.1692 -0.1648  1.2127
 1337SOL     OW13979   2.881   9.025   1.151  0.4417  0.1501  0.2648
 1337SOL    HW113980   2.837   9.051   1.237  0.7330  0.3329  0.3572
 1337SOL    HW213981   2.974   8.993   1.169  0.0107 -1.1839  0.1838
 1338SOL     OW13982   3.188   2.488   1.267 -0.1983 -1.2891  0.7701
 1338SOL    HW113983   3.272   2.537   1.244 -0.2228 -0.5659  2.1439
 1338SOL    HW213984   3.121   2.553   1.303 -1.2384 -1.9056 -0.0456
 1339SOL     OW13985   1.886   1.243   0.544 -0.1929 -0.2000  0.0304
 1339SOL    HW113986   1.872   1.145   0.532  0.2385 -0.4178  1.2376
 1339SOL    HW213987   1.913   1.262   0.639  0.0428  1.0489 -0.2719
 1340SOL     OW13988   1.732   4.974   0.629 -0.2287 -0.0195 -0.1966
 1340SOL    HW113989   1.783   4.943   0.548 -1.4468 -1.7325 -0.3396
 1340SOL    HW213990   1.652   4.916   0.642 -0.2917  0.5241  2.0060
 1341SOL     OW13991   3.442   1.359   0.330  0.1277  0.0080  0.2284
 1341SOL    HW113992   3.399   1.302   0.260  0.3329  0.9195 -0.6471
 1341SOL    HW213993   3.371   1.409   0.380  0.0405  0.0460  0.0682
 1342SOL     OW13994   1.207   3.012   0.432  0.0051  0.3409  0.1073
 1342SOL    HW113995   1.243   3.044   0.520  0.3752  0.5364 -0.1141
 1342SOL    HW213996   1.111   2.987   0.443 -0.4879  2.1410  0.1515
 1343SOL     OW13997   9.206   5.917   0.713  0.1733 -0.5364  0.0931
 1343SOL    HW113998   9.192   5.914   0.812 -0.5451  2.3748  0.1323
 1343SOL    HW213999   9.122   5.888   0.666 -0.0705 -0.2454  0.3455
 1344SOL     OW14000   2.439   9.655   1.015  0.3950  0.0636 -0.1970
 1344SOL    HW114001   2.494   9.734   1.042 -1.5669  1.5840 -0.6246
 1344SOL    HW214002   2.408   9.606   1.097 -0.3168  1.0667  0.1372
 1345SOL     OW14003   0.528   4.520   2.088  0.4899  0.4353 -0.3458
 1345SOL    HW114004   0.530   4.421   2.081  1.1903  0.5563 -1.9141
 1345SOL    HW214005   0.522   4.561   1.997  0.3637  1.8372  0.2696
 1346SOL     OW14006   0.907   7.555   0.264 -0.3977 -0.4315 -0.0860
 1346SOL    HW114007   0.886   7.618   0.190  1.3883  1.6932  1.1553
 1346SOL    HW214008   1.006   7.543   0.271 -0.6062 -1.6468  1.1253
 1347SOL     OW14009   3.345   3.967   0.472  0.4615  0.5708  0.2760
 1347SOL    HW114010   3.338   3.992   0.375  1.8630 -0.0035  0.0155
 1347SOL    HW214011   3.255   3.940   0.506  0.3990 -1.6216 -1.5443
 1348SOL     OW14012   9.442   4.712   2.502 -0.4233 -0.0429 -0.1188
 1348SOL    HW114013   9.469   4.629   2.453  0.2413 -0.3478  0.7625
 1348SOL    HW214014   9.517   4.778   2.499 -1.1732  0.7826 -1.3495
 1349SOL     OW14015   1.556   9.296   1.097 -0.2624  0.0476  0.6037
 1349SOL    HW114016   1.618   9.373   1.087  0.7829 -0.9909 -1.1444
 1349SOL    HW214017   1.550   9.246   1.011 -0.6500 -2.0480  1.8022
 1350SOL     OW14018   1.345   6.468   1.190 -0.4403 -0.0644  0.2830
 1350SOL    HW114019   1.263   6.507   1.148 -0.0197  0.4579 -0.0601
 1350SOL    HW214020   1.398   6.418   1.122 -0.9273 -1.1625  0.7031
 1351SOL     OW14021   1.182   7.435   0.226  0.0077 -0.0524 -0.0636
 1351SOL    HW114022   1.211   7.454   0.132  1.8159 -3.2457 -0.1948
 1351SOL    HW214023   1.255   7.461   0.289 -0.2857 -0.1033  0.2950
 1352SOL     OW14024   2.464   4.233   2.005 -0.6602  0.2058 -0.3119
 1352SOL    HW114025   2.529   4.295   1.962 -1.2082 -0.1617 -1.6838
 1352SOL    HW214026   2.428   4.275   2.088 -0.7568  1.5637 -1.0312
 1353SOL     OW14027   2.021   9.464   0.943  0.2081  0.4465 -0.5874
 1353SOL    HW114028   2.026   9.466   1.043 -0.7945 -2.4833 -0.4507
 1353SOL    HW214029   2.106   9.500   0.905  1.7093 -0.9556  1.3521
 1354SOL     OW14030   2.709   0.417   2.257  0.1247  0.3199  0.0988
 1354SOL    HW114031   2.698   0.366   2.342  2.8274 -0.6131 -0.0370
 1354SOL    HW214032   2.754   0.505   2.276  0.8017  0.0768 -0.3446
 1355SOL     OW14033   1.266   5.825   0.812  0.3854 -0.3163 -0.4000
 1355SOL    HW114034   1.177   5.829   0.856  1.3152 -0.4085  1.5279
 1355SOL    HW214035   1.262   5.873   0.724 -1.2912  0.6016  0.1613
 1356SOL     OW14036   1.713   9.892   1.552 -0.3709  0.4808  0.2529
 1356SOL    HW114037   1.642   9.822   1.554 -0.3682  0.3647 -2.3248
 1356SOL    HW214038   1.689   9.962   1.486  2.3127 -0.0162 -1.3256
 1357SOL     OW14039   0.510   3.903   2.441  0.6488  0.5418  0.1804
 1357SOL    HW114040   0.538   3.810   2.466  1.3028  1.0227  1.2664
 1357SOL    HW214041   0.500   3.909   2.342 -2.3978 -1.5197  0.2915
 1358SOL     OW14042   1.696   1.805   1.276  0.1099  0.3697  0.7143
 1358SOL    HW114043   1.656   1.815   1.367  0.1021  1.4947  0.6017
 1358SOL    HW214044   1.765   1.876   1.262 -0.5698  0.8064 -0.5080
 1359SOL     OW14045   2.426   3.473   1.068  0.2122  0.7658 -0.2105
 1359SOL    HW114046   2.402   3.469   1.165 -0.0853 -0.3260 -0.3261
 1359SOL    HW214047   2.447   3.381   1.035 -0.7006  0.9885 -1.4279
 1360SOL     OW14048   2.473   0.893   0.762 -0.1077 -0.1950  0.0707
 1360SOL    HW114049   2.525   0.808   0.761 -0.0701 -0.1784  0.4979
 1360SOL    HW214050   2.384   0.878   0.719  0.7212  0.0934 -1.8146
 1361SOL     OW14051   2.398   8.527   2.111  0.1121  0.5894  0.1763
 1361SOL    HW114052   2.319   8.522   2.172  1.7474 -2.1147  2.1984
 1361SOL    HW214053   2.418   8.435   2.075  0.1489  1.8665 -3.2156
 1362SOL     OW14054   9.880   5.798   1.593  0.1064  0.4087  0.3778
 1362SOL    HW114055   9.837   5.885   1.618 -1.5110 -0.5981  1.1814
 1362SOL    HW214056   9.838   5.724   1.645  0.6676 -1.0064 -1.1386
 1363SOL     OW14057   1.723   4.191   1.055  0.0416  0.1838 -0.0470
 1363SOL    HW114058   1.641   4.135   1.066 -0.7704  0.8245 -2.6143
 1363SOL    HW214059   1.782   4.152   0.985  0.5962  1.2573 -0.1933
 1364SOL     OW14060   1.336   6.113   0.995  0.1148 -0.1926 -0.6894
 1364SOL    HW114061   1.364   6.117   0.899  0.8731 -1.8173 -0.5413
 1364SOL    HW214062   1.397   6.053   1.046  0.4124  1.5141  1.0685
 1365SOL     OW14063   1.033   2.725   2.093 -0.0512  0.3609 -0.2371
 1365SOL    HW114064   1.116   2.746   2.041 -0.5042  0.7968 -0.7915
 1365SOL    HW214065   0.961   2.695   2.030  0.3647 -2.2146  0.4661
 1366SOL     OW14066   2.720   4.001   1.086  0.2038 -0.1558  0.1819
 1366SOL    HW114067   2.706   4.096   1.112 -2.1909 -0.2191 -0.7148
 1366SOL    HW214068   2.679   3.941   1.155 -0.9203 -0.4466 -0.7175
 1367SOL     OW14069   3.169   2.091   0.294 -0.1098  0.4707  1.0053
 1367SOL    HW114070   3.256   2.082   0.344  0.9974  0.5765 -0.8348
 1367SOL    HW214071   3.173   2.171   0.234 -1.0721 -0.1105  0.1424
 1368SOL     OW14072   1.389   1.034   2.335 -0.0505 -0.1680 -0.8820
 1368SOL    HW114073   1.429   1.066   2.248  0.0454  1.7741 -0.1491
 1368SOL    HW214074   1.352   1.112   2.385 -0.7906 -1.3825  0.4928
 1369SOL     OW14075   3.501   0.737   2.082 -0.5222 -0.0611  0.3958
 1369SOL    HW114076   3.409   0.770   2.102 -1.1668 -0.4870 -1.6993
 1369SOL    HW214077   3.500   0.637   2.079  0.2193 -0.1006  1.2937
 1370SOL     OW14078   3.272   9.968   0.994  0.2838 -0.2013 -0.1384
 1370SOL    HW114079   3.251   9.870   0.990  0.2091 -0.1028 -4.5864
 1370SOL    HW214080   3.369   9.981   1.011  0.3260 -1.0286  0.2585
 1371SOL     OW14081   2.091   3.806   1.901 -0.5832  0.2226  0.3146
 1371SOL    HW114082   2.112   3.870   1.975 -0.7294  0.1596  0.4100
 1371SOL    HW214083   2.001   3.765   1.916 -0.9783  0.8354 -0.3396
 1372SOL     OW14084   2.760   5.017   2.179  0.4809  0.7299 -0.0900
 1372SOL    HW114085   2.700   5.093   2.153  0.4884  0.9493  0.5340
 1372SOL    HW214086   2.738   4.937   2.123 -1.1801  0.4659  0.9151
 1373SOL     OW14087   4.931   3.083   2.602 -0.2100 -0.5564 -0.2140
 1373SOL    HW114088   4.878   3.037   2.673 -1.4013  0.5354 -0.3776
 1373SOL    HW214089   4.869   3.118   2.531  0.6663  1.2455 -0.1150
 1374SOL     OW14090   3.451   1.311   2.543  0.2236  0.3222 -0.3312
 1374SOL    HW114091   3.396   1.237   2.583  1.5764 -0.9417 -0.7764
 1374SOL    HW214092   3.527   1.333   2.604  1.5026 -0.6703 -1.5401
 1375SOL     OW14093   9.884   3.979   1.621  0.3883  0.1255  0.0288
 1375SOL    HW114094   9.964   3.925   1.646  0.1307  0.6386  2.0673
 1375SOL    HW214095   9.876   3.984   1.521 -0.2602 -4.5378 -0.2352
 1376SOL     OW14096   0.608   5.438   2.613 -1.0695  0.1785 -0.5444
 1376SOL    HW114097   0.708   5.434   2.616 -1.0852  0.4280  0.7401
 1376SOL    HW214098   0.579   5.525   2.575 -0.7942  0.8089  0.6727
 1377SOL     OW14099   2.138   8.324   2.435 -0.1744 -0.0828 -0.0241
 1377SOL    HW114100   2.160   8.348   2.529  0.9491  0.3731 -0.4012
 1377SOL    HW214101   2.046   8.358   2.413  0.0997  1.0059  0.4849
 1378SOL     OW14102   0.639   3.049   2.127 -0.5796 -0.0120 -0.5637
 1378SOL    HW114103   0.575   3.122   2.151  0.4341  1.0463 -0.9941
 1378SOL    HW214104   0.678   3.068   2.037  0.7695 -0.3242 -0.0616
 1379SOL     OW14105   3.042   2.284   2.195  0.3101 -0.7686  0.4075
 1379SOL    HW114106   3.053   2.382   2.177  0.6841 -0.6554  1.2439
 1379SOL    HW214107   3.123   2.250   2.242 -0.3483 -1.2350  1.2050
 1380SOL     OW14108   0.446   2.848   0.476  0.1166 -0.4329  0.4592
 1380SOL    HW114109   0.348   2.864   0.475  0.0007 -0.7663  2.7777
 1380SOL    HW214110   0.470   2.780   0.406 -1.5105 -1.3823  0.8025
 1381SOL     OW14111   0.457   6.931   0.387  0.0018 -0.1657 -0.6961
 1381SOL    HW114112   0.425   6.839   0.367 -1.0105  0.1302 -0.4426
 1381SOL    HW214113   0.510   6.965   0.309 -0.3481 -0.6324 -1.1408
 1382SOL     OW14114   3.477   9.255   0.880 -0.3106 -0.1101 -0.4166
 1382SOL    HW114115   3.382   9.282   0.869 -0.2572  0.5182  0.5770
 1382SOL    HW214116   3.533   9.300   0.811 -0.4346  1.2199  0.3346
 1383SOL     OW14117   1.646   6.608   0.028  0.4727  0.1455  0.6299
 1383SOL    HW114118   1.737   6.585  -0.008 -0.3305 -0.6994 -0.8890
 1383SOL    HW214119   1.623   6.544   0.102  0.4345 -0.6725 -0.0836
 1384SOL     OW14120   3.645   9.156   2.423  0.1042 -0.4836 -0.1534
 1384SOL    HW114121   3.636   9.255   2.427 -1.4153 -0.6298  0.2141
 1384SOL    HW214122   3.725   9.128   2.477 -0.2069  0.4335  0.7928
 1385SOL     OW14123   3.479   4.871   0.150 -0.5004 -0.3612  0.2859
 1385SOL    HW114124   3.396   4.833   0.192 -1.0721  1.9619  1.2878
 1385SOL    HW214125   3.489   4.967   0.175  2.5724 -0.6252  0.2347
 1386SOL     OW14126   2.131   2.792   1.016 -0.2795  0.5477  0.1837
 1386SOL    HW114127   2.185   2.870   1.047 -1.1740  0.7037  1.4049
 1386SOL    HW214128   2.034   2.809   1.034 -0.4600 -0.9655  0.7514
 1387SOL     OW14129   2.273   0.123   2.546 -0.0254 -0.0358  0.0321
 1387SOL    HW114130   2.329   0.176   2.609  0.6311 -0.5043 -0.1544
 1387SOL    HW214131   2.192   0.088   2.595 -0.5966  1.3372  0.0860
 1388SOL     OW14132   3.969   1.951   0.159 -0.4305  0.2449  0.3323
 1388SOL    HW114133   4.010   1.979   0.246  1.1974  0.4825 -0.5040
 1388SOL    HW214134   4.028   1.884   0.114 -1.4722 -0.1975 -0.4027
 1389SOL     OW14135   0.523   4.199   0.139  0.7187 -0.1559 -0.0876
 1389SOL    HW114136   0.460   4.220   0.064  2.6658 -0.1865 -1.7489
 1389SOL    HW214137   0.495   4.250   0.220 -0.9768  0.4530 -1.0158
 1390SOL     OW14138   2.649   4.541   2.138  0.0225 -0.4283 -0.1935
 1390SOL    HW114139   2.593   4.464   2.169  0.1181  0.8897  3.4636
 1390SOL    HW214140   2.745   4.524   2.159  0.0913  0.4920  0.2751
 1391SOL     OW14141   1.565   5.980   2.067 -0.3504 -0.4094  0.3160
 1391SOL    HW114142   1.649   6.022   2.101 -0.0098 -0.8779  0.0501
 1391SOL    HW214143   1.528   6.036   1.993 -1.6340  1.1597  2.0801
 1392SOL     OW14144   1.695   9.283   2.404 -0.2791 -0.7997 -0.5832
 1392SOL    HW114145   1.770   9.239   2.354 -0.7053 -1.0203 -1.0271
 1392SOL    HW214146   1.708   9.270   2.502  2.4211  2.5124 -0.3737
 1393SOL     OW14147   2.553   1.702   1.693  0.0923 -0.8601 -0.2001
 1393SOL    HW114148   2.468   1.727   1.647  0.2631 -1.9918 -1.1582
 1393SOL    HW214149   2.604   1.638   1.636  2.5913  1.4101 -0.6186
 1394SOL     OW14150   1.483   7.734   0.079  0.2863  0.4058 -0.1471
 1394SOL    HW114151   1.535   7.664   0.127  0.6861 -1.9281 -3.7739
 1394SOL    HW214152   1.543   7.812   0.060  0.9698  0.0140  0.3667
 1395SOL     OW14153   1.894   9.787   2.471 -0.6271  0.6452 -0.3038
 1395SOL    HW114154   1.810   9.781   2.418  0.3502  0.5243 -1.8475
 1395SOL    HW214155   1.915   9.884   2.488 -1.1240  0.6733  0.1945
 1396SOL     OW14156   2.989   3.666   1.539  0.3186  0.0046  0.3258
 1396SOL    HW114157   2.961   3.666   1.635  0.2023  0.1782  0.2928
 1396SOL    HW214158   3.088   3.652   1.533  0.6688  2.1964  0.5784
 1397SOL     OW14159   4.028   9.426   1.986  0.0004 -0.0222 -0.2201
 1397SOL    HW114160   4.100   9.470   2.039  0.4606 -0.0709 -0.7870
 1397SOL    HW214161   4.034   9.327   1.998 -0.1632 -0.0056 -0.0222
 1398SOL     OW14162   9.741   5.985   1.750 -0.2108 -0.8457 -0.3092
 1398SOL    HW114163   9.809   6.037   1.801  0.7086 -0.9619 -1.3876
 1398SOL    HW214164   9.677   5.941   1.813  2.2303 -2.8376  0.8644
 1399SOL     OW14165   0.272   6.171   1.689 -0.3367  0.2368  0.9747
 1399SOL    HW114166   0.312   6.080   1.693 -0.4614 -0.0664 -2.8028
 1399SOL    HW214167   0.345   6.239   1.672 -0.6098  0.4585  0.6799
 1400SOL     OW14168   3.453   4.875   0.569 -0.1602  0.2348 -0.1978
 1400SOL    HW114169   3.436   4.972   0.587 -2.8753 -0.3908  0.8731
 1400SOL    HW214170   3.520   4.840   0.635  1.6928  1.6061 -1.3009
 1401SOL     OW14171   4.893   3.946   1.139 -0.0849  0.5076  0.2418
 1401SOL    HW114172   4.802   3.987   1.135 -1.1111 -1.6922  0.5482
 1401SOL    HW214173   4.914   3.918   1.232 -0.8241 -2.7254 -0.5041
 1402SOL     OW14174   3.103   1.339   1.104  0.4582 -0.1209 -0.3044
 1402SOL    HW114175   3.155   1.328   1.019  1.0282 -0.9363  0.1425
 1402SOL    HW214176   3.069   1.433   1.111  2.0254  0.4688 -0.5258
 1403SOL     OW14177   4.232   2.256   0.206 -0.5706 -0.6841  0.0056
 1403SOL    HW114178   4.199   2.303   0.124 -0.6014 -0.7615 -0.0266
 1403SOL    HW214179   4.161   2.256   0.275 -0.9377 -1.5821 -0.3659
 1404SOL     OW14180   0.391   3.642   1.839  0.4350 -0.0616  0.3202
 1404SOL    HW114181   0.311   3.677   1.888 -0.2768 -1.3342  0.0804
 1404SOL    HW214182   0.365   3.561   1.787  2.2662 -1.4933  1.5869
 1405SOL     OW14183   9.637   4.791   1.913  0.2927  0.4085  0.3254
 1405SOL    HW114184   9.552   4.843   1.910 -0.1242 -0.0894  2.8502
 1405SOL    HW214185   9.662   4.763   1.820 -2.4516  0.3068 -0.4179
 1406SOL     OW14186   2.253   5.565   2.539  0.4688 -0.2296  0.2626
 1406SOL    HW114187   2.189   5.569   2.616  0.4981  2.8925  0.2141
 1406SOL    HW214188   2.319   5.640   2.548  2.3798 -1.7225 -1.1826
 1407SOL     OW14189   0.793   6.909   1.526 -0.3186 -0.3387  0.4461
 1407SOL    HW114190   0.744   6.922   1.440  1.0073  0.1385 -0.2461
 1407SOL    HW214191   0.796   6.996   1.575 -0.9354 -0.5756  0.9151
 1408SOL     OW14192   1.219   5.925   0.569 -0.1091 -0.1746 -0.4053
 1408SOL    HW114193   1.123   5.896   0.573 -0.4716  1.1139  0.6385
 1408SOL    HW214194   1.260   5.894   0.483 -1.0748 -1.8914 -0.2576
 1409SOL     OW14195   4.928   4.376   0.572  0.6718  0.0588  0.2087
 1409SOL    HW114196   4.838   4.403   0.540 -0.1797 -1.6056  1.1127
 1409SOL    HW214197   4.964   4.303   0.514  0.8045 -0.2778  0.7080
 1410SOL     OW14198   0.684   6.702   0.674 -0.5368  0.0018  0.1116
 1410SOL    HW114199   0.728   6.770   0.616 -0.1917  0.4053  0.8308
 1410SOL    HW214200   0.716   6.713   0.768 -1.3773 -0.3945  0.4496
 1411SOL     OW14201   3.559   5.127   1.079  0.5561 -0.4172 -0.0479
 1411SOL    HW114202   3.581   5.029   1.085  1.6303 -0.1927 -0.2071
 1411SOL    HW214203   3.638   5.176   1.043  0.6559  0.7627  1.7434
 1412SOL     OW14204   1.734   3.056   2.005  0.3200 -0.0386 -0.1750
 1412SOL    HW114205   1.654   3.064   2.065  0.2922 -0.8859 -0.1042
 1412SOL    HW214206   1.725   2.975   1.947  0.9371  0.0905 -0.4543
 1413SOL     OW14207   3.672   8.698   2.179  0.0953 -0.3703 -0.2119
 1413SOL    HW114208   3.606   8.680   2.106  1.1977  0.9267 -1.5728
 1413SOL    HW214209   3.624   8.709   2.266 -1.5906  1.5373 -1.3419
 1414SOL     OW14210   2.794   9.702   0.287 -0.0968 -0.1534 -0.3856
 1414SOL    HW114211   2.879   9.649   0.286  0.3777  0.6162 -1.5160
 1414SOL    HW214212   2.812   9.793   0.323 -0.1555  0.4607 -1.8625
 1415SOL     OW14213   0.821   6.389   2.349  0.4207  0.1850 -0.5402
 1415SOL    HW114214   0.746   6.328   2.375  1.0773 -0.5505 -0.3186
 1415SOL    HW214215   0.790   6.484   2.351 -0.1228 -0.0001  0.9835
 1416SOL     OW14216   0.489   3.127   0.259  0.7831  0.3573  0.3547
 1416SOL    HW114217   0.477   3.224   0.240 -4.4219 -0.3762 -0.9088
 1416SOL    HW214218   0.534   3.116   0.348  0.2808  3.8834  1.1295
 1417SOL     OW14219   1.223   9.401   0.537  0.2388 -0.1925 -0.0377
 1417SOL    HW114220   1.301   9.464   0.528 -0.0222  0.0717 -0.4830
 1417SOL    HW214221   1.211   9.376   0.633 -0.3592  1.3301  0.2914
 1418SOL     OW14222   3.258   0.662   0.400 -0.0744 -0.6887  0.1625
 1418SOL    HW114223   3.283   0.656   0.303  1.1920 -0.8505  0.4924
 1418SOL    HW214224   3.278   0.754   0.434 -0.5170 -0.6332  0.2678
 1419SOL     OW14225   2.200   8.992   1.575 -0.0542 -0.0916 -0.4728
 1419SOL    HW114226   2.198   9.090   1.559  1.4978  0.4149  2.1640
 1419SOL    HW214227   2.294   8.961   1.589 -0.4756 -2.0403 -1.7545
 1420SOL     OW14228   2.337   4.182   0.335 -0.3654 -0.2604 -0.9838
 1420SOL    HW114229   2.359   4.100   0.388  4.1595  0.3901 -1.6951
 1420SOL    HW214230   2.358   4.263   0.390 -3.5387  0.5096 -0.7962
 1421SOL     OW14231   2.816   7.418   0.516  0.5029  0.1931 -0.3484
 1421SOL    HW114232   2.797   7.359   0.594  2.1920  0.0488 -0.0194
 1421SOL    HW214233   2.734   7.468   0.490 -1.3619 -3.3095 -1.5078
 1422SOL     OW14234   2.235   8.719   1.400 -0.2317 -0.7272  0.4789
 1422SOL    HW114235   2.302   8.777   1.354 -2.5515  2.0526  0.5046
 1422SOL    HW214236   2.197   8.768   1.479 -3.8155 -1.3952 -0.7673
 1423SOL     OW14237   1.031   8.329   1.504  0.5781 -0.6517 -0.0263
 1423SOL    HW114238   1.095   8.309   1.430 -1.2428  0.2172 -1.8659
 1423SOL    HW214239   1.048   8.421   1.539 -0.4644  0.0807 -1.3924
 1424SOL     OW14240   1.576   9.214   0.379  0.1353  0.0528  0.3640
 1424SOL    HW114241   1.637   9.134   0.374 -0.1730 -0.1703  0.1243
 1424SOL    HW214242   1.482   9.182   0.390 -0.1622  0.3462 -1.2816
 1425SOL     OW14243   2.963   7.780   1.640  0.2888 -0.2384  0.1185
 1425SOL    HW114244   3.009   7.859   1.681 -0.8379 -0.7625  2.4748
 1425SOL    HW214245   2.971   7.701   1.701 -3.3462 -0.4554  0.3911
 1426SOL     OW14246   4.794   2.854   1.561  0.4559 -0.3909  0.4871
 1426SOL    HW114247   4.733   2.897   1.627  2.6707 -0.0151  2.3376
 1426SOL    HW214248   4.783   2.755   1.566 -0.3358 -0.3061  0.4821
 1427SOL     OW14249   1.165   6.631   2.334 -0.1172  0.9335 -0.6428
 1427SOL    HW114250   1.238   6.605   2.271 -0.5953  0.9587 -1.2128
 1427SOL    HW214251   1.161   6.730   2.342  1.3500  0.8819  1.1096
 1428SOL     OW14252   1.920   2.390   2.267 -0.0150 -0.2350  0.2339
 1428SOL    HW114253   1.977   2.362   2.190  3.0484 -1.4810  2.8114
 1428SOL    HW214254   1.867   2.311   2.299 -2.6205  0.7098 -1.6180
 1429SOL     OW14255   3.775   2.909   2.545 -0.0120  0.2624  0.2317
 1429SOL    HW114256   3.722   2.932   2.463  1.4731 -1.1824 -1.1580
 1429SOL    HW214257   3.717   2.919   2.626 -2.5106 -1.4598 -1.2745
 1430SOL     OW14258   2.285   2.971   1.654 -0.5135  0.0787 -0.5408
 1430SOL    HW114259   2.255   2.886   1.612  1.2549 -0.8905  0.1240
 1430SOL    HW214260   2.239   2.984   1.742  1.0038 -1.4511  0.5185
 1431SOL     OW14261   2.635   3.749   2.285  0.2446  0.4211 -0.3990
 1431SOL    HW114262   2.614   3.845   2.266 -0.6774  0.3897  0.3978
 1431SOL    HW214263   2.722   3.744   2.336 -1.3185  1.1115  2.4495
 1432SOL     OW14264   1.662   2.353   0.276  0.2256 -0.0170  0.6460
 1432SOL    HW114265   1.759   2.371   0.262  0.3541 -0.6669  0.6507
 1432SOL    HW214266   1.622   2.316   0.192 -0.4721  2.0709  0.0379
 1433SOL     OW14267   9.451   3.833   1.098 -0.0669  0.4692  0.7082
 1433SOL    HW114268   9.473   3.740   1.127  3.6694  0.8056 -0.7915
 1433SOL    HW214269   9.465   3.842   1.000 -0.3106  2.6383  0.8532
 1434SOL     OW14270   0.964   6.647   2.148  0.2530 -0.3629 -0.2722
 1434SOL    HW114271   1.005   6.617   2.235 -0.1589 -0.1455 -0.0052
 1434SOL    HW214272   1.018   6.610   2.072  0.0276 -1.3912  0.0646
 1435SOL     OW14273   1.123   2.860   2.353 -0.0390  0.1290  0.9238
 1435SOL    HW114274   1.035   2.904   2.369  0.6264  0.9788  2.3080
 1435SOL    HW214275   1.118   2.804   2.270 -1.8035  0.3568  0.8673
 1436SOL     OW14276   3.476   4.380   0.956 -0.3792  0.3302  0.1043
 1436SOL    HW114277   3.514   4.312   0.893 -0.2302  1.0878 -0.6300
 1436SOL    HW214278   3.377   4.383   0.946 -0.1561  2.1395 -1.8271
 1437SOL     OW14279   1.162   8.138   0.728 -0.0525 -0.4590 -0.0694
 1437SOL    HW114280   1.137   8.045   0.700 -0.4829 -0.2587 -0.3541
 1437SOL    HW214281   1.126   8.204   0.662 -0.5895 -0.0279  0.6398
 1438SOL     OW14282   1.529   1.477   1.317 -0.0418  0.0504  1.0736
 1438SOL    HW114283   1.459   1.425   1.267  0.1889 -0.6801  1.4917
 1438SOL    HW214284   1.497   1.571   1.331 -0.0417  0.3074 -0.5624
 1439SOL     OW14285   1.732   6.699   1.425 -0.1567  0.2353  0.2185
 1439SOL    HW114286   1.719   6.662   1.516  0.5586  0.0353  0.2379
 1439SOL    HW214287   1.731   6.799   1.429  1.5069  0.2423  0.6840
 1440SOL     OW14288   2.101   0.427   0.566 -0.0982 -0.1996 -0.4737
 1440SOL    HW114289   2.061   0.488   0.635 -0.1963 -0.1840 -0.5449
 1440SOL    HW214290   2.176   0.375   0.608 -0.0309 -0.0494 -0.4060
 1441SOL     OW14291   4.335   1.339   0.974 -0.5692 -0.0580  0.0368
 1441SOL    HW114292   4.396   1.259   0.967 -2.4438 -1.6140  1.0357
 1441SOL    HW214293   4.341   1.392   0.889  3.2684  0.6870  0.6441
 1442SOL     OW14294   3.637   9.812   0.389 -0.7699  0.2300 -0.3244
 1442SOL    HW114295   3.628   9.860   0.302 -1.1093 -0.9005 -0.9288
 1442SOL    HW214296   3.599   9.868   0.462  0.5881  1.7026 -0.7157
 1443SOL     OW14297   0.537   5.550   1.858 -0.1004 -0.0115 -0.2142
 1443SOL    HW114298   0.624   5.505   1.839  0.0815  0.9367 -1.6787
 1443SOL    HW214299   0.529   5.633   1.803 -2.6605 -0.9857 -1.3983
 1444SOL     OW14300   3.793   0.945   0.770 -1.2197  1.0810  0.0086
 1444SOL    HW114301   3.733   0.971   0.694 -0.6800 -1.7059 -1.4442
 1444SOL    HW214302   3.884   0.924   0.735 -0.2773  2.0690  1.7822
 1445SOL     OW14303   1.831   6.080   2.151  0.1526  0.2893 -0.4484
 1445SOL    HW114304   1.886   6.121   2.078 -1.8653  1.9235 -1.0895
 1445SOL    HW214305   1.773   6.150   2.192 -1.4168 -1.3875  0.2645
 1446SOL     OW14306   4.321   1.429   1.276  0.3839 -0.1512 -0.1762
 1446SOL    HW114307   4.377   1.505   1.311 -0.5912  0.1969  0.6396
 1446SOL    HW214308   4.308   1.441   1.178 -0.7262  1.3720  0.1429
 1447SOL     OW14309   2.973   5.855   2.035 -0.6413 -0.0414  0.8106
 1447SOL    HW114310   3.066   5.819   2.030 -1.5183 -2.3357  0.2550
 1447SOL    HW214311   2.924   5.812   2.110 -2.2962 -1.4813 -1.0325
 1448SOL     OW14312   1.711   2.537   0.751  0.0927  0.4853  0.2222
 1448SOL    HW114313   1.717   2.460   0.688 -0.1121  0.7693 -0.1501
 1448SOL    HW214314   1.712   2.623   0.699 -1.7460  0.6869  0.4722
 1449SOL     OW14315   2.841   1.832   0.501 -0.2767 -0.3810 -0.0349
 1449SOL    HW114316   2.826   1.826   0.600 -0.1818  0.0240  0.0039
 1449SOL    HW214317   2.787   1.906   0.463  0.5165  0.1681 -0.1160
 1450SOL     OW14318   1.337   1.660   0.538 -0.3277  0.0129 -0.1575
 1450SOL    HW114319   1.297   1.634   0.627 -0.1455  1.0209  0.2191
 1450SOL    HW214320   1.373   1.578   0.493  1.0548 -0.2895  1.4428
 1451SOL     OW14321   9.458   5.487   1.795  0.3621 -0.0087 -0.0938
 1451SOL    HW114322   9.522   5.410   1.791  0.4515  0.0802 -0.3534
 1451SOL    HW214323   9.421   5.494   1.888  0.6165 -0.1513  0.0198
 1452SOL     OW14324   2.255   2.135   1.704  0.1542 -0.4432 -0.4634
 1452SOL    HW114325   2.173   2.102   1.749 -0.0597  1.0018  0.2419
 1452SOL    HW214326   2.302   2.059   1.660  0.6698 -2.0060  2.6629
 1453SOL     OW14327   1.278   6.723   0.856 -0.2133 -0.2105 -0.3342
 1453SOL    HW114328   1.378   6.716   0.857 -0.2292 -0.5186  2.3991
 1453SOL    HW214329   1.252   6.820   0.863 -0.1315 -0.0713 -1.7480
 1454SOL     OW14330   2.450   2.307   0.122  0.1452 -0.2235 -0.0167
 1454SOL    HW114331   2.478   2.339   0.212  1.5900 -0.5532 -0.3225
 1454SOL    HW214332   2.358   2.340   0.101  0.2396  0.7838  1.1067
 1455SOL     OW14333   1.765   2.590   2.210 -0.0049 -0.2462  0.0251
 1455SOL    HW114334   1.673   2.588   2.250  0.0875  0.6561  0.2985
 1455SOL    HW214335   1.819   2.515   2.247  0.1630  0.7173  1.8328
 1456SOL     OW14336   2.574   1.065   1.942  0.1849 -0.5408 -0.4238
 1456SOL    HW114337   2.599   0.985   1.887  1.6715 -1.2594  1.2646
 1456SOL    HW214338   2.616   1.146   1.902  0.7386 -0.9667 -0.7177
 1457SOL     OW14339   3.978   1.838   2.077 -0.8491 -0.2254 -0.2244
 1457SOL    HW114340   4.039   1.760   2.091  0.5062  0.4240 -2.3538
 1457SOL    HW214341   3.934   1.862   2.164  0.6044 -1.8029  0.9636
 1458SOL     OW14342   1.917   7.102   0.566  0.2215 -0.1931 -0.6329
 1458SOL    HW114343   1.986   7.163   0.528  0.6159 -0.2825 -0.0653
 1458SOL    HW214344   1.883   7.139   0.653  1.3514 -1.3776  0.3434
 1459SOL     OW14345   2.912   3.223   2.235  0.1149 -0.0000 -0.7084
 1459SOL    HW114346   2.949   3.281   2.163  1.2217  0.5650  0.3078
 1459SOL    HW214347   2.984   3.203   2.303 -0.6278 -1.3641 -0.2951
 1460SOL     OW14348   1.717   3.501   1.844 -0.7575 -0.2003  0.1793
 1460SOL    HW114349   1.632   3.544   1.875 -0.3226  0.8102 -0.0209
 1460SOL    HW214350   1.793   3.531   1.901 -0.5491 -1.2039  0.4380
 1461SOL     OW14351   1.558   2.977   0.633  0.4151 -0.4908 -0.0835
 1461SOL    HW114352   1.571   2.966   0.731 -1.9037  0.7412  0.3817
 1461SOL    HW214353   1.580   3.071   0.606 -1.1930 -0.1754 -0.3360
 1462SOL     OW14354   3.077   7.635   1.414 -0.1886 -0.2126  0.7364
 1462SOL    HW114355   3.100   7.660   1.508 -0.2091  0.4377  0.5676
 1462SOL    HW214356   3.020   7.706   1.373  0.6596 -0.0015 -0.1034
 1463SOL     OW14357   2.680   6.513   0.424  0.3373 -0.9707 -0.2223
 1463SOL    HW114358   2.752   6.461   0.378  0.2895 -0.4377 -0.9224
 1463SOL    HW214359   2.639   6.458   0.496  1.8263 -1.0899  0.5592
 1464SOL     OW14360   4.963   4.109   0.714  0.1382  0.4920 -0.3172
 1464SOL    HW114361   4.956   4.206   0.740 -1.2846  0.5862 -1.0330
 1464SOL    HW214362   4.982   4.102   0.616 -0.3431  0.0426 -0.3807
 1465SOL     OW14363   2.793   8.382   1.202 -0.2743 -0.3775  0.0956
 1465SOL    HW114364   2.747   8.317   1.264  2.0892 -1.1178  1.1182
 1465SOL    HW214365   2.839   8.452   1.257  0.5274 -0.1276 -0.9025
 1466SOL     OW14366   3.311   9.927   1.516  0.2281 -0.0191 -0.1487
 1466SOL    HW114367   3.334  10.009   1.463  0.6956  0.1714  0.3357
 1466SOL    HW214368   3.243   9.950   1.585  1.7990  0.4277  1.2874
 1467SOL     OW14369   3.356   9.782   0.577  0.1013 -0.0389 -0.1004
 1467SOL    HW114370   3.389   9.690   0.597 -0.5154 -0.1090  0.6448
 1467SOL    HW214371   3.402   9.847   0.638 -0.1566  0.0221  0.0337
 1468SOL     OW14372   2.307   9.212   1.870  0.3603 -0.7114  0.1398
 1468SOL    HW114373   2.375   9.140   1.858  1.1657  0.0464  0.1148
 1468SOL    HW214374   2.230   9.177   1.924  0.4848 -1.7454 -0.3392
 1469SOL     OW14375   1.876   5.787   2.012 -0.4780 -0.0903  0.1876
 1469SOL    HW114376   1.942   5.792   1.938 -0.8934  1.1514 -0.0995
 1469SOL    HW214377   1.871   5.875   2.060 -1.0926 -0.5140  0.9235
 1470SOL     OW14378   9.031   5.005   1.671  0.2174 -0.1761 -0.1694
 1470SOL    HW114379   9.103   5.073   1.683 -1.0061  1.3149 -1.1438
 1470SOL    HW214380   9.057   4.941   1.599  0.8984 -0.1019  0.0106
 1471SOL     OW14381   2.406   9.928   1.537  0.2175  0.3011 -0.0950
 1471SOL    HW114382   2.483   9.927   1.601  0.6232  0.1566 -0.5866
 1471SOL    HW214383   2.321   9.942   1.588  0.6284  1.1001  0.3804
 1472SOL     OW14384   2.139   1.364   0.420  0.0170 -0.4633  0.5188
 1472SOL    HW114385   2.105   1.421   0.346 -1.3342  1.0217  2.2175
 1472SOL    HW214386   2.065   1.346   0.485  1.0186 -2.2238  1.2244
 1473SOL     OW14387   3.563   4.629   1.125 -0.0758 -0.1004 -0.0188
 1473SOL    HW114388   3.617   4.545   1.112 -0.0535 -0.1973  0.6809
 1473SOL    HW214389   3.515   4.624   1.212  0.1007  0.7143  0.1290
 1474SOL     OW14390   3.112   8.784   0.769  0.0571  0.0497  0.3986
 1474SOL    HW114391   3.197   8.806   0.817  0.1841  1.5890 -0.4742
 1474SOL    HW214392   3.089   8.688   0.784  1.4167 -0.1353  1.4593
 1475SOL     OW14393   9.878   5.953   0.127 -0.6346 -0.3331  0.2914
 1475SOL    HW114394   9.805   5.966   0.194 -1.2485  0.8846 -0.5997
 1475SOL    HW214395   9.838   5.932   0.038  0.1265 -0.2788 -0.0649
 1476SOL     OW14396   3.064   0.309   1.460 -0.6563 -0.2847  0.0275
 1476SOL    HW114397   3.151   0.274   1.426 -0.8136  1.4633 -2.2590
 1476SOL    HW214398   3.017   0.359   1.387 -2.8289  0.2097  1.7113
 1477SOL     OW14399   2.671   5.906   0.863  0.3946  0.1113 -0.0933
 1477SOL    HW114400   2.755   5.860   0.891  0.6677  0.2497 -0.6685
 1477SOL    HW214401   2.644   5.973   0.931  2.2153  1.9652 -1.1577
 1478SOL     OW14402   2.747   1.471   1.672  0.0133 -0.1077 -0.1923
 1478SOL    HW114403   2.830   1.434   1.715 -0.2549 -1.1251 -0.5313
 1478SOL    HW214404   2.741   1.438   1.578  0.1443  1.4131 -0.7410
 1479SOL     OW14405   4.226   3.630   1.036  0.5219  0.2747 -0.5155
 1479SOL    HW114406   4.199   3.629   1.132  2.4469  2.5508  0.1017
 1479SOL    HW214407   4.174   3.701   0.988 -0.8800 -1.2696 -1.3220
 1480SOL     OW14408   2.046   6.366   1.075 -0.6622 -0.3434 -0.4876
 1480SOL    HW114409   1.963   6.313   1.057  0.7601 -2.5843 -0.8172
 1480SOL    HW214410   2.112   6.308   1.124  0.9663  1.1386 -0.8731
 1481SOL     OW14411   4.425   1.485   1.794  0.3090 -0.4483 -0.2300
 1481SOL    HW114412   4.492   1.556   1.773 -0.1295 -0.5475 -2.1133
 1481SOL    HW214413   4.428   1.415   1.722  0.1647 -1.9207  1.1631
 1482SOL     OW14414   2.896   2.075   1.735  0.3885 -0.3412  0.1984
 1482SOL    HW114415   2.812   2.096   1.686  0.4403  0.8873  0.6009
 1482SOL    HW214416   2.972   2.069   1.671  0.4727  1.3634  0.1177
 1483SOL     OW14417   1.820   7.132   0.250 -0.2256 -0.8058  0.1175
 1483SOL    HW114418   1.849   7.117   0.344  0.0511 -2.3325 -0.2116
 1483SOL    HW214419   1.895   7.113   0.187 -0.5719 -0.3360 -0.4551
 1484SOL     OW14420   8.597   5.131   0.619  0.1087 -0.0997 -0.3898
 1484SOL    HW114421   8.506   5.120   0.580  0.5781 -1.4820 -1.1203
 1484SOL    HW214422   8.666   5.092   0.557  1.4654  3.0882 -1.0143
 1485SOL     OW14423   9.329   3.842   2.151  0.0962  0.1241 -0.1823
 1485SOL    HW114424   9.356   3.751   2.183 -0.2062 -0.6343 -1.9899
 1485SOL    HW214425   9.270   3.885   2.219 -1.6094 -1.9565 -0.2935
 1486SOL     OW14426   0.538   3.908   1.071 -0.1929  0.2298  0.6141
 1486SOL    HW114427   0.449   3.867   1.050  0.3193 -0.4293 -0.3056
 1486SOL    HW214428   0.581   3.859   1.147 -1.0190  1.1393  1.6843
 1487SOL     OW14429   3.226   0.188   1.279  0.1424  0.2472  0.4964
 1487SOL    HW114430   3.213   0.259   1.210  0.7033 -1.8573 -1.8238
 1487SOL    HW214431   3.323   0.178   1.299  0.3237 -1.7966 -1.2999
 1488SOL     OW14432   2.163   7.566   0.317 -0.1826 -0.1255 -0.1277
 1488SOL    HW114433   2.250   7.548   0.272 -0.1527 -0.5117  0.0829
 1488SOL    HW214434   2.178   7.621   0.399 -0.0846 -0.6053  0.1759
 1489SOL     OW14435   1.539   0.487   1.491  0.9189  0.3212 -0.7295
 1489SOL    HW114436   1.558   0.395   1.525 -0.3231  0.0843 -0.6602
 1489SOL    HW214437   1.580   0.554   1.553 -0.5123 -0.1310  0.7253
 1490SOL     OW14438   0.744   7.314   0.221 -0.1747  0.6719  0.0783
 1490SOL    HW114439   0.806   7.236   0.233 -2.0110 -0.7414  0.7472
 1490SOL    HW214440   0.797   7.399   0.220  1.6553 -0.3965  1.8209
 1491SOL     OW14441   1.034   6.763   2.600 -0.2024  0.1843  0.3599
 1491SOL    HW114442   0.978   6.683   2.621  0.1829 -0.4151 -0.8238
 1491SOL    HW214443   1.107   6.737   2.537  0.6534  1.2219  0.9032
 1492SOL     OW14444   4.180   2.635   1.805  0.1129 -0.2507  0.1861
 1492SOL    HW114445   4.223   2.575   1.873  0.9372 -0.9068 -0.8949
 1492SOL    HW214446   4.100   2.680   1.846  0.0933 -1.2925  1.3255
 1493SOL     OW14447   4.089   1.558   1.074 -0.7006 -0.5808 -0.1273
 1493SOL    HW114448   4.161   1.616   1.035 -0.3837  1.0747  2.7717
 1493SOL    HW214449   4.087   1.471   1.025  1.4087  0.3824 -2.0614
 1494SOL     OW14450   2.002   2.146   0.230  0.4071  0.0190 -0.1164
 1494SOL    HW114451   2.006   2.173   0.326  3.2993 -1.9357  0.3708
 1494SOL    HW214452   2.045   2.217   0.174 -1.3016  1.1707 -0.0320
 1495SOL     OW14453   2.488   9.071   0.917 -0.1872 -0.2601 -0.3118
 1495SOL    HW114454   2.467   9.025   0.830  1.0926 -2.5763  0.5467
 1495SOL    HW214455   2.587   9.074   0.931 -0.3932 -0.4241  1.3143
 1496SOL     OW14456   9.582   5.923   1.966 -0.0638 -1.0720  0.8407
 1496SOL    HW114457   9.498   5.954   1.923  0.3796  1.1896  1.5314
 1496SOL    HW214458   9.594   5.968   2.054  1.6551 -1.6569  0.9420
 1497SOL     OW14459   1.368   1.585   0.157  0.1507 -0.5221  0.3883
 1497SOL    HW114460   1.320   1.658   0.206 -0.2527  0.8666 -1.9912
 1497SOL    HW214461   1.465   1.588   0.180 -0.1582 -0.4172  1.7165
 1498SOL     OW14462   1.490   9.207   0.837  0.6306  0.2894  0.2784
 1498SOL    HW114463   1.547   9.127   0.822 -1.0166 -0.9252  0.3508
 1498SOL    HW214464   1.504   9.272   0.763  1.1366 -0.5710 -0.3891
 1499SOL     OW14465   2.388   3.370   1.998 -0.1685 -0.1629 -0.1502
 1499SOL    HW114466   2.483   3.379   1.967 -0.3210 -0.2877 -0.6472
 1499SOL    HW214467   2.335   3.449   1.968  0.2261  0.8633  1.7784
 1500SOL     OW14468   1.132   6.775   1.696  0.3199  0.6670 -0.3197
 1500SOL    HW114469   1.158   6.752   1.603  0.5800  0.2268 -0.1415
 1500SOL    HW214470   1.035   6.758   1.709  0.7095 -1.3878  0.1139
 1501SOL     OW14471   0.335   2.994   0.024  0.0036 -0.1587 -0.2278
 1501SOL    HW114472   0.360   3.007   0.120 -0.1695 -0.1605 -0.1823
 1501SOL    HW214473   0.400   2.932  -0.020  0.2619  0.0853 -0.1907
 1502SOL     OW14474   2.528   1.781   1.315  0.1196 -0.1598  0.7521
 1502SOL    HW114475   2.602   1.817   1.371 -0.1364 -0.7308  1.4713
 1502SOL    HW214476   2.461   1.853   1.298  0.5199  0.1859  0.6456
 1503SOL     OW14477   3.137   9.576   0.373  0.4387 -0.4539 -0.0797
 1503SOL    HW114478   3.216   9.574   0.434  0.5250 -1.0162 -0.2105
 1503SOL    HW214479   3.062   9.523   0.413  0.1623 -0.0037 -0.0018
 1504SOL     OW14480   0.189   5.090   1.362 -0.0998  0.0145 -0.5017
 1504SOL    HW114481   0.134   5.169   1.388  1.3491  0.8931 -0.0346
 1504SOL    HW214482   0.175   5.070   1.265 -1.1014  0.3372 -0.4229
 1505SOL     OW14483   0.910   5.243   2.129  0.5415 -0.0754 -0.0485
 1505SOL    HW114484   0.845   5.173   2.099  0.0183  1.2534 -2.1321
 1505SOL    HW214485   0.960   5.278   2.050  0.6546  2.0308  0.9275
 1506SOL     OW14486   0.465   4.774   1.658  0.4989  0.6963 -0.0548
 1506SOL    HW114487   0.437   4.760   1.563  0.9565  0.0907 -0.1060
 1506SOL    HW214488   0.519   4.857   1.666 -0.7810  1.5360 -0.0667
 1507SOL     OW14489   4.164   1.381   1.904 -0.0520  0.6757  0.6206
 1507SOL    HW114490   4.260   1.396   1.879 -0.5900  1.4232 -1.1208
 1507SOL    HW214491   4.110   1.370   1.820 -1.5298  0.5383  1.5828
 1508SOL     OW14492   1.720   6.356   1.243 -0.3397 -0.3173  0.2658
 1508SOL    HW114493   1.732   6.452   1.217  0.2849 -0.7471 -1.0424
 1508SOL    HW214494   1.728   6.298   1.163  0.5038 -1.5702  1.2363
 1509SOL     OW14495   1.709   1.245   2.342 -0.1447  0.3508 -0.2696
 1509SOL    HW114496   1.756   1.252   2.430 -0.1132  0.6588 -0.3111
 1509SOL    HW214497   1.737   1.321   2.283  0.5790 -0.3964 -0.8985
 1510SOL     OW14498   2.301   8.799   2.008 -0.1093 -0.1485 -0.4004
 1510SOL    HW114499   2.322   8.886   2.054 -0.1535 -0.5043  0.2939
 1510SOL    HW214500   2.363   8.728   2.041  0.7230 -0.1129 -1.8519
 1511SOL     OW14501   3.300   2.456   2.250 -0.7875 -0.4665  0.0895
 1511SOL    HW114502   3.369   2.384   2.255 -2.6589 -2.4085 -1.0046
 1511SOL    HW214503   3.271   2.468   2.155 -0.9914  1.2734  0.3548
 1512SOL     OW14504   2.283   4.027   0.101  0.0494 -0.4251 -0.4086
 1512SOL    HW114505   2.190   3.998   0.126 -1.7311  3.5337 -1.9777
 1512SOL    HW214506   2.325   4.074   0.179 -0.9208  1.4810 -1.0153
 1513SOL     OW14507   2.179   2.143   0.625 -0.0478 -0.6933 -0.3214
 1513SOL    HW114508   2.179   2.045   0.604 -0.9612 -1.0970  1.4676
 1513SOL    HW214509   2.230   2.159   0.710 -2.1397  0.0301  0.8336
 1514SOL     OW14510   0.811   3.984   0.976 -0.3179 -0.1426  0.5509
 1514SOL    HW114511   0.831   4.045   0.899 -0.8259  0.7782  1.1270
 1514SOL    HW214512   0.712   3.979   0.989 -0.3009 -1.4555  0.2404
 1515SOL     OW14513   2.133   4.362   0.446  0.2835 -0.1119 -0.7113
 1515SOL    HW114514   2.140   4.362   0.546 -0.3088 -0.1838 -0.6703
 1515SOL    HW214515   2.169   4.275   0.412  0.5204 -0.0744 -0.5630
 1516SOL     OW14516   0.796   3.270   0.104  0.2477 -0.3469  0.1629
 1516SOL    HW114517   0.789   3.357   0.152  1.2357 -0.3325  0.2881
 1516SOL    HW214518   0.860   3.210   0.152 -0.6767 -1.2727  0.2673
 1517SOL     OW14519   1.681   7.929   1.094 -0.6101  0.1933  0.3360
 1517SOL    HW114520   1.594   7.940   1.143 -2.3637  0.9711 -2.8231
 1517SOL    HW214521   1.745   7.998   1.127 -1.9601  1.1279  1.0975
 1518SOL     OW14522   0.639   2.864   0.203  0.0328  0.2631 -0.1205
 1518SOL    HW114523   0.617   2.960   0.218  2.6694  1.1066 -1.3203
 1518SOL    HW214524   0.693   2.830   0.280  1.1352  0.4597 -0.7851
 1519SOL     OW14525   5.011   3.306   0.227  0.2827 -0.0756  0.2892
 1519SOL    HW114526   5.098   3.301   0.178  0.2528 -1.1821  0.3320
 1519SOL    HW214527   4.992   3.401   0.251 -0.3939  0.6852 -3.0343
 1520SOL     OW14528   9.026   5.527   2.446  0.4811  0.7182  0.3335
 1520SOL    HW114529   9.040   5.517   2.544  1.6420 -0.3478  0.0861
 1520SOL    HW214530   8.931   5.552   2.427  0.5414  2.0997  1.7832
 1521SOL     OW14531   3.094   0.510   1.628  0.3922 -0.1302 -0.4030
 1521SOL    HW114532   3.056   0.427   1.588 -3.5706  2.1312 -1.5999
 1521SOL    HW214533   3.135   0.566   1.557 -0.0364  0.5145 -0.1439
 1522SOL     OW14534   2.055   5.639   2.153  0.3698  0.3070  0.1956
 1522SOL    HW114535   1.980   5.681   2.103  1.0496  1.7666  0.3728
 1522SOL    HW214536   2.019   5.595   2.236 -0.5802 -1.0256 -0.9034
 1523SOL     OW14537   1.854   3.267   1.284  0.4083  0.2148  0.0600
 1523SOL    HW114538   1.789   3.272   1.209 -0.0134 -0.0017  0.4049
 1523SOL    HW214539   1.834   3.339   1.351 -0.5839 -0.9281  1.0267
 1524SOL     OW14540   0.867   2.927   0.721 -0.1500  0.2557  0.0291
 1524SOL    HW114541   0.810   2.854   0.681 -0.0001  0.6209 -0.8616
 1524SOL    HW214542   0.811   2.982   0.783 -0.6382  0.2758 -0.4200
 1525SOL     OW14543   1.894   7.711   1.564  0.3060  0.3145  0.1971
 1525SOL    HW114544   1.819   7.761   1.520 -0.6689 -0.5885  0.7877
 1525SOL    HW214545   1.860   7.666   1.646  1.1255 -1.3623 -0.3477
 1526SOL     OW14546   0.911   2.794   0.965 -0.2791 -0.6043 -0.0830
 1526SOL    HW114547   0.886   2.823   0.872 -0.5223  0.8338  0.4140
 1526SOL    HW214548   0.886   2.866   1.030  2.1063 -0.5434  0.8257
 1527SOL     OW14549   3.508   0.144   0.560 -0.0780  0.8297  0.5263
 1527SOL    HW114550   3.515   0.239   0.592 -0.7447  0.4899  1.7217
 1527SOL    HW214551   3.518   0.082   0.638  1.1548 -0.1128 -0.3709
 1528SOL     OW14552   3.520   0.536   1.352  0.2786  0.0969  0.0949
 1528SOL    HW114553   3.467   0.526   1.436  0.0055  0.5421 -0.0251
 1528SOL    HW214554   3.487   0.614   1.301 -0.9655 -1.4349 -1.4911
 1529SOL     OW14555   2.094   9.935   0.793  0.3099  0.1839 -0.5619
 1529SOL    HW114556   1.996   9.945   0.813  0.4679 -1.5450  1.2453
 1529SOL    HW214557   2.108   9.853   0.737  0.8209 -0.1494  0.0503
 1530SOL     OW14558   3.202   0.665   0.985  0.1625  1.2059  0.3325
 1530SOL    HW114559   3.205   0.743   1.048  0.0411 -0.1271  2.0121
 1530SOL    HW214560   3.107   0.646   0.961 -0.0919 -0.2633  2.3104
 1531SOL     OW14561   2.667   3.426   1.888 -0.1934 -0.5174 -0.4724
 1531SOL    HW114562   2.667   3.327   1.874  1.3619 -0.6922  0.6952
 1531SOL    HW214563   2.744   3.467   1.839 -0.6709  0.0860 -0.7282
 1532SOL     OW14564   2.165   4.700   1.916  0.2928  0.0326 -0.0073
 1532SOL    HW114565   2.159   4.781   1.858  0.3179 -0.3437 -0.5480
 1532SOL    HW214566   2.256   4.658   1.905 -0.8677 -2.0050 -2.3906
 1533SOL     OW14567   1.625   9.335   0.104  0.5298 -0.5704  0.1049
 1533SOL    HW114568   1.608   9.322   0.201  0.8112 -2.2979 -0.0612
 1533SOL    HW214569   1.563   9.405   0.068 -1.1124 -1.5046  1.0646
 1534SOL     OW14570   1.819   8.476   2.218 -0.6202 -0.0637  0.1206
 1534SOL    HW114571   1.816   8.379   2.194 -2.1356  0.2012 -0.7733
 1534SOL    HW214572   1.834   8.485   2.317 -0.8902 -1.1986  0.2730
 1535SOL     OW14573   2.058   9.778   1.393  0.5724  0.2377 -0.1213
 1535SOL    HW114574   2.028   9.849   1.457  0.6159  0.0666  0.0856
 1535SOL    HW214575   2.144   9.806   1.351 -0.5729  1.3982 -1.7762
 1536SOL     OW14576   9.686   6.239   2.078 -0.6030 -0.0829  0.0036
 1536SOL    HW114577   9.709   6.231   2.175  0.0424  0.3292 -0.1114
 1536SOL    HW214578   9.672   6.336   2.055 -4.3959 -0.4417  0.5044
 1537SOL     OW14579   4.477   5.449   0.639 -0.1072  0.4964  0.0358
 1537SOL    HW114580   4.433   5.359   0.648 -0.7042  0.8130  0.3215
 1537SOL    HW214581   4.503   5.482   0.730 -1.3142  1.3208  0.0797
 1538SOL     OW14582   2.979   2.370   1.830 -0.6397  0.0381 -0.2495
 1538SOL    HW114583   3.062   2.358   1.777 -0.0562 -0.9738  0.8621
 1538SOL    HW214584   2.912   2.300   1.805 -0.9636  0.5155 -0.7483
 1539SOL     OW14585   4.470   3.492   0.677  0.5363 -0.1189  0.1279
 1539SOL    HW114586   4.518   3.414   0.638  0.3618  0.3078 -0.9614
 1539SOL    HW214587   4.418   3.463   0.758  1.6776 -0.8147  0.6224
 1540SOL     OW14588   0.978   2.888   1.437  0.3088  0.3386 -0.7588
 1540SOL    HW114589   1.034   2.935   1.368 -0.6362  0.2335 -1.6176
 1540SOL    HW214590   0.986   2.789   1.424 -0.7495  0.3329 -1.4546
 1541SOL     OW14591   2.570   6.607   1.452  0.2768 -0.7178  0.1872
 1541SOL    HW114592   2.541   6.700   1.430 -0.0064 -1.2713 -1.9276
 1541SOL    HW214593   2.666   6.607   1.479  0.4291  0.1296 -0.3455
 1542SOL     OW14594   2.056   8.495   0.748  0.8475 -0.7820  0.1454
 1542SOL    HW114595   1.962   8.468   0.726  0.9191  0.1723 -1.4097
 1542SOL    HW214596   2.055   8.565   0.819  0.3431 -0.2479 -0.3842
 1543SOL     OW14597   0.590   3.692   0.775 -0.0534  0.2760  0.3047
 1543SOL    HW114598   0.537   3.766   0.817  1.6163  1.3796  0.4829
 1543SOL    HW214599   0.680   3.725   0.750 -0.0464 -1.1428 -1.6205
 1544SOL     OW14600   0.959   3.929   1.990 -0.3167  0.1678 -0.0166
 1544SOL    HW114601   1.037   3.868   1.973  0.5121  0.7308  1.6500
 1544SOL    HW214602   0.891   3.916   1.918  1.5274  0.0160 -1.7943
 1545SOL     OW14603   3.559   0.453   2.003 -0.0621 -0.4838  0.0911
 1545SOL    HW114604   3.651   0.415   1.988 -0.8825 -1.9060 -1.5131
 1545SOL    HW214605   3.498   0.379   2.033 -0.4593  0.6527  2.1208
 1546SOL     OW14606   3.449   1.565   1.853  0.8468  0.4378 -0.1338
 1546SOL    HW114607   3.420   1.472   1.831  0.9931  0.5656 -0.8835
 1546SOL    HW214608   3.485   1.568   1.946 -0.3245  0.0013  0.3435
 1547SOL     OW14609   4.260   5.215   1.283  0.2922 -0.0189 -0.5586
 1547SOL    HW114610   4.232   5.178   1.194 -3.1263 -1.3095  0.9886
 1547SOL    HW214611   4.257   5.142   1.352 -0.5548  1.7273  1.2956
 1548SOL     OW14612   0.549   5.741   1.275  0.1558  0.5064 -0.0543
 1548SOL    HW114613   0.626   5.696   1.231 -0.6662 -0.3776 -0.6154
 1548SOL    HW214614   0.579   5.827   1.317  1.2840  0.5126 -0.8683
 1549SOL     OW14615   2.812   9.452   2.482 -0.0616 -0.9045  0.3171
 1549SOL    HW114616   2.730   9.396   2.490  0.3899 -1.9885 -2.1750
 1549SOL    HW214617   2.806   9.529   2.545 -2.7880 -1.1889  0.4653
 1550SOL     OW14618   9.159   5.648   0.501 -0.3343  0.3612  0.0740
 1550SOL    HW114619   9.100   5.655   0.581 -1.2957 -2.0383 -0.3686
 1550SOL    HW214620   9.252   5.674   0.525 -0.8346  0.6846  1.7102
 1551SOL     OW14621   0.456   7.113   0.959 -0.1115 -0.4078  0.2327
 1551SOL    HW114622   0.485   7.185   0.896  1.0294  0.6717  1.9587
 1551SOL    HW214623   0.438   7.029   0.907  2.7802 -0.1353 -1.3235
 1552SOL     OW14624   2.012   5.059   0.650  0.2619 -0.3311 -0.3818
 1552SOL    HW114625   1.917   5.045   0.677  0.3046  0.2790  0.0937
 1552SOL    HW214626   2.049   5.140   0.696  1.5675 -1.5831  0.8209
 1553SOL     OW14627   4.280   1.022   1.318  0.1506  0.3349 -0.1305
 1553SOL    HW114628   4.263   0.951   1.386  0.1648 -0.3583 -0.8391
 1553SOL    HW214629   4.212   1.095   1.327  1.5896  1.4387  2.1961
 1554SOL     OW14630   4.872   4.003   0.033  0.1186  0.3267  0.2189
 1554SOL    HW114631   4.822   4.078   0.076 -1.0766  0.3062 -1.1084
 1554SOL    HW214632   4.808   3.934   0.001  1.0529 -0.0487 -0.8593
 1555SOL     OW14633   3.811   1.307   1.478  0.3592  0.1921  0.0832
 1555SOL    HW114634   3.841   1.401   1.465  0.9891 -0.1003 -0.6420
 1555SOL    HW214635   3.730   1.289   1.423  0.0810  0.3889  0.4300
 1556SOL     OW14636   2.164   0.883   0.357  0.3943  0.4723 -0.3090
 1556SOL    HW114637   2.209   0.826   0.425  0.2978 -0.3058 -0.8827
 1556SOL    HW214638   2.205   0.974   0.356  0.8080  0.2932  0.3508
 1557SOL     OW14639   1.251   2.761   1.320 -0.0460  0.3884 -0.8996
 1557SOL    HW114640   1.325   2.821   1.289  0.1092  0.2612 -0.7769
 1557SOL    HW214641   1.189   2.813   1.379  0.9468  0.0403  0.4802
 1558SOL     OW14642   3.316   4.170   1.887 -0.3243  0.3324  0.2224
 1558SOL    HW114643   3.301   4.163   1.986 -0.9397 -1.0024  0.0517
 1558SOL    HW214644   3.294   4.082   1.844  0.1657  0.8341 -1.0725
 1559SOL     OW14645   3.131   5.538   1.318 -0.5813  0.2445 -0.4182
 1559SOL    HW114646   3.043   5.571   1.283 -0.4984 -1.2255 -2.0856
 1559SOL    HW214647   3.151   5.584   1.404 -2.5740  1.2332 -0.4331
 1560SOL     OW14648   2.650   1.348   1.910 -0.0721  0.1074  0.1970
 1560SOL    HW114649   2.621   1.436   1.945 -3.8960 -0.5818 -1.0065
 1560SOL    HW214650   2.663   1.353   1.811 -1.3228 -0.8805 -0.0389
 1561SOL     OW14651   9.155   4.647   1.169 -0.5594 -0.2222  0.5538
 1561SOL    HW114652   9.056   4.657   1.155 -0.5279  0.0581  0.5328
 1561SOL    HW214653   9.204   4.696   1.097 -0.4020 -2.2121 -0.7302
 1562SOL     OW14654   2.231   0.397   1.049 -0.3279  0.7498 -0.0978
 1562SOL    HW114655   2.263   0.308   1.019 -0.2617  0.8761 -0.4092
 1562SOL    HW214656   2.209   0.453   0.969  1.2912  1.6261  0.0525
 1563SOL     OW14657   1.080   3.833   0.470 -0.2477 -0.0112 -0.2770
 1563SOL    HW114658   0.996   3.886   0.457 -0.5731 -0.7789 -1.3703
 1563SOL    HW214659   1.148   3.861   0.402 -0.0405 -0.2278 -0.1594
 1564SOL     OW14660   1.419   2.915   0.286 -0.1854  0.6134  0.1285
 1564SOL    HW114661   1.334   2.955   0.320  0.2367  2.0249 -0.4073
 1564SOL    HW214662   1.416   2.816   0.294 -1.1982  0.7635  1.6745
 1565SOL     OW14663   1.151   4.241   1.403  0.3770 -0.1155 -0.1666
 1565SOL    HW114664   1.212   4.308   1.360  0.0798  0.7462  0.7346
 1565SOL    HW214665   1.195   4.202   1.484  0.1411 -0.2578 -0.1056
 1566SOL     OW14666   0.460   3.418   0.020  0.3076  0.1150 -0.1283
 1566SOL    HW114667   0.443   3.408   0.118 -0.7409  0.1315 -0.3018
 1566SOL    HW214668   0.432   3.334  -0.027  0.6007  0.1941 -0.4484
 1567SOL     OW14669   3.605   1.883   0.957  0.0592 -0.2582  0.2789
 1567SOL    HW114670   3.599   1.951   0.884 -1.1858  1.5663  2.0153
 1567SOL    HW214671   3.687   1.900   1.012 -0.9757  0.7745  1.5583
 1568SOL     OW14672   2.108   8.582   0.023 -0.0284 -0.3484 -0.3409
 1568SOL    HW114673   2.178   8.629  -0.030  1.3246 -1.3871  0.5035
 1568SOL    HW214674   2.055   8.649   0.075  1.4782  0.3150  0.3713
 1569SOL     OW14675   1.328   5.878   1.669  0.1899  0.3267 -0.1243
 1569SOL    HW114676   1.374   5.898   1.583 -1.1139  1.7424 -0.5098
 1569SOL    HW214677   1.395   5.845   1.736  1.3853  0.2546 -1.3352
 1570SOL     OW14678   4.615   3.240   2.337 -0.2315  0.4406 -0.3679
 1570SOL    HW114679   4.711   3.210   2.339  0.0084  1.0642 -1.7879
 1570SOL    HW214680   4.562   3.179   2.277 -1.1637 -1.0848  1.9489
 1571SOL     OW14681   4.291   4.720   0.483  0.3195  0.1596 -0.1662
 1571SOL    HW114682   4.207   4.665   0.479  0.4968 -0.1965  0.8235
 1571SOL    HW214683   4.271   4.813   0.452  0.1407 -0.5966 -2.4278
 1572SOL     OW14684   3.735   0.058   1.933  0.1150 -0.3866  0.1040
 1572SOL    HW114685   3.703   0.031   2.024 -0.0490  0.4137  0.2930
 1572SOL    HW214686   3.726  -0.019   1.870  0.4262 -1.0142  0.8119
 1573SOL     OW14687   2.058   7.898   2.525 -0.5399 -0.1449 -0.8995
 1573SOL    HW114688   2.099   7.934   2.442  2.8377  0.4869  0.9681
 1573SOL    HW214689   2.032   7.802   2.511  1.8247 -0.6340 -2.0661
 1574SOL     OW14690   3.060   4.323   1.165  0.7420 -0.1428 -0.2708
 1574SOL    HW114691   3.005   4.253   1.211 -0.9574  0.9810 -0.5635
 1574SOL    HW214692   3.143   4.340   1.217 -0.0728 -0.5205  1.1741
 1575SOL     OW14693   0.614   7.755   1.974  0.0834  0.2298 -0.4887
 1575SOL    HW114694   0.557   7.781   2.052  0.4427  0.8930 -0.4494
 1575SOL    HW214695   0.670   7.676   1.999  0.7975  0.9420  0.1957
 1576SOL     OW14696   0.802   5.462   1.818  0.6886 -0.4280 -0.0929
 1576SOL    HW114697   0.833   5.540   1.872 -0.2522 -0.6508  0.7778
 1576SOL    HW214698   0.873   5.392   1.817  1.4095  0.3101 -0.6176
 1577SOL     OW14699   0.140   3.725   1.963  0.1306 -0.3233  0.3228
 1577SOL    HW114700   0.051   3.696   1.927  0.1056  0.0156  0.1134
 1577SOL    HW214701   0.145   3.702   2.060  0.7429 -2.5316 -0.1906
 1578SOL     OW14702   2.400   9.137   1.180  0.1297  0.8407 -0.1254
 1578SOL    HW114703   2.321   9.076   1.188  1.3922 -0.7324  0.7095
 1578SOL    HW214704   2.454   9.111   1.100  0.1803  1.4688 -0.2987
 1579SOL     OW14705   9.307   4.085   1.376  0.1447 -0.4364 -0.2251
 1579SOL    HW114706   9.281   4.017   1.444 -0.7775 -2.2115 -2.2568
 1579SOL    HW214707   9.374   4.148   1.415 -0.6508 -1.1613  2.3946
 1580SOL     OW14708   1.941   2.545   1.874 -0.0493  0.3154 -0.1010
 1580SOL    HW114709   1.883   2.488   1.933  0.0542 -0.2029 -0.4989
 1580SOL    HW214710   1.920   2.642   1.890 -1.7942  0.0956 -1.0348
 1581SOL     OW14711   9.150   4.485   0.897 -0.2879 -0.3537 -0.5125
 1581SOL    HW114712   9.129   4.452   0.805 -1.1163  1.4727 -0.9818
 1581SOL    HW214713   9.116   4.419   0.964  0.8341 -1.9855 -1.5049
 1582SOL     OW14714   2.077   1.106   0.104 -0.1472  0.4207  0.6428
 1582SOL    HW114715   2.140   1.091   0.181  1.0140  0.2463 -0.3176
 1582SOL    HW214716   2.129   1.141   0.026 -0.5592 -3.1329 -1.3414
 1583SOL     OW14717   1.783   0.764   2.044 -0.1677 -0.4171  0.6732
 1583SOL    HW114718   1.792   0.846   2.100 -0.7214  1.0731 -1.3702
 1583SOL    HW214719   1.687   0.734   2.044 -0.3585  0.1757 -0.2717
 1584SOL     OW14720   0.793   3.896   0.474  0.0888 -0.1757  0.7496
 1584SOL    HW114721   0.804   3.992   0.449  0.0606 -0.3489  0.0620
 1584SOL    HW214722   0.778   3.841   0.391 -2.5748 -0.3937  1.3236
 1585SOL     OW14723   4.166   4.746   1.259 -0.4371  0.1173 -0.2560
 1585SOL    HW114724   4.194   4.705   1.172 -0.2317  0.5167 -0.3785
 1585SOL    HW214725   4.074   4.783   1.250 -1.2252 -1.6163  0.2839
 1586SOL     OW14726   0.361   3.938   0.285 -0.2919 -0.4179  0.0939
 1586SOL    HW114727   0.392   4.029   0.256  1.8818 -1.0794  0.2836
 1586SOL    HW214728   0.280   3.913   0.232 -0.5830  1.3800 -0.3693
 1587SOL     OW14729   3.330   2.224   1.009  0.2609  0.4318 -0.3511
 1587SOL    HW114730   3.352   2.306   1.062  0.8035  0.1404 -0.1113
 1587SOL    HW214731   3.284   2.250   0.924  1.0967  1.0428 -0.6298
 1588SOL     OW14732   0.824   3.015   1.111  0.0859 -0.0931  0.1136
 1588SOL    HW114733   0.839   3.114   1.105 -1.1015  0.1848  1.4665
 1588SOL    HW214734   0.747   2.997   1.172  2.2935 -2.0066  2.4255
 1589SOL     OW14735   1.278   6.256   2.377 -0.6248 -0.2304  0.3407
 1589SOL    HW114736   1.303   6.353   2.387 -0.2925 -0.3411  0.6188
 1589SOL    HW214737   1.260   6.236   2.281 -1.8261  0.3736  0.4372
 1590SOL     OW14738   1.529   4.279   2.369 -0.4974  0.2926 -1.0038
 1590SOL    HW114739   1.513   4.376   2.388 -0.2874  0.3940 -1.3190
 1590SOL    HW214740   1.442   4.230   2.366 -0.4386 -0.0188  1.6824
 1591SOL     OW14741   2.710   8.697   0.803 -0.2259 -0.4448 -0.3421
 1591SOL    HW114742   2.705   8.621   0.868  0.4514  1.7653  2.4200
 1591SOL    HW214743   2.629   8.755   0.812  0.3120  0.3964 -0.7941
 1592SOL     OW14744   0.494   6.634   0.986 -0.1838 -0.3260  0.0125
 1592SOL    HW114745   0.568   6.692   0.952 -1.0464  0.5697 -0.3666
 1592SOL    HW214746   0.490   6.550   0.933 -0.3465  0.2582 -0.9046
 1593SOL     OW14747   4.148   2.933   1.491 -0.0282 -0.1830  0.6314
 1593SOL    HW114748   4.082   3.003   1.518  0.1213  0.7733 -1.3840
 1593SOL    HW214749   4.099   2.849   1.465 -0.3000 -0.2949  1.4958
 1594SOL     OW14750   1.407   7.065   1.700  0.1459 -0.3380 -0.3169
 1594SOL    HW114751   1.311   7.061   1.727  0.9150  0.1640  2.6689
 1594SOL    HW214752   1.430   7.159   1.674 -0.1473 -0.4402 -0.9489
 1595SOL     OW14753   4.268   3.293   2.439 -0.4706  0.1313 -0.3387
 1595SOL    HW114754   4.310   3.246   2.362 -1.3906  0.0065 -0.7674
 1595SOL    HW214755   4.318   3.272   2.523  1.0361  0.9222 -1.0244
 1596SOL     OW14756   1.514   2.483   1.801  0.6612  0.5090  0.1555
 1596SOL    HW114757   1.606   2.456   1.831  0.1843  0.4942  1.6505
 1596SOL    HW214758   1.449   2.469   1.876 -0.6365  0.1565 -1.0141
 1597SOL     OW14759   2.808   5.328   1.376 -0.0082  0.2910  0.1532
 1597SOL    HW114760   2.732   5.368   1.325  0.4796 -0.0480 -0.8656
 1597SOL    HW214761   2.892   5.337   1.322  0.7631  1.0660  1.4601
 1598SOL     OW14762   3.680   9.359   0.712 -0.3072  0.1365  0.2003
 1598SOL    HW114763   3.642   9.400   0.629 -2.2505 -0.0750  0.9409
 1598SOL    HW214764   3.769   9.399   0.732 -0.8254  1.8107 -0.7608
 1599SOL     OW14765   2.142   3.439   0.318  0.2070 -0.2928  0.1038
 1599SOL    HW114766   2.169   3.423   0.223  1.2291 -0.5111  0.4238
 1599SOL    HW214767   2.119   3.536   0.329  1.4341  0.0174 -0.0419
 1600SOL     OW14768   2.638   7.176   1.425  0.2471  0.6331  0.3966
 1600SOL    HW114769   2.712   7.111   1.409  1.2877  2.0399 -0.7386
 1600SOL    HW214770   2.604   7.210   1.337  0.8321  2.8065  0.9687
 1601SOL     OW14771   3.150   9.904   0.495  0.0688  0.2116 -0.6448
 1601SOL    HW114772   3.225   9.856   0.541 -1.2196 -0.0102  1.2819
 1601SOL    HW214773   3.186   9.960   0.421  2.1019 -0.0376  0.1448
 1602SOL     OW14774   1.877   2.523   0.961 -0.1509  0.6208  0.7257
 1602SOL    HW114775   1.856   2.615   0.993  1.8713  1.7103 -0.9907
 1602SOL    HW214776   1.838   2.509   0.870  1.4495  0.5971  0.0251
 1603SOL     OW14777   2.528   8.923   0.575  0.3287 -0.1868 -0.9664
 1603SOL    HW114778   2.620   8.915   0.537  0.3288  0.5972 -1.1469
 1603SOL    HW214779   2.496   9.017   0.565  0.2558 -0.0051  0.8489
 1604SOL     OW14780   9.984   6.429   1.159  0.3020  0.2927  0.5669
 1604SOL    HW114781   9.910   6.489   1.127 -1.6245 -1.4232  1.6437
 1604SOL    HW214782  10.038   6.478   1.228 -0.0122  1.4707 -0.0001
 1605SOL     OW14783   1.534   5.769   2.208 -0.6981 -0.2061  0.2839
 1605SOL    HW114784   1.531   5.845   2.143  0.0325  0.5405  1.1158
 1605SOL    HW214785   1.572   5.689   2.163  0.7088  0.5799  0.0544
 1606SOL     OW14786   2.333   8.667   2.485  0.5605 -0.1142  0.2854
 1606SOL    HW114787   2.315   8.753   2.533 -0.8537 -0.1926 -0.0669
 1606SOL    HW214788   2.403   8.681   2.416  0.4288  0.7249  0.3177
 1607SOL     OW14789   1.251   2.718   1.891 -0.5677  0.0188 -0.0989
 1607SOL    HW114790   1.225   2.681   1.802 -0.0823  0.1487 -0.2950
 1607SOL    HW214791   1.265   2.816   1.884 -0.1259 -0.0348  0.0281
 1608SOL     OW14792   2.501   9.589   2.542 -0.6359 -0.5982 -0.0456
 1608SOL    HW114793   2.598   9.582   2.563 -0.6553 -1.3306 -0.1842
 1608SOL    HW214794   2.449   9.531   2.606 -1.0749  0.6591  0.7484
 1609SOL     OW14795   2.134   9.718   0.620  0.0940 -0.0378  0.1329
 1609SOL    HW114796   2.206   9.670   0.570  1.6218  0.5667  1.6991
 1609SOL    HW214797   2.053   9.660   0.626  0.4398 -0.7334 -1.6520
 1610SOL     OW14798   4.050   2.133   1.739  0.2768  0.5024 -0.1188
 1610SOL    HW114799   3.954   2.150   1.717 -0.1516 -0.1392  1.2281
 1610SOL    HW214800   4.102   2.218   1.726 -0.7493  1.2620  0.6214
 1611SOL     OW14801   2.131   5.601   0.153 -0.2950  0.7202 -0.2925
 1611SOL    HW114802   2.124   5.511   0.197 -1.2968  0.8987 -0.0552
 1611SOL    HW214803   2.210   5.650   0.189  1.2468 -0.7047 -1.6360
 1612SOL     OW14804   2.628   6.569   0.080  0.0080  0.0328 -0.0340
 1612SOL    HW114805   2.579   6.542   0.163 -0.6770  0.1867 -0.3833
 1612SOL    HW214806   2.630   6.493   0.016  0.8858 -0.2137  0.2814
 1613SOL     OW14807   2.443   6.766   0.487 -0.3956  0.0741 -0.4944
 1613SOL    HW114808   2.443   6.696   0.559  0.7302  1.2799  0.7148
 1613SOL    HW214809   2.524   6.756   0.430 -0.0439  0.6082 -0.0933
 1614SOL     OW14810   1.227   7.575   2.302 -0.1817 -0.1657  0.0255
 1614SOL    HW114811   1.315   7.616   2.323 -0.5795  0.4779  0.4518
 1614SOL    HW214812   1.155   7.644   2.308 -0.5283 -0.3136 -1.8511
 1615SOL     OW14813   3.019   1.280   0.065 -0.1390 -0.8996  0.5217
 1615SOL    HW114814   3.030   1.265  -0.033 -2.1456 -0.5315  0.2048
 1615SOL    HW214815   2.961   1.207   0.103  0.4538 -0.9199  1.3926
 1616SOL     OW14816   0.187   3.511   1.130 -0.4036  0.4958 -0.1894
 1616SOL    HW114817   0.165   3.460   1.214  1.4075 -1.1909 -0.7266
 1616SOL    HW214818   0.102   3.531   1.081 -1.2268 -1.2705  0.4573
 1617SOL     OW14819   1.903   4.429   0.288 -0.1757  0.4514 -0.3279
 1617SOL    HW114820   1.913   4.400   0.192 -0.2070 -0.6346 -0.0177
 1617SOL    HW214821   1.977   4.389   0.342 -1.6438 -1.1226  0.5653
 1618SOL     OW14822   3.546   0.062   0.982 -0.2570  0.0870  0.2790
 1618SOL    HW114823   3.636   0.031   1.010 -0.0907 -0.0086 -0.3418
 1618SOL    HW214824   3.544   0.162   0.978 -0.7206  0.1630  2.0434
 1619SOL     OW14825   1.981   4.835   0.909  0.8755  0.0708 -0.7239
 1619SOL    HW114826   1.998   4.856   0.813 -0.1051  0.1025 -0.8931
 1619SOL    HW214827   1.898   4.780   0.918  0.5185  0.7279  0.1659
 1620SOL     OW14828   2.714   7.762   0.253  0.5159  0.2066  0.2506
 1620SOL    HW114829   2.765   7.846   0.270  0.1920  0.3190  0.6548
 1620SOL    HW214830   2.778   7.687   0.236  0.7945  0.7630 -1.2089
 1621SOL     OW14831   2.294   9.233   1.538  0.0780  0.3530 -0.4530
 1621SOL    HW114832   2.270   9.330   1.539 -0.8438  0.1544 -2.0881
 1621SOL    HW214833   2.394   9.224   1.541  0.1886  1.3623 -0.7666
 1622SOL     OW14834   2.112   0.671   1.092 -0.0107 -0.4971  0.4479
 1622SOL    HW114835   2.110   0.717   1.181  0.5954  0.7545 -0.1713
 1622SOL    HW214836   2.047   0.595   1.093 -1.2606  0.5460  1.4125
 1623SOL     OW14837   2.042   1.578   1.855  0.0612  0.0977  0.1168
 1623SOL    HW114838   2.078   1.597   1.947  1.6758  0.3506 -0.5602
 1623SOL    HW214839   2.099   1.509   1.811 -0.8401 -0.1746 -0.6349
 1624SOL     OW14840   2.406   4.509   1.521  0.0989  0.0038  0.0160
 1624SOL    HW114841   2.351   4.580   1.475 -1.3901 -0.8912  0.3838
 1624SOL    HW214842   2.468   4.553   1.586  0.0497  1.0589 -0.6275
 1625SOL     OW14843   2.444   0.015   2.333 -0.0511  0.1074  0.0695
 1625SOL    HW114844   2.372   0.029   2.400  0.3114  1.7220  0.1430
 1625SOL    HW214845   2.421   0.064   2.248  0.5512 -0.0658 -0.1984
 1626SOL     OW14846   2.354   3.727   2.223  0.5758 -0.1377 -0.7479
 1626SOL    HW114847   2.303   3.679   2.294 -0.1535 -0.1967 -1.3101
 1626SOL    HW214848   2.452   3.726   2.246  0.0789  2.2585  1.6782
 1627SOL     OW14849   1.272   0.298   1.210 -0.3936  0.1752  0.5174
 1627SOL    HW114850   1.340   0.368   1.190  0.9408 -0.4802  2.5672
 1627SOL    HW214851   1.278   0.225   1.143  1.1758 -0.0463  0.8900
 1628SOL     OW14852   1.622   1.567   0.248  0.1559  0.1078  0.2139
 1628SOL    HW114853   1.666   1.644   0.294 -0.0563  1.0676 -1.1653
 1628SOL    HW214854   1.659   1.481   0.285  1.4291  0.8791  0.7826
 1629SOL     OW14855   3.156   1.718   1.034 -0.3867  0.6550 -0.6060
 1629SOL    HW114856   3.106   1.677   0.958  1.2328 -0.8349 -0.9117
 1629SOL    HW214857   3.249   1.742   1.004  0.2472  0.1209  0.8500
 1630SOL     OW14858   3.308   3.305   0.360 -0.1858 -0.5351 -0.3358
 1630SOL    HW114859   3.330   3.402   0.349 -0.5271 -0.5523 -1.1942
 1630SOL    HW214860   3.363   3.267   0.435  0.5856  0.1127 -0.5626
 1631SOL     OW14861   0.496   6.315   1.593 -0.5264  0.0928  0.8507
 1631SOL    HW114862   0.454   6.334   1.504 -1.0220 -0.0279  1.0550
 1631SOL    HW214863   0.580   6.368   1.602 -1.4609  1.6035  1.0734
 1632SOL     OW14864   3.424   8.661   1.996 -0.0140  0.0177  0.0699
 1632SOL    HW114865   3.331   8.684   1.968  0.4665  0.8202 -0.9299
 1632SOL    HW214866   3.449   8.572   1.958 -0.2523 -0.0302  0.0292
 1633SOL     OW14867   3.470   4.605   0.377  0.5170  0.6280  0.3239
 1633SOL    HW114868   3.408   4.577   0.449  0.8504 -0.1169  0.3289
 1633SOL    HW214869   3.490   4.702   0.385 -1.6695  1.1608 -0.4535
 1634SOL     OW14870   3.873   3.188   2.319  0.1230 -0.2438  0.1868
 1634SOL    HW114871   3.934   3.109   2.322  0.9486  0.3378 -0.7718
 1634SOL    HW214872   3.907   3.260   2.380 -0.3075 -0.4074  0.6204
 1635SOL     OW14873   9.373   5.754   0.576  0.2322  0.4434 -0.1119
 1635SOL    HW114874   9.412   5.812   0.504  2.0398  0.3456  0.7597
 1635SOL    HW214875   9.331   5.813   0.646 -0.3047  0.5851 -0.5458
 1636SOL     OW14876   1.553   2.229   2.150 -0.8373 -0.2515  0.5158
 1636SOL    HW114877   1.495   2.147   2.149  0.6476 -1.3292  1.1117
 1636SOL    HW214878   1.605   2.231   2.235  0.1817  0.5707 -0.1289
 1637SOL     OW14879   0.191   4.953   0.841 -0.1537  0.2250 -0.2552
 1637SOL    HW114880   0.219   5.047   0.860  0.8316  0.1307 -1.2238
 1637SOL    HW214881   0.159   4.945   0.747 -0.7629 -0.2888 -0.0114
 1638SOL     OW14882   2.739   0.390   0.594 -0.2523 -0.1601 -0.0639
 1638SOL    HW114883   2.651   0.372   0.638  0.5837 -0.2005  1.6266
 1638SOL    HW214884   2.797   0.309   0.600  0.7871  0.6347  1.0165
 1639SOL     OW14885   0.142   4.800   0.193 -0.0573  0.5205 -0.2225
 1639SOL    HW114886   0.134   4.898   0.208  0.5891  0.3427  1.3593
 1639SOL    HW214887   0.083   4.751   0.257  0.7098 -0.1686 -0.0303
 1640SOL     OW14888   2.756   0.965   0.787  0.4289 -0.7439  0.8550
 1640SOL    HW114889   2.801   0.938   0.701 -1.4187  2.0900 -1.0702
 1640SOL    HW214890   2.658   0.946   0.780  0.1071  0.4999  1.9494
 1641SOL     OW14891   1.033   5.850   0.941  0.0751  0.3104  0.4391
 1641SOL    HW114892   0.951   5.907   0.942  0.5777  1.0364  1.6303
 1641SOL    HW214893   1.014   5.765   0.892 -0.6621  1.5292 -1.4485
 1642SOL     OW14894   4.474   2.642   1.908 -0.7362 -0.0164 -0.2656
 1642SOL    HW114895   4.490   2.547   1.881 -1.9437 -0.3399  0.0875
 1642SOL    HW214896   4.450   2.696   1.828  0.5268  0.1298 -0.5555
 1643SOL     OW14897   0.263   3.650   2.540  0.0265 -0.1157 -0.1837
 1643SOL    HW114898   0.198   3.618   2.609  0.3606 -1.7126 -0.5938
 1643SOL    HW214899   0.354   3.617   2.563  0.2460 -0.1323 -1.0584
 1644SOL     OW14900   1.072   3.132   1.665  0.2370  0.6763  0.0677
 1644SOL    HW114901   0.990   3.075   1.665  1.1741 -0.7079  1.3535
 1644SOL    HW214902   1.059   3.208   1.728  0.2035  0.0552  0.8200
 1645SOL     OW14903   1.201   4.685   0.718  0.2857  0.0587  0.6257
 1645SOL    HW114904   1.186   4.669   0.621  1.4984  0.8465  0.2956
 1645SOL    HW214905   1.115   4.673   0.768 -0.4195  0.0362 -0.5871
 1646SOL     OW14906   1.492   2.975   1.275  0.1851 -0.0298  0.4847
 1646SOL    HW114907   1.440   3.051   1.235  0.4924 -0.0199  0.0978
 1646SOL    HW214908   1.511   2.994   1.371  1.0046  0.7830  0.1694
 1647SOL     OW14909   1.776   0.077   0.533  0.2353  0.2574  0.1062
 1647SOL    HW114910   1.733  -0.008   0.565 -1.4537  0.4141 -1.6198
 1647SOL    HW214911   1.867   0.057   0.496  1.2230 -0.2669  2.6819
 1648SOL     OW14912   1.458   2.008   2.399  0.5213 -0.1760  0.2041
 1648SOL    HW114913   1.496   1.926   2.443 -0.7717 -0.8629  0.0727
 1648SOL    HW214914   1.480   2.088   2.454  0.3516 -0.8294  1.2421
 1649SOL     OW14915   3.010   3.229   1.453 -0.8203 -0.1662 -0.7425
 1649SOL    HW114916   2.948   3.176   1.511  0.0428 -0.9543 -0.5130
 1649SOL    HW214917   3.005   3.195   1.359  0.6005 -1.4892 -0.3715
 1650SOL     OW14918   0.408   5.324   0.667 -0.7188  0.5273  0.1195
 1650SOL    HW114919   0.483   5.316   0.734 -0.9080  2.6888  0.6229
 1650SOL    HW214920   0.435   5.388   0.595 -1.3057 -0.2603 -0.8100
 1651SOL     OW14921   1.258   2.427   2.474  0.2962 -0.1766  0.1950
 1651SOL    HW114922   1.165   2.458   2.497  0.0887 -0.8633  0.2797
 1651SOL    HW214923   1.294   2.483   2.400 -0.7727 -0.8845 -0.8789
 1652SOL     OW14924   3.245   5.774   2.004  0.4355 -0.2366 -0.3341
 1652SOL    HW114925   3.326   5.717   1.988  1.1423  0.5790  0.3134
 1652SOL    HW214926   3.248   5.811   2.096 -1.2423 -1.0816  0.0840
 1653SOL     OW14927   2.660   1.163   1.406  0.5084 -0.3981 -0.2398
 1653SOL    HW114928   2.717   1.118   1.474 -0.9424 -1.3393  0.3836
 1653SOL    HW214929   2.564   1.143   1.425 -0.0053  0.7296 -1.5705
 1654SOL     OW14930   0.357   3.909   0.746  0.0924 -0.4534  0.0428
 1654SOL    HW114931   0.316   3.866   0.826  0.1827 -1.4047 -0.4141
 1654SOL    HW214932   0.328   3.861   0.663  2.2775 -1.3019 -0.2649
 1655SOL     OW14933   1.310   5.197   1.191 -0.1357  0.1259  0.1094
 1655SOL    HW114934   1.226   5.168   1.238 -1.3682  1.1015 -1.4354
 1655SOL    HW214935   1.317   5.148   1.103  1.8442 -1.2571  0.9911
 1656SOL     OW14936   2.776   6.753   0.602 -0.1297 -0.0173 -0.2957
 1656SOL    HW114937   2.816   6.704   0.524  0.7296  0.6189 -0.2558
 1656SOL    HW214938   2.818   6.843   0.609  2.3250 -1.3336  3.0333
 1657SOL     OW14939   4.716   3.456   2.127  0.0430  0.2243 -0.2421
 1657SOL    HW114940   4.765   3.368   2.126  1.2842  0.9065  0.3294
 1657SOL    HW214941   4.654   3.459   2.205 -0.9823 -0.6616 -0.9961
 1658SOL     OW14942   2.551   4.315   1.378  0.2705  0.6064  0.0529
 1658SOL    HW114943   2.522   4.223   1.405 -1.7756  1.2053 -0.0311
 1658SOL    HW214944   2.505   4.383   1.436  0.0408  1.6568 -1.3272
 1659SOL     OW14945   2.175   5.292   0.752 -0.0407  0.2566 -0.1732
 1659SOL    HW114946   2.146   5.312   0.846  0.8605 -0.5839  0.2871
 1659SOL    HW214947   2.273   5.275   0.750 -0.1589 -0.3540 -1.1749
 1660SOL     OW14948   0.785   4.128   1.850  0.2491 -0.5854  0.5019
 1660SOL    HW114949   0.831   4.118   1.762  0.6738  0.6599  0.5745
 1660SOL    HW214950   0.848   4.169   1.916 -0.3736 -0.6181  1.1232
 1661SOL     OW14951   3.076   2.307   1.556 -0.2022 -0.2839  0.3318
 1661SOL    HW114952   3.116   2.220   1.529  0.2483 -0.0569  0.2516
 1661SOL    HW214953   2.988   2.319   1.511  0.8260  0.3701 -1.5382
 1662SOL     OW14954   0.046   5.663   2.564  0.4995  0.1462  0.7004
 1662SOL    HW114955  -0.051   5.650   2.580 -0.5838  3.3208 -2.6107
 1662SOL    HW214956   0.090   5.696   2.648 -1.7106  0.8534  1.6043
 1663SOL     OW14957   4.038   1.300   0.946  0.1255  0.2778  0.4795
 1663SOL    HW114958   4.095   1.219   0.930 -1.4749 -0.5613 -1.1108
 1663SOL    HW214959   3.994   1.293   1.035 -0.3850 -0.8430  0.1447
 1664SOL     OW14960   1.922   5.520   1.024 -0.4825  0.6371  0.6173
 1664SOL    HW114961   1.831   5.508   1.063 -0.1843  0.4166  1.2579
 1664SOL    HW214962   1.956   5.432   0.991 -0.7738  0.8417 -0.2371
 1665SOL     OW14963   4.577   2.130   1.918  0.1097 -0.4643  0.3061
 1665SOL    HW114964   4.605   2.034   1.915 -0.9140 -0.7393 -1.3537
 1665SOL    HW214965   4.493   2.138   1.972 -0.4033 -0.6787 -0.4474
 1666SOL     OW14966   1.220   5.069   2.445  0.1181  0.6767  0.0078
 1666SOL    HW114967   1.233   5.144   2.510 -0.0538 -0.1724  1.0357
 1666SOL    HW214968   1.302   5.011   2.445  0.0819  0.6216 -0.4750
 1667SOL     OW14969   2.364   7.770   1.481  0.3524 -0.2445  0.1242
 1667SOL    HW114970   2.277   7.731   1.450  1.1228 -0.7713 -1.4052
 1667SOL    HW214971   2.394   7.724   1.565 -0.4953 -0.5164  0.2794
 1668SOL     OW14972   9.156   4.594   0.628 -0.4018  0.0331 -0.0115
 1668SOL    HW114973   9.102   4.650   0.565 -0.9534 -0.1333  0.3167
 1668SOL    HW214974   9.129   4.498   0.620  0.2510 -0.1370 -0.2667
 1669SOL     OW14975   2.027   6.627   1.528 -0.5326  0.0308  0.1698
 1669SOL    HW114976   1.946   6.683   1.545 -0.6155 -0.4966  1.6277
 1669SOL    HW214977   2.021   6.586   1.437 -0.8428  1.7466 -0.5981
 1670SOL     OW14978   3.680   8.451   0.279 -0.3127 -0.7803  0.4102
 1670SOL    HW114979   3.692   8.392   0.358  1.4859 -1.3493 -0.2589
 1670SOL    HW214980   3.667   8.394   0.197  0.4533 -0.2439 -0.0868
 1671SOL     OW14981   3.157   9.010   1.190 -0.5247  0.3315 -0.1937
 1671SOL    HW114982   3.240   8.983   1.141 -0.5706  1.8071 -1.1283
 1671SOL    HW214983   3.173   9.008   1.288  1.0580  1.9483 -0.4025
 1672SOL     OW14984   0.012   6.380   0.298 -0.4396  0.1044  0.7585
 1672SOL    HW114985   0.097   6.413   0.257 -0.4415 -0.2523  0.4590
 1672SOL    HW214986  -0.050   6.457   0.313 -0.1238  0.3444  0.8328
 1673SOL     OW14987   3.083   5.574   2.236  0.2876 -0.5898  0.4180
 1673SOL    HW114988   3.089   5.474   2.229 -0.1519 -0.5375 -0.8330
 1673SOL    HW214989   2.986   5.601   2.240  0.2229  0.0638 -3.9601
 1674SOL     OW14990   9.270   4.715   1.805 -0.0052  0.2232 -0.3348
 1674SOL    HW114991   9.300   4.736   1.712 -0.8759  1.0608 -0.4331
 1674SOL    HW214992   9.302   4.787   1.867  1.3195 -0.7778  0.1714
 1675SOL     OW14993   1.761   5.279   1.934 -0.1322  0.2078 -0.6308
 1675SOL    HW114994   1.745   5.376   1.919 -1.3155 -0.4275 -3.9230
 1675SOL    HW214995   1.673   5.230   1.934  0.6236 -1.1906 -1.8363
 1676SOL     OW14996   1.638   0.846   1.772  0.2241  0.6087 -0.4062
 1676SOL    HW114997   1.617   0.921   1.835  0.9080  1.1931 -0.8522
 1676SOL    HW214998   1.720   0.798   1.803 -0.5176 -0.3116  0.1717
 1677SOL     OW14999   3.755   0.392   1.600  1.1562  0.3171 -0.4274
 1677SOL    HW115000   3.715   0.390   1.508  3.0782  1.0162 -1.3315
 1677SOL    HW215001   3.798   0.481   1.615 -0.1953  0.6428  1.6446
 1678SOL     OW15002   0.927   6.025   1.445 -0.2621  0.3446 -0.3041
 1678SOL    HW115003   0.949   6.120   1.423  1.8117  0.2566  1.2222
 1678SOL    HW215004   0.972   5.999   1.530 -0.1492 -2.2697 -1.1093
 1679SOL     OW15005   2.038   1.912   1.529  0.8045  0.3424  0.1221
 1679SOL    HW115006   2.013   1.902   1.625 -1.4823 -0.8302 -0.5809
 1679SOL    HW215007   2.009   2.002   1.496 -2.0941 -0.7795 -0.5284
 1680SOL     OW15008   2.481   8.172   1.630  0.6482 -0.0597  0.2239
 1680SOL    HW115009   2.491   8.266   1.662  0.7306  0.5276 -1.4740
 1680SOL    HW215010   2.571   8.134   1.610  0.5151  0.0469 -0.5963
 1681SOL     OW15011   2.904   1.540   1.143  0.6356 -0.0158 -0.2370
 1681SOL    HW115012   2.804   1.553   1.138  0.6081 -0.0914  0.0915
 1681SOL    HW215013   2.941   1.599   1.215  0.9289  0.5825 -0.8774
 1682SOL     OW15014   3.789   3.296   1.527 -0.4290 -0.0852  0.2206
 1682SOL    HW115015   3.816   3.335   1.614  2.5944 -0.8944 -0.2719
 1682SOL    HW215016   3.823   3.353   1.452  1.0372 -1.7704 -0.4489
 1683SOL     OW15017   1.249   2.279   1.278 -0.2733  0.0514  0.1731
 1683SOL    HW115018   1.233   2.316   1.187  4.0723  1.0028 -0.3027
 1683SOL    HW215019   1.278   2.183   1.270  4.4750  1.3957  0.1061
 1684SOL     OW15020   1.206   2.531   2.212 -0.8448  0.6402  0.5945
 1684SOL    HW115021   1.135   2.592   2.177 -0.9253  0.6900  0.8480
 1684SOL    HW215022   1.258   2.494   2.135 -1.5879  0.0613  0.3498
 1685SOL     OW15023   4.059   1.456   0.706  0.3221 -0.0658  0.3137
 1685SOL    HW115024   4.037   1.383   0.771 -0.6886  0.3772  0.4692
 1685SOL    HW215025   4.033   1.427   0.614  1.1845 -0.4437  0.1810
 1686SOL     OW15026   2.185   4.489   2.255 -0.2739 -0.6556  0.7523
 1686SOL    HW115027   2.123   4.564   2.232 -1.0575 -1.3193  0.6634
 1686SOL    HW215028   2.132   4.406   2.271  0.6744 -1.5232 -0.4887
 1687SOL     OW15029   4.407   2.182   2.366  0.0084 -0.0391  0.4977
 1687SOL    HW115030   4.314   2.152   2.388 -0.4109  1.3623  0.6895
 1687SOL    HW215031   4.419   2.185   2.267 -0.8102  1.6920  0.4320
 1688SOL     OW15032   4.790   2.912   2.342 -0.0664  0.4051  0.3532
 1688SOL    HW115033   4.864   2.879   2.400 -1.5615 -1.5254  1.2442
 1688SOL    HW215034   4.801   2.876   2.249 -1.5560 -2.6135  1.2556
 1689SOL     OW15035   2.270   9.516   1.503 -0.1912  0.4291 -0.6949
 1689SOL    HW115036   2.354   9.543   1.549 -0.5516  0.8530 -0.2889
 1689SOL    HW215037   2.200   9.586   1.517 -0.2379  0.6761 -2.0754
 1690SOL     OW15038   0.132   5.128   2.181 -0.0819 -1.0307  0.1529
 1690SOL    HW115039   0.050   5.178   2.211  0.2739 -1.0902  1.2736
 1690SOL    HW215040   0.105   5.037   2.148 -0.5718 -0.6818 -0.4100
 1691SOL     OW15041   2.748   7.200   0.103 -0.3683 -0.0864  0.0168
 1691SOL    HW115042   2.800   7.273   0.060  0.6335 -1.4158 -1.0845
 1691SOL    HW215043   2.776   7.190   0.198 -0.2421  0.7132  0.0604
 1692SOL     OW15044   3.399   0.569   2.464  0.6106  1.0371  0.4078
 1692SOL    HW115045   3.329   0.499   2.449  0.6462  0.7282  1.5548
 1692SOL    HW215046   3.483   0.542   2.417  0.6188  0.2957  0.8293
 1693SOL     OW15047   3.496   2.238   2.264  0.2339  0.1131 -0.3602
 1693SOL    HW115048   3.596   2.241   2.264  0.2132  1.4253  0.4147
 1693SOL    HW215049   3.464   2.202   2.351  0.0306 -0.5700 -0.7149
 1694SOL     OW15050   3.621   5.035   0.822 -0.6663 -0.5433 -0.2319
 1694SOL    HW115051   3.642   4.957   0.881 -0.2689 -1.3734 -1.4674
 1694SOL    HW215052   3.526   5.064   0.838 -0.8378 -1.3179  0.1774
 1695SOL     OW15053   3.854   2.397   1.999 -0.2382  0.6631  0.0147
 1695SOL    HW115054   3.798   2.345   1.935 -0.9365  0.1993  0.9999
 1695SOL    HW215055   3.838   2.495   1.986 -1.3970  0.5283  0.3955
 1696SOL     OW15056   2.993   4.753   1.964  0.6019  0.1388 -0.4135
 1696SOL    HW115057   2.960   4.698   2.041 -0.2380 -0.8335 -1.4338
 1696SOL    HW215058   2.930   4.829   1.947  0.2782 -0.1893 -0.7097
 1697SOL     OW15059   2.270   8.029   1.122  0.0005  0.5041 -0.0454
 1697SOL    HW115060   2.182   8.041   1.169  1.2335  0.6334  2.2654
 1697SOL    HW215061   2.303   8.118   1.091 -0.1724  0.5833 -0.0073
 1698SOL     OW15062   2.294   2.314   1.465 -0.4717 -0.6782 -0.1892
 1698SOL    HW115063   2.375   2.369   1.447 -0.4297 -0.5140  0.4972
 1698SOL    HW215064   2.302   2.269   1.554 -1.2935 -0.3442  0.0696
 1699SOL     OW15065   1.057   2.365   1.641 -0.4131 -0.4639  0.7691
 1699SOL    HW115066   1.097   2.453   1.666  0.5354 -0.5615 -0.3623
 1699SOL    HW215067   1.095   2.294   1.701 -0.6718 -0.2026  1.2441
 1700SOL     OW15068   4.170   3.277   2.020 -0.2616  0.0615 -0.1146
 1700SOL    HW115069   4.241   3.308   1.957  0.2193 -0.4142  0.1921
 1700SOL    HW215070   4.112   3.355   2.045  0.7267  0.6524  0.3846
 1701SOL     OW15071   2.383   8.232   1.390 -0.3497  0.0492 -0.5159
 1701SOL    HW115072   2.418   8.180   1.468  0.5160 -0.8578 -1.5030
 1701SOL    HW215073   2.324   8.305   1.423 -0.9075 -1.0364  0.9295
 1702SOL     OW15074   2.597   9.409   0.846  0.3415 -0.3674 -0.3596
 1702SOL    HW115075   2.597   9.476   0.921 -0.2549 -0.0911 -0.5981
 1702SOL    HW215076   2.634   9.323   0.879 -0.8408 -0.5555  0.5448
 1703SOL     OW15077   3.544   8.668   2.410 -0.4346  0.2907  0.8219
 1703SOL    HW115078   3.448   8.643   2.424  0.1294 -1.4239  1.6743
 1703SOL    HW215079   3.586   8.688   2.498 -0.2810  2.1929  0.3549
 1704SOL     OW15080   2.705   0.396   1.601  0.8539  0.3666  0.2318
 1704SOL    HW115081   2.630   0.354   1.652 -0.0979  1.3606 -0.3479
 1704SOL    HW215082   2.725   0.342   1.519  1.4474 -0.4469  0.8968
 1705SOL     OW15083   1.431   3.823   1.790  0.1579  0.2095  0.4191
 1705SOL    HW115084   1.379   3.878   1.855 -0.3941  0.1380  0.0371
 1705SOL    HW215085   1.461   3.738   1.835  2.2453  1.4491  1.4484
 1706SOL     OW15086   9.000   5.312   2.268  0.2231 -0.1584  0.4714
 1706SOL    HW115087   9.011   5.392   2.327 -0.9784  0.7344 -0.4995
 1706SOL    HW215088   8.977   5.232   2.324 -2.5916  1.0360  1.0910
 1707SOL     OW15089   3.754   3.820   1.781  0.5519  0.0511 -0.2760
 1707SOL    HW115090   3.753   3.773   1.692 -0.8644 -0.7765  0.1690
 1707SOL    HW215091   3.717   3.912   1.771 -0.1507 -0.2441 -0.4423
 1708SOL     OW15092   3.999   3.089   0.537 -0.5032 -0.1359  0.9600
 1708SOL    HW115093   3.914   3.141   0.543 -0.0687  0.4363  2.5937
 1708SOL    HW215094   4.070   3.136   0.591  0.7060 -0.8679  0.0292
 1709SOL     OW15095   4.987   2.364   0.520 -0.3239 -0.3919  0.3713
 1709SOL    HW115096   4.995   2.279   0.468  0.6605 -0.2452  0.2647
 1709SOL    HW215097   4.944   2.434   0.464 -1.2505 -0.8490  0.4987
 1710SOL     OW15098   2.857   5.931   1.668 -0.0536  0.5317  0.0994
 1710SOL    HW115099   2.855   5.999   1.742 -0.7890 -0.8947  1.4265
 1710SOL    HW215100   2.810   5.848   1.698  0.9699 -0.6354 -1.4359
 1711SOL     OW15101   3.559   4.249   0.377  0.4329 -0.1007 -0.2019
 1711SOL    HW115102   3.638   4.212   0.425 -0.4644 -4.5514 -1.9273
 1711SOL    HW215103   3.590   4.302   0.298  1.7210  2.1303  1.7294
 1712SOL     OW15104   1.383   2.866   2.358 -0.2728  0.5702  0.2619
 1712SOL    HW115105   1.449   2.878   2.432 -0.6765  0.1885  0.6861
 1712SOL    HW215106   1.291   2.858   2.396 -0.3466 -0.9187 -0.1845
 1713SOL     OW15107   9.798   5.564   0.006 -0.0825  0.1445  0.4320
 1713SOL    HW115108   9.712   5.613  -0.009  0.7191  1.7234  0.8734
 1713SOL    HW215109   9.789   5.506   0.087 -1.4434 -1.4182 -0.8048
 1714SOL     OW15110   2.115   4.280   1.847 -0.1610 -0.2714  0.5816
 1714SOL    HW115111   2.096   4.377   1.860 -1.8725 -0.5020 -0.1067
 1714SOL    HW215112   2.185   4.269   1.777 -0.0957  0.4647  0.5287
 1715SOL     OW15113   2.222   4.920   0.024 -0.9215  0.0374  0.1719
 1715SOL    HW115114   2.247   4.832   0.065 -0.3110  0.0028 -0.2629
 1715SOL    HW215115   2.222   4.912  -0.076  0.7275  0.9300  0.0720
 1716SOL     OW15116   2.088   0.602   0.183 -0.2923 -0.3994  0.0833
 1716SOL    HW115117   2.110   0.637   0.092  1.4577 -0.7326  0.3652
 1716SOL    HW215118   2.087   0.678   0.248 -1.5511 -0.1602 -0.1984
 1717SOL     OW15119   1.525   5.287   0.558 -0.2115  0.1507 -0.6247
 1717SOL    HW115120   1.578   5.365   0.523  1.8166 -1.2796 -0.8574
 1717SOL    HW215121   1.525   5.290   0.658  1.5800 -0.6171 -0.5817
 1718SOL     OW15122   3.405   4.568   2.468 -0.3658 -0.7641 -0.0314
 1718SOL    HW115123   3.504   4.565   2.483  0.2351  0.8645 -3.2676
 1718SOL    HW215124   3.362   4.627   2.538  1.3842  1.1547 -0.5356
 1719SOL     OW15125   1.356   5.554   0.495  0.0989 -0.0583 -0.3670
 1719SOL    HW115126   1.392   5.497   0.420 -1.4109 -2.4207  0.6293
 1719SOL    HW215127   1.272   5.598   0.465  0.2632  0.1426 -0.5340
 1720SOL     OW15128   9.399   3.603   1.524  0.0911 -0.2574  0.2202
 1720SOL    HW115129   9.388   3.521   1.468  1.3128  0.5692 -1.2937
 1720SOL    HW215130   9.419   3.576   1.618  1.9417 -1.7256 -0.5533
 1721SOL     OW15131   2.680   3.863   0.009  0.4108  0.1189  0.1758
 1721SOL    HW115132   2.597   3.810  -0.006 -0.3578  0.7512  1.9727
 1721SOL    HW215133   2.749   3.805   0.052  0.2865  0.0355  0.2617
 1722SOL     OW15134   2.444   8.625   1.080 -0.1084 -0.0731  0.2277
 1722SOL    HW115135   2.538   8.605   1.106  0.0072 -0.5776 -0.5631
 1722SOL    HW215136   2.443   8.705   1.020 -0.2445  0.2957  0.7219
 1723SOL     OW15137   2.502   8.440   1.742  0.8490  0.1021  0.2315
 1723SOL    HW115138   2.557   8.516   1.776  0.5261  0.2463  0.4344
 1723SOL    HW215139   2.415   8.474   1.707  1.8607  0.1580 -2.3246
 1724SOL     OW15140   1.818   5.592   2.546  0.0193  0.6370 -0.0060
 1724SOL    HW115141   1.883   5.541   2.490  1.4741  2.8050 -0.3538
 1724SOL    HW215142   1.725   5.563   2.523  0.7860 -1.6476 -0.3641
 1725SOL     OW15143   1.975   1.517   0.220  0.1813 -0.0228 -0.5762
 1725SOL    HW115144   1.912   1.441   0.205 -0.1726  0.2962 -0.7169
 1725SOL    HW215145   1.984   1.570   0.135  2.3213 -1.3295 -1.2205
 1726SOL     OW15146   1.593   1.195   0.187 -0.0644  0.2564 -0.1278
 1726SOL    HW115147   1.577   1.153   0.277  0.4905  2.0858  0.8474
 1726SOL    HW215148   1.506   1.228   0.150 -0.1911  0.1326  0.0590
 1727SOL     OW15149   9.412   4.170   1.060 -0.3674  0.2206 -0.3764
 1727SOL    HW115150   9.421   4.110   1.139  0.1500 -0.8245 -1.2180
 1727SOL    HW215151   9.398   4.116   0.977  1.1929  1.1799 -1.3084
 1728SOL     OW15152   2.167   5.565   1.153 -0.3923  0.0549 -0.6699
 1728SOL    HW115153   2.072   5.550   1.127 -0.5715 -0.6193  0.3066
 1728SOL    HW215154   2.171   5.589   1.250  0.3339  1.3741 -1.0161
 1729SOL     OW15155   1.581   3.698   2.168  0.3587 -0.1536 -0.2078
 1729SOL    HW115156   1.577   3.798   2.166 -2.5399 -0.2370 -0.7085
 1729SOL    HW215157   1.572   3.667   2.263 -1.6988 -0.0006 -0.3368
 1730SOL     OW15158   0.513   4.056   1.924  0.1237  0.0163 -0.2925
 1730SOL    HW115159   0.514   3.957   1.914  0.9714 -0.0295  0.2350
 1730SOL    HW215160   0.604   4.093   1.902  0.2901  0.5069  1.1864
 1731SOL     OW15161   9.348   4.087   0.098  0.2220 -0.3897 -0.0571
 1731SOL    HW115162   9.349   3.987   0.109 -1.6583 -0.2505  1.8830
 1731SOL    HW215163   9.354   4.130   0.188  0.9494  1.2504 -0.8816
 1732SOL     OW15164   2.343   0.909   1.281  0.2254 -0.3929  0.4519
 1732SOL    HW115165   2.367   0.989   1.335  0.3810 -0.6060  0.7009
 1732SOL    HW215166   2.315   0.835   1.342 -0.5962 -0.3028  0.1920
 1733SOL     OW15167   3.844   5.399   1.752 -0.3553 -0.0850 -0.2838
 1733SOL    HW115168   3.941   5.395   1.727 -0.7923 -0.3815 -1.9960
 1733SOL    HW215169   3.796   5.458   1.687 -1.3824 -0.2334  0.3390
 1734SOL     OW15170   2.050   8.332   1.353 -0.2342  0.0716  0.3112
 1734SOL    HW115171   2.123   8.361   1.415 -0.0115 -0.4367  0.2861
 1734SOL    HW215172   2.068   8.240   1.321  2.0669  1.9711 -4.2034
 1735SOL     OW15173   1.821   9.842   0.315 -0.0120 -0.2090 -0.2663
 1735SOL    HW115174   1.839   9.762   0.372  0.7362  0.0389 -0.1517
 1735SOL    HW215175   1.892   9.911   0.330 -2.0647  1.5777  1.6334
 1736SOL     OW15176   4.295   4.421   0.015  0.1315  0.8388  0.2867
 1736SOL    HW115177   4.276   4.462  -0.075 -0.9237  2.0665  1.0454
 1736SOL    HW215178   4.276   4.323   0.011  1.9111  0.5354 -1.3401
 1737SOL     OW15179   1.563   9.813   0.404  0.9049 -0.4327  0.2113
 1737SOL    HW115180   1.658   9.804   0.373  0.1575  0.1889 -2.4185
 1737SOL    HW215181   1.532   9.907   0.389 -0.1227 -0.6333  1.0716
 1738SOL     OW15182   1.179   8.335   1.261 -0.4084 -0.7326 -0.0367
 1738SOL    HW115183   1.184   8.284   1.176  0.1110 -1.0378  0.1744
 1738SOL    HW215184   1.215   8.427   1.248  1.7058 -1.4796  0.3774
 1739SOL     OW15185   1.387   1.426   1.984  0.4882  0.1415  0.1165
 1739SOL    HW115186   1.458   1.455   2.048 -0.3804  0.3561  1.0150
 1739SOL    HW215187   1.370   1.328   1.996  1.4226 -0.1533 -0.9028
 1740SOL     OW15188   4.027   5.352   1.190 -0.5719 -0.3935 -0.2760
 1740SOL    HW115189   4.035   5.439   1.239  0.8100 -0.5118 -0.2882
 1740SOL    HW215190   4.118   5.319   1.165 -1.0649 -2.0312  0.0489
 1741SOL     OW15191   2.140   4.564   0.813 -0.7515 -0.5311 -0.1140
 1741SOL    HW115192   2.089   4.646   0.837  2.5624  0.9577  2.2383
 1741SOL    HW215193   2.143   4.502   0.892  1.2019 -0.5057 -0.1522
 1742SOL     OW15194   9.280   4.463   1.358 -0.0384  0.5616 -0.7652
 1742SOL    HW115195   9.217   4.391   1.389 -1.9399  2.4622 -0.0931
 1742SOL    HW215196   9.238   4.514   1.283  1.8882  0.1139 -2.1891
 1743SOL     OW15197   1.080   7.661   1.972 -0.4685  0.0402  0.1818
 1743SOL    HW115198   1.179   7.680   1.977 -0.3796 -0.3121 -0.2131
 1743SOL    HW215199   1.031   7.725   2.032  0.1064 -0.6797  1.4309
 1744SOL     OW15200   2.583   7.648   0.703  0.4898  0.1830  0.4532
 1744SOL    HW115201   2.620   7.633   0.611 -0.2311 -0.0708  0.2045
 1744SOL    HW215202   2.577   7.746   0.722  0.2037  0.2422  0.0540
 1745SOL     OW15203   4.917   3.413   1.091 -1.0159  0.6334  0.1232
 1745SOL    HW115204   4.981   3.387   1.163 -1.4523 -1.2562 -0.1409
 1745SOL    HW215205   4.956   3.392   1.002 -0.5847  2.7336 -0.2176
 1746SOL     OW15206   2.459   5.114   0.454  0.1657 -0.9999 -0.3404
 1746SOL    HW115207   2.493   5.031   0.409  0.4265 -0.7221 -0.6534
 1746SOL    HW215208   2.360   5.110   0.459  0.1909 -1.4520 -0.1264
 1747SOL     OW15209   2.902   3.744   2.361  0.1132  0.2838 -0.3045
 1747SOL    HW115210   2.879   3.840   2.345  1.5279  0.8727  1.0599
 1747SOL    HW215211   2.923   3.700   2.273  2.4537  2.0447 -0.6919
 1748SOL     OW15212   4.513   1.630   2.511 -0.5875  0.1385  0.3661
 1748SOL    HW115213   4.527   1.594   2.419  2.4732  1.7033  0.1598
 1748SOL    HW215214   4.500   1.729   2.507 -2.3760 -0.0153  1.4885
 1749SOL     OW15215   2.349   1.595   1.058 -0.3415 -0.4562 -0.0420
 1749SOL    HW115216   2.354   1.690   1.028  0.8967 -0.6580 -0.4982
 1749SOL    HW215217   2.322   1.593   1.155  2.7148  0.5172  0.8790
 1750SOL     OW15218   4.006   4.776   0.443 -0.1041 -0.4304 -0.3968
 1750SOL    HW115219   3.945   4.816   0.512  2.5640 -0.2962  1.9490
 1750SOL    HW215220   4.001   4.677   0.448  0.1924 -0.4234  0.1147
 1751SOL     OW15221   3.169   0.712   1.444  0.0453 -0.0915  0.1582
 1751SOL    HW115222   3.205   0.732   1.353 -0.2650  0.6516  0.1891
 1751SOL    HW215223   3.244   0.693   1.507  0.2938 -0.0815 -0.1362
 1752SOL     OW15224   3.999   4.767   2.398 -0.1831  0.6444  0.2455
 1752SOL    HW115225   3.952   4.713   2.328 -0.8117  1.0600  0.3436
 1752SOL    HW215226   4.097   4.766   2.381 -0.1749 -0.6318  0.3132
 1753SOL     OW15227   1.072   3.660   1.940  0.8103 -0.1274  0.2882
 1753SOL    HW115228   1.127   3.613   1.871  0.7668 -2.1345  1.5591
 1753SOL    HW215229   1.113   3.646   2.030 -0.8262 -0.1937  1.0484
 1754SOL     OW15230   1.818   6.256   0.959  0.4022  0.1415 -0.0948
 1754SOL    HW115231   1.761   6.186   0.916  0.9835 -0.9931  0.9321
 1754SOL    HW215232   1.806   6.343   0.912 -1.9357 -0.1453 -0.0757
 1755SOL     OW15233   1.520   3.979   2.454  0.6423  0.0144 -0.2855
 1755SOL    HW115234   1.598   4.027   2.414 -0.0504  0.2441 -1.4014
 1755SOL    HW215235   1.436   4.030   2.435  0.3851  0.6378  2.3534
 1756SOL     OW15236   3.936   0.600   0.169 -0.2524  0.2822  0.2071
 1756SOL    HW115237   4.032   0.626   0.160 -0.6172  0.8083 -2.5319
 1756SOL    HW215238   3.883   0.680   0.198 -0.0655  0.2976  0.5165
 1757SOL     OW15239   1.094   5.922   2.120  0.0903  0.4901 -0.5583
 1757SOL    HW115240   1.001   5.948   2.149 -0.1750 -0.7387 -0.2786
 1757SOL    HW215241   1.133   5.859   2.187  1.3882  1.5095 -0.3456
 1758SOL     OW15242   3.662   9.375   2.066 -0.1678 -0.1462  0.1437
 1758SOL    HW115243   3.691   9.393   1.973  0.9569  2.4829  0.9692
 1758SOL    HW215244   3.584   9.434   2.090 -1.0224 -1.4160  0.6096
 1759SOL     OW15245   3.020   4.092   0.080  0.1019 -0.5847 -0.1308
 1759SOL    HW115246   2.967   4.151   0.019 -0.1224  1.1764  1.7415
 1759SOL    HW215247   3.116   4.097   0.055  0.1528  0.9891  0.3473
 1760SOL     OW15248   0.078   6.103   0.078  0.6408 -0.3137 -0.5366
 1760SOL    HW115249   0.117   6.119   0.169  1.8785 -0.7329 -0.9713
 1760SOL    HW215250  -0.007   6.051   0.087 -0.1826  1.1822  0.4787
 1761SOL     OW15251   1.857   3.417   0.634  0.2895  0.1379 -0.4273
 1761SOL    HW115252   1.904   3.375   0.557 -0.2623  0.9830 -1.2267
 1761SOL    HW215253   1.888   3.511   0.646  0.4487 -0.0168  0.4451
 1762SOL     OW15254   4.099   2.004   1.326 -0.2811 -0.1832  0.5753
 1762SOL    HW115255   4.142   2.052   1.402 -1.3077  4.3001 -1.5591
 1762SOL    HW215256   4.005   1.981   1.351 -0.8384  1.8868  0.4547
 1763SOL     OW15257   3.198   0.153   2.142 -0.4856 -0.6845 -0.1406
 1763SOL    HW115258   3.177   0.243   2.102 -0.9144 -0.4481  0.6149
 1763SOL    HW215259   3.120   0.121   2.195  0.0969 -0.9729  0.5518
 1764SOL     OW15260   2.917   7.584   0.264  0.3650  0.4739 -0.1623
 1764SOL    HW115261   2.919   7.512   0.334  0.8514 -1.7277 -2.3573
 1764SOL    HW215262   2.984   7.655   0.287 -0.3844  0.4446  2.2414
 1765SOL     OW15263   1.587   5.615   0.193  0.6688  0.2273  0.3973
 1765SOL    HW115264   1.611   5.710   0.170  0.4966  0.0529 -0.5527
 1765SOL    HW215265   1.500   5.592   0.149  0.6838 -0.3539  0.6706
 1766SOL     OW15266   2.878   6.054   1.088 -0.0470  0.2587  0.4371
 1766SOL    HW115267   2.883   5.955   1.077 -2.7508 -0.2441  2.9404
 1766SOL    HW215268   2.945   6.084   1.156  1.0649  0.2254 -0.6337
 1767SOL     OW15269   3.046   1.827   1.960 -0.1704  0.4977  0.0739
 1767SOL    HW115270   3.043   1.926   1.974  0.7966  0.6066 -0.4504
 1767SOL    HW215271   3.125   1.803   1.903  0.2761 -0.6936  1.1419
 1768SOL     OW15272   2.930   1.588   0.877  0.0981 -0.3339  0.0854
 1768SOL    HW115273   2.864   1.651   0.836 -0.2386 -0.6077  0.2101
 1768SOL    HW215274   2.902   1.565   0.970  1.2727  0.9011  0.7733
 1769SOL     OW15275   2.363   7.685   1.196 -0.0602  0.4606 -0.1715
 1769SOL    HW115276   2.424   7.709   1.272 -0.4762 -0.6598  0.5299
 1769SOL    HW215277   2.400   7.721   1.110  1.9792 -0.8112  0.1406
 1770SOL     OW15278   1.618   9.802   1.030  0.1523 -0.0595  0.0527
 1770SOL    HW115279   1.524   9.828   1.048  0.3694  0.4079  0.5173
 1770SOL    HW215280   1.664   9.779   1.116  0.7957  0.8616 -0.0358
 1771SOL     OW15281   3.975   4.398   0.216  0.0557 -0.3425 -0.0444
 1771SOL    HW115282   4.029   4.314   0.212  0.5170 -0.1382  1.5352
 1771SOL    HW215283   3.990   4.452   0.133  0.6226 -1.2996 -0.5619
 1772SOL     OW15284   0.279   3.653   2.267 -0.2398 -0.1714  0.4360
 1772SOL    HW115285   0.368   3.662   2.221 -0.0501 -0.5268  0.7331
 1772SOL    HW215286   0.293   3.634   2.364 -0.6367  3.1178  1.1961
 1773SOL     OW15287   3.846   2.015   2.285 -0.0109 -0.0094  0.1874
 1773SOL    HW115288   3.756   1.981   2.312 -0.5888  1.4632  0.1595
 1773SOL    HW215289   3.901   2.033   2.367 -0.3788  0.7585  0.2738
 1774SOL     OW15290   0.827   7.731   0.028 -0.0739 -0.4685  0.2704
 1774SOL    HW115291   0.924   7.740   0.005 -0.2563  2.8054  0.4981
 1774SOL    HW215292   0.772   7.764  -0.049 -1.0018 -1.5008  0.4839
 1775SOL     OW15293   3.365   1.076   2.312  0.0689  0.2173  0.1830
 1775SOL    HW115294   3.347   1.018   2.232  0.1347  1.3102 -0.6376
 1775SOL    HW215295   3.461   1.068   2.338  0.5996  1.5493 -1.2446
 1776SOL     OW15296   2.685   2.280   1.685 -0.6167 -0.9196 -0.0842
 1776SOL    HW115297   2.627   2.360   1.702 -0.7776 -1.2126  0.7633
 1776SOL    HW215298   2.637   2.198   1.715 -0.1795 -1.2679 -0.3479
 1777SOL     OW15299   0.753   5.062   0.079 -0.4655  0.0297 -0.2583
 1777SOL    HW115300   0.675   5.079   0.139  1.2054  0.1468  1.9044
 1777SOL    HW215301   0.783   4.967   0.089 -0.2263  0.0200 -1.0074
 1778SOL     OW15302   1.818   7.632   1.812  0.3857 -0.0907 -0.2364
 1778SOL    HW115303   1.885   7.561   1.833  0.9993 -0.1470 -2.3337
 1778SOL    HW215304   1.859   7.722   1.826  0.4399 -0.1278 -0.1528
 1779SOL     OW15305   3.629   1.038   0.576  0.0989 -0.1295 -0.0597
 1779SOL    HW115306   3.549   1.080   0.619 -0.3808 -0.1455 -0.9181
 1779SOL    HW215307   3.602   0.997   0.489  0.3904 -2.8044  1.0381
 1780SOL     OW15308   4.164   3.046   0.338 -0.1102  0.2045  0.3015
 1780SOL    HW115309   4.093   3.056   0.407 -0.2047 -0.2615  0.2693
 1780SOL    HW215310   4.238   3.112   0.357 -0.5981  0.7688  0.2633
 1781SOL     OW15311   4.000   0.932   0.546  0.0016 -0.1742 -0.0389
 1781SOL    HW115312   4.095   0.948   0.521  0.3762 -0.2446  1.2974
 1781SOL    HW215313   3.941   0.996   0.496  0.6492 -0.8334 -1.6488
 1782SOL     OW15314   1.312   8.576   1.179  0.2701  0.0322 -0.3058
 1782SOL    HW115315   1.353   8.642   1.242 -2.2589  1.4032  0.0033
 1782SOL    HW215316   1.351   8.589   1.087  0.6877  1.1311  0.0160
 1783SOL     OW15317   4.032   9.533   0.386 -0.2111 -0.3755  0.4956
 1783SOL    HW115318   3.933   9.547   0.376 -0.2867 -1.4777 -0.3836
 1783SOL    HW215319   4.079   9.574   0.308 -0.0633 -0.7624  0.3784
 1784SOL     OW15320   1.990   7.501   0.996  0.4816 -0.4549 -0.0494
 1784SOL    HW115321   1.987   7.469   0.902  0.0279  1.9043 -0.8658
 1784SOL    HW215322   1.954   7.430   1.057 -0.1064 -1.6283 -1.7301
 1785SOL     OW15323   2.429   8.808   0.807  0.2993  0.1866 -0.4092
 1785SOL    HW115324   2.338   8.847   0.820  0.5746  1.1351 -1.2496
 1785SOL    HW215325   2.474   8.853   0.730  1.1010 -0.9661 -0.6202
 1786SOL     OW15326   9.145   3.898   2.347  0.5684  0.4214  0.4175
 1786SOL    HW115327   9.115   3.988   2.380 -0.1710  0.0193  0.8489
 1786SOL    HW215328   9.125   3.829   2.417 -1.0511 -0.4447 -0.8701
 1787SOL     OW15329   2.331   3.224   1.209  0.0482 -0.0743 -0.6123
 1787SOL    HW115330   2.383   3.148   1.170 -0.2221 -0.3576 -0.4216
 1787SOL    HW215331   2.327   3.215   1.308 -1.9568 -1.1000 -0.7424
 1788SOL     OW15332   4.253   4.793   2.280  0.4570 -0.3712 -0.1065
 1788SOL    HW115333   4.270   4.879   2.327 -2.8025  0.1459  0.1910
 1788SOL    HW215334   4.251   4.809   2.181  0.8079 -0.2948 -0.1027
 1789SOL     OW15335   3.397   2.296   1.780  0.1916  0.1993 -0.3847
 1789SOL    HW115336   3.337   2.216   1.772  0.5543 -0.1407  0.2406
 1789SOL    HW215337   3.347   2.378   1.751 -0.9027  0.0684  1.0650
 1790SOL     OW15338   3.146   8.644   2.200 -0.3946  0.3200  0.1551
 1790SOL    HW115339   3.243   8.660   2.182  0.2658  0.1180  3.3126
 1790SOL    HW215340   3.110   8.719   2.255 -1.5459 -0.5980  0.6679
 1791SOL     OW15341   2.477   5.879   2.023 -0.7600 -0.1621  0.4616
 1791SOL    HW115342   2.545   5.874   1.950 -0.7693  2.3651  0.2338
 1791SOL    HW215343   2.516   5.927   2.102 -1.4591 -0.9572  1.3020
 1792SOL     OW15344   0.827   3.284   1.142 -0.7533 -0.3332 -0.0662
 1792SOL    HW115345   0.905   3.310   1.199 -0.1204 -0.2543 -0.9623
 1792SOL    HW215346   0.775   3.366   1.117 -0.4602 -0.2546 -0.4237
 1793SOL     OW15347   2.768   1.416   1.398 -0.0078 -0.7716 -0.1010
 1793SOL    HW115348   2.733   1.460   1.315  1.4107  1.5946  0.5227
 1793SOL    HW215349   2.727   1.325   1.407 -1.0994 -0.5822 -2.7396
 1794SOL     OW15350   1.231   5.554   2.092  0.1036 -0.4145  0.2269
 1794SOL    HW115351   1.330   5.546   2.089 -0.0115 -2.7436  1.2524
 1794SOL    HW215352   1.204   5.606   2.173  0.4402 -0.9889  0.7111
 1795SOL     OW15353   0.384   4.833   1.073  0.1899  0.4390 -0.0348
 1795SOL    HW115354   0.349   4.925   1.057 -0.1589  0.0249 -1.8216
 1795SOL    HW215355   0.455   4.835   1.143  0.0244  2.0308  0.0902
 1796SOL     OW15356   2.353   5.669   2.126  0.1197 -0.1619  0.1958
 1796SOL    HW115357   2.386   5.752   2.079 -1.0108  0.2093  0.0384
 1796SOL    HW215358   2.254   5.663   2.116 -0.0046 -0.6499  1.6494
 1797SOL     OW15359   9.845   5.353   2.014 -0.8221 -0.5519 -0.5036
 1797SOL    HW115360   9.906   5.429   1.990 -0.2157 -1.0347 -0.5021
 1797SOL    HW215361   9.880   5.306   2.095 -1.0589 -0.9928 -0.6542
 1798SOL     OW15362   2.881   8.613   1.351 -0.0317  0.1885 -0.1193
 1798SOL    HW115363   2.978   8.598   1.333  0.1824  1.7308 -0.3480
 1798SOL    HW215364   2.869   8.704   1.391 -1.2715 -0.4039  0.8895
 1799SOL     OW15365   1.537   8.846   2.393 -0.6326 -0.2981 -0.1772
 1799SOL    HW115366   1.637   8.840   2.388 -0.6631 -0.2246 -1.0209
 1799SOL    HW215367   1.508   8.937   2.364 -0.9749 -0.4911 -0.4380
 1800SOL     OW15368   2.272   7.954   0.501  0.1735  0.0446  0.2383
 1800SOL    HW115369   2.203   7.987   0.437 -2.1134 -0.4208  2.4172
 1800SOL    HW215370   2.306   8.029   0.557 -1.2911 -0.3577  1.6925
 1801SOL     OW15371   0.944   3.551   0.732  0.1120 -0.2792  0.1993
 1801SOL    HW115372   0.911   3.641   0.704  0.5259 -0.6196 -1.4292
 1801SOL    HW215373   0.976   3.556   0.827  3.2606  2.1437 -0.8888
 1802SOL     OW15374   1.177   6.626   1.941  0.4391 -0.2063 -0.3668
 1802SOL    HW115375   1.118   6.546   1.932  0.9178 -0.7672  1.2614
 1802SOL    HW215376   1.185   6.672   1.852  0.3679 -2.1054 -1.3789
 1803SOL     OW15377   1.212   4.078   1.651 -0.3661  0.2535  0.4848
 1803SOL    HW115378   1.276   4.043   1.583 -0.1336  2.3785 -0.4257
 1803SOL    HW215379   1.256   4.080   1.741  0.5591  0.8483  0.0297
 1804SOL     OW15380   2.027   3.901   0.175 -0.1017 -0.7133  0.0190
 1804SOL    HW115381   1.998   3.939   0.263  0.1545  0.3866 -0.3627
 1804SOL    HW215382   2.027   3.801   0.180  0.2668 -0.6561  1.3882
 1805SOL     OW15383   2.418   4.059   1.451 -0.2233  0.0198 -0.3052
 1805SOL    HW115384   2.322   4.062   1.424  0.1924 -0.6987 -1.9445
 1805SOL    HW215385   2.450   3.964   1.448  0.6569  0.3124 -0.2480
 1806SOL     OW15386   1.241   8.223   0.989 -0.0753  0.2213  0.2961
 1806SOL    HW115387   1.335   8.255   0.986  1.1932 -3.3901 -0.9229
 1806SOL    HW215388   1.206   8.210   0.896 -0.3327 -2.3190  0.7013
 1807SOL     OW15389   9.385   4.728   0.607 -0.2539 -0.2436  0.9458
 1807SOL    HW115390   9.300   4.679   0.625  0.2452 -1.8011 -0.7359
 1807SOL    HW215391   9.454   4.664   0.575  0.8241  1.3713 -0.0552
 1808SOL     OW15392   1.197   2.622   1.621 -0.3146 -0.2732 -0.1245
 1808SOL    HW115393   1.210   2.595   1.526 -2.7130  0.5431 -0.7342
 1808SOL    HW215394   1.185   2.721   1.626  1.2128 -0.1325  1.2210
 1809SOL     OW15395   3.018   1.420   2.272 -0.4312 -0.7040  0.1562
 1809SOL    HW115396   2.956   1.381   2.204 -2.6341  2.6108  0.1480
 1809SOL    HW215397   3.059   1.504   2.235  0.0238 -0.0580  2.0946
 1810SOL     OW15398   3.737   2.859   1.307 -0.0267 -0.0541 -0.6187
 1810SOL    HW115399   3.788   2.945   1.302  3.8698 -2.2701 -0.6499
 1810SOL    HW215400   3.721   2.835   1.402  2.0595 -1.0643 -0.5083
 1811SOL     OW15401   3.675   3.838   0.497 -0.4188 -0.4662  0.2889
 1811SOL    HW115402   3.612   3.898   0.546 -0.6111 -0.6495  0.2661
 1811SOL    HW215403   3.663   3.851   0.399  1.2242  1.2141  0.2973
 1812SOL     OW15404   1.744   1.783   0.340 -0.1105 -0.0417  0.1130
 1812SOL    HW115405   1.789   1.752   0.424  1.3658  1.0715 -0.2579
 1812SOL    HW215406   1.728   1.882   0.345 -1.2608 -0.1958 -0.3468
 1813SOL     OW15407   1.024   7.735   1.190  0.2143  0.1847 -0.3052
 1813SOL    HW115408   1.044   7.704   1.284  1.0213  0.4322 -0.3874
 1813SOL    HW215409   1.084   7.812   1.168 -1.3973  1.4576 -0.3020
 1814SOL     OW15410   1.601   0.184   1.557  0.3421  0.3374 -0.4213
 1814SOL    HW115411   1.699   0.189   1.541  0.0286  1.9369 -2.0046
 1814SOL    HW215412   1.554   0.155   1.473 -0.6277  0.7464 -0.0350
 1815SOL     OW15413   2.603   3.443   1.574 -0.2162  0.0135  0.2801
 1815SOL    HW115414   2.590   3.353   1.533  0.3163 -1.1590  2.5824
 1815SOL    HW215415   2.678   3.490   1.527 -0.0939 -0.9930 -0.5532
 1816SOL     OW15416   2.373   1.198   1.424  0.3007  0.1613 -0.1563
 1816SOL    HW115417   2.337   1.286   1.395 -0.0169  0.2247  0.4359
 1816SOL    HW215418   2.356   1.185   1.521 -2.1204 -1.7488 -0.7792
 1817SOL     OW15419   2.209   6.290   1.690 -0.5744 -0.0816 -0.6274
 1817SOL    HW115420   2.263   6.372   1.709 -1.8369  0.3315  1.2860
 1817SOL    HW215421   2.263   6.208   1.713 -0.2306  0.2895 -0.1022
 1818SOL     OW15422   3.212   3.454   0.661  0.1336 -0.5301 -0.5791
 1818SOL    HW115423   3.117   3.425   0.662 -0.6084  1.8003 -0.2028
 1818SOL    HW215424   3.237   3.482   0.568  0.6836 -1.8634 -0.8352
 1819SOL     OW15425   2.531   7.220   2.278  0.2379  0.4128  0.0964
 1819SOL    HW115426   2.586   7.290   2.232 -0.9167  0.6640 -0.9194
 1819SOL    HW215427   2.556   7.130   2.243  0.5748  0.4511  0.2315
 1820SOL     OW15428   3.675   0.326   1.304 -0.2011  0.4698  0.3116
 1820SOL    HW115429   3.770   0.345   1.283 -0.3856  0.7445 -0.2800
 1820SOL    HW215430   3.623   0.411   1.307 -0.4161  0.3270  0.6928
 1821SOL     OW15431   3.330   0.301   0.057  0.1743 -0.4575  0.3124
 1821SOL    HW115432   3.363   0.266  -0.031  0.7364 -1.1119  0.7772
 1821SOL    HW215433   3.402   0.288   0.127  1.2590  3.6015  0.0378
 1822SOL     OW15434   0.543   4.852   1.287  0.6639 -0.3100 -0.0254
 1822SOL    HW115435   0.609   4.776   1.286  0.7142 -0.3638  3.1962
 1822SOL    HW215436   0.572   4.921   1.353  0.6358  2.6305 -2.9232
 1823SOL     OW15437   8.590   5.013   0.185  0.0777 -0.7078  0.4871
 1823SOL    HW115438   8.637   5.073   0.249 -0.4894 -0.5186  0.7324
 1823SOL    HW215439   8.637   5.014   0.096 -0.6651  1.0752  0.1069
 1824SOL     OW15440   3.051   6.085   1.306 -0.0382  0.0736 -0.1715
 1824SOL    HW115441   3.078   6.034   1.388  1.0029 -0.1522 -0.6476
 1824SOL    HW215442   3.052   6.183   1.325  0.2951  0.0259  0.0639
 1825SOL     OW15443   1.814   4.580   1.303  0.2335  0.1205 -0.2593
 1825SOL    HW115444   1.842   4.674   1.285 -0.2980  0.1631 -0.8514
 1825SOL    HW215445   1.807   4.530   1.217 -0.9402 -0.0569 -0.0691
 1826SOL     OW15446   3.199   5.477   2.570 -0.0176 -0.2312  0.4134
 1826SOL    HW115447   3.103   5.505   2.574  0.6452  1.9736  1.5551
 1826SOL    HW215448   3.220   5.420   2.649  0.2979  1.6168  1.6954
 1827SOL     OW15449   2.263   3.625   2.466  0.4409  0.1835  0.3682
 1827SOL    HW115450   2.184   3.661   2.516  1.4048  0.4217  1.7485
 1827SOL    HW215451   2.255   3.526   2.459  0.2349  0.1556  0.9122
 1828SOL     OW15452   3.921   4.316   2.396  0.0991 -0.2073 -0.2029
 1828SOL    HW115453   3.827   4.330   2.366  0.2635 -0.8850 -1.0477
 1828SOL    HW215454   3.933   4.357   2.487 -0.6098  1.1902 -0.7172
 1829SOL     OW15455   9.914   3.989   0.938  0.1394 -0.4230 -0.2445
 1829SOL    HW115456   9.991   4.010   0.878 -0.4975  1.9577 -0.2763
 1829SOL    HW215457   9.928   4.032   1.027 -0.5090 -1.1271  0.2091
 1830SOL     OW15458   1.900   4.369   0.022 -0.2122 -0.4441 -0.3714
 1830SOL    HW115459   1.882   4.392  -0.073 -0.4799 -2.4030 -0.8133
 1830SOL    HW215460   1.914   4.271   0.031  1.0247 -0.1287  1.4355
 1831SOL     OW15461   3.172   9.490   0.123  0.8041  0.1910 -0.1613
 1831SOL    HW115462   3.092   9.431   0.139 -0.7589  1.9357 -1.2733
 1831SOL    HW215463   3.176   9.561   0.193  1.1868  0.2874 -0.2828
 1832SOL     OW15464   0.790   7.555   2.015 -0.4373 -0.3472 -0.1567
 1832SOL    HW115465   0.877   7.558   1.967  0.9662 -0.4393  2.3271
 1832SOL    HW215466   0.776   7.464   2.055 -0.3483  0.4793  1.8152
 1833SOL     OW15467   4.065   2.704   1.323  0.8673 -0.0674 -0.2820
 1833SOL    HW115468   3.973   2.678   1.294  0.4134  0.5555  0.5738
 1833SOL    HW215469   4.130   2.634   1.294  0.3379  0.1792 -2.1716
 1834SOL     OW15470   4.244   4.521   2.400 -0.0986 -0.3880 -0.3842
 1834SOL    HW115471   4.244   4.617   2.372  1.2457 -0.3297 -0.2163
 1834SOL    HW215472   4.275   4.465   2.323  1.6885 -0.4213  0.3443
 1835SOL     OW15473   0.931   3.088   0.265  0.4034 -0.4360 -0.5633
 1835SOL    HW115474   1.013   3.039   0.237 -0.3363 -2.9287  1.4257
 1835SOL    HW215475   0.929   3.096   0.365 -1.2968  0.4663 -0.6455
 1836SOL     OW15476   1.705   7.589   1.190  0.0131 -0.0559  0.6031
 1836SOL    HW115477   1.739   7.534   1.267  3.6972  1.2773  0.0432
 1836SOL    HW215478   1.712   7.536   1.106 -1.4539 -0.5523  0.7795
 1837SOL     OW15479   1.508   6.735   2.293  0.7485 -0.2246  0.3401
 1837SOL    HW115480   1.458   6.682   2.225 -0.8922 -1.4651  2.4635
 1837SOL    HW215481   1.519   6.830   2.261 -1.3896 -0.3862 -0.9167
 1838SOL     OW15482   1.676   4.678   0.992 -0.3894  0.0156 -0.7933
 1838SOL    HW115483   1.627   4.693   0.906 -1.3304  1.6726  0.0122
 1838SOL    HW215484   1.629   4.727   1.065  2.7847  2.0819 -0.0775
 1839SOL     OW15485   3.157   1.806   0.541  0.1213 -0.2710  0.2521
 1839SOL    HW115486   3.207   1.866   0.603  0.8408  0.1349 -0.7039
 1839SOL    HW215487   3.069   1.848   0.518 -0.0748 -0.3453  0.8658
 1840SOL     OW15488   1.641   4.085   0.231 -0.1423 -0.0115  0.5444
 1840SOL    HW115489   1.665   4.032   0.312  3.3509  2.5066  1.2679
 1840SOL    HW215490   1.584   4.162   0.258 -0.2027 -0.0012  0.3861
 1841SOL     OW15491   9.626   4.790   0.367 -0.2024  0.0866  0.3892
 1841SOL    HW115492   9.636   4.694   0.391  0.4395 -0.0073 -0.2302
 1841SOL    HW215493   9.529   4.814   0.368 -0.6892 -1.4360 -2.6051
 1842SOL     OW15494   3.685   4.573   2.314  0.3443  0.2356 -0.1282
 1842SOL    HW115495   3.689   4.670   2.340  0.4391  0.3259 -0.4702
 1842SOL    HW215496   3.649   4.566   2.220 -1.7623 -0.2014  0.6872
 1843SOL     OW15497   1.698   4.218   1.847  0.0928  0.2701  0.2652
 1843SOL    HW115498   1.781   4.245   1.896  0.2768  0.1806  0.0035
 1843SOL    HW215499   1.699   4.120   1.831 -0.8866 -0.0013  1.7997
 1844SOL     OW15500   0.886   5.371   0.014  0.3880 -1.0026 -0.3182
 1844SOL    HW115501   0.896   5.295   0.077  0.5418  0.1785  1.1188
 1844SOL    HW215502   0.891   5.338  -0.080  2.1137 -2.5299  0.2884
 1845SOL     OW15503   4.028   2.963   2.409 -0.3927 -0.1342 -0.6360
 1845SOL    HW115504   3.942   2.922   2.440 -0.1019  0.4919  1.0364
 1845SOL    HW215505   4.085   2.985   2.488  1.0350  0.0653 -1.7006
 1846SOL     OW15506   0.376   5.215   2.086 -0.2847  0.2188  0.0995
 1846SOL    HW115507   0.442   5.178   2.151  0.0256  2.4216  1.0814
 1846SOL    HW215508   0.284   5.189   2.114  0.0112 -0.9891 -0.0278
 1847SOL     OW15509   2.370   2.195   1.228 -0.1223  0.3585 -0.7004
 1847SOL    HW115510   2.442   2.140   1.271 -0.1709 -0.9838 -2.2666
 1847SOL    HW215511   2.319   2.245   1.298  2.2915  1.2900  0.4402
 1848SOL     OW15512   1.194   3.775   2.590 -0.5586 -0.0326 -0.0741
 1848SOL    HW115513   1.258   3.700   2.571 -0.1536 -0.2812  2.0947
 1848SOL    HW215514   1.101   3.744   2.576 -0.3033 -0.4160 -0.9013
 1849SOL     OW15515   3.643   1.832   2.371  0.0100  0.5468  0.2410
 1849SOL    HW115516   3.632   1.900   2.444  0.0497  0.2945  0.4863
 1849SOL    HW215517   3.679   1.747   2.411 -1.6134 -0.1802  0.2282
 1850SOL     OW15518   1.204   3.836   2.145  0.0145 -0.0028 -0.4028
 1850SOL    HW115519   1.299   3.868   2.151  0.6454 -1.8239 -0.5666
 1850SOL    HW215520   1.191   3.757   2.204 -1.5071  0.4280 -0.1330
 1851SOL     OW15521   1.274   2.728   0.011  0.0325  0.5669 -0.4242
 1851SOL    HW115522   1.370   2.742  -0.012  0.0006  0.6345 -0.5150
 1851SOL    HW215523   1.221   2.718  -0.074  0.3346 -1.9137 -0.3725
 1852SOL     OW15524   2.211   5.678   1.413 -0.0321  0.2951  0.6200
 1852SOL    HW115525   2.275   5.740   1.458 -0.2633 -0.2312  1.6818
 1852SOL    HW215526   2.119   5.694   1.447 -0.1985 -0.1575  0.3904
 1853SOL     OW15527   2.538   3.653   0.250  0.1415  0.2977  0.0857
 1853SOL    HW115528   2.554   3.558   0.224 -0.7498 -0.0197  0.7058
 1853SOL    HW215529   2.476   3.695   0.183  1.0382  0.6376 -0.5503
 1854SOL     OW15530   1.909   3.615   2.012  0.4123  0.3799  0.2174
 1854SOL    HW115531   1.866   3.660   2.090 -0.1040  2.1166 -1.0350
 1854SOL    HW215532   1.979   3.552   2.045  2.2341  3.2321  2.0064
 1855SOL     OW15533   2.982   4.092   0.954  0.0709  0.4447  0.2408
 1855SOL    HW115534   2.900   4.075   1.010  0.5474  0.4626  0.9467
 1855SOL    HW215535   2.955   4.104   0.858 -0.5367 -1.6795  0.1339
 1856SOL     OW15536   2.715   3.987   0.740  0.0206  0.1042  0.1957
 1856SOL    HW115537   2.806   4.011   0.708 -0.3760  0.5776 -0.5956
 1856SOL    HW215538   2.678   4.063   0.794 -0.8446  0.9163 -1.4888
 1857SOL     OW15539   9.348   4.821   2.250 -0.4516  0.0574 -0.4163
 1857SOL    HW115540   9.404   4.775   2.181 -0.1477 -1.8109  1.0539
 1857SOL    HW215541   9.378   4.794   2.341 -2.1540  0.9566  0.4334
 1858SOL     OW15542   3.379   3.898   1.166  0.3514 -0.5809  0.0422
 1858SOL    HW115543   3.425   3.986   1.174  0.6728 -0.7751  0.3127
 1858SOL    HW215544   3.424   3.843   1.096 -0.0372 -0.4130 -0.3417
 1859SOL     OW15545   0.738   4.665   2.192 -0.2551 -0.5450  0.3604
 1859SOL    HW115546   0.722   4.698   2.285  0.1910 -1.6933  0.8510
 1859SOL    HW215547   0.653   4.630   2.154 -0.5284  0.2975  0.1751
 1860SOL     OW15548   3.397   9.026   2.413 -0.3002  0.3961 -0.0358
 1860SOL    HW115549   3.381   8.957   2.484 -0.6028  0.3291 -0.1687
 1860SOL    HW215550   3.493   9.055   2.416 -0.3756  0.6016  0.5900
 1861SOL     OW15551   1.522   7.661   0.505  0.0076 -0.0963  0.1964
 1861SOL    HW115552   1.574   7.680   0.422  0.6500 -1.0369  0.3687
 1861SOL    HW215553   1.585   7.640   0.580 -0.5676  0.5618  0.8835
 1862SOL     OW15554   1.484   2.563   0.377  0.1149  0.0750  0.4532
 1862SOL    HW115555   1.548   2.496   0.339 -0.1689 -0.9431  1.7347
 1862SOL    HW215556   1.404   2.570   0.317  0.7577  0.2842 -0.3958
 1863SOL     OW15557   0.405   7.000   0.647  0.3487  0.0341 -0.0701
 1863SOL    HW115558   0.430   6.971   0.555  0.6203  1.7278 -0.5527
 1863SOL    HW215559   0.406   7.100   0.651 -2.1127  0.0479  1.0692
 1864SOL     OW15560   3.726   9.128   2.167  0.2927  0.5823  0.2586
 1864SOL    HW115561   3.707   9.135   2.265 -1.2875 -1.0712  0.0837
 1864SOL    HW215562   3.687   9.207   2.119  1.5745  1.6952  1.0063
 1865SOL     OW15563   3.213   3.258   2.145  0.0026 -0.8872  0.2703
 1865SOL    HW115564   3.309   3.283   2.133  0.4728 -2.1965  1.1719
 1865SOL    HW215565   3.156   3.317   2.089  1.2104  0.9322  0.9317
 1866SOL     OW15566   2.379   5.887   1.505 -0.6993 -0.5784  0.3239
 1866SOL    HW115567   2.367   5.985   1.519 -1.8392 -0.8105  1.0423
 1866SOL    HW215568   2.446   5.871   1.432 -1.2070  0.7308 -0.4269
 1867SOL     OW15569   1.858   3.198   0.156  0.5695  0.4571  0.6085
 1867SOL    HW115570   1.794   3.146   0.212 -0.5756 -0.5442 -1.5678
 1867SOL    HW215571   1.941   3.144   0.141  0.4990  0.3587  0.5759
 1868SOL     OW15572   2.057   0.720   2.180 -0.1530 -0.4889  0.1777
 1868SOL    HW115573   2.095   0.649   2.239  0.8209 -0.2175 -0.1234
 1868SOL    HW215574   1.957   0.713   2.180 -0.2533  0.3597  2.9407
 1869SOL     OW15575   1.657   9.063   1.238 -0.6508 -0.4565 -0.5242
 1869SOL    HW115576   1.640   8.991   1.171 -2.1922 -0.0143 -0.6073
 1869SOL    HW215577   1.624   9.151   1.203 -0.6659 -0.0694  0.4431
 1870SOL     OW15578   9.622   5.779   0.893 -0.6274 -0.7547  0.3646
 1870SOL    HW115579   9.526   5.757   0.909 -0.2843 -1.7404  1.1355
 1870SOL    HW215580   9.647   5.860   0.946 -0.6710 -1.3508  1.3239
 1871SOL     OW15581   2.880   8.713   0.361 -0.1567 -0.1332 -0.4522
 1871SOL    HW115582   2.973   8.720   0.325 -0.7470 -1.3609 -2.3423
 1871SOL    HW215583   2.869   8.625   0.407 -0.3043  0.1229  0.0035
 1872SOL     OW15584   1.817   0.192   2.295 -0.2263  0.0136 -0.1770
 1872SOL    HW115585   1.914   0.219   2.295 -0.0714 -0.4989  0.9713
 1872SOL    HW215586   1.779   0.204   2.203  0.6185  1.3269 -0.3782
 1873SOL     OW15587   2.120   4.046   1.464 -0.6084 -0.1526 -0.0870
 1873SOL    HW115588   2.063   4.018   1.387  1.1416 -1.6902 -0.8233
 1873SOL    HW215589   2.072   4.118   1.515 -2.2803  0.0787 -1.9138
 1874SOL     OW15590   3.784   1.485   1.186  0.1728  0.1540 -0.3835
 1874SOL    HW115591   3.705   1.541   1.160 -2.4707 -2.4380  1.7274
 1874SOL    HW215592   3.841   1.536   1.250 -2.0832  0.5856  1.3578
 1875SOL     OW15593   2.178   8.351   1.990  0.7601 -0.1308  0.3209
 1875SOL    HW115594   2.095   8.319   1.945  0.9253  0.4406 -0.4147
 1875SOL    HW215595   2.208   8.284   2.057 -0.1318 -0.4716  0.3789
 1876SOL     OW15596   1.831   9.700   1.864  0.2192  0.2605  0.0744
 1876SOL    HW115597   1.775   9.699   1.946 -0.7466 -0.4249 -0.5766
 1876SOL    HW215598   1.928   9.700   1.889 -0.0659 -0.7475  1.1996
 1877SOL     OW15599   1.779   5.504   0.663 -0.0652 -0.5811 -0.4729
 1877SOL    HW115600   1.866   5.466   0.631  0.2872 -0.9883  0.9179
 1877SOL    HW215601   1.710   5.497   0.591  0.3266 -2.7037 -0.6610
 1878SOL     OW15602   3.240   4.137   0.741 -0.5336 -0.3131  0.7839
 1878SOL    HW115603   3.314   4.070   0.747  0.5003  0.8484  1.4784
 1878SOL    HW215604   3.261   4.203   0.669 -1.3420 -0.5009  0.3719
 1879SOL     OW15605   4.444   4.153   1.993 -0.1182 -0.6072  0.2362
 1879SOL    HW115606   4.495   4.181   1.911 -0.9611 -1.5023 -0.6140
 1879SOL    HW215607   4.424   4.233   2.049  1.6796 -0.1585  0.2774
 1880SOL     OW15608   2.468   6.987   0.161  0.0052  0.6169 -0.3051
 1880SOL    HW115609   2.553   6.941   0.185 -0.9400  0.1035  2.2914
 1880SOL    HW215610   2.487   7.082   0.138  1.4210  0.1904 -0.9538
 1881SOL     OW15611   0.997   6.290   1.394 -0.3800 -0.4339 -0.2941
 1881SOL    HW115612   0.923   6.331   1.342 -0.2327  0.0233 -0.1476
 1881SOL    HW215613   1.085   6.315   1.353 -0.1359  1.8471  1.4706
 1882SOL     OW15614   4.539   2.319   0.867  0.0137 -0.4068  0.2385
 1882SOL    HW115615   4.565   2.413   0.848 -1.4419  0.8780  4.0825
 1882SOL    HW215616   4.462   2.293   0.808 -0.7597  1.4310  0.4159
 1883SOL     OW15617   9.865   3.929   0.114 -0.5865  0.1132  0.1014
 1883SOL    HW115618   9.868   3.969   0.206 -0.0918 -0.3102  0.2712
 1883SOL    HW215619   9.941   3.964   0.060  0.5939 -1.5471  0.6513
 1884SOL     OW15620   1.054   7.988   1.834  0.1291 -0.4549 -0.4027
 1884SOL    HW115621   0.967   7.941   1.847  0.8845 -2.1745 -1.4271
 1884SOL    HW215622   1.095   8.007   1.923 -0.1650 -1.7982  0.0260
 1885SOL     OW15623   1.039   5.114   1.335 -0.2670 -0.0380 -0.4534
 1885SOL    HW115624   0.991   5.139   1.251 -1.7029 -1.2168 -0.0159
 1885SOL    HW215625   1.003   5.168   1.411  1.0286  1.0261 -0.5956
 1886SOL     OW15626   3.291   1.020   0.433  0.0684  0.0975 -0.0564
 1886SOL    HW115627   3.372   0.965   0.453  0.4819  0.2202 -1.3355
 1886SOL    HW215628   3.311   1.117   0.452 -0.6416 -0.1529  2.1409
 1887SOL     OW15629   2.774   0.091   0.561 -1.2566  0.0064  0.0511
 1887SOL    HW115630   2.679   0.087   0.529 -2.0590 -0.9664  2.4707
 1887SOL    HW215631   2.814  -0.000   0.557 -0.3161  0.4447 -1.1383
 1888SOL     OW15632   1.563   3.257   0.343 -0.3675 -0.1256 -0.3147
 1888SOL    HW115633   1.470   3.272   0.310 -0.8973 -2.1803  0.1988
 1888SOL    HW215634   1.602   3.177   0.299  1.5876  1.3600 -1.3473
 1889SOL     OW15635   2.059   7.198   1.345 -0.5735  0.0885 -0.3120
 1889SOL    HW115636   2.012   7.252   1.274  0.7932  1.1713 -0.4024
 1889SOL    HW215637   2.012   7.110   1.355 -3.4383  1.6260  0.5023
 1890SOL     OW15638   2.711   4.741   0.510 -0.5703  0.1531 -0.3623
 1890SOL    HW115639   2.640   4.746   0.580 -1.8204 -0.6146 -1.5478
 1890SOL    HW215640   2.751   4.649   0.510 -0.9886 -0.0373 -1.0317
 1891SOL     OW15641   3.121   4.833   0.999 -0.1378  0.5107  0.0437
 1891SOL    HW115642   3.081   4.919   0.966  0.7318  0.6476 -0.6788
 1891SOL    HW215643   3.199   4.854   1.058  0.2768  0.2212 -0.3954
 1892SOL     OW15644   2.832   9.358   1.551 -0.1515 -0.4449  0.5544
 1892SOL    HW115645   2.873   9.443   1.583  0.6657 -0.5819 -0.1104
 1892SOL    HW215646   2.758   9.379   1.486  1.2723 -0.2604 -1.0510
 1893SOL     OW15647   3.519   4.068   2.513 -0.2905 -0.1259  0.1775
 1893SOL    HW115648   3.516   3.985   2.457  2.0829  0.3236 -0.6299
 1893SOL    HW215649   3.466   4.140   2.469 -1.5739 -0.8932  0.4158
 1894SOL     OW15650   3.784   2.673   2.175  0.3552 -0.3165 -0.7035
 1894SOL    HW115651   3.770   2.627   2.087 -0.5474  3.0460 -2.4084
 1894SOL    HW215652   3.881   2.694   2.186  0.2456  0.7918 -1.7390
 1895SOL     OW15653   1.694   3.297   1.042 -0.3321 -0.3869  0.7801
 1895SOL    HW115654   1.768   3.263   0.985 -0.9858 -0.8997  0.2301
 1895SOL    HW215655   1.607   3.260   1.010 -0.9342  0.9225  0.8750
 1896SOL     OW15656   1.388   5.864   1.393 -0.1186 -0.0468 -0.0251
 1896SOL    HW115657   1.334   5.936   1.348  0.5680  0.2622 -0.3649
 1896SOL    HW215658   1.400   5.788   1.330  1.5091  0.7142 -0.6627
 1897SOL     OW15659   3.070   3.173   2.467 -0.1759 -0.0203  0.2772
 1897SOL    HW115660   3.118   3.259   2.482  1.8558 -0.7853 -1.6291
 1897SOL    HW215661   3.088   3.111   2.542  1.1566 -0.0073 -0.0286
 1898SOL     OW15662   2.771   0.666   1.366 -0.1010 -0.1564  0.3511
 1898SOL    HW115663   2.839   0.601   1.332 -0.3473  0.4884 -1.4451
 1898SOL    HW215664   2.686   0.655   1.314 -0.1145  1.6376 -0.0248
 1899SOL     OW15665   1.719   6.288   2.329  0.2146  0.3831  0.9743
 1899SOL    HW115666   1.744   6.229   2.406  0.0297  1.1351  1.6190
 1899SOL    HW215667   1.646   6.350   2.357  1.4493  1.9551  0.7651
 1900SOL     OW15668   1.776   3.777   0.929 -0.0581 -0.1347  0.1263
 1900SOL    HW115669   1.705   3.765   0.860 -0.0586  0.6358 -0.0096
 1900SOL    HW215670   1.843   3.845   0.897 -0.0255  0.1815  0.8522
 1901SOL     OW15671   3.670   9.411   2.538 -0.1879 -0.3791 -0.3287
 1901SOL    HW115672   3.616   9.487   2.574 -0.3179 -0.7997  0.3556
 1901SOL    HW215673   3.728   9.374   2.610  0.7545 -0.1632 -0.9707
 1902SOL     OW15674   3.630   0.760   0.139  0.1895 -0.3248 -0.1799
 1902SOL    HW115675   3.607   0.674   0.186 -2.2681  0.4571  0.0828
 1902SOL    HW215676   3.589   0.760   0.048  0.8695  0.2681 -0.4949
 1903SOL     OW15677   1.054   8.790   2.254  0.2632 -0.0269 -0.1209
 1903SOL    HW115678   1.017   8.871   2.300 -0.1733  0.2377 -0.9255
 1903SOL    HW215679   1.154   8.794   2.255  0.2875 -0.8894  2.3262
 1904SOL     OW15680   1.876   9.222   0.049 -0.4601  0.3246  0.1080
 1904SOL    HW115681   1.923   9.294   0.099  0.9715 -1.6225  1.6874
 1904SOL    HW215682   1.777   9.234   0.059 -0.2195  1.0924  1.8172
 1905SOL     OW15683   1.581   7.256   0.208  0.0256 -0.2424 -0.7457
 1905SOL    HW115684   1.536   7.220   0.126  1.3653 -1.5894 -0.9069
 1905SOL    HW215685   1.664   7.203   0.227 -1.6543 -1.7434  3.0299
 1906SOL     OW15686   9.436   3.507   1.769  0.3676  0.2418 -0.0749
 1906SOL    HW115687   9.373   3.581   1.795 -1.3758 -1.6904  1.3217
 1906SOL    HW215688   9.471   3.462   1.851  1.1607 -0.7047 -0.9149
 1907SOL     OW15689   3.230   2.754   0.896 -1.0371 -0.6551 -0.2029
 1907SOL    HW115690   3.206   2.658   0.912 -1.4043 -0.6936 -1.0010
 1907SOL    HW215691   3.186   2.787   0.813 -1.4896  0.4254  0.4456
 1908SOL     OW15692   3.396   4.861   1.800  0.1642  0.2490 -0.6139
 1908SOL    HW115693   3.408   4.867   1.899  0.5951  1.5567 -0.7371
 1908SOL    HW215694   3.474   4.813   1.760 -1.0130 -2.1569 -0.1179
 1909SOL     OW15695   2.771   8.230   1.600  0.0234  0.5333 -0.3011
 1909SOL    HW115696   2.819   8.162   1.656  0.5874 -0.1105 -1.5537
 1909SOL    HW215697   2.768   8.317   1.649  2.1885  0.4951 -0.0708
 1910SOL     OW15698   1.290   6.281   0.273  0.2075  0.8364  0.3760
 1910SOL    HW115699   1.215   6.229   0.232  1.0462  0.3697 -0.5981
 1910SOL    HW215700   1.267   6.378   0.273  1.2377  1.1675 -3.6360
 1911SOL     OW15701   2.174   3.402   1.680 -0.3824 -0.5368 -0.2329
 1911SOL    HW115702   2.173   3.477   1.614  1.5480 -0.4049 -0.1387
 1911SOL    HW215703   2.090   3.348   1.671 -1.9376  1.8056 -0.0931
 1912SOL     OW15704   2.709   8.976   2.090  0.6198  0.1402  0.0249
 1912SOL    HW115705   2.702   8.901   2.157 -0.5081 -0.0496 -0.2886
 1912SOL    HW215706   2.805   8.993   2.069  0.9439 -0.4142  1.0090
 1913SOL     OW15707   0.352   5.086   0.125  0.4357  0.0467 -0.1075
 1913SOL    HW115708   0.265   5.120   0.089 -1.0157 -2.2488  1.1543
 1913SOL    HW215709   0.391   5.019   0.062 -0.1797 -1.0972  0.7145
 1914SOL     OW15710   2.551   6.182   0.517 -0.0853  0.1834 -0.0505
 1914SOL    HW115711   2.507   6.123   0.584 -0.1885  0.8650  0.4879
 1914SOL    HW215712   2.579   6.128   0.438 -0.1527 -0.5837  0.4501
 1915SOL     OW15713   1.404   9.545   1.207  0.2356  0.0617  0.0405
 1915SOL    HW115714   1.361   9.457   1.224 -0.7938  0.1096 -2.1764
 1915SOL    HW215715   1.448   9.578   1.291  0.3208 -2.3731  0.9739
 1916SOL     OW15716   3.586   2.427   1.072 -0.7824  0.0126  0.3366
 1916SOL    HW115717   3.562   2.413   0.975 -1.0613 -0.3332  0.4532
 1916SOL    HW215718   3.645   2.353   1.103  1.2924  1.3729 -0.2166
 1917SOL     OW15719   2.906   4.677   0.898  0.0025  0.8235  0.5993
 1917SOL    HW115720   2.988   4.693   0.953 -1.4868  2.2531  2.4430
 1917SOL    HW215721   2.890   4.757   0.840  0.1954  0.3178 -0.1633
 1918SOL     OW15722   2.470   5.988   0.696 -0.2958  0.2422  0.1199
 1918SOL    HW115723   2.392   6.015   0.754 -0.4512  1.8359 -0.8161
 1918SOL    HW215724   2.541   5.948   0.753 -0.0237  2.7156  1.5909
 1919SOL     OW15725   4.863   3.881   2.185  0.9208  0.0712  0.2332
 1919SOL    HW115726   4.881   3.850   2.279 -0.8025 -1.2264  0.1604
 1919SOL    HW215727   4.770   3.915   2.178  0.2291 -2.0563 -1.5340
 1920SOL     OW15728   4.684   4.814   0.379 -0.0143  0.1504  0.0169
 1920SOL    HW115729   4.612   4.860   0.430 -1.5624 -0.8511 -1.2316
 1920SOL    HW215730   4.753   4.779   0.442 -0.7970  0.8009  1.2415
 1921SOL     OW15731   3.806   4.174   0.495  0.5482 -0.1088  0.2677
 1921SOL    HW115732   3.796   4.118   0.413  0.7204  1.6937 -1.0054
 1921SOL    HW215733   3.903   4.192   0.511  0.3773  1.7171 -0.6494
 1922SOL     OW15734   2.849   2.946   0.079  0.9212  0.5121  0.8727
 1922SOL    HW115735   2.828   2.851   0.057  1.1585  0.9362 -1.3341
 1922SOL    HW215736   2.944   2.954   0.110  0.5106 -0.1364  2.3419
 1923SOL     OW15737   9.929   4.101   0.348  0.4406 -0.0589 -0.1573
 1923SOL    HW115738   9.857   4.109   0.417  0.9188 -0.0528  0.3427
 1923SOL    HW215739   9.973   4.190   0.335 -0.0116  0.0691 -0.8753
 1924SOL     OW15740   3.485   0.395   0.684  0.7574  0.0977 -0.2847
 1924SOL    HW115741   3.433   0.479   0.700  0.7923  0.1598 -0.4938
 1924SOL    HW215742   3.502   0.349   0.771 -1.2529 -0.8924 -0.4035
 1925SOL     OW15743   3.221   5.684   0.531  0.4930  0.0273  0.0367
 1925SOL    HW115744   3.130   5.657   0.500 -0.8356  2.0554  1.9545
 1925SOL    HW215745   3.226   5.675   0.631  0.9649  3.7794  0.4217
 1926SOL     OW15746   1.629   7.574   1.608  0.6118  0.4460 -0.0885
 1926SOL    HW115747   1.674   7.570   1.697 -0.7465  0.3589  0.6189
 1926SOL    HW215748   1.564   7.650   1.607  1.3453  1.0730 -1.3691
 1927SOL     OW15749   0.115   6.421   0.673 -0.4660  0.0530 -0.0289
 1927SOL    HW115750   0.037   6.366   0.701 -2.0056  1.6724 -1.0495
 1927SOL    HW215751   0.133   6.492   0.741  1.1258 -1.2791  0.9786
 1928SOL     OW15752   2.060   4.248   2.309 -0.0514 -0.2626  0.4934
 1928SOL    HW115753   2.057   4.205   2.219 -0.1719 -4.0612  2.2506
 1928SOL    HW215754   1.969   4.247   2.350 -0.0280  1.5924  0.6420
 1929SOL     OW15755   4.511   2.158   1.099 -0.0021  0.5028  0.1878
 1929SOL    HW115756   4.512   2.220   1.020 -0.1173  0.6258  0.2835
 1929SOL    HW215757   4.570   2.080   1.080 -0.9206 -0.0376 -0.4725
 1930SOL     OW15758   2.382   9.701   0.476  0.0385  0.3169 -0.1270
 1930SOL    HW115759   2.439   9.686   0.395 -1.1066  3.3357 -1.5573
 1930SOL    HW215760   2.423   9.773   0.532  0.0298 -0.7185  1.2433
 1931SOL     OW15761   1.124   7.037   2.063 -0.7634 -0.0483 -0.3032
 1931SOL    HW115762   1.098   7.120   2.113 -1.9903  0.9567 -2.5430
 1931SOL    HW215763   1.046   6.975   2.058 -0.4487 -0.4383 -0.3842
 1932SOL     OW15764   1.597   7.483   0.872 -0.2647  0.1030  0.2966
 1932SOL    HW115765   1.578   7.398   0.922  1.6474 -0.1572  0.6419
 1932SOL    HW215766   1.526   7.550   0.892 -0.9892 -0.9190  1.2272
 1933SOL     OW15767   1.233   1.504   2.523 -0.2180 -0.1738  0.4257
 1933SOL    HW115768   1.273   1.541   2.607 -0.7629 -0.7121  0.9251
 1933SOL    HW215769   1.194   1.578   2.469  1.3911  0.3528 -0.0372
 1934SOL     OW15770   0.947   3.408   1.590 -0.3696 -0.1395  0.4321
 1934SOL    HW115771   0.980   3.357   1.511  0.7139 -0.6957  1.2274
 1934SOL    HW215772   0.987   3.500   1.590  1.5880 -0.9501  1.6195
 1935SOL     OW15773   2.523   5.226   2.235  0.8564 -0.7969 -0.6090
 1935SOL    HW115774   2.458   5.255   2.305  3.2910 -2.5937  2.5723
 1935SOL    HW215775   2.497   5.135   2.201 -0.4192  0.1473 -2.2036
 1936SOL     OW15776   0.666   4.951   1.517  0.3469 -0.6159  0.1216
 1936SOL    HW115777   0.673   5.033   1.573  0.6660 -1.5396  1.4820
 1936SOL    HW215778   0.756   4.908   1.509  0.4125 -0.1766 -1.6122
 1937SOL     OW15779   5.460   3.324   1.027  0.0837  0.6342  0.2463
 1937SOL    HW115780   5.380   3.366   1.068  0.2721  2.0906 -0.8343
 1937SOL    HW215781   5.539   3.385   1.036  1.1199 -0.8203  1.3998
 1938SOL     OW15782   9.851   3.682   1.620 -0.2167 -0.2180 -0.0366
 1938SOL    HW115783   9.866   3.657   1.716 -1.1146  0.4148  0.2674
 1938SOL    HW215784   9.757   3.712   1.607 -0.1493 -0.4683 -1.1595
 1939SOL     OW15785   1.079   6.114   1.114 -0.2631  0.3676 -0.0857
 1939SOL    HW115786   1.175   6.136   1.101  0.0831  0.8310  2.9662
 1939SOL    HW215787   1.065   6.016   1.097  1.0338 -0.0063  0.9753
 1940SOL     OW15788   1.308   3.327   2.367  0.1908  0.9087  0.2503
 1940SOL    HW115789   1.259   3.331   2.280 -0.6511  2.8023  0.7806
 1940SOL    HW215790   1.370   3.249   2.367 -0.7820  0.1088 -1.5231
 1941SOL     OW15791   1.470   8.193   2.277  0.5236 -0.1483 -0.2230
 1941SOL    HW115792   1.423   8.255   2.214  0.9140  2.3808  1.8492
 1941SOL    HW215793   1.411   8.116   2.299 -0.0896 -0.4202 -2.6655
 1942SOL     OW15794   1.834   0.345   0.633  0.4507  0.1708 -0.5669
 1942SOL    HW115795   1.925   0.361   0.595  0.6275 -0.0874 -0.2585
 1942SOL    HW215796   1.816   0.246   0.633  0.7890  0.1000  0.7786
 1943SOL     OW15797   2.698   0.357   0.895  0.3595  0.2146  0.3611
 1943SOL    HW115798   2.745   0.290   0.837  1.5710  0.1135  1.4143
 1943SOL    HW215799   2.763   0.429   0.921 -0.1985  0.3400  1.4482
 1944SOL     OW15800   0.330   6.112   2.572  0.2988  0.1977 -0.5585
 1944SOL    HW115801   0.236   6.099   2.605  0.0338  1.1665 -0.9242
 1944SOL    HW215802   0.376   6.180   2.628  0.5302  0.3001 -0.8711
 1945SOL     OW15803   3.874   1.239   1.146  0.6539  0.3341 -0.4273
 1945SOL    HW115804   3.846   1.334   1.163  0.2205  0.0354  0.5623
 1945SOL    HW215805   3.798   1.188   1.106  0.9665  0.4599 -1.1990
 1946SOL     OW15806   3.040   6.195   1.765  0.3017  0.0499 -0.1787
 1946SOL    HW115807   2.971   6.160   1.828 -0.1963  2.0747  0.4649
 1946SOL    HW215808   3.123   6.140   1.770  0.3641  0.3311  2.4589
 1947SOL     OW15809   1.089   8.538   2.427 -0.1158  0.6470 -0.2314
 1947SOL    HW115810   1.019   8.607   2.444  1.5992  2.5230 -0.5518
 1947SOL    HW215811   1.180   8.579   2.441  0.9252 -1.6017 -0.2574
 1948SOL     OW15812   3.488   3.057   0.876 -0.4565  0.3964 -0.1510
 1948SOL    HW115813   3.459   3.035   0.783 -1.6528  0.3232  0.2276
 1948SOL    HW215814   3.543   2.982   0.913 -1.0462 -0.1298 -0.3406
 1949SOL     OW15815   1.702   6.893   0.969  0.1471 -0.6879 -0.8970
 1949SOL    HW115816   1.796   6.862   0.981 -0.0990 -0.7658  0.8880
 1949SOL    HW215817   1.641   6.815   0.967  0.0137 -0.5791 -1.1121
 1950SOL     OW15818   3.465   3.620   0.369  0.3179  0.9184 -0.2754
 1950SOL    HW115819   3.491   3.700   0.316  1.2914  1.1332  0.5151
 1950SOL    HW215820   3.484   3.636   0.466  3.1220 -1.2802 -0.4044
 1951SOL     OW15821   2.846   4.857   0.208 -0.7998  0.0211  0.5164
 1951SOL    HW115822   2.825   4.769   0.250  0.4661 -0.1876  0.7355
 1951SOL    HW215823   2.861   4.844   0.110  1.1482 -0.3124  0.8439
 1952SOL     OW15824   2.301   5.000   1.766 -0.2762 -0.5476 -1.0239
 1952SOL    HW115825   2.395   4.970   1.751 -0.3224 -0.8524 -0.7291
 1952SOL    HW215826   2.263   5.037   1.681  0.7250  1.3044 -0.6643
 1953SOL     OW15827   2.207   3.347   2.412 -0.1406  0.3766 -0.0108
 1953SOL    HW115828   2.296   3.347   2.367  1.0698 -1.7320  2.2388
 1953SOL    HW215829   2.149   3.276   2.372  0.0294  0.1913  0.0697
 1954SOL     OW15830   9.866   5.615   0.937  0.9853  0.3592  0.2872
 1954SOL    HW115831   9.772   5.645   0.921  1.0163 -0.5059 -1.7381
 1954SOL    HW215832   9.877   5.587   1.032 -0.7132  0.7961  0.6274
 1955SOL     OW15833   3.937   2.073   2.552 -0.4149 -0.1280 -0.1312
 1955SOL    HW115834   3.909   2.169   2.557  3.5902  1.2205 -2.0949
 1955SOL    HW215835   3.934   2.033   2.644 -1.2163  2.1156  0.8565
 1956SOL     OW15836   3.044   1.426   1.374  0.4288  0.3075  0.3279
 1956SOL    HW115837   2.947   1.412   1.396  0.7264  0.3717  1.7285
 1956SOL    HW215838   3.061   1.395   1.281 -0.9084  0.1339  0.1218
 1957SOL     OW15839   2.442   9.734   2.308 -0.6346 -0.1754  0.1267
 1957SOL    HW115840   2.439   9.833   2.318  2.3356 -0.1223  1.1025
 1957SOL    HW215841   2.437   9.691   2.398  0.7827 -0.7714 -0.0605
 1958SOL     OW15842   1.757   3.574   1.135 -0.1057  0.4984 -0.1946
 1958SOL    HW115843   1.753   3.476   1.116  1.2026  0.2988  0.5183
 1958SOL    HW215844   1.772   3.624   1.050  0.3807 -0.0117 -0.4113
 1959SOL     OW15845   9.465   6.037   0.726  0.0472 -0.2829 -0.2897
 1959SOL    HW115846   9.368   6.017   0.710  0.1000 -1.2396  0.5341
 1959SOL    HW215847   9.520   5.979   0.666  0.1104  0.8170 -1.3268
 1960SOL     OW15848   0.698   7.519   1.612 -0.2554  0.4572 -0.5380
 1960SOL    HW115849   0.647   7.578   1.675 -0.4333 -0.9405  0.6468
 1960SOL    HW215850   0.789   7.558   1.597 -0.7989  1.6788 -0.7535
 1961SOL     OW15851   1.373   6.885   1.967 -0.2307 -0.5555 -0.2782
 1961SOL    HW115852   1.352   6.796   1.927  0.6214 -0.5185 -0.8072
 1961SOL    HW215853   1.291   6.942   1.967 -0.6652 -1.1796 -0.3447
 1962SOL     OW15854   1.759   0.999   2.237  0.1483 -0.0766  0.3564
 1962SOL    HW115855   1.714   0.952   2.313 -0.8356  0.4196  0.0819
 1962SOL    HW215856   1.748   1.097   2.248 -0.4483 -0.0188 -0.7084
 1963SOL     OW15857   3.502   2.409   0.807  0.0123 -0.1980 -0.0595
 1963SOL    HW115858   3.535   2.441   0.719 -1.0957 -1.4733 -0.9641
 1963SOL    HW215859   3.409   2.443   0.822 -0.4405 -1.3742 -0.1618
 1964SOL     OW15860   3.494   9.176   1.152  0.0857  0.5578 -0.4430
 1964SOL    HW115861   3.469   9.080   1.148  0.5849  0.3526  1.0116
 1964SOL    HW215862   3.492   9.215   1.060  0.9770 -1.1119 -1.1780
 1965SOL     OW15863   1.634   5.880   0.150 -0.0985 -0.0311  0.1424
 1965SOL    HW115864   1.719   5.881   0.204  0.3657  1.5755 -0.5868
 1965SOL    HW215865   1.571   5.948   0.187  0.1321  0.9224 -1.1777
 1966SOL     OW15866   4.068   4.397   1.451 -0.0466 -0.0489  0.1233
 1966SOL    HW115867   4.059   4.329   1.523 -1.2413 -1.1177 -1.0044
 1966SOL    HW215868   3.984   4.400   1.397  0.3689  1.6121 -0.4706
 1967SOL     OW15869   1.142   5.415   0.896 -0.5376  0.8779  0.1016
 1967SOL    HW115870   1.106   5.336   0.847 -1.7844 -0.1935  2.6295
 1967SOL    HW215871   1.241   5.418   0.889 -0.3421 -1.8697  1.3399
 1968SOL     OW15872   4.594   2.434   0.303 -0.0367  0.1399  0.3050
 1968SOL    HW115873   4.613   2.375   0.381  0.0018  1.5909  1.4057
 1968SOL    HW215874   4.500   2.468   0.309  0.3484  1.2294  0.3946
 1969SOL     OW15875   2.798   9.767   1.865  0.1261 -0.3602  0.0587
 1969SOL    HW115876   2.895   9.747   1.881 -0.0661 -0.2842  1.3836
 1969SOL    HW215877   2.750   9.770   1.952 -0.7342  1.3591 -0.4511
 1970SOL     OW15878   1.379   8.015   1.992  0.3730  0.1494 -0.1602
 1970SOL    HW115879   1.295   8.036   2.041  0.0565 -0.7792 -0.2907
 1970SOL    HW215880   1.427   8.100   1.970 -1.5813  0.8252 -1.9578
 1971SOL     OW15881   2.633   6.043   2.269  0.0417  0.3617  0.4290
 1971SOL    HW115882   2.588   5.954   2.269 -0.3467  0.5480 -1.2358
 1971SOL    HW215883   2.568   6.114   2.297  0.0356  0.2873  0.6059
 1972SOL     OW15884   3.945   4.991   0.079  0.2673 -0.1131  0.5595
 1972SOL    HW115885   4.033   5.019   0.041 -0.7332  0.3410 -1.4658
 1972SOL    HW215886   3.953   4.900   0.119  1.6022 -0.1456  0.2434
 1973SOL     OW15887   3.700   8.937   1.948 -0.2510 -0.2037  0.2499
 1973SOL    HW115888   3.792   8.910   1.921 -0.3294 -2.4181  2.0433
 1973SOL    HW215889   3.704   8.991   2.032 -0.5651  0.0447  0.1070
 1974SOL     OW15890   1.227   8.594   1.587 -0.2009 -0.0698 -0.5467
 1974SOL    HW115891   1.285   8.513   1.599  1.6750  1.2242 -0.6408
 1974SOL    HW215892   1.234   8.651   1.668 -1.4104  0.0817 -0.5430
 1975SOL     OW15893   1.170   6.214   2.123  0.3137 -0.4763  0.8787
 1975SOL    HW115894   1.159   6.118   2.147 -0.9442 -0.6288 -0.2134
 1975SOL    HW215895   1.080   6.254   2.106  0.8858  0.6766  0.5134
 1976SOL     OW15896   4.756   2.524   2.551 -0.0952 -0.0450 -0.4470
 1976SOL    HW115897   4.755   2.444   2.611 -1.3311  0.7398  0.6033
 1976SOL    HW215898   4.785   2.496   2.459  2.7153 -1.0980  0.6881
 1977SOL     OW15899   2.208   9.461   0.422  0.4626 -0.1451 -0.3279
 1977SOL    HW115900   2.243   9.555   0.426  0.0419 -0.0947  3.2785
 1977SOL    HW215901   2.267   9.401   0.476 -1.0021 -1.3767 -0.0687
 1978SOL     OW15902   2.390   1.954   1.996  0.0906  1.0175  0.7511
 1978SOL    HW115903   2.409   1.906   2.081 -0.8563  1.7853  1.4015
 1978SOL    HW215904   2.462   2.021   1.978 -0.1318  1.4335  1.3828
 1979SOL     OW15905   4.133   1.247   1.357  0.0069  0.1153 -0.1253
 1979SOL    HW115906   4.206   1.312   1.337  0.0991  0.7369  2.0232
 1979SOL    HW215907   4.044   1.288   1.335  0.1935  0.0912 -0.9326
 1980SOL     OW15908   4.345   2.670   2.407 -0.2065  0.0915 -0.5400
 1980SOL    HW115909   4.317   2.671   2.503  0.6002 -0.4819 -0.2974
 1980SOL    HW215910   4.398   2.752   2.387 -1.6021  0.9428 -0.8802
 1981SOL     OW15911   3.290   4.856   1.446 -0.1050 -0.5711 -0.0478
 1981SOL    HW115912   3.220   4.921   1.415 -0.9838 -1.4236  0.1369
 1981SOL    HW215913   3.266   4.822   1.537  1.2774  0.1769  0.6180
 1982SOL     OW15914   2.118   7.705   0.835 -0.3053  0.1947  0.0609
 1982SOL    HW115915   2.120   7.666   0.743  2.4143  0.5941 -0.0832
 1982SOL    HW215916   2.061   7.647   0.894  0.1532 -1.5861 -1.2061
 1983SOL     OW15917   4.553   2.101   2.587  0.0021 -0.6328 -0.0207
 1983SOL    HW115918   4.627   2.040   2.558 -0.1139 -1.0964  0.6386
 1983SOL    HW215919   4.498   2.127   2.508  1.5719  0.6771 -0.7228
 1984SOL     OW15920   2.523   7.166   1.155  0.9555 -0.1188  0.5551
 1984SOL    HW115921   2.430   7.200   1.165  0.3446 -1.7651  0.6769
 1984SOL    HW215922   2.562   7.201   1.070  0.2585  0.6541  0.5501
 1985SOL     OW15923   2.930   3.978   1.819 -0.0076 -0.6549  0.1371
 1985SOL    HW115924   2.851   4.021   1.861 -0.1783  0.0514 -0.8941
 1985SOL    HW215925   2.976   4.044   1.759 -0.1381 -1.8270 -1.2694
 1986SOL     OW15926   9.605   5.265   0.030  0.3158 -0.5153  0.1525
 1986SOL    HW115927   9.523   5.217   0.001 -1.2516  1.5204  1.0343
 1986SOL    HW215928   9.624   5.341  -0.033 -0.0201  0.6157  1.3743
 1987SOL     OW15929   1.450   2.206   1.537 -0.1179 -0.5216 -0.7127
 1987SOL    HW115930   1.498   2.143   1.475  1.3118 -0.8258  0.6551
 1987SOL    HW215931   1.406   2.278   1.484  1.4094 -0.5529 -2.0791
 1988SOL     OW15932   4.059   4.456   0.629  0.0059 -0.6553  0.2239
 1988SOL    HW115933   4.107   4.376   0.666  0.4188 -0.5944 -0.1811
 1988SOL    HW215934   4.084   4.469   0.533 -0.3153 -0.2322  0.1946
 1989SOL     OW15935   4.459   3.740   1.636 -0.1313 -0.0935  0.2317
 1989SOL    HW115936   4.373   3.772   1.674 -0.4262 -0.9453  0.2945
 1989SOL    HW215937   4.535   3.766   1.696 -0.3898  0.2967  0.3840
 1990SOL     OW15938   9.961   5.992   2.314 -0.0480 -0.1291  0.0541
 1990SOL    HW115939   9.875   5.981   2.363  0.2416  1.6432  0.9831
 1990SOL    HW215940   9.974   6.088   2.290  1.5161 -0.4326 -0.3744
 1991SOL     OW15941   2.963   5.179   2.587 -0.3011 -0.1329 -0.7089
 1991SOL    HW115942   2.866   5.155   2.595 -0.0677 -0.8448  0.0827
 1991SOL    HW215943   2.989   5.182   2.491 -1.3166  0.9331 -0.9684
 1992SOL     OW15944   2.880   3.628   0.711  0.6277 -0.1925 -0.8990
 1992SOL    HW115945   2.793   3.673   0.732 -0.3754 -2.6589  0.3429
 1992SOL    HW215946   2.950   3.662   0.773 -0.2373 -0.6771  0.3667
 1993SOL     OW15947   3.097   9.124   1.749  0.6861  0.1020  0.0261
 1993SOL    HW115948   3.000   9.112   1.772  0.2901  2.2134 -0.4274
 1993SOL    HW215949   3.105   9.184   1.670  2.4054  1.2537  1.0381
 1994SOL     OW15950   3.548   1.198   1.962  0.1128 -0.1273 -0.4462
 1994SOL    HW115951   3.567   1.237   1.872 -0.5946  1.9796  0.2862
 1994SOL    HW215952   3.461   1.233   1.996  1.8678  1.6846  2.4264
 1995SOL     OW15953   4.298   4.969   1.407 -0.1284  0.2728  0.0149
 1995SOL    HW115954   4.235   4.918   1.348 -0.8250  0.7054  0.3917
 1995SOL    HW215955   4.392   4.942   1.385 -0.4928 -1.3442  0.3501
 1996SOL     OW15956   4.177   1.107   2.257 -0.4558 -0.2499  0.1692
 1996SOL    HW115957   4.100   1.165   2.232 -0.9147 -0.3731  1.2590
 1996SOL    HW215958   4.181   1.098   2.357  1.3048  0.2235  0.1620
 1997SOL     OW15959   3.978   2.510   0.997 -0.6892  0.2575  0.4195
 1997SOL    HW115960   4.050   2.471   1.053 -1.0824  1.6436  1.9148
 1997SOL    HW215961   3.896   2.526   1.052 -1.1057  1.5835 -0.5306
 1998SOL     OW15962   3.731   2.240   1.187  0.1315 -0.0485  0.0705
 1998SOL    HW115963   3.658   2.199   1.242  0.1355 -0.4214 -0.1997
 1998SOL    HW215964   3.798   2.283   1.248  0.9329 -1.7763  0.4500
 1999SOL     OW15965   2.872   8.389   1.810 -0.7670 -0.3157 -0.1824
 1999SOL    HW115966   2.878   8.440   1.897 -0.6171 -0.7135  0.0404
 1999SOL    HW215967   2.956   8.405   1.757 -0.7363 -0.3003 -0.1305
 2000SOL     OW15968   1.939   9.134   0.353 -0.2351  0.9208  0.4215
 2000SOL    HW115969   1.940   9.233   0.339  2.5361  0.6155 -1.8994
 2000SOL    HW215970   2.025   9.105   0.395  0.2407 -0.8325 -1.6853
 2001SOL     OW15971   2.607   5.935   0.012  0.5906 -0.6258  0.2895
 2001SOL    HW115972   2.665   5.886   0.076  0.9963  1.1896  1.3596
 2001SOL    HW215973   2.617   6.034   0.026 -1.9839 -0.2542 -0.1732
 2002SOL     OW15974   2.153   4.679   0.385 -0.1331  0.3805 -0.5141
 2002SOL    HW115975   2.104   4.592   0.395 -1.3879  1.3330  1.9590
 2002SOL    HW215976   2.242   4.672   0.431 -0.6904  0.7511  0.6254
 2003SOL     OW15977   1.135   5.774   1.176  0.1073 -0.3708 -0.0955
 2003SOL    HW115978   1.110   5.802   1.083 -0.0245 -0.5821 -0.1230
 2003SOL    HW215979   1.064   5.806   1.240 -0.5173 -1.4477 -0.2406
 2004SOL     OW15980   2.994   9.756   2.309 -0.1347  0.1914  0.2479
 2004SOL    HW115981   2.936   9.700   2.251 -0.5868  1.1660 -0.2499
 2004SOL    HW215982   3.061   9.805   2.253  0.6609 -0.3125  0.7384
 2005SOL     OW15983   9.919   5.266   0.531 -0.0832  0.6483  0.8719
 2005SOL    HW115984   9.920   5.363   0.552  0.0904  0.8405 -0.0117
 2005SOL    HW215985   9.844   5.246   0.468  0.5400  0.3959  0.2035
 2006SOL     OW15986   9.620   5.186   1.994 -0.0320  0.2629  0.0309
 2006SOL    HW115987   9.658   5.129   1.922  1.5426  0.0186  1.0309
 2006SOL    HW215988   9.687   5.255   2.022 -0.3651 -0.0702  1.7260
 2007SOL     OW15989   1.841   9.615   0.105  0.9818  0.1057  0.7874
 2007SOL    HW115990   1.833   9.705   0.148 -3.9000  0.0788  0.2402
 2007SOL    HW215991   1.854   9.626   0.007  1.3537  0.1812  0.8430
 2008SOL     OW15992   2.875   6.340   2.312 -0.3103 -0.1008  0.3156
 2008SOL    HW115993   2.965   6.369   2.280 -0.2608  0.7147  1.1986
 2008SOL    HW215994   2.874   6.241   2.323  0.1305 -0.2375 -0.7689
 2009SOL     OW15995   9.766   5.814   1.350  0.1539  0.1640  0.6763
 2009SOL    HW115996   9.828   5.834   1.426 -1.7289  2.0525  1.7742
 2009SOL    HW215997   9.681   5.777   1.386 -0.2367 -0.2399 -0.6304
 2010SOL     OW15998   1.903   2.472   0.217 -0.9439 -0.6028 -0.0160
 2010SOL    HW115999   1.877   2.519   0.133 -0.3064 -2.2883 -1.1827
 2010SOL    HW216000   1.998   2.495   0.240 -0.8202 -0.8563 -0.2678
 2011SOL     OW16001   2.623   3.814   0.467 -0.5788 -0.1942  0.1105
 2011SOL    HW116002   2.605   3.772   0.556 -1.3148  1.4968  0.7915
 2011SOL    HW216003   2.596   3.751   0.394 -0.5727 -1.3431  1.0810
 2012SOL     OW16004   1.333   9.303   1.268  0.1386 -0.1007 -0.3260
 2012SOL    HW116005   1.281   9.218   1.257 -0.0597 -0.1319  0.8057
 2012SOL    HW216006   1.425   9.292   1.231 -0.0477 -0.6560 -0.6216
 2013SOL     OW16007   4.496   4.600   0.358  0.2836  0.8280  0.0209
 2013SOL    HW116008   4.423   4.642   0.412 -0.4487 -0.3423 -0.0547
 2013SOL    HW216009   4.557   4.672   0.324 -0.8017  1.8094  0.1155
 2014SOL     OW16010   9.329   4.870   0.057  0.0173 -0.3095  0.0638
 2014SOL    HW116011   9.335   4.830   0.149  0.3085 -0.6226 -0.0926
 2014SOL    HW216012   9.368   4.806  -0.010  1.6698  0.7589 -0.0332
 2015SOL     OW16013   3.793   1.405   2.274 -0.0920 -0.0680  0.2308
 2015SOL    HW116014   3.853   1.381   2.198  0.2359  0.5965  0.2756
 2015SOL    HW216015   3.712   1.347   2.272  0.7204 -1.2265  0.3881
 2016SOL     OW16016   9.319   4.801   0.325  0.5264 -0.4309 -0.0332
 2016SOL    HW116017   9.258   4.862   0.376  0.4246 -0.0909 -0.5675
 2016SOL    HW216018   9.272   4.715   0.308 -0.1733  0.1974 -1.3210
 2017SOL     OW16019   1.296   2.458   1.984  0.0821 -0.7333  0.1962
 2017SOL    HW116020   1.258   2.523   1.918  0.2223 -0.2775  0.5540
 2017SOL    HW216021   1.311   2.370   1.940 -1.3096 -0.8909  0.0309
 2018SOL     OW16022   1.852   8.532   1.431  0.3355  0.3633  0.4188
 2018SOL    HW116023   1.890   8.592   1.501  2.1442 -2.1034  1.6532
 2018SOL    HW216024   1.914   8.454   1.418 -1.1490 -0.4173 -2.2527
 2019SOL     OW16025   1.203   1.604   2.152 -0.2855  0.1415 -0.2153
 2019SOL    HW116026   1.143   1.528   2.175  0.1641 -0.4751 -1.0882
 2019SOL    HW216027   1.298   1.572   2.147  0.1848  1.1664  1.4767
 2020SOL     OW16028   9.515   4.651   2.126  0.7724 -0.5101  0.6068
 2020SOL    HW116029   9.570   4.698   2.057 -1.1024  2.0693  0.8078
 2020SOL    HW216030   9.576   4.602   2.188  2.6613 -0.2804 -1.0047
 2021SOL     OW16031   3.090   0.422   2.069 -0.0645 -0.1888 -0.0691
 2021SOL    HW116032   3.033   0.364   2.012  0.3656 -0.3660 -0.3240
 2021SOL    HW216033   3.038   0.453   2.149 -0.2703 -0.9952  0.1136
 2022SOL     OW16034   2.188   0.992   2.163 -0.2178  0.1665  0.1320
 2022SOL    HW116035   2.146   0.904   2.141 -1.9147  0.8969  0.3894
 2022SOL    HW216036   2.123   1.065   2.145  0.9463  1.3252  0.5760
 2023SOL     OW16037   2.521   9.447   2.197 -0.2548 -0.0333 -0.3434
 2023SOL    HW116038   2.472   9.449   2.110  0.8884  1.3656 -0.9732
 2023SOL    HW216039   2.481   9.514   2.260  0.7190  0.9764 -0.7936
 2024SOL     OW16040   3.823   1.971   1.423 -0.0326  0.3635  0.0663
 2024SOL    HW116041   3.831   1.932   1.515 -0.2533  0.3874  0.0952
 2024SOL    HW216042   3.750   2.039   1.422 -0.7956 -0.4546 -0.4017
 2025SOL     OW16043   2.049   8.783   0.404 -0.3477  0.5229 -0.5555
 2025SOL    HW116044   2.042   8.780   0.304 -0.3284  2.1281 -0.6261
 2025SOL    HW216045   2.107   8.708   0.436 -0.7176 -0.2726 -1.7065
 2026SOL     OW16046   2.673   2.734   1.823 -0.2270 -0.4242 -0.5365
 2026SOL    HW116047   2.582   2.741   1.863  0.6111  0.3295  1.2990
 2026SOL    HW216048   2.741   2.726   1.896  1.3435  0.8010 -1.8197
 2027SOL     OW16049   3.769   2.625   1.906  0.3719  0.1229  0.2387
 2027SOL    HW116050   3.827   2.705   1.919 -1.3131  1.0103  2.7279
 2027SOL    HW216051   3.722   2.630   1.818  1.7739  0.8716 -0.4665
 2028SOL     OW16052   4.282   1.745   0.894 -0.4138  0.0830 -0.0130
 2028SOL    HW116053   4.253   1.808   0.966  0.6546 -1.2223  1.6094
 2028SOL    HW216054   4.375   1.768   0.864  0.1563 -0.9489  0.9034
 2029SOL     OW16055   1.265   1.989   1.911 -0.6160 -1.0255  0.5849
 2029SOL    HW116056   1.305   2.008   2.001 -0.3193 -0.3105  0.3055
 2029SOL    HW216057   1.287   1.896   1.884  2.3125 -0.1202 -0.3067
 2030SOL     OW16058   1.582   2.028   1.748 -0.0320  0.5748  0.2026
 2030SOL    HW116059   1.626   2.079   1.822 -0.2466 -0.6204  1.1602
 2030SOL    HW216060   1.511   2.085   1.706  0.7576  1.6187  0.2424
 2031SOL     OW16061   3.854   1.345   1.796 -0.3981  0.3778  0.4387
 2031SOL    HW116062   3.932   1.368   1.738 -0.6977  0.3987  0.0415
 2031SOL    HW216063   3.832   1.422   1.855  0.2017  0.1875  0.9106
 2032SOL     OW16064   0.859   4.551   0.640  0.0743  0.3833 -0.1119
 2032SOL    HW116065   0.895   4.524   0.550  0.7667 -2.7353  1.0395
 2032SOL    HW216066   0.765   4.583   0.630  0.3389  0.6384 -2.0278
 2033SOL     OW16067   3.111   9.138   0.038 -0.2413  0.1148 -0.2743
 2033SOL    HW116068   3.192   9.188   0.007 -0.2208  0.1497 -0.1643
 2033SOL    HW216069   3.135   9.083   0.118 -0.3099  0.0744 -0.2821
 2034SOL     OW16070   1.943   6.640   2.328 -0.4437 -0.3249  0.5154
 2034SOL    HW116071   2.022   6.588   2.297 -1.0187 -1.1947  0.4939
 2034SOL    HW216072   1.878   6.650   2.253 -1.3256 -1.4613  1.1149
 2035SOL     OW16073   1.617   5.516   0.457 -0.3895 -0.2937  0.1809
 2035SOL    HW116074   1.611   5.533   0.358  1.1984  0.6177  0.2311
 2035SOL    HW216075   1.544   5.567   0.504 -0.1690  0.5339 -0.3692
 2036SOL     OW16076   2.222   6.483   2.270  0.4353  0.2407 -0.0156
 2036SOL    HW116077   2.297   6.508   2.209  0.5988 -1.5040 -0.5569
 2036SOL    HW216078   2.259   6.455   2.358  0.3259  0.6685  0.1694
 2037SOL     OW16079   3.127   9.530   0.777 -0.1391  0.3147 -0.2449
 2037SOL    HW116080   3.062   9.527   0.701 -0.0908  0.1154 -0.2788
 2037SOL    HW216081   3.148   9.437   0.807  0.8419  0.3375 -0.8376
 2038SOL     OW16082   1.431   8.843   1.349 -0.1907  0.2363  0.1351
 2038SOL    HW116083   1.471   8.863   1.438  0.9513 -2.1869  0.1907
 2038SOL    HW216084   1.339   8.805   1.361  0.5918 -1.6033  0.3635
 2039SOL     OW16085   1.548   7.328   0.478  0.2570  0.1599  0.8375
 2039SOL    HW116086   1.585   7.421   0.481 -2.3355  1.2133  2.4456
 2039SOL    HW216087   1.529   7.302   0.383  0.9952  1.2784  0.3816
 2040SOL     OW16088   2.710   3.982   1.467 -0.4878  0.2049  0.0804
 2040SOL    HW116089   2.765   3.919   1.413 -0.8017  0.5212 -0.6116
 2040SOL    HW216090   2.633   3.933   1.508 -1.5089  0.4036 -1.5725
 2041SOL     OW16091   4.224   1.903   1.107  0.1608 -0.1643  0.4175
 2041SOL    HW116092   4.162   1.945   1.173  1.1056  2.7711 -0.4520
 2041SOL    HW216093   4.317   1.937   1.122  0.4281  0.4343 -2.2285
 2042SOL     OW16094   1.516   8.845   1.084 -0.3670  0.0854 -0.0115
 2042SOL    HW116095   1.504   8.835   1.183  0.2732 -1.3066 -0.0712
 2042SOL    HW216096   1.449   8.787   1.037 -0.2381  0.2498 -0.3979
 2043SOL     OW16097   9.752   4.799   2.332  0.0495  1.0397 -0.4726
 2043SOL    HW116098   9.716   4.862   2.401  2.0360  1.7586 -0.0750
 2043SOL    HW216099   9.781   4.714   2.377 -0.6500  0.6671 -0.7217
 2044SOL     OW16100   5.009   2.546   2.387  0.9197  0.0555  0.8133
 2044SOL    HW116101   5.094   2.593   2.410  0.6589  0.7228  0.4345
 2044SOL    HW216102   4.938   2.613   2.367  1.3182 -0.4608 -2.6942
 2045SOL     OW16103   1.913   0.875   0.024 -0.5781  0.5148 -0.5196
 2045SOL    HW116104   1.964   0.960   0.037  0.5231 -0.2904  0.5716
 2045SOL    HW216105   1.973   0.805  -0.015 -0.9880 -0.2538  0.1951
 2046SOL     OW16106   4.010   5.299   0.549  0.1802  0.3980 -0.4892
 2046SOL    HW116107   3.959   5.258   0.625  0.7073  0.8991  0.1379
 2046SOL    HW216108   3.998   5.243   0.467 -1.4996  0.5953 -0.3946
 2047SOL     OW16109   1.536   4.222   1.613  0.0611 -0.1288  0.0917
 2047SOL    HW116110   1.596   4.263   1.545  1.4859 -2.8647 -0.3981
 2047SOL    HW216111   1.580   4.225   1.703 -0.3020  0.3818  0.2535
 2048SOL     OW16112   0.869   5.819   1.292 -0.4112  0.3127 -0.7274
 2048SOL    HW116113   0.872   5.902   1.348 -1.0302  0.0048 -0.2378
 2048SOL    HW216114   0.927   5.749   1.334 -3.1951 -0.9448  1.2076
 2049SOL     OW16115   2.580   2.144   2.550 -0.1998 -0.4808 -0.6093
 2049SOL    HW116116   2.531   2.125   2.465 -1.5227 -1.2956  0.3052
 2049SOL    HW216117   2.522   2.198   2.611  0.7969  0.2382 -0.2917
 2050SOL     OW16118   3.084   0.488   0.584 -0.7961  0.2952 -0.0375
 2050SOL    HW116119   3.158   0.536   0.536 -0.1094 -0.7482 -0.0418
 2050SOL    HW216120   2.997   0.511   0.541 -0.2625 -0.0986 -1.3771
 2051SOL     OW16121   2.945   3.846   0.198  0.0466  0.6638  0.3077
 2051SOL    HW116122   3.044   3.841   0.216  0.1377  1.7518  0.1576
 2051SOL    HW216123   2.921   3.939   0.171 -1.0218  0.3938  0.3042
 2052SOL     OW16124   2.637   4.817   1.334 -0.7005  0.2868 -0.0653
 2052SOL    HW116125   2.576   4.897   1.337 -0.4245  0.5002 -0.1462
 2052SOL    HW216126   2.643   4.783   1.240 -0.9979  0.0306  0.0065
 2053SOL     OW16127   3.717   2.597   0.243 -1.0315 -0.0304 -0.1045
 2053SOL    HW116128   3.736   2.506   0.281 -0.5952  0.6090  1.2726
 2053SOL    HW216129   3.803   2.645   0.228 -1.2729  0.2642 -0.5451
 2054SOL     OW16130   3.977   4.537   2.591  0.0543 -0.0021  0.4462
 2054SOL    HW116131   3.916   4.609   2.559  0.8169 -0.2208 -1.5794
 2054SOL    HW216132   4.068   4.552   2.553  0.4630 -1.4686  0.8253
 2055SOL     OW16133   3.867   3.354   1.814  0.7014  0.0048  0.2310
 2055SOL    HW116134   3.866   3.301   1.899  0.3632  0.5942  0.6024
 2055SOL    HW216135   3.780   3.403   1.806  0.9959  0.4570 -0.1372
 2056SOL     OW16136   2.432   4.436   0.891 -0.4867 -0.4545 -0.0238
 2056SOL    HW116137   2.401   4.462   0.982  0.3866  0.1758  0.1050
 2056SOL    HW216138   2.459   4.518   0.841 -3.5902 -0.4793 -1.8743
 2057SOL     OW16139   1.086   7.561   0.999 -0.0736 -0.2471  0.5928
 2057SOL    HW116140   1.046   7.481   1.044 -0.3268  0.4027  1.5300
 2057SOL    HW216141   1.062   7.643   1.050  2.8109  0.1249  1.4698
 2058SOL     OW16142   3.230   5.986   1.817  0.0480  0.0680 -0.1069
 2058SOL    HW116143   3.226   5.951   1.724 -2.0051 -0.6482  0.2183
 2058SOL    HW216144   3.205   5.914   1.881  0.6963  0.7651  0.9494
 2059SOL     OW16145   3.600   3.446   1.732  0.2849  0.3616 -0.2596
 2059SOL    HW116146   3.561   3.516   1.793  1.0955 -0.2623  0.9997
 2059SOL    HW216147   3.576   3.468   1.637 -1.5167  1.0223  0.3117
 2060SOL     OW16148   2.453   1.816   2.378 -0.1027 -0.0521  0.4085
 2060SOL    HW116149   2.537   1.788   2.333  1.1210  0.4664  2.3078
 2060SOL    HW216150   2.399   1.735   2.402 -0.0150 -0.3978 -0.5373
 2061SOL     OW16151   9.972   3.885   0.539 -0.6146  0.2177 -0.5756
 2061SOL    HW116152   9.912   3.808   0.519 -0.8804  0.5648 -1.1224
 2061SOL    HW216153   9.946   3.963   0.483  1.9290 -0.3561 -2.6306
 2062SOL     OW16154   4.401   3.927   0.084  0.2340 -0.1263  0.0111
 2062SOL    HW116155   4.374   3.835   0.056  0.6588  0.1761 -1.4063
 2062SOL    HW216156   4.497   3.925   0.115  0.7165  0.1169 -1.4358
 2063SOL     OW16157   2.965   3.717   0.452  0.2585 -0.0242  0.1626
 2063SOL    HW116158   2.908   3.693   0.531 -0.2851 -2.6443 -0.9558
 2063SOL    HW216159   2.907   3.746   0.376  0.5334 -0.5494 -0.2580
 2064SOL     OW16160   1.997   8.694   2.054  0.6084 -0.4117 -0.2660
 2064SOL    HW116161   1.931   8.620   2.060  1.2481 -1.0339 -0.8041
 2064SOL    HW216162   2.089   8.658   2.072  0.6749  0.6698  1.7096
 2065SOL     OW16163   0.631   3.458   1.795  0.5644  0.4626 -0.1687
 2065SOL    HW116164   0.649   3.548   1.836  0.5885  0.6080 -0.4936
 2065SOL    HW216165   0.593   3.471   1.703  0.7881  0.1349 -0.3062
 2066SOL     OW16166   2.617   1.764   1.060  0.0928 -0.1430  0.3125
 2066SOL    HW116167   2.586   1.781   1.154  0.1361 -1.7544  0.6203
 2066SOL    HW216168   2.544   1.786   0.996 -0.2628  0.0414  0.7792
 2067SOL     OW16169   0.344   3.652   0.318 -0.0932 -0.3709 -0.0788
 2067SOL    HW116170   0.266   3.647   0.380  0.5453 -0.4881  0.7276
 2067SOL    HW216171   0.384   3.744   0.322  1.8905 -1.2427  2.1389
 2068SOL     OW16172   1.873   3.945   2.234  0.1425  1.1055  0.0172
 2068SOL    HW116173   1.861   4.021   2.298  1.4914  0.4659  1.0713
 2068SOL    HW216174   1.911   3.979   2.148 -1.0086  1.8736 -0.1923
 2069SOL     OW16175   9.773   3.890   1.865 -0.4449  0.0578  0.1943
 2069SOL    HW116176   9.704   3.943   1.915  0.4677  0.9639  0.5080
 2069SOL    HW216177   9.815   3.947   1.795 -0.1546 -0.5537 -0.1356
 2070SOL     OW16178   3.055   1.408   0.722  0.1165 -0.1026 -0.1001
 2070SOL    HW116179   3.039   1.435   0.627 -0.7340 -1.4416 -0.3527
 2070SOL    HW216180   3.013   1.474   0.784 -1.8675 -0.7609 -0.7005
 2071SOL     OW16181   1.647   8.757   1.596 -0.2771 -0.3551  0.8062
 2071SOL    HW116182   1.660   8.851   1.564 -0.4114 -1.0097 -1.2615
 2071SOL    HW216183   1.736   8.714   1.612 -0.0980 -0.9041 -1.4518
 2072SOL     OW16184   0.982   8.355   1.961 -0.5206  0.1854  0.3384
 2072SOL    HW116185   1.047   8.430   1.975 -0.0206 -0.1967  0.0607
 2072SOL    HW216186   0.942   8.363   1.870 -1.1903  0.6660  0.6670
 2073SOL     OW16187   2.985   8.946   1.993  0.1163  0.8425 -0.0120
 2073SOL    HW116188   3.027   9.036   2.006 -0.8650  1.3257 -0.2048
 2073SOL    HW216189   3.023   8.882   2.061 -2.2979  2.4391  2.9369
 2074SOL     OW16190   4.013   8.834   0.405  0.3364  0.5402 -0.1515
 2074SOL    HW116191   3.952   8.913   0.405 -3.0769 -2.0123  1.1017
 2074SOL    HW216192   3.980   8.766   0.339  1.5071 -1.1131  0.9426
 2075SOL     OW16193   3.276   2.050   1.807  0.2657 -0.0746 -0.3514
 2075SOL    HW116194   3.330   1.967   1.822  1.6643  0.7481 -0.6859
 2075SOL    HW216195   3.200   2.053   1.872  0.1237 -1.6811 -0.4353
 2076SOL     OW16196   4.336   4.488   1.926 -0.3916 -0.5254 -0.2349
 2076SOL    HW116197   4.240   4.464   1.914 -0.0715 -1.8875 -0.1244
 2076SOL    HW216198   4.389   4.457   1.847  0.4011 -2.2886  0.9581
 2077SOL     OW16199   2.127   9.002   0.532 -0.0646 -0.6940  0.0800
 2077SOL    HW116200   2.127   8.979   0.629 -0.4269  0.5396  0.3755
 2077SOL    HW216201   2.108   8.919   0.478 -0.8592 -1.1834  1.1021
 2078SOL     OW16202   2.710   0.037   2.190 -0.0602 -0.2350  0.1007
 2078SOL    HW116203   2.636   0.022   2.256  1.1315 -3.2736  0.7888
 2078SOL    HW216204   2.681   0.006   2.100 -0.0566 -0.2922  0.1193
 2079SOL     OW16205   1.597   4.966   0.999 -0.0949 -0.3222  0.0242
 2079SOL    HW116206   1.594   4.971   1.099  0.9604  0.8993  0.0107
 2079SOL    HW216207   1.692   4.957   0.969 -0.4664 -1.3840 -0.8493
 2080SOL     OW16208   2.669   4.928   0.834 -0.1703  0.7181  0.0751
 2080SOL    HW116209   2.767   4.918   0.816 -0.5655 -1.1891 -1.2687
 2080SOL    HW216210   2.652   5.012   0.885  2.2984  0.4240  1.4425
 2081SOL     OW16211   2.769   1.034   2.510  0.1076 -0.2267 -0.0340
 2081SOL    HW116212   2.770   1.054   2.412 -1.5181  1.0388  0.1902
 2081SOL    HW216213   2.688   0.979   2.531  0.1887 -0.0598  0.6953
 2082SOL     OW16214   2.943   5.042   0.408 -0.7191  0.5375 -0.3561
 2082SOL    HW116215   2.902   4.981   0.340 -1.5150  1.7428 -0.9948
 2082SOL    HW216216   2.875   5.110   0.436 -0.2591  0.3052  1.3463
 2083SOL     OW16217   0.664   2.792   2.331 -0.3169 -0.4492  0.1414
 2083SOL    HW116218   0.642   2.867   2.270 -0.9696 -1.5136 -0.9616
 2083SOL    HW216219   0.746   2.745   2.297  0.6818  0.3529  1.3756
 2084SOL     OW16220   3.577   8.735   0.079  0.2492  0.2950 -0.0767
 2084SOL    HW116221   3.562   8.737   0.177 -0.0880  2.7984 -0.1561
 2084SOL    HW216222   3.495   8.767   0.031  0.8028  0.2011 -1.1197
 2085SOL     OW16223   4.618   1.900   1.029  0.3206  0.0864 -0.4068
 2085SOL    HW116224   4.632   1.913   0.931 -0.1909 -1.3627 -0.6862
 2085SOL    HW216225   4.677   1.826   1.062  1.1061  1.1307  0.5498
 2086SOL     OW16226   2.093   7.273   2.020  0.6580  0.3536  0.4078
 2086SOL    HW116227   2.174   7.264   1.962 -0.2209 -0.4862 -0.7003
 2086SOL    HW216228   2.119   7.260   2.116  1.7165 -0.5178  0.0090
 2087SOL     OW16229   2.411   7.527   0.895 -0.5263 -0.5619  0.2566
 2087SOL    HW116230   2.451   7.576   0.818  0.9081 -3.5551 -0.9832
 2087SOL    HW216231   2.312   7.543   0.898 -0.5010  0.0215 -1.8609
 2088SOL     OW16232   8.798   4.979   0.489  0.6834  0.1821  0.3048
 2088SOL    HW116233   8.836   4.911   0.552  0.1802 -0.1950  0.2021
 2088SOL    HW216234   8.851   4.980   0.404 -0.0004 -0.8794 -0.1379
 2089SOL     OW16235   2.356   5.716   0.246  0.8119 -0.3185 -0.3624
 2089SOL    HW116236   2.376   5.762   0.332  1.5814 -1.7944  0.2684
 2089SOL    HW216237   2.365   5.781   0.171 -0.8727  1.2419  0.7339
 2090SOL     OW16238   2.290   8.046   1.784 -0.2826 -0.2602 -0.3980
 2090SOL    HW116239   2.198   8.080   1.801  0.1906  1.0291 -0.3234
 2090SOL    HW216240   2.334   8.102   1.713  1.4142  0.9493  1.5174
 2091SOL     OW16241   1.704   7.363   2.296  0.1241  0.2933  0.1851
 2091SOL    HW116242   1.753   7.300   2.355  1.1782  0.0173 -0.9569
 2091SOL    HW216243   1.674   7.314   2.213  0.1058  1.0603 -0.2647
 2092SOL     OW16244   2.314   4.648   2.450  0.0897 -0.5394 -0.1510
 2092SOL    HW116245   2.296   4.629   2.546 -0.3426 -0.4720 -0.2196
 2092SOL    HW216246   2.266   4.582   2.393 -1.3935  0.7159 -0.3848
 2093SOL     OW16247   2.590   4.646   2.499 -0.8090 -0.0225  0.5622
 2093SOL    HW116248   2.640   4.721   2.455  1.3573 -2.5490 -1.4904
 2093SOL    HW216249   2.499   4.638   2.457  0.3457 -0.8579 -1.9034
 2094SOL     OW16250   1.419   8.012   1.227  0.1858  0.6837  0.3511
 2094SOL    HW116251   1.403   8.089   1.289 -3.1916 -0.9651  1.6322
 2094SOL    HW216252   1.337   7.995   1.173  1.5366 -0.8341 -1.2841
 2095SOL     OW16253   1.634   6.101   0.826  0.4901 -0.5047 -0.4685
 2095SOL    HW116254   1.612   6.018   0.878 -0.1530 -0.5828 -0.8546
 2095SOL    HW216255   1.661   6.076   0.733 -0.7870 -0.2260 -0.9239
 2096SOL     OW16256   0.522   3.228   1.112 -0.2362  0.4605  0.3222
 2096SOL    HW116257   0.566   3.202   1.026  0.2903  1.3573  0.3075
 2096SOL    HW216258   0.486   3.321   1.104  0.6125  0.8887  1.3673
 2097SOL     OW16259   1.123   2.657   0.414  0.0937 -0.0454  0.3602
 2097SOL    HW116260   1.172   2.620   0.493  1.5573  1.4187  0.1776
 2097SOL    HW216261   1.176   2.638   0.331 -0.9302 -0.6918 -0.1430
 2098SOL     OW16262   0.787   8.004   2.145 -0.3178 -0.3561 -0.1080
 2098SOL    HW116263   0.714   7.995   2.077 -0.5583 -0.0803  0.1120
 2098SOL    HW216264   0.797   8.100   2.171 -0.1560 -0.4462  0.1686
 2099SOL     OW16265   0.209   3.752   0.567  0.1436 -0.1517  0.0347
 2099SOL    HW116266   0.180   3.663   0.604 -0.8567 -0.3928 -1.3110
 2099SOL    HW216267   0.129   3.809   0.553  0.8185  1.1055  1.2078
 2100SOL     OW16268   2.450   8.178   0.604 -0.6961 -0.2319 -0.3102
 2100SOL    HW116269   2.506   8.211   0.528 -0.8608 -0.6111 -0.5962
 2100SOL    HW216270   2.428   8.255   0.664  0.6737 -0.2017  0.1667
 2101SOL     OW16271   4.632   3.208   1.919 -0.1021 -0.1245 -0.6111
 2101SOL    HW116272   4.640   3.127   1.861  3.3678  0.6123 -1.2325
 2101SOL    HW216273   4.639   3.291   1.864  2.6628  0.5878  0.7142
 2102SOL     OW16274   3.313   3.169   1.861  0.9060 -0.5004 -0.3398
 2102SOL    HW116275   3.286   3.266   1.864 -1.1814 -1.0369 -0.7684
 2102SOL    HW216276   3.260   3.118   1.929  0.9752 -1.5612 -1.0774
 2103SOL     OW16277   0.216   5.219   0.851  0.4795  0.1050  0.2331
 2103SOL    HW116278   0.130   5.268   0.864 -0.0820 -1.5333  2.9822
 2103SOL    HW216279   0.260   5.251   0.767 -1.8138  2.3961 -0.1488
 2104SOL     OW16280   4.512   1.964   0.763  0.3024  0.5882  0.4855
 2104SOL    HW116281   4.584   1.982   0.695  0.3844 -0.7219  0.2100
 2104SOL    HW216282   4.424   1.989   0.724  0.2911 -0.6588 -0.3250
 2105SOL     OW16283   1.765   8.946   0.119 -0.1813 -0.1600  0.4847
 2105SOL    HW116284   1.817   9.027   0.092 -1.7404  1.1660  1.3955
 2105SOL    HW216285   1.724   8.961   0.209 -1.4303 -1.5119  0.1536
 2106SOL     OW16286   4.175   2.353   1.701 -0.1281 -0.2405  0.5703
 2106SOL    HW116287   4.212   2.406   1.777 -0.8471 -1.0049  1.4682
 2106SOL    HW216288   4.097   2.401   1.661 -1.8654 -1.4109  2.4933
 2107SOL     OW16289   1.374   7.739   1.929  0.3597 -0.0559  0.2937
 2107SOL    HW116290   1.460   7.724   1.977  0.3122  0.7180  0.6348
 2107SOL    HW216291   1.342   7.832   1.947  0.9818  0.6829 -2.2057
 2108SOL     OW16292   0.955   7.021   0.018  0.2012  1.0480 -0.1054
 2108SOL    HW116293   0.991   6.928   0.015  3.2563  2.1098  0.8441
 2108SOL    HW216294   0.908   7.042  -0.068  1.3506 -0.6880 -1.1913
 2109SOL     OW16295   2.554   2.512   1.742  0.7635  0.1020 -0.4507
 2109SOL    HW116296   2.472   2.530   1.797  0.0054  3.2002 -2.5095
 2109SOL    HW216297   2.617   2.588   1.750  1.5360 -0.3227 -2.2916
 2110SOL     OW16298   3.336   3.919   2.363  0.0794  0.4328  0.0635
 2110SOL    HW116299   3.256   3.885   2.411  0.0263  0.1160 -0.2448
 2110SOL    HW216300   3.395   3.842   2.338  1.8928  0.8669  2.7677
 2111SOL     OW16301   3.649   4.540   0.004  0.1908  0.4873 -0.3814
 2111SOL    HW116302   3.708   4.528  -0.076  1.4383 -0.5538  0.6756
 2111SOL    HW216303   3.647   4.637   0.030  2.9785  0.3031  0.7021
 2112SOL     OW16304   3.829   1.080   0.402  0.1538  0.1149 -0.4211
 2112SOL    HW116305   3.761   1.072   0.475  0.8009  0.9644  0.2829
 2112SOL    HW216306   3.857   1.175   0.393  3.6435 -0.6551  1.4841
 2113SOL     OW16307   0.957   2.808   1.777  0.2533 -0.0870  0.3390
 2113SOL    HW116308   0.875   2.824   1.722  0.2530 -1.7824 -0.1799
 2113SOL    HW216309   1.038   2.826   1.723  0.2422  0.9034  0.6377
 2114SOL     OW16310   1.118   3.410   0.568 -0.3840  0.5328  0.1449
 2114SOL    HW116311   1.048   3.441   0.632 -0.7178 -0.0724  0.0703
 2114SOL    HW216312   1.081   3.415   0.475  0.7676  3.3629 -0.2142
 2115SOL     OW16313   0.458   5.510   0.461  0.0846  0.1488 -0.7517
 2115SOL    HW116314   0.375   5.456   0.446  0.2443 -0.5857  0.8863
 2115SOL    HW216315   0.523   5.492   0.388 -0.0164 -1.6135 -0.4278
 2116SOL     OW16316   3.027   2.327   1.082 -0.4253 -0.5392  0.1661
 2116SOL    HW116317   3.028   2.227   1.082 -0.2188 -0.5367 -0.5567
 2116SOL    HW216318   3.087   2.360   1.155 -0.8144 -0.9417  0.6757
 2117SOL     OW16319   0.680   4.627   0.957  0.3199 -0.2178 -0.2179
 2117SOL    HW116320   0.745   4.701   0.975 -0.7711  0.8823 -0.7442
 2117SOL    HW216321   0.651   4.630   0.862 -0.4621 -0.7201 -0.0013
 2118SOL     OW16322   1.438   4.623   0.810 -0.1401 -0.2371  0.6526
 2118SOL    HW116323   1.348   4.656   0.782  0.5935 -0.8413 -2.5865
 2118SOL    HW216324   1.433   4.526   0.831 -0.0272 -0.5565 -0.7346
 2119SOL     OW16325   2.267   1.137   0.302  0.1362 -0.0254 -0.0487
 2119SOL    HW116326   2.363   1.153   0.324 -0.0064  0.8475 -0.0208
 2119SOL    HW216327   2.214   1.220   0.323 -0.2627  0.2773 -2.1128
 2120SOL     OW16328   1.785   7.458   1.424  0.5149  0.5279 -0.5948
 2120SOL    HW116329   1.727   7.524   1.471 -0.2500 -0.4666 -0.1195
 2120SOL    HW216330   1.863   7.434   1.482  0.3347  0.3678 -0.4202
 2121SOL     OW16331   0.947   5.889   1.876 -0.2078 -0.9613 -0.1796
 2121SOL    HW116332   0.851   5.910   1.892 -0.1566 -0.4331 -0.5631
 2121SOL    HW216333   1.002   5.920   1.953 -0.3216 -1.0984 -0.0430
 2122SOL     OW16334   3.941   0.350   1.325 -0.0796 -0.5396 -0.0360
 2122SOL    HW116335   3.987   0.437   1.343 -1.8969  0.2844  0.7916
 2122SOL    HW216336   3.979   0.279   1.384  0.5650 -0.0084  0.1831
 2123SOL     OW16337   2.429   0.184   0.406 -0.5747 -0.2122 -0.1818
 2123SOL    HW116338   2.397   0.243   0.480 -2.5575 -2.0875  0.5015
 2123SOL    HW216339   2.495   0.234   0.349 -2.1984  2.6485  0.3744
 2124SOL     OW16340   3.794   3.412   0.751 -0.6704 -0.0120  0.0447
 2124SOL    HW116341   3.867   3.431   0.685 -0.1910  0.5648  0.7359
 2124SOL    HW216342   3.794   3.315   0.774 -0.4017 -0.0913 -0.2908
 2125SOL     OW16343   3.460   0.836   2.520  0.5256 -0.1868  1.0020
 2125SOL    HW116344   3.416   0.760   2.473  0.1142 -0.3993  1.7274
 2125SOL    HW216345   3.523   0.882   2.458 -0.6332  0.0569 -0.0036
 2126SOL     OW16346   3.855   4.667   1.242 -0.0384  0.2210 -0.1390
 2126SOL    HW116347   3.783   4.655   1.310 -0.1814 -0.4851 -0.4075
 2126SOL    HW216348   3.900   4.579   1.225  0.2416  0.4658 -0.6851
 2127SOL     OW16349   2.879   9.847   0.505  0.3032 -0.9608  0.4280
 2127SOL    HW116350   2.853   9.753   0.527  0.8087 -0.7882  1.7941
 2127SOL    HW216351   2.979   9.856   0.512  0.3192 -0.4808 -0.3424
 2128SOL     OW16352   1.942   3.246   1.682 -0.2215  0.4932  0.1146
 2128SOL    HW116353   1.867   3.247   1.749  0.0137 -0.8110  0.4079
 2128SOL    HW216354   1.926   3.174   1.616  0.9463  0.0031  0.3710
 2129SOL     OW16355   3.320   0.077   0.361 -0.1851  0.2126  0.2982
 2129SOL    HW116356   3.396   0.090   0.424 -0.3336 -0.5086  0.6329
 2129SOL    HW216357   3.266   0.161   0.356  0.4303  0.6134  0.3204
 2130SOL     OW16358   2.159   6.472   0.010  0.1501  0.4334  0.1752
 2130SOL    HW116359   2.065   6.505   0.015  0.1234  0.3595  0.1531
 2130SOL    HW216360   2.219   6.548  -0.017  0.0974  0.4811  0.1936
 2131SOL     OW16361   0.558   3.743   1.314  0.5268 -0.5926 -0.2881
 2131SOL    HW116362   0.638   3.718   1.369  0.8442 -1.2357 -1.0314
 2131SOL    HW216363   0.495   3.797   1.370  1.8431  0.6027  0.0758
 2132SOL     OW16364   0.970   7.344   1.119  0.5139  0.2302  0.4868
 2132SOL    HW116365   0.900   7.273   1.121  0.6077  0.1513  0.9993
 2132SOL    HW216366   0.997   7.367   1.213  1.4368 -0.0043  0.2762
 2133SOL     OW16367   1.322   3.658   1.592  0.0131  1.0387  0.9214
 2133SOL    HW116368   1.407   3.625   1.551 -0.1437  0.5029  1.0325
 2133SOL    HW216369   1.344   3.727   1.661  0.3448  1.0810  0.7744
 2134SOL     OW16370   1.360   4.346   0.790 -0.0304 -0.2079  0.2506
 2134SOL    HW116371   1.286   4.316   0.728 -0.2028  0.0247  0.3434
 2134SOL    HW216372   1.418   4.268   0.812  0.4153 -0.1603 -0.7346
 2135SOL     OW16373   3.672   3.522   0.173  0.4398 -0.2570  0.0640
 2135SOL    HW116374   3.741   3.494   0.239  0.4444 -0.8255 -0.1795
 2135SOL    HW216375   3.582   3.522   0.216  0.4813 -0.3496  0.1509
 2136SOL     OW16376   2.787   9.571   0.622 -0.0401 -0.8958 -0.6530
 2136SOL    HW116377   2.779   9.604   0.717  1.1566 -0.2463 -0.7718
 2136SOL    HW216378   2.697   9.539   0.591 -0.8153  0.4133  0.1534
 2137SOL     OW16379   2.600   8.124   0.928  0.2917 -0.4800 -0.4251
 2137SOL    HW116380   2.580   8.029   0.903  0.6035 -0.8247  0.6338
 2137SOL    HW216381   2.523   8.162   0.978 -0.4982  0.3423 -2.2396
 2138SOL     OW16382   2.824   0.580   0.438 -0.5853  0.1185  0.0646
 2138SOL    HW116383   2.800   0.500   0.494 -1.6397 -0.0012 -0.5407
 2138SOL    HW216384   2.871   0.549   0.355  1.4971  0.3339  1.1182
 2139SOL     OW16385   2.924   8.073   0.022  0.0081 -0.0468 -0.3730
 2139SOL    HW116386   2.847   8.059  -0.040  0.5221  1.9006 -1.5149
 2139SOL    HW216387   2.896   8.051   0.116 -1.1389 -1.8632 -1.1001
 2140SOL     OW16388   3.486   9.017   1.795 -0.4894 -0.2497  0.1236
 2140SOL    HW116389   3.492   8.944   1.727  0.2572 -0.3406  0.2757
 2140SOL    HW216390   3.557   9.004   1.864 -1.9868 -0.8005  1.5673
 2141SOL     OW16391   3.232   9.673   1.554  0.2220 -0.0506 -0.3984
 2141SOL    HW116392   3.230   9.614   1.473 -2.0491 -0.8529  0.1794
 2141SOL    HW216393   3.252   9.767   1.526  2.2777 -0.7967 -1.5276
 2142SOL     OW16394   2.231   8.519   1.759  0.1513  0.2367 -0.2144
 2142SOL    HW116395   2.190   8.608   1.776  0.0843  0.1704 -0.0218
 2142SOL    HW216396   2.229   8.465   1.843 -1.6350 -0.6875 -0.8086
 2143SOL     OW16397   4.260   4.636   0.172 -0.3932 -0.4096 -0.0836
 2143SOL    HW116398   4.339   4.693   0.154  0.0368 -0.8749  0.3180
 2143SOL    HW216399   4.267   4.551   0.119 -1.0583 -0.0669 -0.7263
 2144SOL     OW16400   2.441   5.297   0.703 -0.0355  0.3497  0.3172
 2144SOL    HW116401   2.447   5.385   0.655  0.7940  0.3758  0.4669
 2144SOL    HW216402   2.455   5.222   0.639  0.2267  0.3554  0.3699
 2145SOL     OW16403   2.008   0.046   0.383  0.2523 -0.2890  0.3425
 2145SOL    HW116404   2.030   0.139   0.354 -0.7774  0.4411  1.8378
 2145SOL    HW216405   2.092  -0.007   0.392  1.0910  1.2654  2.0186
 2146SOL     OW16406   2.345   2.359   1.983 -0.2705 -0.2973 -0.3959
 2146SOL    HW116407   2.363   2.319   1.893  1.5565 -0.7096  0.1389
 2146SOL    HW216408   2.426   2.408   2.015 -0.3319 -1.5101  1.7351
 2147SOL     OW16409   9.464   5.576   1.456  0.0864 -0.2051  0.1736
 2147SOL    HW116410   9.488   5.600   1.362  0.3054 -1.8160 -0.2055
 2147SOL    HW216411   9.494   5.649   1.517  0.5580  0.5571 -0.9339
 2148SOL     OW16412   2.745   0.845   1.032 -0.8680  0.3855  0.4224
 2148SOL    HW116413   2.779   0.899   0.954 -1.3249  1.1740  0.7627
 2148SOL    HW216414   2.780   0.885   1.117  0.1218 -0.8278  0.6007
 2149SOL     OW16415   3.695   4.812   0.029  0.2047  0.0311 -0.1429
 2149SOL    HW116416   3.759   4.887   0.043 -0.4559  1.0166 -2.0875
 2149SOL    HW216417   3.607   4.834   0.072  0.4104 -0.2081  0.3982
 2150SOL     OW16418   9.734   5.973   1.103  0.3767 -0.2015  0.3664
 2150SOL    HW116419   9.822   6.018   1.119  0.6505 -0.6859  0.2352
 2150SOL    HW216420   9.722   5.900   1.170  0.2708 -0.4202  0.1093
 2151SOL     OW16421   1.101   4.942   2.226  0.3795  0.1145 -0.3207
 2151SOL    HW116422   1.012   4.947   2.270  0.2620  1.5520 -0.6838
 2151SOL    HW216423   1.172   4.968   2.291  0.4456 -0.2462 -0.2527
 2152SOL     OW16424   3.175   0.355   0.813  0.1082  0.3924 -0.0742
 2152SOL    HW116425   3.132   0.392   0.731 -0.4641 -0.2841 -0.0824
 2152SOL    HW216426   3.166   0.256   0.814  1.3925  0.2701  0.0926
 2153SOL     OW16427   0.839   4.958   2.347 -0.4340  0.3026  0.3372
 2153SOL    HW116428   0.859   5.045   2.391 -2.8387  0.0544  1.9892
 2153SOL    HW216429   0.796   4.974   2.258 -1.3903  0.8019  0.8889
 2154SOL     OW16430   3.328   9.210   1.898 -0.5136  0.0424 -0.1843
 2154SOL    HW116431   3.412   9.160   1.877 -0.7428 -0.1099 -0.7724
 2154SOL    HW216432   3.257   9.183   1.833 -0.3039  2.0207 -1.2837
 2155SOL     OW16433   0.041   3.404   2.599  0.7987 -0.1158 -0.3373
 2155SOL    HW116434   0.040   3.492   2.646  1.1258 -0.1076 -0.3432
 2155SOL    HW216435  -0.020   3.408   2.520 -0.1019 -0.2726  0.3342
 2156SOL     OW16436   2.437   1.993   0.501  0.0410  0.2887 -0.3779
 2156SOL    HW116437   2.368   1.982   0.429 -1.0600  1.8454  0.4171
 2156SOL    HW216438   2.439   2.088   0.531  3.1146  0.4459 -0.9198
 2157SOL     OW16439   1.312   3.241   0.259 -0.0823 -0.8659 -0.3848
 2157SOL    HW116440   1.250   3.311   0.223  2.0770  1.8768  1.0766
 2157SOL    HW216441   1.259   3.171   0.306 -2.2279  0.4153 -0.8321
 2158SOL     OW16442   4.546   3.565   1.887  0.3909 -0.3817 -0.3883
 2158SOL    HW116443   4.575   3.524   1.800  0.4328 -1.3066  0.0586
 2158SOL    HW216444   4.590   3.517   1.963 -2.0131 -1.5928  0.2966
 2159SOL     OW16445   0.337   4.414   1.702  0.6808  0.2029  0.5606
 2159SOL    HW116446   0.417   4.471   1.679 -0.4529  1.3457 -0.6765
 2159SOL    HW216447   0.255   4.458   1.666 -0.2612 -2.1048 -0.1770
 2160SOL     OW16448   3.111   8.536   0.137 -0.7020 -0.1407 -0.2334
 2160SOL    HW116449   3.030   8.486   0.106 -0.1118 -0.1754 -1.7453
 2160SOL    HW216450   3.192   8.478   0.126 -0.3568  0.1730  0.5694
 2161SOL     OW16451   1.809   4.455   2.395 -0.5597  0.0277  0.2221
 2161SOL    HW116452   1.833   4.451   2.298 -1.7689 -0.7132 -0.0489
 2161SOL    HW216453   1.716   4.489   2.406 -1.5725 -2.8365  0.9308
 2162SOL     OW16454   1.650   8.020   0.821 -0.3309 -0.3939  0.1602
 2162SOL    HW116455   1.561   7.976   0.810 -1.3121  1.8118 -0.9586
 2162SOL    HW216456   1.683   8.004   0.914 -2.1845 -0.7498  0.7872
 2163SOL     OW16457   1.611   6.985   2.072  0.4826 -0.1239 -0.1807
 2163SOL    HW116458   1.675   6.913   2.045 -0.9678 -1.0295 -1.3271
 2163SOL    HW216459   1.519   6.962   2.038 -0.3053  1.5089  0.7770
 2164SOL     OW16460   0.394   6.292   0.651  0.3597  0.8389 -0.3718
 2164SOL    HW116461   0.295   6.298   0.657  0.5084  1.4201  1.9048
 2164SOL    HW216462   0.420   6.203   0.613 -0.9563 -1.2830  3.4342
 2165SOL     OW16463   0.189   6.508   1.316 -0.2936 -0.2831  0.0002
 2165SOL    HW116464   0.235   6.584   1.269  0.0409 -0.1257  0.5766
 2165SOL    HW216465   0.252   6.431   1.322 -0.4780 -0.4471 -0.1744
 2166SOL     OW16466   2.875   7.412   0.012  0.4745 -0.3797 -0.6346
 2166SOL    HW116467   2.857   7.476   0.087 -0.6041 -1.5604  0.1222
 2166SOL    HW216468   2.879   7.463  -0.074  0.1897  0.7879  0.0282
 2167SOL     OW16469   1.860   2.839   0.125  0.5490 -0.5631  0.3681
 2167SOL    HW116470   1.948   2.819   0.169  2.2736 -0.4497 -2.8553
 2167SOL    HW216471   1.841   2.769   0.056 -0.6235  0.8357 -0.7532
 2168SOL     OW16472   2.038   1.998   2.378 -0.1582 -0.2397 -0.1463
 2168SOL    HW116473   2.014   1.971   2.285 -0.1400 -0.6685 -0.0272
 2168SOL    HW216474   1.956   2.031   2.425  0.5297  3.8682 -1.6060
 2169SOL     OW16475   2.136   3.124   0.178 -0.0732  0.6160  0.6737
 2169SOL    HW116476   2.228   3.161   0.183  0.6334 -1.1196  0.6749
 2169SOL    HW216477   2.101   3.134   0.085  1.5222 -1.9926 -0.2514
 2170SOL     OW16478   0.962   2.148   0.402 -0.1541  0.9349  0.1749
 2170SOL    HW116479   0.869   2.174   0.428 -0.5476 -0.3221  0.0449
 2170SOL    HW216480   1.006   2.101   0.478  0.1392  0.9049 -0.0104
 2171SOL     OW16481   3.622   0.011   2.189 -0.4723  0.0988 -0.0995
 2171SOL    HW116482   3.594  -0.084   2.184  0.6789 -0.1464 -2.9101
 2171SOL    HW216483   3.689   0.023   2.262 -0.8575 -1.1672  0.4635
 2172SOL     OW16484   3.910   3.044   1.549  0.2355  0.6011 -0.0662
 2172SOL    HW116485   3.920   3.017   1.645 -0.0047 -1.2220 -0.5251
 2172SOL    HW216486   3.883   3.140   1.544  2.3743  1.3310  1.6236
 2173SOL     OW16487   4.286   1.228   0.375 -0.9708 -0.1578  0.3969
 2173SOL    HW116488   4.216   1.281   0.326  0.1391  1.5778  0.6464
 2173SOL    HW216489   4.312   1.149   0.320 -1.8259  0.1948 -0.5335
 2174SOL     OW16490   1.775   0.528   1.625 -0.3314 -0.6810 -0.3652
 2174SOL    HW116491   1.750   0.466   1.700  1.7792 -1.7766 -0.5302
 2174SOL    HW216492   1.837   0.598   1.659  0.7753 -1.2895 -1.1101
 2175SOL     OW16493   2.300   4.278   1.644 -0.8387  0.0800  0.5347
 2175SOL    HW116494   2.320   4.192   1.597 -0.2028  1.2716 -1.4322
 2175SOL    HW216495   2.357   4.351   1.606 -0.3264  1.0954  3.1768
 2176SOL     OW16496   2.486   7.268   0.070 -0.0048  0.0471 -0.0527
 2176SOL    HW116497   2.472   7.312  -0.019  0.1602 -2.0643 -1.1670
 2176SOL    HW216498   2.584   7.250   0.082 -0.0349  0.2797  0.5401
 2177SOL     OW16499   2.738   7.518   0.924 -0.0465  0.2005 -0.8065
 2177SOL    HW116500   2.674   7.553   0.856 -1.0134 -1.4562 -0.7805
 2177SOL    HW216501   2.830   7.515   0.886 -0.5100 -0.3204 -1.8954
 2178SOL     OW16502   2.670   6.775   0.298  1.0191  0.2743 -0.3322
 2178SOL    HW116503   2.753   6.777   0.241  1.6295  1.5885  0.5873
 2178SOL    HW216504   2.663   6.686   0.344  1.2254 -0.3119 -1.4139
 2179SOL     OW16505   2.650   7.010   0.496 -0.1456  0.2274 -0.1361
 2179SOL    HW116506   2.573   7.000   0.559 -0.7859  1.9826 -0.6265
 2179SOL    HW216507   2.667   6.922   0.451 -3.8765  0.5017 -2.2957
 2180SOL     OW16508   1.100   7.274   2.188 -0.2767  0.1443 -0.2317
 2180SOL    HW116509   1.178   7.327   2.154  0.5207 -1.3721 -0.8499
 2180SOL    HW216510   1.075   7.306   2.279  1.0166  0.7160 -0.0661
 2181SOL     OW16511   4.255   1.731   1.799 -0.2378 -0.5572  0.2542
 2181SOL    HW116512   4.295   1.666   1.863  0.7044  0.9108  1.1903
 2181SOL    HW216513   4.248   1.821   1.843  2.2301  0.9634 -2.2894
 2182SOL     OW16514   3.828   4.390   1.300 -0.0284 -0.0399 -0.3598
 2182SOL    HW116515   3.776   4.331   1.362 -0.5879  0.6408 -0.1785
 2182SOL    HW216516   3.853   4.339   1.218 -0.2748 -0.6082 -0.0832
 2183SOL     OW16517   2.867   7.508   2.361 -0.1371 -0.2906 -0.0209
 2183SOL    HW116518   2.889   7.605   2.365 -0.6341 -0.1612 -0.3294
 2183SOL    HW216519   2.806   7.491   2.283  0.0846 -0.8759 -0.0738
 2184SOL     OW16520   0.925   2.530   0.075  0.0918  0.1163  0.3438
 2184SOL    HW116521   0.969   2.607   0.121  0.2427  1.2950 -1.7004
 2184SOL    HW216522   0.826   2.542   0.078  0.0905  0.0328  0.6298
 2185SOL     OW16523   2.306   4.165   0.881  0.3914  0.2919 -0.0299
 2185SOL    HW116524   2.320   4.261   0.904  0.9499 -0.0881  1.2541
 2185SOL    HW216525   2.375   4.109   0.927  0.5839 -0.6489 -1.4280
 2186SOL     OW16526   2.320   1.563   2.512 -0.6724 -0.7897  0.0895
 2186SOL    HW116527   2.347   1.500   2.440  0.2975 -0.3087  0.0100
 2186SOL    HW216528   2.372   1.542   2.595 -0.8370 -0.5333  0.2569
 2187SOL     OW16529   4.286   0.992   0.259 -0.0489  0.0389  0.2185
 2187SOL    HW116530   4.240   0.934   0.191  1.8111 -0.7712 -0.3944
 2187SOL    HW216531   4.308   0.937   0.340  1.2167  0.0108 -0.1340
 2188SOL     OW16532   1.205   5.282   0.011 -0.3614 -0.3972 -0.1618
 2188SOL    HW116533   1.130   5.254   0.069 -0.2986 -0.8164 -0.2818
 2188SOL    HW216534   1.248   5.364   0.049 -1.4258  0.3558 -0.5623
 2189SOL     OW16535   9.142   5.055   0.579  0.0861 -0.2750  0.2133
 2189SOL    HW116536   9.118   4.973   0.632 -0.8305 -1.5815 -2.1242
 2189SOL    HW216537   9.241   5.067   0.578  0.1839 -0.9467  1.1547
 2190SOL     OW16538   3.286   1.206   1.289  0.7879  0.0798  0.7898
 2190SOL    HW116539   3.238   1.273   1.233  1.8547 -0.7039 -1.1107
 2190SOL    HW216540   3.221   1.136   1.319  0.3166  0.1912  0.0409
 2191SOL     OW16541   2.371   0.498   1.266  0.5319 -0.1883  0.1243
 2191SOL    HW116542   2.429   0.574   1.238 -0.1174  0.0905 -0.4654
 2191SOL    HW216543   2.306   0.477   1.193 -0.7941  0.1715  1.1802
 2192SOL     OW16544   1.479   2.354   0.845 -0.1517  0.4184 -0.3786
 2192SOL    HW116545   1.420   2.395   0.914  0.9732  0.1698  0.7498
 2192SOL    HW216546   1.549   2.419   0.818  1.3783 -0.5799  1.1059
 2193SOL     OW16547   0.552   5.029   1.851  0.4053  0.1208  0.4056
 2193SOL    HW116548   0.524   5.125   1.844  0.0784  0.2679  2.9930
 2193SOL    HW216549   0.473   4.974   1.880 -0.0670 -1.3914 -3.4096
 2194SOL     OW16550   2.163   3.482   2.157 -0.2418 -0.3705  0.2509
 2194SOL    HW116551   2.225   3.525   2.092  0.8760  0.3896  1.7900
 2194SOL    HW216552   2.216   3.438   2.230 -1.4894 -0.0004  1.4009
 2195SOL     OW16553   0.969   7.624   1.592  0.2862  0.2093  0.2645
 2195SOL    HW116554   0.920   7.704   1.628  2.8348  1.3210  1.3808
 2195SOL    HW216555   0.983   7.558   1.666  1.8328  0.5928  0.3169
 2196SOL     OW16556   2.518   3.265   0.423 -0.7275 -0.1551  0.0539
 2196SOL    HW116557   2.604   3.240   0.380 -0.5482 -0.2498  0.4603
 2196SOL    HW216558   2.532   3.345   0.481 -0.8661 -0.2902  0.2755
 2197SOL     OW16559   4.174   2.995   0.027  0.2724 -0.0212 -0.6240
 2197SOL    HW116560   4.187   2.986   0.126 -0.2178 -0.3802 -0.5873
 2197SOL    HW216561   4.243   3.056  -0.010  0.5530 -0.0016 -0.0805
 2198SOL     OW16562   4.161   0.632   0.952 -0.5376  0.7185 -0.1847
 2198SOL    HW116563   4.182   0.638   0.854  0.3532 -2.6339 -0.2472
 2198SOL    HW216564   4.064   0.614   0.965 -0.6485  1.1282 -0.4475
 2199SOL     OW16565   1.879   1.831   1.899  0.0659 -0.0992 -0.0454
 2199SOL    HW116566   1.929   1.764   1.844 -0.0188 -0.8059  0.7326
 2199SOL    HW216567   1.783   1.803   1.907 -0.0559  0.3147 -0.0305
 2200SOL     OW16568   2.891   9.075   2.462  0.3789  0.0551  0.4390
 2200SOL    HW116569   2.812   9.042   2.513  0.8075 -1.9384 -0.1315
 2200SOL    HW216570   2.960   9.109   2.525 -0.3916  0.5761  1.0056
 2201SOL     OW16571   3.138   2.870   1.134  0.2469 -0.0886  0.8864
 2201SOL    HW116572   3.171   2.958   1.169 -0.4566 -0.0812  1.5468
 2201SOL    HW216573   3.182   2.851   1.047 -1.2303  1.9495 -0.3543
 2202SOL     OW16574   2.774   3.157   0.677  0.1544 -0.0787 -0.2832
 2202SOL    HW116575   2.734   3.069   0.703 -0.0123 -0.2085 -0.9785
 2202SOL    HW216576   2.759   3.173   0.579 -0.4175  1.0320 -0.0201
 2203SOL     OW16577   3.622   3.288   2.345  0.0165  0.1336 -0.5217
 2203SOL    HW116578   3.646   3.350   2.419  2.4414  0.6261 -1.6723
 2203SOL    HW216579   3.695   3.221   2.332 -3.1744 -4.0155  1.6524
 2204SOL     OW16580   2.099   9.982   0.074 -0.1683 -0.2167  0.3409
 2204SOL    HW116581   2.080   9.992   0.171  1.8343 -1.8690  0.9241
 2204SOL    HW216582   2.013   9.988   0.023 -1.0941  1.9986  2.0610
 2205SOL     OW16583   2.179   2.524   1.748  0.0132 -0.1604 -0.4942
 2205SOL    HW116584   2.212   2.432   1.729 -0.5716  0.2004 -3.4645
 2205SOL    HW216585   2.086   2.520   1.784 -0.4392 -0.6917 -1.7085
 2206SOL     OW16586   2.700   1.383   0.729 -0.6045  0.1152  0.3427
 2206SOL    HW116587   2.742   1.340   0.808 -1.8292 -0.0640  0.9199
 2206SOL    HW216588   2.769   1.432   0.676  0.4846 -1.0626  0.6645
 2207SOL     OW16589   3.663   1.191   0.159 -0.0881 -0.4320 -0.1353
 2207SOL    HW116590   3.648   1.143   0.245  1.7953 -0.7057  0.0775
 2207SOL    HW216591   3.726   1.137   0.102  0.9052  1.0783 -0.5003
 2208SOL     OW16592   2.037   3.070   2.546 -0.0072  1.1494  0.2817
 2208SOL    HW116593   1.954   3.015   2.546  1.1014 -0.5938 -0.9151
 2208SOL    HW216594   2.039   3.129   2.465  2.3106 -2.6643 -2.5818
 2209SOL     OW16595   3.313   1.317   2.076 -0.3222  0.2434 -0.4867
 2209SOL    HW116596   3.229   1.370   2.076 -0.0251  0.7199 -0.1372
 2209SOL    HW216597   3.313   1.253   2.152 -0.0868  0.6996 -0.1001
 2210SOL     OW16598   1.484   5.516   2.057  0.4285  0.1218 -0.1187
 2210SOL    HW116599   1.477   5.432   2.109 -1.5427  0.7899  0.7194
 2210SOL    HW216600   1.564   5.511   1.997  1.0495 -1.8168  0.8297
 2211SOL     OW16601   2.663   3.300   2.394  0.0718 -0.1792 -0.3260
 2211SOL    HW116602   2.717   3.374   2.435 -0.4025 -0.3511  0.6179
 2211SOL    HW216603   2.723   3.241   2.341  0.5643  0.4990 -0.5310
 2212SOL     OW16604   3.008   4.877   2.534  0.2749  0.0204 -0.0134
 2212SOL    HW116605   3.030   4.973   2.551 -2.1629  0.6016  0.0202
 2212SOL    HW216606   3.073   4.839   2.468  2.3620  1.1700  1.3206
 2213SOL     OW16607   9.607   3.790   1.569 -0.3781 -0.1121 -1.0445
 2213SOL    HW116608   9.536   3.723   1.551 -2.0491  1.2893  0.1614
 2213SOL    HW216609   9.621   3.847   1.488 -0.2516 -0.7312 -1.4583
 2214SOL     OW16610   0.867   6.437   1.203  0.2014  0.2986  0.2138
 2214SOL    HW116611   0.918   6.388   1.132  1.8549 -1.2778  2.4210
 2214SOL    HW216612   0.878   6.536   1.189  0.1452  0.0194 -1.9504
 2215SOL     OW16613   9.258   3.852   1.525 -0.2906  0.2095  0.1118
 2215SOL    HW116614   9.234   3.880   1.618  2.6480  1.0379  0.6797
 2215SOL    HW216615   9.296   3.759   1.527 -2.0112 -0.5342 -0.5656
 2216SOL     OW16616   1.712   8.234   1.185 -0.4121  0.0356  0.5648
 2216SOL    HW116617   1.752   8.323   1.209  1.4484 -0.9181  1.0894
 2216SOL    HW216618   1.619   8.228   1.224 -0.6144  1.7890  0.3993
 2217SOL     OW16619   4.502   1.735   1.658  0.5085  0.0407 -0.2180
 2217SOL    HW116620   4.500   1.730   1.558  0.7657 -1.3782 -0.1610
 2217SOL    HW216621   4.411   1.761   1.692  0.3542  0.2690 -0.8006
 2218SOL     OW16622   0.366   6.702   1.202  0.3812 -0.3681  0.8373
 2218SOL    HW116623   0.398   6.698   1.108  0.9915  1.6019  0.9310
 2218SOL    HW216624   0.390   6.791   1.242 -1.7167 -0.3635  2.1838
 2219SOL     OW16625   1.025   6.402   1.898  0.4073 -0.1296 -0.3022
 2219SOL    HW116626   1.009   6.366   1.806  0.2061 -0.2717 -0.2133
 2219SOL    HW216627   0.960   6.359   1.962 -0.6867  1.3370 -0.4158
 2220SOL     OW16628   2.008   0.351   2.546  0.2937 -0.1294  0.4315
 2220SOL    HW116629   2.039   0.298   2.467 -0.4090 -0.1000  0.1334
 2220SOL    HW216630   1.997   0.290   2.625 -1.3256 -0.5949 -0.1278
 2221SOL     OW16631   4.429   2.078   0.207  0.4715 -0.3959 -0.0411
 2221SOL    HW116632   4.481   2.074   0.122 -2.0759 -0.4592 -1.6398
 2221SOL    HW216633   4.352   2.141   0.196 -0.7015 -1.4806  1.7468
 2222SOL     OW16634   4.374   3.265   1.194  0.3644  0.2608  0.2904
 2222SOL    HW116635   4.345   3.192   1.132  1.7320 -0.5146  0.5285
 2222SOL    HW216636   4.390   3.226   1.285  0.4583  0.9862  0.5859
 2223SOL     OW16637   4.847   4.445   2.297  0.0453  0.6517 -0.5798
 2223SOL    HW116638   4.878   4.513   2.363 -1.1439  0.2031  0.4584
 2223SOL    HW216639   4.925   4.415   2.241  0.7980  1.9762 -0.2520
 2224SOL     OW16640   3.697   3.910   0.992  0.7931 -0.4766  0.0075
 2224SOL    HW116641   3.618   3.866   0.951 -0.0963 -0.7540  2.0042
 2224SOL    HW216642   3.690   3.909   1.091  2.2714  1.3792  0.1851
 2225SOL     OW16643   1.039   6.712   0.711 -1.1885 -0.4155 -0.0862
 2225SOL    HW116644   1.030   6.658   0.627  0.0594  0.2362 -0.6502
 2225SOL    HW216645   1.134   6.712   0.740 -1.3903  0.5014  0.5678
 2226SOL     OW16646   3.116   4.439   2.515  0.2418 -0.2494  0.3108
 2226SOL    HW116647   3.022   4.470   2.503  0.1734 -0.6254 -0.1138
 2226SOL    HW216648   3.177   4.492   2.457  0.3283  0.1646  0.7719
 2227SOL     OW16649   0.499   6.379   0.889  0.2898  0.0253 -0.1489
 2227SOL    HW116650   0.443   6.371   0.971  1.7867  0.9371  0.9977
 2227SOL    HW216651   0.445   6.353   0.809 -1.5044  0.0958  1.0019
 2228SOL     OW16652   1.328   7.969   2.402 -0.0630  0.5343 -0.1684
 2228SOL    HW116653   1.331   7.993   2.499 -3.3549 -1.2183  0.4329
 2228SOL    HW216654   1.307   7.872   2.392  0.3971  0.6551 -2.6490
 2229SOL     OW16655   2.309   0.688   0.905 -0.0241  0.5868  0.0979
 2229SOL    HW116656   2.354   0.774   0.928  1.0979 -0.2405  0.9970
 2229SOL    HW216657   2.231   0.674   0.966 -2.2461  2.5329 -2.1269
 2230SOL     OW16658   0.828   5.458   2.286  0.2248  0.1147 -0.9604
 2230SOL    HW116659   0.837   5.364   2.253  0.1179 -0.1889 -0.1364
 2230SOL    HW216660   0.739   5.495   2.258 -0.1490 -0.3776 -0.4514
 2231SOL     OW16661   0.559   6.021   1.791 -0.1048  0.2956  0.3947
 2231SOL    HW116662   0.560   6.111   1.747 -0.3233  0.2662  0.3319
 2231SOL    HW216663   0.472   6.007   1.837  0.3391  0.5652  1.3290
 2232SOL     OW16664   2.553   2.972   1.660  0.2462 -0.0278  0.2739
 2232SOL    HW116665   2.455   2.980   1.679  0.2895 -0.3037  0.6203
 2232SOL    HW216666   2.576   2.876   1.642  0.2574  0.1904 -0.8922
 2233SOL     OW16667   3.195   9.967   1.890 -0.0642 -0.0170 -0.3461
 2233SOL    HW116668   3.096   9.976   1.884 -0.1828 -0.2138  1.1567
 2233SOL    HW216669   3.238  10.056   1.872 -0.5574  0.2507 -0.2080
 2234SOL     OW16670   2.617   2.290   2.258 -0.3966 -0.3342 -0.2403
 2234SOL    HW116671   2.708   2.249   2.261  0.1624  0.9192  0.0806
 2234SOL    HW216672   2.602   2.331   2.168  0.0143  0.9381  0.2642
 2235SOL     OW16673   0.940   3.013   2.446 -0.0961 -0.7042 -0.1184
 2235SOL    HW116674   0.864   3.064   2.405  0.0943  0.1439  0.5622
 2235SOL    HW216675   0.995   3.075   2.502  1.0225 -1.3335 -0.4903
 2236SOL     OW16676   3.626   4.842   2.388  0.2243 -0.1281 -0.3391
 2236SOL    HW116677   3.656   4.839   2.483 -1.7840 -0.2344  0.3088
 2236SOL    HW216678   3.558   4.915   2.377  1.7558  1.0988 -2.0988
 2237SOL     OW16679   2.865   0.836   0.527 -0.1853 -0.5011  0.3099
 2237SOL    HW116680   2.913   0.891   0.459  0.7616  0.9658  2.0877
 2237SOL    HW216681   2.844   0.746   0.490  0.9854  0.0101 -1.6404
 2238SOL     OW16682   1.204   7.164   1.076 -0.0023  0.2444  0.3137
 2238SOL    HW116683   1.127   7.227   1.080  0.0416  0.4035 -1.0973
 2238SOL    HW216684   1.208   7.111   1.161 -1.0326  0.9622  0.8219
 2239SOL     OW16685   2.845   6.378   0.228 -0.6934  0.1068  0.2209
 2239SOL    HW116686   2.884   6.295   0.189 -0.8833 -0.3720  1.0550
 2239SOL    HW216687   2.911   6.453   0.218 -0.3636 -0.2323 -0.1652
 2240SOL     OW16688   1.172   2.398   1.017  0.1274 -0.3914  0.2090
 2240SOL    HW116689   1.137   2.377   0.926 -1.4839 -0.1808  0.7556
 2240SOL    HW216690   1.151   2.493   1.040  0.1187 -0.5712  0.9711
 2241SOL     OW16691   2.612   2.084   1.315 -0.8128  0.1306 -0.4600
 2241SOL    HW116692   2.656   2.013   1.370 -1.0584  0.3524  0.0232
 2241SOL    HW216693   2.665   2.169   1.322 -0.9596  0.2174 -0.4031
 2242SOL     OW16694   3.125   8.293   0.411  0.1840  0.3876 -0.7140
 2242SOL    HW116695   3.108   8.235   0.331  0.1196 -1.3580  0.5494
 2242SOL    HW216696   3.040   8.337   0.439  0.3755  1.7168 -2.1174
 2243SOL     OW16697   2.424   8.279   1.086  0.0220 -0.1509 -0.2422
 2243SOL    HW116698   2.430   8.276   1.185 -2.6639 -1.5834 -0.0576
 2243SOL    HW216699   2.443   8.372   1.053  0.1657  0.5008  1.6586
 2244SOL     OW16700   3.793   4.632   1.559 -0.0601  0.0099 -0.2655
 2244SOL    HW116701   3.882   4.673   1.538 -1.3884  2.2776 -1.6267
 2244SOL    HW216702   3.739   4.696   1.614 -1.1730 -1.0239 -0.1439
 2245SOL     OW16703   2.616   4.672   1.668  0.0072 -0.2265  0.5179
 2245SOL    HW116704   2.712   4.688   1.645  0.1272 -0.8806  0.5570
 2245SOL    HW216705   2.570   4.760   1.682 -0.3640  0.3008 -3.3928
 2246SOL     OW16706   0.631   6.435   0.618 -0.1018  0.4495  0.2745
 2246SOL    HW116707   0.650   6.504   0.689  1.2738 -0.0573  0.4250
 2246SOL    HW216708   0.544   6.390   0.637  0.7786 -0.4587  2.2992
 2247SOL     OW16709   3.570   0.914   1.891 -0.0090  0.7042  0.0793
 2247SOL    HW116710   3.533   0.847   1.955  1.4386  1.7014  2.0027
 2247SOL    HW216711   3.538   1.005   1.915  0.2750  1.0552 -0.8396
 2248SOL     OW16712   1.952   6.921   1.368 -0.9861  0.3616 -0.0457
 2248SOL    HW116713   1.982   6.826   1.355  1.0043  1.0589 -0.7102
 2248SOL    HW216714   1.869   6.937   1.314  0.3660 -0.1820 -2.3755
 2249SOL     OW16715   2.122   2.028   1.946 -0.0704  0.5669  0.4087
 2249SOL    HW116716   2.214   2.035   1.986 -0.0582  0.2645  0.4352
 2249SOL    HW216717   2.095   1.932   1.941 -0.5701  0.6872  0.8116
 2250SOL     OW16718   2.198   0.524   1.651  0.7063 -0.5286 -0.3234
 2250SOL    HW116719   2.295   0.504   1.641  0.7704 -0.2249 -0.2937
 2250SOL    HW216720   2.179   0.552   1.745  0.4608 -1.3182 -0.1303
 2251SOL     OW16721   4.415   3.596   0.433 -0.6275  1.0151 -0.0076
 2251SOL    HW116722   4.403   3.572   0.529 -0.0003  0.2746 -0.1145
 2251SOL    HW216723   4.474   3.676   0.425  1.3528 -0.4024  0.1156
 2252SOL     OW16724   3.149   2.994   0.036 -0.5010 -0.1668  0.3722
 2252SOL    HW116725   3.192   2.934  -0.031 -1.5116  1.1412 -1.4895
 2252SOL    HW216726   3.209   3.005   0.115  0.9370 -1.3192 -0.5448
 2253SOL     OW16727   2.943   4.839   1.291  0.5829  0.1659  0.3003
 2253SOL    HW116728   2.861   4.895   1.300  0.0584 -0.6886  0.9369
 2253SOL    HW216729   3.022   4.897   1.273  0.4264  1.3066  3.1161
 2254SOL     OW16730   3.385   4.876   1.134 -0.1087 -0.6954 -0.5316
 2254SOL    HW116731   3.465   4.853   1.079 -0.3785 -1.8345 -0.4464
 2254SOL    HW216732   3.376   4.811   1.209  0.0508  0.6351  0.6529
 2255SOL     OW16733   3.878   3.725   1.540  0.0918  0.4719  0.5066
 2255SOL    HW116734   3.836   3.682   1.460 -0.9633  3.2745 -0.5035
 2255SOL    HW216735   3.971   3.689   1.551  0.2871  0.0731 -2.0398
 2256SOL     OW16736   4.208   4.129   1.870  0.6680 -0.1900 -0.0119
 2256SOL    HW116737   4.141   4.082   1.929  0.3478 -0.7917 -0.8459
 2256SOL    HW216738   4.289   4.151   1.924 -0.8702  2.1105  1.4801
 2257SOL     OW16739   3.109   0.908   0.740  0.3548 -0.3131  0.1866
 2257SOL    HW116740   3.145   0.871   0.655 -0.7522  1.8855 -1.2917
 2257SOL    HW216741   3.067   0.997   0.723 -1.2880 -0.5186  2.7417
 2258SOL     OW16742   0.721   7.315   0.866  0.0829 -0.3208 -0.6371
 2258SOL    HW116743   0.636   7.319   0.814 -0.1827  0.2595 -0.1610
 2258SOL    HW216744   0.755   7.407   0.883 -0.3717 -0.4429  1.0782
 2259SOL     OW16745   1.637   1.789   2.190  0.5445  0.2171  0.6052
 2259SOL    HW116746   1.722   1.833   2.219  1.2598 -0.3253 -0.6620
 2259SOL    HW216747   1.628   1.794   2.091 -1.0236  0.4693  0.7414
 2260SOL     OW16748   1.366   5.245   0.276 -0.6836 -0.6467 -0.0806
 2260SOL    HW116749   1.399   5.230   0.369  2.2306 -1.4000 -1.1784
 2260SOL    HW216750   1.364   5.158   0.226 -0.5169 -0.0157 -1.2192
 2261SOL     OW16751   2.270   5.404   0.333 -0.3501  0.2922 -0.0645
 2261SOL    HW116752   2.355   5.391   0.281 -0.5374  0.6875 -0.4760
 2261SOL    HW216753   2.220   5.318   0.336  0.2849 -0.0598  0.5734
 2262SOL     OW16754   3.042   2.095   1.975 -0.2271 -0.6549 -0.1159
 2262SOL    HW116755   2.986   2.070   1.896 -0.0416  1.0403 -0.8190
 2262SOL    HW216756   2.998   2.169   2.026  0.3093 -0.8089  0.5848
 2263SOL     OW16757   0.093   5.457   1.753 -0.2746 -0.0775  0.7250
 2263SOL    HW116758   0.044   5.515   1.819 -1.3271 -0.7788  0.5750
 2263SOL    HW216759   0.042   5.455   1.667 -0.4446 -1.5367  0.8521
 2264SOL     OW16760   1.603   1.806   1.916  0.1522  0.2765  0.4690
 2264SOL    HW116761   1.580   1.893   1.872  0.2039  0.4532  0.7940
 2264SOL    HW216762   1.563   1.731   1.864 -0.6804  0.5473  0.7154
 2265SOL     OW16763   2.112   0.209   2.345  0.3495 -0.2623 -0.7383
 2265SOL    HW116764   2.158   0.230   2.258 -0.1711 -0.3933 -1.0508
 2265SOL    HW216765   2.173   0.158   2.404  0.6763 -0.2584 -1.0721
 2266SOL     OW16766   0.430   6.078   0.452 -0.2990  0.4370  0.1682
 2266SOL    HW116767   0.523   6.042   0.446 -0.6397 -0.1740 -1.6691
 2266SOL    HW216768   0.364   6.003   0.449 -0.9010  0.9666 -0.1743
 2267SOL     OW16769   3.799   1.013   2.560  0.2276 -0.1292  0.5617
 2267SOL    HW116770   3.893   0.984   2.540  0.6006  1.6671 -0.3543
 2267SOL    HW216771   3.742   0.999   2.479 -0.0465 -0.1564  0.7568
 2268SOL     OW16772   1.568   2.696   0.054 -0.5556 -0.1946 -0.6183
 2268SOL    HW116773   1.571   2.636  -0.026  1.2982  0.3353 -0.9816
 2268SOL    HW216774   1.570   2.791   0.024 -0.3871  0.0120  0.0464
 2269SOL     OW16775   3.508   5.137   2.334 -0.1302 -0.7416 -0.2007
 2269SOL    HW116776   3.569   5.215   2.341  2.3290 -2.5770 -0.3264
 2269SOL    HW216777   3.438   5.142   2.405  0.1824  1.3848 -0.0248
 2270SOL     OW16778   4.974   2.248   0.144  0.0484  0.1138 -0.0198
 2270SOL    HW116779   4.876   2.240   0.124  0.2508 -3.6415  0.0744
 2270SOL    HW216780   5.025   2.247   0.058  0.1499 -1.4956  0.0388
 2271SOL     OW16781   1.568   9.610   1.410 -0.3102 -0.1582 -0.3853
 2271SOL    HW116782   1.647   9.648   1.362  2.3966 -3.2687  1.4050
 2271SOL    HW216783   1.559   9.653   1.500 -1.2392  0.8341 -0.9424
 2272SOL     OW16784   1.017   6.294   2.524  0.3581  0.1691  0.1213
 2272SOL    HW116785   0.939   6.326   2.470 -0.1730 -1.0815  0.1238
 2272SOL    HW216786   1.091   6.267   2.463 -0.1288 -0.9536  0.0127
 2273SOL     OW16787   9.275   5.196   2.311 -0.0184  0.0984 -0.0055
 2273SOL    HW116788   9.179   5.192   2.285  0.4269  1.2666 -1.9385
 2273SOL    HW216789   9.327   5.130   2.256  0.1943 -1.0585  1.5504
 2274SOL     OW16790   3.726   3.389   2.556 -0.0070  0.1916 -0.3604
 2274SOL    HW116791   3.699   3.417   2.648 -1.4486  0.4854 -0.8641
 2274SOL    HW216792   3.825   3.399   2.547 -0.1072  2.2985  0.4363
 2275SOL     OW16793   3.910   2.119   0.997  0.2837 -0.2209 -0.3035
 2275SOL    HW116794   3.832   2.169   1.035  0.4550 -0.3368  0.2039
 2275SOL    HW216795   3.915   2.028   1.038  0.2018 -0.5215 -0.9414
 2276SOL     OW16796   2.645   7.410   1.746  0.2460  0.0821 -0.1398
 2276SOL    HW116797   2.678   7.462   1.667  1.4030  0.1878  0.4189
 2276SOL    HW216798   2.580   7.341   1.714 -2.2366  2.5664 -0.7897
 2277SOL     OW16799   1.258   1.799   0.283 -0.8223 -0.1250 -0.0420
 2277SOL    HW116800   1.261   1.826   0.379  0.1426  0.6727 -0.2879
 2277SOL    HW216801   1.191   1.854   0.234  0.0204  0.7512 -0.2143
 2278SOL     OW16802   2.811   6.892   1.377  0.0611  0.1624 -0.3395
 2278SOL    HW116803   2.888   6.956   1.371  0.6355 -0.7022 -2.7653
 2278SOL    HW216804   2.843   6.804   1.412 -0.0919  0.1738 -0.1657
 2279SOL     OW16805   4.716   2.293   0.092 -0.7699  0.2394 -0.3614
 2279SOL    HW116806   4.648   2.229   0.055 -0.5092 -1.4163  1.9275
 2279SOL    HW216807   4.680   2.335   0.175  0.4471  0.4472  0.0577
 2280SOL     OW16808   2.603   4.217   0.868 -0.4004  0.7256  0.0686
 2280SOL    HW116809   2.622   4.230   0.966 -1.6549  1.4737  0.2335
 2280SOL    HW216810   2.548   4.294   0.835 -0.1728  0.3626 -1.1793
 2281SOL     OW16811   3.031   4.246   2.269 -0.3777 -0.0087  0.3023
 2281SOL    HW116812   3.006   4.277   2.177  0.0129  0.1883  0.2609
 2281SOL    HW216813   3.066   4.324   2.321  0.0567 -0.2623  0.3927
 2282SOL     OW16814   1.540   9.607   0.015 -0.0506  0.0226 -0.5386
 2282SOL    HW116815   1.619   9.624   0.075 -0.5541 -1.7557  0.6559
 2282SOL    HW216816   1.501   9.695  -0.013  1.3803  0.9105  0.1507
 2283SOL     OW16817   3.352   0.363   0.384  0.3038  0.5211  0.7684
 2283SOL    HW116818   3.323   0.457   0.366  2.5559  1.4873  1.9937
 2283SOL    HW216819   3.346   0.344   0.482  0.8672 -0.2555  0.6632
 2284SOL     OW16820   3.070   0.256   0.094  0.1145  0.0292  0.0275
 2284SOL    HW116821   3.034   0.261   0.001 -0.9234 -1.5679  0.3216
 2284SOL    HW216822   3.170   0.252   0.090  0.1512  1.4016 -0.9396
 2285SOL     OW16823   3.363   2.111   2.495  0.5732  0.1033 -0.0753
 2285SOL    HW116824   3.330   2.201   2.524 -0.1818  0.2553 -1.3643
 2285SOL    HW216825   3.285   2.051   2.481  1.0261 -0.4477 -0.2123
 2286SOL     OW16826   0.464   4.615   0.416 -0.1329  0.6425 -0.2176
 2286SOL    HW116827   0.393   4.645   0.480 -0.5333 -2.1168  0.7212
 2286SOL    HW216828   0.429   4.616   0.323 -1.2558 -0.2226  0.1910
 2287SOL     OW16829   2.113   5.176   2.362  0.6427  0.5915  0.3251
 2287SOL    HW116830   2.083   5.141   2.451  0.8640  0.6059  0.4067
 2287SOL    HW216831   2.178   5.111   2.321  0.4630  0.5346  0.1290
 2288SOL     OW16832   1.074   4.630   0.181 -0.1789 -0.0366  0.0878
 2288SOL    HW116833   1.023   4.552   0.144 -0.3528 -0.7789  1.7908
 2288SOL    HW216834   1.170   4.623   0.155  0.0413 -1.5005  1.2109
 2289SOL     OW16835   2.226   0.782   1.481  0.4654  0.7081 -0.0018
 2289SOL    HW116836   2.133   0.799   1.513  1.2441  1.7776  1.7825
 2289SOL    HW216837   2.274   0.727   1.549  1.5112  1.1950 -0.3456
 2290SOL     OW16838   1.395   4.952   0.048 -0.0319  0.1349  0.7461
 2290SOL    HW116839   1.468   5.014   0.073 -0.8276  0.4624  2.3564
 2290SOL    HW216840   1.324   4.954   0.119 -1.9698  0.4137 -1.1430
 2291SOL     OW16841   0.394   5.081   1.559 -0.4748  0.2798  0.4457
 2291SOL    HW116842   0.329   5.092   1.484 -0.0790  0.6930  0.1655
 2291SOL    HW216843   0.347   5.039   1.637 -0.4908 -1.6985 -0.5996
 2292SOL     OW16844   2.738   2.188   0.880  0.2694  0.6831 -0.7776
 2292SOL    HW116845   2.792   2.260   0.836 -1.3316  1.7242 -1.0971
 2292SOL    HW216846   2.643   2.194   0.848  0.2711 -2.0465 -1.3563
 2293SOL     OW16847   3.866   0.725   1.358 -0.2917  0.3921  0.4118
 2293SOL    HW116848   3.869   0.824   1.342 -1.7291  0.1968 -1.3618
 2293SOL    HW216849   3.950   0.683   1.324 -0.0382  0.9194  0.3826
 2294SOL     OW16850   1.217   5.002   0.253  0.1715 -1.0838 -0.3483
 2294SOL    HW116851   1.140   5.057   0.219 -0.8814 -1.5184  1.3152
 2294SOL    HW216852   1.198   4.972   0.346  2.9804 -0.0174  0.6221
 2295SOL     OW16853   9.805   4.989   0.424 -0.3762 -0.6863 -0.0392
 2295SOL    HW116854   9.791   5.020   0.518  0.5587 -1.7684  0.4679
 2295SOL    HW216855   9.738   4.917   0.402 -1.1736  0.1965 -0.5029
 2296SOL     OW16856   1.605   9.668   1.676 -0.0156  0.2048  0.0937
 2296SOL    HW116857   1.611   9.575   1.711 -0.9012  1.2769  3.2425
 2296SOL    HW216858   1.673   9.726   1.721  0.5982  1.0990 -1.9042
 2297SOL     OW16859   3.353   3.065   0.260  0.3132 -0.1292  0.2249
 2297SOL    HW116860   3.291   3.070   0.338 -0.0418  0.3110 -0.0876
 2297SOL    HW216861   3.372   3.157   0.226 -0.2751 -0.3838 -0.8062
 2298SOL     OW16862   1.780   6.426   0.748 -0.6598  0.3641  0.0370
 2298SOL    HW116863   1.824   6.363   0.683 -0.2614 -0.5844  1.2236
 2298SOL    HW216864   1.780   6.518   0.709  2.6264  0.4479  0.0963
 2299SOL     OW16865   9.282   5.139   1.709 -0.1325 -0.2259  0.4148
 2299SOL    HW116866   9.294   5.132   1.808 -2.8161 -0.6443  0.7407
 2299SOL    HW216867   9.279   5.235   1.683  2.3784 -0.1040  0.4773
 2300SOL     OW16868   2.102   8.176   0.282  0.2935  0.3137  0.0250
 2300SOL    HW116869   2.059   8.236   0.349 -2.6735  0.5547 -1.9743
 2300SOL    HW216870   2.073   8.081   0.299 -1.6382  0.5575 -1.7084
 2301SOL     OW16871   9.082   4.338   0.692  0.6443 -0.2371  0.0541
 2301SOL    HW116872   9.127   4.256   0.657 -0.5989  0.1020 -2.4565
 2301SOL    HW216873   8.999   4.312   0.741  0.3647 -0.5053 -0.5520
 2302SOL     OW16874   2.279   7.249   1.188  0.5027  0.0779 -0.0830
 2302SOL    HW116875   2.218   7.209   1.256 -1.0561  0.7331 -1.0653
 2302SOL    HW216876   2.271   7.349   1.191 -0.6771  0.0653 -2.2098
 2303SOL     OW16877   1.983   1.668   0.006 -0.1915  0.1647 -0.2625
 2303SOL    HW116878   1.947   1.761  -0.002  0.4992  0.2908 -2.0031
 2303SOL    HW216879   2.078   1.665  -0.025 -0.1835 -1.1043 -0.1630
 2304SOL     OW16880   3.164   3.414   1.600 -0.2422  0.2233 -0.1020
 2304SOL    HW116881   3.220   3.483   1.555 -2.2731  0.7568 -1.8854
 2304SOL    HW216882   3.133   3.347   1.532 -0.5026 -0.9523  1.1389
 2305SOL     OW16883   8.953   4.936   2.184 -0.0968 -0.0076  0.1919
 2305SOL    HW116884   8.962   4.941   2.084 -2.1007 -0.5671 -0.0395
 2305SOL    HW216885   9.012   4.863   2.219  0.5941  0.1713 -0.5798
 2306SOL     OW16886   0.928   3.395   2.446  0.5286  0.0956 -0.4271
 2306SOL    HW116887   0.954   3.483   2.487  0.3210 -0.3474  0.6560
 2306SOL    HW216888   0.833   3.400   2.413  0.0283 -0.1787  0.9434
 2307SOL     OW16889   1.913   7.089   1.872 -0.3266 -0.0866 -0.1474
 2307SOL    HW116890   1.953   6.997   1.869 -0.9064 -0.3710  0.5583
 2307SOL    HW216891   1.966   7.146   1.935 -0.0810  0.0043 -0.4378
 2308SOL     OW16892   2.519   7.791   2.048 -0.0046  0.1289  0.3524
 2308SOL    HW116893   2.520   7.800   1.949  2.7860 -2.2584  0.1011
 2308SOL    HW216894   2.429   7.759   2.078 -0.8110  0.7062 -1.4018
 2309SOL     OW16895   1.932   7.773   1.156 -0.3296 -0.3201 -0.7133
 2309SOL    HW116896   1.972   7.718   1.083 -0.9364 -1.9608  0.1442
 2309SOL    HW216897   1.857   7.722   1.198  0.0710  0.5321  1.1126
 2310SOL     OW16898   0.843   6.222   0.695  0.0789  0.2973 -0.0620
 2310SOL    HW116899   0.770   6.268   0.645 -0.1599 -1.2101 -1.1604
 2310SOL    HW216900   0.806   6.187   0.781 -0.0791  0.9956  0.1516
 2311SOL     OW16901   4.030   3.437   0.585  0.2108  0.1405  0.1830
 2311SOL    HW116902   4.057   3.529   0.557  0.5300 -0.1023 -0.3082
 2311SOL    HW216903   4.111   3.384   0.608 -0.0327  0.2613  1.3383
 2312SOL     OW16904   2.043   0.930   0.966 -0.3932 -0.1231 -0.1235
 2312SOL    HW116905   2.124   0.984   0.985 -1.5631  1.6521 -0.0657
 2312SOL    HW216906   2.036   0.855   1.032  0.3906  0.6064  0.7963
 2313SOL     OW16907   2.700   2.010   0.370 -0.3373  0.4818 -0.4373
 2313SOL    HW116908   2.696   1.970   0.278  0.0109 -1.2070  0.2746
 2313SOL    HW216909   2.608   2.041   0.396 -0.6202  0.1052 -0.9678
 2314SOL     OW16910   4.595   1.426   1.148  0.2311 -0.1537  0.1178
 2314SOL    HW116911   4.621   1.388   1.060  1.0333  1.5295 -0.3909
 2314SOL    HW216912   4.542   1.358   1.199 -0.9576 -0.8559 -1.9889
 2315SOL     OW16913   1.546   8.798   0.045  0.6603 -0.9063 -0.0487
 2315SOL    HW116914   1.540   8.816  -0.053 -0.4626 -0.0902  0.1611
 2315SOL    HW216915   1.631   8.837   0.081 -0.1190  1.0195 -0.2433
 2316SOL     OW16916   1.868   7.577   2.389  0.2747 -0.7921  0.6118
 2316SOL    HW116917   1.838   7.488   2.356 -0.2911 -1.1468  2.0567
 2316SOL    HW216918   1.859   7.645   2.316 -0.1232 -1.7330 -0.2140
 2317SOL     OW16919   1.149   3.033   0.852  0.0696  0.2587  0.2514
 2317SOL    HW116920   1.181   3.083   0.772  0.9928  0.0731  0.4964
 2317SOL    HW216921   1.064   2.985   0.830  1.6305 -1.8591 -1.4083
 2318SOL     OW16922   2.926   3.366   1.759  0.1027 -0.3065 -0.0402
 2318SOL    HW116923   2.996   3.400   1.696 -0.4546  1.0738  0.0661
 2318SOL    HW216924   2.922   3.267   1.753 -0.4880 -0.1539 -2.7730
 2319SOL     OW16925   1.881   6.498   2.544 -0.5728 -0.3889  0.1003
 2319SOL    HW116926   1.823   6.421   2.516  0.9855 -1.6858  0.4108
 2319SOL    HW216927   1.903   6.553   2.464 -0.9415 -0.7836 -0.2792
 2320SOL     OW16928   4.244   3.237   0.659  0.0054  0.0388 -0.6853
 2320SOL    HW116929   4.311   3.235   0.586  0.2759  1.4255 -0.5022
 2320SOL    HW216930   4.279   3.292   0.735 -0.6668 -0.5761  0.0810
 2321SOL     OW16931   3.474   3.961   0.704 -0.0576  0.5290  0.0728
 2321SOL    HW116932   3.424   3.962   0.618  1.0274  0.2255 -0.5752
 2321SOL    HW216933   3.495   4.055   0.732  0.2267  0.5965 -0.3715
 2322SOL     OW16934   0.680   5.992   0.459 -0.2648 -0.3302  0.2099
 2322SOL    HW116935   0.653   5.908   0.412  0.4602 -1.0543  1.0650
 2322SOL    HW216936   0.692   6.065   0.392  1.9379 -1.6590 -0.9327
 2323SOL     OW16937   3.863   2.479   0.633  0.2195 -0.4749 -0.4841
 2323SOL    HW116938   3.830   2.466   0.539  1.3242 -1.7052 -0.7153
 2323SOL    HW216939   3.854   2.393   0.683  1.4620 -0.3590 -0.0458
 2324SOL     OW16940   9.562   4.841   0.796 -0.0466 -0.4503 -0.0771
 2324SOL    HW116941   9.486   4.838   0.731  0.8039 -0.3688 -1.1043
 2324SOL    HW216942   9.564   4.930   0.840  1.3409  0.7273 -2.4079
 2325SOL     OW16943   1.561   6.489   2.391 -0.0515  0.3453  0.4724
 2325SOL    HW116944   1.533   6.497   2.486  1.0389  2.0525  0.6715
 2325SOL    HW216945   1.543   6.575   2.343  0.3134 -0.1710 -0.6251
 2326SOL     OW16946   2.208   1.860   0.618  0.2151  0.3461 -0.2422
 2326SOL    HW116947   2.303   1.865   0.586 -0.0788 -0.5310 -1.2614
 2326SOL    HW216948   2.156   1.798   0.559 -1.1075  1.1808  0.0402
 2327SOL     OW16949   2.831   0.285   2.004  0.3485 -0.2034  0.0414
 2327SOL    HW116950   2.814   0.357   1.937  0.0046 -0.5386 -0.2313
 2327SOL    HW216951   2.789   0.310   2.091  1.2962  0.5067  0.3054
 2328SOL     OW16952   0.371   5.115   1.056 -0.2264  0.7118 -0.5511
 2328SOL    HW116953   0.340   5.178   0.984 -1.4045 -0.0471 -0.7289
 2328SOL    HW216954   0.461   5.079   1.033 -0.3842  0.8481 -1.3985
 2329SOL     OW16955   1.285   1.714   1.879 -0.1755 -0.0076 -0.3349
 2329SOL    HW116956   1.361   1.649   1.868  0.9194  0.8574  1.7158
 2329SOL    HW216957   1.237   1.694   1.965 -1.0600  0.6784 -0.6649
 2330SOL     OW16958   2.365   3.490   1.333  0.1411 -0.6320  0.1526
 2330SOL    HW116959   2.295   3.547   1.376 -2.2966 -0.8895 -3.2843
 2330SOL    HW216960   2.359   3.397   1.370 -1.0525 -0.5308  0.2264
 2331SOL     OW16961   1.223   7.691   0.443 -0.4590 -0.0960  0.2434
 2331SOL    HW116962   1.317   7.680   0.473  0.1284  0.0242 -1.5193
 2331SOL    HW216963   1.161   7.652   0.512  0.9292 -1.4302  0.7550
 2332SOL     OW16964   4.572   3.119   0.219  0.1700 -0.0691  0.1023
 2332SOL    HW116965   4.539   3.025   0.218  0.3870 -0.1479  0.3173
 2332SOL    HW216966   4.651   3.126   0.281 -0.2522  0.3869  0.5951
 2333SOL     OW16967   3.426   2.090   0.406  0.1054  0.3591 -0.6129
 2333SOL    HW116968   3.461   1.996   0.399 -1.2318 -0.0439 -2.2220
 2333SOL    HW216969   3.502   2.154   0.414  0.9961 -1.0424  3.3688
 2334SOL     OW16970   1.747   2.182   1.288  0.3054 -0.1129  0.2990
 2334SOL    HW116971   1.708   2.249   1.225  1.2770 -1.1296 -1.3982
 2334SOL    HW216972   1.772   2.229   1.373 -2.4185  0.9760  0.5632
 2335SOL     OW16973   1.521   3.018   1.560  0.8218  0.3411  0.1283
 2335SOL    HW116974   1.545   2.933   1.607 -4.0135 -0.5248  1.3238
 2335SOL    HW216975   1.546   3.096   1.618 -1.6843 -0.5952  2.5412
 2336SOL     OW16976   1.216   4.383   2.197  0.3964  0.3207  0.1487
 2336SOL    HW116977   1.224   4.381   2.296  0.2531  1.2945  0.1877
 2336SOL    HW216978   1.161   4.462   2.170  0.0609 -0.1934 -0.6793
 2337SOL     OW16979   2.403   7.405   0.302  0.1750 -0.0313 -0.0543
 2337SOL    HW116980   2.395   7.338   0.376  2.3802  0.0110  0.2527
 2337SOL    HW216981   2.408   7.357   0.215 -0.0692 -0.1928  0.0215
 2338SOL     OW16982   1.669   5.504   1.637  0.1521  0.1285 -0.0347
 2338SOL    HW116983   1.571   5.488   1.649  0.4450 -0.5952  1.5822
 2338SOL    HW216984   1.711   5.424   1.592  0.1075  0.1712 -0.1526
 2339SOL     OW16985   0.137   4.203   1.594  0.2393 -0.2099  0.3040
 2339SOL    HW116986   0.235   4.193   1.576  0.5060  1.5530  0.6907
 2339SOL    HW216987   0.121   4.287   1.646 -1.4281 -0.7577  0.7039
 2340SOL     OW16988   2.848   2.820   1.426  0.4864  0.0565 -0.0209
 2340SOL    HW116989   2.842   2.914   1.459 -0.2334  0.0012  0.0229
 2340SOL    HW216990   2.942   2.788   1.433  0.7311  0.7664 -0.0177
 2341SOL     OW16991   1.148   3.418   0.120  0.3935 -0.1431 -0.3361
 2341SOL    HW116992   1.154   3.491   0.053 -2.1659 -0.7188 -1.2439
 2341SOL    HW216993   1.122   3.333   0.075  1.5075 -1.2225  0.9823
 2342SOL     OW16994   3.683   3.251   1.147  0.1080  0.8686  0.2349
 2342SOL    HW116995   3.732   3.337   1.136 -0.4927  1.5304  2.4994
 2342SOL    HW216996   3.744   3.183   1.190  0.0685  0.6760 -0.0132
 2343SOL     OW16997   2.003   2.284   0.969 -0.0624  0.3880  0.3364
 2343SOL    HW116998   1.948   2.366   0.981  1.4021  1.5012 -0.4347
 2343SOL    HW216999   1.962   2.227   0.897 -0.6129  0.8528  0.2803
 2344SOL     OW17000   0.764   5.473   0.766 -0.2002  0.5176  0.0046
 2344SOL    HW117001   0.708   5.534   0.710 -0.4512  0.2412 -0.0457
 2344SOL    HW217002   0.705   5.410   0.816  0.0290  0.7101  0.5215
 2345SOL     OW17003   3.433   9.652   1.996 -0.3314 -0.0154 -0.6227
 2345SOL    HW117004   3.411   9.556   2.014 -0.4888  0.4281  1.8248
 2345SOL    HW217005   3.420   9.672   1.899 -1.1290 -2.2487 -1.0086
 2346SOL     OW17006   2.573   4.414   1.791  0.3563 -0.1343 -0.1663
 2346SOL    HW117007   2.606   4.509   1.793 -0.6495  0.2440 -1.1504
 2346SOL    HW217008   2.610   4.368   1.710  0.4654 -0.4455  0.0610
 2347SOL     OW17009   1.046   5.584   2.356  0.1447  0.4035 -0.5201
 2347SOL    HW117010   1.021   5.677   2.329 -1.0360  0.2466 -0.0372
 2347SOL    HW217011   0.966   5.525   2.346  0.6764 -0.3925 -0.0708
 2348SOL     OW17012   1.928   1.845   2.151 -0.1507 -0.5518 -0.3128
 2348SOL    HW117013   1.896   1.857   2.057  1.9365 -0.6226 -1.0630
 2348SOL    HW217014   1.982   1.761   2.157  3.8908  1.8858 -0.2695
 2349SOL     OW17015   4.175   3.853   0.261 -0.4121 -0.0311 -0.1992
 2349SOL    HW117016   4.263   3.897   0.243  0.0102 -0.7044  0.1990
 2349SOL    HW217017   4.122   3.849   0.176  1.1604 -2.3030 -1.1225
 2350SOL     OW17018   1.467   3.192   0.957 -0.4735 -0.7165  0.2361
 2350SOL    HW117019   1.521   3.112   0.932 -2.3108 -1.8602 -0.2007
 2350SOL    HW217020   1.403   3.167   1.030  0.4500  0.9486  1.6635
 2351SOL     OW17021   1.502   6.339   0.988  0.4890  0.3629 -0.6562
 2351SOL    HW117022   1.561   6.322   0.909  0.5259  0.1978 -0.5939
 2351SOL    HW217023   1.424   6.278   0.986  0.3226  0.5777 -0.7343
 2352SOL     OW17024   2.670   9.893   0.826 -0.2066  0.1730 -0.2708
 2352SOL    HW117025   2.763   9.855   0.825  0.6322  2.0974  1.2270
 2352SOL    HW217026   2.647   9.924   0.918 -2.0273  0.5098 -0.8084
 2353SOL     OW17027   1.052   7.380   2.448  0.0955  0.0173 -0.3634
 2353SOL    HW117028   1.077   7.329   2.530  0.4566 -0.2495 -0.6395
 2353SOL    HW217029   1.127   7.440   2.420  0.3557 -0.6335 -1.0725
 2354SOL     OW17030   9.350   5.725   0.932  0.0781  0.2322  0.0224
 2354SOL    HW117031   9.295   5.788   0.986  0.8404  1.3320 -0.4766
 2354SOL    HW217032   9.293   5.681   0.862 -0.7830 -0.7576  1.3148
 2355SOL     OW17033   1.325   9.782   1.101  0.2386  0.3591  0.2150
 2355SOL    HW117034   1.290   9.739   1.018 -0.6679  0.4526  0.5471
 2355SOL    HW217035   1.350   9.712   1.167  0.8708  0.2865 -0.0932
 2356SOL     OW17036   2.852   6.029   0.658  0.4322 -0.0853 -0.1048
 2356SOL    HW117037   2.905   6.101   0.702 -0.5131  0.1018  0.7651
 2356SOL    HW217038   2.767   6.015   0.709 -1.0584  0.6664 -2.2910
 2357SOL     OW17039   1.150   5.651   0.355  0.3469 -0.0533  0.2869
 2357SOL    HW117040   1.189   5.743   0.352 -1.8905  0.9258  0.1585
 2357SOL    HW217041   1.050   5.657   0.344 -0.2293 -2.1944  3.5794
 2358SOL     OW17042   1.786   3.674   0.129 -0.1223 -0.4581 -0.7630
 2358SOL    HW117043   1.696   3.715   0.111 -0.0230 -0.8734 -2.3382
 2358SOL    HW217044   1.779   3.611   0.206 -1.0341 -0.0028 -0.4592
 2359SOL     OW17045   3.976   1.284   2.612 -0.0837 -0.0191  0.2834
 2359SOL    HW117046   3.986   1.377   2.576 -1.0921  0.6184  1.5812
 2359SOL    HW217047   3.917   1.231   2.551  0.8979  0.0483 -0.7205
 2360SOL     OW17048   1.423   4.882   2.408 -0.1187 -0.1179  0.6150
 2360SOL    HW117049   1.421   4.911   2.503  0.1666  1.7402  0.0669
 2360SOL    HW217050   1.505   4.917   2.364 -0.9580  0.2489 -0.6911
 2361SOL     OW17051   2.318   0.067   0.775 -0.7984  0.4495 -0.0267
 2361SOL    HW117052   2.344   0.092   0.869  0.4651  1.4124 -0.6146
 2361SOL    HW217053   2.239   0.006   0.778  0.6116 -1.3735  1.7730
 2362SOL     OW17054   1.642   3.266   1.755  0.0382  0.3910  0.1320
 2362SOL    HW117055   1.575   3.240   1.825  1.4600  0.1410  1.4200
 2362SOL    HW217056   1.670   3.361   1.770  2.3644 -0.4823  1.5952
 2363SOL     OW17057   2.157   7.524   1.213  0.2126 -0.0039  0.4015
 2363SOL    HW117058   2.098   7.530   1.132 -0.4290  0.8440  0.9323
 2363SOL    HW217059   2.231   7.590   1.205 -0.4356  0.7987  0.9814
 2364SOL     OW17060   1.635   6.172   0.544 -0.1573 -0.2387  0.6730
 2364SOL    HW117061   1.604   6.266   0.563  0.4380  0.1544 -0.2869
 2364SOL    HW217062   1.732   6.164   0.563  0.3947  0.0900 -1.9140
 2365SOL     OW17063   1.306   8.696   2.456 -0.6565  0.1452  0.5478
 2365SOL    HW117064   1.391   8.740   2.428 -0.3217 -0.5176  0.5067
 2365SOL    HW217065   1.303   8.690   2.556 -1.0872  1.0109  0.5899
 2366SOL     OW17066   0.284   4.694   0.603 -0.0088 -0.0209  0.1603
 2366SOL    HW117067   0.250   4.706   0.696 -1.9887  1.4470 -0.7318
 2366SOL    HW217068   0.278   4.781   0.553  1.2750 -0.7203 -1.2718
 2367SOL     OW17069   3.563   4.224   0.727  0.0504  0.1814 -0.1947
 2367SOL    HW117070   3.655   4.262   0.740  0.3739 -0.4317 -0.6635
 2367SOL    HW217071   3.520   4.269   0.649  0.9876 -1.4161 -1.6538
 2368SOL     OW17072   1.736   7.280   1.817  0.0951  0.2063 -0.6988
 2368SOL    HW117073   1.712   7.285   1.914  0.6077 -1.2880 -0.4699
 2368SOL    HW217074   1.805   7.208   1.804 -0.6293 -0.2307 -2.2839
 2369SOL     OW17075   1.946   7.436   0.715 -0.4845 -0.1466 -0.0176
 2369SOL    HW117076   1.887   7.362   0.747  0.4520 -0.1143  1.8749
 2369SOL    HW217077   2.014   7.399   0.651 -0.4359 -0.8246  0.4166
 2370SOL     OW17078   3.175   8.709   0.340 -0.2283 -0.4410  0.4986
 2370SOL    HW117079   3.192   8.652   0.420 -1.1117 -1.3358  0.0677
 2370SOL    HW217080   3.166   8.651   0.259 -0.0571  0.3992 -0.1367
 2371SOL     OW17081   2.873   3.717   1.803 -0.4182  0.2882 -0.4927
 2371SOL    HW117082   2.774   3.725   1.808 -0.4405 -0.4109  0.4775
 2371SOL    HW217083   2.914   3.808   1.809 -0.9953  0.5804 -0.9242
 2372SOL     OW17084   1.817   3.436   1.496 -0.2568 -0.5290 -0.7452
 2372SOL    HW117085   1.871   3.362   1.536 -1.4538 -0.0346  1.8651
 2372SOL    HW217086   1.843   3.523   1.538 -1.1045  0.0964 -1.4880
 2373SOL     OW17087   4.794   3.650   0.903  0.4603  0.2243  0.1269
 2373SOL    HW117088   4.819   3.586   0.975 -0.8098  0.5944  0.9150
 2373SOL    HW217089   4.871   3.710   0.883  0.7274  0.3033  1.3793
 2374SOL     OW17090   1.791   9.148   0.702 -0.2538 -0.6360 -0.5389
 2374SOL    HW117091   1.714   9.164   0.640 -1.3367 -0.9177  0.6859
 2374SOL    HW217092   1.833   9.060   0.681 -0.5522 -0.6870 -0.9365
 2375SOL     OW17093   2.692   1.954   1.976 -0.0055  0.3210 -0.0689
 2375SOL    HW117094   2.663   1.860   1.993 -2.5587  0.7259 -1.9348
 2375SOL    HW217095   2.727   1.994   2.061 -0.5880 -1.7091  1.1515
 2376SOL     OW17096   2.959   0.275   2.469  0.3420  0.4567  0.4740
 2376SOL    HW117097   2.968   0.210   2.393 -0.1695  0.6279  0.2661
 2376SOL    HW217098   2.863   0.283   2.495  0.7005 -1.1202  2.4736
 2377SOL     OW17099   0.309   5.351   0.249 -0.0236 -0.0085 -0.1920
 2377SOL    HW117100   0.252   5.387   0.176  0.7888 -0.0991 -0.8800
 2377SOL    HW217101   0.345   5.261   0.223 -0.9970 -0.7509  0.9788
 2378SOL     OW17102   3.489   3.333   2.124  0.0660 -0.5931  0.3955
 2378SOL    HW117103   3.529   3.283   2.048 -0.8096 -1.2203  0.3396
 2378SOL    HW217104   3.547   3.322   2.205  1.9857  1.6036 -0.6192
 2379SOL     OW17105   2.130   7.629   1.472  0.1559  0.2511 -0.0358
 2379SOL    HW117106   2.139   7.593   1.379 -0.0012  0.5627 -0.1732
 2379SOL    HW217107   2.033   7.639   1.495  0.1991  0.7875 -0.0805
 2380SOL     OW17108   1.457   7.067   0.544 -0.2352 -0.0868  0.2274
 2380SOL    HW117109   1.463   7.072   0.643  1.9303 -2.5470  0.2751
 2380SOL    HW217110   1.483   7.156   0.504  2.9706 -0.2454  1.7651
 2381SOL     OW17111   2.776   2.559   1.375 -0.2077  0.4076 -0.4381
 2381SOL    HW117112   2.782   2.651   1.413 -1.7739  0.4463 -0.2586
 2381SOL    HW217113   2.811   2.560   1.281  0.6894  0.9732 -0.1080
 2382SOL     OW17114   4.093   1.867   0.398  0.2902  0.5463 -0.2803
 2382SOL    HW117115   3.997   1.849   0.419  0.8728 -1.5028  0.7179
 2382SOL    HW217116   4.133   1.787   0.352  1.4890  1.4294 -0.8078
 2383SOL     OW17117   2.572   3.360   0.818  0.3514 -0.0364  0.2123
 2383SOL    HW117118   2.660   3.332   0.778 -0.4225 -1.0708 -0.8138
 2383SOL    HW217119   2.523   3.418   0.753 -0.7602 -1.4358 -0.2184
 2384SOL     OW17120   4.747   4.169   0.319 -0.3005 -0.1634  0.1445
 2384SOL    HW117121   4.700   4.240   0.371 -1.4788 -0.7012 -0.1535
 2384SOL    HW217122   4.690   4.086   0.318  0.8041 -0.9285  0.0373
 2385SOL     OW17123   2.321   1.863   1.609  0.5899 -0.5343 -0.1841
 2385SOL    HW117124   2.229   1.823   1.616  0.3688  0.0526  0.2800
 2385SOL    HW217125   2.336   1.895   1.515 -0.3859  1.0357  0.1745
 2386SOL     OW17126   1.811   3.017   2.365  0.3507 -0.7799 -0.2420
 2386SOL    HW117127   1.787   3.114   2.360  2.2608 -0.2477  0.4132
 2386SOL    HW217128   1.887   2.998   2.303 -0.1987 -1.9319 -0.5775
 2387SOL     OW17129   0.627   6.032   1.351 -0.4472 -0.6425  0.6220
 2387SOL    HW117130   0.605   6.076   1.264 -1.7140 -0.2917  1.1150
 2387SOL    HW217131   0.723   6.050   1.373 -1.1030  2.5795  1.1656
 2388SOL     OW17132   2.436   8.434   2.567  0.0226  0.0900 -0.1759
 2388SOL    HW117133   2.359   8.370   2.567  0.4389 -0.4144  0.3642
 2388SOL    HW217134   2.402   8.527   2.556 -0.6237 -0.1789 -0.4787
 2389SOL     OW17135   3.000   0.488   0.245  0.2443  0.6838 -1.0328
 2389SOL    HW117136   3.081   0.547   0.249  0.9170 -0.3142  0.3103
 2389SOL    HW217137   3.019   0.407   0.190  0.5315 -0.0876  0.1768
 2390SOL     OW17138   1.429   5.032   0.481  0.0263  0.5025  0.5198
 2390SOL    HW117139   1.460   5.119   0.520  1.5552  0.0350  0.3537
 2390SOL    HW217140   1.506   4.984   0.441 -0.6093 -1.4317  1.5582
 2391SOL     OW17141   0.731   6.940   1.265 -0.4516 -0.2231  0.5574
 2391SOL    HW117142   0.636   6.969   1.279  0.1685  1.4775  1.5260
 2391SOL    HW217143   0.772   6.994   1.192  0.2646  0.2849  1.3140
 2392SOL     OW17144   1.616   3.247   0.603 -0.4186 -0.2951  0.4731
 2392SOL    HW117145   1.600   3.254   0.505 -3.8591 -0.9748  0.9425
 2392SOL    HW217146   1.660   3.331   0.635 -0.7903  0.6173 -1.3532
 2393SOL     OW17147   3.615   0.901   2.286  0.5704 -0.6791  0.1197
 2393SOL    HW117148   3.615   0.829   2.216  0.0975 -1.2424  0.6931
 2393SOL    HW217149   3.653   0.985   2.248 -1.6142 -0.3551 -1.4773
 2394SOL     OW17150   2.015   6.819   1.935 -0.3143  0.2444  0.3595
 2394SOL    HW117151   2.049   6.726   1.923  0.9326  0.9184 -1.5330
 2394SOL    HW217152   2.091   6.882   1.947 -1.2076  0.8330  3.5075
 2395SOL     OW17153   2.797   4.953   1.839 -0.0879  0.2475 -0.3720
 2395SOL    HW117154   2.830   4.976   1.747  2.0393  0.5856  0.4633
 2395SOL    HW217155   2.738   5.028   1.872  0.0461  0.6426 -1.0105
 2396SOL     OW17156   2.492   5.311   1.633  0.5219  0.5911  0.4442
 2396SOL    HW117157   2.440   5.265   1.561 -0.0101  1.1420  0.4630
 2396SOL    HW217158   2.428   5.350   1.700  0.8802  2.3588 -0.1974
 2397SOL     OW17159   2.394   2.854   1.172 -0.6115  0.5078  0.8402
 2397SOL    HW117160   2.427   2.879   1.081 -1.2006  0.2372  0.5484
 2397SOL    HW217161   2.383   2.755   1.178 -0.0347  0.4725  1.3913
 2398SOL     OW17162   9.447   4.102   2.262 -0.2385 -0.4117  0.3703
 2398SOL    HW117163   9.452   4.028   2.195 -0.1707  0.2866 -0.4140
 2398SOL    HW217164   9.535   4.151   2.264 -0.9562  0.9463 -0.6493
 2399SOL     OW17165   2.051   3.164   2.264  0.2489  0.5852 -0.3782
 2399SOL    HW117166   2.055   3.070   2.231 -1.2081  0.4054 -0.0787
 2399SOL    HW217167   2.016   3.223   2.191 -0.9220  0.5282  0.1162
 2400SOL     OW17168   4.479   1.145   0.747  0.0111 -0.3851 -0.4171
 2400SOL    HW117169   4.571   1.180   0.727  0.4235 -0.2961  1.5138
 2400SOL    HW217170   4.412   1.203   0.702  0.8658  0.2668 -0.8836
 2401SOL     OW17171   2.160   5.293   1.055  0.2256  0.4898 -0.6139
 2401SOL    HW117172   2.168   5.222   1.126 -0.1322 -0.2448 -1.2992
 2401SOL    HW217173   2.196   5.379   1.091 -0.0318  0.1530  0.5007
 2402SOL     OW17174   1.889   0.068   2.534  0.3469  0.2906 -0.6585
 2402SOL    HW117175   1.863   0.109   2.447  0.7302  0.6060 -0.6269
 2402SOL    HW217176   1.861   0.128   2.609 -1.5361 -0.7787 -0.4613
 2403SOL     OW17177   2.109   4.413   1.040 -0.7137 -0.5456  0.4148
 2403SOL    HW117178   2.015   4.429   1.072 -0.2699  0.1068  1.4114
 2403SOL    HW217179   2.161   4.366   1.111 -0.2578 -0.8454 -0.1135
 2404SOL     OW17180   9.812   3.919   2.404  0.2400  0.0733 -0.4936
 2404SOL    HW117181   9.899   3.872   2.391 -0.5369 -2.1644  1.8673
 2404SOL    HW217182   9.829   4.012   2.437  1.7251 -0.6944  0.9702
 2405SOL     OW17183   2.809   3.073   1.561  0.0313  0.2058  0.8605
 2405SOL    HW117184   2.714   3.074   1.532  0.1834 -2.4075  0.1824
 2405SOL    HW217185   2.821   3.008   1.636  1.1823  0.8784  1.2739
 2406SOL     OW17186   1.593   2.765   1.129 -0.5314  0.4166  0.3216
 2406SOL    HW117187   1.550   2.829   1.193 -2.8920  2.2530 -2.9417
 2406SOL    HW217188   1.523   2.707   1.089  0.7299  0.1861 -1.5851
 2407SOL     OW17189   1.886   1.464   1.475  0.1213 -0.0429  0.0185
 2407SOL    HW117190   1.809   1.414   1.514  0.3990 -0.4132  0.0846
 2407SOL    HW217191   1.881   1.459   1.375  0.4841 -0.6995  0.0352
 2408SOL     OW17192   3.506   2.662   0.024 -0.1943  0.6299 -0.3672
 2408SOL    HW117193   3.547   2.625  -0.060 -0.5896 -0.1959 -0.1983
 2408SOL    HW217194   3.570   2.650   0.100 -0.3345  0.2916 -0.3071
 2409SOL     OW17195   4.822   3.143   0.340 -0.5433 -0.4361  0.8003
 2409SOL    HW117196   4.895   3.195   0.296 -1.1170  0.0487  0.4192
 2409SOL    HW217197   4.857   3.053   0.367  0.3880  0.0441  1.2400
 2410SOL     OW17198   1.308   1.398   1.159  0.4931 -0.2214  0.4193
 2410SOL    HW117199   1.286   1.495   1.159 -1.7977 -0.7193 -1.0139
 2410SOL    HW217200   1.381   1.380   1.093 -0.5316  0.2066 -0.8310
 2411SOL     OW17201   9.029   4.663   0.399  0.0812 -0.1368 -0.3868
 2411SOL    HW117202   9.093   4.617   0.337  0.6545 -0.3843  0.3706
 2411SOL    HW217203   8.989   4.742   0.353  1.6576  0.5823 -0.5833
 2412SOL     OW17204   9.340   5.355   0.351  0.2547  0.1412 -0.6075
 2412SOL    HW117205   9.244   5.338   0.375  0.1375 -0.5181 -1.5462
 2412SOL    HW217206   9.393   5.370   0.435 -1.2441  3.6919 -0.1850
 2413SOL     OW17207   2.535   9.658   0.253 -0.5593 -0.4812 -0.3492
 2413SOL    HW117208   2.635   9.661   0.256 -0.5695 -0.0738 -0.3014
 2413SOL    HW217209   2.501   9.737   0.202 -0.7462 -2.1270 -2.8560
 2414SOL     OW17210   2.903   0.123   0.873 -0.2196 -0.5681 -0.2190
 2414SOL    HW117211   2.848   0.095   0.795 -0.7694  0.7005 -0.2882
 2414SOL    HW217212   3.000   0.114   0.849 -0.3546 -2.9162 -0.0500
 2415SOL     OW17213   0.369   6.730   0.683  0.4743 -0.3055  0.2008
 2415SOL    HW117214   0.467   6.716   0.676  0.3942 -0.1990 -1.2475
 2415SOL    HW217215   0.349   6.828   0.680  0.3285 -0.3199  0.6297
 2416SOL     OW17216   1.383   3.944   0.794 -0.0024 -0.0241 -0.4479
 2416SOL    HW117217   1.368   3.980   0.886  1.9707 -2.0097  0.6911
 2416SOL    HW217218   1.427   4.013   0.737  0.6458  0.5174  0.7140
 2417SOL     OW17219   3.697   1.371   0.915 -0.7584 -0.8025  0.0470
 2417SOL    HW117220   3.765   1.444   0.915 -0.1721 -1.3491 -0.7699
 2417SOL    HW217221   3.649   1.371   1.003 -0.7792  0.5667  0.0511
 2418SOL     OW17222   2.707   8.482   0.967  0.5659 -0.7887 -0.3544
 2418SOL    HW117223   2.684   8.408   0.905  1.5018 -1.1106 -0.3243
 2418SOL    HW217224   2.734   8.445   1.056  2.4910 -0.5046 -0.7955
 2419SOL     OW17225   0.680   3.337   2.277 -0.0005  0.7461 -0.7180
 2419SOL    HW117226   0.584   3.361   2.263 -0.6469 -0.9424  0.5711
 2419SOL    HW217227   0.688   3.278   2.357  2.1840  1.2401 -0.5398
 2420SOL     OW17228   1.920   0.279   1.907  0.1563  0.0460 -0.4329
 2420SOL    HW117229   1.878   0.207   1.962 -0.3720 -0.7416 -1.8611
 2420SOL    HW217230   1.849   0.328   1.856  0.8004 -0.3168 -1.7032
 2421SOL     OW17231   1.572   6.623   0.877 -0.0636  0.1472 -0.1187
 2421SOL    HW117232   1.614   6.586   0.793  0.7824  1.1515 -0.1554
 2421SOL    HW217233   1.591   6.561   0.953 -0.5163 -0.5858 -0.5880
 2422SOL     OW17234   1.719   1.237   1.039 -0.3396 -1.0175 -0.6346
 2422SOL    HW117235   1.797   1.293   1.069  0.5895 -2.9858  0.7816
 2422SOL    HW217236   1.647   1.296   1.004  0.7987  1.0245  0.3596
 2423SOL     OW17237   2.870   6.113   1.955 -0.7485 -0.4693 -0.5747
 2423SOL    HW117238   2.783   6.093   1.909 -1.2229 -0.4263  0.2935
 2423SOL    HW217239   2.902   6.032   2.003 -0.6440 -0.2939 -0.3482
 2424SOL     OW17240   1.264   9.734   0.678 -0.2671  1.0257 -0.0911
 2424SOL    HW117241   1.206   9.673   0.732  0.1977  1.6632  1.1463
 2424SOL    HW217242   1.210   9.813   0.648 -0.6920  0.3557 -1.1177
 2425SOL     OW17243   1.601   1.777   2.454  0.6101 -0.0279 -0.1881
 2425SOL    HW117244   1.602   1.691   2.505 -1.8308  0.2179  0.2919
 2425SOL    HW217245   1.627   1.759   2.359 -1.0224 -1.4923 -0.3771
 2426SOL     OW17246   0.180   3.768   0.939 -0.1096 -0.1377  0.5212
 2426SOL    HW117247   0.180   3.775   1.039 -0.2921 -0.6338  0.5580
 2426SOL    HW217248   0.111   3.701   0.911  0.6235 -0.7341  0.1169
 2427SOL     OW17249   0.243   6.333   1.044 -0.0761 -0.0609  0.2604
 2427SOL    HW117250   0.178   6.385   1.100  0.9087  2.4878 -0.9354
 2427SOL    HW217251   0.213   6.333   0.949 -0.3377 -2.1662  0.3162
 2428SOL     OW17252   4.598   4.196   2.557 -0.0447 -0.2555  0.1459
 2428SOL    HW117253   4.631   4.200   2.463 -0.2811 -0.0030  0.0714
 2428SOL    HW217254   4.504   4.228   2.560  0.2685  0.6473  0.6073
 2429SOL     OW17255   0.097   5.788   0.183 -0.4797 -0.6718 -0.0466
 2429SOL    HW117256   0.057   5.720   0.245 -0.8684  0.6158  1.1473
 2429SOL    HW217257   0.028   5.858   0.162  0.3987  0.2223  0.0375
 2430SOL     OW17258   4.585   4.420   2.348  0.1261  0.4661  0.1341
 2430SOL    HW117259   4.581   4.436   2.447 -0.7256 -1.4907  0.4313
 2430SOL    HW217260   4.680   4.410   2.320  0.3078 -0.0444  0.9237
 2431SOL     OW17261   2.423   6.553   0.272  0.3923 -0.0432 -0.3265
 2431SOL    HW117262   2.367   6.635   0.286  0.2896 -0.1879  0.1107
 2431SOL    HW217263   2.424   6.498   0.356 -0.5936 -1.1372 -1.0091
 2432SOL     OW17264   1.529   7.323   1.652  0.4357 -0.9001 -0.0127
 2432SOL    HW117265   1.610   7.286   1.697  2.2951  1.5363 -1.2213
 2432SOL    HW217266   1.544   7.420   1.633 -3.0636 -0.2121  0.3804
 2433SOL     OW17267   1.227   2.525   0.621  0.2218  0.3149  0.1259
 2433SOL    HW117268   1.175   2.452   0.666 -1.1183  0.6587 -0.8088
 2433SOL    HW217269   1.311   2.543   0.672 -0.7906  0.0472  1.9331
 2434SOL     OW17270   2.201   1.866   0.032  0.2477  0.0976 -0.2085
 2434SOL    HW117271   2.216   1.961   0.005 -1.5670  0.6810  0.7863
 2434SOL    HW217272   2.240   1.806  -0.038  2.0690  1.5370 -0.4950
 2435SOL     OW17273   2.483   6.817   0.938 -0.0997 -0.2592  0.1366
 2435SOL    HW117274   2.547   6.848   1.008 -0.6548  0.5875  0.2820
 2435SOL    HW217275   2.390   6.814   0.976 -0.0322 -2.3913  0.2044
 2436SOL     OW17276   2.232   5.053   2.015 -0.1062  0.2441 -0.2230
 2436SOL    HW117277   2.252   5.010   1.927  1.1556 -2.2347  1.1988
 2436SOL    HW217278   2.133   5.069   2.022 -0.3914 -0.8033 -1.5487
 2437SOL     OW17279   1.850   0.561   1.336 -0.5349  0.3187 -0.2258
 2437SOL    HW117280   1.771   0.533   1.391 -0.5604  0.0764 -0.3861
 2437SOL    HW217281   1.933   0.550   1.390 -0.7438  2.0157  0.4824
 2438SOL     OW17282   4.772   2.101   0.570  0.3710  0.1886  0.8806
 2438SOL    HW117283   4.756   2.005   0.547  2.1748 -0.4061  2.0492
 2438SOL    HW217284   4.849   2.135   0.516  1.1771  0.3334  2.1253
 2439SOL     OW17285   2.173   8.586   1.119 -0.0650 -0.3667  0.1482
 2439SOL    HW117286   2.263   8.590   1.076 -0.7723  0.2531 -1.2820
 2439SOL    HW217287   2.185   8.577   1.218  1.5871  1.7538  0.1880
 2440SOL     OW17288   1.571   2.527   2.443 -0.2963 -0.6738  0.7215
 2440SOL    HW117289   1.536   2.546   2.352  0.0846 -0.6619  0.5788
 2440SOL    HW217290   1.546   2.434   2.470 -1.1118 -0.3975  0.9334
 2441SOL     OW17291   2.629   1.666   2.011  0.0623  0.5577  0.0439
 2441SOL    HW117292   2.587   1.689   1.923 -1.9295  1.1211  1.1263
 2441SOL    HW217293   2.725   1.641   1.996  0.6391  3.7163 -1.8991
 2442SOL     OW17294   4.327   3.388   0.878 -0.1813 -0.5803 -0.2051
 2442SOL    HW117295   4.351   3.321   0.948  1.6994  1.4073  1.0959
 2442SOL    HW217296   4.298   3.473   0.921 -0.4538  0.1843 -1.8533
 2443SOL     OW17297   1.372   8.748   2.059 -0.0635  0.4249 -0.6038
 2443SOL    HW117298   1.449   8.749   2.122 -0.8355  0.1108  0.3555
 2443SOL    HW217299   1.406   8.742   1.965  1.0505 -0.4217 -0.1534
 2444SOL     OW17300   1.491   2.274   2.490 -0.1440 -0.0738  0.3367
 2444SOL    HW117301   1.477   2.236   2.581  0.4115 -2.1852 -0.4173
 2444SOL    HW217302   1.403   2.295   2.448 -0.4931 -1.0076  0.5932
 2445SOL     OW17303   2.176   2.509   1.028  0.2669  0.0201 -0.8650
 2445SOL    HW117304   2.150   2.603   1.008 -0.2382  0.3788  1.4050
 2445SOL    HW217305   2.098   2.449   1.013 -0.9571  0.6443  2.5029
 2446SOL     OW17306   0.883   5.245   0.397  0.2045 -0.3207 -0.1195
 2446SOL    HW117307   0.798   5.287   0.366 -0.4811 -0.2907  1.7371
 2446SOL    HW217308   0.924   5.302   0.469  1.1138 -1.0171 -0.0787
 2447SOL     OW17309   0.842   3.712   1.769 -0.5608 -0.7835 -0.3847
 2447SOL    HW117310   0.923   3.696   1.826  0.8383  2.2004 -1.4028
 2447SOL    HW217311   0.858   3.675   1.677 -0.3034 -0.1013 -0.6162
 2448SOL     OW17312   1.111   4.682   2.134 -0.0090  0.3553 -0.2690
 2448SOL    HW117313   1.095   4.768   2.182  0.7461  0.1245  0.3881
 2448SOL    HW217314   1.208   4.673   2.112 -0.0200 -0.5314  0.0373
 2449SOL     OW17315   4.122   2.542   0.515  0.2037 -0.3292 -0.2279
 2449SOL    HW117316   4.098   2.625   0.464 -1.4821 -0.9095 -0.4340
 2449SOL    HW217317   4.082   2.547   0.607  0.7278 -0.5864  0.0151
 2450SOL     OW17318   2.105   5.946   0.475  0.4010 -0.7053  0.2655
 2450SOL    HW117319   2.092   6.038   0.438 -0.5193 -0.5864  0.8637
 2450SOL    HW217320   2.103   5.950   0.575 -1.5787 -1.6397  0.2816
 2451SOL     OW17321   9.950   5.258   1.161  0.8176 -0.3249 -0.7284
 2451SOL    HW117322  10.011   5.338   1.158 -0.5793  0.7395 -1.4385
 2451SOL    HW217323   9.899   5.252   1.075  1.0384 -2.1127 -0.7501
 2452SOL     OW17324   3.210   2.478   0.914 -0.2097  0.7295  0.1443
 2452SOL    HW117325   3.185   2.470   0.818 -1.3095  0.1261  0.4651
 2452SOL    HW217326   3.149   2.421   0.969  0.4504  1.0121  1.1962
 2453SOL     OW17327   2.415   0.340   1.717 -0.1946 -0.6310  0.0757
 2453SOL    HW117328   2.375   0.410   1.776  0.8450 -1.1818  1.4719
 2453SOL    HW217329   2.377   0.251   1.741  0.2898 -0.8656 -0.0303
 2454SOL     OW17330   2.708   7.398   2.152  0.5966  0.0113  0.2944
 2454SOL    HW117331   2.692   7.496   2.136 -1.0081 -0.3540 -0.3872
 2454SOL    HW217332   2.754   7.358   2.072 -1.3246 -0.3775 -0.6484
 2455SOL     OW17333   9.245   3.705   1.278 -0.2498 -0.3640  0.2072
 2455SOL    HW117334   9.301   3.757   1.214 -0.2473 -0.1648  0.3718
 2455SOL    HW217335   9.257   3.742   1.370  0.0290 -0.8744  0.3812
 2456SOL     OW17336   1.482   1.348   0.957  0.2195  0.0835  0.0307
 2456SOL    HW117337   1.470   1.443   0.928  1.0802  0.1649 -0.0893
 2456SOL    HW217338   1.468   1.287   0.879 -0.5506  0.0962  0.1580
 2457SOL     OW17339   4.569   4.485   0.006  0.0560 -0.1342  0.2713
 2457SOL    HW117340   4.619   4.475   0.092 -0.8744  0.1019  0.8425
 2457SOL    HW217341   4.471   4.480   0.023 -0.1544  0.5197 -0.6926
 2458SOL     OW17342   0.891   6.711   1.218  0.4551  0.2257 -0.3277
 2458SOL    HW117343   0.833   6.790   1.238  0.5391  0.3796 -0.6942
 2458SOL    HW217344   0.985   6.741   1.203  0.2279  0.2275 -1.8708
 2459SOL     OW17345   4.629   3.274   0.668 -0.8380  0.2836  0.1043
 2459SOL    HW117346   4.644   3.319   0.756  0.0737  1.0130 -0.4070
 2459SOL    HW217347   4.613   3.177   0.682  1.3517  0.0191  0.9408
 2460SOL     OW17348   1.834   6.765   1.693  0.1104  0.6559  0.0348
 2460SOL    HW117349   1.783   6.679   1.682  0.9390  0.4358 -2.3439
 2460SOL    HW217350   1.772   6.835   1.728 -1.4127 -0.0844 -1.0924
 2461SOL     OW17351   4.036   1.548   2.552 -0.2506 -0.0036  0.0184
 2461SOL    HW117352   4.071   1.630   2.598 -0.9141  1.1130 -1.4220
 2461SOL    HW217353   3.941   1.564   2.524 -0.7986 -1.7420  0.8241
 2462SOL     OW17354   2.914   9.768   0.857  0.2242  0.2044  0.2144
 2462SOL    HW117355   2.911   9.746   0.955  0.5789  1.9825  0.6569
 2462SOL    HW217356   2.996   9.730   0.817 -0.0620 -0.7774  0.5531
 2463SOL     OW17357   3.732   2.123   0.574 -0.3366 -0.6496 -1.0666
 2463SOL    HW117358   3.792   2.166   0.641 -2.9729 -0.3196  1.1384
 2463SOL    HW217359   3.758   2.027   0.562  1.9962  0.0562 -1.7955
 2464SOL     OW17360   4.127   1.614   2.097 -0.2427  1.0437 -0.3080
 2464SOL    HW117361   4.146   1.558   2.017  0.2230  1.8140 -0.7465
 2464SOL    HW217362   4.132   1.558   2.180 -0.0385  0.3926 -0.7594
 2465SOL     OW17363   2.771   5.067   1.478  0.1558 -0.5538  0.1653
 2465SOL    HW117364   2.780   5.166   1.464 -0.5437 -0.2858  1.4520
 2465SOL    HW217365   2.861   5.027   1.489  0.4340 -0.0005 -0.0619
 2466SOL     OW17366   4.382   2.795   1.703 -0.5539 -0.1141 -0.4219
 2466SOL    HW117367   4.404   2.792   1.605 -0.9043  0.3128 -0.5197
 2466SOL    HW217368   4.306   2.733   1.722  1.0208 -1.9630  0.0043
 2467SOL     OW17369   3.774   4.177   1.998  0.9532  0.0650  0.1129
 2467SOL    HW117370   3.867   4.142   1.997  1.1660  0.6472 -1.2163
 2467SOL    HW217371   3.746   4.196   2.093  2.3043  0.2500  0.4790
 2468SOL     OW17372   0.232   6.462   0.158 -0.2824  0.0750  0.2546
 2468SOL    HW117373   0.318   6.484   0.204 -0.7979 -1.1959  1.8448
 2468SOL    HW217374   0.251   6.445   0.061  1.1532  0.5036  0.4410
 2469SOL     OW17375   4.345   2.282   1.289 -0.6850 -0.2408  0.0736
 2469SOL    HW117376   4.342   2.237   1.378 -0.9523  0.8175  0.6035
 2469SOL    HW217377   4.413   2.237   1.232  0.3794 -0.1374  1.2433
 2470SOL     OW17378   2.963   9.623   1.603 -0.4275 -0.1887  0.0457
 2470SOL    HW117379   2.955   9.607   1.702 -1.3998 -1.3015 -0.1995
 2470SOL    HW217380   3.056   9.652   1.581 -0.2079  0.0643  1.2942
 2471SOL     OW17381   2.948   4.358   0.779  0.3211  0.6752  0.1007
 2471SOL    HW117382   2.867   4.369   0.835  0.3556 -2.2639  0.8271
 2471SOL    HW217383   3.030   4.362   0.837  0.4560 -0.4934  0.0049
 2472SOL     OW17384   4.015   3.759   1.868 -0.1736 -0.0029 -0.5766
 2472SOL    HW117385   3.988   3.827   1.937  2.1674  2.6215 -2.1380
 2472SOL    HW217386   3.944   3.754   1.797 -0.3210  0.9240 -0.5089
 2473SOL     OW17387   2.789   0.084   1.124 -0.3190 -0.1074 -0.3031
 2473SOL    HW117388   2.805   0.087   1.025 -0.5138  1.7700 -0.2861
 2473SOL    HW217389   2.871   0.051   1.170 -0.6563 -2.2278 -1.1806
 2474SOL     OW17390   2.029   7.418   0.077 -0.7091  0.6184  0.2736
 2474SOL    HW117391   2.097   7.389   0.144 -1.0300  1.9876  1.2275
 2474SOL    HW217392   1.958   7.471   0.124 -2.1420 -0.3316 -0.7940
 2475SOL     OW17393   3.891   3.091   1.206 -0.4948 -0.1351 -0.2696
 2475SOL    HW117394   3.939   3.099   1.118 -2.3586 -1.3956 -1.4409
 2475SOL    HW217395   3.949   3.044   1.272  0.7630  0.4466 -0.9379
 2476SOL     OW17396   1.343   6.833   0.438 -0.5222  0.2278 -0.2202
 2476SOL    HW117397   1.360   6.932   0.446  0.2569  0.1044 -0.3251
 2476SOL    HW217398   1.430   6.784   0.439 -0.9828 -0.5868  1.5584
 2477SOL     OW17399   1.999   0.574   0.771 -0.0051 -0.2535 -0.6424
 2477SOL    HW117400   2.043   0.663   0.778  1.3004 -1.0737  2.4701
 2477SOL    HW217401   1.928   0.565   0.840 -0.4423 -1.4534 -1.2187
 2478SOL     OW17402   0.934   7.140   0.279  0.1883  0.2920  0.0583
 2478SOL    HW117403   0.964   7.093   0.362  2.0038 -0.5952 -1.0708
 2478SOL    HW217404   0.965   7.089   0.199 -1.5244  1.1491 -1.1798
 2479SOL     OW17405   9.365   4.921   1.946 -0.5343 -0.4927 -0.4194
 2479SOL    HW117406   9.364   5.020   1.952 -0.6963 -0.5430  0.4741
 2479SOL    HW217407   9.361   4.882   2.038 -1.8476 -1.3326 -0.8157
 2480SOL     OW17408   3.570   0.096   0.150  0.2421 -0.2239  0.2884
 2480SOL    HW117409   3.613   0.034   0.085 -1.7530  0.1007 -1.4242
 2480SOL    HW217410   3.486   0.055   0.185  0.6830  0.1050  1.7610
 2481SOL     OW17411   3.126   1.943   2.473  0.1461 -0.3297  0.5200
 2481SOL    HW117412   3.054   1.963   2.406 -1.9145 -0.5325  2.6310
 2481SOL    HW217413   3.170   1.857   2.449 -1.2842 -0.9351  0.0002
 2482SOL     OW17414   9.342   5.195   1.998 -0.1647 -0.0802 -0.2066
 2482SOL    HW117415   9.430   5.242   1.992  0.2512 -0.4922  2.0266
 2482SOL    HW217416   9.271   5.260   2.026  0.0816 -0.3939  1.2019
 2483SOL     OW17417   2.498   2.489   1.429 -0.2263  0.0157 -0.1452
 2483SOL    HW117418   2.485   2.519   1.335  0.4493 -0.1417 -0.2922
 2483SOL    HW217419   2.594   2.496   1.454 -0.2589 -0.7895  0.2386
 2484SOL     OW17420   2.966   0.067   2.285  0.0351 -0.2523  0.6110
 2484SOL    HW117421   2.879   0.079   2.237  1.1922 -1.2484 -1.8194
 2484SOL    HW217422   2.982  -0.030   2.302  0.9651 -0.1275  0.4709
 2485SOL     OW17423   0.149   4.594   1.577  0.5023 -0.0403  1.1353
 2485SOL    HW117424   0.200   4.631   1.499 -1.6216  0.3483 -0.1257
 2485SOL    HW217425   0.154   4.657   1.654  0.8284  0.6122  0.5770
 2486SOL     OW17426   2.171   6.971   0.602  0.1479 -0.1053 -0.8673
 2486SOL    HW117427   2.072   6.982   0.593 -0.3939 -2.9378  0.9634
 2486SOL    HW217428   2.210   7.052   0.647 -1.5415  0.4137 -0.3146
 2487SOL     OW17429   3.853   5.035   2.348  0.2215 -0.1035  0.3302
 2487SOL    HW117430   3.916   4.965   2.382  1.2178 -0.4681 -2.0920
 2487SOL    HW217431   3.761   4.996   2.339  0.1548 -0.2580  1.7076
 2488SOL     OW17432   2.263   9.962   0.323 -0.5865  0.3139 -0.2754
 2488SOL    HW117433   2.322  10.035   0.357 -0.2952  0.2501 -0.6497
 2488SOL    HW217434   2.264   9.885   0.387 -0.9802  0.6775  0.1756
 2489SOL     OW17435   2.985   4.112   1.337 -0.3082 -0.0759  0.2566
 2489SOL    HW117436   2.963   4.035   1.278  0.5535 -0.3042  0.2264
 2489SOL    HW217437   2.914   4.122   1.407 -0.3299 -1.0093  0.3721
 2490SOL     OW17438   3.703   4.841   1.744 -0.2913 -0.1872  0.0809
 2490SOL    HW117439   3.746   4.826   1.833  0.0065  0.6327  0.0815
 2490SOL    HW217440   3.652   4.927   1.746 -0.7665 -0.4567 -0.3615
 2491SOL     OW17441   1.489   4.154   0.661 -0.0721  0.0882  0.1518
 2491SOL    HW117442   1.430   4.123   0.587 -2.1374  0.3452  1.6476
 2491SOL    HW217443   1.584   4.157   0.630 -0.6514 -1.7631 -1.8420
 2492SOL     OW17444   1.697   6.941   1.270  0.0137 -0.8201 -0.1514
 2492SOL    HW117445   1.690   6.946   1.170  1.6763 -1.1026 -0.2892
 2492SOL    HW217446   1.666   7.027   1.309 -0.9584 -0.8180 -0.8855
 2493SOL     OW17447   2.972   0.659   0.778 -0.0756  0.0688  0.0369
 2493SOL    HW117448   3.028   0.599   0.722 -1.1263  0.4319 -1.4441
 2493SOL    HW217449   3.011   0.752   0.777  0.5280 -0.1763  0.8235
 2494SOL     OW17450   0.369   2.987   0.915 -0.0899 -0.2889  0.3283
 2494SOL    HW117451   0.269   2.983   0.912 -0.0759 -1.0441  0.8051
 2494SOL    HW217452   0.398   3.041   0.994 -0.1060 -1.5421  1.2119
 2495SOL     OW17453   1.848   4.083   0.043 -0.4103 -0.6509  0.2264
 2495SOL    HW117454   1.764   4.070   0.096 -0.2256 -0.8027  0.4789
 2495SOL    HW217455   1.914   4.013   0.067 -0.2459 -0.5895 -0.0470
 2496SOL     OW17456   4.422   1.837   2.176  0.0177  0.7657 -0.0377
 2496SOL    HW117457   4.401   1.745   2.210 -2.4929  1.5619  0.6621
 2496SOL    HW217458   4.497   1.832   2.110 -1.1518 -2.0032 -1.2191
 2497SOL     OW17459   2.342   0.565   0.453 -0.1513  0.5229 -0.5096
 2497SOL    HW117460   2.384   0.514   0.378  0.2553  0.5706 -0.3183
 2497SOL    HW217461   2.285   0.504   0.508  0.7344  0.1616  0.0169
 2498SOL     OW17462   3.407   8.374   0.981  0.0545  1.0310 -0.1074
 2498SOL    HW117463   3.329   8.361   1.042 -0.6305  0.6359 -1.0696
 2498SOL    HW217464   3.458   8.288   0.972 -0.5991  0.7528 -1.1338
 2499SOL     OW17465   3.036   5.192   2.324 -0.6931  0.9968  0.0306
 2499SOL    HW117466   2.996   5.281   2.302 -1.2341  0.7027 -0.1772
 2499SOL    HW217467   3.025   5.130   2.246 -0.5737  0.6592  0.2813
 2500SOL     OW17468   1.421   7.718   0.850 -0.6045  0.7791 -0.2963
 2500SOL    HW117469   1.418   7.814   0.825 -2.3979  0.2955 -2.0690
 2500SOL    HW217470   1.446   7.709   0.946  0.7824  2.9398 -0.4292
 2501SOL     OW17471   9.102   5.347   2.015  0.3519  0.3004 -0.4152
 2501SOL    HW117472   9.056   5.349   2.104  0.0567 -1.7179 -0.5016
 2501SOL    HW217473   9.054   5.408   1.952 -0.2867  0.6671  0.4126
 2502SOL     OW17474   2.265   5.668   1.860 -0.3067  0.2597  0.8654
 2502SOL    HW117475   2.346   5.725   1.846 -0.1706  0.2231  1.4573
 2502SOL    HW217476   2.293   5.574   1.881 -0.4857  0.3651  1.5957
 2503SOL     OW17477   4.457   2.785   0.984 -0.0729 -0.0343 -0.6253
 2503SOL    HW117478   4.450   2.726   0.904  1.2619 -1.6644  0.4118
 2503SOL    HW217479   4.366   2.820   1.008 -1.4040 -3.7941  0.2539
 2504SOL     OW17480   1.870   4.823   1.210 -0.0814  0.2947  0.0120
 2504SOL    HW117481   1.946   4.866   1.162  0.2368  1.5643  1.6170
 2504SOL    HW217482   1.784   4.866   1.182  0.0487  0.6602  0.1786
 2505SOL     OW17483   4.674   2.607   1.581 -0.3327 -0.0863 -0.1433
 2505SOL    HW117484   4.598   2.664   1.547  0.1925 -0.7692 -2.5620
 2505SOL    HW217485   4.641   2.514   1.598 -0.4684  0.1161  0.7407
 2506SOL     OW17486   1.913   0.863   1.328 -0.3752  0.1604  0.1538
 2506SOL    HW117487   1.859   0.788   1.368 -1.6347  0.6164 -0.6380
 2506SOL    HW217488   1.927   0.934   1.397 -0.2475 -0.2540  0.5541
 2507SOL     OW17489   3.064   1.114   1.882 -0.2022  0.2300  0.5910
 2507SOL    HW117490   3.026   1.023   1.865  1.4732 -0.6664  1.5107
 2507SOL    HW217491   3.160   1.115   1.853 -0.1379  1.6190  0.8545
 2508SOL     OW17492   9.570   5.089   1.414  0.2770 -0.0418 -0.1461
 2508SOL    HW117493   9.542   5.001   1.374 -0.4403 -0.2413  0.7563
 2508SOL    HW217494   9.660   5.115   1.379  0.7421 -1.4144 -0.0042
 2509SOL     OW17495   2.463   7.848   1.770  0.5488  0.4959 -0.2650
 2509SOL    HW117496   2.415   7.936   1.764  0.7041  0.4974 -1.6091
 2509SOL    HW217497   2.396   7.774   1.770  0.4737  0.5611 -0.5672
 2510SOL     OW17498   1.464   4.318   0.274 -0.2666 -0.3040  0.1703
 2510SOL    HW117499   1.482   4.402   0.326 -0.4920  0.3243 -0.7677
 2510SOL    HW217500   1.431   4.247   0.336  1.3789 -0.1799  1.2309
 2511SOL     OW17501   2.503   6.321   0.933  0.3235 -0.4848 -0.0310
 2511SOL    HW117502   2.591   6.335   0.888  0.9172 -1.2091  0.8865
 2511SOL    HW217503   2.430   6.315   0.864  0.9002  0.7545 -0.7553
 2512SOL     OW17504   9.822   3.674   0.485  0.0466 -0.3417 -0.7480
 2512SOL    HW117505   9.763   3.637   0.413  0.4862 -1.2492 -0.6488
 2512SOL    HW217506   9.801   3.629   0.572  0.1701  0.0750 -0.5013
 2513SOL     OW17507   9.454   5.850   0.329 -0.1331  0.3958 -0.3493
 2513SOL    HW117508   9.546   5.888   0.318  0.5006 -0.3306  2.0246
 2513SOL    HW217509   9.459   5.750   0.330 -1.1728  0.3197 -1.9145
 2514SOL     OW17510   3.207   8.923   0.190 -0.5100 -0.2451  0.5300
 2514SOL    HW117511   3.200   8.841   0.248 -0.1721 -0.2542  0.5636
 2514SOL    HW217512   3.274   8.985   0.230  0.3513 -0.6273 -0.3131
 2515SOL     OW17513   1.814   4.428   2.100 -0.2140 -0.4007  0.8539
 2515SOL    HW117514   1.764   4.515   2.104 -0.4910 -0.6330  2.7282
 2515SOL    HW217515   1.878   4.430   2.023 -2.7723  0.0632 -1.3352
 2516SOL     OW17516   2.572   3.622   2.057 -0.3683  0.4167  0.5227
 2516SOL    HW117517   2.598   3.551   1.992 -0.8230  1.3704 -0.7080
 2516SOL    HW217518   2.625   3.611   2.141 -0.4785 -1.4154  0.3866
 2517SOL     OW17519   2.704   8.310   0.764  0.2026  0.2260 -0.0874
 2517SOL    HW117520   2.678   8.225   0.811  0.1368  0.4999  0.3852
 2517SOL    HW217521   2.762   8.289   0.686  0.9341 -0.1913  0.5592
 2518SOL     OW17522   1.642   7.659   2.037  0.2442 -0.4375  0.2908
 2518SOL    HW117523   1.642   7.571   2.084  2.5962 -1.0051 -0.7077
 2518SOL    HW217524   1.703   7.655   1.957 -1.0236  1.5397 -0.8205
 2519SOL     OW17525   1.818   6.186   0.221  0.4230 -0.4279  0.4103
 2519SOL    HW117526   1.806   6.097   0.264 -3.0705 -0.4817 -0.5241
 2519SOL    HW217527   1.817   6.175   0.121 -2.5777  0.8393  0.2285
 2520SOL     OW17528   1.464   9.627   0.546  0.6292 -0.3958 -0.6662
 2520SOL    HW117529   1.499   9.690   0.477  0.9943  1.9366  1.5690
 2520SOL    HW217530   1.397   9.674   0.604 -0.3740 -2.5685 -0.0062
 2521SOL     OW17531   2.619   3.154   1.884 -0.0480 -0.5353  0.2636
 2521SOL    HW117532   2.549   3.140   1.954 -0.1230 -1.8023 -0.0597
 2521SOL    HW217533   2.594   3.105   1.801  0.7855 -0.2663 -0.1529
 2522SOL     OW17534   2.607   9.396   0.132 -0.0537  0.3839 -0.0117
 2522SOL    HW117535   2.541   9.396   0.207 -0.5795  1.0791 -0.4596
 2522SOL    HW217536   2.682   9.459   0.153  0.1234  0.1072  0.1980
 2523SOL     OW17537   3.734   3.209   0.523  0.6417  0.0465 -0.1193
 2523SOL    HW117538   3.645   3.237   0.560  0.6678 -0.7825  0.5928
 2523SOL    HW217539   3.733   3.111   0.502  0.4446  0.5957 -2.8942
 2524SOL     OW17540   1.309   1.594   0.796 -0.2435  0.0648  0.2284
 2524SOL    HW117541   1.254   1.523   0.841 -0.4972  0.4181  0.4778
 2524SOL    HW217542   1.391   1.612   0.850 -1.2409  1.5022  1.3245
 2525SOL     OW17543   3.857   1.108   1.926 -0.0568  0.0993  0.1986
 2525SOL    HW117544   3.864   1.174   1.851 -0.8642 -0.9749 -0.8380
 2525SOL    HW217545   3.780   1.046   1.908  0.8951 -1.3213  0.9927
 2526SOL     OW17546   3.662   4.397   1.604 -0.1755  0.5245  0.0123
 2526SOL    HW117547   3.717   4.475   1.575 -0.4096  0.7507  0.1717
 2526SOL    HW217548   3.631   4.412   1.698 -0.2883  0.2747  0.0147
 2527SOL     OW17549   3.585   4.707   0.743  0.1134  0.7723  0.1552
 2527SOL    HW117550   3.612   4.619   0.705 -0.9859  0.0618  0.9971
 2527SOL    HW217551   3.494   4.700   0.784  0.9405  1.6938  2.2699
 2528SOL     OW17552   1.878   5.189   1.089 -0.2134  0.0367  0.3078
 2528SOL    HW117553   1.969   5.151   1.108  0.3481  0.7964 -0.8290
 2528SOL    HW217554   1.847   5.158   0.999 -0.6166  0.6632  0.2295
 2529SOL     OW17555   0.243   4.133   1.007  0.6818  0.0084 -0.2110
 2529SOL    HW117556   0.223   4.051   1.060  0.0448 -0.4073 -1.0727
 2529SOL    HW217557   0.341   4.153   1.012  1.0405 -1.4760 -0.9317
 2530SOL     OW17558   1.596   4.704   2.586 -0.3706  0.2613  0.2643
 2530SOL    HW117559   1.603   4.617   2.635 -0.2260  0.6740  0.9851
 2530SOL    HW217560   1.679   4.758   2.601 -0.0687  0.1422 -0.9351
 2531SOL     OW17561   0.641   3.964   0.076  0.4079  0.0294 -0.0201
 2531SOL    HW117562   0.603   4.033   0.138 -0.2118 -1.7773  1.6594
 2531SOL    HW217563   0.589   3.965  -0.009  1.2360  2.5080 -0.5410
 2532SOL     OW17564   1.153   7.201   0.047 -0.6243  0.2870 -0.5510
 2532SOL    HW117565   1.152   7.263   0.125 -1.5858  2.0667 -1.9458
 2532SOL    HW217566   1.075   7.139   0.053  0.4207 -0.9398  0.9234
 2533SOL     OW17567   3.075   9.407   2.423 -0.3509  0.7428 -0.6791
 2533SOL    HW117568   3.127   9.490   2.440  0.7223  0.3533 -1.9337
 2533SOL    HW217569   2.990   9.408   2.476  0.3500  1.9535  0.4288
 2534SOL     OW17570   4.534   1.389   2.044 -0.2273 -0.6763  0.0876
 2534SOL    HW117571   4.519   1.291   2.052 -0.4183 -0.5128  1.8653
 2534SOL    HW217572   4.506   1.420   1.953  0.7049 -2.4096 -0.8092
 2535SOL     OW17573   4.126   3.677   0.511 -0.5317  0.1845 -0.3788
 2535SOL    HW117574   4.075   3.762   0.528 -0.0782  0.0260  1.9171
 2535SOL    HW217575   4.210   3.698   0.462 -0.8826  0.9479 -0.6632
 2536SOL     OW17576   9.542   3.871   0.835 -0.4695  0.4771  0.1091
 2536SOL    HW117577   9.467   3.885   0.770  0.7251  0.4664 -1.3011
 2536SOL    HW217578   9.620   3.929   0.808  1.0609 -1.6560 -0.1353
 2537SOL     OW17579   2.606   2.749   2.175 -0.5702 -0.5307 -0.0610
 2537SOL    HW117580   2.575   2.839   2.206 -0.9925 -0.4046 -0.8623
 2537SOL    HW217581   2.686   2.722   2.229  1.5993  1.7782 -1.9914
 2538SOL     OW17582   2.787   2.985   2.243 -0.4427 -0.1175 -0.0717
 2538SOL    HW117583   2.827   3.077   2.244  0.1291 -0.3561 -0.5334
 2538SOL    HW217584   2.688   2.992   2.253 -0.5519  0.6304 -1.5064
 2539SOL     OW17585   1.264   3.187   0.666 -0.1427  0.1793  0.3591
 2539SOL    HW117586   1.362   3.204   0.678 -0.3619 -0.0131  2.6168
 2539SOL    HW217587   1.221   3.269   0.628  1.0191 -0.0543 -1.5468
 2540SOL     OW17588   2.574   5.746   2.303 -0.1785 -0.6197 -0.2774
 2540SOL    HW117589   2.501   5.719   2.240 -1.0274 -2.2596  1.3479
 2540SOL    HW217590   2.540   5.742   2.397  1.5947 -0.0283  0.4159
 2541SOL     OW17591   3.773   2.277   2.237 -0.2433  0.1126 -0.3216
 2541SOL    HW117592   3.804   2.329   2.157  0.4776  0.4814  0.1911
 2541SOL    HW217593   3.813   2.186   2.236  0.8094  0.5521  0.2849
 2542SOL     OW17594   0.973   5.202   2.399 -0.5301 -0.5411  0.3846
 2542SOL    HW117595   0.967   5.231   2.303  0.9020 -0.9906  0.1473
 2542SOL    HW217596   1.065   5.168   2.418 -1.0469 -1.2526  1.7053
 2543SOL     OW17597   0.109   5.102   2.617 -0.2165  0.2231 -0.6105
 2543SOL    HW117598   0.151   5.101   2.526 -0.2013  1.6332 -0.6300
 2543SOL    HW217599   0.014   5.071   2.610  0.0364 -0.4848 -0.9725
 2544SOL     OW17600   2.271   7.660   1.726  0.1950 -0.0183 -0.2732
 2544SOL    HW117601   2.205   7.644   1.653  1.0307 -0.9806 -0.8251
 2544SOL    HW217602   2.263   7.590   1.796  0.7884 -0.2770 -0.4585
 2545SOL     OW17603   1.712   7.815   1.392 -0.3755 -0.3678  0.0566
 2545SOL    HW117604   1.719   7.788   1.296 -0.0481 -0.8030  0.2019
 2545SOL    HW217605   1.626   7.783   1.430 -0.8313  0.4299 -0.2883
 2546SOL     OW17606   2.124   0.465   1.389 -0.1512 -0.3818 -0.9069
 2546SOL    HW117607   2.215   0.477   1.349 -0.7419  1.2500 -1.7959
 2546SOL    HW217608   2.127   0.484   1.487  0.5162 -0.6499 -0.8713
 2547SOL     OW17609   2.135   3.696   0.878 -0.1742 -0.3925 -0.1164
 2547SOL    HW117610   2.223   3.691   0.926 -1.7013  0.3865  2.8922
 2547SOL    HW217611   2.082   3.613   0.896  0.2769 -1.2861 -2.7025
 2548SOL     OW17612   2.116   0.535   1.946 -0.6329 -0.4326 -0.0952
 2548SOL    HW117613   2.065   0.605   1.995 -1.0489 -1.3533  0.7949
 2548SOL    HW217614   2.064   0.450   1.944  0.1328 -0.8999 -0.6261
 2549SOL     OW17615   1.439   2.663   0.756 -0.7533  0.0675  0.7148
 2549SOL    HW117616   1.400   2.746   0.796 -0.8106 -0.4145  1.6922
 2549SOL    HW217617   1.509   2.687   0.689 -2.4190  0.9459 -0.7617
 2550SOL     OW17618   1.325   7.484   2.615 -0.4224 -0.1012  0.6480
 2550SOL    HW117619   1.383   7.447   2.542  0.4278  1.1275  0.6876
 2550SOL    HW217620   1.371   7.562   2.657 -1.3816 -0.1490  1.7996
 2551SOL     OW17621   3.867   9.052   1.372 -0.4455 -0.2092  0.0673
 2551SOL    HW117622   3.848   9.135   1.320 -2.6941 -0.9329 -0.3298
 2551SOL    HW217623   3.934   9.071   1.443 -1.0755  1.9893  0.0924
 2552SOL     OW17624   0.199   2.937   0.443  0.1578  0.1626  0.0020
 2552SOL    HW117625   0.220   3.025   0.399 -0.4752 -2.0473 -4.9821
 2552SOL    HW217626   0.107   2.908   0.418  0.6635 -2.3479  0.9010
 2553SOL     OW17627   2.090   2.279   2.068 -0.5388  0.3812  0.1481
 2553SOL    HW117628   2.090   2.185   2.034 -2.9023  0.2910  0.2814
 2553SOL    HW217629   2.181   2.319   2.057  0.1330 -1.4506 -1.2103
 2554SOL     OW17630   9.590   5.569   0.676 -0.1939  0.5011  0.4621
 2554SOL    HW117631   9.545   5.652   0.711 -2.3976 -0.2032 -0.6364
 2554SOL    HW217632   9.606   5.579   0.578 -1.3993 -0.7795  0.1293
 2555SOL     OW17633   3.992   9.161   2.058 -0.3590  0.9670 -0.3339
 2555SOL    HW117634   3.898   9.165   2.092 -0.2820 -1.7681  0.3532
 2555SOL    HW217635   4.003   9.079   2.001  2.5132 -0.8035  2.5968
 2556SOL     OW17636   3.561   8.104   0.299  0.3796  0.5693 -0.0677
 2556SOL    HW117637   3.624   8.029   0.322 -1.2242 -0.5512  0.7827
 2556SOL    HW217638   3.560   8.170   0.374  0.9573  0.8779 -0.3289
 2557SOL     OW17639   3.162   8.157   0.133  0.0444 -0.0291 -0.1021
 2557SOL    HW117640   3.231   8.085   0.121 -0.2584 -0.4972  0.9472
 2557SOL    HW217641   3.076   8.127   0.093 -0.2169 -0.4591  0.7755
 2558SOL     OW17642   0.138   3.273   1.954  0.0878 -0.4648 -0.3308
 2558SOL    HW117643   0.201   3.322   1.894  0.2573 -0.2572  0.0105
 2558SOL    HW217644   0.095   3.339   2.017  1.2039 -0.9129  0.9273
 2559SOL     OW17645   1.893   5.850   0.920 -0.1627  0.1956  0.4329
 2559SOL    HW117646   1.809   5.803   0.891 -0.0191  0.2693 -0.1022
 2559SOL    HW217647   1.964   5.783   0.938  0.2110  0.2371 -0.8709
 2560SOL     OW17648   2.151   9.138   2.091 -0.2578  0.0554 -0.3193
 2560SOL    HW117649   2.087   9.077   2.137  0.9255 -0.2389  0.9558
 2560SOL    HW217650   2.244   9.116   2.119  0.2303  2.0498 -0.3140
 2561SOL     OW17651   1.625   4.873   0.325  0.9355 -0.3190 -0.4898
 2561SOL    HW117652   1.634   4.954   0.268 -0.1543 -1.0048 -1.6453
 2561SOL    HW217653   1.684   4.801   0.291  0.0442 -0.8374 -0.9582
 2562SOL     OW17654   2.823   2.298   1.461  0.4893 -0.3034  0.2584
 2562SOL    HW117655   2.800   2.384   1.416  0.3101 -0.5577 -0.1411
 2562SOL    HW217656   2.765   2.286   1.542 -0.2848 -0.5947 -0.3320
 2563SOL     OW17657   2.910   1.782   1.619 -0.0474 -0.2078  0.1859
 2563SOL    HW117658   2.954   1.826   1.698 -2.6248  1.3496  0.8266
 2563SOL    HW217659   2.855   1.705   1.650  1.3733 -1.5368 -0.5018
 2564SOL     OW17660   3.441   2.616   1.207  0.0132  0.2747  0.1070
 2564SOL    HW117661   3.483   2.555   1.140  0.2743 -0.2135  0.7107
 2564SOL    HW217662   3.428   2.707   1.166  0.1070 -0.0386 -0.6219
 2565SOL     OW17663   3.817   9.009   0.398  0.2608  0.0048  0.3988
 2565SOL    HW117664   3.805   9.036   0.494 -1.7863  0.7538 -0.0524
 2565SOL    HW217665   3.732   8.967   0.365 -0.4011  3.3082 -2.2561
 2566SOL     OW17666   3.570   0.101   1.643  0.2588 -0.6291 -0.2778
 2566SOL    HW117667   3.633   0.166   1.687 -1.1150 -0.2188  1.1275
 2566SOL    HW217668   3.604   0.008   1.656  0.1897 -0.4725  1.1538
 2567SOL     OW17669   2.112   9.278   1.279 -0.3333  0.3347  0.3182
 2567SOL    HW117670   2.157   9.206   1.227 -1.0745  1.3560 -1.8146
 2567SOL    HW217671   2.031   9.241   1.325 -0.3786 -0.3368 -0.2923
 2568SOL     OW17672   1.761   8.094   1.437 -0.1987  0.2833  0.2615
 2568SOL    HW117673   1.747   8.000   1.405 -0.6175  0.4706 -0.1125
 2568SOL    HW217674   1.777   8.154   1.358 -0.1644  0.5672  0.4837
 2569SOL     OW17675   9.969   6.065   0.892 -0.0628  0.0567 -0.0890
 2569SOL    HW117676  10.002   5.971   0.885  0.9825  0.4450 -0.3647
 2569SOL    HW217677   9.968   6.093   0.988  1.8983  0.5710 -0.2058
 2570SOL     OW17678   2.566   4.908   0.296 -0.3563  0.1318 -0.0770
 2570SOL    HW117679   2.539   4.827   0.347  0.1380 -0.2001 -0.3333
 2570SOL    HW217680   2.651   4.889   0.246 -0.0556  0.9128  0.1253
 2571SOL     OW17681   0.289   6.558   0.507 -0.0229  0.3897 -0.0826
 2571SOL    HW117682   0.209   6.504   0.535 -0.7011  1.1275 -0.5850
 2571SOL    HW217683   0.307   6.629   0.575 -1.0077  1.4857 -0.9503
 2572SOL     OW17684   0.610   4.608   0.675 -0.3925  0.1468 -0.0883
 2572SOL    HW117685   0.567   4.570   0.593 -2.4417 -0.5485  1.2573
 2572SOL    HW217686   0.551   4.680   0.712 -0.5273 -0.9816  1.9348
 2573SOL     OW17687   4.713   3.414   0.391 -0.1509  0.0172 -0.1213
 2573SOL    HW117688   4.780   3.379   0.325  0.0481  0.6374 -0.2481
 2573SOL    HW217689   4.721   3.363   0.477  0.2721 -0.1208 -0.2422
 2574SOL     OW17690   0.125   5.473   1.199  0.6711  0.2414 -0.2837
 2574SOL    HW117691   0.153   5.567   1.181  1.3653  0.0319 -0.2791
 2574SOL    HW217692   0.165   5.441   1.285  0.6293 -0.1452 -0.4069
 2575SOL     OW17693   4.091   3.571   0.193 -0.2713 -0.4226 -0.4104
 2575SOL    HW117694   4.006   3.525   0.220 -0.2225 -0.0378  0.3981
 2575SOL    HW217695   4.107   3.650   0.252  1.0839 -0.9744 -0.0137
 2576SOL     OW17696   1.351   1.784   1.240 -0.2589 -0.3686  0.1631
 2576SOL    HW117697   1.331   1.752   1.333  0.0614  0.6081  0.5777
 2576SOL    HW217698   1.385   1.878   1.244  0.4866 -0.5847 -0.8828
 2577SOL     OW17699   2.579   9.161   2.614  0.2090 -0.3175 -0.5206
 2577SOL    HW117700   2.577   9.173   2.515  0.2971 -1.1977 -0.6298
 2577SOL    HW217701   2.614   9.244   2.657 -2.4164  1.0946 -1.0512
 2578SOL     OW17702   1.309   6.429   1.613  0.4457 -0.1463 -0.3747
 2578SOL    HW117703   1.314   6.374   1.530 -0.1814  0.3793 -0.7675
 2578SOL    HW217704   1.294   6.369   1.692  1.1127 -0.6527 -0.6244
 2579SOL     OW17705   0.641   5.460   1.509 -0.0899  0.1308 -0.2014
 2579SOL    HW117706   0.697   5.542   1.507  0.2337 -0.1148 -1.8935
 2579SOL    HW217707   0.557   5.478   1.561 -0.3146  1.7206 -1.0976
 2580SOL     OW17708   2.557   0.285   1.189  0.1225  0.3149 -0.4282
 2580SOL    HW117709   2.640   0.323   1.148  0.4302  0.6323  0.4679
 2580SOL    HW217710   2.499   0.360   1.221  0.3752  0.0590  0.6561
 2581SOL     OW17711   1.621   6.294   1.503 -0.8883  0.4376 -0.2529
 2581SOL    HW117712   1.669   6.295   1.415  0.1881  1.0606  0.3286
 2581SOL    HW217713   1.619   6.201   1.539  2.2959  0.7776  0.9853
 2582SOL     OW17714   4.476   3.520   1.190 -0.6088  0.4352 -0.1159
 2582SOL    HW117715   4.427   3.572   1.120 -0.5561  1.5789  0.6780
 2582SOL    HW217716   4.448   3.424   1.186 -2.2998  0.9145 -0.1997
 2583SOL     OW17717   1.862   4.915   2.151  0.0038  0.0095 -0.1632
 2583SOL    HW117718   1.844   4.948   2.059 -0.5163 -1.4409 -0.5951
 2583SOL    HW217719   1.799   4.959   2.215 -0.3175  0.2613 -0.6479
 2584SOL     OW17720   9.554   3.412   0.260  0.1201 -0.1336 -0.0215
 2584SOL    HW117721   9.523   3.419   0.355  1.1304 -0.2269  0.3176
 2584SOL    HW217722   9.488   3.458   0.201 -1.0690 -0.9906  0.6037
 2585SOL     OW17723   1.408   4.685   0.328  0.6786 -0.8674 -0.4315
 2585SOL    HW117724   1.387   4.679   0.230 -0.1109  0.5408 -0.3560
 2585SOL    HW217725   1.474   4.759   0.343 -2.1816  1.5881  0.5300
 2586SOL     OW17726   3.180   8.351   1.144  0.1407 -0.2441 -0.2568
 2586SOL    HW117727   3.094   8.300   1.141 -0.0101 -0.0356  0.5055
 2586SOL    HW217728   3.166   8.436   1.194  1.0383 -0.6622  0.7108
 2587SOL     OW17729   0.349   5.829   2.205  0.0048  1.0232 -0.6659
 2587SOL    HW117730   0.294   5.800   2.283  0.2095  0.1072 -0.8636
 2587SOL    HW217731   0.343   5.762   2.132  2.1525  0.4087 -0.3196
 2588SOL     OW17732   4.179   1.000   0.880  0.9208  0.6237  0.4873
 2588SOL    HW117733   4.233   0.930   0.834 -0.3535 -0.7871  1.0702
 2588SOL    HW217734   4.157   0.969   0.973 -0.4727  1.3664  0.4206
 2589SOL     OW17735   1.503   9.540   0.912 -0.3335  0.2637  0.2166
 2589SOL    HW117736   1.487   9.528   1.010 -0.9591  0.4189  0.1324
 2589SOL    HW217737   1.596   9.573   0.898 -0.0727 -0.2268  0.7290
 2590SOL     OW17738   4.817   3.676   1.974  0.0122  0.2208  0.6397
 2590SOL    HW117739   4.837   3.749   2.038  1.7045 -0.0318  0.4185
 2590SOL    HW217740   4.792   3.593   2.024  0.5710  0.2397  0.9476
 2591SOL     OW17741   0.725   5.881   0.712 -0.6086  0.2586 -0.6015
 2591SOL    HW117742   0.693   5.787   0.721 -2.2071  0.7266 -1.2489
 2591SOL    HW217743   0.707   5.913   0.619 -0.6899  1.4357 -0.1896
 2592SOL     OW17744   4.728   3.810   2.504 -0.3933 -0.0421  0.0909
 2592SOL    HW117745   4.653   3.826   2.441 -0.2137 -0.8305 -0.3368
 2592SOL    HW217746   4.751   3.712   2.504 -0.0641  0.0258  1.0004
 2593SOL     OW17747   2.827   6.223   0.886 -0.3890  0.0480  0.4872
 2593SOL    HW117748   2.816   6.318   0.917 -0.2804 -0.0795  0.9119
 2593SOL    HW217749   2.826   6.162   0.965 -0.1019 -0.2738  0.2394
 2594SOL     OW17750   1.662   3.639   2.424 -0.4817 -0.5910 -0.8126
 2594SOL    HW117751   1.729   3.670   2.357 -0.9759  0.3165 -0.9028
 2594SOL    HW217752   1.630   3.718   2.478  0.5139 -1.4338  1.0495
 2595SOL     OW17753   2.985   4.989   1.622  0.0360  0.8539  0.0838
 2595SOL    HW117754   2.992   4.890   1.617 -2.0105  0.6712  0.2961
 2595SOL    HW217755   3.069   5.028   1.660  0.8032 -0.7945  0.0835
 2596SOL     OW17756   3.869   5.386   0.119  0.3937 -0.6916  0.0564
 2596SOL    HW117757   3.779   5.359   0.152  0.7285 -0.7537  0.9310
 2596SOL    HW217758   3.866   5.401   0.020 -0.5293 -0.8654  0.0617
 2597SOL     OW17759   3.688   1.621   0.591  0.4278  0.3523 -0.3192
 2597SOL    HW117760   3.658   1.535   0.549  1.4145  1.7458 -4.0524
 2597SOL    HW217761   3.768   1.604   0.649  1.3264 -1.0830 -1.9430
 2598SOL     OW17762   4.916   3.408   1.565 -0.5704  0.0773  0.2413
 2598SOL    HW117763   4.932   3.440   1.658  0.8457  0.2628 -0.0455
 2598SOL    HW217764   4.930   3.483   1.500  1.6990 -0.8000 -0.3507
 2599SOL     OW17765   1.448   9.091   1.577  0.0323  0.1911 -0.7367
 2599SOL    HW117766   1.534   9.048   1.551  0.4998  1.0171 -0.5813
 2599SOL    HW217767   1.454   9.190   1.560  0.1537  0.6949  1.9441
 2600SOL     OW17768   4.376   3.218   0.428 -0.0437  0.7601  0.4135
 2600SOL    HW117769   4.358   3.296   0.369 -0.0803  1.0149  0.7614
 2600SOL    HW217770   4.474   3.213   0.449  0.1107  0.1261 -0.4253
 2601SOL     OW17771   2.012   6.958   1.640 -0.3959  0.4301  0.0552
 2601SOL    HW117772   1.958   6.881   1.673  1.4496 -1.1179 -0.4199
 2601SOL    HW217773   2.021   6.952   1.540 -1.0935  1.8416 -0.1034
 2602SOL     OW17774   9.754   6.222   2.340 -0.2257 -0.1119  0.0090
 2602SOL    HW117775   9.828   6.253   2.400 -0.9875 -0.7371  1.2875
 2602SOL    HW217776   9.691   6.164   2.392 -1.8617  0.7592 -0.9455
 2603SOL     OW17777   2.860   2.592   1.956 -0.3468 -0.1664  0.1929
 2603SOL    HW117778   2.889   2.518   1.896 -0.6355  1.6290 -2.2310
 2603SOL    HW217779   2.936   2.616   2.017  1.2881  0.4719 -2.0023
 2604SOL     OW17780   0.615   6.038   2.240  0.4837 -0.4153  0.0444
 2604SOL    HW117781   0.581   6.132   2.248  0.6610 -0.4798  1.6032
 2604SOL    HW217782   0.539   5.974   2.253 -0.0126 -0.5002 -2.8679
 2605SOL     OW17783   3.799   4.933   0.643  0.2721 -0.4240 -0.0451
 2605SOL    HW117784   3.714   4.981   0.666 -0.0855 -0.7240 -0.7352
 2605SOL    HW217785   3.792   4.837   0.673  0.2863 -0.5010 -0.2829
 2606SOL     OW17786   1.206   6.615   0.318  0.3353  0.1992  0.0394
 2606SOL    HW117787   1.238   6.686   0.381 -2.3875  0.3214  1.4051
 2606SOL    HW217788   1.163   6.658   0.239  1.4265  0.0514 -0.6382
 2607SOL     OW17789   2.324   6.198   2.105 -0.7160 -0.1916 -0.0418
 2607SOL    HW117790   2.315   6.289   2.066 -0.1364 -0.8165 -1.6450
 2607SOL    HW217791   2.267   6.133   2.054 -1.0835 -0.7551  1.0494
 2608SOL     OW17792   9.283   4.082   0.778  0.2159 -0.0218  0.4807
 2608SOL    HW117793   9.268   4.015   0.705 -0.8256  0.0001  0.6710
 2608SOL    HW217794   9.211   4.073   0.847  0.1192  1.2375  0.5486
 2609SOL     OW17795   0.080   5.190   1.837  0.1980 -0.1496  0.4972
 2609SOL    HW117796   0.082   5.290   1.825  0.6800 -0.0508  1.4379
 2609SOL    HW217797   0.129   5.165   1.920 -1.3280 -1.0366  1.1451
 2610SOL     OW17798   1.592   5.247   1.273 -0.3334 -0.3900 -0.1389
 2610SOL    HW117799   1.643   5.294   1.202 -1.9042  1.3520 -0.1643
 2610SOL    HW217800   1.498   5.233   1.243 -0.9968  0.2821  1.5412
 2611SOL     OW17801   3.476   3.783   0.921 -0.0307 -0.6019  0.3752
 2611SOL    HW117802   3.417   3.703   0.917 -0.3801 -0.3920  1.1571
 2611SOL    HW217803   3.462   3.839   0.840 -0.7006 -0.7017  0.4182
 2612SOL     OW17804   0.074   3.877   2.339  0.2899 -0.0202 -0.2088
 2612SOL    HW117805   0.143   3.810   2.313 -0.1233 -0.3412 -0.4980
 2612SOL    HW217806   0.110   3.969   2.326  0.9463 -0.1874  0.4293
 2613SOL     OW17807   9.419   5.116   0.927  0.1795  0.7877  0.7894
 2613SOL    HW117808   9.382   5.046   0.989  1.5315 -1.6707 -1.0796
 2613SOL    HW217809   9.510   5.142   0.958 -0.2815  1.6663  1.4239
 2614SOL     OW17810   2.287   1.933   1.307 -0.2827 -0.2750  0.2215
 2614SOL    HW117811   2.283   2.025   1.268 -0.0907 -0.8406 -1.1897
 2614SOL    HW217812   2.217   1.876   1.264 -0.7699 -0.6445  1.4915
 2615SOL     OW17813   3.312   8.476   0.489  0.0055 -0.2850 -0.2760
 2615SOL    HW117814   3.289   8.470   0.586 -3.2396 -0.0121 -0.9940
 2615SOL    HW217815   3.259   8.408   0.438  0.7839  0.3844 -2.0139
 2616SOL     OW17816   1.934   8.021   2.132 -0.5009  0.3537 -0.7488
 2616SOL    HW117817   1.854   8.079   2.146  0.0876  1.6815 -2.7551
 2616SOL    HW217818   2.015   8.068   2.166 -0.2550 -0.0382 -0.7944
 2617SOL     OW17819   1.518   9.886   2.599 -0.2326  0.4647  0.3271
 2617SOL    HW117820   1.534   9.952   2.526 -1.4827  0.6439  0.2070
 2617SOL    HW217821   1.510   9.935   2.686 -1.6319  0.5343  0.1737
 2618SOL     OW17822   3.416   4.441   0.182 -0.0447  0.0517  0.4247
 2618SOL    HW117823   3.424   4.491   0.268  2.5333  0.2510  0.0962
 2618SOL    HW217824   3.496   4.460   0.125 -1.2915 -0.7772 -1.6589
 2619SOL     OW17825   0.832   7.087   1.058  0.7749  0.0377 -0.3560
 2619SOL    HW117826   0.869   7.076   0.966 -1.5167 -1.6013 -1.1313
 2619SOL    HW217827   0.745   7.137   1.053  2.0545  2.4821  1.2425
 2620SOL     OW17828   1.880   3.206   0.816  0.1830 -0.2809 -0.1983
 2620SOL    HW117829   1.863   3.261   0.734 -1.2379 -0.3652  0.0161
 2620SOL    HW217830   1.847   3.113   0.800 -2.5461  0.3478  1.3398
 2621SOL     OW17831   2.639   4.084   0.170 -0.4596  0.9160 -0.0410
 2621SOL    HW117832   2.665   4.058   0.262  1.3171 -0.2586 -0.8592
 2621SOL    HW217833   2.642   4.004   0.110 -1.4458  1.6914 -1.1585
 2622SOL     OW17834   9.408   3.550   1.079  0.0155 -0.0603  0.1852
 2622SOL    HW117835   9.330   3.488   1.075  0.1684 -0.3347  1.2564
 2622SOL    HW217836   9.441   3.556   1.173  1.8062 -0.5841 -0.3916
 2623SOL     OW17837   2.031   4.094   2.052 -0.5370 -0.0214 -0.1247
 2623SOL    HW117838   2.049   4.168   1.988 -0.2852 -1.6911 -2.0339
 2623SOL    HW217839   2.117   4.048   2.076 -0.8557 -0.6516 -0.1564
 2624SOL     OW17840   0.592   3.824   1.817 -0.1782  0.4972 -0.0698
 2624SOL    HW117841   0.519   3.757   1.804  0.1074 -0.2058  1.8548
 2624SOL    HW217842   0.681   3.781   1.803 -0.0333  0.7893 -0.0687
 2625SOL     OW17843   1.320   4.632   1.257  0.1065  0.1674 -0.0950
 2625SOL    HW117844   1.393   4.585   1.308 -1.3784 -1.9622  0.1295
 2625SOL    HW217845   1.296   4.577   1.177 -1.8278  0.4261  0.2934
 2626SOL     OW17846   1.328   3.833   0.295 -0.4492 -0.5171 -0.6724
 2626SOL    HW117847   1.397   3.845   0.224  0.7525 -1.2830  0.3354
 2626SOL    HW217848   1.332   3.739   0.330 -2.3526 -0.7112 -0.9554
 2627SOL     OW17849   0.663   5.223   1.630 -0.3254 -0.5662  0.2785
 2627SOL    HW117850   0.568   5.196   1.616  0.4400 -1.8009 -2.7594
 2627SOL    HW217851   0.672   5.322   1.618 -1.1004 -0.5431 -0.1211
 2628SOL     OW17852   3.628   5.392   0.534 -0.0923 -0.2289 -0.2745
 2628SOL    HW117853   3.667   5.336   0.607 -1.9803 -1.7320 -0.3654
 2628SOL    HW217854   3.616   5.486   0.567  0.0562 -0.6461  1.0096
 2629SOL     OW17855   1.426   7.767   1.674 -0.6369 -0.2234  0.1568
 2629SOL    HW117856   1.428   7.763   1.774  1.7913  1.5254  0.2075
 2629SOL    HW217857   1.332   7.752   1.643 -1.7306  0.8509  2.7770
 2630SOL     OW17858   4.610   4.032   1.167  0.6119 -0.3459  0.2356
 2630SOL    HW117859   4.557   3.952   1.141  0.9681  0.4045 -3.0447
 2630SOL    HW217860   4.558   4.115   1.148  2.1096  0.3223 -1.1773
 2631SOL     OW17861   0.704   5.057   2.061  0.3399 -0.1109 -0.0655
 2631SOL    HW117862   0.663   5.006   1.986  1.3223  0.0748 -0.7350
 2631SOL    HW217863   0.634   5.077   2.130 -0.5634 -0.2853 -0.9206
 2632SOL     OW17864   0.353   4.903   1.975 -0.1391 -0.0247  0.1710
 2632SOL    HW117865   0.255   4.922   1.980 -0.0683 -0.2117  2.8050
 2632SOL    HW217866   0.378   4.837   2.046  1.7377 -0.7188 -1.0940
 2633SOL     OW17867   3.839   1.891   1.682 -0.5403  0.1306  0.0083
 2633SOL    HW117868   3.761   1.842   1.721  0.1820 -0.7290  0.3774
 2633SOL    HW217869   3.860   1.971   1.739 -1.3775  0.5759 -0.2966
 2634SOL     OW17870   0.981   4.664   0.862 -0.0390  0.0080 -0.0136
 2634SOL    HW117871   0.976   4.643   0.959 -1.2001  0.2483 -0.0103
 2634SOL    HW217872   0.936   4.591   0.810 -3.9363  2.2638 -0.0070
 2635SOL     OW17873   2.516   2.975   2.261  0.0657 -0.1138 -0.1885
 2635SOL    HW117874   2.486   3.043   2.195 -0.5244 -0.4734 -0.2942
 2635SOL    HW217875   2.484   3.001   2.352 -0.7983 -0.6206 -0.3355
 2636SOL     OW17876   4.485   1.192   1.360 -0.0470 -0.0131  0.0342
 2636SOL    HW117877   4.436   1.279   1.352 -0.5457 -0.4191 -1.5375
 2636SOL    HW217878   4.421   1.117   1.346  0.2146 -0.6696  2.2697
 2637SOL     OW17879   2.290   1.062   1.042  0.1764  0.0173 -0.1523
 2637SOL    HW117880   2.323   1.156   1.049  0.9011 -0.2907  0.5684
 2637SOL    HW217881   2.328   1.007   1.117  0.2218 -0.9869 -0.8997
 2638SOL     OW17882   9.463   4.271   1.525  0.2329  0.2306 -0.3567
 2638SOL    HW117883   9.467   4.251   1.623  0.3577  0.1204 -0.3843
 2638SOL    HW217884   9.452   4.369   1.511 -1.0287  0.1278 -0.1997
 2639SOL     OW17885   1.988   9.589   1.629  0.0358 -0.0218 -0.2310
 2639SOL    HW117886   1.980   9.643   1.546  0.4464 -0.2408 -0.4121
 2639SOL    HW217887   1.903   9.597   1.682  0.7444  2.2659  0.6445
 2640SOL     OW17888   3.953   4.920   1.249 -0.0844 -0.8156 -0.2049
 2640SOL    HW117889   3.893   4.841   1.263  0.2909 -1.1350 -0.4101
 2640SOL    HW217890   3.940   4.985   1.324 -0.4399 -1.0393 -0.0707
 2641SOL     OW17891   2.475   1.564   0.128  0.0165 -0.1615 -0.5189
 2641SOL    HW117892   2.523   1.485   0.168 -2.5841 -1.4688  0.1313
 2641SOL    HW217893   2.455   1.630   0.200  3.2398  1.7261 -1.2563
 2642SOL     OW17894   0.625   5.769   1.729 -0.2912  0.0584 -0.1577
 2642SOL    HW117895   0.704   5.752   1.671 -0.5034 -0.3276 -0.3386
 2642SOL    HW217896   0.617   5.867   1.748  1.1115 -0.0490  1.1223
 2643SOL     OW17897   2.801   3.628   1.103 -0.6233  1.0570  0.3550
 2643SOL    HW117898   2.889   3.580   1.103 -0.8177  0.6855 -1.2268
 2643SOL    HW217899   2.798   3.692   1.180  0.8388  0.7384  0.6902
 2644SOL     OW17900   1.492   3.545   0.139 -0.0712 -0.7717  0.2990
 2644SOL    HW117901   1.570   3.497   0.099  0.7877  0.2438  0.7435
 2644SOL    HW217902   1.499   3.543   0.239 -0.8849 -1.1103  0.3557
 2645SOL     OW17903   2.395   2.757   1.855 -0.8987  0.1465 -0.0588
 2645SOL    HW117904   2.339   2.786   1.778 -1.6663 -2.5517 -0.5607
 2645SOL    HW217905   2.337   2.717   1.926  0.2568 -1.6749 -0.1114
 2646SOL     OW17906   4.401   2.392   2.544  0.1997  0.0592  0.3191
 2646SOL    HW117907   4.394   2.317   2.479 -1.0171  0.5941 -0.1686
 2646SOL    HW217908   4.447   2.469   2.500 -0.3961  0.3303  0.1671
 2647SOL     OW17909   3.893   0.990   1.331  0.3444  0.2620 -0.6500
 2647SOL    HW117910   3.891   1.012   1.429 -0.1867 -0.8325 -0.4086
 2647SOL    HW217911   3.897   1.075   1.278  2.3469  0.8508  0.3552
 2648SOL     OW17912   1.050   4.660   1.359 -0.0327  0.2508 -0.7025
 2648SOL    HW117913   1.145   4.634   1.343  0.3627  0.5307  1.0488
 2648SOL    HW217914   1.041   4.760   1.351  0.2356  0.4251  1.0443
 2649SOL     OW17915   1.359   5.076   0.920  0.1544  0.2224  0.4262
 2649SOL    HW117916   1.438   5.017   0.937  0.3659  0.2210 -0.5717
 2649SOL    HW217917   1.301   5.036   0.850  0.5425  1.4046 -0.5952
 2650SOL     OW17918   2.536   8.761   1.406  0.3942 -0.0523  0.0237
 2650SOL    HW117919   2.635   8.775   1.407  0.5409 -0.9442 -1.0074
 2650SOL    HW217920   2.516   8.670   1.369 -0.7482 -0.4326  1.5307
 2651SOL     OW17921   4.960   2.121   0.370  0.0052  0.1923 -0.9717
 2651SOL    HW117922   4.969   2.172   0.285  2.0362  0.8718 -0.3868
 2651SOL    HW217923   5.004   2.032   0.360 -2.1712 -0.8261 -1.4996
 2652SOL     OW17924   3.289   2.834   2.465 -0.4161  0.0869 -0.5774
 2652SOL    HW117925   3.382   2.811   2.494 -0.4865  0.4530 -0.0483
 2652SOL    HW217926   3.293   2.881   2.377 -0.0279  0.8797 -0.1446
 2653SOL     OW17927   3.182   9.219   0.463  0.3520 -0.5419  0.6546
 2653SOL    HW117928   3.171   9.159   0.542 -1.6487 -2.2972 -0.8946
 2653SOL    HW217929   3.106   9.284   0.460  1.0517  0.2864  0.8095
 2654SOL     OW17930   2.098   5.431   1.973  0.7556 -0.3099 -0.6353
 2654SOL    HW117931   2.090   5.505   2.039 -0.6952 -0.4168 -0.6641
 2654SOL    HW217932   2.057   5.348   2.012  0.6380 -0.5836 -1.3400
 2655SOL     OW17933   1.964   8.024   1.667 -0.4669 -0.0592  0.7424
 2655SOL    HW117934   1.909   8.066   1.594  1.7105  0.2916 -0.7312
 2655SOL    HW217935   1.939   7.928   1.675 -1.2269  0.0637 -0.0092
 2656SOL     OW17936   0.468   3.108   1.847 -0.2839 -0.5653 -0.1770
 2656SOL    HW117937   0.428   3.069   1.930 -0.0017 -0.5179 -0.0170
 2656SOL    HW217938   0.568   3.108   1.855 -0.2448 -0.7797 -0.6144
 2657SOL     OW17939   4.317   3.659   0.044 -0.0718  0.2819 -0.3226
 2657SOL    HW117940   4.315   3.618  -0.047 -0.9198 -0.5910  0.0737
 2657SOL    HW217941   4.227   3.649   0.087  0.1733  1.1529  0.4077
 2658SOL     OW17942   3.388   2.615   1.948 -0.3298 -0.0867  0.3083
 2658SOL    HW117943   3.302   2.566   1.964 -0.8206  0.2671 -1.1368
 2658SOL    HW217944   3.456   2.552   1.911 -1.6496  0.6853 -3.7331
 2659SOL     OW17945   1.005   5.172   0.175  0.0175 -0.4615 -0.0481
 2659SOL    HW117946   0.945   5.109   0.126 -0.6249 -0.6193  0.9238
 2659SOL    HW217947   0.968   5.189   0.266 -0.4367  2.2285 -0.6924
 2660SOL     OW17948   1.720   7.084   2.472 -0.4373 -0.2193  0.5467
 2660SOL    HW117949   1.637   7.045   2.512 -1.8397  1.4644 -0.6370
 2660SOL    HW217950   1.768   7.014   2.419 -1.8331 -0.8588  0.1032
 2661SOL     OW17951   2.796   8.959   0.484  0.6332  0.1119  0.7894
 2661SOL    HW117952   2.817   8.868   0.450  1.6298  0.8115 -0.5080
 2661SOL    HW217953   2.832   8.969   0.577 -0.8907 -1.3382  1.5718
 2662SOL     OW17954   2.798   3.168   0.396  0.4022  0.0862 -0.3120
 2662SOL    HW117955   2.781   3.074   0.367  1.2664 -0.2252  0.1684
 2662SOL    HW217956   2.845   3.217   0.322  1.1008 -0.2279 -0.0792
 2663SOL     OW17957   0.967   3.961   2.324  0.7479  0.4186 -0.0189
 2663SOL    HW117958   1.019   3.909   2.257  1.7091 -0.9106  1.7540
 2663SOL    HW217959   0.881   3.991   2.282  1.1181 -0.7934 -1.6998
 2664SOL     OW17960   2.889   6.085   2.345 -0.2195  0.7322 -0.4999
 2664SOL    HW117961   2.791   6.067   2.335 -0.4245  0.7062  1.3273
 2664SOL    HW217962   2.941   6.003   2.324 -0.6307  0.5649 -0.8660
 2665SOL     OW17963   1.418   8.378   1.602 -0.2129  0.1538 -0.9709
 2665SOL    HW117964   1.477   8.428   1.539  0.3790 -0.0200 -0.5589
 2665SOL    HW217965   1.466   8.298   1.637 -0.9271 -0.3509 -1.1301
 2666SOL     OW17966   0.845   5.014   1.796 -0.9113  0.1317 -0.0703
 2666SOL    HW117967   0.855   5.098   1.744 -0.2969 -0.4656 -0.9401
 2666SOL    HW217968   0.769   5.023   1.861  0.3566  2.0193  1.1960
 2667SOL     OW17969   3.790   2.591   1.211 -0.4277  0.2838 -0.0710
 2667SOL    HW117970   3.758   2.683   1.236 -2.3007 -0.3359 -0.1530
 2667SOL    HW217971   3.720   2.544   1.157 -0.0509 -1.6895  1.1024
 2668SOL     OW17972   2.185   9.915   1.743  0.8809  0.0682 -0.3480
 2668SOL    HW117973   2.171   9.821   1.772  2.4965  0.5219  2.0587
 2668SOL    HW217974   2.100   9.951   1.705 -0.4810 -1.5510  1.0692
 2669SOL     OW17975   1.448   5.312   2.253 -0.5151  0.0051 -0.1508
 2669SOL    HW117976   1.490   5.279   2.337  1.3841  1.7312 -0.3894
 2669SOL    HW217977   1.357   5.349   2.273 -0.7309 -1.0573  0.8657
 2670SOL     OW17978   2.621   4.637   0.847  0.3830 -0.1628  0.1774
 2670SOL    HW117979   2.602   4.729   0.812  0.0373  0.1769  1.2444
 2670SOL    HW217980   2.720   4.624   0.851  0.4322 -0.0956 -0.6269
 2671SOL     OW17981   3.767   3.175   0.891  0.4079 -0.2531 -0.1723
 2671SOL    HW117982   3.774   3.075   0.886 -2.0019 -0.5049  0.7317
 2671SOL    HW217983   3.725   3.201   0.978 -0.0991  1.4856 -0.9204
 2672SOL     OW17984   2.358   2.482   0.818 -0.2962  0.4570  0.2799
 2672SOL    HW117985   2.427   2.540   0.862  0.6669 -1.0617  0.8168
 2672SOL    HW217986   2.268   2.501   0.857 -0.0113  1.6423  0.3838
 2673SOL     OW17987   3.077   1.949   1.211  0.3257 -0.0504  0.6926
 2673SOL    HW117988   3.093   1.854   1.185  1.9772  0.6854 -1.1035
 2673SOL    HW217989   3.030   1.997   1.136  1.7539  1.1570  0.5421
 2674SOL     OW17990   3.088   3.887   1.118  0.2218 -0.2656  0.3564
 2674SOL    HW117991   3.076   3.954   1.045  0.6733  0.3374  0.8248
 2674SOL    HW217992   3.181   3.895   1.155  0.4378 -1.4587  0.1135
 2675SOL     OW17993   2.391   5.441   1.343 -0.3838  0.3506 -0.1006
 2675SOL    HW117994   2.395   5.372   1.415 -0.1225  0.5813  0.1072
 2675SOL    HW217995   2.327   5.513   1.369 -1.4252 -0.3179 -0.7653
 2676SOL     OW17996   5.155   3.007   0.278  0.2087  0.3519  0.3019
 2676SOL    HW117997   5.214   3.045   0.348 -0.0000 -1.5247  1.5326
 2676SOL    HW217998   5.107   2.927   0.314  0.3692 -0.8835 -2.0881
 2677SOL     OW17999   2.799   1.798   0.764 -0.1210 -0.0871 -0.2412
 2677SOL    HW118000   2.810   1.892   0.795 -1.0751  0.3228 -1.0987
 2677SOL    HW218001   2.703   1.782   0.739  0.2855 -0.8875 -1.3466
 2678SOL     OW18002   2.615   9.458   1.352  0.5203 -0.5354  0.5600
 2678SOL    HW118003   2.589   9.512   1.432  1.7377 -2.5221  2.3391
 2678SOL    HW218004   2.533   9.416   1.312 -0.0147 -0.0405  1.1279
 2679SOL     OW18005   9.519   5.520   2.575  0.1210 -0.0787 -0.1687
 2679SOL    HW118006   9.489   5.529   2.670  0.7387 -1.6331  0.2034
 2679SOL    HW218007   9.445   5.482   2.520  0.6378 -1.7860  0.2816
 2680SOL     OW18008   2.042   0.341   0.264  0.3083  0.4079  0.6646
 2680SOL    HW118009   2.051   0.432   0.222  1.5505 -0.3710 -0.8146
 2680SOL    HW218010   2.088   0.340   0.353 -0.4207  1.4528  1.0583
 2681SOL     OW18011   1.964   2.208   0.499  0.0317 -0.5422  0.3381
 2681SOL    HW118012   1.894   2.269   0.535 -0.5821 -1.5562  0.9015
 2681SOL    HW218013   2.037   2.198   0.567 -1.3282 -2.7867  1.5592
 2682SOL     OW18014   1.560   8.008   0.507 -0.5482 -0.1077  0.0765
 2682SOL    HW118015   1.635   7.943   0.521  1.4623  2.5974  2.3403
 2682SOL    HW218016   1.543   8.018   0.409  4.0689  1.4161 -0.6812
 2683SOL     OW18017   3.230   3.437   1.859  0.0123  0.0686 -0.2154
 2683SOL    HW118018   3.235   3.532   1.890 -0.7026 -0.1433  0.5688
 2683SOL    HW218019   3.215   3.435   1.760  2.3506  0.7492 -0.6175
 2684SOL     OW18020   9.557   3.834   2.401 -0.0437  0.0958  0.0547
 2684SOL    HW118021   9.584   3.746   2.363  0.8356 -0.2711  1.5297
 2684SOL    HW218022   9.638   3.892   2.412 -0.3908  0.4642  0.6912
 2685SOL     OW18023   2.193   2.937   0.365 -0.6812  0.1616  0.5321
 2685SOL    HW118024   2.171   3.022   0.317 -0.9727  1.2530  2.5604
 2685SOL    HW218025   2.137   2.929   0.447 -0.0638 -1.5889  0.8110
 2686SOL     OW18026   3.877   0.881   0.200  0.2038 -0.1954 -0.3544
 2686SOL    HW118027   3.789   0.884   0.154  0.4339  0.3698 -0.7656
 2686SOL    HW218028   3.883   0.956   0.266 -0.2520 -1.1939  0.8385
 2687SOL     OW18029   2.483   0.453   0.773  0.0919 -0.5042  0.1735
 2687SOL    HW118030   2.562   0.420   0.825 -0.5064 -1.3419  0.5576
 2687SOL    HW218031   2.432   0.520   0.828 -0.5958 -1.4625  0.7072
 2688SOL     OW18032   9.979   5.580   0.318 -0.0514 -0.2203 -1.0695
 2688SOL    HW118033   9.965   5.561   0.416 -0.5343  0.8327 -0.9316
 2688SOL    HW218034   9.988   5.493   0.269 -0.3387 -0.7718 -0.1686
 2689SOL     OW18035   9.591   4.498   2.372 -0.0030  0.5637  0.4269
 2689SOL    HW118036   9.655   4.534   2.439  1.1997  0.6866 -0.7714
 2689SOL    HW218037   9.621   4.408   2.342  0.4382  1.2576 -1.2539
 2690SOL     OW18038   0.866   2.770   0.371  0.0526 -0.7054  0.2820
 2690SOL    HW118039   0.903   2.810   0.287 -1.9316 -3.8049 -2.1885
 2690SOL    HW218040   0.941   2.741   0.430  1.4865  0.5340 -0.8812
 2691SOL     OW18041   0.976   8.299   2.255  0.0541  0.0046  0.0717
 2691SOL    HW118042   1.006   8.372   2.316 -1.3265  0.6519 -0.0067
 2691SOL    HW218043   0.982   8.331   2.160 -0.4020 -0.0466  0.0269
 2692SOL     OW18044   1.640   3.892   0.427 -0.0923 -0.1718  0.3709
 2692SOL    HW118045   1.541   3.882   0.420 -0.1290  0.2865  0.1866
 2692SOL    HW218046   1.683   3.802   0.429 -0.5574 -0.3781  1.0923
 2693SOL     OW18047   1.582   8.525   1.449  0.5221  0.2616  0.1292
 2693SOL    HW118048   1.553   8.612   1.490  0.6078  0.7505 -0.8195
 2693SOL    HW218049   1.680   8.529   1.429  0.7870 -0.5321  1.2389
 2694SOL     OW18050   2.691   8.711   1.138  0.3658  0.2244  0.6981
 2694SOL    HW118051   2.753   8.670   1.205 -2.7652 -1.5350  2.6556
 2694SOL    HW218052   2.687   8.810   1.152  1.3828  0.1306  1.6998
 2695SOL     OW18053   2.556   8.028   0.390  0.0852 -0.1721 -0.2453
 2695SOL    HW118054   2.498   8.020   0.310  0.4455  0.5453 -0.5751
 2695SOL    HW218055   2.517   7.973   0.465  0.2029 -1.5300 -1.1580
 2696SOL     OW18056   4.153   8.903   0.631 -0.1066 -0.0713  0.2346
 2696SOL    HW118057   4.156   8.823   0.691  0.4326  0.6596  1.1899
 2696SOL    HW218058   4.112   8.877   0.544  0.0854 -1.4045  0.5245
 2697SOL     OW18059   2.058   6.404   2.035  0.0370  0.1898  0.3946
 2697SOL    HW118060   2.124   6.425   2.108  0.1542  0.6665  0.1545
 2697SOL    HW218061   2.057   6.479   1.969  0.5397 -0.6259 -0.5460
 2698SOL     OW18062   2.553   0.571   1.816 -0.6695  0.1840 -0.1700
 2698SOL    HW118063   2.648   0.587   1.842 -1.3824  2.9625  0.8563
 2698SOL    HW218064   2.547   0.561   1.716  0.8362 -1.2450 -0.1379
 2699SOL     OW18065   1.199   7.921   1.058 -0.0400 -0.2492 -0.0368
 2699SOL    HW118066   1.255   7.850   1.016 -0.6072 -0.1632 -0.9573
 2699SOL    HW218067   1.188   7.997   0.994  0.7126  0.7544  1.0060
 2700SOL     OW18068   3.520   4.593   2.081  0.2094 -0.2587  0.3530
 2700SOL    HW118069   3.505   4.691   2.069  1.3769 -0.3045 -1.7538
 2700SOL    HW218070   3.432   4.545   2.079 -0.3508  0.7360  1.2608
 2701SOL     OW18071   2.289   4.832   1.250  0.3066 -0.7232  0.3705
 2701SOL    HW118072   2.375   4.795   1.215  0.1843 -2.0410  1.4547
 2701SOL    HW218073   2.284   4.816   1.348 -0.5760  0.5620  0.5411
 2702SOL     OW18074   3.785   1.610   1.575  0.1271 -0.1144  0.1068
 2702SOL    HW118075   3.816   1.621   1.669  1.3524 -0.1277 -0.2800
 2702SOL    HW218076   3.849   1.656   1.514  0.1128 -1.2915 -0.8203
 2703SOL     OW18077   2.507   9.651   1.524  0.2454  0.6368 -0.3419
 2703SOL    HW118078   2.466   9.738   1.497 -1.5563  0.8800  2.8716
 2703SOL    HW218079   2.597   9.667   1.564 -0.3685  1.1650  0.8787
 2704SOL     OW18080   1.189   3.005   0.096 -0.1879  1.0312 -0.1804
 2704SOL    HW118081   1.283   2.972   0.102 -0.3081  0.7166 -0.0258
 2704SOL    HW218082   1.186   3.087   0.038 -0.0822 -0.0149 -1.6987
 2705SOL     OW18083   3.440   9.739   1.725 -0.3248 -0.2303 -0.2919
 2705SOL    HW118084   3.377   9.672   1.685 -1.2128 -0.6773  1.7853
 2705SOL    HW218085   3.434   9.825   1.675 -1.2822 -0.8226 -1.2133
 2706SOL     OW18086   9.905   6.264   0.725  0.2047  0.3639  0.3376
 2706SOL    HW118087   9.812   6.292   0.747  0.1239  0.6488 -0.3519
 2706SOL    HW218088   9.936   6.196   0.791 -0.9452 -0.6648 -0.1583
 2707SOL     OW18089   2.244   5.877   1.177  0.6130 -0.3602  0.0252
 2707SOL    HW118090   2.329   5.837   1.211  0.1039 -0.3964  1.2779
 2707SOL    HW218091   2.196   5.811   1.119  1.1015 -0.5865 -0.1160
 2708SOL     OW18092   2.768   9.690   0.006 -0.0081  0.4763 -0.3681
 2708SOL    HW118093   2.760   9.711   0.104  0.5299  0.6559 -0.3579
 2708SOL    HW218094   2.752   9.773  -0.047 -0.7283  0.2847 -0.4524
 2709SOL     OW18095   9.724   5.227   0.305  0.3641  0.5140 -0.1027
 2709SOL    HW118096   9.746   5.131   0.322 -0.4182  0.3466 -0.0427
 2709SOL    HW218097   9.678   5.236   0.216  2.0403  1.0552 -0.9452
 2710SOL     OW18098   2.679   5.613   2.007  0.1512 -0.0114  0.0791
 2710SOL    HW118099   2.595   5.577   2.047  0.5353 -0.0485  0.8500
 2710SOL    HW218100   2.747   5.540   2.000  0.3989  0.2054  0.2119
 2711SOL     OW18101   1.533   0.023   2.149  0.0787 -0.2907 -0.0212
 2711SOL    HW118102   1.482  -0.062   2.138 -1.0501  0.5225 -1.2298
 2711SOL    HW218103   1.514   0.063   2.238 -0.5069 -0.5706 -0.0204
 2712SOL     OW18104   3.914   2.251   0.761  0.1904 -0.3320 -0.7048
 2712SOL    HW118105   3.917   2.184   0.834 -0.1015  2.4408  1.9520
 2712SOL    HW218106   4.000   2.301   0.758  0.6298 -1.1581 -3.0395
 2713SOL     OW18107   1.211   7.234   0.650 -0.6301 -0.4349  0.4639
 2713SOL    HW118108   1.221   7.158   0.715  0.6329 -0.4357  0.2831
 2713SOL    HW218109   1.264   7.312   0.683 -1.7496  0.3019  0.5375
 2714SOL     OW18110   4.747   3.785   1.704 -0.0978 -0.1385 -0.4037
 2714SOL    HW118111   4.756   3.718   1.777 -0.3954 -0.1486 -0.3761
 2714SOL    HW218112   4.788   3.872   1.732  1.4687 -0.6917 -0.9386
 2715SOL     OW18113   9.205   5.411   1.631 -0.0052  0.3109 -0.1689
 2715SOL    HW118114   9.283   5.411   1.695 -0.8023 -1.6028  0.8363
 2715SOL    HW218115   9.219   5.482   1.563  1.2543  1.8948  1.6785
 2716SOL     OW18116   0.958   4.189   1.619  0.0700  0.1437  0.4222
 2716SOL    HW118117   1.046   4.147   1.640  1.0286  1.8470 -0.0853
 2716SOL    HW218118   0.954   4.280   1.660 -1.0233  0.5124 -0.4813
 2717SOL     OW18119   4.047   2.773   2.218  0.1745  0.1257  0.7681
 2717SOL    HW118120   4.140   2.742   2.200  0.2854  0.8811 -0.0281
 2717SOL    HW218121   4.049   2.851   2.281 -0.0725 -1.1955  2.4323
 2718SOL     OW18122   3.979   9.049   1.063 -0.6939  0.0774 -0.5126
 2718SOL    HW118123   4.059   9.077   1.116  0.1318  0.0780 -1.7365
 2718SOL    HW218124   3.896   9.075   1.111  0.0540  1.3764  0.0810
 2719SOL     OW18125   1.113   4.189   0.373  0.4541 -0.2040  0.3139
 2719SOL    HW118126   1.022   4.158   0.401  0.6831 -0.3536  0.8917
 2719SOL    HW218127   1.106   4.236   0.284 -0.1701 -0.2920  0.3132
 2720SOL     OW18128   2.473   4.364   0.491 -0.8530 -0.2101  0.6534
 2720SOL    HW118129   2.567   4.384   0.521 -1.4101  0.9104  1.7014
 2720SOL    HW218130   2.411   4.431   0.532 -2.0487 -0.6538 -0.4310
 2721SOL     OW18131   3.018   5.029   2.117 -0.5141 -0.5521 -0.7692
 2721SOL    HW118132   2.929   4.995   2.146  0.6236  0.6746  4.9248
 2721SOL    HW218133   3.088   4.960   2.135  0.2523  0.2107 -0.7497
 2722SOL     OW18134   1.054   4.828   0.452 -0.2334 -0.1823 -0.0904
 2722SOL    HW118135   0.958   4.842   0.477 -0.1782 -2.1650  1.2743
 2722SOL    HW218136   1.061   4.751   0.389  0.6601 -1.3270  1.3883
 2723SOL     OW18137   3.353   3.549   0.896  0.0574  0.0638 -0.1884
 2723SOL    HW118138   3.308   3.504   0.819  0.0472  0.0898 -0.1974
 2723SOL    HW218139   3.404   3.481   0.949 -1.4503 -0.3044  0.8605
 2724SOL     OW18140   0.081   4.914   2.003 -0.4198  0.6917  0.1605
 2724SOL    HW118141   0.094   4.874   1.912  0.1644 -0.0802  0.5836
 2724SOL    HW218142   0.003   4.871   2.048  0.8169 -0.7005  1.0136
 2725SOL     OW18143   2.262   8.465   1.495  0.5812 -0.2664  0.7144
 2725SOL    HW118144   2.236   8.478   1.590 -2.1967 -1.1721  0.1082
 2725SOL    HW218145   2.265   8.555   1.450 -1.0951 -0.0781  0.9290
 2726SOL     OW18146   3.322   4.314   0.547 -0.6763 -0.5592  0.6544
 2726SOL    HW118147   3.292   4.409   0.550  2.7561  0.5625  0.7728
 2726SOL    HW218148   3.399   4.305   0.485 -0.7915 -3.2492  0.8324
 2727SOL     OW18149   8.735   4.915   0.782 -0.0765 -0.0284 -0.0950
 2727SOL    HW118150   8.700   4.994   0.732 -1.8213 -0.3055  0.6635
 2727SOL    HW218151   8.804   4.946   0.848 -0.2166  0.7618 -0.3046
 2728SOL     OW18152   3.003   0.024   1.632 -0.4780  0.4365  0.5526
 2728SOL    HW118153   2.973   0.097   1.571 -1.2737 -1.4200 -1.3152
 2728SOL    HW218154   2.960   0.036   1.722 -2.0724  1.1939 -0.3008
 2729SOL     OW18155   1.955   3.214   2.019 -0.0636 -0.5824  0.0977
 2729SOL    HW118156   1.991   3.238   1.929 -0.9824  0.2980 -0.0345
 2729SOL    HW218157   1.871   3.161   2.009 -0.5887  0.1742  0.4322
 2730SOL     OW18158   2.530   9.378   0.440 -0.1736 -0.1646  0.2581
 2730SOL    HW118159   2.552   9.474   0.425 -1.2766  0.4315  2.2728
 2730SOL    HW218160   2.500   9.365   0.534 -0.6831 -2.3696 -0.1812
 2731SOL     OW18161   1.687   1.832   1.008  0.1201  0.0894  0.2162
 2731SOL    HW118162   1.686   1.817   1.107  1.5117 -0.5809  0.1382
 2731SOL    HW218163   1.754   1.902   0.985  1.3123 -1.2233 -0.4264
 2732SOL     OW18164   0.758   6.446   0.348 -0.5566  0.6320  0.0964
 2732SOL    HW118165   0.854   6.471   0.353 -0.4332  0.4040 -0.9216
 2732SOL    HW218166   0.714   6.460   0.437  0.3766  0.8829  0.5168
 2733SOL     OW18167   9.911   4.998   0.894  0.4317  0.0376 -0.0979
 2733SOL    HW118168   9.886   4.937   0.969  2.2257  1.0852  1.3959
 2733SOL    HW218169  10.010   5.015   0.895 -0.1494  3.9740  0.3840
 2734SOL     OW18170   2.381   7.694   2.402 -0.1443  0.0197  0.0018
 2734SOL    HW118171   2.448   7.624   2.382  0.2068 -0.2075  1.9600
 2734SOL    HW218172   2.296   7.652   2.433 -0.1614  0.4208  0.5153
 2735SOL     OW18173   1.134   2.033   0.201  0.0830  0.0489 -0.0624
 2735SOL    HW118174   1.056   2.076   0.246  1.4541  0.5768  1.8921
 2735SOL    HW218175   1.179   2.099   0.141  0.0654  0.2908  0.1867
 2736SOL     OW18176   9.813   3.665   2.542 -0.0807 -0.0597  0.7585
 2736SOL    HW118177   9.824   3.764   2.532  0.6341 -0.0590  1.4592
 2736SOL    HW218178   9.803   3.642   2.639  1.8176 -0.8539  0.7867
 2737SOL     OW18179   2.466   3.123   0.782  0.1928  0.1766  0.3701
 2737SOL    HW118180   2.407   3.140   0.703 -1.7401  0.9815  1.9461
 2737SOL    HW218181   2.512   3.208   0.808  1.1621 -0.1873 -0.1484
 2738SOL     OW18182   2.181   6.494   0.890 -0.0956 -0.0169 -0.1888
 2738SOL    HW118183   2.136   6.450   0.968 -1.3355 -0.7752 -1.3085
 2738SOL    HW218184   2.143   6.586   0.878 -0.3696 -0.1405 -0.2828
 2739SOL     OW18185   1.000   3.361   2.153 -0.1103  0.7677 -0.1020
 2739SOL    HW118186   0.903   3.373   2.174 -0.0023  1.6148 -0.0422
 2739SOL    HW218187   1.031   3.271   2.183 -0.6448  0.8789  0.7933
 2740SOL     OW18188   1.975   6.783   1.021 -0.2378  0.1257 -0.4763
 2740SOL    HW118189   2.019   6.772   0.932 -0.7400 -1.6479 -0.5428
 2740SOL    HW218190   2.022   6.727   1.089  0.9978  2.5505  0.7208
 2741SOL     OW18191   3.077   4.661   0.414  0.1929  0.5101  0.5827
 2741SOL    HW118192   3.074   4.602   0.333  0.7424 -2.6830  2.7940
 2741SOL    HW218193   2.984   4.676   0.448  0.1828 -0.6574  1.0832
 2742SOL     OW18194   3.977   9.675   2.429 -0.3096  0.5134  0.1351
 2742SOL    HW118195   4.007   9.724   2.347  0.8753 -0.6677 -0.1567
 2742SOL    HW218196   3.918   9.599   2.403 -0.9473  0.8901  0.4771
 2743SOL     OW18197   1.017   5.844   0.159  0.5118 -0.0973  0.2191
 2743SOL    HW118198   1.084   5.884   0.220  0.1479  1.2087 -0.2098
 2743SOL    HW218199   1.031   5.880   0.066 -1.5670  1.2222  0.3765
 2744SOL     OW18200   9.750   5.058   0.683  0.6545  0.3301  0.1534
 2744SOL    HW118201   9.826   5.039   0.745 -0.7267  1.3052  2.2134
 2744SOL    HW218202   9.704   5.142   0.711 -2.0180 -0.9399 -0.2053
 2745SOL     OW18203   1.022   7.451   1.798 -0.3453  0.6063  0.2303
 2745SOL    HW118204   1.061   7.360   1.817  0.1345  0.5251 -1.0906
 2745SOL    HW218205   1.053   7.515   1.868  1.0219  0.2196 -0.0113
 2746SOL     OW18206   2.457   6.961   0.693  0.2457  0.3872 -0.0586
 2746SOL    HW118207   2.388   6.910   0.642 -0.9783  0.8681  1.1247
 2746SOL    HW218208   2.459   6.929   0.788  2.1222 -0.1007 -0.2355
 2747SOL     OW18209   2.759   8.138   1.894 -0.2028  0.2841 -0.0987
 2747SOL    HW118210   2.747   8.063   1.829 -0.1977  1.6142 -1.6693
 2747SOL    HW218211   2.797   8.217   1.847 -0.4564  1.3692  1.4741
 2748SOL     OW18212   2.667   8.674   1.789 -0.0345 -0.1117 -0.0951
 2748SOL    HW118213   2.651   8.650   1.885 -1.4301  0.9313 -0.0464
 2748SOL    HW218214   2.722   8.758   1.785  0.7256 -0.6151 -0.2147
 2749SOL     OW18215   1.846   8.334   2.466  0.4690  0.1434  0.2754
 2749SOL    HW118216   1.883   8.252   2.509  1.9064  0.6577  0.0564
 2749SOL    HW218217   1.746   8.331   2.468  0.3925 -3.0764 -2.4752
 2750SOL     OW18218   1.115   8.058   1.588 -0.2521 -0.0086 -0.2524
 2750SOL    HW118219   1.082   8.148   1.559  0.6059  0.4075  0.0300
 2750SOL    HW218220   1.106   8.049   1.687 -0.9559 -0.4940 -0.3584
 2751SOL     OW18221   0.829   7.286   2.094  0.0369  0.1780 -0.1033
 2751SOL    HW118222   0.916   7.284   2.144  0.9115  1.9890 -1.4844
 2751SOL    HW218223   0.837   7.231   2.010 -0.5206 -0.5774  0.3352
 2752SOL     OW18224   9.446   3.502   0.531 -0.2227  0.1435 -0.5820
 2752SOL    HW118225   9.375   3.548   0.585  0.3030 -0.7547  0.9296
 2752SOL    HW218226   9.534   3.509   0.578  0.0587 -1.5080 -0.8106
 2753SOL     OW18227   4.870   2.921   0.602 -0.0305  0.4851  0.2104
 2753SOL    HW118228   4.776   2.888   0.600  0.0502  0.2154  0.7449
 2753SOL    HW218229   4.877   3.000   0.662 -0.0058  0.7822 -0.1867
 2754SOL     OW18230   1.211   3.935   1.143 -0.2594 -0.0778  0.3714
 2754SOL    HW118231   1.156   4.018   1.131  1.4376  0.8851 -0.8778
 2754SOL    HW218232   1.156   3.856   1.115 -1.5823  0.7011  0.7049
 2755SOL     OW18233   1.497   0.462   1.229  0.7927 -0.2819 -0.2254
 2755SOL    HW118234   1.511   0.450   1.327  0.1301 -1.9313 -0.3106
 2755SOL    HW218235   1.490   0.559   1.208 -2.6371  0.0224  1.8762
 2756SOL     OW18236   3.324   8.792   2.611  0.2798 -0.5631 -0.0179
 2756SOL    HW118237   3.276   8.833   2.689  1.3530 -0.9111  0.8475
 2756SOL    HW218238   3.258   8.749   2.550 -0.5696 -0.3754  0.7536
 2757SOL     OW18239   1.843   5.230   2.616 -0.0776  0.7433 -0.4406
 2757SOL    HW118240   1.839   5.324   2.648 -1.1413  0.6027 -0.1640
 2757SOL    HW218241   1.936   5.194   2.631  0.3392  1.7397 -0.5695
 2758SOL     OW18242   9.614   4.601   1.318  0.1918  0.7952 -0.2327
 2758SOL    HW118243   9.619   4.548   1.233 -1.4681 -1.3242  0.9254
 2758SOL    HW218244   9.704   4.601   1.362  0.6061  0.2839 -1.0551
 2759SOL     OW18245   1.968   9.974   1.559  0.2609 -0.0804  0.2084
 2759SOL    HW118246   1.879   9.932   1.576  1.0786 -1.2083  1.9156
 2759SOL    HW218247   1.956  10.071   1.538 -1.3792 -0.2809  0.1857
 2760SOL     OW18248   1.589   0.264   1.082 -0.1036 -0.2167 -0.3268
 2760SOL    HW118249   1.569   0.346   1.135  2.3833  0.4447 -0.3214
 2760SOL    HW218250   1.562   0.183   1.133 -0.2399  0.5092  0.7603
 2761SOL     OW18251   0.224   4.792   2.549  0.4108 -0.2737 -0.1911
 2761SOL    HW118252   0.191   4.784   2.644  0.4352 -1.9741 -0.2961
 2761SOL    HW218253   0.305   4.851   2.547  0.1717  0.1046  0.7893
 2762SOL     OW18254   2.669   4.027   1.901 -0.5119 -0.4634 -0.4643
 2762SOL    HW118255   2.654   3.929   1.891 -0.4578 -0.8356  2.6437
 2762SOL    HW218256   2.586   4.070   1.936  0.9854 -0.2407  3.0000
 2763SOL     OW18257   2.070   8.304   1.079  0.0259  0.0239  0.1149
 2763SOL    HW118258   2.144   8.338   1.020  1.8025 -1.0034  1.7437
 2763SOL    HW218259   2.074   8.351   1.167 -0.2720 -1.2093  0.7827
 2764SOL     OW18260   2.721   5.227   0.388 -0.2195  0.0965 -0.2730
 2764SOL    HW118261   2.628   5.189   0.391 -0.2148  0.0649 -0.5370
 2764SOL    HW218262   2.725   5.301   0.321  0.4314 -1.2225 -1.7317
 2765SOL     OW18263   3.191   9.316   1.594  0.0903 -0.8434  0.0759
 2765SOL    HW118264   3.266   9.358   1.645 -0.6522  1.0225 -0.3205
 2765SOL    HW218265   3.181   9.361   1.505 -1.6383 -0.8839  0.2248
 2766SOL     OW18266   4.993   4.162   0.422  0.2389  0.4230  0.2874
 2766SOL    HW118267   5.066   4.096   0.403  1.4389  1.8958 -0.2577
 2766SOL    HW218268   4.925   4.158   0.349  0.4590  0.0141  0.0984
 2767SOL     OW18269   1.564   1.573   1.766  0.0791  0.9089  0.0841
 2767SOL    HW118270   1.478   1.541   1.727  0.1800  0.9814 -0.2036
 2767SOL    HW218271   1.627   1.597   1.692  0.1823  1.2982  0.2946
 2768SOL     OW18272   1.739   2.232   2.361 -0.5045  0.4397 -0.0242
 2768SOL    HW118273   1.668   2.292   2.397 -0.4151  0.4011  0.2144
 2768SOL    HW218274   1.741   2.146   2.413 -0.3148  0.4224 -0.0582
 2769SOL     OW18275   3.793   9.608   0.308  0.3377 -0.0150  0.5658
 2769SOL    HW118276   3.734   9.680   0.343  1.3289 -0.1046  2.4907
 2769SOL    HW218277   3.795   9.612   0.208 -4.4692 -1.2556  0.3165
 2770SOL     OW18278   3.574   3.061   0.072  0.0767  0.0530 -0.3735
 2770SOL    HW118279   3.525   3.018   0.147  0.1937 -0.9117 -0.8365
 2770SOL    HW218280   3.509   3.109   0.012  0.0756  1.4923  0.7642
 2771SOL     OW18281   1.879   4.075   0.853 -0.0214  1.4991 -0.5174
 2771SOL    HW118282   1.908   4.096   0.760  0.0653 -1.6590 -1.2407
 2771SOL    HW218283   1.958   4.041   0.905 -1.0742 -1.5281 -0.7927
 2772SOL     OW18284   1.869   7.303   1.162  0.9923 -0.4727  0.2192
 2772SOL    HW118285   1.799   7.244   1.123 -0.1659  1.9693 -1.5066
 2772SOL    HW218286   1.835   7.344   1.246 -0.2246  1.7449 -1.3062
 2773SOL     OW18287   2.622   1.162   1.111 -0.0508  0.1111  0.0207
 2773SOL    HW118288   2.536   1.188   1.067 -0.8169  0.9521  1.9493
 2773SOL    HW218289   2.608   1.159   1.210  1.7035 -1.4450  0.2397
 2774SOL     OW18290   1.335   4.656   0.058 -0.6597  0.2977  0.0393
 2774SOL    HW118291   1.402   4.728   0.041  1.6337 -1.1304  2.5338
 2774SOL    HW218292   1.341   4.586  -0.014 -0.7471  1.0372 -0.6964
 2775SOL     OW18293   2.915   3.265   0.160 -0.0682  0.1809  0.1033
 2775SOL    HW118294   3.005   3.308   0.144 -0.9688  2.7270  1.5449
 2775SOL    HW218295   2.852   3.293   0.087 -0.6342  1.3170  1.0033
 2776SOL     OW18296   2.469   3.531   0.601  0.0884  0.7117  0.1481
 2776SOL    HW118297   2.381   3.564   0.567  0.3203  0.4888 -0.6808
 2776SOL    HW218298   2.517   3.606   0.647 -0.0811  1.1180 -0.3229
 2777SOL     OW18299   1.254   8.549   0.593  0.6055  0.4347 -0.2378
 2777SOL    HW118300   1.235   8.513   0.502 -1.3448 -1.5420  0.8927
 2777SOL    HW218301   1.186   8.618   0.617 -0.0080 -0.4022  0.4433
 2778SOL     OW18302   1.550   0.750   1.257  0.4062  0.2717  0.4202
 2778SOL    HW118303   1.572   0.835   1.210 -2.3982  1.0472  0.4676
 2778SOL    HW218304   1.524   0.769   1.351 -1.6783 -0.4757  0.0032
 2779SOL     OW18305   4.147   2.809   0.651 -0.0553 -0.3000  0.3220
 2779SOL    HW118306   4.238   2.790   0.612  0.3005  0.9484  0.5399
 2779SOL    HW218307   4.092   2.858   0.583 -0.5436 -0.9916  0.2183
 2780SOL     OW18308   2.419   3.800   0.017  0.1540 -0.1961  0.1383
 2780SOL    HW118309   2.376   3.736  -0.047  0.3708  0.5698 -0.7903
 2780SOL    HW218310   2.349   3.863   0.051  0.3228  0.3971 -0.5808
 2781SOL     OW18311   9.514   5.250   1.197  0.0127 -1.7857 -0.8513
 2781SOL    HW118312   9.551   5.211   1.282 -0.2684 -2.3225 -0.9761
 2781SOL    HW218313   9.415   5.260   1.206  0.3178  0.9627  0.0207
 2782SOL     OW18314   3.389   9.604   1.225 -0.3727  0.4661 -0.1989
 2782SOL    HW118315   3.449   9.525   1.218  0.4189  1.0577 -0.0918
 2782SOL    HW218316   3.443   9.688   1.223 -1.0885  0.9785  1.0198
 2783SOL     OW18317   9.401   3.816   0.337  0.1920 -0.2263 -0.3546
 2783SOL    HW118318   9.489   3.802   0.291  0.3746 -0.2525 -0.0046
 2783SOL    HW218319   9.340   3.739   0.317  0.4054 -0.4252 -0.2398
 2784SOL     OW18320   2.588   6.906   1.230 -0.0192  0.1289 -0.0681
 2784SOL    HW118321   2.665   6.897   1.294  1.0395 -1.5368 -1.5279
 2784SOL    HW218322   2.582   7.000   1.198  0.5886  0.5633  1.0777
 2785SOL     OW18323   2.289   7.200   0.689 -0.3268 -0.0692  0.4201
 2785SOL    HW118324   2.371   7.167   0.642 -1.2026 -0.5482 -0.8004
 2785SOL    HW218325   2.286   7.160   0.781  0.0233 -1.2849 -0.0761
 2786SOL     OW18326   4.616   2.319   0.559 -0.0626  0.4185 -0.4497
 2786SOL    HW118327   4.663   2.234   0.584 -0.8230 -0.0297 -0.5485
 2786SOL    HW218328   4.517   2.305   0.563 -0.1889  1.1161 -1.0916
 2787SOL     OW18329   9.913   4.525   1.725  0.2090  0.0503 -0.1126
 2787SOL    HW118330   9.828   4.562   1.688  1.2631  0.9432 -1.7479
 2787SOL    HW218331   9.987   4.539   1.658  1.7494 -0.2131  1.4958
 2788SOL     OW18332   1.487   1.921   0.166  0.1372 -0.0063 -0.0074
 2788SOL    HW118333   1.408   1.889   0.218 -0.5067 -0.4845 -1.2513
 2788SOL    HW218334   1.546   1.843   0.145  0.2917  0.1519 -0.1575
 2789SOL     OW18335   3.454   3.321   0.985 -0.1748 -0.2959 -0.0253
 2789SOL    HW118336   3.478   3.229   0.955 -2.2845 -1.1654  0.9057
 2789SOL    HW218337   3.493   3.338   1.075  1.1104  0.1199 -0.6538
 2790SOL     OW18338   2.934   3.660   2.061 -0.4763  0.3608  0.3954
 2790SOL    HW118339   2.879   3.695   1.985  1.3349  2.7702  0.1381
 2790SOL    HW218340   3.006   3.726   2.083  0.2348 -1.1994  2.9315
 2791SOL     OW18341   9.347   5.938   1.840 -0.1111 -0.3291  0.4370
 2791SOL    HW118342   9.286   5.863   1.866 -1.8807  0.7270 -0.5117
 2791SOL    HW218343   9.309   5.984   1.760  2.5826 -0.3796 -0.9304
 2792SOL     OW18344   1.326   2.051   2.170  0.0313 -0.1089  0.5187
 2792SOL    HW118345   1.365   2.036   2.261  0.1101  1.4676  0.7509
 2792SOL    HW218346   1.228   2.071   2.179 -0.3570 -1.7143  0.1079
 2793SOL     OW18347   4.095   1.702   1.570  0.0783  0.5076  0.6499
 2793SOL    HW118348   4.030   1.778   1.575  1.5398  1.9552 -1.1997
 2793SOL    HW218349   4.149   1.699   1.654  1.0370  2.5096  0.1380
 2794SOL     OW18350   3.230   5.071   1.744 -0.2026 -0.5190  0.6390
 2794SOL    HW118351   3.253   5.141   1.676 -2.1160 -1.1421 -0.6954
 2794SOL    HW218352   3.301   5.000   1.744 -0.5118 -0.8605 -1.2270
 2795SOL     OW18353   2.087   3.033   1.138 -0.2805 -0.2623  0.6607
 2795SOL    HW118354   2.147   3.109   1.160  0.0061 -0.4733  0.6110
 2795SOL    HW218355   2.008   3.034   1.199 -0.7713  0.6499  0.0147
 2796SOL     OW18356   1.325   5.751   0.040 -0.0364  0.7028  0.5826
 2796SOL    HW118357   1.285   5.836   0.006 -2.5114 -1.4174 -2.1046
 2796SOL    HW218358   1.411   5.733  -0.007 -1.3293 -0.0612 -1.5750
 2797SOL     OW18359   1.783   8.448   0.408 -0.5475 -0.2355 -0.0552
 2797SOL    HW118360   1.699   8.394   0.418 -1.2569  0.6686 -1.0686
 2797SOL    HW218361   1.825   8.428   0.320  1.6069 -2.4681  1.3983
 2798SOL     OW18362   4.353   2.554   0.347 -0.9981  0.4712 -0.0166
 2798SOL    HW118363   4.377   2.651   0.359 -0.7761  0.4074  0.0675
 2798SOL    HW218364   4.276   2.532   0.406 -0.6684  0.4523  0.4150
 2799SOL     OW18365   2.413   7.162   0.450 -0.7107  0.0658 -0.4621
 2799SOL    HW118366   2.510   7.139   0.435 -1.0844 -2.4872  0.7000
 2799SOL    HW218367   2.356   7.087   0.416 -2.2191  0.9026  0.2032
 2800SOL     OW18368   2.092   1.641   1.471 -0.2749 -0.2877 -0.1476
 2800SOL    HW118369   2.022   1.582   1.512 -0.0501 -0.3409  0.1635
 2800SOL    HW218370   2.054   1.732   1.457 -0.8456 -0.6789 -1.2692
 2801SOL     OW18371   0.178   6.631   0.863 -0.2897 -0.3486 -0.1688
 2801SOL    HW118372   0.160   6.712   0.919 -0.5404  0.3461 -1.2235
 2801SOL    HW218373   0.264   6.645   0.812  1.2440 -1.9963  1.8835
 2802SOL     OW18374   2.902   8.192   1.012  0.1370  0.0436  0.1808
 2802SOL    HW118375   2.872   8.274   1.062  2.3013 -0.5124  2.5080
 2802SOL    HW218376   2.829   8.124   1.013 -0.7596  0.9865  0.3993
 2803SOL     OW18377   1.942   9.398   0.291 -0.1095  0.2082 -0.1668
 2803SOL    HW118378   1.895   9.469   0.237  1.6646  2.7477  1.5111
 2803SOL    HW218379   2.033   9.431   0.318  0.9324 -2.8941  0.3419
 2804SOL     OW18380   1.969   3.693   2.311  0.0679 -0.0924  0.7588
 2804SOL    HW118381   1.941   3.780   2.269 -1.6285 -0.2716  1.4402
 2804SOL    HW218382   2.057   3.665   2.274 -0.1420  1.0748 -0.7156
 2805SOL     OW18383   2.605   3.732   0.730  0.1584  0.4587  1.2092
 2805SOL    HW118384   2.568   3.710   0.820  0.5629  0.4924  1.3860
 2805SOL    HW218385   2.649   3.822   0.733 -0.6907  0.8986  0.7243
 2806SOL     OW18386   2.052   5.415   0.521  0.5234  0.3331 -0.1091
 2806SOL    HW118387   2.099   5.366   0.594  2.1591  0.8044 -0.8055
 2806SOL    HW218388   2.078   5.512   0.524  0.1101  0.4725 -0.9148
 2807SOL     OW18389   1.361   4.074   0.434 -0.4457 -0.3883 -0.2680
 2807SOL    HW118390   1.271   4.117   0.430 -1.1265 -1.8922 -1.2967
 2807SOL    HW218391   1.363   3.993   0.376  1.3299 -0.8417  0.3729
 2808SOL     OW18392   2.499   0.427   2.082 -0.0835  0.2327 -0.1631
 2808SOL    HW118393   2.592   0.435   2.119 -0.0284 -0.2098 -0.1932
 2808SOL    HW218394   2.487   0.492   2.008  0.3523 -0.0006 -0.4447
 2809SOL     OW18395   0.789   7.221   1.626  0.4900 -0.0813  0.0704
 2809SOL    HW118396   0.750   7.312   1.643 -1.0729 -0.9875  1.4333
 2809SOL    HW218397   0.879   7.231   1.584 -0.5130  2.0935 -1.7003
 2810SOL     OW18398   1.701   7.160   0.997 -0.4299  0.0783 -0.1055
 2810SOL    HW118399   1.603   7.170   1.015  0.0329  0.9275  2.1610
 2810SOL    HW218400   1.722   7.064   0.978 -1.8166  0.0339 -1.4741
 2811SOL     OW18401   0.796   4.149   0.350 -0.1227  0.0400  0.4952
 2811SOL    HW118402   0.756   4.201   0.425  1.0926  1.1568  0.3972
 2811SOL    HW218403   0.781   4.199   0.264 -0.6693 -0.7567  0.1231
 2812SOL     OW18404   0.614   3.047   0.797 -0.1340 -0.2861  0.2528
 2812SOL    HW118405   0.586   3.089   0.711  0.7475 -2.1373 -0.9713
 2812SOL    HW218406   0.535   3.007   0.842 -0.0312 -2.7041 -1.6213
 2813SOL     OW18407   4.136   0.825   0.092 -0.1910 -0.3577  0.0269
 2813SOL    HW118408   4.066   0.846   0.160  0.6744 -1.4018  1.2553
 2813SOL    HW218409   4.093   0.785   0.011 -1.1741  0.4550  0.1410
 2814SOL     OW18410   2.753   9.323   2.005  0.3713  0.1690  0.3668
 2814SOL    HW118411   2.701   9.394   2.053  0.1499  1.0928 -1.2099
 2814SOL    HW218412   2.800   9.265   2.072  0.8050  1.9910  1.6649
 2815SOL     OW18413   4.059   9.414   0.885  0.6876  0.0321  0.2955
 2815SOL    HW118414   4.006   9.424   0.801 -0.8542 -2.1127  0.9717
 2815SOL    HW218415   4.136   9.351   0.868 -0.0414 -0.9673  0.6591
 2816SOL     OW18416   3.757   3.953   1.258 -0.2574  0.4872 -0.1107
 2816SOL    HW118417   3.696   4.027   1.288  1.3383  1.7574  0.0503
 2816SOL    HW218418   3.720   3.866   1.288 -0.4094  1.4777  2.7452
 2817SOL     OW18419   1.427   2.597   1.039  0.1250 -0.1150  0.4338
 2817SOL    HW118420   1.343   2.598   1.094  1.2099 -1.4287  2.1581
 2817SOL    HW218421   1.402   2.601   0.942 -1.8799  0.7548  0.9498
 2818SOL     OW18422   9.647   4.493   1.081  0.0808 -0.4083  0.5084
 2818SOL    HW118423   9.673   4.571   1.024  1.2537 -1.8995 -1.0654
 2818SOL    HW218424   9.561   4.454   1.048 -1.2386  0.9969  2.1414
 2819SOL     OW18425   2.788   9.179   1.786 -0.4304 -0.4043  0.1992
 2819SOL    HW118426   2.781   9.241   1.708 -1.5010 -0.1913  0.4660
 2819SOL    HW218427   2.777   9.231   1.871  3.7927 -0.0844  0.6834
 2820SOL     OW18428   0.453   3.531   1.124  0.2061  0.0506  0.8391
 2820SOL    HW118429   0.479   3.595   1.196  2.1391 -0.2692  0.4472
 2820SOL    HW218430   0.354   3.534   1.111 -0.0946  0.4567  3.1545
 2821SOL     OW18431   2.691   8.770   2.322  0.2158  0.2252  0.4742
 2821SOL    HW118432   2.670   8.823   2.405  0.9977  2.5853 -0.7797
 2821SOL    HW218433   2.730   8.682   2.347  1.1347  1.2220  2.6039
 2822SOL     OW18434   2.808   8.912   1.768  0.1399  0.4331 -0.0762
 2822SOL    HW118435   2.880   8.893   1.835  1.1953 -0.5247 -1.4572
 2822SOL    HW218436   2.794   9.010   1.761  1.5041  0.6498  0.0344
 2823SOL     OW18437   2.286   4.005   2.060  0.3242  0.1975 -0.1867
 2823SOL    HW118438   2.357   4.068   2.028 -0.1892 -0.4008 -2.5911
 2823SOL    HW218439   2.328   3.934   2.117  1.4950  0.4639 -0.7053
 2824SOL     OW18440   2.944   2.119   0.460 -0.0315 -0.3883  0.0424
 2824SOL    HW118441   2.990   2.083   0.379 -0.3718 -0.5157 -0.0938
 2824SOL    HW218442   2.846   2.105   0.452 -0.0967 -0.1138  0.3328
 2825SOL     OW18443   1.441   0.052   1.197 -0.2290 -0.2340  0.2479
 2825SOL    HW118444   1.390  -0.024   1.155  0.2947 -0.7616  0.5636
 2825SOL    HW218445   1.384   0.096   1.267 -0.9111  0.3116 -0.6322
 2826SOL     OW18446   9.902   4.798   1.073  0.4667 -0.3016 -0.2107
 2826SOL    HW118447   9.829   4.737   1.041 -1.6137  0.1077  3.4702
 2826SOL    HW218448   9.967   4.746   1.128 -0.0057  0.2936  0.9425
 2827SOL     OW18449   3.028   2.850   0.632  0.6958 -0.5416 -0.1116
 2827SOL    HW118450   3.016   2.756   0.602  0.5821 -0.4211 -0.4461
 2827SOL    HW218451   2.977   2.866   0.717 -0.0276 -0.5303 -0.5446
 2828SOL     OW18452   3.523   8.626   0.411 -0.0488  0.5703 -0.3154
 2828SOL    HW118453   3.588   8.566   0.363 -0.1312  1.9791 -2.2718
 2828SOL    HW218454   3.447   8.571   0.445  1.5933 -0.9460  1.0520
 2829SOL     OW18455   2.160   4.669   1.446  0.5551  0.1954 -0.3730
 2829SOL    HW118456   2.143   4.575   1.417 -3.1193  1.2765 -2.0267
 2829SOL    HW218457   2.096   4.693   1.518  1.4844  1.4542  0.0436
 2830SOL     OW18458   0.682   4.222   2.396 -0.1712  0.4716  0.4746
 2830SOL    HW118459   0.716   4.154   2.332  1.8860 -0.2096  2.2296
 2830SOL    HW218460   0.713   4.313   2.369  1.7808  0.0337  1.1919
 2831SOL     OW18461   1.664   1.549   2.572 -0.3651  0.6148  0.6686
 2831SOL    HW118462   1.722   1.471   2.553  2.7195  3.2374 -1.1345
 2831SOL    HW218463   1.660   1.564   2.671  0.7229 -0.5522  0.9009
 2832SOL     OW18464   3.927   8.640   0.244 -0.1033 -0.3184  0.2499
 2832SOL    HW118465   3.882   8.551   0.246 -1.6124  0.4372  0.7404
 2832SOL    HW218466   3.908   8.685   0.156  0.1427 -0.2241  0.2446
 2833SOL     OW18467   1.544   5.506   2.501 -0.3572  0.0676 -0.4816
 2833SOL    HW118468   1.458   5.478   2.460  0.1497 -0.4518 -1.2180
 2833SOL    HW218469   1.548   5.605   2.509 -1.3166  0.0483  0.2176
 2834SOL     OW18470   4.324   2.170   2.048 -0.5291  0.1182 -0.4221
 2834SOL    HW118471   4.265   2.106   1.999 -2.4836  0.8624  0.8961
 2834SOL    HW218472   4.280   2.260   2.050  0.9085  0.8224  0.1381
 2835SOL     OW18473   2.205   8.336   0.080  0.1425  0.3545 -0.0236
 2835SOL    HW118474   2.190   8.434   0.087 -0.6004  0.1623  1.2794
 2835SOL    HW218475   2.199   8.295   0.171 -0.4564 -1.0174 -0.6708
 2836SOL     OW18476   2.818   4.567   0.262 -0.1657 -0.0086 -0.6031
 2836SOL    HW118477   2.720   4.576   0.245  0.5477  0.0392 -5.1188
 2836SOL    HW218478   2.840   4.472   0.284 -1.1806 -0.0149  0.4544
 2837SOL     OW18479   9.261   3.615   0.719 -0.2716  0.0171 -0.1923
 2837SOL    HW118480   9.186   3.569   0.766 -1.0297  0.8925 -0.5235
 2837SOL    HW218481   9.348   3.583   0.755 -0.7792 -1.6945 -0.4464
 2838SOL     OW18482   1.081   6.254   0.597 -0.0386  0.0521  0.2006
 2838SOL    HW118483   0.989   6.242   0.635 -0.3568  1.4009 -0.0956
 2838SOL    HW218484   1.147   6.202   0.651 -0.8745 -0.3063  0.8858
 2839SOL     OW18485   2.365   0.146   1.031 -0.2633  0.4331 -0.1432
 2839SOL    HW118486   2.291   0.132   1.098  1.0498 -1.4297  0.9802
 2839SOL    HW218487   2.448   0.174   1.080 -0.0024  1.7701 -1.3219
 2840SOL     OW18488   2.688   5.228   0.854 -0.0530  0.0726  0.1735
 2840SOL    HW118489   2.746   5.224   0.773 -0.1845  0.4220  0.0620
 2840SOL    HW218490   2.603   5.276   0.832 -0.2857 -0.2367  0.3968
 2841SOL     OW18491   0.314   5.366   1.350  0.0278 -0.4937  0.0887
 2841SOL    HW118492   0.332   5.384   1.446  0.6779  0.0763 -0.1295
 2841SOL    HW218493   0.314   5.268   1.334  0.4588 -0.5783  0.5799
 2842SOL     OW18494   2.524   3.714   1.004 -0.2737 -0.2506  0.3083
 2842SOL    HW118495   2.621   3.717   1.028 -0.7554 -1.7817  2.5936
 2842SOL    HW218496   2.490   3.621   1.013 -1.4372 -0.1981 -2.8474
 2843SOL     OW18497   1.078   3.010   1.236 -0.1755  0.0218  0.8010
 2843SOL    HW118498   0.996   3.021   1.180  0.0367  1.5880  0.7746
 2843SOL    HW218499   1.150   3.070   1.201  0.2633  0.2993  2.1632
 2844SOL     OW18500   1.062   4.268   0.889 -0.8216  0.4003 -0.2865
 2844SOL    HW118501   1.084   4.254   0.985 -3.1453 -0.8402  0.0898
 2844SOL    HW218502   1.122   4.339   0.852  2.1955 -1.2107  1.2408
 2845SOL     OW18503   9.607   4.932   2.508  0.6134 -0.0020  0.5906
 2845SOL    HW118504   9.577   5.018   2.466 -0.0775 -0.4022  0.2734
 2845SOL    HW218505   9.618   4.946   2.607  1.1179  0.6213  0.4490
 2846SOL     OW18506   1.870   0.514   1.049  0.2716  0.2491 -0.6787
 2846SOL    HW118507   1.813   0.433   1.036  0.5615  0.0551 -0.7421
 2846SOL    HW218508   1.854   0.552   1.140 -0.4775  0.5994 -0.9476
 2847SOL     OW18509   4.431   2.372   1.851 -0.0471  0.5223 -0.2314
 2847SOL    HW118510   4.373   2.385   1.931  0.0878 -1.5195  0.2344
 2847SOL    HW218511   4.518   2.333   1.879  0.8273  1.7825 -1.1512
 2848SOL     OW18512   0.730   5.537   1.116 -0.6833 -0.0796  0.1975
 2848SOL    HW118513   0.816   5.487   1.104 -1.3779 -0.8961 -1.6215
 2848SOL    HW218514   0.734   5.622   1.063 -0.9259 -0.0491  0.2279
 2849SOL     OW18515   1.826   9.958   0.834 -0.1501  0.0345  0.3276
 2849SOL    HW118516   1.770   9.884   0.796 -1.1892  1.2718 -0.6195
 2849SOL    HW218517   1.769  10.038   0.850  0.6998  0.2075  2.6255
 2850SOL     OW18518   2.713   8.880   2.597  0.6779  0.2036 -0.5663
 2850SOL    HW118519   2.728   8.819   2.675  2.7749  0.5089 -0.6844
 2850SOL    HW218520   2.679   8.968   2.629 -1.1002 -0.5654 -0.2763
 2851SOL     OW18521   2.387   6.408   0.497 -0.3575 -0.1026 -0.1238
 2851SOL    HW118522   2.457   6.337   0.492  0.3145  0.5658 -0.3107
 2851SOL    HW218523   2.408   6.472   0.571  0.8162  1.7420 -1.9693
 2852SOL     OW18524   4.226   5.149   0.036 -0.1644  0.4348  0.0797
 2852SOL    HW118525   4.164   5.219   0.071 -1.8325 -0.4404 -1.0721
 2852SOL    HW218526   4.308   5.146   0.093 -1.7980  0.6090  2.5081
 2853SOL     OW18527   2.799   8.852   1.481  0.1177 -0.5200  0.0748
 2853SOL    HW118528   2.781   8.864   1.578 -0.2152  0.4189 -0.0971
 2853SOL    HW218529   2.836   8.937   1.443 -0.3329 -0.6793 -0.7473
 2854SOL     OW18530   3.892   3.200   2.043 -0.3882 -0.0644  0.3697
 2854SOL    HW118531   3.989   3.182   2.027 -0.2096  1.1064  0.0504
 2854SOL    HW218532   3.877   3.211   2.141  0.0776  1.1507  0.3227
 2855SOL     OW18533   9.866   4.442   2.232  0.5582  0.2770 -0.0773
 2855SOL    HW118534   9.865   4.463   2.135  0.5214  1.3768  0.1569
 2855SOL    HW218535   9.815   4.358   2.249  0.1273  0.3644 -0.9443
 2856SOL     OW18536   2.815   8.048   0.279  0.1374 -1.0213 -0.3417
 2856SOL    HW118537   2.875   8.052   0.360  0.4184 -0.1650 -0.5809
 2856SOL    HW218538   2.720   8.053   0.308  0.2551 -0.0426 -0.0888
 2857SOL     OW18539   0.584   4.525   1.261 -0.3374  0.2103  0.1336
 2857SOL    HW118540   0.550   4.489   1.174  0.1488 -1.2853  0.5424
 2857SOL    HW218541   0.658   4.590   1.242 -0.1095 -0.2390 -0.5693
 2858SOL     OW18542   9.509   3.602   0.836 -0.1196 -0.2386 -0.3075
 2858SOL    HW118543   9.476   3.569   0.924  0.1296 -1.9591 -0.8279
 2858SOL    HW218544   9.537   3.698   0.844  0.3177 -0.5036  1.5833
 2859SOL     OW18545   9.460   4.856   1.328  0.5614 -0.1961  0.4000
 2859SOL    HW118546   9.501   4.768   1.304 -2.4796 -1.1334 -1.7210
 2859SOL    HW218547   9.416   4.850   1.417  0.9416 -0.6298  0.5570
 2860SOL     OW18548   4.078   4.071   0.503  0.5335 -0.2809 -0.5261
 2860SOL    HW118549   4.172   4.035   0.500  0.0636 -1.4920 -0.9051
 2860SOL    HW218550   4.015   3.997   0.526 -0.2748  0.6612  0.3182
 2861SOL     OW18551   2.882   8.016   2.134 -0.3806  0.5267 -0.6715
 2861SOL    HW118552   2.803   7.961   2.160  0.4511 -0.0367  0.7342
 2861SOL    HW218553   2.855   8.083   2.065 -2.2208  0.7617  0.2475
 2862SOL     OW18554   0.410   4.556   1.014  0.9924 -0.3960 -0.0781
 2862SOL    HW118555   0.501   4.558   0.971  0.9538 -0.8939 -0.1852
 2862SOL    HW218556   0.380   4.650   1.031  1.4208 -0.2193 -0.2689
 2863SOL     OW18557   3.883   0.758   0.988  0.0215 -0.0377 -0.2600
 2863SOL    HW118558   3.961   0.805   1.029  0.3809 -1.6491  0.9426
 2863SOL    HW218559   3.840   0.818   0.921  0.3304  2.1022  1.3869
 2864SOL     OW18560   0.924   4.462   0.378  0.2810 -0.3912 -0.0596
 2864SOL    HW118561   0.857   4.388   0.379  0.9380 -1.0044 -0.2869
 2864SOL    HW218562   0.935   4.496   0.285  1.7708 -1.6993 -0.4020
 2865SOL     OW18563   4.131   5.355   0.165 -0.1719 -0.0194 -1.3069
 2865SOL    HW118564   4.031   5.367   0.164 -0.4106 -1.8994 -1.2614
 2865SOL    HW218565   4.168   5.395   0.248 -1.2453 -1.8566  0.0908
 2866SOL     OW18566   1.860   2.607   2.585  0.2093  0.1399  0.1223
 2866SOL    HW118567   1.921   2.620   2.507 -2.1373  1.8819 -1.5260
 2866SOL    HW218568   1.777   2.559   2.555 -1.0095  1.3881  1.3749
 2867SOL     OW18569   3.206   4.841   2.209  0.2484  0.3493  0.4215
 2867SOL    HW118570   3.270   4.822   2.135 -1.0704 -1.3837 -0.2960
 2867SOL    HW218571   3.253   4.829   2.297  1.5973  1.6456 -0.1090
 2868SOL     OW18572   5.072   2.682   0.069  0.9665 -0.4235  0.6728
 2868SOL    HW118573   5.127   2.753   0.114  0.5064  0.4251 -0.0929
 2868SOL    HW218574   4.996   2.656   0.129 -0.2045  1.3931 -0.0005
 2869SOL     OW18575   0.816   7.253   2.366  0.2659 -0.2141 -0.1509
 2869SOL    HW118576   0.873   7.322   2.410 -0.1360  0.5904 -0.8871
 2869SOL    HW218577   0.790   7.284   2.275 -1.1630 -0.6794  0.0865
 2870SOL     OW18578   1.728   8.987   0.394 -0.0687 -0.1966  0.1158
 2870SOL    HW118579   1.720   8.913   0.461 -1.4206  1.1481  1.4728
 2870SOL    HW218580   1.811   9.039   0.413 -1.8106  1.8409  2.5243
 2871SOL     OW18581   0.278   3.276   2.462 -0.0126 -0.3914 -0.9540
 2871SOL    HW118582   0.251   3.183   2.485  1.3220 -0.3788  0.8248
 2871SOL    HW218583   0.215   3.341   2.504  0.3849 -0.4530 -0.2525
 2872SOL     OW18584   3.724   2.252   0.070  0.4192  0.5217  0.4748
 2872SOL    HW118585   3.771   2.309   0.003  0.4230  0.7760  0.6950
 2872SOL    HW218586   3.737   2.290   0.162 -0.1053  0.5163  0.5515
 2873SOL     OW18587   2.367   8.118   2.057 -0.1991 -0.2640  0.4636
 2873SOL    HW118588   2.344   8.078   1.968 -1.7109  0.2909  0.5802
 2873SOL    HW218589   2.445   8.179   2.047  1.2079 -2.1280  0.0117
 2874SOL     OW18590   0.559   5.644   2.419 -0.2708 -0.1497  0.2796
 2874SOL    HW118591   0.505   5.580   2.364  0.4983  0.0332 -0.7001
 2874SOL    HW218592   0.498   5.711   2.462 -1.0608 -1.3926  1.1389
 2875SOL     OW18593   3.606   8.399   2.261 -0.1880  0.4548 -0.0856
 2875SOL    HW118594   3.512   8.365   2.252 -0.4388  0.3414  2.4518
 2875SOL    HW218595   3.604   8.490   2.303  0.8860 -0.3117  1.7080
 2876SOL     OW18596   1.428   7.130   0.013  0.0107 -0.3524  0.4510
 2876SOL    HW118597   1.426   7.031   0.001  0.2436 -0.3284  0.2082
 2876SOL    HW218598   1.341   7.161   0.050 -0.1014 -0.6360  0.4236
 2877SOL     OW18599   4.611   4.351   0.460 -0.4200  0.5614 -0.8638
 2877SOL    HW118600   4.550   4.411   0.409 -2.6084 -1.0537 -0.2050
 2877SOL    HW218601   4.566   4.320   0.544  1.4244 -0.3864 -0.1934
 2878SOL     OW18602   2.615   7.554   0.413  0.3390  0.1336 -0.2464
 2878SOL    HW118603   2.539   7.507   0.368 -1.3994  0.9383  1.7402
 2878SOL    HW218604   2.632   7.642   0.369  0.2047 -0.1014 -0.7718
 2879SOL     OW18605   9.692   4.714   1.651 -0.1247 -1.3263  0.4920
 2879SOL    HW118606   9.632   4.655   1.596 -2.3695  0.9244  0.4045
 2879SOL    HW218607   9.730   4.786   1.592 -0.9211 -0.1142  1.4138
 2880SOL     OW18608   2.908   4.581   2.221  0.1775  0.1698 -0.0108
 2880SOL    HW118609   3.006   4.564   2.216  0.2720  0.9237 -0.7986
 2880SOL    HW218610   2.872   4.545   2.307  0.8377 -1.6245 -0.4688
 2881SOL     OW18611   1.749   6.756   2.068  0.1796  0.8000  0.3937
 2881SOL    HW118612   1.673   6.701   2.032  1.2451 -1.8196  2.0282
 2881SOL    HW218613   1.827   6.750   2.005  0.7890 -0.7658  1.2885
 2882SOL     OW18614   3.106   3.219   0.973  0.5584  0.1217  0.0989
 2882SOL    HW118615   3.051   3.262   0.901  0.7429  1.3096  0.6596
 2882SOL    HW218616   3.191   3.183   0.933  0.0162 -0.5050 -0.5191
 2883SOL     OW18617   0.877   4.890   1.063 -0.1852 -0.1950  0.5119
 2883SOL    HW118618   0.905   4.985   1.078  0.2644 -0.3515  0.6765
 2883SOL    HW218619   0.882   4.869   0.965  0.4610 -0.2717  0.5531
 2884SOL     OW18620   3.208   4.169   1.488  0.6552 -0.4325 -0.2320
 2884SOL    HW118621   3.120   4.147   1.445  0.4280 -1.5042  0.7642
 2884SOL    HW218622   3.234   4.262   1.463 -0.3830 -0.3723 -1.1660
 2885SOL     OW18623   2.939   0.799   1.549 -0.1195 -0.1653  0.0180
 2885SOL    HW118624   2.869   0.739   1.511  0.4526  0.1704 -1.6189
 2885SOL    HW218625   3.025   0.786   1.500  0.3833  0.9926  0.5524
 2886SOL     OW18626   0.839   3.798   0.711  0.0528  0.7894  0.0178
 2886SOL    HW118627   0.927   3.839   0.734  0.4995 -0.2123  0.1338
 2886SOL    HW218628   0.812   3.825   0.619  0.2210  1.5317  0.1845
 2887SOL     OW18629   2.071   2.951   0.601 -0.5382  0.2904  0.2448
 2887SOL    HW118630   2.099   3.029   0.657 -1.3984  0.4723  0.4223
 2887SOL    HW218631   2.086   2.866   0.653 -2.4128  0.5238  1.2182
 2888SOL     OW18632   9.109   5.087   0.293 -0.3112 -0.1411 -0.1239
 2888SOL    HW118633   9.126   5.100   0.391 -1.3335  1.5261 -0.1382
 2888SOL    HW218634   9.186   5.122   0.241  0.5962 -1.7858  0.1054
 2889SOL     OW18635   2.109   9.052   0.072  0.0757 -0.6831 -0.1310
 2889SOL    HW118636   2.184   9.117   0.085  0.0150 -0.8330  1.0530
 2889SOL    HW218637   2.026   9.102   0.048  0.4808 -0.4908 -1.1503
 2890SOL     OW18638   2.861   8.398   0.366 -0.0932 -0.0355  0.2287
 2890SOL    HW118639   2.878   8.374   0.271  0.2714  1.5090 -0.1039
 2890SOL    HW218640   2.788   8.467   0.371  0.8036  0.8725  0.9711
 2891SOL     OW18641   3.592   1.296   1.699 -0.4238 -0.4814 -0.0341
 2891SOL    HW118642   3.683   1.320   1.733  0.0205 -1.5487 -0.4594
 2891SOL    HW218643   3.596   1.283   1.600 -1.0549 -0.4647 -0.0619
 2892SOL     OW18644   3.200   5.536   0.786 -0.2378  0.1102 -0.3889
 2892SOL    HW118645   3.215   5.461   0.722 -1.0399 -1.0847  0.7989
 2892SOL    HW218646   3.279   5.543   0.847  0.0881  0.6084 -0.8643
 2893SOL     OW18647   4.111   3.607   1.580 -0.1389 -0.2192  1.0465
 2893SOL    HW118648   4.169   3.592   1.660  0.1509  0.9618  1.0719
 2893SOL    HW218649   4.167   3.639   1.504 -0.4832 -0.8768  0.5131
 2894SOL     OW18650   0.482   4.921   2.555  0.3263 -0.4879  0.7927
 2894SOL    HW118651   0.551   4.981   2.516 -0.2048 -0.5104 -0.2087
 2894SOL    HW218652   0.522   4.832   2.575  0.9867  0.0164  1.7878
 2895SOL     OW18653   2.871   5.780   0.996 -0.5347  0.3321  0.9107
 2895SOL    HW118654   2.945   5.744   0.938 -1.5720 -0.2062 -0.0874
 2895SOL    HW218655   2.883   5.747   1.089 -0.0329 -0.5069  0.5586
 2896SOL     OW18656   2.404   9.278   0.677  0.1572 -0.3686  0.5063
 2896SOL    HW118657   2.326   9.231   0.718  1.2590 -2.1879  0.6191
 2896SOL    HW218658   2.462   9.316   0.749  0.5730 -1.0546  0.5479
 2897SOL     OW18659   2.132   3.815   1.628 -0.1004 -0.0594  0.0715
 2897SOL    HW118660   2.130   3.831   1.727 -1.4496  0.6788 -0.0731
 2897SOL    HW218661   2.139   3.902   1.580 -3.2182 -0.1104 -0.5855
 2898SOL     OW18662   2.659   4.804   2.039 -0.9996  0.1601 -0.2551
 2898SOL    HW118663   2.688   4.806   1.943 -0.6977 -0.4492 -0.1772
 2898SOL    HW218664   2.652   4.710   2.070 -0.2464  0.3720  0.5812
 2899SOL     OW18665   1.564   0.122   2.412 -0.3170  0.3577  0.5692
 2899SOL    HW118666   1.661   0.138   2.394  0.1143 -1.0994  1.5515
 2899SOL    HW218667   1.526   0.201   2.459  1.0739 -0.1860  2.6736
 2900SOL     OW18668   2.554   4.958   1.684 -0.0179 -0.8610  1.1919
 2900SOL    HW118669   2.594   4.989   1.598 -3.2385 -0.2098 -0.1330
 2900SOL    HW218670   2.568   5.027   1.755  0.5945 -0.3535  0.5761
 2901SOL     OW18671   2.638   6.358   2.505  0.2505  0.2602 -0.0777
 2901SOL    HW118672   2.583   6.315   2.433  0.2026  0.5972 -0.2412
 2901SOL    HW218673   2.732   6.370   2.473 -0.1441  1.8375 -0.6468
 2902SOL     OW18674   3.337   5.167   2.548 -0.3366 -0.4080  0.0263
 2902SOL    HW118675   3.283   5.244   2.513  0.4365  0.4998  0.8144
 2902SOL    HW218676   3.373   5.190   2.638  0.8696 -1.2417 -0.2319
 2903SOL     OW18677   9.607   6.151   2.570  0.4931 -0.0992 -0.0702
 2903SOL    HW118678   9.526   6.132   2.626 -0.9763  2.0147 -1.4162
 2903SOL    HW218679   9.668   6.214   2.619  0.2497  0.0499  0.0425
 2904SOL     OW18680   0.775   4.708   1.257  0.0961 -0.8241 -0.2112
 2904SOL    HW118681   0.840   4.709   1.332  0.6536 -1.7451 -0.6767
 2904SOL    HW218682   0.795   4.784   1.194 -0.2346 -0.1887  0.4456
 2905SOL     OW18683   0.526   5.084   2.264  0.3193 -0.4188  0.0833
 2905SOL    HW118684   0.560   5.136   2.343 -1.9391  1.0304  0.1525
 2905SOL    HW218685   0.473   5.006   2.296  0.6834 -0.7120 -0.0210
 2906SOL     OW18686   0.905   5.173   1.085  0.6523 -0.1857  0.2666
 2906SOL    HW118687   0.812   5.188   1.119 -0.0534 -1.0472 -1.2696
 2906SOL    HW218688   0.917   5.220   0.998  1.3519 -0.9050 -0.0347
 2907SOL     OW18689   1.484   3.459   1.272  0.1100  0.0691  0.1971
 2907SOL    HW118690   1.539   3.482   1.191  0.4777  1.3301  0.7968
 2907SOL    HW218691   1.517   3.510   1.351 -2.7159  1.8929  0.3035
 2908SOL     OW18692   2.817   2.855   1.169  0.2676  0.5767  0.0080
 2908SOL    HW118693   2.905   2.813   1.146 -0.4067 -0.5239 -0.6433
 2908SOL    HW218694   2.800   2.846   1.267 -0.0009 -0.9642 -0.1706
 2909SOL     OW18695   2.629   9.241   2.351 -0.6953 -0.8615 -0.2979
 2909SOL    HW118696   2.595   9.323   2.306  0.5756  0.2171  0.6994
 2909SOL    HW218697   2.700   9.199   2.295  1.8494  1.2259  1.2556
 2910SOL     OW18698   9.016   4.853   1.917 -0.6970 -0.3094  0.1121
 2910SOL    HW118699   9.042   4.766   1.875  1.9913  0.4831  0.0547
 2910SOL    HW218700   9.020   4.926   1.849 -0.6752  0.2561  0.7131
 2911SOL     OW18701   8.838   4.120   1.474 -0.2299  0.0815  0.6401
 2911SOL    HW118702   8.763   4.139   1.538 -0.4185 -1.4880  0.8995
 2911SOL    HW218703   8.823   4.031   1.430 -0.3756  1.3766 -2.0069
 2912SOL     OW18704   2.373   9.929   1.281  0.4212  0.2440  0.2763
 2912SOL    HW118705   2.400   9.939   1.377 -1.0837 -1.5541  0.9054
 2912SOL    HW218706   2.291   9.983   1.264  0.7558  0.6587 -0.0569
 2913SOL     OW18707   2.476   5.785   1.742  0.0939  0.0672  0.3286
 2913SOL    HW118708   2.565   5.743   1.726  0.9516  2.1290 -0.4061
 2913SOL    HW218709   2.429   5.800   1.654 -0.9158 -0.8575  0.6965
 2914SOL     OW18710   4.024   3.986   1.279  0.3022 -0.6682  0.3606
 2914SOL    HW118711   3.926   3.995   1.262  0.5866 -0.2167 -1.1080
 2914SOL    HW218712   4.071   4.067   1.243  1.3675 -1.5509 -0.2501
 2915SOL     OW18713   1.292   3.555   0.343 -0.1055 -0.1221  0.2531
 2915SOL    HW118714   1.245   3.519   0.424 -0.8125 -0.3115 -0.2420
 2915SOL    HW218715   1.238   3.535   0.261  2.3333 -3.1269 -0.7116
 2916SOL     OW18716   4.119   4.165   0.250  0.3378 -0.1192 -0.3158
 2916SOL    HW118717   4.101   4.122   0.338  0.9840 -0.1797 -0.2161
 2916SOL    HW218718   4.098   4.101   0.176  0.3951 -0.2825 -0.1896
 2917SOL     OW18719   9.095   4.268   1.357 -0.4166 -0.3577  0.2528
 2917SOL    HW118720   9.158   4.191   1.342 -1.1408 -0.9423  0.1341
 2917SOL    HW218721   9.010   4.233   1.397 -0.8854  0.3339 -0.1339
 2918SOL     OW18722   3.819   2.914   0.845  0.2257  0.4028 -0.4232
 2918SOL    HW118723   3.910   2.882   0.870 -0.4029 -0.1997  1.1789
 2918SOL    HW218724   3.788   2.866   0.763 -0.0398 -1.9458  1.0068
 2919SOL     OW18725   1.328   6.310   1.888 -0.1066  0.2618  0.2062
 2919SOL    HW118726   1.353   6.407   1.882  1.4762 -0.1485  0.0653
 2919SOL    HW218727   1.250   6.300   1.950 -2.3346  1.9836 -2.2325
 2920SOL     OW18728   3.056   2.383   0.486  0.6331 -0.1575 -0.2940
 2920SOL    HW118729   3.017   2.291   0.482  3.0185 -1.2330  0.1542
 2920SOL    HW218730   3.072   2.417   0.393  0.5625 -0.5671 -0.4567
 2921SOL     OW18731   1.837   7.726   0.010  0.1209  0.5715 -0.0285
 2921SOL    HW118732   1.775   7.805   0.008 -0.0537  0.4580  0.6953
 2921SOL    HW218733   1.821   7.669  -0.070  0.1254  1.1819 -0.4688
 2922SOL     OW18734   9.232   5.240   1.194 -0.2656 -0.0925  0.5501
 2922SOL    HW118735   9.152   5.248   1.253 -2.0524  0.3236 -1.8693
 2922SOL    HW218736   9.262   5.145   1.191 -1.7442 -0.5602  0.1265
 2923SOL     OW18737   1.452   5.098   1.737 -0.1303 -0.2201 -0.0234
 2923SOL    HW118738   1.389   5.021   1.725 -0.7458  0.4853 -1.4830
 2923SOL    HW218739   1.508   5.083   1.818 -2.5721 -0.5988  1.6657
 2924SOL     OW18740   3.942   9.572   1.079 -0.2046  0.4319 -0.1248
 2924SOL    HW118741   3.846   9.558   1.054 -0.1577 -0.9135  0.4012
 2924SOL    HW218742   4.000   9.534   1.007 -0.0691 -0.6071  0.5314
 2925SOL     OW18743   1.727   4.304   0.473  0.9870 -0.0785 -0.0446
 2925SOL    HW118744   1.788   4.349   0.407 -1.9846  1.5472 -1.7530
 2925SOL    HW218745   1.675   4.373   0.522 -1.6903 -1.5115 -0.8034
 2926SOL     OW18746   9.815   5.052   1.816 -0.3770  0.1871 -0.4467
 2926SOL    HW118747   9.833   4.957   1.794  0.7432  0.5673 -1.1899
 2926SOL    HW218748   9.900   5.098   1.840 -1.0542  0.7382  0.9614
 2927SOL     OW18749   2.692   1.888   1.483  0.0135  0.2830 -0.1424
 2927SOL    HW118750   2.776   1.841   1.509 -0.0533  0.3286  0.1567
 2927SOL    HW218751   2.630   1.891   1.561 -0.3722  0.0228 -0.4365
 2928SOL     OW18752   0.716   3.166   2.486  0.3836  0.1690  0.3931
 2928SOL    HW118753   0.739   3.225   2.564 -1.3727  0.1525  0.9493
 2928SOL    HW218754   0.688   3.076   2.520 -1.4121  0.4992 -0.1844
 2929SOL     OW18755   0.458   5.282   1.836 -0.1746  0.1086 -0.3097
 2929SOL    HW118756   0.401   5.247   1.911 -0.4143  0.9149 -0.1043
 2929SOL    HW218757   0.527   5.344   1.874  0.5498 -0.5244 -0.6101
 2930SOL     OW18758   2.779   6.462   0.991 -0.2774 -0.1520 -0.1823
 2930SOL    HW118759   2.765   6.545   0.937 -1.0941 -1.2311 -1.6731
 2930SOL    HW218760   2.707   6.455   1.060  1.3351  1.7347  1.7104
 2931SOL     OW18761   4.275   3.095   0.993  0.2943 -0.4574 -0.2391
 2931SOL    HW118762   4.240   3.019   1.048  0.0361  1.5207  2.3805
 2931SOL    HW218763   4.198   3.142   0.948  0.2801 -0.5348 -0.2973
 2932SOL     OW18764   1.464   6.075   0.333 -0.5123  0.0867  0.1837
 2932SOL    HW118765   1.391   6.139   0.310 -0.6456  0.0329  0.4474
 2932SOL    HW218766   1.540   6.124   0.375 -0.3032  0.1736 -0.3031
 2933SOL     OW18767   2.151   4.984   1.536  0.6834 -0.1613 -0.2586
 2933SOL    HW118768   2.065   5.025   1.567  0.3510 -1.1205  0.1039
 2933SOL    HW218769   2.145   4.885   1.543  1.6602 -0.2567 -0.6718
 2934SOL     OW18770   4.104   1.401   0.213 -0.8820  0.4558  0.0915
 2934SOL    HW118771   4.055   1.346   0.145 -0.5223 -0.3535  0.4785
 2934SOL    HW218772   4.178   1.452   0.167 -0.3139 -0.4848 -0.0529
 2935SOL     OW18773   1.264   5.506   0.134 -0.6865 -0.6120 -0.0302
 2935SOL    HW118774   1.205   5.500   0.215  0.7893 -0.3388  1.0842
 2935SOL    HW218775   1.270   5.601   0.104 -0.0829 -0.5184  0.3971
 2936SOL     OW18776   9.669   4.163   1.391 -0.0644  0.1953 -0.2899
 2936SOL    HW118777   9.610   4.208   1.458  0.1561  0.2568 -0.1337
 2936SOL    HW218778   9.679   4.220   1.310  0.4845  0.5885  0.0435
 2937SOL     OW18779   3.770   0.334   1.872  0.0605  0.1501  0.4040
 2937SOL    HW118780   3.753   0.239   1.898  2.0697 -0.4264 -0.2873
 2937SOL    HW218781   3.760   0.344   1.773  0.4557  0.5202  0.4003
 2938SOL     OW18782   2.411   4.479   1.202  0.1594  0.0720 -0.2000
 2938SOL    HW118783   2.321   4.492   1.245 -0.0410  2.1773 -1.1800
 2938SOL    HW218784   2.464   4.413   1.255 -1.2966  0.1552  1.4069
 2939SOL     OW18785   4.670   2.568   0.666 -0.4638  0.3359  0.1784
 2939SOL    HW118786   4.644   2.482   0.621 -0.5743  0.7692 -0.5826
 2939SOL    HW218787   4.741   2.549   0.734  0.2726 -0.2040 -0.7342
 2940SOL     OW18788   3.844   9.532   1.840 -0.0091  0.0982 -0.0692
 2940SOL    HW118789   3.918   9.496   1.896 -0.3876 -0.9826 -0.2538
 2940SOL    HW218790   3.862   9.628   1.818  1.8380 -0.4225 -0.9529
 2941SOL     OW18791   1.618   6.722   0.450  0.6167 -0.6096 -0.5773
 2941SOL    HW118792   1.701   6.692   0.404  1.4637 -0.6953  0.9739
 2941SOL    HW218793   1.633   6.811   0.493 -0.3161 -0.2920 -0.8868
 2942SOL     OW18794   9.349   5.140   2.561  0.4004 -0.1592  0.6625
 2942SOL    HW118795   9.334   5.045   2.587 -1.0107 -0.2084 -0.2779
 2942SOL    HW218796   9.300   5.160   2.476  2.0626  0.9564 -0.0562
 2943SOL     OW18797   1.718   6.469   1.698 -0.3119 -0.4853 -0.5340
 2943SOL    HW118798   1.655   6.418   1.640  0.8542 -1.2456 -1.1405
 2943SOL    HW218799   1.809   6.429   1.693  0.1164  0.2693  0.7604
 2944SOL     OW18800   4.656   3.805   0.229  0.2226 -0.2389  0.6003
 2944SOL    HW118801   4.681   3.776   0.322  1.9826 -1.7044 -0.2970
 2944SOL    HW218802   4.705   3.748   0.163 -0.1964  1.5063 -1.2344
 2945SOL     OW18803   2.415   5.533   0.557  0.1307  0.0477 -0.3775
 2945SOL    HW118804   2.356   5.494   0.486 -0.1472  0.7682 -0.5573
 2945SOL    HW218805   2.424   5.632   0.541 -1.0757  0.4695  1.3914
 2946SOL     OW18806   4.409   4.165   0.277 -0.2741  0.0350  0.4226
 2946SOL    HW118807   4.312   4.187   0.269 -0.2801 -0.1329  0.0128
 2946SOL    HW218808   4.461   4.226   0.218 -0.0869  0.4397  1.0016
 2947SOL     OW18809   9.386   3.586   2.174 -0.0470  0.5332  0.5054
 2947SOL    HW118810   9.347   3.622   2.090 -1.5853  0.7727  1.3025
 2947SOL    HW218811   9.381   3.486   2.173 -1.8648  0.5972  1.1324
 2948SOL     OW18812   3.497   2.777   0.714 -0.4777  0.0453 -0.0774
 2948SOL    HW118813   3.458   2.869   0.705  1.0515  0.8718  1.3555
 2948SOL    HW218814   3.455   2.730   0.792  0.6950  0.6023  0.9149
 2949SOL     OW18815   1.999   8.814   0.136  0.1647  0.2415  0.5638
 2949SOL    HW118816   2.061   8.892   0.128 -1.9808  2.1744  2.3112
 2949SOL    HW218817   1.909   8.840   0.100 -0.2550 -1.8260  0.0823
 2950SOL     OW18818   4.790   4.166   2.040  0.1034 -0.2107  0.2700
 2950SOL    HW118819   4.878   4.171   2.088 -0.5349  0.0843  1.4176
 2950SOL    HW218820   4.719   4.136   2.103 -0.4178 -1.6378 -0.9506
 2951SOL     OW18821   3.083   3.477   0.086  0.2194 -0.3508 -0.3147
 2951SOL    HW118822   2.997   3.508   0.126  0.0625 -1.0681 -0.0751
 2951SOL    HW218823   3.155   3.483   0.155 -0.3158 -2.8043  0.5097
 2952SOL     OW18824   4.793   4.326   0.097 -0.2452 -0.3573 -0.2803
 2952SOL    HW118825   4.784   4.269   0.179  1.3118  1.2916  1.0631
 2952SOL    HW218826   4.730   4.292   0.027 -1.5386 -1.8592  1.5407
 2953SOL     OW18827   9.264   3.673   1.878 -0.4595 -0.3205 -0.1445
 2953SOL    HW118828   9.281   3.766   1.846 -0.1785  0.1883  1.4606
 2953SOL    HW218829   9.172   3.666   1.916  0.0458 -0.2988  1.1194
 2954SOL     OW18830   3.228   4.503   2.244  0.0965  0.1918 -0.3147
 2954SOL    HW118831   3.207   4.524   2.148  0.5026  0.8190 -0.2660
 2954SOL    HW218832   3.320   4.534   2.265 -0.6124  1.6300  0.7651
 2955SOL     OW18833   2.720   8.545   0.572 -0.7180 -0.5392 -0.2105
 2955SOL    HW118834   2.713   8.602   0.654 -0.4782 -1.2911  0.3484
 2955SOL    HW218835   2.629   8.511   0.547 -0.8119 -0.1923 -0.3438
 2956SOL     OW18836   1.620   9.779   0.732  0.2206 -0.3219  0.3944
 2956SOL    HW118837   1.561   9.716   0.682  1.8956 -1.2579 -0.4424
 2956SOL    HW218838   1.585   9.791   0.825 -2.3888  0.6905 -0.6617
 2957SOL     OW18839   3.061   6.046   0.205 -0.3548  0.0299  0.3789
 2957SOL    HW118840   3.081   6.097   0.121  0.8456  1.8469  1.7173
 2957SOL    HW218841   3.110   5.959   0.204 -0.2162  0.1152 -0.7398
 2958SOL     OW18842   0.856   7.634   0.797 -0.1633 -0.7328  0.1240
 2958SOL    HW118843   0.944   7.619   0.842  0.0024  0.7273  0.3207
 2958SOL    HW218844   0.871   7.649   0.699 -0.0412  0.9023  0.3800
 2959SOL     OW18845   1.868   0.247   1.500 -0.5378 -0.5115  0.4816
 2959SOL    HW118846   1.897   0.270   1.407 -1.2331  0.6397  0.5436
 2959SOL    HW218847   1.942   0.267   1.564 -0.8259  0.7711  0.4302
 2960SOL     OW18848   2.120   7.881   0.174 -0.0854  0.6956 -0.5467
 2960SOL    HW118849   2.105   7.892   0.076  2.1106  2.4206 -0.7217
 2960SOL    HW218850   2.167   7.794   0.191  2.2887  1.7681 -1.3694
 2961SOL     OW18851   1.299   3.191   1.191 -0.3663  0.5588  0.4288
 2961SOL    HW118852   1.235   3.230   1.125 -2.7325 -1.5641  1.3822
 2961SOL    HW218853   1.319   3.258   1.262 -4.2667  0.1950  1.9850
 2962SOL     OW18854   1.547   9.364   0.605 -0.2867 -0.2268  0.2121
 2962SOL    HW118855   1.566   9.331   0.512 -0.4193 -0.4187  0.2535
 2962SOL    HW218856   1.539   9.463   0.604 -0.2255 -0.2226  0.0284
 2963SOL     OW18857   3.736   2.938   0.377  0.5165 -0.1585 -0.5013
 2963SOL    HW118858   3.730   2.867   0.448 -1.8132 -1.8145 -2.2694
 2963SOL    HW218859   3.809   2.913   0.313  1.6425  0.5856  0.4604
 2964SOL     OW18860   2.296   9.053   0.288 -0.1248  0.3271  0.2897
 2964SOL    HW118861   2.253   9.072   0.377 -0.9862  0.8849 -0.2409
 2964SOL    HW218862   2.300   9.137   0.234 -1.4336 -0.3925 -0.9797
 2965SOL     OW18863   3.200   9.856   2.139  0.2801  0.1567 -0.5357
 2965SOL    HW118864   3.227   9.801   2.060  1.4754  1.3773 -0.9923
 2965SOL    HW218865   3.215   9.953   2.120  0.2717  0.4967  1.0642
 2966SOL     OW18866   2.081   4.395   1.368 -0.2843 -0.4038  0.3258
 2966SOL    HW118867   2.004   4.348   1.325  0.9309  0.4472 -2.8848
 2966SOL    HW218868   2.112   4.342   1.448 -2.6874 -1.9395  0.2819
 2967SOL     OW18869   4.161   2.482   1.197 -0.5898  0.1391  0.3447
 2967SOL    HW118870   4.251   2.439   1.193 -0.2484  0.6574  2.2557
 2967SOL    HW218871   4.098   2.423   1.249  0.0528  2.1733  3.5513
 2968SOL     OW18872   2.544   5.680   1.050 -0.1463  0.1002  0.6092
 2968SOL    HW118873   2.490   5.604   1.012  2.2899 -0.8772 -1.0290
 2968SOL    HW218874   2.539   5.759   0.988  0.6451 -0.1550  0.2069
 2969SOL     OW18875   3.228   2.478   0.640 -0.3616 -0.1062  0.1254
 2969SOL    HW118876   3.156   2.431   0.589  0.6158  0.0148 -1.4092
 2969SOL    HW218877   3.311   2.482   0.584 -0.1248  2.6153  0.5926
 2970SOL     OW18878   2.838   3.487   2.471 -0.5166  0.2004  0.0245
 2970SOL    HW118879   2.880   3.450   2.554  0.1716 -0.6929 -0.7116
 2970SOL    HW218880   2.887   3.570   2.443 -1.5497  1.2303  1.2181
 2971SOL     OW18881   2.682   0.692   0.721 -0.2019  0.4890  0.1645
 2971SOL    HW118882   2.772   0.719   0.688  1.1573 -1.4839  2.1567
 2971SOL    HW218883   2.670   0.594   0.707 -0.6142  0.0757  3.1018
 2972SOL     OW18884   3.108   7.779   0.352  0.7026  0.1305 -0.0643
 2972SOL    HW118885   3.179   7.814   0.291  0.3746  1.2186  0.1756
 2972SOL    HW218886   3.127   7.808   0.446  1.1357 -1.4294  0.3543
 2973SOL     OW18887   1.545   6.054   1.568  0.6413  0.1366  0.0993
 2973SOL    HW118888   1.609   5.977   1.576 -0.0683 -0.3547  1.1456
 2973SOL    HW218889   1.482   6.036   1.492 -0.0777 -0.7454  0.8837
 2974SOL     OW18890   3.029   1.403   1.737 -0.9368  0.0247  0.2173
 2974SOL    HW118891   3.098   1.423   1.667 -1.8405 -1.2696 -1.1001
 2974SOL    HW218892   3.023   1.304   1.749  0.3355  0.2890  3.3274
 2975SOL     OW18893   1.135   4.761   2.513  0.2558 -0.0955 -0.5111
 2975SOL    HW118894   1.158   4.792   2.605  0.4382 -0.6479 -0.3718
 2975SOL    HW218895   1.124   4.841   2.453 -0.8376  0.2939  0.2077
 2976SOL     OW18896   1.406   8.017   1.572 -0.1034  0.2875 -0.5142
 2976SOL    HW118897   1.318   8.055   1.544 -0.0757  0.7228 -0.0216
 2976SOL    HW218898   1.396   7.920   1.593 -0.3913  0.2548 -0.8038
 2977SOL     OW18899   1.927   9.953   1.112  0.8244  0.0054  0.4748
 2977SOL    HW118900   1.890   9.963   1.020  1.1880  0.5824  0.3825
 2977SOL    HW218901   1.998   9.882   1.113 -0.8069 -1.6485  0.8216
 2978SOL     OW18902   9.731   3.500   0.704  0.0290  0.2417 -0.0061
 2978SOL    HW118903   9.822   3.503   0.745 -0.7836 -1.9349  2.0301
 2978SOL    HW218904   9.663   3.531   0.771 -1.2554 -2.8797  0.1809
 2979SOL     OW18905   1.607   4.948   1.266  0.2257 -0.2756  0.4941
 2979SOL    HW118906   1.614   5.039   1.305 -0.6324  0.3738 -0.8353
 2979SOL    HW218907   1.515   4.911   1.283  0.7179 -1.0995  1.4467
 2980SOL     OW18908   1.459   0.035   0.603 -0.0582  0.6152 -0.2120
 2980SOL    HW118909   1.540   0.090   0.622  0.6122 -0.1733 -0.7649
 2980SOL    HW218910   1.470  -0.056   0.643 -1.1162  0.8303  0.6073
 2981SOL     OW18911   2.242   6.847   1.045 -0.2382 -0.6546 -0.3592
 2981SOL    HW118912   2.143   6.835   1.030 -0.4589 -0.0320  0.5427
 2981SOL    HW218913   2.260   6.853   1.143  0.4669  1.0902 -0.5794
 2982SOL     OW18914   1.118   6.142   0.109  0.5860  0.0862  0.0801
 2982SOL    HW118915   1.074   6.191   0.034  0.8168  0.3744  0.1336
 2982SOL    HW218916   1.050   6.117   0.178  0.7535  1.9369  0.9454
 2983SOL     OW18917   1.165   4.349   0.612  0.0073  0.2366  0.9041
 2983SOL    HW118918   1.167   4.448   0.596  1.7817  0.0915  0.0676
 2983SOL    HW218919   1.149   4.302   0.525 -1.7982 -0.2006  1.4495
 2984SOL     OW18920   4.179   3.229   1.742 -0.0151  0.0216 -0.2633
 2984SOL    HW118921   4.248   3.246   1.671 -0.3525  2.5991 -0.0263
 2984SOL    HW218922   4.145   3.317   1.776 -1.1096 -1.2160  1.8812
 2985SOL     OW18923   1.790   5.141   0.837 -0.0684  0.6597 -0.4539
 2985SOL    HW118924   1.761   5.085   0.760 -0.4036  0.4331 -0.1597
 2985SOL    HW218925   1.740   5.228   0.837  0.8003  1.1717 -1.1938
 2986SOL     OW18926   1.452   2.197   0.618 -0.5692 -0.1322  0.2524
 2986SOL    HW118927   1.424   2.257   0.692  0.7135  0.9432 -0.1185
 2986SOL    HW218928   1.473   2.106   0.655  0.1259  0.4108  1.2176
 2987SOL     OW18929   4.137   0.892   1.512 -0.9095  0.2084 -0.3316
 2987SOL    HW118930   4.098   0.812   1.558  0.0298 -0.1426 -0.1324
 2987SOL    HW218931   4.078   0.971   1.527 -0.5207  0.1454  1.6365
  10.00000  10.00000   2.62019
