chitosan Film  in water:acetic acid 2%
11118
    1CHTO  H203    1   4.708   7.132   0.283
    1CHTO   O82    2   4.678   7.046   0.304
    1CHTO  C123    3   4.783   6.972   0.369
    1CHTO  H227    4   4.820   7.030   0.455
    1CHTO   O77    5   4.715   6.851   0.414
    1CHTO  C118    6   4.797   6.766   0.496
    1CHTO  H222    7   4.832   6.823   0.584
    1CHTO  C125    8   4.707   6.647   0.546
    1CHTO   O84    9   4.648   6.574   0.438
    1CHTO  H205   10   4.586   6.512   0.473
    1CHTO  C114   11   4.918   6.714   0.418
    1CHTO  H218   12   4.883   6.646   0.340
    1CHTO  C116   13   4.997   6.829   0.346
    1CHTO  H220   14   5.057   6.883   0.423
    1CHTO   O79   15   5.092   6.770   0.255
    1CHTO  H201   16   5.157   6.723   0.303
    1CHTO  C120   17   4.900   6.931   0.272
    1CHTO  H224   18   4.859   6.877   0.184
    1CHTO   N21   19   4.975   7.049   0.221
    1CHTO  H211   20   5.012   7.029   0.121
    1CHTO  H212   21   4.913   7.137   0.221
    1CHTO   O75   22   4.997   6.645   0.516
    1CHTO  C112   23   5.048   6.498   0.473
    1CHTO  H216   24   5.042   6.488   0.363
    1CHTO   O73   25   4.964   6.403   0.540
    1CHTO  C113   26   4.991   6.266   0.505
    1CHTO  H217   27   4.977   6.254   0.395
    1CHTO  C124   28   4.884   6.181   0.575
    1CHTO   O83   29   4.891   6.042   0.542
    1CHTO  H204   30   4.845   5.992   0.607
    1CHTO  C109   31   5.135   6.226   0.547
    1CHTO  H213   32   5.136   6.221   0.657
    1CHTO  C110   33   5.241   6.329   0.496
    1CHTO  H214   34   5.256   6.311   0.389
    1CHTO   O78   35   5.366   6.301   0.562
    1CHTO  H200   36   5.434   6.353   0.525
    1CHTO  C111   37   5.198   6.477   0.519
    1CHTO  H215   38   5.202   6.498   0.627
    1CHTO   N19   39   5.288   6.574   0.453
    1CHTO  H207   40   5.389   6.563   0.491
    1CHTO  H208   41   5.288   6.559   0.346
    1CHTO   O74   42   5.166   6.094   0.493
    1CHTO  C115   43   5.242   5.992   0.589
    1CHTO  H219   44   5.243   6.027   0.693
    1CHTO   O76   45   5.170   5.853   0.594
    1CHTO  C122   46   5.147   5.801   0.462
    1CHTO  H226   47   5.061   5.853   0.421
    1CHTO  C126   48   5.103   5.651   0.475
    1CHTO   O85   49   5.202   5.568   0.537
    1CHTO  H206   50   5.211   5.591   0.628
    1CHTO  C121   51   5.273   5.816   0.365
    1CHTO  H225   52   5.286   5.721   0.310
    1CHTO   O81   53   5.248   5.917   0.266
    1CHTO  H202   54   5.176   5.891   0.211
    1CHTO  C119   55   5.403   5.846   0.445
    1CHTO  H223   56   5.415   5.760   0.512
    1CHTO  C117   57   5.389   5.976   0.534
    1CHTO  H221   58   5.408   6.068   0.480
    1CHTO   N20   59   5.490   5.976   0.646
    1CHTO  H209   60   5.590   5.968   0.605
    1CHTO  H210   61   5.471   5.894   0.713
    1CHTO   O80   62   5.536   5.839   0.359
    1CHTO  C103   63   5.622   5.707   0.359
    1CHTO  H190   64   5.623   5.663   0.459
    1CHTO  C101   65   5.580   5.596   0.255
    1CHTO  H188   66   5.570   5.642   0.156
    1CHTO   O68   67   5.443   5.538   0.295
    1CHTO  H168   68   5.377   5.604   0.290
    1CHTO   C99   69   5.689   5.479   0.247
    1CHTO  H186   70   5.684   5.421   0.341
    1CHTO   N17   71   5.665   5.381   0.135
    1CHTO  H174   72   5.677   5.430   0.040
    1CHTO  H175   73   5.566   5.339   0.145
    1CHTO   C97   74   5.834   5.536   0.241
    1CHTO  H184   75   5.856   5.571   0.139
    1CHTO   O64   76   5.855   5.638   0.340
    1CHTO  C104   77   5.769   5.752   0.327
    1CHTO  H191   78   5.772   5.795   0.227
    1CHTO  C108   79   5.817   5.861   0.423
    1CHTO   O71   80   5.948   5.907   0.389
    1CHTO  H171   81   6.011   5.839   0.405
    1CHTO   O62   82   5.929   5.436   0.284
    1CHTO   C91   83   6.037   5.400   0.195
    1CHTO  H178   84   6.005   5.417   0.092
    1CHTO   C92   85   6.059   5.246   0.209
    1CHTO  H179   86   6.069   5.222   0.317
    1CHTO   O66   87   5.938   5.179   0.166
    1CHTO  H166   88   5.944   5.087   0.182
    1CHTO   C93   89   6.184   5.193   0.129
    1CHTO  H180   90   6.159   5.201   0.022
    1CHTO   N16   91   6.215   5.050   0.154
    1CHTO  H172   92   6.208   4.993   0.062
    1CHTO  H173   93   6.150   5.008   0.229
    1CHTO   C94   94   6.309   5.283   0.158
    1CHTO  H181   95   6.341   5.275   0.262
    1CHTO   O61   96   6.276   5.420   0.134
    1CHTO   C95   97   6.175   5.473   0.220
    1CHTO  H182   98   6.205   5.458   0.324
    1CHTO  C106   99   6.166   5.628   0.196
    1CHTO   O69  100   6.288   5.692   0.236
    1CHTO  H169  101   6.278   5.785   0.229
    1CHTO   O63  102   6.433   5.244   0.059
    1CHTO   C96  103   6.556   5.334   0.077
    1CHTO  H183  104   6.521   5.431   0.112
    1CHTO   C98  105   6.635   5.357   2.821
    1CHTO  H185  106   6.565   5.380   2.739
    1CHTO   O67  107   6.715   5.475   2.837
    1CHTO  H167  108   6.777   5.464   0.030
    1CHTO  C102  109   6.732   5.236   2.782
    1CHTO  H189  110   6.803   5.277   2.708
    1CHTO   N18  111   6.664   5.124   2.712
    1CHTO  H176  112   6.737   5.048   2.685
    1CHTO  H177  113   6.589   5.080   2.776
    1CHTO  C105  114   6.813   5.188   0.031
    1CHTO  H192  115   6.791   5.083   0.053
    1CHTO   O65  116   6.788   5.263   0.152
    1CHTO  C100  117   6.649   5.270   0.190
    1CHTO  H187  118   6.615   5.167   0.209
    1CHTO  C107  119   6.639   5.347   0.324
    1CHTO   O70  120   6.692   5.480   0.315
    1CHTO  H170  121   6.785   5.476   0.310
    1CHTO   O57  122   6.962   5.206   2.866
    1CHTO   C85  123   7.055   5.097   0.002
    1CHTO  H157  124   7.007   5.010   2.828
    1CHTO   C83  125   7.071   5.055   0.153
    1CHTO  H155  126   6.975   5.016   0.187
    1CHTO   O56  127   7.097   5.172   0.233
    1CHTO  H135  128   7.181   5.208   0.211
    1CHTO   C81  129   7.177   4.943   0.165
    1CHTO  H153  130   7.145   4.858   0.104
    1CHTO   N14  131   7.187   4.886   0.302
    1CHTO  H141  132   7.091   4.852   0.335
    1CHTO  H142  133   7.223   4.960   0.370
    1CHTO   C79  134   7.316   4.994   0.109
    1CHTO  H151  135   7.385   4.909   0.113
    1CHTO   O52  136   7.301   5.029   2.844
    1CHTO   C86  137   7.198   5.129   2.817
    1CHTO  H158  138   7.239   5.224   2.859
    1CHTO   C90  139   7.191   5.150   2.664
    1CHTO   O60  140   7.109   5.261   2.627
    1CHTO  H138  141   7.112   5.274   2.535
    1CHTO   O50  142   7.373   5.103   0.183
    1CHTO   C73  143   7.505   5.159   0.201
    1CHTO  H145  144   7.552   5.178   0.104
    1CHTO   C74  145   7.595   5.062   0.283
    1CHTO  H146  146   7.601   4.967   0.227
    1CHTO   O54  147   7.729   5.115   0.287
    1CHTO  H133  148   7.767   5.115   0.202
    1CHTO   C75  149   7.531   5.041   0.427
    1CHTO  H147  150   7.435   4.990   0.414
    1CHTO   N13  151   7.609   4.952   0.517
    1CHTO  H139  152   7.696   4.912   0.468
    1CHTO  H140  153   7.548   4.870   0.552
    1CHTO   C76  154   7.499   5.182   0.496
    1CHTO  H148  155   7.593   5.228   0.528
    1CHTO   O49  156   7.429   5.274   0.405
    1CHTO   C77  157   7.495   5.293   0.279
    1CHTO  H149  158   7.595   5.331   0.298
    1CHTO   C88  159   7.427   5.406   0.199
    1CHTO   O58  160   7.283   5.386   0.180
    1CHTO  H136  161   7.239   5.392   0.263
    1CHTO   O51  162   7.398   5.157   0.618
    1CHTO   C78  163   7.341   5.286   0.685
    1CHTO  H150  164   7.349   5.374   0.618
    1CHTO   C80  165   7.418   5.317   0.815
    1CHTO  H152  166   7.417   5.226   0.880
    1CHTO   O55  167   7.555   5.344   0.778
    1CHTO  H134  168   7.607   5.357   0.855
    1CHTO   C84  169   7.353   5.438   0.894
    1CHTO  H156  170   7.367   5.528   0.834
    1CHTO   N15  171   7.421   5.464   1.026
    1CHTO  H143  172   7.375   5.547   1.075
    1CHTO  H144  173   7.412   5.377   1.089
    1CHTO   C87  174   7.201   5.415   0.912
    1CHTO  H159  175   7.184   5.333   0.982
    1CHTO   O53  176   7.137   5.381   0.775
    1CHTO   C82  177   7.192   5.263   0.715
    1CHTO  H154  178   7.180   5.178   0.781
    1CHTO   C89  179   7.114   5.231   0.585
    1CHTO   O59  180   6.979   5.196   0.614
    1CHTO  H137  181   6.932   5.180   0.534
    1CHTO   O45  182   7.126   5.551   0.974
    1CHTO   C67  183   7.087   5.651   0.878
    1CHTO  H124  184   7.161   5.655   0.798
    1CHTO   C65  185   6.947   5.620   0.816
    1CHTO  H122  186   6.934   5.512   0.820
    1CHTO   O44  187   6.945   5.664   0.679
    1CHTO  H102  188   6.865   5.640   0.638
    1CHTO   C63  189   6.835   5.681   0.908
    1CHTO  H120  190   6.855   5.651   1.011
    1CHTO   N11  191   6.697   5.627   0.887
    1CHTO  H108  192   6.630   5.667   0.960
    1CHTO  H109  193   6.663   5.653   0.789
    1CHTO   C61  194   6.849   5.839   0.902
    1CHTO  H118  195   6.804   5.879   0.995
    1CHTO   O40  196   6.987   5.885   0.898
    1CHTO   C68  197   7.090   5.794   0.949
    1CHTO  H125  198   7.074   5.781   1.058
    1CHTO   C72  199   7.229   5.860   0.931
    1CHTO   O48  200   7.240   5.985   1.001
    1CHTO  H105  201   7.192   6.051   0.955
    1CHTO   O38  202   6.789   5.895   0.784
    1CHTO   C55  203   6.717   6.019   0.800
    1CHTO  H112  204   6.761   6.077   0.883
    1CHTO   C56  205   6.563   5.991   0.823
    1CHTO  H113  206   6.533   5.916   0.748
    1CHTO   O42  207   6.546   5.928   0.951
    1CHTO  H100  208   6.456   5.905   0.965
    1CHTO   C57  209   6.475   6.121   0.810
    1CHTO  H114  210   6.496   6.185   0.895
    1CHTO   N10  211   6.329   6.094   0.814
    1CHTO  H106  212   6.291   6.072   0.715
    1CHTO  H107  213   6.308   6.010   0.879
    1CHTO   C58  214   6.515   6.199   0.681
    1CHTO  H115  215   6.487   6.137   0.592
    1CHTO   O37  216   6.656   6.224   0.678
    1CHTO   C59  217   6.738   6.106   0.672
    1CHTO  H116  218   6.712   6.049   0.583
    1CHTO   C70  219   6.884   6.150   0.658
    1CHTO   O46  220   6.931   6.232   0.766
    1CHTO  H103  221   6.887   6.314   0.765
    1CHTO   O39  222   6.437   6.346   0.670
    1CHTO   C60  223   6.463   6.447   0.769
    1CHTO  H117  224   6.457   6.403   0.869
    1CHTO   C62  225   6.604   6.514   0.756
    1CHTO  H119  226   6.679   6.436   0.784
    1CHTO   O43  227   6.625   6.551   0.618
    1CHTO  H101  228   6.711   6.586   0.607
    1CHTO   C66  229   6.618   6.637   0.857
    1CHTO  H123  230   6.602   6.601   0.959
    1CHTO   N12  231   6.754   6.697   0.857
    1CHTO  H110  232   6.760   6.777   0.929
    1CHTO  H111  233   6.778   6.732   0.758
    1CHTO   C69  234   6.506   6.739   0.824
    1CHTO  H126  235   6.513   6.767   0.716
    1CHTO   O41  236   6.373   6.671   0.850
    1CHTO   C64  237   6.349   6.554   0.760
    1CHTO  H121  238   6.344   6.590   0.655
    1CHTO   C71  239   6.211   6.493   0.794
    1CHTO   O47  240   6.204   6.453   0.931
    1CHTO  H104  241   6.119   6.417   0.949
    1CHTO   O34  242   6.513   6.869   0.907
    1CHTO   C49  243   6.438   7.003   0.904
    1CHTO   H91  244   6.345   6.988   0.959
    1CHTO   C47  245   6.407   7.044   0.758
    1CHTO   H89  246   6.350   7.140   0.764
    1CHTO   O33  247   6.322   6.944   0.699
    1CHTO   H70  248   6.296   6.971   0.613
    1CHTO   C45  249   6.546   7.068   0.681
    1CHTO   H87  250   6.608   6.978   0.692
    1CHTO    N8  251   6.527   7.094   0.536
    1CHTO   H75  252   6.472   7.013   0.491
    1CHTO   H76  253   6.624   7.103   0.488
    1CHTO   C43  254   6.628   7.185   0.756
    1CHTO   H85  255   6.725   7.190   0.708
    1CHTO   O29  256   6.639   7.157   0.898
    1CHTO   C50  257   6.523   7.114   0.972
    1CHTO   H92  258   6.561   7.072   1.067
    1CHTO   C54  259   6.439   7.235   1.019
    1CHTO   O36  260   6.329   7.196   1.103
    1CHTO   H72  261   6.264   7.153   1.052
    1CHTO   O27  262   6.568   7.314   0.736
    1CHTO   C37  263   6.568   7.455   0.762
    1CHTO   H79  264   6.541   7.475   0.867
    1CHTO   C38  265   6.709   7.518   0.738
    1CHTO   H80  266   6.742   7.491   0.636
    1CHTO   O31  267   6.800   7.459   0.833
    1CHTO   H68  268   6.776   7.481   0.921
    1CHTO   C39  269   6.704   7.675   0.752
    1CHTO   H81  270   6.682   7.697   0.857
    1CHTO    N7  271   6.834   7.742   0.719
    1CHTO   H73  272   6.826   7.849   0.736
    1CHTO   H74  273   6.860   7.724   0.616
    1CHTO   C40  274   6.585   7.735   0.667
    1CHTO   H82  275   6.608   7.730   0.561
    1CHTO   O26  276   6.462   7.667   0.699
    1CHTO   C41  277   6.465   7.524   0.670
    1CHTO   H83  278   6.493   7.508   0.564
    1CHTO   C52  279   6.322   7.467   0.689
    1CHTO   O35  280   6.226   7.525   0.595
    1CHTO   H71  281   6.140   7.489   0.612
    1CHTO   O28  282   6.554   7.870   0.706
    1CHTO   C42  283   6.546   7.980   0.608
    1CHTO   H84  284   6.603   7.947   0.522
    1CHTO   C44  285   6.612   8.112   0.658
    1CHTO   H86  286   6.567   8.140   0.753
    1CHTO   O32  287   6.751   8.083   0.682
    1CHTO   H69  288   6.793   8.157   0.722
    1CHTO   C48  289   6.593   8.233   0.557
    1CHTO   H90  290   6.656   8.214   0.470
    1CHTO    N9  291   6.644   8.363   0.615
    1CHTO   H77  292   6.591   8.386   0.706
    1CHTO   H78  293   6.632   8.443   0.543
    1CHTO   C51  294   6.443   8.243   0.511
    1CHTO   H93  295   6.384   8.270   0.599
    1CHTO   O30  296   6.404   8.115   0.458
    1CHTO   C46  297   6.400   8.009   0.559
    1CHTO   H88  298   6.340   8.042   0.644
    1CHTO   C53  299   6.333   7.887   0.492
    1CHTO   O72  300   6.195   7.914   0.462
    1CHTO  H199  301   6.147   7.924   0.541
    1CHTO   O22  302   6.422   8.342   0.408
    1CHTO   C31  303   6.403   8.324   0.262
    1CHTO   H59  304   6.396   8.427   0.221
    1CHTO   C29  305   6.520   8.254   0.189
    1CHTO   H57  306   6.525   8.150   0.223
    1CHTO   O21  307   6.643   8.318   0.228
    1CHTO   H37  308   6.716   8.270   0.194
    1CHTO   C27  309   6.494   8.256   0.032
    1CHTO   H55  310   6.484   8.361   2.876
    1CHTO    N5  311   6.603   8.193   2.830
    1CHTO   H43  312   6.583   8.202   2.724
    1CHTO   H44  313   6.698   8.241   2.853
    1CHTO   C25  314   6.356   8.185   0.007
    1CHTO   H53  315   6.362   8.082   0.046
    1CHTO   O17  316   6.252   8.256   0.080
    1CHTO   C32  317   6.268   8.254   0.223
    1CHTO   H60  318   6.270   8.151   0.257
    1CHTO   C36  319   6.143   8.324   0.282
    1CHTO   O25  320   6.134   8.308   0.424
    1CHTO   H40  321   6.117   8.218   0.444
    1CHTO   O15  322   6.314   8.179   2.725
    1CHTO   C19  323   6.223   8.080   2.666
    1CHTO   H47  324   6.238   7.990   2.728
    1CHTO   C20  325   6.072   8.119   2.668
    1CHTO   H48  326   6.053   8.211   2.611
    1CHTO   O19  327   6.037   8.144   2.805
    1CHTO   H35  328   5.948   8.175   2.810
    1CHTO   C21  329   5.981   8.004   2.605
    1CHTO   H49  330   5.985   7.917   2.672
    1CHTO    N4  331   5.838   8.043   2.594
    1CHTO   H41  332   5.829   8.133   2.535
    1CHTO   H42  333   5.798   8.063   2.693
    1CHTO   C22  334   6.039   7.958   2.468
    1CHTO   H50  335   6.027   8.040   2.398
    1CHTO   O14  336   6.179   7.928   2.480
    1CHTO   C23  337   6.261   8.039   2.521
    1CHTO   H51  338   6.245   8.121   2.449
    1CHTO   C34  339   6.409   7.998   2.510
    1CHTO   O23  340   6.445   7.971   2.373
    1CHTO   H38  341   6.404   7.891   2.345
    1CHTO   O16  342   5.970   7.841   2.415
    1CHTO   C24  343   6.039   7.691   2.435
    1CHTO   H52  344   6.113   7.690   2.516
    1CHTO   C26  345   6.107   7.650   2.303
    1CHTO   H54  346   6.029   7.645   2.223
    1CHTO   O20  347   6.203   7.749   2.263
    1CHTO   H36  348   6.271   7.756   2.327
    1CHTO   C30  349   6.174   7.509   2.316
    1CHTO   H58  350   6.266   7.521   2.373
    1CHTO    N6  351   6.216   7.456   2.183
    1CHTO   H45  352   6.269   7.363   2.197
    1CHTO   H46  353   6.130   7.439   2.121
    1CHTO   C33  354   6.088   7.405   2.395
    1CHTO   H61  355   6.018   7.353   2.328
    1CHTO   O18  356   6.012   7.464   2.503
    1CHTO   C28  357   5.935   7.580   2.467
    1CHTO   H56  358   5.875   7.560   2.378
    1CHTO   C35  359   5.840   7.620   2.583
    1CHTO   O24  360   5.739   7.712   2.542
    1CHTO   H39  361   5.681   7.728   2.614
    1CHTO    O9  362   6.179   7.303   2.443
    1CHTO   C13  363   6.126   7.169   2.514
    1CHTO   H26  364   6.033   7.193   2.569
    1CHTO   C11  365   6.241   7.120   2.612
    1CHTO   H24  366   6.255   7.197   2.689
    1CHTO    O8  367   6.365   7.108   2.540
    1CHTO    H3  368   6.435   7.088   2.600
    1CHTO    C9  369   6.194   6.989   2.679
    1CHTO   H22  370   6.095   7.012   2.721
    1CHTO    N2  371   6.273   6.951   2.798
    1CHTO   H10  372   6.270   7.030   2.872
    1CHTO   H11  373   6.375   6.930   2.770
    1CHTO    C7  374   6.177   6.876   2.569
    1CHTO   H20  375   6.084   6.824   2.598
    1CHTO    O4  376   6.163   6.930   2.436
    1CHTO   C14  377   6.089   7.051   2.412
    1CHTO   H27  378   5.981   7.028   2.423
    1CHTO   C18  379   6.113   7.088   2.264
    1CHTO   O13  380   6.068   6.986   2.174
    1CHTO    H7  381   6.092   7.009   2.087
    1CHTO    O2  382   6.303   6.765   2.566
    1CHTO    C1  383   6.280   6.659   2.472
    1CHTO   H14  384   6.195   6.685   2.405
    1CHTO    C2  385   6.250   6.520   2.539
    1CHTO   H15  386   6.339   6.494   2.599
    1CHTO    O6  387   6.137   6.536   2.626
    1CHTO    H1  388   6.060   6.555   2.577
    1CHTO    C3  389   6.225   6.411   2.424
    1CHTO   H16  390   6.138   6.442   2.364
    1CHTO    N1  391   6.194   6.273   2.477
    1CHTO    H8  392   6.277   6.237   2.536
    1CHTO    H9  393   6.106   6.277   2.538
    1CHTO    C4  394   6.348   6.411   2.324
    1CHTO   H17  395   6.434   6.366   2.374
    1CHTO    O1  396   6.379   6.544   2.279
    1CHTO    C5  397   6.404   6.643   2.380
    1CHTO   H18  398   6.487   6.612   2.442
    1CHTO   C16  399   6.441   6.776   2.309
    1CHTO   O11  400   6.566   6.763   2.240
    1CHTO    H5  401   6.590   6.846   2.204
    1CHTO    O3  402   6.317   6.338   2.203
    1CHTO    C6  403   6.431   6.287   2.127
    1CHTO   H19  404   6.527   6.323   2.165
    1CHTO    C8  405   6.432   6.131   2.132
    1CHTO   H21  406   6.333   6.095   2.104
    1CHTO    O7  407   6.459   6.092   2.268
    1CHTO    H2  408   6.545   6.117   2.294
    1CHTO   C12  409   6.538   6.069   2.031
    1CHTO   H25  410   6.639   6.094   2.072
    1CHTO    N3  411   6.530   5.919   2.025
    1CHTO   H12  412   6.605   5.881   1.958
    1CHTO   H13  413   6.431   5.889   1.993
    1CHTO   C15  414   6.524   6.136   1.890
    1CHTO   H28  415   6.431   6.107   1.841
    1CHTO   O10  416   6.643   6.107   1.796
    1CHTO    H4  417   6.642   6.016   1.772
    1CHTO    O5  418   6.530   6.279   1.902
    1CHTO   C10  419   6.421   6.335   1.978
    1CHTO   H23  420   6.327   6.301   1.934
    1CHTO   C17  421   6.431   6.487   1.959
    1CHTO   O12  422   6.311   6.553   2.000
    1CHTO    H6  423   6.323   6.646   1.996
    2CHTO  H203  424   5.168   4.118   0.572
    2CHTO   O82  425   5.097   4.147   0.625
    2CHTO  C123  426   4.980   4.166   0.544
    2CHTO  H227  427   4.958   4.072   0.491
    2CHTO   O77  428   4.876   4.192   0.643
    2CHTO  C118  429   4.744   4.201   0.588
    2CHTO  H222  430   4.720   4.108   0.534
    2CHTO  C125  431   4.643   4.218   0.707
    2CHTO   O84  432   4.631   4.097   0.782
    2CHTO  H205  433   4.579   4.035   0.735
    2CHTO  C114  434   4.735   4.320   0.491
    2CHTO  H218  435   4.748   4.412   0.548
    2CHTO  C116  436   4.846   4.315   0.382
    2CHTO  H220  437   4.822   4.234   0.309
    2CHTO   O79  438   4.844   4.438   0.307
    2CHTO  H201  439   4.765   4.444   0.257
    2CHTO  C120  440   4.989   4.288   0.445
    2CHTO  H224  441   5.017   4.380   0.502
    2CHTO   N21  442   5.093   4.267   0.341
    2CHTO  H211  443   5.050   4.221   0.253
    2CHTO  H212  444   5.140   4.361   0.315
    2CHTO   O75  445   4.602   4.313   0.436
    2CHTO  C112  446   4.523   4.453   0.424
    2CHTO  H216  447   4.595   4.534   0.402
    2CHTO   O73  448   4.456   4.475   0.550
    2CHTO  C113  449   4.369   4.589   0.552
    2CHTO  H217  450   4.428   4.679   0.520
    2CHTO  C124  451   4.324   4.616   0.696
    2CHTO   O83  452   4.244   4.512   0.753
    2CHTO  H204  453   4.160   4.510   0.712
    2CHTO  C109  454   4.252   4.566   0.453
    2CHTO  H213  455   4.204   4.471   0.482
    2CHTO  C110  456   4.312   4.554   0.310
    2CHTO  H214  457   4.358   4.650   0.283
    2CHTO   O78  458   4.206   4.530   0.216
    2CHTO  H200  459   4.238   4.535   0.128
    2CHTO  C111  460   4.419   4.441   0.304
    2CHTO  H215  461   4.368   4.344   0.316
    2CHTO   N19  462   4.492   4.435   0.175
    2CHTO  H207  463   4.561   4.352   0.174
    2CHTO  H208  464   4.421   4.423   0.093
    2CHTO   O74  465   4.153   4.673   0.461
    2CHTO  C115  466   4.001   4.621   0.434
    2CHTO  H219  467   3.999   4.533   0.369
    2CHTO   O76  468   3.931   4.577   0.564
    2CHTO  C122  469   3.933   4.678   0.665
    2CHTO  H226  470   4.034   4.683   0.705
    2CHTO  C126  471   3.842   4.631   0.784
    2CHTO   O85  472   3.895   4.515   0.850
    2CHTO  H206  473   3.894   4.442   0.791
    2CHTO  C121  474   3.890   4.822   0.611
    2CHTO  H225  475   3.816   4.864   0.680
    2CHTO   O81  476   4.003   4.910   0.613
    2CHTO  H202  477   4.070   4.880   0.554
    2CHTO  C119  478   3.828   4.816   0.467
    2CHTO  H223  479   3.735   4.759   0.478
    2CHTO  C117  480   3.922   4.740   0.365
    2CHTO  H221  481   4.001   4.803   0.323
    2CHTO   N20  482   3.844   4.694   0.246
    2CHTO  H209  483   3.794   4.778   0.199
    2CHTO  H210  484   3.909   4.646   0.174
    2CHTO   O80  485   3.773   4.958   0.411
    2CHTO  C103  486   3.628   5.015   0.457
    2CHTO  H190  487   3.550   4.941   0.440
    2CHTO  C101  488   3.617   5.070   0.605
    2CHTO  H188  489   3.713   5.116   0.631
    2CHTO   O68  490   3.593   4.950   0.700
    2CHTO  H168  491   3.597   4.979   0.789
    2CHTO   C99  492   3.501   5.181   0.624
    2CHTO  H186  493   3.402   5.130   0.618
    2CHTO   N17  494   3.506   5.249   0.758
    2CHTO  H174  495   3.598   5.307   0.766
    2CHTO  H175  496   3.420   5.312   0.770
    2CHTO   C97  497   3.504   5.282   0.507
    2CHTO  H184  498   3.600   5.336   0.511
    2CHTO   O64  499   3.489   5.210   0.384
    2CHTO  C104  500   3.605   5.131   0.351
    2CHTO  H191  501   3.695   5.193   0.346
    2CHTO  C108  502   3.586   5.072   0.211
    2CHTO   O71  503   3.566   5.173   0.112
    2CHTO  H171  504   3.645   5.223   0.100
    2CHTO   O62  505   3.394   5.375   0.509
    2CHTO   C91  506   3.414   5.500   0.440
    2CHTO  H178  507   3.514   5.501   0.397
    2CHTO   C92  508   3.410   5.618   0.543
    2CHTO  H179  509   3.479   5.597   0.626
    2CHTO   O66  510   3.461   5.736   0.480
    2CHTO  H166  511   3.408   5.760   0.406
    2CHTO   C93  512   3.264   5.651   0.595
    2CHTO  H180  513   3.266   5.754   0.632
    2CHTO   N16  514   3.223   5.570   0.713
    2CHTO  H172  515   3.124   5.600   0.745
    2CHTO  H173  516   3.225   5.465   0.688
    2CHTO   C94  517   3.159   5.641   0.477
    2CHTO  H181  518   3.103   5.547   0.480
    2CHTO   O61  519   3.224   5.642   0.348
    2CHTO   C95  520   3.308   5.527   0.324
    2CHTO  H182  521   3.244   5.439   0.314
    2CHTO  C106  522   3.378   5.545   0.184
    2CHTO   O69  523   3.456   5.665   0.177
    2CHTO  H169  524   3.530   5.658   0.234
    2CHTO   O63  525   3.053   5.763   0.486
    2CHTO   C96  526   3.107   5.911   0.455
    2CHTO  H183  527   3.214   5.906   0.435
    2CHTO   C98  528   3.083   6.010   0.574
    2CHTO  H185  529   2.980   5.996   0.612
    2CHTO   O67  530   3.169   5.970   0.682
    2CHTO  H167  531   3.153   6.023   0.758
    2CHTO  C102  532   3.107   6.165   0.536
    2CHTO  H189  533   3.215   6.175   0.518
    2CHTO   N18  534   3.074   6.262   0.643
    2CHTO  H176  535   2.970   6.252   0.671
    2CHTO  H177  536   3.136   6.244   0.729
    2CHTO  C105  537   3.033   6.195   0.402
    2CHTO  H192  538   2.926   6.186   0.418
    2CHTO   O65  539   3.074   6.102   0.301
    2CHTO  C100  540   3.035   5.967   0.325
    2CHTO  H187  541   2.926   5.963   0.340
    2CHTO  C107  542   3.068   5.888   0.196
    2CHTO   O70  543   3.006   5.759   0.194
    2CHTO  H170  544   2.914   5.769   0.181
    2CHTO   O57  545   3.071   6.347   0.356
    2CHTO   C85  546   3.007   6.407   0.241
    2CHTO  H157  547   2.901   6.374   0.246
    2CHTO   C83  548   3.064   6.343   0.109
    2CHTO  H155  549   3.018   6.245   0.097
    2CHTO   O56  550   3.206   6.319   0.122
    2CHTO  H135  551   3.222   6.258   0.192
    2CHTO   C81  552   3.028   6.430   2.862
    2CHTO  H153  553   2.919   6.439   2.857
    2CHTO   N14  554   3.065   6.368   2.732
    2CHTO  H141  555   3.171   6.361   2.723
    2CHTO  H142  556   3.027   6.428   2.651
    2CHTO   C79  557   3.087   6.574   0.006
    2CHTO  H151  558   3.065   6.631   2.791
    2CHTO   O52  559   3.015   6.637   0.115
    2CHTO   C86  560   3.020   6.566   0.243
    2CHTO  H158  561   3.117   6.597   0.285
    2CHTO   C90  562   2.913   6.629   0.336
    2CHTO   O60  563   2.920   6.578   0.470
    2CHTO  H138  564   3.000   6.605   0.510
    2CHTO   O50  565   3.229   6.577   0.029
    2CHTO   C73  566   3.359   6.639   0.032
    2CHTO  H145  567   3.350   6.745   0.059
    2CHTO   C74  568   3.426   6.629   2.767
    2CHTO  H146  569   3.357   6.676   2.695
    2CHTO   O54  570   3.545   6.710   2.768
    2CHTO  H133  571   3.609   6.675   2.827
    2CHTO   C75  572   3.453   6.477   2.733
    2CHTO  H147  573   3.356   6.424   2.729
    2CHTO   N13  574   3.515   6.455   2.600
    2CHTO  H139  575   3.529   6.349   2.583
    2CHTO  H140  576   3.611   6.504   2.596
    2CHTO   C76  577   3.538   6.410   2.852
    2CHTO  H148  578   3.636   6.457   2.853
    2CHTO   O49  579   3.472   6.431   0.105
    2CHTO   C77  580   3.450   6.569   0.138
    2CHTO  H149  581   3.545   6.622   0.143
    2CHTO   C88  582   3.388   6.579   0.278
    2CHTO   O58  583   3.475   6.526   0.380
    2CHTO  H136  584   3.481   6.433   0.371
    2CHTO   O51  585   3.546   6.249   2.835
    2CHTO   C78  586   3.647   6.185   0.061
    2CHTO  H150  587   3.658   6.249   0.151
    2CHTO   C80  588   3.786   6.166   2.872
    2CHTO  H152  589   3.774   6.104   2.780
    2CHTO   O55  590   3.834   6.296   2.833
    2CHTO  H134  591   3.782   6.331   2.764
    2CHTO   C84  592   3.888   6.095   0.094
    2CHTO  H156  593   3.907   6.164   0.176
    2CHTO   N15  594   4.022   6.067   0.030
    2CHTO  H143  595   4.041   5.962   0.025
    2CHTO  H144  596   4.027   6.109   2.808
    2CHTO   C87  597   3.826   5.967   0.157
    2CHTO  H159  598   3.820   5.888   0.082
    2CHTO   O53  599   3.680   5.999   0.212
    2CHTO   C82  600   3.593   6.049   0.110
    2CHTO  H154  601   3.589   5.978   0.027
    2CHTO   C89  602   3.449   6.060   0.166
    2CHTO   O59  603   3.440   6.147   0.280
    2CHTO  H137  604   3.352   6.148   0.311
    2CHTO   O45  605   3.925   5.914   0.280
    2CHTO   C67  606   3.865   5.871   0.403
    2CHTO  H124  607   3.771   5.924   0.419
    2CHTO   C65  608   3.837   5.717   0.401
    2CHTO  H122  609   3.913   5.674   0.335
    2CHTO   O44  610   3.708   5.699   0.341
    2CHTO  H102  611   3.710   5.726   0.251
    2CHTO   C63  612   3.864   5.648   0.541
    2CHTO  H120  613   3.971   5.633   0.551
    2CHTO   N11  614   3.815   5.508   0.556
    2CHTO  H108  615   3.849   5.466   0.649
    2CHTO  H109  616   3.708   5.507   0.554
    2CHTO   C61  617   3.825   5.745   0.659
    2CHTO  H118  618   3.858   5.696   0.752
    2CHTO   O40  619   3.896   5.872   0.653
    2CHTO   C68  620   3.956   5.911   0.525
    2CHTO  H125  621   4.055   5.862   0.516
    2CHTO   C72  622   3.981   6.064   0.528
    2CHTO   O48  623   4.077   6.102   0.626
    2CHTO  H105  624   4.086   6.196   0.626
    2CHTO   O38  625   3.683   5.771   0.666
    2CHTO   C55  626   3.635   5.842   0.782
    2CHTO  H112  627   3.715   5.907   0.821
    2CHTO   C56  628   3.581   5.741   0.892
    2CHTO  H113  629   3.511   5.673   0.842
    2CHTO   O42  630   3.690   5.660   0.939
    2CHTO  H100  631   3.659   5.596   1.000
    2CHTO   C57  632   3.509   5.819   1.010
    2CHTO  H114  633   3.586   5.874   1.064
    2CHTO   N10  634   3.444   5.728   1.108
    2CHTO  H106  635   3.342   5.706   1.079
    2CHTO  H107  636   3.443   5.773   1.206
    2CHTO   C58  637   3.408   5.920   0.951
    2CHTO  H115  638   3.326   5.864   0.899
    2CHTO   O37  639   3.472   6.008   0.857
    2CHTO   C59  640   3.522   5.940   0.740
    2CHTO  H116  641   3.440   5.887   0.691
    2CHTO   C70  642   3.575   6.046   0.642
    2CHTO   O46  643   3.472   6.135   0.597
    2CHTO  H103  644   3.509   6.202   0.544
    2CHTO   O39  645   3.347   6.017   1.064
    2CHTO   C60  646   3.218   6.069   1.028
    2CHTO  H117  647   3.215   6.089   0.921
    2CHTO   C62  648   3.105   5.968   1.062
    2CHTO  H119  649   3.126   5.877   1.002
    2CHTO   O43  650   3.110   5.933   1.201
    2CHTO  H101  651   3.047   5.866   1.220
    2CHTO   C66  652   2.963   6.030   1.016
    2CHTO  H123  653   2.969   6.055   0.910
    2CHTO   N12  654   2.852   5.932   1.029
    2CHTO  H110  655   2.760   5.976   0.995
    2CHTO  H111  656   2.844   5.899   1.131
    2CHTO   C69  657   2.939   6.161   1.095
    2CHTO  H126  658   2.934   6.141   1.204
    2CHTO   O41  659   3.056   6.261   1.065
    2CHTO   C64  660   3.195   6.206   1.100
    2CHTO  H121  661   3.203   6.191   1.209
    2CHTO   C71  662   3.301   6.309   1.055
    2CHTO   O47  663   3.285   6.432   1.125
    2CHTO  H104  664   3.350   6.493   1.096
    2CHTO   O34  665   2.808   6.229   1.052
    2CHTO   C49  666   2.722   6.336   1.117
    2CHTO   H91  667   2.667   6.288   1.198
    2CHTO   C47  668   2.625   6.389   1.010
    2CHTO   H89  669   2.554   6.457   1.062
    2CHTO   O33  670   2.550   6.277   0.957
    2CHTO   H70  671   2.486   6.308   0.896
    2CHTO   C45  672   2.709   6.470   0.899
    2CHTO   H87  673   2.789   6.405   0.862
    2CHTO    N8  674   2.626   6.513   0.783
    2CHTO   H75  675   2.583   6.427   0.735
    2CHTO   H76  676   2.548   6.579   0.816
    2CHTO   C43  677   2.782   6.593   0.972
    2CHTO   H85  678   2.841   6.643   0.895
    2CHTO   O29  679   2.866   6.543   1.079
    2CHTO   C50  680   2.808   6.453   1.175
    2CHTO   H92  681   2.891   6.407   1.230
    2CHTO   C54  682   2.732   6.529   1.288
    2CHTO   O36  683   2.819   6.617   1.360
    2CHTO   H72  684   2.879   6.567   1.412
    2CHTO   O27  685   2.691   6.692   1.023
    2CHTO   C37  686   2.595   6.797   1.012
    2CHTO   H79  687   2.525   6.778   0.928
    2CHTO   C38  688   2.510   6.806   1.142
    2CHTO   H80  689   2.578   6.812   1.228
    2CHTO   O31  690   2.434   6.683   1.152
    2CHTO   H68  691   2.389   6.680   1.234
    2CHTO   C39  692   2.414   6.932   1.142
    2CHTO   H81  693   2.338   6.914   1.066
    2CHTO    N7  694   2.343   6.951   1.273
    2CHTO   H73  695   2.277   7.037   1.267
    2CHTO   H74  696   2.414   6.965   1.353
    2CHTO   C40  697   2.493   7.062   1.100
    2CHTO   H82  698   2.558   7.096   1.181
    2CHTO   O26  699   2.567   7.039   0.978
    2CHTO   C41  700   2.665   6.933   0.987
    2CHTO   H83  701   2.734   6.953   1.071
    2CHTO   C52  702   2.749   6.934   0.857
    2CHTO   O35  703   2.832   7.057   0.845
    2CHTO   H71  704   2.777   7.132   0.837
    2CHTO   O28  705   2.403   7.169   1.064
    2CHTO   C42  706   2.441   7.309   1.076
    2CHTO   H84  707   2.365   7.362   1.019
    2CHTO   C44  708   2.579   7.350   1.013
    2CHTO   H86  709   2.657   7.289   1.057
    2CHTO   O32  710   2.570   7.318   0.873
    2CHTO   H69  711   2.651   7.337   0.830
    2CHTO   C48  712   2.615   7.503   1.036
    2CHTO   H90  713   2.545   7.563   0.978
    2CHTO    N9  714   2.752   7.538   0.985
    2CHTO   H77  715   2.817   7.569   1.065
    2CHTO   H78  716   2.796   7.456   0.930
    2CHTO   C51  717   2.595   7.540   1.188
    2CHTO   H93  718   2.668   7.485   1.248
    2CHTO   O30  719   2.461   7.507   1.226
    2CHTO   C46  720   2.432   7.361   1.223
    2CHTO   H88  721   2.505   7.309   1.284
    2CHTO   C53  722   2.290   7.340   1.280
    2CHTO   O72  723   2.284   7.380   1.417
    2CHTO  H199  724   2.198   7.364   1.451
    2CHTO   O22  725   2.606   7.682   1.211
    2CHTO   C31  726   2.625   7.742   1.345
    2CHTO   H59  727   2.627   7.852   1.328
    2CHTO   C29  728   2.512   7.715   1.446
    2CHTO   H57  729   2.507   7.606   1.462
    2CHTO   O21  730   2.387   7.754   1.386
    2CHTO   H37  731   2.315   7.726   1.438
    2CHTO   C27  732   2.537   7.786   1.586
    2CHTO   H55  733   2.531   7.895   1.570
    2CHTO    N5  734   2.437   7.747   1.688
    2CHTO   H43  735   2.454   7.803   1.780
    2CHTO   H44  736   2.337   7.768   1.652
    2CHTO   C25  737   2.682   7.754   1.635
    2CHTO   H53  738   2.689   7.647   1.658
    2CHTO   O17  739   2.779   7.784   1.530
    2CHTO   C32  740   2.762   7.707   1.410
    2CHTO   H60  741   2.764   7.601   1.433
    2CHTO   C36  742   2.880   7.739   1.315
    2CHTO   O25  743   3.005   7.696   1.371
    2CHTO   H40  744   3.008   7.603   1.375
    2CHTO   O15  745   2.723   7.836   1.767
    2CHTO   C19  746   2.821   7.796   1.869
    2CHTO   H47  747   2.803   7.687   1.880
    2CHTO   C20  748   2.970   7.818   1.830
    2CHTO   H48  749   2.991   7.925   1.809
    2CHTO   O19  750   2.996   7.745   1.708
    2CHTO   H35  751   2.984   7.653   1.722
    2CHTO   C21  752   3.069   7.771   1.945
    2CHTO   H49  753   3.061   7.662   1.954
    2CHTO    N4  754   3.211   7.801   1.916
    2CHTO   H41  755   3.242   7.751   1.825
    2CHTO   H42  756   3.225   7.908   1.904
    2CHTO   C22  757   3.024   7.829   2.082
    2CHTO   H50  758   3.042   7.937   2.083
    2CHTO   O14  759   2.884   7.803   2.105
    2CHTO   C23  760   2.794   7.859   2.008
    2CHTO   H51  761   2.810   7.967   2.008
    2CHTO   C34  762   2.651   7.832   2.056
    2CHTO   O23  763   2.621   7.903   2.176
    2CHTO   H38  764   2.670   7.866   2.248
    2CHTO   O16  765   3.089   7.763   2.192
    2CHTO   C24  766   3.141   7.861   2.314
    2CHTO   H52  767   3.124   7.967   2.293
    2CHTO   C26  768   3.292   7.837   2.335
    2CHTO   H54  769   3.310   7.727   2.340
    2CHTO   O20  770   3.361   7.887   2.219
    2CHTO   H36  771   3.452   7.864   2.222
    2CHTO   C30  772   3.346   7.902   2.467
    2CHTO   H58  773   3.346   8.012   2.457
    2CHTO    N6  774   3.487   7.863   2.493
    2CHTO   H45  775   3.522   7.909   2.584
    2CHTO   H46  776   3.550   7.895   2.411
    2CHTO   C33  777   3.253   7.868   2.587
    2CHTO   H61  778   3.257   7.759   2.606
    2CHTO   O18  779   3.118   7.903   2.553
    2CHTO   C28  780   3.063   7.828   2.444
    2CHTO   H56  781   3.071   7.721   2.464
    2CHTO   C35  782   2.912   7.863   2.432
    2CHTO   O24  783   2.886   8.002   2.410
    2CHTO   H39  784   2.907   8.050   2.488
    2CHTO    O9  785   3.295   7.931   2.710
    2CHTO   C13  786   3.257   7.845   2.845
    2CHTO   H26  787   3.304   7.745   2.833
    2CHTO   C11  788   3.100   7.835   2.861
    2CHTO   H24  789   3.062   7.773   2.778
    2CHTO    O8  790   3.042   7.965   2.848
    2CHTO    H3  791   2.948   7.958   2.844
    2CHTO    C9  792   3.068   7.763   0.118
    2CHTO   H22  793   3.121   7.666   0.113
    2CHTO    N2  794   2.925   7.727   0.134
    2CHTO   H10  795   2.892   7.669   0.049
    2CHTO   H11  796   2.911   7.671   0.225
    2CHTO    C7  797   3.128   7.845   0.238
    2CHTO   H20  798   3.112   7.780   0.327
    2CHTO    O4  799   3.270   7.866   0.224
    2CHTO   C14  800   3.327   7.907   0.098
    2CHTO   H27  801   3.431   7.868   0.100
    2CHTO   C18  802   3.337   8.061   0.092
    2CHTO   O13  803   3.427   8.112   0.192
    2CHTO    H7  804   3.514   8.084   0.173
    2CHTO    O2  805   3.052   7.992   0.260
    2CHTO    C1  806   3.025   8.028   0.397
    2CHTO   H14  807   3.112   8.001   0.460
    2CHTO    C2  808   2.895   7.959   0.458
    2CHTO   H15  809   2.814   7.977   0.386
    2CHTO    O6  810   2.917   7.817   0.471
    2CHTO    H1  811   2.987   7.800   0.530
    2CHTO    C3  812   2.855   8.023   0.601
    2CHTO   H16  813   2.933   7.997   0.674
    2CHTO    N1  814   2.725   7.969   0.655
    2CHTO    H8  815   2.650   8.046   0.662
    2CHTO    H9  816   2.688   7.888   0.593
    2CHTO    C4  817   2.856   8.180   0.592
    2CHTO   H17  818   2.773   8.213   0.529
    2CHTO    O1  819   2.981   8.227   0.539
    2CHTO    C5  820   3.010   8.183   0.405
    2CHTO   H18  821   2.927   8.212   0.340
    2CHTO   C16  822   3.137   8.258   0.358
    2CHTO   O11  823   3.250   8.232   0.441
    2CHTO    H5  824   3.325   8.279   0.408
    2CHTO    O3  825   2.848   8.242   0.723
    2CHTO    C6  826   2.780   8.372   0.728
    2CHTO   H19  827   2.757   8.412   0.628
    2CHTO    C8  828   2.645   8.359   0.806
    2CHTO   H21  829   2.666   8.314   0.903
    2CHTO    O7  830   2.559   8.272   0.729
    2CHTO    H2  831   2.588   8.183   0.736
    2CHTO   C12  832   2.578   8.501   0.829
    2CHTO   H25  833   2.547   8.537   0.729
    2CHTO    N3  834   2.454   8.491   0.913
    2CHTO   H12  835   2.408   8.589   0.922
    2CHTO   H13  836   2.479   8.452   1.010
    2CHTO   C15  837   2.684   8.601   0.887
    2CHTO   H28  838   2.711   8.578   0.991
    2CHTO   O10  839   2.639   8.748   0.878
    2CHTO    H4  840   2.566   8.762   0.935
    2CHTO    O5  841   2.803   8.603   0.806
    2CHTO   C10  842   2.870   8.476   0.799
    2CHTO   H23  843   2.893   8.442   0.900
    2CHTO   C17  844   3.004   8.497   0.727
    2CHTO   O12  845   3.086   8.589   0.799
    2CHTO    H6  846   3.167   8.600   0.754
    3CHTO  H203  847   7.698   2.099   2.343
    3CHTO   O82  848   7.706   2.026   2.284
    3CHTO  C123  849   7.654   1.906   2.344
    3CHTO  H227  850   7.693   1.898   2.447
    3CHTO   O77  851   7.510   1.930   2.348
    3CHTO  C118  852   7.435   1.825   2.411
    3CHTO  H222  853   7.474   1.808   2.513
    3CHTO  C125  854   7.285   1.872   2.421
    3CHTO   O84  855   7.271   1.981   2.512
    3CHTO  H205  856   7.281   1.951   2.600
    3CHTO  C114  857   7.449   1.696   2.328
    3CHTO  H218  858   7.409   1.714   2.228
    3CHTO  C116  859   7.598   1.656   2.313
    3CHTO  H220  860   7.637   1.622   2.413
    3CHTO   O79  861   7.607   1.541   2.227
    3CHTO  H201  862   7.579   1.563   2.140
    3CHTO  C120  863   7.686   1.777   2.260
    3CHTO  H224  864   7.656   1.793   2.154
    3CHTO   N21  865   7.831   1.745   2.261
    3CHTO  H211  866   7.855   1.677   2.342
    3CHTO  H212  867   7.861   1.702   2.167
    3CHTO   O75  868   7.370   1.597   2.398
    3CHTO  C112  869   7.263   1.520   2.301
    3CHTO  H216  870   7.315   1.488   2.209
    3CHTO   O73  871   7.157   1.612   2.274
    3CHTO  C113  872   7.058   1.561   2.184
    3CHTO  H217  873   7.107   1.524   2.092
    3CHTO  C124  874   6.965   1.676   2.144
    3CHTO   O83  875   7.035   1.776   2.069
    3CHTO  H204  876   6.974   1.823   2.016
    3CHTO  C109  877   6.983   1.443   2.250
    3CHTO  H213  878   6.929   1.483   2.338
    3CHTO  C110  879   7.086   1.333   2.293
    3CHTO  H214  880   7.124   1.285   2.202
    3CHTO   O78  881   7.016   1.232   2.368
    3CHTO  H200  882   6.957   1.185   2.312
    3CHTO  C111  883   7.204   1.393   2.374
    3CHTO  H215  884   7.166   1.426   2.472
    3CHTO   N19  885   7.314   1.296   2.401
    3CHTO  H207  886   7.327   1.281   2.508
    3CHTO  H208  887   7.295   1.200   2.354
    3CHTO   O74  888   6.886   1.387   2.156
    3CHTO  C115  889   6.732   1.399   2.201
    3CHTO  H219  890   6.720   1.385   2.309
    3CHTO   O76  891   6.675   1.541   2.170
    3CHTO  C122  892   6.536   1.561   2.198
    3CHTO  H226  893   6.510   1.659   2.158
    3CHTO  C126  894   6.513   1.572   2.354
    3CHTO   O85  895   6.381   1.613   2.387
    3CHTO  H206  896   6.375   1.629   2.480
    3CHTO  C121  897   6.445   1.453   2.129
    3CHTO  H225  898   6.343   1.463   2.170
    3CHTO   O81  899   6.439   1.481   1.988
    3CHTO  H202  900   6.375   1.427   1.947
    3CHTO  C119  901   6.495   1.307   2.153
    3CHTO  H223  902   6.476   1.286   2.259
    3CHTO  C117  903   6.649   1.287   2.128
    3CHTO  H221  904   6.680   1.294   2.023
    3CHTO   N20  905   6.694   1.151   2.173
    3CHTO  H209  906   6.638   1.075   2.121
    3CHTO  H210  907   6.799   1.138   2.154
    3CHTO   O80  908   6.402   1.199   2.083
    3CHTO  C103  909   6.262   1.170   2.138
    3CHTO  H190  910   6.252   1.209   2.240
    3CHTO  C101  911   6.141   1.220   2.051
    3CHTO  H188  912   6.158   1.191   1.947
    3CHTO   O68  913   6.135   1.376   2.056
    3CHTO  H168  914   6.119   1.405   2.144
    3CHTO   C99  915   6.004   1.154   2.100
    3CHTO  H186  916   5.983   1.186   2.204
    3CHTO   N17  917   5.884   1.192   2.017
    3CHTO  H174  918   5.795   1.150   2.061
    3CHTO  H175  919   5.877   1.299   2.011
    3CHTO   C97  920   6.022   0.999   2.107
    3CHTO  H184  921   6.039   0.962   2.004
    3CHTO   O64  922   6.130   0.967   2.195
    3CHTO  C104  923   6.258   1.012   2.149
    3CHTO  H191  924   6.279   0.970   2.050
    3CHTO  C108  925   6.367   0.958   2.242
    3CHTO   O71  926   6.351   1.003   2.377
    3CHTO  H171  927   6.416   0.963   2.432
    3CHTO   O62  928   5.908   0.933   2.167
    3CHTO   C91  929   5.878   0.800   2.120
    3CHTO  H178  930   5.905   0.793   2.015
    3CHTO   C92  931   5.723   0.784   2.125
    3CHTO  H179  932   5.686   0.814   2.225
    3CHTO   O66  933   5.667   0.881   2.034
    3CHTO  H166  934   5.573   0.881   2.039
    3CHTO   C93  935   5.676   0.638   2.090
    3CHTO  H180  936   5.696   0.627   1.983
    3CHTO   N16  937   5.529   0.618   2.105
    3CHTO  H172  938   5.507   0.542   2.178
    3CHTO  H173  939   5.485   0.593   2.009
    3CHTO   C94  940   5.758   0.529   2.169
    3CHTO  H181  941   5.695   0.474   2.240
    3CHTO   O61  942   5.862   0.584   2.253
    3CHTO   C95  943   5.951   0.684   2.200
    3CHTO  H182  944   6.004   0.730   2.284
    3CHTO  C106  945   6.063   0.613   2.115
    3CHTO   O69  946   6.163   0.703   2.066
    3CHTO  H169  947   6.125   0.761   2.002
    3CHTO   O63  948   5.821   0.426   2.061
    3CHTO   C96  949   5.777   0.274   2.080
    3CHTO  H183  950   5.826   0.216   2.002
    3CHTO   C98  951   5.624   0.248   2.065
    3CHTO  H185  952   5.568   0.320   2.127
    3CHTO   O67  953   5.588   0.277   1.929
    3CHTO  H167  954   5.630   0.218   1.870
    3CHTO  C102  955   5.581   0.098   2.105
    3CHTO  H189  956   5.622   0.033   2.026
    3CHTO   N18  957   5.434   0.073   2.106
    3CHTO  H176  958   5.400   0.045   2.205
    3CHTO  H177  959   5.380   0.160   2.072
    3CHTO  C105  960   5.650   0.059   2.239
    3CHTO  H192  961   5.608   0.120   2.319
    3CHTO   O65  962   5.791   0.082   2.234
    3CHTO  C100  963   5.828   0.219   2.218
    3CHTO  H187  964   5.782   0.278   2.299
    3CHTO  C107  965   5.981   0.232   2.231
    3CHTO   O70  966   6.025   0.199   2.363
    3CHTO  H170  967   6.016   0.106   2.377
    3CHTO   O57  968   5.619   9.896   2.267
    3CHTO   C85  969   5.622   9.837   2.398
    3CHTO  H157  970   5.619   9.728   2.380
    3CHTO   C83  971   5.490   9.868   2.476
    3CHTO  H155  972   5.407   9.824   2.420
    3CHTO   O56  973   5.464   0.010   2.481
    3CHTO  H135  974   5.531   0.054   2.530
    3CHTO   C81  975   5.497   9.800   2.616
    3CHTO  H153  976   5.516   9.693   2.601
    3CHTO   N14  977   5.368   9.804   2.691
    3CHTO  H141  978   5.326   9.706   2.698
    3CHTO  H142  979   5.298   9.869   2.643
    3CHTO   C79  980   5.618   9.859   2.698
    3CHTO  H151  981   5.622   9.805   2.793
    3CHTO   O52  982   5.742   9.832   2.627
    3CHTO   C86  983   5.746   9.878   2.488
    3CHTO  H158  984   5.755   9.988   2.496
    3CHTO   C90  985   5.878   9.830   2.424
    3CHTO   O60  986   5.989   9.896   2.485
    3CHTO  H138  987   6.069   9.852   2.462
    3CHTO   O50  988   5.609   0.000   2.726
    3CHTO   C73  989   5.649   0.112   2.807
    3CHTO  H145  990   5.754   0.100   2.839
    3CHTO   C74  991   5.559   0.122   0.057
    3CHTO  H146  992   5.571   0.029   0.114
    3CHTO   O54  993   5.610   0.228   0.141
    3CHTO  H133  994   5.559   0.235   0.219
    3CHTO   C75  995   5.409   0.143   0.010
    3CHTO  H147  996   5.378   0.055   2.830
    3CHTO   N13  997   5.312   0.154   0.122
    3CHTO  H139  998   5.318   0.252   0.167
    3CHTO  H140  999   5.211   0.138   0.085
    3CHTO   C76 1000   5.401   0.268   2.786
    3CHTO  H148 1001   5.415   0.360   2.844
    3CHTO   O49 1002   5.502   0.262   2.680
    3CHTO   C77 1003   5.637   0.243   2.724
    3CHTO  H149 1004   5.669   0.327   2.786
    3CHTO   C88 1005   5.732   0.241   2.603
    3CHTO   O58 1006   5.735   0.368   2.534
    3CHTO  H136 1007   5.786   0.429   2.583
    3CHTO   O51 1008   5.263   0.265   2.705
    3CHTO   C78 1009   5.221   0.409   2.662
    3CHTO  H150 1010   5.302   0.482   2.684
    3CHTO   C80 1011   5.094   0.452   2.738
    3CHTO  H152 1012   5.011   0.383   2.710
    3CHTO   O55 1013   5.121   0.437   0.003
    3CHTO  H134 1014   5.045   0.459   0.053
    3CHTO   C84 1015   5.056   0.601   2.703
    3CHTO  H156 1016   5.135   0.662   2.746
    3CHTO   N15 1017   4.928   0.645   2.766
    3CHTO  H143 1018   4.935   0.638   2.873
    3CHTO  H144 1019   4.907   0.747   2.740
    3CHTO   C87 1020   5.055   0.628   2.550
    3CHTO  H159 1021   4.959   0.600   2.506
    3CHTO   O53 1022   5.172   0.550   2.472
    3CHTO   C82 1023   5.195   0.414   2.511
    3CHTO  H154 1024   5.110   0.351   2.483
    3CHTO   C89 1025   5.318   0.360   2.432
    3CHTO   O59 1026   5.302   0.373   2.291
    3CHTO  H137 1027   5.376   0.334   2.248
    3CHTO   O45 1028   5.077   0.795   2.525
    3CHTO   C67 1029   5.215   0.836   2.511
    3CHTO  H124 1030   5.280   0.753   2.539
    3CHTO   C65 1031   5.246   0.876   2.362
    3CHTO  H122 1032   5.152   0.915   2.322
    3CHTO   O44 1033   5.278   0.753   2.293
    3CHTO  H102 1034   5.203   0.697   2.290
    3CHTO   C63 1035   5.348   0.995   2.349
    3CHTO  H120 1036   5.295   1.088   2.370
    3CHTO   N11 1037   5.400   1.022   2.211
    3CHTO  H108 1038   5.506   1.033   2.211
    3CHTO  H109 1039   5.354   1.109   2.169
    3CHTO   C61 1040   5.458   0.985   2.462
    3CHTO  H118 1041   5.519   1.076   2.455
    3CHTO   O40 1042   5.399   0.983   2.596
    3CHTO   C68 1043   5.256   0.954   2.608
    3CHTO  H125 1044   5.198   1.045   2.584
    3CHTO   C72 1045   5.225   0.920   2.756
    3CHTO   O48 1046   5.258   1.025   2.848
    3CHTO  H105 1047   5.351   1.036   2.852
    3CHTO   O38 1048   5.544   0.870   2.443
    3CHTO   C55 1049   5.649   0.844   2.540
    3CHTO  H112 1050   5.619   0.883   2.638
    3CHTO   C56 1051   5.788   0.904   2.492
    3CHTO  H113 1052   5.805   0.870   2.390
    3CHTO   O42 1053   5.778   1.048   2.487
    3CHTO  H100 1054   5.856   1.084   2.449
    3CHTO   C57 1055   5.906   0.855   2.586
    3CHTO  H114 1056   5.890   0.901   2.684
    3CHTO   N10 1057   6.040   0.900   2.539
    3CHTO  H106 1058   6.107   0.911   2.623
    3CHTO  H107 1059   6.082   0.829   2.469
    3CHTO   C58 1060   5.901   0.701   2.602
    3CHTO  H115 1061   5.920   0.653   2.503
    3CHTO   O37 1062   5.771   0.662   2.650
    3CHTO   C59 1063   5.664   0.690   2.558
    3CHTO  H116 1064   5.684   0.642   2.462
    3CHTO   C70 1065   5.535   0.628   2.613
    3CHTO   O46 1066   5.497   0.676   2.743
    3CHTO  H103 1067   5.416   0.636   2.768
    3CHTO   O39 1068   6.014   0.647   2.713
    3CHTO   C60 1069   6.009   0.506   2.743
    3CHTO  H117 1070   5.915   0.464   2.708
    3CHTO   C62 1071   6.125   0.428   2.674
    3CHTO  H119 1072   6.110   0.442   2.564
    3CHTO   O43 1073   6.251   0.486   2.710
    3CHTO  H101 1074   6.268   0.475   2.802
    3CHTO   C66 1075   6.114   0.270   2.709
    3CHTO  H123 1076   6.017   0.234   2.674
    3CHTO   N12 1077   6.216   0.189   2.638
    3CHTO  H110 1078   6.204   0.085   2.664
    3CHTO  H111 1079   6.206   0.202   2.531
    3CHTO   C69 1080   6.119   0.249   2.862
    3CHTO  H126 1081   6.218   0.282   0.026
    3CHTO   O41 1082   6.005   0.335   0.053
    3CHTO   C64 1083   6.012   0.484   0.022
    3CHTO  H121 1084   6.107   0.526   0.062
    3CHTO   C71 1085   5.893   0.551   0.094
    3CHTO   O47 1086   5.902   0.694   0.092
    3CHTO  H104 1087   5.828   0.731   0.135
    3CHTO   O34 1088   6.096   0.094   0.027
    3CHTO   C49 1089   6.135   9.941   0.023
    3CHTO   H91 1090   6.214   9.933   2.823
    3CHTO   C47 1091   6.013   9.857   2.853
    3CHTO   H89 1092   6.008   9.871   2.743
    3CHTO   O33 1093   5.892   9.908   0.036
    3CHTO   H70 1094   5.817   9.870   2.870
    3CHTO   C45 1095   6.026   9.702   0.019
    3CHTO   H87 1096   5.977   9.689   0.117
    3CHTO    N8 1097   5.954   9.616   2.797
    3CHTO   H75 1098   5.868   9.570   2.844
    3CHTO   H76 1099   6.020   9.539   2.758
    3CHTO   C43 1100   6.178   9.661   0.049
    3CHTO   H85 1101   6.177   9.556   0.079
    3CHTO   O29 1102   6.232   9.745   0.153
    3CHTO   C50 1103   6.190   9.883   0.157
    3CHTO   H92 1104   6.111   9.894   0.232
    3CHTO   C54 1105   6.305   9.970   0.214
    3CHTO   O36 1106   6.423   9.962   0.133
    3CHTO   H72 1107   6.492   0.011   0.174
    3CHTO   O27 1108   6.262   9.668   2.808
    3CHTO   C37 1109   6.345   9.674   2.691
    3CHTO   H79 1110   6.379   9.573   2.665
    3CHTO   C38 1111   6.264   9.727   2.568
    3CHTO   H80 1112   6.208   9.817   2.599
    3CHTO   O31 1113   6.170   9.625   2.530
    3CHTO   H68 1114   6.103   9.616   2.595
    3CHTO   C39 1115   6.359   9.765   2.448
    3CHTO   H81 1116   6.409   9.674   2.415
    3CHTO    N7 1117   6.285   9.821   2.329
    3CHTO   H73 1118   6.319   9.921   2.306
    3CHTO   H74 1119   6.298   9.757   2.243
    3CHTO   C40 1120   6.470   9.863   2.503
    3CHTO   H82 1121   6.420   9.950   2.546
    3CHTO   O26 1122   6.546   9.791   2.602
    3CHTO   C41 1123   6.469   9.762   2.722
    3CHTO   H83 1124   6.436   9.857   2.768
    3CHTO   C52 1125   6.562   9.690   2.822
    3CHTO   O35 1126   6.677   9.773   2.861
    3CHTO   H71 1127   6.736   9.722   0.037
    3CHTO   O28 1128   6.565   9.908   2.405
    3CHTO   C42 1129   6.626   0.041   2.420
    3CHTO   H84 1130   6.704   0.043   2.343
    3CHTO   C44 1131   6.698   0.070   2.556
    3CHTO   H86 1132   6.626   0.059   2.637
    3CHTO   O32 1133   6.799   9.968   2.572
    3CHTO   H69 1134   6.840   9.976   2.656
    3CHTO   C48 1135   6.758   0.216   2.563
    3CHTO   H90 1136   6.842   0.222   2.493
    3CHTO    N9 1137   6.816   0.247   2.699
    3CHTO   H77 1138   6.857   0.347   2.700
    3CHTO   H78 1139   6.893   0.174   2.723
    3CHTO   C51 1140   6.649   0.321   2.520
    3CHTO   H93 1141   6.570   0.319   2.596
    3CHTO   O30 1142   6.599   0.285   2.391
    3CHTO   C46 1143   6.527   0.157   2.387
    3CHTO   H88 1144   6.448   0.159   2.462
    3CHTO   C53 1145   6.465   0.143   2.247
    3CHTO   O72 1146   6.365   0.243   2.224
    3CHTO  H199 1147   6.327   0.230   2.140
    3CHTO   O22 1148   6.702   0.456   2.512
    3CHTO   C31 1149   6.724   0.539   2.392
    3CHTO   H59 1150   6.772   0.633   2.429
    3CHTO   C29 1151   6.820   0.479   2.286
    3CHTO   H57 1152   6.775   0.386   2.248
    3CHTO   O21 1153   6.942   0.442   2.353
    3CHTO   H37 1154   6.997   0.393   2.295
    3CHTO   C27 1155   6.845   0.579   2.166
    3CHTO   H55 1156   6.902   0.665   2.203
    3CHTO    N5 1157   6.922   0.515   2.056
    3CHTO   H43 1158   7.014   0.475   2.095
    3CHTO   H44 1159   6.943   0.588   1.979
    3CHTO   C25 1160   6.708   0.637   2.112
    3CHTO   H53 1161   6.653   0.558   2.058
    3CHTO   O17 1162   6.622   0.684   2.221
    3CHTO   C32 1163   6.593   0.584   2.320
    3CHTO   H60 1164   6.549   0.497   2.271
    3CHTO   C36 1165   6.490   0.639   2.422
    3CHTO   O25 1166   6.359   0.648   2.364
    3CHTO   H40 1167   6.357   0.720   2.303
    3CHTO   O15 1168   6.736   0.760   2.011
    3CHTO   C19 1169   6.690   0.789   1.875
    3CHTO   H47 1170   6.678   0.689   1.830
    3CHTO   C20 1171   6.555   0.865   1.868
    3CHTO   H48 1172   6.560   0.963   1.919
    3CHTO   O19 1173   6.457   0.785   1.936
    3CHTO   H35 1174   6.472   0.787   2.029
    3CHTO   C21 1175   6.510   0.891   1.718
    3CHTO   H49 1176   6.484   0.795   1.672
    3CHTO    N4 1177   6.389   0.977   1.708
    3CHTO   H41 1178   6.409   1.075   1.748
    3CHTO   H42 1179   6.358   0.986   1.605
    3CHTO   C22 1180   6.629   0.949   1.636
    3CHTO   H50 1181   6.649   1.051   1.670
    3CHTO   O14 1182   6.747   0.868   1.653
    3CHTO   C23 1183   6.795   0.864   1.787
    3CHTO   H51 1184   6.811   0.967   1.821
    3CHTO   C34 1185   6.932   0.795   1.783
    3CHTO   O23 1186   7.002   0.812   1.907
    3CHTO   H38 1187   7.076   0.754   1.909
    3CHTO   O16 1188   6.604   0.947   1.494
    3CHTO   C24 1189   6.684   1.064   1.411
    3CHTO   H52 1190   6.757   1.115   1.474
    3CHTO   C26 1191   6.582   1.166   1.357
    3CHTO   H54 1192   6.504   1.111   1.299
    3CHTO   O20 1193   6.518   1.228   1.470
    3CHTO   H36 1194   6.449   1.284   1.442
    3CHTO   C30 1195   6.651   1.270   1.263
    3CHTO   H58 1196   6.720   1.333   1.321
    3CHTO    N6 1197   6.551   1.363   1.202
    3CHTO   H45 1198   6.602   1.434   1.138
    3CHTO   H46 1199   6.499   1.417   1.280
    3CHTO   C33 1200   6.735   1.196   1.154
    3CHTO   H61 1201   6.667   1.136   1.091
    3CHTO   O18 1202   6.827   1.106   1.220
    3CHTO   C28 1203   6.763   1.001   1.294
    3CHTO   H56 1204   6.693   0.946   1.230
    3CHTO   C35 1205   6.870   0.900   1.342
    3CHTO   O24 1206   6.970   0.959   1.427
    3CHTO   H39 1207   6.931   0.983   1.509
    3CHTO    O9 1208   6.804   1.283   1.062
    3CHTO   C13 1209   6.920   1.383   1.124
    3CHTO   H26 1210   6.919   1.373   1.235
    3CHTO   C11 1211   6.888   1.531   1.078
    3CHTO   H24 1212   6.799   1.566   1.134
    3CHTO    O8 1213   6.856   1.535   0.938
    3CHTO    H3 1214   6.769   1.501   0.923
    3CHTO    C9 1215   7.010   1.620   1.114
    3CHTO   H22 1216   7.031   1.600   1.220
    3CHTO    N2 1217   6.981   1.765   1.110
    3CHTO   H10 1218   6.961   1.797   1.009
    3CHTO   H11 1219   6.897   1.788   1.174
    3CHTO    C7 1220   7.135   1.574   1.028
    3CHTO   H20 1221   7.221   1.588   1.097
    3CHTO    O4 1222   7.127   1.435   0.988
    3CHTO   C14 1223   7.067   1.341   1.078
    3CHTO   H27 1224   7.132   1.336   1.169
    3CHTO   C18 1225   7.073   1.201   1.011
    3CHTO   O13 1226   7.208   1.158   0.991
    3CHTO    H7 1227   7.249   1.141   1.073
    3CHTO    O2 1228   7.159   1.666   0.890
    3CHTO    C1 1229   7.273   1.627   0.811
    3CHTO   H14 1230   7.315   1.531   0.850
    3CHTO    C2 1231   7.389   1.735   0.810
    3CHTO   H15 1232   7.341   1.830   0.780
    3CHTO    O6 1233   7.441   1.748   0.943
    3CHTO    H1 1234   7.378   1.789   1.000
    3CHTO    C3 1235   7.504   1.697   0.705
    3CHTO   H16 1236   7.558   1.609   0.744
    3CHTO    N1 1237   7.605   1.807   0.690
    3CHTO    H8 1238   7.603   1.848   0.590
    3CHTO    H9 1239   7.705   1.770   0.712
    3CHTO    C4 1240   7.442   1.651   0.567
    3CHTO   H17 1241   7.403   1.739   0.515
    3CHTO    O1 1242   7.338   1.554   0.585
    3CHTO    C5 1243   7.227   1.599   0.665
    3CHTO   H18 1244   7.189   1.692   0.624
    3CHTO   C16 1245   7.116   1.491   0.656
    3CHTO   O11 1246   7.162   1.363   0.701
    3CHTO    H5 1247   7.091   1.302   0.700
    3CHTO    O3 1248   7.542   1.585   0.487
    3CHTO    C6 1249   7.509   1.566   0.346
    3CHTO   H19 1250   7.402   1.576   0.326
    3CHTO    C8 1251   7.585   1.670   0.258
    3CHTO   H21 1252   7.691   1.666   0.283
    3CHTO    O7 1253   7.533   1.801   0.291
    3CHTO    H2 1254   7.558   1.825   0.378
    3CHTO   C12 1255   7.568   1.638   0.104
    3CHTO   H25 1256   7.461   1.656   0.080
    3CHTO    N3 1257   7.648   1.731   0.018
    3CHTO   H12 1258   7.628   1.712   2.790
    3CHTO   H13 1259   7.754   1.718   0.039
    3CHTO   C15 1260   7.600   1.486   0.078
    3CHTO   H28 1261   7.707   1.465   0.090
    3CHTO   O10 1262   7.555   1.438   2.815
    3CHTO    H4 1263   7.606   1.481   2.748
    3CHTO    O5 1264   7.523   1.401   0.164
    3CHTO   C10 1265   7.550   1.422   0.304
    3CHTO   H23 1266   7.657   1.408   0.321
    3CHTO   C17 1267   7.475   1.315   0.385
    3CHTO   O12 1268   7.527   1.184   0.357
    3CHTO    H6 1269   7.483   1.121   0.411
    4CHTO  H203 1270   5.403   7.147   2.812
    4CHTO   O82 1271   5.472   7.191   2.858
    4CHTO  C123 1272   5.430   7.323   0.019
    4CHTO  H227 1273   5.342   7.316   0.085
    4CHTO   O77 1274   5.544   7.376   0.093
    4CHTO  C118 1275   5.516   7.500   0.160
    4CHTO  H222 1276   5.432   7.488   0.230
    4CHTO  C125 1277   5.644   7.540   0.242
    4CHTO   O84 1278   5.679   7.441   0.339
    4CHTO  H205 1279   5.614   7.437   0.406
    4CHTO  C114 1280   5.483   7.609   0.056
    4CHTO  H218 1281   5.573   7.631   2.875
    4CHTO  C116 1282   5.373   7.565   2.830
    4CHTO  H220 1283   5.274   7.566   0.004
    4CHTO   O79 1284   5.365   7.664   2.725
    4CHTO  H201 1285   5.446   7.667   2.677
    4CHTO  C120 1286   5.402   7.419   2.773
    4CHTO  H224 1287   5.493   7.427   2.710
    4CHTO   N21 1288   5.292   7.372   2.686
    4CHTO  H211 1289   5.329   7.303   2.612
    4CHTO  H212 1290   5.214   7.325   2.745
    4CHTO   O75 1291   5.443   7.724   0.135
    4CHTO  C112 1292   5.507   7.862   0.081
    4CHTO  H216 1293   5.513   7.858   2.847
    4CHTO   O73 1294   5.637   7.874   0.141
    4CHTO  C113 1295   5.715   7.979   0.083
    4CHTO  H217 1296   5.726   7.959   2.851
    4CHTO  C124 1297   5.856   7.973   0.143
    4CHTO   O83 1298   5.860   7.989   0.286
    4CHTO  H204 1299   5.949   7.984   0.315
    4CHTO  C109 1300   5.649   8.119   0.103
    4CHTO  H213 1301   5.661   8.146   0.209
    4CHTO  C110 1302   5.496   8.116   0.066
    4CHTO  H214 1303   5.487   8.119   2.834
    4CHTO   O78 1304   5.435   8.237   0.117
    4CHTO  H200 1305   5.345   8.242   0.089
    4CHTO  C111 1306   5.424   7.989   0.122
    4CHTO  H215 1307   5.423   7.995   0.232
    4CHTO   N19 1308   5.283   7.976   0.078
    4CHTO  H207 1309   5.225   8.060   0.116
    4CHTO  H208 1310   5.277   7.975   2.846
    4CHTO   O74 1311   5.724   8.214   0.021
    4CHTO  C115 1312   5.698   8.372   0.047
    4CHTO  H219 1313   5.598   8.402   0.016
    4CHTO   O76 1314   5.708   8.408   0.201
    4CHTO  C122 1315   5.705   8.547   0.237
    4CHTO  H226 1316   5.748   8.552   0.337
    4CHTO  C126 1317   5.557   8.600   0.252
    4CHTO   O85 1318   5.479   8.590   0.133
    4CHTO  H206 1319   5.394   8.626   0.148
    4CHTO  C121 1320   5.794   8.640   0.144
    4CHTO  H225 1321   5.765   8.745   0.162
    4CHTO   O81 1322   5.931   8.626   0.187
    4CHTO  H202 1323   5.985   8.689   0.143
    4CHTO  C119 1324   5.777   8.609   2.867
    4CHTO  H223 1325   5.671   8.628   2.847
    4CHTO  C117 1326   5.801   8.456   2.838
    4CHTO  H221 1327   5.899   8.416   2.863
    4CHTO   N20 1328   5.783   8.427   2.692
    4CHTO  H209 1329   5.682   8.449   2.661
    4CHTO  H210 1330   5.807   8.324   2.671
    4CHTO   O80 1331   5.850   8.719   2.765
    4CHTO  C103 1332   6.000   8.760   2.784
    4CHTO  H190 1333   6.031   8.750   0.012
    4CHTO  C101 1334   6.105   8.685   2.693
    4CHTO  H188 1335   6.071   8.689   2.590
    4CHTO   O68 1336   6.111   8.535   2.736
    4CHTO  H168 1337   6.165   8.488   2.677
    4CHTO   C99 1338   6.249   8.755   2.703
    4CHTO  H186 1339   6.287   8.743   2.807
    4CHTO   N17 1340   6.352   8.695   2.612
    4CHTO  H174 1341   6.372   8.593   2.642
    4CHTO  H175 1342   6.317   8.698   2.510
    4CHTO   C97 1343   6.235   8.908   2.680
    4CHTO  H184 1344   6.207   8.925   2.575
    4CHTO   O64 1345   6.138   8.963   2.770
    4CHTO  C104 1346   6.004   8.915   2.750
    4CHTO  H191 1347   5.971   8.930   2.647
    4CHTO  C108 1348   5.912   8.999   2.839
    4CHTO   O71 1349   5.774   8.985   2.803
    4CHTO  H171 1350   5.722   9.044   2.854
    4CHTO   O62 1351   6.356   8.979   2.715
    4CHTO   C91 1352   6.400   9.081   2.623
    4CHTO  H178 1353   6.367   9.056   2.522
    4CHTO   C92 1354   6.556   9.082   2.619
    4CHTO  H179 1355   6.594   9.111   2.718
    4CHTO   O66 1356   6.603   8.948   2.596
    4CHTO  H166 1357   6.697   8.945   2.603
    4CHTO   C93 1358   6.608   9.178   2.506
    4CHTO  H180 1359   6.599   9.121   2.412
    4CHTO   N16 1360   6.753   9.209   2.516
    4CHTO  H172 1361   6.774   9.257   2.611
    4CHTO  H173 1362   6.811   9.119   2.506
    4CHTO   C94 1363   6.520   9.310   2.494
    4CHTO  H181 1364   6.581   9.400   2.482
    4CHTO   O61 1365   6.442   9.333   2.613
    4CHTO   C95 1366   6.354   9.228   2.660
    4CHTO  H182 1367   6.349   9.234   2.768
    4CHTO  C106 1368   6.208   9.256   2.609
    4CHTO   O69 1369   6.153   9.369   2.677
    4CHTO  H169 1370   6.062   9.379   2.653
    4CHTO   O63 1371   6.422   9.298   2.368
    4CHTO   C96 1372   6.494   9.286   2.225
    4CHTO  H183 1373   6.588   9.232   2.237
    4CHTO   C98 1374   6.527   9.420   2.153
    4CHTO  H185 1375   6.436   9.482   2.148
    4CHTO   O67 1376   6.620   9.492   2.235
    4CHTO  H167 1377   6.701   9.446   2.241
    4CHTO  C102 1378   6.585   9.393   2.004
    4CHTO  H189 1379   6.679   9.339   2.018
    4CHTO   N18 1380   6.620   9.515   1.926
    4CHTO  H176 1381   6.531   9.573   1.907
    4CHTO  H177 1382   6.690   9.575   1.982
    4CHTO  C105 1383   6.486   9.300   1.929
    4CHTO  H192 1384   6.390   9.351   1.918
    4CHTO   O65 1385   6.464   9.179   2.004
    4CHTO  C100 1386   6.402   9.199   2.132
    4CHTO  H187 1387   6.308   9.254   2.118
    4CHTO  C107 1388   6.368   9.062   2.193
    4CHTO   O70 1389   6.268   8.998   2.114
    4CHTO  H170 1390   6.237   8.921   2.158
    4CHTO   O57 1391   6.546   9.261   1.780
    4CHTO   C85 1392   6.456   9.208   1.681
    4CHTO  H157 1393   6.363   9.267   1.690
    4CHTO   C83 1394   6.416   9.060   1.715
    4CHTO  H155 1395   6.358   9.062   1.808
    4CHTO   O56 1396   6.534   8.984   1.745
    4CHTO  H135 1397   6.587   8.974   1.668
    4CHTO   C81 1398   6.327   9.001   1.602
    4CHTO  H153 1399   6.240   9.065   1.591
    4CHTO   N14 1400   6.270   8.868   1.635
    4CHTO  H141 1401   6.202   8.838   1.559
    4CHTO  H142 1402   6.349   8.796   1.642
    4CHTO   C79 1403   6.406   9.004   1.466
    4CHTO  H151 1404   6.338   8.967   1.389
    4CHTO   O52 1405   6.438   9.142   1.432
    4CHTO   C86 1406   6.515   9.215   1.534
    4CHTO  H158 1407   6.616   9.170   1.529
    4CHTO   C90 1408   6.531   9.362   1.490
    4CHTO   O60 1409   6.599   9.374   1.365
    4CHTO  H138 1410   6.603   9.464   1.340
    4CHTO   O50 1411   6.525   8.922   1.465
    4CHTO   C73 1412   6.628   8.917   1.365
    4CHTO  H145 1413   6.657   9.019   1.336
    4CHTO   C74 1414   6.577   8.843   1.237
    4CHTO  H146 1415   6.485   8.894   1.204
    4CHTO   O54 1416   6.674   8.864   1.132
    4CHTO  H133 1417   6.643   8.825   1.052
    4CHTO   C75 1418   6.552   8.691   1.271
    4CHTO  H147 1419   6.476   8.686   1.350
    4CHTO   N13 1420   6.498   8.613   1.157
    4CHTO  H139 1421   6.482   8.511   1.186
    4CHTO  H140 1422   6.403   8.654   1.126
    4CHTO   C76 1423   6.687   8.629   1.329
    4CHTO  H148 1424   6.765   8.640   1.253
    4CHTO   O49 1425   6.728   8.704   1.448
    4CHTO   C77 1426   6.755   8.843   1.421
    4CHTO  H149 1427   6.835   8.851   1.348
    4CHTO   C88 1428   6.808   8.907   1.550
    4CHTO   O58 1429   6.850   9.047   1.527
    4CHTO  H136 1430   6.883   9.083   1.607
    4CHTO   O51 1431   6.667   8.478   1.377
    4CHTO   C78 1432   6.786   8.375   1.338
    4CHTO  H150 1433   6.886   8.418   1.362
    4CHTO   C80 1434   6.784   8.336   1.188
    4CHTO  H152 1435   6.681   8.302   1.162
    4CHTO   O55 1436   6.812   8.454   1.110
    4CHTO  H134 1437   6.898   8.486   1.128
    4CHTO   C84 1438   6.888   8.221   1.155
    4CHTO  H156 1439   6.988   8.261   1.173
    4CHTO   N15 1440   6.883   8.176   1.011
    4CHTO  H143 1441   6.979   8.188   0.966
    4CHTO  H144 1442   6.811   8.231   0.956
    4CHTO   C87 1443   6.866   8.102   1.252
    4CHTO  H159 1444   6.770   8.054   1.232
    4CHTO   O53 1445   6.871   8.153   1.396
    4CHTO   C82 1446   6.768   8.248   1.425
    4CHTO  H154 1447   6.671   8.203   1.405
    4CHTO   C89 1448   6.772   8.281   1.576
    4CHTO   O59 1449   6.901   8.330   1.618
    4CHTO  H137 1450   6.905   8.332   1.711
    4CHTO   O45 1451   6.990   7.992   1.245
    4CHTO   C67 1452   6.966   7.869   1.174
    4CHTO  H124 1453   6.938   7.890   1.071
    4CHTO   C65 1454   7.096   7.784   1.174
    4CHTO  H122 1455   7.177   7.853   1.150
    4CHTO   O44 1456   7.089   7.682   1.072
    4CHTO  H102 1457   7.023   7.619   1.094
    4CHTO   C63 1458   7.122   7.733   1.320
    4CHTO  H120 1459   7.109   7.817   1.389
    4CHTO   N11 1460   7.262   7.690   1.351
    4CHTO  H108 1461   7.331   7.767   1.325
    4CHTO  H109 1462   7.271   7.667   1.455
    4CHTO   C61 1463   7.010   7.629   1.357
    4CHTO  H118 1464   7.002   7.629   1.467
    4CHTO   O40 1465   6.878   7.661   1.306
    4CHTO   C68 1466   6.844   7.787   1.239
    4CHTO  H125 1467   6.795   7.850   1.315
    4CHTO   C72 1468   6.737   7.752   1.133
    4CHTO   O48 1469   6.686   7.868   1.066
    4CHTO  H105 1470   6.626   7.841   0.999
    4CHTO   O38 1471   7.037   7.496   1.307
    4CHTO   C55 1472   6.983   7.388   1.387
    4CHTO  H112 1473   6.893   7.422   1.441
    4CHTO   C56 1474   7.094   7.333   1.486
    4CHTO  H113 1475   7.181   7.304   1.424
    4CHTO   O42 1476   7.139   7.439   1.573
    4CHTO  H100 1477   7.213   7.410   1.623
    4CHTO   C57 1478   7.040   7.210   1.569
    4CHTO  H114 1479   6.969   7.251   1.641
    4CHTO   N10 1480   7.145   7.141   1.648
    4CHTO  H106 1481   7.155   7.186   1.746
    4CHTO  H107 1482   7.241   7.145   1.597
    4CHTO   C58 1483   6.965   7.108   1.479
    4CHTO  H115 1484   7.039   7.045   1.423
    4CHTO   O37 1485   6.876   7.171   1.385
    4CHTO   C59 1486   6.937   7.269   1.299
    4CHTO  H116 1487   7.022   7.225   1.247
    4CHTO   C70 1488   6.837   7.312   1.190
    4CHTO   O46 1489   6.714   7.365   1.241
    4CHTO  H103 1490   6.663   7.296   1.278
    4CHTO   O39 1491   6.873   7.013   1.578
    4CHTO   C60 1492   6.788   6.914   1.519
    4CHTO  H117 1493   6.793   6.920   1.410
    4CHTO   C62 1494   6.830   6.770   1.563
    4CHTO  H119 1495   6.931   6.753   1.519
    4CHTO   O43 1496   6.841   6.765   1.707
    4CHTO  H101 1497   6.911   6.819   1.736
    4CHTO   C66 1498   6.726   6.662   1.504
    4CHTO  H123 1499   6.722   6.673   1.395
    4CHTO   N12 1500   6.769   6.522   1.530
    4CHTO  H110 1501   6.866   6.505   1.486
    4CHTO  H111 1502   6.696   6.453   1.490
    4CHTO   C69 1503   6.585   6.693   1.560
    4CHTO  H126 1504   6.586   6.689   1.671
    4CHTO   O41 1505   6.546   6.838   1.514
    4CHTO   C64 1506   6.640   6.944   1.560
    4CHTO  H121 1507   6.635   6.951   1.670
    4CHTO   C71 1508   6.592   7.079   1.503
    4CHTO   O47 1509   6.581   7.078   1.360
    4CHTO  H104 1510   6.553   7.162   1.330
    4CHTO   O34 1511   6.474   6.591   1.507
    4CHTO   C49 1512   6.362   6.630   1.409
    4CHTO   H91 1513   6.315   6.720   1.448
    4CHTO   C47 1514   6.259   6.516   1.402
    4CHTO   H89 1515   6.174   6.559   1.343
    4CHTO   O33 1516   6.209   6.484   1.534
    4CHTO   H70 1517   6.278   6.450   1.587
    4CHTO   C45 1518   6.319   6.383   1.331
    4CHTO   H87 1519   6.349   6.312   1.410
    4CHTO    N8 1520   6.211   6.321   1.250
    4CHTO   H75 1521   6.187   6.223   1.290
    4CHTO   H76 1522   6.242   6.311   1.147
    4CHTO   C43 1523   6.456   6.418   1.253
    4CHTO   H85 1524   6.533   6.426   1.330
    4CHTO   O29 1525   6.440   6.541   1.180
    4CHTO   C50 1526   6.415   6.657   1.263
    4CHTO   H92 1527   6.510   6.713   1.271
    4CHTO   C54 1528   6.323   6.753   1.184
    4CHTO   O36 1529   6.308   6.880   1.250
    4CHTO   H72 1530   6.245   6.932   1.204
    4CHTO   O27 1531   6.503   6.310   1.169
    4CHTO   C37 1532   6.606   6.210   1.161
    4CHTO   H79 1533   6.600   6.158   1.064
    4CHTO   C38 1534   6.748   6.274   1.167
    4CHTO   H80 1535   6.755   6.334   1.258
    4CHTO   O31 1536   6.761   6.360   1.052
    4CHTO   H68 1537   6.841   6.409   1.057
    4CHTO   C39 1538   6.861   6.163   1.167
    4CHTO   H81 1539   6.862   6.117   1.068
    4CHTO    N7 1540   6.999   6.219   1.190
    4CHTO   H73 1541   7.072   6.140   1.189
    4CHTO   H74 1542   7.022   6.291   1.113
    4CHTO   C40 1543   6.829   6.048   1.271
    4CHTO   H82 1544   6.847   6.083   1.373
    4CHTO   O26 1545   6.694   6.003   1.253
    4CHTO   C41 1546   6.593   6.105   1.274
    4CHTO   H83 1547   6.607   6.153   1.372
    4CHTO   C52 1548   6.456   6.034   1.275
    4CHTO   O35 1549   6.441   5.942   1.390
    4CHTO   H71 1550   6.502   5.871   1.382
    4CHTO   O28 1551   6.908   5.930   1.246
    4CHTO   C42 1552   6.923   5.825   1.348
    4CHTO   H84 1553   6.980   5.748   1.295
    4CHTO   C44 1554   6.791   5.756   1.396
    4CHTO   H86 1555   6.723   5.833   1.433
    4CHTO   O32 1556   6.732   5.695   1.279
    4CHTO   H69 1557   6.650   5.656   1.301
    4CHTO   C48 1558   6.814   5.652   1.514
    4CHTO   H90 1559   6.872   5.568   1.474
    4CHTO    N9 1560   6.684   5.595   1.562
    4CHTO   H77 1561   6.684   5.487   1.551
    4CHTO   H78 1562   6.666   5.622   1.665
    4CHTO   C51 1563   6.898   5.722   1.627
    4CHTO   H93 1564   6.841   5.808   1.662
    4CHTO   O30 1565   7.024   5.760   1.571
    4CHTO   C46 1566   7.011   5.871   1.468
    4CHTO   H88 1567   6.963   5.957   1.516
    4CHTO   C53 1568   7.152   5.910   1.420
    4CHTO   O72 1569   7.228   5.968   1.526
    4CHTO  H199 1570   7.312   5.995   1.493
    4CHTO   O22 1571   6.933   5.635   1.737
    4CHTO   C31 1572   6.861   5.636   1.866
    4CHTO   H59 1573   6.758   5.671   1.844
    4CHTO   C29 1574   6.849   5.495   1.929
    4CHTO   H57 1575   6.952   5.458   1.943
    4CHTO   O21 1576   6.786   5.407   1.834
    4CHTO   H37 1577   6.696   5.431   1.822
    4CHTO   C27 1578   6.776   5.495   2.070
    4CHTO   H55 1579   6.671   5.523   2.055
    4CHTO    N5 1580   6.780   5.363   2.138
    4CHTO   H43 1581   6.845   5.294   2.086
    4CHTO   H44 1582   6.681   5.321   2.144
    4CHTO   C25 1583   6.842   5.605   2.159
    4CHTO   H53 1584   6.948   5.579   2.178
    4CHTO   O17 1585   6.838   5.732   2.089
    4CHTO   C32 1586   6.921   5.735   1.971
    4CHTO   H60 1587   7.022   5.703   1.996
    4CHTO   C36 1588   6.927   5.881   1.922
    4CHTO   O25 1589   6.991   5.966   2.018
    4CHTO   H40 1590   6.936   5.977   2.094
    4CHTO   O15 1591   6.769   5.622   2.301
    4CHTO   C19 1592   6.780   5.736   2.392
    4CHTO   H47 1593   6.777   5.689   2.492
    4CHTO   C20 1594   6.914   5.816   2.379
    4CHTO   H48 1595   6.931   5.851   2.275
    4CHTO   O19 1596   7.020   5.726   2.412
    4CHTO   H35 1597   7.103   5.766   2.397
    4CHTO   C21 1598   6.916   5.945   2.471
    4CHTO   H49 1599   6.920   5.913   2.575
    4CHTO    N4 1600   7.036   6.031   2.448
    4CHTO   H41 1601   7.101   5.988   2.373
    4CHTO   H42 1602   7.008   6.130   2.417
    4CHTO   C22 1603   6.783   6.022   2.451
    4CHTO   H50 1604   6.777   6.056   2.348
    4CHTO   O14 1605   6.670   5.937   2.479
    4CHTO   C23 1606   6.657   5.831   2.384
    4CHTO   H51 1607   6.648   5.877   2.284
    4CHTO   C34 1608   6.525   5.757   2.410
    4CHTO   O23 1609   6.516   5.701   2.541
    4CHTO   H38 1610   6.575   5.629   2.549
    4CHTO   O16 1611   6.771   6.131   2.544
    4CHTO   C24 1612   6.708   6.264   2.487
    4CHTO   H52 1613   6.622   6.244   2.423
    4CHTO   C26 1614   6.814   6.342   2.405
    4CHTO   H54 1615   6.912   6.336   2.459
    4CHTO   O20 1616   6.831   6.277   2.278
    4CHTO   H36 1617   6.749   6.264   2.235
    4CHTO   C30 1618   6.778   6.493   2.390
    4CHTO   H58 1619   6.687   6.504   2.329
    4CHTO    N6 1620   6.886   6.567   2.318
    4CHTO   H45 1621   6.847   6.615   2.230
    4CHTO   H46 1622   6.931   6.643   2.382
    4CHTO   C33 1623   6.745   6.551   2.531
    4CHTO   H61 1624   6.832   6.535   2.597
    4CHTO   O18 1625   6.633   6.479   2.584
    4CHTO   C28 1626   6.656   6.341   2.612
    4CHTO   H56 1627   6.728   6.330   2.693
    4CHTO   C35 1628   6.519   6.284   2.658
    4CHTO   O24 1629   6.514   6.142   2.677
    4CHTO   H39 1630   6.569   6.118   2.750
    4CHTO    O9 1631   6.721   6.693   2.529
    4CHTO   C13 1632   6.799   6.778   2.643
    4CHTO   H26 1633   6.888   6.720   2.677
    4CHTO   C11 1634   6.699   6.806   2.763
    4CHTO   H24 1635   6.669   6.710   2.806
    4CHTO    O8 1636   6.580   6.869   2.710
    4CHTO    H3 1637   6.601   6.954   2.676
    4CHTO    C9 1638   6.775   6.889   2.871
    4CHTO   H22 1639   6.856   6.824   0.030
    4CHTO    N2 1640   6.693   6.911   0.118
    4CHTO   H10 1641   6.611   6.978   0.096
    4CHTO   H11 1642   6.657   6.817   0.155
    4CHTO    C7 1643   6.842   7.019   2.806
    4CHTO   H20 1644   6.950   7.002   2.823
    4CHTO    O4 1645   6.816   7.029   2.665
    4CHTO   C14 1646   6.857   6.915   2.586
    4CHTO   H27 1647   6.968   6.910   2.588
    4CHTO   C18 1648   6.816   6.943   2.439
    4CHTO   O13 1649   6.885   7.056   2.385
    4CHTO    H7 1650   6.826   7.130   2.382
    4CHTO    O2 1651   6.799   7.163   2.875
    4CHTO    C1 1652   6.904   7.259   0.018
    4CHTO   H14 1653   7.003   7.212   0.001
    4CHTO    C2 1654   6.902   7.319   0.165
    4CHTO   H15 1655   6.798   7.351   0.183
    4CHTO    O6 1656   6.935   7.214   0.258
    4CHTO    H1 1657   7.023   7.184   0.242
    4CHTO    C3 1658   7.000   7.446   0.179
    4CHTO   H16 1659   7.104   7.411   0.167
    4CHTO    N1 1660   6.991   7.511   0.315
    4CHTO    H8 1661   6.964   7.615   0.306
    4CHTO    H9 1662   6.920   7.460   0.378
    4CHTO    C4 1663   6.973   7.545   0.061
    4CHTO   H17 1664   6.872   7.586   0.071
    4CHTO    O1 1665   6.986   7.478   2.811
    4CHTO    C5 1666   6.890   7.374   2.788
    4CHTO   H18 1667   6.790   7.416   2.798
    4CHTO   C16 1668   6.910   7.328   2.642
    4CHTO   O11 1669   7.040   7.272   2.620
    4CHTO    H5 1670   7.049   7.248   2.529
    4CHTO    O3 1671   7.070   7.651   0.054
    4CHTO    C6 1672   7.023   7.774   2.865
    4CHTO   H19 1673   6.928   7.760   2.812
    4CHTO    C8 1674   7.002   7.885   0.097
    4CHTO   H21 1675   7.092   7.890   0.158
    4CHTO    O7 1676   6.891   7.844   0.179
    4CHTO    H2 1677   6.812   7.841   0.129
    4CHTO   C12 1678   6.977   8.026   0.030
    4CHTO   H25 1679   6.877   8.021   2.857
    4CHTO    N3 1680   6.970   8.135   0.133
    4CHTO   H12 1681   6.886   8.117   0.200
    4CHTO   H13 1682   7.062   8.140   0.189
    4CHTO   C15 1683   7.085   8.053   2.795
    4CHTO   H28 1684   7.185   8.067   2.838
    4CHTO   O10 1685   7.051   8.173   2.705
    4CHTO    H4 1686   7.058   8.252   2.754
    4CHTO    O5 1687   7.087   7.945   2.700
    4CHTO   C10 1688   7.127   7.819   2.758
    4CHTO   H23 1689   7.225   7.830   2.804
    4CHTO   C17 1690   7.140   7.717   2.644
    4CHTO   O12 1691   7.241   7.754   2.551
    4CHTO    H6 1692   7.243   7.693   2.480
    5CHTO  H203 1693   7.700   3.306   1.560
    5CHTO   O82 1694   7.609   3.306   1.583
    5CHTO  C123 1695   7.589   3.245   1.712
    5CHTO  H227 1696   7.646   3.150   1.715
    5CHTO   O77 1697   7.648   3.341   1.805
    5CHTO  C118 1698   7.650   3.296   1.941
    5CHTO  H222 1699   7.702   3.198   1.946
    5CHTO  C125 1700   7.732   3.400   2.027
    5CHTO   O84 1701   7.672   3.531   2.025
    5CHTO  H205 1702   7.680   3.568   1.939
    5CHTO  C114 1703   7.506   3.279   1.992
    5CHTO  H218 1704   7.457   3.376   1.990
    5CHTO  C116 1705   7.425   3.182   1.900
    5CHTO  H220 1706   7.462   3.078   1.915
    5CHTO   O79 1707   7.287   3.183   1.942
    5CHTO  H201 1708   7.278   3.143   2.026
    5CHTO  C120 1709   7.438   3.222   1.748
    5CHTO  H224 1710   7.382   3.318   1.735
    5CHTO   N21 1711   7.374   3.122   1.658
    5CHTO  H211 1712   7.270   3.146   1.643
    5CHTO  H212 1713   7.384   3.022   1.699
    5CHTO   O75 1714   7.521   3.233   2.128
    5CHTO  C112 1715   7.396   3.274   2.225
    5CHTO  H216 1716   7.302   3.240   2.178
    5CHTO   O73 1717   7.398   3.416   2.243
    5CHTO  C113 1718   7.278   3.465   2.304
    5CHTO  H217 1719   7.191   3.431   2.244
    5CHTO  C124 1720   7.283   3.618   2.295
    5CHTO   O83 1721   7.159   3.681   2.327
    5CHTO  H204 1722   7.095   3.661   2.261
    5CHTO  C109 1723   7.266   3.412   2.450
    5CHTO  H213 1724   7.342   3.465   2.510
    5CHTO  C110 1725   7.290   3.257   2.458
    5CHTO  H214 1726   7.197   3.208   2.427
    5CHTO   O78 1727   7.312   3.218   2.595
    5CHTO  H200 1728   7.233   3.226   2.644
    5CHTO  C111 1729   7.407   3.208   2.367
    5CHTO  H215 1730   7.502   3.241   2.412
    5CHTO   N19 1731   7.414   3.060   2.356
    5CHTO  H207 1732   7.498   3.031   2.293
    5CHTO  H208 1733   7.426   3.015   2.454
    5CHTO   O74 1734   7.133   3.448   2.500
    5CHTO  C115 1735   7.111   3.450   2.660
    5CHTO  H219 1736   7.192   3.399   2.712
    5CHTO   O76 1737   7.112   3.598   2.717
    5CHTO  C122 1738   7.016   3.684   2.654
    5CHTO  H226 1739   7.058   3.718   2.560
    5CHTO  C126 1740   7.000   3.812   2.743
    5CHTO   O85 1741   6.927   3.916   2.678
    5CHTO  H206 1742   6.840   3.887   2.659
    5CHTO  C121 1743   6.875   3.613   2.630
    5CHTO  H225 1744   6.794   3.684   2.656
    5CHTO   O81 1745   6.858   3.582   2.491
    5CHTO  H202 1746   6.861   3.660   2.439
    5CHTO  C119 1747   6.861   3.487   2.721
    5CHTO  H223 1748   6.881   3.524   2.821
    5CHTO  C117 1749   6.973   3.379   2.689
    5CHTO  H221 1750   6.955   3.319   2.600
    5CHTO   N20 1751   6.984   3.279   2.800
    5CHTO  H209 1752   7.017   3.328   0.015
    5CHTO  H210 1753   6.888   3.231   2.817
    5CHTO   O80 1754   6.707   3.431   2.738
    5CHTO  C103 1755   6.612   3.408   2.609
    5CHTO  H190 1756   6.621   3.492   2.539
    5CHTO  C101 1757   6.635   3.273   2.532
    5CHTO  H188 1758   6.646   3.193   2.605
    5CHTO   O68 1759   6.761   3.283   2.457
    5CHTO  H168 1760   6.750   3.338   2.382
    5CHTO   C99 1761   6.512   3.236   2.435
    5CHTO  H186 1762   6.506   3.312   2.354
    5CHTO   N17 1763   6.523   3.101   2.369
    5CHTO  H174 1764   6.611   3.049   2.404
    5CHTO  H175 1765   6.526   3.113   2.262
    5CHTO   C97 1766   6.379   3.250   2.514
    5CHTO  H184 1767   6.380   3.175   2.595
    5CHTO   O64 1768   6.368   3.384   2.567
    5CHTO  C104 1769   6.466   3.413   2.668
    5CHTO  H191 1770   6.459   3.341   2.751
    5CHTO  C108 1771   6.437   3.551   2.729
    5CHTO   O71 1772   6.309   3.552   2.795
    5CHTO  H171 1773   6.293   3.638   2.830
    5CHTO   O62 1774   6.263   3.233   2.430
    5CHTO   C91 1775   6.137   3.194   2.489
    5CHTO  H178 1776   6.131   3.238   2.588
    5CHTO   C92 1777   6.131   3.038   2.507
    5CHTO  H179 1778   6.164   2.991   2.413
    5CHTO   O66 1779   6.227   2.998   2.607
    5CHTO  H166 1780   6.314   3.019   2.578
    5CHTO   C93 1781   5.987   2.985   2.548
    5CHTO  H180 1782   5.968   3.016   2.652
    5CHTO   N16 1783   5.976   2.837   2.547
    5CHTO  H172 1784   5.877   2.806   2.576
    5CHTO  H173 1785   6.001   2.798   2.450
    5CHTO   C94 1786   5.878   3.050   2.455
    5CHTO  H181 1787   5.891   3.022   2.351
    5CHTO   O61 1788   5.890   3.193   2.463
    5CHTO   C95 1789   6.012   3.242   2.405
    5CHTO  H182 1790   6.020   3.206   2.303
    5CHTO  C106 1791   6.001   3.399   2.399
    5CHTO   O69 1792   6.105   3.456   2.318
    5CHTO  H169 1793   6.189   3.439   2.357
    5CHTO   O63 1794   5.726   3.012   2.505
    5CHTO   C96 1795   5.632   2.977   2.383
    5CHTO  H183 1796   5.694   2.936   2.303
    5CHTO   C98 1797   5.550   3.096   2.324
    5CHTO  H185 1798   5.493   3.145   2.405
    5CHTO   O67 1799   5.643   3.196   2.277
    5CHTO  H167 1800   5.692   3.231   2.348
    5CHTO  C102 1801   5.452   3.051   2.204
    5CHTO  H189 1802   5.517   3.038   2.116
    5CHTO   N18 1803   5.351   3.152   2.165
    5CHTO  H176 1804   5.401   3.241   2.129
    5CHTO  H177 1805   5.289   3.177   2.250
    5CHTO  C105 1806   5.385   2.913   2.232
    5CHTO  H192 1807   5.294   2.927   2.290
    5CHTO   O65 1808   5.468   2.818   2.302
    5CHTO  C100 1809   5.528   2.867   2.422
    5CHTO  H187 1810   5.450   2.911   2.486
    5CHTO  C107 1811   5.592   2.748   2.499
    5CHTO   O70 1812   5.493   2.653   2.539
    5CHTO  H170 1813   5.435   2.691   2.602
    5CHTO   O57 1814   5.349   2.854   2.081
    5CHTO   C85 1815   5.250   2.751   2.065
    5CHTO  H157 1816   5.160   2.786   2.120
    5CHTO   C83 1817   5.295   2.619   2.137
    5CHTO  H155 1818   5.302   2.640   2.244
    5CHTO   O56 1819   5.428   2.583   2.094
    5CHTO  H135 1820   5.428   2.560   2.003
    5CHTO   C81 1821   5.188   2.509   2.115
    5CHTO  H153 1822   5.092   2.547   2.152
    5CHTO   N14 1823   5.213   2.388   2.198
    5CHTO  H141 1824   5.215   2.300   2.137
    5CHTO  H142 1825   5.137   2.377   2.273
    5CHTO   C79 1826   5.172   2.480   1.961
    5CHTO  H151 1827   5.093   2.407   1.950
    5CHTO   O52 1828   5.128   2.602   1.893
    5CHTO   C86 1829   5.218   2.717   1.914
    5CHTO  H158 1830   5.310   2.689   1.859
    5CHTO   C90 1831   5.161   2.841   1.841
    5CHTO   O60 1832   5.149   2.819   1.700
    5CHTO  H138 1833   5.234   2.813   1.661
    5CHTO   O50 1834   5.292   2.429   1.899
    5CHTO   C73 1835   5.340   2.343   1.796
    5CHTO  H145 1836   5.271   2.343   1.710
    5CHTO   C74 1837   5.354   2.196   1.849
    5CHTO  H146 1838   5.255   2.165   1.885
    5CHTO   O54 1839   5.385   2.111   1.737
    5CHTO  H133 1840   5.468   2.133   1.700
    5CHTO   C75 1841   5.462   2.193   1.964
    5CHTO  H147 1842   5.426   2.254   2.048
    5CHTO   N13 1843   5.487   2.058   2.021
    5CHTO  H139 1844   5.559   2.064   2.101
    5CHTO  H140 1845   5.395   2.018   2.061
    5CHTO   C76 1846   5.598   2.261   1.914
    5CHTO  H148 1847   5.643   2.196   1.838
    5CHTO   O49 1848   5.573   2.394   1.855
    5CHTO   C77 1849   5.480   2.391   1.746
    5CHTO  H149 1850   5.515   2.323   1.669
    5CHTO   C88 1851   5.472   2.528   1.679
    5CHTO   O58 1852   5.601   2.566   1.619
    5CHTO  H136 1853   5.618   2.514   1.543
    5CHTO   O51 1854   5.696   2.287   2.039
    5CHTO   C78 1855   5.833   2.352   1.997
    5CHTO  H150 1856   5.821   2.413   1.905
    5CHTO   C80 1857   5.939   2.243   1.972
    5CHTO  H152 1858   5.945   2.177   2.061
    5CHTO   O55 1859   5.893   2.165   1.860
    5CHTO  H134 1860   5.949   2.090   1.848
    5CHTO   C84 1861   6.081   2.307   1.942
    5CHTO  H156 1862   6.073   2.359   1.847
    5CHTO   N15 1863   6.190   2.206   1.925
    5CHTO  H143 1864   6.283   2.255   1.906
    5CHTO  H144 1865   6.200   2.147   2.014
    5CHTO   C87 1866   6.116   2.413   2.049
    5CHTO  H159 1867   6.141   2.364   2.144
    5CHTO   O53 1868   6.000   2.511   2.069
    5CHTO   C82 1869   5.878   2.448   2.108
    5CHTO  H154 1870   5.890   2.395   2.203
    5CHTO   C89 1871   5.771   2.557   2.132
    5CHTO   O59 1872   5.808   2.643   2.241
    5CHTO  H137 1873   5.744   2.710   2.251
    5CHTO   O45 1874   6.237   2.503   1.998
    5CHTO   C67 1875   6.336   2.532   2.098
    5CHTO  H124 1876   6.299   2.506   2.197
    5CHTO   C65 1877   6.467   2.451   2.069
    5CHTO  H122 1878   6.464   2.424   1.963
    5CHTO   O44 1879   6.458   2.330   2.147
    5CHTO  H102 1880   6.523   2.269   2.119
    5CHTO   C63 1881   6.598   2.537   2.085
    5CHTO  H120 1882   6.606   2.604   1.999
    5CHTO   N11 1883   6.728   2.462   2.076
    5CHTO  H108 1884   6.778   2.484   1.984
    5CHTO  H109 1885   6.712   2.357   2.085
    5CHTO   C61 1886   6.585   2.630   2.211
    5CHTO  H118 1887   6.673   2.696   2.208
    5CHTO   O40 1888   6.468   2.717   2.204
    5CHTO   C68 1889   6.365   2.687   2.104
    5CHTO  H125 1890   6.401   2.723   2.005
    5CHTO   C72 1891   6.238   2.769   2.138
    5CHTO   O48 1892   6.183   2.739   2.267
    5CHTO  H105 1893   6.154   2.650   2.270
    5CHTO   O38 1894   6.583   2.555   2.334
    5CHTO   C55 1895   6.571   2.628   2.459
    5CHTO  H112 1896   6.498   2.709   2.447
    5CHTO   C56 1897   6.711   2.681   2.510
    5CHTO  H113 1898   6.779   2.595   2.516
    5CHTO   O42 1899   6.769   2.771   2.413
    5CHTO  H100 1900   6.712   2.844   2.398
    5CHTO   C57 1901   6.696   2.752   2.650
    5CHTO  H114 1902   6.641   2.844   2.633
    5CHTO   N10 1903   6.827   2.790   2.710
    5CHTO  H106 1904   6.867   2.710   2.770
    5CHTO  H107 1905   6.814   2.878   2.773
    5CHTO   C58 1906   6.615   2.664   2.749
    5CHTO  H115 1907   6.679   2.580   2.785
    5CHTO   O37 1908   6.495   2.609   2.691
    5CHTO   C59 1909   6.512   2.535   2.569
    5CHTO  H116 1910   6.578   2.450   2.587
    5CHTO   C70 1911   6.376   2.477   2.528
    5CHTO   O46 1912   6.272   2.574   2.514
    5CHTO  H103 1913   6.245   2.604   2.599
    5CHTO   O39 1914   6.568   2.761   0.008
    5CHTO   C60 1915   6.440   2.824   2.869
    5CHTO  H117 1916   6.417   2.834   2.762
    5CHTO   C62 1917   6.329   2.737   0.059
    5CHTO  H119 1918   6.339   2.635   0.016
    5CHTO   O43 1919   6.353   2.728   0.201
    5CHTO  H101 1920   6.292   2.667   0.240
    5CHTO   C66 1921   6.186   2.798   0.022
    5CHTO  H123 1922   6.178   2.803   2.789
    5CHTO   N12 1923   6.074   2.711   0.067
    5CHTO  H110 1924   5.980   2.756   0.040
    5CHTO  H111 1925   6.084   2.613   0.023
    5CHTO   C69 1926   6.177   2.943   0.077
    5CHTO  H126 1927   6.174   2.942   0.188
    5CHTO   O41 1928   6.300   3.029   0.029
    5CHTO   C64 1929   6.437   2.968   0.052
    5CHTO  H121 1930   6.459   2.965   0.161
    5CHTO   C71 1931   6.538   3.064   2.860
    5CHTO   O47 1932   6.674   3.032   0.016
    5CHTO  H104 1933   6.702   2.959   2.840
    5CHTO   O34 1934   6.051   3.011   0.025
    5CHTO   C49 1935   5.979   3.118   0.096
    5CHTO   H91 1936   6.049   3.165   0.165
    5CHTO   C47 1937   5.864   3.053   0.176
    5CHTO   H89 1938   5.818   3.134   0.236
    5CHTO   O33 1939   5.918   2.955   0.267
    5CHTO   H70 1940   5.952   2.881   0.220
    5CHTO   C45 1941   5.757   2.995   0.071
    5CHTO   H87 1942   5.810   2.933   2.873
    5CHTO    N8 1943   5.653   2.911   0.135
    5CHTO   H75 1944   5.592   2.865   0.059
    5CHTO   H76 1945   5.591   2.972   0.199
    5CHTO   C43 1946   5.698   3.119   2.862
    5CHTO   H85 1947   5.628   3.077   2.790
    5CHTO   O29 1948   5.807   3.188   2.797
    5CHTO   C50 1949   5.923   3.225   2.874
    5CHTO   H92 1950   6.003   3.246   2.802
    5CHTO   C54 1951   5.904   3.361   0.070
    5CHTO   O36 1952   5.869   3.464   2.852
    5CHTO   H72 1953   5.942   3.483   2.797
    5CHTO   O27 1954   5.621   3.210   0.067
    5CHTO   C37 1955   5.550   3.327   0.113
    5CHTO   H79 1956   5.620   3.412   0.122
    5CHTO   C38 1957   5.440   3.372   0.012
    5CHTO   H80 1958   5.378   3.285   2.863
    5CHTO   O31 1959   5.506   3.415   2.767
    5CHTO   H68 1960   5.557   3.492   2.783
    5CHTO   C39 1961   5.348   3.487   0.072
    5CHTO   H81 1962   5.411   3.574   0.086
    5CHTO    N7 1963   5.235   3.529   2.857
    5CHTO   H73 1964   5.235   3.471   2.766
    5CHTO   H74 1965   5.139   3.520   0.030
    5CHTO   C40 1966   5.295   3.444   0.216
    5CHTO   H82 1967   5.227   3.360   0.205
    5CHTO   O26 1968   5.409   3.412   0.297
    5CHTO   C41 1969   5.488   3.298   0.252
    5CHTO   H83 1970   5.425   3.209   0.247
    5CHTO   C52 1971   5.598   3.274   0.358
    5CHTO   O35 1972   5.545   3.241   0.491
    5CHTO   H71 1973   5.509   3.155   0.490
    5CHTO   O28 1974   5.223   3.550   0.283
    5CHTO   C42 1975   5.193   3.553   0.427
    5CHTO   H84 1976   5.116   3.631   0.432
    5CHTO   C44 1977   5.311   3.606   0.518
    5CHTO   H86 1978   5.405   3.571   0.475
    5CHTO   O32 1979   5.312   3.749   0.507
    5CHTO   H69 1980   5.333   3.776   0.420
    5CHTO   C48 1981   5.309   3.565   0.670
    5CHTO   H90 1982   5.239   3.630   0.722
    5CHTO    N9 1983   5.442   3.589   0.737
    5CHTO   H77 1984   5.511   3.638   0.670
    5CHTO   H78 1985   5.485   3.497   0.773
    5CHTO   C51 1986   5.258   3.418   0.686
    5CHTO   H93 1987   5.326   3.352   0.632
    5CHTO   O30 1988   5.125   3.414   0.632
    5CHTO   C46 1989   5.126   3.421   0.479
    5CHTO   H88 1990   5.179   3.334   0.440
    5CHTO   C53 1991   4.978   3.418   0.432
    5CHTO   O72 1992   4.905   3.309   0.489
    5CHTO  H199 1993   4.930   3.229   0.447
    5CHTO   O22 1994   5.244   3.378   0.824
    5CHTO   C31 1995   5.266   3.237   0.866
    5CHTO   H59 1996   5.241   3.235   0.974
    5CHTO   C29 1997   5.171   3.137   0.796
    5CHTO   H57 1998   5.180   3.153   0.688
    5CHTO   O21 1999   5.036   3.175   0.830
    5CHTO   H37 2000   5.018   3.157   0.920
    5CHTO   C27 2001   5.206   2.987   0.830
    5CHTO   H55 2002   5.192   2.971   0.938
    5CHTO    N5 2003   5.120   2.890   0.756
    5CHTO   H43 2004   5.050   2.941   0.691
    5CHTO   H44 2005   5.179   2.820   0.700
    5CHTO   C25 2006   5.358   2.966   0.799
    5CHTO   H53 2007   5.377   2.995   0.694
    5CHTO   O17 2008   5.435   3.054   0.886
    5CHTO   C32 2009   5.416   3.193   0.854
    5CHTO   H60 2010   5.450   3.211   0.752
    5CHTO   C36 2011   5.506   3.277   0.949
    5CHTO   O25 2012   5.476   3.253   1.087
    5CHTO   H40 2013   5.534   3.304   1.141
    5CHTO   O15 2014   5.410   2.816   0.817
    5CHTO   C19 2015   5.539   2.746   0.817
    5CHTO   H47 2016   5.602   2.806   0.884
    5CHTO   C20 2017   5.530   2.600   0.871
    5CHTO   H48 2018   5.468   2.536   0.807
    5CHTO   O19 2019   5.466   2.607   1.001
    5CHTO   H35 2020   5.376   2.632   0.992
    5CHTO   C21 2021   5.673   2.535   0.883
    5CHTO   H49 2022   5.728   2.586   0.962
    5CHTO    N4 2023   5.669   2.391   0.923
    5CHTO   H41 2024   5.576   2.346   0.890
    5CHTO   H42 2025   5.677   2.382   1.030
    5CHTO   C22 2026   5.756   2.554   0.752
    5CHTO   H50 2027   5.723   2.483   0.677
    5CHTO   O14 2028   5.746   2.688   0.700
    5CHTO   C23 2029   5.613   2.740   0.680
    5CHTO   H51 2030   5.562   2.674   0.608
    5CHTO   C34 2031   5.629   2.877   0.613
    5CHTO   O23 2032   5.673   2.865   0.478
    5CHTO   H38 2033   5.758   2.826   0.475
    5CHTO   O16 2034   5.897   2.541   0.780
    5CHTO   C24 2035   5.987   2.465   0.665
    5CHTO   H52 2036   5.932   2.451   0.573
    5CHTO   C26 2037   6.029   2.328   0.721
    5CHTO   H54 2038   6.063   2.342   0.827
    5CHTO   O20 2039   5.912   2.244   0.726
    5CHTO   H36 2040   5.879   2.228   0.639
    5CHTO   C30 2041   6.146   2.262   0.641
    5CHTO   H58 2042   6.110   2.232   0.541
    5CHTO    N6 2043   6.194   2.137   0.707
    5CHTO   H45 2044   6.271   2.091   0.648
    5CHTO   H46 2045   6.233   2.160   0.805
    5CHTO   C33 2046   6.259   2.366   0.620
    5CHTO   H61 2047   6.294   2.401   0.719
    5CHTO   O18 2048   6.203   2.479   0.550
    5CHTO   C28 2049   6.110   2.554   0.630
    5CHTO   H56 2050   6.158   2.587   0.723
    5CHTO   C35 2051   6.065   2.679   0.551
    5CHTO   O24 2052   6.174   2.766   0.518
    5CHTO   H39 2053   6.143   2.836   0.465
    5CHTO    O9 2054   6.379   2.317   0.554
    5CHTO   C13 2055   6.370   2.261   0.400
    5CHTO   H26 2056   6.264   2.239   0.376
    5CHTO   C11 2057   6.461   2.132   0.390
    5CHTO   H24 2058   6.415   2.054   0.453
    5CHTO    O8 2059   6.592   2.158   0.443
    5CHTO    H3 2060   6.643   2.079   0.445
    5CHTO    C9 2061   6.461   2.082   0.243
    5CHTO   H22 2062   6.355   2.061   0.219
    5CHTO    N2 2063   6.529   1.951   0.225
    5CHTO   H10 2064   6.635   1.962   0.243
    5CHTO   H11 2065   6.512   1.914   0.125
    5CHTO    C7 2066   6.512   2.194   0.145
    5CHTO   H20 2067   6.484   2.155   0.045
    5CHTO    O4 2068   6.444   2.320   0.165
    5CHTO   C14 2069   6.417   2.372   0.297
    5CHTO   H27 2070   6.333   2.445   0.285
    5CHTO   C18 2071   6.539   2.453   0.349
    5CHTO   O13 2072   6.576   2.557   0.258
    5CHTO    H7 2073   6.518   2.630   0.269
    5CHTO    O2 2074   6.678   2.216   0.153
    5CHTO    C1 2075   6.740   2.293   0.048
    5CHTO   H14 2076   6.688   2.390   0.039
    5CHTO    C2 2077   6.745   2.223   2.781
    5CHTO   H15 2078   6.784   2.121   2.798
    5CHTO    O6 2079   6.612   2.215   2.727
    5CHTO    H1 2080   6.612   2.165   2.647
    5CHTO    C3 2081   6.841   2.302   2.678
    5CHTO   H16 2082   6.790   2.395   2.648
    5CHTO    N1 2083   6.867   2.225   2.552
    5CHTO    H8 2084   6.930   2.281   2.485
    5CHTO    H9 2085   6.913   2.130   2.575
    5CHTO    C4 2086   6.976   2.347   2.746
    5CHTO   H17 2087   7.040   2.260   2.759
    5CHTO    O1 2088   6.950   2.410   2.873
    5CHTO    C5 2089   6.886   2.324   0.093
    5CHTO   H18 2090   6.940   2.229   0.099
    5CHTO   C16 2091   6.893   2.394   0.231
    5CHTO   O11 2092   7.028   2.404   0.278
    5CHTO    H5 2093   7.078   2.461   0.221
    5CHTO    O3 2094   7.042   2.449   2.668
    5CHTO    C6 2095   7.188   2.457   2.684
    5CHTO   H19 2096   7.225   2.396   2.766
    5CHTO    C8 2097   7.259   2.411   2.553
    5CHTO   H21 2098   7.217   2.466   2.469
    5CHTO    O7 2099   7.231   2.271   2.538
    5CHTO    H2 2100   7.267   2.239   2.457
    5CHTO   C12 2101   7.415   2.440   2.560
    5CHTO   H25 2102   7.456   2.373   2.639
    5CHTO    N3 2103   7.483   2.403   2.432
    5CHTO   H12 2104   7.590   2.419   2.441
    5CHTO   H13 2105   7.444   2.461   2.350
    5CHTO   C15 2106   7.439   2.589   2.603
    5CHTO   H28 2107   7.408   2.659   2.525
    5CHTO   O10 2108   7.585   2.617   2.643
    5CHTO    H4 2109   7.640   2.609   2.568
    5CHTO    O5 2110   7.370   2.618   2.726
    5CHTO   C10 2111   7.227   2.604   2.717
    5CHTO   H23 2112   7.191   2.670   2.637
    5CHTO   C17 2113   7.167   2.655   2.848
    5CHTO   O12 2114   7.210   2.579   0.085
    5CHTO    H6 2115   7.163   2.606   0.162
    6CHTO  H203 2116   5.488   4.150   0.458
    6CHTO   O82 2117   5.422   4.214   0.470
    6CHTO  C123 2118   5.481   4.345   0.482
    6CHTO  H227 2119   5.537   4.368   0.390
    6CHTO   O77 2120   5.365   4.433   0.493
    6CHTO  C118 2121   5.396   4.573   0.503
    6CHTO  H222 2122   5.457   4.604   0.417
    6CHTO  C125 2123   5.261   4.653   0.501
    6CHTO   O84 2124   5.190   4.636   0.378
    6CHTO  H205 2125   5.157   4.548   0.372
    6CHTO  C114 2126   5.474   4.597   0.634
    6CHTO  H218 2127   5.412   4.564   0.717
    6CHTO  C116 2128   5.605   4.512   0.636
    6CHTO  H220 2129   5.674   4.549   0.557
    6CHTO   O79 2130   5.671   4.532   0.762
    6CHTO  H201 2131   5.704   4.620   0.768
    6CHTO  C120 2132   5.572   4.359   0.611
    6CHTO  H224 2133   5.516   4.324   0.700
    6CHTO   N21 2134   5.694   4.275   0.602
    6CHTO  H211 2135   5.772   4.315   0.665
    6CHTO  H212 2136   5.729   4.269   0.499
    6CHTO   O75 2137   5.498   4.739   0.641
    6CHTO  C112 2138   5.474   4.796   0.794
    6CHTO  H216 2139   5.511   4.721   0.866
    6CHTO   O73 2140   5.333   4.820   0.810
    6CHTO  C113 2141   5.297   4.857   0.943
    6CHTO  H217 2142   5.333   4.780   1.014
    6CHTO  C124 2143   5.144   4.859   0.953
    6CHTO   O83 2144   5.086   4.729   0.933
    6CHTO  H204 2145   5.110   4.672   1.002
    6CHTO  C109 2146   5.361   4.992   0.984
    6CHTO  H213 2147   5.315   5.069   0.921
    6CHTO  C110 2148   5.516   4.986   0.961
    6CHTO  H214 2149   5.559   4.921   1.037
    6CHTO   O78 2150   5.571   5.117   0.985
    6CHTO  H200 2151   5.537   5.179   0.922
    6CHTO  C111 2152   5.551   4.932   0.819
    6CHTO  H215 2153   5.517   5.005   0.744
    6CHTO   N19 2154   5.697   4.913   0.798
    6CHTO  H207 2155   5.736   4.842   0.869
    6CHTO  H208 2156   5.716   4.878   0.697
    6CHTO   O74 2157   5.331   5.019   1.124
    6CHTO  C115 2158   5.269   5.162   1.153
    6CHTO  H219 2159   5.290   5.232   1.073
    6CHTO   O76 2160   5.113   5.156   1.162
    6CHTO  C122 2161   5.064   5.064   1.260
    6CHTO  H226 2162   5.071   4.964   1.217
    6CHTO  C126 2163   4.911   5.090   1.282
    6CHTO   O85 2164   4.883   5.224   1.324
    6CHTO  H206 2165   4.790   5.235   1.331
    6CHTO  C121 2166   5.144   5.068   1.398
    6CHTO  H225 2167   5.071   5.066   1.480
    6CHTO   O81 2168   5.227   4.952   1.412
    6CHTO  H202 2169   5.175   4.874   1.414
    6CHTO  C119 2170   5.229   5.199   1.409
    6CHTO  H223 2171   5.156   5.280   1.400
    6CHTO  C117 2172   5.332   5.213   1.289
    6CHTO  H221 2173   5.422   5.153   1.302
    6CHTO   N20 2174   5.381   5.354   1.275
    6CHTO  H209 2175   5.330   5.421   1.343
    6CHTO  H210 2176   5.488   5.359   1.293
    6CHTO   O80 2177   5.291   5.227   1.557
    6CHTO  C103 2178   5.193   5.236   1.689
    6CHTO  H190 2179   5.240   5.298   1.765
    6CHTO  C101 2180   5.048   5.294   1.664
    6CHTO  H188 2181   5.004   5.245   1.577
    6CHTO   O68 2182   5.060   5.445   1.632
    6CHTO  H168 2183   4.977   5.480   1.608
    6CHTO   C99 2184   4.951   5.265   1.789
    6CHTO  H186 2185   4.991   5.317   1.878
    6CHTO   N17 2186   4.810   5.313   1.769
    6CHTO  H174 2187   4.811   5.419   1.745
    6CHTO  H175 2188   4.752   5.294   1.858
    6CHTO   C97 2189   4.957   5.114   1.821
    6CHTO  H184 2190   4.922   5.058   1.733
    6CHTO   O64 2191   5.093   5.080   1.856
    6CHTO  C104 2192   5.187   5.088   1.748
    6CHTO  H191 2193   5.161   5.019   1.668
    6CHTO  C108 2194   5.322   5.042   1.804
    6CHTO   O71 2195   5.422   5.024   1.703
    6CHTO  H171 2196   5.447   5.107   1.668
    6CHTO   O62 2197   4.883   5.075   1.939
    6CHTO   C91 2198   4.814   4.948   1.940
    6CHTO  H178 2199   4.784   4.931   2.043
    6CHTO   C92 2200   4.910   4.828   1.905
    6CHTO  H179 2201   4.960   4.847   1.809
    6CHTO   O66 2202   5.014   4.826   2.004
    6CHTO  H166 2203   5.071   4.900   1.994
    6CHTO   C93 2204   4.832   4.690   1.899
    6CHTO  H180 2205   4.791   4.671   2.000
    6CHTO   N16 2206   4.918   4.572   1.869
    6CHTO  H172 2207   5.021   4.602   1.852
    6CHTO  H173 2208   4.881   4.517   1.783
    6CHTO   C94 2209   4.713   4.706   1.798
    6CHTO  H181 2210   4.747   4.735   1.698
    6CHTO   O61 2211   4.625   4.810   1.845
    6CHTO   C95 2212   4.683   4.941   1.851
    6CHTO  H182 2213   4.706   4.974   1.750
    6CHTO  C106 2214   4.573   5.039   1.906
    6CHTO   O69 2215   4.526   5.001   2.037
    6CHTO  H169 2216   4.478   4.921   2.031
    6CHTO   O63 2217   4.624   4.571   1.789
    6CHTO   C96 2218   4.541   4.558   1.655
    6CHTO  H183 2219   4.555   4.648   1.595
    6CHTO   C98 2220   4.388   4.539   1.679
    6CHTO  H185 2221   4.373   4.469   1.762
    6CHTO   O67 2222   4.337   4.665   1.726
    6CHTO  H167 2223   4.247   4.657   1.750
    6CHTO  C102 2224   4.307   4.488   1.549
    6CHTO  H189 2225   4.307   4.572   1.478
    6CHTO   N18 2226   4.165   4.455   1.572
    6CHTO  H176 2227   4.112   4.542   1.608
    6CHTO  H177 2228   4.157   4.375   1.645
    6CHTO  C105 2229   4.386   4.370   1.485
    6CHTO  H192 2230   4.389   4.287   1.556
    6CHTO   O65 2231   4.520   4.412   1.455
    6CHTO  C100 2232   4.599   4.436   1.573
    6CHTO  H187 2233   4.596   4.347   1.637
    6CHTO  C107 2234   4.745   4.459   1.529
    6CHTO   O70 2235   4.798   4.340   1.470
    6CHTO  H170 2236   4.887   4.354   1.445
    6CHTO   O57 2237   4.311   4.320   1.344
    6CHTO   C85 2238   4.363   4.220   1.255
    6CHTO  H157 2239   4.271   4.180   1.206
    6CHTO   C83 2240   4.428   4.096   1.327
    6CHTO  H155 2241   4.354   4.054   1.395
    6CHTO   O56 2242   4.540   4.136   1.408
    6CHTO  H135 2243   4.512   4.193   1.477
    6CHTO   C81 2244   4.465   3.990   1.220
    6CHTO  H153 2245   4.375   3.965   1.164
    6CHTO   N14 2246   4.509   3.861   1.279
    6CHTO  H141 2247   4.525   3.789   1.201
    6CHTO  H142 2248   4.434   3.824   1.345
    6CHTO   C79 2249   4.570   4.050   1.118
    6CHTO  H151 2250   4.582   3.977   1.037
    6CHTO   O52 2251   4.515   4.171   1.055
    6CHTO   C86 2252   4.467   4.273   1.149
    6CHTO  H158 2253   4.559   4.312   1.198
    6CHTO   C90 2254   4.408   4.392   1.069
    6CHTO   O60 2255   4.506   4.453   0.985
    6CHTO  H138 2256   4.570   4.498   1.037
    6CHTO   O50 2257   4.701   4.079   1.172
    6CHTO   C73 2258   4.818   4.082   1.089
    6CHTO  H145 2259   4.790   4.102   0.985
    6CHTO   C74 2260   4.891   3.944   1.093
    6CHTO  H146 2261   4.816   3.867   1.067
    6CHTO   O54 2262   4.989   3.943   0.987
    6CHTO  H133 2263   5.028   3.858   0.981
    6CHTO   C75 2264   4.953   3.920   1.236
    6CHTO  H147 2265   4.871   3.918   1.310
    6CHTO   N13 2266   5.021   3.789   1.252
    6CHTO  H139 2267   5.014   3.731   1.161
    6CHTO  H140 2268   5.125   3.802   1.277
    6CHTO   C76 2269   5.047   4.044   1.274
    6CHTO  H148 2270   5.128   4.048   1.200
    6CHTO   O49 2271   4.969   4.168   1.267
    6CHTO   C77 2272   4.917   4.194   1.135
    6CHTO  H149 2273   5.000   4.198   1.064
    6CHTO   C88 2274   4.852   4.332   1.131
    6CHTO   O58 2275   4.952   4.439   1.161
    6CHTO  H136 2276   4.908   4.522   1.165
    6CHTO   O51 2277   5.105   4.031   1.429
    6CHTO   C78 2278   5.219   4.142   1.480
    6CHTO  H150 2279   5.262   4.108   1.577
    6CHTO   C80 2280   5.154   4.280   1.501
    6CHTO  H152 2281   5.106   4.312   1.405
    6CHTO   O55 2282   5.051   4.263   1.600
    6CHTO  H134 2283   5.089   4.239   1.683
    6CHTO   C84 2284   5.258   4.390   1.544
    6CHTO  H156 2285   5.295   4.364   1.644
    6CHTO   N15 2286   5.198   4.527   1.556
    6CHTO  H143 2287   5.119   4.526   1.628
    6CHTO  H144 2288   5.272   4.598   1.587
    6CHTO   C87 2289   5.380   4.390   1.448
    6CHTO  H159 2290   5.351   4.429   1.350
    6CHTO   O53 2291   5.434   4.246   1.434
    6CHTO   C82 2292   5.338   4.152   1.382
    6CHTO  H154 2293   5.306   4.181   1.282
    6CHTO   C89 2294   5.415   4.018   1.367
    6CHTO   O59 2295   5.342   3.920   1.293
    6CHTO  H137 2296   5.337   3.946   1.203
    6CHTO   O45 2297   5.498   4.481   1.510
    6CHTO   C67 2298   5.614   4.499   1.427
    6CHTO  H124 2299   5.616   4.427   1.345
    6CHTO   C65 2300   5.617   4.644   1.368
    6CHTO  H122 2301   5.518   4.659   1.324
    6CHTO   O44 2302   5.716   4.653   1.264
    6CHTO  H102 2303   5.714   4.739   1.225
    6CHTO   C63 2304   5.628   4.747   1.486
    6CHTO  H120 2305   5.541   4.735   1.550
    6CHTO   N11 2306   5.613   4.890   1.444
    6CHTO  H108 2307   5.698   4.920   1.386
    6CHTO  H109 2308   5.605   4.953   1.530
    6CHTO   C61 2309   5.753   4.717   1.578
    6CHTO  H118 2310   5.732   4.771   1.671
    6CHTO   O40 2311   5.766   4.576   1.615
    6CHTO   C68 2312   5.741   4.471   1.515
    6CHTO  H125 2313   5.719   4.378   1.571
    6CHTO   C72 2314   5.868   4.443   1.430
    6CHTO   O48 2315   5.972   4.380   1.506
    6CHTO  H105 2316   5.949   4.290   1.522
    6CHTO   O38 2317   5.881   4.760   1.525
    6CHTO   C55 2318   5.969   4.826   1.618
    6CHTO  H112 2319   5.949   4.791   1.721
    6CHTO   C56 2320   5.954   4.984   1.605
    6CHTO  H113 2321   5.950   5.006   1.497
    6CHTO   O42 2322   5.826   5.025   1.658
    6CHTO  H100 2323   5.756   4.986   1.609
    6CHTO   C57 2324   6.070   5.065   1.674
    6CHTO  H114 2325   6.055   5.058   1.782
    6CHTO   N10 2326   6.070   5.210   1.640
    6CHTO  H106 2327   5.969   5.244   1.624
    6CHTO  H107 2328   6.128   5.228   1.550
    6CHTO   C58 2329   6.207   5.001   1.640
    6CHTO  H115 2330   6.227   5.013   1.530
    6CHTO   O37 2331   6.207   4.862   1.673
    6CHTO   C59 2332   6.117   4.785   1.591
    6CHTO  H116 2333   6.141   4.800   1.486
    6CHTO   C70 2334   6.140   4.637   1.624
    6CHTO   O46 2335   6.270   4.591   1.585
    6CHTO  H103 2336   6.281   4.502   1.612
    6CHTO   O39 2337   6.329   5.070   1.727
    6CHTO   C60 2338   6.454   5.070   1.656
    6CHTO  H117 2339   6.466   4.975   1.604
    6CHTO   C62 2340   6.460   5.185   1.550
    6CHTO  H119 2341   6.374   5.169   1.481
    6CHTO   O43 2342   6.442   5.312   1.615
    6CHTO  H101 2343   6.440   5.381   1.551
    6CHTO   C66 2344   6.596   5.173   1.465
    6CHTO  H123 2345   6.598   5.076   1.416
    6CHTO   N12 2346   6.603   5.273   1.356
    6CHTO  H110 2347   6.696   5.262   1.301
    6CHTO  H111 2348   6.518   5.261   1.290
    6CHTO   C69 2349   6.719   5.180   1.560
    6CHTO  H126 2350   6.726   5.282   1.606
    6CHTO   O41 2351   6.705   5.072   1.677
    6CHTO   C64 2352   6.573   5.084   1.754
    6CHTO  H121 2353   6.569   5.183   1.804
    6CHTO   C71 2354   6.568   4.976   1.865
    6CHTO   O47 2355   6.675   4.991   1.959
    6CHTO  H104 2356   6.755   4.963   1.920
    6CHTO   O34 2357   6.852   5.152   1.482
    6CHTO   C49 2358   7.002   5.177   1.470
    6CHTO   H91 2359   7.033   5.136   1.375
    6CHTO   C47 2360   7.077   5.104   1.584
    6CHTO   H89 2361   7.186   5.113   1.562
    6CHTO   O33 2362   7.041   4.966   1.581
    6CHTO   H70 2363   7.078   4.924   1.505
    6CHTO   C45 2364   7.043   5.176   1.723
    6CHTO   H87 2365   6.934   5.186   1.732
    6CHTO    N8 2366   7.092   5.101   1.842
    6CHTO   H75 2367   7.159   5.161   1.901
    6CHTO   H76 2368   7.009   5.068   1.902
    6CHTO   C43 2369   7.098   5.326   1.714
    6CHTO   H85 2370   7.073   5.373   1.808
    6CHTO   O29 2371   7.037   5.394   1.602
    6CHTO   C50 2372   7.036   5.329   1.473
    6CHTO   H92 2373   6.957   5.378   1.414
    6CHTO   C54 2374   7.164   5.361   1.393
    6CHTO   O36 2375   7.170   5.500   1.358
    6CHTO   H72 2376   7.185   5.552   1.435
    6CHTO   O27 2377   7.242   5.332   1.705
    6CHTO   C37 2378   7.336   5.424   1.765
    6CHTO   H79 2379   7.433   5.415   1.714
    6CHTO   C38 2380   7.289   5.572   1.748
    6CHTO   H80 2381   7.184   5.579   1.780
    6CHTO   O31 2382   7.296   5.602   1.607
    6CHTO   H68 2383   7.259   5.687   1.591
    6CHTO   C39 2384   7.376   5.673   1.832
    6CHTO   H81 2385   7.475   5.675   1.788
    6CHTO    N7 2386   7.322   5.813   1.829
    6CHTO   H73 2387   7.221   5.815   1.869
    6CHTO   H74 2388   7.386   5.879   1.886
    6CHTO   C40 2389   7.392   5.621   1.980
    6CHTO   H82 2390   7.297   5.627   2.033
    6CHTO   O26 2391   7.444   5.487   1.979
    6CHTO   C41 2392   7.355   5.390   1.916
    6CHTO   H83 2393   7.258   5.392   1.966
    6CHTO   C52 2394   7.417   5.250   1.938
    6CHTO   O35 2395   7.553   5.235   1.881
    6CHTO   H71 2396   7.585   5.149   1.899
    6CHTO   O28 2397   7.493   5.694   2.053
    6CHTO   C42 2398   7.489   5.706   2.199
    6CHTO   H84 2399   7.585   5.751   2.223
    6CHTO   C44 2400   7.483   5.571   2.279
    6CHTO   H86 2401   7.393   5.518   2.250
    6CHTO   O32 2402   7.597   5.493   2.240
    6CHTO   H69 2403   7.589   5.464   2.151
    6CHTO   C48 2404   7.479   5.595   2.436
    6CHTO   H90 2405   7.575   5.637   2.466
    6CHTO    N9 2406   7.463   5.467   2.514
    6CHTO   H77 2407   7.455   5.381   2.448
    6CHTO   H78 2408   7.546   5.454   2.582
    6CHTO   C51 2409   7.366   5.699   2.470
    6CHTO   H93 2410   7.270   5.653   2.445
    6CHTO   O30 2411   7.388   5.820   2.397
    6CHTO   C46 2412   7.379   5.804   2.248
    6CHTO   H88 2413   7.280   5.763   2.223
    6CHTO   C53 2414   7.396   5.943   2.184
    6CHTO   O72 2415   7.285   6.028   2.214
    6CHTO  H199 2416   7.296   6.111   2.171
    6CHTO   O22 2417   7.369   5.739   2.608
    6CHTO   C31 2418   7.244   5.783   2.672
    6CHTO   H59 2419   7.177   5.815   2.589
    6CHTO   C29 2420   7.171   5.671   2.749
    6CHTO   H57 2421   7.241   5.634   2.826
    6CHTO   O21 2422   7.146   5.561   2.659
    6CHTO   H37 2423   7.085   5.585   2.593
    6CHTO   C27 2424   7.038   5.720   2.818
    6CHTO   H55 2425   6.961   5.733   2.741
    6CHTO    N5 2426   6.988   5.622   0.042
    6CHTO   H43 2427   7.062   5.607   0.120
    6CHTO   H44 2428   6.965   5.528   2.869
    6CHTO   C25 2429   7.056   5.862   0.008
    6CHTO   H53 2430   7.111   5.853   0.104
    6CHTO   O17 2431   7.130   5.955   2.800
    6CHTO   C32 2432   7.261   5.907   2.764
    6CHTO   H60 2433   7.316   5.878   2.853
    6CHTO   C36 2434   7.338   6.021   2.693
    6CHTO   O25 2435   7.357   6.133   2.781
    6CHTO   H40 2436   7.274   6.175   2.797
    6CHTO   O15 2437   6.922   5.923   0.035
    6CHTO   C19 2438   6.832   6.012   0.106
    6CHTO   H47 2439   6.831   5.973   0.209
    6CHTO   C20 2440   6.875   6.162   0.107
    6CHTO   H48 2441   6.880   6.204   0.005
    6CHTO   O19 2442   7.008   6.167   0.163
    6CHTO   H35 2443   7.070   6.131   0.103
    6CHTO   C21 2444   6.774   6.250   0.191
    6CHTO   H49 2445   6.780   6.220   0.296
    6CHTO    N4 2446   6.805   6.395   0.187
    6CHTO   H41 2447   6.734   6.451   0.246
    6CHTO   H42 2448   6.801   6.431   0.085
    6CHTO   C22 2449   6.629   6.220   0.144
    6CHTO   H50 2450   6.617   6.260   0.043
    6CHTO   O14 2451   6.602   6.079   0.144
    6CHTO   C23 2452   6.685   6.002   0.055
    6CHTO   H51 2453   6.674   6.044   2.830
    6CHTO   C34 2454   6.630   5.859   0.053
    6CHTO   O23 2455   6.682   5.784   2.819
    6CHTO   H38 2456   6.644   5.816   2.739
    6CHTO   O16 2457   6.528   6.274   0.232
    6CHTO   C24 2458   6.392   6.314   0.151
    6CHTO   H52 2459   6.397   6.286   0.046
    6CHTO   C26 2460   6.368   6.465   0.163
    6CHTO   H54 2461   6.362   6.492   0.272
    6CHTO   O20 2462   6.481   6.535   0.107
    6CHTO   H36 2463   6.558   6.521   0.160
    6CHTO   C30 2464   6.236   6.508   0.092
    6CHTO   H58 2465   6.254   6.509   2.860
    6CHTO    N6 2466   6.197   6.648   0.127
    6CHTO   H45 2467   6.267   6.694   0.195
    6CHTO   H46 2468   6.189   6.709   0.037
    6CHTO   C33 2469   6.117   6.410   0.115
    6CHTO   H61 2470   6.063   6.437   0.208
    6CHTO   O18 2471   6.157   6.272   0.125
    6CHTO   C28 2472   6.268   6.241   0.210
    6CHTO   H56 2473   6.250   6.277   0.311
    6CHTO   C35 2474   6.284   6.087   0.215
    6CHTO   O24 2475   6.304   6.029   0.085
    6CHTO   H39 2476   6.309   5.935   0.094
    6CHTO    O9 2477   6.021   6.429   0.009
    6CHTO   C13 2478   5.868   6.446   0.048
    6CHTO   H26 2479   5.858   6.541   0.104
    6CHTO   C11 2480   5.813   6.321   0.131
    6CHTO   H24 2481   5.871   6.314   0.224
    6CHTO    O8 2482   5.838   6.201   0.055
    6CHTO    H3 2483   5.791   6.203   2.850
    6CHTO    C9 2484   5.663   6.348   0.168
    6CHTO   H22 2485   5.667   6.428   0.244
    6CHTO    N2 2486   5.601   6.234   0.239
    6CHTO   H10 2487   5.578   6.260   0.341
    6CHTO   H11 2488   5.511   6.201   0.187
    6CHTO    C7 2489   5.584   6.408   0.043
    6CHTO   H20 2490   5.579   6.517   0.065
    6CHTO    O4 2491   5.657   6.386   2.797
    6CHTO   C14 2492   5.778   6.464   2.792
    6CHTO   H27 2493   5.750   6.571   2.785
    6CHTO   C18 2494   5.849   6.427   2.660
    6CHTO   O13 2495   5.775   6.474   2.546
    6CHTO    H7 2496   5.825   6.458   2.468
    6CHTO    O2 2497   5.432   6.357   0.023
    6CHTO    C1 2498   5.357   6.400   2.783
    6CHTO   H14 2499   5.386   6.336   2.697
    6CHTO    C2 2500   5.371   6.554   2.739
    6CHTO   H15 2501   5.365   6.612   2.833
    6CHTO    O6 2502   5.499   6.576   2.678
    6CHTO    H1 2503   5.568   6.559   2.739
    6CHTO    C3 2504   5.257   6.601   2.636
    6CHTO   H16 2505   5.281   6.560   2.537
    6CHTO    N1 2506   5.253   6.750   2.622
    6CHTO    H8 2507   5.232   6.796   2.717
    6CHTO    H9 2508   5.178   6.779   2.549
    6CHTO    C4 2509   5.117   6.541   2.675
    6CHTO   H17 2510   5.080   6.593   2.764
    6CHTO    O1 2511   5.127   6.400   2.699
    6CHTO    C5 2512   5.208   6.368   2.813
    6CHTO   H18 2513   5.177   6.430   0.022
    6CHTO   C16 2514   5.185   6.220   2.849
    6CHTO   O11 2515   5.049   6.196   0.010
    6CHTO    H5 2516   5.038   6.105   0.031
    6CHTO    O3 2517   5.021   6.553   2.566
    6CHTO    C6 2518   4.878   6.568   2.599
    6CHTO   H19 2519   4.817   6.548   2.511
    6CHTO    C8 2520   4.828   6.467   2.709
    6CHTO   H21 2521   4.894   6.473   2.795
    6CHTO    O7 2522   4.835   6.335   2.651
    6CHTO    H2 2523   4.776   6.327   2.579
    6CHTO   C12 2524   4.682   6.502   2.759
    6CHTO   H25 2525   4.614   6.484   2.673
    6CHTO    N3 2526   4.637   6.410   2.870
    6CHTO   H12 2527   4.615   6.466   0.084
    6CHTO   H13 2528   4.711   6.334   0.014
    6CHTO   C15 2529   4.676   6.654   2.796
    6CHTO   H28 2530   4.742   6.677   0.004
    6CHTO   O10 2531   4.533   6.705   2.830
    6CHTO    H4 2532   4.475   6.687   2.758
    6CHTO    O5 2533   4.713   6.734   2.682
    6CHTO   C10 2534   4.849   6.716   2.641
    6CHTO   H23 2535   4.914   6.744   2.724
    6CHTO   C17 2536   4.878   6.814   2.527
    6CHTO   O12 2537   4.794   6.793   2.412
    6CHTO    H6 2538   4.706   6.816   2.433
    7CHTO  H203 2539   4.545   2.032   0.589
    7CHTO   O82 2540   4.616   2.093   0.581
    7CHTO  C123 2541   4.646   2.115   0.442
    7CHTO  H227 2542   4.556   2.156   0.392
    7CHTO   O77 2543   4.750   2.217   0.447
    7CHTO  C118 2544   4.804   2.256   0.319
    7CHTO  H222 2545   4.722   2.291   0.254
    7CHTO  C125 2546   4.905   2.374   0.340
    7CHTO   O84 2547   4.837   2.496   0.370
    7CHTO  H205 2548   4.898   2.567   0.369
    7CHTO  C114 2549   4.870   2.133   0.253
    7CHTO  H218 2550   4.944   2.092   0.323
    7CHTO  C116 2551   4.762   2.023   0.230
    7CHTO  H220 2552   4.684   2.062   0.160
    7CHTO   O79 2553   4.824   1.912   0.164
    7CHTO  H201 2554   4.760   1.846   0.144
    7CHTO  C120 2555   4.697   1.984   0.369
    7CHTO  H224 2556   4.778   1.937   0.429
    7CHTO   N21 2557   4.590   1.883   0.353
    7CHTO  H211 2558   4.494   1.931   0.336
    7CHTO  H212 2559   4.585   1.820   0.441
    7CHTO   O75 2560   4.933   2.182   0.133
    7CHTO  C112 2561   5.094   2.134   0.106
    7CHTO  H216 2562   5.094   2.038   0.051
    7CHTO   O73 2563   5.161   2.123   0.233
    7CHTO  C113 2564   5.297   2.080   0.223
    7CHTO  H217 2565   5.302   1.986   0.164
    7CHTO  C124 2566   5.351   2.048   0.364
    7CHTO   O83 2567   5.275   1.949   0.434
    7CHTO  H204 2568   5.190   1.983   0.455
    7CHTO  C109 2569   5.380   2.191   0.155
    7CHTO  H213 2570   5.372   2.280   0.219
    7CHTO  C110 2571   5.320   2.222   0.014
    7CHTO  H214 2572   5.344   2.138   2.824
    7CHTO   O78 2573   5.386   2.338   2.836
    7CHTO  H200 2574   5.478   2.323   2.827
    7CHTO  C111 2575   5.166   2.245   0.019
    7CHTO  H215 2576   5.147   2.342   0.068
    7CHTO   N19 2577   5.103   2.252   2.760
    7CHTO  H207 2578   5.177   2.238   2.682
    7CHTO  H208 2579   5.055   2.348   2.747
    7CHTO   O74 2580   5.520   2.152   0.143
    7CHTO  C115 2581   5.619   2.271   0.172
    7CHTO  H219 2582   5.569   2.368   0.164
    7CHTO   O76 2583   5.674   2.265   0.321
    7CHTO  C122 2584   5.779   2.357   0.354
    7CHTO  H226 2585   5.821   2.321   0.448
    7CHTO  C126 2586   5.721   2.500   0.386
    7CHTO   O85 2587   5.670   2.570   0.272
    7CHTO  H206 2588   5.638   2.654   0.298
    7CHTO  C121 2589   5.895   2.364   0.246
    7CHTO  H225 2590   5.894   2.465   0.198
    7CHTO   O81 2591   6.023   2.352   0.310
    7CHTO  H202 2592   6.092   2.368   0.249
    7CHTO  C119 2593   5.875   2.256   0.136
    7CHTO  H223 2594   5.953   2.275   0.061
    7CHTO  C117 2595   5.735   2.263   0.063
    7CHTO  H221 2596   5.712   2.175   0.003
    7CHTO   N20 2597   5.729   2.378   2.842
    7CHTO  H209 2598   5.808   2.369   2.769
    7CHTO  H210 2599   5.633   2.378   2.792
    7CHTO   O80 2600   5.910   2.116   0.179
    7CHTO  C103 2601   5.964   2.017   0.073
    7CHTO  H190 2602   5.914   2.033   2.854
    7CHTO  C101 2603   6.120   2.021   0.048
    7CHTO  H188 2604   6.170   2.003   0.143
    7CHTO   O68 2605   6.162   2.162   2.871
    7CHTO  H168 2606   6.119   2.180   2.790
    7CHTO   C99 2607   6.161   1.904   2.823
    7CHTO  H186 2608   6.106   1.918   2.727
    7CHTO   N17 2609   6.307   1.897   2.790
    7CHTO  H174 2610   6.324   1.824   2.711
    7CHTO  H175 2611   6.343   1.995   2.761
    7CHTO   C97 2612   6.109   1.769   0.005
    7CHTO  H184 2613   6.162   1.748   0.099
    7CHTO   O64 2614   5.966   1.777   0.024
    7CHTO  C104 2615   5.924   1.873   0.122
    7CHTO  H191 2616   5.969   1.854   0.220
    7CHTO  C108 2617   5.772   1.859   0.142
    7CHTO   O71 2618   5.738   1.729   0.191
    7CHTO  H171 2619   5.645   1.720   0.196
    7CHTO   O62 2620   6.121   1.659   2.789
    7CHTO   C91 2621   6.144   1.528   2.844
    7CHTO  H178 2622   6.250   1.522   2.869
    7CHTO   C92 2623   6.120   1.427   2.726
    7CHTO  H179 2624   6.179   1.457   2.638
    7CHTO   O66 2625   6.172   1.298   2.764
    7CHTO  H166 2626   6.266   1.302   2.771
    7CHTO   C93 2627   5.966   1.409   2.691
    7CHTO  H180 2628   5.953   1.308   2.649
    7CHTO   N16 2629   5.919   1.502   2.585
    7CHTO  H172 2630   5.975   1.486   2.494
    7CHTO  H173 2631   5.814   1.487   2.567
    7CHTO   C94 2632   5.878   1.422   2.821
    7CHTO  H181 2633   5.845   1.525   2.838
    7CHTO   O61 2634   5.957   1.385   0.060
    7CHTO   C95 2635   6.054   1.484   0.095
    7CHTO  H182 2636   6.002   1.570   0.136
    7CHTO  C106 2637   6.138   1.426   0.213
    7CHTO   O69 2638   6.221   1.527   0.271
    7CHTO  H169 2639   6.269   1.490   0.343
    7CHTO   O63 2640   5.757   1.329   2.816
    7CHTO   C96 2641   5.644   1.370   0.046
    7CHTO  H183 2642   5.622   1.476   0.030
    7CHTO   C98 2643   5.683   1.354   0.197
    7CHTO  H185 2644   5.779   1.404   0.219
    7CHTO   O67 2645   5.586   1.420   0.279
    7CHTO  H167 2646   5.590   1.513   0.265
    7CHTO  C102 2647   5.688   1.200   0.240
    7CHTO  H189 2648   5.689   1.201   0.350
    7CHTO   N18 2649   5.810   1.126   0.201
    7CHTO  H176 2650   5.787   1.044   0.134
    7CHTO  H177 2651   5.882   1.192   0.155
    7CHTO  C105 2652   5.555   1.129   0.195
    7CHTO  H192 2653   5.578   1.046   0.127
    7CHTO   O65 2654   5.461   1.215   0.126
    7CHTO  C100 2655   5.515   1.285   0.012
    7CHTO  H187 2656   5.541   1.209   2.813
    7CHTO  C107 2657   5.406   1.376   2.827
    7CHTO   O70 2658   5.296   1.302   2.774
    7CHTO  H170 2659   5.247   1.262   2.844
    7CHTO   O57 2660   5.491   1.072   0.332
    7CHTO   C85 2661   5.549   0.952   0.388
    7CHTO  H157 2662   5.653   0.947   0.352
    7CHTO   C83 2663   5.479   0.827   0.328
    7CHTO  H155 2664   5.489   0.831   0.219
    7CHTO   O56 2665   5.338   0.829   0.356
    7CHTO  H135 2666   5.298   0.904   0.315
    7CHTO   C81 2667   5.553   0.701   0.381
    7CHTO  H153 2668   5.658   0.709   0.352
    7CHTO   N14 2669   5.509   0.576   0.314
    7CHTO  H141 2670   5.407   0.554   0.340
    7CHTO  H142 2671   5.571   0.494   0.344
    7CHTO   C79 2672   5.546   0.695   0.538
    7CHTO  H151 2673   5.615   0.616   0.570
    7CHTO   O52 2674   5.599   0.818   0.598
    7CHTO   C86 2675   5.541   0.942   0.545
    7CHTO  H158 2676   5.436   0.942   0.581
    7CHTO   C90 2677   5.609   1.065   0.611
    7CHTO   O60 2678   5.584   1.068   0.752
    7CHTO  H138 2679   5.627   1.143   0.789
    7CHTO   O50 2680   5.415   0.667   0.593
    7CHTO   C73 2681   5.397   0.560   0.687
    7CHTO  H145 2682   5.495   0.518   0.715
    7CHTO   C74 2683   5.313   0.445   0.621
    7CHTO  H146 2684   5.361   0.421   0.525
    7CHTO   O54 2685   5.327   0.328   0.704
    7CHTO  H133 2686   5.415   0.294   0.699
    7CHTO   C75 2687   5.163   0.491   0.603
    7CHTO  H147 2688   5.161   0.581   0.540
    7CHTO   N13 2689   5.079   0.389   0.535
    7CHTO  H139 2690   5.032   0.432   0.447
    7CHTO  H140 2691   5.001   0.352   0.601
    7CHTO   C76 2692   5.108   0.533   0.747
    7CHTO  H148 2693   5.120   0.446   0.813
    7CHTO   O49 2694   5.188   0.644   0.797
    7CHTO   C77 2695   5.326   0.610   0.817
    7CHTO  H149 2696   5.330   0.530   0.891
    7CHTO   C88 2697   5.397   0.728   0.885
    7CHTO   O58 2698   5.370   0.858   0.817
    7CHTO  H136 2699   5.403   0.856   0.729
    7CHTO   O51 2700   4.957   0.585   0.747
    7CHTO   C78 2701   4.902   0.577   0.897
    7CHTO  H150 2702   4.986   0.571   0.970
    7CHTO   C80 2703   4.811   0.454   0.916
    7CHTO  H152 2704   4.721   0.465   0.850
    7CHTO   O55 2705   4.884   0.337   0.874
    7CHTO  H134 2706   4.894   0.337   0.781
    7CHTO   C84 2707   4.766   0.442   1.067
    7CHTO  H156 2708   4.855   0.421   1.126
    7CHTO   N15 2709   4.672   0.327   1.091
    7CHTO  H143 2710   4.584   0.338   1.031
    7CHTO  H144 2711   4.720   0.234   1.066
    7CHTO   C87 2712   4.705   0.574   1.119
    7CHTO  H159 2713   4.602   0.586   1.084
    7CHTO   O53 2714   4.791   0.702   1.071
    7CHTO   C82 2715   4.822   0.704   0.931
    7CHTO  H154 2716   4.731   0.708   0.873
    7CHTO   C89 2717   4.902   0.834   0.900
    7CHTO   O59 2718   5.024   0.843   0.974
    7CHTO  H137 2719   5.005   0.859   1.065
    7CHTO   O45 2720   4.701   0.568   1.290
    7CHTO   C67 2721   4.782   0.664   1.359
    7CHTO  H124 2722   4.864   0.696   1.295
    7CHTO   C65 2723   4.697   0.791   1.398
    7CHTO  H122 2724   4.594   0.757   1.405
    7CHTO   O44 2725   4.708   0.883   1.288
    7CHTO  H102 2726   4.672   0.846   1.209
    7CHTO   C63 2727   4.732   0.847   1.542
    7CHTO  H120 2728   4.687   0.781   1.616
    7CHTO   N11 2729   4.670   0.978   1.578
    7CHTO  H108 2730   4.565   0.976   1.559
    7CHTO  H109 2731   4.715   1.057   1.521
    7CHTO   C61 2732   4.887   0.838   1.564
    7CHTO  H118 2733   4.907   0.872   1.667
    7CHTO   O40 2734   4.938   0.702   1.553
    7CHTO   C68 2735   4.852   0.603   1.487
    7CHTO  H125 2736   4.775   0.568   1.559
    7CHTO   C72 2737   4.939   0.480   1.450
    7CHTO   O48 2738   4.990   0.413   1.565
    7CHTO  H105 2739   5.044   0.341   1.538
    7CHTO   O38 2740   4.957   0.921   1.468
    7CHTO   C55 2741   5.077   0.986   1.514
    7CHTO  H112 2742   5.123   0.927   1.595
    7CHTO   C56 2743   5.043   1.134   1.560
    7CHTO  H113 2744   4.980   1.178   1.481
    7CHTO   O42 2745   4.961   1.129   1.679
    7CHTO  H100 2746   4.935   1.216   1.704
    7CHTO   C57 2747   5.172   1.222   1.585
    7CHTO  H114 2748   5.213   1.191   1.681
    7CHTO   N10 2749   5.141   1.366   1.599
    7CHTO  H106 2750   5.141   1.414   1.502
    7CHTO  H107 2751   5.214   1.414   1.662
    7CHTO   C58 2752   5.279   1.197   1.475
    7CHTO  H115 2753   5.246   1.245   1.380
    7CHTO   O37 2754   5.298   1.056   1.453
    7CHTO   C59 2755   5.183   0.990   1.400
    7CHTO  H116 2756   5.145   1.044   1.313
    7CHTO   C70 2757   5.227   0.850   1.355
    7CHTO   O46 2758   5.126   0.780   1.283
    7CHTO  H103 2759   5.156   0.693   1.263
    7CHTO   O39 2760   5.425   1.260   1.523
    7CHTO   C60 2761   5.541   1.213   1.452
    7CHTO  H117 2762   5.555   1.107   1.476
    7CHTO   C62 2763   5.529   1.226   1.298
    7CHTO  H119 2764   5.445   1.161   1.267
    7CHTO   O43 2765   5.496   1.362   1.263
    7CHTO  H101 2766   5.486   1.370   1.170
    7CHTO   C66 2767   5.664   1.173   1.229
    7CHTO  H123 2768   5.684   1.073   1.266
    7CHTO   N12 2769   5.651   1.162   1.082
    7CHTO  H110 2770   5.742   1.120   1.040
    7CHTO  H111 2771   5.631   1.259   1.039
    7CHTO   C69 2772   5.780   1.266   1.276
    7CHTO  H126 2773   5.756   1.372   1.251
    7CHTO   O41 2774   5.794   1.249   1.430
    7CHTO   C64 2775   5.667   1.288   1.506
    7CHTO  H121 2776   5.650   1.397   1.494
    7CHTO   C71 2777   5.688   1.257   1.656
    7CHTO   O47 2778   5.791   1.340   1.710
    7CHTO  H104 2779   5.799   1.324   1.802
    7CHTO   O34 2780   5.914   1.232   1.209
    7CHTO   C49 2781   6.032   1.152   1.242
    7CHTO   H91 2782   6.087   1.209   1.317
    7CHTO   C47 2783   6.117   1.137   1.115
    7CHTO   H89 2784   6.212   1.088   1.146
    7CHTO   O33 2785   6.148   1.268   1.064
    7CHTO   H70 2786   6.204   1.262   0.989
    7CHTO   C45 2787   6.038   1.043   1.011
    7CHTO   H87 2788   5.937   1.085   0.995
    7CHTO    N8 2789   6.105   1.034   0.878
    7CHTO   H75 2790   6.114   1.133   0.835
    7CHTO   H76 2791   6.202   0.989   0.889
    7CHTO   C43 2792   6.015   0.899   1.079
    7CHTO   H85 2793   5.956   0.841   1.008
    7CHTO   O29 2794   5.947   0.914   1.205
    7CHTO   C50 2795   5.994   1.012   1.300
    7CHTO   H92 2796   5.912   1.027   1.372
    7CHTO   C54 2797   6.107   0.953   1.389
    7CHTO   O36 2798   6.139   1.040   1.498
    7CHTO   H72 2799   6.204   1.000   1.552
    7CHTO   O27 2800   6.138   0.827   1.096
    7CHTO   C37 2801   6.204   0.711   1.149
    7CHTO   H79 2802   6.212   0.718   1.259
    7CHTO   C38 2803   6.125   0.580   1.117
    7CHTO   H80 2804   6.105   0.578   1.009
    7CHTO   O31 2805   6.000   0.588   1.187
    7CHTO   H68 2806   5.944   0.518   1.161
    7CHTO   C39 2807   6.207   0.451   1.159
    7CHTO   H81 2808   6.210   0.449   1.268
    7CHTO    N7 2809   6.141   0.324   1.115
    7CHTO   H73 2810   6.198   0.239   1.149
    7CHTO   H74 2811   6.133   0.322   1.007
    7CHTO   C40 2812   6.356   0.459   1.108
    7CHTO   H82 2813   6.359   0.445   1.000
    7CHTO   O26 2814   6.414   0.585   1.148
    7CHTO   C41 2815   6.347   0.700   1.090
    7CHTO   H83 2816   6.340   0.688   0.981
    7CHTO   C52 2817   6.436   0.823   1.120
    7CHTO   O35 2818   6.401   0.940   1.041
    7CHTO   H71 2819   6.456   1.013   1.065
    7CHTO   O28 2820   6.440   0.360   1.171
    7CHTO   C42 2821   6.572   0.324   1.118
    7CHTO   H84 2822   6.607   0.248   1.189
    7CHTO   C44 2823   6.680   0.437   1.120
    7CHTO   H86 2824   6.641   0.524   1.066
    7CHTO   O32 2825   6.699   0.474   1.258
    7CHTO   H69 2826   6.757   0.548   1.264
    7CHTO   C48 2827   6.816   0.394   1.049
    7CHTO   H90 2828   6.862   0.314   1.107
    7CHTO    N9 2829   6.917   0.506   1.046
    7CHTO   H77 2830   6.946   0.531   1.147
    7CHTO   H78 2831   6.875   0.592   0.997
    7CHTO   C51 2832   6.779   0.341   0.907
    7CHTO   H93 2833   6.723   0.419   0.856
    7CHTO   O30 2834   6.700   0.223   0.926
    7CHTO   C46 2835   6.562   0.254   0.979
    7CHTO   H88 2836   6.512   0.320   0.908
    7CHTO   C53 2837   6.484   0.121   0.990
    7CHTO   O72 2838   6.470   0.059   0.862
    7CHTO  H199 2839   6.434   9.973   0.873
    7CHTO   O22 2840   6.890   0.298   0.825
    7CHTO   C31 2841   6.879   0.309   0.677
    7CHTO   H59 2842   6.963   0.248   0.636
    7CHTO   C29 2843   6.749   0.250   0.618
    7CHTO   H57 2844   6.665   0.296   0.671
    7CHTO   O21 2845   6.745   0.109   0.651
    7CHTO   H37 2846   6.811   0.062   0.604
    7CHTO   C27 2847   6.731   0.276   0.463
    7CHTO   H55 2848   6.808   0.219   0.409
    7CHTO    N5 2849   6.597   0.233   0.414
    7CHTO   H43 2850   6.543   0.315   0.370
    7CHTO   H44 2851   6.608   0.153   0.343
    7CHTO   C25 2852   6.760   0.428   0.433
    7CHTO   H53 2853   6.684   0.489   0.485
    7CHTO   O17 2854   6.891   0.464   0.483
    7CHTO   C32 2855   6.904   0.455   0.626
    7CHTO   H60 2856   6.832   0.521   0.674
    7CHTO   C36 2857   7.047   0.501   0.665
    7CHTO   O25 2858   7.069   0.638   0.630
    7CHTO   H40 2859   7.158   0.660   0.647
    7CHTO   O15 2860   6.754   0.459   0.278
    7CHTO   C19 2861   6.698   0.561   0.191
    7CHTO   H47 2862   6.699   0.514   0.092
    7CHTO   C20 2863   6.551   0.603   0.225
    7CHTO   H48 2864   6.543   0.646   0.326
    7CHTO   O19 2865   6.472   0.482   0.221
    7CHTO   H35 2866   6.385   0.500   0.251
    7CHTO   C21 2867   6.497   0.710   0.121
    7CHTO   H49 2868   6.494   0.663   0.022
    7CHTO    N4 2869   6.359   0.756   0.152
    7CHTO   H41 2870   6.325   0.823   0.074
    7CHTO   H42 2871   6.292   0.672   0.157
    7CHTO   C22 2872   6.599   0.827   0.112
    7CHTO   H50 2873   6.600   0.880   0.207
    7CHTO   O14 2874   6.731   0.779   0.082
    7CHTO   C23 2875   6.787   0.689   0.180
    7CHTO   H51 2876   6.793   0.744   0.275
    7CHTO   C34 2877   6.931   0.656   0.138
    7CHTO   O23 2878   6.938   0.595   0.008
    7CHTO   H38 2879   6.914   0.658   2.818
    7CHTO   O16 2880   6.568   0.917   0.003
    7CHTO   C24 2881   6.637   1.061   0.016
    7CHTO   H52 2882   6.724   1.059   0.081
    7CHTO   C26 2883   6.535   1.162   0.070
    7CHTO   H54 2884   6.444   1.159   0.005
    7CHTO   O20 2885   6.497   1.121   0.203
    7CHTO   H36 2886   6.424   1.171   0.232
    7CHTO   C30 2887   6.593   1.307   0.065
    7CHTO   H58 2888   6.681   1.313   0.131
    7CHTO    N6 2889   6.497   1.409   0.115
    7CHTO   H45 2890   6.406   1.364   0.150
    7CHTO   H46 2891   6.474   1.483   0.040
    7CHTO   C33 2892   6.643   1.337   2.796
    7CHTO   H61 2893   6.558   1.329   2.727
    7CHTO   O18 2894   6.741   1.238   2.758
    7CHTO   C28 2895   6.688   1.104   2.751
    7CHTO   H56 2896   6.604   1.101   2.681
    7CHTO   C35 2897   6.797   1.008   2.698
    7CHTO   O24 2898   6.915   1.004   2.780
    7CHTO   H39 2899   6.958   1.087   2.777
    7CHTO    O9 2900   6.694   1.471   2.778
    7CHTO   C13 2901   6.855   1.505   2.799
    7CHTO   H26 2902   6.912   1.439   2.731
    7CHTO   C11 2903   6.898   1.486   0.074
    7CHTO   H24 2904   6.900   1.378   0.095
    7CHTO    O8 2905   6.799   1.544   0.161
    7CHTO    H3 2906   6.820   1.526   0.251
    7CHTO    C9 2907   7.041   1.544   0.094
    7CHTO   H22 2908   7.104   1.492   0.020
    7CHTO    N2 2909   7.102   1.512   0.225
    7CHTO   H10 2910   7.204   1.549   0.228
    7CHTO   H11 2911   7.101   1.405   0.241
    7CHTO    C7 2912   7.039   1.697   0.060
    7CHTO   H20 2913   7.144   1.731   0.073
    7CHTO    O4 2914   7.003   1.715   2.797
    7CHTO   C14 2915   6.882   1.654   2.746
    7CHTO   H27 2916   6.897   1.646   2.636
    7CHTO   C18 2917   6.761   1.749   2.768
    7CHTO   O13 2918   6.776   1.871   2.695
    7CHTO    H7 2919   6.846   1.922   2.732
    7CHTO    O2 2920   6.932   1.786   0.155
    7CHTO    C1 2921   6.977   1.883   0.252
    7CHTO   H14 2922   6.903   1.966   0.251
    7CHTO    C2 2923   7.121   1.945   0.231
    7CHTO   H15 2924   7.193   1.862   0.233
    7CHTO    O6 2925   7.123   2.010   0.102
    7CHTO    H1 2926   7.210   2.041   0.083
    7CHTO    C3 2927   7.154   2.049   0.349
    7CHTO   H16 2928   7.086   2.135   0.339
    7CHTO    N1 2929   7.294   2.103   0.341
    7CHTO    H8 2930   7.343   2.070   0.251
    7CHTO    H9 2931   7.353   2.072   0.427
    7CHTO    C4 2932   7.121   1.986   0.490
    7CHTO   H17 2933   7.200   1.914   0.516
    7CHTO    O1 2934   6.993   1.923   0.493
    7CHTO    C5 2935   6.970   1.821   0.394
    7CHTO   H18 2936   7.047   1.745   0.403
    7CHTO   C16 2937   6.832   1.757   0.424
    7CHTO   O11 2938   6.834   1.685   0.548
    7CHTO    H5 2939   6.751   1.644   0.562
    7CHTO    O3 2940   7.111   2.089   0.591
    7CHTO    C6 2941   7.149   2.051   0.727
    7CHTO   H19 2942   7.166   1.943   0.737
    7CHTO    C8 2943   7.280   2.126   0.766
    7CHTO   H21 2944   7.264   2.233   0.750
    7CHTO    O7 2945   7.385   2.080   0.679
    7CHTO    H2 2946   7.403   1.989   0.694
    7CHTO   C12 2947   7.315   2.104   0.919
    7CHTO   H25 2948   7.342   1.997   0.930
    7CHTO    N3 2949   7.437   2.183   0.959
    7CHTO   H12 2950   7.459   2.166   1.063
    7CHTO   H13 2951   7.420   2.289   0.942
    7CHTO   C15 2952   7.189   2.134   1.007
    7CHTO   H28 2953   7.165   2.240   1.010
    7CHTO   O10 2954   7.206   2.081   1.152
    7CHTO    H4 2955   7.138   2.115   1.207
    7CHTO    O5 2956   7.075   2.059   0.962
    7CHTO   C10 2957   7.036   2.088   0.827
    7CHTO   H23 2958   7.014   2.194   0.820
    7CHTO   C17 2959   6.905   2.013   0.797
    7CHTO   O12 2960   6.798   2.060   0.880
    7CHTO    H6 2961   6.813   2.036   0.969
    8CHTO  H203 2962   6.982   8.180   2.299
    8CHTO   O82 2963   6.916   8.201   2.363
    8CHTO  C123 2964   6.814   8.284   2.305
    8CHTO  H227 2965   6.863   8.366   2.250
    8CHTO   O77 2966   6.744   8.196   2.213
    8CHTO  C118 2967   6.653   8.267   2.126
    8CHTO  H222 2968   6.709   8.343   2.070
    8CHTO  C125 2969   6.590   8.164   2.025
    8CHTO   O84 2970   6.690   8.107   1.939
    8CHTO  H205 2971   6.738   8.041   1.986
    8CHTO  C114 2972   6.541   8.336   2.208
    8CHTO  H218 2973   6.474   8.259   2.245
    8CHTO  C116 2974   6.595   8.415   2.332
    8CHTO  H220 2975   6.633   8.515   2.297
    8CHTO   O79 2976   6.485   8.443   2.420
    8CHTO  H201 2977   6.512   8.499   2.489
    8CHTO  C120 2978   6.710   8.339   2.409
    8CHTO  H224 2979   6.662   8.254   2.462
    8CHTO   N21 2980   6.774   8.425   2.513
    8CHTO  H211 2981   6.722   8.416   2.606
    8CHTO  H212 2982   6.777   8.528   2.480
    8CHTO   O75 2983   6.474   8.415   2.107
    8CHTO  C112 2984   6.356   8.516   2.156
    8CHTO  H216 2985   6.395   8.583   2.234
    8CHTO   O73 2986   6.247   8.436   2.204
    8CHTO  C113 2987   6.138   8.512   2.257
    8CHTO  H217 2988   6.176   8.580   2.337
    8CHTO  C124 2989   6.042   8.412   2.323
    8CHTO   O83 2990   5.938   8.475   2.398
    8CHTO  H204 2991   5.879   8.519   2.340
    8CHTO  C109 2992   6.072   8.596   2.143
    8CHTO  H213 2993   6.030   8.524   2.071
    8CHTO  C110 2994   6.181   8.685   2.075
    8CHTO  H214 2995   6.209   8.763   2.146
    8CHTO   O78 2996   6.121   8.751   1.962
    8CHTO  H200 2997   6.094   8.689   1.897
    8CHTO  C111 2998   6.307   8.604   2.034
    8CHTO  H215 2999   6.280   8.535   1.953
    8CHTO   N19 3000   6.419   8.688   1.983
    8CHTO  H207 3001   6.387   8.740   1.894
    8CHTO  H208 3002   6.448   8.760   2.059
    8CHTO   O74 3003   5.966   8.682   2.194
    8CHTO  C115 3004   5.818   8.639   2.152
    8CHTO  H219 3005   5.813   8.533   2.123
    8CHTO   O76 3006   5.716   8.654   2.272
    8CHTO  C122 3007   5.706   8.790   2.318
    8CHTO  H226 3008   5.803   8.822   2.355
    8CHTO  C126 3009   5.608   8.795   2.441
    8CHTO   O85 3010   5.648   8.710   2.549
    8CHTO  H206 3011   5.729   8.741   2.585
    8CHTO  C121 3012   5.656   8.884   2.202
    8CHTO  H225 3013   5.555   8.850   2.171
    8CHTO   O81 3014   5.644   9.020   2.248
    8CHTO  H202 3015   5.602   9.072   2.182
    8CHTO  C119 3016   5.753   8.874   2.079
    8CHTO  H223 3017   5.706   8.930   1.998
    8CHTO  C117 3018   5.774   8.726   2.028
    8CHTO  H221 3019   5.854   8.713   1.956
    8CHTO   N20 3020   5.652   8.667   1.962
    8CHTO  H209 3021   5.570   8.737   1.963
    8CHTO  H210 3022   5.675   8.639   1.860
    8CHTO   O80 3023   5.890   8.952   2.096
    8CHTO  C103 3024   5.897   9.108   2.064
    8CHTO  H190 3025   5.796   9.150   2.055
    8CHTO  C101 3026   5.979   9.195   2.167
    8CHTO  H188 3027   6.077   9.149   2.181
    8CHTO   O68 3028   5.907   9.191   2.303
    8CHTO  H168 3029   5.824   9.235   2.297
    8CHTO   C99 3030   6.002   9.345   2.113
    8CHTO  H186 3031   5.903   9.394   2.102
    8CHTO   N17 3032   6.084   9.432   2.204
    8CHTO  H174 3033   6.167   9.476   2.151
    8CHTO  H175 3034   6.118   9.376   2.290
    8CHTO   C97 3035   6.061   9.337   1.969
    8CHTO  H184 3036   6.161   9.293   1.976
    8CHTO   O64 3037   5.973   9.260   1.885
    8CHTO  C104 3038   5.965   9.122   1.922
    8CHTO  H191 3039   6.064   9.077   1.926
    8CHTO  C108 3040   5.890   9.046   1.811
    8CHTO   O71 3041   5.757   9.096   1.791
    8CHTO  H171 3042   5.703   9.076   1.866
    8CHTO   O62 3043   6.070   9.467   1.904
    8CHTO   C91 3044   6.154   9.470   1.787
    8CHTO  H178 3045   6.206   9.375   1.779
    8CHTO   C92 3046   6.266   9.579   1.805
    8CHTO  H179 3047   6.315   9.565   1.903
    8CHTO   O66 3048   6.367   9.552   1.707
    8CHTO  H166 3049   6.442   9.606   1.721
    8CHTO   C93 3050   6.217   9.727   1.783
    8CHTO  H180 3051   6.305   9.785   1.751
    8CHTO   N16 3052   6.171   9.794   1.907
    8CHTO  H172 3053   6.067   9.821   1.901
    8CHTO  H173 3054   6.190   9.733   1.994
    8CHTO   C94 3055   6.109   9.733   1.667
    8CHTO  H181 3056   6.007   9.738   1.707
    8CHTO   O61 3057   6.115   9.616   1.584
    8CHTO   C95 3058   6.075   9.495   1.650
    8CHTO  H182 3059   5.968   9.500   1.671
    8CHTO  C106 3060   6.096   9.379   1.546
    8CHTO   O69 3061   6.048   9.254   1.596
    8CHTO  H169 3062   6.061   9.188   1.531
    8CHTO   O63 3063   6.138   9.858   1.577
    8CHTO   C96 3064   6.041   9.866   1.452
    8CHTO  H183 3065   5.978   9.777   1.450
    8CHTO   C98 3066   6.116   9.875   1.317
    8CHTO  H185 3067   6.190   9.956   1.320
    8CHTO   O67 3068   6.192   9.754   1.304
    8CHTO  H167 3069   6.246   9.757   1.227
    8CHTO  C102 3070   6.015   9.895   1.193
    8CHTO  H189 3071   5.957   9.802   1.187
    8CHTO   N18 3072   6.081   9.910   1.060
    8CHTO  H176 3073   6.139   9.822   1.038
    8CHTO  H177 3074   6.146   9.997   1.061
    8CHTO  C105 3075   5.918   0.011   1.225
    8CHTO  H192 3076   5.973   0.106   1.224
    8CHTO   O65 3077   5.856   9.997   1.354
    8CHTO  C100 3078   5.944   9.989   1.467
    8CHTO  H187 3079   6.002   0.082   1.473
    8CHTO  C107 3080   5.854   9.979   1.593
    8CHTO   O70 3081   5.927   9.995   1.715
    8CHTO  H170 3082   5.955   0.084   1.724
    8CHTO   O57 3083   5.800   0.011   1.110
    8CHTO   C85 3084   5.769   0.132   1.037
    8CHTO  H157 3085   5.864   0.163   0.989
    8CHTO   C83 3086   5.731   0.248   1.135
    8CHTO  H155 3087   5.819   0.273   1.195
    8CHTO   O56 3088   5.631   0.202   1.228
    8CHTO  H135 3089   5.665   0.133   1.282
    8CHTO   C81 3090   5.688   0.373   1.054
    8CHTO  H153 3091   5.770   0.399   0.986
    8CHTO   N14 3092   5.670   0.495   1.136
    8CHTO  H141 3093   5.587   0.482   1.203
    8CHTO  H142 3094   5.651   0.579   1.073
    8CHTO   C79 3095   5.562   0.337   0.966
    8CHTO  H151 3096   5.537   0.426   0.909
    8CHTO   O52 3097   5.599   0.234   0.870
    8CHTO   C86 3098   5.653   0.112   0.931
    8CHTO  H158 3099   5.565   0.062   0.977
    8CHTO   C90 3100   5.701   0.017   0.818
    8CHTO   O60 3101   5.594   9.983   0.729
    8CHTO  H138 3102   5.532   9.928   0.773
    8CHTO   O50 3103   5.446   0.295   1.041
    8CHTO   C73 3104   5.305   0.313   1.063
    8CHTO  H145 3105   5.255   0.338   0.968
    8CHTO   C74 3106   5.280   0.428   1.165
    8CHTO  H146 3107   5.328   0.518   1.125
    8CHTO   O54 3108   5.139   0.454   1.169
    8CHTO  H133 3109   5.121   0.527   1.225
    8CHTO   C75 3110   5.342   0.386   1.305
    8CHTO  H147 3111   5.450   0.375   1.293
    8CHTO   N13 3112   5.327   0.489   1.410
    8CHTO  H139 3113   5.373   0.455   1.502
    8CHTO  H140 3114   5.222   0.508   1.429
    8CHTO   C76 3115   5.285   0.244   1.350
    8CHTO  H148 3116   5.178   0.255   1.373
    8CHTO   O49 3117   5.302   0.144   1.244
    8CHTO   C77 3118   5.244   0.181   1.118
    8CHTO  H149 3119   5.136   0.195   1.130
    8CHTO   C88 3120   5.260   0.065   1.018
    8CHTO   O58 3121   5.187   9.945   1.063
    8CHTO  H136 3122   5.094   9.959   1.058
    8CHTO   O51 3123   5.370   0.189   1.476
    8CHTO   C78 3124   5.326   0.048   1.528
    8CHTO  H150 3125   5.265   9.994   1.453
    8CHTO   C80 3126   5.245   0.060   1.658
    8CHTO  H152 3127   5.303   0.123   1.730
    8CHTO   O55 3128   5.124   0.130   1.625
    8CHTO  H134 3129   5.069   0.078   1.569
    8CHTO   C84 3130   5.218   9.918   1.723
    8CHTO  H156 3131   5.157   9.861   1.653
    8CHTO   N15 3132   5.139   9.928   1.850
    8CHTO  H143 3133   5.194   9.985   1.923
    8CHTO  H144 3134   5.119   9.831   1.889
    8CHTO   C87 3135   5.353   9.845   1.743
    8CHTO  H159 3136   5.415   9.900   1.814
    8CHTO   O53 3137   5.423   9.836   1.604
    8CHTO   C82 3138   5.455   9.965   1.550
    8CHTO  H154 3139   5.522   0.017   1.618
    8CHTO   C89 3140   5.530   9.947   1.416
    8CHTO   O59 3141   5.450   9.888   1.313
    8CHTO  H137 3142   5.435   9.797   1.333
    8CHTO   O45 3143   5.333   9.689   1.793
    8CHTO   C67 3144   5.423   9.636   1.893
    8CHTO  H124 3145   5.404   9.529   1.897
    8CHTO   C65 3146   5.576   9.656   1.861
    8CHTO  H122 3147   5.584   9.746   1.801
    8CHTO   O44 3148   5.616   9.544   1.780
    8CHTO  H102 3149   5.625   9.467   1.833
    8CHTO   C63 3150   5.663   9.687   1.990
    8CHTO  H120 3151   5.645   9.790   2.019
    8CHTO   N11 3152   5.812   9.687   1.971
    8CHTO  H108 3153   5.851   9.787   1.973
    8CHTO  H109 3154   5.839   9.639   1.879
    8CHTO   C61 3155   5.614   9.600   2.112
    8CHTO  H118 3156   5.671   9.636   2.198
    8CHTO   O40 3157   5.474   9.627   2.140
    8CHTO   C68 3158   5.389   9.689   2.038
    8CHTO  H125 3159   5.402   9.798   2.042
    8CHTO   C72 3160   5.242   9.660   2.078
    8CHTO   O48 3161   5.206   9.723   2.201
    8CHTO  H105 3162   5.114   9.710   2.217
    8CHTO   O38 3163   5.639   9.459   2.095
    8CHTO   C55 3164   5.572   9.355   2.171
    8CHTO  H112 3165   5.646   9.274   2.179
    8CHTO   C56 3166   5.443   9.309   2.090
    8CHTO  H113 3167   5.390   9.400   2.061
    8CHTO   O42 3168   5.487   9.246   1.969
    8CHTO  H100 3169   5.413   9.229   1.913
    8CHTO   C57 3170   5.347   9.216   2.173
    8CHTO  H114 3171   5.397   9.120   2.188
    8CHTO   N10 3172   5.219   9.190   2.102
    8CHTO  H106 3173   5.229   9.103   2.039
    8CHTO  H107 3174   5.139   9.172   2.173
    8CHTO   C58 3175   5.324   9.282   2.311
    8CHTO  H115 3176   5.282   9.384   2.296
    8CHTO   O37 3177   5.451   9.292   2.378
    8CHTO   C59 3178   5.539   9.391   2.322
    8CHTO  H116 3179   5.493   9.489   2.331
    8CHTO   C70 3180   5.664   9.389   2.411
    8CHTO   O46 3181   5.764   9.485   2.375
    8CHTO  H103 3182   5.839   9.474   2.430
    8CHTO   O39 3183   5.225   9.192   2.411
    8CHTO   C60 3184   5.098   9.254   2.436
    8CHTO  H117 3185   5.089   9.347   2.379
    8CHTO   C62 3186   4.980   9.162   2.392
    8CHTO  H119 3187   4.997   9.140   2.284
    8CHTO   O43 3188   4.987   9.038   2.465
    8CHTO  H101 3189   4.920   8.980   2.434
    8CHTO   C66 3190   4.842   9.241   2.409
    8CHTO  H123 3191   4.848   9.333   2.351
    8CHTO   N12 3192   4.726   9.166   2.355
    8CHTO  H110 3193   4.636   9.225   2.366
    8CHTO  H111 3194   4.717   9.071   2.405
    8CHTO   C69 3195   4.822   9.281   2.557
    8CHTO  H126 3196   4.803   9.189   2.618
    8CHTO   O41 3197   4.949   9.357   2.615
    8CHTO   C64 3198   5.084   9.292   2.586
    8CHTO  H121 3199   5.094   9.200   2.647
    8CHTO   C71 3200   5.196   9.390   2.631
    8CHTO   O47 3201   5.189   9.515   2.561
    8CHTO  H104 3202   5.210   9.502   2.471
    8CHTO   O34 3203   4.697   9.375   2.572
    8CHTO   C49 3204   4.679   9.527   2.568
    8CHTO   H91 3205   4.706   9.564   2.667
    8CHTO   C47 3206   4.529   9.555   2.540
    8CHTO   H89 3207   4.516   9.665   2.553
    8CHTO   O33 3208   4.450   9.488   2.640
    8CHTO   H70 3209   4.456   9.395   2.630
    8CHTO   C45 3210   4.495   9.513   2.389
    8CHTO   H87 3211   4.523   9.407   2.375
    8CHTO    N8 3212   4.350   9.526   2.358
    8CHTO   H75 3213   4.321   9.630   2.364
    8CHTO   H76 3214   4.331   9.489   2.258
    8CHTO   C43 3215   4.589   9.596   2.289
    8CHTO   H85 3216   4.567   9.560   2.188
    8CHTO   O29 3217   4.728   9.576   2.323
    8CHTO   C50 3218   4.768   9.595   2.461
    8CHTO   H92 3219   4.868   9.550   2.470
    8CHTO   C54 3220   4.794   9.744   2.494
    8CHTO   O36 3221   4.903   9.795   2.417
    8CHTO   H72 3222   4.921   9.884   2.443
    8CHTO   O27 3223   4.558   9.736   2.289
    8CHTO   C37 3224   4.527   9.847   2.202
    8CHTO   H79 3225   4.478   9.810   2.110
    8CHTO   C38 3226   4.426   9.944   2.272
    8CHTO   H80 3227   4.468   9.972   2.370
    8CHTO   O31 3228   4.304   9.870   2.293
    8CHTO   H68 3229   4.245   9.920   2.347
    8CHTO   C39 3230   4.401   0.074   2.186
    8CHTO   H81 3231   4.348   0.043   2.096
    8CHTO    N7 3232   4.315   0.175   2.257
    8CHTO   H73 3233   4.362   0.208   2.348
    8CHTO   H74 3234   4.295   0.259   2.192
    8CHTO   C40 3235   4.539   0.138   2.141
    8CHTO   H82 3236   4.587   0.181   2.228
    8CHTO   O26 3237   4.622   0.038   2.079
    8CHTO   C41 3238   4.655   9.925   2.164
    8CHTO   H83 3239   4.704   9.962   2.255
    8CHTO   C52 3240   4.759   9.839   2.087
    8CHTO   O35 3241   4.710   9.789   1.955
    8CHTO   H71 3242   4.700   9.862   1.896
    8CHTO   O28 3243   4.525   0.248   2.047
    8CHTO   C42 3244   4.501   0.244   1.902
    8CHTO   H84 3245   4.495   0.350   1.877
    8CHTO   C44 3246   4.366   0.182   1.853
    8CHTO   H86 3247   4.364   0.077   1.881
    8CHTO   O32 3248   4.259   0.251   1.922
    8CHTO   H69 3249   4.259   0.228   2.013
    8CHTO   C48 3250   4.349   0.191   1.696
    8CHTO   H90 3251   4.342   0.296   1.668
    8CHTO    N9 3252   4.222   0.127   1.646
    8CHTO   H77 3253   4.219   0.024   1.676
    8CHTO   H78 3254   4.137   0.181   1.686
    8CHTO   C51 3255   4.477   0.131   1.626
    8CHTO   H93 3256   4.484   0.025   1.650
    8CHTO   O30 3257   4.592   0.203   1.673
    8CHTO   C46 3258   4.619   0.184   1.819
    8CHTO   H88 3259   4.626   0.077   1.838
    8CHTO   C53 3260   4.753   0.253   1.852
    8CHTO   O72 3261   4.863   0.185   1.790
    8CHTO  H199 3262   4.855   0.190   1.696
    8CHTO   O22 3263   4.477   0.151   1.483
    8CHTO   C31 3264   4.560   0.072   1.390
    8CHTO   H59 3265   4.544   0.116   1.290
    8CHTO   C29 3266   4.712   0.077   1.417
    8CHTO   H57 3267   4.731   0.035   1.517
    8CHTO   O21 3268   4.751   0.216   1.421
    8CHTO   H37 3269   4.840   0.224   1.448
    8CHTO   C27 3270   4.795   9.995   1.310
    8CHTO   H55 3271   4.784   0.045   1.213
    8CHTO    N5 3272   4.940   9.988   1.343
    8CHTO   H43 3273   4.994   9.939   1.264
    8CHTO   H44 3274   4.954   9.936   1.437
    8CHTO   C25 3275   4.733   9.851   1.294
    8CHTO   H53 3276   4.752   9.793   1.386
    8CHTO   O17 3277   4.588   9.857   1.273
    8CHTO   C32 3278   4.516   9.923   1.379
    8CHTO   H60 3279   4.537   9.872   1.474
    8CHTO   C36 3280   4.365   9.913   1.351
    8CHTO   O25 3281   4.314   9.781   1.376
    8CHTO   H40 3282   4.223   9.778   1.356
    8CHTO   O15 3283   4.799   9.776   1.172
    8CHTO   C19 3284   4.826   9.762   1.030
    8CHTO   H47 3285   4.738   9.707   0.991
    8CHTO   C20 3286   4.840   9.896   0.952
    8CHTO   H48 3287   4.919   9.960   0.995
    8CHTO   O19 3288   4.715   9.967   0.965
    8CHTO   H35 3289   4.704   9.997   1.053
    8CHTO   C21 3290   4.875   9.873   0.799
    8CHTO   H49 3291   4.788   9.830   0.749
    8CHTO    N4 3292   4.905   0.000   0.726
    8CHTO   H41 3293   4.991   0.048   0.770
    8CHTO   H42 3294   4.926   9.980   0.622
    8CHTO   C22 3295   4.990   9.770   0.785
    8CHTO   H50 3296   5.083   9.815   0.820
    8CHTO   O14 3297   4.962   9.651   0.860
    8CHTO   C23 3298   4.950   9.672   1.001
    8CHTO   H51 3299   5.043   9.719   1.036
    8CHTO   C34 3300   4.938   9.535   1.070
    8CHTO   O23 3301   5.060   9.460   1.057
    8CHTO   H38 3302   5.127   9.499   1.110
    8CHTO   O16 3303   5.004   9.724   0.649
    8CHTO   C24 3304   5.149   9.662   0.619
    8CHTO   H52 3305   5.206   9.646   0.710
    8CHTO   C26 3306   5.226   9.758   0.526
    8CHTO   H54 3307   5.164   9.778   0.436
    8CHTO   O20 3308   5.246   9.882   0.596
    8CHTO   H36 3309   5.164   9.926   0.609
    8CHTO   C30 3310   5.362   9.696   0.481
    8CHTO   H58 3311   5.431   9.692   0.566
    8CHTO    N6 3312   5.429   9.781   0.378
    8CHTO   H45 3313   5.524   9.737   0.350
    8CHTO   H46 3314   5.367   9.789   0.290
    8CHTO   C33 3315   5.345   9.548   0.432
    8CHTO   H61 3316   5.296   9.546   0.334
    8CHTO   O18 3317   5.266   9.473   0.526
    8CHTO   C28 3318   5.134   9.524   0.550
    8CHTO   H56 3319   5.080   9.536   0.456
    8CHTO   C35 3320   5.057   9.423   0.638
    8CHTO   O24 3321   5.122   9.396   0.763
    8CHTO   H39 3322   5.076   9.328   0.808
    8CHTO    O9 3323   5.474   9.487   0.412
    8CHTO   C13 3324   5.472   9.331   0.364
    8CHTO   H26 3325   5.385   9.317   0.295
    8CHTO   C11 3326   5.462   9.234   0.491
    8CHTO   H24 3327   5.356   9.216   0.512
    8CHTO    O8 3328   5.519   9.297   0.607
    8CHTO    H3 3329   5.611   9.315   0.593
    8CHTO    C9 3330   5.531   9.098   0.458
    8CHTO   H22 3331   5.485   9.064   0.364
    8CHTO    N2 3332   5.505   8.989   0.555
    8CHTO   H10 3333   5.455   9.026   0.642
    8CHTO   H11 3334   5.447   8.910   0.508
    8CHTO    C7 3335   5.685   9.126   0.431
    8CHTO   H20 3336   5.718   9.040   0.369
    8CHTO    O4 3337   5.708   9.249   0.359
    8CHTO   C14 3338   5.601   9.299   0.277
    8CHTO   H27 3339   5.576   9.222   0.201
    8CHTO   C18 3340   5.656   9.422   0.199
    8CHTO   O13 3341   5.559   9.474   0.108
    8CHTO    H7 3342   5.546   9.415   0.037
    8CHTO    O2 3343   5.775   9.131   0.574
    8CHTO    C1 3344   5.917   9.112   0.564
    8CHTO   H14 3345   5.962   9.140   0.662
    8CHTO    C2 3346   5.989   9.197   0.451
    8CHTO   H15 3347   5.939   9.171   0.356
    8CHTO    O6 3348   5.971   9.336   0.481
    8CHTO    H1 3349   6.002   9.389   0.410
    8CHTO    C3 3350   6.145   9.160   0.440
    8CHTO   H16 3351   6.198   9.198   0.528
    8CHTO    N1 3352   6.207   9.224   0.319
    8CHTO    H8 3353   6.197   9.332   0.325
    8CHTO    H9 3354   6.158   9.189   0.229
    8CHTO    C4 3355   6.166   9.003   0.441
    8CHTO   H17 3356   6.132   8.962   0.346
    8CHTO    O1 3357   6.094   8.943   0.550
    8CHTO    C5 3358   5.951   8.961   0.544
    8CHTO   H18 3359   5.914   8.931   0.446
    8CHTO   C16 3360   5.885   8.872   0.652
    8CHTO   O11 3361   5.911   8.733   0.629
    8CHTO    H5 3362   5.864   8.704   0.553
    8CHTO    O3 3363   6.303   8.968   0.468
    8CHTO    C6 3364   6.370   8.882   0.369
    8CHTO   H19 3365   6.313   8.870   0.277
    8CHTO    C8 3366   6.509   8.943   0.331
    8CHTO   H21 3367   6.567   8.958   0.423
    8CHTO    O7 3368   6.485   9.070   0.268
    8CHTO    H2 3369   6.566   9.115   0.253
    8CHTO   C12 3370   6.589   8.846   0.236
    8CHTO   H25 3371   6.531   8.841   0.140
    8CHTO    N3 3372   6.725   8.900   0.202
    8CHTO   H12 3373   6.784   8.910   0.291
    8CHTO   H13 3374   6.774   8.834   0.131
    8CHTO   C15 3375   6.593   8.702   0.298
    8CHTO   H28 3376   6.659   8.697   0.385
    8CHTO   O10 3377   6.637   8.598   0.196
    8CHTO    H4 3378   6.661   8.518   0.239
    8CHTO    O5 3379   6.461   8.655   0.334
    8CHTO   C10 3380   6.392   8.739   0.428
    8CHTO   H23 3381   6.452   8.746   0.519
    8CHTO   C17 3382   6.260   8.670   0.464
    8CHTO   O12 3383   6.281   8.557   0.549
    8CHTO    H6 3384   6.326   8.489   0.502
    9CHTO  H203 3385   7.320   2.355   0.648
    9CHTO   O82 3386   7.340   2.391   0.564
    9CHTO  C123 3387   7.450   2.483   0.575
    9CHTO  H227 3388   7.538   2.429   0.613
    9CHTO   O77 3389   7.471   2.523   0.436
    9CHTO  C118 3390   7.579   2.615   0.416
    9CHTO  H222 3391   7.673   2.573   0.457
    9CHTO  C125 3392   7.597   2.636   0.261
    9CHTO   O84 3393   7.640   2.516   0.196
    9CHTO  H205 3394   7.729   2.497   0.219
    9CHTO  C114 3395   7.547   2.747   0.488
    9CHTO  H218 3396   7.454   2.787   0.446
    9CHTO  C116 3397   7.523   2.723   0.640
    9CHTO  H220 3398   7.620   2.694   0.687
    9CHTO   O79 3399   7.485   2.847   0.701
    9CHTO  H201 3400   7.403   2.877   0.667
    9CHTO  C120 3401   7.415   2.609   0.663
    9CHTO  H224 3402   7.318   2.652   0.630
    9CHTO   N21 3403   7.400   2.574   0.807
    9CHTO  H211 3404   7.418   2.661   0.869
    9CHTO  H212 3405   7.469   2.495   0.834
    9CHTO   O75 3406   7.658   2.834   0.461
    9CHTO  C112 3407   7.612   2.984   0.418
    9CHTO  H216 3408   7.526   3.015   0.480
    9CHTO   O73 3409   7.576   2.980   0.278
    9CHTO  C113 3410   7.527   3.104   0.226
    9CHTO  H217 3411   7.437   3.133   0.284
    9CHTO  C124 3412   7.480   3.080   0.081
    9CHTO   O83 3413   7.584   3.032   2.872
    9CHTO  H204 3414   7.548   3.008   2.788
    9CHTO  C109 3415   7.635   3.215   0.236
    9CHTO  H213 3416   7.717   3.187   0.169
    9CHTO  C110 3417   7.687   3.226   0.383
    9CHTO  H214 3418   7.607   3.268   0.445
    9CHTO   O78 3419   7.796   3.321   0.386
    9CHTO  H200 3420   7.869   3.289   0.336
    9CHTO  C111 3421   7.729   3.087   0.438
    9CHTO  H215 3422   7.816   3.051   0.381
    9CHTO   N19 3423   7.771   3.090   0.581
    9CHTO  H207 3424   7.800   2.991   0.613
    9CHTO  H208 3425   7.854   3.158   0.594
    9CHTO   O74 3426   7.578   3.343   0.192
    9CHTO  C115 3427   7.663   3.422   0.083
    9CHTO  H219 3428   7.763   3.379   0.071
    9CHTO   O76 3429   7.593   3.410   2.807
    9CHTO  C122 3430   7.647   3.496   2.705
    9CHTO  H226 3431   7.564   3.519   2.638
    9CHTO  C126 3432   7.751   3.416   2.618
    9CHTO   O85 3433   7.866   3.371   2.691
    9CHTO  H206 3434   7.921   3.444   2.711
    9CHTO  C121 3435   7.707   3.632   2.758
    9CHTO  H225 3436   7.816   3.621   2.778
    9CHTO   O81 3437   7.689   3.736   2.662
    9CHTO  H202 3438   7.744   3.721   2.587
    9CHTO  C119 3439   7.634   3.668   0.016
    9CHTO  H223 3440   7.662   3.770   0.042
    9CHTO  C117 3441   7.674   3.572   0.133
    9CHTO  H221 3442   7.608   3.577   0.220
    9CHTO   N20 3443   7.810   3.603   0.189
    9CHTO  H209 3444   7.830   3.540   0.274
    9CHTO  H210 3445   7.886   3.586   0.113
    9CHTO   O80 3446   7.481   3.680   2.875
    9CHTO  C103 3447   7.401   3.805   0.058
    9CHTO  H190 3448   7.298   3.776   0.075
    9CHTO  C101 3449   7.454   3.874   0.190
    9CHTO  H188 3450   7.555   3.911   0.174
    9CHTO   O68 3451   7.457   3.770   0.304
    9CHTO  H168 3452   7.524   3.706   0.288
    9CHTO   C99 3453   7.359   3.998   0.226
    9CHTO  H186 3454   7.260   3.958   0.257
    9CHTO   N17 3455   7.408   4.079   0.343
    9CHTO  H174 3456   7.502   4.127   0.318
    9CHTO  H175 3457   7.419   4.016   0.430
    9CHTO   C97 3458   7.331   4.089   0.103
    9CHTO  H184 3459   7.417   4.157   0.088
    9CHTO   O64 3460   7.302   4.014   2.859
    9CHTO  C104 3461   7.400   3.916   2.822
    9CHTO  H191 3462   7.499   3.960   2.814
    9CHTO  C108 3463   7.366   3.859   2.684
    9CHTO   O71 3464   7.379   3.960   2.582
    9CHTO  H171 3465   7.469   3.981   2.569
    9CHTO   O62 3466   7.211   4.166   0.126
    9CHTO   C91 3467   7.184   4.277   0.038
    9CHTO  H178 3468   7.233   4.258   2.819
    9CHTO   C92 3469   7.251   4.407   0.097
    9CHTO  H179 3470   7.354   4.384   0.130
    9CHTO   O66 3471   7.266   4.503   2.867
    9CHTO  H166 3472   7.182   4.528   2.834
    9CHTO   C93 3473   7.167   4.474   0.212
    9CHTO  H180 3474   7.206   4.576   0.225
    9CHTO   N16 3475   7.185   4.411   0.345
    9CHTO  H172 3476   7.155   4.307   0.342
    9CHTO  H173 3477   7.128   4.464   0.420
    9CHTO   C94 3478   7.014   4.482   0.172
    9CHTO  H181 3479   6.951   4.420   0.236
    9CHTO   O61 3480   6.988   4.438   0.037
    9CHTO   C95 3481   7.028   4.302   0.014
    9CHTO  H182 3482   6.972   4.237   0.081
    9CHTO  C106 3483   6.986   4.261   2.745
    9CHTO   O69 3484   6.843   4.265   2.729
    9CHTO  H169 3485   6.813   4.354   2.735
    9CHTO   O63 3486   6.972   4.627   0.183
    9CHTO   C96 3487   6.824   4.646   0.215
    9CHTO  H183 3488   6.776   4.549   0.228
    9CHTO   C98 3489   6.747   4.722   0.103
    9CHTO  H185 3490   6.802   4.813   0.076
    9CHTO   O67 3491   6.748   4.639   2.862
    9CHTO  H167 3492   6.701   4.559   0.000
    9CHTO  C102 3493   6.597   4.758   0.150
    9CHTO  H189 3494   6.546   4.662   0.164
    9CHTO   N18 3495   6.517   4.832   0.049
    9CHTO  H176 3496   6.508   4.774   2.835
    9CHTO  H177 3497   6.564   4.927   0.027
    9CHTO  C105 3498   6.605   4.831   0.287
    9CHTO  H192 3499   6.658   4.926   0.274
    9CHTO   O65 3500   6.676   4.751   0.384
    9CHTO  C100 3501   6.813   4.724   0.351
    9CHTO  H187 3502   6.867   4.820   0.342
    9CHTO  C107 3503   6.876   4.644   0.467
    9CHTO   O70 3504   6.886   4.724   0.586
    9CHTO  H170 3505   6.953   4.788   0.575
    9CHTO   O57 3506   6.452   4.858   0.340
    9CHTO   C85 3507   6.419   4.905   0.472
    9CHTO  H157 3508   6.312   4.934   0.463
    9CHTO   C83 3509   6.493   5.038   0.511
    9CHTO  H155 3510   6.474   5.111   0.432
    9CHTO   O56 3511   6.636   5.018   0.514
    9CHTO  H135 3512   6.659   4.956   0.580
    9CHTO   C81 3513   6.434   5.090   0.645
    9CHTO  H153 3514   6.327   5.104   0.631
    9CHTO   N14 3515   6.483   5.225   0.682
    9CHTO  H141 3516   6.588   5.221   0.703
    9CHTO  H142 3517   6.466   5.294   0.602
    9CHTO   C79 3518   6.454   4.983   0.759
    9CHTO  H151 3519   6.397   5.018   0.845
    9CHTO   O52 3520   6.395   4.854   0.720
    9CHTO   C86 3521   6.441   4.802   0.591
    9CHTO  H158 3522   6.549   4.779   0.606
    9CHTO   C90 3523   6.372   4.666   0.565
    9CHTO   O60 3524   6.432   4.592   0.458
    9CHTO  H138 3525   6.419   4.636   0.377
    9CHTO   O50 3526   6.591   4.964   0.799
    9CHTO   C73 3527   6.625   4.928   0.934
    9CHTO  H145 3528   6.536   4.889   0.987
    9CHTO   C74 3529   6.675   5.052   1.014
    9CHTO  H146 3530   6.598   5.130   1.005
    9CHTO   O54 3531   6.681   5.016   1.153
    9CHTO  H133 3532   6.704   5.090   1.205
    9CHTO   C75 3533   6.814   5.100   0.955
    9CHTO  H147 3534   6.800   5.123   0.848
    9CHTO   N13 3535   6.865   5.223   1.019
    9CHTO  H139 3536   6.959   5.204   1.071
    9CHTO  H140 3537   6.883   5.300   0.945
    9CHTO   C76 3538   6.915   4.976   0.963
    9CHTO  H148 3539   6.925   4.948   1.069
    9CHTO   O49 3540   6.862   4.863   0.888
    9CHTO   C77 3541   6.735   4.816   0.935
    9CHTO  H149 3542   6.746   4.778   1.037
    9CHTO   C88 3543   6.698   4.694   0.850
    9CHTO   O58 3544   6.566   4.651   0.874
    9CHTO  H136 3545   6.548   4.574   0.823
    9CHTO   O51 3546   7.053   5.008   0.897
    9CHTO   C78 3547   7.172   4.929   0.965
    9CHTO  H150 3548   7.135   4.834   1.011
    9CHTO   C80 3549   7.237   5.016   1.075
    9CHTO  H152 3550   7.272   5.111   1.029
    9CHTO   O55 3551   7.136   5.047   1.172
    9CHTO  H134 3552   7.073   5.106   1.136
    9CHTO   C84 3553   7.359   4.943   1.143
    9CHTO  H156 3554   7.320   4.856   1.196
    9CHTO   N15 3555   7.429   5.028   1.245
    9CHTO  H143 3556   7.362   5.054   1.323
    9CHTO  H144 3557   7.466   5.117   1.199
    9CHTO   C87 3558   7.458   4.892   1.035
    9CHTO  H159 3559   7.510   4.976   0.989
    9CHTO   O53 3560   7.379   4.812   0.923
    9CHTO   C82 3561   7.277   4.891   0.860
    9CHTO  H154 3562   7.321   4.980   0.814
    9CHTO   C89 3563   7.218   4.805   0.745
    9CHTO   O59 3564   7.134   4.882   0.658
    9CHTO  H137 3565   7.057   4.909   0.704
    9CHTO   O45 3566   7.575   4.793   1.106
    9CHTO   C67 3567   7.571   4.653   1.075
    9CHTO  H124 3568   7.474   4.626   1.035
    9CHTO   C65 3569   7.682   4.619   0.968
    9CHTO  H122 3570   7.760   4.694   0.981
    9CHTO   O44 3571   7.620   4.637   0.840
    9CHTO  H102 3572   7.560   4.568   0.822
    9CHTO   C63 3573   7.755   4.481   0.996
    9CHTO  H120 3574   7.827   4.496   1.077
    9CHTO   N11 3575   7.843   4.430   0.886
    9CHTO  H108 3576   7.896   4.343   0.918
    9CHTO  H109 3577   7.784   4.407   0.800
    9CHTO   C61 3578   7.650   4.377   1.050
    9CHTO  H118 3579   7.705   4.285   1.076
    9CHTO   O40 3580   7.585   4.421   1.173
    9CHTO   C68 3581   7.588   4.564   1.205
    9CHTO  H125 3582   7.686   4.587   1.253
    9CHTO   C72 3583   7.479   4.594   1.310
    9CHTO   O48 3584   7.347   4.559   1.267
    9CHTO  H105 3585   7.322   4.613   1.194
    9CHTO   O38 3586   7.550   4.349   0.950
    9CHTO   C55 3587   7.441   4.256   0.966
    9CHTO  H112 3588   7.358   4.310   1.014
    9CHTO   C56 3589   7.476   4.121   1.044
    9CHTO  H113 3590   7.568   4.082   1.000
    9CHTO   O42 3591   7.505   4.148   1.183
    9CHTO  H100 3592   7.589   4.190   1.190
    9CHTO   C57 3593   7.359   4.014   1.033
    9CHTO  H114 3594   7.278   4.050   1.098
    9CHTO   N10 3595   7.397   3.880   1.084
    9CHTO  H106 3596   7.442   3.821   1.005
    9CHTO  H107 3597   7.467   3.889   1.166
    9CHTO   C58 3598   7.304   4.005   0.888
    9CHTO  H115 3599   7.379   3.953   0.823
    9CHTO   O37 3600   7.276   4.135   0.833
    9CHTO   C59 3601   7.392   4.219   0.824
    9CHTO  H116 3602   7.471   4.166   0.770
    9CHTO   C70 3603   7.357   4.345   0.744
    9CHTO   O46 3604   7.353   4.318   0.603
    9CHTO  H103 3605   7.441   4.311   0.570
    9CHTO   O39 3606   7.159   3.929   0.884
    9CHTO   C60 3607   7.160   3.796   0.829
    9CHTO  H117 3608   7.262   3.765   0.807
    9CHTO   C62 3609   7.101   3.695   0.931
    9CHTO  H119 3610   7.167   3.699   1.021
    9CHTO   O43 3611   6.968   3.734   0.970
    9CHTO  H101 3612   6.971   3.815   1.018
    9CHTO   C66 3613   7.108   3.548   0.868
    9CHTO  H123 3614   7.211   3.528   0.837
    9CHTO   N12 3615   7.075   3.443   0.967
    9CHTO  H110 3616   7.085   3.345   0.923
    9CHTO  H111 3617   6.974   3.458   1.004
    9CHTO   C69 3618   7.020   3.542   0.740
    9CHTO  H126 3619   6.913   3.560   0.767
    9CHTO   O41 3620   7.067   3.652   0.639
    9CHTO   C64 3621   7.081   3.793   0.695
    9CHTO  H121 3622   6.980   3.836   0.711
    9CHTO   C71 3623   7.152   3.878   0.586
    9CHTO   O47 3624   7.280   3.826   0.551
    9CHTO  H104 3625   7.270   3.744   0.505
    9CHTO   O34 3626   7.029   3.400   0.668
    9CHTO   C49 3627   7.091   3.371   0.526
    9CHTO   H91 3628   7.037   3.432   0.454
    9CHTO   C47 3629   7.072   3.221   0.493
    9CHTO   H89 3630   7.100   3.212   0.386
    9CHTO   O33 3631   6.933   3.186   0.506
    9CHTO   H70 3632   6.920   3.097   0.477
    9CHTO   C45 3633   7.163   3.126   0.588
    9CHTO   H87 3634   7.101   3.089   0.670
    9CHTO    N8 3635   7.211   3.010   0.508
    9CHTO   H75 3636   7.273   3.043   0.427
    9CHTO   H76 3637   7.127   2.954   0.471
    9CHTO   C43 3638   7.279   3.213   0.659
    9CHTO   H85 3639   7.227   3.267   0.738
    9CHTO   O29 3640   7.337   3.302   0.563
    9CHTO   C50 3641   7.245   3.404   0.518
    9CHTO   H92 3642   7.263   3.493   0.580
    9CHTO   C54 3643   7.287   3.453   0.376
    9CHTO   O36 3644   7.283   3.348   0.278
    9CHTO   H72 3645   7.348   3.283   0.298
    9CHTO   O27 3646   7.377   3.134   0.729
    9CHTO   C37 3647   7.436   3.157   0.858
    9CHTO   H79 3648   7.519   3.086   0.873
    9CHTO   C38 3649   7.497   3.301   0.868
    9CHTO   H80 3650   7.420   3.374   0.837
    9CHTO   O31 3651   7.606   3.309   0.773
    9CHTO   H68 3652   7.675   3.250   0.797
    9CHTO   C39 3653   7.544   3.336   1.014
    9CHTO   H81 3654   7.626   3.269   1.040
    9CHTO    N7 3655   7.596   3.477   1.030
    9CHTO   H73 3656   7.537   3.533   1.101
    9CHTO   H74 3657   7.599   3.528   0.935
    9CHTO   C40 3658   7.425   3.305   1.113
    9CHTO   H82 3659   7.342   3.372   1.090
    9CHTO   O26 3660   7.388   3.167   1.100
    9CHTO   C41 3661   7.330   3.135   0.971
    9CHTO   H83 3662   7.242   3.199   0.953
    9CHTO   C52 3663   7.281   2.989   0.981
    9CHTO   O35 3664   7.193   2.953   0.877
    9CHTO   H71 3665   7.153   2.870   0.897
    9CHTO   O28 3666   7.458   3.318   1.253
    9CHTO   C42 3667   7.355   3.363   1.347
    9CHTO   H84 3668   7.392   3.326   1.443
    9CHTO   C44 3669   7.211   3.301   1.330
    9CHTO   H86 3670   7.179   3.317   1.227
    9CHTO   O32 3671   7.223   3.160   1.351
    9CHTO   H69 3672   7.142   3.117   1.332
    9CHTO   C48 3673   7.103   3.367   1.425
    9CHTO   H90 3674   7.124   3.337   1.528
    9CHTO    N9 3675   6.964   3.318   1.395
    9CHTO   H77 3676   6.893   3.365   1.462
    9CHTO   H78 3677   6.959   3.211   1.406
    9CHTO   C51 3678   7.116   3.523   1.414
    9CHTO   H93 3679   7.097   3.551   1.310
    9CHTO   O30 3680   7.248   3.557   1.456
    9CHTO   C46 3681   7.350   3.518   1.357
    9CHTO   H88 3682   7.324   3.560   1.260
    9CHTO   C53 3683   7.486   3.576   1.405
    9CHTO   O72 3684   7.481   3.719   1.414
    9CHTO  H199 3685   7.431   3.745   1.489
    9CHTO   O22 3686   7.028   3.596   1.502
    9CHTO   C31 3687   7.001   3.740   1.478
    9CHTO   H59 3688   6.943   3.775   1.567
    9CHTO   C29 3689   7.127   3.829   1.468
    9CHTO   H57 3690   7.189   3.790   1.386
    9CHTO   O21 3691   7.203   3.811   1.589
    9CHTO   H37 3692   7.158   3.849   1.662
    9CHTO   C27 3693   7.095   3.981   1.440
    9CHTO   H55 3694   7.047   4.023   1.529
    9CHTO    N5 3695   7.217   4.061   1.410
    9CHTO   H43 3696   7.190   4.164   1.395
    9CHTO   H44 3697   7.286   4.053   1.493
    9CHTO   C25 3698   6.992   3.991   1.322
    9CHTO   H53 3699   7.040   3.959   1.228
    9CHTO   O17 3700   6.877   3.904   1.345
    9CHTO   C32 3701   6.910   3.765   1.355
    9CHTO   H60 3702   6.963   3.734   1.264
    9CHTO   C36 3703   6.777   3.685   1.361
    9CHTO   O25 3704   6.694   3.726   1.470
    9CHTO   H40 3705   6.663   3.813   1.457
    9CHTO   O15 3706   6.936   4.134   1.306
    9CHTO   C19 3707   6.897   4.212   1.189
    9CHTO   H47 3708   6.818   4.278   1.228
    9CHTO   C20 3709   7.012   4.301   1.132
    9CHTO   H48 3710   7.099   4.241   1.100
    9CHTO   O19 3711   7.054   4.386   1.241
    9CHTO   H35 3712   7.127   4.439   1.214
    9CHTO   C21 3713   6.961   4.384   1.007
    9CHTO   H49 3714   6.880   4.449   1.039
    9CHTO    N4 3715   7.066   4.473   0.950
    9CHTO   H41 3716   7.100   4.543   1.025
    9CHTO   H42 3717   7.026   4.528   0.866
    9CHTO   C22 3718   6.904   4.284   0.904
    9CHTO   H50 3719   6.983   4.215   0.875
    9CHTO   O14 3720   6.795   4.211   0.965
    9CHTO   C23 3721   6.833   4.127   1.075
    9CHTO   H51 3722   6.902   4.051   1.037
    9CHTO   C34 3723   6.705   4.056   1.124
    9CHTO   O23 3724   6.657   3.962   1.028
    9CHTO   H38 3725   6.625   4.006   0.952
    9CHTO   O16 3726   6.848   4.347   0.787
    9CHTO   C24 3727   6.788   4.241   0.677
    9CHTO   H52 3728   6.768   4.143   0.721
    9CHTO   C26 3729   6.889   4.223   0.561
    9CHTO   H54 3730   6.907   4.323   0.515
    9CHTO   O20 3731   7.013   4.176   0.617
    9CHTO   H36 3732   7.002   4.090   0.653
    9CHTO   C30 3733   6.829   4.128   0.453
    9CHTO   H58 3734   6.809   4.030   0.497
    9CHTO    N6 3735   6.923   4.103   0.339
    9CHTO   H45 3736   7.014   4.160   0.350
    9CHTO   H46 3737   6.877   4.128   0.244
    9CHTO   C33 3738   6.691   4.184   0.406
    9CHTO   H61 3739   6.707   4.280   0.354
    9CHTO   O18 3740   6.605   4.208   0.519
    9CHTO   C28 3741   6.653   4.295   0.623
    9CHTO   H56 3742   6.667   4.396   0.585
    9CHTO   C35 3743   6.543   4.293   0.731
    9CHTO   O24 3744   6.571   4.370   0.848
    9CHTO   H39 3745   6.575   4.461   0.826
    9CHTO    O9 3746   6.627   4.097   0.310
    9CHTO   C13 3747   6.582   4.167   0.171
    9CHTO   H26 3748   6.674   4.207   0.123
    9CHTO   C11 3749   6.474   4.281   0.197
    9CHTO   H24 3750   6.526   4.368   0.241
    9CHTO    O8 3751   6.375   4.236   0.291
    9CHTO    H3 3752   6.313   4.305   0.308
    9CHTO    C9 3753   6.414   4.321   0.059
    9CHTO   H22 3754   6.501   4.343   2.870
    9CHTO    N2 3755   6.339   4.448   0.061
    9CHTO   H10 3756   6.250   4.438   0.121
    9CHTO   H11 3757   6.312   4.477   2.836
    9CHTO    C7 3758   6.337   4.196   2.874
    9CHTO   H20 3759   6.362   4.200   2.766
    9CHTO    O4 3760   6.381   4.071   0.054
    9CHTO   C14 3761   6.524   4.059   0.067
    9CHTO   H27 3762   6.570   4.078   2.844
    9CHTO   C18 3763   6.555   3.912   0.103
    9CHTO   O13 3764   6.696   3.887   0.110
    9CHTO    H7 3765   6.731   3.926   0.188
    9CHTO    O2 3766   6.167   4.208   0.012
    9CHTO    C1 3767   6.089   4.099   0.065
    9CHTO   H14 3768   6.140   4.058   0.156
    9CHTO    C2 3769   6.066   3.980   2.838
    9CHTO   H15 3770   6.040   4.028   2.742
    9CHTO    O6 3771   6.189   3.906   2.821
    9CHTO    H1 3772   6.176   3.835   2.761
    9CHTO    C3 3773   5.947   3.882   0.007
    9CHTO   H16 3774   5.981   3.824   0.095
    9CHTO    N1 3775   5.910   3.783   2.775
    9CHTO    H8 3776   5.976   3.792   2.690
    9CHTO    H9 3777   5.914   3.683   2.815
    9CHTO    C4 3778   5.823   3.964   0.057
    9CHTO   H17 3779   5.781   4.019   2.848
    9CHTO    O1 3780   5.864   4.056   0.160
    9CHTO    C5 3781   5.953   4.158   0.112
    9CHTO   H18 3782   5.907   4.208   0.026
    9CHTO   C16 3783   5.972   4.262   0.225
    9CHTO   O11 3784   5.850   4.334   0.249
    9CHTO    H5 3785   5.866   4.404   0.310
    9CHTO    O3 3786   5.723   3.878   0.115
    9CHTO    C6 3787   5.594   3.940   0.150
    9CHTO   H19 3788   5.603   4.045   0.176
    9CHTO    C8 3789   5.490   3.926   0.034
    9CHTO   H21 3790   5.486   3.821   0.004
    9CHTO    O7 3791   5.537   4.005   2.799
    9CHTO    H2 3792   5.538   4.096   2.822
    9CHTO   C12 3793   5.346   3.970   0.083
    9CHTO   H25 3794   5.352   4.078   0.107
    9CHTO    N3 3795   5.242   3.955   2.851
    9CHTO   H12 3796   5.147   3.989   0.011
    9CHTO   H13 3797   5.236   3.851   2.821
    9CHTO   C15 3798   5.311   3.892   0.215
    9CHTO   H28 3799   5.303   3.784   0.197
    9CHTO   O10 3800   5.184   3.940   0.285
    9CHTO    H4 3801   5.108   3.916   0.235
    9CHTO    O5 3802   5.412   3.917   0.314
    9CHTO   C10 3803   5.541   3.867   0.277
    9CHTO   H23 3804   5.532   3.760   0.256
    9CHTO   C17 3805   5.636   3.883   0.396
    9CHTO   O12 3806   5.612   3.785   0.498
    9CHTO    H6 3807   5.524   3.791   0.529
   10CHTO  H203 3808   4.228   6.274   0.433
   10CHTO   O82 3809   4.216   6.266   0.340
   10CHTO  C123 3810   4.130   6.370   0.291
   10CHTO  H227 3811   4.120   6.358   0.181
   10CHTO   O77 3812   4.002   6.341   0.355
   10CHTO  C118 3813   3.893   6.426   0.316
   10CHTO  H222 3814   3.880   6.420   0.207
   10CHTO  C125 3815   3.763   6.371   0.386
   10CHTO   O84 3816   3.774   6.371   0.529
   10CHTO  H205 3817   3.697   6.331   0.566
   10CHTO  C114 3818   3.925   6.571   0.355
   10CHTO  H218 3819   3.935   6.577   0.464
   10CHTO  C116 3820   4.061   6.618   0.294
   10CHTO  H220 3821   4.050   6.626   0.183
   10CHTO   O79 3822   4.089   6.751   0.342
   10CHTO  H201 3823   4.102   6.751   0.435
   10CHTO  C120 3824   4.177   6.515   0.329
   10CHTO  H224 3825   4.193   6.522   0.438
   10CHTO   N21 3826   4.305   6.551   0.263
   10CHTO  H211 3827   4.288   6.599   0.168
   10CHTO  H212 3828   4.368   6.464   0.251
   10CHTO   O75 3829   3.812   6.649   0.310
   10CHTO  C112 3830   3.759   6.755   0.423
   10CHTO  H216 3831   3.844   6.813   0.461
   10CHTO   O73 3832   3.696   6.678   0.527
   10CHTO  C113 3833   3.642   6.754   0.635
   10CHTO  H217 3834   3.724   6.816   0.679
   10CHTO  C124 3835   3.596   6.656   0.744
   10CHTO   O83 3836   3.498   6.562   0.698
   10CHTO  H204 3837   3.470   6.508   0.770
   10CHTO  C109 3838   3.529   6.848   0.584
   10CHTO  H213 3839   3.449   6.783   0.546
   10CHTO  C110 3840   3.585   6.939   0.471
   10CHTO  H214 3841   3.657   7.009   0.514
   10CHTO   O78 3842   3.477   7.018   0.418
   10CHTO  H200 3843   3.509   7.080   0.355
   10CHTO  C111 3844   3.653   6.854   0.359
   10CHTO  H215 3845   3.576   6.793   0.310
   10CHTO   N19 3846   3.718   6.935   0.253
   10CHTO  H207 3847   3.643   6.995   0.202
   10CHTO  H208 3848   3.793   7.000   0.295
   10CHTO   O74 3849   3.477   6.926   0.697
   10CHTO  C115 3850   3.321   6.965   0.687
   10CHTO  H219 3851   3.294   7.001   0.588
   10CHTO   O76 3852   3.226   6.837   0.711
   10CHTO  C122 3853   3.245   6.773   0.838
   10CHTO  H226 3854   3.328   6.703   0.828
   10CHTO  C126 3855   3.120   6.686   0.873
   10CHTO   O85 3856   3.104   6.574   0.785
   10CHTO  H206 3857   3.160   6.504   0.812
   10CHTO  C121 3858   3.275   6.873   0.957
   10CHTO  H225 3859   3.225   6.838   1.049
   10CHTO   O81 3860   3.416   6.872   0.985
   10CHTO  H202 3861   3.443   6.787   1.013
   10CHTO  C119 3862   3.224   7.017   0.923
   10CHTO  H223 3863   3.118   7.003   0.899
   10CHTO  C117 3864   3.296   7.077   0.796
   10CHTO  H221 3865   3.394   7.118   0.816
   10CHTO   N20 3866   3.217   7.192   0.741
   10CHTO  H209 3867   3.270   7.238   0.658
   10CHTO  H210 3868   3.120   7.158   0.707
   10CHTO   O80 3869   3.216   7.113   1.049
   10CHTO  C103 3870   3.076   7.144   1.114
   10CHTO  H190 3871   3.003   7.169   1.037
   10CHTO  C101 3872   3.015   7.030   1.205
   10CHTO  H188 3873   3.089   7.001   1.279
   10CHTO   O68 3874   2.983   6.907   1.116
   10CHTO  H168 3875   2.955   6.835   1.170
   10CHTO   C99 3876   2.885   7.084   1.282
   10CHTO  H186 3877   2.809   7.114   1.207
   10CHTO   N17 3878   2.821   6.982   1.371
   10CHTO  H174 3879   2.729   7.020   1.411
   10CHTO  H175 3880   2.889   6.953   1.449
   10CHTO   C97 3881   2.922   7.215   1.359
   10CHTO  H184 3882   2.994   7.190   1.438
   10CHTO   O64 3883   2.974   7.312   1.266
   10CHTO  C104 3884   3.097   7.274   1.201
   10CHTO  H191 3885   3.176   7.256   1.274
   10CHTO  C108 3886   3.145   7.390   1.113
   10CHTO   O71 3887   3.175   7.507   1.191
   10CHTO  H171 3888   3.096   7.545   1.222
   10CHTO   O62 3889   2.808   7.288   1.411
   10CHTO   C91 3890   2.776   7.274   1.551
   10CHTO  H178 3891   2.807   7.175   1.585
   10CHTO   C92 3892   2.619   7.278   1.564
   10CHTO  H179 3893   2.583   7.370   1.515
   10CHTO   O66 3894   2.565   7.168   1.487
   10CHTO  H166 3895   2.581   7.181   1.396
   10CHTO   C93 3896   2.569   7.270   1.713
   10CHTO  H180 3897   2.591   7.168   1.748
   10CHTO   N16 3898   2.422   7.288   1.727
   10CHTO  H172 3899   2.378   7.202   1.775
   10CHTO  H173 3900   2.398   7.378   1.783
   10CHTO   C94 3901   2.649   7.372   1.803
   10CHTO  H181 3902   2.628   7.476   1.776
   10CHTO   O61 3903   2.791   7.355   1.784
   10CHTO   C95 3904   2.835   7.383   1.650
   10CHTO  H182 3905   2.801   7.481   1.620
   10CHTO  C106 3906   2.991   7.388   1.656
   10CHTO   O69 3907   3.046   7.442   1.535
   10CHTO  H169 3908   3.139   7.442   1.540
   10CHTO   O63 3909   2.613   7.353   1.963
   10CHTO   C96 3910   2.704   7.255   2.053
   10CHTO  H183 3911   2.806   7.257   2.015
   10CHTO   C98 3912   2.656   7.106   2.054
   10CHTO  H185 3913   2.546   7.104   2.058
   10CHTO   O67 3914   2.691   7.047   1.928
   10CHTO  H167 3915   2.643   7.087   1.858
   10CHTO  C102 3916   2.716   7.019   2.176
   10CHTO  H189 3917   2.823   7.006   2.153
   10CHTO   N18 3918   2.660   6.882   2.187
   10CHTO  H176 3919   2.708   6.829   2.269
   10CHTO  H177 3920   2.677   6.827   2.095
   10CHTO  C105 3921   2.703   7.100   2.307
   10CHTO  H192 3922   2.597   7.116   2.329
   10CHTO   O65 3923   2.768   7.228   2.294
   10CHTO  C100 3924   2.705   7.315   2.199
   10CHTO  H187 3925   2.601   7.332   2.230
   10CHTO  C107 3926   2.778   7.452   2.200
   10CHTO   O70 3927   2.757   7.521   2.324
   10CHTO  H170 3928   2.797   7.473   2.395
   10CHTO   O57 3929   2.774   7.015   2.430
   10CHTO   C85 3930   2.707   7.014   2.558
   10CHTO  H157 3931   2.599   7.003   2.535
   10CHTO   C83 3932   2.722   7.154   2.626
   10CHTO  H155 3933   2.676   7.228   2.561
   10CHTO   O56 3934   2.862   7.188   2.634
   10CHTO  H135 3935   2.872   7.276   2.667
   10CHTO   C81 3936   2.648   7.153   2.762
   10CHTO  H153 3937   2.544   7.126   2.743
   10CHTO   N14 3938   2.639   7.287   2.826
   10CHTO  H141 3939   2.737   7.322   2.850
   10CHTO  H142 3940   2.593   7.356   2.759
   10CHTO   C79 3941   2.710   7.043   2.857
   10CHTO  H151 3942   2.648   7.039   0.070
   10CHTO   O52 3943   2.701   6.912   2.793
   10CHTO   C86 3944   2.758   6.902   2.659
   10CHTO  H158 3945   2.868   6.908   2.675
   10CHTO   C90 3946   2.730   6.759   2.606
   10CHTO   O60 3947   2.799   6.732   2.484
   10CHTO  H138 3948   2.776   6.647   2.453
   10CHTO   O50 3949   2.846   7.070   0.020
   10CHTO   C73 3950   2.917   7.026   0.137
   10CHTO  H145 3951   2.889   6.923   0.163
   10CHTO   C74 3952   2.883   7.119   0.259
   10CHTO  H146 3953   2.774   7.115   0.273
   10CHTO   O54 3954   2.941   7.060   0.377
   10CHTO  H133 3955   2.915   7.109   0.453
   10CHTO   C75 3956   2.934   7.265   0.228
   10CHTO  H147 3957   2.882   7.303   0.139
   10CHTO   N13 3958   2.904   7.362   0.337
   10CHTO  H139 3959   2.840   7.441   0.299
   10CHTO  H140 3960   2.994   7.407   0.377
   10CHTO   C76 3961   3.090   7.260   0.192
   10CHTO  H148 3962   3.145   7.229   0.281
   10CHTO   O49 3963   3.114   7.165   0.084
   10CHTO   C77 3964   3.070   7.031   0.110
   10CHTO  H149 3965   3.123   6.989   0.195
   10CHTO   C88 3966   3.108   6.944   2.865
   10CHTO   O58 3967   3.254   6.951   2.835
   10CHTO  H136 3968   3.303   6.910   0.028
   10CHTO   O51 3969   3.142   7.398   0.132
   10CHTO   C78 3970   3.302   7.402   0.120
   10CHTO  H150 3971   3.346   7.301   0.139
   10CHTO   C80 3972   3.357   7.500   0.225
   10CHTO  H152 3973   3.306   7.599   0.212
   10CHTO   O55 3974   3.321   7.447   0.354
   10CHTO  H134 3975   3.294   7.516   0.412
   10CHTO   C84 3976   3.513   7.520   0.210
   10CHTO  H156 3977   3.561   7.425   0.231
   10CHTO   N15 3978   3.568   7.620   0.308
   10CHTO  H143 3979   3.674   7.628   0.296
   10CHTO  H144 3980   3.524   7.716   0.291
   10CHTO   C87 3981   3.545   7.559   0.063
   10CHTO  H159 3982   3.500   7.656   0.041
   10CHTO   O53 3983   3.486   7.452   2.845
   10CHTO   C82 3984   3.343   7.444   2.854
   10CHTO  H154 3985   3.298   7.540   2.827
   10CHTO   C89 3986   3.297   7.342   2.747
   10CHTO   O59 3987   3.155   7.345   2.725
   10CHTO  H137 3988   3.110   7.315   2.802
   10CHTO   O45 3989   3.709   7.565   0.037
   10CHTO   C67 3990   3.752   7.659   2.813
   10CHTO  H124 3991   3.695   7.647   2.721
   10CHTO   C65 3992   3.736   7.806   2.864
   10CHTO  H122 3993   3.636   7.813   0.030
   10CHTO   O44 3994   3.744   7.899   2.755
   10CHTO  H102 3995   3.831   7.900   2.719
   10CHTO   C63 3996   3.834   7.830   0.108
   10CHTO  H120 3997   3.817   7.753   0.183
   10CHTO   N11 3998   3.809   7.955   0.187
   10CHTO  H108 3999   3.830   8.041   0.127
   10CHTO  H109 4000   3.708   7.958   0.221
   10CHTO   C61 4001   3.983   7.812   0.059
   10CHTO  H118 4002   4.042   7.808   0.151
   10CHTO   O40 4003   4.004   7.685   2.867
   10CHTO   C68 4004   3.904   7.628   2.776
   10CHTO  H125 4005   3.915   7.518   2.788
   10CHTO   C72 4006   3.941   7.659   2.629
   10CHTO   O48 4007   3.951   7.798   2.596
   10CHTO  H105 4008   3.975   7.807   2.506
   10CHTO   O38 4009   4.027   7.920   2.849
   10CHTO   C55 4010   4.157   7.982   2.862
   10CHTO  H112 4011   4.232   7.907   2.834
   10CHTO   C56 4012   4.184   8.043   0.133
   10CHTO  H113 4013   4.088   8.083   0.168
   10CHTO   O42 4014   4.220   7.937   0.223
   10CHTO  H100 4015   4.222   7.969   0.311
   10CHTO   C57 4016   4.295   8.156   0.136
   10CHTO  H114 4017   4.392   8.107   0.122
   10CHTO   N10 4018   4.300   8.230   0.265
   10CHTO  H106 4019   4.202   8.235   0.309
   10CHTO  H107 4020   4.367   8.180   0.333
   10CHTO   C58 4021   4.272   8.253   0.018
   10CHTO  H115 4022   4.171   8.300   0.028
   10CHTO   O37 4023   4.278   8.179   2.771
   10CHTO   C59 4024   4.164   8.093   2.752
   10CHTO  H116 4025   4.073   8.153   2.753
   10CHTO   C70 4026   4.177   8.030   2.613
   10CHTO   O46 4027   4.167   8.125   2.507
   10CHTO  H103 4028   4.078   8.156   2.500
   10CHTO   O39 4029   4.389   8.371   0.006
   10CHTO   C60 4030   4.336   8.505   2.875
   10CHTO  H117 4031   4.227   8.503   2.876
   10CHTO   C62 4032   4.381   8.590   0.121
   10CHTO  H119 4033   4.342   8.537   0.211
   10CHTO   O43 4034   4.525   8.592   0.130
   10CHTO  H101 4035   4.562   8.635   0.056
   10CHTO   C66 4036   4.315   8.736   0.112
   10CHTO  H123 4037   4.207   8.725   0.106
   10CHTO   N12 4038   4.340   8.817   0.234
   10CHTO  H110 4039   4.300   8.766   0.321
   10CHTO  H111 4040   4.295   8.915   0.224
   10CHTO   C69 4041   4.364   8.806   2.859
   10CHTO  H126 4042   4.475   8.818   2.862
   10CHTO   O41 4043   4.324   8.717   2.734
   10CHTO   C64 4044   4.379   8.573   2.742
   10CHTO  H121 4045   4.490   8.575   2.737
   10CHTO   C71 4046   4.330   8.493   2.618
   10CHTO   O47 4047   4.187   8.484   2.612
   10CHTO  H104 4048   4.150   8.569   2.600
   10CHTO   O34 4049   4.300   8.952   2.840
   10CHTO   C49 4050   4.183   9.032   2.779
   10CHTO   H91 4051   4.197   9.134   2.814
   10CHTO   C47 4052   4.047   8.980   2.832
   10CHTO   H89 4053   4.047   9.007   0.065
   10CHTO   O33 4054   4.039   8.837   2.821
   10CHTO   H70 4055   4.043   8.810   2.731
   10CHTO   C45 4056   3.922   9.043   2.752
   10CHTO   H87 4057   3.879   8.964   2.689
   10CHTO    N8 4058   3.817   9.086   2.848
   10CHTO   H75 4059   3.783   9.187   2.826
   10CHTO   H76 4060   3.733   9.018   2.846
   10CHTO   C43 4061   3.966   9.155   2.645
   10CHTO   H85 4062   3.876   9.179   2.588
   10CHTO   O29 4063   4.070   9.101   2.560
   10CHTO   C50 4064   4.181   9.033   2.624
   10CHTO   H92 4065   4.184   8.929   2.589
   10CHTO   C54 4066   4.313   9.093   2.569
   10CHTO   O36 4067   4.329   9.066   2.429
   10CHTO   H72 4068   4.263   9.111   2.380
   10CHTO   O27 4069   4.009   9.278   2.706
   10CHTO   C37 4070   4.052   9.407   2.662
   10CHTO   H79 4071   4.139   9.398   2.594
   10CHTO   C38 4072   3.940   9.483   2.583
   10CHTO   H80 4073   3.849   9.484   2.646
   10CHTO   O31 4074   3.912   9.410   2.462
   10CHTO   H68 4075   3.870   9.328   2.483
   10CHTO   C39 4076   3.981   9.631   2.548
   10CHTO   H81 4077   4.053   9.625   2.466
   10CHTO    N7 4078   3.867   9.715   2.497
   10CHTO   H73 4079   3.789   9.719   2.572
   10CHTO   H74 4080   3.900   9.815   2.474
   10CHTO   C40 4081   4.055   9.705   2.667
   10CHTO   H82 4082   3.984   9.751   2.737
   10CHTO   O26 4083   4.149   9.620   2.734
   10CHTO   C41 4084   4.093   9.495   2.783
   10CHTO   H83 4085   4.004   9.515   2.845
   10CHTO   C52 4086   4.197   9.425   2.873
   10CHTO   O35 4087   4.228   9.503   0.118
   10CHTO   H71 4088   4.281   9.451   0.176
   10CHTO   O28 4089   4.141   9.807   2.613
   10CHTO   C42 4090   4.176   9.930   2.683
   10CHTO   H84 4091   4.141   9.916   2.786
   10CHTO   C44 4092   4.104   0.059   2.629
   10CHTO   H86 4093   4.119   0.064   2.521
   10CHTO   O32 4094   3.963   0.042   2.652
   10CHTO   H69 4095   3.929   9.973   2.599
   10CHTO   C48 4096   4.159   0.193   2.692
   10CHTO   H90 4097   4.129   0.197   2.797
   10CHTO    N9 4098   4.098   0.316   2.629
   10CHTO   H77 4099   4.027   0.290   2.552
   10CHTO   H78 4100   4.174   0.381   2.589
   10CHTO   C51 4101   4.316   0.192   2.684
   10CHTO   H93 4102   4.343   0.186   2.579
   10CHTO   O30 4103   4.362   0.078   2.758
   10CHTO   C46 4104   4.330   9.950   2.690
   10CHTO   H88 4105   4.370   9.954   2.589
   10CHTO   C53 4106   4.402   9.837   2.768
   10CHTO   O72 4107   4.362   9.831   0.030
   10CHTO  H199 4108   4.272   9.808   0.036
   10CHTO   O22 4109   4.381   0.305   2.747
   10CHTO   C31 4110   4.512   0.350   2.695
   10CHTO   H59 4111   4.551   0.422   2.771
   10CHTO   C29 4112   4.618   0.237   2.681
   10CHTO   H57 4113   4.571   0.155   2.626
   10CHTO   O21 4114   4.646   0.187   2.813
   10CHTO   H37 4115   4.569   0.149   2.851
   10CHTO   C27 4116   4.748   0.282   2.604
   10CHTO   H55 4117   4.800   0.357   2.665
   10CHTO    N5 4118   4.841   0.169   2.578
   10CHTO   H43 4119   4.872   0.125   2.672
   10CHTO   H44 4120   4.792   0.095   2.517
   10CHTO   C25 4121   4.704   0.353   2.471
   10CHTO   H53 4122   4.643   0.282   2.412
   10CHTO   O17 4123   4.622   0.469   2.505
   10CHTO   C32 4124   4.496   0.433   2.563
   10CHTO   H60 4125   4.440   0.373   2.490
   10CHTO   C36 4126   4.415   0.563   2.586
   10CHTO   O25 4127   4.483   0.655   2.674
   10CHTO   H40 4128   4.488   0.618   2.760
   10CHTO   O15 4129   4.822   0.401   2.386
   10CHTO   C19 4130   4.830   0.427   2.243
   10CHTO   H47 4131   4.759   0.355   2.199
   10CHTO   C20 4132   4.783   0.571   2.201
   10CHTO   H48 4133   4.830   0.649   2.263
   10CHTO   O19 4134   4.641   0.576   2.224
   10CHTO   H35 4135   4.624   0.577   2.317
   10CHTO   C21 4136   4.817   0.604   2.050
   10CHTO   H49 4137   4.759   0.537   1.986
   10CHTO    N4 4138   4.780   0.743   2.009
   10CHTO   H41 4139   4.867   0.800   1.980
   10CHTO   H42 4140   4.728   0.794   2.088
   10CHTO   C22 4141   4.966   0.571   2.028
   10CHTO   H50 4142   5.024   0.629   2.101
   10CHTO   O14 4143   4.986   0.430   2.050
   10CHTO   C23 4144   4.970   0.389   2.187
   10CHTO   H51 4145   5.052   0.436   2.244
   10CHTO   C34 4146   4.988   0.237   2.194
   10CHTO   O23 4147   5.116   0.194   2.145
   10CHTO   H38 4148   5.183   0.223   2.204
   10CHTO   O16 4149   5.014   0.596   1.894
   10CHTO   C24 4150   5.170   0.637   1.894
   10CHTO   H52 4151   5.219   0.615   1.989
   10CHTO   C26 4152   5.183   0.788   1.864
   10CHTO   H54 4153   5.128   0.810   1.770
   10CHTO   O20 4154   5.121   0.861   1.971
   10CHTO   H36 4155   5.028   0.848   1.970
   10CHTO   C30 4156   5.333   0.829   1.845
   10CHTO   H58 4157   5.386   0.819   1.941
   10CHTO    N6 4158   5.348   0.972   1.805
   10CHTO   H45 4159   5.252   1.020   1.793
   10CHTO   H46 4160   5.406   1.025   1.879
   10CHTO   C33 4161   5.405   0.733   1.745
   10CHTO   H61 4162   5.366   0.748   1.643
   10CHTO   O18 4163   5.382   0.596   1.783
   10CHTO   C28 4164   5.245   0.555   1.786
   10CHTO   H56 4165   5.197   0.573   1.689
   10CHTO   C35 4166   5.238   0.403   1.816
   10CHTO   O24 4167   5.295   0.367   1.943
   10CHTO   H39 4168   5.387   0.383   1.942
   10CHTO    O9 4169   5.547   0.762   1.737
   10CHTO   C13 4170   5.627   0.695   1.611
   10CHTO   H26 4171   5.567   0.714   1.519
   10CHTO   C11 4172   5.648   0.539   1.637
   10CHTO   H24 4173   5.549   0.490   1.626
   10CHTO    O8 4174   5.693   0.517   1.771
   10CHTO    H3 4175   5.696   0.426   1.790
   10CHTO    C9 4176   5.742   0.483   1.528
   10CHTO   H22 4177   5.695   0.507   1.432
   10CHTO    N2 4178   5.752   0.335   1.529
   10CHTO   H10 4179   5.654   0.291   1.524
   10CHTO   H11 4180   5.813   0.301   1.446
   10CHTO    C7 4181   5.881   0.557   1.536
   10CHTO   H20 4182   5.940   0.513   1.453
   10CHTO    O4 4183   5.863   0.698   1.511
   10CHTO   C14 4184   5.765   0.771   1.588
   10CHTO   H27 4185   5.743   0.862   1.528
   10CHTO   C18 4186   5.828   0.820   1.722
   10CHTO   O13 4187   5.938   0.909   1.700
   10CHTO    H7 4188   6.010   0.862   1.663
   10CHTO    O2 4189   5.959   0.537   1.683
   10CHTO    C1 4190   6.098   0.498   1.685
   10CHTO   H14 4191   6.139   0.530   1.783
   10CHTO    C2 4192   6.191   0.557   1.572
   10CHTO   H15 4193   6.146   0.533   1.475
   10CHTO    O6 4194   6.194   0.700   1.590
   10CHTO    H1 4195   6.240   0.740   1.519
   10CHTO    C3 4196   6.338   0.491   1.582
   10CHTO   H16 4197   6.380   0.514   1.681
   10CHTO    N1 4198   6.432   0.546   1.479
   10CHTO    H8 4199   6.516   0.593   1.527
   10CHTO    H9 4200   6.467   0.467   1.413
   10CHTO    C4 4201   6.322   0.334   1.577
   10CHTO   H17 4202   6.277   0.306   1.481
   10CHTO    O1 4203   6.239   0.291   1.686
   10CHTO    C5 4204   6.105   0.342   1.688
   10CHTO   H18 4205   6.051   0.304   1.601
   10CHTO   C16 4206   6.038   0.285   1.815
   10CHTO   O11 4207   6.111   0.321   1.934
   10CHTO    H5 4208   6.068   0.286   2.009
   10CHTO    O3 4209   6.447   0.265   1.594
   10CHTO    C6 4210   6.443   0.118   1.583
   10CHTO   H19 4211   6.342   0.078   1.593
   10CHTO    C8 4212   6.500   0.072   1.446
   10CHTO   H21 4213   6.596   0.122   1.429
   10CHTO    O7 4214   6.406   0.114   1.344
   10CHTO    H2 4215   6.325   0.068   1.354
   10CHTO   C12 4216   6.524   9.915   1.443
   10CHTO   H25 4217   6.423   9.868   1.444
   10CHTO    N3 4218   6.591   9.873   1.314
   10CHTO   H12 4219   6.532   9.797   1.265
   10CHTO   H13 4220   6.691   9.838   1.333
   10CHTO   C15 4221   6.601   9.870   1.572
   10CHTO   H28 4222   6.704   9.907   1.572
   10CHTO   O10 4223   6.602   9.716   1.591
   10CHTO    H4 4224   6.660   9.693   1.661
   10CHTO    O5 4225   6.532   9.915   1.689
   10CHTO   C10 4226   6.526   0.058   1.700
   10CHTO   H23 4227   6.628   0.098   1.697
   10CHTO   C17 4228   6.467   0.093   1.837
   10CHTO   O12 4229   6.551   0.045   1.943
   10CHTO    H6 4230   6.629   0.098   1.948
   11CHTO  H203 4231   5.967   5.050   0.869
   11CHTO   O82 4232   6.016   5.130   0.873
   11CHTO  C123 4233   6.066   5.150   1.007
   11CHTO  H227 4234   6.133   5.066   1.033
   11CHTO   O77 4235   6.144   5.273   0.994
   11CHTO  C118 4236   6.206   5.317   1.116
   11CHTO  H222 4237   6.267   5.237   1.159
   11CHTO  C125 4238   6.299   5.440   1.083
   11CHTO   O84 4239   6.407   5.400   0.998
   11CHTO  H205 4240   6.375   5.377   0.913
   11CHTO  C114 4241   6.095   5.356   1.215
   11CHTO  H218 4242   6.031   5.431   1.169
   11CHTO  C116 4243   6.005   5.232   1.246
   11CHTO  H220 4244   6.065   5.157   1.303
   11CHTO   O79 4245   5.898   5.272   1.334
   11CHTO  H201 4246   5.847   5.198   1.359
   11CHTO  C120 4247   5.950   5.168   1.112
   11CHTO  H224 4248   5.874   5.239   1.073
   11CHTO   N21 4249   5.879   5.040   1.139
   11CHTO  H211 4250   5.802   5.024   1.065
   11CHTO  H212 4251   5.949   4.957   1.140
   11CHTO   O75 4252   6.161   5.410   1.331
   11CHTO  C112 4253   6.076   5.530   1.421
   11CHTO  H216 4254   6.057   5.492   1.522
   11CHTO   O73 4255   5.953   5.559   1.352
   11CHTO  C113 4256   5.868   5.652   1.420
   11CHTO  H217 4257   5.847   5.615   1.523
   11CHTO  C124 4258   5.734   5.655   1.344
   11CHTO   O83 4259   5.670   5.527   1.343
   11CHTO  H204 4260   5.626   5.515   1.261
   11CHTO  C109 4261   5.936   5.791   1.426
   11CHTO  H213 4262   5.946   5.825   1.322
   11CHTO  C110 4263   6.077   5.778   1.491
   11CHTO  H214 4264   6.064   5.761   1.598
   11CHTO   O78 4265   6.145   5.905   1.477
   11CHTO  H200 4266   6.101   5.971   1.527
   11CHTO  C111 4267   6.161   5.662   1.429
   11CHTO  H215 4268   6.189   5.690   1.327
   11CHTO   N19 4269   6.288   5.637   1.503
   11CHTO  H207 4270   6.373   5.641   1.435
   11CHTO  H208 4271   6.287   5.542   1.554
   11CHTO   O74 4272   5.854   5.886   1.500
   11CHTO  C115 4273   5.816   6.016   1.416
   11CHTO  H219 4274   5.888   6.035   1.337
   11CHTO   O76 4275   5.677   5.998   1.341
   11CHTO  C122 4276   5.568   5.976   1.431
   11CHTO  H226 4277   5.578   5.874   1.471
   11CHTO  C126 4278   5.434   5.976   1.349
   11CHTO   O85 4279   5.430   5.875   1.248
   11CHTO  H206 4280   5.433   5.790   1.287
   11CHTO  C121 4281   5.562   6.080   1.551
   11CHTO  H225 4282   5.460   6.124   1.556
   11CHTO   O81 4283   5.586   6.014   1.676
   11CHTO  H202 4284   5.519   5.949   1.691
   11CHTO  C119 4285   5.665   6.196   1.527
   11CHTO  H223 4286   5.639   6.234   1.427
   11CHTO  C117 4287   5.812   6.139   1.517
   11CHTO  H221 4288   5.853   6.101   1.610
   11CHTO   N20 4289   5.907   6.247   1.475
   11CHTO  H209 4290   6.008   6.209   1.472
   11CHTO  H210 4291   5.880   6.285   1.377
   11CHTO   O80 4292   5.640   6.325   1.615
   11CHTO  C103 4293   5.664   6.322   1.769
   11CHTO  H190 4294   5.659   6.220   1.808
   11CHTO  C101 4295   5.799   6.390   1.817
   11CHTO  H188 4296   5.820   6.475   1.752
   11CHTO   O68 4297   5.915   6.288   1.801
   11CHTO  H168 4298   5.926   6.266   1.710
   11CHTO   C99 4299   5.792   6.443   1.968
   11CHTO  H186 4300   5.786   6.357   2.036
   11CHTO   N17 4301   5.913   6.522   2.011
   11CHTO  H174 4302   5.979   6.541   1.928
   11CHTO  H175 4303   5.884   6.615   2.060
   11CHTO   C97 4304   5.659   6.522   1.987
   11CHTO  H184 4305   5.660   6.607   1.917
   11CHTO   O64 4306   5.550   6.432   1.961
   11CHTO  C104 4307   5.537   6.400   1.822
   11CHTO  H191 4308   5.523   6.490   1.762
   11CHTO  C108 4309   5.410   6.316   1.803
   11CHTO   O71 4310   5.293   6.389   1.842
   11CHTO  H171 4311   5.219   6.332   1.841
   11CHTO   O62 4312   5.634   6.566   2.122
   11CHTO   C91 4313   5.534   6.670   2.131
   11CHTO  H178 4314   5.468   6.662   2.045
   11CHTO   C92 4315   5.602   6.811   2.121
   11CHTO  H179 4316   5.672   6.812   2.036
   11CHTO   O66 4317   5.501   6.908   2.087
   11CHTO  H166 4318   5.433   6.909   2.151
   11CHTO   C93 4319   5.671   6.856   2.255
   11CHTO  H180 4320   5.687   6.965   2.247
   11CHTO   N16 4321   5.807   6.798   2.272
   11CHTO  H172 4322   5.813   6.738   2.362
   11CHTO  H173 4323   5.881   6.876   2.274
   11CHTO   C94 4324   5.577   6.827   2.380
   11CHTO  H181 4325   5.616   6.748   2.443
   11CHTO   O61 4326   5.445   6.784   2.339
   11CHTO   C95 4327   5.445   6.662   2.263
   11CHTO  H182 4328   5.482   6.581   2.326
   11CHTO  C106 4329   5.296   6.624   2.228
   11CHTO   O69 4330   5.232   6.724   2.148
   11CHTO  H169 4331   5.224   6.804   2.197
   11CHTO   O63 4332   5.559   6.962   2.465
   11CHTO   C96 4333   5.686   7.001   2.556
   11CHTO  H183 4334   5.777   6.981   2.499
   11CHTO   C98 4335   5.696   6.925   2.691
   11CHTO  H185 4336   5.600   6.930   2.744
   11CHTO   O67 4337   5.717   6.786   2.660
   11CHTO  H167 4338   5.644   6.750   2.614
   11CHTO  C102 4339   5.816   6.979   2.783
   11CHTO  H189 4340   5.908   6.950   2.730
   11CHTO   N18 4341   5.824   6.916   0.041
   11CHTO  H176 4342   5.909   6.957   0.095
   11CHTO  H177 4343   5.837   6.810   0.030
   11CHTO  C105 4344   5.813   7.135   2.791
   11CHTO  H192 4345   5.731   7.166   2.856
   11CHTO   O65 4346   5.795   7.198   2.663
   11CHTO  C100 4347   5.682   7.156   2.585
   11CHTO  H187 4348   5.590   7.179   2.640
   11CHTO  C107 4349   5.679   7.236   2.453
   11CHTO   O70 4350   5.645   7.373   2.477
   11CHTO  H170 4351   5.644   7.419   2.395
   11CHTO   O57 4352   5.961   7.181   2.855
   11CHTO   C85 4353   5.975   7.298   0.061
   11CHTO  H157 4354   5.874   7.322   0.100
   11CHTO   C83 4355   6.017   7.421   2.850
   11CHTO  H155 4356   5.932   7.446   2.786
   11CHTO   O56 4357   6.125   7.385   2.762
   11CHTO  H135 4358   6.202   7.364   2.811
   11CHTO   C81 4359   6.049   7.544   0.064
   11CHTO  H153 4360   5.962   7.565   0.126
   11CHTO   N14 4361   6.072   7.670   2.865
   11CHTO  H141 4362   6.084   7.752   0.056
   11CHTO  H142 4363   6.160   7.661   2.804
   11CHTO   C79 4364   6.169   7.508   0.160
   11CHTO  H151 4365   6.185   7.594   0.225
   11CHTO   O52 4366   6.129   7.398   0.247
   11CHTO   C86 4367   6.080   7.277   0.179
   11CHTO  H158 4368   6.172   7.227   0.141
   11CHTO   C90 4369   6.019   7.180   0.283
   11CHTO   O60 4370   6.113   7.145   0.385
   11CHTO  H138 4371   6.123   7.217   0.445
   11CHTO   O50 4372   6.292   7.479   0.091
   11CHTO   C73 4373   6.432   7.477   0.124
   11CHTO  H145 4374   6.447   7.426   0.221
   11CHTO   C74 4375   6.489   7.622   0.136
   11CHTO  H146 4376   6.428   7.675   0.211
   11CHTO   O54 4377   6.622   7.614   0.191
   11CHTO  H133 4378   6.620   7.582   0.279
   11CHTO   C75 4379   6.483   7.693   2.871
   11CHTO  H147 4380   6.378   7.700   2.840
   11CHTO   N13 4381   6.534   7.831   2.871
   11CHTO  H139 4382   6.638   7.833   0.026
   11CHTO  H140 4383   6.477   7.891   0.065
   11CHTO   C76 4384   6.558   7.603   2.762
   11CHTO  H148 4385   6.664   7.600   2.787
   11CHTO   O49 4386   6.504   7.467   2.763
   11CHTO   C77 4387   6.513   7.402   0.014
   11CHTO  H149 4388   6.617   7.395   0.046
   11CHTO   C88 4389   6.465   7.257   0.001
   11CHTO   O58 4390   6.540   7.185   2.770
   11CHTO  H136 4391   6.522   7.223   2.686
   11CHTO   O51 4392   6.531   7.657   2.611
   11CHTO   C78 4393   6.654   7.629   2.509
   11CHTO  H150 4394   6.728   7.559   2.554
   11CHTO   C80 4395   6.725   7.762   2.476
   11CHTO  H152 4396   6.649   7.836   2.444
   11CHTO   O55 4397   6.785   7.809   2.598
   11CHTO  H134 4398   6.822   7.895   2.584
   11CHTO   C84 4399   6.831   7.745   2.360
   11CHTO  H156 4400   6.910   7.678   2.396
   11CHTO   N15 4401   6.897   7.875   2.322
   11CHTO  H143 4402   6.871   7.905   2.223
   11CHTO  H144 4403   7.003   7.866   2.329
   11CHTO   C87 4404   6.764   7.677   2.238
   11CHTO  H159 4405   6.687   7.742   2.197
   11CHTO   O53 4406   6.702   7.543   2.284
   11CHTO   C82 4407   6.598   7.562   2.382
   11CHTO  H154 4408   6.519   7.624   2.339
   11CHTO   C89 4409   6.534   7.425   2.415
   11CHTO   O59 4410   6.629   7.329   2.464
   11CHTO  H137 4411   6.585   7.248   2.480
   11CHTO   O45 4412   6.876   7.644   2.120
   11CHTO   C67 4413   6.819   7.619   1.990
   11CHTO  H124 4414   6.724   7.566   2.003
   11CHTO   C65 4415   6.793   7.752   1.910
   11CHTO  H122 4416   6.864   7.825   1.949
   11CHTO   O44 4417   6.660   7.794   1.943
   11CHTO  H102 4418   6.643   7.879   1.908
   11CHTO   C63 4419   6.829   7.739   1.756
   11CHTO  H120 4420   6.938   7.741   1.746
   11CHTO   N11 4421   6.790   7.855   1.668
   11CHTO  H108 4422   6.684   7.861   1.661
   11CHTO  H109 4423   6.829   7.946   1.709
   11CHTO   C61 4424   6.781   7.598   1.705
   11CHTO  H118 4425   6.814   7.589   1.600
   11CHTO   O40 4426   6.843   7.488   1.778
   11CHTO   C68 4427   6.910   7.521   1.905
   11CHTO  H125 4428   7.006   7.571   1.882
   11CHTO   C72 4429   6.945   7.390   1.982
   11CHTO   O48 4430   6.830   7.316   2.025
   11CHTO  H105 4431   6.859   7.238   2.068
   11CHTO   O38 4432   6.638   7.587   1.714
   11CHTO   C55 4433   6.577   7.478   1.642
   11CHTO  H112 4434   6.650   7.398   1.623
   11CHTO   C56 4435   6.511   7.531   1.508
   11CHTO  H113 4436   6.447   7.616   1.535
   11CHTO   O42 4437   6.614   7.583   1.422
   11CHTO  H100 4438   6.653   7.660   1.460
   11CHTO   C57 4439   6.428   7.418   1.436
   11CHTO  H114 4440   6.499   7.345   1.398
   11CHTO   N10 4441   6.349   7.467   1.320
   11CHTO  H106 4442   6.408   7.461   1.230
   11CHTO  H107 4443   6.318   7.569   1.335
   11CHTO   C58 4444   6.335   7.347   1.538
   11CHTO  H115 4445   6.250   7.414   1.564
   11CHTO   O37 4446   6.403   7.308   1.658
   11CHTO   C59 4447   6.466   7.414   1.730
   11CHTO  H116 4448   6.391   7.489   1.758
   11CHTO   C70 4449   6.522   7.356   1.860
   11CHTO   O46 4450   6.615   7.249   1.838
   11CHTO  H103 4451   6.652   7.221   1.920
   11CHTO   O39 4452   6.280   7.207   1.477
   11CHTO   C60 4453   6.157   7.163   1.536
   11CHTO  H117 4454   6.133   7.223   1.624
   11CHTO   C62 4455   6.041   7.180   1.433
   11CHTO  H119 4456   6.037   7.288   1.408
   11CHTO   O43 4457   6.073   7.106   1.313
   11CHTO  H101 4458   6.019   7.136   1.242
   11CHTO   C66 4459   5.903   7.136   1.502
   11CHTO  H123 4460   5.888   7.196   1.592
   11CHTO   N12 4461   5.785   7.162   1.415
   11CHTO  H110 4462   5.721   7.237   1.460
   11CHTO  H111 4463   5.815   7.190   1.315
   11CHTO   C69 4464   5.913   6.987   1.547
   11CHTO  H126 4465   5.925   6.922   1.458
   11CHTO   O41 4466   6.034   6.969   1.642
   11CHTO   C64 4467   6.167   7.015   1.584
   11CHTO  H121 4468   6.194   6.951   1.497
   11CHTO   C71 4469   6.275   6.999   1.693
   11CHTO   O47 4470   6.297   6.861   1.722
   11CHTO  H104 4471   6.367   6.853   1.784
   11CHTO   O34 4472   5.785   6.942   1.623
   11CHTO   C49 4473   5.688   6.833   1.661
   11CHTO   H91 4474   5.719   6.794   1.758
   11CHTO   C47 4475   5.693   6.721   1.555
   11CHTO   H89 4476   5.625   6.640   1.590
   11CHTO   O33 4477   5.827   6.669   1.551
   11CHTO   H70 4478   5.832   6.596   1.492
   11CHTO   C45 4479   5.642   6.780   1.414
   11CHTO   H87 4480   5.710   6.862   1.386
   11CHTO    N8 4481   5.648   6.677   1.306
   11CHTO   H75 4482   5.626   6.722   1.211
   11CHTO   H76 4483   5.578   6.598   1.327
   11CHTO   C43 4484   5.497   6.849   1.428
   11CHTO   H85 4485   5.482   6.906   1.336
   11CHTO   O29 4486   5.489   6.934   1.545
   11CHTO   C50 4487   5.544   6.889   1.670
   11CHTO   H92 4488   5.549   6.977   1.737
   11CHTO   C54 4489   5.449   6.793   1.747
   11CHTO   O36 4490   5.326   6.858   1.783
   11CHTO   H72 4491   5.342   6.918   1.853
   11CHTO   O27 4492   5.389   6.754   1.432
   11CHTO   C37 4493   5.247   6.747   1.449
   11CHTO   H79 4494   5.221   6.748   1.555
   11CHTO   C38 4495   5.172   6.866   1.381
   11CHTO   H80 4496   5.199   6.868   1.275
   11CHTO   O31 4497   5.218   6.988   1.442
   11CHTO   H68 4498   5.183   7.062   1.397
   11CHTO   C39 4499   5.016   6.851   1.397
   11CHTO   H81 4500   4.994   6.868   1.503
   11CHTO    N7 4501   4.937   6.953   1.319
   11CHTO   H73 4502   4.891   7.024   1.386
   11CHTO   H74 4503   4.998   7.003   1.246
   11CHTO   C40 4504   4.967   6.705   1.363
   11CHTO   H82 4505   4.952   6.692   1.255
   11CHTO   O26 4506   5.053   6.604   1.417
   11CHTO   C41 4507   5.194   6.616   1.386
   11CHTO   H83 4508   5.208   6.618   1.277
   11CHTO   C52 4509   5.267   6.491   1.441
   11CHTO   O35 4510   5.222   6.367   1.374
   11CHTO   H71 4511   5.268   6.293   1.410
   11CHTO   O28 4512   4.842   6.680   1.431
   11CHTO   C42 4513   4.761   6.563   1.395
   11CHTO   H84 4514   4.822   6.503   1.328
   11CHTO   C44 4515   4.629   6.595   1.318
   11CHTO   H86 4516   4.564   6.654   1.383
   11CHTO   O32 4517   4.666   6.675   1.204
   11CHTO   H69 4518   4.589   6.701   1.157
   11CHTO   C48 4519   4.553   6.463   1.278
   11CHTO   H90 4520   4.614   6.411   1.203
   11CHTO    N9 4521   4.423   6.491   1.209
   11CHTO   H77 4522   4.404   6.598   1.203
   11CHTO   H78 4523   4.340   6.441   1.258
   11CHTO   C51 4524   4.536   6.367   1.402
   11CHTO   H93 4525   4.462   6.410   1.469
   11CHTO   O30 4526   4.663   6.349   1.467
   11CHTO   C46 4527   4.726   6.474   1.517
   11CHTO   H88 4528   4.654   6.526   1.582
   11CHTO   C53 4529   4.852   6.436   1.598
   11CHTO   O72 4530   4.818   6.362   1.716
   11CHTO  H199 4531   4.896   6.339   1.762
   11CHTO   O22 4532   4.494   6.236   1.358
   11CHTO   C31 4533   4.495   6.117   1.446
   11CHTO   H59 4534   4.539   6.149   1.543
   11CHTO   C29 4535   4.355   6.059   1.477
   11CHTO   H57 4536   4.308   6.032   1.381
   11CHTO   O21 4537   4.275   6.163   1.536
   11CHTO   H37 4538   4.259   6.231   1.474
   11CHTO   C27 4539   4.361   5.931   1.570
   11CHTO   H55 4540   4.391   5.962   1.670
   11CHTO    N5 4541   4.230   5.861   1.580
   11CHTO   H43 4542   4.202   5.820   1.484
   11CHTO   H44 4543   4.235   5.784   1.655
   11CHTO   C25 4544   4.474   5.832   1.521
   11CHTO   H53 4545   4.441   5.781   1.428
   11CHTO   O17 4546   4.599   5.901   1.492
   11CHTO   C32 4547   4.586   6.003   1.392
   11CHTO   H60 4548   4.541   5.961   1.302
   11CHTO   C36 4549   4.728   6.053   1.357
   11CHTO   O25 4550   4.804   5.951   1.292
   11CHTO   H40 4551   4.890   5.982   1.274
   11CHTO   O15 4552   4.507   5.726   1.629
   11CHTO   C19 4553   4.504   5.583   1.658
   11CHTO   H47 4554   4.605   5.562   1.696
   11CHTO   C20 4555   4.400   5.545   1.768
   11CHTO   H48 4556   4.299   5.580   1.743
   11CHTO   O19 4557   4.441   5.614   1.888
   11CHTO   H35 4558   4.428   5.706   1.879
   11CHTO   C21 4559   4.393   5.389   1.793
   11CHTO   H49 4560   4.489   5.356   1.834
   11CHTO    N4 4561   4.289   5.349   1.892
   11CHTO   H41 4562   4.214   5.287   1.847
   11CHTO   H42 4563   4.242   5.436   1.936
   11CHTO   C22 4564   4.377   5.319   1.655
   11CHTO   H50 4565   4.281   5.350   1.613
   11CHTO   O14 4566   4.484   5.356   1.566
   11CHTO   C23 4567   4.485   5.495   1.531
   11CHTO   H51 4568   4.390   5.516   1.479
   11CHTO   C34 4569   4.596   5.517   1.427
   11CHTO   O23 4570   4.727   5.484   1.476
   11CHTO   H38 4571   4.791   5.503   1.411
   11CHTO   O16 4572   4.384   5.175   1.665
   11CHTO   C24 4573   4.305   5.102   1.547
   11CHTO   H52 4574   4.287   5.169   1.463
   11CHTO   C26 4575   4.171   5.048   1.599
   11CHTO   H54 4576   4.192   4.975   1.681
   11CHTO   O20 4577   4.096   5.158   1.651
   11CHTO   H36 4578   4.020   5.127   1.696
   11CHTO   C30 4579   4.094   4.974   1.485
   11CHTO   H58 4580   4.060   5.049   1.412
   11CHTO    N6 4581   3.970   4.909   1.535
   11CHTO   H45 4582   3.994   4.829   1.603
   11CHTO   H46 4583   3.912   4.870   1.452
   11CHTO   C33 4584   4.185   4.874   1.407
   11CHTO   H61 4585   4.197   4.781   1.467
   11CHTO   O18 4586   4.318   4.926   1.382
   11CHTO   C28 4587   4.389   4.984   1.492
   11CHTO   H56 4588   4.403   4.910   1.572
   11CHTO   C35 4589   4.527   5.034   1.444
   11CHTO   O24 4590   4.613   4.926   1.405
   11CHTO   H39 4591   4.647   4.883   1.482
   11CHTO    O9 4592   4.121   4.832   1.285
   11CHTO   C13 4593   4.127   4.946   1.167
   11CHTO   H26 4594   4.158   5.043   1.213
   11CHTO   C11 4595   3.987   4.959   1.093
   11CHTO   H24 4596   3.911   4.986   1.169
   11CHTO    O8 4597   3.950   4.831   1.039
   11CHTO    H3 4598   4.010   4.806   0.971
   11CHTO    C9 4599   3.996   5.076   0.990
   11CHTO   H22 4600   3.994   5.168   1.051
   11CHTO    N2 4601   3.876   5.091   0.904
   11CHTO   H10 4602   3.819   5.178   0.931
   11CHTO   H11 4603   3.814   5.002   0.909
   11CHTO    C7 4604   4.136   5.073   0.915
   11CHTO   H20 4605   4.195   5.148   0.974
   11CHTO    O4 4606   4.200   4.945   0.924
   11CHTO   C14 4607   4.241   4.913   1.059
   11CHTO   H27 4608   4.329   4.977   1.082
   11CHTO   C18 4609   4.291   4.766   1.063
   11CHTO   O13 4610   4.190   4.672   1.026
   11CHTO    H7 4611   4.169   4.681   0.935
   11CHTO    O2 4612   4.137   5.122   0.756
   11CHTO    C1 4613   4.227   5.233   0.737
   11CHTO   H14 4614   4.303   5.235   0.818
   11CHTO    C2 4615   4.156   5.373   0.732
   11CHTO   H15 4616   4.087   5.371   0.645
   11CHTO    O6 4617   4.081   5.391   0.853
   11CHTO    H1 4618   4.028   5.468   0.847
   11CHTO    C3 4619   4.266   5.487   0.714
   11CHTO   H16 4620   4.327   5.489   0.805
   11CHTO    N1 4621   4.207   5.624   0.699
   11CHTO    H8 4622   4.148   5.648   0.786
   11CHTO    H9 4623   4.144   5.628   0.611
   11CHTO    C4 4624   4.366   5.452   0.596
   11CHTO   H17 4625   4.317   5.473   0.501
   11CHTO    O1 4626   4.412   5.316   0.600
   11CHTO    C5 4627   4.309   5.216   0.605
   11CHTO   H18 4628   4.242   5.230   0.521
   11CHTO   C16 4629   4.374   5.075   0.593
   11CHTO   O11 4630   4.461   5.046   0.703
   11CHTO    H5 4631   4.496   4.960   0.694
   11CHTO    O3 4632   4.485   5.532   0.613
   11CHTO    C6 4633   4.551   5.577   0.490
   11CHTO   H19 4634   4.526   5.516   0.403
   11CHTO    C8 4635   4.514   5.726   0.460
   11CHTO   H21 4636   4.531   5.784   0.551
   11CHTO    O7 4637   4.375   5.729   0.426
   11CHTO    H2 4638   4.346   5.818   0.416
   11CHTO   C12 4639   4.604   5.784   0.343
   11CHTO   H25 4640   4.573   5.732   0.250
   11CHTO    N3 4641   4.578   5.930   0.322
   11CHTO   H12 4642   4.475   5.945   0.293
   11CHTO   H13 4643   4.601   5.985   0.412
   11CHTO   C15 4644   4.755   5.751   0.370
   11CHTO   H28 4645   4.795   5.807   0.455
   11CHTO   O10 4646   4.846   5.776   0.245
   11CHTO    H4 4647   4.812   5.732   0.170
   11CHTO    O5 4648   4.773   5.610   0.393
   11CHTO   C10 4649   4.705   5.564   0.511
   11CHTO   H23 4650   4.736   5.625   0.596
   11CHTO   C17 4651   4.745   5.420   0.540
   11CHTO   O12 4652   4.887   5.406   0.557
   11CHTO    H6 4653   4.931   5.421   0.476
   12CHTO  H203 4654   5.038   1.884   0.236
   12CHTO   O82 4655   5.089   1.814   0.199
   12CHTO  C123 4656   5.098   1.705   0.292
   12CHTO  H227 4657   5.125   1.745   0.391
   12CHTO   O77 4658   4.962   1.651   0.296
   12CHTO  C118 4659   4.945   1.546   0.392
   12CHTO  H222 4660   4.975   1.583   0.491
   12CHTO  C125 4661   4.792   1.508   0.398
   12CHTO   O84 4662   4.742   1.463   0.271
   12CHTO  H205 4663   4.739   1.535   0.211
   12CHTO  C114 4664   5.033   1.426   0.353
   12CHTO  H218 4665   5.000   1.388   0.257
   12CHTO  C116 4666   5.183   1.467   0.337
   12CHTO  H220 4667   5.226   1.488   0.438
   12CHTO   O79 4668   5.256   1.354   0.286
   12CHTO  H201 4669   5.256   1.284   0.349
   12CHTO  C120 4670   5.199   1.594   0.245
   12CHTO  H224 4671   5.173   1.561   0.141
   12CHTO   N21 4672   5.339   1.643   0.243
   12CHTO  H211 4673   5.394   1.593   0.164
   12CHTO  H212 4674   5.342   1.750   0.227
   12CHTO   O75 4675   5.013   1.329   0.457
   12CHTO  C112 4676   4.994   1.180   0.399
   12CHTO  H216 4677   5.060   1.167   0.311
   12CHTO   O73 4678   4.856   1.166   0.364
   12CHTO  C113 4679   4.822   1.037   0.311
   12CHTO  H217 4680   4.888   1.014   0.225
   12CHTO  C124 4681   4.678   1.040   0.259
   12CHTO   O83 4682   4.660   1.132   0.151
   12CHTO  H204 4683   4.570   1.131   0.123
   12CHTO  C109 4684   4.843   0.931   0.423
   12CHTO  H213 4685   4.779   0.961   0.507
   12CHTO  C110 4686   4.992   0.931   0.465
   12CHTO  H214 4687   5.053   0.899   0.380
   12CHTO   O78 4688   5.010   0.834   0.570
   12CHTO  H200 4689   5.101   0.824   0.589
   12CHTO  C111 4690   5.035   1.074   0.509
   12CHTO  H215 4691   4.981   1.100   0.602
   12CHTO   N19 4692   5.180   1.085   0.540
   12CHTO  H207 4693   5.204   1.184   0.574
   12CHTO  H208 4694   5.238   1.061   0.452
   12CHTO   O74 4695   4.803   0.799   0.376
   12CHTO  C115 4696   4.682   0.731   0.462
   12CHTO  H219 4697   4.717   0.692   0.557
   12CHTO   O76 4698   4.566   0.839   0.499
   12CHTO  C122 4699   4.448   0.785   0.560
   12CHTO  H226 4700   4.374   0.866   0.563
   12CHTO  C126 4701   4.476   0.746   0.710
   12CHTO   O85 4702   4.517   0.858   0.789
   12CHTO  H206 4703   4.554   0.827   0.870
   12CHTO  C121 4704   4.388   0.665   0.478
   12CHTO  H225 4705   4.307   0.620   0.539
   12CHTO   O81 4706   4.330   0.712   0.356
   12CHTO  H202 4707   4.257   0.769   0.375
   12CHTO  C119 4708   4.496   0.555   0.449
   12CHTO  H223 4709   4.527   0.519   0.547
   12CHTO  C117 4710   4.623   0.613   0.377
   12CHTO  H221 4711   4.607   0.654   0.278
   12CHTO   N20 4712   4.728   0.506   0.359
   12CHTO  H209 4713   4.688   0.426   0.298
   12CHTO  H210 4714   4.758   0.467   0.455
   12CHTO   O80 4715   4.437   0.421   0.383
   12CHTO  C103 4716   4.330   0.342   0.453
   12CHTO  H190 4717   4.284   0.399   0.534
   12CHTO  C101 4718   4.217   0.288   0.357
   12CHTO  H188 4719   4.264   0.240   0.272
   12CHTO   O68 4720   4.133   0.409   0.305
   12CHTO  H168 4721   4.189   0.468   0.258
   12CHTO   C99 4722   4.122   0.181   0.430
   12CHTO  H186 4723   4.059   0.234   0.504
   12CHTO   N17 4724   4.028   0.109   0.337
   12CHTO  H174 4725   3.926   0.141   0.355
   12CHTO  H175 4726   4.056   0.125   0.234
   12CHTO   C97 4727   4.205   0.078   0.512
   12CHTO  H184 4728   4.248   0.003   0.444
   12CHTO   O64 4729   4.305   0.142   0.592
   12CHTO  C104 4730   4.402   0.218   0.519
   12CHTO  H191 4731   4.450   0.158   0.441
   12CHTO  C108 4732   4.513   0.256   0.618
   12CHTO   O71 4733   4.581   0.141   0.670
   12CHTO  H171 4734   4.524   0.094   0.728
   12CHTO   O62 4735   4.122   0.014   0.611
   12CHTO   C91 4736   4.168   9.887   0.662
   12CHTO  H178 4737   4.260   9.858   0.611
   12CHTO   C92 4738   4.060   9.780   0.625
   12CHTO  H179 4739   3.961   9.817   0.657
   12CHTO   O66 4740   4.054   9.771   0.481
   12CHTO  H166 4741   3.984   9.715   0.455
   12CHTO   C93 4742   4.088   9.637   0.689
   12CHTO  H180 4743   4.174   9.594   0.635
   12CHTO   N16 4744   3.976   9.542   0.671
   12CHTO  H172 4745   3.958   9.525   0.566
   12CHTO  H173 4746   3.887   9.580   0.718
   12CHTO   C94 4747   4.127   9.652   0.840
   12CHTO  H181 4748   4.042   9.686   0.901
   12CHTO   O61 4749   4.232   9.749   0.854
   12CHTO   C95 4750   4.194   9.882   0.817
   12CHTO  H182 4751   4.104   9.910   0.871
   12CHTO  C106 4752   4.311   9.974   0.868
   12CHTO   O69 4753   4.272   0.111   0.872
   12CHTO  H169 4754   4.344   0.164   0.900
   12CHTO   O63 4755   4.185   9.514   0.899
   12CHTO   C96 4756   4.239   9.532   1.046
   12CHTO  H183 4757   4.218   9.634   1.080
   12CHTO   C98 4758   4.392   9.510   1.059
   12CHTO  H185 4759   4.419   9.413   1.015
   12CHTO   O67 4760   4.460   9.608   0.979
   12CHTO  H167 4761   4.443   9.695   1.011
   12CHTO  C102 4762   4.444   9.516   1.211
   12CHTO  H189 4763   4.440   9.622   1.239
   12CHTO   N18 4764   4.585   9.474   1.231
   12CHTO  H176 4765   4.643   9.555   1.275
   12CHTO  H177 4766   4.630   9.445   1.137
   12CHTO  C105 4767   4.347   9.439   1.304
   12CHTO  H192 4768   4.366   9.331   1.296
   12CHTO   O65 4769   4.207   9.462   1.278
   12CHTO  C100 4770   4.164   9.435   1.145
   12CHTO  H187 4771   4.188   9.331   1.119
   12CHTO  C107 4772   4.011   9.453   1.143
   12CHTO   O70 4773   3.953   9.409   1.019
   12CHTO  H170 4774   3.860   9.426   1.020
   12CHTO   O57 4775   4.381   9.492   1.450
   12CHTO   C85 4776   4.323   9.444   1.572
   12CHTO  H157 4777   4.216   9.472   1.569
   12CHTO   C83 4778   4.387   9.530   1.687
   12CHTO  H155 4779   4.344   9.630   1.681
   12CHTO   O56 4780   4.529   9.546   1.663
   12CHTO  H135 4781   4.565   9.608   1.724
   12CHTO   C81 4782   4.355   9.469   1.826
   12CHTO  H153 4783   4.246   9.461   1.834
   12CHTO   N14 4784   4.395   9.557   1.939
   12CHTO  H141 4785   4.359   9.515   2.031
   12CHTO  H142 4786   4.501   9.565   1.943
   12CHTO   C79 4787   4.415   9.325   1.834
   12CHTO  H151 4788   4.391   9.285   1.933
   12CHTO   O52 4789   4.346   9.240   1.737
   12CHTO   C86 4790   4.343   9.287   1.598
   12CHTO  H158 4791   4.439   9.253   1.556
   12CHTO   C90 4792   4.233   9.206   1.525
   12CHTO   O60 4793   4.262   9.066   1.522
   12CHTO  H138 4794   4.337   9.050   1.468
   12CHTO   O50 4795   4.557   9.318   1.814
   12CHTO   C73 4796   4.654   9.221   1.858
   12CHTO  H145 4797   4.603   9.129   1.891
   12CHTO   C74 4798   4.736   9.278   1.978
   12CHTO  H146 4799   4.664   9.308   2.056
   12CHTO   O54 4800   4.812   9.169   2.033
   12CHTO  H133 4801   4.858   9.197   2.110
   12CHTO   C75 4802   4.825   9.399   1.929
   12CHTO  H147 4803   4.759   9.477   1.890
   12CHTO   N13 4804   4.904   9.462   2.038
   12CHTO  H139 4805   4.972   9.389   2.082
   12CHTO  H140 4806   4.961   9.544   1.999
   12CHTO   C76 4807   4.917   9.347   1.809
   12CHTO  H148 4808   4.978   9.265   1.848
   12CHTO   O49 4809   4.831   9.297   1.701
   12CHTO   C77 4810   4.752   9.184   1.741
   12CHTO  H149 4811   4.818   9.104   1.774
   12CHTO   C88 4812   4.681   9.131   1.616
   12CHTO   O58 4813   4.593   9.017   1.646
   12CHTO  H136 4814   4.544   8.995   1.570
   12CHTO   O51 4815   5.006   9.463   1.743
   12CHTO   C78 4816   5.102   9.406   1.625
   12CHTO  H150 4817   5.054   9.319   1.575
   12CHTO   C80 4818   5.238   9.361   1.684
   12CHTO  H152 4819   5.282   9.446   1.739
   12CHTO   O55 4820   5.213   9.256   1.778
   12CHTO  H134 4821   5.178   9.180   1.735
   12CHTO   C84 4822   5.338   9.315   1.571
   12CHTO  H156 4823   5.294   9.227   1.523
   12CHTO   N15 4824   5.473   9.274   1.623
   12CHTO  H143 4825   5.478   9.285   1.729
   12CHTO  H144 4826   5.493   9.172   1.597
   12CHTO   C87 4827   5.350   9.426   1.464
   12CHTO  H159 4828   5.398   9.514   1.508
   12CHTO   O53 4829   5.207   9.464   1.413
   12CHTO   C82 4830   5.121   9.514   1.517
   12CHTO  H154 4831   5.163   9.606   1.560
   12CHTO   C89 4832   4.987   9.553   1.450
   12CHTO   O59 4833   4.896   9.619   1.539
   12CHTO  H137 4834   4.930   9.703   1.564
   12CHTO   O45 4835   5.440   9.369   1.334
   12CHTO   C67 4836   5.503   9.460   1.243
   12CHTO  H124 4837   5.582   9.404   1.191
   12CHTO   C65 4838   5.401   9.512   1.135
   12CHTO  H122 4839   5.310   9.537   1.189
   12CHTO   O44 4840   5.375   9.399   1.049
   12CHTO  H102 4841   5.327   9.333   1.096
   12CHTO   C63 4842   5.446   9.648   1.067
   12CHTO  H120 4843   5.403   9.730   1.125
   12CHTO   N11 4844   5.389   9.677   0.932
   12CHTO  H108 4845   5.283   9.663   0.933
   12CHTO  H109 4846   5.412   9.777   0.902
   12CHTO   C61 4847   5.602   9.668   1.077
   12CHTO  H118 4848   5.623   9.768   1.037
   12CHTO   O40 4849   5.648   9.666   1.214
   12CHTO   C68 4850   5.577   9.582   1.312
   12CHTO  H125 4851   5.503   9.645   1.364
   12CHTO   C72 4852   5.680   9.536   1.418
   12CHTO   O48 4853   5.737   9.644   1.492
   12CHTO  H105 4854   5.792   9.696   1.437
   12CHTO   O38 4855   5.677   9.568   1.003
   12CHTO   C55 4856   5.804   9.612   0.949
   12CHTO  H112 4857   5.832   9.710   0.991
   12CHTO   C56 4858   5.797   9.615   0.791
   12CHTO  H113 4859   5.775   9.512   0.757
   12CHTO   O42 4860   5.687   9.696   0.746
   12CHTO  H100 4861   5.699   9.785   0.775
   12CHTO   C57 4862   5.936   9.663   0.733
   12CHTO  H114 4863   5.951   9.766   0.767
   12CHTO   N10 4864   5.944   9.665   0.585
   12CHTO  H106 4865   5.911   9.760   0.547
   12CHTO  H107 4866   5.883   9.587   0.543
   12CHTO   C58 4867   6.050   9.575   0.792
   12CHTO  H115 4868   6.042   9.472   0.749
   12CHTO   O37 4869   6.043   9.567   0.936
   12CHTO   C59 4870   5.920   9.515   0.989
   12CHTO  H116 4871   5.902   9.415   0.949
   12CHTO   C70 4872   5.933   9.504   1.141
   12CHTO   O46 4873   6.031   9.409   1.182
   12CHTO  H103 4874   6.117   9.438   1.158
   12CHTO   O39 4875   6.197   9.640   0.760
   12CHTO   C60 4876   6.302   9.542   0.752
   12CHTO  H117 4877   6.264   9.443   0.779
   12CHTO   C62 4878   6.358   9.533   0.607
   12CHTO  H119 4879   6.272   9.505   0.542
   12CHTO   O43 4880   6.407   9.662   0.566
   12CHTO  H101 4881   6.336   9.723   0.558
   12CHTO   C66 4882   6.468   9.416   0.600
   12CHTO  H123 4883   6.421   9.322   0.627
   12CHTO   N12 4884   6.522   9.396   0.463
   12CHTO  H110 4885   6.442   9.369   0.395
   12CHTO  H111 4886   6.598   9.319   0.464
   12CHTO   C69 4887   6.581   9.441   0.703
   12CHTO  H126 4888   6.643   9.529   0.674
   12CHTO   O41 4889   6.519   9.466   0.846
   12CHTO   C64 4890   6.417   9.574   0.851
   12CHTO  H121 4891   6.463   9.671   0.823
   12CHTO   C71 4892   6.366   9.587   0.997
   12CHTO   O47 4893   6.472   9.625   1.085
   12CHTO  H104 4894   6.438   9.634   1.172
   12CHTO   O34 4895   6.674   9.316   0.712
   12CHTO   C49 4896   6.757   9.228   0.802
   12CHTO   H91 4897   6.856   9.273   0.809
   12CHTO   C47 4898   6.766   9.089   0.735
   12CHTO   H89 4899   6.836   9.031   0.801
   12CHTO   O33 4900   6.826   9.098   0.605
   12CHTO   H70 4901   6.772   9.151   0.548
   12CHTO   C45 4902   6.620   9.019   0.728
   12CHTO   H87 4903   6.574   9.046   0.632
   12CHTO    N8 4904   6.639   8.871   0.730
   12CHTO   H75 4905   6.704   8.841   0.649
   12CHTO   H76 4906   6.543   8.822   0.718
   12CHTO   C43 4907   6.521   9.079   0.840
   12CHTO   H85 4908   6.480   9.170   0.796
   12CHTO   O29 4909   6.595   9.108   0.961
   12CHTO   C50 4910   6.697   9.209   0.945
   12CHTO   H92 4911   6.654   9.305   0.977
   12CHTO   C54 4912   6.809   9.183   1.049
   12CHTO   O36 4913   6.761   9.200   1.183
   12CHTO   H72 4914   6.694   9.138   1.202
   12CHTO   O27 4915   6.406   8.998   0.867
   12CHTO   C37 4916   6.271   8.975   0.908
   12CHTO   H79 4917   6.201   9.017   0.834
   12CHTO   C38 4918   6.242   8.823   0.918
   12CHTO   H80 4919   6.317   8.778   0.985
   12CHTO   O31 4920   6.258   8.767   0.786
   12CHTO   H68 4921   6.349   8.768   0.761
   12CHTO   C39 4922   6.097   8.795   0.974
   12CHTO   H81 4923   6.028   8.831   0.899
   12CHTO    N7 4924   6.067   8.648   0.994
   12CHTO   H73 4925   6.152   8.587   0.966
   12CHTO   H74 4926   6.038   8.627   1.096
   12CHTO   C40 4927   6.071   8.877   1.107
   12CHTO   H82 4928   6.126   8.831   1.189
   12CHTO   O26 4929   6.107   9.016   1.091
   12CHTO   C41 4930   6.243   9.043   1.046
   12CHTO   H83 4931   6.314   9.004   1.120
   12CHTO   C52 4932   6.261   9.197   1.040
   12CHTO   O35 4933   6.169   9.262   0.939
   12CHTO   H71 4934   6.080   9.247   0.962
   12CHTO   O28 4935   5.932   8.878   1.147
   12CHTO   C42 4936   5.814   8.915   1.066
   12CHTO   H84 4937   5.824   8.856   0.975
   12CHTO   C44 4938   5.804   9.064   1.020
   12CHTO   H86 4939   5.824   9.129   1.105
   12CHTO   O32 4940   5.909   9.087   0.923
   12CHTO   H69 4941   5.895   9.035   0.846
   12CHTO   C48 4942   5.664   9.104   0.959
   12CHTO   H90 4943   5.651   9.050   0.865
   12CHTO    N9 4944   5.656   9.250   0.923
   12CHTO   H77 4945   5.576   9.299   0.977
   12CHTO   H78 4946   5.750   9.300   0.941
   12CHTO   C51 4947   5.550   9.058   1.058
   12CHTO   H93 4948   5.567   9.105   1.155
   12CHTO   O30 4949   5.556   8.915   1.065
   12CHTO   C46 4950   5.684   8.866   1.137
   12CHTO   H88 4951   5.682   8.903   1.240
   12CHTO   C53 4952   5.679   8.711   1.137
   12CHTO   O72 4953   5.562   8.662   1.203
   12CHTO  H199 4954   5.562   8.568   1.201
   12CHTO   O22 4955   5.420   9.093   1.007
   12CHTO   C31 4956   5.287   9.047   1.050
   12CHTO   H59 4957   5.290   8.936   1.047
   12CHTO   C29 4958   5.243   9.088   1.193
   12CHTO   H57 4959   5.259   9.197   1.201
   12CHTO   O21 4960   5.332   9.027   1.287
   12CHTO   H37 4961   5.312   9.055   1.374
   12CHTO   C27 4962   5.090   9.055   1.222
   12CHTO   H55 4963   5.079   8.946   1.228
   12CHTO    N5 4964   5.041   9.114   1.350
   12CHTO   H43 4965   5.120   9.165   1.403
   12CHTO   H44 4966   4.997   9.038   1.412
   12CHTO   C25 4967   5.003   9.104   1.101
   12CHTO   H53 4968   5.012   9.214   1.094
   12CHTO   O17 4969   5.052   9.044   0.979
   12CHTO   C32 4970   5.182   9.091   0.944
   12CHTO   H60 4971   5.181   9.200   0.939
   12CHTO   C36 4972   5.218   9.038   0.804
   12CHTO   O25 4973   5.135   9.095   0.702
   12CHTO   H40 4974   5.047   9.062   0.711
   12CHTO   O15 4975   4.855   9.068   1.112
   12CHTO   C19 4976   4.742   9.142   1.058
   12CHTO   H47 4977   4.748   9.239   1.110
   12CHTO   C20 4978   4.746   9.170   0.904
   12CHTO   H48 4979   4.757   9.076   0.846
   12CHTO   O19 4980   4.862   9.250   0.876
   12CHTO   H35 4981   4.855   9.334   0.918
   12CHTO   C21 4982   4.614   9.242   0.853
   12CHTO   H49 4983   4.609   9.341   0.899
   12CHTO    N4 4984   4.610   9.264   0.706
   12CHTO   H41 4985   4.619   9.169   0.654
   12CHTO   H42 4986   4.692   9.328   0.676
   12CHTO   C22 4987   4.492   9.162   0.905
   12CHTO   H50 4988   4.498   9.061   0.863
   12CHTO   O14 4989   4.498   9.156   1.049
   12CHTO   C23 4990   4.607   9.079   1.100
   12CHTO   H51 4991   4.596   8.976   1.063
   12CHTO   C34 4992   4.594   9.075   1.253
   12CHTO   O23 4993   4.472   9.015   1.296
   12CHTO   H38 4994   4.472   8.923   1.274
   12CHTO   O16 4995   4.364   9.223   0.879
   12CHTO   C24 4996   4.253   9.121   0.820
   12CHTO   H52 4997   4.297   9.026   0.789
   12CHTO   C26 4998   4.184   9.188   0.700
   12CHTO   H54 4999   4.140   9.284   0.734
   12CHTO   O20 5000   4.284   9.216   0.601
   12CHTO   H36 5001   4.246   9.264   0.530
   12CHTO   C30 5002   4.070   9.097   0.644
   12CHTO   H58 5003   4.116   9.009   0.597
   12CHTO    N6 5004   3.993   9.164   0.536
   12CHTO   H45 5005   3.918   9.097   0.497
   12CHTO   H46 5006   3.945   9.253   0.575
   12CHTO   C33 5007   3.977   9.045   0.758
   12CHTO   H61 5008   3.914   9.128   0.794
   12CHTO   O18 5009   4.053   8.996   0.871
   12CHTO   C28 5010   4.147   9.088   0.928
   12CHTO   H56 5011   4.097   9.180   0.959
   12CHTO   C35 5012   4.209   9.020   1.053
   12CHTO   O24 5013   4.116   9.002   1.159
   12CHTO   H39 5014   4.051   8.939   1.135
   12CHTO    O9 5015   3.885   8.945   0.710
   12CHTO   C13 5016   3.955   8.800   0.673
   12CHTO   H26 5017   4.065   8.814   0.664
   12CHTO   C11 5018   3.892   8.745   0.540
   12CHTO   H24 5019   3.922   8.814   0.459
   12CHTO    O8 5020   3.748   8.748   0.547
   12CHTO    H3 5021   3.711   8.731   0.462
   12CHTO    C9 5022   3.953   8.606   0.511
   12CHTO   H22 5023   4.062   8.620   0.511
   12CHTO    N2 5024   3.923   8.553   0.375
   12CHTO   H10 5025   3.848   8.613   0.326
   12CHTO   H11 5026   3.892   8.450   0.380
   12CHTO    C7 5027   3.916   8.508   0.629
   12CHTO   H20 5028   3.976   8.417   0.606
   12CHTO    O4 5029   3.957   8.559   0.758
   12CHTO   C14 5030   3.938   8.697   0.793
   12CHTO   H27 5031   4.019   8.720   0.867
   12CHTO   C18 5032   3.804   8.716   0.867
   12CHTO   O13 5033   3.807   8.648   0.993
   12CHTO    H7 5034   3.724   8.659   1.036
   12CHTO    O2 5035   3.754   8.470   0.633
   12CHTO    C1 5036   3.712   8.371   0.729
   12CHTO   H14 5037   3.749   8.400   0.829
   12CHTO    C2 5038   3.760   8.223   0.698
   12CHTO   H15 5039   3.733   8.203   0.593
   12CHTO    O6 5040   3.902   8.214   0.714
   12CHTO    H1 5041   3.933   8.131   0.684
   12CHTO    C3 5042   3.686   8.116   0.794
   12CHTO   H16 5043   3.725   8.130   0.896
   12CHTO    N1 5044   3.717   7.974   0.754
   12CHTO    H8 5045   3.823   7.957   0.758
   12CHTO    H9 5046   3.667   7.906   0.821
   12CHTO    C4 5047   3.532   8.144   0.802
   12CHTO   H17 5048   3.486   8.119   0.706
   12CHTO    O1 5049   3.506   8.282   0.833
   12CHTO    C5 5050   3.556   8.375   0.735
   12CHTO   H18 5051   3.518   8.347   0.637
   12CHTO   C16 5052   3.503   8.515   0.772
   12CHTO   O11 5053   3.361   8.521   0.759
   12CHTO    H5 5054   3.330   8.604   0.789
   12CHTO    O3 5055   3.470   8.070   0.909
   12CHTO    C6 5056   3.333   8.024   0.886
   12CHTO   H19 5057   3.283   8.079   0.806
   12CHTO    C8 5058   3.333   7.872   0.847
   12CHTO   H21 5059   3.394   7.819   0.920
   12CHTO    O7 5060   3.393   7.861   0.717
   12CHTO    H2 5061   3.341   7.903   0.652
   12CHTO   C12 5062   3.186   7.812   0.850
   12CHTO   H25 5063   3.132   7.860   0.765
   12CHTO    N3 5064   3.189   7.664   0.822
   12CHTO   H12 5065   3.149   7.608   0.906
   12CHTO   H13 5066   3.132   7.642   0.733
   12CHTO   C15 5067   3.115   7.850   0.984
   12CHTO   H28 5068   3.161   7.801   1.070
   12CHTO   O10 5069   2.965   7.822   0.982
   12CHTO    H4 5070   2.950   7.730   0.983
   12CHTO    O5 5071   3.117   7.993   1.002
   12CHTO   C10 5072   3.249   8.047   1.015
   12CHTO   H23 5073   3.299   7.999   1.100
   12CHTO   C17 5074   3.235   8.196   1.050
   12CHTO   O12 5075   3.167   8.271   0.949
   12CHTO    H6 5076   3.222   8.277   0.872
   13CHTO  H203 5077   7.249   4.142   2.429
   13CHTO   O82 5078   7.289   4.189   2.358
   13CHTO  C123 5079   7.231   4.319   2.344
   13CHTO  H227 5080   7.283   4.373   2.263
   13CHTO   O77 5081   7.093   4.292   2.305
   13CHTO  C118 5082   7.016   4.409   2.273
   13CHTO  H222 5083   7.066   4.467   2.195
   13CHTO  C125 5084   6.878   4.356   2.217
   13CHTO   O84 5085   6.800   4.461   2.158
   13CHTO  H205 5086   6.717   4.427   2.132
   13CHTO  C114 5087   7.000   4.494   2.401
   13CHTO  H218 5088   6.946   4.435   2.476
   13CHTO  C116 5089   7.140   4.531   2.462
   13CHTO  H220 5090   7.190   4.605   2.394
   13CHTO   O79 5091   7.119   4.598   2.587
   13CHTO  H201 5092   7.084   4.684   2.573
   13CHTO  C120 5093   7.232   4.403   2.478
   13CHTO  H224 5094   7.187   4.343   2.560
   13CHTO   N21 5095   7.369   4.439   2.521
   13CHTO  H211 5096   7.432   4.458   2.435
   13CHTO  H212 5097   7.411   4.360   2.582
   13CHTO   O75 5098   6.924   4.609   2.362
   13CHTO  C112 5099   6.797   4.646   2.461
   13CHTO  H216 5100   6.833   4.652   2.565
   13CHTO   O73 5101   6.699   4.542   2.444
   13CHTO  C113 5102   6.579   4.560   2.522
   13CHTO  H217 5103   6.606   4.569   2.629
   13CHTO  C124 5104   6.491   4.435   2.507
   13CHTO   O83 5105   6.551   4.318   2.563
   13CHTO  H204 5106   6.553   4.324   2.657
   13CHTO  C109 5107   6.505   4.688   2.476
   13CHTO  H213 5108   6.476   4.673   2.371
   13CHTO  C110 5109   6.601   4.811   2.490
   13CHTO  H214 5110   6.618   4.829   2.596
   13CHTO   O78 5111   6.534   4.927   2.437
   13CHTO  H200 5112   6.462   4.952   2.492
   13CHTO  C111 5113   6.736   4.785   2.417
   13CHTO  H215 5114   6.717   4.780   2.309
   13CHTO   N19 5115   6.836   4.893   2.438
   13CHTO  H207 5116   6.927   4.871   2.384
   13CHTO  H208 5117   6.797   4.987   2.405
   13CHTO   O74 5118   6.384   4.707   2.556
   13CHTO  C115 5119   6.250   4.766   2.473
   13CHTO  H219 5120   6.268   4.866   2.433
   13CHTO   O76 5121   6.214   4.676   2.349
   13CHTO  C122 5122   6.093   4.709   2.279
   13CHTO  H226 5123   6.075   4.627   2.209
   13CHTO  C126 5124   6.115   4.837   2.190
   13CHTO   O85 5125   6.001   4.871   2.110
   13CHTO  H206 5126   5.931   4.899   2.166
   13CHTO  C121 5127   5.968   4.720   2.376
   13CHTO  H225 5128   5.883   4.764   2.319
   13CHTO   O81 5129   5.930   4.588   2.415
   13CHTO  H202 5130   5.902   4.538   2.341
   13CHTO  C119 5131   5.994   4.808   2.502
   13CHTO  H223 5132   5.997   4.912   2.468
   13CHTO  C117 5133   6.130   4.774   2.575
   13CHTO  H221 5134   6.132   4.677   2.626
   13CHTO   N20 5135   6.160   4.874   2.681
   13CHTO  H209 5136   6.080   4.877   2.754
   13CHTO  H210 5137   6.173   4.972   2.638
   13CHTO   O80 5138   5.863   4.810   2.604
   13CHTO  C103 5139   5.760   4.938   2.612
   13CHTO  H190 5140   5.717   4.940   2.712
   13CHTO  C101 5141   5.814   5.083   2.584
   13CHTO  H188 5142   5.852   5.089   2.482
   13CHTO   O68 5143   5.930   5.113   2.683
   13CHTO  H168 5144   5.969   5.196   2.661
   13CHTO   C99 5145   5.694   5.188   2.601
   13CHTO  H186 5146   5.661   5.186   2.707
   13CHTO   N17 5147   5.733   5.330   2.572
   13CHTO  H174 5148   5.763   5.341   2.469
   13CHTO  H175 5149   5.812   5.361   2.639
   13CHTO   C97 5150   5.570   5.145   2.517
   13CHTO  H184 5151   5.590   5.167   2.411
   13CHTO   O64 5152   5.537   5.007   2.538
   13CHTO  C104 5153   5.640   4.911   2.511
   13CHTO  H191 5154   5.677   4.916   2.409
   13CHTO  C108 5155   5.575   4.772   2.526
   13CHTO   O71 5156   5.657   4.664   2.483
   13CHTO  H171 5157   5.724   4.647   2.546
   13CHTO   O62 5158   5.452   5.217   2.561
   13CHTO   C91 5159   5.336   5.214   2.475
   13CHTO  H178 5160   5.347   5.133   2.403
   13CHTO   C92 5161   5.325   5.347   2.393
   13CHTO  H179 5162   5.325   5.432   2.464
   13CHTO   O66 5163   5.444   5.362   2.314
   13CHTO  H166 5164   5.519   5.376   2.369
   13CHTO   C93 5165   5.195   5.350   2.301
   13CHTO  H180 5166   5.212   5.280   2.219
   13CHTO   N16 5167   5.172   5.482   2.237
   13CHTO  H172 5168   5.256   5.509   2.175
   13CHTO  H173 5169   5.156   5.558   2.313
   13CHTO   C94 5170   5.067   5.304   2.381
   13CHTO  H181 5171   5.035   5.379   2.454
   13CHTO   O61 5172   5.093   5.184   2.454
   13CHTO   C95 5173   5.199   5.195   2.550
   13CHTO  H182 5174   5.180   5.280   2.616
   13CHTO  C106 5175   5.196   5.067   2.639
   13CHTO   O69 5176   5.074   5.062   2.714
   13CHTO  H169 5177   5.070   4.982   2.763
   13CHTO   O63 5178   4.946   5.267   2.278
   13CHTO   C96 5179   4.798   5.299   2.334
   13CHTO  H183 5180   4.727   5.263   2.259
   13CHTO   C98 5181   4.769   5.450   2.356
   13CHTO  H185 5182   4.850   5.497   2.414
   13CHTO   O67 5183   4.776   5.510   2.225
   13CHTO  H167 5184   4.771   5.604   2.232
   13CHTO  C102 5185   4.627   5.478   2.425
   13CHTO  H189 5186   4.551   5.446   2.352
   13CHTO   N18 5187   4.598   5.621   2.454
   13CHTO  H176 5188   4.599   5.678   2.362
   13CHTO  H177 5189   4.672   5.661   2.522
   13CHTO  C105 5190   4.615   5.388   2.551
   13CHTO  H192 5191   4.689   5.420   2.625
   13CHTO   O65 5192   4.639   5.250   2.519
   13CHTO  C100 5193   4.768   5.218   2.467
   13CHTO  H187 5194   4.844   5.243   2.543
   13CHTO  C107 5195   4.774   5.066   2.440
   13CHTO   O70 5196   4.748   4.990   2.558
   13CHTO  H170 5197   4.816   5.003   2.621
   13CHTO   O57 5198   4.459   5.405   2.614
   13CHTO   C85 5199   4.350   5.342   2.546
   13CHTO  H157 5200   4.391   5.300   2.451
   13CHTO   C83 5201   4.245   5.448   2.501
   13CHTO  H155 5202   4.295   5.521   2.437
   13CHTO   O56 5203   4.197   5.522   2.616
   13CHTO  H135 5204   4.267   5.569   2.656
   13CHTO   C81 5205   4.133   5.378   2.419
   13CHTO  H153 5206   4.180   5.329   2.334
   13CHTO   N14 5207   4.037   5.473   2.358
   13CHTO  H141 5208   3.969   5.421   2.294
   13CHTO  H142 5209   3.982   5.524   2.434
   13CHTO   C79 5210   4.063   5.266   2.506
   13CHTO  H151 5211   3.997   5.210   2.440
   13CHTO   O52 5212   4.162   5.170   2.556
   13CHTO   C86 5213   4.273   5.232   2.630
   13CHTO  H158 5214   4.225   5.276   2.720
   13CHTO   C90 5215   4.369   5.122   2.682
   13CHTO   O60 5216   4.426   5.046   2.576
   13CHTO  H138 5217   4.490   5.098   2.530
   13CHTO   O50 5218   3.986   5.316   2.617
   13CHTO   C73 5219   3.851   5.285   2.655
   13CHTO  H145 5220   3.800   5.231   2.574
   13CHTO   C74 5221   3.773   5.417   2.683
   13CHTO  H146 5222   3.778   5.479   2.591
   13CHTO   O54 5223   3.633   5.385   2.701
   13CHTO  H133 5224   3.597   5.350   2.622
   13CHTO   C75 5225   3.837   5.491   2.807
   13CHTO  H147 5226   3.942   5.515   2.782
   13CHTO   N13 5227   3.772   5.621   2.839
   13CHTO  H139 5228   3.845   5.701   2.835
   13CHTO  H140 5229   3.727   5.619   0.061
   13CHTO   C76 5230   3.838   5.390   0.055
   13CHTO  H148 5231   3.734   5.367   0.077
   13CHTO   O49 5232   3.906   5.266   0.019
   13CHTO   C77 5233   3.849   5.196   2.783
   13CHTO  H149 5234   3.746   5.169   2.806
   13CHTO   C88 5235   3.923   5.063   2.764
   13CHTO   O58 5236   3.913   4.977   0.011
   13CHTO  H136 5237   3.961   5.016   0.081
   13CHTO   O51 5238   3.914   5.453   0.191
   13CHTO   C78 5239   4.082   5.450   0.211
   13CHTO  H150 5240   4.107   5.488   0.313
   13CHTO   C80 5241   4.155   5.537   0.107
   13CHTO  H152 5242   4.131   5.499   0.006
   13CHTO   O55 5243   4.102   5.670   0.121
   13CHTO  H134 5244   4.139   5.727   0.057
   13CHTO   C84 5245   4.312   5.533   0.129
   13CHTO  H156 5246   4.333   5.577   0.227
   13CHTO   N15 5247   4.388   5.614   0.028
   13CHTO  H143 5248   4.354   5.715   0.029
   13CHTO  H144 5249   4.373   5.573   2.806
   13CHTO   C87 5250   4.360   5.386   0.133
   13CHTO  H159 5251   4.347   5.341   0.034
   13CHTO   O53 5252   4.277   5.307   0.239
   13CHTO   C82 5253   4.137   5.306   0.206
   13CHTO  H154 5254   4.125   5.262   0.107
   13CHTO   C89 5255   4.061   5.214   0.305
   13CHTO   O59 5256   4.101   5.077   0.291
   13CHTO  H137 5257   4.191   5.067   0.314
   13CHTO   O45 5258   4.513   5.374   0.178
   13CHTO   C67 5259   4.576   5.254   0.130
   13CHTO  H124 5260   4.503   5.185   0.086
   13CHTO   C65 5261   4.684   5.290   0.024
   13CHTO  H122 5262   4.633   5.356   2.830
   13CHTO   O44 5263   4.728   5.172   2.831
   13CHTO  H102 5264   4.657   5.132   2.785
   13CHTO   C63 5265   4.795   5.376   0.093
   13CHTO  H120 5266   4.748   5.460   0.143
   13CHTO   N11 5267   4.888   5.446   2.873
   13CHTO  H108 5268   4.872   5.551   2.876
   13CHTO  H109 5269   4.990   5.424   0.021
   13CHTO   C61 5270   4.866   5.291   0.206
   13CHTO  H118 5271   4.920   5.365   0.267
   13CHTO   O40 5272   4.771   5.225   0.295
   13CHTO   C68 5273   4.639   5.176   0.252
   13CHTO  H125 5274   4.571   5.194   0.338
   13CHTO   C72 5275   4.644   5.023   0.229
   13CHTO   O48 5276   4.659   4.952   0.352
   13CHTO  H105 5277   4.648   4.860   0.336
   13CHTO   O38 5278   4.959   5.191   0.156
   13CHTO   C55 5279   5.077   5.157   0.233
   13CHTO  H112 5280   5.131   5.085   0.171
   13CHTO   C56 5281   5.041   5.096   0.376
   13CHTO  H113 5282   4.975   5.168   0.427
   13CHTO   O42 5283   4.965   4.976   0.357
   13CHTO  H100 5284   4.937   4.942   0.440
   13CHTO   C57 5285   5.171   5.070   0.463
   13CHTO  H114 5286   5.225   4.987   0.415
   13CHTO   N10 5287   5.141   5.029   0.602
   13CHTO  H106 5288   5.048   4.974   0.607
   13CHTO  H107 5289   5.220   4.967   0.641
   13CHTO   C58 5290   5.262   5.195   0.462
   13CHTO  H115 5291   5.209   5.279   0.514
   13CHTO   O37 5292   5.291   5.235   0.327
   13CHTO   C59 5293   5.176   5.277   0.252
   13CHTO  H116 5294   5.128   5.360   0.304
   13CHTO   C70 5295   5.225   5.333   0.117
   13CHTO   O46 5296   5.302   5.241   0.039
   13CHTO  H103 5297   5.248   5.170   0.010
   13CHTO   O39 5298   5.407   5.164   0.535
   13CHTO   C60 5299   5.486   5.282   0.558
   13CHTO  H117 5300   5.482   5.345   0.470
   13CHTO   C62 5301   5.434   5.365   0.680
   13CHTO  H119 5302   5.330   5.395   0.655
   13CHTO   O43 5303   5.428   5.282   0.797
   13CHTO  H101 5304   5.391   5.329   0.868
   13CHTO   C66 5305   5.525   5.497   0.698
   13CHTO  H123 5306   5.519   5.555   0.606
   13CHTO   N12 5307   5.476   5.586   0.806
   13CHTO  H110 5308   5.474   5.534   0.900
   13CHTO  H111 5309   5.378   5.624   0.781
   13CHTO   C69 5310   5.673   5.455   0.718
   13CHTO  H126 5311   5.683   5.396   0.811
   13CHTO   O41 5312   5.717   5.368   0.596
   13CHTO   C64 5313   5.635   5.244   0.580
   13CHTO  H121 5314   5.643   5.182   0.672
   13CHTO   C71 5315   5.689   5.160   0.462
   13CHTO   O47 5316   5.826   5.126   0.484
   13CHTO  H104 5317   5.859   5.076   0.411
   13CHTO   O34 5318   5.770   5.580   0.727
   13CHTO   C49 5319   5.920   5.552   0.756
   13CHTO   H91 5320   5.938   5.447   0.732
   13CHTO   C47 5321   5.948   5.577   0.906
   13CHTO   H89 5322   6.052   5.539   0.921
   13CHTO   O33 5323   5.860   5.498   0.988
   13CHTO   H70 5324   5.771   5.525   0.975
   13CHTO   C45 5325   5.937   5.734   0.944
   13CHTO   H87 5326   5.836   5.752   0.984
   13CHTO    N8 5327   6.036   5.766   1.050
   13CHTO   H75 5328   6.104   5.684   1.068
   13CHTO   H76 5329   6.091   5.855   1.026
   13CHTO   C43 5330   5.944   5.826   0.811
   13CHTO   H85 5331   5.845   5.821   0.767
   13CHTO   O29 5332   6.045   5.774   0.722
   13CHTO   C50 5333   6.016   5.642   0.672
   13CHTO   H92 5334   5.972   5.652   0.572
   13CHTO   C54 5335   6.150   5.568   0.644
   13CHTO   O36 5336   6.226   5.636   0.544
   13CHTO   H72 5337   6.296   5.581   0.515
   13CHTO   O27 5338   5.966   5.966   0.837
   13CHTO   C37 5339   5.883   6.083   0.842
   13CHTO   H79 5340   5.790   6.066   0.786
   13CHTO   C38 5341   5.842   6.118   0.989
   13CHTO   H80 5342   5.933   6.123   1.050
   13CHTO   O31 5343   5.759   6.011   1.037
   13CHTO   H68 5344   5.739   6.024   1.128
   13CHTO   C39 5345   5.767   6.257   0.995
   13CHTO   H81 5346   5.672   6.244   0.942
   13CHTO    N7 5347   5.734   6.302   1.135
   13CHTO   H73 5348   5.627   6.313   1.146
   13CHTO   H74 5349   5.772   6.233   1.208
   13CHTO   C40 5350   5.848   6.368   0.919
   13CHTO   H82 5351   5.937   6.396   0.975
   13CHTO   O26 5352   5.880   6.324   0.786
   13CHTO   C41 5353   5.959   6.202   0.778
   13CHTO   H83 5354   6.053   6.218   0.832
   13CHTO   C52 5355   5.993   6.178   0.629
   13CHTO   O35 5356   5.872   6.172   0.541
   13CHTO   H71 5357   5.829   6.255   0.542
   13CHTO   O28 5358   5.767   6.485   0.894
   13CHTO   C42 5359   5.826   6.614   0.859
   13CHTO   H84 5360   5.924   6.591   0.818
   13CHTO   C44 5361   5.851   6.709   0.981
   13CHTO   H86 5362   5.759   6.716   1.039
   13CHTO   O32 5363   5.951   6.646   1.063
   13CHTO   H69 5364   5.966   6.697   1.141
   13CHTO   C48 5365   5.892   6.857   0.938
   13CHTO   H90 5366   5.992   6.853   0.893
   13CHTO    N9 5367   5.904   6.949   1.056
   13CHTO   H77 5368   5.933   7.047   1.024
   13CHTO   H78 5369   5.809   6.953   1.109
   13CHTO   C51 5370   5.790   6.908   0.830
   13CHTO   H93 5371   5.690   6.905   0.874
   13CHTO   O30 5372   5.801   6.819   0.718
   13CHTO   C46 5373   5.744   6.684   0.746
   13CHTO   H88 5374   5.640   6.694   0.778
   13CHTO   C53 5375   5.751   6.601   0.615
   13CHTO   O72 5376   5.675   6.663   0.511
   13CHTO  H199 5377   5.691   6.619   0.430
   13CHTO   O22 5378   5.819   7.039   0.779
   13CHTO   C31 5379   5.715   7.120   0.710
   13CHTO   H59 5380   5.768   7.209   0.670
   13CHTO   C29 5381   5.649   7.050   0.589
   13CHTO   H57 5382   5.601   6.957   0.625
   13CHTO   O21 5383   5.753   7.010   0.497
   13CHTO   H37 5384   5.807   6.944   0.535
   13CHTO   C27 5385   5.539   7.140   0.519
   13CHTO   H55 5386   5.590   7.227   0.475
   13CHTO    N5 5387   5.465   7.068   0.412
   13CHTO   H43 5388   5.486   6.962   0.414
   13CHTO   H44 5389   5.491   7.108   0.315
   13CHTO   C25 5390   5.441   7.197   0.628
   13CHTO   H53 5391   5.383   7.113   0.671
   13CHTO   O17 5392   5.514   7.261   0.736
   13CHTO   C32 5393   5.605   7.174   0.806
   13CHTO   H60 5394   5.549   7.090   0.847
   13CHTO   C36 5395   5.664   7.253   0.926
   13CHTO   O25 5396   5.737   7.369   0.886
   13CHTO   H40 5397   5.816   7.344   0.841
   13CHTO   O15 5398   5.340   7.304   0.564
   13CHTO   C19 5399   5.223   7.376   0.610
   13CHTO   H47 5400   5.229   7.369   0.720
   13CHTO   C20 5401   5.223   7.527   0.569
   13CHTO   H48 5402   5.228   7.540   0.460
   13CHTO   O19 5403   5.342   7.586   0.625
   13CHTO   H35 5404   5.418   7.554   0.581
   13CHTO   C21 5405   5.093   7.604   0.621
   13CHTO   H49 5406   5.098   7.610   0.730
   13CHTO    N4 5407   5.084   7.743   0.570
   13CHTO   H41 5408   5.172   7.799   0.600
   13CHTO   H42 5409   4.997   7.792   0.611
   13CHTO   C22 5410   4.966   7.521   0.587
   13CHTO   H50 5411   4.949   7.524   0.479
   13CHTO   O14 5412   4.981   7.386   0.632
   13CHTO   C23 5413   5.087   7.312   0.569
   13CHTO   H51 5414   5.071   7.315   0.460
   13CHTO   C34 5415   5.070   7.167   0.617
   13CHTO   O23 5416   5.154   7.077   0.543
   13CHTO   H38 5417   5.101   7.026   0.485
   13CHTO   O16 5418   4.850   7.567   0.659
   13CHTO   C24 5419   4.713   7.586   0.572
   13CHTO   H52 5420   4.733   7.595   0.465
   13CHTO   C26 5421   4.642   7.714   0.621
   13CHTO   H54 5422   4.632   7.708   0.732
   13CHTO   O20 5423   4.728   7.825   0.590
   13CHTO   H36 5424   4.695   7.903   0.631
   13CHTO   C30 5425   4.500   7.729   0.560
   13CHTO   H58 5426   4.507   7.746   0.451
   13CHTO    N6 5427   4.428   7.847   0.615
   13CHTO   H45 5428   4.417   7.837   0.722
   13CHTO   H46 5429   4.483   7.937   0.593
   13CHTO   C33 5430   4.418   7.597   0.578
   13CHTO   H61 5431   4.401   7.579   0.686
   13CHTO   O18 5432   4.494   7.487   0.525
   13CHTO   C28 5433   4.620   7.462   0.589
   13CHTO   H56 5434   4.604   7.444   0.696
   13CHTO   C35 5435   4.680   7.334   0.527
   13CHTO   O24 5436   4.710   7.346   0.387
   13CHTO   H39 5437   4.754   7.269   0.358
   13CHTO    O9 5438   4.286   7.604   0.519
   13CHTO   C13 5439   4.183   7.491   0.576
   13CHTO   H26 5440   4.242   7.412   0.627
   13CHTO   C11 5441   4.097   7.433   0.456
   13CHTO   H24 5442   4.166   7.386   0.384
   13CHTO    O8 5443   4.031   7.542   0.388
   13CHTO    H3 5444   4.094   7.597   0.346
   13CHTO    C9 5445   4.001   7.322   0.511
   13CHTO   H22 5446   4.067   7.237   0.535
   13CHTO    N2 5447   3.911   7.266   0.408
   13CHTO   H10 5448   3.968   7.233   0.322
   13CHTO   H11 5449   3.838   7.340   0.378
   13CHTO    C7 5450   3.933   7.368   0.646
   13CHTO   H20 5451   3.991   7.312   0.723
   13CHTO    O4 5452   3.948   7.509   0.670
   13CHTO   C14 5453   4.084   7.551   0.688
   13CHTO   H27 5454   4.117   7.513   0.787
   13CHTO   C18 5455   4.084   7.706   0.699
   13CHTO   O13 5456   4.030   7.768   0.581
   13CHTO    H7 5457   4.026   7.861   0.594
   13CHTO    O2 5458   3.771   7.329   0.667
   13CHTO    C1 5459   3.745   7.295   0.804
   13CHTO   H14 5460   3.825   7.337   0.869
   13CHTO    C2 5461   3.738   7.140   0.830
   13CHTO   H15 5462   3.648   7.102   0.778
   13CHTO    O6 5463   3.855   7.077   0.776
   13CHTO    H1 5464   3.854   7.082   0.682
   13CHTO    C3 5465   3.724   7.118   0.988
   13CHTO   H16 5466   3.813   7.160   1.036
   13CHTO    N1 5467   3.717   6.973   1.027
   13CHTO    H8 5468   3.712   6.964   1.135
   13CHTO    H9 5469   3.805   6.922   0.991
   13CHTO    C4 5470   3.602   7.201   1.045
   13CHTO   H17 5471   3.509   7.150   1.019
   13CHTO    O1 5472   3.599   7.337   0.997
   13CHTO    C5 5473   3.612   7.358   0.855
   13CHTO   H18 5474   3.530   7.308   0.804
   13CHTO   C16 5475   3.604   7.510   0.826
   13CHTO   O11 5476   3.707   7.584   0.892
   13CHTO    H5 5477   3.693   7.584   0.985
   13CHTO    O3 5478   3.615   7.215   1.188
   13CHTO    C6 5479   3.492   7.221   1.267
   13CHTO   H19 5480   3.404   7.245   1.207
   13CHTO    C8 5481   3.469   7.083   1.337
   13CHTO   H21 5482   3.563   7.052   1.382
   13CHTO    O7 5483   3.433   6.989   1.234
   13CHTO    H2 5484   3.429   6.902   1.270
   13CHTO   C12 5485   3.360   7.088   1.451
   13CHTO   H25 5486   3.262   7.103   1.401
   13CHTO    N3 5487   3.352   6.958   1.525
   13CHTO   H12 5488   3.276   6.964   1.602
   13CHTO   H13 5489   3.329   6.878   1.456
   13CHTO   C15 5490   3.388   7.212   1.543
   13CHTO   H28 5491   3.480   7.200   1.600
   13CHTO   O10 5492   3.276   7.241   1.639
   13CHTO    H4 5493   3.266   7.169   1.698
   13CHTO    O5 5494   3.393   7.332   1.464
   13CHTO   C10 5495   3.505   7.335   1.374
   13CHTO   H23 5496   3.596   7.322   1.431
   13CHTO   C17 5497   3.507   7.475   1.313
   13CHTO   O12 5498   3.628   7.502   1.241
   13CHTO    H6 5499   3.632   7.449   1.164
   14CHTO  H203 5500   6.095   4.532   0.323
   14CHTO   O82 5501   6.139   4.599   0.275
   14CHTO  C123 5502   6.046   4.677   0.199
   14CHTO  H227 5503   6.102   4.756   0.145
   14CHTO   O77 5504   5.990   4.582   0.103
   14CHTO  C118 5505   5.893   4.635   0.012
   14CHTO  H222 5506   5.937   4.718   2.830
   14CHTO  C125 5507   5.850   4.521   2.789
   14CHTO   O84 5508   5.961   4.476   2.709
   14CHTO  H205 5509   5.984   4.542   2.647
   14CHTO  C114 5510   5.772   4.688   0.092
   14CHTO  H218 5511   5.730   4.605   0.149
   14CHTO  C116 5512   5.818   4.796   0.194
   14CHTO  H220 5513   5.855   4.886   0.139
   14CHTO   O79 5514   5.703   4.839   0.270
   14CHTO  H201 5515   5.725   4.913   0.323
   14CHTO  C120 5516   5.931   4.738   0.288
   14CHTO  H224 5517   5.884   4.658   0.348
   14CHTO   N21 5518   5.984   4.840   0.383
   14CHTO  H211 5519   6.018   4.791   0.473
   14CHTO  H212 5520   5.908   4.913   0.407
   14CHTO   O75 5521   5.677   4.737   2.872
   14CHTO  C112 5522   5.523   4.686   0.028
   14CHTO  H216 5523   5.514   4.661   0.135
   14CHTO   O73 5524   5.499   4.570   2.821
   14CHTO  C113 5525   5.369   4.511   2.835
   14CHTO  H217 5526   5.353   4.481   0.065
   14CHTO  C124 5527   5.363   4.383   2.751
   14CHTO   O83 5528   5.456   4.285   2.799
   14CHTO  H204 5529   5.448   4.207   2.748
   14CHTO  C109 5530   5.260   4.613   2.793
   14CHTO  H213 5531   5.282   4.642   2.689
   14CHTO  C110 5532   5.274   4.737   0.011
   14CHTO  H214 5533   5.259   4.705   0.115
   14CHTO   O78 5534   5.168   4.830   2.857
   14CHTO  H200 5535   5.174   4.905   0.037
   14CHTO  C111 5536   5.416   4.798   2.870
   14CHTO  H215 5537   5.429   4.826   2.765
   14CHTO   N19 5538   5.441   4.920   0.075
   14CHTO  H207 5539   5.437   4.897   0.180
   14CHTO  H208 5540   5.536   4.963   0.049
   14CHTO   O74 5541   5.126   4.554   2.799
   14CHTO  C115 5542   5.033   4.601   2.672
   14CHTO  H219 5543   5.061   4.700   2.636
   14CHTO   O76 5544   5.055   4.504   2.544
   14CHTO  C122 5545   4.982   4.381   2.551
   14CHTO  H226 5546   5.022   4.325   2.635
   14CHTO  C126 5547   5.014   4.294   2.423
   14CHTO   O85 5548   4.970   4.355   2.301
   14CHTO  H206 5549   5.016   4.435   2.287
   14CHTO  C121 5550   4.826   4.403   2.568
   14CHTO  H225 5551   4.774   4.375   2.474
   14CHTO   O81 5552   4.776   4.316   2.671
   14CHTO  H202 5553   4.817   4.335   2.753
   14CHTO  C119 5554   4.790   4.551   2.601
   14CHTO  H223 5555   4.818   4.609   2.512
   14CHTO  C117 5556   4.882   4.603   2.719
   14CHTO  H221 5557   4.879   4.543   2.810
   14CHTO   N20 5558   4.842   4.741   2.763
   14CHTO  H209 5559   4.904   4.773   2.845
   14CHTO  H210 5560   4.851   4.810   2.680
   14CHTO   O80 5561   4.630   4.576   2.608
   14CHTO  C103 5562   4.554   4.655   2.487
   14CHTO  H190 5563   4.586   4.759   2.484
   14CHTO  C101 5564   4.564   4.594   2.341
   14CHTO  H188 5565   4.540   4.488   2.346
   14CHTO   O68 5566   4.712   4.608   2.289
   14CHTO  H168 5567   4.734   4.699   2.281
   14CHTO   C99 5568   4.460   4.665   2.241
   14CHTO  H186 5569   4.489   4.772   2.231
   14CHTO   N17 5570   4.460   4.609   2.102
   14CHTO  H174 5571   4.521   4.520   2.096
   14CHTO  H175 5572   4.360   4.589   2.067
   14CHTO   C97 5573   4.318   4.665   2.305
   14CHTO  H184 5574   4.283   4.561   2.309
   14CHTO   O64 5575   4.322   4.726   2.435
   14CHTO  C104 5576   4.402   4.655   2.531
   14CHTO  H191 5577   4.368   4.552   2.542
   14CHTO  C108 5578   4.386   4.721   2.669
   14CHTO   O71 5579   4.250   4.715   2.714
   14CHTO  H171 5580   4.241   4.765   2.793
   14CHTO   O62 5581   4.226   4.747   2.230
   14CHTO   C91 5582   4.087   4.707   2.228
   14CHTO  H178 5583   4.081   4.603   2.260
   14CHTO   C92 5584   4.037   4.709   2.080
   14CHTO  H179 5585   4.109   4.656   2.015
   14CHTO   O66 5586   3.915   4.633   2.072
   14CHTO  H166 5587   3.932   4.542   2.089
   14CHTO   C93 5588   4.006   4.854   2.026
   14CHTO  H180 5589   3.944   4.842   1.936
   14CHTO   N16 5590   4.127   4.927   1.979
   14CHTO  H172 5591   4.215   4.866   1.988
   14CHTO  H173 5592   4.113   4.961   1.877
   14CHTO   C94 5593   3.924   4.938   2.133
   14CHTO  H181 5594   3.982   5.022   2.173
   14CHTO   O61 5595   3.884   4.859   2.247
   14CHTO   C95 5596   3.992   4.797   2.320
   14CHTO  H182 5597   4.051   4.875   2.367
   14CHTO  C106 5598   3.927   4.713   2.435
   14CHTO   O69 5599   4.026   4.651   2.519
   14CHTO  H169 5600   4.070   4.717   2.569
   14CHTO   O63 5601   3.791   4.994   2.061
   14CHTO   C96 5602   3.730   5.125   2.130
   14CHTO  H183 5603   3.786   5.145   2.222
   14CHTO   C98 5604   3.579   5.116   2.167
   14CHTO  H185 5605   3.522   5.086   2.078
   14CHTO   O67 5606   3.564   5.009   2.261
   14CHTO  H167 5607   3.473   4.993   2.279
   14CHTO  C102 5608   3.521   5.254   2.227
   14CHTO  H189 5609   3.563   5.263   2.328
   14CHTO   N18 5610   3.373   5.256   2.245
   14CHTO  H176 5611   3.326   5.330   2.181
   14CHTO  H177 5612   3.347   5.275   2.348
   14CHTO  C105 5613   3.572   5.376   2.144
   14CHTO  H192 5614   3.514   5.384   2.052
   14CHTO   O65 5615   3.711   5.367   2.111
   14CHTO  C100 5616   3.747   5.251   2.036
   14CHTO  H187 5617   3.679   5.241   1.950
   14CHTO  C107 5618   3.890   5.272   1.983
   14CHTO   O70 5619   3.921   5.178   1.880
   14CHTO  H170 5620   3.870   5.196   1.804
   14CHTO   O57 5621   3.549   5.509   2.237
   14CHTO   C85 5622   3.533   5.638   2.175
   14CHTO  H157 5623   3.444   5.629   2.109
   14CHTO   C83 5624   3.653   5.673   2.081
   14CHTO  H155 5625   3.657   5.597   2.002
   14CHTO   O56 5626   3.777   5.660   2.155
   14CHTO  H135 5627   3.781   5.725   2.222
   14CHTO   C81 5628   3.631   5.812   2.015
   14CHTO  H153 5629   3.537   5.808   1.960
   14CHTO   N14 5630   3.733   5.844   1.912
   14CHTO  H141 5631   3.736   5.767   1.839
   14CHTO  H142 5632   3.709   5.937   1.865
   14CHTO   C79 5633   3.617   5.923   2.127
   14CHTO  H151 5634   3.590   6.016   2.076
   14CHTO   O52 5635   3.507   5.890   2.217
   14CHTO   C86 5636   3.517   5.757   2.278
   14CHTO  H158 5637   3.606   5.764   2.345
   14CHTO   C90 5638   3.396   5.733   2.372
   14CHTO   O60 5639   3.397   5.824   2.482
   14CHTO  H138 5640   3.384   5.912   2.451
   14CHTO   O50 5641   3.737   5.945   2.202
   14CHTO   C73 5642   3.782   6.043   2.298
   14CHTO  H145 5643   3.713   6.046   2.384
   14CHTO   C74 5644   3.789   6.185   2.234
   14CHTO  H146 5645   3.688   6.210   2.200
   14CHTO   O54 5646   3.822   6.279   2.338
   14CHTO  H133 5647   3.821   6.366   2.304
   14CHTO   C75 5648   3.893   6.182   2.115
   14CHTO  H147 5649   3.855   6.114   2.038
   14CHTO   N13 5650   3.910   6.313   2.046
   14CHTO  H139 5651   3.842   6.387   2.085
   14CHTO  H140 5652   3.892   6.302   1.940
   14CHTO   C76 5653   4.033   6.123   2.165
   14CHTO  H148 5654   4.083   6.197   2.228
   14CHTO   O49 5655   4.017   5.998   2.240
   14CHTO   C77 5656   3.924   6.002   2.349
   14CHTO  H149 5657   3.957   6.075   2.423
   14CHTO   C88 5658   3.920   5.867   2.421
   14CHTO   O58 5659   4.054   5.831   2.477
   14CHTO  H136 5660   4.111   5.806   2.407
   14CHTO   O51 5661   4.119   6.079   2.041
   14CHTO   C78 5662   4.272   6.113   2.050
   14CHTO  H150 5663   4.297   6.162   2.147
   14CHTO   C80 5664   4.308   6.208   1.934
   14CHTO  H152 5665   4.267   6.166   1.840
   14CHTO   O55 5666   4.241   6.333   1.958
   14CHTO  H134 5667   4.274   6.375   2.035
   14CHTO   C84 5668   4.464   6.228   1.918
   14CHTO  H156 5669   4.500   6.282   2.005
   14CHTO   N15 5670   4.499   6.312   1.798
   14CHTO  H143 5671   4.411   6.342   1.745
   14CHTO  H144 5672   4.564   6.259   1.731
   14CHTO   C87 5673   4.533   6.089   1.915
   14CHTO  H159 5674   4.503   6.035   1.825
   14CHTO   O53 5675   4.493   6.011   2.041
   14CHTO   C82 5676   4.352   5.982   2.042
   14CHTO  H154 5677   4.325   5.925   1.953
   14CHTO   C89 5678   4.323   5.891   2.164
   14CHTO   O59 5679   4.383   5.762   2.150
   14CHTO  H137 5680   4.477   5.770   2.147
   14CHTO   O45 5681   4.695   6.099   1.914
   14CHTO   C67 5682   4.756   5.970   1.896
   14CHTO  H124 5683   4.681   5.891   1.887
   14CHTO   C65 5684   4.844   5.972   1.766
   14CHTO  H122 5685   4.784   6.024   1.691
   14CHTO   O44 5686   4.866   5.837   1.723
   14CHTO  H102 5687   4.910   5.836   1.641
   14CHTO   C63 5688   4.972   6.061   1.789
   14CHTO  H120 5689   4.940   6.160   1.820
   14CHTO   N11 5690   5.052   6.091   1.666
   14CHTO  H108 5691   5.128   6.163   1.688
   14CHTO  H109 5692   5.097   6.002   1.628
   14CHTO   C61 5693   5.055   6.000   1.908
   14CHTO  H118 5694   5.139   6.069   1.926
   14CHTO   O40 5695   4.974   6.001   2.029
   14CHTO   C68 5696   4.842   5.936   2.026
   14CHTO  H125 5697   4.785   5.976   2.112
   14CHTO   C72 5698   4.855   5.783   2.049
   14CHTO   O48 5699   4.921   5.755   2.173
   14CHTO  H105 5700   4.931   5.662   2.182
   14CHTO   O38 5701   5.104   5.866   1.888
   14CHTO   C55 5702   5.239   5.844   1.844
   14CHTO  H112 5703   5.286   5.939   1.814
   14CHTO   C56 5704   5.237   5.739   1.724
   14CHTO  H113 5705   5.183   5.650   1.761
   14CHTO   O42 5706   5.159   5.791   1.615
   14CHTO  H100 5707   5.147   5.725   1.549
   14CHTO   C57 5708   5.383   5.701   1.680
   14CHTO  H114 5709   5.428   5.791   1.636
   14CHTO   N10 5710   5.387   5.595   1.576
   14CHTO  H106 5711   5.475   5.606   1.514
   14CHTO  H107 5712   5.389   5.497   1.622
   14CHTO   C58 5713   5.466   5.661   1.805
   14CHTO  H115 5714   5.425   5.567   1.847
   14CHTO   O37 5715   5.460   5.764   1.905
   14CHTO   C59 5716   5.328   5.785   1.958
   14CHTO  H116 5717   5.287   5.690   1.994
   14CHTO   C70 5718   5.343   5.879   2.078
   14CHTO   O46 5719   5.225   5.885   2.159
   14CHTO  H103 5720   5.241   5.939   2.234
   14CHTO   O39 5721   5.624   5.641   1.766
   14CHTO   C60 5722   5.700   5.573   1.867
   14CHTO  H117 5723   5.672   5.612   1.965
   14CHTO   C62 5724   5.673   5.419   1.868
   14CHTO  H119 5725   5.565   5.405   1.891
   14CHTO   O43 5726   5.698   5.364   1.737
   14CHTO  H101 5727   5.789   5.372   1.715
   14CHTO   C66 5728   5.759   5.350   1.985
   14CHTO  H123 5729   5.733   5.397   2.080
   14CHTO   N12 5730   5.729   5.206   2.002
   14CHTO  H110 5731   5.626   5.192   2.029
   14CHTO  H111 5732   5.752   5.152   1.911
   14CHTO   C69 5733   5.910   5.378   1.960
   14CHTO  H126 5734   5.940   5.334   1.863
   14CHTO   O41 5735   5.931   5.532   1.956
   14CHTO   C64 5736   5.851   5.602   1.849
   14CHTO  H121 5737   5.883   5.566   1.748
   14CHTO   C71 5738   5.879   5.754   1.856
   14CHTO   O47 5739   6.019   5.780   1.842
   14CHTO  H104 5740   6.033   5.873   1.841
   14CHTO   O34 5741   6.002   5.319   2.072
   14CHTO   C49 5742   6.156   5.298   2.065
   14CHTO   H91 5743   6.173   5.214   1.998
   14CHTO   C47 5744   6.205   5.265   2.207
   14CHTO   H89 5745   6.313   5.237   2.193
   14CHTO   O33 5746   6.137   5.150   2.260
   14CHTO   H70 5747   6.045   5.168   2.268
   14CHTO   C45 5748   6.189   5.391   2.307
   14CHTO   H87 5749   6.092   5.380   2.359
   14CHTO    N8 5750   6.297   5.386   2.410
   14CHTO   H75 5751   6.378   5.321   2.380
   14CHTO   H76 5752   6.335   5.486   2.429
   14CHTO   C43 5753   6.174   5.528   2.224
   14CHTO   H85 5754   6.069   5.533   2.194
   14CHTO   O29 5755   6.262   5.528   2.110
   14CHTO   C50 5756   6.235   5.423   2.014
   14CHTO   H92 5757   6.179   5.467   1.930
   14CHTO   C54 5758   6.370   5.381   1.949
   14CHTO   O36 5759   6.431   5.489   1.878
   14CHTO   H72 5760   6.459   5.555   1.938
   14CHTO   O27 5761   6.194   5.646   2.304
   14CHTO   C37 5762   6.136   5.775   2.327
   14CHTO   H79 5763   6.209   5.841   2.377
   14CHTO   C38 5764   6.097   5.844   2.193
   14CHTO   H80 5765   6.026   5.779   2.139
   14CHTO   O31 5766   6.217   5.859   2.114
   14CHTO   H68 5767   6.248   5.775   2.086
   14CHTO   C39 5768   6.029   5.984   2.221
   14CHTO   H81 5769   6.104   6.047   2.268
   14CHTO    N7 5770   5.983   6.055   2.096
   14CHTO   H73 5771   5.911   5.994   2.044
   14CHTO   H74 5772   6.068   6.075   2.033
   14CHTO   C40 5773   5.910   5.966   2.324
   14CHTO   H82 5774   5.826   5.916   2.276
   14CHTO   O26 5775   5.954   5.896   2.442
   14CHTO   C41 5776   6.010   5.763   2.416
   14CHTO   H83 5777   5.935   5.701   2.364
   14CHTO   C52 5778   6.041   5.695   2.551
   14CHTO   O35 5779   5.919   5.655   2.625
   14CHTO   H71 5780   5.866   5.730   2.642
   14CHTO   O28 5781   5.866   6.094   2.374
   14CHTO   C42 5782   5.733   6.115   2.434
   14CHTO   H84 5783   5.735   6.220   2.462
   14CHTO   C44 5784   5.702   6.036   2.565
   14CHTO   H86 5785   5.704   5.929   2.543
   14CHTO   O32 5786   5.809   6.065   2.657
   14CHTO   H69 5787   5.801   6.012   2.734
   14CHTO   C48 5788   5.560   6.073   2.623
   14CHTO   H90 5789   5.561   6.177   2.653
   14CHTO    N9 5790   5.526   5.995   2.747
   14CHTO   H77 5791   5.429   6.025   2.784
   14CHTO   H78 5792   5.602   6.012   2.823
   14CHTO   C51 5793   5.452   6.054   2.510
   14CHTO   H93 5794   5.446   5.948   2.484
   14CHTO   O30 5795   5.486   6.135   2.397
   14CHTO   C46 5796   5.616   6.097   2.332
   14CHTO   H88 5797   5.611   5.992   2.301
   14CHTO   C53 5798   5.635   6.187   2.209
   14CHTO   O72 5799   5.535   6.162   2.110
   14CHTO  H199 5800   5.553   6.214   2.034
   14CHTO   O22 5801   5.322   6.104   2.549
   14CHTO   C31 5802   5.200   6.050   2.488
   14CHTO   H59 5803   5.232   5.996   2.396
   14CHTO   C29 5804   5.128   5.947   2.578
   14CHTO   H57 5805   5.113   5.995   2.676
   14CHTO   O21 5806   5.217   5.836   2.600
   14CHTO   H37 5807   5.292   5.863   2.648
   14CHTO   C27 5808   4.987   5.901   2.521
   14CHTO   H55 5809   5.004   5.843   2.429
   14CHTO    N5 5810   4.911   5.818   2.617
   14CHTO   H43 5811   4.897   5.871   2.710
   14CHTO   H44 5812   4.963   5.724   2.634
   14CHTO   C25 5813   4.906   6.029   2.480
   14CHTO   H53 5814   4.888   6.091   2.570
   14CHTO   O17 5815   4.984   6.106   2.384
   14CHTO   C32 5816   5.103   6.162   2.440
   14CHTO   H60 5817   5.077   6.225   2.525
   14CHTO   C36 5818   5.169   6.251   2.331
   14CHTO   O25 5819   5.082   6.356   2.289
   14CHTO   H40 5820   5.071   6.419   2.358
   14CHTO   O15 5821   4.770   5.997   2.413
   14CHTO   C19 5822   4.641   6.065   2.416
   14CHTO   H47 5823   4.578   6.005   2.347
   14CHTO   C20 5824   4.572   6.069   2.556
   14CHTO   H48 5825   4.630   6.129   2.628
   14CHTO   O19 5826   4.567   5.934   2.606
   14CHTO   H35 5827   4.510   5.880   2.553
   14CHTO   C21 5828   4.426   6.131   2.546
   14CHTO   H49 5829   4.363   6.062   2.490
   14CHTO    N4 5830   4.362   6.149   2.678
   14CHTO   H41 5831   4.421   6.216   2.740
   14CHTO   H42 5832   4.263   6.190   2.666
   14CHTO   C22 5833   4.429   6.263   2.464
   14CHTO   H50 5834   4.472   6.343   2.526
   14CHTO   O14 5835   4.504   6.250   2.342
   14CHTO   C23 5836   4.641   6.210   2.360
   14CHTO   H51 5837   4.688   6.281   2.431
   14CHTO   C34 5838   4.714   6.224   2.226
   14CHTO   O23 5839   4.720   6.360   2.184
   14CHTO   H38 5840   4.769   6.365   2.104
   14CHTO   O16 5841   4.297   6.299   2.419
   14CHTO   C24 5842   4.263   6.461   2.403
   14CHTO   H52 5843   4.170   6.477   2.348
   14CHTO   C26 5844   4.375   6.535   2.327
   14CHTO   H54 5845   4.472   6.511   2.376
   14CHTO   O20 5846   4.377   6.483   2.193
   14CHTO   H36 5847   4.449   6.520   2.145
   14CHTO   C30 5848   4.355   6.689   2.332
   14CHTO   H58 5849   4.263   6.717   2.277
   14CHTO    N6 5850   4.467   6.760   2.265
   14CHTO   H45 5851   4.449   6.867   2.266
   14CHTO   H46 5852   4.560   6.740   2.316
   14CHTO   C33 5853   4.334   6.734   2.480
   14CHTO   H61 5854   4.424   6.708   2.538
   14CHTO   O18 5855   4.222   6.663   2.535
   14CHTO   C28 5856   4.241   6.521   2.545
   14CHTO   H56 5857   4.329   6.499   2.606
   14CHTO   C35 5858   4.117   6.458   2.614
   14CHTO   O24 5859   3.994   6.480   2.544
   14CHTO   H39 5860   3.995   6.434   2.462
   14CHTO    O9 5861   4.318   6.877   2.495
   14CHTO   C13 5862   4.404   6.943   2.620
   14CHTO   H26 5863   4.483   6.872   2.650
   14CHTO   C11 5864   4.306   6.977   2.740
   14CHTO   H24 5865   4.265   6.882   2.779
   14CHTO    O8 5866   4.195   7.055   2.691
   14CHTO    H3 5867   4.225   7.139   2.661
   14CHTO    C9 5868   4.388   7.046   2.854
   14CHTO   H22 5869   4.459   6.969   0.012
   14CHTO    N2 5870   4.307   7.074   0.099
   14CHTO   H10 5871   4.257   6.985   0.132
   14CHTO   H11 5872   4.371   7.112   0.178
   14CHTO    C7 5873   4.474   7.167   2.796
   14CHTO   H20 5874   4.578   7.133   2.812
   14CHTO    O4 5875   4.450   7.189   2.656
   14CHTO   C14 5876   4.482   7.075   2.575
   14CHTO   H27 5877   4.591   7.055   2.586
   14CHTO   C18 5878   4.459   7.113   2.427
   14CHTO   O13 5879   4.557   7.209   2.386
   14CHTO    H7 5880   4.546   7.227   2.294
   14CHTO    O2 5881   4.458   7.313   0.000
   14CHTO    C1 5882   4.530   7.424   2.820
   14CHTO   H14 5883   4.492   7.443   2.717
   14CHTO    C2 5884   4.688   7.407   2.813
   14CHTO   H15 5885   4.718   7.364   0.034
   14CHTO    O6 5886   4.721   7.313   2.709
   14CHTO    H1 5887   4.813   7.297   2.707
   14CHTO    C3 5888   4.766   7.545   2.786
   14CHTO   H16 5889   4.754   7.571   2.680
   14CHTO    N1 5890   4.913   7.532   2.812
   14CHTO    H8 5891   4.931   7.499   0.037
   14CHTO    H9 5892   4.957   7.462   2.743
   14CHTO    C4 5893   4.702   7.665   2.866
   14CHTO   H17 5894   4.727   7.654   0.096
   14CHTO    O1 5895   4.559   7.667   2.848
   14CHTO    C5 5896   4.495   7.551   0.027
   14CHTO   H18 5897   4.531   7.534   0.129
   14CHTO   C16 5898   4.342   7.579   0.035
   14CHTO   O11 5899   4.284   7.603   2.782
   14CHTO    H5 5900   4.191   7.612   2.790
   14CHTO    O3 5901   4.753   7.791   2.817
   14CHTO    C6 5902   4.710   7.911   0.013
   14CHTO   H19 5903   4.617   7.897   0.068
   14CHTO    C8 5904   4.820   7.958   0.114
   14CHTO   H21 5905   4.914   7.972   0.059
   14CHTO    O7 5906   4.836   7.854   0.212
   14CHTO    H2 5907   4.910   7.872   0.267
   14CHTO   C12 5908   4.778   8.096   0.180
   14CHTO   H25 5909   4.687   8.074   0.242
   14CHTO    N3 5910   4.883   8.147   0.274
   14CHTO   H12 5911   4.850   8.239   0.319
   14CHTO   H13 5912   4.903   8.073   0.351
   14CHTO   C15 5913   4.738   8.199   0.068
   14CHTO   H28 5914   4.825   8.231   0.010
   14CHTO   O10 5915   4.666   8.322   0.122
   14CHTO    H4 5916   4.727   8.378   0.166
   14CHTO    O5 5917   4.639   8.143   2.856
   14CHTO   C10 5918   4.684   8.026   2.787
   14CHTO   H23 5919   4.776   8.051   2.732
   14CHTO   C17 5920   4.577   7.990   2.683
   14CHTO   O12 5921   4.629   7.900   2.584
   14CHTO    H6 5922   4.689   7.945   2.528
   15CHTO  H203 5923   5.365   4.978   2.237
   15CHTO   O82 5924   5.353   4.891   2.268
   15CHTO  C123 5925   5.350   4.798   2.159
   15CHTO  H227 5926   5.283   4.838   2.080
   15CHTO   O77 5927   5.488   4.795   2.111
   15CHTO  C118 5928   5.509   4.715   1.994
   15CHTO  H222 5929   5.445   4.750   1.912
   15CHTO  C125 5930   5.659   4.732   1.951
   15CHTO   O84 5931   5.687   4.866   1.910
   15CHTO  H205 5932   5.679   4.924   1.983
   15CHTO  C114 5933   5.476   4.567   2.025
   15CHTO  H218 5934   5.543   4.532   2.104
   15CHTO  C116 5935   5.330   4.554   2.079
   15CHTO  H220 5936   5.258   4.578   1.997
   15CHTO   O79 5937   5.306   4.416   2.114
   15CHTO  H201 5938   5.362   4.390   2.184
   15CHTO  C120 5939   5.306   4.652   2.201
   15CHTO  H224 5940   5.371   4.616   2.284
   15CHTO   N21 5941   5.165   4.647   2.249
   15CHTO  H211 5942   5.155   4.570   2.324
   15CHTO  H212 5943   5.136   4.743   2.291
   15CHTO   O75 5944   5.498   4.495   1.902
   15CHTO  C112 5945   5.598   4.363   1.919
   15CHTO  H216 5946   5.593   4.326   2.022
   15CHTO   O73 5947   5.731   4.407   1.885
   15CHTO  C113 5948   5.832   4.306   1.898
   15CHTO  H217 5949   5.832   4.267   2.002
   15CHTO  C124 5950   5.967   4.376   1.874
   15CHTO   O83 5951   6.081   4.292   1.898
   15CHTO  H204 5952   6.159   4.338   1.876
   15CHTO  C109 5953   5.805   4.190   1.797
   15CHTO  H213 5954   5.813   4.233   1.696
   15CHTO  C110 5955   5.660   4.135   1.819
   15CHTO  H214 5956   5.658   4.082   1.915
   15CHTO   O78 5957   5.631   4.037   1.717
   15CHTO  H200 5958   5.634   4.077   1.632
   15CHTO  C111 5959   5.554   4.248   1.820
   15CHTO  H215 5960   5.549   4.292   1.719
   15CHTO   N19 5961   5.416   4.201   1.853
   15CHTO  H207 5962   5.414   4.094   1.866
   15CHTO  H208 5963   5.378   4.249   1.942
   15CHTO   O74 5964   5.904   4.084   1.812
   15CHTO  C115 5965   5.942   4.015   1.672
   15CHTO  H219 5966   5.854   4.003   1.608
   15CHTO   O76 5967   6.042   4.107   1.586
   15CHTO  C122 5968   6.181   4.073   1.602
   15CHTO  H226 5969   6.206   4.087   1.707
   15CHTO  C126 5970   6.269   4.175   1.523
   15CHTO   O85 5971   6.239   4.181   1.383
   15CHTO  H206 5972   6.156   4.222   1.370
   15CHTO  C121 5973   6.210   3.923   1.558
   15CHTO  H225 5974   6.244   3.921   1.452
   15CHTO   O81 5975   6.317   3.872   1.640
   15CHTO  H202 5976   6.396   3.920   1.624
   15CHTO  C119 5977   6.085   3.830   1.573
   15CHTO  H223 5978   6.023   3.852   1.485
   15CHTO  C117 5979   6.002   3.872   1.700
   15CHTO  H221 5980   6.059   3.882   1.793
   15CHTO   N20 5981   5.892   3.776   1.733
   15CHTO  H209 5982   5.933   3.679   1.755
   15CHTO  H210 5983   5.835   3.812   1.818
   15CHTO   O80 5984   6.124   3.676   1.546
   15CHTO  C103 5985   6.018   3.570   1.479
   15CHTO  H190 5986   5.956   3.525   1.557
   15CHTO  C101 5987   5.923   3.619   1.361
   15CHTO  H188 5988   5.984   3.670   1.287
   15CHTO   O68 5989   5.819   3.720   1.415
   15CHTO  H168 5990   5.862   3.797   1.446
   15CHTO   C99 5991   5.850   3.494   1.291
   15CHTO  H186 5992   5.780   3.448   1.364
   15CHTO   N17 5993   5.768   3.531   1.170
   15CHTO  H174 5994   5.833   3.569   1.092
   15CHTO  H175 5995   5.694   3.604   1.198
   15CHTO   C97 5996   5.953   3.383   1.256
   15CHTO  H184 5997   6.018   3.420   1.175
   15CHTO   O64 5998   6.030   3.348   1.373
   15CHTO  C104 5999   6.111   3.456   1.422
   15CHTO  H191 6000   6.175   3.497   1.343
   15CHTO  C108 6001   6.207   3.397   1.527
   15CHTO   O71 6002   6.320   3.481   1.552
   15CHTO  H171 6003   6.386   3.432   1.598
   15CHTO   O62 6004   5.890   3.258   1.219
   15CHTO   C91 6005   5.953   3.183   1.113
   15CHTO  H178 6006   5.990   3.255   1.040
   15CHTO   C92 6007   5.844   3.099   1.039
   15CHTO  H179 6008   5.757   3.163   1.017
   15CHTO   O66 6009   5.897   3.062   0.910
   15CHTO  H166 6010   5.830   3.024   0.857
   15CHTO   C93 6011   5.803   2.967   1.115
   15CHTO  H180 6012   5.753   2.903   1.041
   15CHTO   N16 6013   5.701   2.989   1.221
   15CHTO  H172 6014   5.677   2.895   1.268
   15CHTO  H173 6015   5.739   3.059   1.294
   15CHTO   C94 6016   5.931   2.891   1.170
   15CHTO  H181 6017   5.936   2.892   1.279
   15CHTO   O61 6018   6.054   2.950   1.124
   15CHTO   C95 6019   6.073   3.088   1.160
   15CHTO  H182 6020   6.083   3.094   1.268
   15CHTO  C106 6021   6.210   3.132   1.099
   15CHTO   O69 6022   6.241   3.267   1.135
   15CHTO  H169 6023   6.184   3.326   1.091
   15CHTO   O63 6024   5.925   2.744   1.118
   15CHTO   C96 6025   5.994   2.640   1.213
   15CHTO  H183 6026   6.007   2.684   1.312
   15CHTO   C98 6027   6.134   2.592   1.164
   15CHTO  H185 6028   6.129   2.566   1.057
   15CHTO   O67 6029   6.223   2.705   1.171
   15CHTO  H167 6030   6.307   2.683   1.137
   15CHTO  C102 6031   6.191   2.468   1.249
   15CHTO  H189 6032   6.211   2.507   1.350
   15CHTO   N18 6033   6.320   2.412   1.200
   15CHTO  H176 6034   6.397   2.488   1.205
   15CHTO  H177 6035   6.310   2.378   1.098
   15CHTO  C105 6036   6.080   2.359   1.260
   15CHTO  H192 6037   6.062   2.316   1.162
   15CHTO   O65 6038   5.957   2.414   1.309
   15CHTO  C100 6039   5.898   2.516   1.228
   15CHTO  H187 6040   5.877   2.475   1.128
   15CHTO  C107 6041   5.764   2.559   1.292
   15CHTO   O70 6042   5.674   2.448   1.303
   15CHTO  H170 6043   5.606   2.469   1.366
   15CHTO   O57 6044   6.134   2.243   1.367
   15CHTO   C85 6045   6.050   2.132   1.406
   15CHTO  H157 6046   5.949   2.173   1.424
   15CHTO   C83 6047   6.100   2.079   1.545
   15CHTO  H155 6048   6.080   2.156   1.619
   15CHTO   O56 6049   6.244   2.063   1.542
   15CHTO  H135 6050   6.276   2.043   1.627
   15CHTO   C81 6051   6.024   1.949   1.586
   15CHTO  H153 6052   5.917   1.972   1.587
   15CHTO   N14 6053   6.053   1.902   1.724
   15CHTO  H141 6054   6.082   1.799   1.724
   15CHTO  H142 6055   6.130   1.960   1.769
   15CHTO   C79 6056   6.048   1.838   1.477
   15CHTO  H151 6057   5.989   1.751   1.506
   15CHTO   O52 6058   5.994   1.884   1.349
   15CHTO   C86 6059   6.047   2.012   1.300
   15CHTO  H158 6060   6.149   1.988   1.264
   15CHTO   C90 6061   5.965   2.051   1.174
   15CHTO   O60 6062   5.979   1.955   1.069
   15CHTO  H138 6063   5.920   1.976   1.000
   15CHTO   O50 6064   6.186   1.798   1.464
   15CHTO   C73 6065   6.243   1.698   1.378
   15CHTO  H145 6066   6.198   1.705   1.278
   15CHTO   C74 6067   6.214   1.555   1.436
   15CHTO  H146 6068   6.106   1.547   1.451
   15CHTO   O54 6069   6.248   1.458   1.335
   15CHTO  H133 6070   6.190   1.467   1.261
   15CHTO   C75 6071   6.295   1.535   1.571
   15CHTO  H147 6072   6.263   1.612   1.642
   15CHTO   N13 6073   6.272   1.404   1.637
   15CHTO  H139 6074   6.203   1.343   1.580
   15CHTO  H140 6075   6.231   1.419   1.736
   15CHTO   C76 6076   6.450   1.561   1.540
   15CHTO  H148 6077   6.481   1.490   1.463
   15CHTO   O49 6078   6.464   1.698   1.490
   15CHTO   C77 6079   6.397   1.721   1.365
   15CHTO  H149 6080   6.436   1.655   1.288
   15CHTO   C88 6081   6.434   1.864   1.321
   15CHTO   O58 6082   6.377   1.897   1.193
   15CHTO  H136 6083   6.404   1.983   1.168
   15CHTO   O51 6084   6.543   1.555   1.671
   15CHTO   C78 6085   6.690   1.492   1.642
   15CHTO  H150 6086   6.693   1.439   1.544
   15CHTO   C80 6087   6.726   1.392   1.754
   15CHTO  H152 6088   6.716   1.444   1.852
   15CHTO   O55 6089   6.627   1.287   1.751
   15CHTO  H134 6090   6.633   1.238   1.671
   15CHTO   C84 6091   6.874   1.337   1.738
   15CHTO  H156 6092   6.879   1.285   1.642
   15CHTO   N15 6093   6.914   1.239   1.844
   15CHTO  H143 6094   6.906   1.284   1.940
   15CHTO  H144 6095   6.851   1.153   1.839
   15CHTO   C87 6096   6.970   1.458   1.733
   15CHTO  H159 6097   6.967   1.513   1.828
   15CHTO   O53 6098   6.926   1.548   1.618
   15CHTO   C82 6099   6.796   1.605   1.638
   15CHTO  H154 6100   6.794   1.663   1.730
   15CHTO   C89 6101   6.773   1.705   1.522
   15CHTO   O59 6102   6.775   1.642   1.393
   15CHTO  H137 6103   6.861   1.609   1.374
   15CHTO   O45 6104   7.127   1.413   1.703
   15CHTO   C67 6105   7.214   1.526   1.686
   15CHTO  H124 6106   7.155   1.618   1.678
   15CHTO   C65 6107   7.312   1.541   1.808
   15CHTO  H122 6108   7.334   1.440   1.842
   15CHTO   O44 6109   7.236   1.610   1.909
   15CHTO  H102 6110   7.280   1.604   1.992
   15CHTO   C63 6111   7.452   1.603   1.768
   15CHTO  H120 6112   7.514   1.524   1.726
   15CHTO   N11 6113   7.539   1.651   1.882
   15CHTO  H108 6114   7.484   1.651   1.973
   15CHTO  H109 6115   7.577   1.749   1.862
   15CHTO   C61 6116   7.430   1.708   1.653
   15CHTO  H118 6117   7.529   1.744   1.623
   15CHTO   O40 6118   7.370   1.646   1.534
   15CHTO   C68 6119   7.298   1.520   1.552
   15CHTO  H125 6120   7.371   1.437   1.556
   15CHTO   C72 6121   7.211   1.497   1.426
   15CHTO   O48 6122   7.148   1.368   1.424
   15CHTO  H105 6123   7.105   1.356   1.342
   15CHTO   O38 6124   7.346   1.817   1.696
   15CHTO   C55 6125   7.353   1.938   1.618
   15CHTO  H112 6126   7.389   1.916   1.516
   15CHTO   C56 6127   7.446   2.044   1.691
   15CHTO  H113 6128   7.409   2.054   1.794
   15CHTO   O42 6129   7.580   1.992   1.700
   15CHTO  H100 6130   7.633   2.050   1.751
   15CHTO   C57 6131   7.441   2.184   1.616
   15CHTO  H114 6132   7.489   2.170   1.519
   15CHTO   N10 6133   7.514   2.292   1.688
   15CHTO  H106 6134   7.511   2.275   1.794
   15CHTO  H107 6135   7.617   2.293   1.656
   15CHTO   C58 6136   7.293   2.225   1.592
   15CHTO  H115 6137   7.245   2.245   1.690
   15CHTO   O37 6138   7.221   2.120   1.525
   15CHTO   C59 6139   7.211   1.998   1.601
   15CHTO  H116 6140   7.167   2.020   1.699
   15CHTO   C70 6141   7.115   1.903   1.529
   15CHTO   O46 6142   7.158   1.866   1.397
   15CHTO  H103 6143   7.232   1.810   1.402
   15CHTO   O39 6144   7.285   2.366   1.498
   15CHTO   C60 6145   7.212   2.360   1.374
   15CHTO  H117 6146   7.240   2.268   1.322
   15CHTO   C62 6147   7.058   2.359   1.399
   15CHTO  H119 6148   7.036   2.269   1.460
   15CHTO   O43 6149   7.021   2.475   1.476
   15CHTO  H101 6150   6.929   2.473   1.496
   15CHTO   C66 6151   6.982   2.348   1.258
   15CHTO  H123 6152   7.018   2.260   1.206
   15CHTO   N12 6153   6.836   2.329   1.274
   15CHTO  H110 6154   6.792   2.413   1.325
   15CHTO  H111 6155   6.789   2.314   1.178
   15CHTO   C69 6156   7.018   2.472   1.171
   15CHTO  H126 6157   6.984   2.565   1.221
   15CHTO   O41 6158   7.174   2.476   1.152
   15CHTO   C64 6159   7.254   2.478   1.282
   15CHTO  H121 6160   7.237   2.574   1.335
   15CHTO   C71 6161   7.404   2.472   1.241
   15CHTO   O47 6162   7.492   2.494   1.352
   15CHTO  H104 6163   7.491   2.419   1.409
   15CHTO   O34 6164   6.955   2.465   1.032
   15CHTO   C49 6165   6.863   2.451   0.916
   15CHTO   H91 6166   6.840   2.345   0.907
   15CHTO   C47 6167   6.937   2.501   0.790
   15CHTO   H89 6168   6.871   2.477   0.703
   15CHTO   O33 6169   7.060   2.428   0.777
   15CHTO   H70 6170   7.102   2.450   0.696
   15CHTO   C45 6171   6.958   2.660   0.802
   15CHTO   H87 6172   7.011   2.681   0.896
   15CHTO    N8 6173   7.039   2.715   0.690
   15CHTO   H75 6174   7.054   2.641   0.613
   15CHTO   H76 6175   7.135   2.748   0.727
   15CHTO   C43 6176   6.815   2.733   0.817
   15CHTO   H85 6177   6.837   2.839   0.834
   15CHTO   O29 6178   6.741   2.675   0.926
   15CHTO   C50 6179   6.731   2.532   0.936
   15CHTO   H92 6180   6.697   2.510   1.039
   15CHTO   C54 6181   6.617   2.474   0.848
   15CHTO   O36 6182   6.489   2.520   0.894
   15CHTO   H72 6183   6.421   2.475   0.846
   15CHTO   O27 6184   6.737   2.729   0.695
   15CHTO   C37 6185   6.649   2.817   0.623
   15CHTO   H79 6186   6.583   2.758   0.557
   15CHTO   C38 6187   6.556   2.896   0.720
   15CHTO   H80 6188   6.619   2.945   0.796
   15CHTO   O31 6189   6.471   2.801   0.788
   15CHTO   H68 6190   6.414   2.758   0.727
   15CHTO   C39 6191   6.470   3.005   0.644
   15CHTO   H81 6192   6.398   2.951   0.582
   15CHTO    N7 6193   6.390   3.093   0.736
   15CHTO   H73 6194   6.322   3.034   0.795
   15CHTO   H74 6195   6.457   3.149   0.801
   15CHTO   C40 6196   6.559   3.092   0.547
   15CHTO   H82 6197   6.616   3.167   0.603
   15CHTO   O26 6198   6.644   3.010   0.466
   15CHTO   C41 6199   6.731   2.917   0.536
   15CHTO   H83 6200   6.799   2.973   0.602
   15CHTO   C52 6201   6.818   2.847   0.429
   15CHTO   O35 6202   6.739   2.782   0.323
   15CHTO   H71 6203   6.690   2.846   0.276
   15CHTO   O28 6204   6.479   3.154   0.444
   15CHTO   C42 6205   6.490   3.293   0.400
   15CHTO   H84 6206   6.464   3.288   0.295
   15CHTO   C44 6207   6.631   3.362   0.405
   15CHTO   H86 6208   6.668   3.359   0.508
   15CHTO   O32 6209   6.720   3.282   0.325
   15CHTO   H69 6210   6.695   3.285   0.234
   15CHTO   C48 6211   6.628   3.513   0.358
   15CHTO   H90 6212   6.606   3.514   0.251
   15CHTO    N9 6213   6.762   3.581   0.373
   15CHTO   H77 6214   6.756   3.681   0.335
   15CHTO   H78 6215   6.791   3.581   0.477
   15CHTO   C51 6216   6.512   3.591   0.432
   15CHTO   H93 6217   6.537   3.595   0.539
   15CHTO   O30 6218   6.388   3.523   0.410
   15CHTO   C46 6219   6.384   3.383   0.469
   15CHTO   H88 6220   6.406   3.389   0.575
   15CHTO   C53 6221   6.240   3.329   0.449
   15CHTO   O72 6222   6.202   3.324   0.311
   15CHTO  H199 6223   6.116   3.290   0.303
   15CHTO   O22 6224   6.495   3.724   0.378
   15CHTO   C31 6225   6.407   3.829   0.435
   15CHTO   H59 6226   6.436   3.923   0.384
   15CHTO   C29 6227   6.256   3.808   0.408
   15CHTO   H57 6228   6.226   3.714   0.457
   15CHTO   O21 6229   6.239   3.789   0.266
   15CHTO   H37 6230   6.152   3.760   0.248
   15CHTO   C27 6231   6.170   3.927   0.466
   15CHTO   H55 6232   6.198   4.020   0.413
   15CHTO    N5 6233   6.024   3.906   0.448
   15CHTO   H43 6234   5.970   3.991   0.486
   15CHTO   H44 6235   6.001   3.891   0.344
   15CHTO   C25 6236   6.206   3.946   0.618
   15CHTO   H53 6237   6.179   3.855   0.673
   15CHTO   O17 6238   6.350   3.967   0.631
   15CHTO   C32 6239   6.429   3.855   0.587
   15CHTO   H60 6240   6.399   3.767   0.643
   15CHTO   C36 6241   6.578   3.883   0.618
   15CHTO   O25 6242   6.603   3.883   0.759
   15CHTO   H40 6243   6.603   3.795   0.791
   15CHTO   O15 6244   6.127   4.073   0.685
   15CHTO   C19 6245   6.169   4.201   0.741
   15CHTO   H47 6246   6.264   4.224   0.689
   15CHTO   C20 6247   6.070   4.319   0.717
   15CHTO   H48 6248   5.973   4.302   0.767
   15CHTO   O19 6249   6.046   4.327   0.575
   15CHTO   H35 6250   5.993   4.255   0.547
   15CHTO   C21 6251   6.129   4.456   0.771
   15CHTO   H49 6252   6.213   4.484   0.708
   15CHTO    N4 6253   6.033   4.570   0.763
   15CHTO   H41 6254   6.080   4.661   0.797
   15CHTO   H42 6255   5.946   4.549   0.824
   15CHTO   C22 6256   6.186   4.440   0.914
   15CHTO   H50 6257   6.105   4.438   0.988
   15CHTO   O14 6258   6.266   4.321   0.927
   15CHTO   C23 6259   6.202   4.198   0.892
   15CHTO   H51 6260   6.111   4.190   0.954
   15CHTO   C34 6261   6.296   4.085   0.932
   15CHTO   O23 6262   6.315   4.079   1.074
   15CHTO   H38 6263   6.236   4.049   1.115
   15CHTO   O16 6264   6.282   4.544   0.944
   15CHTO   C24 6265   6.294   4.589   1.099
   15CHTO   H52 6266   6.215   4.545   1.161
   15CHTO   C26 6267   6.283   4.742   1.103
   15CHTO   H54 6268   6.352   4.784   1.026
   15CHTO   O20 6269   6.149   4.778   1.065
   15CHTO   H36 6270   6.141   4.871   1.058
   15CHTO   C30 6271   6.324   4.802   1.242
   15CHTO   H58 6272   6.248   4.773   1.316
   15CHTO    N6 6273   6.326   4.951   1.239
   15CHTO   H45 6274   6.257   4.991   1.312
   15CHTO   H46 6275   6.425   4.989   1.260
   15CHTO   C33 6276   6.458   4.740   1.290
   15CHTO   H61 6277   6.538   4.768   1.219
   15CHTO   O18 6278   6.445   4.597   1.290
   15CHTO   C28 6279   6.429   4.541   1.159
   15CHTO   H56 6280   6.510   4.573   1.094
   15CHTO   C35 6281   6.437   4.388   1.176
   15CHTO   O24 6282   6.566   4.344   1.220
   15CHTO   H39 6283   6.584   4.377   1.306
   15CHTO    O9 6284   6.501   4.787   1.419
   15CHTO   C13 6285   6.666   4.788   1.453
   15CHTO   H26 6286   6.692   4.895   1.469
   15CHTO   C11 6287   6.761   4.721   1.344
   15CHTO   H24 6288   6.746   4.775   1.249
   15CHTO    O8 6289   6.731   4.582   1.320
   15CHTO    H3 6290   6.743   4.532   1.399
   15CHTO    C9 6291   6.906   4.747   1.391
   15CHTO   H22 6292   6.913   4.857   1.402
   15CHTO    N2 6293   7.009   4.715   1.289
   15CHTO   H10 6294   7.058   4.804   1.254
   15CHTO   H11 6295   7.082   4.646   1.329
   15CHTO    C7 6296   6.930   4.682   1.533
   15CHTO   H20 6297   7.025   4.728   1.563
   15CHTO    O4 6298   6.830   4.718   1.630
   15CHTO   C14 6299   6.690   4.723   1.595
   15CHTO   H27 6300   6.642   4.789   1.669
   15CHTO   C18 6301   6.624   4.583   1.610
   15CHTO   O13 6302   6.629   4.537   1.746
   15CHTO    H7 6303   6.718   4.514   1.768
   15CHTO    O2 6304   6.949   4.521   1.531
   15CHTO    C1 6305   7.013   4.466   1.648
   15CHTO   H14 6306   6.954   4.495   1.738
   15CHTO    C2 6307   7.165   4.510   1.671
   15CHTO   H15 6308   7.212   4.506   1.571
   15CHTO    O6 6309   7.170   4.645   1.721
   15CHTO    H1 6310   7.126   4.651   1.803
   15CHTO    C3 6311   7.245   4.414   1.773
   15CHTO   H16 6312   7.211   4.438   1.875
   15CHTO    N1 6313   7.393   4.441   1.769
   15CHTO    H8 6314   7.447   4.354   1.734
   15CHTO    H9 6315   7.429   4.468   1.868
   15CHTO    C4 6316   7.209   4.263   1.751
   15CHTO   H17 6317   7.254   4.230   1.657
   15CHTO    O1 6318   7.066   4.245   1.748
   15CHTO    C5 6319   7.001   4.310   1.638
   15CHTO   H18 6320   7.047   4.280   1.544
   15CHTO   C16 6321   6.852   4.266   1.638
   15CHTO   O11 6322   6.837   4.126   1.614
   15CHTO    H5 6323   6.873   4.077   1.685
   15CHTO    O3 6324   7.257   4.183   1.861
   15CHTO    C6 6325   7.278   4.041   1.831
   15CHTO   H19 6326   7.228   4.010   1.739
   15CHTO    C8 6327   7.431   4.009   1.817
   15CHTO   H21 6328   7.481   4.045   1.907
   15CHTO    O7 6329   7.480   4.080   1.702
   15CHTO    H2 6330   7.483   4.173   1.720
   15CHTO   C12 6331   7.455   3.853   1.804
   15CHTO   H25 6332   7.417   3.824   1.704
   15CHTO    N3 6333   7.602   3.820   1.803
   15CHTO   H12 6334   7.615   3.713   1.794
   15CHTO   H13 6335   7.651   3.871   1.721
   15CHTO   C15 6336   7.375   3.775   1.913
   15CHTO   H28 6337   7.420   3.785   2.012
   15CHTO   O10 6338   7.362   3.622   1.878
   15CHTO    H4 6339   7.319   3.576   1.948
   15CHTO    O5 6340   7.237   3.816   1.918
   15CHTO   C10 6341   7.218   3.955   1.945
   15CHTO   H23 6342   7.268   3.979   2.039
   15CHTO   C17 6343   7.068   3.982   1.967
   15CHTO   O12 6344   6.989   3.954   1.850
   15CHTO    H6 6345   7.006   4.019   1.785
   16CHTO  H203 6346   5.261   4.435   0.763
   16CHTO   O82 6347   5.204   4.406   0.832
   16CHTO  C123 6348   5.276   4.329   0.929
   16CHTO  H227 6349   5.207   4.302   1.011
   16CHTO   O77 6350   5.316   4.209   0.856
   16CHTO  C118 6351   5.384   4.113   0.938
   16CHTO  H222 6352   5.324   4.092   1.027
   16CHTO  C125 6353   5.400   3.980   0.855
   16CHTO   O84 6354   5.476   3.999   0.735
   16CHTO  H205 6355   5.487   3.917   0.691
   16CHTO  C114 6356   5.520   4.171   0.981
   16CHTO  H218 6357   5.579   4.192   0.891
   16CHTO  C116 6358   5.502   4.305   1.058
   16CHTO  H220 6359   5.463   4.282   1.160
   16CHTO   O79 6360   5.631   4.366   1.078
   16CHTO  H201 6361   5.684   4.313   1.136
   16CHTO  C120 6362   5.404   4.405   0.984
   16CHTO  H224 6363   5.461   4.448   0.900
   16CHTO   N21 6364   5.366   4.518   1.073
   16CHTO  H211 6365   5.363   4.487   1.176
   16CHTO  H212 6366   5.272   4.561   1.043
   16CHTO   O75 6367   5.583   4.070   1.061
   16CHTO  C112 6368   5.740   4.049   1.028
   16CHTO  H216 6369   5.783   4.143   0.991
   16CHTO   O73 6370   5.749   3.944   0.931
   16CHTO  C113 6371   5.882   3.908   0.891
   16CHTO  H217 6372   5.930   3.996   0.845
   16CHTO  C124 6373   5.870   3.801   0.781
   16CHTO   O83 6374   5.798   3.685   0.822
   16CHTO  H204 6375   5.789   3.626   0.750
   16CHTO  C109 6376   5.965   3.859   1.012
   16CHTO  H213 6377   5.917   3.767   1.049
   16CHTO  C110 6378   5.964   3.968   1.124
   16CHTO  H214 6379   6.017   4.056   1.087
   16CHTO   O78 6380   6.037   3.919   1.238
   16CHTO  H200 6381   6.128   3.909   1.217
   16CHTO  C111 6382   5.818   4.006   1.160
   16CHTO  H215 6383   5.767   3.917   1.201
   16CHTO   N19 6384   5.808   4.113   1.263
   16CHTO  H207 6385   5.704   4.136   1.283
   16CHTO  H208 6386   5.858   4.202   1.228
   16CHTO   O74 6387   6.102   3.826   0.970
   16CHTO  C115 6388   6.159   3.700   1.044
   16CHTO  H219 6389   6.131   3.699   1.149
   16CHTO   O76 6390   6.097   3.566   0.986
   16CHTO  C122 6391   6.155   3.528   0.860
   16CHTO  H226 6392   6.135   3.608   0.788
   16CHTO  C126 6393   6.080   3.402   0.805
   16CHTO   O85 6394   5.940   3.422   0.789
   16CHTO  H206 6395   5.899   3.342   0.763
   16CHTO  C121 6396   6.310   3.501   0.874
   16CHTO  H225 6397   6.327   3.391   0.871
   16CHTO   O81 6398   6.378   3.557   0.761
   16CHTO  H202 6399   6.467   3.528   0.758
   16CHTO  C119 6400   6.369   3.557   1.007
   16CHTO  H223 6401   6.327   3.495   1.086
   16CHTO  C117 6402   6.318   3.703   1.033
   16CHTO  H221 6403   6.341   3.776   0.956
   16CHTO   N20 6404   6.378   3.759   1.159
   16CHTO  H209 6405   6.348   3.700   1.245
   16CHTO  H210 6406   6.347   3.862   1.172
   16CHTO   O80 6407   6.526   3.527   1.024
   16CHTO  C103 6408   6.575   3.381   1.018
   16CHTO  H190 6409   6.491   3.315   0.993
   16CHTO  C101 6410   6.692   3.349   0.918
   16CHTO  H188 6411   6.778   3.410   0.945
   16CHTO   O68 6412   6.647   3.386   0.774
   16CHTO  H168 6413   6.634   3.479   0.767
   16CHTO   C99 6414   6.732   3.194   0.930
   16CHTO  H186 6415   6.645   3.134   0.896
   16CHTO   N17 6416   6.849   3.153   0.845
   16CHTO  H174 6417   6.817   3.090   0.764
   16CHTO  H175 6418   6.902   3.240   0.809
   16CHTO   C97 6419   6.754   3.154   1.079
   16CHTO  H184 6420   6.850   3.196   1.113
   16CHTO   O64 6421   6.644   3.198   1.161
   16CHTO  C104 6422   6.623   3.340   1.162
   16CHTO  H191 6423   6.714   3.395   1.186
   16CHTO  C108 6424   6.522   3.375   1.272
   16CHTO   O71 6425   6.571   3.337   1.402
   16CHTO  H171 6426   6.566   3.244   1.412
   16CHTO   O62 6427   6.756   3.009   1.093
   16CHTO   C91 6428   6.776   2.958   1.227
   16CHTO  H178 6429   6.763   3.040   1.299
   16CHTO   C92 6430   6.922   2.907   1.246
   16CHTO  H179 6431   6.941   2.825   1.175
   16CHTO   O66 6432   7.011   3.014   1.210
   16CHTO  H166 6433   7.100   2.983   1.212
   16CHTO   C93 6434   6.944   2.860   1.396
   16CHTO  H180 6435   6.934   2.949   1.460
   16CHTO   N16 6436   7.079   2.806   1.422
   16CHTO  H172 6437   7.099   2.721   1.359
   16CHTO  H173 6438   7.153   2.883   1.405
   16CHTO   C94 6439   6.831   2.757   1.437
   16CHTO  H181 6440   6.839   2.663   1.381
   16CHTO   O61 6441   6.702   2.812   1.408
   16CHTO   C95 6442   6.679   2.842   1.270
   16CHTO  H182 6443   6.697   2.753   1.210
   16CHTO  C106 6444   6.527   2.879   1.253
   16CHTO   O69 6445   6.491   2.898   1.116
   16CHTO  H169 6446   6.500   2.817   1.069
   16CHTO   O63 6447   6.839   2.724   1.601
   16CHTO   C96 6448   6.705   2.659   1.669
   16CHTO  H183 6449   6.739   2.608   1.759
   16CHTO   C98 6450   6.629   2.553   1.583
   16CHTO  H185 6451   6.612   2.591   1.481
   16CHTO   O67 6452   6.716   2.439   1.567
   16CHTO  H167 6453   6.789   2.461   1.513
   16CHTO  C102 6454   6.489   2.513   1.650
   16CHTO  H189 6455   6.514   2.476   1.751
   16CHTO   N18 6456   6.413   2.404   1.585
   16CHTO  H176 6457   6.472   2.313   1.584
   16CHTO  H177 6458   6.321   2.386   1.639
   16CHTO  C105 6459   6.412   2.647   1.664
   16CHTO  H192 6460   6.412   2.697   1.567
   16CHTO   O65 6461   6.480   2.731   1.758
   16CHTO  C100 6462   6.609   2.776   1.715
   16CHTO  H187 6463   6.594   2.845   1.630
   16CHTO  C107 6464   6.674   2.856   1.830
   16CHTO   O70 6465   6.599   2.974   1.862
   16CHTO  H170 6466   6.608   3.037   1.793
   16CHTO   O57 6467   6.257   2.622   1.711
   16CHTO   C85 6468   6.156   2.684   1.630
   16CHTO  H157 6469   6.187   2.667   1.524
   16CHTO   C83 6470   6.159   2.839   1.649
   16CHTO  H155 6471   6.257   2.875   1.617
   16CHTO   O56 6472   6.148   2.870   1.789
   16CHTO  H135 6473   6.158   2.962   1.803
   16CHTO   C81 6474   6.050   2.904   1.559
   16CHTO  H153 6475   6.070   2.875   1.456
   16CHTO   N14 6476   6.056   3.052   1.558
   16CHTO  H141 6477   6.153   3.085   1.526
   16CHTO  H142 6478   6.037   3.091   1.656
   16CHTO   C79 6479   5.908   2.850   1.599
   16CHTO  H151 6480   5.837   2.889   1.525
   16CHTO   O52 6481   5.904   2.704   1.586
   16CHTO   C86 6482   6.009   2.632   1.656
   16CHTO  H158 6483   5.982   2.639   1.764
   16CHTO   C90 6484   6.001   2.482   1.620
   16CHTO   O60 6485   5.875   2.424   1.653
   16CHTO  H138 6486   5.809   2.456   1.595
   16CHTO   O50 6487   5.864   2.891   1.730
   16CHTO   C73 6488   5.742   2.864   1.801
   16CHTO  H145 6489   5.739   2.758   1.832
   16CHTO   C74 6490   5.618   2.892   1.711
   16CHTO  H146 6491   5.627   2.830   1.621
   16CHTO   O54 6492   5.501   2.845   1.781
   16CHTO  H133 6493   5.426   2.850   1.724
   16CHTO   C75 6494   5.612   3.046   1.677
   16CHTO  H147 6495   5.704   3.074   1.624
   16CHTO   N13 6496   5.500   3.083   1.586
   16CHTO  H139 6497   5.511   3.030   1.492
   16CHTO  H140 6498   5.503   3.189   1.566
   16CHTO   C76 6499   5.608   3.128   1.814
   16CHTO  H148 6500   5.515   3.103   1.865
   16CHTO   O49 6501   5.721   3.093   1.899
   16CHTO   C77 6502   5.732   2.953   1.930
   16CHTO  H149 6503   5.644   2.922   1.986
   16CHTO   C88 6504   5.849   2.932   2.027
   16CHTO   O58 6505   5.975   3.000   1.982
   16CHTO  H136 6506   6.005   2.962   1.901
   16CHTO   O51 6507   5.623   3.285   1.789
   16CHTO   C78 6508   5.564   3.366   1.910
   16CHTO  H150 6509   5.555   3.301   2.000
   16CHTO   C80 6510   5.426   3.424   1.875
   16CHTO  H152 6511   5.437   3.492   1.787
   16CHTO   O55 6512   5.341   3.314   1.838
   16CHTO  H134 6513   5.259   3.346   1.804
   16CHTO   C84 6514   5.367   3.505   1.997
   16CHTO  H156 6515   5.349   3.434   2.078
   16CHTO   N15 6516   5.234   3.568   1.967
   16CHTO  H143 6517   5.197   3.619   2.054
   16CHTO  H144 6518   5.163   3.493   1.939
   16CHTO   C87 6519   5.469   3.609   2.048
   16CHTO  H159 6520   5.477   3.693   1.977
   16CHTO   O53 6521   5.612   3.542   2.067
   16CHTO   C82 6522   5.660   3.480   1.947
   16CHTO  H154 6523   5.665   3.554   1.867
   16CHTO   C89 6524   5.806   3.430   1.970
   16CHTO   O59 6525   5.816   3.335   2.077
   16CHTO  H137 6526   5.802   3.377   2.159
   16CHTO   O45 6527   5.424   3.666   2.193
   16CHTO   C67 6528   5.509   3.772   2.241
   16CHTO  H124 6529   5.605   3.768   2.188
   16CHTO   C65 6530   5.443   3.912   2.214
   16CHTO  H122 6531   5.335   3.897   2.219
   16CHTO   O44 6532   5.479   3.947   2.079
   16CHTO  H102 6533   5.439   3.888   2.018
   16CHTO   C63 6534   5.475   4.017   2.328
   16CHTO  H120 6535   5.411   3.996   2.413
   16CHTO   N11 6536   5.439   4.159   2.299
   16CHTO  H108 6537   5.336   4.165   2.268
   16CHTO  H109 6538   5.501   4.198   2.221
   16CHTO   C61 6539   5.623   3.995   2.378
   16CHTO  H118 6540   5.639   4.065   2.462
   16CHTO   O40 6541   5.642   3.861   2.432
   16CHTO   C68 6542   5.546   3.756   2.394
   16CHTO  H125 6543   5.455   3.767   2.457
   16CHTO   C72 6544   5.609   3.619   2.429
   16CHTO   O48 6545   5.517   3.510   2.417
   16CHTO  H105 6546   5.557   3.432   2.448
   16CHTO   O38 6547   5.719   4.021   2.273
   16CHTO   C55 6548   5.858   4.024   2.311
   16CHTO  H112 6549   5.873   3.970   2.406
   16CHTO   C56 6550   5.910   4.174   2.320
   16CHTO  H113 6551   5.883   4.223   2.225
   16CHTO   O42 6552   5.837   4.243   2.424
   16CHTO  H100 6553   5.858   4.334   2.423
   16CHTO   C57 6554   6.066   4.178   2.344
   16CHTO  H114 6555   6.084   4.141   2.445
   16CHTO   N10 6556   6.124   4.315   2.340
   16CHTO  H106 6557   6.151   4.343   2.239
   16CHTO  H107 6558   6.053   4.388   2.378
   16CHTO   C58 6559   6.138   4.085   2.243
   16CHTO  H115 6560   6.128   4.128   2.140
   16CHTO   O37 6561   6.081   3.953   2.246
   16CHTO   C59 6562   5.943   3.948   2.205
   16CHTO  H116 6563   5.932   3.994   2.107
   16CHTO   C70 6564   5.902   3.801   2.195
   16CHTO   O46 6565   5.975   3.730   2.095
   16CHTO  H103 6566   6.065   3.723   2.119
   16CHTO   O39 6567   6.299   4.067   2.281
   16CHTO   C60 6568   6.370   3.985   2.186
   16CHTO  H117 6569   6.302   3.914   2.140
   16CHTO   C62 6570   6.432   4.071   2.072
   16CHTO  H119 6571   6.347   4.128   2.026
   16CHTO   O43 6572   6.526   4.166   2.126
   16CHTO  H101 6573   6.481   4.230   2.178
   16CHTO   C66 6574   6.495   3.974   1.961
   16CHTO  H123 6575   6.416   3.907   1.925
   16CHTO   N12 6576   6.545   4.046   1.841
   16CHTO  H110 6577   6.530   4.152   1.851
   16CHTO  H111 6578   6.497   4.008   1.752
   16CHTO   C69 6579   6.604   3.883   2.023
   16CHTO  H126 6580   6.695   3.943   2.049
   16CHTO   O41 6581   6.550   3.810   2.154
   16CHTO   C64 6582   6.481   3.903   2.256
   16CHTO  H121 6583   6.556   3.972   2.300
   16CHTO   C71 6584   6.422   3.816   2.371
   16CHTO   O47 6585   6.526   3.749   2.443
   16CHTO  H104 6586   6.565   3.683   2.389
   16CHTO   O34 6587   6.647   3.770   1.919
   16CHTO   C49 6588   6.751   3.676   1.858
   16CHTO   H91 6589   6.800   3.733   1.779
   16CHTO   C47 6590   6.679   3.554   1.798
   16CHTO   H89 6591   6.756   3.496   1.742
   16CHTO   O33 6592   6.580   3.601   1.705
   16CHTO   H70 6593   6.550   3.530   1.651
   16CHTO   C45 6594   6.616   3.464   1.917
   16CHTO   H87 6595   6.546   3.527   1.974
   16CHTO    N8 6596   6.542   3.347   1.866
   16CHTO   H75 6597   6.465   3.379   1.796
   16CHTO   H76 6598   6.610   3.279   1.816
   16CHTO   C43 6599   6.731   3.424   2.024
   16CHTO   H85 6600   6.678   3.379   2.108
   16CHTO   O29 6601   6.806   3.541   2.064
   16CHTO   C50 6602   6.857   3.630   1.962
   16CHTO   H92 6603   6.893   3.720   2.014
   16CHTO   C54 6604   6.986   3.571   1.898
   16CHTO   O36 6605   7.040   3.653   1.795
   16CHTO   H72 6606   7.081   3.729   1.833
   16CHTO   O27 6607   6.820   3.322   1.975
   16CHTO   C37 6608   6.931   3.242   2.021
   16CHTO   H79 6609   7.025   3.297   2.010
   16CHTO   C38 6610   6.915   3.209   2.173
   16CHTO   H80 6611   6.810   3.178   2.191
   16CHTO   O31 6612   6.939   3.331   2.246
   16CHTO   H68 6613   6.871   3.394   2.229
   16CHTO   C39 6614   7.013   3.097   2.224
   16CHTO   H81 6615   7.111   3.143   2.234
   16CHTO    N7 6616   6.976   3.045   2.361
   16CHTO   H73 6617   7.048   2.970   2.393
   16CHTO   H74 6618   6.877   3.002   2.359
   16CHTO   C40 6619   7.028   2.979   2.121
   16CHTO   H82 6620   6.942   2.911   2.126
   16CHTO   O26 6621   7.049   3.030   1.989
   16CHTO   C41 6622   6.939   3.111   1.939
   16CHTO   H83 6623   6.844   3.056   1.949
   16CHTO   C52 6624   6.966   3.136   1.788
   16CHTO   O35 6625   6.852   3.199   1.718
   16CHTO   H71 6626   6.839   3.286   1.750
   16CHTO   O28 6627   7.148   2.904   2.151
   16CHTO   C42 6628   7.179   2.773   2.095
   16CHTO   H84 6629   7.277   2.750   2.137
   16CHTO   C44 6630   7.197   2.767   1.939
   16CHTO   H86 6631   7.103   2.798   1.892
   16CHTO   O32 6632   7.299   2.862   1.905
   16CHTO   H69 6633   7.269   2.950   1.920
   16CHTO   C48 6634   7.231   2.622   1.887
   16CHTO   H90 6635   7.330   2.595   1.925
   16CHTO    N9 6636   7.240   2.615   1.737
   16CHTO   H77 6637   7.341   2.590   1.706
   16CHTO   H78 6638   7.208   2.707   1.691
   16CHTO   C51 6639   7.126   2.521   1.945
   16CHTO   H93 6640   7.028   2.549   1.906
   16CHTO   O30 6641   7.130   2.527   2.088
   16CHTO   C46 6642   7.082   2.661   2.142
   16CHTO   H88 6643   6.982   2.680   2.104
   16CHTO   C53 6644   7.079   2.651   2.297
   16CHTO   O72 6645   6.988   2.550   2.341
   16CHTO  H199 6646   6.899   2.577   2.324
   16CHTO   O22 6647   7.156   2.383   1.913
   16CHTO   C31 6648   7.049   2.283   1.928
   16CHTO   H59 6649   6.981   2.322   2.007
   16CHTO   C29 6650   6.963   2.261   1.802
   16CHTO   H57 6651   7.028   2.221   1.722
   16CHTO   O21 6652   6.916   2.389   1.755
   16CHTO   H37 6653   6.857   2.427   1.817
   16CHTO   C27 6654   6.845   2.159   1.829
   16CHTO   H55 6655   6.777   2.203   1.903
   16CHTO    N5 6656   6.767   2.126   1.707
   16CHTO   H43 6657   6.682   2.065   1.732
   16CHTO   H44 6658   6.830   2.075   1.635
   16CHTO   C25 6659   6.903   2.028   1.895
   16CHTO   H53 6660   6.964   1.974   1.821
   16CHTO   O17 6661   6.990   2.060   2.009
   16CHTO   C32 6662   7.101   2.146   1.980
   16CHTO   H60 6663   7.163   2.100   1.902
   16CHTO   C36 6664   7.188   2.160   2.107
   16CHTO   O25 6665   7.115   2.217   2.217
   16CHTO   H40 6666   7.172   2.224   2.291
   16CHTO   O15 6667   6.787   1.933   1.947
   16CHTO   C19 6668   6.678   1.918   2.044
   16CHTO   H47 6669   6.694   1.816   2.083
   16CHTO   C20 6670   6.682   2.017   2.164
   16CHTO   H48 6671   6.671   2.122   2.130
   16CHTO   O19 6672   6.811   2.005   2.227
   16CHTO   H35 6673   6.822   1.919   2.263
   16CHTO   C21 6674   6.565   1.986   2.266
   16CHTO   H49 6675   6.582   1.888   2.309
   16CHTO    N4 6676   6.560   2.082   2.380
   16CHTO   H41 6677   6.480   2.055   2.447
   16CHTO   H42 6678   6.542   2.182   2.343
   16CHTO   C22 6679   6.430   1.979   2.189
   16CHTO   H50 6680   6.405   2.078   2.152
   16CHTO   O14 6681   6.437   1.887   2.079
   16CHTO   C23 6682   6.537   1.918   1.980
   16CHTO   H51 6683   6.511   2.016   1.937
   16CHTO   C34 6684   6.528   1.814   1.868
   16CHTO   O23 6685   6.400   1.815   1.803
   16CHTO   H38 6686   6.395   1.744   1.742
   16CHTO   O16 6687   6.325   1.926   2.273
   16CHTO   C24 6688   6.182   1.994   2.250
   16CHTO   H52 6689   6.174   2.038   2.151
   16CHTO   C26 6690   6.162   2.105   2.356
   16CHTO   H54 6691   6.184   2.062   2.457
   16CHTO   O20 6692   6.257   2.210   2.330
   16CHTO   H36 6693   6.255   2.273   2.399
   16CHTO   C30 6694   6.016   2.160   2.357
   16CHTO   H58 6695   5.998   2.218   2.265
   16CHTO    N6 6696   5.993   2.254   2.470
   16CHTO   H45 6697   6.044   2.348   2.451
   16CHTO   H46 6698   5.888   2.273   2.484
   16CHTO   C33 6699   5.913   2.043   2.355
   16CHTO   H61 6700   5.918   1.988   2.450
   16CHTO   O18 6701   5.945   1.952   2.248
   16CHTO   C28 6702   6.072   1.886   2.261
   16CHTO   H56 6703   6.080   1.836   2.358
   16CHTO   C35 6704   6.081   1.781   2.148
   16CHTO   O24 6705   6.193   1.694   2.161
   16CHTO   H39 6706   6.185   1.623   2.100
   16CHTO    O9 6707   5.777   2.091   2.344
   16CHTO   C13 6708   5.679   2.041   2.462
   16CHTO   H26 6709   5.727   2.068   2.559
   16CHTO   C11 6710   5.656   1.884   2.451
   16CHTO   H24 6711   5.748   1.834   2.485
   16CHTO    O8 6712   5.634   1.847   2.313
   16CHTO    H3 6713   5.625   1.754   2.306
   16CHTO    C9 6714   5.538   1.847   2.544
   16CHTO   H22 6715   5.563   1.891   2.642
   16CHTO    N2 6716   5.529   1.701   2.572
   16CHTO   H10 6717   5.504   1.648   2.482
   16CHTO   H11 6718   5.623   1.665   2.612
   16CHTO    C7 6719   5.406   1.915   2.489
   16CHTO   H20 6720   5.349   1.939   2.581
   16CHTO    O4 6721   5.431   2.036   2.414
   16CHTO   C14 6722   5.539   2.119   2.462
   16CHTO   H27 6723   5.515   2.149   2.566
   16CHTO   C18 6724   5.540   2.248   2.377
   16CHTO   O13 6725   5.635   2.344   2.425
   16CHTO    H7 6726   5.722   2.312   2.410
   16CHTO    O2 6727   5.316   1.811   2.392
   16CHTO    C1 6728   5.175   1.835   2.376
   16CHTO   H14 6729   5.135   1.754   2.312
   16CHTO    C2 6730   5.136   1.974   2.310
   16CHTO   H15 6731   5.176   2.053   2.375
   16CHTO    O6 6732   5.199   1.979   2.180
   16CHTO    H1 6733   5.188   2.065   2.143
   16CHTO    C3 6734   4.977   1.986   2.299
   16CHTO   H16 6735   4.940   1.907   2.232
   16CHTO    N1 6736   4.933   2.117   2.241
   16CHTO    H8 6737   4.974   2.129   2.142
   16CHTO    H9 6738   4.965   2.198   2.304
   16CHTO    C4 6739   4.911   1.957   2.439
   16CHTO   H17 6740   4.937   2.039   2.507
   16CHTO    O1 6741   4.957   1.832   2.493
   16CHTO    C5 6742   5.100   1.821   2.512
   16CHTO   H18 6743   5.132   1.903   2.578
   16CHTO   C16 6744   5.129   1.686   2.583
   16CHTO   O11 6745   5.093   1.574   2.502
   16CHTO    H5 6746   5.129   1.495   2.540
   16CHTO    O3 6747   4.768   1.941   2.429
   16CHTO    C6 6748   4.690   1.993   2.543
   16CHTO   H19 6749   4.752   2.022   2.627
   16CHTO    C8 6750   4.607   2.118   2.499
   16CHTO   H21 6751   4.547   2.090   2.411
   16CHTO    O7 6752   4.700   2.221   2.463
   16CHTO    H2 6753   4.655   2.293   2.423
   16CHTO   C12 6754   4.510   2.165   2.615
   16CHTO   H25 6755   4.576   2.203   2.696
   16CHTO    N3 6756   4.422   2.279   2.573
   16CHTO   H12 6757   4.442   2.309   2.471
   16CHTO   H13 6758   4.434   2.363   2.640
   16CHTO   C15 6759   4.429   2.042   2.670
   16CHTO   H28 6760   4.352   2.009   2.600
   16CHTO   O10 6761   4.364   2.072   2.808
   16CHTO    H4 6762   4.304   2.144   2.799
   16CHTO    O5 6763   4.516   1.932   2.704
   16CHTO   C10 6764   4.593   1.883   2.594
   16CHTO   H23 6765   4.525   1.853   2.514
   16CHTO   C17 6766   4.668   1.757   2.640
   16CHTO   O12 6767   4.578   1.649   2.670
   16CHTO    H6 6768   4.545   1.613   2.590
   17CHTO  H203 6769   4.852   4.461   0.689
   17CHTO   O82 6770   4.860   4.495   0.776
   17CHTO  C123 6771   4.773   4.608   0.793
   17CHTO  H227 6772   4.669   4.578   0.770
   17CHTO   O77 6773   4.786   4.638   0.935
   17CHTO  C118 6774   4.705   4.747   0.981
   17CHTO  H222 6775   4.600   4.728   0.955
   17CHTO  C125 6776   4.717   4.754   1.137
   17CHTO   O84 6777   4.654   4.641   1.199
   17CHTO  H205 6778   4.640   4.659   1.290
   17CHTO  C114 6779   4.751   4.878   0.913
   17CHTO  H218 6780   4.855   4.895   0.938
   17CHTO  C116 6781   4.741   4.863   0.758
   17CHTO  H220 6782   4.633   4.857   0.729
   17CHTO   O79 6783   4.793   4.982   0.695
   17CHTO  H201 6784   4.780   4.978   0.602
   17CHTO  C120 6785   4.817   4.734   0.708
   17CHTO  H224 6786   4.925   4.753   0.723
   17CHTO   N21 6787   4.798   4.709   0.562
   17CHTO  H211 6788   4.885   4.658   0.522
   17CHTO  H212 6789   4.783   4.803   0.510
   17CHTO   O75 6790   4.669   4.980   0.973
   17CHTO  C112 6791   4.702   5.140   0.932
   17CHTO  H216 6792   4.662   5.159   0.831
   17CHTO   O73 6793   4.845   5.161   0.937
   17CHTO  C113 6794   4.884   5.287   0.882
   17CHTO  H217 6795   4.845   5.293   0.778
   17CHTO  C124 6796   5.037   5.290   0.873
   17CHTO   O83 6797   5.090   5.405   0.806
   17CHTO  H204 6798   5.074   5.481   0.858
   17CHTO  C109 6799   4.826   5.405   0.966
   17CHTO  H213 6800   4.880   5.404   1.063
   17CHTO  C110 6801   4.673   5.387   0.991
   17CHTO  H214 6802   4.620   5.413   0.898
   17CHTO   O78 6803   4.632   5.481   1.091
   17CHTO  H200 6804   4.635   5.569   1.057
   17CHTO  C111 6805   4.636   5.241   1.033
   17CHTO  H215 6806   4.678   5.222   1.132
   17CHTO   N19 6807   4.490   5.217   1.042
   17CHTO  H207 6808   4.434   5.309   1.037
   17CHTO  H208 6809   4.466   5.163   1.133
   17CHTO   O74 6810   4.851   5.532   0.899
   17CHTO  C115 6811   4.914   5.651   0.994
   17CHTO  H219 6812   4.847   5.677   1.076
   17CHTO   O76 6813   5.049   5.605   1.061
   17CHTO  C122 6814   5.119   5.704   1.138
   17CHTO  H226 6815   5.216   5.662   1.163
   17CHTO  C126 6816   5.046   5.728   1.276
   17CHTO   O85 6817   5.039   5.609   1.355
   17CHTO  H206 6818   4.993   5.627   1.435
   17CHTO  C121 6819   5.141   5.839   1.058
   17CHTO  H225 6820   5.177   5.915   1.130
   17CHTO   O81 6821   5.245   5.818   0.961
   17CHTO  H202 6822   5.218   5.755   0.897
   17CHTO  C119 6823   5.011   5.892   0.990
   17CHTO  H223 6824   4.945   5.922   1.072
   17CHTO  C117 6825   4.937   5.781   0.907
   17CHTO  H221 6826   4.989   5.745   0.818
   17CHTO   N20 6827   4.805   5.832   0.856
   17CHTO  H209 6828   4.741   5.859   0.939
   17CHTO  H210 6829   4.821   5.918   0.792
   17CHTO   O80 6830   5.034   6.036   0.911
   17CHTO  C103 6831   5.096   6.163   0.989
   17CHTO  H190 6832   5.094   6.148   1.097
   17CHTO  C101 6833   5.243   6.204   0.944
   17CHTO  H188 6834   5.250   6.194   0.836
   17CHTO   O68 6835   5.344   6.104   1.007
   17CHTO  H168 6836   5.343   6.113   1.101
   17CHTO   C99 6837   5.279   6.356   0.981
   17CHTO  H186 6838   5.287   6.366   1.092
   17CHTO   N17 6839   5.410   6.402   0.923
   17CHTO  H174 6840   5.433   6.502   0.957
   17CHTO  H175 6841   5.489   6.333   0.952
   17CHTO   C97 6842   5.163   6.450   0.938
   17CHTO  H184 6843   5.155   6.444   0.828
   17CHTO   O64 6844   5.043   6.407   1.003
   17CHTO  C104 6845   4.995   6.280   0.956
   17CHTO  H191 6846   4.976   6.283   0.849
   17CHTO  C108 6847   4.859   6.251   1.022
   17CHTO   O71 6848   4.759   6.346   0.983
   17CHTO  H171 6849   4.738   6.336   0.892
   17CHTO   O62 6850   5.182   6.587   0.979
   17CHTO   C91 6851   5.131   6.689   0.891
   17CHTO  H178 6852   5.074   6.640   0.811
   17CHTO   C92 6853   5.249   6.764   0.820
   17CHTO  H179 6854   5.326   6.692   0.788
   17CHTO   O66 6855   5.198   6.822   0.699
   17CHTO  H166 6856   5.175   6.755   0.637
   17CHTO   C93 6857   5.311   6.881   0.906
   17CHTO  H180 6858   5.367   6.945   0.835
   17CHTO   N16 6859   5.412   6.836   1.005
   17CHTO  H172 6860   5.432   6.730   0.995
   17CHTO  H173 6861   5.503   6.893   0.995
   17CHTO   C94 6862   5.198   6.969   0.975
   17CHTO  H181 6863   5.198   6.958   1.083
   17CHTO   O61 6864   5.066   6.930   0.932
   17CHTO   C95 6865   5.035   6.793   0.964
   17CHTO  H182 6866   5.044   6.780   1.072
   17CHTO  C106 6867   4.885   6.768   0.928
   17CHTO   O69 6868   4.845   6.637   0.968
   17CHTO  H169 6869   4.841   6.631   1.061
   17CHTO   O63 6870   5.220   7.120   0.939
   17CHTO   C96 6871   5.137   7.218   1.037
   17CHTO  H183 6872   5.088   7.158   1.114
   17CHTO   C98 6873   5.028   7.303   0.966
   17CHTO  H185 6874   5.073   7.352   0.878
   17CHTO   O67 6875   4.930   7.212   0.913
   17CHTO  H167 6876   4.886   7.167   0.982
   17CHTO  C102 6877   4.958   7.411   1.062
   17CHTO  H189 6878   4.890   7.353   1.127
   17CHTO   N18 6879   4.872   7.508   0.990
   17CHTO  H176 6880   4.772   7.507   1.030
   17CHTO  H177 6881   4.913   7.608   0.995
   17CHTO  C105 6882   5.062   7.481   1.154
   17CHTO  H192 6883   5.111   7.562   1.099
   17CHTO   O65 6884   5.164   7.395   1.207
   17CHTO  C100 6885   5.236   7.317   1.110
   17CHTO  H187 6886   5.281   7.384   1.036
   17CHTO  C107 6887   5.350   7.241   1.182
   17CHTO   O70 6888   5.447   7.331   1.236
   17CHTO  H170 6889   5.408   7.380   1.307
   17CHTO   O57 6890   4.975   7.538   1.277
   17CHTO   C85 6891   4.981   7.677   1.313
   17CHTO  H157 6892   4.971   7.735   1.219
   17CHTO   C83 6893   5.122   7.712   1.371
   17CHTO  H155 6894   5.196   7.694   1.293
   17CHTO   O56 6895   5.153   7.621   1.479
   17CHTO  H135 6896   5.158   7.533   1.446
   17CHTO   C81 6897   5.126   7.862   1.411
   17CHTO  H153 6898   5.107   7.921   1.322
   17CHTO   N14 6899   5.261   7.907   1.455
   17CHTO  H141 6900   5.288   7.857   1.546
   17CHTO  H142 6901   5.334   7.884   1.380
   17CHTO   C79 6902   5.013   7.895   1.517
   17CHTO  H151 6903   5.012   8.004   1.529
   17CHTO   O52 6904   4.881   7.858   1.465
   17CHTO   C86 6905   4.872   7.719   1.420
   17CHTO  H158 6906   4.885   7.659   1.513
   17CHTO   C90 6907   4.730   7.687   1.369
   17CHTO   O60 6908   4.690   7.771   1.261
   17CHTO  H138 6909   4.604   7.746   1.232
   17CHTO   O50 6910   5.036   7.837   1.646
   17CHTO   C73 6911   5.021   7.836   1.789
   17CHTO  H145 6912   4.982   7.933   1.824
   17CHTO   C74 6913   5.160   7.810   1.856
   17CHTO  H146 6914   5.227   7.891   1.822
   17CHTO   O54 6915   5.145   7.827   1.998
   17CHTO  H133 6916   5.228   7.818   2.040
   17CHTO   C75 6917   5.212   7.668   1.814
   17CHTO  H147 6918   5.231   7.669   1.706
   17CHTO   N13 6919   5.343   7.631   1.873
   17CHTO  H139 6920   5.419   7.702   1.843
   17CHTO  H140 6921   5.336   7.632   1.981
   17CHTO   C76 6922   5.100   7.557   1.842
   17CHTO  H148 6923   5.090   7.545   1.950
   17CHTO   O49 6924   4.970   7.596   1.785
   17CHTO   C77 6925   4.923   7.724   1.832
   17CHTO  H149 6926   4.914   7.723   1.940
   17CHTO   C88 6927   4.781   7.753   1.779
   17CHTO   O58 6928   4.686   7.654   1.820
   17CHTO  H136 6929   4.672   7.660   1.913
   17CHTO   O51 6930   5.141   7.422   1.768
   17CHTO   C78 6931   5.039   7.306   1.775
   17CHTO  H150 6932   4.934   7.344   1.767
   17CHTO   C80 6933   5.053   7.226   1.906
   17CHTO  H152 6934   5.160   7.198   1.919
   17CHTO   O55 6935   5.016   7.313   2.015
   17CHTO  H134 6936   5.029   7.269   2.097
   17CHTO   C84 6937   4.965   7.095   1.905
   17CHTO  H156 6938   4.860   7.127   1.905
   17CHTO   N15 6939   4.986   7.008   2.026
   17CHTO  H143 6940   4.893   6.994   2.077
   17CHTO  H144 6941   5.056   7.052   2.093
   17CHTO   C87 6942   4.990   7.015   1.774
   17CHTO  H159 6943   5.092   6.975   1.774
   17CHTO   O53 6944   4.972   7.106   1.655
   17CHTO   C82 6945   5.064   7.215   1.653
   17CHTO  H154 6946   5.167   7.177   1.655
   17CHTO   C89 6947   5.048   7.292   1.520
   17CHTO   O59 6948   4.915   7.340   1.500
   17CHTO  H137 6949   4.908   7.379   1.415
   17CHTO   O45 6950   4.888   6.887   1.751
   17CHTO   C67 6951   4.748   6.904   1.777
   17CHTO  H124 6952   4.735   6.949   1.875
   17CHTO   C65 6953   4.672   6.991   1.670
   17CHTO  H122 6954   4.748   7.039   1.609
   17CHTO   O44 6955   4.598   7.093   1.740
   17CHTO  H102 6956   4.559   7.152   1.679
   17CHTO   C63 6957   4.588   6.902   1.572
   17CHTO  H120 6958   4.655   6.829   1.526
   17CHTO   N11 6959   4.532   6.971   1.451
   17CHTO  H108 6960   4.457   7.042   1.481
   17CHTO  H109 6961   4.610   7.022   1.399
   17CHTO   C61 6962   4.483   6.819   1.656
   17CHTO  H118 6963   4.452   6.736   1.592
   17CHTO   O40 6964   4.541   6.760   1.777
   17CHTO   C68 6965   4.686   6.759   1.789
   17CHTO  H125 6966   4.728   6.695   1.709
   17CHTO   C72 6967   4.726   6.694   1.924
   17CHTO   O48 6968   4.688   6.557   1.932
   17CHTO  H105 6969   4.722   6.520   2.012
   17CHTO   O38 6970   4.368   6.898   1.695
   17CHTO   C55 6971   4.270   6.841   1.785
   17CHTO  H112 6972   4.321   6.794   1.870
   17CHTO   C56 6973   4.173   6.739   1.711
   17CHTO  H113 6974   4.134   6.792   1.622
   17CHTO   O42 6975   4.248   6.626   1.662
   17CHTO  H100 6976   4.290   6.582   1.733
   17CHTO   C57 6977   4.055   6.692   1.805
   17CHTO  H114 6978   4.100   6.627   1.880
   17CHTO   N10 6979   3.951   6.612   1.734
   17CHTO  H106 6980   3.996   6.556   1.653
   17CHTO  H107 6981   3.905   6.543   1.803
   17CHTO   C58 6982   3.990   6.814   1.876
   17CHTO  H115 6983   3.931   6.872   1.803
   17CHTO   O37 6984   4.089   6.899   1.938
   17CHTO   C59 6985   4.184   6.955   1.847
   17CHTO  H116 6986   4.132   7.011   1.768
   17CHTO   C70 6987   4.271   7.057   1.923
   17CHTO   O46 6988   4.335   7.004   2.040
   17CHTO  H103 6989   4.392   6.933   2.017
   17CHTO   O39 6990   3.896   6.763   1.995
   17CHTO   C60 6991   3.814   6.865   2.055
   17CHTO  H117 6992   3.869   6.960   2.056
   17CHTO   C62 6993   3.681   6.888   1.976
   17CHTO  H119 6994   3.711   6.924   1.875
   17CHTO   O43 6995   3.612   6.762   1.962
   17CHTO  H101 6996   3.659   6.705   1.904
   17CHTO   C66 6997   3.594   7.001   2.049
   17CHTO  H123 6998   3.652   7.093   2.052
   17CHTO   N12 6999   3.471   7.036   1.973
   17CHTO  H110 7000   3.497   7.077   1.877
   17CHTO  H111 7001   3.408   6.949   1.962
   17CHTO   C69 7002   3.564   6.960   2.196
   17CHTO  H126 7003   3.502   6.867   2.198
   17CHTO   O41 7004   3.701   6.933   2.270
   17CHTO   C64 7005   3.787   6.828   2.203
   17CHTO  H121 7006   3.733   6.730   2.206
   17CHTO   C71 7007   3.919   6.811   2.284
   17CHTO   O47 7008   3.995   6.932   2.290
   17CHTO  H104 7009   4.074   6.917   2.338
   17CHTO   O34 7010   3.489   7.073   2.275
   17CHTO   C49 7011   3.387   7.149   2.360
   17CHTO   H91 7012   3.442   7.227   2.411
   17CHTO   C47 7013   3.324   7.053   2.463
   17CHTO   H89 7014   3.267   7.121   2.532
   17CHTO   O33 7015   3.427   6.989   2.540
   17CHTO   H70 7016   3.393   6.913   2.583
   17CHTO   C45 7017   3.227   6.944   2.393
   17CHTO   H87 7018   3.284   6.850   2.382
   17CHTO    N8 7019   3.112   6.919   2.483
   17CHTO   H75 7020   3.053   6.836   2.446
   17CHTO   H76 7021   3.050   7.007   2.489
   17CHTO   C43 7022   3.190   6.986   2.242
   17CHTO   H85 7023   3.276   6.958   2.182
   17CHTO   O29 7024   3.163   7.127   2.234
   17CHTO   C50 7025   3.272   7.213   2.274
   17CHTO   H92 7026   3.317   7.255   2.183
   17CHTO   C54 7027   3.206   7.337   2.342
   17CHTO   O36 7028   3.301   7.437   2.379
   17CHTO   H72 7029   3.353   7.407   2.451
   17CHTO   O27 7030   3.081   6.910   2.187
   17CHTO   C37 7031   3.039   6.818   2.085
   17CHTO   H79 7032   2.932   6.797   2.097
   17CHTO   C38 7033   3.058   6.877   1.942
   17CHTO   H80 7034   3.165   6.902   1.929
   17CHTO   O31 7035   2.981   6.998   1.934
   17CHTO   H68 7036   2.996   7.040   1.852
   17CHTO   C39 7037   3.015   6.770   1.834
   17CHTO   H81 7038   2.909   6.751   1.849
   17CHTO    N7 7039   3.032   6.816   1.692
   17CHTO   H73 7040   2.937   6.815   1.641
   17CHTO   H74 7041   3.075   6.915   1.688
   17CHTO   C40 7042   3.091   6.634   1.860
   17CHTO   H82 7043   3.197   6.646   1.836
   17CHTO   O26 7044   3.071   6.592   1.995
   17CHTO   C41 7045   3.119   6.685   2.097
   17CHTO   H83 7046   3.226   6.705   2.081
   17CHTO   C52 7047   3.103   6.617   2.235
   17CHTO   O35 7048   2.961   6.582   2.267
   17CHTO   H71 7049   2.911   6.660   2.278
   17CHTO   O28 7050   3.037   6.525   1.783
   17CHTO   C42 7051   3.115   6.403   1.758
   17CHTO   H84 7052   3.042   6.334   1.716
   17CHTO   C44 7053   3.175   6.331   1.884
   17CHTO   H86 7054   3.240   6.401   1.937
   17CHTO   O32 7055   3.063   6.299   1.970
   17CHTO   H69 7056   3.095   6.265   2.052
   17CHTO   C48 7057   3.260   6.203   1.847
   17CHTO   H90 7058   3.192   6.127   1.809
   17CHTO    N9 7059   3.326   6.142   1.969
   17CHTO   H77 7060   3.297   6.039   1.980
   17CHTO   H78 7061   3.434   6.151   1.963
   17CHTO   C51 7062   3.363   6.239   1.734
   17CHTO   H93 7063   3.433   6.312   1.775
   17CHTO   O30 7064   3.291   6.292   1.622
   17CHTO   C46 7065   3.226   6.423   1.650
   17CHTO   H88 7066   3.301   6.493   1.688
   17CHTO   C53 7067   3.167   6.477   1.518
   17CHTO   O72 7068   3.272   6.507   1.425
   17CHTO  H199 7069   3.234   6.541   1.346
   17CHTO   O22 7070   3.433   6.124   1.684
   17CHTO   C31 7071   3.547   6.148   1.595
   17CHTO   H59 7072   3.536   6.252   1.556
   17CHTO   C29 7073   3.685   6.141   1.663
   17CHTO   H57 7074   3.703   6.036   1.692
   17CHTO   O21 7075   3.682   6.218   1.785
   17CHTO   H37 7076   3.762   6.207   1.832
   17CHTO   C27 7077   3.799   6.189   1.565
   17CHTO   H55 7078   3.787   6.297   1.550
   17CHTO    N5 7079   3.935   6.164   1.619
   17CHTO   H43 7080   3.951   6.058   1.632
   17CHTO   H44 7081   3.947   6.214   1.714
   17CHTO   C25 7082   3.782   6.124   1.422
   17CHTO   H53 7083   3.824   6.022   1.421
   17CHTO   O17 7084   3.644   6.114   1.376
   17CHTO   C32 7085   3.551   6.056   1.469
   17CHTO   H60 7086   3.585   5.956   1.499
   17CHTO   C36 7087   3.415   6.044   1.397
   17CHTO   O25 7088   3.323   5.963   1.470
   17CHTO   H40 7089   3.352   5.874   1.470
   17CHTO   O15 7090   3.857   6.210   1.315
   17CHTO   C19 7091   3.851   6.351   1.277
   17CHTO   H47 7092   3.885   6.354   1.173
   17CHTO   C20 7093   3.709   6.416   1.280
   17CHTO   H48 7094   3.662   6.409   1.379
   17CHTO   O19 7095   3.628   6.341   1.187
   17CHTO   H35 7096   3.539   6.369   1.192
   17CHTO   C21 7097   3.715   6.569   1.238
   17CHTO   H49 7098   3.745   6.576   1.134
   17CHTO    N4 7099   3.583   6.637   1.248
   17CHTO   H41 7100   3.548   6.636   1.351
   17CHTO   H42 7101   3.592   6.740   1.215
   17CHTO   C22 7102   3.825   6.639   1.323
   17CHTO   H50 7103   3.794   6.637   1.428
   17CHTO   O14 7104   3.951   6.572   1.307
   17CHTO   C23 7105   3.951   6.438   1.357
   17CHTO   H51 7106   3.925   6.443   1.464
   17CHTO   C34 7107   4.094   6.382   1.346
   17CHTO   O23 7108   4.181   6.448   1.439
   17CHTO   H38 7109   4.267   6.411   1.432
   17CHTO   O16 7110   3.852   6.773   1.280
   17CHTO   C24 7111   3.919   6.860   1.395
   17CHTO   H52 7112   3.962   6.797   1.473
   17CHTO   C26 7113   3.812   6.952   1.455
   17CHTO   H54 7114   3.765   7.009   1.372
   17CHTO   O20 7115   3.711   6.869   1.517
   17CHTO   H36 7116   3.639   6.921   1.545
   17CHTO   C30 7117   3.874   7.054   1.555
   17CHTO   H58 7118   3.915   7.001   1.642
   17CHTO    N6 7119   3.772   7.149   1.607
   17CHTO   H45 7120   3.818   7.216   1.678
   17CHTO   H46 7121   3.730   7.206   1.526
   17CHTO   C33 7122   3.995   7.126   1.488
   17CHTO   H61 7123   3.958   7.186   1.403
   17CHTO   O18 7124   4.088   7.028   1.437
   17CHTO   C28 7125   4.035   6.943   1.335
   17CHTO   H56 7126   3.996   7.003   1.252
   17CHTO   C35 7127   4.148   6.853   1.279
   17CHTO   O24 7128   4.215   6.773   1.378
   17CHTO   H39 7129   4.154   6.715   1.419
   17CHTO    O9 7130   4.059   7.218   1.577
   17CHTO   C13 7131   4.150   7.320   1.503
   17CHTO   H26 7132   4.151   7.295   1.394
   17CHTO   C11 7133   4.294   7.314   1.565
   17CHTO   H24 7134   4.334   7.214   1.546
   17CHTO    O8 7135   4.290   7.333   1.708
   17CHTO    H3 7136   4.375   7.319   1.744
   17CHTO    C9 7137   4.381   7.418   1.488
   17CHTO   H22 7138   4.372   7.390   1.382
   17CHTO    N2 7139   4.526   7.408   1.518
   17CHTO   H10 7140   4.580   7.375   1.431
   17CHTO   H11 7141   4.544   7.343   1.602
   17CHTO    C7 7142   4.320   7.562   1.507
   17CHTO   H20 7143   4.376   7.622   1.433
   17CHTO    O4 7144   4.180   7.570   1.473
   17CHTO   C14 7145   4.087   7.466   1.511
   17CHTO   H27 7146   4.006   7.470   1.436
   17CHTO   C18 7147   4.023   7.496   1.648
   17CHTO   O13 7148   3.940   7.612   1.641
   17CHTO    H7 7149   3.901   7.628   1.726
   17CHTO    O2 7150   4.343   7.621   1.657
   17CHTO    C1 7151   4.325   7.763   1.670
   17CHTO   H14 7152   4.229   7.793   1.622
   17CHTO    C2 7153   4.443   7.850   1.607
   17CHTO   H15 7154   4.536   7.801   1.638
   17CHTO    O6 7155   4.434   7.848   1.463
   17CHTO    H1 7156   4.451   7.762   1.431
   17CHTO    C3 7157   4.442   8.003   1.656
   17CHTO   H16 7158   4.362   8.054   1.601
   17CHTO    N1 7159   4.571   8.074   1.624
   17CHTO    H8 7160   4.587   8.072   1.517
   17CHTO    H9 7161   4.566   8.176   1.657
   17CHTO    C4 7162   4.404   8.017   1.808
   17CHTO   H17 7163   4.491   7.990   1.869
   17CHTO    O1 7164   4.290   7.936   1.841
   17CHTO    C5 7165   4.311   7.796   1.822
   17CHTO   H18 7166   4.403   7.764   1.871
   17CHTO   C16 7167   4.192   7.720   1.885
   17CHTO   O11 7168   4.177   7.746   2.025
   17CHTO    H5 7169   4.248   7.706   2.072
   17CHTO    O3 7170   4.360   8.152   1.836
   17CHTO    C6 7171   4.386   8.220   1.964
   17CHTO   H19 7172   4.302   8.284   1.990
   17CHTO    C8 7173   4.407   8.126   2.088
   17CHTO   H21 7174   4.486   8.055   2.065
   17CHTO    O7 7175   4.283   8.056   2.111
   17CHTO    H2 7176   4.267   7.995   2.041
   17CHTO   C12 7177   4.451   8.208   2.216
   17CHTO   H25 7178   4.364   8.271   2.244
   17CHTO    N3 7179   4.482   8.119   2.333
   17CHTO   H12 7180   4.415   8.141   2.415
   17CHTO   H13 7181   4.474   8.014   2.305
   17CHTO   C15 7182   4.571   8.303   2.178
   17CHTO   H28 7183   4.662   8.247   2.156
   17CHTO   O10 7184   4.601   8.406   2.285
   17CHTO    H4 7185   4.634   8.364   2.362
   17CHTO    O5 7186   4.536   8.386   2.067
   17CHTO   C10 7187   4.509   8.314   1.946
   17CHTO   H23 7188   4.597   8.255   1.919
   17CHTO   C17 7189   4.487   8.417   1.834
   17CHTO   O12 7190   4.604   8.496   1.812
   17CHTO    H6 7191   4.585   8.562   1.747
   18CHTO  H203 7192   5.488   7.287   2.163
   18CHTO   O82 7193   5.573   7.251   2.144
   18CHTO  C123 7194   5.638   7.330   2.043
   18CHTO  H227 7195   5.567   7.347   1.960
   18CHTO   O77 7196   5.669   7.456   2.109
   18CHTO  C118 7197   5.711   7.559   2.018
   18CHTO  H222 7198   5.631   7.575   1.943
   18CHTO  C125 7199   5.733   7.692   2.099
   18CHTO   O84 7200   5.611   7.736   2.160
   18CHTO  H205 7201   5.627   7.816   2.206
   18CHTO  C114 7202   5.841   7.519   1.946
   18CHTO  H218 7203   5.924   7.526   2.017
   18CHTO  C116 7204   5.839   7.372   1.890
   18CHTO  H220 7205   5.783   7.372   1.793
   18CHTO   O79 7206   5.974   7.334   1.857
   18CHTO  H201 7207   5.975   7.250   1.816
   18CHTO  C120 7208   5.773   7.269   1.990
   18CHTO  H224 7209   5.844   7.256   2.075
   18CHTO   N21 7210   5.754   7.135   1.927
   18CHTO  H211 7211   5.758   7.058   2.003
   18CHTO  H212 7212   5.830   7.117   1.853
   18CHTO   O75 7213   5.854   7.619   1.844
   18CHTO  C112 7214   6.003   7.659   1.799
   18CHTO  H216 7215   6.075   7.585   1.838
   18CHTO   O73 7216   6.028   7.791   1.850
   18CHTO  C113 7217   6.154   7.850   1.814
   18CHTO  H217 7218   6.237   7.787   1.854
   18CHTO  C124 7219   6.164   7.988   1.882
   18CHTO   O83 7220   6.156   7.979   2.025
   18CHTO  H204 7221   6.113   8.056   2.058
   18CHTO  C109 7222   6.166   7.862   1.660
   18CHTO  H213 7223   6.083   7.926   1.627
   18CHTO  C110 7224   6.150   7.719   1.598
   18CHTO  H214 7225   6.230   7.655   1.635
   18CHTO   O78 7226   6.162   7.728   1.455
   18CHTO  H200 7227   6.251   7.748   1.431
   18CHTO  C111 7228   6.012   7.660   1.641
   18CHTO  H215 7229   5.933   7.728   1.604
   18CHTO   N19 7230   5.982   7.526   1.584
   18CHTO  H207 7231   6.061   7.494   1.517
   18CHTO  H208 7232   5.970   7.452   1.661
   18CHTO   O74 7233   6.293   7.925   1.621
   18CHTO  C115 7234   6.272   8.016   1.485
   18CHTO  H219 7235   6.190   7.978   1.423
   18CHTO   O76 7236   6.233   8.167   1.520
   18CHTO  C122 7237   6.211   8.253   1.407
   18CHTO  H226 7238   6.205   8.355   1.444
   18CHTO  C126 7239   6.070   8.222   1.343
   18CHTO   O85 7240   6.038   8.307   1.232
   18CHTO  H206 7241   5.964   8.272   1.187
   18CHTO  C121 7242   6.327   8.244   1.299
   18CHTO  H225 7243   6.293   8.295   1.207
   18CHTO   O81 7244   6.442   8.313   1.346
   18CHTO  H202 7245   6.426   8.406   1.348
   18CHTO  C119 7246   6.361   8.096   1.263
   18CHTO  H223 7247   6.267   8.053   1.229
   18CHTO  C117 7248   6.401   8.017   1.393
   18CHTO  H221 7249   6.480   8.060   1.455
   18CHTO   N20 7250   6.446   7.878   1.362
   18CHTO  H209 7251   6.368   7.823   1.311
   18CHTO  H210 7252   6.476   7.827   1.452
   18CHTO   O80 7253   6.453   8.081   1.130
   18CHTO  C103 7254   6.384   8.031   0.991
   18CHTO  H190 7255   6.459   8.025   0.912
   18CHTO  C101 7256   6.309   7.892   0.999
   18CHTO  H188 7257   6.252   7.888   1.092
   18CHTO   O68 7258   6.414   7.779   1.004
   18CHTO  H168 7259   6.371   7.696   1.018
   18CHTO   C99 7260   6.206   7.871   0.878
   18CHTO  H186 7261   6.263   7.862   0.783
   18CHTO   N17 7262   6.123   7.747   0.891
   18CHTO  H174 7263   6.062   7.734   0.803
   18CHTO  H175 7264   6.187   7.662   0.906
   18CHTO   C97 7265   6.118   7.999   0.862
   18CHTO  H184 7266   6.060   8.011   0.955
   18CHTO   O64 7267   6.204   8.111   0.838
   18CHTO  C104 7268   6.284   8.147   0.952
   18CHTO  H191 7269   6.221   8.170   1.037
   18CHTO  C108 7270   6.362   8.275   0.920
   18CHTO   O71 7271   6.275   8.386   0.897
   18CHTO  H171 7272   6.231   8.410   0.977
   18CHTO   O62 7273   6.032   7.997   0.746
   18CHTO   C91 7274   5.896   8.042   0.765
   18CHTO  H178 7275   5.875   8.051   0.871
   18CHTO   C92 7276   5.797   7.934   0.711
   18CHTO  H179 7277   5.821   7.914   0.605
   18CHTO   O66 7278   5.822   7.811   0.781
   18CHTO  H166 7279   5.772   7.741   0.743
   18CHTO   C93 7280   5.645   7.976   0.727
   18CHTO  H180 7281   5.621   7.964   0.834
   18CHTO   N16 7282   5.552   7.886   0.655
   18CHTO  H172 7283   5.561   7.785   0.693
   18CHTO  H173 7284   5.574   7.888   0.549
   18CHTO   C94 7285   5.620   8.126   0.687
   18CHTO  H181 7286   5.615   8.139   0.578
   18CHTO   O61 7287   5.723   8.214   0.735
   18CHTO   C95 7288   5.856   8.178   0.696
   18CHTO  H182 7289   5.861   8.167   0.587
   18CHTO  C106 7290   5.952   8.297   0.733
   18CHTO   O69 7291   5.953   8.323   0.874
   18CHTO  H169 7292   5.996   8.253   0.919
   18CHTO   O63 7293   5.481   8.176   0.755
   18CHTO   C96 7294   5.430   8.315   0.700
   18CHTO  H183 7295   5.486   8.339   0.609
   18CHTO   C98 7296   5.445   8.433   0.799
   18CHTO  H185 7297   5.402   8.405   0.896
   18CHTO   O67 7298   5.586   8.452   0.824
   18CHTO  H167 7299   5.599   8.516   0.891
   18CHTO  C102 7300   5.380   8.570   0.745
   18CHTO  H189 7301   5.449   8.608   0.669
   18CHTO   N18 7302   5.370   8.678   0.847
   18CHTO  H176 7303   5.310   8.644   0.930
   18CHTO  H177 7304   5.469   8.704   0.882
   18CHTO  C105 7305   5.243   8.546   0.675
   18CHTO  H192 7306   5.164   8.538   0.750
   18CHTO   O65 7307   5.240   8.426   0.594
   18CHTO  C100 7308   5.278   8.305   0.660
   18CHTO  H187 7309   5.216   8.292   0.750
   18CHTO  C107 7310   5.246   8.189   0.562
   18CHTO   O70 7311   5.251   8.062   0.627
   18CHTO  H170 7312   5.237   7.994   0.564
   18CHTO   O57 7313   5.222   8.682   0.575
   18CHTO   C85 7314   5.102   8.713   0.500
   18CHTO  H157 7315   5.136   8.791   0.429
   18CHTO   C83 7316   4.997   8.784   0.591
   18CHTO  H155 7317   5.042   8.877   0.625
   18CHTO   O56 7318   4.971   8.707   0.710
   18CHTO  H135 7319   4.929   8.626   0.688
   18CHTO   C81 7320   4.871   8.818   0.506
   18CHTO  H153 7321   4.903   8.875   0.419
   18CHTO   N14 7322   4.776   8.908   0.576
   18CHTO  H141 7323   4.825   8.998   0.606
   18CHTO  H142 7324   4.695   8.933   0.510
   18CHTO   C79 7325   4.805   8.684   0.455
   18CHTO  H151 7326   4.721   8.712   0.391
   18CHTO   O52 7327   4.900   8.612   0.370
   18CHTO   C86 7328   5.035   8.590   0.425
   18CHTO  H158 7329   5.022   8.503   0.492
   18CHTO   C90 7330   5.129   8.543   0.311
   18CHTO   O60 7331   5.096   8.412   0.265
   18CHTO  H138 7332   5.011   8.411   0.226
   18CHTO   O50 7333   4.756   8.600   0.560
   18CHTO   C73 7334   4.674   8.493   0.609
   18CHTO  H145 7335   4.668   8.412   0.534
   18CHTO   C74 7336   4.529   8.543   0.640
   18CHTO  H146 7337   4.489   8.586   0.547
   18CHTO   O54 7338   4.449   8.427   0.669
   18CHTO  H133 7339   4.360   8.452   0.682
   18CHTO   C75 7340   4.533   8.648   0.758
   18CHTO  H147 7341   4.590   8.736   0.723
   18CHTO   N13 7342   4.400   8.701   0.797
   18CHTO  H139 7343   4.354   8.750   0.713
   18CHTO  H140 7344   4.337   8.620   0.830
   18CHTO   C76 7345   4.613   8.588   0.883
   18CHTO  H148 7346   4.553   8.508   0.926
   18CHTO   O49 7347   4.743   8.536   0.841
   18CHTO   C77 7348   4.738   8.435   0.739
   18CHTO  H149 7349   4.678   8.351   0.773
   18CHTO   C88 7350   4.878   8.381   0.711
   18CHTO   O58 7351   4.942   8.336   0.829
   18CHTO  H136 7352   4.900   8.259   0.862
   18CHTO   O51 7353   4.649   8.704   0.990
   18CHTO   C78 7354   4.694   8.644   1.131
   18CHTO  H150 7355   4.706   8.534   1.125
   18CHTO   C80 7356   4.588   8.676   1.238
   18CHTO  H152 7357   4.569   8.785   1.236
   18CHTO   O55 7358   4.467   8.610   1.198
   18CHTO  H134 7359   4.396   8.636   1.254
   18CHTO   C84 7360   4.634   8.632   1.383
   18CHTO  H156 7361   4.634   8.523   1.386
   18CHTO   N15 7362   4.537   8.677   1.489
   18CHTO  H143 7363   4.531   8.784   1.490
   18CHTO  H144 7364   4.570   8.644   1.586
   18CHTO   C87 7365   4.778   8.681   1.412
   18CHTO  H159 7366   4.780   8.789   1.426
   18CHTO   O53 7367   4.871   8.640   1.295
   18CHTO   C82 7368   4.831   8.701   1.171
   18CHTO  H154 7369   4.826   8.810   1.182
   18CHTO   C89 7370   4.938   8.672   1.063
   18CHTO   O59 7371   5.066   8.727   1.097
   18CHTO  H137 7372   5.102   8.681   1.170
   18CHTO   O45 7373   4.835   8.610   1.553
   18CHTO   C67 7374   4.978   8.611   1.571
   18CHTO  H124 7375   5.024   8.555   1.489
   18CHTO   C65 7376   5.039   8.756   1.574
   18CHTO  H122 7377   4.956   8.823   1.598
   18CHTO   O44 7378   5.084   8.783   1.440
   18CHTO  H102 7379   5.112   8.872   1.433
   18CHTO   C63 7380   5.144   8.777   1.690
   18CHTO  H120 7381   5.090   8.780   1.785
   18CHTO   N11 7382   5.214   8.909   1.691
   18CHTO  H108 7383   5.279   8.917   1.607
   18CHTO  H109 7384   5.271   8.920   1.781
   18CHTO   C61 7385   5.238   8.651   1.695
   18CHTO  H118 7386   5.306   8.666   1.781
   18CHTO   O40 7387   5.163   8.528   1.722
   18CHTO   C68 7388   5.018   8.531   1.702
   18CHTO  H125 7389   4.972   8.581   1.790
   18CHTO   C72 7390   4.964   8.385   1.700
   18CHTO   O48 7391   5.026   8.303   1.600
   18CHTO  H105 7392   4.988   8.218   1.602
   18CHTO   O38 7393   5.312   8.634   1.573
   18CHTO   C55 7394   5.440   8.570   1.583
   18CHTO  H112 7395   5.452   8.522   1.682
   18CHTO   C56 7396   5.556   8.674   1.554
   18CHTO  H113 7397   5.538   8.716   1.454
   18CHTO   O42 7398   5.547   8.785   1.646
   18CHTO  H100 7399   5.559   8.755   1.735
   18CHTO   C57 7400   5.697   8.603   1.561
   18CHTO  H114 7401   5.712   8.576   1.666
   18CHTO   N10 7402   5.811   8.690   1.523
   18CHTO  H106 7403   5.780   8.763   1.449
   18CHTO  H107 7404   5.849   8.742   1.610
   18CHTO   C58 7405   5.699   8.473   1.476
   18CHTO  H115 7406   5.710   8.500   1.368
   18CHTO   O37 7407   5.581   8.393   1.491
   18CHTO   C59 7408   5.452   8.455   1.479
   18CHTO  H116 7409   5.438   8.492   1.378
   18CHTO   C70 7410   5.347   8.346   1.507
   18CHTO   O46 7411   5.354   8.237   1.414
   18CHTO  H103 7412   5.318   8.263   1.332
   18CHTO   O39 7413   5.829   8.373   1.526
   18CHTO   C60 7414   5.796   8.298   1.644
   18CHTO  H117 7415   5.714   8.348   1.696
   18CHTO   C62 7416   5.749   8.153   1.610
   18CHTO  H119 7417   5.674   8.163   1.529
   18CHTO   O43 7418   5.858   8.073   1.559
   18CHTO  H101 7419   5.887   8.107   1.477
   18CHTO   C66 7420   5.678   8.094   1.740
   18CHTO  H123 7421   5.595   8.159   1.765
   18CHTO   N12 7422   5.617   7.960   1.718
   18CHTO  H110 7423   5.540   7.967   1.642
   18CHTO  H111 7424   5.693   7.889   1.690
   18CHTO   C69 7425   5.773   8.094   1.863
   18CHTO  H126 7426   5.843   8.007   1.859
   18CHTO   O41 7427   5.860   8.231   1.876
   18CHTO   C64 7428   5.913   8.289   1.745
   18CHTO  H121 7429   5.993   8.223   1.704
   18CHTO   C71 7430   5.976   8.427   1.773
   18CHTO   O47 7431   6.093   8.410   1.853
   18CHTO  H104 7432   6.128   8.495   1.875
   18CHTO   O34 7433   5.686   8.080   1.998
   18CHTO   C49 7434   5.587   8.113   2.120
   18CHTO   H91 7435   5.618   8.047   2.202
   18CHTO   C47 7436   5.441   8.082   2.081
   18CHTO   H89 7437   5.382   8.085   2.176
   18CHTO   O33 7438   5.437   7.948   2.030
   18CHTO   H70 7439   5.348   7.922   2.015
   18CHTO   C45 7440   5.387   8.194   1.979
   18CHTO   H87 7441   5.457   8.201   1.895
   18CHTO    N8 7442   5.253   8.162   1.924
   18CHTO   H75 7443   5.180   8.161   2.004
   18CHTO   H76 7444   5.225   8.235   1.850
   18CHTO   C43 7445   5.394   8.338   2.049
   18CHTO   H85 7446   5.363   8.410   1.973
   18CHTO   O29 7447   5.529   8.363   2.094
   18CHTO   C50 7448   5.599   8.261   2.168
   18CHTO   H92 7449   5.706   8.287   2.162
   18CHTO   C54 7450   5.570   8.273   2.320
   18CHTO   O36 7451   5.618   8.397   2.373
   18CHTO   H72 7452   5.603   8.399   2.466
   18CHTO   O27 7453   5.298   8.353   2.157
   18CHTO   C37 7454   5.206   8.455   2.201
   18CHTO   H79 7455   5.158   8.422   2.294
   18CHTO   C38 7456   5.281   8.588   2.234
   18CHTO   H80 7457   5.349   8.611   2.150
   18CHTO   O31 7458   5.359   8.562   2.352
   18CHTO   H68 7459   5.412   8.637   2.372
   18CHTO   C39 7460   5.180   8.708   2.255
   18CHTO   H81 7461   5.118   8.684   2.341
   18CHTO    N7 7462   5.249   8.838   2.285
   18CHTO   H73 7463   5.308   8.828   2.375
   18CHTO   H74 7464   5.176   8.916   2.297
   18CHTO   C40 7465   5.085   8.718   2.129
   18CHTO   H82 7466   5.147   8.737   2.041
   18CHTO   O26 7467   5.013   8.595   2.118
   18CHTO   C41 7468   5.095   8.476   2.093
   18CHTO   H83 7469   5.141   8.485   1.994
   18CHTO   C52 7470   4.995   8.359   2.089
   18CHTO   O35 7471   4.914   8.348   2.212
   18CHTO   H71 7472   4.854   8.277   2.204
   18CHTO   O28 7473   4.991   8.828   2.136
   18CHTO   C42 7474   4.845   8.824   2.150
   18CHTO   H84 7475   4.819   8.929   2.160
   18CHTO   C44 7476   4.785   8.752   2.275
   18CHTO   H86 7477   4.796   8.644   2.263
   18CHTO   O32 7478   4.861   8.795   2.389
   18CHTO   H69 7479   4.834   8.747   2.465
   18CHTO   C48 7480   4.630   8.786   2.286
   18CHTO   H90 7481   4.620   8.894   2.296
   18CHTO    N9 7482   4.566   8.728   2.409
   18CHTO   H77 7483   4.570   8.620   2.405
   18CHTO   H78 7484   4.464   8.761   2.416
   18CHTO   C51 7485   4.557   8.743   2.153
   18CHTO   H93 7486   4.559   8.634   2.147
   18CHTO   O30 7487   4.620   8.804   2.039
   18CHTO   C46 7488   4.770   8.771   2.024
   18CHTO   H88 7489   4.782   8.663   2.016
   18CHTO   C53 7490   4.819   8.840   1.895
   18CHTO   O72 7491   4.750   8.788   1.781
   18CHTO  H199 7492   4.776   8.836   1.704
   18CHTO   O22 7493   4.422   8.792   2.148
   18CHTO   C31 7494   4.319   8.721   2.068
   18CHTO   H59 7495   4.374   8.657   1.996
   18CHTO   C29 7496   4.230   8.628   2.154
   18CHTO   H57 7497   4.182   8.691   2.230
   18CHTO   O21 7498   4.315   8.534   2.223
   18CHTO   H37 7499   4.370   8.579   2.284
   18CHTO   C27 7500   4.119   8.556   2.068
   18CHTO   H55 7501   4.168   8.486   1.998
   18CHTO    N5 7502   4.024   8.479   2.152
   18CHTO   H43 7503   4.076   8.403   2.207
   18CHTO   H44 7504   3.972   8.545   2.220
   18CHTO   C25 7505   4.044   8.662   1.980
   18CHTO   H53 7506   3.989   8.731   2.046
   18CHTO   O17 7507   4.140   8.740   1.902
   18CHTO   C32 7508   4.231   8.817   1.982
   18CHTO   H60 7509   4.174   8.883   2.049
   18CHTO   C36 7510   4.313   8.904   1.885
   18CHTO   O25 7511   4.391   9.003   1.954
   18CHTO   H40 7512   4.460   8.961   2.002
   18CHTO   O15 7513   3.939   8.595   1.878
   18CHTO   C19 7514   3.931   8.552   1.739
   18CHTO   H47 7515   3.830   8.507   1.732
   18CHTO   C20 7516   3.940   8.668   1.635
   18CHTO   H48 7517   4.033   8.726   1.646
   18CHTO   O19 7518   3.829   8.757   1.661
   18CHTO   H35 7519   3.842   8.803   1.741
   18CHTO   C21 7520   3.934   8.615   1.485
   18CHTO   H49 7521   3.835   8.573   1.467
   18CHTO    N4 7522   3.955   8.721   1.384
   18CHTO   H41 7523   3.875   8.794   1.390
   18CHTO   H42 7524   4.049   8.771   1.401
   18CHTO   C22 7525   4.036   8.499   1.469
   18CHTO   H50 7526   4.137   8.539   1.481
   18CHTO   O14 7527   4.011   8.397   1.567
   18CHTO   C23 7528   4.032   8.439   1.703
   18CHTO   H51 7529   4.136   8.473   1.711
   18CHTO   C34 7530   4.018   8.315   1.793
   18CHTO   O23 7531   3.888   8.254   1.783
   18CHTO   H38 7532   3.824   8.310   1.822
   18CHTO   O16 7533   4.022   8.427   1.344
   18CHTO   C24 7534   4.163   8.402   1.261
   18CHTO   H52 7535   4.237   8.479   1.283
   18CHTO   C26 7536   4.130   8.402   1.111
   18CHTO   H54 7537   4.041   8.336   1.095
   18CHTO   O20 7538   4.091   8.536   1.076
   18CHTO   H36 7539   4.066   8.540   0.985
   18CHTO   C30 7540   4.248   8.351   1.022
   18CHTO   H58 7541   4.327   8.428   1.018
   18CHTO    N6 7542   4.204   8.330   0.881
   18CHTO   H45 7543   4.123   8.258   0.878
   18CHTO   H46 7544   4.286   8.294   0.821
   18CHTO   C33 7545   4.316   8.223   1.081
   18CHTO   H61 7546   4.249   8.136   1.070
   18CHTO   O18 7547   4.342   8.243   1.221
   18CHTO   C28 7548   4.226   8.266   1.302
   18CHTO   H56 7549   4.152   8.187   1.288
   18CHTO   C35 7550   4.273   8.263   1.449
   18CHTO   O24 7551   4.372   8.361   1.480
   18CHTO   H39 7552   4.397   8.353   1.570
   18CHTO    O9 7553   4.436   8.188   1.009
   18CHTO   C13 7554   4.552   8.103   1.092
   18CHTO   H26 7555   4.500   8.035   1.163
   18CHTO   C11 7556   4.645   8.205   1.168
   18CHTO   H24 7557   4.584   8.260   1.241
   18CHTO    O8 7558   4.697   8.302   1.075
   18CHTO    H3 7559   4.747   8.367   1.120
   18CHTO    C9 7560   4.754   8.125   1.245
   18CHTO   H22 7561   4.699   8.054   1.307
   18CHTO    N2 7562   4.831   8.209   1.340
   18CHTO   H10 7563   4.937   8.196   1.325
   18CHTO   H11 7564   4.804   8.184   1.442
   18CHTO    C7 7565   4.840   8.045   1.141
   18CHTO   H20 7566   4.907   7.982   1.205
   18CHTO    O4 7567   4.759   7.958   1.059
   18CHTO   C14 7568   4.638   8.007   0.997
   18CHTO   H27 7569   4.576   7.918   0.975
   18CHTO   C18 7570   4.678   8.068   0.860
   18CHTO   O13 7571   4.565   8.105   0.780
   18CHTO    H7 7572   4.595   8.137   0.697
   18CHTO    O2 7573   4.931   8.143   1.044
   18CHTO    C1 7574   5.066   8.103   1.012
   18CHTO   H14 7575   5.095   8.158   0.920
   18CHTO    C2 7576   5.088   7.949   0.985
   18CHTO   H15 7577   5.054   7.895   1.075
   18CHTO    O6 7578   5.008   7.911   0.872
   18CHTO    H1 7579   5.015   7.819   0.857
   18CHTO    C3 7580   5.244   7.919   0.961
   18CHTO   H16 7581   5.276   7.969   0.868
   18CHTO    N1 7582   5.271   7.772   0.944
   18CHTO    H8 7583   5.377   7.756   0.925
   18CHTO    H9 7584   5.242   7.719   1.034
   18CHTO    C4 7585   5.330   7.985   1.075
   18CHTO   H17 7586   5.309   7.933   1.169
   18CHTO    O1 7587   5.300   8.125   1.089
   18CHTO    C5 7588   5.163   8.155   1.122
   18CHTO   H18 7589   5.137   8.104   1.215
   18CHTO   C16 7590   5.151   8.308   1.145
   18CHTO   O11 7591   5.183   8.384   1.028
   18CHTO    H5 7592   5.116   8.374   0.964
   18CHTO    O3 7593   5.471   7.981   1.045
   18CHTO    C6 7594   5.561   7.959   1.158
   18CHTO   H19 7595   5.518   7.990   1.253
   18CHTO    C8 7596   5.597   7.806   1.168
   18CHTO   H21 7597   5.625   7.771   1.068
   18CHTO    O7 7598   5.478   7.737   1.211
   18CHTO    H2 7599   5.412   7.739   1.144
   18CHTO   C12 7600   5.717   7.780   1.266
   18CHTO   H25 7601   5.680   7.802   1.369
   18CHTO    N3 7602   5.759   7.636   1.265
   18CHTO   H12 7603   5.840   7.620   1.334
   18CHTO   H13 7604   5.675   7.573   1.292
   18CHTO   C15 7605   5.835   7.879   1.233
   18CHTO   H28 7606   5.880   7.858   1.136
   18CHTO   O10 7607   5.943   7.881   1.340
   18CHTO    H4 7608   5.986   7.798   1.343
   18CHTO    O5 7609   5.787   8.014   1.238
   18CHTO   C10 7610   5.690   8.044   1.137
   18CHTO   H23 7611   5.733   8.023   1.039
   18CHTO   C17 7612   5.664   8.195   1.146
   18CHTO   O12 7613   5.585   8.243   1.037
   18CHTO    H6 7614   5.498   8.208   1.042
   19CHTO  H203 7615   4.664   0.040   0.335
   19CHTO   O82 7616   4.736   9.997   0.293
   19CHTO  C123 7617   4.691   9.878   0.227
   19CHTO  H227 7618   4.613   9.906   0.153
   19CHTO   O77 7619   4.811   9.831   0.158
   19CHTO  C118 7620   4.789   9.718   0.072
   19CHTO  H222 7621   4.712   9.742   2.873
   19CHTO  C125 7622   4.924   9.686   2.874
   19CHTO   O84 7623   4.965   9.796   2.791
   19CHTO  H205 7624   5.046   9.775   2.749
   19CHTO  C114 7625   4.743   9.597   0.156
   19CHTO  H218 7626   4.824   9.569   0.224
   19CHTO  C116 7627   4.618   9.632   0.244
   19CHTO  H220 7628   4.529   9.643   0.177
   19CHTO   O79 7629   4.590   9.521   0.331
   19CHTO  H201 7630   4.564   9.446   0.280
   19CHTO  C120 7631   4.640   9.766   0.325
   19CHTO  H224 7632   4.718   9.745   0.401
   19CHTO   N21 7633   4.518   9.808   0.400
   19CHTO  H211 7634   4.462   9.721   0.431
   19CHTO  H212 7635   4.456   9.871   0.339
   19CHTO   O75 7636   4.718   9.493   0.061
   19CHTO  C112 7637   4.761   9.343   0.110
   19CHTO  H216 7638   4.735   9.331   0.217
   19CHTO   O73 7639   4.903   9.329   0.088
   19CHTO  C113 7640   4.955   9.199   0.117
   19CHTO  H217 7641   4.927   9.170   0.221
   19CHTO  C124 7642   5.108   9.209   0.112
   19CHTO   O83 7643   5.175   9.092   0.163
   19CHTO  H204 7644   5.157   9.018   0.108
   19CHTO  C109 7645   4.896   9.098   0.015
   19CHTO  H213 7646   4.922   9.136   2.791
   19CHTO  C110 7647   4.741   9.095   0.033
   19CHTO  H214 7648   4.718   9.051   0.130
   19CHTO   O78 7649   4.684   9.009   2.808
   19CHTO  H200 7650   4.592   9.000   2.822
   19CHTO  C111 7651   4.680   9.238   0.023
   19CHTO  H215 7652   4.688   9.272   2.795
   19CHTO   N19 7653   4.536   9.244   0.059
   19CHTO  H207 7654   4.498   9.146   0.085
   19CHTO  H208 7655   4.478   9.285   2.854
   19CHTO   O74 7656   4.953   8.965   0.032
   19CHTO  C115 7657   4.976   8.889   2.766
   19CHTO  H219 7658   4.900   8.917   2.693
   19CHTO   O76 7659   5.111   8.929   2.701
   19CHTO  C122 7660   5.221   8.853   2.750
   19CHTO  H226 7661   5.221   8.858   2.859
   19CHTO  C126 7662   5.355   8.921   2.704
   19CHTO   O85 7663   5.371   9.051   2.761
   19CHTO  H206 7664   5.455   9.086   2.737
   19CHTO  C121 7665   5.210   8.702   2.702
   19CHTO  H225 7666   5.253   8.694   2.599
   19CHTO   O81 7667   5.288   8.623   2.792
   19CHTO  H202 7668   5.303   8.538   2.755
   19CHTO  C119 7669   5.061   8.651   2.699
   19CHTO  H223 7670   5.027   8.668   2.596
   19CHTO  C117 7671   4.966   8.733   2.795
   19CHTO  H221 7672   4.988   8.722   0.025
   19CHTO   N20 7673   4.823   8.688   2.781
   19CHTO  H209 7674   4.816   8.582   2.799
   19CHTO  H210 7675   4.787   8.711   2.681
   19CHTO   O80 7676   5.048   8.486   2.713
   19CHTO  C103 7677   5.084   8.393   2.592
   19CHTO  H190 7678   5.093   8.450   2.500
   19CHTO  C101 7679   5.213   8.303   2.613
   19CHTO  H188 7680   5.210   8.262   2.714
   19CHTO   O68 7681   5.340   8.392   2.601
   19CHTO  H168 7682   5.336   8.461   2.664
   19CHTO   C99 7683   5.219   8.180   2.509
   19CHTO  H186 7684   5.240   8.220   2.408
   19CHTO   N17 7685   5.328   8.082   2.540
   19CHTO  H174 7686   5.309   8.033   2.635
   19CHTO  H175 7687   5.337   8.009   2.460
   19CHTO   C97 7688   5.081   8.109   2.498
   19CHTO  H184 7689   5.062   8.053   2.592
   19CHTO   O64 7690   4.977   8.205   2.472
   19CHTO  C104 7691   4.958   8.300   2.578
   19CHTO  H191 7692   4.940   8.249   2.673
   19CHTO  C108 7693   4.831   8.381   2.549
   19CHTO   O71 7694   4.713   8.300   2.558
   19CHTO  H171 7695   4.713   8.236   2.489
   19CHTO   O62 7696   5.077   8.018   2.385
   19CHTO   C91 7697   4.975   7.916   2.385
   19CHTO  H178 7698   4.898   7.942   2.458
   19CHTO   C92 7699   5.035   7.779   2.429
   19CHTO  H179 7700   5.126   7.760   2.369
   19CHTO   O66 7701   5.081   7.790   2.566
   19CHTO  H166 7702   5.152   7.851   2.571
   19CHTO   C93 7703   4.934   7.657   2.416
   19CHTO  H180 7704   4.864   7.665   2.501
   19CHTO   N16 7705   4.999   7.525   2.431
   19CHTO  H172 7706   4.926   7.446   2.424
   19CHTO  H173 7707   5.075   7.512   2.355
   19CHTO   C94 7708   4.851   7.663   2.282
   19CHTO  H181 7709   4.912   7.636   2.195
   19CHTO   O61 7710   4.803   7.796   2.259
   19CHTO   C95 7711   4.906   7.894   2.246
   19CHTO  H182 7712   4.980   7.859   2.174
   19CHTO  C106 7713   4.843   8.025   2.189
   19CHTO   O69 7714   4.794   8.005   2.055
   19CHTO  H169 7715   4.721   7.946   2.056
   19CHTO   O63 7716   4.720   7.562   2.293
   19CHTO   C96 7717   4.610   7.596   2.187
   19CHTO  H183 7718   4.660   7.635   2.099
   19CHTO   C98 7719   4.507   7.703   2.236
   19CHTO  H185 7720   4.560   7.788   2.283
   19CHTO   O67 7721   4.444   7.757   2.120
   19CHTO  H167 7722   4.390   7.830   2.143
   19CHTO  C102 7723   4.395   7.643   2.335
   19CHTO  H189 7724   4.309   7.713   2.327
   19CHTO   N18 7725   4.433   7.644   2.478
   19CHTO  H176 7726   4.434   7.544   2.519
   19CHTO  H177 7727   4.366   7.707   2.535
   19CHTO  C105 7728   4.348   7.503   2.286
   19CHTO  H192 7729   4.385   7.425   2.354
   19CHTO   O65 7730   4.394   7.469   2.154
   19CHTO  C100 7731   4.537   7.460   2.146
   19CHTO  H187 7732   4.569   7.381   2.216
   19CHTO  C107 7733   4.573   7.411   2.004
   19CHTO   O70 7734   4.713   7.384   1.991
   19CHTO  H170 7735   4.736   7.308   2.042
   19CHTO   O57 7736   4.192   7.507   2.294
   19CHTO   C85 7737   4.117   7.387   2.265
   19CHTO  H157 7738   4.191   7.304   2.258
   19CHTO   C83 7739   4.056   7.399   2.121
   19CHTO  H155 7740   4.138   7.403   2.050
   19CHTO   O56 7741   3.985   7.524   2.108
   19CHTO  H135 7742   3.911   7.526   2.166
   19CHTO   C81 7743   3.970   7.273   2.092
   19CHTO  H153 7744   4.032   7.185   2.107
   19CHTO   N14 7745   3.926   7.262   1.950
   19CHTO  H141 7746   3.819   7.252   1.943
   19CHTO  H142 7747   3.957   7.347   1.893
   19CHTO   C79 7748   3.851   7.267   2.195
   19CHTO  H151 7749   3.797   7.174   2.177
   19CHTO   O52 7750   3.904   7.256   2.331
   19CHTO   C86 7751   4.003   7.357   2.370
   19CHTO  H158 7752   3.944   7.448   2.391
   19CHTO   C90 7753   4.068   7.316   2.504
   19CHTO   O60 7754   3.970   7.305   2.608
   19CHTO  H138 7755   4.011   7.276   2.687
   19CHTO   O50 7756   3.759   7.377   2.185
   19CHTO   C73 7757   3.622   7.418   2.189
   19CHTO  H145 7758   3.561   7.341   2.239
   19CHTO   C74 7759   3.565   7.440   2.046
   19CHTO  H146 7760   3.578   7.345   1.990
   19CHTO   O54 7761   3.423   7.461   2.057
   19CHTO  H133 7762   3.384   7.471   1.972
   19CHTO   C75 7763   3.641   7.560   1.976
   19CHTO  H147 7764   3.747   7.532   1.967
   19CHTO   N13 7765   3.595   7.588   1.838
   19CHTO  H139 7766   3.608   7.500   1.776
   19CHTO  H140 7767   3.654   7.668   1.795
   19CHTO   C76 7768   3.633   7.689   2.070
   19CHTO  H148 7769   3.528   7.721   2.075
   19CHTO   O49 7770   3.681   7.658   2.205
   19CHTO   C77 7771   3.609   7.551   2.270
   19CHTO  H149 7772   3.504   7.577   2.279
   19CHTO   C88 7773   3.663   7.537   2.413
   19CHTO   O58 7774   3.587   7.436   2.492
   19CHTO  H136 7775   3.601   7.351   2.456
   19CHTO   O51 7776   3.731   7.807   2.016
   19CHTO   C78 7777   3.697   7.947   2.083
   19CHTO  H150 7778   3.634   7.934   2.174
   19CHTO   C80 7779   3.623   8.040   1.984
   19CHTO  H152 7780   3.688   8.055   1.895
   19CHTO   O55 7781   3.503   7.972   1.944
   19CHTO  H134 7782   3.458   8.022   1.879
   19CHTO   C84 7783   3.592   8.180   2.052
   19CHTO  H156 7784   3.524   8.160   2.135
   19CHTO   N15 7785   3.522   8.276   1.960
   19CHTO  H143 7786   3.428   8.306   2.001
   19CHTO  H144 7787   3.506   8.233   1.863
   19CHTO   C87 7788   3.723   8.241   2.108
   19CHTO  H159 7789   3.787   8.271   2.025
   19CHTO   O53 7790   3.797   8.137   2.197
   19CHTO   C82 7791   3.828   8.015   2.128
   19CHTO  H154 7792   3.891   8.037   2.042
   19CHTO   C89 7793   3.910   7.924   2.223
   19CHTO   O59 7794   3.838   7.890   2.342
   19CHTO  H137 7795   3.889   7.832   2.394
   19CHTO   O45 7796   3.696   8.380   2.201
   19CHTO   C67 7797   3.600   8.372   2.309
   19CHTO  H124 7798   3.511   8.322   2.273
   19CHTO   C65 7799   3.656   8.291   2.432
   19CHTO  H122 7800   3.765   8.295   2.425
   19CHTO   O44 7801   3.613   8.155   2.415
   19CHTO  H102 7802   3.522   8.147   2.434
   19CHTO   C63 7803   3.623   8.359   2.571
   19CHTO  H120 7804   3.687   8.447   2.582
   19CHTO   N11 7805   3.660   8.279   2.694
   19CHTO  H108 7806   3.578   8.275   2.762
   19CHTO  H109 7807   3.746   8.322   2.742
   19CHTO   C61 7808   3.475   8.413   2.568
   19CHTO  H118 7809   3.460   8.467   2.663
   19CHTO   O40 7810   3.454   8.509   2.460
   19CHTO   C68 7811   3.553   8.516   2.353
   19CHTO  H125 7812   3.640   8.571   2.390
   19CHTO   C72 7813   3.494   8.597   2.235
   19CHTO   O48 7814   3.368   8.550   2.188
   19CHTO  H105 7815   3.376   8.461   2.158
   19CHTO   O38 7816   3.378   8.306   2.556
   19CHTO   C55 7817   3.242   8.346   2.579
   19CHTO  H112 7818   3.230   8.454   2.561
   19CHTO   C56 7819   3.195   8.305   2.724
   19CHTO  H113 7820   3.207   8.196   2.733
   19CHTO   O42 7821   3.282   8.364   2.822
   19CHTO  H100 7822   3.261   8.332   0.032
   19CHTO   C57 7823   3.044   8.347   2.748
   19CHTO  H114 7824   3.044   8.456   2.755
   19CHTO   N10 7825   2.986   8.297   2.875
   19CHTO  H106 7826   3.062   8.291   0.075
   19CHTO  H107 7827   2.942   8.200   2.861
   19CHTO   C58 7828   2.955   8.306   2.627
   19CHTO  H115 7829   2.934   8.196   2.631
   19CHTO   O37 7830   3.016   8.339   2.501
   19CHTO   C59 7831   3.144   8.277   2.479
   19CHTO  H116 7832   3.138   8.170   2.497
   19CHTO   C70 7833   3.181   8.301   2.332
   19CHTO   O46 7834   3.288   8.216   2.288
   19CHTO  H103 7835   3.367   8.241   2.330
   19CHTO   O39 7836   2.814   8.391   2.637
   19CHTO   C60 7837   2.734   8.395   2.517
   19CHTO  H117 7838   2.793   8.368   2.430
   19CHTO   C62 7839   2.615   8.295   2.525
   19CHTO  H119 7840   2.660   8.195   2.541
   19CHTO   O43 7841   2.532   8.326   2.639
   19CHTO  H101 7842   2.493   8.410   2.630
   19CHTO   C66 7843   2.537   8.297   2.385
   19CHTO  H123 7844   2.607   8.271   2.306
   19CHTO   N12 7845   2.430   8.194   2.377
   19CHTO  H110 7846   2.333   8.239   2.357
   19CHTO  H111 7847   2.426   8.134   2.467
   19CHTO   C69 7848   2.485   8.441   2.354
   19CHTO  H126 7849   2.403   8.467   2.425
   19CHTO   O41 7850   2.603   8.547   2.368
   19CHTO   C64 7851   2.683   8.540   2.494
   19CHTO  H121 7852   2.619   8.570   2.579
   19CHTO   C71 7853   2.800   8.642   2.485
   19CHTO   O47 7854   2.888   8.614   2.375
   19CHTO  H104 7855   2.958   8.677   2.375
   19CHTO   O34 7856   2.428   8.449   2.207
   19CHTO   C49 7857   2.480   8.485   2.062
   19CHTO   H91 7858   2.439   8.583   2.038
   19CHTO   C47 7859   2.427   8.379   1.963
   19CHTO   H89 7860   2.452   8.416   1.861
   19CHTO   O33 7861   2.284   8.375   1.976
   19CHTO   H70 7862   2.248   8.312   1.916
   19CHTO   C45 7863   2.500   8.238   1.990
   19CHTO   H87 7864   2.476   8.208   2.093
   19CHTO    N8 7865   2.448   8.132   1.899
   19CHTO   H75 7866   2.396   8.056   1.956
   19CHTO   H76 7867   2.528   8.088   1.842
   19CHTO   C43 7868   2.661   8.254   1.988
   19CHTO   H85 7869   2.700   8.159   2.026
   19CHTO   O29 7870   2.703   8.365   2.070
   19CHTO   C50 7871   2.635   8.492   2.054
   19CHTO   H92 7872   2.669   8.557   2.136
   19CHTO   C54 7873   2.683   8.569   1.928
   19CHTO   O36 7874   2.823   8.599   1.934
   19CHTO   H72 7875   2.838   8.666   1.998
   19CHTO   O27 7876   2.715   8.269   1.855
   19CHTO   C37 7877   2.815   8.199   1.779
   19CHTO   H79 7878   2.825   8.095   1.814
   19CHTO   C38 7879   2.772   8.193   1.629
   19CHTO   H80 7880   2.747   8.296   1.596
   19CHTO   O31 7881   2.652   8.114   1.620
   19CHTO   H68 7882   2.669   8.025   1.647
   19CHTO   C39 7883   2.885   8.135   1.536
   19CHTO   H81 7884   2.894   8.029   1.559
   19CHTO    N7 7885   2.852   8.144   1.389
   19CHTO   H73 7886   2.763   8.087   1.368
   19CHTO   H74 7887   2.837   8.248   1.361
   19CHTO   C40 7888   3.026   8.200   1.567
   19CHTO   H82 7889   3.029   8.303   1.529
   19CHTO   O26 7890   3.051   8.196   1.709
   19CHTO   C41 7891   2.953   8.269   1.789
   19CHTO   H83 7892   2.944   8.372   1.751
   19CHTO   C52 7893   3.006   8.276   1.934
   19CHTO   O35 7894   3.128   8.362   1.945
   19CHTO   H71 7895   3.105   8.451   1.925
   19CHTO   O28 7896   3.131   8.126   1.502
   19CHTO   C42 7897   3.275   8.130   1.532
   19CHTO   H84 7898   3.282   8.105   1.638
   19CHTO   C44 7899   3.348   8.268   1.515
   19CHTO   H86 7900   3.334   8.302   1.412
   19CHTO   O32 7901   3.285   8.361   1.604
   19CHTO   H69 7902   3.321   8.447   1.592
   19CHTO   C48 7903   3.504   8.255   1.541
   19CHTO   H90 7904   3.519   8.227   1.646
   19CHTO    N9 7905   3.576   8.387   1.523
   19CHTO   H77 7906   3.629   8.413   1.614
   19CHTO   H78 7907   3.644   8.383   1.439
   19CHTO   C51 7908   3.563   8.140   1.451
   19CHTO   H93 7909   3.545   8.166   1.347
   19CHTO   O30 7910   3.498   8.017   1.488
   19CHTO   C46 7911   3.349   8.018   1.453
   19CHTO   H88 7912   3.338   8.037   1.346
   19CHTO   C53 7913   3.290   7.879   1.489
   19CHTO   O72 7914   3.340   7.778   1.401
   19CHTO  H199 7915   3.299   7.785   1.317
   19CHTO   O22 7916   3.704   8.119   1.474
   19CHTO   C31 7917   3.784   8.014   1.406
   19CHTO   H59 7918   3.719   7.923   1.402
   19CHTO   C29 7919   3.825   8.046   1.261
   19CHTO   H57 7920   3.883   8.140   1.263
   19CHTO   O21 7921   3.707   8.072   1.182
   19CHTO   H37 7922   3.660   8.146   1.215
   19CHTO   C27 7923   3.914   7.932   1.196
   19CHTO   H55 7924   3.849   7.845   1.177
   19CHTO    N5 7925   3.974   7.975   1.067
   19CHTO   H43 7926   4.041   8.058   1.082
   19CHTO   H44 7927   3.896   8.001   0.996
   19CHTO   C25 7928   4.025   7.882   1.295
   19CHTO   H53 7929   4.106   7.957   1.302
   19CHTO   O17 7930   3.973   7.859   1.429
   19CHTO   C32 7931   3.910   7.974   1.488
   19CHTO   H60 7932   3.979   8.058   1.488
   19CHTO   C36 7933   3.872   7.942   1.635
   19CHTO   O25 7934   3.989   7.928   1.716
   19CHTO   H40 7935   4.034   7.848   1.694
   19CHTO   O15 7936   4.087   7.744   1.244
   19CHTO   C19 7937   4.145   7.665   1.137
   19CHTO   H47 7938   4.096   7.703   1.046
   19CHTO   C20 7939   4.299   7.680   1.120
   19CHTO   H48 7940   4.353   7.652   1.212
   19CHTO   O19 7941   4.326   7.820   1.095
   19CHTO   H35 7942   4.310   7.870   1.173
   19CHTO   C21 7943   4.354   7.590   1.002
   19CHTO   H49 7944   4.314   7.628   0.908
   19CHTO    N4 7945   4.502   7.594   0.989
   19CHTO   H41 7946   4.548   7.561   1.081
   19CHTO   H42 7947   4.534   7.695   0.968
   19CHTO   C22 7948   4.301   7.445   1.019
   19CHTO   H50 7949   4.347   7.400   1.108
   19CHTO   O14 7950   4.158   7.444   1.031
   19CHTO   C23 7951   4.107   7.514   1.146
   19CHTO   H51 7952   4.150   7.466   1.235
   19CHTO   C34 7953   3.955   7.495   1.149
   19CHTO   O23 7954   3.920   7.359   1.177
   19CHTO   H38 7955   3.944   7.304   1.104
   19CHTO   O16 7956   4.324   7.363   0.902
   19CHTO   C24 7957   4.373   7.210   0.933
   19CHTO   H52 7958   4.399   7.195   1.038
   19CHTO   C26 7959   4.497   7.181   0.845
   19CHTO   H54 7960   4.475   7.215   0.741
   19CHTO   O20 7961   4.606   7.262   0.894
   19CHTO   H36 7962   4.630   7.236   0.981
   19CHTO   C30 7963   4.535   7.029   0.841
   19CHTO   H58 7964   4.576   6.998   0.938
   19CHTO    N6 7965   4.642   7.003   0.741
   19CHTO   H45 7966   4.731   7.058   0.768
   19CHTO   H46 7967   4.610   7.034   0.643
   19CHTO   C33 7968   4.409   6.941   0.816
   19CHTO   H61 7969   4.368   6.962   0.715
   19CHTO   O18 7970   4.310   6.977   0.914
   19CHTO   C28 7971   4.259   7.110   0.901
   19CHTO   H56 7972   4.222   7.129   0.800
   19CHTO   C35 7973   4.143   7.126   1.001
   19CHTO   O24 7974   4.044   7.024   0.986
   19CHTO   H39 7975   4.000   7.033   0.903
   19CHTO    O9 7976   4.436   6.800   0.818
   19CHTO   C13 7977   4.315   6.701   0.758
   19CHTO   H26 7978   4.284   6.743   0.660
   19CHTO   C11 7979   4.194   6.693   0.860
   19CHTO   H24 7980   4.147   6.793   0.863
   19CHTO    O8 7981   4.245   6.666   0.992
   19CHTO    H3 7982   4.175   6.673   1.055
   19CHTO    C9 7983   4.089   6.591   0.808
   19CHTO   H22 7984   4.058   6.629   0.710
   19CHTO    N2 7985   3.965   6.590   0.889
   19CHTO   H10 7986   3.892   6.524   0.844
   19CHTO   H11 7987   3.986   6.559   0.990
   19CHTO    C7 7988   4.155   6.450   0.789
   19CHTO   H20 7989   4.076   6.390   0.737
   19CHTO    O4 7990   4.270   6.457   0.703
   19CHTO   C14 7991   4.373   6.556   0.725
   19CHTO   H27 7992   4.429   6.563   0.629
   19CHTO   C18 7993   4.471   6.499   0.830
   19CHTO   O13 7994   4.590   6.576   0.847
   19CHTO    H7 7995   4.644   6.537   0.913
   19CHTO    O2 7996   4.197   6.371   0.935
   19CHTO    C1 7997   4.170   6.229   0.932
   19CHTO   H14 7998   4.185   6.191   0.829
   19CHTO    C2 7999   4.024   6.191   0.980
   19CHTO   H15 8000   4.016   6.233   1.081
   19CHTO    O6 8001   3.926   6.253   0.894
   19CHTO    H1 8002   3.935   6.221   0.806
   19CHTO    C3 8003   4.002   6.032   0.987
   19CHTO   H16 8004   4.003   5.994   0.884
   19CHTO    N1 8005   3.870   5.994   1.047
   19CHTO    H8 8006   3.810   5.939   0.976
   19CHTO    H9 8007   3.815   6.081   1.081
   19CHTO    C4 8008   4.122   5.962   1.060
   19CHTO   H17 8009   4.112   5.978   1.168
   19CHTO    O1 8010   4.248   6.010   1.014
   19CHTO    C5 8011   4.271   6.152   1.022
   19CHTO   H18 8012   4.259   6.185   1.125
   19CHTO   C16 8013   4.418   6.175   0.979
   19CHTO   O11 8014   4.510   6.114   1.070
   19CHTO    H5 8015   4.508   6.159   1.153
   19CHTO    O3 8016   4.125   5.821   1.028
   19CHTO    C6 8017   4.169   5.730   1.134
   19CHTO   H19 8018   4.208   5.781   1.222
   19CHTO    C8 8019   4.049   5.640   1.178
   19CHTO   H21 8020   4.001   5.600   1.088
   19CHTO    O7 8021   3.955   5.724   1.247
   19CHTO    H2 8022   3.914   5.784   1.188
   19CHTO   C12 8023   4.095   5.518   1.268
   19CHTO   H25 8024   4.127   5.562   1.365
   19CHTO    N3 8025   3.981   5.425   1.298
   19CHTO   H12 8026   3.903   5.477   1.352
   19CHTO   H13 8027   3.942   5.383   1.206
   19CHTO   C15 8028   4.218   5.447   1.202
   19CHTO   H28 8029   4.191   5.396   1.110
   19CHTO   O10 8030   4.287   5.350   1.295
   19CHTO    H4 8031   4.231   5.277   1.312
   19CHTO    O5 8032   4.322   5.543   1.178
   19CHTO   C10 8033   4.286   5.641   1.080
   19CHTO   H23 8034   4.255   5.590   0.989
   19CHTO   C17 8035   4.414   5.720   1.049
   19CHTO   O12 8036   4.405   5.792   0.925
   19CHTO    H6 8037   4.399   5.731   0.853
   20CHTO  H203 8038   4.694   0.883   2.704
   20CHTO   O82 8039   4.712   0.863   2.614
   20CHTO  C123 8040   4.721   0.984   2.537
   20CHTO  H227 8041   4.636   1.048   2.562
   20CHTO   O77 8042   4.845   1.045   2.583
   20CHTO  C118 8043   4.867   1.176   2.527
   20CHTO  H222 8044   4.778   1.239   2.543
   20CHTO  C125 8045   4.989   1.242   2.600
   20CHTO   O84 8046   4.963   1.255   2.740
   20CHTO  H205 8047   5.042   1.280   2.785
   20CHTO  C114 8048   4.893   1.162   2.375
   20CHTO  H218 8049   4.984   1.103   2.361
   20CHTO  C116 8050   4.775   1.087   2.305
   20CHTO  H220 8051   4.689   1.157   2.296
   20CHTO   O79 8052   4.815   1.056   2.170
   20CHTO  H201 8053   4.743   1.020   2.122
   20CHTO  C120 8054   4.730   0.956   2.382
   20CHTO  H224 8055   4.808   0.879   2.362
   20CHTO   N21 8056   4.602   0.903   2.328
   20CHTO  H211 8057   4.597   0.796   2.341
   20CHTO  H212 8058   4.517   0.951   2.376
   20CHTO   O75 8059   4.911   1.296   2.328
   20CHTO  C112 8060   5.017   1.313   2.202
   20CHTO  H216 8061   5.034   1.215   2.155
   20CHTO   O73 8062   5.138   1.369   2.256
   20CHTO  C113 8063   5.243   1.392   2.160
   20CHTO  H217 8064   5.271   1.295   2.112
   20CHTO  C124 8065   5.366   1.444   2.235
   20CHTO   O83 8066   5.415   1.351   2.331
   20CHTO  H204 8067   5.432   1.396   2.412
   20CHTO  C109 8068   5.196   1.492   2.050
   20CHTO  H213 8069   5.178   1.588   2.101
   20CHTO  C110 8070   5.064   1.441   1.985
   20CHTO  H214 8071   5.086   1.350   1.929
   20CHTO   O78 8072   5.020   1.540   1.889
   20CHTO  H200 8073   4.997   1.620   1.933
   20CHTO  C111 8074   4.957   1.412   2.094
   20CHTO  H215 8075   4.933   1.507   2.145
   20CHTO   N19 8076   4.830   1.360   2.039
   20CHTO  H207 8077   4.759   1.343   2.118
   20CHTO  H208 8078   4.788   1.430   1.968
   20CHTO   O74 8079   5.300   1.510   1.949
   20CHTO  C115 8080   5.354   1.662   1.935
   20CHTO  H219 8081   5.299   1.730   2.001
   20CHTO   O76 8082   5.505   1.675   1.982
   20CHTO  C122 8083   5.598   1.617   1.889
   20CHTO  H226 8084   5.579   1.510   1.885
   20CHTO  C126 8085   5.744   1.632   1.947
   20CHTO   O85 8086   5.762   1.564   2.071
   20CHTO  H206 8087   5.756   1.471   2.058
   20CHTO  C121 8088   5.587   1.681   1.744
   20CHTO  H225 8089   5.680   1.738   1.722
   20CHTO   O81 8090   5.579   1.577   1.647
   20CHTO  H202 8091   5.501   1.526   1.659
   20CHTO  C119 8092   5.466   1.779   1.733
   20CHTO  H223 8093   5.488   1.857   1.806
   20CHTO  C117 8094   5.335   1.708   1.783
   20CHTO  H221 8095   5.307   1.617   1.729
   20CHTO   N20 8096   5.216   1.799   1.771
   20CHTO  H209 8097   5.203   1.829   1.668
   20CHTO  H210 8098   5.127   1.748   1.805
   20CHTO   O80 8099   5.459   1.867   1.594
   20CHTO  C103 8100   5.477   1.799   1.451
   20CHTO  H190 8101   5.567   1.738   1.446
   20CHTO  C101 8102   5.354   1.714   1.396
   20CHTO  H188 8103   5.262   1.766   1.424
   20CHTO   O68 8104   5.354   1.578   1.464
   20CHTO  H168 8105   5.343   1.589   1.557
   20CHTO   C99 8106   5.357   1.699   1.236
   20CHTO  H186 8107   5.446   1.639   1.207
   20CHTO   N17 8108   5.237   1.629   1.179
   20CHTO  H174 8109   5.225   1.533   1.226
   20CHTO  H175 8110   5.248   1.620   1.072
   20CHTO   C97 8111   5.378   1.839   1.173
   20CHTO  H184 8112   5.293   1.903   1.203
   20CHTO   O64 8113   5.503   1.892   1.220
   20CHTO  C104 8114   5.500   1.926   1.360
   20CHTO  H191 8115   5.422   1.999   1.380
   20CHTO  C108 8116   5.632   1.994   1.398
   20CHTO   O71 8117   5.647   2.120   1.332
   20CHTO  H171 8118   5.726   2.162   1.360
   20CHTO   O62 8119   5.391   1.838   1.029
   20CHTO   C91 8120   5.360   1.964   0.964
   20CHTO  H178 8121   5.363   2.044   1.038
   20CHTO   C92 8122   5.216   1.963   0.906
   20CHTO  H179 8123   5.208   1.880   0.834
   20CHTO   O66 8124   5.123   1.933   1.011
   20CHTO  H166 8125   5.036   1.923   0.977
   20CHTO   C93 8126   5.177   2.102   0.838
   20CHTO  H180 8127   5.148   2.169   0.920
   20CHTO   N16 8128   5.056   2.089   0.753
   20CHTO  H172 8129   5.079   2.103   0.648
   20CHTO  H173 8130   4.981   2.160   0.784
   20CHTO   C94 8131   5.297   2.169   0.758
   20CHTO  H181 8132   5.300   2.138   0.653
   20CHTO   O61 8133   5.428   2.142   0.812
   20CHTO   C95 8134   5.454   2.005   0.846
   20CHTO  H182 8135   5.435   1.942   0.759
   20CHTO  C106 8136   5.606   1.989   0.884
   20CHTO   O69 8137   5.690   2.019   0.772
   20CHTO  H169 8138   5.676   1.956   0.703
   20CHTO   O63 8139   5.282   2.330   0.769
   20CHTO   C96 8140   5.218   2.401   0.643
   20CHTO  H183 8141   5.152   2.330   0.593
   20CHTO   C98 8142   5.321   2.452   0.539
   20CHTO  H185 8143   5.395   2.517   0.588
   20CHTO   O67 8144   5.396   2.339   0.491
   20CHTO  H167 8145   5.340   2.280   0.444
   20CHTO  C102 8146   5.248   2.532   0.420
   20CHTO  H189 8147   5.180   2.460   0.373
   20CHTO   N18 8148   5.336   2.582   0.311
   20CHTO  H176 8149   5.386   2.499   0.264
   20CHTO  H177 8150   5.409   2.650   0.351
   20CHTO  C105 8151   5.162   2.645   0.485
   20CHTO  H192 8152   5.228   2.714   0.537
   20CHTO   O65 8153   5.069   2.590   0.580
   20CHTO  C100 8154   5.130   2.523   0.692
   20CHTO  H187 8155   5.195   2.594   0.746
   20CHTO  C107 8156   5.015   2.480   0.787
   20CHTO   O70 8157   5.065   2.440   0.916
   20CHTO  H170 8158   4.992   2.417   0.971
   20CHTO   O57 8159   5.077   2.725   0.364
   20CHTO   C85 8160   5.061   2.868   0.363
   20CHTO  H157 8161   5.043   2.900   0.468
   20CHTO   C83 8162   4.929   2.900   0.285
   20CHTO  H155 8163   4.845   2.862   0.343
   20CHTO   O56 8164   4.927   2.827   0.160
   20CHTO  H135 8165   4.996   2.857   0.104
   20CHTO   C81 8166   4.913   3.053   0.268
   20CHTO  H153 8167   4.920   3.098   0.367
   20CHTO   N14 8168   4.780   3.096   0.218
   20CHTO  H141 8169   4.775   3.202   0.210
   20CHTO  H142 8170   4.762   3.053   0.121
   20CHTO   C79 8171   5.031   3.110   0.181
   20CHTO  H151 8172   5.020   3.218   0.177
   20CHTO   O52 8173   5.157   3.084   0.249
   20CHTO   C86 8174   5.182   2.948   0.297
   20CHTO  H158 8175   5.215   2.894   0.207
   20CHTO   C90 8176   5.306   2.955   0.389
   20CHTO   O60 8177   5.296   3.063   0.482
   20CHTO  H138 8178   5.228   3.046   0.544
   20CHTO   O50 8179   5.037   3.060   0.046
   20CHTO   C73 8180   5.125   3.117   2.823
   20CHTO  H145 8181   5.204   3.175   2.872
   20CHTO   C74 8182   5.049   3.212   2.726
   20CHTO  H146 8183   5.004   3.291   2.788
   20CHTO   O54 8184   5.147   3.276   2.642
   20CHTO  H133 8185   5.106   3.342   2.589
   20CHTO   C75 8186   4.940   3.129   2.647
   20CHTO  H147 8187   4.864   3.096   2.719
   20CHTO   N13 8188   4.866   3.210   2.547
   20CHTO  H139 8189   4.793   3.149   2.497
   20CHTO  H140 8190   4.935   3.249   2.474
   20CHTO   C76 8191   5.005   2.996   2.582
   20CHTO  H148 8192   5.063   3.027   2.495
   20CHTO   O49 8193   5.091   2.924   2.674
   20CHTO   C77 8194   5.191   3.004   2.738
   20CHTO  H149 8195   5.256   3.049   2.663
   20CHTO   C88 8196   5.281   2.910   2.819
   20CHTO   O58 8197   5.376   2.984   0.013
   20CHTO  H136 8198   5.423   2.928   0.071
   20CHTO   O51 8199   4.888   2.885   2.543
   20CHTO   C78 8200   4.804   2.818   2.672
   20CHTO  H150 8201   4.815   2.881   2.763
   20CHTO   C80 8202   4.851   2.674   2.705
   20CHTO  H152 8203   4.849   2.614   2.611
   20CHTO   O55 8204   4.988   2.680   2.750
   20CHTO  H134 8205   4.994   2.729   2.830
   20CHTO   C84 8206   4.757   2.605   2.813
   20CHTO  H156 8207   4.772   2.659   0.031
   20CHTO   N15 8208   4.794   2.462   2.839
   20CHTO  H143 8209   4.729   2.421   0.038
   20CHTO  H144 8210   4.895   2.456   2.873
   20CHTO   C87 8211   4.609   2.617   2.770
   20CHTO  H159 8212   4.591   2.556   2.682
   20CHTO   O53 8213   4.576   2.761   2.740
   20CHTO   C82 8214   4.655   2.816   2.633
   20CHTO  H154 8215   4.640   2.757   2.543
   20CHTO   C89 8216   4.602   2.958   2.604
   20CHTO   O59 8217   4.612   3.044   2.718
   20CHTO  H137 8218   4.552   3.015   2.785
   20CHTO   O45 8219   4.499   2.565   0.015
   20CHTO   C67 8220   4.512   2.616   0.149
   20CHTO  H124 8221   4.612   2.592   0.186
   20CHTO   C65 8222   4.492   2.772   0.156
   20CHTO  H122 8223   4.433   2.799   0.069
   20CHTO   O44 8224   4.623   2.830   0.143
   20CHTO  H102 8225   4.671   2.821   0.224
   20CHTO   C63 8226   4.404   2.819   0.279
   20CHTO  H120 8227   4.300   2.795   0.257
   20CHTO   N11 8228   4.395   2.967   0.300
   20CHTO  H108 8229   4.371   3.016   0.208
   20CHTO  H109 8230   4.489   3.004   0.336
   20CHTO   C61 8231   4.440   2.734   0.407
   20CHTO  H118 8232   4.365   2.761   0.482
   20CHTO   O40 8233   4.427   2.591   0.384
   20CHTO   C68 8234   4.412   2.543   0.246
   20CHTO  H125 8235   4.308   2.562   0.213
   20CHTO   C72 8236   4.433   2.390   0.245
   20CHTO   O48 8237   4.336   2.321   0.324
   20CHTO  H105 8238   4.352   2.228   0.319
   20CHTO   O38 8239   4.574   2.758   0.457
   20CHTO   C55 8240   4.587   2.768   0.600
   20CHTO  H112 8241   4.490   2.753   0.650
   20CHTO   C56 8242   4.652   2.908   0.640
   20CHTO  H113 8243   4.749   2.915   0.588
   20CHTO   O42 8244   4.570   3.014   0.588
   20CHTO  H100 8245   4.612   3.096   0.601
   20CHTO   C57 8246   4.670   2.917   0.797
   20CHTO  H114 8247   4.571   2.914   0.842
   20CHTO   N10 8248   4.734   3.043   0.841
   20CHTO  H106 8249   4.789   3.029   0.933
   20CHTO  H107 8250   4.660   3.119   0.857
   20CHTO   C58 8251   4.749   2.793   0.846
   20CHTO  H115 8252   4.854   2.799   0.809
   20CHTO   O37 8253   4.689   2.671   0.800
   20CHTO   C59 8254   4.679   2.656   0.658
   20CHTO  H116 8255   4.779   2.661   0.613
   20CHTO   C70 8256   4.623   2.515   0.631
   20CHTO   O46 8257   4.494   2.491   0.687
   20CHTO  H103 8258   4.430   2.547   0.646
   20CHTO   O39 8259   4.747   2.786   1.011
   20CHTO   C60 8260   4.851   2.705   1.068
   20CHTO  H117 8261   4.910   2.657   0.989
   20CHTO   C62 8262   4.948   2.791   1.155
   20CHTO  H119 8263   4.989   2.869   1.088
   20CHTO   O43 8264   4.873   2.856   1.260
   20CHTO  H101 8265   4.837   2.793   1.319
   20CHTO   C66 8266   5.067   2.699   1.210
   20CHTO  H123 8267   5.117   2.652   1.125
   20CHTO   N12 8268   5.172   2.777   1.280
   20CHTO  H110 8269   5.130   2.827   1.366
   20CHTO  H111 8270   5.254   2.713   1.309
   20CHTO   C69 8271   5.009   2.585   1.298
   20CHTO  H126 8272   4.960   2.627   1.388
   20CHTO   O41 8273   4.900   2.503   1.212
   20CHTO   C64 8274   4.790   2.591   1.154
   20CHTO  H121 8275   4.733   2.637   1.237
   20CHTO   C71 8276   4.692   2.503   1.073
   20CHTO   O47 8277   4.605   2.428   1.159
   20CHTO  H104 8278   4.655   2.364   1.206
   20CHTO   O34 8279   5.122   2.486   1.345
   20CHTO   C49 8280   5.102   2.348   1.396
   20CHTO   H91 8281   5.045   2.297   1.319
   20CHTO   C47 8282   5.018   2.350   1.526
   20CHTO   H89 8283   4.914   2.371   1.492
   20CHTO   O33 8284   5.059   2.456   1.614
   20CHTO   H70 8285   5.147   2.443   1.643
   20CHTO   C45 8286   5.026   2.210   1.607
   20CHTO   H87 8287   5.100   2.222   1.688
   20CHTO    N8 8288   4.896   2.179   1.671
   20CHTO   H75 8289   4.877   2.073   1.670
   20CHTO   H76 8290   4.894   2.216   1.772
   20CHTO   C43 8291   5.089   2.093   1.517
   20CHTO   H85 8292   5.093   2.004   1.579
   20CHTO   O29 8293   5.220   2.135   1.473
   20CHTO   C50 8294   5.234   2.267   1.417
   20CHTO   H92 8295   5.302   2.326   1.481
   20CHTO   C54 8296   5.312   2.251   1.284
   20CHTO   O36 8297   5.362   2.375   1.233
   20CHTO   H72 8298   5.437   2.402   1.283
   20CHTO   O27 8299   5.007   2.061   1.403
   20CHTO   C37 8300   4.889   2.004   1.346
   20CHTO   H79 8301   4.806   2.010   1.418
   20CHTO   C38 8302   4.846   2.086   1.219
   20CHTO   H80 8303   4.935   2.103   1.157
   20CHTO   O31 8304   4.797   2.213   1.265
   20CHTO   H68 8305   4.720   2.203   1.317
   20CHTO   C39 8306   4.737   2.010   1.132
   20CHTO   H81 8307   4.645   2.005   1.191
   20CHTO    N7 8308   4.705   2.081   1.004
   20CHTO   H73 8309   4.720   2.017   0.918
   20CHTO   H74 8310   4.603   2.118   1.006
   20CHTO   C40 8311   4.787   1.862   1.109
   20CHTO   H82 8312   4.881   1.867   1.055
   20CHTO   O26 8313   4.802   1.801   1.238
   20CHTO   C41 8314   4.915   1.855   1.312
   20CHTO   H83 8315   5.007   1.846   1.253
   20CHTO   C52 8316   4.932   1.771   1.441
   20CHTO   O35 8317   4.962   1.628   1.412
   20CHTO   H71 8318   5.046   1.621   1.371
   20CHTO   O28 8319   4.697   1.778   1.034
   20CHTO   C42 8320   4.747   1.654   0.974
   20CHTO   H84 8321   4.658   1.610   0.928
   20CHTO   C44 8322   4.801   1.546   1.075
   20CHTO   H86 8323   4.879   1.592   1.136
   20CHTO   O32 8324   4.691   1.512   1.162
   20CHTO   H69 8325   4.623   1.470   1.114
   20CHTO   C48 8326   4.865   1.420   1.004
   20CHTO   H90 8327   4.786   1.366   0.951
   20CHTO    N9 8328   4.921   1.323   1.104
   20CHTO   H77 8329   4.843   1.287   1.170
   20CHTO   H78 8330   4.967   1.239   1.053
   20CHTO   C51 8331   4.972   1.472   0.902
   20CHTO   H93 8332   5.044   1.533   0.957
   20CHTO   O30 8333   4.902   1.549   0.803
   20CHTO   C46 8334   4.850   1.680   0.858
   20CHTO   H88 8335   4.934   1.737   0.896
   20CHTO   C53 8336   4.782   1.757   0.742
   20CHTO   O72 8337   4.877   1.790   0.640
   20CHTO  H199 8338   4.833   1.832   0.569
   20CHTO   O22 8339   5.038   1.369   0.827
   20CHTO   C31 8340   5.183   1.376   0.796
   20CHTO   H59 8341   5.197   1.313   0.706
   20CHTO   C29 8342   5.239   1.516   0.761
   20CHTO   H57 8343   5.229   1.580   0.851
   20CHTO   O21 8344   5.157   1.575   0.659
   20CHTO   H37 8345   5.164   1.527   0.579
   20CHTO   C27 8346   5.392   1.508   0.721
   20CHTO   H55 8347   5.401   1.444   0.632
   20CHTO    N5 8348   5.450   1.641   0.690
   20CHTO   H43 8349   5.553   1.629   0.657
   20CHTO   H44 8350   5.447   1.704   0.777
   20CHTO   C25 8351   5.470   1.436   0.837
   20CHTO   H53 8352   5.462   1.497   0.929
   20CHTO   O17 8353   5.409   1.306   0.865
   20CHTO   C32 8354   5.272   1.311   0.906
   20CHTO   H60 8355   5.263   1.370   0.998
   20CHTO   C36 8356   5.226   1.166   0.937
   20CHTO   O25 8357   5.296   1.112   1.050
   20CHTO   H40 8358   5.268   1.024   1.065
   20CHTO   O15 8359   5.624   1.410   0.802
   20CHTO   C19 8360   5.745   1.489   0.826
   20CHTO   H47 8361   5.717   1.590   0.792
   20CHTO   C20 8362   5.791   1.497   0.974
   20CHTO   H48 8363   5.822   1.399   1.013
   20CHTO   O19 8364   5.678   1.543   1.052
   20CHTO   H35 8365   5.699   1.539   1.144
   20CHTO   C21 8366   5.913   1.597   0.990
   20CHTO   H49 8367   5.878   1.698   0.970
   20CHTO    N4 8368   5.969   1.598   1.128
   20CHTO   H41 8369   5.893   1.630   1.198
   20CHTO   H42 8370   6.053   1.666   1.133
   20CHTO   C22 8371   6.022   1.566   0.883
   20CHTO   H50 8372   6.079   1.478   0.913
   20CHTO   O14 8373   5.968   1.547   0.751
   20CHTO   C23 8374   5.867   1.446   0.740
   20CHTO   H51 8375   5.910   1.351   0.775
   20CHTO   C34 8376   5.829   1.430   0.592
   20CHTO   O23 8377   5.939   1.377   0.516
   20CHTO   H38 8378   5.955   1.288   0.541
   20CHTO   O16 8379   6.108   1.681   0.869
   20CHTO   C24 8380   6.253   1.649   0.816
   20CHTO   H52 8381   6.260   1.547   0.777
   20CHTO   C26 8382   6.354   1.670   0.930
   20CHTO   H54 8383   6.337   1.772   0.972
   20CHTO   O20 8384   6.328   1.579   1.038
   20CHTO   H36 8385   6.383   1.599   1.111
   20CHTO   C30 8386   6.503   1.655   0.882
   20CHTO   H58 8387   6.543   1.559   0.917
   20CHTO    N6 8388   6.591   1.758   0.943
   20CHTO   H45 8389   6.692   1.745   0.908
   20CHTO   H46 8390   6.589   1.749   1.050
   20CHTO   C33 8391   6.514   1.651   0.726
   20CHTO   H61 8392   6.618   1.672   0.694
   20CHTO   O18 8393   6.428   1.751   0.668
   20CHTO   C28 8394   6.287   1.745   0.698
   20CHTO   H56 8395   6.252   1.845   0.724
   20CHTO   C35 8396   6.210   1.702   0.570
   20CHTO   O24 8397   6.224   1.797   0.464
   20CHTO   H39 8398   6.179   1.766   0.388
   20CHTO    O9 8399   6.484   1.520   0.677
   20CHTO   C13 8400   6.605   1.414   0.678
   20CHTO   H26 8401   6.696   1.464   0.715
   20CHTO   C11 8402   6.624   1.361   0.530
   20CHTO   H24 8403   6.664   1.445   0.470
   20CHTO    O8 8404   6.496   1.325   0.473
   20CHTO    H3 8405   6.507   1.302   0.382
   20CHTO    C9 8406   6.727   1.246   0.533
   20CHTO   H22 8407   6.814   1.285   0.587
   20CHTO    N2 8408   6.779   1.208   0.399
   20CHTO   H10 8409   6.821   1.295   0.350
   20CHTO   H11 8410   6.700   1.165   0.339
   20CHTO    C7 8411   6.667   1.125   0.613
   20CHTO   H20 8412   6.752   1.055   0.623
   20CHTO    O4 8413   6.623   1.163   0.745
   20CHTO   C14 8414   6.577   1.295   0.781
   20CHTO   H27 8415   6.634   1.320   0.873
   20CHTO   C18 8416   6.428   1.284   0.825
   20CHTO   O13 8417   6.342   1.247   0.717
   20CHTO    H7 8418   6.254   1.236   0.749
   20CHTO    O2 8419   6.540   1.049   0.531
   20CHTO    C1 8420   6.467   0.949   0.604
   20CHTO   H14 8421   6.432   0.992   0.700
   20CHTO    C2 8422   6.546   0.815   0.634
   20CHTO   H15 8423   6.580   0.775   0.537
   20CHTO    O6 8424   6.660   0.844   0.718
   20CHTO    H1 8425   6.713   0.768   0.728
   20CHTO    C3 8426   6.449   0.709   0.707
   20CHTO   H16 8427   6.426   0.750   0.806
   20CHTO    N1 8428   6.514   0.575   0.727
   20CHTO    H8 8429   6.603   0.587   0.788
   20CHTO    H9 8430   6.446   0.508   0.776
   20CHTO    C4 8431   6.311   0.696   0.633
   20CHTO   H17 8432   6.324   0.639   0.541
   20CHTO    O1 8433   6.254   0.825   0.602
   20CHTO    C5 8434   6.339   0.911   0.524
   20CHTO   H18 8435   6.370   0.858   0.434
   20CHTO   C16 8436   6.255   1.034   0.481
   20CHTO   O11 8437   6.147   0.997   0.395
   20CHTO    H5 8438   6.084   0.946   0.442
   20CHTO    O3 8439   6.213   0.633   0.718
   20CHTO    C6 8440   6.109   0.554   0.651
   20CHTO   H19 8441   6.104   0.574   0.544
   20CHTO    C8 8442   6.136   0.401   0.671
   20CHTO   H21 8443   6.148   0.382   0.778
   20CHTO    O7 8444   6.258   0.370   0.602
   20CHTO    H2 8445   6.332   0.408   0.647
   20CHTO   C12 8446   6.015   0.315   0.617
   20CHTO   H25 8447   6.014   0.328   0.506
   20CHTO    N3 8448   6.035   0.169   0.644
   20CHTO   H12 8449   6.125   0.134   0.595
   20CHTO   H13 8450   5.950   0.113   0.609
   20CHTO   C15 8451   5.879   0.370   0.674
   20CHTO   H28 8452   5.869   0.349   0.781
   20CHTO   O10 8453   5.756   0.313   0.598
   20CHTO    H4 8454   5.685   0.298   0.658
   20CHTO    O5 8455   5.866   0.511   0.650
   20CHTO   C10 8456   5.969   0.590   0.710
   20CHTO   H23 8457   5.969   0.570   0.818
   20CHTO   C17 8458   5.933   0.739   0.693
   20CHTO   O12 8459   5.925   0.777   0.555
   20CHTO    H6 8460   5.908   0.869   0.549
   21GLOH   H03 8461   4.015   0.026   2.120
   21GLOH    O1 8462   3.978   0.111   2.155
   21GLOH    C1 8463   3.912   0.085   2.280
   21GLOH   H02 8464   3.936   0.164   2.352
   21GLOH   H08 8465   3.945   9.991   2.324
   21GLOH    C2 8466   3.759   0.080   2.263
   21GLOH   H04 8467   3.727   0.169   2.207
   21GLOH    O2 8468   3.718   9.962   2.190
   21GLOH   H05 8469   3.764   9.957   2.102
   21GLOH    C3 8470   3.690   0.085   2.400
   21GLOH   H06 8471   3.722   9.999   2.459
   21GLOH   H07 8472   3.582   0.074   2.386
   21GLOH    O3 8473   3.718   0.207   2.470
   21GLOH   H01 8474   3.678   0.283   2.424
   22GLOH   H03 8475   3.570   0.329   2.083
   22GLOH    O1 8476   3.514   0.255   2.048
   22GLOH    C1 8477   3.404   0.234   2.138
   22GLOH   H02 8478   3.400   0.312   2.214
   22GLOH   H08 8479   3.417   0.140   2.191
   22GLOH    C2 8480   3.267   0.230   2.066
   22GLOH   H04 8481   3.190   0.220   2.144
   22GLOH    O2 8482   3.244   0.353   1.993
   22GLOH   H05 8483   3.146   0.362   1.976
   22GLOH    C3 8484   3.260   0.105   1.977
   22GLOH   H06 8485   3.290   0.018   2.037
   22GLOH   H07 8486   3.334   0.114   1.897
   22GLOH    O3 8487   3.129   0.082   1.921
   22GLOH   H01 8488   3.143   0.031   1.837
   23GLOH   H03 8489   3.603   8.771   2.605
   23GLOH    O1 8490   3.691   8.745   2.571
   23GLOH    C1 8491   3.725   8.827   2.457
   23GLOH   H02 8492   3.748   8.929   2.489
   23GLOH   H08 8493   3.641   8.834   2.388
   23GLOH    C2 8494   3.846   8.773   2.378
   23GLOH   H04 8495   3.820   8.675   2.336
   23GLOH    O2 8496   3.880   8.862   2.271
   23GLOH   H05 8497   3.804   8.866   2.205
   23GLOH    C3 8498   3.966   8.753   2.472
   23GLOH   H06 8499   3.996   8.851   2.511
   23GLOH   H07 8500   4.051   8.715   2.415
   23GLOH    O3 8501   3.934   8.664   2.580
   23GLOH   H01 8502   3.838   8.678   2.598
   24GLOH   H03 8503   4.141   1.785   0.653
   24GLOH    O1 8504   4.223   1.745   0.615
   24GLOH    C1 8505   4.246   1.616   0.676
   24GLOH   H02 8506   4.334   1.569   0.631
   24GLOH   H08 8507   4.162   1.550   0.656
   24GLOH    C2 8508   4.267   1.624   0.828
   24GLOH   H04 8509   4.175   1.662   0.874
   24GLOH    O2 8510   4.295   1.492   0.880
   24GLOH   H05 8511   4.242   1.476   0.962
   24GLOH    C3 8512   4.382   1.722   0.861
   24GLOH   H06 8513   4.370   1.812   0.800
   24GLOH   H07 8514   4.476   1.676   0.830
   24GLOH    O3 8515   4.387   1.758   1.000
   24GLOH   H01 8516   4.347   1.849   1.010
   25GLOH   H03 8517   4.009   3.496   2.114
   25GLOH    O1 8518   3.995   3.582   2.067
   25GLOH    C1 8519   4.012   3.561   1.925
   25GLOH   H02 8520   3.966   3.467   1.895
   25GLOH   H08 8521   4.118   3.555   1.901
   25GLOH    C2 8522   3.950   3.675   1.841
   25GLOH   H04 8523   4.004   3.767   1.865
   25GLOH    O2 8524   3.964   3.648   1.700
   25GLOH   H05 8525   3.901   3.575   1.674
   25GLOH    C3 8526   3.803   3.695   1.884
   25GLOH   H06 8527   3.802   3.730   1.988
   25GLOH   H07 8528   3.755   3.598   1.884
   25GLOH    O3 8529   3.728   3.787   1.802
   25GLOH   H01 8530   3.782   3.868   1.782
   26GLOH   H03 8531   4.334   1.680   2.216
   26GLOH    O1 8532   4.299   1.645   2.130
   26GLOH    C1 8533   4.363   1.722   2.026
   26GLOH   H02 8534   4.328   1.825   2.028
   26GLOH   H08 8535   4.336   1.681   1.928
   26GLOH    C2 8536   4.517   1.722   2.038
   26GLOH   H04 8537   4.552   1.618   2.027
   26GLOH    O2 8538   4.575   1.801   1.933
   26GLOH   H05 8539   4.565   1.749   1.847
   26GLOH    C3 8540   4.561   1.773   2.176
   26GLOH   H06 8541   4.535   1.879   2.185
   26GLOH   H07 8542   4.670   1.768   2.182
   26GLOH    O3 8543   4.503   1.698   2.284
   26GLOH   H01 8544   4.523   1.602   2.273
   27GLOH   H03 8545   4.570   1.291   1.735
   27GLOH    O1 8546   4.517   1.218   1.777
   27GLOH    C1 8547   4.476   1.258   1.909
   27GLOH   H02 8548   4.389   1.324   1.903
   27GLOH   H08 8549   4.555   1.314   1.958
   27GLOH    C2 8550   4.440   1.138   1.999
   27GLOH   H04 8551   4.532   1.078   2.014
   27GLOH    O2 8552   4.393   1.185   2.127
   27GLOH   H05 8553   4.338   1.116   2.170
   27GLOH    C3 8554   4.336   1.047   1.930
   27GLOH   H06 8555   4.242   1.102   1.921
   27GLOH   H07 8556   4.317   0.960   1.993
   27GLOH    O3 8557   4.383   1.005   1.801
   27GLOH   H01 8558   4.440   1.080   1.769
   28GLOH   H03 8559   2.740   1.782   0.334
   28GLOH    O1 8560   2.649   1.807   0.305
   28GLOH    C1 8561   2.602   1.704   0.215
   28GLOH   H02 8562   2.494   1.707   0.206
   28GLOH   H08 8563   2.628   1.605   0.254
   28GLOH    C2 8564   2.663   1.719   0.074
   28GLOH   H04 8565   2.773   1.714   0.083
   28GLOH    O2 8566   2.617   1.613   2.863
   28GLOH   H05 8567   2.622   1.526   0.032
   28GLOH    C3 8568   2.625   1.856   0.015
   28GLOH   H06 8569   2.517   1.857   2.872
   28GLOH   H07 8570   2.674   1.867   2.794
   28GLOH    O3 8571   2.662   1.963   0.103
   28GLOH   H01 8572   2.647   1.928   0.194
   29GLOH   H03 8573   3.585   9.144   1.544
   29GLOH    O1 8574   3.643   9.095   1.608
   29GLOH    C1 8575   3.657   9.177   1.725
   29GLOH   H02 8576   3.566   9.173   1.785
   29GLOH   H08 8577   3.672   9.281   1.696
   29GLOH    C2 8578   3.775   9.133   1.814
   29GLOH   H04 8579   3.773   9.194   1.906
   29GLOH    O2 8580   3.761   8.994   1.850
   29GLOH   H05 8581   3.762   8.942   1.767
   29GLOH    C3 8582   3.909   9.160   1.743
   29GLOH   H06 8583   3.920   9.089   1.661
   29GLOH   H07 8584   3.990   9.139   1.813
   29GLOH    O3 8585   3.920   9.295   1.694
   29GLOH   H01 8586   3.898   9.294   1.598
   30GLOH   H03 8587   3.793   3.616   0.383
   30GLOH    O1 8588   3.700   3.592   0.408
   30GLOH    C1 8589   3.680   3.638   0.543
   30GLOH   H02 8590   3.771   3.626   0.601
   30GLOH   H08 8591   3.604   3.577   0.592
   30GLOH    C2 8592   3.636   3.786   0.548
   30GLOH   H04 8593   3.717   3.846   0.504
   30GLOH    O2 8594   3.515   3.809   0.474
   30GLOH   H05 8595   3.472   3.722   0.452
   30GLOH    C3 8596   3.620   3.829   0.695
   30GLOH   H06 8597   3.544   3.766   0.742
   30GLOH   H07 8598   3.583   3.931   0.699
   30GLOH    O3 8599   3.744   3.817   0.766
   30GLOH   H01 8600   3.741   3.874   0.848
   31GLOH   H03 8601   2.851   1.881   2.571
   31GLOH    O1 8602   2.879   1.832   2.490
   31GLOH    C1 8603   2.938   1.707   2.531
   31GLOH   H02 8604   2.860   1.638   2.565
   31GLOH   H08 8605   3.006   1.722   2.615
   31GLOH    C2 8606   3.016   1.640   2.417
   31GLOH   H04 8607   2.945   1.614   2.336
   31GLOH    O2 8608   3.116   1.730   2.365
   31GLOH   H05 8609   3.076   1.819   2.364
   31GLOH    C3 8610   3.082   1.510   2.466
   31GLOH   H06 8611   3.154   1.536   2.543
   31GLOH   H07 8612   3.139   1.466   2.383
   31GLOH    O3 8613   2.987   1.415   2.517
   31GLOH   H01 8614   2.915   1.400   2.452
   32GLOH   H03 8615   4.055   2.447   1.310
   32GLOH    O1 8616   4.016   2.466   1.221
   32GLOH    C1 8617   3.873   2.453   1.231
   32GLOH   H02 8618   3.826   2.499   1.145
   32GLOH   H08 8619   3.837   2.508   1.318
   32GLOH    C2 8620   3.826   2.306   1.241
   32GLOH   H04 8621   3.914   2.243   1.261
   32GLOH    O2 8622   3.732   2.288   1.350
   32GLOH   H05 8623   3.709   2.191   1.356
   32GLOH    C3 8624   3.762   2.257   1.110
   32GLOH   H06 8625   3.696   2.335   1.073
   32GLOH   H07 8626   3.698   2.172   1.133
   32GLOH    O3 8627   3.857   2.220   1.009
   32GLOH   H01 8628   3.806   2.162   0.946
   33GLOH   H03 8629   3.230   1.138   1.913
   33GLOH    O1 8630   3.289   1.068   1.953
   33GLOH    C1 8631   3.410   1.063   1.874
   33GLOH   H02 8632   3.385   1.064   1.768
   33GLOH   H08 8633   3.461   0.969   1.893
   33GLOH    C2 8634   3.510   1.178   1.901
   33GLOH   H04 8635   3.589   1.169   1.825
   33GLOH    O2 8636   3.448   1.308   1.885
   33GLOH   H05 8637   3.426   1.319   1.789
   33GLOH    C3 8638   3.577   1.166   2.039
   33GLOH   H06 8639   3.602   1.062   2.058
   33GLOH   H07 8640   3.505   1.196   2.115
   33GLOH    O3 8641   3.695   1.249   2.048
   33GLOH   H01 8642   3.665   1.341   2.031
   34GLOH   H03 8643   4.317   3.061   2.685
   34GLOH    O1 8644   4.348   3.149   2.719
   34GLOH    C1 8645   4.256   3.252   2.678
   34GLOH   H02 8646   4.155   3.230   2.715
   34GLOH   H08 8647   4.250   3.257   2.569
   34GLOH    C2 8648   4.298   3.390   2.731
   34GLOH   H04 8649   4.393   3.418   2.682
   34GLOH    O2 8650   4.199   3.490   2.701
   34GLOH   H05 8651   4.241   3.569   2.660
   34GLOH    C3 8652   4.323   3.382   0.007
   34GLOH   H06 8653   4.234   3.341   0.055
   34GLOH   H07 8654   4.337   3.483   0.046
   34GLOH    O3 8655   4.437   3.299   0.035
   34GLOH   H01 8656   4.429   3.223   2.849
   35GLOH   H03 8657   4.291   3.404   1.825
   35GLOH    O1 8658   4.348   3.485   1.832
   35GLOH    C1 8659   4.399   3.493   1.966
   35GLOH   H02 8660   4.471   3.413   1.984
   35GLOH   H08 8661   4.317   3.479   2.038
   35GLOH    C2 8662   4.467   3.628   1.994
   35GLOH   H04 8663   4.552   3.638   1.926
   35GLOH    O2 8664   4.374   3.736   1.971
   35GLOH   H05 8665   4.325   3.714   1.890
   35GLOH    C3 8666   4.520   3.632   2.139
   35GLOH   H06 8667   4.436   3.618   2.207
   35GLOH   H07 8668   4.559   3.732   2.158
   35GLOH    O3 8669   4.621   3.533   2.161
   35GLOH   H01 8670   4.704   3.565   2.115
   36GLOH   H03 8671   3.717   3.114   2.232
   36GLOH    O1 8672   3.681   3.199   2.195
   36GLOH    C1 8673   3.792   3.277   2.143
   36GLOH   H02 8674   3.761   3.380   2.127
   36GLOH   H08 8675   3.823   3.238   2.047
   36GLOH    C2 8676   3.914   3.276   2.236
   36GLOH   H04 8677   3.949   3.172   2.243
   36GLOH    O2 8678   4.020   3.356   2.179
   36GLOH   H05 8679   4.104   3.323   2.224
   36GLOH    C3 8680   3.878   3.324   2.378
   36GLOH   H06 8681   3.792   3.267   2.414
   36GLOH   H07 8682   3.846   3.428   2.373
   36GLOH    O3 8683   3.988   3.309   2.469
   36GLOH   H01 8684   4.051   3.384   2.452
   37GLOH   H03 8685   3.713   3.996   2.168
   37GLOH    O1 8686   3.785   3.929   2.182
   37GLOH    C1 8687   3.727   3.820   2.256
   37GLOH   H02 8688   3.805   3.748   2.282
   37GLOH   H08 8689   3.655   3.767   2.195
   37GLOH    C2 8690   3.656   3.866   2.385
   37GLOH   H04 8691   3.723   3.936   2.438
   37GLOH    O2 8692   3.533   3.934   2.356
   37GLOH   H05 8693   3.548   4.005   2.288
   37GLOH    C3 8694   3.631   3.746   2.477
   37GLOH   H06 8695   3.568   3.675   2.423
   37GLOH   H07 8696   3.573   3.780   2.563
   37GLOH    O3 8697   3.754   3.684   2.519
   37GLOH   H01 8698   3.733   3.610   2.580
   38GLOH   H03 8699   2.940   2.102   2.797
   38GLOH    O1 8700   2.947   2.006   2.814
   38GLOH    C1 8701   3.039   1.982   0.046
   38GLOH   H02 8702   3.141   2.007   0.015
   38GLOH   H08 8703   3.039   1.876   0.072
   38GLOH    C2 8704   3.007   2.062   0.174
   38GLOH   H04 8705   3.005   2.169   0.147
   38GLOH    O2 8706   2.878   2.028   0.228
   38GLOH   H05 8707   2.814   2.007   0.154
   38GLOH    C3 8708   3.117   2.042   0.280
   38GLOH   H06 8709   3.143   1.936   0.283
   38GLOH   H07 8710   3.075   2.066   0.379
   38GLOH    O3 8711   3.233   2.123   0.255
   38GLOH   H01 8712   3.300   2.074   0.201
   39GLOH   H03 8713   3.804   1.336   0.411
   39GLOH    O1 8714   3.896   1.372   0.421
   39GLOH    C1 8715   3.991   1.263   0.415
   39GLOH   H02 8716   4.092   1.303   0.402
   39GLOH   H08 8717   3.971   1.200   0.329
   39GLOH    C2 8718   3.990   1.176   0.542
   39GLOH   H04 8719   3.891   1.128   0.550
   39GLOH    O2 8720   4.091   1.073   0.535
   39GLOH   H05 8721   4.049   0.991   0.495
   39GLOH    C3 8722   4.010   1.264   0.667
   39GLOH   H06 8723   4.107   1.314   0.659
   39GLOH   H07 8724   4.014   1.200   0.755
   39GLOH    O3 8725   3.904   1.361   0.678
   39GLOH   H01 8726   3.893   1.397   0.587
   40GLOH   H03 8727   3.243   1.100   1.402
   40GLOH    O1 8728   3.317   1.114   1.467
   40GLOH    C1 8729   3.415   1.011   1.447
   40GLOH   H02 8730   3.369   0.912   1.455
   40GLOH   H08 8731   3.490   1.017   1.526
   40GLOH    C2 8732   3.487   1.020   1.311
   40GLOH   H04 8733   3.573   0.952   1.313
   40GLOH    O2 8734   3.399   0.984   1.202
   40GLOH   H05 8735   3.454   0.973   1.119
   40GLOH    C3 8736   3.540   1.164   1.295
   40GLOH   H06 8737   3.595   1.191   1.385
   40GLOH   H07 8738   3.455   1.232   1.289
   40GLOH    O3 8739   3.624   1.181   1.179
   40GLOH   H01 8740   3.701   1.120   1.189
   41GLOH   H03 8741   2.399   1.173   2.331
   41GLOH    O1 8742   2.448   1.212   2.408
   41GLOH    C1 8743   2.553   1.299   2.363
   41GLOH   H02 8744   2.602   1.258   2.275
   41GLOH   H08 8745   2.630   1.307   2.440
   41GLOH    C2 8746   2.503   1.441   2.329
   41GLOH   H04 8747   2.450   1.481   2.417
   41GLOH    O2 8748   2.615   1.528   2.298
   41GLOH   H05 8749   2.583   1.621   2.300
   41GLOH    C3 8750   2.405   1.434   2.211
   41GLOH   H06 8751   2.324   1.366   2.237
   41GLOH   H07 8752   2.458   1.390   2.126
   41GLOH    O3 8753   2.349   1.562   2.174
   41GLOH   H01 8754   2.286   1.589   2.244
   42GLOH   H03 8755   3.712   4.049   1.689
   42GLOH    O1 8756   3.787   4.031   1.751
   42GLOH    C1 8757   3.748   4.082   1.879
   42GLOH   H02 8758   3.789   4.019   1.958
   42GLOH   H08 8759   3.639   4.080   1.889
   42GLOH    C2 8760   3.796   4.226   1.904
   42GLOH   H04 8761   3.753   4.291   1.825
   42GLOH    O2 8762   3.748   4.271   2.033
   42GLOH   H05 8763   3.824   4.308   2.087
   42GLOH    C3 8764   3.949   4.232   1.894
   42GLOH   H06 8765   3.992   4.169   1.973
   42GLOH   H07 8766   3.982   4.334   1.913
   42GLOH    O3 8767   3.994   4.188   1.765
   42GLOH   H01 8768   3.926   4.123   1.733
   43GLOH   H03 8769   3.167   0.005   1.386
   43GLOH    O1 8770   3.186   9.910   1.365
   43GLOH    C1 8771   3.196   9.894   1.222
   43GLOH   H02 8772   3.250   9.978   1.178
   43GLOH   H08 8773   3.096   9.894   1.177
   43GLOH    C2 8774   3.268   9.764   1.181
   43GLOH   H04 8775   3.220   9.680   1.233
   43GLOH    O2 8776   3.258   9.744   1.038
   43GLOH   H05 8777   3.166   9.712   1.013
   43GLOH    C3 8778   3.417   9.768   1.221
   43GLOH   H06 8779   3.460   9.859   1.179
   43GLOH   H07 8780   3.468   9.685   1.172
   43GLOH    O3 8781   3.441   9.765   1.363
   43GLOH   H01 8782   3.435   9.857   1.398
   44GLOH   H03 8783   4.564   3.717   1.609
   44GLOH    O1 8784   4.644   3.776   1.600
   44GLOH    C1 8785   4.619   3.893   1.681
   44GLOH   H02 8786   4.618   3.867   1.787
   44GLOH   H08 8787   4.521   3.935   1.658
   44GLOH    C2 8788   4.724   4.004   1.660
   44GLOH   H04 8789   4.722   4.035   1.554
   44GLOH    O2 8790   4.694   4.119   1.743
   44GLOH   H05 8791   4.595   4.133   1.751
   44GLOH    C3 8792   4.865   3.951   1.691
   44GLOH   H06 8793   4.872   3.931   1.798
   44GLOH   H07 8794   4.937   4.030   1.669
   44GLOH    O3 8795   4.894   3.833   1.615
   44GLOH   H01 8796   4.806   3.791   1.599
   45GLOH   H03 8797   4.178   1.614   1.720
   45GLOH    O1 8798   4.159   1.530   1.768
   45GLOH    C1 8799   4.059   1.456   1.694
   45GLOH   H02 8800   4.073   1.470   1.587
   45GLOH   H08 8801   3.960   1.494   1.718
   45GLOH    C2 8802   4.062   1.306   1.724
   45GLOH   H04 8803   4.065   1.293   1.834
   45GLOH    O2 8804   3.944   1.241   1.673
   45GLOH   H05 8805   3.905   1.184   1.745
   45GLOH    C3 8806   4.190   1.240   1.666
   45GLOH   H06 8807   4.189   1.135   1.694
   45GLOH   H07 8808   4.276   1.285   1.715
   45GLOH    O3 8809   4.202   1.253   1.524
   45GLOH   H01 8810   4.116   1.230   1.482
   46GLOH   H03 8811   3.756   0.403   2.104
   46GLOH    O1 8812   3.665   0.437   2.130
   46GLOH    C1 8813   3.670   0.581   2.130
   46GLOH   H02 8814   3.740   0.617   2.054
   46GLOH   H08 8815   3.708   0.616   2.226
   46GLOH    C2 8816   3.532   0.646   2.106
   46GLOH   H04 8817   3.466   0.618   2.189
   46GLOH    O2 8818   3.548   0.790   2.104
   46GLOH   H05 8819   3.622   0.817   2.167
   46GLOH    C3 8820   3.472   0.595   1.973
   46GLOH   H06 8821   3.504   0.492   1.957
   46GLOH   H07 8822   3.513   0.654   1.892
   46GLOH    O3 8823   3.328   0.600   1.967
   46GLOH   H01 8824   3.294   0.509   1.987
   47GLOH   H03 8825   3.670   9.386   1.158
   47GLOH    O1 8826   3.703   9.331   1.234
   47GLOH    C1 8827   3.731   9.201   1.180
   47GLOH   H02 8828   3.808   9.208   1.103
   47GLOH   H08 8829   3.642   9.161   1.132
   47GLOH    C2 8830   3.778   9.099   1.285
   47GLOH   H04 8831   3.693   9.077   1.351
   47GLOH    O2 8832   3.817   8.977   1.218
   47GLOH   H05 8833   3.737   8.933   1.178
   47GLOH    C3 8834   3.892   9.155   1.371
   47GLOH   H06 8835   3.977   9.178   1.306
   47GLOH   H07 8836   3.925   9.078   1.440
   47GLOH    O3 8837   3.850   9.273   1.442
   47GLOH   H01 8838   3.788   9.317   1.378
   48GLOH   H03 8839   3.540   9.228   0.469
   48GLOH    O1 8840   3.498   9.187   0.548
   48GLOH    C1 8841   3.526   9.272   0.662
   48GLOH   H02 8842   3.614   9.237   0.715
   48GLOH   H08 8843   3.442   9.268   0.732
   48GLOH    C2 8844   3.545   9.419   0.622
   48GLOH   H04 8845   3.450   9.456   0.582
   48GLOH    O2 8846   3.581   9.501   0.735
   48GLOH   H05 8847   3.554   9.595   0.713
   48GLOH    C3 8848   3.651   9.429   0.510
   48GLOH   H06 8849   3.744   9.386   0.547
   48GLOH   H07 8850   3.670   9.535   0.490
   48GLOH    O3 8851   3.607   9.361   0.391
   48GLOH   H01 8852   3.672   9.382   0.317
   49GLOH   H03 8853   3.989   4.108   0.419
   49GLOH    O1 8854   3.958   4.097   0.513
   49GLOH    C1 8855   4.049   4.169   0.599
   49GLOH   H02 8856   4.016   4.161   0.703
   49GLOH   H08 8857   4.050   4.275   0.574
   49GLOH    C2 8858   4.193   4.115   0.589
   49GLOH   H04 8859   4.190   4.005   0.597
   49GLOH    O2 8860   4.251   4.151   0.463
   49GLOH   H05 8861   4.336   4.100   0.451
   49GLOH    C3 8862   4.281   4.167   0.704
   49GLOH   H06 8863   4.290   4.275   0.695
   49GLOH   H07 8864   4.381   4.125   0.689
   49GLOH    O3 8865   4.232   4.130   0.834
   49GLOH   H01 8866   4.256   4.035   0.851
   50GLOH   H03 8867   3.277   2.728   1.180
   50GLOH    O1 8868   3.305   2.650   1.236
   50GLOH    C1 8869   3.411   2.692   1.324
   50GLOH   H02 8870   3.373   2.762   1.398
   50GLOH   H08 8871   3.489   2.743   1.268
   50GLOH    C2 8872   3.475   2.573   1.399
   50GLOH   H04 8873   3.523   2.507   1.325
   50GLOH    O2 8874   3.577   2.622   1.490
   50GLOH   H05 8875   3.645   2.676   1.440
   50GLOH    C3 8876   3.368   2.492   1.474
   50GLOH   H06 8877   3.328   2.554   1.555
   50GLOH   H07 8878   3.415   2.406   1.521
   50GLOH    O3 8879   3.261   2.450   1.387
   50GLOH   H01 8880   3.259   2.518   1.314
   51GLOH   H03 8881   2.943   1.529   1.592
   51GLOH    O1 8882   2.856   1.578   1.585
   51GLOH    C1 8883   2.763   1.496   1.512
   51GLOH   H02 8884   2.672   1.483   1.570
   51GLOH   H08 8885   2.805   1.397   1.495
   51GLOH    C2 8886   2.726   1.558   1.376
   51GLOH   H04 8887   2.818   1.568   1.316
   51GLOH    O2 8888   2.634   1.470   1.307
   51GLOH   H05 8889   2.578   1.523   1.242
   51GLOH    C3 8890   2.666   1.699   1.395
   51GLOH   H06 8891   2.570   1.690   1.445
   51GLOH   H07 8892   2.648   1.744   1.298
   51GLOH    O3 8893   2.755   1.781   1.472
   51GLOH   H01 8894   2.795   1.718   1.539
   52GLOH   H03 8895   3.666   1.747   0.211
   52GLOH    O1 8896   3.575   1.712   0.230
   52GLOH    C1 8897   3.485   1.824   0.227
   52GLOH   H02 8898   3.486   1.877   0.322
   52GLOH   H08 8899   3.382   1.790   0.211
   52GLOH    C2 8900   3.521   1.926   0.116
   52GLOH   H04 8901   3.526   1.872   0.020
   52GLOH    O2 8902   3.421   2.030   0.106
   52GLOH   H05 8903   3.452   2.096   0.040
   52GLOH    C3 8904   3.660   1.985   0.146
   52GLOH   H06 8905   3.654   2.043   0.238
   52GLOH   H07 8906   3.686   2.055   0.065
   52GLOH    O3 8907   3.760   1.882   0.157
   52GLOH   H01 8908   3.847   1.922   0.182
   53GLOH   H03 8909   3.396   3.378   2.348
   53GLOH    O1 8910   3.354   3.374   2.437
   53GLOH    C1 8911   3.455   3.400   2.536
   53GLOH   H02 8912   3.411   3.451   2.622
   53GLOH   H08 8913   3.531   3.467   2.495
   53GLOH    C2 8914   3.525   3.272   2.584
   53GLOH   H04 8915   3.564   3.219   2.497
   53GLOH    O2 8916   3.634   3.307   2.672
   53GLOH   H05 8917   3.645   3.232   2.734
   53GLOH    C3 8918   3.424   3.180   2.657
   53GLOH   H06 8919   3.342   3.158   2.588
   53GLOH   H07 8920   3.381   3.235   2.741
   53GLOH    O3 8921   3.485   3.058   2.703
   53GLOH   H01 8922   3.420   3.009   2.760
   54GLOH   H03 8923   3.521   3.139   2.270
   54GLOH    O1 8924   3.472   3.065   2.312
   54GLOH    C1 8925   3.334   3.074   2.274
   54GLOH   H02 8926   3.323   3.052   2.167
   54GLOH   H08 8927   3.296   3.175   2.289
   54GLOH    C2 8928   3.243   2.977   2.353
   54GLOH   H04 8929   3.245   3.008   2.458
   54GLOH    O2 8930   3.108   2.983   2.305
   54GLOH   H05 8931   3.058   3.048   2.358
   54GLOH    C3 8932   3.298   2.834   2.345
   54GLOH   H06 8933   3.300   2.802   2.241
   54GLOH   H07 8934   3.231   2.767   2.399
   54GLOH    O3 8935   3.430   2.828   2.402
   54GLOH   H01 8936   3.468   2.918   2.382
   55GLOH   H03 8937   4.121   2.617   0.534
   55GLOH    O1 8938   4.096   2.637   0.440
   55GLOH    C1 8939   3.988   2.548   0.406
   55GLOH   H02 8940   3.892   2.600   0.416
   55GLOH   H08 8941   3.985   2.464   0.474
   55GLOH    C2 8942   3.997   2.491   0.263
   55GLOH   H04 8943   4.092   2.436   0.255
   55GLOH    O2 8944   3.888   2.400   0.238
   55GLOH   H05 8945   3.907   2.312   0.280
   55GLOH    C3 8946   3.999   2.604   0.158
   55GLOH   H06 8947   4.010   2.558   0.059
   55GLOH   H07 8948   4.089   2.664   0.174
   55GLOH    O3 8949   3.882   2.688   0.160
   55GLOH   H01 8950   3.802   2.631   0.151
   56GLOH   H03 8951   4.146   3.064   0.899
   56GLOH    O1 8952   4.242   3.039   0.907
   56GLOH    C1 8953   4.279   2.949   0.800
   56GLOH   H02 8954   4.278   2.846   0.837
   56GLOH   H08 8955   4.382   2.970   0.770
   56GLOH    C2 8956   4.194   2.953   0.672
   56GLOH   H04 8957   4.229   2.870   0.609
   56GLOH    O2 8958   4.055   2.929   0.701
   56GLOH   H05 8959   4.024   2.997   0.767
   56GLOH    C3 8960   4.215   3.082   0.590
   56GLOH   H06 8961   4.170   3.066   0.492
   56GLOH   H07 8962   4.322   3.095   0.574
   56GLOH    O3 8963   4.161   3.202   0.648
   56GLOH   H01 8964   4.108   3.246   0.576
   57GLOH   H03 8965   3.157   8.721   2.644
   57GLOH    O1 8966   3.242   8.754   2.610
   57GLOH    C1 8967   3.241   8.755   2.466
   57GLOH   H02 8968   3.200   8.662   2.427
   57GLOH   H08 8969   3.343   8.763   2.428
   57GLOH    C2 8970   3.160   8.873   2.408
   57GLOH   H04 8971   3.056   8.864   2.443
   57GLOH    O2 8972   3.217   8.996   2.456
   57GLOH   H05 8973   3.247   8.982   2.548
   57GLOH    C3 8974   3.162   8.865   2.254
   57GLOH   H06 8975   3.143   8.762   2.225
   57GLOH   H07 8976   3.263   8.890   2.220
   57GLOH    O3 8977   3.066   8.952   2.191
   57GLOH   H01 8978   3.109   8.985   2.108
   58GLOH   H03 8979   4.287   2.952   1.496
   58GLOH    O1 8980   4.231   2.883   1.453
   58GLOH    C1 8981   4.255   2.884   1.311
   58GLOH   H02 8982   4.241   2.985   1.271
   58GLOH   H08 8983   4.181   2.821   1.261
   58GLOH    C2 8984   4.394   2.833   1.268
   58GLOH   H04 8985   4.470   2.893   1.321
   58GLOH    O2 8986   4.415   2.694   1.301
   58GLOH   H05 8987   4.353   2.638   1.245
   58GLOH    C3 8988   4.413   2.854   1.117
   58GLOH   H06 8989   4.330   2.805   1.065
   58GLOH   H07 8990   4.504   2.802   1.086
   58GLOH    O3 8991   4.420   2.993   1.080
   58GLOH   H01 8992   4.350   3.013   1.013
   59GLOH   H03 8993   3.882   2.022   2.251
   59GLOH    O1 8994   3.902   2.113   2.222
   59GLOH    C1 8995   4.045   2.126   2.207
   59GLOH   H02 8996   4.081   2.208   2.269
   59GLOH   H08 8997   4.069   2.153   2.104
   59GLOH    C2 8998   4.124   1.999   2.244
   59GLOH   H04 8999   4.101   1.977   2.350
   59GLOH    O2 9000   4.082   1.886   2.165
   59GLOH   H05 9001   4.073   1.914   2.070
   59GLOH    C3 9002   4.276   2.023   2.236
   59GLOH   H06 9003   4.326   1.926   2.245
   59GLOH   H07 9004   4.306   2.080   2.324
   59GLOH    O3 9005   4.320   2.090   2.116
   59GLOH   H01 9006   4.303   2.187   2.128
   60GLOH   H03 9007   3.464   3.270   1.247
   60GLOH    O1 9008   3.409   3.337   1.295
   60GLOH    C1 9009   3.345   3.272   1.406
   60GLOH   H02 9010   3.243   3.243   1.379
   60GLOH   H08 9011   3.337   3.340   1.490
   60GLOH    C2 9012   3.421   3.146   1.452
   60GLOH   H04 9013   3.520   3.177   1.490
   60GLOH    O2 9014   3.350   3.079   1.557
   60GLOH   H05 9015   3.372   3.122   1.645
   60GLOH    C3 9016   3.442   3.051   1.333
   60GLOH   H06 9017   3.344   3.020   1.296
   60GLOH   H07 9018   3.493   2.962   1.370
   60GLOH    O3 9019   3.519   3.113   1.228
   60GLOH   H01 9020   3.493   3.069   1.142
   61GLOH   H03 9021   3.616   9.803   0.329
   61GLOH    O1 9022   3.549   9.772   0.262
   61GLOH    C1 9023   3.438   9.863   0.273
   61GLOH   H02 9024   3.473   9.966   0.279
   61GLOH   H08 9025   3.383   9.844   0.365
   61GLOH    C2 9026   3.339   9.853   0.155
   61GLOH   H04 9027   3.297   9.751   0.155
   61GLOH    O2 9028   3.232   9.948   0.171
   61GLOH   H05 9029   3.165   9.935   0.101
   61GLOH    C3 9030   3.415   9.874   0.022
   61GLOH   H06 9031   3.461   9.972   0.023
   61GLOH   H07 9032   3.343   9.872   2.816
   61GLOH    O3 9033   3.514   9.772   0.005
   61GLOH   H01 9034   3.555   9.758   0.093
   62GLOH   H03 9035   4.141   4.147   1.760
   62GLOH    O1 9036   4.226   4.095   1.761
   62GLOH    C1 9037   4.190   3.956   1.753
   62GLOH   H02 9038   4.085   3.942   1.779
   62GLOH   H08 9039   4.248   3.898   1.824
   62GLOH    C2 9040   4.212   3.900   1.612
   62GLOH   H04 9041   4.318   3.918   1.586
   62GLOH    O2 9042   4.190   3.757   1.608
   62GLOH   H05 9043   4.095   3.734   1.632
   62GLOH    C3 9044   4.128   3.976   1.508
   62GLOH   H06 9045   4.156   3.941   1.409
   62GLOH   H07 9046   4.155   4.082   1.512
   62GLOH    O3 9047   3.986   3.962   1.527
   62GLOH   H01 9048   3.960   3.880   1.478
   63GLOH   H03 9049   4.133   0.613   1.593
   63GLOH    O1 9050   4.088   0.526   1.579
   63GLOH    C1 9051   3.994   0.509   1.687
   63GLOH   H02 9052   4.044   0.470   1.776
   63GLOH   H08 9053   3.918   0.436   1.660
   63GLOH    C2 9054   3.924   0.641   1.723
   63GLOH   H04 9055   3.871   0.677   1.634
   63GLOH    O2 9056   3.826   0.624   1.828
   63GLOH   H05 9057   3.756   0.561   1.795
   63GLOH    C3 9058   4.031   0.746   1.760
   63GLOH   H06 9059   4.094   0.706   1.839
   63GLOH   H07 9060   3.982   0.835   1.799
   63GLOH    O3 9061   4.110   0.779   1.645
   63GLOH   H01 9062   4.058   0.845   1.592
   64GLOH   H03 9063   4.035   3.102   2.487
   64GLOH    O1 9064   4.101   3.050   2.436
   64GLOH    C1 9065   4.099   2.910   2.469
   64GLOH   H02 9066   4.078   2.851   2.380
   64GLOH   H08 9067   4.021   2.887   2.541
   64GLOH    C2 9068   4.234   2.862   2.527
   64GLOH   H04 9069   4.314   2.895   2.459
   64GLOH    O2 9070   4.257   2.918   2.658
   64GLOH   H05 9071   4.197   2.878   2.724
   64GLOH    C3 9072   4.240   2.708   2.534
   64GLOH   H06 9073   4.166   2.673   2.606
   64GLOH   H07 9074   4.338   2.679   2.572
   64GLOH    O3 9075   4.218   2.646   2.406
   64GLOH   H01 9076   4.303   2.649   2.354
   65GLOH   H03 9077   2.750   8.860   0.480
   65GLOH    O1 9078   2.797   8.890   0.561
   65GLOH    C1 9079   2.924   8.821   0.567
   65GLOH   H02 9080   2.928   8.742   0.492
   65GLOH   H08 9081   2.934   8.771   0.664
   65GLOH    C2 9082   3.046   8.913   0.550
   65GLOH   H04 9083   3.027   8.977   0.462
   65GLOH    O2 9084   3.069   8.998   0.664
   65GLOH   H05 9085   3.131   9.072   0.635
   65GLOH    C3 9086   3.172   8.829   0.520
   65GLOH   H06 9087   3.184   8.755   0.600
   65GLOH   H07 9088   3.260   8.894   0.524
   65GLOH    O3 9089   3.164   8.763   0.393
   65GLOH   H01 9090   3.157   8.835   0.324
   66GLOH   H03 9091   3.656   0.278   0.031
   66GLOH    O1 9092   3.623   0.186   0.046
   66GLOH    C1 9093   3.689   0.136   0.164
   66GLOH   H02 9094   3.797   0.134   0.148
   66GLOH   H08 9095   3.659   0.033   0.183
   66GLOH    C2 9096   3.659   0.223   0.287
   66GLOH   H04 9097   3.551   0.242   0.290
   66GLOH    O2 9098   3.698   0.155   0.409
   66GLOH   H05 9099   3.684   0.214   0.486
   66GLOH    C3 9100   3.732   0.358   0.273
   66GLOH   H06 9101   3.839   0.341   0.277
   66GLOH   H07 9102   3.707   0.420   0.359
   66GLOH    O3 9103   3.696   0.426   0.151
   66GLOH   H01 9104   3.650   0.509   0.173
   67GLOH   H03 9105   4.238   1.781   1.567
   67GLOH    O1 9106   4.179   1.753   1.642
   67GLOH    C1 9107   4.172   1.862   1.737
   67GLOH   H02 9108   4.167   1.957   1.684
   67GLOH   H08 9109   4.261   1.864   1.799
   67GLOH    C2 9110   4.048   1.851   1.828
   67GLOH   H04 9111   4.053   1.754   1.881
   67GLOH    O2 9112   4.047   1.957   1.926
   67GLOH   H05 9113   4.046   2.046   1.878
   67GLOH    C3 9114   3.921   1.853   1.743
   67GLOH   H06 9115   3.914   1.948   1.691
   67GLOH   H07 9116   3.833   1.847   1.808
   67GLOH    O3 9117   3.922   1.744   1.649
   67GLOH   H01 9118   4.018   1.729   1.630
   68GLOH   H03 9119   4.298   3.289   1.443
   68GLOH    O1 9120   4.223   3.224   1.450
   68GLOH    C1 9121   4.160   3.248   1.577
   68GLOH   H02 9122   4.073   3.184   1.589
   68GLOH   H08 9123   4.125   3.351   1.582
   68GLOH    C2 9124   4.255   3.224   1.697
   68GLOH   H04 9125   4.350   3.275   1.676
   68GLOH    O2 9126   4.198   3.278   1.818
   68GLOH   H05 9127   4.127   3.214   1.852
   68GLOH    C3 9128   4.284   3.073   1.713
   68GLOH   H06 9129   4.190   3.019   1.706
   68GLOH   H07 9130   4.323   3.057   1.814
   68GLOH    O3 9131   4.378   3.023   1.616
   68GLOH   H01 9132   4.465   3.065   1.638
   69GLOH   H03 9133   3.454   1.818   2.233
   69GLOH    O1 9134   3.482   1.880   2.163
   69GLOH    C1 9135   3.620   1.852   2.129
   69GLOH   H02 9136   3.679   1.836   2.220
   69GLOH   H08 9137   3.664   1.938   2.078
   69GLOH    C2 9138   3.635   1.728   2.038
   69GLOH   H04 9139   3.577   1.646   2.083
   69GLOH    O2 9140   3.586   1.754   1.905
   69GLOH   H05 9141   3.510   1.817   1.908
   69GLOH    C3 9142   3.783   1.685   2.032
   69GLOH   H06 9143   3.843   1.772   2.005
   69GLOH   H07 9144   3.795   1.611   1.953
   69GLOH    O3 9145   3.830   1.631   2.157
   69GLOH   H01 9146   3.926   1.613   2.147
   70GLOH   H03 9147   2.603   1.897   0.999
   70GLOH    O1 9148   2.576   1.802   1.006
   70GLOH    C1 9149   2.669   1.724   0.928
   70GLOH   H02 9150   2.708   1.783   0.845
   70GLOH   H08 9151   2.617   1.639   0.883
   70GLOH    C2 9152   2.786   1.672   1.012
   70GLOH   H04 9153   2.746   1.613   1.095
   70GLOH    O2 9154   2.867   1.586   0.929
   70GLOH   H05 9155   2.816   1.501   0.917
   70GLOH    C3 9156   2.869   1.788   1.070
   70GLOH   H06 9157   2.800   1.857   1.119
   70GLOH   H07 9158   2.916   1.843   0.988
   70GLOH    O3 9159   2.967   1.747   1.166
   70GLOH   H01 9160   3.007   1.660   1.140
   71GLOH   H03 9161   3.728   3.454   1.572
   71GLOH    O1 9162   3.802   3.455   1.639
   71GLOH    C1 9163   3.838   3.319   1.669
   71GLOH   H02 9164   3.926   3.317   1.733
   71GLOH   H08 9165   3.866   3.268   1.576
   71GLOH    C2 9166   3.726   3.238   1.737
   71GLOH   H04 9167   3.650   3.218   1.660
   71GLOH    O2 9168   3.776   3.111   1.784
   71GLOH   H05 9169   3.700   3.048   1.798
   71GLOH    C3 9170   3.661   3.319   1.851
   71GLOH   H06 9171   3.736   3.385   1.894
   71GLOH   H07 9172   3.630   3.250   1.930
   71GLOH    O3 9173   3.546   3.394   1.807
   71GLOH   H01 9174   3.474   3.328   1.795
   72GLOH   H03 9175   2.828   2.977   0.289
   72GLOH    O1 9176   2.807   2.984   0.193
   72GLOH    C1 9177   2.830   3.116   0.141
   72GLOH   H02 9178   2.809   3.192   0.217
   72GLOH   H08 9179   2.762   3.135   0.058
   72GLOH    C2 9180   2.974   3.135   0.090
   72GLOH   H04 9181   3.001   3.047   0.030
   72GLOH    O2 9182   2.983   3.253   0.007
   72GLOH   H05 9183   2.969   3.332   0.062
   72GLOH    C3 9184   3.073   3.146   0.208
   72GLOH   H06 9185   3.174   3.134   0.168
   72GLOH   H07 9186   3.055   3.063   0.275
   72GLOH    O3 9187   3.063   3.271   0.279
   72GLOH   H01 9188   3.138   3.328   0.249
   73GLOH   H03 9189   3.609   2.419   0.077
   73GLOH    O1 9190   3.572   2.333   0.048
   73GLOH    C1 9191   3.442   2.354   2.866
   73GLOH   H02 9192   3.389   2.433   0.045
   73GLOH   H08 9193   3.381   2.264   0.000
   73GLOH    C2 9194   3.445   2.393   2.717
   73GLOH   H04 9195   3.341   2.395   2.681
   73GLOH    O2 9196   3.503   2.524   2.698
   73GLOH   H05 9197   3.495   2.552   2.604
   73GLOH    C3 9198   3.519   2.285   2.636
   73GLOH   H06 9199   3.623   2.282   2.670
   73GLOH   H07 9200   3.520   2.315   2.531
   73GLOH    O3 9201   3.457   2.156   2.650
   73GLOH   H01 9202   3.508   2.090   2.599
   74GLOH   H03 9203   3.232   1.892   2.095
   74GLOH    O1 9204   3.167   1.931   2.032
   74GLOH    C1 9205   3.131   1.832   1.934
   74GLOH   H02 9206   3.220   1.784   1.895
   74GLOH   H08 9207   3.082   1.881   1.849
   74GLOH    C2 9208   3.036   1.722   1.986
   74GLOH   H04 9209   3.085   1.674   2.072
   74GLOH    O2 9210   2.908   1.774   2.029
   74GLOH   H05 9211   2.879   1.847   1.967
   74GLOH    C3 9212   3.018   1.616   1.876
   74GLOH   H06 9213   2.988   1.668   1.786
   74GLOH   H07 9214   2.936   1.550   1.902
   74GLOH    O3 9215   3.138   1.540   1.850
   74GLOH   H01 9216   3.174   1.503   1.935
   75GLOH   H03 9217   2.508   0.995   0.921
   75GLOH    O1 9218   2.523   0.933   0.845
   75GLOH    C1 9219   2.402   0.925   0.767
   75GLOH   H02 9220   2.344   1.016   0.777
   75GLOH   H08 9221   2.339   0.844   0.805
   75GLOH    C2 9222   2.426   0.899   0.617
   75GLOH   H04 9223   2.328   0.890   0.569
   75GLOH    O2 9224   2.497   1.010   0.556
   75GLOH   H05 9225   2.594   0.996   0.565
   75GLOH    C3 9226   2.500   0.766   0.596
   75GLOH   H06 9227   2.602   0.775   0.634
   75GLOH   H07 9228   2.509   0.748   0.488
   75GLOH    O3 9229   2.432   0.656   0.659
   75GLOH   H01 9230   2.475   0.570   0.632
   76GLOH   H03 9231   4.257   3.613   1.079
   76GLOH    O1 9232   4.303   3.697   1.051
   76GLOH    C1 9233   4.417   3.660   0.972
   76GLOH   H02 9234   4.444   3.555   0.988
   76GLOH   H08 9235   4.504   3.719   1.001
   76GLOH    C2 9236   4.391   3.681   0.822
   76GLOH   H04 9237   4.480   3.646   0.767
   76GLOH    O2 9238   4.277   3.603   0.779
   76GLOH   H05 9239   4.241   3.640   0.692
   76GLOH    C3 9240   4.375   3.832   0.794
   76GLOH   H06 9241   4.339   3.846   0.692
   76GLOH   H07 9242   4.472   3.879   0.801
   76GLOH    O3 9243   4.283   3.892   0.887
   76GLOH   H01 9244   4.281   3.831   0.966
   77GLOH   H03 9245   2.752   1.083   2.106
   77GLOH    O1 9246   2.797   1.119   2.186
   77GLOH    C1 9247   2.859   1.009   2.257
   77GLOH   H02 9248   2.905   1.046   2.349
   77GLOH   H08 9249   2.939   0.967   2.196
   77GLOH    C2 9250   2.760   0.897   2.293
   77GLOH   H04 9251   2.712   0.865   2.200
   77GLOH    O2 9252   2.826   0.782   2.349
   77GLOH   H05 9253   2.891   0.747   2.283
   77GLOH    C3 9254   2.647   0.952   2.383
   77GLOH   H06 9255   2.589   0.867   2.419
   77GLOH   H07 9256   2.580   1.010   2.320
   77GLOH    O3 9257   2.691   1.031   2.494
   77GLOH   H01 9258   2.615   1.084   2.527
   78GLOH   H03 9259   3.720   3.916   1.057
   78GLOH    O1 9260   3.753   3.954   0.971
   78GLOH    C1 9261   3.830   4.073   0.998
   78GLOH   H02 9262   3.799   4.119   1.092
   78GLOH   H08 9263   3.812   4.147   0.920
   78GLOH    C2 9264   3.982   4.046   1.004
   78GLOH   H04 9265   4.011   3.990   0.915
   78GLOH    O2 9266   4.054   4.171   1.006
   78GLOH   H05 9267   4.128   4.164   0.938
   78GLOH    C3 9268   4.021   3.963   1.128
   78GLOH   H06 9269   3.988   4.017   1.217
   78GLOH   H07 9270   4.130   3.958   1.134
   78GLOH    O3 9271   3.966   3.830   1.128
   78GLOH   H01 9272   3.989   3.785   1.043
   79GLOH   H03 9273   3.362   1.168   2.275
   79GLOH    O1 9274   3.353   1.257   2.317
   79GLOH    C1 9275   3.329   1.237   2.457
   79GLOH   H02 9276   3.322   1.333   2.508
   79GLOH   H08 9277   3.413   1.184   2.503
   79GLOH    C2 9278   3.200   1.157   2.484
   79GLOH   H04 9279   3.118   1.204   2.428
   79GLOH    O2 9280   3.214   1.020   2.439
   79GLOH   H05 9281   3.257   1.017   2.350
   79GLOH    C3 9282   3.164   1.160   2.634
   79GLOH   H06 9283   3.244   1.113   2.690
   79GLOH   H07 9284   3.074   1.100   2.649
   79GLOH    O3 9285   3.141   1.294   2.682
   79GLOH   H01 9286   3.074   1.338   2.625
   80GLOH   H03 9287   3.951   9.405   1.807
   80GLOH    O1 9288   3.958   9.469   1.883
   80GLOH    C1 9289   3.846   9.451   1.973
   80GLOH   H02 9290   3.865   9.367   2.039
   80GLOH   H08 9291   3.755   9.428   1.917
   80GLOH    C2 9292   3.819   9.576   2.060
   80GLOH   H04 9293   3.791   9.658   1.993
   80GLOH    O2 9294   3.711   9.554   2.153
   80GLOH   H05 9295   3.632   9.514   2.108
   80GLOH    C3 9296   3.948   9.616   2.134
   80GLOH   H06 9297   3.977   9.534   2.201
   80GLOH   H07 9298   3.927   9.702   2.197
   80GLOH    O3 9299   4.054   9.645   2.042
   80GLOH   H01 9300   4.042   9.580   1.968
   81GLOH   H03 9301   4.598   3.381   2.184
   81GLOH    O1 9302   4.559   3.291   2.196
   81GLOH    C1 9303   4.434   3.307   2.265
   81GLOH   H02 9304   4.382   3.397   2.230
   81GLOH   H08 9305   4.451   3.321   2.371
   81GLOH    C2 9306   4.340   3.187   2.248
   81GLOH   H04 9307   4.377   3.104   2.309
   81GLOH    O2 9308   4.209   3.225   2.294
   81GLOH   H05 9309   4.171   3.151   2.351
   81GLOH    C3 9310   4.333   3.140   2.101
   81GLOH   H06 9311   4.300   3.224   2.040
   81GLOH   H07 9312   4.257   3.062   2.092
   81GLOH    O3 9313   4.461   3.093   2.056
   81GLOH   H01 9314   4.526   3.161   2.084
   82GLOH   H03 9315   3.501   0.003   1.558
   82GLOH    O1 9316   3.480   0.002   1.461
   82GLOH    C1 9317   3.470   0.138   1.416
   82GLOH   H02 9318   3.536   0.202   1.474
   82GLOH   H08 9319   3.369   0.176   1.430
   82GLOH    C2 9320   3.508   0.154   1.267
   82GLOH   H04 9321   3.458   0.075   1.210
   82GLOH    O2 9322   3.463   0.283   1.217
   82GLOH   H05 9323   3.365   0.274   1.198
   82GLOH    C3 9324   3.660   0.137   1.252
   82GLOH   H06 9325   3.686   0.039   1.291
   82GLOH   H07 9326   3.709   0.210   1.317
   82GLOH    O3 9327   3.708   0.150   1.117
   82GLOH   H01 9328   3.786   0.212   1.120
   83GLOH   H03 9329   4.328   1.760   1.367
   83GLOH    O1 9330   4.321   1.820   1.447
   83GLOH    C1 9331   4.422   1.921   1.433
   83GLOH   H02 9332   4.400   1.985   1.347
   83GLOH   H08 9333   4.519   1.875   1.414
   83GLOH    C2 9334   4.434   2.009   1.558
   83GLOH   H04 9335   4.337   2.057   1.576
   83GLOH    O2 9336   4.471   1.930   1.673
   83GLOH   H05 9337   4.469   1.987   1.755
   83GLOH    C3 9338   4.539   2.120   1.535
   83GLOH   H06 9339   4.632   2.072   1.504
   83GLOH   H07 9340   4.559   2.169   1.630
   83GLOH    O3 9341   4.498   2.217   1.437
   83GLOH   H01 9342   4.515   2.305   1.478
   84GLOH   H03 9343   2.919   1.126   1.568
   84GLOH    O1 9344   3.016   1.121   1.589
   84GLOH    C1 9345   3.059   0.983   1.587
   84GLOH   H02 9346   3.164   0.977   1.616
   84GLOH   H08 9347   3.051   0.942   1.486
   84GLOH    C2 9348   2.979   0.892   1.682
   84GLOH   H04 9349   2.878   0.880   1.640
   84GLOH    O2 9350   3.041   0.762   1.689
   84GLOH   H05 9351   2.971   0.697   1.722
   84GLOH    C3 9352   2.966   0.960   1.819
   84GLOH   H06 9353   2.900   1.046   1.809
   84GLOH   H07 9354   3.063   0.998   1.847
   84GLOH    O3 9355   2.917   0.873   1.923
   84GLOH   H01 9356   2.997   0.828   1.958
   85GLOH   H03 9357   4.202   3.420   0.990
   85GLOH    O1 9358   4.194   3.466   1.078
   85GLOH    C1 9359   4.188   3.363   1.178
   85GLOH   H02 9360   4.220   3.404   1.273
   85GLOH   H08 9361   4.256   3.281   1.154
   85GLOH    C2 9362   4.046   3.306   1.194
   85GLOH   H04 9363   4.005   3.284   1.094
   85GLOH    O2 9364   4.048   3.184   1.273
   85GLOH   H05 9365   4.117   3.193   1.345
   85GLOH    C3 9366   3.957   3.412   1.261
   85GLOH   H06 9367   3.963   3.504   1.203
   85GLOH   H07 9368   3.997   3.435   1.360
   85GLOH    O3 9369   3.820   3.369   1.271
   85GLOH   H01 9370   3.819   3.274   1.298
   86GLOH   H03 9371   4.490   4.031   0.050
   86GLOH    O1 9372   4.394   4.038   0.070
   86GLOH    C1 9373   4.376   3.988   0.204
   86GLOH   H02 9374   4.374   3.879   0.204
   86GLOH   H08 9375   4.280   4.022   0.244
   86GLOH    C2 9376   4.487   4.036   0.299
   86GLOH   H04 9377   4.494   4.146   0.290
   86GLOH    O2 9378   4.455   4.002   0.435
   86GLOH   H05 9379   4.429   3.904   0.440
   86GLOH    C3 9380   4.623   3.976   0.259
   86GLOH   H06 9381   4.630   3.875   0.298
   86GLOH   H07 9382   4.702   4.034   0.308
   86GLOH    O3 9383   4.644   3.977   0.117
   86GLOH   H01 9384   4.650   3.882   0.087
   87GLOH   H03 9385   2.585   0.407   1.664
   87GLOH    O1 9386   2.638   0.456   1.732
   87GLOH    C1 9387   2.544   0.499   1.832
   87GLOH   H02 9388   2.491   0.413   1.872
   87GLOH   H08 9389   2.468   0.563   1.786
   87GLOH    C2 9390   2.606   0.577   1.950
   87GLOH   H04 9391   2.690   0.517   1.988
   87GLOH    O2 9392   2.656   0.705   1.908
   87GLOH   H05 9393   2.745   0.691   1.866
   87GLOH    C3 9394   2.503   0.592   2.063
   87GLOH   H06 9395   2.416   0.644   2.024
   87GLOH   H07 9396   2.546   0.656   2.140
   87GLOH    O3 9397   2.465   0.465   2.119
   87GLOH   H01 9398   2.530   0.441   2.188
   88GLOH   H03 9399   5.098   3.849   2.176
   88GLOH    O1 9400   5.089   3.780   2.247
   88GLOH    C1 9401   5.089   3.844   2.376
   88GLOH   H02 9402   5.126   3.947   2.368
   88GLOH   H08 9403   5.158   3.793   2.443
   88GLOH    C2 9404   4.950   3.848   2.443
   88GLOH   H04 9405   4.964   3.886   2.545
   88GLOH    O2 9406   4.859   3.935   2.374
   88GLOH   H05 9407   4.850   3.909   2.278
   88GLOH    C3 9408   4.890   3.706   2.453
   88GLOH   H06 9409   4.874   3.668   2.353
   88GLOH   H07 9410   4.792   3.714   2.500
   88GLOH    O3 9411   4.974   3.616   2.529
   88GLOH   H01 9412   5.046   3.586   2.470
   89GLOH   H03 9413   4.493   1.771   1.674
   89GLOH    O1 9414   4.518   1.683   1.713
   89GLOH    C1 9415   4.467   1.575   1.630
   89GLOH   H02 9416   4.408   1.614   1.547
   89GLOH   H08 9417   4.400   1.512   1.689
   89GLOH    C2 9418   4.579   1.487   1.574
   89GLOH   H04 9419   4.652   1.553   1.523
   89GLOH    O2 9420   4.646   1.417   1.681
   89GLOH   H05 9421   4.693   1.484   1.734
   89GLOH    C3 9422   4.525   1.388   1.469
   89GLOH   H06 9423   4.450   1.325   1.517
   89GLOH   H07 9424   4.606   1.323   1.437
   89GLOH    O3 9425   4.467   1.455   1.354
   89GLOH   H01 9426   4.445   1.386   1.286
   90GLOH   H03 9427   3.959   0.780   1.227
   90GLOH    O1 9428   3.867   0.741   1.237
   90GLOH    C1 9429   3.876   0.639   1.339
   90GLOH   H02 9430   3.778   0.617   1.380
   90GLOH   H08 9431   3.937   0.674   1.422
   90GLOH    C2 9432   3.938   0.508   1.286
   90GLOH   H04 9433   4.034   0.533   1.237
   90GLOH    O2 9434   3.964   0.413   1.392
   90GLOH   H05 9435   4.017   0.457   1.466
   90GLOH    C3 9436   3.847   0.442   1.181
   90GLOH   H06 9437   3.844   0.505   1.092
   90GLOH   H07 9438   3.746   0.436   1.220
   90GLOH    O3 9439   3.896   0.311   1.148
   90GLOH   H01 9440   3.956   0.289   1.223
   91GLOH   H03 9441   3.928   3.773   0.083
   91GLOH    O1 9442   3.998   3.749   0.149
   91GLOH    C1 9443   4.060   3.871   0.193
   91GLOH   H02 9444   4.134   3.904   0.119
   91GLOH   H08 9445   4.114   3.855   0.286
   91GLOH    C2 9446   3.958   3.984   0.214
   91GLOH   H04 9447   3.887   3.951   0.291
   91GLOH    O2 9448   4.022   4.106   0.260
   91GLOH   H05 9449   4.081   4.141   0.189
   91GLOH    C3 9450   3.878   4.007   0.084
   91GLOH   H06 9451   3.949   4.028   0.004
   91GLOH   H07 9452   3.815   4.095   0.096
   91GLOH    O3 9453   3.799   3.891   0.052
   91GLOH   H01 9454   3.717   3.894   0.106
   92GLOH   H03 9455   2.746   8.944   2.702
   92GLOH    O1 9456   2.756   8.924   2.798
   92GLOH    C1 9457   2.855   9.015   2.849
   92GLOH   H02 9458   2.955   8.980   2.824
   92GLOH   H08 9459   2.849   9.020   0.082
   92GLOH    C2 9460   2.838   9.157   2.792
   92GLOH   H04 9461   2.735   9.191   2.811
   92GLOH    O2 9462   2.932   9.247   2.856
   92GLOH   H05 9463   2.885   9.318   0.029
   92GLOH    C3 9464   2.863   9.157   2.640
   92GLOH   H06 9465   2.970   9.142   2.622
   92GLOH   H07 9466   2.838   9.256   2.602
   92GLOH    O3 9467   2.787   9.056   2.570
   92GLOH   H01 9468   2.813   9.057   2.476
   93GLOH   H03 9469   2.892   1.274   0.672
   93GLOH    O1 9470   2.978   1.234   0.702
   93GLOH    C1 9471   3.032   1.322   0.803
   93GLOH   H02 9472   2.969   1.320   0.892
   93GLOH   H08 9473   3.031   1.425   0.766
   93GLOH    C2 9474   3.175   1.286   0.845
   93GLOH   H04 9475   3.240   1.289   0.757
   93GLOH    O2 9476   3.224   1.381   0.943
   93GLOH   H05 9477   3.319   1.358   0.963
   93GLOH    C3 9478   3.178   1.144   0.903
   93GLOH   H06 9479   3.120   1.142   0.996
   93GLOH   H07 9480   3.281   1.119   0.930
   93GLOH    O3 9481   3.126   1.046   0.811
   93GLOH   H01 9482   3.060   1.094   0.756
   94GLOH   H03 9483   3.325   1.892   1.716
   94GLOH    O1 9484   3.275   1.838   1.649
   94GLOH    C1 9485   3.180   1.920   1.577
   94GLOH   H02 9486   3.230   1.975   1.498
   94GLOH   H08 9487   3.134   1.993   1.644
   94GLOH    C2 9488   3.069   1.833   1.515
   94GLOH   H04 9489   3.019   1.779   1.597
   94GLOH    O2 9490   2.971   1.913   1.446
   94GLOH   H05 9491   2.886   1.860   1.441
   94GLOH    C3 9492   3.130   1.729   1.419
   94GLOH   H06 9493   3.170   1.780   1.332
   94GLOH   H07 9494   3.050   1.663   1.385
   94GLOH    O3 9495   3.232   1.653   1.485
   94GLOH   H01 9496   3.267   1.713   1.556
   95GLOH   H03 9497   4.006   2.776   1.946
   95GLOH    O1 9498   4.023   2.861   1.994
   95GLOH    C1 9499   3.949   2.859   2.118
   95GLOH   H02 9500   3.982   2.942   2.181
   95GLOH   H08 9501   3.969   2.768   2.173
   95GLOH    C2 9502   3.796   2.872   2.097
   95GLOH   H04 9503   3.777   2.969   2.049
   95GLOH    O2 9504   3.742   2.767   2.015
   95GLOH   H05 9505   3.814   2.723   1.963
   95GLOH    C3 9506   3.724   2.873   2.234
   95GLOH   H06 9507   3.751   2.782   2.287
   95GLOH   H07 9508   3.617   2.868   2.216
   95GLOH    O3 9509   3.757   2.989   2.313
   95GLOH   H01 9510   3.710   2.982   2.398
   96GLOH   H03 9511   3.081   9.913   0.761
   96GLOH    O1 9512   3.123   9.971   0.829
   96GLOH    C1 9513   3.235   0.035   0.765
   96GLOH   H02 9514   3.216   0.142   0.757
   96GLOH   H08 9515   3.248   9.998   0.663
   96GLOH    C2 9516   3.369   0.015   0.838
   96GLOH   H04 9517   3.364   0.067   0.936
   96GLOH    O2 9518   3.399   9.876   0.859
   96GLOH   H05 9519   3.338   9.838   0.928
   96GLOH    C3 9520   3.480   0.080   0.754
   96GLOH   H06 9521   3.489   0.025   0.659
   96GLOH   H07 9522   3.575   0.067   0.806
   96GLOH    O3 9523   3.455   0.219   0.728
   96GLOH   H01 9524   3.494   0.270   0.803
   97GLOH   H03 9525   3.572   3.795   1.184
   97GLOH    O1 9526   3.648   3.858   1.174
   97GLOH    C1 9527   3.679   3.917   1.301
   97GLOH   H02 9528   3.604   3.993   1.326
   97GLOH   H08 9529   3.774   3.970   1.295
   97GLOH    C2 9530   3.687   3.817   1.418
   97GLOH   H04 9531   3.715   3.872   1.509
   97GLOH    O2 9532   3.559   3.753   1.439
   97GLOH   H05 9533   3.558   3.706   1.529
   97GLOH    C3 9534   3.797   3.713   1.390
   97GLOH   H06 9535   3.770   3.655   1.303
   97GLOH   H07 9536   3.802   3.645   1.475
   97GLOH    O3 9537   3.926   3.775   1.371
   97GLOH   H01 9538   3.939   3.791   1.274
   98GLOH   H03 9539   3.935   3.571   0.896
   98GLOH    O1 9540   3.870   3.496   0.887
   98GLOH    C1 9541   3.738   3.549   0.907
   98GLOH   H02 9542   3.689   3.564   0.811
   98GLOH   H08 9543   3.742   3.647   0.956
   98GLOH    C2 9544   3.649   3.457   0.994
   98GLOH   H04 9545   3.689   3.354   0.987
   98GLOH    O2 9546   3.651   3.495   1.133
   98GLOH   H05 9547   3.729   3.449   1.177
   98GLOH    C3 9548   3.505   3.454   0.940
   98GLOH   H06 9549   3.473   3.557   0.923
   98GLOH   H07 9550   3.441   3.413   1.018
   98GLOH    O3 9551   3.493   3.377   0.819
   98GLOH   H01 9552   3.422   3.309   0.837
   99GLOH   H03 9553   4.387   0.575   2.012
   99GLOH    O1 9554   4.339   0.516   2.076
   99GLOH    C1 9555   4.318   0.587   2.199
   99GLOH   H02 9556   4.346   0.692   2.189
   99GLOH   H08 9557   4.381   0.545   2.277
   99GLOH    C2 9558   4.172   0.580   2.247
   99GLOH   H04 9559   4.153   0.477   2.281
   99GLOH    O2 9560   4.150   0.670   2.358
   99GLOH   H05 9561   4.066   0.648   2.403
   99GLOH    C3 9562   4.076   0.611   2.131
   99GLOH   H06 9563   4.100   0.709   2.090
   99GLOH   H07 9564   3.974   0.615   2.168
   99GLOH    O3 9565   4.089   0.510   2.029
   99GLOH   H01 9566   4.187   0.491   2.025
  100GLOH   H03 9567   3.307   9.339   0.989
  100GLOH    O1 9568   3.291   9.262   0.928
  100GLOH    C1 9569   3.383   9.157   0.961
  100GLOH   H02 9570   3.396   9.149   1.069
  100GLOH   H08 9571   3.482   9.178   0.920
  100GLOH    C2 9572   3.336   9.021   0.907
  100GLOH   H04 9573   3.307   9.036   0.802
  100GLOH    O2 9574   3.443   8.924   0.910
  100GLOH   H05 9575   3.482   8.922   0.817
  100GLOH    C3 9576   3.211   8.972   0.982
  100GLOH   H06 9577   3.185   8.874   0.942
  100GLOH   H07 9578   3.128   9.038   0.956
  100GLOH    O3 9579   3.225   8.966   1.125
  100GLOH   H01 9580   3.218   9.059   1.161
  101GLOH   H03 9581   3.485   3.239   0.259
  101GLOH    O1 9582   3.564   3.268   0.207
  101GLOH    C1 9583   3.681   3.255   0.291
  101GLOH   H02 9584   3.654   3.255   0.396
  101GLOH   H08 9585   3.744   3.342   0.274
  101GLOH    C2 9586   3.763   3.129   0.260
  101GLOH   H04 9587   3.804   3.141   0.158
  101GLOH    O2 9588   3.874   3.113   0.351
  101GLOH   H05 9589   3.910   3.019   0.344
  101GLOH    C3 9590   3.672   3.004   0.256
  101GLOH   H06 9591   3.733   2.918   0.229
  101GLOH   H07 9592   3.600   3.017   0.175
  101GLOH    O3 9593   3.601   2.978   0.379
  101GLOH   H01 9594   3.565   2.886   0.373
  102GLOH   H03 9595   4.389   3.716   2.528
  102GLOH    O1 9596   4.301   3.678   2.551
  102GLOH    C1 9597   4.202   3.782   2.534
  102GLOH   H02 9598   4.231   3.850   2.454
  102GLOH   H08 9599   4.195   3.841   2.626
  102GLOH    C2 9600   4.063   3.726   2.503
  102GLOH   H04 9601   4.029   3.667   2.589
  102GLOH    O2 9602   3.967   3.832   2.481
  102GLOH   H05 9603   3.878   3.792   2.497
  102GLOH    C3 9604   4.069   3.632   2.381
  102GLOH   H06 9605   4.119   3.685   2.299
  102GLOH   H07 9606   3.968   3.610   2.347
  102GLOH    O3 9607   4.141   3.511   2.412
  102GLOH   H01 9608   4.218   3.540   2.466
  103GLOH   H03 9609   4.069   9.799   2.054
  103GLOH    O1 9610   4.065   9.898   2.053
  103GLOH    C1 9611   4.042   9.940   1.917
  103GLOH   H02 9612   4.121   9.901   1.852
  103GLOH   H08 9613   4.047   0.049   1.910
  103GLOH    C2 9614   3.906   9.893   1.861
  103GLOH   H04 9615   3.906   9.783   1.861
  103GLOH    O2 9616   3.795   9.941   1.942
  103GLOH   H05 9617   3.768   0.033   1.913
  103GLOH    C3 9618   3.890   9.939   1.715
  103GLOH   H06 9619   3.906   0.047   1.711
  103GLOH   H07 9620   3.787   9.921   1.684
  103GLOH    O3 9621   3.981   9.871   1.627
  103GLOH   H01 9622   3.968   9.906   1.535
  104GLOH   H03 9623   4.287   4.291   2.195
  104GLOH    O1 9624   4.189   4.296   2.210
  104GLOH    C1 9625   4.158   4.226   2.333
  104GLOH   H02 9626   4.166   4.294   2.417
  104GLOH   H08 9627   4.230   4.145   2.350
  104GLOH    C2 9628   4.016   4.165   2.333
  104GLOH   H04 9629   4.012   4.088   2.254
  104GLOH    O2 9630   3.988   4.103   2.460
  104GLOH   H05 9631   3.985   4.004   2.452
  104GLOH    C3 9632   3.912   4.274   2.301
  104GLOH   H06 9633   3.911   4.346   2.383
  104GLOH   H07 9634   3.813   4.228   2.297
  104GLOH    O3 9635   3.943   4.339   2.177
  104GLOH   H01 9636   4.042   4.340   2.174
  105GLOH   H03 9637   4.700   4.126   1.898
  105GLOH    O1 9638   4.725   4.119   1.994
  105GLOH    C1 9639   4.652   4.213   2.075
  105GLOH   H02 9640   4.672   4.315   2.042
  105GLOH   H08 9641   4.688   4.207   2.178
  105GLOH    C2 9642   4.499   4.192   2.077
  105GLOH   H04 9643   4.479   4.084   2.089
  105GLOH    O2 9644   4.442   4.264   2.188
  105GLOH   H05 9645   4.475   4.225   2.272
  105GLOH    C3 9646   4.435   4.240   1.945
  105GLOH   H06 9647   4.472   4.341   1.924
  105GLOH   H07 9648   4.327   4.250   1.962
  105GLOH    O3 9649   4.459   4.155   1.832
  105GLOH   H01 9650   4.369   4.126   1.800
  106GLOH   H03 9651   3.952   3.081   1.198
  106GLOH    O1 9652   3.905   3.018   1.138
  106GLOH    C1 9653   3.885   2.893   1.208
  106GLOH   H02 9654   3.976   2.867   1.262
  106GLOH   H08 9655   3.868   2.813   1.136
  106GLOH    C2 9656   3.767   2.893   1.307
  106GLOH   H04 9657   3.675   2.904   1.249
  106GLOH    O2 9658   3.761   2.768   1.380
  106GLOH   H05 9659   3.851   2.757   1.425
  106GLOH    C3 9660   3.777   3.012   1.405
  106GLOH   H06 9661   3.878   3.014   1.447
  106GLOH   H07 9662   3.709   2.994   1.489
  106GLOH    O3 9663   3.747   3.138   1.343
  106GLOH   H01 9664   3.662   3.127   1.292
  107GLOH   H03 9665   3.979   3.213   0.415
  107GLOH    O1 9666   4.032   3.291   0.447
  107GLOH    C1 9667   3.962   3.406   0.396
  107GLOH   H02 9668   3.865   3.413   0.445
  107GLOH   H08 9669   3.944   3.394   0.289
  107GLOH    C2 9670   4.034   3.541   0.413
  107GLOH   H04 9671   4.123   3.541   0.348
  107GLOH    O2 9672   3.945   3.647   0.371
  107GLOH   H05 9673   3.975   3.682   0.282
  107GLOH    C3 9674   4.081   3.560   0.559
  107GLOH   H06 9675   4.148   3.478   0.583
  107GLOH   H07 9676   3.994   3.551   0.624
  107GLOH    O3 9677   4.147   3.686   0.580
  107GLOH   H01 9678   4.076   3.755   0.596
  108GLOH   H03 9679   3.753   0.906   2.333
  108GLOH    O1 9680   3.746   0.869   2.242
  108GLOH    C1 9681   3.854   0.928   2.165
  108GLOH   H02 9682   3.817   1.014   2.110
  108GLOH   H08 9683   3.892   0.857   2.092
  108GLOH    C2 9684   3.972   0.975   2.252
  108GLOH   H04 9685   4.019   0.886   2.297
  108GLOH    O2 9686   4.071   1.045   2.174
  108GLOH   H05 9687   4.041   1.138   2.155
  108GLOH    C3 9688   3.920   1.063   2.368
  108GLOH   H06 9689   3.873   1.152   2.325
  108GLOH   H07 9690   4.005   1.098   2.426
  108GLOH    O3 9691   3.826   0.993   2.451
  108GLOH   H01 9692   3.829   1.032   2.541
  109GLOH   H03 9693   2.738   1.940   1.825
  109GLOH    O1 9694   2.822   1.958   1.874
  109GLOH    C1 9695   2.834   2.101   1.887
  109GLOH   H02 9696   2.739   2.144   1.920
  109GLOH   H08 9697   2.854   2.145   1.789
  109GLOH    C2 9698   2.945   2.148   1.984
  109GLOH   H04 9699   2.945   2.078   2.069
  109GLOH    O2 9700   3.075   2.144   1.923
  109GLOH   H05 9701   3.121   2.063   1.960
  109GLOH    C3 9702   2.915   2.288   2.039
  109GLOH   H06 9703   2.894   2.355   1.955
  109GLOH   H07 9704   3.005   2.326   2.088
  109GLOH    O3 9705   2.804   2.288   2.131
  109GLOH   H01 9706   2.813   2.365   2.191
  110GLOH   H03 9707   3.640   1.997   0.508
  110GLOH    O1 9708   3.733   1.966   0.490
  110GLOH    C1 9709   3.802   1.940   0.614
  110GLOH   H02 9710   3.738   1.884   0.683
  110GLOH   H08 9711   3.828   2.033   0.664
  110GLOH    C2 9712   3.932   1.861   0.592
  110GLOH   H04 9713   3.993   1.917   0.520
  110GLOH    O2 9714   4.008   1.844   0.714
  110GLOH   H05 9715   3.960   1.781   0.777
  110GLOH    C3 9716   3.899   1.724   0.529
  110GLOH   H06 9717   3.839   1.667   0.600
  110GLOH   H07 9718   3.992   1.669   0.515
  110GLOH    O3 9719   3.830   1.740   0.405
  110GLOH   H01 9720   3.785   1.828   0.407
  111GLOH   H03 9721   3.106   2.606   0.091
  111GLOH    O1 9722   3.163   2.683   0.067
  111GLOH    C1 9723   3.245   2.651   2.830
  111GLOH   H02 9724   3.226   2.549   2.797
  111GLOH   H08 9725   3.350   2.656   2.858
  111GLOH    C2 9726   3.225   2.745   2.709
  111GLOH   H04 9727   3.314   2.739   2.645
  111GLOH    O2 9728   3.108   2.709   2.632
  111GLOH   H05 9729   3.126   2.628   2.581
  111GLOH    C3 9730   3.210   2.890   2.757
  111GLOH   H06 9731   3.113   2.900   2.806
  111GLOH   H07 9732   3.208   2.956   2.670
  111GLOH    O3 9733   3.316   2.929   2.847
  111GLOH   H01 9734   3.298   2.883   0.056
  112GLOH   H03 9735   4.981   3.246   1.778
  112GLOH    O1 9736   4.947   3.271   1.867
  112GLOH    C1 9737   5.001   3.180   1.965
  112GLOH   H02 9738   5.020   3.232   2.059
  112GLOH   H08 9739   5.096   3.138   1.931
  112GLOH    C2 9740   4.904   3.063   1.994
  112GLOH   H04 9741   4.886   3.010   1.899
  112GLOH    O2 9742   4.959   2.971   2.089
  112GLOH   H05 9743   4.923   2.880   2.072
  112GLOH    C3 9744   4.769   3.118   2.043
  112GLOH   H06 9745   4.786   3.173   2.136
  112GLOH   H07 9746   4.703   3.034   2.066
  112GLOH    O3 9747   4.711   3.204   1.944
  112GLOH   H01 9748   4.788   3.256   1.909
  113GLOH   H03 9749   4.521   2.434   1.993
  113GLOH    O1 9750   4.496   2.506   2.056
  113GLOH    C1 9751   4.467   2.621   1.973
  113GLOH   H02 9752   4.366   2.612   1.933
  113GLOH   H08 9753   4.534   2.624   1.887
  113GLOH    C2 9754   4.477   2.757   2.046
  113GLOH   H04 9755   4.582   2.771   2.078
  113GLOH    O2 9756   4.440   2.862   1.955
  113GLOH   H05 9757   4.453   2.952   1.998
  113GLOH    C3 9758   4.387   2.758   2.171
  113GLOH   H06 9759   4.283   2.753   2.139
  113GLOH   H07 9760   4.401   2.852   2.224
  113GLOH    O3 9761   4.419   2.647   2.257
  113GLOH   H01 9762   4.465   2.582   2.198
  114GLOH   H03 9763   4.852   3.640   0.184
  114GLOH    O1 9764   4.796   3.668   0.261
  114GLOH    C1 9765   4.665   3.612   0.238
  114GLOH   H02 9766   4.588   3.669   0.290
  114GLOH   H08 9767   4.661   3.510   0.278
  114GLOH    C2 9768   4.628   3.606   0.088
  114GLOH   H04 9769   4.531   3.557   0.080
  114GLOH    O2 9770   4.618   3.739   0.030
  114GLOH   H05 9771   4.600   3.730   2.810
  114GLOH    C3 9772   4.731   3.520   0.013
  114GLOH   H06 9773   4.705   3.518   2.783
  114GLOH   H07 9774   4.721   3.417   0.049
  114GLOH    O3 9775   4.867   3.566   0.031
  114GLOH   H01 9776   4.914   3.562   2.821
  115GLOH   H03 9777   2.930   2.057   1.438
  115GLOH    O1 9778   2.892   2.148   1.453
  115GLOH    C1 9779   3.002   2.240   1.461
  115GLOH   H02 9780   3.020   2.285   1.363
  115GLOH   H08 9781   3.094   2.188   1.489
  115GLOH    C2 9782   2.975   2.351   1.563
  115GLOH   H04 9783   2.945   2.303   1.657
  115GLOH    O2 9784   3.095   2.428   1.589
  115GLOH   H05 9785   3.143   2.446   1.504
  115GLOH    C3 9786   2.857   2.440   1.518
  115GLOH   H06 9787   2.845   2.521   1.590
  115GLOH   H07 9788   2.766   2.380   1.522
  115GLOH    O3 9789   2.873   2.494   1.385
  115GLOH   H01 9790   2.939   2.568   1.389
  116GLOH   H03 9791   3.969   9.710   1.639
  116GLOH    O1 9792   3.933   9.619   1.622
  116GLOH    C1 9793   3.879   9.617   1.489
  116GLOH   H02 9794   3.879   9.516   1.450
  116GLOH   H08 9795   3.941   9.676   1.422
  116GLOH    C2 9796   3.735   9.671   1.488
  116GLOH   H04 9797   3.733   9.767   1.541
  116GLOH    O2 9798   3.685   9.690   1.354
  116GLOH   H05 9799   3.588   9.714   1.359
  116GLOH    C3 9800   3.646   9.573   1.567
  116GLOH   H06 9801   3.643   9.477   1.514
  116GLOH   H07 9802   3.543   9.611   1.568
  116GLOH    O3 9803   3.695   9.556   1.701
  116GLOH   H01 9804   3.794   9.562   1.695
  117GLOH   H03 9805   3.799   2.665   0.719
  117GLOH    O1 9806   3.763   2.590   0.774
  117GLOH    C1 9807   3.855   2.479   0.774
  117GLOH   H02 9808   3.891   2.460   0.673
  117GLOH   H08 9809   3.803   2.389   0.806
  117GLOH    C2 9810   3.977   2.500   0.866
  117GLOH   H04 9811   3.942   2.550   0.958
  117GLOH    O2 9812   4.038   2.374   0.903
  117GLOH   H05 9813   3.969   2.317   0.947
  117GLOH    C3 9814   4.082   2.593   0.801
  117GLOH   H06 9815   4.164   2.606   0.872
  117GLOH   H07 9816   4.036   2.692   0.790
  117GLOH    O3 9817   4.132   2.547   0.675
  117GLOH   H01 9818   4.164   2.454   0.684
  118GLOH   H03 9819   3.332   1.213   0.495
  118GLOH    O1 9820   3.428   1.202   0.469
  118GLOH    C1 9821   3.427   1.131   0.343
  118GLOH   H02 9822   3.381   1.193   0.266
  118GLOH   H08 9823   3.366   1.041   0.353
  118GLOH    C2 9824   3.567   1.090   0.294
  118GLOH   H04 9825   3.611   1.021   0.368
  118GLOH    O2 9826   3.559   1.024   0.166
  118GLOH   H05 9827   3.472   0.974   0.158
  118GLOH    C3 9828   3.657   1.214   0.283
  118GLOH   H06 9829   3.616   1.280   0.206
  118GLOH   H07 9830   3.756   1.182   0.250
  118GLOH    O3 9831   3.665   1.283   0.409
  118GLOH   H01 9832   3.573   1.279   0.446
  119GLOH   H03 9833   3.618   2.541   0.769
  119GLOH    O1 9834   3.523   2.511   0.765
  119GLOH    C1 9835   3.466   2.526   0.897
  119GLOH   H02 9836   3.445   2.631   0.916
  119GLOH   H08 9837   3.538   2.495   0.973
  119GLOH    C2 9838   3.336   2.446   0.919
  119GLOH   H04 9839   3.303   2.468   1.021
  119GLOH    O2 9840   3.230   2.483   0.828
  119GLOH   H05 9841   3.246   2.575   0.789
  119GLOH    C3 9842   3.364   2.295   0.912
  119GLOH   H06 9843   3.419   2.274   0.820
  119GLOH   H07 9844   3.268   2.243   0.904
  119GLOH    O3 9845   3.437   2.246   1.026
  119GLOH   H01 9846   3.375   2.248   1.104
  120GLOH   H03 9847   4.719   3.033   1.676
  120GLOH    O1 9848   4.795   2.973   1.652
  120GLOH    C1 9849   4.782   2.849   1.723
  120GLOH   H02 9850   4.699   2.852   1.794
  120GLOH   H08 9851   4.872   2.829   1.781
  120GLOH    C2 9852   4.762   2.729   1.628
  120GLOH   H04 9853   4.853   2.719   1.568
  120GLOH    O2 9854   4.742   2.608   1.704
  120GLOH   H05 9855   4.702   2.543   1.643
  120GLOH    C3 9856   4.645   2.757   1.532
  120GLOH   H06 9857   4.671   2.842   1.469
  120GLOH   H07 9858   4.558   2.788   1.590
  120GLOH    O3 9859   4.612   2.644   1.449
  120GLOH   H01 9860   4.538   2.670   1.388
  121ACOH    H4 9861   4.828   3.744   0.385
  121ACOH    O2 9862   4.863   3.793   0.465
  121ACOH    C2 9863   4.777   3.770   0.566
  121ACOH    O1 9864   4.671   3.711   0.561
  121ACOH    C1 9865   4.830   3.828   0.692
  121ACOH    H1 9866   4.927   3.785   0.713
  121ACOH    H2 9867   4.762   3.808   0.775
  121ACOH    H3 9868   4.840   3.935   0.680
  122ACOH    H4 9869   5.041   3.802   1.605
  122ACOH    O2 9870   5.137   3.780   1.591
  122ACOH    C2 9871   5.208   3.836   1.690
  122ACOH    O1 9872   5.164   3.895   1.787
  122ACOH    C1 9873   5.354   3.813   1.674
  122ACOH    H1 9874   5.373   3.759   1.582
  122ACOH    H2 9875   5.391   3.754   1.758
  122ACOH    H3 9876   5.405   3.908   1.671
  123ACOH    H4 9877   2.653   8.822   0.093
  123ACOH    O2 9878   2.584   8.759   0.122
  123ACOH    C2 9879   2.596   8.739   0.254
  123ACOH    O1 9880   2.675   8.793   0.330
  123ACOH    C1 9881   2.497   8.639   0.301
  123ACOH    H1 9882   2.512   8.614   0.406
  123ACOH    H2 9883   2.507   8.548   0.242
  123ACOH    H3 9884   2.397   8.678   0.288
  124ACOH    H4 9885   3.480   8.606   1.189
  124ACOH    O2 9886   3.578   8.590   1.182
  124ACOH    C2 9887   3.593   8.456   1.174
  124ACOH    O1 9888   3.504   8.376   1.153
  124ACOH    C1 9889   3.735   8.415   1.181
  124ACOH    H1 9890   3.798   8.499   1.207
  124ACOH    H2 9891   3.765   8.375   1.085
  124ACOH    H3 9892   3.746   8.337   1.256
  125ACOH    H4 9893   4.553   3.026   1.137
  125ACOH    O2 9894   4.642   3.039   1.182
  125ACOH    C2 9895   4.632   3.151   1.255
  125ACOH    O1 9896   4.535   3.225   1.263
  125ACOH    C1 9897   4.757   3.178   1.331
  125ACOH    H1 9898   4.789   3.280   1.313
  125ACOH    H2 9899   4.835   3.110   1.299
  125ACOH    H3 9900   4.739   3.164   1.437
  126ACOH    H4 9901   4.273   4.114   0.024
  126ACOH    O2 9902   4.186   4.161   0.007
  126ACOH    C2 9903   4.203   4.225   2.765
  126ACOH    O1 9904   4.304   4.230   2.698
  126ACOH    C1 9905   4.081   4.301   2.729
  126ACOH    H1 9906   4.003   4.231   2.699
  126ACOH    H2 9907   4.101   4.368   2.646
  126ACOH    H3 9908   4.047   4.359   2.814
  127ACOH    H4 9909   4.386   0.869   1.734
  127ACOH    O2 9910   4.406   0.790   1.677
  127ACOH    C2 9911   4.446   0.692   1.761
  127ACOH    O1 9912   4.428   0.687   1.881
  127ACOH    C1 9913   4.500   0.576   1.686
  127ACOH    H1 9914   4.431   0.493   1.694
  127ACOH    H2 9915   4.596   0.547   1.729
  127ACOH    H3 9916   4.515   0.601   1.582
  128ACOH    H4 9917   4.495   3.285   0.342
  128ACOH    O2 9918   4.535   3.275   0.429
  128ACOH    C2 9919   4.501   3.383   0.502
  128ACOH    O1 9920   4.434   3.476   0.462
  128ACOH    C1 9921   4.557   3.378   0.639
  128ACOH    H1 9922   4.612   3.287   0.656
  128ACOH    H2 9923   4.476   3.384   0.712
  128ACOH    H3 9924   4.623   3.463   0.654
  129ACOH    H4 9925   4.234   1.120   0.538
  129ACOH    O2 9926   4.321   1.168   0.543
  129ACOH    C2 9927   4.355   1.200   0.417
  129ACOH    O1 9928   4.305   1.160   0.314
  129ACOH    C1 9929   4.472   1.292   0.419
  129ACOH    H1 9930   4.448   1.379   0.479
  129ACOH    H2 9931   4.497   1.324   0.319
  129ACOH    H3 9932   4.557   1.241   0.463
  130ACOH    H4 9933   3.996   8.954   2.259
  130ACOH    O2 9934   4.074   9.015   2.248
  130ACOH    C2 9935   4.025   9.130   2.198
  130ACOH    O1 9936   3.908   9.161   2.184
  130ACOH    C1 9937   4.136   9.223   2.165
  130ACOH    H1 9938   4.097   9.317   2.126
  130ACOH    H2 9939   4.200   9.178   2.089
  130ACOH    H3 9940   4.195   9.242   2.254
  131ACOH    H4 9941   4.341   0.681   1.376
  131ACOH    O2 9942   4.351   0.583   1.386
  131ACOH    C2 9943   4.313   0.527   1.270
  131ACOH    O1 9944   4.291   0.583   1.164
  131ACOH    C1 9945   4.308   0.379   1.284
  131ACOH    H1 9946   4.405   0.344   1.318
  131ACOH    H2 9947   4.284   0.332   1.190
  131ACOH    H3 9948   4.234   0.353   1.358
  132ACOH    H4 9949   4.913   2.987   1.566
  132ACOH    O2 9950   4.985   2.998   1.497
  132ACOH    C2 9951   5.047   3.114   1.524
  132ACOH    O1 9952   5.034   3.184   1.622
  132ACOH    C1 9953   5.143   3.146   1.415
  132ACOH    H1 9954   5.190   3.242   1.432
  132ACOH    H2 9955   5.090   3.148   1.320
  132ACOH    H3 9956   5.219   3.069   1.410
  133ACOH    H4 9957   3.844   0.676   0.520
  133ACOH    O2 9958   3.876   0.643   0.432
  133ACOH    C2 9959   3.938   0.747   0.372
  133ACOH    O1 9960   3.972   0.851   0.425
  133ACOH    C1 9961   3.975   0.716   0.232
  133ACOH    H1 9962   3.938   0.618   0.203
  133ACOH    H2 9963   4.083   0.718   0.221
  133ACOH    H3 9964   3.931   0.791   0.166
  134ACOH    H4 9965   3.677   0.011   1.070
  134ACOH    O2 9966   3.653   9.917   1.050
  134ACOH    C2 9967   3.733   9.874   0.952
  134ACOH    O1 9968   3.808   9.943   0.885
  134ACOH    C1 9969   3.710   9.731   0.922
  134ACOH    H1 9970   3.747   9.670   1.004
  134ACOH    H2 9971   3.760   9.701   0.831
  134ACOH    H3 9972   3.603   9.713   0.912
  135ACOH    H4 9973   3.164   8.831   1.152
  135ACOH    O2 9974   3.110   8.749   1.172
  135ACOH    C2 9975   3.198   8.654   1.210
  135ACOH    O1 9976   3.319   8.660   1.203
  135ACOH    C1 9977   3.129   8.531   1.255
  135ACOH    H1 9978   3.022   8.547   1.265
  135ACOH    H2 9979   3.169   8.499   1.351
  135ACOH    H3 9980   3.147   8.452   1.182
  136ACOH    H4 9981   4.046   4.308   1.070
  136ACOH    O2 9982   4.046   4.401   1.104
  136ACOH    C2 9983   3.964   4.403   1.211
  136ACOH    O1 9984   3.906   4.309   1.260
  136ACOH    C1 9985   3.955   4.540   1.266
  136ACOH    H1 9986   3.913   4.607   1.191
  136ACOH    H2 9987   4.054   4.575   1.293
  136ACOH    H3 9988   3.891   4.542   1.354
  137ACOH    H4 9989   3.819   4.118   0.565
  137ACOH    O2 9990   3.730   4.125   0.607
  137ACOH    C2 9991   3.642   4.149   0.508
  137ACOH    O1 9992   3.666   4.156   0.389
  137ACOH    C1 9993   3.503   4.159   0.560
  137ACOH    H1 9994   3.502   4.154   0.668
  137ACOH    H2 9995   3.444   4.076   0.520
  137ACOH    H3 9996   3.459   4.253   0.528
  138ACOH    H4 9997   3.256   8.645   0.398
  138ACOH    O2 9998   3.317   8.567   0.407
  138ACOH    C2 9999   3.429   8.599   0.338
  138ACOH    O110000   3.455   8.705   0.286
  138ACOH    C110001   3.524   8.485   0.340
  138ACOH    H110002   3.476   8.397   0.299
  138ACOH    H210003   3.556   8.465   0.441
  138ACOH    H310004   3.612   8.508   0.279
  139ACOH    H410005   4.777   2.565   1.849
  139ACOH    O210006   4.781   2.514   1.934
  139ACOH    C210007   4.817   2.599   2.032
  139ACOH    O110008   4.846   2.716   2.020
  139ACOH    C110009   4.819   2.529   2.163
  139ACOH    H110010   4.718   2.508   2.194
  139ACOH    H210011   4.870   2.589   2.238
  139ACOH    H310012   4.872   2.435   2.152
  140ACOH    H410013   2.751   2.118   1.486
  140ACOH    O210014   2.659   2.088   1.511
  140ACOH    C210015   2.597   2.056   1.396
  140ACOH    O110016   2.637   2.078   1.283
  140ACOH    C110017   2.461   2.005   1.424
  140ACOH    H110018   2.467   1.913   1.482
  140ACOH    H210019   2.407   1.984   1.332
  140ACOH    H310020   2.405   2.079   1.481
  141ACOH    H410021   3.795   9.744   1.267
  141ACOH    O210022   3.865   9.769   1.201
  141ACOH    C210023   3.932   9.876   1.248
  141ACOH    O110024   3.922   9.928   1.358
  141ACOH    C110025   4.033   9.920   1.149
  141ACOH    H110026   4.132   9.907   1.190
  141ACOH    H210027   4.017   0.025   1.123
  141ACOH    H310028   4.025   9.860   1.059
  142ACOH    H410029   4.410   1.417   0.818
  142ACOH    O210030   4.489   1.377   0.773
  142ACOH    C210031   4.493   1.247   0.809
  142ACOH    O110032   4.422   1.192   0.891
  142ACOH    C110033   4.608   1.178   0.746
  142ACOH    H110034   4.665   1.246   0.684
  142ACOH    H210035   4.572   1.096   0.684
  142ACOH    H310036   4.673   1.137   0.824
  143ACOH    H410037   2.418   1.139   0.528
  143ACOH    O210038   2.364   1.219   0.503
  143ACOH    C210039   2.347   1.292   0.615
  143ACOH    O110040   2.394   1.270   0.725
  143ACOH    C110041   2.257   1.407   0.589
  143ACOH    H110042   2.301   1.470   0.512
  143ACOH    H210043   2.244   1.466   0.680
  143ACOH    H310044   2.161   1.371   0.555
  144ACOH    H410045   4.231   1.048   0.080
  144ACOH    O210046   4.256   0.975   0.020
  144ACOH    C210047   4.169   0.975   2.793
  144ACOH    O110048   4.071   1.046   2.780
  144ACOH    C110049   4.203   0.868   2.696
  144ACOH    H110050   4.129   0.862   2.617
  144ACOH    H210051   4.207   0.772   2.748
  144ACOH    H310052   4.300   0.889   2.653
  145ACOH    H410053   4.626   3.357   0.950
  145ACOH    O210054   4.716   3.390   0.919
  145ACOH    C210055   4.757   3.484   1.005
  145ACOH    O110056   4.700   3.526   1.103
  145ACOH    C110057   4.888   3.537   0.960
  145ACOH    H110058   4.881   3.569   0.856
  145ACOH    H210059   4.963   3.459   0.968
  145ACOH    H310060   4.918   3.622   1.020
  146ACOH    H410061   3.915   0.073   0.860
  146ACOH    O210062   3.980   0.148   0.858
  146ACOH    C210063   3.923   0.247   0.788
  146ACOH    O110064   3.808   0.250   0.748
  146ACOH    C110065   4.014   0.363   0.774
  146ACOH    H110066   3.969   0.450   0.821
  146ACOH    H210067   4.031   0.384   0.669
  146ACOH    H310068   4.109   0.343   0.822
  147SOL     OW10069   3.102   0.374   0.831
  147SOL    HW110070   3.188   0.410   0.865
  147SOL    HW210071   3.072   0.298   0.889
  148SOL     OW10072   2.904   2.043   0.619
  148SOL    HW110073   2.874   2.076   0.708
  148SOL    HW210074   2.859   2.096   0.547
  149SOL     OW10075   3.580   4.082   1.603
  149SOL    HW110076   3.502   4.053   1.549
  149SOL    HW210077   3.649   4.123   1.543
  150SOL     OW10078   3.342   9.432   1.339
  150SOL    HW110079   3.403   9.365   1.380
  150SOL    HW210080   3.330   9.510   1.402
  151SOL     OW10081   2.590   1.955   1.744
  151SOL    HW110082   2.612   1.998   1.657
  151SOL    HW210083   2.542   2.021   1.803
  152SOL     OW10084   2.747   0.157   1.008
  152SOL    HW110085   2.727   0.238   0.953
  152SOL    HW210086   2.718   0.173   1.102
  153SOL     OW10087   3.873   2.184   0.407
  153SOL    HW110088   3.818   2.261   0.440
  153SOL    HW210089   3.831   2.098   0.435
  154SOL     OW10090   3.342   9.472   1.071
  154SOL    HW110091   3.340   9.458   1.170
  154SOL    HW210092   3.311   9.565   1.050
  155SOL     OW10093   3.113   0.815   0.945
  155SOL    HW110094   3.063   0.751   0.887
  155SOL    HW210095   3.123   0.903   0.898
  156SOL     OW10096   3.430   8.967   1.309
  156SOL    HW110097   3.505   8.934   1.252
  156SOL    HW210098   3.344   8.961   1.257
  157SOL     OW10099   3.557   3.637   1.672
  157SOL    HW110100   3.627   3.689   1.721
  157SOL    HW210101   3.556   3.542   1.706
  158SOL     OW10102   2.472   1.799   0.502
  158SOL    HW110103   2.532   1.812   0.423
  158SOL    HW210104   2.410   1.878   0.510
  159SOL     OW10105   2.813   1.061   1.061
  159SOL    HW110106   2.868   0.993   1.109
  159SOL    HW210107   2.821   1.150   1.106
  160SOL     OW10108   3.107   1.181   0.250
  160SOL    HW110109   3.162   1.237   0.187
  160SOL    HW210110   3.085   1.094   0.206
  161SOL     OW10111   3.479   9.733   0.654
  161SOL    HW110112   3.454   9.791   0.732
  161SOL    HW210113   3.396   9.710   0.602
  162SOL     OW10114   3.085   1.512   1.137
  162SOL    HW110115   3.139   1.470   1.064
  162SOL    HW210116   3.076   1.447   1.213
  163SOL     OW10117   3.180   0.386   1.587
  163SOL    HW110118   3.085   0.398   1.560
  163SOL    HW210119   3.217   0.474   1.618
  164SOL     OW10120   5.091   3.960   2.055
  164SOL    HW110121   5.128   3.929   1.967
  164SOL    HW210122   5.067   4.057   2.049
  165SOL     OW10123   3.343   0.474   0.945
  165SOL    HW110124   3.331   0.543   1.017
  165SOL    HW210125   3.428   0.424   0.961
  166SOL     OW10126   4.370   2.195   1.195
  166SOL    HW110127   4.432   2.212   1.271
  166SOL    HW210128   4.374   2.273   1.132
  167SOL     OW10129   3.725   1.418   1.258
  167SOL    HW110130   3.683   1.335   1.221
  167SOL    HW210131   3.675   1.446   1.340
  168SOL     OW10132   3.474   1.632   0.528
  168SOL    HW110133   3.495   1.608   0.623
  168SOL    HW210134   3.559   1.641   0.477
  169SOL     OW10135   4.344   1.665   1.244
  169SOL    HW110136   4.396   1.586   1.279
  169SOL    HW210137   4.373   1.685   1.151
  170SOL     OW10138   2.432   0.608   1.134
  170SOL    HW110139   2.465   0.610   1.040
  170SOL    HW210140   2.381   0.692   1.153
  171SOL     OW10141   3.569   1.476   1.489
  171SOL    HW110142   3.605   1.548   1.549
  171SOL    HW210143   3.503   1.421   1.539
  172SOL     OW10144   3.663   1.676   1.662
  172SOL    HW110145   3.762   1.689   1.659
  172SOL    HW210146   3.630   1.689   1.755
  173SOL     OW10147   3.348   3.895   0.114
  173SOL    HW110148   3.440   3.910   0.152
  173SOL    HW210149   3.319   3.977   0.064
  174SOL     OW10150   3.356   3.382   0.573
  174SOL    HW110151   3.410   3.395   0.656
  174SOL    HW210152   3.377   3.454   0.507
  175SOL     OW10153   4.027   3.846   2.118
  175SOL    HW110154   3.940   3.884   2.146
  175SOL    HW210155   4.017   3.748   2.101
  176SOL     OW10156   3.168   2.632   2.001
  176SOL    HW110157   3.251   2.623   2.057
  176SOL    HW210158   3.153   2.547   1.950
  177SOL     OW10159   3.166   9.946   1.700
  177SOL    HW110160   3.231   9.935   1.626
  177SOL    HW210161   3.082   9.987   1.665
  178SOL     OW10162   2.621   2.094   2.147
  178SOL    HW110163   2.686   2.170   2.145
  178SOL    HW210164   2.666   2.013   2.184
  179SOL     OW10165   3.099   1.671   0.833
  179SOL    HW110166   3.012   1.640   0.872
  179SOL    HW210167   3.168   1.601   0.846
  180SOL     OW10168   4.469   1.439   2.200
  180SOL    HW110169   4.454   1.342   2.186
  180SOL    HW210170   4.390   1.490   2.164
  181SOL     OW10171   2.310   0.847   1.184
  181SOL    HW110172   2.367   0.913   1.233
  181SOL    HW210173   2.217   0.882   1.175
  182SOL     OW10174   3.358   0.901   0.761
  182SOL    HW110175   3.344   0.806   0.732
  182SOL    HW210176   3.272   0.951   0.756
  183SOL     OW10177   3.484   2.739   0.356
  183SOL    HW110178   3.482   2.655   0.412
  183SOL    HW210179   3.399   2.790   0.371
  184SOL     OW10180   3.993   2.753   1.494
  184SOL    HW110181   4.000   2.675   1.557
  184SOL    HW210182   4.083   2.795   1.484
  185SOL     OW10183   3.607   2.893   0.846
  185SOL    HW110184   3.627   2.953   0.769
  185SOL    HW210185   3.663   2.810   0.839
  186SOL     OW10186   2.619   9.323   0.704
  186SOL    HW110187   2.519   9.325   0.713
  186SOL    HW210188   2.650   9.410   0.665
  187SOL     OW10189   2.735   0.250   1.312
  187SOL    HW110190   2.807   0.298   1.362
  187SOL    HW210191   2.737   0.153   1.336
  188SOL     OW10192   3.459   8.934   1.924
  188SOL    HW110193   3.418   8.862   1.869
  188SOL    HW210194   3.543   8.966   1.881
  189SOL     OW10195   2.361   1.501   1.900
  189SOL    HW110196   2.371   1.588   1.853
  189SOL    HW210197   2.355   1.516   1.999
  190SOL     OW10198   2.903   8.937   1.097
  190SOL    HW110199   2.884   8.945   0.999
  190SOL    HW210200   2.950   8.851   1.114
  191SOL     OW10201   3.203   9.195   1.242
  191SOL    HW110202   3.103   9.195   1.250
  191SOL    HW210203   3.239   9.280   1.279
  192SOL     OW10204   2.278   0.225   1.742
  192SOL    HW110205   2.258   0.130   1.717
  192SOL    HW210206   2.296   0.231   1.840
  193SOL     OW10207   3.167   2.393   1.848
  193SOL    HW110208   3.139   2.301   1.875
  193SOL    HW210209   3.138   2.411   1.754
  194SOL     OW10210   4.034   3.708   0.897
  194SOL    HW110211   4.018   3.770   0.820
  194SOL    HW210212   4.128   3.676   0.894
  195SOL     OW10213   3.507   3.844   1.939
  195SOL    HW110214   3.593   3.828   1.890
  195SOL    HW210215   3.433   3.858   1.872
  196SOL     OW10216   3.629   3.430   1.446
  196SOL    HW110217   3.540   3.426   1.402
  196SOL    HW210218   3.700   3.412   1.378
  197SOL     OW10219   3.631   0.487   1.726
  197SOL    HW110220   3.564   0.415   1.741
  197SOL    HW210221   3.597   0.550   1.656
  198SOL     OW10222   4.125   2.409   1.449
  198SOL    HW110223   4.197   2.449   1.506
  198SOL    HW210224   4.146   2.313   1.431
  199SOL     OW10225   2.945   9.554   0.132
  199SOL    HW110226   3.018   9.612   0.096
  199SOL    HW210227   2.956   9.542   0.230
  200SOL     OW10228   4.365   1.106   1.371
  200SOL    HW110229   4.381   1.161   1.290
  200SOL    HW210230   4.313   1.159   1.438
  201SOL     OW10231   3.632   1.965   1.647
  201SOL    HW110232   3.632   1.865   1.646
  201SOL    HW210233   3.647   1.999   1.554
  202SOL     OW10234   2.622   9.257   2.164
  202SOL    HW110235   2.583   9.175   2.207
  202SOL    HW210236   2.618   9.247   2.065
  203SOL     OW10237   3.160   2.079   0.716
  203SOL    HW110238   3.076   2.069   0.663
  203SOL    HW210239   3.224   2.138   0.667
  204SOL     OW10240   3.803   4.151   1.471
  204SOL    HW110241   3.837   4.213   1.400
  204SOL    HW210242   3.876   4.089   1.498
  205SOL     OW10243   3.230   2.762   1.760
  205SOL    HW110244   3.192   2.729   1.846
  205SOL    HW210245   3.327   2.740   1.756
  206SOL     OW10246   3.837   1.102   1.864
  206SOL    HW110247   3.800   1.157   1.938
  206SOL    HW210248   3.798   1.010   1.868
  207SOL     OW10249   3.031   9.701   1.439
  207SOL    HW110250   3.089   9.777   1.408
  207SOL    HW210251   3.082   9.644   1.503
  208SOL     OW10252   2.533   1.263   1.446
  208SOL    HW110253   2.506   1.295   1.537
  208SOL    HW210254   2.570   1.340   1.393
  209SOL     OW10255   2.861   8.983   0.827
  209SOL    HW110256   2.795   8.937   0.768
  209SOL    HW210257   2.947   8.997   0.777
  210SOL     OW10258   3.309   3.628   0.154
  210SOL    HW110259   3.312   3.727   0.144
  210SOL    HW210260   3.319   3.584   0.065
  211SOL     OW10261   4.483   3.300   0.985
  211SOL    HW110262   4.394   3.300   0.940
  211SOL    HW210263   4.473   3.270   1.080
  212SOL     OW10264   3.467   1.673   1.028
  212SOL    HW110265   3.447   1.641   1.120
  212SOL    HW210266   3.443   1.769   1.019
  213SOL     OW10267   3.507   8.871   1.555
  213SOL    HW110268   3.570   8.944   1.582
  213SOL    HW210269   3.473   8.889   1.463
  214SOL     OW10270   3.366   1.314   1.633
  214SOL    HW110271   3.277   1.331   1.677
  214SOL    HW210272   3.357   1.240   1.567
  215SOL     OW10273   2.635   9.796   1.177
  215SOL    HW110274   2.650   9.821   1.081
  215SOL    HW210275   2.702   9.727   1.205
  216SOL     OW10276   3.341   0.677   0.306
  216SOL    HW110277   3.411   0.664   0.377
  216SOL    HW210278   3.263   0.617   0.325
  217SOL     OW10279   2.559   0.640   0.894
  217SOL    HW110280   2.502   0.636   0.812
  217SOL    HW210281   2.591   0.734   0.908
  218SOL     OW10282   3.632   0.697   1.120
  218SOL    HW110283   3.719   0.720   1.164
  218SOL    HW210284   3.594   0.778   1.076
  219SOL     OW10285   4.194   0.753   0.949
  219SOL    HW110286   4.233   0.698   1.023
  219SOL    HW210287   4.137   0.695   0.891
  220SOL     OW10288   3.705   2.396   0.453
  220SOL    HW110289   3.617   2.441   0.468
  220SOL    HW210290   3.741   2.422   0.363
  221SOL     OW10291   2.698   9.565   0.595
  221SOL    HW110292   2.748   9.609   0.669
  221SOL    HW210293   2.702   9.622   0.513
  222SOL     OW10294   3.351   1.014   2.207
  222SOL    HW110295   3.311   1.041   2.120
  222SOL    HW210296   3.404   0.930   2.195
  223SOL     OW10297   3.833   1.036   1.229
  223SOL    HW110298   3.850   0.939   1.244
  223SOL    HW210299   3.890   1.090   1.290
  224SOL     OW10300   2.811   0.937   0.274
  224SOL    HW110301   2.820   0.940   0.373
  224SOL    HW210302   2.736   0.877   0.249
  225SOL     OW10303   3.112   0.496   1.221
  225SOL    HW110304   3.152   0.406   1.203
  225SOL    HW210305   3.179   0.567   1.198
  226SOL     OW10306   2.555   9.783   2.056
  226SOL    HW110307   2.638   9.835   2.074
  226SOL    HW210308   2.490   9.841   2.007
  227SOL     OW10309   2.858   2.713   0.216
  227SOL    HW110310   2.858   2.783   0.144
  227SOL    HW210311   2.865   2.757   0.305
  228SOL     OW10312   2.919   9.414   1.086
  228SOL    HW110313   2.957   9.343   1.145
  228SOL    HW210314   2.868   9.371   1.011
  229SOL     OW10315   3.202   0.240   1.187
  229SOL    HW110316   3.143   0.209   1.113
  229SOL    HW210317   3.167   0.205   1.274
  230SOL     OW10318   4.387   1.291   1.164
  230SOL    HW110319   4.426   1.247   1.083
  230SOL    HW210320   4.298   1.331   1.142
  231SOL     OW10321   4.076   2.497   2.238
  231SOL    HW110322   4.120   2.555   2.306
  231SOL    HW210323   3.983   2.476   2.267
  232SOL     OW10324   3.402   3.166   1.800
  232SOL    HW110325   3.306   3.147   1.823
  232SOL    HW210326   3.460   3.093   1.835
  233SOL     OW10327   2.865   2.881   0.442
  233SOL    HW110328   2.834   2.807   0.502
  233SOL    HW210329   2.939   2.932   0.487
  234SOL     OW10330   2.798   9.253   0.901
  234SOL    HW110331   2.823   9.157   0.886
  234SOL    HW210332   2.731   9.280   0.832
  235SOL     OW10333   2.622   9.295   1.887
  235SOL    HW110334   2.564   9.284   1.807
  235SOL    HW210335   2.608   9.386   1.927
  236SOL     OW10336   3.941   2.630   1.894
  236SOL    HW110337   3.966   2.552   1.951
  236SOL    HW210338   3.942   2.602   1.798
  237SOL     OW10339   2.750   2.344   1.205
  237SOL    HW110340   2.790   2.402   1.276
  237SOL    HW210341   2.719   2.259   1.246
  238SOL     OW10342   2.359   1.070   1.737
  238SOL    HW110343   2.288   1.033   1.677
  238SOL    HW210344   2.395   1.155   1.698
  239SOL     OW10345   3.029   0.155   0.993
  239SOL    HW110346   3.063   0.081   0.935
  239SOL    HW210347   2.930   0.149   1.000
  240SOL     OW10348   3.914   1.108   0.972
  240SOL    HW110349   3.883   1.085   1.064
  240SOL    HW210350   4.011   1.086   0.963
  241SOL     OW10351   4.241   2.367   1.869
  241SOL    HW110352   4.338   2.349   1.854
  241SOL    HW210353   4.221   2.362   1.967
  242SOL     OW10354   2.822   9.839   1.557
  242SOL    HW110355   2.890   9.774   1.522
  242SOL    HW210356   2.748   9.789   1.602
  243SOL     OW10357   4.052   2.178   1.798
  243SOL    HW110358   4.012   2.181   1.706
  243SOL    HW210359   4.114   2.256   1.811
  244SOL     OW10360   3.679   2.057   0.890
  244SOL    HW110361   3.667   2.115   0.810
  244SOL    HW210362   3.590   2.027   0.923
  245SOL     OW10363   3.155   3.061   1.831
  245SOL    HW110364   3.138   2.996   1.757
  245SOL    HW210365   3.129   3.018   1.918
  246SOL     OW10366   2.906   0.678   0.811
  246SOL    HW110367   2.857   0.765   0.808
  246SOL    HW210368   2.900   0.640   0.903
  247SOL     OW10369   3.407   0.329   1.761
  247SOL    HW110370   3.330   0.329   1.696
  247SOL    HW210371   3.371   0.318   1.854
  248SOL     OW10372   2.338   1.811   2.060
  248SOL    HW110373   2.354   1.722   2.102
  248SOL    HW210374   2.353   1.805   1.962
  249SOL     OW10375   2.679   0.492   1.194
  249SOL    HW110376   2.586   0.512   1.162
  249SOL    HW210377   2.685   0.396   1.221
  250SOL     OW10378   2.792   0.241   1.775
  250SOL    HW110379   2.741   0.196   1.848
  250SOL    HW210380   2.748   0.327   1.751
  251SOL     OW10381   3.959   1.214   1.413
  251SOL    HW110382   3.934   1.232   1.508
  251SOL    HW210383   3.969   1.301   1.364
  252SOL     OW10384   3.201   9.029   1.983
  252SOL    HW110385   3.294   9.000   1.962
  252SOL    HW210386   3.181   9.114   1.934
  253SOL     OW10387   2.528   0.052   1.569
  253SOL    HW110388   2.521   0.152   1.572
  253SOL    HW210389   2.586   0.025   1.492
  254SOL     OW10390   3.528   3.569   2.022
  254SOL    HW110391   3.526   3.519   1.935
  254SOL    HW210392   3.510   3.666   2.005
  255SOL     OW10393   2.880   0.038   2.020
  255SOL    HW110394   2.967   0.061   1.976
  255SOL    HW210395   2.873   9.938   2.029
  256SOL     OW10396   2.837   0.927   0.550
  256SOL    HW110397   2.928   0.887   0.534
  256SOL    HW210398   2.820   0.934   0.648
  257SOL     OW10399   3.454   2.122   2.043
  257SOL    HW110400   3.539   2.173   2.057
  257SOL    HW210401   3.455   2.039   2.099
  258SOL     OW10402   3.693   0.575   0.878
  258SOL    HW110403   3.675   0.626   0.962
  258SOL    HW210404   3.653   0.483   0.885
  259SOL     OW10405   2.975   0.873   1.180
  259SOL    HW110406   2.933   0.797   1.229
  259SOL    HW210407   3.021   0.838   1.098
  260SOL     OW10408   3.062   3.008   0.588
  260SOL    HW110409   3.046   2.989   0.685
  260SOL    HW210410   3.072   3.106   0.575
  261SOL     OW10411   2.969   9.371   0.595
  261SOL    HW110412   2.916   9.286   0.590
  261SOL    HW210413   3.024   9.370   0.679
  262SOL     OW10414   3.006   0.524   0.610
  262SOL    HW110415   3.055   0.455   0.663
  262SOL    HW210416   2.963   0.590   0.672
  263SOL     OW10417   3.489   3.380   2.215
  263SOL    HW110418   3.492   3.457   2.151
  263SOL    HW210419   3.568   3.320   2.201
  264SOL     OW10420   3.294   3.220   0.887
  264SOL    HW110421   3.256   3.269   0.966
  264SOL    HW210422   3.221   3.203   0.821
  265SOL     OW10423   2.813   1.306   1.181
  265SOL    HW110424   2.899   1.312   1.231
  265SOL    HW210425   2.744   1.363   1.226
  266SOL     OW10426   4.823   3.636   2.041
  266SOL    HW110427   4.913   3.610   2.005
  266SOL    HW210428   4.823   3.732   2.067
  267SOL     OW10429   3.873   1.425   1.000
  267SOL    HW110430   3.850   1.343   0.947
  267SOL    HW210431   3.812   1.433   1.078
  268SOL     OW10432   3.175   2.885   1.529
  268SOL    HW110433   3.241   2.960   1.532
  268SOL    HW210434   3.184   2.829   1.611
  269SOL     OW10435   2.870   0.588   1.780
  269SOL    HW110436   2.791   0.537   1.748
  269SOL    HW210437   2.917   0.536   1.852
  270SOL     OW10438   2.992   0.479   2.005
  270SOL    HW110439   3.001   0.558   2.066
  270SOL    HW210440   2.952   0.402   2.054
  271SOL     OW10441   3.230   0.074   0.403
  271SOL    HW110442   3.229   0.021   0.318
  271SOL    HW210443   3.151   0.048   0.459
  272SOL     OW10444   3.514   0.534   1.312
  272SOL    HW110445   3.551   0.590   1.238
  272SOL    HW210446   3.498   0.441   1.280
  273SOL     OW10447   3.974   2.870   0.332
  273SOL    HW110448   4.027   2.812   0.395
  273SOL    HW210449   3.934   2.813   0.260
  274SOL     OW10450   3.008   3.027   1.362
  274SOL    HW110451   3.068   2.973   1.421
  274SOL    HW210452   2.923   3.048   1.410
  275SOL     OW10453   2.474   1.587   1.139
  275SOL    HW110454   2.453   1.513   1.076
  275SOL    HW210455   2.497   1.670   1.088
  276SOL     OW10456   2.826   0.190   0.347
  276SOL    HW110457   2.813   0.274   0.400
  276SOL    HW210458   2.784   0.202   0.256
  277SOL     OW10459   2.456   0.170   1.255
  277SOL    HW110460   2.431   0.075   1.275
  277SOL    HW210461   2.544   0.192   1.297
  278SOL     OW10462   3.526   0.656   0.511
  278SOL    HW110463   3.616   0.684   0.546
  278SOL    HW210464   3.463   0.646   0.588
  279SOL     OW10465   3.512   9.804   1.899
  279SOL    HW110466   3.506   9.803   1.999
  279SOL    HW210467   3.601   9.769   1.871
  280SOL     OW10468   3.123   0.156   1.437
  280SOL    HW110469   3.166   0.234   1.483
  280SOL    HW210470   3.044   0.126   1.490
  281SOL     OW10471   3.594   0.319   0.928
  281SOL    HW110472   3.670   0.292   0.868
  281SOL    HW210473   3.603   0.271   1.015
  282SOL     OW10474   4.339   2.771   1.727
  282SOL    HW110475   4.339   2.846   1.661
  282SOL    HW210476   4.374   2.804   1.815
  283SOL     OW10477   3.229   9.179   0.565
  283SOL    HW110478   3.329   9.177   0.561
  283SOL    HW210479   3.193   9.223   0.482
  284SOL     OW10480   3.386   1.522   0.281
  284SOL    HW110481   3.390   1.531   0.380
  284SOL    HW210482   3.459   1.576   0.239
  285SOL     OW10483   2.563   1.155   0.104
  285SOL    HW110484   2.521   1.230   0.155
  285SOL    HW210485   2.653   1.135   0.143
  286SOL     OW10486   3.785   1.864   1.062
  286SOL    HW110487   3.713   1.833   1.124
  286SOL    HW210488   3.745   1.927   0.995
  287SOL     OW10489   2.686   1.209   1.821
  287SOL    HW110490   2.667   1.128   1.876
  287SOL    HW210491   2.763   1.259   1.860
  288SOL     OW10492   3.701   2.401   1.584
  288SOL    HW110493   3.717   2.354   1.498
  288SOL    HW210494   3.648   2.484   1.568
  289SOL     OW10495   3.027   0.688   2.195
  289SOL    HW110496   3.080   0.745   2.132
  289SOL    HW210497   3.078   0.678   2.281
  290SOL     OW10498   4.260   2.552   1.145
  290SOL    HW110499   4.165   2.531   1.168
  290SOL    HW210500   4.290   2.493   1.070
  291SOL     OW10501   3.035   9.828   0.626
  291SOL    HW110502   3.102   9.762   0.593
  291SOL    HW210503   2.959   9.780   0.670
  292SOL     OW10504   4.482   2.050   1.909
  292SOL    HW110505   4.416   2.064   1.983
  292SOL    HW210506   4.534   1.966   1.927
  293SOL     OW10507   3.084   0.811   0.522
  293SOL    HW110508   3.157   0.834   0.457
  293SOL    HW210509   3.089   0.714   0.544
  294SOL     OW10510   3.885   1.846   1.404
  294SOL    HW110511   3.888   1.805   1.495
  294SOL    HW210512   3.954   1.803   1.346
  295SOL     OW10513   3.469   1.297   0.990
  295SOL    HW110514   3.515   1.250   1.065
  295SOL    HW210515   3.534   1.312   0.916
  296SOL     OW10516   3.135   1.233   1.801
  296SOL    HW110517   3.098   1.197   1.716
  296SOL    HW210518   3.061   1.279   1.852
  297SOL     OW10519   3.686   0.871   1.604
  297SOL    HW110520   3.689   0.877   1.704
  297SOL    HW210521   3.624   0.798   1.576
  298SOL     OW10522   4.426   3.635   1.628
  298SOL    HW110523   4.411   3.572   1.703
  298SOL    HW210524   4.340   3.682   1.605
  299SOL     OW10525   3.089   1.215   2.127
  299SOL    HW110526   3.153   1.292   2.121
  299SOL    HW210527   3.044   1.215   2.216
  300SOL     OW10528   4.533   2.435   1.578
  300SOL    HW110529   4.570   2.508   1.519
  300SOL    HW210530   4.441   2.460   1.607
  301SOL     OW10531   4.083   1.530   2.029
  301SOL    HW110532   4.157   1.578   2.077
  301SOL    HW210533   4.105   1.522   1.932
  302SOL     OW10534   2.599   9.737   1.673
  302SOL    HW110535   2.541   9.819   1.674
  302SOL    HW210536   2.546   9.658   1.703
  303SOL     OW10537   3.333   0.622   0.709
  303SOL    HW110538   3.314   0.546   0.646
  303SOL    HW210539   3.339   0.587   0.802
  304SOL     OW10540   2.730   1.294   0.389
  304SOL    HW110541   2.812   1.245   0.361
  304SOL    HW210542   2.738   1.321   0.484
  305SOL     OW10543   3.750   0.961   0.806
  305SOL    HW110544   3.815   1.019   0.854
  305SOL    HW210545   3.689   1.018   0.750
  306SOL     OW10546   2.939   0.074   1.617
  306SOL    HW110547   2.889   0.139   1.674
  306SOL    HW210548   2.884   9.992   1.602
  307SOL     OW10549   3.682   3.041   0.627
  307SOL    HW110550   3.658   3.035   0.530
  307SOL    HW210551   3.717   3.133   0.647
  308SOL     OW10552   2.728   9.370   0.381
  308SOL    HW110553   2.757   9.284   0.422
  308SOL    HW210554   2.713   9.438   0.453
  309SOL     OW10555   2.936   0.435   1.426
  309SOL    HW110556   2.883   0.518   1.439
  309SOL    HW210557   3.004   0.450   1.354
  310SOL     OW10558   2.395   1.755   1.794
  310SOL    HW110559   2.469   1.819   1.773
  310SOL    HW210560   2.335   1.746   1.715
  311SOL     OW10561   3.492   2.686   1.739
  311SOL    HW110562   3.529   2.667   1.648
  311SOL    HW210563   3.485   2.601   1.791
  312SOL     OW10564   4.176   1.024   0.968
  312SOL    HW110565   4.188   0.927   0.947
  312SOL    HW210566   4.256   1.075   0.938
  313SOL     OW10567   3.173   0.817   2.006
  313SOL    HW110568   3.213   0.906   1.983
  313SOL    HW210569   3.239   0.745   1.988
  314SOL     OW10570   2.468   0.537   1.399
  314SOL    HW110571   2.427   0.551   1.309
  314SOL    HW210572   2.562   0.504   1.388
  315SOL     OW10573   2.781   0.925   0.820
  315SOL    HW110574   2.813   0.981   0.896
  315SOL    HW210575   2.681   0.927   0.816
  316SOL     OW10576   3.318   0.392   0.568
  316SOL    HW110577   3.364   0.321   0.622
  316SOL    HW210578   3.316   0.365   0.472
  317SOL     OW10579   2.853   9.767   2.047
  317SOL    HW110580   2.796   9.693   2.011
  317SOL    HW210581   2.940   9.730   2.079
  318SOL     OW10582   3.102   2.005   1.178
  318SOL    HW110583   3.043   1.934   1.217
  318SOL    HW210584   3.129   1.979   1.086
  319SOL     OW10585   2.398   9.895   1.282
  319SOL    HW110586   2.481   9.849   1.251
  319SOL    HW210587   2.321   9.866   1.226
  320SOL     OW10588   4.142   2.138   1.338
  320SOL    HW110589   4.086   2.083   1.276
  320SOL    HW210590   4.229   2.159   1.294
  321SOL     OW10591   3.428   3.008   1.009
  321SOL    HW110592   3.495   2.962   0.950
  321SOL    HW210593   3.381   3.079   0.957
  322SOL     OW10594   2.535   0.849   1.712
  322SOL    HW110595   2.577   0.802   1.789
  322SOL    HW210596   2.482   0.927   1.745
  323SOL     OW10597   3.944   0.940   1.526
  323SOL    HW110598   3.953   1.033   1.491
  323SOL    HW210599   3.848   0.921   1.547
  324SOL     OW10600   3.187   9.568   1.617
  324SOL    HW110601   3.214   9.615   1.701
  324SOL    HW210602   3.214   9.472   1.623
  325SOL     OW10603   3.691   9.879   0.448
  325SOL    HW110604   3.662   9.857   0.541
  325SOL    HW210605   3.707   9.977   0.439
  326SOL     OW10606   3.482   9.432   1.794
  326SOL    HW110607   3.561   9.480   1.756
  326SOL    HW210608   3.485   9.436   1.893
  327SOL     OW10609   4.400   3.412   1.450
  327SOL    HW110610   4.478   3.387   1.392
  327SOL    HW210611   4.423   3.494   1.502
  328SOL     OW10612   2.905   9.932   0.391
  328SOL    HW110613   2.946   9.918   0.481
  328SOL    HW210614   2.878   0.028   0.382
  329SOL     OW10615   3.585   2.934   1.846
  329SOL    HW110616   3.539   2.863   1.794
  329SOL    HW210617   3.635   2.893   1.923
  330SOL     OW10618   2.563   0.434   0.631
  330SOL    HW110619   2.598   0.396   0.717
  330SOL    HW210620   2.632   0.425   0.560
  331SOL     OW10621   2.597   9.520   2.030
  331SOL    HW110622   2.571   9.615   2.044
  331SOL    HW210623   2.593   9.471   2.118
  332SOL     OW10624   3.203   2.722   0.730
  332SOL    HW110625   3.167   2.811   0.759
  332SOL    HW210626   3.178   2.706   0.635
  333SOL     OW10627   2.901   0.581   1.063
  333SOL    HW110628   2.817   0.547   1.104
  333SOL    HW210629   2.980   0.548   1.116
  334SOL     OW10630   3.458   2.499   0.507
  334SOL    HW110631   3.470   2.510   0.606
  334SOL    HW210632   3.395   2.424   0.489
  335SOL     OW10633   3.960   2.157   1.543
  335SOL    HW110634   4.029   2.142   1.473
  335SOL    HW210635   3.869   2.153   1.501
  336SOL     OW10636   3.759   9.429   0.194
  336SOL    HW110637   3.844   9.482   0.190
  336SOL    HW210638   3.727   9.412   0.100
  337SOL     OW10639   3.483   9.442   2.069
  337SOL    HW110640   3.489   9.361   2.128
  337SOL    HW210641   3.388   9.472   2.062
  338SOL     OW10642   3.108   0.519   0.350
  338SOL    HW110643   3.073   0.514   0.443
  338SOL    HW210644   3.166   0.439   0.332
  339SOL     OW10645   3.980   3.090   0.893
  339SOL    HW110646   3.945   3.059   0.982
  339SOL    HW210647   3.921   3.162   0.857
  340SOL     OW10648   3.272   1.423   2.059
  340SOL    HW110649   3.314   1.426   2.150
  340SOL    HW210650   3.336   1.382   1.994
  341SOL     OW10651   2.668   0.605   0.279
  341SOL    HW110652   2.587   0.615   0.223
  341SOL    HW210653   2.748   0.588   0.221
  342SOL     OW10654   3.153   8.968   0.229
  342SOL    HW110655   3.208   8.967   0.146
  342SOL    HW210656   3.130   9.062   0.252
  343SOL     OW10657   4.078   1.736   1.242
  343SOL    HW110658   4.173   1.705   1.242
  343SOL    HW210659   4.069   1.813   1.179
  344SOL     OW10660   2.718   1.368   0.928
  344SOL    HW110661   2.763   1.336   1.011
  344SOL    HW210662   2.619   1.365   0.941
  345SOL     OW10663   4.830   3.900   2.109
  345SOL    HW110664   4.774   3.975   2.073
  345SOL    HW210665   4.926   3.919   2.090
  346SOL     OW10666   2.760   1.142   1.565
  346SOL    HW110667   2.684   1.165   1.504
  346SOL    HW210668   2.733   1.159   1.660
  347SOL     OW10669   2.807   2.374   0.633
  347SOL    HW110670   2.799   2.318   0.551
  347SOL    HW210671   2.745   2.339   0.704
  348SOL     OW10672   3.098   2.906   2.048
  348SOL    HW110673   3.106   2.807   2.041
  348SOL    HW210674   3.094   2.932   2.144
  349SOL     OW10675   3.600   8.865   1.120
  349SOL    HW110676   3.607   8.766   1.133
  349SOL    HW210677   3.542   8.884   1.041
  350SOL     OW10678   2.795   2.205   0.412
  350SOL    HW110679   2.828   2.133   0.350
  350SOL    HW210680   2.747   2.275   0.359
  351SOL     OW10681   3.664   1.316   0.792
  351SOL    HW110682   3.624   1.236   0.747
  351SOL    HW210683   3.754   1.334   0.753
  352SOL     OW10684   2.683   2.047   0.992
  352SOL    HW110685   2.775   2.068   0.961
  352SOL    HW210686   2.674   2.072   1.089
  353SOL     OW10687   4.198   1.861   0.364
  353SOL    HW110688   4.219   1.796   0.291
  353SOL    HW210689   4.223   1.820   0.453
  354SOL     OW10690   3.989   1.572   0.268
  354SOL    HW110691   3.932   1.647   0.299
  354SOL    HW210692   3.961   1.487   0.314
  355SOL     OW10693   4.600   3.137   1.707
  355SOL    HW110694   4.614   3.149   1.806
  355SOL    HW210695   4.621   3.222   1.660
  356SOL     OW10696   3.152   1.068   1.268
  356SOL    HW110697   3.082   1.001   1.244
  356SOL    HW210698   3.240   1.040   1.229
  357SOL     OW10699   2.987   9.560   0.411
  357SOL    HW110700   2.972   9.490   0.481
  357SOL    HW210701   2.903   9.614   0.401
  358SOL     OW10702   4.095   0.857   1.225
  358SOL    HW110703   4.167   0.852   1.294
  358SOL    HW210704   4.131   0.902   1.143
  359SOL     OW10705   2.796   9.162   0.555
  359SOL    HW110706   2.721   9.194   0.614
  359SOL    HW210707   2.801   9.062   0.560
  360SOL     OW10708   3.986   1.289   2.132
  360SOL    HW110709   4.031   1.373   2.099
  360SOL    HW210710   3.887   1.304   2.137
  361SOL     OW10711   3.271   0.629   1.696
  361SOL    HW110712   3.188   0.685   1.689
  361SOL    HW210713   3.294   0.618   1.793
  362SOL     OW10714   2.679   2.382   0.237
  362SOL    HW110715   2.640   2.474   0.238
  362SOL    HW210716   2.643   2.331   0.159
  363SOL     OW10717   3.767   0.720   0.658
  363SOL    HW110718   3.743   0.656   0.732
  363SOL    HW210719   3.773   0.813   0.695
  364SOL     OW10720   2.928   2.125   0.890
  364SOL    HW110721   3.019   2.102   0.858
  364SOL    HW210722   2.930   2.215   0.934
  365SOL     OW10723   3.436   1.981   1.017
  365SOL    HW110724   3.346   1.953   0.983
  365SOL    HW210725   3.439   2.080   1.026
  366SOL     OW10726   2.234   1.706   1.582
  366SOL    HW110727   2.134   1.699   1.580
  366SOL    HW210728   2.272   1.653   1.507
  367SOL     OW10729   3.287   9.311   1.653
  367SOL    HW110730   3.364   9.352   1.701
  367SOL    HW210731   3.220   9.278   1.719
  368SOL     OW10732   3.416   9.549   0.335
  368SOL    HW110733   3.478   9.471   0.347
  368SOL    HW210734   3.467   9.626   0.297
  369SOL     OW10735   3.507   0.665   1.552
  369SOL    HW110736   3.506   0.618   1.464
  369SOL    HW210737   3.418   0.655   1.596
  370SOL     OW10738   3.706   0.855   1.885
  370SOL    HW110739   3.640   0.837   1.958
  370SOL    HW210740   3.759   0.772   1.867
  371SOL     OW10741   3.326   0.897   0.150
  371SOL    HW110742   3.229   0.915   0.139
  371SOL    HW210743   3.339   0.812   0.201
  372SOL     OW10744   2.855   2.729   0.886
  372SOL    HW110745   2.930   2.679   0.930
  372SOL    HW210746   2.770   2.712   0.936
  373SOL     OW10747   3.088   1.463   1.597
  373SOL    HW110748   3.150   1.522   1.545
  373SOL    HW210749   3.106   1.475   1.695
  374SOL     OW10750   2.676   9.901   0.920
  374SOL    HW110751   2.594   9.913   0.864
  374SOL    HW210752   2.709   9.990   0.950
  375SOL     OW10753   3.132   9.277   1.878
  375SOL    HW110754   3.036   9.283   1.904
  375SOL    HW210755   3.184   9.350   1.922
  376SOL     OW10756   2.471   0.327   1.581
  376SOL    HW110757   2.442   0.393   1.511
  376SOL    HW210758   2.392   0.297   1.634
  377SOL     OW10759   3.544   1.092   0.680
  377SOL    HW110760   3.481   1.021   0.711
  377SOL    HW210761   3.509   1.133   0.596
  378SOL     OW10762   4.243   3.351   0.852
  378SOL    HW110763   4.258   3.441   0.809
  378SOL    HW210764   4.212   3.287   0.782
  379SOL     OW10765   3.089   2.657   0.475
  379SOL    HW110766   3.085   2.597   0.395
  379SOL    HW210767   3.003   2.653   0.525
  380SOL     OW10768   3.508   2.620   2.078
  380SOL    HW110769   3.496   2.546   2.011
  380SOL    HW210770   3.593   2.668   2.059
  381SOL     OW10771   3.706   2.223   2.064
  381SOL    HW110772   3.788   2.191   2.111
  381SOL    HW210773   3.721   2.218   1.965
  382SOL     OW10774   2.905   0.275   2.159
  382SOL    HW110775   2.903   0.259   2.257
  382SOL    HW210776   2.891   0.189   2.110
  383SOL     OW10777   3.524   9.786   2.171
  383SOL    HW110778   3.559   9.699   2.205
  383SOL    HW210779   3.591   9.858   2.187
  384SOL     OW10780   2.452   1.348   0.991
  384SOL    HW110781   2.470   1.258   1.032
  384SOL    HW210782   2.416   1.336   0.899
  385SOL     OW10783   3.981   1.988   0.244
  385SOL    HW110784   4.062   1.942   0.281
  385SOL    HW210785   3.963   2.070   0.298
  386SOL     OW10786   4.223   2.300   0.660
  386SOL    HW110787   4.189   2.221   0.711
  386SOL    HW210788   4.246   2.272   0.567
  387SOL     OW10789   3.356   8.756   1.747
  387SOL    HW110790   3.271   8.718   1.711
  387SOL    HW210791   3.413   8.789   1.672
  388SOL     OW10792   2.712   0.400   0.872
  388SOL    HW110793   2.807   0.426   0.850
  388SOL    HW210794   2.659   0.482   0.892
  389SOL     OW10795   2.337   1.552   1.382
  389SOL    HW110796   2.351   1.454   1.397
  389SOL    HW210797   2.372   1.577   1.292
  390SOL     OW10798   2.757   1.374   0.654
  390SOL    HW110799   2.729   1.465   0.623
  390SOL    HW210800   2.732   1.362   0.750
  391SOL     OW10801   2.779   0.435   0.464
  391SOL    HW110802   2.741   0.502   0.400
  391SOL    HW210803   2.858   0.474   0.510
  392SOL     OW10804   3.901   1.684   0.884
  392SOL    HW110805   3.856   1.739   0.954
  392SOL    HW210806   3.895   1.587   0.910
  393SOL     OW10807   3.063   3.085   1.103
  393SOL    HW110808   3.032   3.064   1.196
  393SOL    HW210809   3.091   3.180   1.097
  394SOL     OW10810   2.396   9.954   1.914
  394SOL    HW110811   2.349   0.027   1.963
  394SOL    HW210812   2.353   9.941   1.824
  395SOL     OW10813   2.941   2.365   1.015
  395SOL    HW110814   2.868   2.358   1.082
  395SOL    HW210815   2.987   2.454   1.026
  396SOL     OW10816   3.294   2.265   0.475
  396SOL    HW110817   3.214   2.304   0.521
  396SOL    HW210818   3.266   2.222   0.389
  397SOL     OW10819   3.220   2.850   1.099
  397SOL    HW110820   3.148   2.919   1.108
  397SOL    HW210821   3.301   2.892   1.058
  398SOL     OW10822   2.677   1.621   0.572
  398SOL    HW110823   2.595   1.678   0.562
  398SOL    HW210824   2.747   1.652   0.508
  399SOL     OW10825   4.008   2.013   1.118
  399SOL    HW110826   3.982   2.102   1.080
  399SOL    HW210827   3.932   1.949   1.107
  400SOL     OW10828   3.231   9.629   0.516
  400SOL    HW110829   3.302   9.600   0.451
  400SOL    HW210830   3.141   9.605   0.479
  401SOL     OW10831   3.711   0.179   1.887
  401SOL    HW110832   3.627   0.200   1.937
  401SOL    HW210833   3.782   0.245   1.913
  402SOL     OW10834   3.374   3.189   0.367
  402SOL    HW110835   3.366   3.246   0.449
  402SOL    HW210836   3.401   3.096   0.394
  403SOL     OW10837   3.455   9.204   1.461
  403SOL    HW110838   3.380   9.222   1.525
  403SOL    HW210839   3.431   9.125   1.403
  404SOL     OW10840   2.773   1.883   2.243
  404SOL    HW110841   2.812   1.863   2.332
  404SOL    HW210842   2.830   1.843   2.171
  405SOL     OW10843   2.474   1.026   1.316
  405SOL    HW110844   2.512   0.948   1.367
  405SOL    HW210845   2.491   1.110   1.367
  406SOL     OW10846   3.305   1.848   0.509
  406SOL    HW110847   3.359   1.763   0.515
  406SOL    HW210848   3.210   1.828   0.532
  407SOL     OW10849   3.479   2.057   0.520
  407SOL    HW110850   3.421   1.976   0.520
  407SOL    HW210851   3.425   2.137   0.493
  408SOL     OW10852   3.047   0.940   0.130
  408SOL    HW110853   3.026   0.908   0.037
  408SOL    HW210854   2.964   0.934   0.186
  409SOL     OW10855   3.285   0.685   1.115
  409SOL    HW110856   3.228   0.736   1.051
  409SOL    HW210857   3.345   0.749   1.164
  410SOL     OW10858   3.692   8.887   2.092
  410SOL    HW110859   3.740   8.933   2.018
  410SOL    HW210860   3.594   8.884   2.073
  411SOL     OW10861   3.179   9.461   0.771
  411SOL    HW110862   3.223   9.488   0.685
  411SOL    HW210863   3.224   9.379   0.807
  412SOL     OW10864   2.551   2.623   0.191
  412SOL    HW110865   2.620   2.695   0.188
  412SOL    HW210866   2.460   2.663   0.176
  413SOL     OW10867   4.280   2.347   2.143
  413SOL    HW110868   4.360   2.406   2.132
  413SOL    HW210869   4.205   2.400   2.183
  414SOL     OW10870   4.365   3.759   0.444
  414SOL    HW110871   4.274   3.738   0.481
  414SOL    HW210872   4.422   3.677   0.446
  415SOL     OW10873   2.789   0.670   1.370
  415SOL    HW110874   2.751   0.613   1.298
  415SOL    HW210875   2.718   0.732   1.405
  416SOL     OW10876   2.339   2.067   2.165
  416SOL    HW110877   2.326   1.974   2.132
  416SOL    HW210878   2.437   2.084   2.179
  417SOL     OW10879   4.223   1.670   0.170
  417SOL    HW110880   4.138   1.628   0.204
  417SOL    HW210881   4.229   1.656   0.071
  418SOL     OW10882   2.905   0.541   0.159
  418SOL    HW110883   2.976   0.544   0.229
  418SOL    HW210884   2.945   0.509   0.073
  419SOL     OW10885   2.297   9.952   1.656
  419SOL    HW110886   2.381   9.988   1.618
  419SOL    HW210887   2.241   9.911   1.584
  420SOL     OW10888   2.316   1.113   2.207
  420SOL    HW110889   2.233   1.057   2.217
  420SOL    HW210890   2.317   1.154   2.116
  421SOL     OW10891   3.174   1.201   0.513
  421SOL    HW110892   3.097   1.214   0.576
  421SOL    HW210893   3.140   1.193   0.420
  422SOL     OW10894   2.486   1.353   0.285
  422SOL    HW110895   2.578   1.342   0.322
  422SOL    HW210896   2.420   1.312   0.347
  423SOL     OW10897   2.309   1.226   1.962
  423SOL    HW110898   2.327   1.164   1.886
  423SOL    HW210899   2.318   1.321   1.931
  424SOL     OW10900   2.999   2.492   0.151
  424SOL    HW110901   2.938   2.568   0.172
  424SOL    HW210902   2.958   2.406   0.184
  425SOL     OW10903   3.035   1.591   0.190
  425SOL    HW110904   3.007   1.526   0.120
  425SOL    HW210905   3.132   1.579   0.210
  426SOL     OW10906   2.686   0.986   1.979
  426SOL    HW110907   2.774   0.945   1.955
  426SOL    HW210908   2.618   0.915   1.993
  427SOL     OW10909   3.604   9.430   1.006
  427SOL    HW110910   3.617   9.451   0.909
  427SOL    HW210911   3.508   9.444   1.031
  428SOL     OW10912   4.513   2.324   1.862
  428SOL    HW110913   4.519   2.225   1.876
  428SOL    HW210914   4.557   2.348   1.775
  429SOL     OW10915   2.932   9.173   1.230
  429SOL    HW110916   2.927   9.085   1.181
  429SOL    HW210917   2.840   9.198   1.262
  430SOL     OW10918   4.154   2.066   0.786
  430SOL    HW110919   4.209   2.038   0.865
  430SOL    HW210920   4.098   1.990   0.755
  431SOL     OW10921   4.147   1.407   1.087
  431SOL    HW110922   4.070   1.387   1.026
  431SOL    HW210923   4.111   1.433   1.177
  432SOL     OW10924   3.987   1.478   1.306
  432SOL    HW110925   4.014   1.573   1.290
  432SOL    HW210926   3.890   1.467   1.285
  433SOL     OW10927   2.837   9.628   1.248
  433SOL    HW110928   2.864   9.549   1.194
  433SOL    HW210929   2.908   9.647   1.317
  434SOL     OW10930   2.807   1.514   2.110
  434SOL    HW110931   2.735   1.511   2.180
  434SOL    HW210932   2.830   1.609   2.090
  435SOL     OW10933   2.537   1.090   1.058
  435SOL    HW110934   2.637   1.081   1.053
  435SOL    HW210935   2.507   1.064   1.150
  436SOL     OW10936   2.876   1.712   0.383
  436SOL    HW110937   2.928   1.667   0.310
  436SOL    HW210938   2.939   1.744   0.454
  437SOL     OW10939   3.529   8.943   0.660
  437SOL    HW110940   3.558   8.877   0.591
  437SOL    HW210941   3.516   9.033   0.618
  438SOL     OW10942   3.027   2.946   0.853
  438SOL    HW110943   3.031   3.001   0.937
  438SOL    HW210944   2.956   2.876   0.862
  439SOL     OW10945   4.284   2.518   1.645
  439SOL    HW110946   4.299   2.615   1.664
  439SOL    HW210947   4.248   2.473   1.727
  440SOL     OW10948   3.431   3.570   0.390
  440SOL    HW110949   3.383   3.584   0.304
  440SOL    HW210950   3.529   3.558   0.371
  441SOL     OW10951   3.532   0.913   0.978
  441SOL    HW110952   3.460   0.904   0.910
  441SOL    HW210953   3.619   0.933   0.933
  442SOL     OW10954   3.044   9.615   0.948
  442SOL    HW110955   2.997   9.550   1.008
  442SOL    HW210956   3.095   9.564   0.879
  443SOL     OW10957   2.553   0.799   1.450
  443SOL    HW110958   2.553   0.820   1.547
  443SOL    HW210959   2.505   0.713   1.434
  444SOL     OW10960   2.626   2.261   0.812
  444SOL    HW110961   2.550   2.314   0.851
  444SOL    HW210962   2.642   2.180   0.868
  445SOL     OW10963   3.041   1.317   1.335
  445SOL    HW110964   3.082   1.228   1.316
  445SOL    HW210965   3.055   1.341   1.431
  446SOL     OW10966   3.596   3.927   0.235
  446SOL    HW110967   3.624   4.017   0.268
  446SOL    HW210968   3.570   3.870   0.313
  447SOL     OW10969   3.890   0.338   2.051
  447SOL    HW110970   3.964   0.403   2.034
  447SOL    HW210971   3.928   0.254   2.091
  448SOL     OW10972   2.706   9.986   1.363
  448SOL    HW110973   2.756   9.934   1.432
  448SOL    HW210974   2.676   9.924   1.290
  449SOL     OW10975   2.901   1.308   1.954
  449SOL    HW110976   2.957   1.253   2.017
  449SOL    HW210977   2.860   1.384   2.005
  450SOL     OW10978   3.104   3.269   0.546
  450SOL    HW110979   3.189   3.321   0.560
  450SOL    HW210980   3.076   3.275   0.451
  451SOL     OW10981   4.313   0.841   1.410
  451SOL    HW110982   4.321   0.826   1.509
  451SOL    HW210983   4.341   0.935   1.389
  452SOL     OW10984   3.426   1.629   1.304
  452SOL    HW110985   3.340   1.634   1.355
  452SOL    HW210986   3.491   1.571   1.353
  453SOL     OW10987   3.468   3.668   1.209
  453SOL    HW110988   3.532   3.597   1.181
  453SOL    HW210989   3.484   3.692   1.304
  454SOL     OW10990   3.749   3.296   0.735
  454SOL    HW110991   3.654   3.318   0.757
  454SOL    HW210992   3.809   3.363   0.778
  455SOL     OW10993   3.973   3.861   0.653
  455SOL    HW110994   3.882   3.844   0.690
  455SOL    HW210995   3.972   3.946   0.599
  456SOL     OW10996   3.536   0.012   1.713
  456SOL    HW110997   3.520   9.941   1.781
  456SOL    HW210998   3.585   0.088   1.755
  457SOL     OW10999   2.622   0.119   1.963
  457SOL    HW111000   2.711   0.082   1.992
  457SOL    HW211001   2.567   0.045   1.925
  458SOL     OW11002   4.270   1.990   1.035
  458SOL    HW111003   4.322   2.061   1.083
  458SOL    HW211004   4.174   1.995   1.062
  459SOL     OW11005   2.841   9.716   0.787
  459SOL    HW111006   2.781   9.780   0.835
  459SOL    HW211007   2.908   9.678   0.850
  460SOL     OW11008   4.019   3.105   1.890
  460SOL    HW111009   4.032   3.016   1.933
  460SOL    HW211010   3.928   3.108   1.847
  461SOL     OW11011   4.292   3.882   2.184
  461SOL    HW111012   4.335   3.836   2.106
  461SOL    HW211013   4.193   3.885   2.170
  462SOL     OW11014   4.689   3.374   1.610
  462SOL    HW111015   4.682   3.430   1.528
  462SOL    HW211016   4.740   3.424   1.680
  463SOL     OW11017   3.252   9.723   1.847
  463SOL    HW111018   3.208   9.801   1.802
  463SOL    HW211019   3.348   9.745   1.865
  464SOL     OW11020   3.698   2.035   1.388
  464SOL    HW111021   3.774   1.970   1.389
  464SOL    HW211022   3.618   1.993   1.344
  465SOL     OW11023   3.681   2.208   1.787
  465SOL    HW111024   3.692   2.280   1.719
  465SOL    HW211025   3.673   2.120   1.741
  466SOL     OW11026   3.148   9.301   0.331
  466SOL    HW111027   3.066   9.351   0.359
  466SOL    HW211028   3.199   9.356   0.264
  467SOL     OW11029   3.421   1.962   1.824
  467SOL    HW111030   3.499   1.980   1.764
  467SOL    HW211031   3.419   2.030   1.897
  468SOL     OW11032   3.539   1.566   0.783
  468SOL    HW111033   3.513   1.600   0.873
  468SOL    HW211034   3.588   1.480   0.793
  469SOL     OW11035   3.038   1.800   0.587
  469SOL    HW111036   3.056   1.754   0.674
  469SOL    HW211037   2.985   1.883   0.604
  470SOL     OW11038   3.050   2.682   1.381
  470SOL    HW111039   3.089   2.752   1.441
  470SOL    HW211040   3.097   2.685   1.293
  471SOL     OW11041   4.980   4.202   1.995
  471SOL    HW111042   4.991   4.280   1.933
  471SOL    HW211043   4.884   4.176   1.998
  472SOL     OW11044   3.191   1.913   0.926
  472SOL    HW111045   3.159   1.821   0.902
  472SOL    HW211046   3.187   1.972   0.845
  473SOL     OW11047   2.371   0.229   2.005
  473SOL    HW111048   2.369   0.317   2.052
  473SOL    HW211049   2.466   0.199   1.996
  474SOL     OW11050   2.472   1.329   1.704
  474SOL    HW111051   2.430   1.400   1.760
  474SOL    HW211052   2.552   1.293   1.751
  475SOL     OW11053   3.090   2.360   0.628
  475SOL    HW111054   2.990   2.367   0.638
  475SOL    HW211055   3.134   2.403   0.707
  476SOL     OW11056   3.287   0.317   0.303
  476SOL    HW111057   3.267   0.225   0.338
  476SOL    HW211058   3.341   0.309   0.219
  477SOL     OW11059   3.445   2.441   1.869
  477SOL    HW111060   3.347   2.421   1.865
  477SOL    HW211061   3.496   2.356   1.876
  478SOL     OW11062   3.831   2.802   0.648
  478SOL    HW111063   3.770   2.877   0.623
  478SOL    HW211064   3.924   2.838   0.658
  479SOL     OW11065   3.232   3.626   1.077
  479SOL    HW111066   3.188   3.713   1.054
  479SOL    HW211067   3.316   3.643   1.128
  480SOL     OW11068   4.676   3.545   1.396
  480SOL    HW111069   4.680   3.540   1.296
  480SOL    HW211070   4.670   3.640   1.425
  481SOL     OW11071   4.301   2.363   0.949
  481SOL    HW111072   4.346   2.346   0.861
  481SOL    HW211073   4.202   2.362   0.935
  482SOL     OW11074   3.625   2.596   0.131
  482SOL    HW111075   3.578   2.643   0.206
  482SOL    HW211076   3.590   2.629   0.044
  483SOL     OW11077   2.884   9.332   1.987
  483SOL    HW111078   2.862   9.307   2.081
  483SOL    HW211079   2.803   9.319   1.929
  484SOL     OW11080   3.268   2.228   1.216
  484SOL    HW111081   3.248   2.292   1.290
  484SOL    HW211082   3.199   2.156   1.214
  485SOL     OW11083   3.508   1.891   1.268
  485SOL    HW111084   3.475   1.798   1.285
  485SOL    HW211085   3.467   1.925   1.183
  486SOL     OW11086   2.439   0.643   0.128
  486SOL    HW111087   2.426   0.714   0.059
  486SOL    HW211088   2.351   0.617   0.166
  487SOL     OW11089   3.584   4.090   2.145
  487SOL    HW111090   3.627   4.172   2.107
  487SOL    HW211091   3.520   4.052   2.078
  488SOL     OW11092   2.476   2.131   1.914
  488SOL    HW111093   2.381   2.147   1.942
  488SOL    HW211094   2.533   2.119   1.994
  489SOL     OW11095   2.852   2.651   0.617
  489SOL    HW111096   2.850   2.685   0.711
  489SOL    HW211097   2.826   2.555   0.616
  490SOL     OW11098   3.948   2.513   1.640
  490SOL    HW111099   4.011   2.469   1.576
  490SOL    HW211100   3.858   2.470   1.632
  491SOL     OW11101   3.644   2.214   0.671
  491SOL    HW111102   3.577   2.159   0.621
  491SOL    HW211103   3.670   2.293   0.616
  492SOL     OW11104   3.250   2.873   0.422
  492SOL    HW111105   3.196   2.788   0.426
  492SOL    HW211106   3.203   2.944   0.475
  493SOL     OW11107   3.206   3.353   1.111
  493SOL    HW111108   3.270   3.347   1.188
  493SOL    HW211109   3.191   3.449   1.088
  494SOL     OW11110   3.218   9.506   2.012
  494SOL    HW111111   3.228   9.586   1.954
  494SOL    HW211112   3.125   9.502   2.048
  495SOL     OW11113   3.073   2.617   1.006
  495SOL    HW111114   3.126   2.562   0.942
  495SOL    HW211115   3.125   2.699   1.031
  496SOL     OW11116   2.758   9.705   0.367
  496SOL    HW111117   2.803   9.795   0.367
  496SOL    HW211118   2.730   9.682   0.274
  10.00000  10.00000   2.87600
