Written by MDAnalysis
17154
    1CHTO  H203    1   5.931   7.003   2.165 -0.3952  0.3941  0.8223
    1CHTO   O82    2   5.916   6.937   2.230 -1.1785 -0.3773 -0.1274
    1CHTO  C123    3   6.024   6.925   2.326  0.5197 -0.2000 -0.9934
    1CHTO  H227    4   6.014   7.008   2.397  2.3165 -0.5204 -0.3517
    1CHTO   O77    5   5.989   6.795   2.378 -0.0150 -0.2808  0.0198
    1CHTO  C118    6   6.075   6.753   2.478 -0.3522  0.0452  0.1487
    1CHTO  H222    7   6.084   6.829   2.557  1.5587  0.2568 -0.2621
    1CHTO  C125    8   6.013   6.615   2.543  0.2932  0.4811 -0.1277
    1CHTO   O84    9   6.050   6.581   2.679  0.4565  0.0308 -0.9228
    1CHTO  H205   10   6.143   6.596   2.677  0.5594 -0.6917 -2.2551
    1CHTO  C114   11   6.219   6.737   2.430 -0.3561  0.6135 -0.1620
    1CHTO  H218   12   6.219   6.665   2.348 -0.5482 -0.6962  0.9573
    1CHTO  C116   13   6.261   6.873   2.368 -0.3829  0.4547  0.2760
    1CHTO  H220   14   6.274   6.940   2.455  0.1404  0.1420  0.4425
    1CHTO   O79   15   6.389   6.851   2.307 -0.1422  0.1066  0.4035
    1CHTO  H201   16   6.449   6.832   2.376  1.0199 -0.4922 -0.7518
    1CHTO  C120   17   6.161   6.930   2.255 -0.9516 -0.1737 -0.0924
    1CHTO  H224   18   6.160   6.856   2.172 -0.2399 -0.4776  0.1629
    1CHTO   N21   19   6.190   7.059   2.198  1.1547  0.4401 -0.7040
    1CHTO  H211   20   6.152   7.065   2.098  0.9696  1.3176 -0.5825
    1CHTO  H212   21   6.294   7.086   2.211  0.7178  2.3312 -1.0071
    1CHTO   O75   22   6.292   6.692   2.551 -0.2607 -0.2068  0.9393
    1CHTO  C112   23   6.367   6.548   2.515 -0.0599  0.0863 -0.0718
    1CHTO  H216   24   6.378   6.524   2.408  2.0263 -1.7414  0.5165
    1CHTO   O73   25   6.294   6.446   2.589  0.2695  0.3357  0.7890
    1CHTO  C113   26   6.327   6.312   2.558 -0.5744 -0.7250  0.0291
    1CHTO  H217   27   6.324   6.294   2.448  0.2799  1.0273 -0.2981
    1CHTO  C124   28   6.216   6.227   2.616 -0.2998  0.5699 -0.4614
    1CHTO   O83   29   6.092   6.262   2.571  0.6830 -0.3791  0.1053
    1CHTO  H204   30   6.032   6.209   2.620  0.2643 -3.0277 -3.1041
    1CHTO  C109   31   6.479   6.287   2.592 -0.3097  0.4726 -0.2832
    1CHTO  H213   32   6.489   6.285   2.701  1.3815  0.2188 -0.4286
    1CHTO  C110   33   6.569   6.404   2.535 -0.5186  0.1832  0.8193
    1CHTO  H214   34   6.565   6.387   2.428 -0.0479 -1.2549  1.0079
    1CHTO   O78   35   6.703   6.389   2.582 -0.4586  0.0968  0.0206
    1CHTO  H200   36   6.763   6.431   2.524 -1.2470 -0.2486 -1.0636
    1CHTO  C111   37   6.519   6.550   2.560 -0.0133 -0.1763  0.7115
    1CHTO  H215   38   6.515   6.569   2.669 -1.7615 -0.8637  0.7945
    1CHTO   N19   39   6.600   6.660   2.494  0.6507  0.4712 -0.1090
    1CHTO  H207   40   6.562   6.758   2.519 -0.6135 -0.1900  0.6678
    1CHTO  H208   41   6.619   6.639   2.390 -1.3906 -0.3482 -0.3571
    1CHTO   O74   42   6.530   6.155   2.531  0.1374  0.1799 -0.0066
    1CHTO  C115   43   6.626   6.064   2.609 -0.5216  0.4480 -0.0688
    1CHTO  H219   44   6.616   6.082   2.716 -2.0490  3.7360 -0.7008
    1CHTO   O76   45   6.582   5.914   2.600 -0.3196  0.4253  0.2219
    1CHTO  C122   46   6.599   5.855   2.460 -0.0155  0.0049 -0.1668
    1CHTO  H226   47   6.507   5.866   2.402 -0.9102  3.6298  1.8542
    1CHTO  C126   48   6.634   5.701   2.466 -0.2074 -0.3959 -0.4238
    1CHTO   O85   49   6.519   5.639   2.533 -0.1425 -0.0714 -0.0587
    1CHTO  H206   50   6.549   5.590   2.607 -0.9419 -0.0000  0.3280
    1CHTO  C121   51   6.724   5.911   2.384 -0.0621 -0.2342  0.1279
    1CHTO  H225   52   6.772   5.833   2.321 -0.1691 -1.0426  1.0436
    1CHTO   O81   53   6.682   6.005   2.289 -0.1804  0.2530 -0.6537
    1CHTO  H202   54   6.729   5.994   2.209 -0.0737  0.1663 -0.5791
    1CHTO  C119   55   6.829   5.975   2.480 -0.3638 -0.1362 -0.1769
    1CHTO  H223   56   6.861   5.891   2.541 -1.2685 -0.6424 -0.3916
    1CHTO  C117   57   6.778   6.090   2.570 -0.0879 -0.1430 -0.0913
    1CHTO  H221   58   6.780   6.187   2.519 -0.3421  0.0988  0.3561
    1CHTO   N20   59   6.866   6.119   2.687 -0.5338  0.3437 -0.0781
    1CHTO  H209   60   6.863   6.042   2.762 -1.9142  1.5117  1.1057
    1CHTO  H210   61   6.939   6.197   2.675  0.6886 -0.8430 -0.4529
    1CHTO   O80   62   6.976   6.006   2.407  0.3100  0.2948 -0.2046
    1CHTO  C103   63   7.105   5.927   2.465  0.6550  0.1252 -0.2795
    1CHTO  H190   64   7.108   5.939   2.573 -1.3198  3.7193 -0.5206
    1CHTO  C101   65   7.111   5.777   2.422  0.5860 -1.0534  0.1241
    1CHTO  H188   66   7.112   5.761   2.315 -0.6494  1.6479 -0.3218
    1CHTO   O68   67   6.987   5.697   2.489  0.2953  0.2452 -0.6106
    1CHTO  H168   68   7.017   5.610   2.508 -0.5908 -0.1786 -1.1308
    1CHTO   C99   69   7.266   5.723   2.457  1.3547 -0.0769  0.0464
    1CHTO  H186   70   7.296   5.733   2.564  2.3520 -1.0231 -0.1357
    1CHTO   N17   71   7.282   5.588   2.415 -0.3131 -0.0717 -0.3332
    1CHTO  H174   72   7.341   5.576   2.325  2.7368 -0.3959  1.6165
    1CHTO  H175   73   7.325   5.527   2.493  0.7532  3.2015  1.7403
    1CHTO   C97   74   7.366   5.820   2.390  0.0591 -0.3025 -0.1725
    1CHTO  H184   75   7.348   5.824   2.282 -0.3165  0.2802 -0.0869
    1CHTO   O64   76   7.349   5.946   2.452 -0.3697 -0.1526 -0.1501
    1CHTO  C104   77   7.227   6.002   2.410 -0.0236  0.5582  0.1116
    1CHTO  H191   78   7.218   6.002   2.302 -0.0592 -1.2217  0.1055
    1CHTO  C108   79   7.216   6.151   2.455 -0.6376 -0.7534 -0.3498
    1CHTO   O71   80   7.331   6.224   2.411  0.1819  0.5198  0.2186
    1CHTO  H171   81   7.394   6.214   2.480 -1.0017 -1.9670  1.0128
    1CHTO   O62   82   7.496   5.787   2.428  0.0041  0.8345 -0.1726
    1CHTO   C91   83   7.596   5.797   2.322 -0.2655 -0.4155  0.2236
    1CHTO  H178   84   7.546   5.855   2.244 -0.5002  0.4328  0.9957
    1CHTO   C92   85   7.633   5.659   2.252 -0.4735 -0.7887  0.2596
    1CHTO  H179   86   7.537   5.607   2.239 -0.0663 -1.4761 -0.0422
    1CHTO   O66   87   7.668   5.703   2.113  0.3185 -0.1874 -0.0879
    1CHTO  H166   88   7.655   5.632   2.053 -0.1318 -0.2777  0.1113
    1CHTO   C93   89   7.754   5.571   2.310  0.4126 -0.0954 -0.3144
    1CHTO  H180   90   7.779   5.495   2.235 -2.3162 -0.2390 -1.1160
    1CHTO   N16   91   7.712   5.494   2.425  0.1512  0.2956 -0.1770
    1CHTO  H172   92   7.719   5.543   2.520  0.1783  2.6562 -1.3629
    1CHTO  H173   93   7.766   5.400   2.426 -0.5576 -0.1169  0.0515
    1CHTO   C94   94   7.879   5.662   2.338 -0.1468  0.1357  0.0950
    1CHTO  H181   95   7.922   5.651   2.437  0.7114 -1.8492 -0.4643
    1CHTO   O61   96   7.847   5.799   2.324 -0.1990 -0.1378  0.0365
    1CHTO   C95   97   7.732   5.861   2.382  0.0651  0.0704 -0.3501
    1CHTO  H182   98   7.732   5.850   2.490 -0.2087  2.3258 -0.0861
    1CHTO  C106   99   7.735   6.012   2.344 -0.0480 -0.6562 -0.0046
    1CHTO   O69  100   7.628   6.089   2.407  0.1445  0.8249 -0.2270
    1CHTO  H169  101   7.603   6.043   2.484  3.9000  0.1452  0.6681
    1CHTO   O63  102   7.986   5.633   2.242 -0.1482  0.3819 -0.2217
    1CHTO   C96  103   8.094   5.537   2.295  0.2009 -0.5362  0.0294
    1CHTO  H183  104   8.087   5.529   2.403  1.7707  2.0949  0.3459
    1CHTO   C98  105   8.238   5.596   2.278 -0.5501  0.6926 -0.8136
    1CHTO  H185  106   8.236   5.704   2.300 -2.5845  0.3056  1.0885
    1CHTO   O67  107   8.342   5.539   2.364  0.1917  0.2690  0.0244
    1CHTO  H167  108   8.362   5.605   2.428  0.3017  0.7847 -0.5290
    1CHTO  C102  109   8.288   5.575   2.130 -0.0906  0.0267  0.6222
    1CHTO  H189  110   8.395   5.599   2.122  0.3042 -1.0593  2.2043
    1CHTO   N18  111   8.218   5.658   2.027 -0.5893 -0.2416 -0.1610
    1CHTO  H176  112   8.110   5.645   2.027 -0.6459  0.1554  1.0426
    1CHTO  H177  113   8.259   5.665   1.928 -1.0589  0.4986 -0.3091
    1CHTO  C105  114   8.284   5.427   2.091 -0.8954  0.2831 -0.9620
    1CHTO  H192  115   8.314   5.416   1.987  1.5143  0.0589 -0.2939
    1CHTO   O65  116   8.156   5.361   2.105 -0.1788 -0.8199 -0.1978
    1CHTO  C100  117   8.073   5.396   2.222  0.2948  0.1758  0.7770
    1CHTO  H187  118   7.975   5.392   2.174  0.4111 -2.9387  0.7022
    1CHTO  C107  119   8.078   5.278   2.326 -0.1121  0.3548 -0.1188
    1CHTO   O70  120   8.202   5.211   2.337  0.0466 -0.8144 -0.1789
    1CHTO  H170  121   8.220   5.203   2.429 -1.0328 -0.8426  0.0484
    1CHTO   O57  122   8.398   5.350   2.177 -0.2535  0.0110  0.1112
    1CHTO   C85  123   8.482   5.258   2.105 -0.1015  0.0294  0.4489
    1CHTO  H157  124   8.432   5.222   2.012  1.0753 -1.2634  0.3087
    1CHTO   C83  125   8.492   5.134   2.195 -0.3367 -0.9620 -0.4775
    1CHTO  H155  126   8.395   5.083   2.190 -0.2168 -1.3845  1.1001
    1CHTO   O56  127   8.514   5.167   2.337 -0.0417  0.2298 -0.3859
    1CHTO  H135  128   8.517   5.084   2.380  0.4826  1.3891  1.9138
    1CHTO   C81  129   8.604   5.042   2.142 -0.0786 -0.5987  0.3884
    1CHTO  H153  130   8.591   5.027   2.035  1.4616  1.0714 -0.0735
    1CHTO   N14  131   8.595   4.903   2.185  0.0472 -0.8400 -0.2744
    1CHTO  H141  132   8.684   4.850   2.157 -0.0885 -0.1442 -2.0934
    1CHTO  H142  133   8.583   4.907   2.291  0.9408  0.6849 -0.2134
    1CHTO   C79  134   8.747   5.114   2.154  0.0669  0.3515  0.3133
    1CHTO  H151  135   8.823   5.045   2.120  0.0924  1.5238 -2.1317
    1CHTO   O52  136   8.740   5.233   2.062 -0.0723 -0.3222  0.0528
    1CHTO   C86  137   8.624   5.324   2.073  0.7817 -0.0178 -0.3821
    1CHTO  H158  138   8.644   5.389   2.160 -2.2293  0.9395 -0.3551
    1CHTO   C90  139   8.608   5.424   1.956  0.6056 -0.2469 -0.0236
    1CHTO   O60  140   8.559   5.374   1.837 -0.3318  0.2727 -0.1381
    1CHTO  H138  141   8.610   5.299   1.812  1.1433  1.5022 -0.9290
    1CHTO   O50  142   8.768   5.160   2.287  0.2614  0.6414 -0.1815
    1CHTO   C73  143   8.871   5.174   2.385 -0.0903  0.0110 -0.5627
    1CHTO  H145  144   8.962   5.215   2.338  0.0683  0.3095 -0.0102
    1CHTO   C74  145   8.901   5.031   2.445  0.3913 -0.1976  0.5563
    1CHTO  H146  146   8.933   4.961   2.367 -0.1384  0.7236 -0.5060
    1CHTO   O54  147   9.013   5.044   2.531  0.4121  0.7237  0.1051
    1CHTO  H133  148   9.054   4.960   2.539 -0.3863  0.3408  0.2683
    1CHTO   C75  149   8.778   4.980   2.516  0.1337 -0.4389  0.3543
    1CHTO  H147  150   8.694   4.980   2.445  0.3782 -0.1543  0.0674
    1CHTO   N13  151   8.797   4.840   2.557  0.6243 -0.0958  0.0167
    1CHTO  H139  152   8.839   4.835   2.657  0.8349  0.5970 -0.0340
    1CHTO  H140  153   8.709   4.778   2.556  0.6712 -0.1869  1.0718
    1CHTO   C76  154   8.738   5.075   2.640  0.6009 -0.3015  0.6894
    1CHTO  H148  155   8.814   5.076   2.718 -0.0810 -1.3608  1.3923
    1CHTO   O49  156   8.713   5.204   2.583 -0.5451  0.0595  0.4125
    1CHTO   C77  157   8.826   5.262   2.506  0.7121  0.0852 -1.0176
    1CHTO  H149  158   8.908   5.288   2.574 -0.7197 -0.8853  1.1416
    1CHTO   C88  159   8.782   5.396   2.446  1.0307 -0.7127  0.8948
    1CHTO   O58  160   8.881   5.472   2.375  0.5218  0.1894  0.3413
    1CHTO  H136  161   8.835   5.536   2.324 -1.3131 -0.9046  0.5631
    1CHTO   O51  162   8.583   5.021   2.713 -0.0419 -0.2660  0.3491
    1CHTO   C78  163   8.493   5.117   2.770 -0.6520 -0.2397  0.5018
    1CHTO  H150  164   8.509   5.221   2.735 -1.3252 -0.8114 -1.5359
    1CHTO   C80  165   8.512   5.110   2.919 -0.5075 -0.0327 -0.5337
    1CHTO  H152  166   8.490   5.006   2.952 -0.0205  0.0262 -0.0222
    1CHTO   O55  167   8.652   5.126   2.944  0.5431  0.0001  0.1479
    1CHTO  H134  168   8.667   5.133   3.036  1.7369  1.7262 -0.1291
    1CHTO   C84  169   8.422   5.217   2.985  0.6267 -0.0187 -0.6444
    1CHTO  H156  170   8.463   5.313   2.953  0.1095  0.4836  0.1423
    1CHTO   N15  171   8.448   5.215   3.140 -0.3694  0.0550 -0.0987
    1CHTO  H143  172   8.414   5.127   3.190 -0.7403  0.5456  0.5167
    1CHTO  H144  173   8.555   5.221   3.142 -0.4161  0.9498 -0.3055
    1CHTO   C87  174   8.275   5.225   2.940  0.5204  0.0653 -0.3831
    1CHTO  H159  175   8.216   5.151   2.994  1.3562  0.8397  1.6408
    1CHTO   O53  176   8.267   5.193   2.773 -0.2134 -0.6576 -0.3752
    1CHTO   C82  177   8.347   5.081   2.738 -0.4158  0.1991 -0.5338
    1CHTO  H154  178   8.323   4.992   2.796  0.8399 -0.5924 -1.2110
    1CHTO   C89  179   8.336   5.047   2.585 -0.1435 -0.1059 -0.4517
    1CHTO   O59  180   8.199   5.012   2.561  0.3841 -0.2793  0.1147
    1CHTO  H137  181   8.181   4.982   2.474 -2.3926 -0.4235  0.6625
    1CHTO   O45  182   8.214   5.380   2.981 -0.4995 -0.6513 -0.2113
    1CHTO   C67  183   8.239   5.474   2.878 -0.1903 -0.2232 -0.5643
    1CHTO  H124  184   8.326   5.449   2.816  0.1909 -0.2866 -0.0032
    1CHTO   C65  185   8.112   5.488   2.791 -0.1244  0.2229 -0.6747
    1CHTO  H122  186   8.048   5.404   2.818  0.0316  0.0297 -0.8989
    1CHTO   O44  187   8.150   5.469   2.653 -0.6396 -0.5509  0.1829
    1CHTO  H102  188   8.077   5.444   2.599 -1.9228  2.4916  0.4095
    1CHTO   C63  189   8.035   5.626   2.817 -0.1491  0.2573 -0.8476
    1CHTO  H120  190   8.008   5.639   2.921  2.2689  2.7970 -0.5013
    1CHTO   N11  191   7.907   5.631   2.747 -0.1851  0.7068 -0.3679
    1CHTO  H108  192   7.828   5.620   2.817 -0.2817 -1.0185 -0.7456
    1CHTO  H109  193   7.891   5.721   2.691 -2.7629 -0.2262 -1.1713
    1CHTO   C61  194   8.131   5.740   2.789 -0.8305 -0.3563 -0.3296
    1CHTO  H118  195   8.092   5.836   2.825  0.3367  0.7356 -1.9018
    1CHTO   O40  196   8.267   5.727   2.852 -0.3734 -0.1587 -0.0434
    1CHTO   C68  197   8.274   5.612   2.940 -0.3375  0.0299  0.2929
    1CHTO  H125  198   8.204   5.636   3.024 -0.5100  0.0515  0.1444
    1CHTO   C72  199   8.415   5.616   3.001 -0.0279  0.3452  0.3776
    1CHTO   O48  200   8.525   5.592   2.908  0.4890 -0.5690 -0.4754
    1CHTO  H105  201   8.528   5.666   2.850 -0.5257  0.3842  0.6564
    1CHTO   O38  202   8.175   5.755   2.653  0.2191 -0.4119 -0.5927
    1CHTO   C55  203   8.200   5.895   2.614 -0.1373 -0.1786 -0.2483
    1CHTO  H112  204   8.196   5.960   2.702  1.2252  0.7285 -0.8358
    1CHTO   C56  205   8.097   5.944   2.506  0.5031  0.5138  0.2515
    1CHTO  H113  206   8.071   5.856   2.446  1.8931 -1.6791  2.7196
    1CHTO   O42  207   7.978   5.965   2.574  0.0245 -0.4209 -0.1500
    1CHTO  H100  208   7.905   5.991   2.521 -0.3074 -0.6734  0.1825
    1CHTO   C57  209   8.141   6.066   2.425  0.6614  0.4005 -0.0044
    1CHTO  H114  210   8.052   6.128   2.414 -0.4629 -1.5098 -1.9136
    1CHTO   N10  211   8.168   6.037   2.286  0.0410  0.3324  0.5132
    1CHTO  H106  212   8.197   6.123   2.229 -1.8161 -0.0210 -1.0175
    1CHTO  H107  213   8.081   5.991   2.242  0.9686 -0.0085 -1.0318
    1CHTO   C58  214   8.252   6.142   2.499  0.0353 -0.2488  0.4817
    1CHTO  H115  215   8.301   6.214   2.431  1.7226 -0.9120  0.9622
    1CHTO   O37  216   8.363   6.055   2.530  0.7169  0.4308  0.5012
    1CHTO   C59  217   8.344   5.915   2.558 -1.2304 -0.4800  0.0378
    1CHTO  H116  218   8.358   5.860   2.465 -0.6417 -0.8512  0.3424
    1CHTO   C70  219   8.459   5.891   2.653  0.1430  0.2574 -0.2226
    1CHTO   O46  220   8.455   5.970   2.774  0.0753  0.3135 -0.1717
    1CHTO  H103  221   8.373   5.963   2.818 -0.1069 -0.5605 -0.6378
    1CHTO   O39  222   8.193   6.216   2.638  0.2717  0.0122 -0.6098
    1CHTO   C60  223   8.115   6.337   2.613  0.2632  0.0152  0.1459
    1CHTO  H117  224   8.132   6.358   2.507 -2.2847 -0.4595 -0.3884
    1CHTO   C62  225   7.966   6.321   2.638 -0.7274  0.0620 -0.0198
    1CHTO  H119  226   7.927   6.242   2.572 -0.2937 -0.5882  0.4953
    1CHTO   O43  227   7.951   6.282   2.778  0.1779 -0.4692 -0.9280
    1CHTO  H101  228   7.887   6.217   2.800 -0.5318  0.9616  1.3981
    1CHTO   C66  229   7.896   6.456   2.594 -0.2859 -0.4062  0.7649
    1CHTO  H123  230   7.912   6.475   2.488  0.1321  0.3901  0.9631
    1CHTO   N12  231   7.750   6.453   2.607 -0.6525 -0.6310  0.2025
    1CHTO  H110  232   7.728   6.417   2.706 -1.2519 -2.4985 -0.5853
    1CHTO  H111  233   7.709   6.406   2.519  0.8592  0.9015 -1.3418
    1CHTO   C69  234   7.957   6.576   2.669  1.1536  0.5614 -0.0409
    1CHTO  H126  235   7.941   6.574   2.779  0.2105 -0.5984 -0.1868
    1CHTO   O41  236   8.105   6.577   2.635 -0.2909  0.0335  0.1857
    1CHTO   C64  237   8.179   6.458   2.691  0.0219  0.3486 -0.1677
    1CHTO  H121  238   8.156   6.446   2.799  0.1346 -0.2576 -0.2067
    1CHTO   C71  239   8.330   6.475   2.666 -0.8283  0.1292 -0.1797
    1CHTO   O47  240   8.402   6.398   2.764 -0.5257  0.3290  0.4993
    1CHTO  H104  241   8.490   6.427   2.782 -0.8488  1.3566  0.4367
    1CHTO   O34  242   7.894   6.714   2.628  0.7154 -0.0135 -0.2269
    1CHTO   C49  243   7.951   6.829   2.698 -0.2731 -0.0573  0.1467
    1CHTO   H91  244   8.036   6.796   2.757  1.3683  1.6119 -1.2097
    1CHTO   C47  245   7.852   6.896   2.798 -0.0296  0.2918  0.0923
    1CHTO   H89  246   7.908   6.973   2.854  0.2679 -0.1067  0.3445
    1CHTO   O33  247   7.811   6.791   2.885  0.6977  0.0710 -0.4451
    1CHTO   H70  248   7.756   6.729   2.840 -0.2081  0.3270  0.2893
    1CHTO   C45  249   7.725   6.964   2.721 -0.4453 -0.1008 -0.0639
    1CHTO   H87  250   7.674   6.884   2.665 -1.0143  0.8307 -0.9081
    1CHTO    N8  251   7.628   7.016   2.817  0.4893 -0.0882 -0.2956
    1CHTO   H75  252   7.581   6.936   2.873  1.4340 -1.3675 -1.3022
    1CHTO   H76  253   7.552   7.083   2.777  0.8897  1.4987  1.5379
    1CHTO   C43  254   7.792   7.068   2.609  0.4687 -0.3271  0.3542
    1CHTO   H85  255   7.713   7.099   2.540  2.0681  2.7276 -0.1791
    1CHTO   O29  256   7.902   7.014   2.538  0.5465 -0.2603 -0.3761
    1CHTO   C50  257   8.004   6.938   2.609  0.1210 -0.2331 -0.2936
    1CHTO   H92  258   8.072   6.894   2.535  2.0735  1.0127  0.6995
    1CHTO   C54  259   8.111   7.032   2.676  0.2208  0.2802  0.2781
    1CHTO   O36  260   8.193   7.099   2.582 -0.4660  0.1261 -0.1687
    1CHTO   H72  261   8.274   7.053   2.572 -0.3164  0.1454  0.9274
    1CHTO   O27  262   7.829   7.194   2.667 -0.2894  0.4234 -0.6414
    1CHTO   C37  263   7.783   7.333   2.643  0.3337  0.7960 -0.5926
    1CHTO   H79  264   7.775   7.348   2.534  0.2635 -0.3889 -0.7548
    1CHTO   C38  265   7.640   7.364   2.691 -0.5988 -0.3991 -0.5824
    1CHTO   H80  266   7.633   7.335   2.797 -1.1412 -2.3624 -1.1429
    1CHTO   O31  267   7.551   7.286   2.614 -0.5810  0.2948  0.4203
    1CHTO   H68  268   7.464   7.275   2.647 -1.7463  1.1669 -2.1993
    1CHTO   C39  269   7.596   7.514   2.681  0.3632  0.7284  0.5089
    1CHTO   H81  270   7.588   7.519   2.573  2.0759  0.0369  0.3237
    1CHTO    N7  271   7.457   7.545   2.744 -0.0025 -0.2126 -0.1798
    1CHTO   H73  272   7.465   7.534   2.851 -1.1640 -2.7714 -0.3096
    1CHTO   H74  273   7.400   7.624   2.698 -2.7116 -1.4752  0.9022
    1CHTO   C40  274   7.714   7.603   2.753 -0.1142 -0.4848  0.4388
    1CHTO   H82  275   7.721   7.583   2.860  1.8237 -0.5728  0.3194
    1CHTO   O26  276   7.837   7.582   2.684  0.3881  0.2219  0.2781
    1CHTO   C41  277   7.886   7.445   2.693  0.0560  0.1783 -0.3757
    1CHTO   H83  278   7.905   7.420   2.799 -1.1493  0.2012 -0.1457
    1CHTO   C52  279   8.021   7.449   2.612 -0.2880 -0.1552  0.0502
    1CHTO   O35  280   7.978   7.464   2.449  0.2386  0.3088  0.0279
    1CHTO   H71  281   7.895   7.506   2.454  0.2694  0.1435  3.0866
    1CHTO   O28  282   7.698   7.746   2.759  0.2643 -0.4950  0.1556
    1CHTO   C42  283   7.714   7.836   2.640  0.2491 -1.0638  0.4491
    1CHTO   H84  284   7.707   7.767   2.556 -2.4053 -0.0135 -0.2276
    1CHTO   C44  285   7.846   7.909   2.628 -0.4139  0.0628 -0.4039
    1CHTO   H86  286   7.859   7.978   2.712 -1.4689 -0.0885 -0.1170
    1CHTO   O32  287   7.955   7.814   2.641  0.5393  0.7434 -0.0750
    1CHTO   H69  288   7.931   7.726   2.620 -2.4242  1.2681  0.8968
    1CHTO   C48  289   7.862   8.001   2.501 -0.4671 -0.4795 -0.1440
    1CHTO   H90  290   7.866   7.938   2.412 -0.4843 -0.8928  0.1485
    1CHTO    N9  291   7.993   8.077   2.496 -0.7972 -0.3090  0.0620
    1CHTO   H77  292   7.986   8.173   2.447 -3.7911 -0.6049 -0.1692
    1CHTO   H78  293   8.030   8.086   2.597 -0.0747  1.7018 -0.3666
    1CHTO   C51  294   7.735   8.096   2.475 -0.0453  0.8072 -0.3272
    1CHTO   H93  295   7.736   8.188   2.534  1.5113  2.0020 -2.1346
    1CHTO   O30  296   7.620   8.014   2.493 -0.4453  0.3838  0.9378
    1CHTO   C46  297   7.597   7.944   2.619 -0.1944  0.6634 -0.8063
    1CHTO   H88  298   7.596   8.019   2.697 -4.2363  0.5546 -0.6877
    1CHTO   C53  299   7.462   7.880   2.618  0.0351 -0.4746  0.5612
    1CHTO   O72  300   7.353   7.974   2.599 -0.0929  0.1734  0.5180
    1CHTO  H199  301   7.344   8.006   2.511 -2.2751  2.2143  1.4243
    1CHTO   O22  302   7.735   8.123   2.328 -0.2660  0.0179 -0.0413
    1CHTO   C31  303   7.620   8.202   2.277 -0.5062  0.2383 -0.0929
    1CHTO   H59  304   7.547   8.211   2.360 -1.4089  0.0139 -0.8542
    1CHTO   C29  305   7.660   8.351   2.231  0.6385  0.6972 -0.2358
    1CHTO   H57  306   7.754   8.350   2.175  1.6391  0.3978  1.4022
    1CHTO   O21  307   7.698   8.409   2.361  0.5804  0.1101 -0.0644
    1CHTO   H37  308   7.790   8.423   2.369  0.1780  2.5108  0.8036
    1CHTO   C27  309   7.541   8.422   2.159 -0.5463 -0.2840 -0.0108
    1CHTO   H55  310   7.456   8.441   2.226 -0.2754 -0.6238  0.4301
    1CHTO    N5  311   7.594   8.551   2.112  0.2544  0.7781 -0.7602
    1CHTO   H43  312   7.700   8.567   2.122  0.8494 -0.0996 -4.7484
    1CHTO   H44  313   7.541   8.628   2.165  1.0043  0.2710  0.7354
    1CHTO   C25  314   7.477   8.333   2.052 -0.2648 -0.4985  0.2603
    1CHTO   H53  315   7.551   8.297   1.978 -0.6456 -0.5954 -0.0762
    1CHTO   O17  316   7.432   8.203   2.110  0.5492 -0.2149  0.0701
    1CHTO   C32  317   7.543   8.131   2.160  0.3012 -0.0249 -0.8767
    1CHTO   H60  318   7.618   8.104   2.085  0.2806 -1.5613 -0.3681
    1CHTO   C36  319   7.494   7.986   2.202  0.5383  0.4200 -0.1636
    1CHTO   O25  320   7.431   7.920   2.090  0.4142  0.0979 -0.6705
    1CHTO   H40  321   7.402   7.838   2.124 -0.7641  0.8240  0.0956
    1CHTO   O15  322   7.363   8.404   1.973  1.1153  1.0142  0.6913
    1CHTO   C19  323   7.310   8.356   1.848  0.3000  0.1761  0.3326
    1CHTO   H47  324   7.238   8.434   1.821 -0.0112 -0.7062 -1.4642
    1CHTO   C20  325   7.418   8.339   1.735 -0.1709  0.5189  0.3143
    1CHTO   H48  326   7.505   8.284   1.772  0.5180  1.6191  0.3409
    1CHTO   O19  327   7.463   8.475   1.695 -0.2298 -0.1062  0.1060
    1CHTO   H35  328   7.527   8.464   1.628  1.2584 -2.0636  1.8169
    1CHTO   C21  329   7.363   8.265   1.607 -0.3712  0.1805 -0.6648
    1CHTO   H49  330   7.288   8.328   1.558 -0.7071 -0.0867 -0.4947
    1CHTO    N4  331   7.469   8.233   1.507  0.0664  0.2543  0.3777
    1CHTO   H41  332   7.570   8.247   1.541  0.3415 -0.4773 -0.1285
    1CHTO   H42  333   7.449   8.301   1.426  0.1094  1.7111  1.5699
    1CHTO   C22  334   7.281   8.138   1.656 -0.9883 -0.6726  0.1782
    1CHTO   H50  335   7.350   8.071   1.707  0.1710 -1.1559 -1.9640
    1CHTO   O14  336   7.181   8.179   1.743  0.9397 -0.7531 -0.8627
    1CHTO   C23  337   7.224   8.231   1.868  0.1402 -0.1316  0.2793
    1CHTO   H51  338   7.277   8.155   1.927 -1.8722 -0.8626  1.1595
    1CHTO   C34  339   7.092   8.249   1.942 -0.1407 -0.0338 -0.4226
    1CHTO   O23  340   7.098   8.293   2.080 -0.5646  0.1274 -0.0283
    1CHTO   H38  341   7.174   8.346   2.096 -1.2247  0.1819  3.1656
    1CHTO   O16  342   7.210   8.058   1.553  0.4716  0.1522 -0.0564
    1CHTO   C24  343   7.285   7.932   1.482  0.4354 -0.2860 -0.1329
    1CHTO   H52  344   7.393   7.928   1.500  0.0005 -1.1474  2.4862
    1CHTO   C26  345   7.263   7.919   1.325 -0.0343  0.4384 -0.6365
    1CHTO   H54  346   7.155   7.902   1.308  0.1711 -1.8202  0.0794
    1CHTO   O20  347   7.313   8.041   1.265  0.2575  0.1553  1.0644
    1CHTO   H36  348   7.319   8.044   1.171 -1.2387  2.0196  0.9758
    1CHTO   C30  349   7.335   7.789   1.267 -0.3815 -0.0747 -0.5106
    1CHTO   H58  350   7.444   7.788   1.279 -0.4776 -1.3885  0.2468
    1CHTO    N6  351   7.316   7.779   1.118  0.0636  0.3990 -0.8165
    1CHTO   H45  352   7.213   7.795   1.088 -0.4913  0.1894  0.9334
    1CHTO   H46  353   7.346   7.677   1.097 -0.2306  0.1141  0.1200
    1CHTO   C33  354   7.285   7.662   1.344 -0.3346  0.0123 -0.0587
    1CHTO   H61  355   7.179   7.643   1.324 -0.5732  0.8153  0.4470
    1CHTO   O18  356   7.308   7.690   1.485 -0.3868  0.4581 -0.0227
    1CHTO   C28  357   7.234   7.798   1.544  0.3295  0.9488  0.4182
    1CHTO   H56  358   7.127   7.783   1.532  0.6748  0.0109 -1.6205
    1CHTO   C35  359   7.260   7.790   1.701 -0.3763  0.0226  0.9970
    1CHTO   O24  360   7.244   7.668   1.775  0.1574 -0.1941  0.3656
    1CHTO   H39  361   7.156   7.642   1.758  0.1116 -1.0296  1.7614
    1CHTO    O9  362   7.363   7.547   1.300 -0.4955 -0.0276  0.1934
    1CHTO   C13  363   7.334   7.422   1.355 -0.1823  0.1657 -0.2255
    1CHTO   H26  364   7.274   7.434   1.448  2.4250 -1.6889  1.8012
    1CHTO   C11  365   7.472   7.340   1.386  0.2695 -0.1860 -0.1402
    1CHTO   H24  366   7.521   7.385   1.473  1.5755 -0.4631 -0.7320
    1CHTO    O8  367   7.567   7.340   1.276  0.2688 -0.6409  0.0055
    1CHTO    H3  368   7.601   7.427   1.270 -0.0953 -0.5896 -1.6318
    1CHTO    C9  369   7.433   7.196   1.437 -0.1277 -0.2066  0.2392
    1CHTO   H22  370   7.367   7.216   1.523 -0.8848 -0.7191 -0.2145
    1CHTO    N2  371   7.540   7.116   1.495  0.0755 -0.4557 -0.2955
    1CHTO   H10  372   7.558   7.026   1.438  1.2853  0.1536 -0.9123
    1CHTO   H11  373   7.636   7.165   1.498  1.0437 -2.3065 -0.1089
    1CHTO    C7  374   7.364   7.116   1.320  0.1836 -0.7222  0.0306
    1CHTO   H20  375   7.339   7.012   1.351  1.1457 -0.6682  1.0245
    1CHTO    O4  376   7.241   7.189   1.286  0.1443 -0.4349  0.5158
    1CHTO   C14  377   7.244   7.330   1.260 -0.3400  0.2809  0.5178
    1CHTO   H27  378   7.138   7.357   1.275 -0.6924  0.3109 -1.8804
    1CHTO   C18  379   7.273   7.343   1.104  0.7448  0.0784 -0.1954
    1CHTO   O13  380   7.166   7.274   1.036  0.6786 -0.0841 -0.0649
    1CHTO    H7  381   7.086   7.315   1.063 -0.2324 -1.1875 -1.0199
    1CHTO    O2  382   7.465   7.093   1.186 -0.3002 -0.3017  0.0171
    1CHTO    C1  383   7.494   6.965   1.130  0.4763  0.5786 -0.5778
    1CHTO   H14  384   7.531   6.976   1.026 -1.0317 -2.5873 -1.5079
    1CHTO    C2  385   7.379   6.864   1.131  0.1946 -0.1407 -0.1648
    1CHTO   H15  386   7.347   6.838   1.232  0.7917 -0.9890 -0.1924
    1CHTO    O6  387   7.277   6.937   1.061 -0.2965 -0.0359  0.2464
    1CHTO    H1  388   7.229   6.876   1.008  0.9646 -0.7643 -0.0606
    1CHTO    C3  389   7.441   6.743   1.052  0.6868  0.0781  0.5400
    1CHTO   H16  390   7.487   6.786   0.961 -1.9067 -3.6595 -2.6686
    1CHTO    N1  391   7.343   6.639   1.006  0.0375  0.5120  0.0753
    1CHTO    H8  392   7.336   6.639   0.898 -0.3778  1.0838  0.0956
    1CHTO    H9  393   7.371   6.538   1.032  0.5189  0.2519 -1.3774
    1CHTO    C4  394   7.568   6.681   1.130 -0.3533 -0.0011 -0.3958
    1CHTO   H17  395   7.533   6.646   1.227  0.2236  0.3029 -0.0746
    1CHTO    O1  396   7.667   6.781   1.154 -0.5114  0.1600 -0.0081
    1CHTO    C5  397   7.617   6.906   1.209 -0.1531  0.2816 -0.1092
    1CHTO   H18  398   7.585   6.875   1.308 -0.9757  1.2383 -0.0726
    1CHTO   C16  399   7.746   6.999   1.212 -0.5360 -0.0489  0.2499
    1CHTO   O11  400   7.861   6.940   1.272 -0.4094 -0.2214  0.0749
    1CHTO    H5  401   7.905   6.898   1.201  0.0300  0.0059  0.2151
    1CHTO    O3  402   7.622   6.578   1.044 -0.0134  0.9290 -0.1643
    1CHTO    C6  403   7.708   6.484   1.113  0.1905  0.1266  0.4214
    1CHTO   H19  404   7.735   6.521   1.212 -0.6446 -0.9803  1.0817
    1CHTO    C8  405   7.627   6.342   1.121  0.3537  0.0308  0.8833
    1CHTO   H21  406   7.591   6.319   1.022  0.7994 -0.4964  0.8404
    1CHTO    O7  407   7.504   6.355   1.205 -0.2680  0.0602  0.2351
    1CHTO    H2  408   7.458   6.275   1.223  1.3580 -0.9393 -0.0219
    1CHTO   C12  409   7.724   6.223   1.166  0.5612 -0.3576  0.0316
    1CHTO   H25  410   7.742   6.248   1.273  0.5898 -0.1908 -0.0117
    1CHTO    N3  411   7.654   6.091   1.159 -0.0916  0.0236  0.3769
    1CHTO   H12  412   7.647   6.057   1.262  2.7281 -0.1229  0.5697
    1CHTO   H13  413   7.728   6.028   1.113 -0.3955  1.1742 -1.7621
    1CHTO   C15  414   7.865   6.228   1.099  0.9601  0.9151  0.1666
    1CHTO   H28  415   7.848   6.197   0.996 -2.0850  0.4789  0.7662
    1CHTO   O10  416   7.970   6.150   1.174 -0.0615 -0.3983 -0.4301
    1CHTO    H4  417   8.058   6.161   1.144 -0.3755  2.9459 -0.3214
    1CHTO    O5  418   7.921   6.358   1.100 -0.0149  0.0149 -0.0813
    1CHTO   C10  419   7.839   6.456   1.035 -0.2687 -0.3581 -0.2010
    1CHTO   H23  420   7.813   6.407   0.941  0.4856 -0.2781 -0.4552
    1CHTO   C17  421   7.916   6.586   1.016 -0.4334 -0.6574 -0.1149
    1CHTO   O12  422   8.009   6.582   0.906 -0.5095  0.0846  1.0600
    1CHTO    H6  423   7.959   6.592   0.827  0.7955  0.4972  0.2906
    2CHTO  H203  424   7.198   4.714  -0.284 -0.2406 -0.3273  0.0609
    2CHTO   O82  425   7.194   4.804  -0.258  0.6283 -0.1079 -0.5241
    2CHTO  C123  426   7.062   4.830  -0.201 -0.6141  0.4005 -0.5015
    2CHTO  H227  427   7.054   4.937  -0.178 -1.9109  0.4500 -1.1628
    2CHTO   O77  428   6.959   4.808  -0.310 -0.2119  0.2829  0.3841
    2CHTO  C118  429   6.830   4.839  -0.268 -0.0075  0.0587  0.1649
    2CHTO  H222  430   6.830   4.942  -0.231 -1.7703  0.1830 -0.1478
    2CHTO  C125  431   6.733   4.834  -0.391  0.3195  0.3643  0.2778
    2CHTO   O84  432   6.763   4.939  -0.479  0.5510 -0.0039  0.3611
    2CHTO  H205  433   6.774   4.899  -0.563 -1.4410 -0.6612  0.3802
    2CHTO  C114  434   6.783   4.739  -0.158 -0.1494  0.4013  0.1241
    2CHTO  H218  435   6.774   4.639  -0.201 -1.9567 -0.4947  2.4469
    2CHTO  C116  436   6.881   4.744  -0.036 -0.2533 -0.0072  0.1628
    2CHTO  H220  437   6.864   4.841   0.016  0.1913  0.3704 -0.3887
    2CHTO   O79  438   6.844   4.636   0.051  0.2162 -0.2740  0.5467
    2CHTO  H201  439   6.769   4.667   0.099  0.5526 -1.5910  1.9627
    2CHTO  C120  440   7.031   4.732  -0.081 -0.3262 -0.3909  0.1270
    2CHTO  H224  441   7.038   4.626  -0.113 -1.8495 -0.3914 -0.2392
    2CHTO   N21  442   7.129   4.760   0.029 -0.7451 -0.2864 -0.2123
    2CHTO  H211  443   7.162   4.669   0.078  1.1672  0.8762  0.7374
    2CHTO  H212  444   7.083   4.833   0.094 -1.1159 -0.8979  0.2143
    2CHTO   O75  445   6.654   4.792  -0.132  0.0785  0.4466  0.2389
    2CHTO  C112  446   6.520   4.689  -0.075 -0.4352 -0.6054  0.3286
    2CHTO  H216  447   6.560   4.599  -0.026  2.0094  0.2386 -0.0843
    2CHTO   O73  448   6.439   4.654  -0.192 -0.0981  0.0996  0.1572
    2CHTO  C113  449   6.326   4.578  -0.160  0.4208  0.0561  0.3893
    2CHTO  H217  450   6.354   4.483  -0.108  0.9928  0.1117  0.1864
    2CHTO  C124  451   6.261   4.536  -0.289 -0.1364 -0.1778 -0.0531
    2CHTO   O83  452   6.172   4.430  -0.262 -0.0188 -0.0518 -0.8509
    2CHTO  H204  453   6.085   4.462  -0.252  0.3074  0.9495 -1.1887
    2CHTO  C109  454   6.230   4.664  -0.078  0.2500  0.4150  0.2768
    2CHTO  H213  455   6.201   4.751  -0.138  0.5932  0.0044 -0.4788
    2CHTO  C110  456   6.298   4.714   0.053  0.8040  0.5298 -0.3351
    2CHTO  H214  457   6.303   4.636   0.129 -0.5490 -0.3945 -1.1989
    2CHTO   O78  458   6.211   4.813   0.106  0.3335  0.0251  0.2994
    2CHTO  H200  459   6.227   4.899   0.071 -0.9944  0.5792  1.0124
    2CHTO  C111  460   6.437   4.776   0.030 -0.4389 -0.4451 -0.3462
    2CHTO  H215  461   6.425   4.871  -0.023 -0.8361  0.4609  1.3449
    2CHTO   N19  462   6.515   4.806   0.151 -0.0914 -0.0967  0.0743
    2CHTO  H207  463   6.527   4.717   0.211 -0.5380 -0.9570 -1.1151
    2CHTO  H208  464   6.455   4.876   0.207  1.1764  1.4198 -0.4310
    2CHTO   O74  465   6.110   4.582  -0.044  0.2321  0.0218 -0.4363
    2CHTO  C115  466   5.970   4.630  -0.116  0.2196  0.5976  0.2863
    2CHTO  H219  467   5.982   4.729  -0.158  3.1515 -0.1449 -0.6923
    2CHTO   O76  468   5.929   4.540  -0.235 -0.1006  0.1228 -0.1272
    2CHTO  C122  469   5.833   4.433  -0.219  0.6458 -0.1678  0.0512
    2CHTO  H226  470   5.881   4.354  -0.162  1.2386  0.2815  0.1799
    2CHTO  C126  471   5.792   4.369  -0.350 -0.4715 -0.2428  0.3793
    2CHTO   O85  472   5.723   4.246  -0.328 -0.1241 -0.4078  0.8253
    2CHTO  H206  473   5.649   4.235  -0.385 -0.3963 -2.4291  1.5687
    2CHTO  C121  474   5.703   4.480  -0.135 -0.0874  0.0117 -0.5227
    2CHTO  H225  475   5.617   4.482  -0.205  0.0764 -0.6765 -0.7463
    2CHTO   O81  476   5.675   4.375  -0.043 -0.1632  0.8939 -0.3125
    2CHTO  H202  477   5.756   4.341  -0.010  1.4732  1.9694 -3.0354
    2CHTO  C119  478   5.723   4.617  -0.074  1.0030 -0.2598  0.2728
    2CHTO  H223  479   5.711   4.683  -0.159 -0.2439 -1.9534 -0.8889
    2CHTO  C117  480   5.863   4.634  -0.007  0.3249  0.2481  0.8284
    2CHTO  H221  481   5.888   4.560   0.069 -1.5136 -1.0910  0.1665
    2CHTO   N20  482   5.861   4.774   0.052  0.2084 -0.2396 -0.5728
    2CHTO  H209  483   5.858   4.842  -0.031 -1.7460 -0.5906 -0.8286
    2CHTO  H210  484   5.947   4.778   0.117 -2.9297 -1.4920  4.0070
    2CHTO   O80  485   5.601   4.651   0.006  0.0810  0.3575 -0.4458
    2CHTO  C103  486   5.456   4.697  -0.082  0.0014  0.2844 -0.1559
    2CHTO  H190  487   5.480   4.692  -0.188 -2.8685  1.4679 -0.9267
    2CHTO  C101  488   5.331   4.610  -0.048  0.5577 -0.6776 -0.6888
    2CHTO  H188  489   5.315   4.608   0.060 -0.1611 -0.0302 -0.7813
    2CHTO   O68  490   5.360   4.481  -0.082 -0.1290  0.2775  0.2343
    2CHTO  H168  491   5.290   4.433  -0.042 -1.7894  2.4434  0.0181
    2CHTO   C99  492   5.186   4.663  -0.112 -0.9512  0.2512 -0.3484
    2CHTO  H186  493   5.190   4.665  -0.223 -0.4187  2.1515 -0.3041
    2CHTO   N17  494   5.064   4.586  -0.069  0.1014  0.0741 -0.2379
    2CHTO  H174  495   5.070   4.479  -0.055  0.5851  0.2507  0.9374
    2CHTO  H175  496   4.985   4.609  -0.139 -0.3161  0.8124  0.4625
    2CHTO   C97  497   5.179   4.811  -0.076  0.6088 -0.1885 -0.2681
    2CHTO  H184  498   5.159   4.821   0.032  1.9081 -0.4124 -0.0039
    2CHTO   O64  499   5.298   4.888  -0.112 -0.7068 -0.3370 -0.0673
    2CHTO  C104  500   5.422   4.850  -0.048 -0.2131  0.0500  0.2505
    2CHTO  H191  501   5.419   4.871   0.059  0.5290 -1.6548  0.6293
    2CHTO  C108  502   5.548   4.931  -0.096  0.1021 -0.1644  0.3968
    2CHTO   O71  503   5.554   5.063  -0.042  0.1429 -0.6080 -0.2413
    2CHTO  H171  504   5.478   5.116  -0.055  0.7747  0.3161 -0.1642
    2CHTO   O62  505   5.072   4.885  -0.142  0.3280 -0.1486 -0.2842
    2CHTO   C91  506   5.041   5.013  -0.100 -0.8371  0.2242  0.7091
    2CHTO  H178  507   5.072   5.028   0.004  0.8491 -0.2654  0.2967
    2CHTO   C92  508   4.882   5.027  -0.102  0.0251 -0.1601  0.3213
    2CHTO  H179  509   4.842   4.949  -0.036 -0.8537  0.4930  0.5726
    2CHTO   O66  510   4.856   5.153  -0.037  0.2722 -0.2995 -0.5877
    2CHTO  H166  511   4.764   5.166  -0.030  0.3819  0.7583 -1.0890
    2CHTO   C93  512   4.824   5.026  -0.244 -0.4360  0.2391  0.7199
    2CHTO  H180  513   4.728   5.079  -0.242  0.3460  1.6585  0.7852
    2CHTO   N16  514   4.794   4.890  -0.298  0.1897  0.0909 -0.3933
    2CHTO  H172  515   4.803   4.890  -0.406 -0.4385  1.6107 -0.4708
    2CHTO  H173  516   4.693   4.865  -0.268  1.1744 -1.1100  2.0287
    2CHTO   C94  517   4.926   5.105  -0.343  0.3927  1.1109  0.5249
    2CHTO  H181  518   4.976   5.036  -0.411  0.9446  1.2772  0.7586
    2CHTO   O61  519   5.017   5.194  -0.279  0.0537 -0.0115 -0.1366
    2CHTO   C95  520   5.112   5.116  -0.201  0.2630 -0.2360  0.3194
    2CHTO  H182  521   5.169   5.061  -0.276  1.3487  2.4065 -0.8337
    2CHTO  C106  522   5.199   5.221  -0.122 -0.0399 -0.9635  0.1658
    2CHTO   O69  523   5.279   5.148  -0.027 -0.0193 -0.8635 -0.0529
    2CHTO  H169  524   5.347   5.209  -0.005  3.3111 -3.2863 -2.9504
    2CHTO   O63  525   4.841   5.175  -0.429 -0.1148  0.3185  0.0580
    2CHTO   C96  526   4.787   5.327  -0.370 -0.1276  0.3554  0.4301
    2CHTO  H183  527   4.807   5.335  -0.264  0.9617 -0.5613  0.3075
    2CHTO   C98  528   4.637   5.350  -0.391  0.5240  0.9252  0.2097
    2CHTO  H185  529   4.614   5.339  -0.498  0.7023 -1.5662  0.3968
    2CHTO   O67  530   4.570   5.241  -0.322  0.4281  0.8042 -0.6470
    2CHTO  H167  531   4.599   5.226  -0.234  1.7030  0.1924 -1.1639
    2CHTO  C102  532   4.600   5.492  -0.324 -0.6256 -0.2390 -0.3799
    2CHTO  H189  533   4.644   5.484  -0.224  0.3108 -3.9556 -1.0057
    2CHTO   N18  534   4.462   5.526  -0.309 -0.3958  0.0791  0.1125
    2CHTO  H176  535   4.426   5.607  -0.371 -2.1523  2.0447  3.5181
    2CHTO  H177  536   4.399   5.443  -0.336 -0.2024  0.0037 -0.1002
    2CHTO  C105  537   4.677   5.600  -0.405  0.2681  0.2005 -0.5366
    2CHTO  H192  538   4.642   5.590  -0.508 -0.0959 -1.8265 -0.2269
    2CHTO   O65  539   4.817   5.577  -0.390 -0.8590  0.0922  0.2742
    2CHTO  C100  540   4.856   5.449  -0.448 -1.4737  0.0224 -0.4156
    2CHTO  H187  541   4.822   5.445  -0.553  1.5254  0.2093 -1.4563
    2CHTO  C107  542   5.014   5.447  -0.451 -0.3674  0.4773  0.0727
    2CHTO   O70  543   5.061   5.358  -0.553 -0.1649 -0.1159 -0.0077
    2CHTO  H170  544   5.036   5.387  -0.639 -0.0385  1.0258  0.3317
    2CHTO   O57  545   4.642   5.760  -0.335  0.2583 -0.2434 -0.2467
    2CHTO   C85  546   4.589   5.852  -0.430  0.2478  0.0165 -0.5917
    2CHTO  H157  547   4.516   5.788  -0.483  0.5997 -0.2386 -0.7760
    2CHTO   C83  548   4.692   5.898  -0.530  0.1152  0.3880 -0.4470
    2CHTO  H155  549   4.719   5.809  -0.588 -1.4946  0.1088 -0.7759
    2CHTO   O56  550   4.812   5.932  -0.467  0.2483 -0.1525 -0.0246
    2CHTO  H135  551   4.843   5.863  -0.412  0.2765 -1.5851 -1.7946
    2CHTO   C81  552   4.638   5.995  -0.637  0.0631 -0.3647 -0.6313
    2CHTO  H153  553   4.555   5.943  -0.686  1.1027 -1.6076 -1.0771
    2CHTO   N14  554   4.730   6.024  -0.752 -0.2142 -0.3854 -0.2383
    2CHTO  H141  555   4.746   6.129  -0.767  0.5278 -0.5963 -0.9692
    2CHTO  H142  556   4.826   5.982  -0.731  2.0034  2.6114 -3.6781
    2CHTO   C79  557   4.589   6.118  -0.556  0.0630  0.3048  0.6810
    2CHTO  H151  558   4.535   6.180  -0.628  0.7364  0.7851  0.5873
    2CHTO   O52  559   4.486   6.073  -0.469 -0.0004  0.4408  0.5796
    2CHTO   C86  560   4.528   5.982  -0.370 -0.1893  0.5917  0.0174
    2CHTO  H158  561   4.598   6.040  -0.307 -2.3292  5.4265 -1.7633
    2CHTO   C90  562   4.408   5.944  -0.274  0.3128  0.1431 -0.1720
    2CHTO   O60  563   4.374   6.052  -0.191 -0.0385 -0.2748 -0.7836
    2CHTO  H138  564   4.297   6.047  -0.138 -1.1408 -1.4551 -2.4437
    2CHTO   O50  565   4.700   6.184  -0.492  0.6481  0.0344  0.0722
    2CHTO   C73  566   4.722   6.316  -0.438 -0.4264 -0.1611 -0.4039
    2CHTO  H145  567   4.635   6.354  -0.382 -0.5603  0.5796 -1.1108
    2CHTO   C74  568   4.739   6.422  -0.550  0.2928 -0.3326  0.1314
    2CHTO  H146  569   4.647   6.412  -0.610  0.3292 -4.2410  0.5812
    2CHTO   O54  570   4.750   6.550  -0.483  0.4133  0.5608 -0.3631
    2CHTO  H133  571   4.715   6.615  -0.540 -0.4129 -0.6652 -1.2853
    2CHTO   C75  572   4.862   6.381  -0.635 -0.3913 -0.3513  0.5584
    2CHTO  H147  573   4.837   6.294  -0.699 -1.1144 -1.9216  2.9089
    2CHTO   N13  574   4.891   6.485  -0.740 -0.3540 -0.1194 -0.0313
    2CHTO  H139  575   4.846   6.576  -0.704  0.5368  0.7089 -0.9928
    2CHTO  H140  576   4.998   6.485  -0.751 -0.4381 -0.8982 -0.8492
    2CHTO   C76  577   4.986   6.352  -0.530 -0.1823 -0.2367  0.1066
    2CHTO  H148  578   5.042   6.444  -0.513  0.3005 -0.5002 -0.0644
    2CHTO   O49  579   4.959   6.270  -0.413  0.1363 -1.0868  0.1825
    2CHTO   C77  580   4.843   6.313  -0.341 -0.1203  0.3150  0.0910
    2CHTO  H149  581   4.873   6.409  -0.301 -0.7361  0.2377  0.7385
    2CHTO   C88  582   4.826   6.224  -0.217  0.4173  0.1570  0.1426
    2CHTO   O58  583   4.683   6.247  -0.145 -0.4258  0.8198  0.9033
    2CHTO  H136  584   4.623   6.259  -0.215 -0.2016 -0.1162  0.5444
    2CHTO   O51  585   5.075   6.248  -0.637  0.1489 -0.5667 -0.6076
    2CHTO   C78  586   5.203   6.190  -0.576 -0.8203 -0.0316  0.6843
    2CHTO  H150  587   5.180   6.160  -0.472 -1.9455 -3.3194 -0.4613
    2CHTO   C80  588   5.323   6.291  -0.583 -0.6447  0.6543 -0.8917
    2CHTO  H152  589   5.354   6.307  -0.689 -0.9298 -1.9769 -1.3872
    2CHTO   O55  590   5.289   6.415  -0.522  0.1471  0.3181 -0.3503
    2CHTO  H134  591   5.234   6.469  -0.577  1.2224 -0.3020 -2.0682
    2CHTO   C84  592   5.445   6.223  -0.509 -0.4366  0.5023 -0.4874
    2CHTO  H156  593   5.418   6.216  -0.404  0.8191  0.9287 -0.1340
    2CHTO   N15  594   5.570   6.307  -0.514 -0.4182  0.4546  0.1339
    2CHTO  H143  595   5.587   6.358  -0.422  0.8818  0.1657  0.0720
    2CHTO  H144  596   5.659   6.253  -0.539 -1.8825 -1.5199 -0.9967
    2CHTO   C87  597   5.464   6.077  -0.564  0.6289  0.3196  0.4035
    2CHTO  H159  598   5.525   6.071  -0.654  1.6888  1.2739  1.0373
    2CHTO   O53  599   5.335   5.998  -0.600 -0.1556 -0.1849 -0.1114
    2CHTO   C82  600   5.228   6.064  -0.658  0.4768 -0.4048 -0.7398
    2CHTO  H154  601   5.249   6.093  -0.761 -0.0299 -0.1401 -0.7697
    2CHTO   C89  602   5.108   5.970  -0.659 -0.0680 -0.2488  0.1133
    2CHTO   O59  603   5.124   5.879  -0.768 -0.0855 -0.0338  0.3808
    2CHTO  H137  604   5.121   5.926  -0.848 -0.0503  2.0347  1.5608
    2CHTO   O45  605   5.543   5.991  -0.438  0.2670 -0.3179  0.0223
    2CHTO   C67  606   5.454   5.911  -0.356 -0.3346  0.3870  0.4389
    2CHTO  H124  607   5.349   5.938  -0.366  0.3572  3.2875  0.2768
    2CHTO   C65  608   5.473   5.760  -0.401 -0.0996  0.5412 -0.2712
    2CHTO  H122  609   5.575   5.755  -0.441 -0.6357 -1.3460 -1.4930
    2CHTO   O44  610   5.368   5.731  -0.500  1.0225 -0.1237  0.4968
    2CHTO  H102  611   5.401   5.683  -0.573  0.7264 -3.2195  2.3281
    2CHTO   C63  612   5.474   5.663  -0.273  0.0064 -0.5053  0.4172
    2CHTO  H120  613   5.568   5.670  -0.219 -0.5818 -1.0794  1.5403
    2CHTO   N11  614   5.465   5.510  -0.286 -0.4641  0.1140 -0.2985
    2CHTO  H108  615   5.550   5.492  -0.349 -2.0261 -1.1949 -2.1244
    2CHTO  H109  616   5.371   5.473  -0.321 -0.2447  0.8542 -1.6986
    2CHTO   C61  617   5.373   5.724  -0.163  0.0288 -0.0895  0.1650
    2CHTO  H118  618   5.398   5.659  -0.077  1.8403  0.7898  0.3276
    2CHTO   O40  619   5.408   5.861  -0.117 -0.1903 -0.2072  0.5247
    2CHTO   C68  620   5.500   5.935  -0.205  0.4356 -0.0082  0.4732
    2CHTO  H125  621   5.606   5.903  -0.195 -0.2516 -2.5194  0.0428
    2CHTO   C72  622   5.490   6.072  -0.158  0.7434 -0.2754  0.3345
    2CHTO   O48  623   5.525   6.111  -0.025 -0.1073  0.1785  0.8262
    2CHTO  H105  624   5.495   6.046   0.035 -1.2057 -1.5374 -1.4870
    2CHTO   O38  625   5.230   5.720  -0.198 -0.6017  0.3306  0.4406
    2CHTO   C55  626   5.136   5.732  -0.093 -0.0406 -0.1779  0.1025
    2CHTO  H112  627   5.181   5.795  -0.016  0.2762 -0.9256  0.5287
    2CHTO   C56  628   5.095   5.593  -0.032  0.3331 -1.1328 -0.0102
    2CHTO  H113  629   5.077   5.520  -0.113  0.1924 -0.1519 -0.8762
    2CHTO   O42  630   5.210   5.543   0.036 -0.2267 -0.0590 -0.0573
    2CHTO  H100  631   5.180   5.469   0.087 -1.2105  0.1804 -0.2699
    2CHTO   C57  632   4.969   5.593   0.062 -0.6158 -0.4461  0.9339
    2CHTO  H114  633   4.995   5.634   0.159 -1.5555 -3.1563  2.3626
    2CHTO   N10  634   4.929   5.456   0.098 -0.5793  0.8066 -0.5710
    2CHTO  H106  635   4.861   5.419   0.022 -1.4241  2.2326 -0.5332
    2CHTO  H107  636   5.005   5.382   0.119 -0.2337  0.6443 -2.3263
    2CHTO   C58  637   4.853   5.673   0.011  0.8902 -0.4062 -0.0438
    2CHTO  H115  638   4.809   5.624  -0.078  1.3474  0.7823 -0.9286
    2CHTO   O37  639   4.909   5.803  -0.029 -0.0258 -0.0003 -0.0080
    2CHTO   C59  640   5.003   5.796  -0.141  0.2248 -0.5478  0.3201
    2CHTO  H116  641   4.958   5.744  -0.226  0.9492 -0.7677  0.0712
    2CHTO   C70  642   5.039   5.943  -0.185  0.1373 -0.3975  0.1296
    2CHTO   O46  643   5.093   5.949  -0.314 -0.2323 -0.2545  0.4275
    2CHTO  H103  644   5.059   5.886  -0.375 -2.1225 -1.4491  2.6049
    2CHTO   O39  645   4.736   5.694   0.124  0.3446  0.1663  0.3313
    2CHTO   C60  646   4.615   5.741   0.081  0.2283 -0.1564 -0.2290
    2CHTO  H117  647   4.624   5.760  -0.026  2.1495  2.6536  0.3913
    2CHTO   C62  648   4.498   5.647   0.113 -0.0691 -0.4550 -0.4345
    2CHTO  H119  649   4.515   5.551   0.061  0.3828  0.3331 -1.7612
    2CHTO   O43  650   4.515   5.623   0.251  0.0134  0.0391 -0.1581
    2CHTO  H101  651   4.587   5.566   0.272  1.5881  2.1137  0.1773
    2CHTO   C66  652   4.359   5.714   0.079 -0.3134  0.2343 -0.1012
    2CHTO  H123  653   4.357   5.738  -0.027  1.4039  1.2626  0.0829
    2CHTO   N12  654   4.246   5.626   0.118 -0.2410  0.2496 -0.3757
    2CHTO  H110  655   4.149   5.674   0.113 -0.5833 -0.4390 -0.4703
    2CHTO  H111  656   4.252   5.537   0.057 -0.7108  1.0949 -1.6669
    2CHTO   C69  657   4.348   5.848   0.158  0.3031  0.4067  0.3325
    2CHTO  H126  658   4.357   5.831   0.267  1.6174 -0.7880  0.0500
    2CHTO   O41  659   4.462   5.938   0.120  0.5350 -0.1225 -0.2465
    2CHTO   C64  660   4.593   5.882   0.155  0.2933 -0.7008 -0.6154
    2CHTO  H121  661   4.609   5.861   0.263 -0.8500 -1.0301 -0.5007
    2CHTO   C71  662   4.701   5.989   0.125  0.0754  0.7165  0.0116
    2CHTO   O47  663   4.661   6.124   0.152  0.3657 -0.2996 -0.8619
    2CHTO  H104  664   4.631   6.140   0.240 -0.1445  0.2274 -1.1292
    2CHTO   O34  665   4.205   5.922   0.138  0.3170 -0.4365 -0.0988
    2CHTO   C49  666   4.125   6.029   0.208  0.7175 -0.4484  0.1655
    2CHTO   H91  667   4.124   6.000   0.313 -3.0472  1.3527  0.7149
    2CHTO   C47  668   3.985   6.031   0.147 -0.6402 -0.8148  0.3440
    2CHTO   H89  669   3.915   6.096   0.203 -3.2994 -0.9934 -2.6058
    2CHTO   O33  670   3.948   5.889   0.153 -0.4167 -0.1701 -0.8493
    2CHTO   H70  671   3.870   5.872   0.103  0.0564  1.9410 -2.3830
    2CHTO   C45  672   3.991   6.096  -0.010 -0.1285  0.3314  0.2579
    2CHTO   H87  673   4.053   6.029  -0.072 -0.1239  2.1860 -1.7896
    2CHTO    N8  674   3.852   6.092  -0.060 -0.0770  0.3344  0.4650
    2CHTO   H75  675   3.785   6.123   0.019  0.2703  0.0419  0.8807
    2CHTO   H76  676   3.831   5.993  -0.096 -1.2066  0.3746  1.0102
    2CHTO   C43  677   4.061   6.244  -0.010 -0.4778  0.5348 -0.2075
    2CHTO   H85  678   4.078   6.270  -0.115  0.6307 -1.4575 -0.5515
    2CHTO   O29  679   4.188   6.231   0.062  0.0460  0.8425  0.5476
    2CHTO   C50  680   4.192   6.162   0.194 -0.1296  0.2218  0.0364
    2CHTO   H92  681   4.299   6.150   0.216 -0.1092  0.5291  0.1055
    2CHTO   C54  682   4.161   6.256   0.312  0.3771 -0.5392  0.1213
    2CHTO   O36  683   4.028   6.305   0.322  0.2761 -0.1575  0.2006
    2CHTO   H72  684   3.991   6.299   0.408 -0.7039  1.8037 -0.0369
    2CHTO   O27  685   3.978   6.354   0.038 -0.1449 -0.1160  0.2631
    2CHTO   C37  686   3.946   6.488  -0.002 -0.5281  0.9085  0.2721
    2CHTO   H79  687   3.985   6.511  -0.102 -0.1011  0.6802  0.3859
    2CHTO   C38  688   3.795   6.512  -0.005 -0.9764  0.2536 -1.0000
    2CHTO   H80  689   3.752   6.474   0.089 -2.0375 -3.6600 -2.9604
    2CHTO   O31  690   3.756   6.428  -0.117 -0.6758 -0.6771  0.3556
    2CHTO   H68  691   3.666   6.439  -0.141 -0.3259  0.5399 -0.4643
    2CHTO   C39  692   3.759   6.664  -0.027 -0.0883  0.3445  0.0873
    2CHTO   H81  693   3.793   6.679  -0.129 -0.4732  0.8956  0.0339
    2CHTO    N7  694   3.607   6.693  -0.034  0.2104  0.0754 -0.3293
    2CHTO   H73  695   3.571   6.752   0.048 -1.0459 -2.1691  0.7657
    2CHTO   H74  696   3.554   6.599  -0.035  1.2108 -0.5021 -0.3692
    2CHTO   C40  697   3.841   6.756   0.073 -0.2963  0.9930  0.3361
    2CHTO   H82  698   3.803   6.731   0.172 -2.0451  2.0708 -0.0474
    2CHTO   O26  699   3.978   6.726   0.056 -0.2781  0.4189 -0.6163
    2CHTO   C41  700   4.013   6.588   0.090  0.3352 -0.8822  0.2272
    2CHTO   H83  701   3.976   6.567   0.192 -1.0574  0.9720  0.1405
    2CHTO   C52  702   4.168   6.569   0.078  0.3783 -0.3874  0.0482
    2CHTO   O35  703   4.249   6.681   0.173 -0.3342 -0.4482 -0.1550
    2CHTO   H71  704   4.341   6.680   0.154 -0.3779  2.8326 -1.0210
    2CHTO   O28  705   3.825   6.899   0.051  0.0553  0.1353  0.2668
    2CHTO   C42  706   3.871   6.980   0.157  0.1119 -0.0963  0.5110
    2CHTO   H84  707   3.862   7.079   0.114 -0.8413 -0.8006 -0.9805
    2CHTO   C44  708   4.024   6.965   0.197  0.3129  0.0744  0.0439
    2CHTO   H86  709   4.039   6.868   0.244 -1.5062  0.6263  1.8228
    2CHTO   O32  710   4.104   6.994   0.077 -0.3813  0.3391  0.1115
    2CHTO   H69  711   4.192   6.962   0.086 -0.9136 -1.3763 -0.6364
    2CHTO   C48  712   4.063   7.073   0.317 -0.4414  0.5012  0.3646
    2CHTO   H90  713   4.058   7.175   0.278 -3.2974 -0.0122 -0.7765
    2CHTO    N9  714   4.213   7.055   0.363 -0.6263  0.8209  0.3275
    2CHTO   H77  715   4.279   7.110   0.298 -1.1866  1.7698  0.5463
    2CHTO   H78  716   4.246   6.952   0.366  0.6468  1.2117  0.1159
    2CHTO   C51  717   3.962   7.058   0.435  0.3343  0.4305 -0.3176
    2CHTO   H93  718   3.978   6.957   0.473  1.0482  0.1033 -1.4583
    2CHTO   O30  719   3.828   7.079   0.381  0.2542  0.6160  0.0620
    2CHTO   C46  720   3.777   6.978   0.288 -0.3147  0.1135  0.3917
    2CHTO   H88  721   3.782   6.886   0.347 -2.1528  1.5685  2.9265
    2CHTO   C53  722   3.624   7.011   0.256 -0.1924 -0.1230 -0.4077
    2CHTO   O72  723   3.560   7.042   0.379 -0.2546  0.1184  0.1559
    2CHTO  H199  724   3.467   7.036   0.370 -0.6395 -0.3050  3.6758
    2CHTO   O22  725   3.995   7.154   0.539  0.4139  0.4015  0.2408
    2CHTO   C31  726   3.939   7.150   0.678  0.5776 -0.0545 -0.2708
    2CHTO   H59  727   4.002   7.217   0.738  0.6934  0.3197 -0.8072
    2CHTO   C29  728   3.795   7.203   0.687  0.0757 -0.4682 -0.0230
    2CHTO   H57  729   3.754   7.183   0.587  1.0931 -2.6048 -0.0330
    2CHTO   O21  730   3.802   7.347   0.692 -0.2374 -0.3127  0.2624
    2CHTO   H37  731   3.720   7.384   0.665  0.8778  2.5945  0.6722
    2CHTO   C27  732   3.693   7.152   0.803 -0.6721  0.6846 -0.8779
    2CHTO   H55  733   3.706   7.215   0.892  0.4893  3.3123 -2.8534
    2CHTO    N5  734   3.548   7.166   0.771 -0.4401 -0.5013 -0.0334
    2CHTO   H43  735   3.510   7.082   0.714  0.3710 -0.8021 -0.1337
    2CHTO   H44  736   3.515   7.260   0.730 -2.3558 -2.1706 -2.4817
    2CHTO   C25  737   3.738   7.003   0.836 -0.0769 -0.1418  0.1309
    2CHTO   H53  738   3.710   6.950   0.744 -0.7461  0.8931 -0.2655
    2CHTO   O17  739   3.879   6.996   0.864  0.3284 -0.8924  0.4133
    2CHTO   C32  740   3.947   7.006   0.739 -0.0667 -0.0743 -0.4408
    2CHTO   H60  741   3.910   6.933   0.667  0.2965  0.9491 -1.6737
    2CHTO   C36  742   4.086   6.950   0.772  0.1551 -0.5446  0.3069
    2CHTO   O25  743   4.082   6.817   0.818  0.2081  0.1372 -0.1650
    2CHTO   H40  744   4.051   6.764   0.747  0.2088 -0.7353  0.4956
    2CHTO   O15  745   3.676   6.954   0.934  0.2634  0.2104 -0.7783
    2CHTO   C19  746   3.675   6.837   1.026  0.2729  0.3828  0.4279
    2CHTO   H47  747   3.573   6.804   1.005  0.1185  1.6550 -0.8888
    2CHTO   C20  748   3.773   6.723   0.988  0.2341  0.1968  0.0958
    2CHTO   H48  749   3.878   6.755   0.991 -0.3298  2.1131 -0.1763
    2CHTO   O19  750   3.739   6.682   0.856 -0.2147  0.1539 -0.0834
    2CHTO   H35  751   3.775   6.599   0.831 -1.3790 -0.3255 -0.2217
    2CHTO   C21  752   3.770   6.598   1.090  0.0992  0.4295  0.8819
    2CHTO   H49  753   3.673   6.549   1.081  0.4173  0.0993 -1.1374
    2CHTO    N4  754   3.883   6.500   1.067 -0.6772  0.0575  0.0424
    2CHTO   H41  755   3.918   6.495   0.965 -0.3247  2.4727  0.0127
    2CHTO   H42  756   3.860   6.402   1.107 -2.7698 -0.0634 -1.3687
    2CHTO   C22  757   3.770   6.649   1.238 -0.1824  0.0086 -0.3681
    2CHTO   H50  758   3.864   6.699   1.260 -1.0616  2.5203 -2.1612
    2CHTO   O14  759   3.668   6.753   1.258  0.0249  0.2313  0.1729
    2CHTO   C23  760   3.681   6.870   1.182  0.1913 -0.1955  0.5578
    2CHTO   H51  761   3.776   6.916   1.211  0.4630 -0.2459 -0.2309
    2CHTO   C34  762   3.563   6.964   1.231 -0.4100  0.4384 -0.3559
    2CHTO   O23  763   3.552   7.078   1.146 -0.0215  0.2970  0.0815
    2CHTO   H38  764   3.476   7.131   1.161  0.9330  1.9456 -0.8122
    2CHTO   O16  765   3.747   6.535   1.314  0.4879  0.3719 -0.1017
    2CHTO   C24  766   3.778   6.570   1.478 -0.0402 -0.0864 -0.3340
    2CHTO   H52  767   3.793   6.678   1.489  0.5332 -0.2722  0.8434
    2CHTO   C26  768   3.898   6.484   1.518 -0.2120  0.0531  0.2869
    2CHTO   H54  769   3.869   6.377   1.508  2.0414 -0.5176 -0.5402
    2CHTO   O20  770   4.007   6.509   1.430 -0.1072 -0.3505 -0.4607
    2CHTO   H36  771   4.056   6.429   1.427  1.3959  0.5008  0.2912
    2CHTO   C30  772   3.929   6.517   1.667 -0.4459 -0.3100  0.7769
    2CHTO   H58  773   3.986   6.610   1.675 -0.7119 -0.2994  3.0525
    2CHTO    N6  774   4.018   6.409   1.723 -0.5814  0.2253  0.2482
    2CHTO   H45  775   3.955   6.332   1.765 -0.3214  0.7269  1.5808
    2CHTO   H46  776   4.069   6.462   1.802  1.4678 -1.2013 -0.0907
    2CHTO   C33  777   3.805   6.528   1.766 -0.4365 -0.0686  0.3509
    2CHTO   H61  778   3.767   6.430   1.799 -2.7805 -0.1663 -2.4175
    2CHTO   O18  779   3.702   6.593   1.694  0.1763  0.9035 -0.6617
    2CHTO   C28  780   3.664   6.542   1.571  0.3338  0.1705  0.0240
    2CHTO   H56  781   3.650   6.434   1.578 -0.3431  0.1843 -0.9322
    2CHTO   C35  782   3.540   6.630   1.533 -0.2080  1.0718 -0.0289
    2CHTO   O24  783   3.485   6.572   1.413 -0.4510 -0.0024 -0.4936
    2CHTO   H39  784   3.554   6.541   1.357 -0.6386 -0.2694 -0.5785
    2CHTO    O9  785   3.839   6.599   1.885  0.2010 -0.0222 -0.3682
    2CHTO   C13  786   3.714   6.631   1.991  0.4151  0.2135  0.3952
    2CHTO   H26  787   3.639   6.550   1.983  1.7684 -1.0892  0.5783
    2CHTO   C11  788   3.652   6.772   1.971 -0.6647 -0.4391  0.4718
    2CHTO   H24  789   3.600   6.758   1.875  3.8352  0.0926 -2.1902
    2CHTO    O8  790   3.751   6.870   1.949 -0.0675 -0.3487  0.2461
    2CHTO    H3  791   3.726   6.917   1.872  2.1605  0.3529 -0.0626
    2CHTO    C9  792   3.556   6.808   2.083 -0.3655  0.3815 -0.1688
    2CHTO   H22  793   3.485   6.724   2.080  1.7747 -1.5185  0.6320
    2CHTO    N2  794   3.478   6.932   2.059  0.7818 -0.1330  0.6242
    2CHTO   H10  795   3.373   6.917   2.039  0.8717  0.6817 -0.5023
    2CHTO   H11  796   3.522   6.989   1.978 -3.3283  0.5917 -1.2052
    2CHTO    C7  797   3.631   6.816   2.225 -0.2641 -0.0608  0.1623
    2CHTO   H20  798   3.548   6.827   2.299 -0.3735 -2.4855  0.4514
    2CHTO    O4  799   3.679   6.681   2.239  0.0423  0.3851 -0.2197
    2CHTO   C14  800   3.764   6.624   2.141  0.1683 -0.1233  0.6888
    2CHTO   H27  801   3.760   6.516   2.166  0.9820 -0.9042 -2.3866
    2CHTO   C18  802   3.908   6.676   2.167 -0.1316  0.4826 -0.5444
    2CHTO   O13  803   3.978   6.628   2.282  0.2496  0.1873 -0.1105
    2CHTO    H7  804   4.065   6.662   2.291  0.2503 -0.1215  1.1695
    2CHTO    O2  805   3.761   6.926   2.231  0.5274 -0.1916 -0.6652
    2CHTO    C1  806   3.780   6.994   2.357 -0.6560 -0.7527 -0.6266
    2CHTO   H14  807   3.809   6.928   2.441 -0.4097 -0.3872 -0.4222
    2CHTO    C2  808   3.656   7.089   2.400 -0.2814 -0.4544 -0.3951
    2CHTO   H15  809   3.636   7.135   2.303 -0.8507  1.4505  0.6016
    2CHTO    O6  810   3.541   7.013   2.442 -0.0071 -0.3740 -0.2004
    2CHTO    H1  811   3.499   6.964   2.374  1.1115 -0.8219 -0.5805
    2CHTO    C3  812   3.695   7.207   2.500 -0.4017  0.6304  0.1718
    2CHTO   H16  813   3.698   7.151   2.595  1.6975 -0.4451 -0.5080
    2CHTO    N1  814   3.597   7.314   2.504  0.5097  0.3202 -1.0262
    2CHTO    H8  815   3.499   7.288   2.542  1.3024  0.1418  0.9778
    2CHTO    H9  816   3.643   7.390   2.566  1.9631 -0.2857 -1.3415
    2CHTO    C4  817   3.839   7.263   2.467 -1.2579 -0.0262 -0.3391
    2CHTO   H17  818   3.828   7.333   2.384 -1.4577  1.6494  1.0582
    2CHTO    O1  819   3.936   7.156   2.457  0.0164 -0.1344  0.0174
    2CHTO    C5  820   3.909   7.081   2.341  0.0288  1.0279  1.0253
    2CHTO   H18  821   3.876   7.140   2.255 -0.4890 -1.8483 -0.8215
    2CHTO   C16  822   4.042   7.002   2.300 -0.4420 -0.0560 -0.1774
    2CHTO   O11  823   4.071   6.902   2.399  0.1654 -0.1509  0.9357
    2CHTO    H5  824   4.071   6.940   2.485  1.6155  0.3373  0.7448
    2CHTO    O3  825   3.891   7.353   2.576 -0.5328  0.6133 -0.0348
    2CHTO    C6  826   3.966   7.463   2.537  0.0258 -0.0633 -0.0085
    2CHTO   H19  827   4.009   7.457   2.437  0.5477  0.2755  0.1885
    2CHTO    C8  828   3.882   7.592   2.543 -0.3970  0.4163  0.0717
    2CHTO   H21  829   3.833   7.602   2.640 -1.5335  0.9144 -0.5387
    2CHTO    O7  830   3.790   7.583   2.435  0.9899  0.3775 -0.0955
    2CHTO    H2  831   3.739   7.505   2.436 -0.9148  1.5914  1.2116
    2CHTO   C12  832   3.973   7.724   2.535  0.1423  0.6953 -0.5426
    2CHTO   H25  833   3.997   7.729   2.427  0.4836 -1.0327 -0.5618
    2CHTO    N3  834   3.894   7.852   2.553 -1.0125  0.0060  0.2850
    2CHTO   H12  835   3.883   7.869   2.659  0.6136 -0.2291  0.5115
    2CHTO   H13  836   3.802   7.827   2.503  0.5352 -2.4512 -1.4454
    2CHTO   C15  837   4.106   7.707   2.609  0.1941  0.8430 -0.1744
    2CHTO   H28  838   4.085   7.709   2.716 -0.8388 -0.4325 -0.3386
    2CHTO   O10  839   4.215   7.804   2.571  0.9195  0.2322  0.2392
    2CHTO    H4  840   4.182   7.892   2.567 -1.7507 -0.7672 -1.8475
    2CHTO    O5  841   4.168   7.579   2.587  0.1534  0.2667  0.1931
    2CHTO   C10  842   4.093   7.470   2.635  0.0262  0.0769  0.0072
    2CHTO   H23  843   4.069   7.484   2.741 -1.5869 -1.0850 -0.2008
    2CHTO   C17  844   4.169   7.342   2.611  0.5496  0.0750 -0.1233
    2CHTO   O12  845   4.283   7.344   2.694  0.7109 -0.1649 -0.3613
    2CHTO    H6  846   4.243   7.338   2.779  1.1428  2.5678  0.0653
    3CHTO  H203  847   8.447   1.433   1.587  0.8213  1.2349  1.1584
    3CHTO   O82  848   8.375   1.470   1.634 -0.1011  0.6680  0.2075
    3CHTO  C123  849   8.280   1.374   1.696  0.8517  0.2055 -0.7274
    3CHTO  H227  850   8.331   1.318   1.776 -0.8297 -0.1031  0.1511
    3CHTO   O77  851   8.170   1.464   1.751 -0.5131 -0.1395 -0.2223
    3CHTO  C118  852   8.077   1.382   1.831  0.2358  0.0903 -0.6203
    3CHTO  H222  853   8.154   1.333   1.891  0.6530  0.5521 -0.7710
    3CHTO  C125  854   7.989   1.478   1.928 -0.0592  0.0598 -1.0936
    3CHTO   O84  855   7.922   1.563   1.837 -0.0542  0.1664 -0.3136
    3CHTO  H205  856   7.837   1.584   1.870 -0.6065 -0.5863 -1.2211
    3CHTO  C114  857   8.008   1.279   1.743 -0.8781  0.0073  0.2332
    3CHTO  H218  858   7.948   1.328   1.666  0.2277  4.0928  1.8772
    3CHTO  C116  859   8.109   1.191   1.674 -0.3206 -0.2351  0.4471
    3CHTO  H220  860   8.151   1.127   1.755 -0.2536 -2.4486 -1.3002
    3CHTO   O79  861   8.044   1.090   1.587 -0.0022 -0.0028 -0.2371
    3CHTO  H201  862   7.977   1.036   1.625  1.4409  0.0647  2.5280
    3CHTO  C120  863   8.214   1.270   1.592 -0.0394 -0.4612 -0.7807
    3CHTO  H224  864   8.159   1.324   1.512 -0.2086 -0.5939 -0.7533
    3CHTO   N21  865   8.330   1.185   1.537  0.6229 -0.1048  0.7703
    3CHTO  H211  866   8.366   1.221   1.442 -0.8386 -2.0725 -0.5576
    3CHTO  H212  867   8.403   1.176   1.616 -0.3025  0.6890  1.7435
    3CHTO   O75  868   7.923   1.210   1.843  0.3047 -0.2979 -0.3168
    3CHTO  C112  869   7.794   1.145   1.770 -0.4263 -0.2303  0.1151
    3CHTO  H216  870   7.822   1.094   1.677 -1.3168  2.1521 -1.5156
    3CHTO   O73  871   7.706   1.257   1.740 -0.2150 -0.2891 -1.5073
    3CHTO  C113  872   7.581   1.217   1.692 -0.0417  0.1504 -0.0348
    3CHTO  H217  873   7.601   1.164   1.596 -1.1630 -1.2778  0.4961
    3CHTO  C124  874   7.519   1.346   1.648 -0.1236  0.5453 -0.4841
    3CHTO   O83  875   7.394   1.336   1.572  0.7007  0.2909 -0.5981
    3CHTO  H204  876   7.355   1.417   1.546  0.4095 -0.3394 -2.1922
    3CHTO  C109  877   7.503   1.145   1.797  0.1171  0.1796  0.1197
    3CHTO  H213  878   7.495   1.214   1.882 -2.4987  1.8117 -1.3890
    3CHTO  C110  879   7.579   1.012   1.818  0.3618 -0.6847 -0.6307
    3CHTO  H214  880   7.592   0.962   1.721  0.6460 -0.7440 -0.5612
    3CHTO   O78  881   7.513   0.920   1.910  0.4316 -0.4410  0.6458
    3CHTO  H200  882   7.438   0.881   1.870  1.2103 -0.6547 -0.6492
    3CHTO  C111  883   7.720   1.044   1.868  1.0298  0.1975 -0.7441
    3CHTO  H215  884   7.710   1.091   1.967  0.2932 -0.6974 -0.3737
    3CHTO   N19  885   7.810   0.926   1.892  0.1739  0.8298  0.7094
    3CHTO  H207  886   7.805   0.832   1.839  4.2434  0.4865  0.7608
    3CHTO  H208  887   7.849   0.907   1.991  2.5876 -0.7340 -0.4692
    3CHTO   O74  888   7.368   1.119   1.752  0.1751 -0.1695  0.0570
    3CHTO  C115  889   7.252   1.091   1.852  0.0559  0.3268 -0.1312
    3CHTO  H219  890   7.283   1.032   1.938 -0.6012  2.0812  1.3296
    3CHTO   O76  891   7.196   1.224   1.919  0.2846 -0.1026  0.2515
    3CHTO  C122  892   7.109   1.307   1.836 -0.8240  0.4727  0.9438
    3CHTO  H226  893   7.164   1.363   1.761 -1.7097  0.2571  0.1137
    3CHTO  C126  894   7.070   1.412   1.929 -0.1561 -0.5754 -0.5244
    3CHTO   O85  895   7.174   1.500   1.973  0.4343 -0.0271 -0.0838
    3CHTO  H206  896   7.249   1.521   1.920 -0.3277  1.5142 -0.5870
    3CHTO  C121  897   6.995   1.223   1.766 -0.2197  0.0945 -0.7007
    3CHTO  H225  898   6.898   1.263   1.802 -1.4236 -2.8503 -0.4922
    3CHTO   O81  899   7.016   1.253   1.624 -0.2322 -0.4215 -0.0101
    3CHTO  H202  900   6.966   1.206   1.560  0.0465  0.7421 -1.0927
    3CHTO  C119  901   7.002   1.068   1.794  0.0108 -0.3891 -0.4689
    3CHTO  H223  902   6.997   1.061   1.903  0.9321  0.1518 -0.3862
    3CHTO  C117  903   7.139   1.015   1.768  0.3951  0.1794  0.9273
    3CHTO  H221  904   7.174   1.027   1.666 -1.2559  0.5945  0.3894
    3CHTO   N20  905   7.147   0.865   1.795  0.2593 -0.2874  0.7558
    3CHTO  H209  906   7.244   0.820   1.783  1.6255  1.8437  3.2535
    3CHTO  H210  907   7.072   0.813   1.737 -0.0435 -0.8092  1.6072
    3CHTO   O80  908   6.871   0.981   1.738  0.3289  0.5287  0.2179
    3CHTO  C103  909   6.726   1.029   1.786  0.0287  0.4795 -0.3340
    3CHTO  H190  910   6.730   1.097   1.871 -0.5239 -0.4304  0.4257
    3CHTO  C101  911   6.640   1.100   1.676 -0.8244 -0.2399  0.4046
    3CHTO  H188  912   6.661   1.042   1.585  1.6580  0.6308  0.3705
    3CHTO   O68  913   6.701   1.246   1.650 -0.3317 -0.1624  0.8352
    3CHTO  H168  914   6.681   1.297   1.726 -1.0541 -0.7376  1.0226
    3CHTO   C99  915   6.483   1.101   1.705  0.0438  0.1407  0.3690
    3CHTO  H186  916   6.466   1.159   1.798 -0.9560  0.9575 -0.3055
    3CHTO   N17  917   6.397   1.153   1.587 -0.6580  0.2840 -0.0706
    3CHTO  H174  918   6.334   1.076   1.545 -0.5971  0.1541  0.0781
    3CHTO  H175  919   6.334   1.231   1.627 -2.9828 -2.0042  0.8586
    3CHTO   C97  920   6.444   0.957   1.732  0.5957  0.2210  0.2289
    3CHTO  H184  921   6.464   0.890   1.647  1.0853  1.5075 -0.6903
    3CHTO   O64  922   6.507   0.912   1.845 -0.0431 -0.6028 -0.6525
    3CHTO  C104  923   6.653   0.890   1.829  0.3372  0.1957 -0.5536
    3CHTO  H191  924   6.670   0.813   1.753  4.3002 -0.1099  0.5566
    3CHTO  C108  925   6.709   0.827   1.960  0.3405  0.4699  0.1026
    3CHTO   O71  926   6.848   0.797   1.970 -0.0130 -0.5815 -0.3675
    3CHTO  H171  927   6.883   0.880   1.997  0.8866 -1.2824  0.6618
    3CHTO   O62  928   6.306   0.937   1.777  0.1422 -0.5208  0.0913
    3CHTO   C91  929   6.245   0.817   1.738  1.1735  0.3966  0.2380
    3CHTO  H178  930   6.263   0.811   1.630  0.9767  0.5735  0.1947
    3CHTO   C92  931   6.091   0.833   1.735  0.2149 -1.1025  0.0555
    3CHTO  H179  932   6.067   0.869   1.836 -1.3218  0.9271 -0.9947
    3CHTO   O66  933   6.061   0.940   1.646 -0.3635 -0.0408 -0.5720
    3CHTO  H166  934   5.970   0.963   1.644 -0.9138 -1.9275  1.3062
    3CHTO   C93  935   6.008   0.705   1.702 -0.1293 -0.1648  0.0789
    3CHTO  H180  936   6.042   0.686   1.599 -0.5409  0.0710 -0.1013
    3CHTO   N16  937   5.864   0.720   1.686  0.9609  0.0206  0.0964
    3CHTO  H172  938   5.828   0.816   1.718  2.0110 -0.3106  2.3839
    3CHTO  H173  939   5.813   0.647   1.747 -0.1124  1.5573  1.0508
    3CHTO   C94  940   6.054   0.579   1.788 -1.0058  0.6541  0.3652
    3CHTO  H181  941   5.978   0.548   1.859 -2.7180  1.3809 -1.0928
    3CHTO   O61  942   6.173   0.597   1.865  0.5669 -0.0374  0.3333
    3CHTO   C95  943   6.279   0.685   1.817  0.2392  0.2198 -0.9361
    3CHTO  H182  944   6.338   0.716   1.903 -1.1412 -0.7403  0.3681
    3CHTO  C106  945   6.372   0.597   1.735  0.1457 -0.0856 -0.5471
    3CHTO   O69  946   6.458   0.521   1.823 -0.0713 -0.1113 -0.2311
    3CHTO  H169  947   6.476   0.438   1.782 -2.4469 -2.1183  2.5464
    3CHTO   O63  948   6.083   0.450   1.678  0.3851  0.2095 -0.1679
    3CHTO   C96  949   6.001   0.323   1.680  0.0505 -0.6730 -0.0587
    3CHTO  H183  950   6.023   0.256   1.597 -1.5445 -0.4999 -0.6397
    3CHTO   C98  951   5.845   0.337   1.678  0.2357 -0.2141  0.2936
    3CHTO  H185  952   5.810   0.416   1.746  0.8743 -1.7249  2.4659
    3CHTO   O67  953   5.814   0.388   1.543 -0.1523  1.4111  0.5091
    3CHTO  H167  954   5.722   0.371   1.535  0.3305 -0.5272 -1.3428
    3CHTO  C102  955   5.759   0.209   1.715  0.0971 -0.0479 -0.2612
    3CHTO  H189  956   5.772   0.141   1.630 -3.7358  0.6362 -1.4498
    3CHTO   N18  957   5.614   0.225   1.742  0.1614  0.6072  0.4411
    3CHTO  H176  958   5.598   0.319   1.793 -1.9515  0.3636  0.2798
    3CHTO  H177  959   5.572   0.226   1.643  0.8282 -0.8127  0.1202
    3CHTO  C105  960   5.831   0.132   1.833  0.2165  1.0641 -0.3370
    3CHTO  H192  961   5.823   0.192   1.923 -1.8410  0.2854  0.0302
    3CHTO   O65  962   5.963   0.111   1.806 -0.0051  0.1851  0.8561
    3CHTO  C100  963   6.038   0.239   1.809 -0.4346  0.0627  0.0197
    3CHTO  H187  964   6.017   0.294   1.902  1.4685 -0.3614  0.7225
    3CHTO  C107  965   6.194   0.203   1.819 -0.2968 -0.0752 -0.2600
    3CHTO   O70  966   6.237   0.143   1.697  0.3545  0.3769 -0.8134
    3CHTO  H170  967   6.242   0.204   1.626 -0.3701  0.3734 -0.8702
    3CHTO   O57  968   5.762  -0.024   1.848 -0.5261  0.0013 -0.0492
    3CHTO   C85  969   5.757  -0.089   1.975  0.0737 -0.3787  0.0813
    3CHTO  H157  970   5.737  -0.195   1.951 -1.3190  0.1693 -1.2689
    3CHTO   C83  971   5.620  -0.054   2.048 -0.4335  0.0353 -0.6790
    3CHTO  H155  972   5.535  -0.074   1.983 -0.4340 -0.9271 -0.3862
    3CHTO   O56  973   5.617   0.090   2.075 -0.0483 -0.8073 -0.1944
    3CHTO  H135  974   5.698   0.134   2.093 -1.9736  3.1140 -0.6457
    3CHTO   C81  975   5.610  -0.135   2.182  0.3128 -1.0945  0.1573
    3CHTO  H153  976   5.615  -0.240   2.155 -1.9875 -0.9894 -0.8584
    3CHTO   N14  977   5.469  -0.121   2.232  1.1750  0.0902 -0.1919
    3CHTO  H141  978   5.404  -0.189   2.182 -1.2405 -0.0414  2.9637
    3CHTO  H142  979   5.442  -0.018   2.216  1.0924 -0.2466 -2.3557
    3CHTO   C79  980   5.736  -0.094   2.278  0.0313  0.4282 -0.6614
    3CHTO  H151  981   5.733  -0.153   2.370  0.2089 -0.6705 -1.3588
    3CHTO   O52  982   5.863  -0.124   2.209 -0.0193 -0.1515  0.1638
    3CHTO   C86  983   5.877  -0.077   2.071 -0.1527 -0.4087  0.0227
    3CHTO  H158  984   5.906   0.029   2.082  1.3324 -0.5803 -1.9648
    3CHTO   C90  985   5.997  -0.134   2.001 -1.0681  0.1352 -0.2354
    3CHTO   O60  986   6.020  -0.276   2.019  0.2594 -0.1744  0.2948
    3CHTO  H138  987   6.029  -0.290   2.111  4.0346 -0.6238 -0.0978
    3CHTO   O50  988   5.734   0.044   2.319 -0.1774 -0.1039 -0.2718
    3CHTO   C73  989   5.739   0.143   2.429  0.3795 -0.3538  0.0227
    3CHTO  H145  990   5.814   0.107   2.501  1.2227 -3.2888 -2.2472
    3CHTO   C74  991   5.603   0.149   2.494 -0.2759  1.4309  0.2307
    3CHTO  H146  992   5.581   0.045   2.520  0.7902  1.5823  1.8225
    3CHTO   O54  993   5.614   0.228   2.616  0.0818 -0.4952 -0.1700
    3CHTO  H133  994   5.671   0.193   2.682  0.9433  2.9773  1.0650
    3CHTO   C75  995   5.499   0.217   2.393 -0.4566 -0.2205  0.7125
    3CHTO  H147  996   5.498   0.163   2.298  1.5570 -0.0588  0.5692
    3CHTO   N13  997   5.362   0.236   2.439  0.1243 -0.9068  0.4090
    3CHTO  H139  998   5.353   0.192   2.537  1.1569 -0.6519  0.6231
    3CHTO  H140  999   5.302   0.170   2.379  1.8929 -2.6534  0.5246
    3CHTO   C76 1000   5.552   0.364   2.350  0.4243  0.0802  0.1404
    3CHTO  H148 1001   5.551   0.437   2.431 -0.4665 -0.1943  0.3825
    3CHTO   O49 1002   5.686   0.346   2.285 -0.2200  0.5759 -0.3273
    3CHTO   C77 1003   5.791   0.281   2.365 -0.1717  0.6167 -0.6822
    3CHTO  H149 1004   5.828   0.346   2.445 -0.6744  0.5049 -0.3592
    3CHTO   C88 1005   5.916   0.256   2.280  0.6101 -0.0567  0.7022
    3CHTO   O58 1006   5.987   0.398   2.249  0.0614  0.6365 -0.0201
    3CHTO  H136 1007   5.960   0.469   2.304  1.5250  1.6536 -0.5675
    3CHTO   O51 1008   5.450   0.432   2.230 -0.3389 -0.4463  0.4154
    3CHTO   C78 1009   5.492   0.597   2.209 -0.0731 -0.4851  0.6224
    3CHTO  H150 1010   5.586   0.624   2.261 -0.7284 -0.8790  2.0448
    3CHTO   C80 1011   5.377   0.676   2.267  0.9032 -1.2591 -0.3978
    3CHTO  H152 1012   5.284   0.643   2.216 -0.8821  3.1102 -0.2515
    3CHTO   O55 1013   5.361   0.658   2.406 -0.2669 -0.0077 -0.6581
    3CHTO  H134 1014   5.313   0.580   2.424  0.8242 -0.8889 -1.5092
    3CHTO   C84 1015   5.392   0.834   2.230  0.3368 -0.2348 -0.0558
    3CHTO  H156 1016   5.471   0.876   2.292  0.4349 -1.9916  1.0073
    3CHTO   N15 1017   5.266   0.913   2.270 -0.1037  0.1768  0.3136
    3CHTO  H143 1018   5.235   0.902   2.372 -1.3332  0.6103  0.0008
    3CHTO  H144 1019   5.275   1.018   2.253  2.6050 -0.3198 -1.5254
    3CHTO   C87 1020   5.404   0.854   2.076 -0.3704 -0.3261 -0.0745
    3CHTO  H159 1021   5.312   0.831   2.022 -0.8407  1.7046 -0.1800
    3CHTO   O53 1022   5.520   0.754   2.023  0.6278  0.5656  0.2778
    3CHTO   C82 1023   5.502   0.620   2.055 -0.1316 -0.4585  0.2154
    3CHTO  H154 1024   5.421   0.579   1.996 -0.3050  3.1539 -2.2361
    3CHTO   C89 1025   5.628   0.546   2.005 -0.2441  0.5895  0.3321
    3CHTO   O59 1026   5.626   0.526   1.861 -0.5998  0.7223 -0.3439
    3CHTO  H137 1027   5.577   0.451   1.833  0.8186  0.1695 -1.3934
    3CHTO   O45 1028   5.449   1.017   2.046  0.0600  0.1946 -0.1511
    3CHTO   C67 1029   5.589   1.040   2.047 -0.2469  0.5784  0.7242
    3CHTO  H124 1030   5.637   0.957   2.098 -3.0584 -1.1934  0.6229
    3CHTO   C65 1031   5.650   1.054   1.898  0.3888  0.5171  0.2576
    3CHTO  H122 1032   5.563   1.060   1.833  0.2326  0.8486  0.4969
    3CHTO   O44 1033   5.704   0.923   1.875  0.2752  0.2690  0.0180
    3CHTO  H102 1034   5.696   0.888   1.788  1.3541 -3.1604  1.1936
    3CHTO   C63 1035   5.749   1.183   1.876  0.0737  0.0098  0.0248
    3CHTO  H120 1036   5.688   1.272   1.894  0.0123 -0.1117  0.4208
    3CHTO   N11 1037   5.815   1.198   1.743  0.1930 -0.1531 -0.5986
    3CHTO  H108 1038   5.883   1.116   1.730 -0.1400 -0.2987 -1.4639
    3CHTO  H109 1039   5.747   1.177   1.663 -0.7504  2.3627 -0.5059
    3CHTO   C61 1040   5.850   1.175   1.995 -0.2054  0.5489  0.3173
    3CHTO  H118 1041   5.915   1.262   1.977  2.6581 -1.6233 -0.2986
    3CHTO   O40 1042   5.789   1.185   2.124 -0.1691 -0.0602  0.0680
    3CHTO   C68 1043   5.639   1.162   2.128 -0.1673  0.6348 -0.3301
    3CHTO  H125 1044   5.588   1.255   2.094  0.0936  0.4803 -1.1737
    3CHTO   C72 1045   5.603   1.143   2.276 -0.1272 -0.1356 -0.3570
    3CHTO   O48 1046   5.629   1.261   2.356  0.3255  0.2292  0.2255
    3CHTO  H105 1047   5.553   1.313   2.372  0.9868  1.6771 -1.2387
    3CHTO   O38 1048   5.919   1.053   1.992  0.0026 -0.3704 -0.0392
    3CHTO   C55 1049   6.013   1.022   2.095 -0.0572 -0.0840 -0.1716
    3CHTO  H112 1050   5.976   1.070   2.187  0.6565  1.1250 -0.5075
    3CHTO   C56 1051   6.161   1.076   2.058  0.5247 -0.1511 -0.1786
    3CHTO  H113 1052   6.184   1.024   1.964 -3.0051 -0.1250 -1.1225
    3CHTO   O42 1053   6.152   1.214   2.025 -0.7148  0.4693  0.0553
    3CHTO  H100 1054   6.097   1.258   2.087 -0.5073  1.0747 -0.1842
    3CHTO   C57 1055   6.268   1.034   2.163 -0.3922 -0.8020  0.2543
    3CHTO  H114 1056   6.247   1.082   2.259  1.5017  0.4452  0.0682
    3CHTO   N10 1057   6.405   1.071   2.129  0.0483  0.2194  1.0324
    3CHTO  H106 1058   6.420   1.059   2.022 -1.5151  1.3592  0.6659
    3CHTO  H107 1059   6.416   1.173   2.163 -1.9168  1.0614 -0.6936
    3CHTO   C58 1060   6.248   0.881   2.189 -0.1218  0.0361  0.5390
    3CHTO  H115 1061   6.274   0.828   2.095 -1.2567  2.4914 -1.1778
    3CHTO   O37 1062   6.114   0.842   2.218  0.2900 -0.4809 -0.2337
    3CHTO   C59 1063   6.026   0.874   2.114  1.2648  0.3132  0.2793
    3CHTO  H116 1064   6.056   0.819   2.024  1.1958 -1.2589  1.2007
    3CHTO   C70 1065   5.894   0.815   2.152 -0.2852 -0.1847 -0.3124
    3CHTO   O46 1066   5.896   0.674   2.183 -0.0391 -0.2778 -0.3966
    3CHTO  H103 1067   5.934   0.665   2.268 -0.8904  0.0510  0.0246
    3CHTO   O39 1068   6.315   0.826   2.309 -0.0524  0.2909  0.3334
    3CHTO   C60 1069   6.333   0.686   2.303 -0.0821 -0.6758 -0.1098
    3CHTO  H117 1070   6.260   0.644   2.233 -0.6340 -1.3050  0.8347
    3CHTO   C62 1071   6.483   0.654   2.256 -0.5510 -0.3564  0.2133
    3CHTO  H119 1072   6.505   0.712   2.164  0.9650 -0.7492  0.3123
    3CHTO   O43 1073   6.585   0.685   2.354  0.7399  0.0723 -0.2536
    3CHTO  H101 1074   6.555   0.760   2.401 -3.3655 -1.9015  0.4821
    3CHTO   C66 1075   6.494   0.494   2.219 -0.0105 -0.6383 -0.5652
    3CHTO  H123 1076   6.416   0.471   2.147 -0.2750 -0.7458 -0.2449
    3CHTO   N12 1077   6.620   0.472   2.146  0.9645  0.2043  0.3365
    3CHTO  H110 1078   6.610   0.380   2.089  0.2043  0.0205  0.7640
    3CHTO  H111 1079   6.652   0.555   2.084 -1.3439  0.3746 -0.6742
    3CHTO   C69 1080   6.465   0.415   2.346  0.1591  0.1129  0.0431
    3CHTO  H126 1081   6.548   0.436   2.417  0.3580  1.6240 -0.6210
    3CHTO   O41 1082   6.325   0.457   2.413 -0.1306 -0.2480 -0.3218
    3CHTO   C64 1083   6.310   0.608   2.437 -0.3973  0.2329  0.1853
    3CHTO  H121 1084   6.390   0.638   2.508  1.5038 -2.2248 -0.8992
    3CHTO   C71 1085   6.177   0.642   2.508  0.5258  0.3164 -0.2269
    3CHTO   O47 1086   6.065   0.612   2.430 -0.0694  0.4615  0.0966
    3CHTO  H104 1087   6.071   0.667   2.354 -1.7495 -1.0098 -1.1493
    3CHTO   O34 1088   6.457   0.256   2.323  0.2923 -0.3257  0.8695
    3CHTO   C49 1089   6.524   0.119   2.221 -0.2201  0.9112 -0.6046
    3CHTO   H91 1090   6.617   0.156   2.177 -0.3648  1.4318 -0.4695
    3CHTO   C47 1091   6.422   0.069   2.108 -0.0643  0.0471 -0.1005
    3CHTO   H89 1092   6.452   0.134   2.023 -2.4149  3.5743  1.6263
    3CHTO   O33 1093   6.290   0.112   2.144 -0.4367 -0.0127  0.0171
    3CHTO   H70 1094   6.231   0.095   2.073 -0.3518 -1.2970  0.2390
    3CHTO   C45 1095   6.427  -0.094   2.081 -0.1940 -0.3834  0.0655
    3CHTO   H87 1096   6.353  -0.134   2.152  0.3041  0.4230  1.0586
    3CHTO    N8 1097   6.380  -0.125   1.947 -0.2649  0.1101  0.3582
    3CHTO   H75 1098   6.385  -0.047   1.873  1.1708  0.7696  1.1438
    3CHTO   H76 1099   6.285  -0.177   1.943  1.0805 -2.3832 -0.0319
    3CHTO   C43 1100   6.576  -0.158   2.109 -0.5499 -0.3653  0.0835
    3CHTO   H85 1101   6.581  -0.265   2.086  1.3176 -0.6184  1.5881
    3CHTO   O29 1102   6.594  -0.133   2.249 -0.2075  0.0441  0.2599
    3CHTO   C50 1103   6.552  -0.004   2.307 -0.5802  0.1206  0.7579
    3CHTO   H92 1104   6.460  -0.026   2.363 -1.8932 -1.2209 -1.8496
    3CHTO   C54 1105   6.649   0.035   2.410 -0.5226  0.5657  0.1698
    3CHTO   O36 1106   6.669  -0.052   2.519 -0.5881  0.0412 -0.1581
    3CHTO   H72 1107   6.605  -0.035   2.585  0.6579 -0.9578  1.3248
    3CHTO   O27 1108   6.686  -0.105   2.031 -0.1796  0.5300 -0.2127
    3CHTO   C37 1109   6.809  -0.033   2.001  0.0561  0.1440 -0.4676
    3CHTO   H79 1110   6.796   0.071   2.032  1.1558 -0.2200  1.3245
    3CHTO   C38 1111   6.935  -0.090   2.076 -0.0261 -0.4551  0.1604
    3CHTO   H80 1112   6.941  -0.197   2.053  0.6032 -0.8492  2.0442
    3CHTO   O31 1113   6.918  -0.058   2.218 -0.4126 -0.4205  0.7564
    3CHTO   H68 1114   6.993  -0.091   2.264  0.3891 -0.5468 -0.6292
    3CHTO   C39 1115   7.067  -0.020   2.014 -0.1991 -0.0059  0.0876
    3CHTO   H81 1116   7.066   0.088   2.033  0.7789  0.3317 -1.6336
    3CHTO    N7 1117   7.190  -0.069   2.086  0.2739  0.0082 -0.1064
    3CHTO   H73 1118   7.179  -0.176   2.079 -0.4864 -0.1226  2.4946
    3CHTO   H74 1119   7.186  -0.042   2.191 -0.2638  1.3782 -0.4669
    3CHTO   C40 1120   7.070  -0.042   1.859 -0.0290  0.6070 -0.2566
    3CHTO   H82 1121   7.073  -0.149   1.841 -1.7663  0.2686  1.2580
    3CHTO   O26 1122   6.953   0.017   1.804 -0.0365  0.2564 -0.0752
    3CHTO   C41 1123   6.828  -0.041   1.852  0.3033 -0.4945  0.3637
    3CHTO   H83 1124   6.820  -0.141   1.805  1.2966  0.1475 -1.2091
    3CHTO   C52 1125   6.711   0.032   1.782 -0.7186  0.0641 -0.1746
    3CHTO   O35 1126   6.701   0.186   1.825  0.0963 -0.6976 -0.0617
    3CHTO   H71 1127   6.643   0.230   1.765  1.5596  1.7917  0.2958
    3CHTO   O28 1128   7.187   0.029   1.803  0.0502 -0.0100  0.6463
    3CHTO   C42 1129   7.187   0.162   1.746 -0.2010 -0.2233  0.3490
    3CHTO   H84 1130   7.294   0.181   1.738 -0.0008 -1.4311 -0.0249
    3CHTO   C44 1131   7.127   0.272   1.849  0.0947  0.0124  0.2150
    3CHTO   H86 1132   7.032   0.242   1.892  0.6703  0.0250  1.5141
    3CHTO   O32 1133   7.215   0.283   1.964 -0.0295 -0.4793  0.7065
    3CHTO   H69 1134   7.172   0.314   2.041  1.1087  1.1240  0.7205
    3CHTO   C48 1135   7.106   0.418   1.783  0.3937 -0.4365 -0.2202
    3CHTO   H90 1136   7.203   0.467   1.773  0.9594 -1.6699 -0.8631
    3CHTO    N9 1137   7.016   0.503   1.868  0.3923 -0.5782 -0.2615
    3CHTO   H77 1138   7.060   0.594   1.904 -1.4940  0.8689 -1.5464
    3CHTO   H78 1139   6.956   0.445   1.936 -0.1742 -1.4752 -1.4984
    3CHTO   C51 1140   7.047   0.413   1.643 -0.6745 -0.0203 -0.3118
    3CHTO   H93 1141   6.942   0.387   1.650 -0.6672 -0.4862 -1.7089
    3CHTO   O30 1142   7.122   0.328   1.554  0.5026  0.4762  0.4901
    3CHTO   C46 1143   7.128   0.175   1.599 -0.0128 -0.1129  0.2409
    3CHTO   H88 1144   7.030   0.129   1.590 -0.0587  0.0321 -0.0095
    3CHTO   C53 1145   7.233   0.108   1.502  0.0720 -0.2973 -0.8059
    3CHTO   O72 1146   7.196   0.111   1.367 -0.1380  0.0108 -0.0097
    3CHTO  H199 1147   7.141   0.039   1.346  0.0141 -0.4010  0.9768
    3CHTO   O22 1148   7.055   0.544   1.587  0.0244 -0.1723  0.7296
    3CHTO   C31 1149   6.963   0.591   1.489 -0.2741  0.5871  1.0365
    3CHTO   H59 1150   6.935   0.502   1.429 -0.1139  1.7277 -0.7601
    3CHTO   C29 1151   6.832   0.650   1.537 -0.0931 -0.3028  0.1180
    3CHTO   H57 1152   6.852   0.738   1.599 -2.3122 -0.1496  0.6818
    3CHTO   O21 1153   6.769   0.557   1.623 -0.3707  0.2517  0.5617
    3CHTO   H37 1154   6.712   0.606   1.678  0.8710  2.8261 -0.3582
    3CHTO   C27 1155   6.732   0.685   1.424 -0.4050 -0.0358  0.2039
    3CHTO   H55 1156   6.721   0.591   1.369  0.0625  0.1024 -0.1273
    3CHTO    N5 1157   6.593   0.727   1.457 -0.5745 -0.0569  0.1088
    3CHTO   H43 1158   6.580   0.828   1.423 -0.6999  0.3194  1.2702
    3CHTO   H44 1159   6.561   0.728   1.560  0.4376 -3.3429  0.5173
    3CHTO   C25 1160   6.804   0.790   1.331 -0.6973  0.2409 -0.1513
    3CHTO   H53 1161   6.818   0.883   1.388 -0.0728 -1.6302  2.8682
    3CHTO   O17 1162   6.935   0.735   1.286 -0.0133 -0.1529 -0.0321
    3CHTO   C32 1163   7.026   0.689   1.388  0.5633  0.6685  0.3450
    3CHTO   H60 1164   7.057   0.778   1.442  0.4077  0.5429  0.6392
    3CHTO   C36 1165   7.155   0.635   1.317 -0.3770  0.5398 -1.0870
    3CHTO   O25 1166   7.132   0.504   1.255 -0.4866  0.5396 -0.2935
    3CHTO   H40 1167   7.216   0.466   1.237 -0.0968  0.2133  1.9905
    3CHTO   O15 1168   6.728   0.817   1.199  0.1249 -0.0368  0.3466
    3CHTO   C19 1169   6.708   0.930   1.100  0.0279 -0.5906 -0.5996
    3CHTO   H47 1170   6.642   0.890   1.022  2.2100  1.9991 -3.9091
    3CHTO   C20 1171   6.640   1.061   1.155  1.2138  0.0949 -0.2315
    3CHTO   H48 1172   6.699   1.111   1.234  2.1990  1.5822 -1.8421
    3CHTO   O19 1173   6.519   1.007   1.198 -0.6286 -0.3470 -0.1817
    3CHTO   H35 1174   6.451   1.071   1.189  1.5432  1.9459 -0.6956
    3CHTO   C21 1175   6.617   1.169   1.039  0.6505  0.1241 -0.2710
    3CHTO   H49 1176   6.541   1.132   0.969  1.6115 -1.2433 -0.6234
    3CHTO    N4 1177   6.568   1.295   1.092 -0.4630  0.1138 -0.1237
    3CHTO   H41 1178   6.652   1.346   1.136  0.5451 -1.1563 -0.5599
    3CHTO   H42 1179   6.516   1.350   1.016 -1.7318 -0.7439  0.0947
    3CHTO   C22 1180   6.746   1.176   0.951 -0.1744 -0.5126 -0.0222
    3CHTO   H50 1181   6.829   1.223   1.003  0.9285 -1.3466 -0.9829
    3CHTO   O14 1182   6.786   1.048   0.903  0.1449 -0.2245  0.1755
    3CHTO   C23 1183   6.835   0.968   1.015 -0.5843 -0.3420 -0.8973
    3CHTO   H51 1184   6.911   1.025   1.070 -1.3089  1.4750 -1.7437
    3CHTO   C34 1185   6.903   0.844   0.963 -0.0242 -0.5654 -0.0073
    3CHTO   O23 1186   6.821   0.749   0.900 -0.5589 -0.7216 -0.1291
    3CHTO   H38 1187   6.875   0.690   0.852  1.1126  0.4512  0.2437
    3CHTO   O16 1188   6.709   1.231   0.821  0.6033  0.0225 -0.1789
    3CHTO   C24 1189   6.811   1.343   0.774  0.3587 -0.2715  0.2979
    3CHTO   H52 1190   6.852   1.399   0.858 -0.7078  1.0765 -0.0550
    3CHTO   C26 1191   6.717   1.442   0.696  0.1594 -0.1781 -0.2322
    3CHTO   H54 1192   6.656   1.382   0.625  0.9542 -1.1481 -0.0979
    3CHTO   O20 1193   6.629   1.496   0.794 -0.2537  0.6780  0.5553
    3CHTO   H36 1194   6.546   1.531   0.765  0.3922  0.5537 -1.5108
    3CHTO   C30 1195   6.804   1.555   0.625 -0.0835  0.3338 -0.2049
    3CHTO   H58 1196   6.834   1.619   0.709 -0.3991 -2.8997  2.4935
    3CHTO    N6 1197   6.716   1.629   0.532  0.1303 -0.1329  0.2581
    3CHTO   H45 1198   6.698   1.733   0.552 -2.4875 -0.9333  2.3190
    3CHTO   H46 1199   6.741   1.611   0.428  1.0206 -0.3881  0.5134
    3CHTO   C33 1200   6.926   1.487   0.552  0.7444 -0.5805  0.4825
    3CHTO   H61 1201   6.897   1.442   0.456  0.1893  2.2656 -0.7443
    3CHTO   O18 1202   6.996   1.387   0.623  0.2649  0.1465  0.0821
    3CHTO   C28 1203   6.926   1.285   0.690  0.0254 -0.3583 -0.5112
    3CHTO   H56 1204   6.885   1.216   0.617 -1.9492 -1.6857  1.7543
    3CHTO   C35 1205   7.025   1.192   0.787 -0.8138  0.2459 -0.3363
    3CHTO   O24 1206   7.143   1.132   0.736 -0.3328 -0.0155  0.7518
    3CHTO   H39 1207   7.200   1.202   0.710  0.8929 -1.2444  0.0522
    3CHTO    O9 1208   7.013   1.595   0.513 -0.5688  0.0737  0.1819
    3CHTO   C13 1209   7.108   1.660   0.646  0.5052 -0.0720 -0.6321
    3CHTO   H26 1210   7.043   1.650   0.735 -0.5098  0.5158 -1.2988
    3CHTO   C11 1211   7.143   1.811   0.614  0.0339  0.6182  0.4280
    3CHTO   H24 1212   7.048   1.867   0.619 -0.1005  0.4411 -0.1080
    3CHTO    O8 1213   7.205   1.821   0.485  0.0898 -0.9577 -0.3716
    3CHTO    H3 1214   7.201   1.742   0.435 -0.1672 -1.0091 -0.2704
    3CHTO    C9 1215   7.229   1.855   0.739  0.3497 -0.1094  0.6993
    3CHTO   H22 1216   7.168   1.834   0.828  0.9352 -0.1009  1.1014
    3CHTO    N2 1217   7.251   2.002   0.745 -0.1729  0.2173 -0.1507
    3CHTO   H10 1218   7.182   2.055   0.808  1.1313  0.9455  0.6918
    3CHTO   H11 1219   7.259   2.046   0.646 -0.0647 -2.2647 -1.2852
    3CHTO    C7 1220   7.366   1.775   0.751 -1.1924 -0.0421  0.4397
    3CHTO   H20 1221   7.420   1.814   0.839 -1.2000 -1.8928  1.2693
    3CHTO    O4 1222   7.341   1.632   0.762  0.4571  0.2932 -0.0960
    3CHTO   C14 1223   7.244   1.573   0.670 -0.1369 -0.3963 -0.3502
    3CHTO   H27 1224   7.206   1.488   0.732 -2.4715 -0.1771 -1.4182
    3CHTO   C18 1225   7.306   1.512   0.541  0.3567 -0.6802  0.4419
    3CHTO   O13 1226   7.403   1.412   0.569  0.2884 -0.3220  0.3229
    3CHTO    H7 1227   7.449   1.435   0.647 -0.2864 -2.6156  1.3598
    3CHTO    O2 1228   7.483   1.808   0.626  0.3315 -0.1687  0.6033
    3CHTO    C1 1229   7.608   1.731   0.620  0.1249  0.2619 -0.3429
    3CHTO   H14 1230   7.590   1.630   0.577 -1.1376 -0.0328  0.8265
    3CHTO    C2 1231   7.688   1.724   0.762  0.1010 -0.3082  0.9231
    3CHTO   H15 1232   7.714   1.825   0.795  0.2180 -0.8751  2.6101
    3CHTO    O6 1233   7.605   1.652   0.856  0.2793  0.1717 -0.1756
    3CHTO    H1 1234   7.573   1.572   0.818 -1.4137  0.4897  0.5407
    3CHTO    C3 1235   7.822   1.644   0.732 -0.2827  0.0232 -0.4192
    3CHTO   H16 1236   7.798   1.546   0.689 -0.6729  0.3182 -0.8835
    3CHTO    N1 1237   7.904   1.606   0.849  0.1150  0.0081  0.4428
    3CHTO    H8 1238   7.954   1.692   0.891  0.5542 -0.3043  0.5716
    3CHTO    H9 1239   7.847   1.554   0.924 -1.0289 -1.7409 -1.5841
    3CHTO    C4 1240   7.902   1.720   0.624  0.2119  0.2281  0.3650
    3CHTO   H17 1241   7.935   1.815   0.667 -1.3613  0.6735  0.6434
    3CHTO    O1 1242   7.820   1.750   0.503 -0.2539 -0.1855 -0.0930
    3CHTO    C5 1243   7.687   1.808   0.517 -0.0566 -0.3923  0.5534
    3CHTO   H18 1244   7.689   1.913   0.544  2.4430 -0.7137  1.8413
    3CHTO   C16 1245   7.623   1.792   0.380  0.5359  0.1006  0.3686
    3CHTO   O11 1246   7.512   1.878   0.360 -0.1463 -0.4514 -0.2863
    3CHTO    H5 1247   7.461   1.888   0.438  2.0864  0.7883  1.0694
    3CHTO    O3 1248   8.020   1.648   0.578  0.5791  0.3329 -0.1516
    3CHTO    C6 1249   8.107   1.718   0.481 -0.1445 -0.0754 -0.4417
    3CHTO   H19 1250   8.059   1.798   0.424  0.5656  0.4033 -0.3672
    3CHTO    C8 1251   8.227   1.791   0.553  0.9063 -0.1726  0.1039
    3CHTO   H21 1252   8.285   1.715   0.604  0.4663 -1.5966 -1.4714
    3CHTO    O7 1253   8.167   1.891   0.640 -0.1507  0.1105  0.4464
    3CHTO    H2 1254   8.150   1.852   0.724  0.5128 -1.1601  0.0046
    3CHTO   C12 1255   8.319   1.851   0.440  0.1213 -0.5381 -0.1759
    3CHTO   H25 1256   8.252   1.922   0.388  1.4082  0.7346 -0.1330
    3CHTO    N3 1257   8.427   1.925   0.510  0.1493  0.4173 -0.0386
    3CHTO   H12 1258   8.502   1.941   0.434  0.1892 -1.5031 -0.4216
    3CHTO   H13 1259   8.393   2.020   0.550  2.1237  0.7362  0.9630
    3CHTO   C15 1260   8.354   1.738   0.346  0.3247  0.3123  0.1536
    3CHTO   H28 1261   8.413   1.663   0.398 -0.7919  0.0984  1.1322
    3CHTO   O10 1262   8.433   1.782   0.232 -0.3648 -0.0319  0.6936
    3CHTO    H4 1263   8.402   1.858   0.187 -0.2658 -1.3128 -1.5668
    3CHTO    O5 1264   8.239   1.673   0.284 -0.2794  0.2220  0.6596
    3CHTO   C10 1265   8.154   1.608   0.381  0.2208 -0.0633 -0.4141
    3CHTO   H23 1266   8.208   1.531   0.437  0.5742  0.6695  0.2647
    3CHTO   C17 1267   8.031   1.542   0.316 -0.0080  0.0189 -0.3708
    3CHTO   O12 1268   8.071   1.468   0.205  0.1039  0.1862  0.2694
    3CHTO    H6 1269   8.083   1.516   0.125 -1.3589  2.1163  1.1717
    4CHTO  H203 1270   6.607   7.389   2.150  2.2664 -0.6441 -1.0757
    4CHTO   O82 1271   6.645   7.387   2.235  0.3129  0.4455 -0.1516
    4CHTO  C123 1272   6.609   7.507   2.311  0.1716 -0.2473  0.4476
    4CHTO  H227 1273   6.548   7.476   2.398 -1.1331 -0.0945 -0.3968
    4CHTO   O77 1274   6.735   7.561   2.334 -0.3935  0.2960  0.2962
    4CHTO  C118 1275   6.739   7.685   2.414  0.0026 -0.1332  0.5308
    4CHTO  H222 1276   6.675   7.673   2.503 -0.3344 -1.1710  0.1594
    4CHTO  C125 1277   6.889   7.736   2.450 -0.7174  0.2046  0.0689
    4CHTO   O84 1278   6.969   7.632   2.511  0.2594 -0.0403  0.5165
    4CHTO  H205 1279   7.008   7.576   2.447 -1.6338  0.8967 -1.5324
    4CHTO  C114 1280   6.674   7.793   2.324 -0.0074 -0.3497 -0.1489
    4CHTO  H218 1281   6.734   7.800   2.234 -1.7924 -0.9922 -1.4118
    4CHTO  C116 1282   6.532   7.749   2.271 -0.0584  1.0142 -0.2090
    4CHTO  H220 1283   6.450   7.763   2.345 -0.6231  0.7682 -0.7834
    4CHTO   O79 1284   6.488   7.833   2.157  0.2347 -0.0890  0.2112
    4CHTO  H201 1285   6.569   7.850   2.113  0.4579  0.7309  0.9232
    4CHTO  C120 1286   6.524   7.596   2.218 -0.6222 -0.2554 -0.5937
    4CHTO  H224 1287   6.571   7.603   2.117 -0.5967 -0.1520 -0.5750
    4CHTO   N21 1288   6.386   7.543   2.205  0.4060  0.3875  0.4829
    4CHTO  H211 1289   6.350   7.491   2.293 -2.7441 -0.4984 -1.2546
    4CHTO  H212 1290   6.319   7.622   2.175 -1.7441 -1.8835 -0.9110
    4CHTO   O75 1291   6.679   7.912   2.412  0.7458 -0.3558 -0.0432
    4CHTO  C112 1292   6.749   8.055   2.337  1.0823  0.1374 -0.2196
    4CHTO  H216 1293   6.752   8.044   2.228  0.3495  2.1550 -0.4649
    4CHTO   O73 1294   6.877   8.081   2.398 -0.0540 -0.6203 -0.7350
    4CHTO  C113 1295   6.938   8.211   2.352 -0.0305  0.5803 -0.0930
    4CHTO  H217 1296   6.956   8.198   2.243 -0.9040 -2.4200  0.0949
    4CHTO  C124 1297   7.072   8.233   2.419  0.1572  0.6498 -0.5348
    4CHTO   O83 1298   7.177   8.139   2.379  0.1337 -0.0936  0.2973
    4CHTO  H204 1299   7.165   8.049   2.402 -1.2534 -0.3824 -1.4082
    4CHTO  C109 1300   6.859   8.343   2.376 -0.0005  0.5487 -0.2877
    4CHTO  H213 1301   6.863   8.361   2.485  0.2926  2.2268 -0.5621
    4CHTO  C110 1302   6.715   8.318   2.323 -0.6290  0.4579  0.1557
    4CHTO  H214 1303   6.729   8.320   2.215 -0.0129  1.5923  0.2484
    4CHTO   O78 1304   6.627   8.422   2.364  0.2336  0.2272 -0.3713
    4CHTO  H200 1305   6.542   8.414   2.325  1.1816 -2.9107 -1.9380
    4CHTO  C111 1306   6.654   8.182   2.366  0.1350 -0.1741 -0.4843
    4CHTO  H215 1307   6.639   8.190   2.475 -0.1622  0.0399 -0.5367
    4CHTO   N19 1308   6.519   8.151   2.301 -0.3402  0.4540  0.0281
    4CHTO  H207 1309   6.445   8.220   2.339 -0.2223  1.8430 -2.1991
    4CHTO  H208 1310   6.494   8.047   2.308  1.0172  0.1881  1.0840
    4CHTO   O74 1311   6.932   8.447   2.311  0.4342 -0.2685 -0.2927
    4CHTO  C115 1312   6.900   8.595   2.372  0.3470  0.0864  0.4550
    4CHTO  H219 1313   6.805   8.595   2.426  0.2779 -1.0247  0.3482
    4CHTO   O76 1314   7.005   8.629   2.475 -0.0956  0.1531  0.2033
    4CHTO  C122 1315   7.148   8.624   2.433  0.6958 -0.1074 -0.3402
    4CHTO  H226 1316   7.166   8.516   2.430  2.8957  0.2174 -0.0674
    4CHTO  C126 1317   7.237   8.682   2.539 -0.3829 -1.1213  0.9888
    4CHTO   O85 1318   7.222   8.601   2.654 -0.0372  0.0838 -0.2917
    4CHTO  H206 1319   7.281   8.620   2.724 -1.4551  0.7306  0.7580
    4CHTO  C121 1320   7.170   8.691   2.290  0.2151  0.5891 -0.2427
    4CHTO  H225 1321   7.255   8.762   2.296  1.0648 -0.5888  2.8787
    4CHTO   O81 1322   7.186   8.594   2.193  0.0734 -0.5731  0.0494
    4CHTO  H202 1323   7.278   8.577   2.191  0.3424  0.8855 -2.2305
    4CHTO  C119 1324   7.039   8.776   2.242 -0.2487  0.4293  0.9295
    4CHTO  H223 1325   7.036   8.862   2.309  1.1208  1.9845 -0.9434
    4CHTO  C117 1326   6.903   8.697   2.255 -0.0322 -0.2524  0.0426
    4CHTO  H221 1327   6.885   8.633   2.168  0.6620 -1.9280  1.1129
    4CHTO   N20 1328   6.782   8.783   2.262  0.2982  0.2474 -0.2280
    4CHTO  H209 1329   6.784   8.852   2.178  0.3298 -0.1026 -0.5132
    4CHTO  H210 1330   6.689   8.729   2.251  1.3068 -1.8053  1.0690
    4CHTO   O80 1331   7.054   8.860   2.094  0.5940 -0.8047  0.6208
    4CHTO  C103 1332   7.051   9.008   2.093  0.0929 -0.2810  0.8389
    4CHTO  H190 1333   6.987   9.046   2.173 -0.7974 -1.4414  0.6904
    4CHTO  C101 1334   7.193   9.084   2.085 -0.5635  0.1536  0.0457
    4CHTO  H188 1335   7.244   9.044   1.998  2.6358 -1.2415  2.4705
    4CHTO   O68 1336   7.280   9.060   2.220  0.0017  0.0680 -0.5103
    4CHTO  H168 1337   7.223   9.050   2.295 -0.2329 -0.2600 -0.7277
    4CHTO   C99 1338   7.164   9.237   2.061 -0.6358  0.0588 -0.1673
    4CHTO  H186 1339   7.108   9.285   2.144 -0.6626  2.4770 -1.5323
    4CHTO   N17 1340   7.293   9.312   2.050 -0.1701  0.6558 -0.1016
    4CHTO  H174 1341   7.290   9.415   2.084  2.5087  0.4567  0.7983
    4CHTO  H175 1342   7.367   9.257   2.105 -0.7076 -0.1003 -0.1184
    4CHTO   C97 1343   7.084   9.265   1.936  0.1785 -1.3350  0.5627
    4CHTO  H184 1344   7.140   9.235   1.846 -1.5172 -2.0351 -0.2825
    4CHTO   O64 1345   6.962   9.193   1.947  0.3607 -0.0077  0.3104
    4CHTO  C104 1346   6.967   9.050   1.959 -0.1221  0.1880  0.1382
    4CHTO  H191 1347   7.022   9.014   1.871 -0.1116  0.8459 -0.1241
    4CHTO  C108 1348   6.827   8.998   1.953  0.3412  0.0804  0.0462
    4CHTO   O71 1349   6.736   9.058   2.045 -0.1149 -0.2988 -0.2214
    4CHTO  H171 1350   6.771   9.144   2.058  0.9216 -0.8360  0.5814
    4CHTO   O62 1351   7.028   9.399   1.932  0.7045 -0.0166  0.1105
    4CHTO   C91 1352   7.008   9.451   1.799 -0.0541 -0.6181  0.0481
    4CHTO  H178 1353   7.004   9.371   1.725  1.6569 -0.0384 -0.6768
    4CHTO   C92 1354   7.123   9.549   1.757  0.2536  0.5229  0.2746
    4CHTO  H179 1355   7.129   9.624   1.836 -0.5180  0.2987  0.5472
    4CHTO   O66 1356   7.252   9.490   1.759 -0.1083 -0.0864  0.5737
    4CHTO  H166 1357   7.294   9.467   1.840 -1.3532 -1.8178  0.7386
    4CHTO   C93 1358   7.102   9.612   1.615 -0.0290 -0.3444  0.0929
    4CHTO  H180 1359   7.119   9.526   1.549  2.4001 -0.5162  0.8991
    4CHTO   N16 1360   7.196   9.717   1.574 -0.0815 -0.0147 -0.1421
    4CHTO  H172 1361   7.245   9.765   1.658  2.3064 -2.0924 -0.2797
    4CHTO  H173 1362   7.141   9.793   1.521 -0.1953 -0.7182 -1.0436
    4CHTO   C94 1363   6.953   9.668   1.593 -0.4937  0.0084  0.4758
    4CHTO  H181 1364   6.925   9.742   1.668  0.6694  1.1146 -0.1713
    4CHTO   O61 1365   6.863   9.559   1.632 -0.0582  0.3560  0.2021
    4CHTO   C95 1366   6.876   9.530   1.771  0.0954 -0.5456  0.6338
    4CHTO  H182 1367   6.869   9.621   1.830 -1.1259  0.6576 -1.3049
    4CHTO  C106 1368   6.744   9.449   1.804 -0.0509 -0.4083  0.2854
    4CHTO   O69 1369   6.738   9.410   1.944 -0.8132  0.1603  0.8601
    4CHTO  H169 1370   6.711   9.321   1.958  1.2898 -0.4972  0.9101
    4CHTO   O63 1371   6.918   9.729   1.428 -0.2572 -0.0050  0.0483
    4CHTO   C96 1372   6.954   9.632   1.293 -0.8670 -0.8321 -0.2908
    4CHTO  H183 1373   7.038   9.566   1.312  0.8311  1.0153 -1.1798
    4CHTO   C98 1374   6.979   9.711   1.162 -0.1572 -0.3410 -0.0062
    4CHTO  H185 1375   6.893   9.774   1.139 -0.4110 -0.5882  0.2647
    4CHTO   O67 1376   7.094   9.802   1.184  0.7301 -0.2763  0.4690
    4CHTO  H167 1377   7.069   9.879   1.231  2.8227  1.1753 -0.7341
    4CHTO  C102 1378   7.012   9.606   1.044  0.1841 -0.5704  0.2511
    4CHTO  H189 1379   7.109   9.567   1.077 -1.0531 -0.5802  4.2253
    4CHTO   N18 1380   7.033   9.656   0.904  0.6283 -0.5962 -0.0575
    4CHTO  H176 1381   6.937   9.683   0.862  2.4348  3.4551 -1.7577
    4CHTO  H177 1382   7.115   9.726   0.893  0.3520 -0.2776 -0.1112
    4CHTO  C105 1383   6.915   9.485   1.048  0.5330  0.9487  0.3542
    4CHTO  H192 1384   6.868   9.467   0.951  0.4107  1.6980  0.2743
    4CHTO   O65 1385   6.797   9.500   1.131 -0.5485 -0.0875  0.1697
    4CHTO  C100 1386   6.826   9.545   1.264  0.0956  0.0278  0.3807
    4CHTO  H187 1387   6.741   9.605   1.300  0.5006  0.4614  0.6169
    4CHTO  C107 1388   6.827   9.423   1.358  0.2178 -0.1356  0.1799
    4CHTO   O70 1389   6.696   9.369   1.386  0.2582  0.2817 -0.0725
    4CHTO  H170 1390   6.707   9.277   1.396 -1.0511  0.2774  1.4341
    4CHTO   O57 1391   7.007   9.351   1.098 -0.0613 -0.7177 -0.0080
    4CHTO   C85 1392   7.000   9.237   1.010  0.2612 -0.6371 -0.5056
    4CHTO  H157 1393   6.908   9.257   0.950 -0.2123 -3.0382 -0.6293
    4CHTO   C83 1394   6.970   9.114   1.104  0.0068  0.2199  0.8032
    4CHTO  H155 1395   6.880   9.135   1.162 -1.6716 -0.1008 -1.6244
    4CHTO   O56 1396   7.074   9.096   1.199 -0.1182  0.7094 -0.6282
    4CHTO  H135 1397   7.116   9.178   1.219 -0.0380  0.8955 -1.5466
    4CHTO   C81 1398   6.936   8.995   1.012 -0.1543 -0.5721 -0.0885
    4CHTO  H153 1399   6.864   9.025   0.936  0.5897 -1.1136 -1.0172
    4CHTO   N14 1400   6.878   8.878   1.083  0.5193 -0.2623  0.3457
    4CHTO  H141 1401   6.828   8.818   1.011  2.5550  0.8966 -2.1313
    4CHTO  H142 1402   6.802   8.916   1.147  0.1778 -0.4701  0.0653
    4CHTO   C79 1403   7.076   8.966   0.936 -0.0421  0.0059  0.7851
    4CHTO  H151 1404   7.063   8.875   0.877  2.1005 -0.7432  1.3963
    4CHTO   O52 1405   7.119   9.082   0.854 -0.0891  0.1637  0.1359
    4CHTO   C86 1406   7.122   9.208   0.919  0.3581  0.9086 -0.0595
    4CHTO  H158 1407   7.212   9.206   0.985  0.3669 -0.2845 -0.0881
    4CHTO   C90 1408   7.144   9.325   0.823 -0.6953 -0.0282 -0.7569
    4CHTO   O60 1409   7.275   9.306   0.775  0.3263  0.8045 -1.1789
    4CHTO  H138 1410   7.284   9.218   0.743 -0.1153  0.3905 -0.1603
    4CHTO   O50 1411   7.183   8.916   1.014 -0.0298  0.3042 -0.4145
    4CHTO   C73 1412   7.317   8.912   1.063 -0.4049 -0.3764 -1.2978
    4CHTO  H145 1413   7.325   8.974   1.153 -0.5164  1.8762 -2.7763
    4CHTO   C74 1414   7.411   8.984   0.963  0.5355  0.2136  0.0729
    4CHTO  H146 1415   7.377   9.087   0.951 -2.4494 -0.4096  2.5077
    4CHTO   O54 1416   7.535   8.993   1.029  0.4909  0.2121  0.8468
    4CHTO  H133 1417   7.608   8.967   0.976  0.2394 -0.8349  1.0025
    4CHTO   C75 1418   7.416   8.903   0.818  0.6421 -0.1947  0.1516
    4CHTO  H147 1419   7.317   8.882   0.774  0.1577 -2.5311  2.2095
    4CHTO   N13 1420   7.508   8.969   0.719  0.1765  0.3179  0.1675
    4CHTO  H139 1421   7.600   8.999   0.766 -0.4568  0.0181  1.6329
    4CHTO  H140 1422   7.538   8.917   0.629  1.8836  0.9018  0.3781
    4CHTO   C76 1423   7.467   8.751   0.861 -0.2546 -0.4055 -0.0246
    4CHTO  H148 1424   7.570   8.749   0.897 -1.0666 -0.7550  2.4159
    4CHTO   O49 1425   7.371   8.704   0.960 -0.2150 -0.1617 -0.1224
    4CHTO   C77 1426   7.370   8.765   1.091  0.7533 -0.1243  0.1073
    4CHTO  H149 1427   7.471   8.777   1.130 -0.7950  3.5641  3.3882
    4CHTO   C88 1428   7.287   8.684   1.192 -0.7729  0.2122 -0.4216
    4CHTO   O58 1429   7.337   8.538   1.202 -0.1041 -0.4798 -0.5336
    4CHTO  H136 1430   7.304   8.500   1.281  1.0246 -0.9520 -0.2715
    4CHTO   O51 1431   7.447   8.641   0.747 -0.4355 -0.0852  0.8919
    4CHTO   C78 1432   7.580   8.610   0.673 -0.7596  0.2616 -0.6530
    4CHTO  H150 1433   7.661   8.684   0.694 -0.5366  0.4839 -2.2425
    4CHTO   C80 1434   7.559   8.607   0.522  0.0179  0.3547 -0.5586
    4CHTO  H152 1435   7.468   8.546   0.504  0.7923 -0.7233 -0.8719
    4CHTO   O55 1436   7.524   8.738   0.474 -0.2945 -0.2383  0.0586
    4CHTO  H134 1437   7.442   8.770   0.506  0.5420  0.5227  1.5307
    4CHTO   C84 1438   7.688   8.545   0.448  0.8349  0.4920 -0.2850
    4CHTO  H156 1439   7.759   8.628   0.445  0.8044  0.4808 -2.4774
    4CHTO   N15 1440   7.655   8.519   0.303  0.4868 -0.5219  0.7467
    4CHTO  H143 1441   7.725   8.462   0.245 -0.2676 -1.8568  1.1145
    4CHTO  H144 1442   7.639   8.608   0.247  4.6898  0.5120  1.0502
    4CHTO   C87 1443   7.724   8.418   0.521  0.5707  0.1182 -0.2586
    4CHTO  H159 1444   7.644   8.345   0.507  3.1982 -2.8252 -0.5047
    4CHTO   O53 1445   7.753   8.447   0.661 -0.1959 -0.7507  0.7944
    4CHTO   C82 1446   7.627   8.480   0.726  0.7479  0.1610  0.1967
    4CHTO  H154 1447   7.553   8.403   0.701  1.3851 -0.0414 -1.0731
    4CHTO   C89 1448   7.645   8.472   0.881 -0.7913  0.1045 -0.7541
    4CHTO   O59 1449   7.757   8.549   0.922  0.2992 -0.4376  0.2281
    4CHTO  H137 1450   7.751   8.569   1.014  0.0134 -0.2188  0.1621
    4CHTO   O45 1451   7.875   8.352   0.456  0.1173 -0.0830 -0.3210
    4CHTO   C67 1452   7.924   8.220   0.496 -0.5057 -0.8089  0.4300
    4CHTO  H124 1453   7.997   8.182   0.425  1.0397  0.1453  1.4713
    4CHTO   C65 1454   7.998   8.240   0.630  0.7091  0.1232 -0.5034
    4CHTO  H122 1455   7.974   8.333   0.681  1.3909 -1.7301  3.3777
    4CHTO   O44 1456   8.133   8.248   0.590 -0.6731  0.3556  0.1676
    4CHTO  H102 1457   8.164   8.337   0.589  2.3822 -0.6366  0.2715
    4CHTO   C63 1458   7.967   8.122   0.736 -0.4709 -0.4001 -0.4594
    4CHTO  H120 1459   7.876   8.146   0.792 -0.2292 -1.7009  0.5229
    4CHTO   N11 1460   8.053   8.122   0.853  0.0086 -0.6247 -0.7554
    4CHTO  H108 1461   8.064   8.226   0.880  0.0093 -0.7743 -0.1678
    4CHTO  H109 1462   8.049   8.044   0.926  0.7275  0.5975  0.6275
    4CHTO   C61 1463   7.942   7.983   0.661 -0.6221 -0.0547  0.2063
    4CHTO  H118 1464   7.895   7.915   0.733 -0.0327  0.7338  1.3360
    4CHTO   O40 1465   7.860   7.983   0.539 -0.1534  0.5104  0.3581
    4CHTO   C68 1466   7.806   8.115   0.502 -0.5967 -0.1486 -0.6415
    4CHTO  H125 1467   7.730   8.142   0.577  0.8820  2.9431 -0.1765
    4CHTO   C72 1468   7.734   8.094   0.368 -0.3534 -0.0691 -0.2187
    4CHTO   O48 1469   7.645   7.978   0.358 -0.2259  0.2028  0.0039
    4CHTO  H105 1470   7.682   7.901   0.396 -2.3168  0.5026  2.8403
    4CHTO   O38 1471   8.071   7.931   0.621  0.5449 -0.3147  0.0845
    4CHTO   C55 1472   8.087   7.789   0.602 -0.5059  0.1866  0.2349
    4CHTO  H112 1473   7.986   7.746   0.593 -1.0871  1.4060  0.8119
    4CHTO   C56 1474   8.161   7.734   0.735  0.2893 -0.2198 -0.2638
    4CHTO  H113 1475   8.241   7.803   0.762  0.0854 -0.5501  1.2214
    4CHTO   O42 1476   8.070   7.752   0.847 -0.1526 -0.3897  0.6772
    4CHTO  H100 1477   8.119   7.724   0.922 -0.8862  1.5651  1.9478
    4CHTO   C57 1478   8.185   7.578   0.731  0.3707  0.0425  0.2857
    4CHTO  H114 1479   8.090   7.527   0.742 -0.5514  1.1378 -2.1667
    4CHTO   N10 1480   8.267   7.530   0.842 -0.5178  0.4222  0.5365
    4CHTO  H106 1481   8.327   7.610   0.882  3.2803 -3.2670  2.6215
    4CHTO  H107 1482   8.213   7.485   0.925 -1.3829 -0.1076 -0.2970
    4CHTO   C58 1483   8.244   7.547   0.593  0.8402 -0.1955  0.1709
    4CHTO  H115 1484   8.351   7.576   0.592  0.4609  1.3172  0.6270
    4CHTO   O37 1485   8.183   7.606   0.479  0.6445 -0.3451  0.6666
    4CHTO   C59 1486   8.176   7.747   0.480 -0.2569  0.2319 -0.1960
    4CHTO  H116 1487   8.278   7.783   0.491  0.7192 -2.9961  2.1550
    4CHTO   C70 1488   8.125   7.795   0.343  0.2915  0.1565  0.2961
    4CHTO   O46 1489   8.000   7.736   0.317  0.3672  0.3481  0.0980
    4CHTO  H103 1490   7.930   7.776   0.366  0.4434  1.6370 -0.8288
    4CHTO   O39 1491   8.238   7.376   0.564  0.5780  0.1025  1.0752
    4CHTO   C60 1492   8.110   7.311   0.583  0.3533 -0.9132 -0.7450
    4CHTO  H117 1493   8.081   7.314   0.688 -1.5857 -0.4750 -1.2768
    4CHTO   C62 1494   7.995   7.376   0.491 -0.7315 -0.2537 -0.4038
    4CHTO  H119 1495   7.979   7.483   0.512  2.8590  0.6146 -1.6393
    4CHTO   O43 1496   8.034   7.350   0.356  0.4064 -0.0955 -0.1352
    4CHTO  H101 1497   7.960   7.346   0.298  0.2885 -0.3737  0.0296
    4CHTO   C66 1498   7.862   7.299   0.526 -0.3457 -0.1523 -0.3372
    4CHTO  H123 1499   7.848   7.308   0.634  2.7603  2.2346 -0.0707
    4CHTO   N12 1500   7.739   7.355   0.457 -0.1309 -0.2440  0.8391
    4CHTO  H110 1501   7.770   7.439   0.396 -0.2843 -0.9641 -0.2433
    4CHTO  H111 1502   7.661   7.376   0.528 -0.4332 -0.3327  0.5323
    4CHTO   C69 1503   7.861   7.145   0.499  0.3651 -0.3450  0.6309
    4CHTO  H126 1504   7.858   7.136   0.388 -1.6702  0.3700  0.6254
    4CHTO   O41 1505   7.976   7.083   0.554 -0.1205  1.0100 -0.5956
    4CHTO   C64 1506   8.131   7.162   0.543 -0.3511  0.9376 -0.3764
    4CHTO  H121 1507   8.167   7.149   0.439  0.6839 -0.8115  0.1909
    4CHTO   C71 1508   8.216   7.095   0.649  0.3061 -0.3303 -0.4469
    4CHTO   O47 1509   8.259   6.964   0.613  0.1455 -0.2183  0.3211
    4CHTO  H104 1510   8.281   6.915   0.689  2.8074 -0.5419 -0.6090
    4CHTO   O34 1511   7.706   7.055   0.556  0.4198  0.7886 -1.1606
    4CHTO   C49 1512   7.702   6.915   0.595  0.3488  0.2819  0.4323
    4CHTO   H91 1513   7.788   6.869   0.546  1.4061  3.2803 -0.6640
    4CHTO   C47 1514   7.572   6.851   0.541  0.3548 -0.2289  0.2005
    4CHTO   H89 1515   7.586   6.850   0.431 -0.2828  1.8934  0.0804
    4CHTO   O33 1516   7.458   6.933   0.572 -0.0652  0.0807 -0.2548
    4CHTO   H70 1517   7.381   6.892   0.539 -0.2692  1.4431 -1.5130
    4CHTO   C45 1518   7.547   6.707   0.605  0.4275 -0.0557 -0.9362
    4CHTO   H87 1519   7.480   6.727   0.689  2.6350  1.4038  0.5449
    4CHTO    N8 1520   7.480   6.600   0.522  0.4841  0.1425  0.1426
    4CHTO   H75 1521   7.434   6.650   0.438 -1.6262  0.1956  1.2976
    4CHTO   H76 1522   7.548   6.522   0.491  0.8202 -0.0192  1.2347
    4CHTO   C43 1523   7.672   6.652   0.684 -0.4710 -0.4001 -0.2198
    4CHTO   H85 1524   7.644   6.557   0.728  2.3085 -1.2506 -0.2564
    4CHTO   O29 1525   7.720   6.748   0.788 -0.1445  0.2763  0.5918
    4CHTO   C50 1526   7.715   6.887   0.744  0.1851 -0.2260  0.0424
    4CHTO   H92 1527   7.638   6.931   0.810  1.1702  0.5478  0.6903
    4CHTO   C54 1528   7.842   6.949   0.798 -0.7087  0.2056 -0.1894
    4CHTO   O36 1529   7.857   6.947   0.938 -0.2978  0.5881 -0.5074
    4CHTO   H72 1530   7.910   6.872   0.959 -1.4280 -0.3499 -0.9665
    4CHTO   O27 1531   7.772   6.616   0.591  0.1765 -0.5733  0.0633
    4CHTO   C37 1532   7.890   6.563   0.526 -0.0252 -0.7383 -0.8817
    4CHTO   H79 1533   7.880   6.565   0.416  0.0461  1.7680 -0.8634
    4CHTO   C38 1534   8.021   6.652   0.560 -0.3385  0.7094  0.5320
    4CHTO   H80 1535   8.037   6.665   0.668  0.1481 -1.6355  0.7580
    4CHTO   O31 1536   8.002   6.785   0.501 -0.3245 -0.6210 -0.7980
    4CHTO   H68 1537   8.059   6.841   0.550 -1.1780 -0.2886 -0.1601
    4CHTO   C39 1538   8.150   6.584   0.490  0.9621 -0.4006 -0.1131
    4CHTO   H81 1539   8.143   6.604   0.384  1.3724  3.3916  0.5071
    4CHTO    N7 1540   8.283   6.650   0.523  0.0948 -0.8376  0.0600
    4CHTO   H73 1541   8.287   6.745   0.470 -2.3676 -0.2072  0.9109
    4CHTO   H74 1542   8.298   6.676   0.627  1.0897  2.4332 -0.8125
    4CHTO   C40 1543   8.160   6.430   0.523 -0.2957 -0.4345 -0.8479
    4CHTO   H82 1544   8.188   6.412   0.627 -2.2456 -1.1440 -0.4151
    4CHTO   O26 1545   8.038   6.365   0.489 -0.6118  0.1488  0.0201
    4CHTO   C41 1546   7.918   6.411   0.565 -0.2366  0.0586 -0.2950
    4CHTO   H83 1547   7.932   6.407   0.674 -0.2163 -1.2881 -0.3395
    4CHTO   C52 1548   7.810   6.320   0.528  0.4234  0.7249  0.2962
    4CHTO   O35 1549   7.774   6.320   0.372 -0.1317 -0.5949 -0.5045
    4CHTO   H71 1550   7.833   6.270   0.319  2.4641  1.2712  0.5226
    4CHTO   O28 1551   8.250   6.358   0.442  0.1733  0.3375 -0.3429
    4CHTO   C42 1552   8.288   6.218   0.460  0.6850  0.8040  0.4025
    4CHTO   H84 1553   8.319   6.192   0.359 -2.2311  1.5894 -0.7508
    4CHTO   C44 1554   8.187   6.115   0.502 -0.4021  1.0033 -0.2764
    4CHTO   H86 1555   8.138   6.147   0.594 -0.5316  0.4303 -0.1476
    4CHTO   O32 1556   8.086   6.105   0.400 -0.1729 -0.1370 -0.5677
    4CHTO   H69 1557   8.016   6.053   0.435  0.1446 -0.4559 -0.3972
    4CHTO   C48 1558   8.242   5.966   0.539  0.4599  0.0174 -0.0394
    4CHTO   H90 1559   8.288   5.911   0.457 -0.4585 -2.2847  0.9701
    4CHTO    N9 1560   8.133   5.876   0.574 -0.3703  0.7273  0.2102
    4CHTO   H77 1561   8.167   5.777   0.601  0.2046  1.0382  0.6350
    4CHTO   H78 1562   8.046   5.892   0.512  0.4620  0.2677 -1.0954
    4CHTO   C51 1563   8.356   5.976   0.649  0.2247 -0.2780 -0.0196
    4CHTO   H93 1564   8.306   6.026   0.731  1.0222  0.7699 -0.1702
    4CHTO   O30 1565   8.455   6.059   0.593 -0.3379  0.4277 -0.0089
    4CHTO   C46 1566   8.413   6.211   0.549 -0.1545  0.0465  0.1349
    4CHTO   H88 1567   8.396   6.259   0.645 -1.2225  0.6202 -0.3319
    4CHTO   C53 1568   8.542   6.267   0.476  0.3624 -0.2044 -0.2943
    4CHTO   O72 1569   8.558   6.209   0.349  0.3705 -0.4736  0.0535
    4CHTO  H199 1570   8.646   6.213   0.318  0.4022 -2.3186 -0.1644
    4CHTO   O22 1571   8.436   5.856   0.672  0.6870  0.1388 -0.6817
    4CHTO   C31 1572   8.470   5.809   0.815 -0.4514 -0.0804 -0.4355
    4CHTO   H59 1573   8.499   5.903   0.866 -0.2035  0.0468 -0.8083
    4CHTO   C29 1574   8.349   5.750   0.891 -0.1943 -0.3576 -0.0939
    4CHTO   H57 1575   8.322   5.664   0.828  0.4218 -0.8870  0.3615
    4CHTO   O21 1576   8.243   5.842   0.895 -0.3612 -0.7912 -1.0419
    4CHTO   H37 1577   8.223   5.881   0.812  1.1138 -0.7451 -1.3934
    4CHTO   C27 1578   8.375   5.691   1.034  0.5607 -0.6494  0.4507
    4CHTO   H55 1579   8.381   5.781   1.098 -0.8324  0.1169 -0.4604
    4CHTO    N5 1580   8.267   5.599   1.085 -0.8086 -0.2238  0.1553
    4CHTO   H43 1581   8.201   5.560   1.008 -0.7173 -0.8823  0.4144
    4CHTO   H44 1582   8.224   5.650   1.170 -0.2116 -2.2538  1.7154
    4CHTO   C25 1583   8.520   5.621   1.041  0.2086  0.4560  0.2187
    4CHTO   H53 1584   8.517   5.517   1.003 -0.6387 -0.4382  2.6509
    4CHTO   O17 1585   8.628   5.696   0.969  0.0171  0.2086  0.3808
    4CHTO   C32 1586   8.591   5.718   0.827 -1.0895  0.6096 -0.8162
    4CHTO   H60 1587   8.577   5.623   0.776 -2.4334  0.5355 -0.3459
    4CHTO   C36 1588   8.712   5.778   0.766 -0.6339 -0.4552 -0.0705
    4CHTO   O25 1589   8.836   5.705   0.792  0.1073 -0.9754  0.4130
    4CHTO   H40 1590   8.827   5.631   0.850  3.9053 -0.6369  1.5777
    4CHTO   O15 1591   8.565   5.611   1.214  0.1560  0.6342 -0.2263
    4CHTO   C19 1592   8.572   5.740   1.291  0.4982 -0.3150 -0.0958
    4CHTO   H47 1593   8.643   5.719   1.372  0.5589 -1.0614 -0.3420
    4CHTO   C20 1594   8.633   5.873   1.219  0.2362  0.3490 -0.6139
    4CHTO   H48 1595   8.588   5.896   1.121  1.3888 -0.3592 -1.3230
    4CHTO   O19 1596   8.761   5.837   1.179  0.2455  0.5115  0.5440
    4CHTO   H35 1597   8.800   5.917   1.148 -0.2283  0.9724  1.1482
    4CHTO   C21 1598   8.632   5.997   1.313  0.6235  0.8682 -0.3084
    4CHTO   H49 1599   8.697   5.971   1.397 -0.1977  1.7276  0.5975
    4CHTO    N4 1600   8.686   6.122   1.258  0.0709 -0.1670  0.0534
    4CHTO   H41 1601   8.709   6.196   1.334 -2.0621  0.2654  0.3224
    4CHTO   H42 1602   8.642   6.159   1.167  0.0859  0.7608  0.4184
    4CHTO   C22 1603   8.484   6.008   1.357  0.1761  0.5490 -0.4096
    4CHTO   H50 1604   8.428   6.003   1.264 -0.3687  1.2479 -0.1224
    4CHTO   O14 1605   8.441   5.893   1.436  0.1063 -0.6079 -0.1248
    4CHTO   C23 1606   8.436   5.769   1.365  0.7005 -0.0418 -0.8028
    4CHTO   H51 1607   8.352   5.779   1.294  1.8481  0.5559 -2.0897
    4CHTO   C34 1608   8.408   5.668   1.476  0.0094  0.6024  0.4436
    4CHTO   O23 1609   8.349   5.545   1.439 -0.0819 -0.5265  0.2354
    4CHTO   H38 1610   8.271   5.566   1.391  0.3310 -1.2001 -0.7622
    4CHTO   O16 1611   8.444   6.122   1.437  0.1670  0.0444  0.0738
    4CHTO   C24 1612   8.312   6.201   1.389  0.1949  0.3340  0.1870
    4CHTO   H52 1613   8.272   6.159   1.296 -2.2001 -0.3398  1.4749
    4CHTO   C26 1614   8.350   6.339   1.347  0.7729  0.4742  0.0157
    4CHTO   H54 1615   8.399   6.387   1.435  3.1867 -2.3827  0.3110
    4CHTO   O20 1616   8.449   6.344   1.244 -0.2993 -0.7619  0.0618
    4CHTO   H36 1617   8.527   6.305   1.278  0.3586  0.4538 -0.0333
    4CHTO   C30 1618   8.215   6.416   1.307 -0.6194 -0.2028  0.3282
    4CHTO   H58 1619   8.163   6.354   1.232  2.0318 -0.9131 -0.9521
    4CHTO    N6 1620   8.225   6.557   1.255  0.7760 -0.5655 -0.9203
    4CHTO   H45 1621   8.133   6.610   1.276  0.9372 -0.7306  0.2429
    4CHTO   H46 1622   8.304   6.616   1.300 -0.2912  3.4410 -4.0076
    4CHTO   C33 1623   8.119   6.409   1.429 -0.4658 -0.3951 -0.3140
    4CHTO   H61 1624   8.171   6.453   1.514  0.0435 -2.2098  0.3407
    4CHTO   O18 1625   8.091   6.270   1.456 -0.2928 -0.6734  0.2532
    4CHTO   C28 1626   8.201   6.190   1.498  0.2235 -0.3576  0.5334
    4CHTO   H56 1627   8.241   6.226   1.593 -0.6033  0.8959  0.4205
    4CHTO   C35 1628   8.169   6.038   1.510 -0.4853  0.1652 -0.0801
    4CHTO   O24 1629   8.119   5.984   1.384  0.1664  0.4038 -0.5166
    4CHTO   H39 1630   8.028   5.970   1.399  0.5459 -0.3706  1.2696
    4CHTO    O9 1631   7.995   6.486   1.415 -0.1504  0.2254 -0.3566
    4CHTO   C13 1632   7.920   6.516   1.561  0.2537  0.2942  0.4930
    4CHTO   H26 1633   7.894   6.419   1.608 -4.9449  1.3494  0.0948
    4CHTO   C11 1634   7.787   6.600   1.535 -0.5471 -0.4363  0.3780
    4CHTO   H24 1635   7.725   6.529   1.479 -0.6804 -1.4208  1.7413
    4CHTO    O8 1636   7.818   6.709   1.447 -0.3954 -0.1353  0.4103
    4CHTO    H3 1637   7.741   6.736   1.400 -1.2386 -1.1438  1.1759
    4CHTO    C9 1638   7.714   6.641   1.668 -0.1716  0.0118  0.4175
    4CHTO   H22 1639   7.690   6.548   1.722 -2.2342  0.6007  0.5760
    4CHTO    N2 1640   7.584   6.698   1.648 -0.2919 -0.4740  0.0737
    4CHTO   H10 1641   7.533   6.687   1.743 -0.9354  0.1259 -0.1966
    4CHTO   H11 1642   7.533   6.661   1.559 -0.1078 -1.1686  0.2517
    4CHTO    C7 1643   7.813   6.729   1.755 -0.2860  0.1962 -0.1789
    4CHTO   H20 1644   7.759   6.722   1.852 -0.7098 -0.3308 -0.4492
    4CHTO    O4 1645   7.950   6.671   1.767 -0.6471 -0.2277  0.0449
    4CHTO   C14 1646   8.013   6.598   1.662  0.1245 -0.6957 -0.4348
    4CHTO   H27 1647   8.078   6.524   1.714 -0.5736 -0.9353  0.1084
    4CHTO   C18 1648   8.106   6.702   1.586  0.1604  0.0191  0.1478
    4CHTO   O13 1649   8.211   6.763   1.658 -0.3009 -0.1029  0.0362
    4CHTO    H7 1650   8.191   6.813   1.735  1.5184 -2.4870  2.1787
    4CHTO    O2 1651   7.824   6.888   1.712 -0.2851 -0.2958  0.1073
    4CHTO    C1 1652   7.894   6.976   1.793  0.7050 -0.5563 -0.7294
    4CHTO   H14 1653   7.997   6.936   1.788  1.1372  0.5398 -0.5857
    4CHTO    C2 1654   7.853   6.989   1.941  0.6918  0.6985 -0.5529
    4CHTO   H15 1655   7.745   7.002   1.952  0.0469 -3.0868 -1.5641
    4CHTO    O6 1656   7.892   6.859   2.003  0.0043  0.2074  0.1189
    4CHTO    H1 1657   7.818   6.812   2.037 -0.0424  1.8466  2.3951
    4CHTO    C3 1658   7.938   7.108   2.013  0.5452  0.5402 -0.5898
    4CHTO   H16 1659   8.042   7.072   2.023  1.0856  2.8770  2.7554
    4CHTO    N1 1660   7.892   7.127   2.154 -0.4772  0.3140 -0.7441
    4CHTO    H8 1661   7.792   7.097   2.182 -1.5137  3.6512 -0.7555
    4CHTO    H9 1662   7.958   7.072   2.219 -2.0674 -3.1817 -1.9076
    4CHTO    C4 1663   7.952   7.242   1.925 -0.0764 -0.2587 -0.4263
    4CHTO   H17 1664   7.854   7.290   1.924 -0.5059 -1.1013  0.5344
    4CHTO    O1 1665   7.988   7.196   1.793 -0.3195 -0.2394 -0.0041
    4CHTO    C5 1666   7.893   7.115   1.723  0.1549 -0.7661  0.2297
    4CHTO   H18 1667   7.796   7.161   1.741  0.4467 -0.5033  1.1209
    4CHTO   C16 1668   7.928   7.114   1.570  0.1989 -0.1899 -0.2794
    4CHTO   O11 1669   7.919   7.241   1.496 -0.2208 -0.3590 -0.1397
    4CHTO    H5 1670   7.997   7.289   1.514 -0.9696  0.0922  2.1729
    4CHTO    O3 1671   8.068   7.317   1.958  0.3171 -0.2048  0.1241
    4CHTO    C6 1672   8.043   7.463   1.967  0.5395 -0.1306  0.7497
    4CHTO   H19 1673   7.948   7.496   1.925  0.8466  1.1418  1.0368
    4CHTO    C8 1674   8.039   7.523   2.108 -0.0902 -0.5198  0.0320
    4CHTO   H21 1675   8.123   7.487   2.167  0.2854  0.5379  0.1662
    4CHTO    O7 1676   7.915   7.479   2.166  0.0974  0.3612  0.0919
    4CHTO    H2 1677   7.871   7.548   2.214  3.2787 -0.0057  3.8098
    4CHTO   C12 1678   8.060   7.684   2.127 -0.1308 -0.0935 -0.7164
    4CHTO   H25 1679   7.967   7.731   2.087  0.9278  0.4326 -2.6508
    4CHTO    N3 1680   8.070   7.719   2.274  0.6956  0.7086 -0.2290
    4CHTO   H12 1681   8.011   7.808   2.293  0.3891  0.4263  0.1309
    4CHTO   H13 1682   8.175   7.729   2.299  0.5830  0.1069  0.4956
    4CHTO   C15 1683   8.177   7.722   2.035  0.1920  0.5662 -0.0765
    4CHTO   H28 1684   8.270   7.683   2.076 -0.0051 -0.2973 -0.4261
    4CHTO   O10 1685   8.198   7.873   2.002  0.3058 -0.0783 -0.2342
    4CHTO    H4 1686   8.199   7.892   1.910 -2.8341 -1.3891 -0.5959
    4CHTO    O5 1687   8.155   7.676   1.901 -0.2155 -0.5936  0.4319
    4CHTO   C10 1688   8.152   7.536   1.886  0.2736  0.5524 -0.1463
    4CHTO   H23 1689   8.240   7.495   1.936 -0.2184 -0.1168  0.1718
    4CHTO   C17 1690   8.160   7.512   1.734  0.2041  0.1366 -0.3460
    4CHTO   O12 1691   8.295   7.543   1.685  0.1128  0.3808 -0.0053
    4CHTO    H6 1692   8.355   7.485   1.728 -1.0055  0.3244  1.5013
    5CHTO  H203 1693   8.965   3.858   1.230  0.3885 -0.7603  1.5489
    5CHTO   O82 1694   8.917   3.779   1.213 -0.0091 -0.2153  0.0325
    5CHTO  C123 1695   8.929   3.693   1.329  0.3164 -0.3503  0.0044
    5CHTO  H227 1696   9.036   3.673   1.347  0.0285 -0.5154  1.5821
    5CHTO   O77 1697   8.881   3.783   1.440 -0.6443 -0.0472  0.1523
    5CHTO  C118 1698   8.887   3.710   1.560  0.5501 -0.3317  0.1097
    5CHTO  H222 1699   8.985   3.661   1.574  0.4736 -0.8473 -1.0751
    5CHTO  C125 1700   8.864   3.812   1.680  0.2270 -0.1559 -0.4999
    5CHTO   O84 1701   8.967   3.910   1.670 -0.3739  0.4403  0.3109
    5CHTO  H205 1702   8.983   3.938   1.758  0.0736 -0.2336  0.4448
    5CHTO  C114 1703   8.785   3.595   1.556  0.2488 -0.6486  1.1688
    5CHTO  H218 1704   8.694   3.648   1.527  2.5543  1.4387 -2.6007
    5CHTO  C116 1705   8.817   3.491   1.445  0.1201 -0.0335  0.8580
    5CHTO  H220 1706   8.916   3.444   1.466  1.0670  1.2690 -0.5787
    5CHTO   O79 1707   8.720   3.386   1.449  0.4704 -0.1270 -0.1941
    5CHTO  H201 1708   8.744   3.335   1.374  1.4124  0.2670 -0.1730
    5CHTO  C120 1709   8.833   3.568   1.314 -0.2162  0.4455  0.4721
    5CHTO  H224 1710   8.732   3.602   1.281 -0.1057 -0.1923 -0.5417
    5CHTO   N21 1711   8.871   3.475   1.199 -0.5231  0.1751 -0.5409
    5CHTO  H211 1712   8.822   3.379   1.205 -0.1620  0.0354  0.3418
    5CHTO  H212 1713   8.976   3.451   1.198 -0.8420 -1.2097 -1.4955
    5CHTO   O75 1714   8.791   3.540   1.693  0.3416 -0.5652 -0.9887
    5CHTO  C112 1715   8.641   3.506   1.747  0.0816  0.2270 -0.1555
    5CHTO  H216 1716   8.577   3.457   1.673  0.4227 -1.0527  0.3873
    5CHTO   O73 1717   8.579   3.628   1.798  0.1155 -0.2486  0.7001
    5CHTO  C113 1718   8.442   3.607   1.838 -0.1424 -0.5111 -0.5453
    5CHTO  H217 1719   8.391   3.556   1.753  0.0423 -1.4214 -0.1127
    5CHTO  C124 1720   8.379   3.750   1.850  0.3266  0.4600 -0.0006
    5CHTO   O83 1721   8.374   3.804   1.717 -0.1725  0.6217 -0.0300
    5CHTO  H204 1722   8.307   3.757   1.670  1.6776 -1.3495 -0.8220
    5CHTO  C109 1723   8.433   3.524   1.963  0.1097  0.4313  0.0927
    5CHTO  H213 1724   8.479   3.588   2.040 -0.0316 -0.0774  0.6017
    5CHTO  C110 1725   8.511   3.389   1.934  0.0199  0.3266 -0.5432
    5CHTO  H214 1726   8.451   3.328   1.867  1.6266 -2.4381  0.4181
    5CHTO   O78 1727   8.527   3.323   2.057 -0.0462 -0.5055 -0.3514
    5CHTO  H200 1728   8.560   3.236   2.045 -1.2577 -0.9721 -0.3910
    5CHTO  C111 1729   8.652   3.403   1.867  0.1094  0.0849  0.5713
    5CHTO  H215 1730   8.721   3.442   1.943  0.6163 -0.4157  0.3735
    5CHTO   N19 1731   8.708   3.273   1.825 -0.9755 -0.1930 -0.2388
    5CHTO  H207 1732   8.739   3.207   1.905  2.0599  0.7719 -0.5603
    5CHTO  H208 1733   8.649   3.215   1.756  0.0278 -1.3119 -0.1752
    5CHTO   O74 1734   8.291   3.508   1.990  0.5674 -0.5147 -0.4354
    5CHTO  C115 1735   8.275   3.503   2.144 -0.3601 -0.1586  0.0059
    5CHTO  H219 1736   8.368   3.476   2.195  0.8966  1.7354 -1.2390
    5CHTO   O76 1737   8.234   3.641   2.202 -0.0615 -0.0900  0.2146
    5CHTO  C122 1738   8.123   3.701   2.131 -0.0297 -0.1234  0.1231
    5CHTO  H226 1739   8.157   3.738   2.034 -0.9595  0.6054  0.0688
    5CHTO  C126 1740   8.099   3.840   2.207 -0.0134 -0.1666  0.1288
    5CHTO   O85 1741   8.210   3.925   2.202  0.0268 -0.6490 -0.1776
    5CHTO  H206 1742   8.223   3.982   2.276  0.3587  1.3771 -1.7398
    5CHTO  C121 1743   8.004   3.598   2.134  0.0248 -0.9553  0.0110
    5CHTO  H225 1744   7.923   3.657   2.182  1.6150  1.1138  0.2564
    5CHTO   O81 1745   7.980   3.563   2.001 -0.0681  0.2100 -0.3929
    5CHTO  H202 1746   7.888   3.560   1.985 -0.1054 -0.1959 -0.1243
    5CHTO  C119 1747   8.032   3.472   2.224 -0.2902  0.2350  0.1110
    5CHTO  H223 1748   8.050   3.517   2.321 -0.6752  2.9994 -1.0744
    5CHTO  C117 1749   8.161   3.398   2.187  0.1249 -0.4843  0.5705
    5CHTO  H221 1750   8.153   3.326   2.106  2.5479 -0.5295  0.3282
    5CHTO   N20 1751   8.221   3.318   2.299 -0.5835  0.0110  0.3490
    5CHTO  H209 1752   8.162   3.236   2.338 -1.3637  0.1595 -0.5140
    5CHTO  H210 1753   8.253   3.382   2.380 -1.8338 -2.1429  2.6316
    5CHTO   O80 1754   7.899   3.363   2.248 -0.4664 -0.7515  0.4729
    5CHTO  C103 1755   7.792   3.339   2.146  0.2027  0.0943 -0.2031
    5CHTO  H190 1756   7.803   3.420   2.074 -1.8222 -1.0663 -1.8716
    5CHTO  C101 1757   7.803   3.195   2.088  0.6155 -0.1267 -0.3762
    5CHTO  H188 1758   7.782   3.125   2.168 -2.0780 -1.1209 -1.8797
    5CHTO   O68 1759   7.945   3.176   2.038  0.5182  0.2062 -0.1657
    5CHTO  H168 1760   7.964   3.227   1.962  1.1307  0.1801 -0.0349
    5CHTO   C99 1761   7.686   3.171   1.965  0.2226  0.3302 -0.1173
    5CHTO  H186 1762   7.686   3.248   1.886 -0.7915  0.5686  0.1072
    5CHTO   N17 1763   7.694   3.036   1.901  0.0264  0.5556  0.6319
    5CHTO  H174 1764   7.771   2.983   1.955 -0.4339 -0.1217  0.6251
    5CHTO  H175 1765   7.729   3.052   1.800  1.7830  0.4531  1.2215
    5CHTO   C97 1766   7.549   3.192   2.042 -0.4685 -0.8384  0.7851
    5CHTO  H184 1767   7.531   3.111   2.115 -1.0438 -0.2165  1.3379
    5CHTO   O64 1768   7.547   3.318   2.104  0.0650 -0.5715 -0.1383
    5CHTO  C104 1769   7.646   3.347   2.207  0.9702 -0.0205  0.3017
    5CHTO  H191 1770   7.643   3.277   2.290  1.7181  0.6921  0.9447
    5CHTO  C108 1771   7.611   3.482   2.266 -0.2106 -0.2753  0.3627
    5CHTO   O71 1772   7.490   3.489   2.332  0.1092 -0.0668 -0.2694
    5CHTO  H171 1773   7.479   3.569   2.380  1.6974  0.8369 -1.3393
    5CHTO   O62 1774   7.439   3.209   1.948  0.1451  0.2161 -0.1510
    5CHTO   C91 1775   7.310   3.176   2.003  0.4003  0.0177 -0.2197
    5CHTO  H178 1776   7.314   3.188   2.111 -1.0861 -2.7508  0.2038
    5CHTO   C92 1777   7.274   3.025   1.979 -0.7076  0.4357 -0.3979
    5CHTO  H179 1778   7.262   3.004   1.872 -1.2520  1.6629 -0.5892
    5CHTO   O66 1779   7.372   2.932   2.027 -0.6519 -0.1702  0.2805
    5CHTO  H166 1780   7.450   2.923   1.976 -0.5057  0.4636  0.3814
    5CHTO   C93 1781   7.137   2.995   2.051  0.4183 -0.3083 -0.1735
    5CHTO  H180 1782   7.149   3.003   2.160 -0.6653  0.6257 -0.1143
    5CHTO   N16 1783   7.084   2.857   2.034 -0.3035 -0.5193 -0.7376
    5CHTO  H172 1784   7.049   2.849   1.932  0.1106 -1.3465 -0.8180
    5CHTO  H173 1785   7.001   2.849   2.103  0.8498 -1.5402  0.5664
    5CHTO   C94 1786   7.023   3.093   2.004  0.3651 -0.7242 -0.2923
    5CHTO  H181 1787   7.008   3.083   1.897 -0.9365 -1.7220 -0.0344
    5CHTO   O61 1788   7.066   3.232   2.019  0.7240  0.4992 -0.0451
    5CHTO   C95 1789   7.188   3.256   1.942  0.4621  0.3635 -0.4263
    5CHTO  H182 1790   7.170   3.225   1.839 -2.8021 -1.1906  0.5427
    5CHTO  C106 1791   7.199   3.409   1.944  0.0840  0.5197 -0.7185
    5CHTO   O69 1792   7.293   3.445   1.843 -0.1087  0.0086  0.0859
    5CHTO  H169 1793   7.379   3.431   1.877  1.0717  2.0906 -1.8771
    5CHTO   O63 1794   6.881   3.078   2.090 -0.3344 -0.3189  0.5760
    5CHTO   C96 1795   6.758   3.068   1.985 -0.5940  0.1501 -0.1574
    5CHTO  H183 1796   6.797   3.010   1.901 -0.0587  0.6702 -0.2684
    5CHTO   C98 1797   6.694   3.201   1.932  0.1674  0.2455  0.1308
    5CHTO  H185 1798   6.645   3.253   2.015  0.0602 -0.9704  0.8472
    5CHTO   O67 1799   6.806   3.282   1.885  0.3897 -0.0047  0.2979
    5CHTO  H167 1800   6.792   3.368   1.919 -0.4411 -0.0876  0.1747
    5CHTO  C102 1801   6.580   3.173   1.818  0.1042  0.4600  0.6534
    5CHTO  H189 1802   6.628   3.135   1.726 -1.9993  0.6867 -0.5832
    5CHTO   N18 1803   6.505   3.298   1.775 -0.7027  0.1893 -0.2431
    5CHTO  H176 1804   6.403   3.302   1.809 -0.1048 -1.1269  1.8356
    5CHTO  H177 1805   6.557   3.385   1.811 -0.4237  0.2186 -0.7161
    5CHTO  C105 1806   6.480   3.065   1.876  0.2615 -0.1742 -0.4717
    5CHTO  H192 1807   6.408   3.118   1.938 -1.0548 -2.6937  0.2192
    5CHTO   O65 1808   6.533   2.954   1.959  0.2998  0.0765  0.1447
    5CHTO  C100 1809   6.637   2.979   2.055 -0.3608 -0.1102 -0.1668
    5CHTO  H187 1810   6.599   3.022   2.149  2.2704 -0.4929  1.1435
    5CHTO  C107 1811   6.686   2.842   2.102  0.0237 -0.3268  0.0617
    5CHTO   O70 1812   6.575   2.773   2.156  0.0673 -0.3495 -0.2376
    5CHTO  H170 1813   6.518   2.738   2.089 -1.2892 -1.5155  1.4707
    5CHTO   O57 1814   6.418   3.016   1.757  0.0274 -0.1647 -0.8591
    5CHTO   C85 1815   6.298   2.949   1.733  0.1561 -0.2246 -0.2280
    5CHTO  H157 1816   6.211   3.002   1.778 -0.4455 -1.3347 -0.0821
    5CHTO   C83 1817   6.298   2.813   1.815 -0.1406 -0.0299 -0.1271
    5CHTO  H155 1818   6.296   2.847   1.919  0.6832  1.5231 -0.5956
    5CHTO   O56 1819   6.422   2.741   1.795  0.1286  0.4154  0.4456
    5CHTO  H135 1820   6.444   2.706   1.711 -1.5941  2.2452 -0.8215
    5CHTO   C81 1821   6.170   2.729   1.791 -0.7921 -0.1767 -0.2136
    5CHTO  H153 1822   6.082   2.789   1.814 -0.3938  0.7903 -1.1783
    5CHTO   N14 1823   6.156   2.622   1.892 -0.6105 -0.2076  0.6469
    5CHTO  H141 1824   6.151   2.676   1.984 -1.5568  0.0490  0.4521
    5CHTO  H142 1825   6.061   2.576   1.874 -0.7205 -0.3206  1.4601
    5CHTO   C79 1826   6.169   2.691   1.638 -0.5540 -0.2965 -0.0848
    5CHTO  H151 1827   6.077   2.635   1.621 -0.1216 -1.1596  0.4176
    5CHTO   O52 1828   6.160   2.813   1.558  0.0703  0.2032  0.2095
    5CHTO   C86 1829   6.273   2.907   1.579  0.4465 -0.1027 -0.3164
    5CHTO  H158 1830   6.358   2.856   1.529  0.9049 -2.1036  2.3948
    5CHTO   C90 1831   6.253   3.038   1.487 -0.8588 -0.5521 -0.1232
    5CHTO   O60 1832   6.247   3.001   1.350  0.2412  0.0438  0.1237
    5CHTO  H138 1833   6.272   3.068   1.289  1.3040  2.5510  3.2105
    5CHTO   O50 1834   6.283   2.618   1.589 -0.4717 -0.5895 -0.5969
    5CHTO   C73 1835   6.294   2.528   1.478 -0.5201  0.0068 -0.4215
    5CHTO  H145 1836   6.230   2.558   1.394  1.1995 -0.5319 -1.9371
    5CHTO   C74 1837   6.260   2.386   1.525  0.2472  0.2384  0.1501
    5CHTO  H146 1838   6.160   2.380   1.570 -0.3273 -0.0320 -1.1346
    5CHTO   O54 1839   6.257   2.301   1.407  0.1664 -0.2883 -0.0588
    5CHTO  H133 1840   6.225   2.215   1.423  1.1766 -0.6481  0.0206
    5CHTO   C75 1841   6.374   2.339   1.621  0.0364  0.4422 -0.4304
    5CHTO  H147 1842   6.362   2.397   1.714 -1.0015  2.6965 -1.9422
    5CHTO   N13 1843   6.375   2.192   1.662 -0.4195 -0.2312 -0.7511
    5CHTO  H139 1844   6.283   2.157   1.708 -0.2541 -0.4118 -0.5579
    5CHTO  H140 1845   6.460   2.163   1.722  0.9594 -1.6520 -3.2947
    5CHTO   C76 1846   6.523   2.375   1.571  0.1430 -0.1007  0.5743
    5CHTO  H148 1847   6.551   2.300   1.497  0.9363 -0.0963  0.8650
    5CHTO   O49 1848   6.530   2.502   1.502 -0.1892  0.4322  0.6082
    5CHTO   C77 1849   6.431   2.537   1.414 -0.8772  0.4497  0.5941
    5CHTO  H149 1850   6.436   2.469   1.329 -0.9287  1.8071 -0.5286
    5CHTO   C88 1851   6.476   2.672   1.353  0.1029 -0.5452  0.3439
    5CHTO   O58 1852   6.368   2.716   1.267  0.3038  0.4678  0.3015
    5CHTO  H136 1853   6.392   2.744   1.181 -2.6156  0.7956 -0.4628
    5CHTO   O51 1854   6.610   2.390   1.678  1.3559 -0.5052  0.4533
    5CHTO   C78 1855   6.773   2.392   1.621  0.4896  0.4214  0.7604
    5CHTO  H150 1856   6.778   2.427   1.517  2.4029  0.7035  0.9354
    5CHTO   C80 1857   6.836   2.249   1.623 -0.3919 -0.5228 -0.4581
    5CHTO  H152 1858   6.829   2.214   1.728  2.1426  0.7139  0.1746
    5CHTO   O55 1859   6.762   2.168   1.529 -0.5165 -0.3513 -0.0329
    5CHTO  H134 1860   6.786   2.077   1.531  0.4504 -0.1020  0.1935
    5CHTO   C84 1861   6.991   2.251   1.591  0.4591  0.2121 -0.7153
    5CHTO  H156 1862   7.002   2.292   1.491  1.7677  1.2972 -0.1349
    5CHTO   N15 1863   7.052   2.107   1.593  0.3133 -0.1742  0.6073
    5CHTO  H143 1864   7.034   2.061   1.688 -1.5216 -1.7826 -0.4649
    5CHTO  H144 1865   7.157   2.117   1.577  0.3857  1.1460  1.7555
    5CHTO   C87 1866   7.068   2.348   1.683  0.1867  0.4847 -0.1736
    5CHTO  H159 1867   7.051   2.317   1.786 -0.3835  0.8355 -0.1571
    5CHTO   O53 1868   6.995   2.487   1.665  0.4514  0.1056 -0.3872
    5CHTO   C82 1869   6.860   2.486   1.710  0.1817  0.1732  0.4994
    5CHTO  H154 1870   6.858   2.452   1.813  0.6303  2.4263  1.2567
    5CHTO   C89 1871   6.801   2.623   1.712 -0.1972 -0.1684 -0.0301
    5CHTO   O59 1872   6.894   2.706   1.782  0.3807 -0.0245  0.7206
    5CHTO  H137 1873   6.836   2.777   1.803 -0.8135 -0.5523 -0.7137
    5CHTO   O45 1874   7.239   2.362   1.647  0.2072 -0.1132  0.0320
    5CHTO   C67 1875   7.305   2.397   1.772  0.0615 -0.2097  0.8097
    5CHTO  H124 1876   7.229   2.427   1.843  0.2717  2.9308 -0.2161
    5CHTO   C65 1877   7.372   2.272   1.827 -0.0129 -0.6429  0.2998
    5CHTO  H122 1878   7.365   2.208   1.739 -0.4276  0.8880 -0.8003
    5CHTO   O44 1879   7.302   2.212   1.932  0.4446  0.1159 -0.0137
    5CHTO  H102 1880   7.342   2.131   1.957 -1.6017 -0.9047  0.0476
    5CHTO   C63 1881   7.526   2.289   1.846  0.7563  0.8561  0.0525
    5CHTO  H120 1882   7.568   2.306   1.746 -1.3564 -1.6828 -1.3368
    5CHTO   N11 1883   7.613   2.188   1.898  0.3721  0.4592 -0.4646
    5CHTO  H108 1884   7.599   2.170   2.003  0.6029  0.7214 -0.3866
    5CHTO  H109 1885   7.598   2.095   1.847 -0.7756 -0.3088  1.2257
    5CHTO   C61 1886   7.558   2.426   1.926 -0.2689 -0.3180  0.2220
    5CHTO  H118 1887   7.666   2.448   1.919  0.1678 -2.4338  0.0568
    5CHTO   O40 1888   7.488   2.543   1.875  0.0274  0.2707  0.3724
    5CHTO   C68 1889   7.395   2.527   1.754 -0.3980 -0.4536  0.0549
    5CHTO  H125 1890   7.463   2.524   1.667 -2.2020 -1.3627 -1.3515
    5CHTO   C72 1891   7.296   2.649   1.734 -0.2103  0.2223  0.7571
    5CHTO   O48 1892   7.217   2.643   1.616  0.1517  0.2711 -0.2456
    5CHTO  H105 1893   7.156   2.712   1.627 -0.5008 -0.4379  0.5875
    5CHTO   O38 1894   7.530   2.415   2.066  0.0820 -0.0568  0.0975
    5CHTO   C55 1895   7.502   2.531   2.150 -0.3456  0.4748  0.1070
    5CHTO  H112 1896   7.450   2.606   2.088 -0.5876  0.8085  0.7074
    5CHTO   C56 1897   7.637   2.588   2.214 -0.6008  0.1735 -0.6436
    5CHTO  H113 1898   7.703   2.512   2.258  1.2728  1.9645 -0.2284
    5CHTO   O42 1899   7.711   2.654   2.106 -0.1530  0.1195  0.5493
    5CHTO  H100 1900   7.795   2.679   2.140  2.0420 -0.1644 -4.2043
    5CHTO   C57 1901   7.593   2.699   2.324  0.1478  0.7313  1.2157
    5CHTO  H114 1902   7.546   2.781   2.270 -0.6576  0.4527  1.4857
    5CHTO   N10 1903   7.709   2.758   2.389 -0.4418  0.3755  0.1592
    5CHTO  H106 1904   7.698   2.865   2.383 -1.5643  0.1933 -1.4039
    5CHTO  H107 1905   7.708   2.730   2.493 -1.6599 -0.8127 -0.1656
    5CHTO   C58 1906   7.485   2.635   2.417  0.0353  0.2655 -0.4325
    5CHTO  H115 1907   7.535   2.553   2.473 -0.0770  0.0202 -0.6935
    5CHTO   O37 1908   7.370   2.579   2.352 -0.5012  0.0675  0.2517
    5CHTO   C59 1909   7.402   2.476   2.261  0.3445 -0.2484  0.1107
    5CHTO  H116 1910   7.438   2.386   2.311 -0.5968 -0.6488  0.0748
    5CHTO   C70 1911   7.273   2.423   2.213 -0.4537 -0.0902  0.0233
    5CHTO   O46 1912   7.198   2.514   2.133  0.6073 -0.5687  1.3270
    5CHTO  H103 1913   7.172   2.581   2.194  0.6922 -1.1668  2.0233
    5CHTO   O39 1914   7.438   2.755   2.511 -0.0263 -0.2065 -0.1948
    5CHTO   C60 1915   7.329   2.835   2.456  0.4892  0.6546  0.3507
    5CHTO  H117 1916   7.327   2.819   2.348  0.4853  1.4867  0.2221
    5CHTO   C62 1917   7.198   2.787   2.519 -1.1640  0.2722  0.8949
    5CHTO  H119 1918   7.200   2.676   2.513 -2.3618  0.3492 -1.2675
    5CHTO   O43 1919   7.191   2.814   2.658 -0.2963 -0.7547 -0.3622
    5CHTO  H101 1920   7.244   2.750   2.702 -1.4470 -1.5321 -0.1079
    5CHTO   C66 1921   7.084   2.855   2.441  0.4245  0.1298  0.4945
    5CHTO  H123 1922   7.100   2.838   2.334  0.3830  0.0824  0.4959
    5CHTO   N12 1923   6.951   2.800   2.473  0.0382 -0.4034 -0.7641
    5CHTO  H110 1924   6.954   2.751   2.569  1.0305  0.8617 -0.1290
    5CHTO  H111 1925   6.920   2.729   2.398 -1.8030  0.3141 -0.6907
    5CHTO   C69 1926   7.101   3.010   2.463  0.4281 -0.1885  0.2051
    5CHTO  H126 1927   7.098   3.034   2.571 -1.0202 -0.5394  0.2446
    5CHTO   O41 1928   7.246   3.053   2.412 -0.1113 -0.4308  0.1570
    5CHTO   C64 1929   7.354   2.987   2.476  1.0504 -0.8697 -0.7767
    5CHTO  H121 1930   7.344   2.999   2.586  0.3075  1.5077 -1.0744
    5CHTO   C71 1931   7.492   3.036   2.424 -0.4091  0.3344  0.1781
    5CHTO   O47 1932   7.510   3.177   2.444  0.0763  0.2801  0.7198
    5CHTO  H104 1933   7.439   3.234   2.426  0.7379  0.9180  0.1302
    5CHTO   O34 1934   6.995   3.104   2.389  0.0648  0.6396 -0.4389
    5CHTO   C49 1935   6.972   3.258   2.377  0.1205  0.0287 -0.1724
    5CHTO   H91 1936   7.037   3.291   2.296  0.4815 -0.5760 -0.1349
    5CHTO   C47 1937   7.022   3.323   2.509  1.0397 -0.2322 -0.1237
    5CHTO   H89 1938   7.026   3.432   2.491 -1.2773  0.2776  2.2031
    5CHTO   O33 1939   7.156   3.272   2.535 -0.2320 -0.4565 -0.0419
    5CHTO   H70 1940   7.225   3.326   2.502  0.5406 -0.3061  1.7434
    5CHTO   C45 1941   6.917   3.291   2.625  0.3800 -0.2828  0.2966
    5CHTO   H87 1942   6.923   3.182   2.636 -0.0450 -0.6366 -2.5719
    5CHTO    N8 1943   6.958   3.354   2.755  0.5594 -0.4270  0.0538
    5CHTO   H75 1944   6.888   3.311   2.826 -1.7552  1.6914 -0.8477
    5CHTO   H76 1945   6.948   3.461   2.749  1.5850 -0.3790 -0.8506
    5CHTO   C43 1946   6.769   3.336   2.580  0.2577  0.4064  0.0544
    5CHTO   H85 1947   6.696   3.302   2.654 -2.6763 -0.2071 -2.9825
    5CHTO   O29 1948   6.735   3.290   2.450  0.1422  0.0738  0.0468
    5CHTO   C50 1949   6.826   3.298   2.340  0.3158 -0.3507  0.3283
    5CHTO   H92 1950   6.779   3.228   2.270  0.3849  0.0552 -0.1294
    5CHTO   C54 1951   6.807   3.425   2.256  0.2120 -0.5043 -0.0511
    5CHTO   O36 1952   6.841   3.400   2.123 -0.6042 -0.1776  0.1120
    5CHTO   H72 1953   6.932   3.409   2.101 -0.4636 -0.6421  0.4996
    5CHTO   O27 1954   6.756   3.482   2.585  0.1002  0.4576 -0.1903
    5CHTO   C37 1955   6.662   3.585   2.605 -0.2357 -0.2325 -0.5709
    5CHTO   H79 1956   6.678   3.665   2.532  0.6312  0.2278  0.1155
    5CHTO   C38 1957   6.512   3.543   2.591  0.4301 -0.2527  0.0288
    5CHTO   H80 1958   6.493   3.456   2.655 -0.8276  0.0173  0.0234
    5CHTO   O31 1959   6.496   3.509   2.452  0.3110 -0.5838  0.6352
    5CHTO   H68 1960   6.411   3.528   2.419  0.5591 -0.5668  0.0084
    5CHTO   C39 1961   6.409   3.657   2.625  0.3019 -0.5013 -0.3720
    5CHTO   H81 1962   6.423   3.735   2.550  0.1197  1.8679  1.9876
    5CHTO    N7 1963   6.267   3.605   2.623  0.2016 -0.4397  0.5564
    5CHTO   H73 1964   6.212   3.690   2.584  0.1547 -0.9234 -0.4516
    5CHTO   H74 1965   6.235   3.579   2.722  0.3973  1.3247  1.0980
    5CHTO   C40 1966   6.448   3.719   2.766 -0.0142  0.5396  0.4763
    5CHTO   H82 1967   6.425   3.643   2.840 -2.0255  0.1344 -0.5307
    5CHTO   O26 1968   6.586   3.758   2.771 -0.1665 -0.1820  0.2967
    5CHTO   C41 1969   6.682   3.648   2.748  0.9496  0.0011 -0.6146
    5CHTO   H83 1970   6.669   3.578   2.832 -1.1937  1.0081 -0.0536
    5CHTO   C52 1971   6.822   3.710   2.764 -0.3097 -0.0811  0.1913
    5CHTO   O35 1972   6.870   3.753   2.891 -0.9665  0.2638 -0.3560
    5CHTO   H71 1973   6.808   3.815   2.924  0.1124  0.3161  1.6304
    5CHTO   O28 1974   6.376   3.844   2.773 -0.0108  0.4039  0.2965
    5CHTO   C42 1975   6.321   3.891   2.903 -0.2566  0.0412  0.3279
    5CHTO   H84 1976   6.248   3.962   2.865  0.9667  1.4839  0.6495
    5CHTO   C44 1977   6.423   3.961   2.999 -0.0697  0.4115  1.3268
    5CHTO   H86 1978   6.508   3.984   2.935 -0.3884  1.6204  1.3150
    5CHTO   O32 1979   6.368   4.094   3.029 -0.1686  0.2583  0.6838
    5CHTO   H69 1980   6.380   4.157   2.961 -1.9651  3.0480  2.8004
    5CHTO   C48 1981   6.464   3.871   3.127 -0.4222  0.2594  0.2214
    5CHTO   H90 1982   6.406   3.913   3.210 -2.8387  1.4113 -1.9953
    5CHTO    N9 1983   6.601   3.906   3.181  0.0764 -0.3225  0.3702
    5CHTO   H77 1984   6.608   4.007   3.219 -0.1203 -1.2039  2.8655
    5CHTO   H78 1985   6.658   3.834   3.237 -2.3302 -1.1959  1.7558
    5CHTO   C51 1986   6.447   3.714   3.098  0.0482  0.6002  0.2965
    5CHTO   H93 1987   6.508   3.684   3.013 -0.3225 -2.0232  0.9261
    5CHTO   O30 1988   6.311   3.692   3.076  0.6926  0.3660 -0.4183
    5CHTO   C46 1989   6.232   3.787   2.980 -1.1239 -0.3470 -0.6809
    5CHTO   H88 1990   6.174   3.727   2.910  0.3694 -0.1398 -2.1376
    5CHTO   C53 1991   6.134   3.875   3.063  0.2199 -0.0295  0.1161
    5CHTO   O72 1992   6.030   3.799   3.133  0.2943 -1.0929 -0.5611
    5CHTO  H199 1993   5.957   3.767   3.084 -1.2976 -0.9519  1.6039
    5CHTO   O22 1994   6.482   3.620   3.202 -0.1095  0.6750 -0.3840
    5CHTO   C31 1995   6.493   3.473   3.182  0.2533 -0.2421  0.0465
    5CHTO   H59 1996   6.523   3.435   3.282  2.9697  2.4759  0.3487
    5CHTO   C29 1997   6.364   3.402   3.141  0.7329  0.4171  0.4409
    5CHTO   H57 1998   6.315   3.467   3.067 -1.5571 -0.9609  0.6920
    5CHTO   O21 1999   6.276   3.406   3.256  0.2283  0.1061 -0.4192
    5CHTO   H37 2000   6.191   3.426   3.220  0.2175 -1.7823 -1.4869
    5CHTO   C27 2001   6.368   3.254   3.093 -0.2118 -0.0872 -0.3722
    5CHTO   H55 2002   6.383   3.191   3.182 -1.2653  1.6090  1.0215
    5CHTO    N5 2003   6.241   3.211   3.031  0.1639  0.3327 -0.0766
    5CHTO   H43 2004   6.152   3.235   3.088  0.6525  0.1700  0.7608
    5CHTO   H44 2005   6.245   3.105   3.011  0.5307  0.2321  0.5401
    5CHTO   C25 2006   6.496   3.229   3.014 -0.5175  0.7179  0.3281
    5CHTO   H53 2007   6.483   3.275   2.915 -0.1820 -1.7292 -0.8962
    5CHTO   O17 2008   6.611   3.288   3.086 -0.2380 -0.2522 -0.9582
    5CHTO   C32 2009   6.602   3.432   3.082  0.3257 -0.0814 -0.5359
    5CHTO   H60 2010   6.577   3.475   2.985 -1.8405  1.2100  0.5647
    5CHTO   C36 2011   6.739   3.494   3.125  0.4441 -0.3480 -0.3910
    5CHTO   O25 2012   6.853   3.467   3.040 -0.2193  0.0166  0.0426
    5CHTO   H40 2013   6.821   3.455   2.952 -0.1326 -1.7970  0.2363
    5CHTO   O15 2014   6.526   3.091   2.987  0.6735 -0.0908  0.1277
    5CHTO   C19 2015   6.613   2.995   3.056  0.3805 -0.1352  0.0734
    5CHTO   H47 2016   6.670   3.061   3.124 -0.7192  0.0598  0.8390
    5CHTO   C20 2017   6.541   2.893   3.144 -0.8156 -0.9740  0.1732
    5CHTO   H48 2018   6.471   2.833   3.084 -1.1194  1.9748 -2.5910
    5CHTO   O19 2019   6.457   2.963   3.247 -0.8513  0.2477  0.3554
    5CHTO   H35 2020   6.381   3.001   3.208  0.0704  1.3886 -0.3688
    5CHTO   C21 2021   6.648   2.790   3.206  0.4877 -0.1036 -0.6427
    5CHTO   H49 2022   6.700   2.838   3.288  0.7934 -0.7820 -0.4379
    5CHTO    N4 2023   6.580   2.672   3.271 -0.5490 -0.3665  0.3227
    5CHTO   H41 2024   6.521   2.696   3.358 -1.2737  1.1651 -0.5658
    5CHTO   H42 2025   6.653   2.599   3.304 -0.4290 -1.2830 -1.8615
    5CHTO   C22 2026   6.754   2.746   3.100  0.6858  0.5496  0.2270
    5CHTO   H50 2027   6.716   2.667   3.035  0.0081  0.4448  0.7502
    5CHTO   O14 2028   6.806   2.847   3.015 -0.1690  0.0594  0.4826
    5CHTO   C23 2029   6.709   2.932   2.953  0.1301 -1.1830  0.1762
    5CHTO   H51 2030   6.658   2.870   2.879  1.4774 -1.5597 -0.4385
    5CHTO   C34 2031   6.788   3.033   2.875 -0.4392  0.5940 -0.3675
    5CHTO   O23 2032   6.872   2.978   2.772  0.5603  0.1241 -0.1083
    5CHTO   H38 2033   6.899   3.055   2.725  1.0803  0.4513  0.7133
    5CHTO   O16 2034   6.878   2.705   3.167  0.4404 -0.2574 -0.1514
    5CHTO   C24 2035   6.969   2.596   3.074  0.2594  0.1284 -0.2773
    5CHTO   H52 2036   6.940   2.597   2.969 -0.9904 -0.6428  0.0483
    5CHTO   C26 2037   6.958   2.452   3.131  0.4915  0.6596 -0.4115
    5CHTO   H54 2038   6.984   2.451   3.239 -0.3047 -1.4191 -0.2199
    5CHTO   O20 2039   6.826   2.422   3.126 -0.4468  0.0963  0.7472
    5CHTO   H36 2040   6.804   2.393   3.040 -0.2290 -0.1165  0.7648
    5CHTO   C30 2041   7.053   2.352   3.058 -0.3712 -0.4394 -0.9365
    5CHTO   H58 2042   7.026   2.344   2.952  0.3899 -3.4187 -0.9625
    5CHTO    N6 2043   7.056   2.216   3.112  0.0837  0.2619  0.2863
    5CHTO   H45 2044   7.147   2.163   3.089 -0.1095  0.9241 -2.1606
    5CHTO   H46 2045   6.972   2.164   3.068 -0.0721 -2.8575  3.9380
    5CHTO   C33 2046   7.197   2.414   3.069 -0.3113 -0.0527  0.2906
    5CHTO   H61 2047   7.223   2.423   3.176 -0.8557  0.9577  0.3419
    5CHTO   O18 2048   7.195   2.543   3.005 -0.2396 -0.0205  0.1328
    5CHTO   C28 2049   7.115   2.641   3.075 -0.6325 -0.5609 -0.5039
    5CHTO   H56 2050   7.154   2.653   3.176 -0.1420  0.8070 -0.8513
    5CHTO   C35 2051   7.122   2.783   3.015  0.0261  0.6585  0.6973
    5CHTO   O24 2052   7.259   2.818   2.987  0.2554 -0.1045 -0.4845
    5CHTO   H39 2053   7.278   2.900   3.029 -2.8831  0.2469  0.4387
    5CHTO    O9 2054   7.301   2.326   3.009 -0.5149 -0.5998 -0.0599
    5CHTO   C13 2055   7.281   2.316   2.840 -0.0117  0.1109  0.4530
    5CHTO   H26 2056   7.175   2.336   2.812  0.4878  0.5986 -1.1175
    5CHTO   C11 2057   7.322   2.165   2.811  0.4837 -0.0850  0.0251
    5CHTO   H24 2058   7.246   2.101   2.857 -0.1645  0.2578 -0.5590
    5CHTO    O8 2059   7.445   2.138   2.875  0.1061  0.0696 -0.1575
    5CHTO    H3 2060   7.520   2.187   2.845 -0.1743 -0.8378 -2.4504
    5CHTO    C9 2061   7.306   2.135   2.662  0.2046 -0.5607  0.5525
    5CHTO   H22 2062   7.206   2.173   2.637  1.1384  0.7540 -1.2670
    5CHTO    N2 2063   7.289   1.994   2.615 -0.1376  0.1845 -0.1663
    5CHTO   H10 2064   7.315   1.927   2.695  1.1379  1.2463  0.3224
    5CHTO   H11 2065   7.191   1.963   2.581 -0.1213  0.7450 -0.7233
    5CHTO    C7 2066   7.409   2.230   2.588  0.0232 -0.0288  0.2215
    5CHTO   H20 2067   7.372   2.231   2.484  2.1452 -0.1171 -0.5584
    5CHTO    O4 2068   7.395   2.368   2.625 -0.4126  1.2775  0.1367
    5CHTO   C14 2069   7.379   2.412   2.757 -0.6069 -0.7073 -0.3679
    5CHTO   H27 2070   7.328   2.511   2.759  0.5462 -0.1257  0.9829
    5CHTO   C18 2071   7.519   2.431   2.828  0.1198 -0.1282  0.5959
    5CHTO   O13 2072   7.575   2.558   2.803  0.2350  0.4058 -0.1677
    5CHTO    H7 2073   7.635   2.556   2.730 -2.5170  1.6249 -2.5566
    5CHTO    O2 2074   7.563   2.187   2.599  0.0905 -0.9429 -0.1734
    5CHTO    C1 2075   7.631   2.212   2.467  0.2616  0.2039  0.2153
    5CHTO   H14 2076   7.591   2.309   2.431  3.6121  1.6698  0.1891
    5CHTO    C2 2077   7.613   2.096   2.352  0.1943 -0.7890 -0.2193
    5CHTO   H15 2078   7.618   2.002   2.410 -1.7515  0.3082  1.8043
    5CHTO    O6 2079   7.479   2.105   2.306 -0.0728  0.0932  0.8942
    5CHTO    H1 2080   7.456   2.040   2.243 -0.0484  0.6413  0.3182
    5CHTO    C3 2081   7.723   2.109   2.239 -0.5639 -0.6134  0.3010
    5CHTO   H16 2082   7.690   2.190   2.172 -1.6484 -0.6235  0.8144
    5CHTO    N1 2083   7.746   1.989   2.148  0.1067  0.4869 -0.5743
    5CHTO    H8 2084   7.774   1.900   2.203 -0.1407  0.0142 -1.2045
    5CHTO    H9 2085   7.826   2.013   2.080  1.1141 -0.3635  0.2780
    5CHTO    C4 2086   7.865   2.157   2.292  0.5978 -0.0392 -0.4614
    5CHTO   H17 2087   7.914   2.075   2.343  1.7199  1.2466  0.5725
    5CHTO    O1 2088   7.858   2.268   2.387  0.6141  0.2458  0.9045
    5CHTO    C5 2089   7.783   2.234   2.505  0.1686  0.4987  0.2576
    5CHTO   H18 2090   7.817   2.145   2.557 -0.2536  0.1439 -0.0670
    5CHTO   C16 2091   7.808   2.355   2.592 -0.0718 -0.0210  0.4732
    5CHTO   O11 2092   7.945   2.393   2.613  0.4002 -0.2693  0.5246
    5CHTO    H5 2093   7.987   2.415   2.532 -2.0122  0.3987 -0.5869
    5CHTO    O3 2094   7.946   2.215   2.189 -1.0223  0.2944 -0.3436
    5CHTO    C6 2095   8.088   2.198   2.212 -0.1998 -0.8988  0.4735
    5CHTO   H19 2096   8.109   2.149   2.307 -0.3166 -1.7523  0.0600
    5CHTO    C8 2097   8.158   2.107   2.103 -0.6340  0.4148 -0.4125
    5CHTO   H21 2098   8.152   2.149   2.002 -2.1064 -1.7648 -1.2757
    5CHTO    O7 2099   8.094   1.977   2.109  0.2212 -0.5745  0.4120
    5CHTO    H2 2100   8.024   1.965   2.047  1.6193  3.2900 -2.0922
    5CHTO   C12 2101   8.309   2.095   2.147  0.1511  0.6241  0.6061
    5CHTO   H25 2102   8.302   2.056   2.251  1.6687 -0.8269  0.1831
    5CHTO    N3 2103   8.381   1.981   2.072  0.0802  0.2321 -0.0320
    5CHTO   H12 2104   8.376   2.009   1.968 -0.7204  0.3670  0.0413
    5CHTO   H13 2105   8.331   1.887   2.088 -0.5218  0.4281 -0.7467
    5CHTO   C15 2106   8.375   2.238   2.142 -0.4841 -0.3901  0.0588
    5CHTO   H28 2107   8.375   2.283   2.043  0.2129  0.2687  0.3617
    5CHTO   O10 2108   8.517   2.236   2.199 -0.1632 -0.0396 -0.1795
    5CHTO    H4 2109   8.513   2.200   2.285  0.9215 -2.8907 -1.2669
    5CHTO    O5 2110   8.311   2.323   2.239 -0.1156  0.2251 -0.2408
    5CHTO   C10 2111   8.168   2.342   2.211 -0.3927 -0.0668 -0.2745
    5CHTO   H23 2112   8.164   2.391   2.113 -0.4683  1.2029  0.3619
    5CHTO   C17 2113   8.110   2.448   2.305 -0.6429 -0.2895  0.0261
    5CHTO   O12 2114   8.003   2.532   2.255 -0.0522 -0.4337 -0.0401
    5CHTO    H6 2115   8.007   2.616   2.295 -2.6046 -0.4458  0.3125
    6CHTO  H203 2116   7.790   4.765   0.502  0.1427 -0.2673  1.4738
    6CHTO   O82 2117   7.702   4.760   0.536 -0.5846 -0.4114 -0.3693
    6CHTO  C123 2118   7.623   4.874   0.500  0.4327 -0.1619  0.0741
    6CHTO  H227 2119   7.664   4.914   0.406 -1.7978 -1.1016 -1.3300
    6CHTO   O77 2120   7.488   4.813   0.474 -0.4639  0.2848  0.3822
    6CHTO  C118 2121   7.395   4.911   0.423 -0.8562 -0.2333 -0.1601
    6CHTO  H222 2122   7.438   4.976   0.345 -1.3677 -0.4501 -0.6276
    6CHTO  C125 2123   7.272   4.842   0.359  0.2900  1.0939  0.4229
    6CHTO   O84 2124   7.202   4.761   0.456  0.2845 -0.6212  0.1654
    6CHTO  H205 2125   7.156   4.815   0.518 -1.9133 -0.7831 -1.2383
    6CHTO  C114 2126   7.365   4.999   0.540  0.2222  0.7057  0.2089
    6CHTO  H218 2127   7.328   4.939   0.623 -0.8950  0.4532 -0.4646
    6CHTO  C116 2128   7.497   5.069   0.584 -0.8212  0.0119 -0.3021
    6CHTO  H220 2129   7.536   5.139   0.507  0.6244 -1.3263 -0.7927
    6CHTO   O79 2130   7.470   5.147   0.701 -0.5159 -0.6871  0.9811
    6CHTO  H201 2131   7.548   5.196   0.717  0.0588 -1.2755  0.0529
    6CHTO  C120 2132   7.607   4.967   0.622 -0.2816 -0.4434 -0.8966
    6CHTO  H224 2133   7.581   4.906   0.711 -2.0982  1.3701 -0.1469
    6CHTO   N21 2134   7.737   5.026   0.662  0.2167  0.2499  0.1501
    6CHTO  H211 2135   7.762   5.120   0.617  0.8894 -0.4167 -0.9011
    6CHTO  H212 2136   7.761   5.019   0.767  0.9306 -0.4171 -0.0439
    6CHTO   O75 2137   7.272   5.102   0.499  0.4893 -0.3412 -0.1603
    6CHTO  C112 2138   7.122   5.106   0.566  0.1221 -0.3301  0.6541
    6CHTO  H216 2139   7.126   5.073   0.671 -1.9594  0.2942  0.9641
    6CHTO   O73 2140   7.035   5.016   0.492  0.2368  0.5164 -0.2727
    6CHTO  C113 2141   6.901   5.007   0.546 -0.5815 -0.5378 -0.3987
    6CHTO  H217 2142   6.893   4.963   0.648 -0.7059  2.6268  1.0256
    6CHTO  C124 2143   6.847   4.901   0.447  0.5393 -0.3751  0.7512
    6CHTO   O83 2144   6.734   4.825   0.503  0.2107  0.0019  0.6836
    6CHTO  H204 2145   6.650   4.849   0.469  2.0228  2.7334 -2.1814
    6CHTO  C109 2146   6.828   5.138   0.541  0.2448  1.2260  0.9164
    6CHTO  H213 2147   6.809   5.161   0.436  3.6717 -1.2647 -0.3285
    6CHTO  C110 2148   6.918   5.241   0.613  0.5706 -0.2812  0.6518
    6CHTO  H214 2149   6.912   5.222   0.720 -0.6183  0.9282  0.8110
    6CHTO   O78 2150   6.848   5.368   0.590 -0.0752  0.2240 -0.4449
    6CHTO  H200 2151   6.772   5.372   0.645  1.5995  3.5551  1.8270
    6CHTO  C111 2152   7.065   5.252   0.556  0.3694  0.2889  0.0620
    6CHTO  H215 2153   7.055   5.275   0.449 -2.0826 -1.8021 -0.2290
    6CHTO   N19 2154   7.154   5.356   0.623  0.4412  0.0114  0.4305
    6CHTO  H207 2155   7.188   5.433   0.554  2.4506 -0.1514  1.2259
    6CHTO  H208 2156   7.242   5.303   0.654  0.5764 -0.0015  0.0251
    6CHTO   O74 2157   6.697   5.136   0.605  0.4708 -0.0103 -0.2914
    6CHTO  C115 2158   6.696   5.087   0.784 -0.4101 -0.0925 -0.1841
    6CHTO  H219 2159   6.793   5.050   0.815  0.2055  0.7356 -1.0933
    6CHTO   O76 2160   6.672   5.198   0.867 -0.6202  0.4053 -0.7817
    6CHTO  C122 2161   6.541   5.263   0.844 -0.3030  0.2697 -0.0359
    6CHTO  H226 2162   6.557   5.318   0.752 -0.2532 -0.5342 -0.5144
    6CHTO  C126 2163   6.525   5.372   0.956  0.2381  0.2820  0.2074
    6CHTO   O85 2164   6.638   5.454   0.943  0.0806 -0.2133  0.1983
    6CHTO  H206 2165   6.675   5.459   1.029 -0.9764 -0.4595  0.6822
    6CHTO  C121 2166   6.423   5.165   0.834  0.4653  0.5539 -0.1269
    6CHTO  H225 2167   6.351   5.203   0.910 -0.5017  2.0972 -1.7701
    6CHTO   O81 2168   6.364   5.161   0.699 -0.3929 -0.0243  0.7228
    6CHTO  H202 2169   6.273   5.184   0.703 -0.2581  0.6442  0.1511
    6CHTO  C119 2170   6.467   5.022   0.877 -0.2133  0.7724  0.1332
    6CHTO  H223 2171   6.485   5.031   0.984  0.0417 -0.2373  0.1794
    6CHTO  C117 2172   6.593   4.967   0.798  0.4742  0.1303  0.2895
    6CHTO  H221 2173   6.579   4.927   0.698  0.0165  0.7461  0.1103
    6CHTO   N20 2174   6.652   4.850   0.863 -0.0642  0.5571  0.0271
    6CHTO  H209 2175   6.595   4.759   0.860  1.9919 -0.8180  1.3524
    6CHTO  H210 2176   6.754   4.837   0.829 -0.3651  1.5651 -1.3122
    6CHTO   O80 2177   6.348   4.919   0.871 -0.3305 -0.2783  0.3936
    6CHTO  C103 2178   6.286   4.860   1.008  0.7819  1.0449  0.1719
    6CHTO  H190 2179   6.362   4.830   1.080  2.0382 -1.8137 -2.2212
    6CHTO  C101 2180   6.188   4.960   1.089  0.3408 -0.0797  0.6606
    6CHTO  H188 2181   6.116   5.002   1.020  1.4162 -1.0840 -1.1202
    6CHTO   O68 2182   6.279   5.084   1.134 -0.4031 -0.0263 -0.4996
    6CHTO  H168 2183   6.296   5.133   1.056 -0.8385  0.1970 -0.4563
    6CHTO   C99 2184   6.108   4.888   1.209  0.2949  0.0004 -0.6512
    6CHTO  H186 2185   6.179   4.853   1.287  2.4436  1.4642 -1.8744
    6CHTO   N17 2186   6.000   4.970   1.279  0.1869 -0.6610  0.1867
    6CHTO  H174 2187   6.017   5.074   1.255 -1.2264 -0.4380  0.1512
    6CHTO  H175 2188   6.010   4.961   1.386  0.5491 -0.2545  0.1869
    6CHTO   C97 2189   6.048   4.762   1.152  0.0186 -0.8264 -0.0755
    6CHTO  H184 2190   5.963   4.790   1.090  0.9985 -0.5423 -1.3036
    6CHTO   O64 2191   6.135   4.667   1.083  0.2379  0.1189  0.6837
    6CHTO  C104 2192   6.202   4.730   0.974  0.9602  0.2722  1.2117
    6CHTO  H191 2193   6.124   4.754   0.902  1.1823 -2.3366  0.0406
    6CHTO  C108 2194   6.295   4.631   0.901  0.0604  0.2891  0.0867
    6CHTO   O71 2195   6.216   4.516   0.844 -1.1386 -0.2335  0.7046
    6CHTO  H171 2196   6.214   4.448   0.909 -2.1960 -1.0053 -0.1130
    6CHTO   O62 2197   6.006   4.681   1.269 -0.1036  0.6386  0.5359
    6CHTO   C91 2198   5.890   4.599   1.262  0.4193 -0.6830 -0.2602
    6CHTO  H178 2199   5.818   4.672   1.225 -0.0756 -0.4713  1.0728
    6CHTO   C92 2200   5.847   4.557   1.406  0.5021  0.6250 -0.6083
    6CHTO  H179 2201   5.859   4.633   1.484 -0.2761  0.9440 -0.7940
    6CHTO   O66 2202   5.705   4.523   1.403  0.0654  0.6387 -0.3227
    6CHTO  H166 2203   5.650   4.598   1.417 -0.4471  0.1976  0.0472
    6CHTO   C93 2204   5.911   4.416   1.455 -0.4522  0.4700 -0.4068
    6CHTO  H180 2205   5.848   4.380   1.538  0.1643 -2.0273 -0.9865
    6CHTO   N16 2206   6.050   4.427   1.516  0.0556  0.4513  0.1620
    6CHTO  H172 2207   6.069   4.340   1.576  0.0335  1.9255  2.3534
    6CHTO  H173 2208   6.124   4.451   1.441  0.4853  2.1318  1.0873
    6CHTO   C94 2209   5.916   4.304   1.335  0.6752 -0.3681 -0.2768
    6CHTO  H181 2210   6.017   4.291   1.295  1.0032 -2.3072  1.0998
    6CHTO   O61 2211   5.834   4.355   1.223 -0.2701  0.4497 -0.5947
    6CHTO   C95 2212   5.889   4.474   1.164 -0.0596  0.5981 -0.4861
    6CHTO  H182 2213   5.994   4.457   1.143  0.1150  0.0324  0.7993
    6CHTO  C106 2214   5.825   4.500   1.028 -0.0105  0.3799  0.3520
    6CHTO   O69 2215   5.871   4.607   0.944 -0.0126 -0.1752 -0.1899
    6CHTO  H169 2216   5.831   4.612   0.859  0.3233  2.3516 -0.2459
    6CHTO   O63 2217   5.872   4.164   1.392 -0.7206 -0.0907 -0.1161
    6CHTO   C96 2218   5.900   4.047   1.282 -0.4661  0.8343  0.4541
    6CHTO  H183 2219   5.980   4.091   1.222  0.9560  0.7136  2.2042
    6CHTO   C98 2220   5.787   4.005   1.185  0.0158 -0.5763  0.2033
    6CHTO  H185 2221   5.715   3.946   1.243 -0.3120  1.3036  1.7551
    6CHTO   O67 2222   5.717   4.121   1.137  0.3649  0.2979  0.1370
    6CHTO  H167 2223   5.679   4.165   1.211 -0.5973 -2.3239  1.2759
    6CHTO  C102 2224   5.844   3.921   1.064 -0.6983  0.0061  0.0239
    6CHTO  H189 2225   5.884   3.991   0.989  1.4521  0.4231  1.5230
    6CHTO   N18 2226   5.741   3.845   0.995 -0.0964 -0.5063  0.1322
    6CHTO  H176 2227   5.703   3.887   0.902  0.3077  3.2539  1.5738
    6CHTO  H177 2228   5.785   3.751   0.965  1.3696  0.2485 -0.1184
    6CHTO  C105 2229   5.979   3.847   1.105  0.4211 -0.3400 -0.0861
    6CHTO  H192 2230   5.982   3.745   1.067 -2.3916 -0.1236 -1.0016
    6CHTO   O65 2231   6.013   3.836   1.246 -0.6985 -0.1194  0.0858
    6CHTO  C100 2232   5.960   3.918   1.350 -0.3282 -1.0925  0.0052
    6CHTO  H187 2233   5.877   3.863   1.397 -1.0536  0.8320  1.0728
    6CHTO  C107 2234   6.072   3.947   1.456 -0.5528  0.1475 -0.8673
    6CHTO   O70 2235   6.082   3.834   1.543  0.5421  0.1987  0.6212
    6CHTO  H170 2236   6.132   3.764   1.506  0.3487  0.6162 -0.4406
    6CHTO   O57 2237   6.089   3.940   1.045  0.5137 -0.3085 -0.0889
    6CHTO   C85 2238   6.204   3.898   0.971  0.1161 -0.7295 -0.5166
    6CHTO  H157 2239   6.165   3.835   0.888 -0.8654  0.8835 -1.3077
    6CHTO   C83 2240   6.298   3.804   1.060  0.6185 -0.1646  0.9526
    6CHTO  H155 2241   6.246   3.709   1.053  1.1393 -0.3319 -1.1330
    6CHTO   O56 2242   6.295   3.834   1.198 -0.5662 -0.1722  0.5879
    6CHTO  H135 2243   6.301   3.927   1.203  1.6802 -0.3113  1.1761
    6CHTO   C81 2244   6.441   3.788   0.999  0.2893 -0.1624  0.1155
    6CHTO  H153 2245   6.423   3.736   0.905 -1.3820 -0.4841  0.5937
    6CHTO   N14 2246   6.532   3.695   1.074  0.1754  0.4953 -0.0194
    6CHTO  H141 2247   6.566   3.614   1.012 -0.2403 -0.1511  0.5891
    6CHTO  H142 2248   6.617   3.740   1.120  0.3711  0.3392 -0.2286
    6CHTO   C79 2249   6.500   3.932   0.971  0.6313 -0.3382 -0.2509
    6CHTO  H151 2250   6.597   3.919   0.923  0.0665 -0.7803 -1.2893
    6CHTO   O52 2251   6.414   4.002   0.876  0.2119  1.0510 -0.3546
    6CHTO   C86 2252   6.279   4.027   0.926  0.2036 -0.0288 -0.2834
    6CHTO  H158 2253   6.284   4.099   1.010  0.3658 -1.4751  0.9624
    6CHTO   C90 2254   6.205   4.093   0.808  0.0478 -0.3532  0.1411
    6CHTO   O60 2255   6.250   4.222   0.761  0.2212 -0.1898 -0.3956
    6CHTO  H138 2256   6.182   4.241   0.700 -0.3732 -0.1465  0.2721
    6CHTO   O50 2257   6.517   4.014   1.087  0.1116  0.0234  0.2039
    6CHTO   C73 2258   6.565   4.026   1.219 -0.2299  0.5522 -0.5676
    6CHTO  H145 2259   6.559   3.924   1.260  0.2884  0.2764 -1.1696
    6CHTO   C74 2260   6.474   4.118   1.305  0.1655 -0.5931 -0.0062
    6CHTO  H146 2261   6.374   4.072   1.301 -0.4932  0.6790  1.5850
    6CHTO   O54 2262   6.520   4.109   1.445  0.6079 -0.3604  0.6745
    6CHTO  H133 2263   6.473   4.168   1.501  1.7912 -1.8697  3.3838
    6CHTO   C75 2264   6.479   4.263   1.244  0.2498 -0.8614 -0.8164
    6CHTO  H147 2265   6.438   4.265   1.142 -1.4836  1.0990 -0.1128
    6CHTO   N13 2266   6.376   4.348   1.309  0.1747 -0.0694 -0.3461
    6CHTO  H139 2267   6.280   4.305   1.286 -0.4311  2.1771 -2.2584
    6CHTO  H140 2268   6.368   4.446   1.266 -2.1628 -0.9591 -2.0368
    6CHTO   C76 2269   6.631   4.314   1.255  0.7790  0.3004 -0.5633
    6CHTO  H148 2270   6.665   4.334   1.357 -0.7721  2.7267 -0.4810
    6CHTO   O49 2271   6.722   4.219   1.183 -0.0687  0.2034  0.0946
    6CHTO   C77 2272   6.707   4.084   1.232  0.3847 -0.1492 -0.2052
    6CHTO  H149 2273   6.731   4.081   1.339 -0.7563 -1.2634  0.0226
    6CHTO   C88 2274   6.816   4.004   1.167  0.0219  1.1617 -0.1077
    6CHTO   O58 2275   6.818   3.996   1.028  0.4542  0.0141  0.2766
    6CHTO  H136 2276   6.894   3.954   0.994 -0.0320  0.4876 -1.4206
    6CHTO   O51 2277   6.648   4.454   1.178  0.2012 -0.1272  0.4266
    6CHTO   C78 2278   6.704   4.577   1.263 -1.0600  0.0320  0.2935
    6CHTO  H150 2279   6.704   4.551   1.370 -0.2077 -0.9569  0.0649
    6CHTO   C80 2280   6.612   4.692   1.234 -0.3911  0.2261  0.3610
    6CHTO  H152 2281   6.607   4.698   1.123  0.3645 -0.6324  0.2660
    6CHTO   O55 2282   6.490   4.660   1.299  0.4439 -0.7028  0.5513
    6CHTO  H134 2283   6.497   4.663   1.392 -1.5126  2.4596  0.6879
    6CHTO   C84 2284   6.678   4.831   1.289  0.6867 -0.2708 -0.4083
    6CHTO  H156 2285   6.686   4.828   1.398 -0.1549 -0.2729 -0.3366
    6CHTO   N15 2286   6.582   4.949   1.251 -0.0454 -0.5734  0.0256
    6CHTO  H143 2287   6.590   5.019   1.332  1.4750 -0.7557  0.0477
    6CHTO  H144 2288   6.615   4.996   1.161  0.6047 -1.0038  0.0291
    6CHTO   C87 2289   6.825   4.841   1.249  0.3018 -0.1256  0.6598
    6CHTO  H159 2290   6.836   4.861   1.142  1.2149  4.1199  1.4828
    6CHTO   O53 2291   6.891   4.722   1.296  0.3806  0.3338  0.3505
    6CHTO   C82 2292   6.852   4.608   1.215 -0.0599  0.4532  0.2938
    6CHTO  H154 2293   6.859   4.640   1.111 -3.1654  1.4206  0.3263
    6CHTO   C89 2294   6.952   4.493   1.234 -0.9627 -0.6025 -0.2360
    6CHTO   O59 2295   7.078   4.533   1.181 -0.1010  0.2904 -0.1844
    6CHTO  H137 2296   7.118   4.469   1.125 -1.4354 -1.2430  0.5753
    6CHTO   O45 2297   6.894   4.971   1.321  0.5323  0.1027  0.0576
    6CHTO   C67 2298   7.027   5.007   1.270  0.6817  0.0054 -0.4789
    6CHTO  H124 2299   7.089   4.918   1.283  1.0381  0.4426  0.9169
    6CHTO   C65 2300   7.024   5.047   1.119 -0.0849  0.5067 -0.1761
    6CHTO  H122 2301   6.921   5.059   1.085  0.3267  1.4677 -1.1080
    6CHTO   O44 2302   7.078   4.932   1.056 -0.3981  0.3807  0.4995
    6CHTO  H102 2303   7.032   4.898   0.982 -1.2805  0.9034  0.8032
    6CHTO   C63 2304   7.098   5.186   1.082  0.6874 -0.0183 -0.5175
    6CHTO  H120 2305   7.037   5.266   1.124 -1.7423 -1.9176 -0.2997
    6CHTO   N11 2306   7.109   5.220   0.938  0.4250  0.3244  0.1698
    6CHTO  H108 2307   7.012   5.250   0.903  0.2621 -1.3397 -0.8696
    6CHTO  H109 2308   7.155   5.314   0.919  0.4726 -0.4445 -3.8720
    6CHTO   C61 2309   7.226   5.191   1.171 -0.4450 -0.3591  0.2638
    6CHTO  H118 2310   7.262   5.295   1.168 -0.8326 -0.2222  0.4059
    6CHTO   O40 2311   7.220   5.156   1.308 -0.2518  0.3049  0.1431
    6CHTO   C68 2312   7.095   5.112   1.363  0.9985  0.3363 -0.6501
    6CHTO  H125 2313   7.034   5.205   1.369  2.5710  1.2386  3.2938
    6CHTO   C72 2314   7.114   5.065   1.512  0.3327  0.0403 -0.3191
    6CHTO   O48 2315   7.210   4.964   1.529 -0.1925  0.6183  0.1909
    6CHTO  H105 2316   7.169   4.890   1.570  2.5467 -1.4468 -0.6491
    6CHTO   O38 2317   7.329   5.106   1.112  0.4703 -0.2456 -0.2814
    6CHTO   C55 2318   7.468   5.129   1.151 -0.4315 -0.2596  0.1823
    6CHTO  H112 2319   7.465   5.181   1.248 -1.5540  2.9238 -1.4914
    6CHTO   C56 2320   7.533   5.219   1.038 -0.0069  0.4311 -0.2972
    6CHTO  H113 2321   7.518   5.161   0.945  0.0673 -0.0763  0.0078
    6CHTO   O42 2322   7.456   5.342   1.032  0.0472  0.2051  0.1639
    6CHTO  H100 2323   7.496   5.388   0.961  0.2248 -0.1842  0.0103
    6CHTO   C57 2324   7.683   5.254   1.066  0.0422  0.5884  0.1935
    6CHTO  H114 2325   7.677   5.313   1.157 -1.2541  1.7726 -0.6335
    6CHTO   N10 2326   7.747   5.339   0.966  0.1136 -0.4928  0.1193
    6CHTO  H106 2327   7.714   5.442   0.974  0.0083 -0.3403 -1.8837
    6CHTO  H107 2328   7.720   5.304   0.867 -3.4873  0.5272  0.6424
    6CHTO   C58 2329   7.755   5.118   1.095  0.1569 -0.0463  0.1384
    6CHTO  H115 2330   7.772   5.063   1.000 -0.1927 -0.3739  0.2610
    6CHTO   O37 2331   7.686   5.030   1.186 -0.3536  0.2769 -0.0192
    6CHTO   C59 2332   7.546   5.001   1.168 -0.1841 -0.4393  0.8890
    6CHTO  H116 2333   7.525   4.933   1.085  0.0422 -0.6292  0.9893
    6CHTO   C70 2334   7.507   4.921   1.293 -0.2689 -0.4691  0.2019
    6CHTO   O46 2335   7.369   4.874   1.287  0.2284  0.2939  0.2841
    6CHTO  H103 2336   7.357   4.791   1.328  3.0809 -1.5360 -2.3984
    6CHTO   O39 2337   7.892   5.154   1.184  0.6210  0.3067 -0.5447
    6CHTO   C60 2338   8.012   5.086   1.140 -0.3678  0.7677 -0.0640
    6CHTO  H117 2339   7.992   4.980   1.130  1.5352  0.4312 -0.5608
    6CHTO   C62 2340   8.071   5.147   1.013  0.4391  0.3084 -0.6301
    6CHTO  H119 2341   7.997   5.126   0.934 -1.1190 -2.0366  1.3784
    6CHTO   O43 2342   8.080   5.284   1.028 -0.2912  0.4910 -0.1047
    6CHTO  H101 2343   7.997   5.325   1.015  0.5411  2.4400  0.6462
    6CHTO   C66 2344   8.212   5.079   0.978  0.1971  0.1157 -0.1167
    6CHTO  H123 2345   8.203   4.971   0.969  2.2022  0.1666 -3.4402
    6CHTO   N12 2346   8.267   5.121   0.849  0.3737  0.4373  0.0031
    6CHTO  H110 2347   8.357   5.062   0.837 -0.3697 -0.7767  0.3302
    6CHTO  H111 2348   8.192   5.088   0.779 -0.7116  2.1771  0.3243
    6CHTO   C69 2349   8.311   5.109   1.096  0.4248  0.9641  0.2030
    6CHTO  H126 2350   8.312   5.218   1.115  1.6446  1.4244 -2.2757
    6CHTO   O41 2351   8.259   5.037   1.221 -0.4575  0.3977 -0.2056
    6CHTO   C64 2352   8.118   5.098   1.256 -0.4233 -0.2820  0.1482
    6CHTO  H121 2353   8.132   5.207   1.267 -1.5244  0.1021 -1.8758
    6CHTO   C71 2354   8.064   5.026   1.382 -0.0377 -0.2554 -0.1815
    6CHTO   O47 2355   8.089   4.888   1.381  0.0426  0.0023 -0.1684
    6CHTO  H104 2356   8.071   4.851   1.465 -1.2141  2.0379  0.4953
    6CHTO   O34 2357   8.465   5.061   1.067  0.7734  0.1910 -0.0197
    6CHTO   C49 2358   8.623   5.102   1.025 -0.0584  0.0134  0.0146
    6CHTO   H91 2359   8.638   5.074   0.920 -0.3260  0.5507 -0.1682
    6CHTO   C47 2360   8.720   5.037   1.120  0.1929  0.4110 -0.0208
    6CHTO   H89 2361   8.816   5.072   1.078  1.0725 -0.8490  0.9125
    6CHTO   O33 2362   8.709   4.894   1.100  0.3999  0.3342  0.4531
    6CHTO   H70 2363   8.624   4.864   1.125 -0.2339 -1.2833 -3.2929
    6CHTO   C45 2364   8.708   5.094   1.272 -0.3477 -0.1606 -0.0504
    6CHTO   H87 2365   8.607   5.074   1.310 -0.1718 -0.7892  0.0844
    6CHTO    N8 2366   8.809   5.030   1.361 -0.0477  0.1001 -0.1335
    6CHTO   H75 2367   8.818   4.927   1.331 -1.9464 -0.2009  0.2871
    6CHTO   H76 2368   8.899   5.089   1.377  1.6574 -3.0666  2.6351
    6CHTO   C43 2369   8.723   5.255   1.277  0.6451  0.4866  0.0173
    6CHTO   H85 2370   8.679   5.281   1.373 -0.3312 -1.4738  0.1194
    6CHTO   O29 2371   8.659   5.324   1.169  0.1564 -0.1099  0.4744
    6CHTO   C50 2372   8.647   5.259   1.038  0.0270 -0.6688 -0.0784
    6CHTO   H92 2373   8.558   5.310   0.999  0.4689 -0.7456 -1.2105
    6CHTO   C54 2374   8.762   5.312   0.945 -0.5504 -0.3226  0.3397
    6CHTO   O36 2375   8.898   5.259   0.963 -0.3925  0.4104 -0.2504
    6CHTO   H72 2376   8.898   5.185   1.021  0.6363 -0.7642 -1.7207
    6CHTO   O27 2377   8.855   5.312   1.283  0.1681  0.5709  0.0792
    6CHTO   C37 2378   8.951   5.396   1.355  0.2103  0.0568  0.8790
    6CHTO   H79 2379   9.053   5.356   1.343  0.6396  1.3688  0.0914
    6CHTO   C38 2380   8.968   5.530   1.276  0.0954  0.7579 -0.3558
    6CHTO   H80 2381   8.870   5.579   1.273 -0.7563 -0.8464  0.6393
    6CHTO   O31 2382   9.005   5.503   1.140  0.3364 -0.0730 -0.1232
    6CHTO   H68 2383   9.090   5.463   1.147  1.4200  2.4026  1.3103
    6CHTO   C39 2384   9.070   5.628   1.351 -0.0936  0.5200 -0.3689
    6CHTO   H81 2385   9.165   5.576   1.356 -0.3116  0.2106  0.7845
    6CHTO    N7 2386   9.104   5.762   1.285  0.4069  0.0755  0.1955
    6CHTO   H73 2387   9.211   5.775   1.295  0.6052 -2.7126  2.5794
    6CHTO   H74 2388   9.070   5.755   1.183  1.3920  1.5408 -0.2461
    6CHTO   C40 2389   9.011   5.648   1.499  0.2448 -0.4854 -0.0628
    6CHTO   H82 2390   8.911   5.689   1.482  0.5581  0.6186  0.6910
    6CHTO   O26 2391   9.011   5.524   1.562  0.5069 -0.3567  0.7858
    6CHTO   C41 2392   8.917   5.426   1.505 -0.1350 -0.0857 -0.5715
    6CHTO   H83 2393   8.815   5.464   1.519  0.5524  1.4402  0.3126
    6CHTO   C52 2394   8.935   5.305   1.603 -0.1117  0.3862 -0.7467
    6CHTO   O35 2395   8.897   5.341   1.740 -0.1350  0.2679 -0.8618
    6CHTO   H71 2396   8.964   5.402   1.764 -1.1243  0.8756  0.3945
    6CHTO   O28 2397   9.099   5.715   1.596 -0.0308 -0.2317 -0.4420
    6CHTO   C42 2398   9.047   5.786   1.715  0.0544 -0.2244 -0.1029
    6CHTO   H84 2399   9.137   5.820   1.765 -1.8151  0.2926  3.0779
    6CHTO   C44 2400   8.969   5.703   1.830 -0.9884  1.1798  1.3626
    6CHTO   H86 2401   8.880   5.653   1.789  0.7782  0.6537 -2.0336
    6CHTO   O32 2402   9.066   5.600   1.860 -0.4916  0.2769  0.4286
    6CHTO   H69 2403   9.128   5.629   1.924 -1.6904 -0.1908  1.8005
    6CHTO   C48 2404   8.917   5.794   1.949  0.2415  0.2476  0.3495
    6CHTO   H90 2405   8.998   5.851   1.996  0.1482  0.5167  0.1891
    6CHTO    N9 2406   8.847   5.729   2.065 -0.4736  0.3704  0.1163
    6CHTO   H77 2407   8.874   5.777   2.158  0.4358  0.2740 -0.0946
    6CHTO   H78 2408   8.849   5.621   2.067  1.8834  0.3911  0.4287
    6CHTO   C51 2409   8.834   5.917   1.883  0.5566  0.6078  0.2911
    6CHTO   H93 2410   8.744   5.880   1.835  1.5716 -1.6279  0.0434
    6CHTO   O30 2411   8.915   5.996   1.795 -0.7502 -0.4772 -0.3646
    6CHTO   C46 2412   8.965   5.919   1.677  0.2043 -0.7502  0.5526
    6CHTO   H88 2413   8.879   5.892   1.616 -1.0921 -0.0403  2.0249
    6CHTO   C53 2414   9.052   6.022   1.597 -0.2717 -0.5777 -0.3582
    6CHTO   O72 2415   8.987   6.130   1.527  0.3526 -0.4371  0.5618
    6CHTO  H199 2416   9.031   6.169   1.454 -0.8268 -1.9861 -1.0260
    6CHTO   O22 2417   8.798   6.009   1.988 -0.0369  0.2467 -0.1398
    6CHTO   C31 2418   8.683   6.094   1.990  0.8759 -0.1011 -0.1948
    6CHTO   H59 2419   8.694   6.161   2.078 -0.6909  0.1868 -0.2047
    6CHTO   C29 2420   8.676   6.187   1.870  0.0728  0.6441 -0.1252
    6CHTO   H57 2421   8.699   6.122   1.785 -0.4017 -0.2425  0.4217
    6CHTO   O21 2422   8.792   6.274   1.873 -0.4963 -0.6414 -0.1623
    6CHTO   H37 2423   8.862   6.256   1.932  0.9949  1.5992 -1.1413
    6CHTO   C27 2424   8.549   6.272   1.843  0.5331  0.1046  0.5104
    6CHTO   H55 2425   8.549   6.363   1.906 -1.0716 -1.1152  2.3301
    6CHTO    N5 2426   8.537   6.313   1.707 -0.4990 -0.1726 -0.5523
    6CHTO   H43 2427   8.523   6.229   1.640  1.3803 -0.4549 -0.6186
    6CHTO   H44 2428   8.625   6.367   1.673  0.6170 -1.8100 -0.3366
    6CHTO   C25 2429   8.418   6.195   1.894 -0.4942  0.2454 -0.6977
    6CHTO   H53 2430   8.382   6.120   1.822 -0.5096 -0.9121  0.4985
    6CHTO   O17 2431   8.445   6.128   2.026  0.3383 -0.2827 -0.3573
    6CHTO   C32 2432   8.541   6.023   2.010  0.1575 -0.7934  0.0099
    6CHTO   H60 2433   8.529   5.951   1.928 -1.7380  0.3230 -0.7238
    6CHTO   C36 2434   8.558   5.942   2.146  0.7240 -0.1382 -0.2299
    6CHTO   O25 2435   8.433   5.878   2.174 -0.3493  0.0025 -0.4089
    6CHTO   H40 2436   8.431   5.843   2.260 -0.0812  1.9529  0.4255
    6CHTO   O15 2437   8.306   6.299   1.899  1.1751  0.1089  0.5939
    6CHTO   C19 2438   8.212   6.335   2.008 -0.0490 -0.2437  0.0314
    6CHTO   H47 2439   8.219   6.247   2.073 -1.5548  0.1458  0.7532
    6CHTO   C20 2440   8.249   6.456   2.092  0.1462  0.0946  0.3834
    6CHTO   H48 2441   8.267   6.545   2.030 -1.6420  0.9784  1.0861
    6CHTO   O19 2442   8.376   6.419   2.143 -0.0195 -0.0716  0.0075
    6CHTO   H35 2443   8.448   6.460   2.100 -0.1178  0.6288  0.5128
    6CHTO   C21 2444   8.148   6.485   2.212 -0.6612 -0.0257  0.1446
    6CHTO   H49 2445   8.159   6.410   2.290  4.6361  1.4759  1.0439
    6CHTO    N4 2446   8.180   6.608   2.285  0.3409  0.2716 -0.2601
    6CHTO   H41 2447   8.099   6.650   2.342  0.1762 -0.6153  0.1714
    6CHTO   H42 2448   8.235   6.684   2.232  0.9072  0.0859  0.0535
    6CHTO   C22 2449   8.006   6.481   2.162  0.0346  0.3330  0.5935
    6CHTO   H50 2450   7.995   6.560   2.088  0.6409 -1.8308 -1.8942
    6CHTO   O14 2451   7.997   6.357   2.086  0.6933  0.4868 -0.0324
    6CHTO   C23 2452   8.072   6.337   1.960 -0.4422 -0.5826 -0.0389
    6CHTO   H51 2453   8.051   6.428   1.901 -0.8977  1.0004  2.4806
    6CHTO   C34 2454   8.037   6.213   1.889 -0.9447 -0.0627 -0.1688
    6CHTO   O23 2455   8.041   6.100   1.974  0.3200 -0.0325 -0.1396
    6CHTO   H38 2456   8.038   6.027   1.915 -1.4179 -0.0619 -0.0353
    6CHTO   O16 2457   7.901   6.491   2.257  0.2675  0.3462 -0.1185
    6CHTO   C24 2458   7.777   6.593   2.205 -0.0609  0.3349 -0.3865
    6CHTO   H52 2459   7.792   6.626   2.102 -0.4670 -0.0629 -0.5748
    6CHTO   C26 2460   7.755   6.705   2.303  0.2523 -0.0652 -0.4058
    6CHTO   H54 2461   7.734   6.663   2.403  0.5075 -0.0029 -0.3258
    6CHTO   O20 2462   7.876   6.784   2.318 -0.2858  0.0217  0.6921
    6CHTO   H36 2463   7.869   6.855   2.379 -1.0834  0.5091  0.0414
    6CHTO   C30 2464   7.636   6.794   2.255  0.3345  0.2076 -0.1825
    6CHTO   H58 2465   7.649   6.828   2.151  0.0597 -1.8693 -0.9143
    6CHTO    N6 2466   7.629   6.910   2.342 -0.0171 -0.3875  1.0382
    6CHTO   H45 2467   7.599   6.885   2.443 -1.0886  2.3105  1.4289
    6CHTO   H46 2468   7.562   6.982   2.298  0.3968 -0.8515 -0.3789
    6CHTO   C33 2469   7.510   6.701   2.247  0.6552  0.4537  0.6823
    6CHTO   H61 2470   7.480   6.673   2.349 -0.1975  0.9439  0.5687
    6CHTO   O18 2471   7.531   6.579   2.173  0.3194 -0.7837  0.3197
    6CHTO   C28 2472   7.652   6.499   2.201 -0.3140 -0.2004  0.5584
    6CHTO   H56 2473   7.649   6.450   2.298  1.0770 -0.3170  0.5517
    6CHTO   C35 2474   7.661   6.397   2.083 -0.0785 -0.4000  0.1659
    6CHTO   O24 2475   7.560   6.290   2.084 -1.0090 -0.7797  0.7363
    6CHTO   H39 2476   7.479   6.329   2.056  0.1375  0.7577 -0.4829
    6CHTO    O9 2477   7.398   6.775   2.198 -0.4824 -0.0550 -0.0318
    6CHTO   C13 2478   7.251   6.760   2.289 -0.3969 -0.0669 -0.5872
    6CHTO   H26 2479   7.268   6.826   2.377 -0.3562  0.4091 -0.9483
    6CHTO   C11 2480   7.209   6.608   2.334  0.4368  0.5198 -0.0595
    6CHTO   H24 2481   7.271   6.578   2.419 -2.6225 -0.0696  2.0446
    6CHTO    O8 2482   7.226   6.515   2.225 -0.1675  0.3271 -0.3717
    6CHTO    H3 2483   7.306   6.468   2.240 -2.6227 -3.6338  1.3159
    6CHTO    C9 2484   7.053   6.618   2.375 -0.3024 -0.2695 -0.8210
    6CHTO   H22 2485   7.043   6.679   2.466 -3.2443 -0.0089 -1.2936
    6CHTO    N2 2486   7.010   6.488   2.433 -0.8299  0.2436 -0.6072
    6CHTO   H10 2487   7.055   6.466   2.529  0.1050  1.7071 -0.6876
    6CHTO   H11 2488   6.903   6.474   2.426 -0.5595 -1.5871 -1.2150
    6CHTO    C7 2489   6.962   6.675   2.261  1.3010 -0.0314  0.2063
    6CHTO   H20 2490   6.861   6.682   2.306  0.6856  0.9484 -1.2943
    6CHTO    O4 2491   7.006   6.805   2.223 -0.4338 -0.0008 -0.2394
    6CHTO   C14 2492   7.147   6.836   2.191 -0.4481 -0.5099 -0.1495
    6CHTO   H27 2493   7.158   6.946   2.197 -0.0255 -0.6218  1.2647
    6CHTO   C18 2494   7.172   6.801   2.039 -0.0008 -0.4560  0.2973
    6CHTO   O13 2495   7.088   6.866   1.941 -0.2610 -0.1309  0.1579
    6CHTO    H7 2496   7.048   6.801   1.886 -1.5786  2.5414 -2.1135
    6CHTO    O2 2497   6.945   6.588   2.121  0.7014 -0.2385  0.3432
    6CHTO    C1 2498   6.817   6.571   2.063  0.4596  0.2477  0.1405
    6CHTO   H14 2499   6.825   6.516   1.967  0.5478  2.4292 -1.1463
    6CHTO    C2 2500   6.730   6.708   2.036  0.0391 -0.4552  0.4633
    6CHTO   H15 2501   6.715   6.755   2.134  0.0032  2.2099 -0.7826
    6CHTO    O6 2502   6.795   6.801   1.939  0.0808  0.2511  0.2531
    6CHTO    H1 2503   6.887   6.785   1.942 -0.1421 -1.1438  0.4038
    6CHTO    C3 2504   6.579   6.658   1.987  0.0006 -0.3971 -0.0740
    6CHTO   H16 2505   6.579   6.616   1.885 -1.3181  0.5619 -0.4823
    6CHTO    N1 2506   6.492   6.780   1.984  0.6116  0.7233  0.7029
    6CHTO    H8 2507   6.530   6.844   1.906  1.0904 -0.4348 -0.0301
    6CHTO    H9 2508   6.482   6.833   2.078 -0.1665  2.4006 -0.3005
    6CHTO    C4 2509   6.512   6.545   2.081 -0.5241 -0.5138 -0.1341
    6CHTO   H17 2510   6.492   6.593   2.177  1.2708  2.3501 -1.1334
    6CHTO    O1 2511   6.605   6.439   2.089 -0.1621  0.1308 -0.1403
    6CHTO    C5 2512   6.733   6.472   2.149  0.2395  0.0023 -0.2494
    6CHTO   H18 2513   6.708   6.520   2.244 -1.1245  0.5266 -0.8656
    6CHTO   C16 2514   6.800   6.331   2.181 -0.7571  0.8959 -0.5300
    6CHTO   O11 2515   6.738   6.268   2.297  0.5012 -0.0366  0.7192
    6CHTO    H5 2516   6.738   6.326   2.370  1.2694 -0.9657  1.4713
    6CHTO    O3 2517   6.395   6.480   2.027  0.0669  0.5615 -0.1431
    6CHTO    C6 2518   6.282   6.447   2.116  0.2690 -0.0411  0.1900
    6CHTO   H19 2519   6.293   6.482   2.218  0.5706 -1.8313  0.7868
    6CHTO    C8 2520   6.144   6.507   2.060  0.7068  0.5037 -0.5191
    6CHTO   H21 2521   6.129   6.465   1.960  0.3441 -0.8636  0.0934
    6CHTO    O7 2522   6.162   6.653   2.054  0.3598 -0.2066 -0.4691
    6CHTO    H2 2523   6.090   6.691   2.007 -0.0851 -1.0672 -0.4910
    6CHTO   C12 2524   6.025   6.459   2.146  0.1063 -0.1409 -0.0130
    6CHTO   H25 2525   6.044   6.503   2.246  1.1392 -0.7224  0.0489
    6CHTO    N3 2526   5.890   6.515   2.109  0.5896 -0.1365 -0.2820
    6CHTO   H12 2527   5.844   6.440   2.046  0.1521  0.7015 -0.9716
    6CHTO   H13 2528   5.896   6.608   2.054 -1.8733  0.6312  0.6763
    6CHTO   C15 2529   6.028   6.300   2.169  0.6947  0.9839  0.0064
    6CHTO   H28 2530   6.004   6.250   2.075 -1.7636  1.1306  0.5125
    6CHTO   O10 2531   5.931   6.238   2.285 -0.3330 -0.1679 -0.6839
    6CHTO    H4 2532   5.911   6.301   2.351  2.7055 -1.3959  1.5240
    6CHTO    O5 2533   6.157   6.264   2.217  0.2628 -0.4977 -0.0746
    6CHTO   C10 2534   6.266   6.296   2.131 -0.4158  0.2988  0.5369
    6CHTO   H23 2535   6.249   6.258   2.030 -2.2831  0.8909  0.6207
    6CHTO   C17 2536   6.382   6.221   2.188 -0.4013 -0.3249  0.5402
    6CHTO   O12 2537   6.365   6.082   2.177  0.0526  0.0890 -0.7308
    6CHTO    H6 2538   6.446   6.040   2.154  0.7218  1.2381 -0.5165
    7CHTO  H203 2539   5.466   2.291   2.357  0.8708  1.5746 -0.3415
    7CHTO   O82 2540   5.550   2.250   2.354  0.1296  0.0011 -0.3691
    7CHTO  C123 2541   5.651   2.349   2.369 -0.3591 -0.0482 -0.0448
    7CHTO  H227 2542   5.601   2.444   2.391 -0.6790  0.1811 -1.7346
    7CHTO   O77 2543   5.717   2.303   2.482 -0.1550 -0.1539  0.8782
    7CHTO  C118 2544   5.835   2.378   2.526  0.2690 -0.0211  0.0309
    7CHTO  H222 2545   5.799   2.480   2.545 -1.6138 -0.6836  0.0541
    7CHTO  C125 2546   5.897   2.320   2.662 -0.0017  0.0107 -0.1900
    7CHTO   O84 2547   5.802   2.338   2.768 -0.3001 -0.3068  0.4192
    7CHTO  H205 2548   5.770   2.427   2.771 -1.8827 -0.6676 -3.0982
    7CHTO  C114 2549   5.934   2.392   2.407 -0.1002  0.4166  1.1349
    7CHTO  H218 2550   5.991   2.300   2.393 -0.2309  0.2818  1.4813
    7CHTO  C116 2551   5.870   2.450   2.277  0.2971  0.0951 -0.2392
    7CHTO  H220 2552   5.836   2.555   2.285 -0.0509 -0.1364  1.3347
    7CHTO   O79 2553   5.961   2.445   2.164  0.3022 -0.4338  0.7225
    7CHTO  H201 2554   5.922   2.485   2.089  0.4577 -0.1545  0.7893
    7CHTO  C120 2555   5.742   2.367   2.243  0.1569  0.0587 -0.1110
    7CHTO  H224 2556   5.779   2.267   2.211  0.2168  0.3164 -0.8692
    7CHTO   N21 2557   5.658   2.412   2.129  0.1911 -0.3288  0.0581
    7CHTO  H211 2558   5.588   2.484   2.168  0.2654 -0.7623  0.9987
    7CHTO  H212 2559   5.721   2.465   2.059 -0.3102  1.6506  1.0739
    7CHTO   O75 2560   6.037   2.477   2.467 -0.5016 -0.1393 -0.0417
    7CHTO  C112 2561   6.195   2.402   2.453 -0.6491 -0.2207 -0.9971
    7CHTO  H216 2562   6.184   2.343   2.361  1.6057  0.3632 -1.6640
    7CHTO   O73 2563   6.223   2.317   2.569  0.6836  0.0487  0.6853
    7CHTO  C113 2564   6.348   2.241   2.562  0.7530  0.7888 -0.3756
    7CHTO  H217 2565   6.338   2.162   2.484  0.1209 -0.5243  1.0010
    7CHTO  C124 2566   6.355   2.153   2.688 -0.6890 -0.1889  0.0437
    7CHTO   O83 2567   6.232   2.090   2.725  0.2196 -0.0902  0.0845
    7CHTO  H204 2568   6.237   2.064   2.815  1.0980  1.2752  0.4420
    7CHTO  C109 2569   6.467   2.324   2.545 -0.3909 -0.4734 -0.4510
    7CHTO  H213 2570   6.474   2.384   2.637 -0.9162 -1.2719  0.1154
    7CHTO  C110 2571   6.442   2.417   2.423 -0.3705 -0.2520  0.0502
    7CHTO  H214 2572   6.460   2.355   2.335  0.8030 -0.5310  0.4790
    7CHTO   O78 2573   6.556   2.501   2.411  0.0053 -0.2433  0.0690
    7CHTO  H200 2574   6.531   2.581   2.370 -0.8620 -0.0511  0.9638
    7CHTO  C111 2575   6.310   2.501   2.436 -0.4288 -0.6996 -0.4697
    7CHTO  H215 2576   6.318   2.568   2.523 -1.3893 -2.7818  1.2720
    7CHTO   N19 2577   6.287   2.581   2.311 -0.3905  0.3442 -0.3629
    7CHTO  H207 2578   6.332   2.679   2.310 -0.2425  0.2805 -0.1077
    7CHTO  H208 2579   6.195   2.571   2.257  0.2642 -1.4927 -1.1869
    7CHTO   O74 2580   6.586   2.239   2.535 -0.2179 -0.0435 -0.5721
    7CHTO  C115 2581   6.709   2.312   2.622 -0.3674  0.5469  0.7400
    7CHTO  H219 2582   6.707   2.421   2.614  0.3564  0.4545 -0.7767
    7CHTO   O76 2583   6.689   2.282   2.779 -0.0866  0.3109  0.3882
    7CHTO  C122 2584   6.720   2.147   2.824 -0.2243 -0.0628  0.5643
    7CHTO  H226 2585   6.651   2.073   2.784  0.9510 -1.0958  0.4363
    7CHTO  C126 2586   6.706   2.138   2.981 -0.1135 -0.1164  0.0139
    7CHTO   O85 2587   6.717   2.003   3.034  0.0074  0.1608  0.0796
    7CHTO  H206 2588   6.738   1.993   3.125 -0.8154  3.2912  0.6935
    7CHTO  C121 2589   6.868   2.109   2.778  0.1237 -0.4647  0.8368
    7CHTO  H225 2590   6.943   2.181   2.815  0.0231 -0.1003  0.3345
    7CHTO   O81 2591   6.915   1.981   2.825 -0.4664 -0.0483 -0.5104
    7CHTO  H202 2592   6.898   1.923   2.754 -0.9781 -0.6942  0.1238
    7CHTO  C119 2593   6.872   2.110   2.624  0.7598  0.6584 -0.0886
    7CHTO  H223 2594   6.972   2.075   2.597  0.4241 -0.8976  0.6057
    7CHTO  C117 2595   6.842   2.251   2.560 -0.3583 -0.0427  0.3516
    7CHTO  H221 2596   6.818   2.257   2.454 -0.6121  0.8579  0.4533
    7CHTO   N20 2597   6.944   2.351   2.587  0.0406  0.2523 -0.4924
    7CHTO  H209 2598   6.914   2.454   2.601  3.4442  1.3052 -0.6626
    7CHTO  H210 2599   7.035   2.313   2.630 -0.9422 -1.8057 -0.1587
    7CHTO   O80 2600   6.775   1.987   2.559 -0.2915  0.5178 -0.6638
    7CHTO  C103 2601   6.799   1.929   2.397  0.5521  0.1435  0.0493
    7CHTO  H190 2602   6.781   2.003   2.319 -0.1005 -0.9972 -0.9005
    7CHTO  C101 2603   6.947   1.875   2.377  0.1637  0.5242  0.3909
    7CHTO  H188 2604   6.981   1.831   2.471  1.2400  0.1181 -0.1858
    7CHTO   O68 2605   7.041   1.995   2.351  0.1472 -0.0884  0.3110
    7CHTO  H168 2606   7.130   1.964   2.345  0.7536  1.5321  0.9128
    7CHTO   C99 2607   6.961   1.758   2.263  0.4467  0.8891  0.1463
    7CHTO  H186 2608   6.952   1.806   2.163  0.0025  1.2222  0.3419
    7CHTO   N17 2609   7.087   1.688   2.275  0.3038 -0.4924 -0.1243
    7CHTO  H174 2610   7.157   1.752   2.224 -0.2563  1.1708  1.1753
    7CHTO  H175 2611   7.120   1.672   2.377  1.5387  2.0085 -0.0817
    7CHTO   C97 2612   6.837   1.663   2.268  0.0228 -0.6343  0.4214
    7CHTO  H184 2613   6.841   1.613   2.366 -0.3619 -1.1323  0.1857
    7CHTO   O64 2614   6.713   1.741   2.252 -0.2487  0.5261 -0.4809
    7CHTO  C104 2615   6.695   1.810   2.376  0.4974 -0.1777  0.5716
    7CHTO  H191 2616   6.691   1.747   2.465  1.1422  0.4325  1.0387
    7CHTO  C108 2617   6.553   1.870   2.369 -0.1211  0.1892 -0.6611
    7CHTO   O71 2618   6.447   1.775   2.374  0.4711 -0.0446 -0.0358
    7CHTO  H171 2619   6.375   1.817   2.416 -0.8674 -2.1511 -0.1696
    7CHTO   O62 2620   6.828   1.566   2.167 -0.4895 -0.0084  0.2747
    7CHTO   C91 2621   6.713   1.476   2.167  0.8988 -0.4162 -0.1971
    7CHTO  H178 2622   6.745   1.386   2.115  1.6529 -1.3049  1.8027
    7CHTO   C92 2623   6.606   1.537   2.063 -0.1761  0.4888  0.5500
    7CHTO  H179 2624   6.573   1.637   2.093 -2.0821  0.0690 -0.0422
    7CHTO   O66 2625   6.674   1.548   1.934 -0.4512  0.6518 -0.0275
    7CHTO  H166 2626   6.766   1.568   1.933 -0.6537  1.8837  1.9060
    7CHTO   C93 2627   6.478   1.439   2.061 -0.2038  0.0483  0.0133
    7CHTO  H180 2628   6.514   1.337   2.045 -2.1397 -0.7050  0.3317
    7CHTO   N16 2629   6.388   1.467   1.949  0.6072 -0.0316  0.6727
    7CHTO  H172 2630   6.287   1.440   1.975 -0.8861  2.2469 -2.4986
    7CHTO  H173 2631   6.427   1.425   1.858  1.2564  1.8717  0.0487
    7CHTO   C94 2632   6.417   1.457   2.208  0.4109  0.4792  0.6091
    7CHTO  H181 2633   6.408   1.561   2.242 -2.6086  0.3167  0.4960
    7CHTO   O61 2634   6.504   1.386   2.297  0.8748 -0.1960 -0.3247
    7CHTO   C95 2635   6.638   1.437   2.301 -0.2480 -0.6283  0.2039
    7CHTO  H182 2636   6.649   1.515   2.375 -1.2299  0.5611 -0.8889
    7CHTO  C106 2637   6.717   1.321   2.367 -0.0300  0.3196 -0.4785
    7CHTO   O69 2638   6.684   1.311   2.509 -0.7842 -0.2319  0.1435
    7CHTO  H169 2639   6.739   1.239   2.535  0.1932  0.0714 -1.0060
    7CHTO   O63 2640   6.277   1.386   2.232  0.5332  0.2398 -0.8609
    7CHTO   C96 2641   6.192   1.441   2.332 -0.0926  0.6185 -0.1356
    7CHTO  H183 2642   6.171   1.546   2.309 -0.5810 -0.0194 -2.7676
    7CHTO   C98 2643   6.242   1.418   2.479  0.4802  0.1395  0.2460
    7CHTO  H185 2644   6.344   1.459   2.487  0.3188  0.8061 -0.8973
    7CHTO   O67 2645   6.161   1.501   2.567  0.4794 -0.5295  0.4683
    7CHTO  H167 2646   6.173   1.469   2.654  0.4013 -2.1834 -0.1136
    7CHTO  C102 2647   6.225   1.269   2.537 -0.1191  0.1672  0.3425
    7CHTO  H189 2648   6.214   1.280   2.646 -1.1579  1.2278  0.1390
    7CHTO   N18 2649   6.340   1.185   2.516  0.0554  0.0061  0.1115
    7CHTO  H176 2650   6.421   1.221   2.455  0.4704 -1.5558 -0.2652
    7CHTO  H177 2651   6.385   1.139   2.603 -1.1035 -1.0036  0.1916
    7CHTO  C105 2652   6.090   1.205   2.488  0.1286  0.2618  0.2676
    7CHTO  H192 2653   6.119   1.138   2.406  1.3692  1.7185 -0.5039
    7CHTO   O65 2654   6.004   1.308   2.428  0.4783  0.2940  0.2860
    7CHTO  C100 2655   6.061   1.360   2.308 -0.0609  0.4590 -0.3042
    7CHTO  H187 2656   6.083   1.269   2.250 -1.1889  0.7269 -1.1725
    7CHTO  C107 2657   5.953   1.441   2.236 -0.3671  1.0729 -0.0392
    7CHTO   O70 2658   5.902   1.552   2.310 -0.0611 -0.2921 -0.6376
    7CHTO  H170 2659   5.948   1.631   2.287 -0.2579  0.1348  0.4357
    7CHTO   O57 2660   6.023   1.121   2.624  0.0058 -0.2739 -0.2190
    7CHTO   C85 2661   6.000   0.982   2.612  0.1499  0.1919 -0.1968
    7CHTO  H157 2662   6.059   0.946   2.525 -0.0839  1.5835 -0.9492
    7CHTO   C83 2663   5.845   0.961   2.576  0.2904  0.4164 -0.2227
    7CHTO  H155 2664   5.829   1.004   2.477 -1.6253  1.6182  0.5932
    7CHTO   O56 2665   5.754   1.030   2.669 -0.0294  0.8064  0.2126
    7CHTO  H135 2666   5.754   0.984   2.751 -0.0141  0.8321  0.2275
    7CHTO   C81 2667   5.821   0.803   2.564 -0.0152  0.4493 -0.1230
    7CHTO  H153 2668   5.869   0.766   2.473  0.0495  2.0446 -0.7652
    7CHTO   N14 2669   5.676   0.770   2.539  0.5011  0.0930 -0.2280
    7CHTO  H141 2670   5.644   0.822   2.452 -1.6525 -1.5626 -0.4812
    7CHTO  H142 2671   5.653   0.667   2.521 -1.1583  0.0537  1.8914
    7CHTO   C79 2672   5.878   0.714   2.686 -0.2803 -0.1696  0.3127
    7CHTO  H151 2673   5.898   0.618   2.637  0.2216  0.0916  0.0023
    7CHTO   O52 2674   6.011   0.761   2.726  0.4569 -0.6084  0.3914
    7CHTO   C86 2675   6.037   0.905   2.747  0.1396 -0.1908  0.1764
    7CHTO  H158 2676   5.984   0.947   2.835 -1.7174 -1.5793 -0.2329
    7CHTO   C90 2677   6.191   0.912   2.773  0.1437  0.1070 -0.6497
    7CHTO   O60 2678   6.216   0.923   2.911 -0.3997  0.4403  0.0595
    7CHTO  H138 2679   6.307   0.912   2.931 -0.5977  0.1626  0.8230
    7CHTO   O50 2680   5.786   0.700   2.800 -0.1546  0.3901 -0.1555
    7CHTO   C73 2681   5.759   0.592   2.882  0.3072 -0.1584 -0.2012
    7CHTO  H145 2682   5.854   0.538   2.889  0.7028  0.5695  0.0990
    7CHTO   C74 2683   5.652   0.507   2.812 -0.1571  0.5938 -0.0953
    7CHTO  H146 2684   5.687   0.474   2.713 -0.5496 -2.8692  0.8468
    7CHTO   O54 2685   5.634   0.381   2.880 -0.1756 -0.0692 -0.2087
    7CHTO  H133 2686   5.568   0.323   2.846  0.3724 -0.0086 -1.3882
    7CHTO   C75 2687   5.517   0.579   2.803  0.4509  0.0412  0.2667
    7CHTO  H147 2688   5.529   0.675   2.750 -1.7216  0.4617  0.4906
    7CHTO   N13 2689   5.413   0.504   2.729 -0.5219 -0.3815  0.0291
    7CHTO  H139 2690   5.359   0.551   2.649  0.5749 -1.6736 -1.4929
    7CHTO  H140 2691   5.355   0.444   2.798 -0.6337  1.1265  1.2740
    7CHTO   C76 2692   5.470   0.628   2.952  0.1390  1.2694  0.0665
    7CHTO  H148 2693   5.455   0.538   3.011  1.7711 -0.1140 -1.5930
    7CHTO   O49 2694   5.582   0.704   3.010  0.3566  0.0549  0.3160
    7CHTO   C77 2695   5.709   0.646   3.022  0.0817 -0.0355  0.1174
    7CHTO  H149 2696   5.701   0.563   3.092 -1.8970  2.8398  3.5002
    7CHTO   C88 2697   5.797   0.744   3.100 -0.4887  0.3134 -0.2712
    7CHTO   O58 2698   5.737   0.754   3.245  0.1716 -0.3759 -0.3327
    7CHTO  H136 2699   5.647   0.779   3.242 -0.0540 -1.2049 -0.4407
    7CHTO   O51 2700   5.334   0.721   2.957  0.8662 -0.3132 -0.1979
    7CHTO   C78 2701   5.322   0.742   3.129  0.3391 -0.1771  0.5865
    7CHTO  H150 2702   5.403   0.704   3.195 -0.9617 -0.8156  1.8607
    7CHTO   C80 2703   5.187   0.672   3.168  0.2906 -0.1272  0.1502
    7CHTO  H152 2704   5.105   0.724   3.114  1.6917  1.9400 -0.0442
    7CHTO   O55 2705   5.206   0.532   3.132  0.1236  0.5775 -0.1168
    7CHTO  H134 2706   5.286   0.499   3.169 -0.5603 -0.8943  0.0877
    7CHTO   C84 2707   5.161   0.690   3.319  0.1190 -0.0320  0.2090
    7CHTO  H156 2708   5.250   0.661   3.374  0.3548  0.2574 -0.0193
    7CHTO   N15 2709   5.052   0.607   3.382  0.7144 -0.1286  0.2931
    7CHTO  H143 2710   4.957   0.653   3.363  0.4035 -0.8995 -0.0374
    7CHTO  H144 2711   5.046   0.505   3.352  0.0692 -0.4621  1.5435
    7CHTO   C87 2712   5.139   0.840   3.348  0.1156  0.6856  0.0193
    7CHTO  H159 2713   5.048   0.874   3.299 -0.0641  1.3773  0.8226
    7CHTO   O53 2714   5.270   0.923   3.289 -0.6679 -0.2280  0.0598
    7CHTO   C82 2715   5.308   0.891   3.151  0.1186  0.0629  0.3897
    7CHTO  H154 2716   5.227   0.912   3.081 -0.4344 -2.3590  0.2763
    7CHTO   C89 2717   5.430   0.976   3.102 -0.0112 -0.0867 -0.5407
    7CHTO   O59 2718   5.412   0.986   2.962 -0.1989 -0.2235  0.1307
    7CHTO  H137 2719   5.460   1.059   2.928 -0.8144  0.9360  1.6849
    7CHTO   O45 2720   5.122   0.867   3.505 -0.1556 -0.1012 -0.4931
    7CHTO   C67 2721   5.210   0.965   3.571 -0.3243 -0.4766  0.0379
    7CHTO  H124 2722   5.302   0.977   3.514  0.6096 -3.4473  0.8530
    7CHTO   C65 2723   5.149   1.105   3.583  0.5147  0.3607  0.1379
    7CHTO  H122 2724   5.041   1.097   3.573  0.6515 -2.3833  0.6397
    7CHTO   O44 2725   5.200   1.167   3.467  0.2180  0.2879 -0.3625
    7CHTO  H102 2726   5.293   1.161   3.453  0.6461  0.3096  2.3745
    7CHTO   C63 2727   5.162   1.185   3.714  0.3016 -0.0020 -0.1830
    7CHTO  H120 2728   5.096   1.138   3.787 -0.7095  0.8135 -0.5694
    7CHTO   N11 2729   5.113   1.331   3.715 -0.5373  0.0737  0.2107
    7CHTO  H108 2730   5.092   1.357   3.613  0.2058 -0.3522 -0.0554
    7CHTO  H109 2731   5.203   1.388   3.717 -1.2024  1.1374  0.1451
    7CHTO   C61 2732   5.306   1.162   3.769 -0.7139  0.3105  0.3998
    7CHTO  H118 2733   5.302   1.200   3.872  1.1145 -2.2831  1.4733
    7CHTO   O40 2734   5.346   1.026   3.774  0.5330  0.3728 -0.0246
    7CHTO   C68 2735   5.256   0.919   3.715 -0.0251 -0.2242  0.6241
    7CHTO  H125 2736   5.176   0.906   3.791 -0.5357 -1.0520 -0.0427
    7CHTO   C72 2737   5.342   0.788   3.711  0.6138  0.2016 -0.3063
    7CHTO   O48 2738   5.462   0.796   3.630  0.5184 -0.0925 -0.3017
    7CHTO  H105 2739   5.487   0.707   3.616 -2.7737 -1.2443  0.5725
    7CHTO   O38 2740   5.399   1.239   3.694  0.1924  0.3135  0.6159
    7CHTO   C55 2741   5.539   1.236   3.724 -1.1431 -0.2397 -0.0706
    7CHTO  H112 2742   5.552   1.154   3.795  2.8767 -1.3623 -1.9811
    7CHTO   C56 2743   5.583   1.376   3.778 -0.3477  0.1843  0.4245
    7CHTO  H113 2744   5.541   1.453   3.712  0.6799  1.2568  1.0046
    7CHTO   O42 2745   5.520   1.415   3.900  0.0631  0.0960 -0.7687
    7CHTO  H100 2746   5.433   1.451   3.895  0.2099  0.4553 -0.7580
    7CHTO   C57 2747   5.740   1.385   3.803 -0.1434 -0.0545 -0.2525
    7CHTO  H114 2748   5.770   1.322   3.887 -0.5680 -1.9756 -1.4959
    7CHTO   N10 2749   5.800   1.509   3.859  0.0785  0.1460  0.1671
    7CHTO  H106 2750   5.750   1.549   3.946 -0.2128  0.8942 -0.3375
    7CHTO  H107 2751   5.904   1.499   3.883 -0.1317 -1.8955  0.3132
    7CHTO   C58 2752   5.813   1.331   3.679 -0.7470 -0.1832  0.3020
    7CHTO  H115 2753   5.788   1.401   3.596 -0.5849  0.6170  0.9203
    7CHTO   O37 2754   5.765   1.201   3.652  0.6333  0.1294  0.3712
    7CHTO   C59 2755   5.634   1.204   3.597  1.0283 -0.2256 -0.0588
    7CHTO  H116 2756   5.612   1.273   3.516 -0.6646 -0.6637  0.0021
    7CHTO   C70 2757   5.598   1.070   3.533 -0.2080 -0.1567  0.7787
    7CHTO   O46 2758   5.670   1.040   3.417 -0.3432  0.0768 -0.4652
    7CHTO  H103 2759   5.667   1.117   3.362 -0.7979 -1.1568 -2.2223
    7CHTO   O39 2760   5.991   1.320   3.700 -0.0112  0.2425 -0.9798
    7CHTO   C60 2761   6.068   1.217   3.635  0.0747  0.4320 -0.6371
    7CHTO  H117 2762   6.031   1.115   3.650  0.8680  0.3040  0.4939
    7CHTO   C62 2763   6.060   1.237   3.482  0.3546 -0.2926  0.5292
    7CHTO  H119 2764   5.959   1.200   3.456 -0.0609 -0.6137  2.5054
    7CHTO   O43 2765   6.083   1.378   3.461 -0.0281 -0.2471  0.5809
    7CHTO  H101 2766   6.092   1.388   3.368 -0.8195 -2.5771  0.2274
    7CHTO   C66 2767   6.156   1.137   3.403  0.3898 -0.2752 -0.3514
    7CHTO  H123 2768   6.120   1.036   3.423 -1.8879  0.4400 -0.7105
    7CHTO   N12 2769   6.138   1.167   3.261  0.4692 -0.6231  0.6026
    7CHTO  H110 2770   6.132   1.077   3.201  1.1362 -1.4386  1.7507
    7CHTO  H111 2771   6.220   1.223   3.217 -1.1055 -0.3331 -2.0971
    7CHTO   C69 2772   6.302   1.135   3.450 -0.4242 -0.6250  0.3211
    7CHTO  H126 2773   6.340   1.239   3.441 -1.4931 -0.2749 -0.1446
    7CHTO   O41 2774   6.302   1.104   3.607 -0.2288  0.1461 -0.4131
    7CHTO   C64 2775   6.214   1.220   3.685 -0.2208 -0.3939  0.7497
    7CHTO  H121 2776   6.268   1.314   3.662  0.2661 -0.1861  2.6126
    7CHTO   C71 2777   6.215   1.189   3.835 -0.3280  0.0669  0.0246
    7CHTO   O47 2778   6.217   1.301   3.923  0.0182 -0.4774  0.1653
    7CHTO  H104 2779   6.132   1.338   3.926 -0.0915 -0.7800  0.7770
    7CHTO   O34 2780   6.400   1.029   3.374 -0.3144 -0.0835 -0.0597
    7CHTO   C49 2781   6.467   0.929   3.302 -0.5132 -0.1307 -0.5995
    7CHTO   H91 2782   6.508   0.861   3.376 -0.9980 -1.9355 -1.9647
    7CHTO   C47 2783   6.588   0.982   3.222  0.4498 -0.4714  0.6139
    7CHTO   H89 2784   6.674   0.974   3.292 -0.1478  1.7643  1.6455
    7CHTO   O33 2785   6.574   1.122   3.181 -0.2920 -0.2072 -0.2918
    7CHTO   H70 2786   6.486   1.126   3.148 -0.4144  0.1975  0.0730
    7CHTO   C45 2787   6.626   0.903   3.081  0.5253  0.4633 -0.0293
    7CHTO   H87 2788   6.561   0.946   3.003  2.5125  1.5538 -1.1076
    7CHTO    N8 2789   6.765   0.927   3.041 -0.6194 -0.4321  0.2346
    7CHTO   H75 2790   6.845   0.900   3.108  1.6100 -0.1843 -2.2166
    7CHTO   H76 2791   6.782   0.874   2.948 -1.1078  3.0342 -1.9078
    7CHTO   C43 2792   6.576   0.747   3.097 -0.4143  0.2527 -0.3161
    7CHTO   H85 2793   6.595   0.703   3.000 -0.2341 -4.1929  1.6327
    7CHTO   O29 2794   6.434   0.743   3.134 -0.7964  0.1299  0.0497
    7CHTO   C50 2795   6.375   0.851   3.207  0.1780 -0.6654  0.1611
    7CHTO   H92 2796   6.333   0.919   3.131  0.3156 -0.5547  0.1851
    7CHTO   C54 2797   6.250   0.797   3.274 -0.1716  0.3649 -0.2035
    7CHTO   O36 2798   6.153   0.748   3.181  0.3188  0.0863 -0.2341
    7CHTO   H72 2799   6.149   0.811   3.112  1.1179  0.6076  0.1864
    7CHTO   O27 2800   6.662   0.661   3.180  0.5464 -0.2298 -0.2317
    7CHTO   C37 2801   6.685   0.524   3.221 -0.0029 -0.9023  0.4529
    7CHTO   H79 2802   6.664   0.515   3.329  1.9359  0.7896  1.0130
    7CHTO   C38 2803   6.589   0.420   3.148 -0.1452 -0.8201 -0.0838
    7CHTO   H80 2804   6.599   0.433   3.039  1.4419 -1.3338 -0.0037
    7CHTO   O31 2805   6.453   0.445   3.183  0.5673  0.1586 -0.6283
    7CHTO   H68 2806   6.442   0.433   3.275  1.9421  2.9761 -0.0332
    7CHTO   C39 2807   6.636   0.276   3.186 -0.3432 -0.0904  0.2259
    7CHTO   H81 2808   6.609   0.272   3.292 -2.8763  0.0209 -0.3837
    7CHTO    N7 2809   6.564   0.164   3.112 -0.1287 -0.1619  0.4213
    7CHTO   H73 2810   6.467   0.143   3.155 -0.3520  0.1845  0.0864
    7CHTO   H74 2811   6.560   0.187   3.007  2.0875  0.9421  0.5484
    7CHTO   C40 2812   6.792   0.260   3.173 -0.1188  0.3427 -0.3932
    7CHTO   H82 2813   6.826   0.246   3.071  2.6775 -0.1039  0.5638
    7CHTO   O26 2814   6.865   0.365   3.241 -0.1860  0.8937  0.4851
    7CHTO   C41 2815   6.831   0.492   3.190  0.5147 -0.4389  0.1978
    7CHTO   H83 2816   6.838   0.499   3.080 -5.0857  0.1906 -0.2757
    7CHTO   C52 2817   6.939   0.589   3.253 -0.5745 -0.1027 -0.4064
    7CHTO   O35 2818   7.073   0.558   3.221 -0.8117  0.2396  0.0010
    7CHTO   H71 2819   7.116   0.543   3.304 -1.9611 -0.8304  0.4116
    7CHTO   O28 2820   6.849   0.153   3.256 -0.2762 -0.4267 -0.0214
    7CHTO   C42 2821   6.985   0.095   3.231 -0.0375 -0.7997  0.7260
    7CHTO   H84 2822   7.006   0.043   3.324 -0.5320 -0.7207  0.8815
    7CHTO   C44 2823   7.102   0.204   3.213  0.5101  0.3237  1.0231
    7CHTO   H86 2824   7.059   0.277   3.145 -1.1155 -1.5136  0.0440
    7CHTO   O32 2825   7.122   0.265   3.350 -0.2839  0.2946 -0.1617
    7CHTO   H69 2826   7.086   0.204   3.411 -1.4399  0.5186 -0.6083
    7CHTO   C48 2827   7.240   0.154   3.147 -0.2116 -0.5677  0.2068
    7CHTO   H90 2828   7.286   0.092   3.224 -0.3198  0.1444  0.8418
    7CHTO    N9 2829   7.338   0.265   3.136 -0.1532 -0.3784  0.3765
    7CHTO   H77 2830   7.433   0.240   3.090  0.1946 -1.5098  1.6903
    7CHTO   H78 2831   7.306   0.353   3.083  0.8437  0.0513  0.4809
    7CHTO   C51 2832   7.195   0.074   3.025 -0.8120 -0.0924 -0.1111
    7CHTO   H93 2833   7.133   0.139   2.964 -2.8516 -2.5875 -0.8129
    7CHTO   O30 2834   7.123  -0.042   3.069 -0.0295 -0.2337  0.1309
    7CHTO   C46 2835   6.986  -0.011   3.119 -0.5534 -0.6302  0.9055
    7CHTO   H88 2836   6.925   0.017   3.033  0.4097  1.9190  1.0141
    7CHTO   C53 2837   6.922  -0.132   3.183  0.8382 -0.1906 -0.0963
    7CHTO   O72 2838   6.903  -0.237   3.097  0.3772  0.5597  0.5131
    7CHTO  H199 2839   6.974  -0.293   3.122  0.4770  1.7633  3.1037
    7CHTO   O22 2840   7.307   0.016   2.956  0.0091  0.0497  0.3625
    7CHTO   C31 2841   7.303   0.018   2.807 -0.6702 -0.1842 -0.5717
    7CHTO   H59 2842   7.393  -0.041   2.781  1.4524  1.2188  3.2797
    7CHTO   C29 2843   7.178  -0.048   2.742 -0.1546  0.5835 -0.1819
    7CHTO   H57 2844   7.089   0.005   2.778 -0.1760 -1.9668  3.8205
    7CHTO   O21 2845   7.171  -0.176   2.804  0.0896  0.3407  0.1115
    7CHTO   H37 2846   7.098  -0.230   2.781  1.7795 -1.5925 -0.9200
    7CHTO   C27 2847   7.182  -0.035   2.584 -0.7462 -1.3821  0.1369
    7CHTO   H55 2848   7.278  -0.074   2.545  0.8962  1.1539  1.4950
    7CHTO    N5 2849   7.068  -0.097   2.516 -0.4011  0.1650 -0.4623
    7CHTO   H43 2850   7.014  -0.026   2.456 -0.8629  1.0960  1.0375
    7CHTO   H44 2851   7.095  -0.186   2.461 -0.0475  0.8952 -1.4900
    7CHTO   C25 2852   7.200   0.122   2.552  1.2019 -0.1896 -0.5775
    7CHTO   H53 2853   7.116   0.177   2.597  1.9875  4.6613 -4.6797
    7CHTO   O17 2854   7.323   0.169   2.610  0.2013  0.2062  0.0598
    7CHTO   C32 2855   7.331   0.162   2.752 -0.1714 -0.5980  0.7738
    7CHTO   H60 2856   7.259   0.236   2.788  0.4371 -0.0701  0.9104
    7CHTO   C36 2857   7.481   0.206   2.777  0.4133 -0.0012 -0.5735
    7CHTO   O25 2858   7.507   0.344   2.784 -0.4863  0.4012 -0.5994
    7CHTO   H40 2859   7.549   0.368   2.864  0.3552 -2.4753 -0.1049
    7CHTO   O15 2860   7.202   0.141   2.401  0.3214  0.0208  0.2974
    7CHTO   C19 2861   7.194   0.262   2.321  0.3345  0.3815  0.5620
    7CHTO   H47 2862   7.183   0.204   2.229  0.8863  0.7380  0.2723
    7CHTO   C20 2863   7.065   0.349   2.334  0.6144 -0.8864 -0.5810
    7CHTO   H48 2864   7.036   0.366   2.438 -3.7362 -0.9684 -1.6785
    7CHTO   O19 2865   6.955   0.277   2.275  0.2129  0.2387  0.7702
    7CHTO   H35 2866   6.975   0.222   2.202  1.5717  0.4414  0.9836
    7CHTO   C21 2867   7.081   0.500   2.264 -0.2856  0.4743 -0.1203
    7CHTO   H49 2868   7.049   0.496   2.160 -1.2044  3.5072 -0.0115
    7CHTO    N4 2869   6.979   0.603   2.311 -0.0733  0.3809 -0.5123
    7CHTO   H41 2870   6.888   0.556   2.347 -1.4422  2.8536 -0.6259
    7CHTO   H42 2871   6.963   0.680   2.237 -1.8929  1.2627  0.7559
    7CHTO   C22 2872   7.227   0.557   2.271  0.7079 -0.5589 -0.5992
    7CHTO   H50 2873   7.256   0.585   2.373 -1.3474 -1.4581  0.2543
    7CHTO   O14 2874   7.324   0.464   2.228 -0.7370 -0.2470  0.2803
    7CHTO   C23 2875   7.329   0.344   2.313 -0.2235 -0.1852  0.7440
    7CHTO   H51 2876   7.367   0.371   2.413  1.0777  2.0249 -0.3110
    7CHTO   C34 2877   7.453   0.274   2.251  0.1269 -0.3962  0.0863
    7CHTO   O23 2878   7.482   0.143   2.300 -0.1192  0.4487 -0.3861
    7CHTO   H38 2879   7.571   0.129   2.325 -0.7938  0.4825  2.1957
    7CHTO   O16 2880   7.236   0.676   2.179 -0.2234 -0.2854 -0.0817
    7CHTO   C24 2881   7.266   0.818   2.266  0.4916 -0.3881 -0.5173
    7CHTO   H52 2882   7.251   0.804   2.374  3.6644 -1.7497 -0.1785
    7CHTO   C26 2883   7.178   0.935   2.221 -0.6312 -0.0436 -0.6192
    7CHTO   H54 2884   7.188   0.944   2.110  1.4252  0.7333 -0.3831
    7CHTO   O20 2885   7.047   0.891   2.253  1.0530  0.2437  0.4658
    7CHTO   H36 2886   7.008   0.874   2.170  1.2273 -0.4162  0.5133
    7CHTO   C30 2887   7.222   1.067   2.295  0.1114 -0.3259  0.0377
    7CHTO   H58 2888   7.217   1.052   2.403 -1.5533  0.0842  0.0306
    7CHTO    N6 2889   7.133   1.183   2.270 -0.4850 -0.2706 -0.8327
    7CHTO   H45 2890   7.035   1.141   2.254  0.4046 -2.5790 -0.4254
    7CHTO   H46 2891   7.164   1.242   2.185  2.4352 -1.6214 -0.7501
    7CHTO   C33 2892   7.372   1.089   2.250  0.4015  0.5480  0.0786
    7CHTO   H61 2893   7.388   1.100   2.142  1.4154 -1.5667  0.0031
    7CHTO   O18 2894   7.451   0.974   2.296 -0.0248  0.0645  0.3625
    7CHTO   C28 2895   7.417   0.845   2.248  0.1172  0.2321  0.1351
    7CHTO   H56 2896   7.446   0.835   2.143  0.4166  0.9557  0.1503
    7CHTO   C35 2897   7.510   0.738   2.309 -1.0956  0.4662  0.7859
    7CHTO   O24 2898   7.501   0.735   2.451  0.0802 -0.2598 -0.4544
    7CHTO   H39 2899   7.503   0.821   2.489  1.7447 -0.3650 -0.2462
    7CHTO    O9 2900   7.423   1.206   2.304  0.5536  0.1566  0.0544
    7CHTO   C13 2901   7.533   1.287   2.219  0.1680  0.0733 -0.8894
    7CHTO   H26 2902   7.526   1.261   2.111  1.3838  2.3204 -1.5355
    7CHTO   C11 2903   7.670   1.246   2.286  0.1484  0.1118  0.1360
    7CHTO   H24 2904   7.677   1.138   2.267 -1.9810 -0.1689  0.7863
    7CHTO    O8 2905   7.666   1.253   2.434 -0.2149 -0.1876  0.8121
    7CHTO    H3 2906   7.606   1.188   2.463 -2.5485  0.8257 -1.5738
    7CHTO    C9 2907   7.785   1.321   2.217  0.3182  0.4826  0.1089
    7CHTO   H22 2908   7.769   1.300   2.110  1.1910 -1.7011  0.3926
    7CHTO    N2 2909   7.919   1.270   2.257  0.3317  1.0258  0.7951
    7CHTO   H10 2910   7.933   1.265   2.364  0.1016 -0.2693  0.7808
    7CHTO   H11 2911   7.935   1.166   2.231 -1.1193  1.2499 -1.1136
    7CHTO    C7 2912   7.763   1.475   2.238 -0.8963 -0.5437  0.1683
    7CHTO   H20 2913   7.839   1.521   2.171 -0.2325  3.9299  3.8115
    7CHTO    O4 2914   7.633   1.520   2.198  0.2778 -0.4975 -0.0348
    7CHTO   C14 2915   7.514   1.444   2.219  0.5790 -0.1431  0.0104
    7CHTO   H27 2916   7.444   1.482   2.142  0.9253 -0.7090 -0.5914
    7CHTO   C18 2917   7.467   1.490   2.353 -0.2545  0.3927  0.3002
    7CHTO   O13 2918   7.408   1.625   2.350 -0.3350 -0.2124 -0.2383
    7CHTO    H7 2919   7.352   1.633   2.424 -1.0006 -1.1652 -0.6266
    7CHTO    O2 2920   7.799   1.532   2.388 -0.7718  0.4254 -0.1357
    7CHTO    C1 2921   7.874   1.654   2.405  0.2487  0.2258  0.3216
    7CHTO   H14 2922   7.836   1.729   2.333  0.3116  0.7979  0.8847
    7CHTO    C2 2923   8.031   1.647   2.386 -0.1622  0.3192 -0.6178
    7CHTO   H15 2924   8.071   1.561   2.441 -0.2534  1.3408  1.0897
    7CHTO    O6 2925   8.065   1.617   2.251  0.4059  0.7308  1.0261
    7CHTO    H1 2926   8.157   1.606   2.241  0.1599  0.9489 -1.8043
    7CHTO    C3 2927   8.100   1.784   2.425 -0.0136  0.7844  0.5276
    7CHTO   H16 2928   8.081   1.856   2.344  0.2934 -1.0264 -1.1940
    7CHTO    N1 2929   8.251   1.767   2.432 -0.8887 -0.0260  0.0609
    7CHTO    H8 2930   8.295   1.866   2.437 -1.8715  0.3738  1.0897
    7CHTO    H9 2931   8.279   1.712   2.521 -2.4314 -2.1606 -0.7402
    7CHTO    C4 2932   8.037   1.842   2.561  0.2117 -0.0310 -0.1101
    7CHTO   H17 2933   8.080   1.784   2.642  0.5592 -0.8707 -0.8806
    7CHTO    O1 2934   7.892   1.834   2.559  0.1697  0.2305  0.1217
    7CHTO    C5 2935   7.846   1.697   2.550  0.2428 -0.2072 -0.3513
    7CHTO   H18 2936   7.897   1.630   2.619  3.0768  1.1543 -1.0521
    7CHTO   C16 2937   7.694   1.707   2.593 -0.1533 -0.3295  0.1768
    7CHTO   O11 2938   7.620   1.778   2.493  0.3632  0.1919  0.0988
    7CHTO    H5 2939   7.528   1.785   2.510  0.8146  1.6825  2.0933
    7CHTO    O3 2940   8.065   1.983   2.572 -0.1295  0.4053 -0.2650
    7CHTO    C6 2941   8.162   2.038   2.670  0.8995  0.7525  0.3893
    7CHTO   H19 2942   8.219   1.958   2.718  2.4671  1.6842  0.1212
    7CHTO    C8 2943   8.252   2.153   2.608  0.3455 -1.0362 -0.1926
    7CHTO   H21 2944   8.182   2.221   2.560  1.5276  0.7465  0.5892
    7CHTO    O7 2945   8.339   2.090   2.504  0.4383 -0.6530 -0.2719
    7CHTO    H2 2946   8.288   2.069   2.428 -0.0049 -0.2496 -0.0914
    7CHTO   C12 2947   8.337   2.230   2.720  0.5092 -0.5281 -0.9109
    7CHTO   H25 2948   8.407   2.159   2.769 -2.2178 -3.3790 -1.0208
    7CHTO    N3 2949   8.418   2.342   2.665  0.5083  0.2538 -0.1711
    7CHTO   H12 2950   8.525   2.340   2.680  0.3173  1.2695  1.4819
    7CHTO   H13 2951   8.377   2.440   2.686 -0.1646  0.0830 -0.6905
    7CHTO   C15 2952   8.229   2.275   2.826 -0.6211  0.2592  0.8519
    7CHTO   H28 2953   8.160   2.346   2.782  0.4887  0.6994 -0.2108
    7CHTO   O10 2954   8.289   2.322   2.953 -0.4269 -0.0280 -0.4331
    7CHTO    H4 2955   8.325   2.256   3.010  1.9849 -0.3137 -2.2248
    7CHTO    O5 2956   8.154   2.163   2.877  0.0994 -0.5746 -0.1184
    7CHTO   C10 2957   8.074   2.105   2.778 -0.2024  1.0874 -0.0221
    7CHTO   H23 2958   8.012   2.185   2.738  0.2864  2.2368  1.4896
    7CHTO   C17 2959   7.979   2.002   2.847  0.6851 -0.3997  0.0655
    7CHTO   O12 2960   7.905   2.065   2.948  0.2586 -0.4024 -0.3323
    7CHTO    H6 2961   7.828   2.110   2.919  0.1754 -0.3366 -0.0193
    8CHTO  H203 2962   7.284   9.453   1.308  2.7170 -0.8216 -0.0207
    8CHTO   O82 2963   7.264   9.363   1.288 -0.0028 -0.1461 -0.5558
    8CHTO  C123 2964   7.270   9.295   1.415 -0.2351  0.2476  0.0536
    8CHTO  H227 2965   7.311   9.366   1.488  1.0415 -0.6358  0.2084
    8CHTO   O77 2966   7.133   9.265   1.440 -0.0139  0.4171  0.1825
    8CHTO  C118 2967   7.105   9.174   1.551 -0.2768  0.4065  0.3218
    8CHTO  H222 2968   7.142   9.215   1.647  1.1055 -0.5776  0.2317
    8CHTO  C125 2969   6.953   9.150   1.558  0.4671 -0.3493  0.4627
    8CHTO   O84 2970   6.895   9.098   1.682 -1.0653 -0.0657  0.3143
    8CHTO  H205 2971   6.850   9.017   1.663 -2.5722  0.1198  2.8148
    8CHTO  C114 2972   7.180   9.045   1.522  0.0277  0.0643  0.1593
    8CHTO  H218 2973   7.151   9.013   1.421 -0.8011  0.5723  0.2336
    8CHTO  C116 2974   7.334   9.066   1.525 -0.0388  0.0294  0.0506
    8CHTO  H220 2975   7.373   9.116   1.617 -0.4497  0.4410  0.0043
    8CHTO   O79 2976   7.407   8.941   1.502  0.5766 -0.1785 -0.3832
    8CHTO  H201 2977   7.389   8.872   1.562  1.7387  1.1762  1.5786
    8CHTO  C120 2978   7.357   9.164   1.406  0.4644  0.2077 -0.7240
    8CHTO  H224 2979   7.335   9.113   1.310  1.8411 -1.0333 -0.3975
    8CHTO   N21 2980   7.502   9.208   1.403  0.4385  0.2814  0.4698
    8CHTO  H211 2981   7.514   9.230   1.298 -3.3870  1.0452  0.1149
    8CHTO  H212 2982   7.570   9.133   1.440 -0.5381 -0.6699  0.3875
    8CHTO   O75 2983   7.142   8.948   1.625  0.4085  0.0168  0.4224
    8CHTO  C112 2984   7.069   8.805   1.589 -0.1659 -0.9175 -1.3816
    8CHTO  H216 2985   7.143   8.754   1.525  1.1004 -1.3257  0.3675
    8CHTO   O73 2986   6.952   8.840   1.524  0.7725  0.0822  0.3266
    8CHTO  C113 2987   6.863   8.726   1.508  0.6636 -0.3004  0.2907
    8CHTO  H217 2988   6.916   8.637   1.466  2.5965  1.1719 -0.4597
    8CHTO  C124 2989   6.757   8.765   1.410 -0.4945  0.0256 -0.1774
    8CHTO   O83 2990   6.703   8.893   1.435 -0.1427 -0.0092  0.0208
    8CHTO  H204 2991   6.615   8.881   1.465 -0.2243 -1.5351 -0.7798
    8CHTO  C109 2992   6.812   8.685   1.650 -0.6323  0.8688 -0.5466
    8CHTO  H213 2993   6.767   8.775   1.695  0.2918  0.3846  1.4012
    8CHTO  C110 2994   6.935   8.635   1.737  0.1377  1.0586  0.1552
    8CHTO  H214 2995   6.975   8.548   1.684  0.2229  0.9903  0.3316
    8CHTO   O78 2996   6.905   8.586   1.867  0.2861 -0.0409  0.4415
    8CHTO  H200 2997   6.948   8.637   1.932 -0.6912  0.2192  0.8938
    8CHTO  C111 2998   7.044   8.743   1.726 -0.3374 -0.4811 -0.5176
    8CHTO  H215 2999   7.010   8.827   1.789  1.4902  0.8754 -1.2946
    8CHTO   N19 3000   7.173   8.694   1.774  0.0168 -0.4246 -0.0590
    8CHTO  H207 3001   7.153   8.615   1.846 -0.6823  1.7601  2.2293
    8CHTO  H208 3002   7.221   8.776   1.826 -2.2544  0.8974  0.0487
    8CHTO   O74 3003   6.713   8.574   1.647  0.6615  0.2252  0.3558
    8CHTO  C115 3004   6.566   8.591   1.749  0.3034  0.5947 -0.1922
    8CHTO  H219 3005   6.527   8.492   1.775  1.3743  0.1944 -0.0986
    8CHTO   O76 3006   6.598   8.672   1.895  0.1085  0.1998  0.4763
    8CHTO  C122 3007   6.483   8.672   1.985  0.7372 -0.9308  0.3829
    8CHTO  H226 3008   6.518   8.737   2.065  0.5927 -0.5128  0.1080
    8CHTO  C126 3009   6.456   8.540   2.060 -0.2896 -0.3935  0.0629
    8CHTO   O85 3010   6.515   8.422   2.012  0.1496  0.0461 -0.1370
    8CHTO  H206 3011   6.475   8.350   2.056 -0.9211 -0.6915 -2.2694
    8CHTO  C121 3012   6.353   8.717   1.900 -0.4424 -0.0177 -0.5169
    8CHTO  H225 3013   6.285   8.631   1.883  0.3217 -0.9300  0.9682
    8CHTO   O81 3014   6.265   8.801   1.973  0.7560 -0.4200 -0.0135
    8CHTO  H202 3015   6.229   8.752   2.045  1.8830  0.4249  1.1464
    8CHTO  C119 3016   6.385   8.775   1.766 -0.1279  0.5079  0.2792
    8CHTO  H223 3017   6.291   8.803   1.719 -0.3568 -0.8486 -0.0758
    8CHTO  C117 3018   6.447   8.667   1.669 -0.3379 -0.0973  0.1789
    8CHTO  H221 3019   6.500   8.701   1.580 -0.7965 -0.8487 -0.3941
    8CHTO   N20 3020   6.348   8.562   1.619 -0.1705 -0.5969 -0.3637
    8CHTO  H209 3021   6.313   8.506   1.704  0.1110  1.0770  0.8660
    8CHTO  H210 3022   6.261   8.604   1.571 -0.3015 -3.0941 -2.4340
    8CHTO   O80 3023   6.463   8.924   1.770  0.6124  0.7174 -0.2826
    8CHTO  C103 3024   6.363   9.071   1.733  0.6728 -0.5228  0.0449
    8CHTO  H190 3025   6.261   9.033   1.743  0.9863 -1.7972 -1.4585
    8CHTO  C101 3026   6.382   9.193   1.836  0.5328 -0.0707 -0.5045
    8CHTO  H188 3027   6.486   9.215   1.862  0.9188 -0.8055 -1.4186
    8CHTO   O68 3028   6.313   9.151   1.969 -0.0262 -0.2624 -0.2181
    8CHTO  H168 3029   6.350   9.067   1.987  1.8052  0.7854  1.2277
    8CHTO   C99 3030   6.308   9.327   1.775 -0.1225  0.4883  0.0811
    8CHTO  H186 3031   6.198   9.309   1.768  0.2812 -1.6877 -1.2614
    8CHTO   N17 3032   6.333   9.454   1.850 -0.1695  0.0666 -0.2724
    8CHTO  H174 3033   6.283   9.534   1.798  2.2707 -1.2493 -4.8904
    8CHTO  H175 3034   6.437   9.482   1.852 -0.2781  0.5950 -1.5493
    8CHTO   C97 3035   6.364   9.350   1.631  0.5987 -0.7023 -0.4799
    8CHTO  H184 3036   6.473   9.356   1.641  0.3694  0.0290  1.9560
    8CHTO   O64 3037   6.319   9.240   1.548 -0.5182 -0.3365  0.0992
    8CHTO  C104 3038   6.379   9.112   1.576 -0.2566 -0.1261 -1.2207
    8CHTO  H191 3039   6.486   9.123   1.561 -0.2967  0.8046 -0.8584
    8CHTO  C108 3040   6.327   9.006   1.483 -0.0418  0.3543 -0.6009
    8CHTO   O71 3041   6.377   9.020   1.356 -0.6583 -0.1778  0.2123
    8CHTO  H171 3042   6.362   8.939   1.312 -2.8356 -0.0001  0.5878
    8CHTO   O62 3043   6.303   9.456   1.560  0.1222 -0.1953  0.0763
    8CHTO   C91 3044   6.394   9.525   1.473  0.3284  0.4213 -0.0178
    8CHTO  H178 3045   6.480   9.462   1.451  0.7913  1.3234 -0.8328
    8CHTO   C92 3046   6.442   9.663   1.543  0.3209  0.0218 -0.3089
    8CHTO  H179 3047   6.355   9.704   1.596 -0.1088 -2.1214  0.6756
    8CHTO   O66 3048   6.537   9.640   1.654 -0.0504  0.0900 -0.3634
    8CHTO  H166 3049   6.499   9.641   1.740  0.6103 -2.3077  0.0168
    8CHTO   C93 3050   6.514   9.755   1.438  0.0195  0.3306 -0.8957
    8CHTO  H180 3051   6.612   9.712   1.413 -0.1979 -1.7440  1.5809
    8CHTO   N16 3052   6.551   9.896   1.481  0.0293  0.4169  0.3868
    8CHTO  H172 3053   6.462   9.952   1.504 -1.7760 -2.0421 -0.3232
    8CHTO  H173 3054   6.614   9.883   1.568 -0.4647  0.6686  0.7864
    8CHTO   C94 3055   6.434   9.771   1.306 -0.1244  0.1871 -0.2998
    8CHTO  H181 3056   6.335   9.812   1.326 -0.4305 -1.4408  1.7182
    8CHTO   O61 3057   6.409   9.639   1.253 -0.0765 -0.4775  0.2189
    8CHTO   C95 3058   6.333   9.551   1.340 -0.0283 -0.4047  0.7375
    8CHTO  H182 3059   6.237   9.595   1.368  0.0119  1.0528 -1.2531
    8CHTO  C106 3060   6.298   9.417   1.255  0.0259 -0.2542 -0.9410
    8CHTO   O69 3061   6.222   9.455   1.140  0.0022 -0.2787 -0.5443
    8CHTO  H169 3062   6.131   9.461   1.159  0.7071  0.7002  2.8602
    8CHTO   O63 3063   6.506   9.840   1.186 -0.1390  0.2154 -0.1160
    8CHTO   C96 3064   6.437   9.847   1.039 -0.1336  0.1606 -0.9494
    8CHTO  H183 3065   6.360   9.770   1.040  0.0995 -0.0575  0.5663
    8CHTO   C98 3066   6.526   9.814   0.925 -0.1998 -0.5243 -0.8488
    8CHTO  H185 3067   6.605   9.890   0.916 -1.1678  0.8409  1.7159
    8CHTO   O67 3068   6.592   9.688   0.945 -0.3595 -0.6709 -0.4273
    8CHTO  H167 3069   6.677   9.688   0.906 -0.9485 -1.9504 -1.7809
    8CHTO  C102 3070   6.441   9.813   0.791  0.2009 -0.9296  0.3566
    8CHTO  H189 3071   6.363   9.737   0.807 -0.3407 -0.7375 -1.2909
    8CHTO   N18 3072   6.497   9.769   0.659 -0.1467 -0.0637 -0.3945
    8CHTO  H176 3073   6.530   9.667   0.663  0.0764  0.0817  2.9782
    8CHTO  H177 3074   6.579   9.832   0.628  1.5724 -1.5078  1.1176
    8CHTO  C105 3075   6.370   9.954   0.784  0.1337 -0.2449 -0.3630
    8CHTO  H192 3076   6.443  10.035   0.778 -0.2076  0.0104 -1.1948
    8CHTO   O65 3077   6.292   9.971   0.898  0.4778 -0.0923  0.2505
    8CHTO  C100 3078   6.369   9.989   1.016 -0.9213 -0.8348  0.0136
    8CHTO  H187 3079   6.446  10.065   0.996 -1.4798 -0.0274  0.8803
    8CHTO  C107 3080   6.267  10.032   1.129  0.9904 -0.0417  0.5772
    8CHTO   O70 3081   6.332  10.096   1.237 -0.3079  0.3265  0.5482
    8CHTO  H170 3082   6.395  10.037   1.274 -0.8628 -0.0842  0.8292
    8CHTO   O57 3083   6.254   9.948   0.649  0.0414 -0.3168 -0.2054
    8CHTO   C85 3084   6.197  10.070   0.590 -0.0716  0.2918 -0.1650
    8CHTO  H157 3085   6.279  10.127   0.543 -0.6287  0.7219 -0.6222
    8CHTO   C83 3086   6.152  10.168   0.703  0.2292 -0.3153  0.2372
    8CHTO  H155 3087   6.240  10.198   0.760  0.7691 -0.8667 -0.2921
    8CHTO   O56 3088   6.059  10.103   0.790 -0.0532 -0.0608 -0.2808
    8CHTO  H135 3089   6.100  10.066   0.866  0.4364 -0.7729 -0.8828
    8CHTO   C81 3090   6.092  10.298   0.642 -0.4290 -0.6806 -0.8041
    8CHTO  H153 3091   6.170  10.346   0.581 -0.0558  0.7856  0.7780
    8CHTO   N14 3092   6.055  10.401   0.738 -0.5347  0.3994 -0.3855
    8CHTO  H141 3093   6.126  10.481   0.747 -0.8221  0.4818  1.3644
    8CHTO  H142 3094   5.958  10.443   0.725 -1.4483 -2.0046 -1.6977
    8CHTO   C79 3095   5.974  10.265   0.545  0.0417  0.7278 -0.4450
    8CHTO  H151 3096   5.951  10.359   0.495 -0.3140 -0.0999 -1.8622
    8CHTO   O52 3097   6.017  10.168   0.447 -0.3404  0.4514 -0.2982
    8CHTO   C86 3098   6.080  10.042   0.486 -0.3427 -1.0485 -0.0436
    8CHTO  H158 3099   5.997   9.985   0.533 -1.8180 -0.7523 -2.2095
    8CHTO   C90 3100   6.126   9.954   0.361  0.3884  0.0682 -0.0292
    8CHTO   O60 3101   6.016   9.951   0.267  0.4320  0.4074 -0.3351
    8CHTO  H138 3102   5.999  10.039   0.239  0.5170  0.1893 -1.0701
    8CHTO   O50 3103   5.851  10.219   0.607  0.2862 -0.2370  0.2452
    8CHTO   C73 3104   5.718  10.176   0.573 -0.3957  0.1819  0.2122
    8CHTO  H145 3105   5.722  10.143   0.468  0.3746  1.0094 -0.0323
    8CHTO   C74 3106   5.605  10.284   0.584  0.2478 -0.3195 -0.2260
    8CHTO  H146 3107   5.648  10.369   0.529  1.0275 -0.0736  0.7614
    8CHTO   O54 3108   5.488  10.244   0.517  0.0262 -0.7436 -0.3370
    8CHTO  H133 3109   5.482  10.150   0.526  0.7405 -0.9227 -1.6216
    8CHTO   C75 3110   5.581  10.315   0.734 -0.1999 -0.4335 -0.7443
    8CHTO  H147 3111   5.666  10.370   0.776 -0.2123 -2.1534  1.6348
    8CHTO   N13 3112   5.475  10.412   0.760 -0.0628 -0.2357  0.1359
    8CHTO  H139 3113   5.521  10.509   0.760 -0.0176 -0.2293 -1.6668
    8CHTO  H140 3114   5.401  10.411   0.682  2.3325  0.8171 -2.2582
    8CHTO   C76 3115   5.571  10.182   0.825 -0.5781 -0.4371  0.1623
    8CHTO  H148 3116   5.479  10.134   0.793 -0.7994  0.6442 -0.8797
    8CHTO   O49 3117   5.675  10.085   0.796  0.4860 -0.4068 -0.6145
    8CHTO   C77 3118   5.674  10.051   0.657 -0.6838 -0.4568  0.3329
    8CHTO  H149 3119   5.572  10.024   0.631 -0.4191  0.9213 -2.2594
    8CHTO   C88 3120   5.757   9.927   0.645 -0.4254 -0.0406 -0.5827
    8CHTO   O58 3121   5.750   9.875   0.531 -0.0955 -0.5866  0.3015
    8CHTO  H136 3122   5.827   9.822   0.524  0.0960 -0.5950  2.3022
    8CHTO   O51 3123   5.570  10.224   0.978 -0.4504 -0.3063 -0.0572
    8CHTO   C78 3124   5.590  10.122   1.091  0.2944 -0.2839 -0.3020
    8CHTO  H150 3125   5.602  10.025   1.039  0.8452  0.7642 -2.1831
    8CHTO   C80 3126   5.463  10.119   1.174 -0.3952  0.2782 -0.2059
    8CHTO  H152 3127   5.422  10.220   1.196  1.0934  0.4340  2.0485
    8CHTO   O55 3128   5.360  10.056   1.087 -0.4128 -0.0851  0.5724
    8CHTO  H134 3129   5.359  10.113   1.013 -0.2181  1.0592  1.4365
    8CHTO   C84 3130   5.474  10.039   1.316 -0.6898 -0.2659 -0.3506
    8CHTO  H156 3131   5.497   9.935   1.291  1.8417  0.4577 -1.1553
    8CHTO   N15 3132   5.358  10.036   1.390 -0.0393 -0.2734 -0.1158
    8CHTO  H143 3133   5.317   9.938   1.376  3.8851 -1.8183 -1.4043
    8CHTO  H144 3134   5.357  10.060   1.495 -1.0734 -3.8883  0.8020
    8CHTO   C87 3135   5.604  10.080   1.393 -0.4587  0.1364 -0.6662
    8CHTO  H159 3136   5.605  10.180   1.436  0.2210 -0.5596  0.9691
    8CHTO   O53 3137   5.726  10.059   1.286 -0.1338  0.2300 -0.9400
    8CHTO   C82 3138   5.712  10.150   1.174 -0.5628 -0.3837 -0.6693
    8CHTO  H154 3139   5.711  10.251   1.216  1.1198 -1.4190  2.0479
    8CHTO   C89 3140   5.848  10.131   1.107 -0.6708  0.8944 -0.1816
    8CHTO   O59 3141   5.866  10.219   0.998  0.2383 -0.1616 -0.1545
    8CHTO  H137 3142   5.889  10.178   0.917  2.0522  3.0864 -1.4011
    8CHTO   O45 3143   5.640   9.946   1.519  0.3002  0.6004 -0.2358
    8CHTO   C67 3144   5.687   9.821   1.470 -0.1417  1.0685  0.0521
    8CHTO  H124 3145   5.644   9.798   1.373 -0.0808 -0.1036  0.2961
    8CHTO   C65 3146   5.847   9.817   1.463  0.3856  0.0175  0.7609
    8CHTO  H122 3147   5.878   9.914   1.425 -1.0868  0.8068  1.5475
    8CHTO   O44 3148   5.880   9.719   1.360  0.0892  0.3222  0.0818
    8CHTO  H102 3149   5.971   9.699   1.352 -0.1569 -0.1781 -1.6023
    8CHTO   C63 3150   5.913   9.810   1.605  0.1379  0.2044  0.0331
    8CHTO  H120 3151   5.877   9.898   1.659  1.4397  1.6525 -1.3977
    8CHTO   N11 3152   6.061   9.827   1.603 -0.1301 -0.4678 -0.0550
    8CHTO  H108 3153   6.093   9.839   1.705 -1.3523 -0.0434  0.2843
    8CHTO  H109 3154   6.115   9.740   1.570 -0.4209 -0.4777 -0.5055
    8CHTO   C61 3155   5.861   9.679   1.675  0.7088 -0.4148  0.0378
    8CHTO  H118 3156   5.902   9.688   1.777  1.4001 -1.0106 -0.1836
    8CHTO   O40 3157   5.707   9.679   1.689 -0.6404  0.0512  0.4312
    8CHTO   C68 3158   5.631   9.710   1.563  0.6193 -0.4437 -0.5316
    8CHTO  H125 3159   5.534   9.756   1.592  1.1695 -0.4597  1.3856
    8CHTO   C72 3160   5.607   9.579   1.487  0.2467 -0.0860 -0.2655
    8CHTO   O48 3161   5.540   9.588   1.355 -0.3007  0.1316 -0.3815
    8CHTO  H105 3162   5.449   9.567   1.357  0.1660 -2.0861 -1.1126
    8CHTO   O38 3163   5.913   9.566   1.607 -0.3997  0.4116 -0.3115
    8CHTO   C55 3164   5.891   9.432   1.653 -0.2588  0.6869 -0.2516
    8CHTO  H112 3165   5.786   9.407   1.630 -0.9465  1.8238  1.4325
    8CHTO   C56 3166   5.927   9.404   1.804  0.3067 -0.0007 -0.9494
    8CHTO  H113 3167   6.034   9.416   1.824 -0.3700  1.0430  2.3477
    8CHTO   O42 3168   5.880   9.503   1.892  0.3514  0.5752  0.1399
    8CHTO  H100 3169   5.872   9.468   1.978 -1.5310 -0.6939 -0.5246
    8CHTO   C57 3170   5.883   9.258   1.848 -0.3337 -0.2748  0.2057
    8CHTO  H114 3171   5.774   9.266   1.849 -0.5420 -2.7169  0.7644
    8CHTO   N10 3172   5.910   9.214   1.984 -0.9470 -0.0319 -0.4160
    8CHTO  H106 3173   5.908   9.293   2.058  1.1248 -0.6082  0.2804
    8CHTO  H107 3174   5.841   9.138   2.017 -2.4314  1.4961  0.0882
    8CHTO   C58 3175   5.926   9.156   1.744 -0.5801 -0.2766  0.3433
    8CHTO  H115 3176   6.032   9.128   1.765 -0.6759 -0.3749  0.6984
    8CHTO   O37 3177   5.916   9.203   1.610 -0.0763 -0.1818 -0.4873
    8CHTO   C59 3178   5.971   9.333   1.575 -0.5551  0.1322 -0.2061
    8CHTO  H116 3179   6.076   9.338   1.605  0.0646 -0.8981 -2.1214
    8CHTO   C70 3180   5.954   9.363   1.422  0.4587 -0.4517  0.5109
    8CHTO   O46 3181   5.830   9.327   1.363  0.2724  0.3852 -0.4142
    8CHTO  H103 3182   5.762   9.370   1.411  0.1411  1.5193 -1.5764
    8CHTO   O39 3183   5.823   9.015   1.737  0.4957 -0.3600 -0.3109
    8CHTO   C60 3184   5.678   9.035   1.741  0.0292  0.5021 -1.2725
    8CHTO  H117 3185   5.643   9.086   1.831  0.0639 -1.6088 -0.0348
    8CHTO   C62 3186   5.619   9.134   1.639  0.6174 -0.2659 -0.0323
    8CHTO  H119 3187   5.661   9.234   1.662 -1.0956  0.2747  0.8003
    8CHTO   O43 3188   5.675   9.090   1.511 -0.1095  0.6000 -0.4873
    8CHTO  H101 3189   5.616   9.114   1.443 -0.3829 -0.7303 -0.7378
    8CHTO   C66 3190   5.460   9.141   1.656 -0.4075 -0.4522 -0.4923
    8CHTO  H123 3191   5.443   9.195   1.749  0.4964  0.2960 -0.7572
    8CHTO   N12 3192   5.406   9.240   1.566  0.3899 -0.0742 -0.8336
    8CHTO  H110 3193   5.304   9.217   1.539  0.0250  1.3032 -0.6837
    8CHTO  H111 3194   5.466   9.235   1.476  3.7721 -0.4535  1.3801
    8CHTO   C69 3195   5.395   9.003   1.639  0.0974 -0.5648  0.0869
    8CHTO  H126 3196   5.402   8.947   1.543 -1.8976 -1.3842  0.3745
    8CHTO   O41 3197   5.451   8.913   1.736 -0.5342 -0.8030 -0.3418
    8CHTO   C64 3198   5.609   8.897   1.742 -0.2022  0.0998 -0.4000
    8CHTO  H121 3199   5.653   8.847   1.653 -0.3958 -0.6389 -0.0794
    8CHTO   C71 3200   5.668   8.813   1.856  0.1808  0.2945 -0.4684
    8CHTO   O47 3201   5.645   8.861   1.984 -0.1355 -0.3249  0.0745
    8CHTO  H104 3202   5.560   8.829   2.008  0.4501 -1.9628  0.0219
    8CHTO   O34 3203   5.248   9.009   1.669  0.7769  0.2389  0.2908
    8CHTO   C49 3204   5.122   9.040   1.766 -0.7687  0.1998  0.5329
    8CHTO   H91 3205   5.120   8.968   1.848 -0.0921  0.0957  0.4620
    8CHTO   C47 3206   4.994   9.027   1.677 -0.4424  0.0788  0.1385
    8CHTO   H89 3207   4.908   9.052   1.741 -1.2000 -1.6026 -0.1841
    8CHTO   O33 3208   4.989   8.885   1.647  0.1741 -0.1937  1.0930
    8CHTO   H70 3209   5.057   8.860   1.587 -0.1043  3.0720 -0.6656
    8CHTO   C45 3210   4.996   9.132   1.554 -0.5160 -0.1714  0.7260
    8CHTO   H87 3211   5.089   9.115   1.499 -0.3566  1.1213  0.5694
    8CHTO    N8 3212   4.889   9.120   1.459  0.4828  0.3302  0.4996
    8CHTO   H75 3213   4.803   9.104   1.522  0.1255  0.1352 -0.0328
    8CHTO   H76 3214   4.900   9.032   1.398 -0.5891  2.1731 -2.4447
    8CHTO   C43 3215   5.016   9.276   1.618  0.7016 -0.0628 -0.1878
    8CHTO   H85 3216   5.028   9.346   1.535  0.0268  0.9907  0.5900
    8CHTO   O29 3217   5.123   9.280   1.711 -0.1742  0.6127  0.6169
    8CHTO   C50 3218   5.132   9.186   1.818  1.0828  0.3366  0.1665
    8CHTO   H92 3219   5.235   9.192   1.857  1.2360  0.9669 -0.3308
    8CHTO   C54 3220   5.039   9.220   1.945 -0.1820  0.2850  0.1159
    8CHTO   O36 3221   5.045   9.130   2.055  0.0884 -0.0779  0.2693
    8CHTO   H72 3222   5.048   9.038   2.034  1.9672 -0.0120  0.1336
    8CHTO   O27 3223   4.903   9.334   1.690 -0.5090  0.1621 -0.1534
    8CHTO   C37 3224   4.855   9.467   1.718 -0.6333  1.1025  0.1436
    8CHTO   H79 3225   4.803   9.461   1.814 -1.5926  2.8651 -0.2542
    8CHTO   C38 3226   4.977   9.574   1.743 -0.0810  0.1632 -0.0332
    8CHTO   H80 3227   5.055   9.561   1.667  0.3004  0.9200  0.2166
    8CHTO   O31 3228   5.032   9.546   1.869 -0.3744  0.3182  0.2276
    8CHTO   H68 3229   4.974   9.490   1.918 -1.0238  0.8608  0.0696
    8CHTO   C39 3230   4.939   9.726   1.744  0.3952  0.3396  0.0461
    8CHTO   H81 3231   4.881   9.745   1.834 -0.6925 -2.1428 -0.1032
    8CHTO    N7 3232   5.056   9.826   1.740  0.5237 -0.6589  0.2495
    8CHTO   H73 3233   5.015   9.923   1.765  0.4815 -0.2528 -1.2963
    8CHTO   H74 3234   5.135   9.801   1.808 -1.2801  0.0201  2.6718
    8CHTO   C40 3235   4.834   9.745   1.625 -0.3937 -0.7856 -0.3059
    8CHTO   H82 3236   4.877   9.741   1.525 -0.8555 -1.4664 -0.4777
    8CHTO   O26 3237   4.725   9.652   1.643 -0.0264 -0.0543  0.3263
    8CHTO   C41 3238   4.754   9.516   1.614 -0.6802  1.0441  0.4510
    8CHTO   H83 3239   4.807   9.515   1.518 -0.5641 -1.0752  0.5212
    8CHTO   C52 3240   4.617   9.445   1.601 -0.0617 -0.2285 -0.5235
    8CHTO   O35 3241   4.630   9.320   1.550 -0.1297  0.0036  0.2623
    8CHTO   H71 3242   4.701   9.276   1.593 -0.4844 -1.0617 -0.2398
    8CHTO   O28 3243   4.774   9.880   1.637 -0.2439 -0.1909 -0.7977
    8CHTO   C42 3244   4.722   9.952   1.519 -0.0045 -0.9877 -0.3359
    8CHTO   H84 3245   4.676  10.038   1.567  1.7187 -0.3000  0.1367
    8CHTO   C44 3246   4.606   9.890   1.429 -0.5058  0.2862 -0.7703
    8CHTO   H86 3247   4.636   9.792   1.391  1.9234  0.4867  0.5755
    8CHTO   O32 3248   4.496   9.873   1.517 -0.1547  0.1488  0.2040
    8CHTO   H69 3249   4.441   9.807   1.479  0.4223  1.1150 -2.4216
    8CHTO   C48 3250   4.559   9.976   1.304 -0.3111  0.4336  0.1126
    8CHTO   H90 3251   4.519  10.070   1.342  3.2152  2.5006 -1.0589
    8CHTO    N9 3252   4.455   9.916   1.213  0.1369  0.3517 -0.3477
    8CHTO   H77 3253   4.403   9.988   1.151  0.0440  0.3224 -0.3042
    8CHTO   H78 3254   4.497   9.832   1.161  1.4047  0.4606  0.4703
    8CHTO   C51 3255   4.689  10.025   1.222  0.1606  0.2698  0.2547
    8CHTO   H93 3256   4.737   9.945   1.165 -0.2487  0.8360 -0.8978
    8CHTO   O30 3257   4.773  10.094   1.313  0.0352  0.1192 -0.1154
    8CHTO   C46 3258   4.838  10.007   1.429 -0.4551  0.1626 -0.1164
    8CHTO   H88 3259   4.885   9.926   1.372 -1.1132  0.2170 -0.7406
    8CHTO   C53 3260   4.942  10.100   1.496 -0.1673 -0.2756 -0.1191
    8CHTO   O72 3261   4.885  10.223   1.547 -1.2357  0.7330  0.0287
    8CHTO  H199 3262   4.896  10.224   1.640 -1.0651  2.1795  0.0086
    8CHTO   O22 3263   4.656  10.120   1.118 -0.1315  0.6920  0.2784
    8CHTO   C31 3264   4.751  10.158   1.012  0.2680  0.4858 -0.7392
    8CHTO   H59 3265   4.705  10.247   0.964  0.0125 -0.3536 -2.0974
    8CHTO   C29 3266   4.889  10.208   1.058  0.2659  0.0268  0.2767
    8CHTO   H57 3267   4.930  10.130   1.124 -3.1780 -0.7905  1.5919
    8CHTO   O21 3268   4.872  10.317   1.148 -0.7685  0.1540  0.4954
    8CHTO   H37 3269   4.957  10.355   1.159 -0.1359 -1.2334  0.5715
    8CHTO   C27 3270   4.984  10.234   0.943  1.2570 -0.3411 -0.0063
    8CHTO   H55 3271   4.946  10.324   0.892  1.9356  0.6054  1.1264
    8CHTO    N5 3272   5.124  10.268   0.984  0.4760  0.8103 -0.0670
    8CHTO   H43 3273   5.183  10.313   0.905  2.9542  0.7636  1.6917
    8CHTO   H44 3274   5.177  10.178   1.012 -1.3638 -0.7146 -1.3958
    8CHTO   C25 3275   4.977  10.111   0.841  0.1157  0.4116  0.3705
    8CHTO   H53 3276   5.012  10.028   0.904  1.6815  1.4258  0.8738
    8CHTO   O17 3277   4.854  10.077   0.793 -0.5545 -0.4703  0.0392
    8CHTO   C32 3278   4.758  10.047   0.896 -0.1956 -0.3973 -0.6862
    8CHTO   H60 3279   4.795   9.951   0.932 -2.8788 -1.2487 -0.0989
    8CHTO   C36 3280   4.619  10.016   0.818 -0.2983  0.5043 -0.3977
    8CHTO   O25 3281   4.517   9.966   0.910 -0.2066 -0.1803  0.1141
    8CHTO   H40 3282   4.437   9.957   0.863 -1.0132  0.9864  1.2218
    8CHTO   O15 3283   5.067  10.136   0.724  0.0276 -0.7853  0.0056
    8CHTO   C19 3284   5.087  10.055   0.606 -0.0748  0.5723 -0.7125
    8CHTO   H47 3285   5.003   9.986   0.588  1.9399 -1.8049 -1.2535
    8CHTO   C20 3286   5.096  10.149   0.473  0.2204  0.3474 -0.4485
    8CHTO   H48 3287   5.174  10.227   0.481 -0.6207  1.1734 -0.1091
    8CHTO   O19 3288   4.975  10.223   0.452  0.0947  0.2357  0.4783
    8CHTO   H35 3289   4.958  10.287   0.519 -0.5553  1.3583 -0.7402
    8CHTO   C21 3290   5.126  10.064   0.343 -0.3973 -0.9316  0.3547
    8CHTO   H49 3291   5.037  10.004   0.321 -0.1285 -1.1315 -0.1922
    8CHTO    N4 3292   5.150  10.153   0.221 -0.5872  0.5090 -0.3317
    8CHTO   H41 3293   5.055  10.184   0.182 -1.0354  0.9201  1.0389
    8CHTO   H42 3294   5.204  10.239   0.259 -0.1829 -0.1257  0.5590
    8CHTO   C22 3295   5.252   9.970   0.367 -0.0152  0.5646  0.2889
    8CHTO   H50 3296   5.337  10.034   0.388  0.9288 -0.5848  0.0350
    8CHTO   O14 3297   5.222   9.898   0.487  0.0594 -0.1036 -0.3852
    8CHTO   C23 3298   5.220   9.961   0.613 -0.4108  0.7326  0.0863
    8CHTO   H51 3299   5.312  10.021   0.623 -0.8953  1.4524  0.2458
    8CHTO   C34 3300   5.204   9.860   0.726 -0.3671 -0.1803  0.1507
    8CHTO   O23 3301   5.230   9.914   0.862  0.3055  0.0067 -0.0738
    8CHTO   H38 3302   5.292   9.863   0.910  0.2453  0.0337  0.0309
    8CHTO   O16 3303   5.272   9.883   0.255 -0.3727  0.4611 -0.4239
    8CHTO   C24 3304   5.406   9.791   0.235 -0.1135  0.1761 -0.0077
    8CHTO   H52 3305   5.434   9.736   0.325  0.2085  0.0617 -0.1756
    8CHTO   C26 3306   5.524   9.874   0.186 -0.2669  0.3943 -0.4321
    8CHTO   H54 3307   5.488   9.919   0.091 -1.7957  0.5949  0.2225
    8CHTO   O20 3308   5.558   9.967   0.289  0.0346  0.0636 -0.9528
    8CHTO   H36 3309   5.620  10.029   0.256 -0.8004  1.1013 -0.6035
    8CHTO   C30 3310   5.642   9.786   0.139  0.3491  0.7827 -0.5794
    8CHTO   H58 3311   5.680   9.728   0.224 -0.2426  2.6579  0.9870
    8CHTO    N6 3312   5.754   9.872   0.090  0.1017  0.1194  0.7119
    8CHTO   H45 3313   5.727   9.976   0.092 -0.1576  0.0375  1.6185
    8CHTO   H46 3314   5.843   9.855   0.149  0.4080 -1.0651 -0.0582
    8CHTO   C33 3315   5.593   9.674   0.043  0.2070 -0.1295  0.6875
    8CHTO   H61 3316   5.563   9.715  -0.055  2.4758  0.0549  0.0390
    8CHTO   O18 3317   5.480   9.600   0.100  0.7293 -0.1670 -0.1778
    8CHTO   C28 3318   5.367   9.686   0.120 -0.3407 -0.1490 -0.2185
    8CHTO   H56 3319   5.354   9.743   0.028  1.5670 -0.3492 -0.6248
    8CHTO   C35 3320   5.243   9.602   0.157 -0.4713  0.3521  0.1697
    8CHTO   O24 3321   5.266   9.526   0.278 -0.1322 -0.8064  0.0511
    8CHTO   H39 3322   5.256   9.583   0.352 -1.2354 -1.3195  0.3086
    8CHTO    O9 3323   5.695   9.583   0.004 -0.5478  0.2151 -0.1690
    8CHTO   C13 3324   5.634   9.469  -0.093 -0.3204  0.2506  0.3771
    8CHTO   H26 3325   5.540   9.505  -0.140 -0.2109 -0.9541 -0.8209
    8CHTO   C11 3326   5.613   9.333  -0.005 -0.1356 -0.0911 -1.3890
    8CHTO   H24 3327   5.510   9.330   0.034 -0.2177  1.2359 -1.4655
    8CHTO    O8 3328   5.694   9.342   0.114  0.5028 -0.0604  0.7293
    8CHTO    H3 3329   5.675   9.265   0.165 -1.2064  0.4595  0.8770
    8CHTO    C9 3330   5.648   9.204  -0.083  0.0380  0.2785 -0.0073
    8CHTO   H22 3331   5.586   9.213  -0.174  0.0175  1.1828  0.0907
    8CHTO    N2 3332   5.603   9.069  -0.031  0.4687 -0.4736  0.0593
    8CHTO   H10 3333   5.586   9.072   0.075 -1.9982 -0.8681 -0.2982
    8CHTO   H11 3334   5.512   9.040  -0.083  1.1233  2.0106 -2.5898
    8CHTO    C7 3335   5.804   9.212  -0.120 -0.0992  0.8418 -0.7119
    8CHTO   H20 3336   5.793   9.129  -0.193 -1.0611  0.0024  0.3657
    8CHTO    O4 3337   5.830   9.340  -0.176  0.2258 -0.2074  0.2755
    8CHTO   C14 3338   5.726   9.434  -0.220  0.6089  0.3500 -0.6960
    8CHTO   H27 3339   5.666   9.380  -0.296 -0.3696  2.7629 -1.6744
    8CHTO   C18 3340   5.788   9.553  -0.289  0.1540  0.3622 -0.0057
    8CHTO   O13 3341   5.854   9.526  -0.413 -0.4176  0.8113  0.0674
    8CHTO    H7 3342   5.788   9.512  -0.478  1.0669  1.7843 -1.7037
    8CHTO    O2 3343   5.891   9.186   0.010  0.3286  0.2047 -0.7891
    8CHTO    C1 3344   6.033   9.200   0.007  0.4273  0.0816 -0.5174
    8CHTO   H14 3345   6.049   9.308   0.026 -3.3032  0.4978  0.6247
    8CHTO    C2 3346   6.114   9.152  -0.122 -0.7626 -0.5355 -0.7129
    8CHTO   H15 3347   6.077   9.054  -0.156 -0.3248 -0.7103 -0.6934
    8CHTO    O6 3348   6.087   9.255  -0.218 -0.0705 -1.0318 -0.5190
    8CHTO    H1 3349   6.116   9.239  -0.306  1.8040  1.3325 -0.4057
    8CHTO    C3 3350   6.276   9.146  -0.096  0.2649  0.3229 -0.1126
    8CHTO   H16 3351   6.321   9.247  -0.090 -0.1842  0.6211 -1.7114
    8CHTO    N1 3352   6.347   9.065  -0.203  0.0797 -0.9902 -0.2555
    8CHTO    H8 3353   6.455   9.070  -0.196 -0.0774 -0.3225  2.6008
    8CHTO    H9 3354   6.308   8.964  -0.209 -0.3460 -0.6809 -3.0246
    8CHTO    C4 3355   6.308   9.079   0.045 -0.3166 -0.2786  0.4582
    8CHTO   H17 3356   6.296   8.971   0.035 -0.3568  0.0034 -3.3191
    8CHTO    O1 3357   6.236   9.141   0.153 -0.0415  0.0991  0.2215
    8CHTO    C5 3358   6.097   9.137   0.133  0.8990  0.2264 -0.1496
    8CHTO   H18 3359   6.079   9.029   0.129 -0.0709  0.4079 -0.9305
    8CHTO   C16 3360   6.027   9.193   0.259 -0.3828  0.2674 -0.1382
    8CHTO   O11 3361   6.030   9.110   0.380 -0.2342 -0.1907  0.4923
    8CHTO    H5 3362   5.988   9.027   0.366 -0.7939  0.1488  0.1629
    8CHTO    O3 3363   6.445   9.109   0.073  0.1926  0.4960 -0.3181
    8CHTO    C6 3364   6.496   8.996   0.155 -0.3936 -0.4371  0.1117
    8CHTO   H19 3365   6.425   8.922   0.191  0.9745 -0.9924  1.7183
    8CHTO    C8 3366   6.598   8.916   0.068  0.1202  0.0209 -1.0958
    8CHTO   H21 3367   6.686   8.977   0.050  2.2358 -3.4667 -3.2082
    8CHTO    O7 3368   6.532   8.890  -0.060  0.2895 -0.3494 -0.1792
    8CHTO    H2 3369   6.583   8.838  -0.119 -0.0458 -2.0516  1.0079
    8CHTO   C12 3370   6.650   8.791   0.156  0.2829  0.0633  0.0282
    8CHTO   H25 3371   6.559   8.729   0.169  1.4228 -1.4273  1.0968
    8CHTO    N3 3372   6.748   8.713   0.079  0.0220 -0.6116 -0.7034
    8CHTO   H12 3373   6.726   8.709  -0.027  2.6930  0.2864 -1.3156
    8CHTO   H13 3374   6.753   8.612   0.119 -0.1519 -0.6367 -0.7449
    8CHTO   C15 3375   6.711   8.840   0.294 -0.1066 -0.4320 -0.2705
    8CHTO   H28 3376   6.811   8.883   0.281 -0.8936  1.6380  0.2472
    8CHTO   O10 3377   6.709   8.739   0.397 -0.0877 -0.4519  0.7595
    8CHTO    H4 3378   6.781   8.683   0.379  0.8938  0.0781  2.8849
    8CHTO    O5 3379   6.619   8.930   0.352  0.4387 -0.7239 -0.2512
    8CHTO   C10 3380   6.572   9.044   0.279 -0.3280 -0.1519  0.2878
    8CHTO   H23 3381   6.664   9.101   0.268  1.5652 -3.0203  0.7398
    8CHTO   C17 3382   6.486   9.127   0.374  0.4962  0.5794  0.2551
    8CHTO   O12 3383   6.371   9.045   0.410 -0.3536  0.4130  0.5307
    8CHTO    H6 3384   6.316   9.080   0.477 -1.3715  1.8570 -1.0117
    9CHTO  H203 3385   8.515   3.820   4.185 -0.4804 -0.9330  0.4115
    9CHTO   O82 3386   8.517   3.806   4.093 -0.3757  0.3433  0.2139
    9CHTO  C123 3387   8.504   3.933   4.027  0.5086  0.0831  0.6662
    9CHTO  H227 3388   8.455   4.006   4.092 -0.3865 -0.8927  1.1187
    9CHTO   O77 3389   8.649   3.965   4.009 -0.0468  0.3196  0.0412
    9CHTO  C118 3390   8.686   4.086   3.938 -0.2560  0.5160  0.3623
    9CHTO  H222 3391   8.643   4.179   3.975  1.2670  1.5232 -0.3535
    9CHTO  C125 3392   8.840   4.091   3.957  0.0352  0.8748  0.7133
    9CHTO   O84 3393   8.882   4.224   3.929 -0.3064 -0.0291  0.1565
    9CHTO  H205 3394   8.857   4.251   3.843 -0.6048 -1.2687 -0.1441
    9CHTO  C114 3395   8.636   4.066   3.795  0.7164 -0.3964 -0.0569
    9CHTO  H218 3396   8.678   3.970   3.763 -0.3633 -0.6044 -0.8583
    9CHTO  C116 3397   8.479   4.042   3.799  0.0173 -0.3246  0.3943
    9CHTO  H220 3398   8.431   4.135   3.833  2.0520  0.6700  0.5953
    9CHTO   O79 3399   8.436   4.038   3.657  0.6253  0.9257 -0.1590
    9CHTO  H201 3400   8.343   4.052   3.650  0.5972  0.9231  0.2304
    9CHTO  C120 3401   8.435   3.919   3.886  0.3985 -0.1387  0.2808
    9CHTO  H224 3402   8.469   3.834   3.823 -1.3024  0.0645 -0.9515
    9CHTO   N21 3403   8.287   3.909   3.899 -0.2651  0.1236 -0.4634
    9CHTO  H211 3404   8.224   3.936   3.816 -1.9932  1.0059  1.0918
    9CHTO  H212 3405   8.262   3.972   3.983  0.7135  0.7855 -0.6609
    9CHTO   O75 3406   8.688   4.173   3.724  0.0597 -0.0304 -0.5200
    9CHTO  C112 3407   8.733   4.134   3.570 -0.2491 -0.2267 -0.1822
    9CHTO  H216 3408   8.643   4.099   3.519 -1.2753  1.1380  0.6507
    9CHTO   O73 3409   8.835   4.031   3.577  0.1472  0.0526 -0.1870
    9CHTO  C113 3410   8.879   3.975   3.450 -0.5217  0.0983  0.1964
    9CHTO  H217 3411   8.790   3.933   3.398 -0.2472 -1.3546  0.8740
    9CHTO  C124 3412   8.969   3.854   3.463 -0.0560 -0.3984  0.3622
    9CHTO   O83 3413   8.906   3.746   3.527 -0.0294 -0.1664  0.0306
    9CHTO  H204 3414   8.969   3.679   3.507  3.6998  2.7752  1.3068
    9CHTO  C109 3415   8.935   4.083   3.355 -0.0230  0.1936 -0.1064
    9CHTO  H213 3416   9.034   4.106   3.398 -0.5705 -1.0882  1.9482
    9CHTO  C110 3417   8.846   4.212   3.351  0.5473 -0.7054 -0.0834
    9CHTO  H214 3418   8.757   4.190   3.290  0.0061 -1.8113  1.0758
    9CHTO   O78 3419   8.909   4.313   3.273  0.2906 -0.4973  0.3330
    9CHTO  H200 3420   8.873   4.396   3.298 -0.2039 -0.0826 -1.6163
    9CHTO  C111 3421   8.805   4.258   3.498  0.4558 -0.1892 -0.4643
    9CHTO  H215 3422   8.896   4.282   3.555  1.2978 -0.3429 -1.7308
    9CHTO   N19 3423   8.722   4.380   3.497 -0.3716 -0.3667  0.2101
    9CHTO  H207 3424   8.659   4.389   3.584 -1.1443 -0.1760 -0.3677
    9CHTO  H208 3425   8.664   4.389   3.407  0.8238  0.9284 -0.4336
    9CHTO   O74 3426   8.948   4.024   3.225 -0.4287 -0.1593 -0.0009
    9CHTO  C115 3427   9.111   4.016   3.160 -0.5651  0.0277  0.0432
    9CHTO  H219 3428   9.187   4.018   3.238  0.8260 -1.6762 -1.2239
    9CHTO   O76 3429   9.140   3.877   3.081  0.7725 -0.5964  0.1528
    9CHTO  C122 3430   9.280   3.857   3.048  0.0559 -0.0100  0.1576
    9CHTO  H226 3431   9.293   3.790   2.963  2.3931 -0.3463  0.7469
    9CHTO  C126 3432   9.339   3.783   3.172  0.1973  0.1380 -0.3364
    9CHTO   O85 3433   9.482   3.762   3.138 -0.1575 -0.5303 -0.3307
    9CHTO  H206 3434   9.531   3.723   3.207  0.5423 -1.4803 -1.3435
    9CHTO  C121 3435   9.351   3.988   3.008 -0.1695 -0.5780  0.2504
    9CHTO  H225 3436   9.388   4.029   3.104 -0.1493 -0.6544  0.2750
    9CHTO   O81 3437   9.455   3.962   2.919 -0.3881  0.1016  0.3980
    9CHTO  H202 3438   9.527   3.914   2.955 -0.4538 -1.5862 -1.6406
    9CHTO  C119 3439   9.246   4.085   2.951 -0.2411 -0.1785  0.7725
    9CHTO  H223 3440   9.300   4.171   2.910  0.3965 -0.9038  0.0779
    9CHTO  C117 3441   9.146   4.134   3.062 -0.4387 -0.8585  0.6873
    9CHTO  H221 3442   9.048   4.167   3.028  0.3439  0.2331 -0.5311
    9CHTO   N20 3443   9.196   4.255   3.134 -0.0783  0.2032 -0.2711
    9CHTO  H209 3444   9.121   4.311   3.187  0.5610  1.3666 -0.5860
    9CHTO  H210 3445   9.263   4.316   3.076  0.9974 -0.4661  0.2431
    9CHTO   O80 3446   9.179   4.021   2.816  0.0644 -0.4270 -0.0918
    9CHTO  C103 3447   9.079   4.101   2.736  0.2717  0.0950 -0.3718
    9CHTO  H190 3448   8.990   4.117   2.797 -0.1082 -0.8927 -0.6558
    9CHTO  C101 3449   9.123   4.238   2.674 -0.1432 -0.0127  0.3128
    9CHTO  H188 3450   9.210   4.218   2.611  0.2071 -0.6809  1.0110
    9CHTO   O68 3451   9.170   4.355   2.800 -0.3678 -0.1090 -0.4857
    9CHTO  H168 3452   9.261   4.370   2.815 -0.4738 -0.3686  0.4465
    9CHTO   C99 3453   9.002   4.289   2.596  0.0573 -0.0651  0.5836
    9CHTO  H186 3454   8.921   4.311   2.668  0.0874 -1.7696  1.1475
    9CHTO   N17 3455   9.029   4.423   2.537  0.6147 -0.2081  0.0114
    9CHTO  H174 3456   9.048   4.413   2.431 -1.3855  0.6533 -0.4533
    9CHTO  H175 3457   8.954   4.494   2.569  2.0380  2.2822 -2.0096
    9CHTO   C97 3458   8.944   4.194   2.489 -0.3024  1.2063  0.4843
    9CHTO  H184 3459   9.014   4.189   2.405 -1.0654  1.3158 -0.1650
    9CHTO   O64 3460   8.918   4.063   2.545  0.3487  0.0260  0.5803
    9CHTO  C104 3461   9.034   4.007   2.616  0.0250  0.4164 -0.0147
    9CHTO  H191 3462   9.113   4.006   2.541  0.5600 -0.5510  0.5594
    9CHTO  C108 3463   8.995   3.860   2.654 -0.6024 -0.0144 -0.5327
    9CHTO   O71 3464   9.105   3.794   2.711 -0.0127 -0.7441 -0.1716
    9CHTO  H171 3465   9.073   3.714   2.748 -0.6118 -0.8161 -0.8363
    9CHTO   O62 3466   8.812   4.233   2.439  0.4959 -0.3693  0.4441
    9CHTO   C91 3467   8.765   4.190   2.311 -0.6028 -0.5533  0.2766
    9CHTO  H178 3468   8.818   4.096   2.293 -1.7037 -1.5869  2.3842
    9CHTO   C92 3469   8.799   4.301   2.200  0.0175  0.4023  0.5513
    9CHTO  H179 3470   8.905   4.328   2.212 -0.4448  2.9271 -0.7935
    9CHTO   O66 3471   8.798   4.222   2.079  0.6066  0.3170  0.0547
    9CHTO  H166 3472   8.788   4.276   2.003 -2.5637 -0.5375 -0.1881
    9CHTO   C93 3473   8.697   4.424   2.202  0.4523  0.5984  0.2256
    9CHTO  H180 3474   8.692   4.471   2.102 -0.5424 -0.3937 -0.1928
    9CHTO   N16 3475   8.748   4.527   2.289 -0.4351  0.2380  0.4899
    9CHTO  H172 3476   8.838   4.565   2.243 -1.0310  0.3160 -0.6308
    9CHTO  H173 3477   8.680   4.610   2.283  1.0431  1.3335 -2.0597
    9CHTO   C94 3478   8.552   4.374   2.242 -0.5548  0.1172  0.0434
    9CHTO  H181 3479   8.521   4.401   2.343 -1.8166 -3.5074  0.7085
    9CHTO   O61 3480   8.540   4.235   2.217  0.1079  0.0790  0.6119
    9CHTO   C95 3481   8.609   4.141   2.300 -0.3451 -0.9981 -0.0785
    9CHTO  H182 3482   8.567   4.148   2.400 -1.0408  1.9642 -0.5423
    9CHTO  C106 3483   8.588   3.996   2.252 -0.1410 -0.3205 -0.1906
    9CHTO   O69 3484   8.634   3.893   2.339 -0.6218  0.3494  0.6682
    9CHTO  H169 3485   8.724   3.904   2.362  0.0096 -0.0230 -1.4914
    9CHTO   O63 3486   8.440   4.442   2.150  0.5891  0.1273  0.2344
    9CHTO   C96 3487   8.294   4.430   2.211 -0.0736 -0.0425 -0.3882
    9CHTO  H183 3488   8.297   4.388   2.312 -4.9224 -0.7153 -0.3861
    9CHTO   C98 3489   8.203   4.349   2.120  0.6434  0.0853 -0.0790
    9CHTO  H185 3490   8.228   4.371   2.015 -1.3329  2.9180 -0.0083
    9CHTO   O67 3491   8.237   4.212   2.141 -0.2900  0.0625  0.4301
    9CHTO  H167 3492   8.178   4.152   2.099 -0.9485  0.0261  1.3956
    9CHTO  C102 3493   8.047   4.374   2.155 -0.1989  0.3161  0.4564
    9CHTO  H189 3494   8.026   4.319   2.248 -0.4540  1.1817  0.9238
    9CHTO   N18 3495   7.952   4.313   2.058 -0.0264 -0.5328  0.5908
    9CHTO  H176 3496   7.856   4.306   2.109  0.2031 -0.4852  1.0348
    9CHTO  H177 3497   7.941   4.353   1.958 -2.2943 -2.0940  0.1865
    9CHTO  C105 3498   8.001   4.515   2.204 -0.5976 -0.4843  0.7424
    9CHTO  H192 3499   7.996   4.583   2.120  1.9132 -0.8771  0.2146
    9CHTO   O65 3500   8.102   4.568   2.286  0.0539  0.1702 -0.2700
    9CHTO  C100 3501   8.233   4.573   2.227  0.2595 -0.1762  0.0500
    9CHTO  H187 3502   8.221   4.621   2.129 -0.2948 -2.1374 -0.8630
    9CHTO  C107 3503   8.325   4.657   2.314 -0.2795  0.1272 -0.5538
    9CHTO   O70 3504   8.268   4.781   2.343 -0.5588  0.2958 -0.0335
    9CHTO  H170 3505   8.271   4.839   2.270  2.8563 -0.4027 -0.5683
    9CHTO   O57 3506   7.864   4.504   2.288 -0.0519  0.1280  0.1458
    9CHTO   C85 3507   7.768   4.605   2.258  0.0040 -0.0537  0.1746
    9CHTO  H157 3508   7.758   4.598   2.148 -2.8185  0.2712  0.3778
    9CHTO   C83 3509   7.818   4.749   2.290  0.1397  0.0935 -0.5191
    9CHTO  H155 3510   7.899   4.777   2.223  1.7087 -1.6955  0.5507
    9CHTO   O56 3511   7.876   4.751   2.426  0.2906  0.1324 -0.0192
    9CHTO  H135 3512   7.811   4.744   2.493  0.4018 -0.2535  0.0455
    9CHTO   C81 3513   7.706   4.858   2.274  0.1018  0.0510  0.0062
    9CHTO  H153 3514   7.668   4.855   2.172  0.5480  1.2857 -0.2085
    9CHTO   N14 3515   7.752   4.998   2.294  0.1438  0.5357 -0.4915
    9CHTO  H141 3516   7.719   5.044   2.385 -0.4003 -0.7714 -0.0192
    9CHTO  H142 3517   7.744   5.071   2.217 -0.4096  1.1074  0.1069
    9CHTO   C79 3518   7.580   4.826   2.370 -0.1185  0.4727 -0.3393
    9CHTO  H151 3519   7.500   4.896   2.346  0.1547  0.4690 -1.2855
    9CHTO   O52 3520   7.524   4.696   2.334 -0.2105 -0.6292 -0.2484
    9CHTO   C86 3521   7.623   4.585   2.332  0.5309  0.5891  0.3310
    9CHTO  H158 3522   7.644   4.559   2.438  1.8675  1.6173  0.3348
    9CHTO   C90 3523   7.545   4.469   2.274  0.1623 -0.7777  0.3753
    9CHTO   O60 3524   7.410   4.457   2.327  0.1021 -0.1868 -0.4429
    9CHTO  H138 3525   7.378   4.376   2.292  0.4170 -0.6027  0.2376
    9CHTO   O50 3526   7.604   4.833   2.515  0.3056  0.3657  0.3269
    9CHTO   C73 3527   7.579   4.898   2.642  0.5016  0.4270  0.9532
    9CHTO  H145 3528   7.470   4.916   2.650  0.1667 -1.6676  1.4056
    9CHTO   C74 3529   7.644   5.037   2.663  0.2493 -0.6140  0.3973
    9CHTO  H146 3530   7.615   5.103   2.579 -0.9281 -0.8188  0.6251
    9CHTO   O54 3531   7.582   5.102   2.770 -0.0639  0.1694  0.0304
    9CHTO  H133 3532   7.641   5.132   2.836  0.9333 -1.4191 -0.1358
    9CHTO   C75 3533   7.798   5.017   2.669  0.1779  0.4587 -0.0897
    9CHTO  H147 3534   7.824   4.986   2.567  0.3522 -0.8915  0.3550
    9CHTO   N13 3535   7.865   5.147   2.687  0.3586 -0.0402  0.1803
    9CHTO  H139 3536   7.830   5.203   2.773  3.0385  0.5665  0.9404
    9CHTO  H140 3537   7.862   5.206   2.597  0.5781 -0.8514 -0.3659
    9CHTO   C76 3538   7.840   4.890   2.766  0.6896 -0.6362 -0.2042
    9CHTO  H148 3539   7.829   4.929   2.867 -0.2898 -0.3318 -0.4180
    9CHTO   O49 3540   7.760   4.771   2.762  0.4441  0.2026  0.1523
    9CHTO   C77 3541   7.620   4.803   2.761  0.2298  0.1376  0.1797
    9CHTO  H149 3542   7.603   4.851   2.857  0.3799 -0.6356  0.5958
    9CHTO   C88 3543   7.534   4.672   2.756  0.0058  0.3389 -0.5424
    9CHTO   O58 3544   7.536   4.594   2.897 -0.0712  0.4015  0.1709
    9CHTO  H136 3545   7.620   4.552   2.895  0.3364  1.1577  0.8156
    9CHTO   O51 3546   7.987   4.857   2.722  0.2424  0.0702  0.0383
    9CHTO   C78 3547   8.052   4.760   2.832  0.1604 -1.0022 -0.0550
    9CHTO  H150 3548   7.970   4.690   2.857  0.2029 -0.5387  1.4047
    9CHTO   C80 3549   8.103   4.852   2.950 -0.2314 -0.0801  0.0357
    9CHTO  H152 3550   8.146   4.945   2.907 -0.7372  0.4387  0.6460
    9CHTO   O55 3551   7.995   4.903   3.035  0.2270 -0.1024  0.3292
    9CHTO  H134 3552   7.943   4.826   3.052  0.0447 -0.0785 -0.1218
    9CHTO   C84 3553   8.212   4.781   3.038 -0.0890  0.4677 -0.2525
    9CHTO  H156 3554   8.160   4.704   3.095 -2.7126  2.9031  0.7425
    9CHTO   N15 3555   8.280   4.877   3.127 -0.4176 -0.0436  0.1999
    9CHTO  H143 3556   8.342   4.939   3.067 -2.3207 -0.5816 -2.4048
    9CHTO  H144 3557   8.202   4.937   3.169 -0.6391 -0.3231  0.1886
    9CHTO   C87 3558   8.315   4.694   2.960  0.2793 -0.1466 -0.1648
    9CHTO  H159 3559   8.393   4.752   2.910 -0.5707  1.8916  0.8052
    9CHTO   O53 3560   8.240   4.605   2.867 -0.6592  0.2523 -0.3236
    9CHTO   C82 3561   8.163   4.681   2.768 -0.0924  0.3650 -0.0975
    9CHTO  H154 3562   8.231   4.748   2.715  1.0167  1.0785  2.1454
    9CHTO   C89 3563   8.099   4.593   2.661 -0.1999  0.3681 -0.2105
    9CHTO   O59 3564   8.206   4.508   2.592  0.0700 -0.3218  0.2616
    9CHTO  H137 3565   8.206   4.425   2.635 -1.9227 -0.1204  0.7045
    9CHTO   O45 3566   8.391   4.604   3.055  0.1973  0.5263 -0.2278
    9CHTO   C67 3567   8.495   4.518   3.010  0.5546 -0.3333 -0.4343
    9CHTO  H124 3568   8.445   4.457   2.935  0.1197 -2.2162  1.3516
    9CHTO   C65 3569   8.614   4.595   2.943  0.4199 -0.2408 -0.2297
    9CHTO  H122 3570   8.629   4.685   3.001  2.3687  0.2297 -1.4053
    9CHTO   O44 3571   8.566   4.622   2.810  0.4312 -0.5524  0.2420
    9CHTO  H102 3572   8.522   4.704   2.803 -2.5526 -2.1996 -1.2657
    9CHTO   C63 3573   8.755   4.532   2.964 -1.2262  0.5800 -0.0691
    9CHTO  H120 3574   8.807   4.565   3.054  2.6409 -2.4881 -1.0343
    9CHTO   N11 3575   8.858   4.587   2.874  0.3955  0.3666 -0.0260
    9CHTO  H108 3576   8.869   4.693   2.882 -1.1426  0.5434 -0.1127
    9CHTO  H109 3577   8.950   4.541   2.906 -0.0450 -0.7241 -0.3124
    9CHTO   C61 3578   8.742   4.371   2.980 -0.2292 -0.6444 -0.1229
    9CHTO  H118 3579   8.841   4.331   3.006 -0.7707 -1.7394  0.3024
    9CHTO   O40 3580   8.648   4.329   3.076 -0.6721  0.2959 -0.6731
    9CHTO   C68 3581   8.549   4.424   3.119  1.1452  0.3681  0.4387
    9CHTO  H125 3582   8.586   4.483   3.206  2.2975  1.3790 -0.7329
    9CHTO   C72 3583   8.427   4.342   3.174  0.5971  0.1362  0.8569
    9CHTO   O48 3584   8.456   4.289   3.304 -0.2966  0.5491 -0.4196
    9CHTO  H105 3585   8.399   4.320   3.372 -1.4264 -0.1147 -1.0534
    9CHTO   O38 3586   8.708   4.302   2.859 -0.4622 -0.2168  0.4781
    9CHTO   C55 3587   8.636   4.174   2.847 -0.0479 -0.2180  0.4990
    9CHTO  H112 3588   8.540   4.199   2.896 -0.1948  0.6202 -0.2151
    9CHTO   C56 3589   8.690   4.047   2.909  0.2333 -0.3409  0.4374
    9CHTO  H113 3590   8.792   4.035   2.868  0.7567 -0.2524  1.6927
    9CHTO   O42 3591   8.714   4.057   3.049  0.4864 -0.1997  0.0681
    9CHTO  H100 3592   8.630   4.080   3.084  0.4932  1.8972 -1.1510
    9CHTO   C57 3593   8.602   3.916   2.872  0.4246  0.1496 -0.2526
    9CHTO  H114 3594   8.516   3.909   2.939 -0.8514  0.2723 -1.8528
    9CHTO   N10 3595   8.671   3.785   2.895  0.9629 -0.3709  0.0468
    9CHTO  H106 3596   8.768   3.785   2.848 -0.4132 -1.4012 -2.9165
    9CHTO  H107 3597   8.684   3.788   3.002  0.2769  0.0906  0.1236
    9CHTO   C58 3598   8.553   3.922   2.728 -0.4551 -0.2708 -0.4606
    9CHTO  H115 3599   8.640   3.903   2.660 -0.6868 -0.2678 -0.7615
    9CHTO   O37 3600   8.509   4.047   2.687 -0.3965 -0.2929  0.0923
    9CHTO   C59 3601   8.599   4.155   2.697 -0.0875 -0.3612  0.1830
    9CHTO  H116 3602   8.693   4.130   2.647 -0.0882  1.0917 -0.5758
    9CHTO   C70 3603   8.529   4.277   2.631  0.7996 -0.4549  0.6998
    9CHTO   O46 3604   8.620   4.383   2.609  0.4941  0.1602  0.2859
    9CHTO  H103 3605   8.593   4.436   2.536  1.1838  0.1354  0.0082
    9CHTO   O39 3606   8.406   3.836   2.686 -0.7837 -0.2456 -0.6458
    9CHTO   C60 3607   8.389   3.703   2.722 -0.0537 -0.4688 -0.0509
    9CHTO  H117 3608   8.491   3.667   2.708  1.1065  2.9536 -1.0581
    9CHTO   C62 3609   8.327   3.692   2.863  0.3915 -0.6551 -1.2077
    9CHTO  H119 3610   8.399   3.739   2.933 -1.0513 -2.4955  1.5793
    9CHTO   O43 3611   8.202   3.763   2.874  0.0858 -0.3968  0.0583
    9CHTO  H101 3612   8.148   3.717   2.812 -0.4736 -2.3734  1.9331
    9CHTO   C66 3613   8.307   3.540   2.906 -0.2112 -0.2272  0.3568
    9CHTO  H123 3614   8.405   3.491   2.905 -0.1428 -0.0970  0.6998
    9CHTO   N12 3615   8.252   3.525   3.041 -0.6716 -0.4945  0.6470
    9CHTO  H110 3616   8.323   3.469   3.100 -2.7302 -2.6805  1.1220
    9CHTO  H111 3617   8.150   3.489   3.045 -1.1591  0.7062 -0.4255
    9CHTO   C69 3618   8.230   3.462   2.799  0.4180 -0.0103  0.3424
    9CHTO  H126 3619   8.123   3.491   2.792  1.0826  2.2564 -0.8604
    9CHTO   O41 3620   8.290   3.492   2.648 -0.2790 -0.5361  0.8762
    9CHTO   C64 3621   8.305   3.633   2.621 -0.1205 -0.0664 -0.0194
    9CHTO  H121 3622   8.202   3.673   2.629  0.0482  0.9485 -2.6065
    9CHTO   C71 3623   8.349   3.662   2.480 -0.5634  0.0387 -0.0862
    9CHTO   O47 3624   8.462   3.579   2.444  0.6244  0.3811  0.2855
    9CHTO  H104 3625   8.491   3.599   2.356  0.7561 -1.4286 -0.1182
    9CHTO   O34 3626   8.256   3.300   2.827 -0.2169 -0.3102 -0.4061
    9CHTO   C49 3627   8.321   3.201   2.750  0.1329  0.0374  0.1785
    9CHTO   H91 3628   8.283   3.197   2.648  1.6079  0.8851 -0.4249
    9CHTO   C47 3629   8.313   3.065   2.817 -0.8498 -0.2067 -0.3568
    9CHTO   H89 3630   8.360   3.002   2.739 -0.0374 -0.4374  0.3216
    9CHTO   O33 3631   8.172   3.025   2.832  0.1786  0.0586 -0.5620
    9CHTO   H70 3632   8.126   3.025   2.750 -0.0179 -0.2164 -0.4517
    9CHTO   C45 3633   8.394   3.069   2.958  0.1313 -0.0651 -0.6125
    9CHTO   H87 3634   8.323   3.088   3.039 -2.1576 -1.6726 -2.1846
    9CHTO    N8 3635   8.449   2.934   2.969  0.1902  0.0528 -0.4632
    9CHTO   H75 3636   8.375   2.858   2.989  1.1783 -1.1202 -1.2271
    9CHTO   H76 3637   8.502   2.902   2.881  0.1216 -1.2853 -0.0288
    9CHTO   C43 3638   8.501   3.187   2.971 -0.3628  0.3724  0.3306
    9CHTO   H85 3639   8.444   3.275   3.004 -0.4862 -0.1141  1.4354
    9CHTO   O29 3640   8.556   3.205   2.840  0.3598 -0.6373  0.9469
    9CHTO   C50 3641   8.465   3.244   2.733  0.5776  0.4441 -0.5237
    9CHTO   H92 3642   8.474   3.352   2.748  1.7893  0.0264  2.0496
    9CHTO   C54 3643   8.523   3.204   2.592 -0.4729  0.1793  0.2991
    9CHTO   O36 3644   8.658   3.243   2.566 -0.1591 -0.6931  0.1414
    9CHTO   H72 3645   8.688   3.307   2.628  2.1191 -1.0968 -0.5139
    9CHTO   O27 3646   8.600   3.172   3.070 -0.0175 -0.6381 -0.4059
    9CHTO   C37 3647   8.630   3.240   3.192 -0.1288  1.0158  0.1887
    9CHTO   H79 3648   8.687   3.183   3.267 -1.9268 -0.7307  0.2802
    9CHTO   C38 3649   8.724   3.358   3.147 -0.6217 -0.3010 -0.7436
    9CHTO   H80 3650   8.676   3.405   3.060  1.6449  1.1626 -1.2421
    9CHTO   O31 3651   8.847   3.293   3.113  0.3629  0.4189  0.6441
    9CHTO   H68 3652   8.860   3.292   3.021 -0.0759 -2.2948  0.5631
    9CHTO   C39 3653   8.744   3.460   3.265  0.8842 -0.5352  0.5851
    9CHTO   H81 3654   8.811   3.423   3.342  1.2321 -1.0564  0.0379
    9CHTO    N7 3655   8.816   3.588   3.215  0.9234  0.0794  0.4865
    9CHTO   H73 3656   8.796   3.675   3.275 -0.8907 -1.0761  1.6077
    9CHTO   H74 3657   8.797   3.595   3.109 -0.4701 -0.7202  0.6651
    9CHTO   C40 3658   8.604   3.501   3.331 -0.3971 -0.5369 -0.8454
    9CHTO   H82 3659   8.545   3.547   3.252 -1.0045  2.1619  1.1040
    9CHTO   O26 3660   8.547   3.381   3.376 -0.2809 -0.2111 -0.5589
    9CHTO   C41 3661   8.507   3.297   3.268  0.0443  0.7730  0.1697
    9CHTO   H83 3662   8.438   3.350   3.200 -1.0582  0.1090  0.7627
    9CHTO   C52 3663   8.406   3.198   3.333  0.3177  0.1972 -0.1691
    9CHTO   O35 3664   8.389   3.069   3.273 -0.4963  0.0975 -0.0529
    9CHTO   H71 3665   8.298   3.050   3.270 -0.2764 -1.2628  0.9171
    9CHTO   O28 3666   8.613   3.603   3.433  0.2109  0.1732  0.5019
    9CHTO   C42 3667   8.493   3.663   3.482  0.3747  0.3433 -0.3745
    9CHTO   H84 3668   8.539   3.730   3.555  1.6012 -0.5739 -0.2950
    9CHTO   C44 3669   8.386   3.569   3.563 -0.4419  0.9574  0.8418
    9CHTO   H86 3670   8.361   3.482   3.503 -0.4766 -0.6585  3.1622
    9CHTO   O32 3671   8.450   3.505   3.673  0.0741  0.0110  0.4344
    9CHTO   H69 3672   8.384   3.459   3.721 -0.4825 -0.6024 -0.9100
    9CHTO   C48 3673   8.254   3.654   3.596 -0.0506 -0.0704  0.3152
    9CHTO   H90 3674   8.283   3.730   3.669  0.0524  1.8151 -1.6511
    9CHTO    N9 3675   8.159   3.555   3.653 -0.6693 -0.6355  0.1018
    9CHTO   H77 3676   8.106   3.486   3.589 -1.4168  0.6614 -0.6986
    9CHTO   H78 3677   8.204   3.502   3.736 -0.8705  0.1578  0.7235
    9CHTO   C51 3678   8.200   3.724   3.469 -0.2163  0.3707  0.9371
    9CHTO   H93 3679   8.171   3.647   3.397 -0.6734  1.0937  0.3358
    9CHTO   O30 3680   8.308   3.808   3.422  0.1099 -0.0606  0.0301
    9CHTO   C46 3681   8.427   3.752   3.379  0.6821  0.8684  0.0139
    9CHTO   H88 3682   8.400   3.692   3.292 -0.9973 -0.1528  1.2054
    9CHTO   C53 3683   8.519   3.874   3.344 -0.9233 -0.5593 -0.0914
    9CHTO   O72 3684   8.465   3.946   3.232 -0.4098 -0.3163 -0.1554
    9CHTO  H199 3685   8.475   3.896   3.153  0.0067 -0.5751  0.0620
    9CHTO   O22 3686   8.086   3.808   3.488  0.2644 -0.4000 -0.6835
    9CHTO   C31 3687   8.038   3.920   3.401 -0.1862 -0.0917 -0.1180
    9CHTO   H59 3688   7.927   3.926   3.406 -0.0647  0.5182  2.3447
    9CHTO   C29 3689   8.099   4.048   3.450  0.0072 -0.6913  0.1862
    9CHTO   H57 3690   8.206   4.023   3.445  0.7183  2.1426  0.2250
    9CHTO   O21 3691   8.060   4.070   3.582 -0.3565 -0.4354  0.0354
    9CHTO   H37 3692   8.087   3.996   3.634  0.8755 -0.1279 -0.1547
    9CHTO   C27 3693   8.077   4.177   3.360  0.9180  1.0340  0.4441
    9CHTO   H55 3694   7.968   4.188   3.349  0.6513 -1.0024  0.8528
    9CHTO    N5 3695   8.138   4.300   3.414 -0.1540  0.3201 -0.2224
    9CHTO   H43 3696   8.242   4.275   3.429  0.2020  1.7820 -0.2043
    9CHTO   H44 3697   8.133   4.383   3.345 -3.3037  0.6837  0.3899
    9CHTO   C25 3698   8.114   4.136   3.210 -0.0541 -0.4860 -0.5661
    9CHTO   H53 3699   8.218   4.107   3.189 -0.4330 -1.8081 -0.6596
    9CHTO   O17 3700   8.034   4.020   3.172 -0.4679 -0.1080 -0.5549
    9CHTO   C32 3701   8.070   3.896   3.241 -0.2923  0.3586  0.2346
    9CHTO   H60 3702   8.177   3.881   3.227 -0.0910  0.2813  1.7773
    9CHTO   C36 3703   7.999   3.768   3.177  0.1470  0.5038  0.2359
    9CHTO   O25 3704   7.859   3.771   3.203 -0.6708  0.3451 -0.7258
    9CHTO   H40 3705   7.808   3.788   3.126 -0.4567 -1.0935 -1.1833
    9CHTO   O15 3706   8.085   4.270   3.108 -0.2299  0.4601 -0.0652
    9CHTO   C19 3707   8.058   4.276   2.962 -0.1416  0.2385 -1.1027
    9CHTO   H47 3708   8.106   4.373   2.944  1.6108 -0.1585  1.1277
    9CHTO   C20 3709   8.141   4.176   2.875  0.1182  0.6426  0.7729
    9CHTO   H48 3710   8.128   4.073   2.912  1.8599 -0.7748 -2.3710
    9CHTO   O19 3711   8.281   4.201   2.902  0.5263 -0.1258  0.4777
    9CHTO   H35 3712   8.298   4.173   2.990 -1.0843  0.9963  1.1730
    9CHTO   C21 3713   8.107   4.168   2.723 -0.0851  0.0460 -0.5704
    9CHTO   H49 3714   8.154   4.254   2.677  3.4399 -1.7545 -0.5311
    9CHTO    N4 3715   8.170   4.050   2.654 -0.1009 -0.2656  0.4225
    9CHTO   H41 3716   8.155   3.960   2.712  2.1827 -0.3866  0.8499
    9CHTO   H42 3717   8.128   4.033   2.555 -0.1494  1.7420  0.0807
    9CHTO   C22 3718   7.952   4.181   2.705 -0.3766  0.3684 -0.6336
    9CHTO   H50 3719   7.908   4.095   2.757  2.3106 -0.2736  0.6536
    9CHTO   O14 3720   7.904   4.295   2.779 -0.5160 -0.2842  0.6029
    9CHTO   C23 3721   7.909   4.285   2.920 -0.3681 -0.4407 -0.1831
    9CHTO   H51 3722   7.855   4.198   2.960 -0.2005 -0.4935 -0.0727
    9CHTO   C34 3723   7.837   4.402   2.987  0.0625  0.1588  0.4627
    9CHTO   O23 3724   7.700   4.395   2.964  0.2748  0.0710  0.1035
    9CHTO   H38 3725   7.660   4.477   2.986 -2.5615 -1.1758 -0.2787
    9CHTO   O16 3726   7.911   4.199   2.567 -0.4489 -0.1631 -0.2548
    9CHTO   C24 3727   7.772   4.105   2.541  0.3530  0.0955  0.6815
    9CHTO   H52 3728   7.748   4.039   2.625  2.0299  0.3673  1.3831
    9CHTO   C26 3729   7.807   4.019   2.417  0.4215 -0.4536  0.1799
    9CHTO   H54 3730   7.844   4.087   2.337 -1.1407  1.5073  1.0957
    9CHTO   O20 3731   7.909   3.929   2.460  0.1211  0.3549 -0.0003
    9CHTO   H36 3732   7.872   3.847   2.486  1.3820 -0.3279 -0.3118
    9CHTO   C30 3733   7.679   3.944   2.368 -0.4510 -0.2749  0.1146
    9CHTO   H58 3734   7.650   3.863   2.437 -0.7654  0.0107  0.3165
    9CHTO    N6 3735   7.703   3.872   2.240 -0.4264 -0.1516 -0.6803
    9CHTO   H45 3736   7.788   3.806   2.246 -0.6180 -0.3524 -0.1038
    9CHTO   H46 3737   7.710   3.938   2.155  1.9500 -2.3593 -2.2614
    9CHTO   C33 3738   7.555   4.037   2.355  0.4678  0.0395 -0.0816
    9CHTO   H61 3739   7.571   4.101   2.267 -1.9089 -0.3266 -0.8086
    9CHTO   O18 3740   7.542   4.119   2.474  0.3614 -0.2262 -0.3661
    9CHTO   C28 3741   7.654   4.200   2.510 -0.2777  0.2205 -0.0196
    9CHTO   H56 3742   7.675   4.261   2.422 -1.7610  0.9932  0.1531
    9CHTO   C35 3743   7.615   4.291   2.625 -0.8540  0.1933  0.0918
    9CHTO   O24 3744   7.502   4.374   2.587  0.7060  0.6393 -0.2143
    9CHTO   H39 3745   7.429   4.332   2.546 -0.3757  1.2339  1.0730
    9CHTO    O9 3746   7.434   3.961   2.331  0.2063  0.2452  0.2359
    9CHTO   C13 3747   7.302   4.046   2.287  0.1717  0.2867  0.0195
    9CHTO   H26 3748   7.322   4.107   2.196 -3.0182  2.8080  0.8866
    9CHTO   C11 3749   7.258   4.135   2.404  0.5066 -0.4550  0.7779
    9CHTO   H24 3750   7.341   4.206   2.416  0.2921  0.0864 -0.8621
    9CHTO    O8 3751   7.246   4.066   2.530  0.2584  0.4030 -0.2437
    9CHTO    H3 3752   7.306   4.103   2.591 -0.8257 -0.6995  1.5281
    9CHTO    C9 3753   7.124   4.203   2.355  0.0777 -0.3926 -0.3235
    9CHTO   H22 3754   7.140   4.229   2.249  1.4660 -1.4758 -0.3921
    9CHTO    N2 3755   7.095   4.325   2.435 -0.2888 -0.4085  0.2248
    9CHTO   H10 3756   7.093   4.284   2.535  1.5393 -0.8030  0.1021
    9CHTO   H11 3757   7.174   4.399   2.430 -0.5116 -0.0938  1.1831
    9CHTO    C7 3758   7.017   4.103   2.353  0.1033  1.1512  0.1759
    9CHTO   H20 3759   6.931   4.154   2.304 -1.1461 -0.7874  0.2909
    9CHTO    O4 3760   7.051   3.995   2.264  0.0952 -0.5036 -0.1607
    9CHTO   C14 3761   7.184   3.952   2.249  0.0546  0.2490  0.3933
    9CHTO   H27 3762   7.193   3.935   2.140  3.5893 -1.0042  0.8133
    9CHTO   C18 3763   7.193   3.811   2.312 -0.7246 -0.0505 -0.1154
    9CHTO   O13 3764   7.133   3.813   2.443 -0.6769  0.3133 -0.5917
    9CHTO    H7 3765   7.136   3.730   2.486  1.6032  0.1421 -1.0128
    9CHTO    O2 3766   6.971   4.038   2.510 -0.2812 -0.0170  0.1611
    9CHTO    C1 3767   6.834   4.009   2.531 -0.1418 -1.2249 -0.4721
    9CHTO   H14 3768   6.831   3.938   2.616  0.4004  0.4652  1.0075
    9CHTO    C2 3769   6.751   3.954   2.413 -0.0509  0.2852  0.0451
    9CHTO   H15 3770   6.764   4.013   2.321  0.1136  0.3435  0.1064
    9CHTO    O6 3771   6.798   3.821   2.386 -0.0005  0.0249  0.2965
    9CHTO    H1 3772   6.771   3.777   2.308  1.0342 -0.6703  0.3229
    9CHTO    C3 3773   6.590   3.946   2.455 -0.6027  1.0954 -0.2054
    9CHTO   H16 3774   6.570   3.861   2.522 -2.8968  0.7800 -1.2659
    9CHTO    N1 3775   6.507   3.915   2.335  0.2759 -0.4212 -0.0160
    9CHTO    H8 3776   6.513   3.994   2.261 -2.0805  0.3239  0.5511
    9CHTO    H9 3777   6.405   3.902   2.367  0.8976 -2.0764  1.3643
    9CHTO    C4 3778   6.534   4.073   2.536 -0.4721  0.1467  0.9346
    9CHTO   H17 3779   6.515   4.154   2.466 -2.5882 -2.0065 -1.0811
    9CHTO    O1 3780   6.635   4.111   2.629 -0.2709  0.1328 -0.2161
    9CHTO    C5 3781   6.765   4.139   2.583  0.2938 -0.1558 -0.1113
    9CHTO   H18 3782   6.770   4.206   2.497  0.1545 -0.8367 -0.6495
    9CHTO   C16 3783   6.843   4.203   2.701  0.3748 -0.1517  0.0114
    9CHTO   O11 3784   6.811   4.338   2.727  0.0985  0.5446 -0.1574
    9CHTO    H5 3785   6.864   4.363   2.801  0.5490 -0.4350 -0.1325
    9CHTO    O3 3786   6.419   4.060   2.620  0.4805  0.2854 -0.5669
    9CHTO    C6 3787   6.309   4.143   2.597  0.4863 -0.0137  0.5614
    9CHTO   H19 3788   6.318   4.212   2.513 -1.6584 -0.1644  0.1670
    9CHTO    C8 3789   6.184   4.060   2.577  0.1514  0.2877  0.2218
    9CHTO   H21 3790   6.188   3.979   2.650  1.3896  0.4392  0.3303
    9CHTO    O7 3791   6.185   3.999   2.448  0.3674 -0.1579 -0.3030
    9CHTO    H2 3792   6.178   4.073   2.391  0.3190 -0.5463 -0.7998
    9CHTO   C12 3793   6.047   4.146   2.602 -0.3700  0.2121  0.8239
    9CHTO   H25 3794   6.033   4.211   2.513 -1.1605 -0.1004  0.7148
    9CHTO    N3 3795   5.932   4.045   2.605  0.1943  0.0819  0.1758
    9CHTO   H12 3796   5.882   4.055   2.511  0.5536 -4.3459 -0.6333
    9CHTO   H13 3797   5.860   4.065   2.683  1.8954 -1.1787  2.1293
    9CHTO   C15 3798   6.056   4.233   2.730 -0.7486 -0.2988 -0.2373
    9CHTO   H28 3799   6.052   4.177   2.824 -0.0717  1.4168  0.8393
    9CHTO   O10 3800   5.944   4.334   2.732  0.0953 -0.6983  0.3658
    9CHTO    H4 3801   5.872   4.288   2.771  1.2938 -1.5657  1.6115
    9CHTO    O5 3802   6.173   4.317   2.709 -0.1521 -0.2862  0.1553
    9CHTO   C10 3803   6.292   4.235   2.721  0.6132 -0.5353 -0.7747
    9CHTO   H23 3804   6.279   4.170   2.807  0.7660  0.7809  0.2561
    9CHTO   C17 3805   6.411   4.324   2.737  0.0580  0.0087  0.1215
    9CHTO   O12 3806   6.438   4.365   2.874  0.2470  0.4385 -0.5141
    9CHTO    H6 3807   6.393   4.446   2.890  0.5622  0.0257  2.8667
   10CHTO  H203 3808   5.593   6.702  -0.137 -1.5775  0.6598  0.4090
   10CHTO   O82 3809   5.585   6.680  -0.228 -0.0328  0.5349  0.2842
   10CHTO  C123 3810   5.444   6.675  -0.261  0.1474  0.4758 -0.4190
   10CHTO  H227 3811   5.442   6.676  -0.371  0.6951  2.1498 -0.4265
   10CHTO   O77 3812   5.406   6.548  -0.203 -0.3769 -0.1967 -0.0738
   10CHTO  C118 3813   5.263   6.519  -0.214  0.7043  0.0151 -0.4444
   10CHTO  H222 3814   5.234   6.505  -0.319 -1.3258  0.2416  0.0644
   10CHTO  C125 3815   5.257   6.371  -0.146 -0.0884  0.2188 -0.4045
   10CHTO   O84 3816   5.128   6.312  -0.161 -0.1193  0.0234  0.0770
   10CHTO  H205 3817   5.121   6.232  -0.112  1.8263 -0.2526 -0.0522
   10CHTO  C114 3818   5.175   6.620  -0.143  0.1332 -0.8126  0.1627
   10CHTO  H218 3819   5.200   6.627  -0.037 -1.3729 -2.1919  0.6201
   10CHTO  C116 3820   5.202   6.765  -0.197 -0.5335  0.1044  0.5856
   10CHTO  H220 3821   5.170   6.789  -0.300  2.6118 -0.0188 -0.4693
   10CHTO   O79 3822   5.124   6.850  -0.117 -0.3751  0.1194 -0.2140
   10CHTO  H201 3823   5.164   6.934  -0.130 -1.4371  0.5560 -0.6753
   10CHTO  C120 3824   5.357   6.782  -0.181  0.5826 -0.5904 -0.2521
   10CHTO  H224 3825   5.381   6.777  -0.073  0.0871  0.8944 -0.0690
   10CHTO   N21 3826   5.400   6.917  -0.232 -0.0476 -0.1014 -0.1717
   10CHTO  H211 3827   5.386   6.989  -0.152 -1.3755 -0.2959 -0.2337
   10CHTO  H212 3828   5.501   6.921  -0.272 -0.5125  0.7564 -1.2946
   10CHTO   O75 3829   5.034   6.583  -0.153  0.0174 -0.5870 -0.2433
   10CHTO  C112 3830   4.953   6.588  -0.012 -0.3431 -0.0696  0.1059
   10CHTO  H216 3831   4.992   6.668   0.052 -0.2392  2.0401 -2.5254
   10CHTO   O73 3832   4.970   6.458   0.050  0.2052  0.3023  0.2219
   10CHTO  C113 3833   4.918   6.436   0.181 -0.0951  0.1952 -0.0044
   10CHTO  H217 3834   4.971   6.497   0.257 -1.0502  1.0310  0.0034
   10CHTO  C124 3835   4.941   6.296   0.228  0.2089  0.2450  0.7168
   10CHTO   O83 3836   5.079   6.283   0.256  0.2182  0.5133 -0.7047
   10CHTO  H204 3837   5.124   6.264   0.176  2.0296  0.5084  0.2756
   10CHTO  C109 3838   4.771   6.471   0.192 -0.0699 -0.1593  0.5009
   10CHTO  H213 3839   4.719   6.387   0.143  0.5129  0.4989 -1.2821
   10CHTO  C110 3840   4.734   6.602   0.116  0.8521 -1.1864 -0.0218
   10CHTO  H214 3841   4.771   6.683   0.179 -1.0955 -0.3615  0.0891
   10CHTO   O78 3842   4.590   6.627   0.115 -0.7335 -0.3435  0.2507
   10CHTO  H200 3843   4.548   6.554   0.073 -0.4318 -0.5030  0.2189
   10CHTO  C111 3844   4.797   6.618  -0.028  0.4597 -0.5661 -0.9844
   10CHTO  H215 3845   4.748   6.544  -0.093  2.4899 -4.1013  1.3725
   10CHTO   N19 3846   4.779   6.757  -0.084 -0.2544  0.1819  0.4404
   10CHTO  H207 3847   4.679   6.771  -0.121  0.4665 -0.1232 -1.7093
   10CHTO  H208 3848   4.845   6.773  -0.168  0.4259 -0.0798  0.9149
   10CHTO   O74 3849   4.736   6.473   0.333 -0.1447  0.2300 -0.6656
   10CHTO  C115 3850   4.598   6.454   0.362  0.8736 -0.1835  0.1488
   10CHTO  H219 3851   4.537   6.482   0.277 -0.5292  0.8036  1.4543
   10CHTO   O76 3852   4.563   6.291   0.373  0.3767  0.0798 -0.9201
   10CHTO  C122 3853   4.565   6.244   0.504 -0.3918 -0.6281 -0.2586
   10CHTO  H226 3854   4.672   6.244   0.528 -0.2412 -0.9240 -0.9308
   10CHTO  C126 3855   4.520   6.093   0.501 -0.1087  0.8899  0.0202
   10CHTO   O85 3856   4.534   6.016   0.621  0.0356 -0.3216 -0.6088
   10CHTO  H206 3857   4.485   6.053   0.692 -0.1223  1.0162 -1.4099
   10CHTO  C121 3858   4.476   6.324   0.606  0.6726 -0.8798  0.3837
   10CHTO  H225 3859   4.382   6.265   0.616  0.6443 -1.5464 -3.1812
   10CHTO   O81 3860   4.542   6.345   0.729  0.4861  0.6120  0.6899
   10CHTO  H202 3861   4.485   6.310   0.795 -0.2211  1.3395  0.4843
   10CHTO  C119 3862   4.430   6.462   0.553 -0.7988  0.2415 -0.2043
   10CHTO  H223 3863   4.359   6.440   0.473 -2.1648  1.3241  0.6829
   10CHTO  C117 3864   4.556   6.530   0.493 -0.1380  0.1850  0.3054
   10CHTO  H221 3865   4.644   6.533   0.558  0.2121  1.0713 -0.2026
   10CHTO   N20 3866   4.527   6.671   0.464  0.5727 -0.3061 -0.8716
   10CHTO  H209 3867   4.445   6.693   0.398 -0.7809 -2.0520  0.2069
   10CHTO  H210 3868   4.504   6.718   0.558 -2.5376  0.5435 -1.9977
   10CHTO   O80 3869   4.346   6.553   0.658  0.4857  0.2085 -0.1637
   10CHTO  C103 3870   4.192   6.535   0.683 -0.3510  0.0457  1.5504
   10CHTO  H190 3871   4.161   6.593   0.770 -0.9422  3.0550 -0.5546
   10CHTO  C101 3872   4.106   6.582   0.568 -0.6351  0.5754  0.1346
   10CHTO  H188 3873   4.133   6.525   0.479  0.1779  1.0950  0.0423
   10CHTO   O68 3874   4.148   6.725   0.540 -0.3841 -0.7567 -0.4571
   10CHTO  H168 3875   4.228   6.725   0.490 -0.7624  1.8445 -1.1083
   10CHTO   C99 3876   3.951   6.559   0.591 -0.6132 -0.0529  0.0962
   10CHTO  H186 3877   3.915   6.616   0.680 -1.0991  3.3946 -2.2123
   10CHTO   N17 3878   3.865   6.607   0.472  0.0755  0.2418  0.1221
   10CHTO  H174 3879   3.766   6.573   0.496  0.5224 -1.7782 -0.7628
   10CHTO  H175 3880   3.882   6.713   0.464  2.1090  0.0759  1.8938
   10CHTO   C97 3881   3.931   6.409   0.618 -0.3429 -0.0955 -0.1667
   10CHTO  H184 3882   3.931   6.339   0.534 -1.6603  0.0569 -0.3077
   10CHTO   O64 3883   4.015   6.363   0.724 -0.1991  0.5929 -0.3713
   10CHTO  C104 3884   4.155   6.388   0.703 -0.5091  0.2508 -0.0200
   10CHTO  H191 3885   4.200   6.325   0.625 -2.7670 -0.4695 -0.7634
   10CHTO  C108 3886   4.222   6.341   0.838  0.8640  0.3591 -0.3161
   10CHTO   O71 3887   4.203   6.206   0.879  0.1680  0.4855  0.0682
   10CHTO  H171 3888   4.128   6.196   0.934 -1.0638  0.0649 -1.6643
   10CHTO   O62 3889   3.801   6.383   0.679 -0.2692  0.2300 -0.4563
   10CHTO   C91 3890   3.743   6.255   0.641 -1.1025  0.0544  0.3200
   10CHTO  H178 3891   3.760   6.234   0.536  2.8711  0.8948  0.7053
   10CHTO   C92 3892   3.591   6.261   0.647 -0.1039  0.0079 -0.6141
   10CHTO  H179 3893   3.558   6.345   0.585  0.1911  0.4748 -0.1361
   10CHTO   O66 3894   3.539   6.140   0.585 -0.1410  0.0378  0.1488
   10CHTO  H166 3895   3.448   6.151   0.569 -0.1161  0.4929  0.3342
   10CHTO   C93 3896   3.533   6.267   0.795 -0.1849 -0.1686  0.3373
   10CHTO  H180 3897   3.430   6.230   0.787 -0.6993  1.3593 -0.1243
   10CHTO   N16 3898   3.523   6.403   0.859 -0.4084  0.7708 -0.1686
   10CHTO  H172 3899   3.587   6.429   0.941  0.7926  0.0635 -0.8671
   10CHTO  H173 3900   3.525   6.478   0.782  0.5824  1.1229  0.1985
   10CHTO   C94 3901   3.620   6.174   0.891  0.1953 -0.1160  0.2181
   10CHTO  H181 3902   3.692   6.235   0.945  0.6429  0.8806 -1.4478
   10CHTO   O61 3903   3.695   6.080   0.814  0.3601  0.6656  0.3464
   10CHTO   C95 3904   3.798   6.135   0.724  0.1800  0.0027  0.5729
   10CHTO  H182 3905   3.882   6.171   0.782  0.1264  0.3989  0.4112
   10CHTO  C106 3906   3.867   6.025   0.637  0.1166  0.4331  0.4061
   10CHTO   O69 3907   3.983   6.086   0.573 -0.3545 -0.5154 -0.0936
   10CHTO  H169 3908   4.057   6.029   0.578  0.9993  1.0391 -1.9433
   10CHTO   O63 3909   3.519   6.110   0.996  0.0030 -0.1983 -0.3974
   10CHTO   C96 3910   3.609   6.035   1.118 -0.2669  0.8164 -0.1876
   10CHTO  H183 3911   3.710   6.073   1.102  0.2026  0.5259  1.9701
   10CHTO   C98 3912   3.603   5.884   1.117  0.4207  0.0418  0.2483
   10CHTO  H185 3913   3.498   5.851   1.116  0.0862  0.9491 -3.0312
   10CHTO   O67 3914   3.651   5.841   0.989 -0.0628 -0.7817 -0.3714
   10CHTO  H167 3915   3.630   5.751   0.972 -0.0418 -0.3691 -2.7493
   10CHTO  C102 3916   3.677   5.812   1.236 -0.1990 -0.0013  0.2507
   10CHTO  H189 3917   3.784   5.820   1.212 -0.2934  0.4098 -0.0359
   10CHTO   N18 3918   3.649   5.668   1.263  0.0714 -0.3139  0.6586
   10CHTO  H176 3919   3.542   5.651   1.264 -0.2509  1.5756 -0.8427
   10CHTO  H177 3920   3.704   5.627   1.347  2.6272  0.3843 -0.6311
   10CHTO  C105 3921   3.664   5.896   1.367  0.2610  0.1089  0.4686
   10CHTO  H192 3922   3.575   5.862   1.421 -1.3120  0.5682 -1.7648
   10CHTO   O65 3923   3.645   6.039   1.357  0.2244  0.9172 -0.1169
   10CHTO  C100 3924   3.563   6.092   1.261  0.2283  0.1926  0.4718
   10CHTO  H187 3925   3.465   6.059   1.298 -0.7404  0.8864 -1.3820
   10CHTO  C107 3926   3.586   6.249   1.280 -0.2639 -0.6578 -0.2408
   10CHTO   O70 3927   3.476   6.315   1.224 -0.0600 -0.2167 -0.4830
   10CHTO  H170 3928   3.447   6.277   1.143 -1.2966 -1.0913  0.3606
   10CHTO   O57 3929   3.797   5.875   1.449 -0.4378  0.1086  0.5726
   10CHTO   C85 3930   3.781   5.879   1.590 -0.2168  0.1317  0.3296
   10CHTO  H157 3931   3.678   5.846   1.616 -0.9927  3.0224  1.0935
   10CHTO   C83 3932   3.788   6.026   1.645  0.0749  0.1183  0.6635
   10CHTO  H155 3933   3.710   6.083   1.595 -0.4070 -2.0358 -1.1455
   10CHTO   O56 3934   3.918   6.084   1.609  0.5020 -0.0555 -0.2241
   10CHTO  H135 3935   3.927   6.099   1.517 -1.4596 -0.5739 -0.5206
   10CHTO   C81 3936   3.748   6.017   1.795 -1.0300  0.9056 -0.0148
   10CHTO  H153 3937   3.651   5.969   1.805  0.9920 -3.4129  0.3839
   10CHTO   N14 3938   3.732   6.148   1.860  0.3967 -0.7875 -0.3663
   10CHTO  H141 3939   3.640   6.147   1.916  1.9112  0.1741  2.2411
   10CHTO  H142 3940   3.727   6.228   1.790  2.2763 -1.6843 -1.5340
   10CHTO   C79 3941   3.847   5.926   1.877  0.6797 -0.1445 -0.1793
   10CHTO  H151 3942   3.801   5.906   1.974 -2.1080 -2.1068 -1.8448
   10CHTO   O52 3943   3.861   5.791   1.809 -0.7817  0.5577  0.6559
   10CHTO   C86 3944   3.889   5.797   1.666 -0.1039  0.8551  0.2101
   10CHTO  H158 3945   3.986   5.852   1.660  1.0930 -1.0889  1.3077
   10CHTO   C90 3946   3.913   5.649   1.605  0.4529  0.6501  0.1008
   10CHTO   O60 3947   3.953   5.655   1.470  0.3969 -0.4509  0.0031
   10CHTO  H138 3948   4.030   5.709   1.467  0.8997 -1.1619 -0.0430
   10CHTO   O50 3949   3.973   5.989   1.889  0.2838  0.1236 -0.0555
   10CHTO   C73 3950   4.048   5.959   2.008  0.2401 -0.7126 -0.3056
   10CHTO  H145 3951   4.049   5.852   2.036  2.0811 -0.5932  0.1734
   10CHTO   C74 3952   3.992   6.036   2.129 -0.6565 -0.2717 -0.2190
   10CHTO  H146 3953   3.885   6.017   2.144 -0.5604  0.3005  1.3321
   10CHTO   O54 3954   4.035   5.976   2.249 -0.3722  0.3956 -0.7552
   10CHTO  H133 3955   3.998   6.027   2.318 -1.0702 -0.9334 -0.1308
   10CHTO   C75 3956   4.028   6.193   2.122  0.1208 -0.1185  0.0179
   10CHTO  H147 3957   3.968   6.237   2.041 -0.1807  1.4448  1.0650
   10CHTO   N13 3958   3.984   6.278   2.235 -0.5831 -0.2071 -0.4279
   10CHTO  H139 3959   4.029   6.376   2.231 -2.6416  0.8175  0.6756
   10CHTO  H140 3960   4.010   6.227   2.327 -0.1478 -1.6408 -1.3220
   10CHTO   C76 3961   4.178   6.224   2.080 -0.2172  0.1536 -0.6817
   10CHTO  H148 3962   4.245   6.205   2.164 -2.2791 -0.4052  0.8804
   10CHTO   O49 3963   4.219   6.138   1.962 -0.0168  0.0782  0.6219
   10CHTO   C77 3964   4.199   5.999   1.987  0.3169 -0.0559  0.3038
   10CHTO  H149 3965   4.256   5.958   2.070  0.6863  0.8856  0.5210
   10CHTO   C88 3966   4.251   5.919   1.866 -0.1866 -0.2008  0.0965
   10CHTO   O58 3967   4.236   5.768   1.897 -0.6152 -0.0488 -0.2588
   10CHTO  H136 3968   4.222   5.724   1.816 -0.7608 -0.5828  0.0556
   10CHTO   O51 3969   4.196   6.389   2.037 -0.8694 -0.3102 -0.1759
   10CHTO   C78 3970   4.323   6.461   2.092 -0.0451 -0.0833 -0.2116
   10CHTO  H150 3971   4.420   6.415   2.066  0.6304  1.1727  0.0612
   10CHTO   C80 3972   4.313   6.483   2.247 -0.4655  0.3540  0.1383
   10CHTO  H152 3973   4.212   6.525   2.268  0.5291  2.3833  1.0104
   10CHTO   O55 3974   4.321   6.355   2.310 -0.0733  0.0083  0.2067
   10CHTO  H134 3975   4.284   6.355   2.396 -2.5209  1.2093 -0.7912
   10CHTO   C84 3976   4.430   6.580   2.296  0.4264 -0.4964 -0.2224
   10CHTO  H156 3977   4.524   6.537   2.263  1.6487  2.6740 -1.0318
   10CHTO   N15 3978   4.438   6.590   2.441  0.6006  0.3659 -0.2339
   10CHTO  H143 3979   4.452   6.491   2.479 -2.1205  0.1849  0.3448
   10CHTO  H144 3980   4.344   6.622   2.481  1.4728 -0.7964  2.9205
   10CHTO   C87 3981   4.414   6.714   2.223  0.6693  0.2301  1.1637
   10CHTO  H159 3982   4.330   6.776   2.257 -0.2545  0.0267 -0.6840
   10CHTO   O53 3983   4.402   6.694   2.063 -0.3308 -0.3590  0.3086
   10CHTO   C82 3984   4.317   6.589   2.017  0.4086 -0.3740  0.0868
   10CHTO  H154 3985   4.214   6.624   2.023  0.4982 -0.4194  2.2012
   10CHTO   C89 3986   4.354   6.575   1.870 -0.0558  0.1311 -0.2671
   10CHTO   O59 3987   4.298   6.672   1.781 -0.1783 -0.2889  0.2221
   10CHTO  H137 3988   4.216   6.712   1.802 -0.5026 -1.3175  0.9360
   10CHTO   O45 3989   4.549   6.802   2.252 -0.3475 -0.2327  0.2487
   10CHTO   C67 3990   4.539   6.945   2.221  0.0479 -0.2164  0.2811
   10CHTO  H124 3991   4.473   6.955   2.136 -0.2470 -3.2101  0.1047
   10CHTO   C65 3992   4.493   7.035   2.338 -0.6620 -0.0396  0.6784
   10CHTO  H122 3993   4.514   6.975   2.426 -1.1009 -0.6494  0.3665
   10CHTO   O44 3994   4.349   7.061   2.322  0.4040  0.0929 -0.7183
   10CHTO  H102 3995   4.306   6.981   2.298  0.0020  0.5460 -1.5316
   10CHTO   C63 3996   4.584   7.163   2.361  0.1481 -0.3367 -0.6818
   10CHTO  H120 3997   4.673   7.127   2.412 -0.3604  0.5504  0.8634
   10CHTO   N11 3998   4.537   7.252   2.467  0.4023  0.4307 -0.0447
   10CHTO  H108 3999   4.625   7.296   2.510  1.5718 -2.8019  0.9575
   10CHTO  H109 4000   4.488   7.189   2.538  0.9013  1.7066  1.4628
   10CHTO   C61 4001   4.614   7.221   2.218  0.5647 -0.8441  0.3049
   10CHTO  H118 4002   4.692   7.297   2.233 -0.3293 -0.1049  1.3734
   10CHTO   O40 4003   4.665   7.127   2.121 -0.2698 -0.0705  0.6428
   10CHTO   C68 4004   4.680   6.995   2.167 -0.7845  0.5801  0.6636
   10CHTO  H125 4005   4.765   6.989   2.238 -0.5992  0.9510  0.4717
   10CHTO   C72 4006   4.727   6.910   2.042  0.1212 -0.3508  0.0592
   10CHTO   O48 4007   4.864   6.932   2.017  0.6886 -0.1926 -0.0113
   10CHTO  H105 4008   4.886   6.874   1.947 -1.5971  1.0208 -1.8148
   10CHTO   O38 4009   4.494   7.279   2.153  0.1717 -0.8210 -0.3596
   10CHTO   C55 4010   4.494   7.394   2.063 -0.4708 -0.5499  0.2524
   10CHTO  H112 4011   4.400   7.402   2.006  1.5789  0.1451 -3.1855
   10CHTO   C56 4012   4.616   7.396   1.958 -0.0911  0.4756 -0.4376
   10CHTO  H113 4013   4.711   7.366   2.004 -0.4400 -1.3634 -0.8569
   10CHTO   O42 4014   4.592   7.294   1.865 -0.0126  0.6636 -0.8415
   10CHTO  H100 4015   4.559   7.218   1.910  0.0667  1.2201  0.1848
   10CHTO   C57 4016   4.633   7.540   1.894  0.7568 -0.5063 -0.5657
   10CHTO  H114 4017   4.543   7.538   1.832 -0.8246 -2.6299  1.7000
   10CHTO   N10 4018   4.742   7.541   1.799 -0.1774 -0.1978 -0.2126
   10CHTO  H106 4019   4.754   7.447   1.746 -0.4555 -0.7579  0.7034
   10CHTO  H107 4020   4.832   7.559   1.855  0.4252 -0.7782 -0.9856
   10CHTO   C58 4021   4.623   7.648   1.998 -0.1181  1.1110  0.4390
   10CHTO  H115 4022   4.702   7.633   2.074 -1.0059 -1.4774  0.9262
   10CHTO   O37 4023   4.501   7.638   2.063  0.5492  0.1601 -0.1004
   10CHTO   C59 4024   4.495   7.520   2.150  0.5443 -0.4613 -0.1297
   10CHTO  H116 4025   4.574   7.506   2.223 -1.0612 -2.0962  1.3551
   10CHTO   C70 4026   4.364   7.519   2.231 -0.6604 -0.3116 -0.1087
   10CHTO   O46 4027   4.377   7.601   2.354  0.2690 -0.6838  0.7111
   10CHTO  H103 4028   4.292   7.621   2.388 -1.0918 -0.3382 -2.7169
   10CHTO   O39 4029   4.634   7.792   1.925  0.0962  0.1799  0.4586
   10CHTO   C60 4030   4.652   7.900   2.019  0.3371  0.7192 -0.8642
   10CHTO  H117 4031   4.601   7.871   2.111  0.3611 -0.4104 -1.1995
   10CHTO   C62 4032   4.805   7.927   2.032  0.6622  0.5197 -0.5994
   10CHTO  H119 4033   4.859   7.845   2.084  0.6288  2.3858  2.4908
   10CHTO   O43 4034   4.864   7.939   1.905 -0.0419  0.0524  0.4478
   10CHTO  H101 4035   4.956   7.922   1.912 -0.1449 -0.6364  0.1945
   10CHTO   C66 4036   4.833   8.057   2.124  0.8131  0.4385 -0.0456
   10CHTO  H123 4037   4.793   8.031   2.222  1.0760  0.7121  0.1340
   10CHTO   N12 4038   4.974   8.092   2.160 -0.3820 -1.0161 -0.0163
   10CHTO  H110 4039   5.036   8.016   2.206  2.2579  1.8281  1.3058
   10CHTO  H111 4040   4.967   8.187   2.211  1.6328  0.2913 -2.0787
   10CHTO   C69 4041   4.752   8.179   2.065  0.8550 -0.0406 -0.0576
   10CHTO  H126 4042   4.795   8.195   1.964 -0.1102  0.2455 -0.4256
   10CHTO   O41 4043   4.614   8.136   2.060  0.2548  0.1406 -0.0415
   10CHTO   C64 4044   4.584   8.034   1.971 -0.5135 -0.3987 -0.1776
   10CHTO  H121 4045   4.632   8.064   1.876  0.1598 -1.4302 -0.1612
   10CHTO   C71 4046   4.422   8.026   1.964  0.7635 -0.6950 -0.6669
   10CHTO   O47 4047   4.376   8.107   1.856 -0.4006  0.3422 -0.3662
   10CHTO  H104 4048   4.393   8.052   1.781  1.5840  1.4264 -0.7298
   10CHTO   O34 4049   4.757   8.308   2.157  0.3067 -0.0502  0.2583
   10CHTO   C49 4050   4.854   8.427   2.171  0.1566  0.7709 -0.1553
   10CHTO   H91 4051   4.956   8.389   2.179  0.2622  0.9471 -0.6348
   10CHTO   C47 4052   4.807   8.501   2.298  0.0580 -0.2803 -0.4395
   10CHTO   H89 4053   4.888   8.577   2.302 -0.2863  0.2159 -2.3193
   10CHTO   O33 4054   4.813   8.423   2.411 -0.8141  0.2768  0.1339
   10CHTO   H70 4055   4.809   8.474   2.489 -1.4752  2.1358 -1.0811
   10CHTO   C45 4056   4.666   8.572   2.279 -0.0992 -0.6026  0.1780
   10CHTO   H87 4057   4.591   8.495   2.256  1.3738 -1.5408 -1.7053
   10CHTO    N8 4058   4.621   8.653   2.393 -0.3221 -0.3552  0.0136
   10CHTO   H75 4059   4.633   8.594   2.482 -0.5385 -0.1477  0.1802
   10CHTO   H76 4060   4.514   8.668   2.388 -0.4781 -0.3165  2.9398
   10CHTO   C43 4061   4.675   8.668   2.152  0.5445  0.7435 -0.2063
   10CHTO   H85 4062   4.571   8.696   2.134 -0.5044 -3.0697 -0.6297
   10CHTO   O29 4063   4.718   8.586   2.051  0.0786 -0.0932 -0.0011
   10CHTO   C50 4064   4.845   8.516   2.051  0.0690  0.7820 -0.6177
   10CHTO   H92 4065   4.851   8.449   1.964 -1.1250 -0.5582  0.2991
   10CHTO   C54 4066   4.962   8.614   2.027 -0.1373  0.3785 -0.1250
   10CHTO   O36 4067   4.947   8.678   1.903 -0.0485 -0.3014 -0.4326
   10CHTO   H72 4068   5.020   8.736   1.890  0.4236 -0.8978 -0.4619
   10CHTO   O27 4069   4.748   8.792   2.165 -0.0673  0.0756  0.7500
   10CHTO   C37 4070   4.758   8.918   2.097 -0.1568  1.2184 -0.4797
   10CHTO   H79 4071   4.861   8.926   2.058  1.7028 -2.1613  3.3151
   10CHTO   C38 4072   4.666   8.935   1.977 -0.1046  0.5070  0.1393
   10CHTO   H80 4073   4.564   8.918   2.013  0.6033  1.3658  2.6796
   10CHTO   O31 4074   4.714   8.850   1.869  0.5939 -0.9281 -0.3215
   10CHTO   H68 4075   4.672   8.766   1.859  0.8883 -1.3903  1.9863
   10CHTO   C39 4076   4.669   9.086   1.929  0.4984 -0.0667  0.3191
   10CHTO   H81 4077   4.773   9.108   1.904 -0.0072  0.8931 -0.9623
   10CHTO    N7 4078   4.580   9.113   1.806  0.3102  0.1746 -0.1375
   10CHTO   H73 4079   4.629   9.113   1.710 -0.6311  0.8122 -0.6350
   10CHTO   H74 4080   4.503   9.037   1.803  1.1272 -0.6960  0.5814
   10CHTO   C40 4081   4.650   9.188   2.044  0.0650 -0.2604  0.2677
   10CHTO   H82 4082   4.549   9.181   2.085 -0.0245  0.5416  0.1810
   10CHTO   O26 4083   4.752   9.160   2.147 -0.3672 -0.0195 -0.1376
   10CHTO   C41 4084   4.736   9.028   2.200 -0.5764  0.3159 -0.0276
   10CHTO   H83 4085   4.633   9.027   2.240 -0.1261  0.9456  1.1702
   10CHTO   C52 4086   4.842   9.006   2.313 -0.6490 -0.1763  0.0586
   10CHTO   O35 4087   4.822   9.062   2.419 -0.6977 -0.3324  0.0764
   10CHTO   H71 4088   4.744   9.033   2.463 -1.0101 -0.0324 -0.2801
   10CHTO   O28 4089   4.696   9.319   2.001  0.1984 -0.1401 -0.3019
   10CHTO   C42 4090   4.649   9.443   2.051  0.2168 -0.4831 -0.2888
   10CHTO   H84 4091   4.588   9.410   2.136  0.1485  1.1208  0.2956
   10CHTO   C44 4092   4.545   9.515   1.961  0.1597  1.3954  0.2473
   10CHTO   H86 4093   4.594   9.521   1.864 -1.0432  2.4729 -0.3221
   10CHTO   O32 4094   4.427   9.435   1.948  0.2927  0.0726  0.1464
   10CHTO   H69 4095   4.350   9.488   1.943  0.1319  0.1075  2.5435
   10CHTO   C48 4096   4.519   9.672   1.998  0.7925  0.5659  1.1752
   10CHTO   H90 4097   4.448   9.675   2.081  0.0358 -1.5933  0.6320
   10CHTO    N9 4098   4.449   9.739   1.883 -0.1278  0.1111 -0.8359
   10CHTO   H77 4099   4.423   9.840   1.911 -1.5293 -0.5386  0.2902
   10CHTO   H78 4100   4.364   9.685   1.845  1.7061 -2.9363 -0.7893
   10CHTO   C51 4101   4.655   9.735   2.038  1.2850  0.1218  1.2737
   10CHTO   H93 4102   4.718   9.734   1.949 -2.3222  0.5071 -1.3843
   10CHTO   O30 4103   4.707   9.664   2.149 -0.0123 -0.1902  0.5163
   10CHTO   C46 4104   4.756   9.542   2.110 -0.3370  0.7705 -0.1339
   10CHTO   H88 4105   4.829   9.557   2.031  3.2322  1.5285  3.1953
   10CHTO   C53 4106   4.842   9.487   2.230  0.5109  0.2971  0.5825
   10CHTO   O72 4107   4.954   9.565   2.268  0.8170  0.4204  0.5613
   10CHTO  H199 4108   5.004   9.589   2.192  1.2239  2.9524  1.5898
   10CHTO   O22 4109   4.634   9.867   2.084  0.3385  0.2053 -0.0433
   10CHTO   C31 4110   4.741   9.972   2.076 -0.0741  0.4431 -0.5320
   10CHTO   H59 4111   4.714  10.040   2.160 -0.1615 -0.2094 -0.0183
   10CHTO   C29 4112   4.887   9.937   2.106  0.4505 -0.1475 -0.3846
   10CHTO   H57 4113   4.936   9.880   2.025  0.2868  2.2414 -2.2330
   10CHTO   O21 4114   4.890   9.855   2.227 -0.2441  0.2692 -0.0992
   10CHTO   H37 4115   4.928   9.772   2.207 -1.2701  0.1827 -1.7016
   10CHTO   C27 4116   4.975  10.066   2.130 -0.1309 -0.8846  0.2327
   10CHTO   H55 4117   4.921  10.127   2.204  2.3877 -1.9351  3.0712
   10CHTO    N5 4118   5.113  10.047   2.172 -0.2938 -0.1597 -0.5100
   10CHTO   H43 4119   5.130  10.102   2.264 -1.4614  0.3795 -0.6019
   10CHTO   H44 4120   5.139   9.943   2.182  1.7002  0.3653 -0.0608
   10CHTO   C25 4121   4.970  10.136   1.992 -0.1551 -0.1802  0.0267
   10CHTO   H53 4122   5.015  10.066   1.919  0.3542 -1.4627  1.5448
   10CHTO   O17 4123   4.827  10.167   1.948 -0.2817  0.0785  0.0174
   10CHTO   C32 4124   4.738  10.053   1.944  0.6083  0.2838 -0.2048
   10CHTO   H60 4125   4.780   9.988   1.867  2.2735  1.0112  0.0724
   10CHTO   C36 4126   4.596  10.102   1.919  0.2030 -0.5595 -0.2221
   10CHTO   O25 4127   4.530  10.176   2.026 -0.4709 -0.2473  0.3803
   10CHTO   H40 4128   4.580  10.253   2.046  0.6365 -1.2195  1.3949
   10CHTO   O15 4129   5.043  10.270   1.991  0.9690  0.0043  0.7445
   10CHTO   C19 4130   5.061  10.369   1.889  0.5101 -1.0814  0.3570
   10CHTO   H47 4131   4.978  10.351   1.819  2.2825  0.8928 -2.3704
   10CHTO   C20 4132   5.036  10.515   1.938 -0.0100  0.2343 -0.5984
   10CHTO   H48 4133   5.099  10.535   2.026  0.2120 -1.9438 -0.2395
   10CHTO   O19 4134   4.899  10.524   1.973  0.1108 -0.2452 -0.3846
   10CHTO   H35 4135   4.885  10.582   2.045 -1.8999 -0.3860 -0.6382
   10CHTO   C21 4136   5.076  10.638   1.844 -0.4830 -0.2704  0.6598
   10CHTO   H49 4137   5.004  10.639   1.762  2.0560  0.5284 -1.6471
   10CHTO    N4 4138   5.069  10.772   1.902  0.6721 -0.5599  0.0172
   10CHTO   H41 4139   5.166  10.820   1.907  0.9071 -0.9276 -0.8470
   10CHTO   H42 4140   5.013  10.778   1.994 -0.8541  0.7125 -0.9795
   10CHTO   C22 4141   5.213  10.600   1.775 -0.2400  0.0974  0.1227
   10CHTO   H50 4142   5.300  10.611   1.839 -0.2142 -0.6135  0.2142
   10CHTO   O14 4143   5.208  10.467   1.724 -0.5274 -0.3344  0.0647
   10CHTO   C23 4144   5.194  10.354   1.811  0.7028  0.4307 -0.3068
   10CHTO   H51 4145   5.282  10.353   1.877  1.2456  0.2273 -1.0236
   10CHTO   C34 4146   5.209  10.221   1.730  0.1834 -0.1673  0.1492
   10CHTO   O23 4147   5.253  10.122   1.818  0.4324  0.3989 -0.0254
   10CHTO   H38 4148   5.221  10.039   1.788  0.9774 -0.1065  0.7816
   10CHTO   O16 4149   5.219  10.674   1.651  0.0225  0.2103  0.1008
   10CHTO   C24 4150   5.363  10.718   1.597  0.0492  1.1659  0.2728
   10CHTO   H52 4151   5.442  10.692   1.667 -1.4998  0.5135  1.8180
   10CHTO   C26 4152   5.362  10.872   1.583 -0.2768 -0.3461 -0.5281
   10CHTO   H54 4153   5.276  10.908   1.522 -0.0495 -1.5683 -1.5823
   10CHTO   O20 4154   5.344  10.922   1.714  0.3579 -1.0502 -0.4065
   10CHTO   H36 4155   5.405  10.888   1.776 -0.3442 -1.8789 -0.1547
   10CHTO   C30 4156   5.498  10.921   1.523  0.6054  0.6463  0.2816
   10CHTO   H58 4157   5.572  10.917   1.604 -1.8250  2.3349  2.6934
   10CHTO    N6 4158   5.487  11.067   1.485  0.5848  0.8668  0.3723
   10CHTO   H45 4159   5.475  11.121   1.578 -5.5190 -1.3638  1.1137
   10CHTO   H46 4160   5.396  11.076   1.428 -0.9819  1.7179  2.9253
   10CHTO   C33 4161   5.541  10.841   1.398  0.9518  0.4507 -0.1194
   10CHTO   H61 4162   5.486  10.870   1.308 -0.4486  0.0520  0.5925
   10CHTO   O18 4163   5.527  10.696   1.422  0.5052  0.0122  0.1016
   10CHTO   C28 4164   5.397  10.655   1.462 -0.5320  0.0320 -0.2973
   10CHTO   H56 4165   5.323  10.685   1.388 -1.2779  0.6753  0.6936
   10CHTO   C35 4166   5.396  10.497   1.464 -0.2406  0.5216  0.4778
   10CHTO   O24 4167   5.495  10.446   1.545  0.3301  0.1586  0.3328
   10CHTO   H39 4168   5.535  10.383   1.487 -0.1183  1.6679 -1.6845
   10CHTO    O9 4169   5.678  10.880   1.371 -0.0094 -0.1434 -0.4004
   10CHTO   C13 4170   5.738  10.852   1.223 -0.2965 -0.2507 -0.5928
   10CHTO   H26 4171   5.681  10.921   1.157 -0.6497 -0.4558 -0.5043
   10CHTO   C11 4172   5.732  10.703   1.179 -0.1083 -0.9438  0.1330
   10CHTO   H24 4173   5.625  10.681   1.164 -1.0043  1.1187  2.9923
   10CHTO    O8 4174   5.788  10.613   1.268 -0.4255 -0.1303 -0.5624
   10CHTO    H3 4175   5.757  10.621   1.356  0.1139 -0.5034 -0.3391
   10CHTO    C9 4176   5.814  10.691   1.047 -0.1644  0.8021 -0.5294
   10CHTO   H22 4177   5.766  10.765   0.981 -0.4742  1.5912  0.5750
   10CHTO    N2 4178   5.791  10.559   0.987 -0.2592  0.2117 -0.0604
   10CHTO   H10 4179   5.878  10.496   0.972 -1.5379 -1.1795 -1.8430
   10CHTO   H11 4180   5.733  10.575   0.898  0.3646 -0.4640 -0.5964
   10CHTO    C7 4181   5.970  10.720   1.070  0.1641  0.5382  0.3112
   10CHTO   H20 4182   6.006  10.773   0.980 -0.1698 -1.5189 -1.0559
   10CHTO    O4 4183   5.979  10.801   1.190  0.1036  0.1214  0.0713
   10CHTO   C14 4184   5.885  10.906   1.210  0.2775  0.0999  0.0040
   10CHTO   H27 4185   5.892  10.974   1.123  1.3617 -0.3791 -0.2884
   10CHTO   C18 4186   5.937  10.987   1.333  0.5382 -0.1327 -0.1173
   10CHTO   O13 4187   5.874  11.111   1.355 -0.1031 -0.2601 -0.0214
   10CHTO    H7 4188   5.798  11.102   1.409  1.1585  0.4774  1.9602
   10CHTO    O2 4189   6.060  10.578   1.095  0.0549 -0.1961 -0.2912
   10CHTO    C1 4190   6.188  10.590   1.147 -0.1414  0.3341  0.2628
   10CHTO   H14 4191   6.188  10.665   1.229  2.1979 -2.9984  3.5148
   10CHTO    C2 4192   6.304  10.628   1.041 -0.1108  0.0772  0.4371
   10CHTO   H15 4193   6.286  10.595   0.937 -1.9624 -0.3784  0.8847
   10CHTO    O6 4194   6.295  10.770   1.020  0.4238  0.4978 -0.2797
   10CHTO    H1 4195   6.205  10.790   1.000  0.3879 -1.6721 -2.4286
   10CHTO    C3 4196   6.451  10.586   1.090  0.5675 -0.7814 -1.3439
   10CHTO   H16 4197   6.490  10.666   1.156  0.8432  2.4504 -5.2255
   10CHTO    N1 4198   6.553  10.590   0.982 -0.5808 -0.8818  0.5132
   10CHTO    H8 4199   6.517  10.513   0.915 -1.3684 -0.4700  0.4510
   10CHTO    H9 4200   6.651  10.570   1.022 -0.9143  1.3336  2.4991
   10CHTO    C4 4201   6.457  10.451   1.172  0.3555 -0.2703  0.0836
   10CHTO   H17 4202   6.442  10.370   1.101 -3.2471  0.6526 -0.3210
   10CHTO    O1 4203   6.352  10.443   1.271 -0.3035  0.1311  0.1695
   10CHTO    C5 4204   6.220  10.445   1.216  0.0028 -0.4554 -0.2233
   10CHTO   H18 4205   6.208  10.366   1.141  0.3785  0.4898 -1.3033
   10CHTO   C16 4206   6.133  10.418   1.338  0.8922 -0.0664  0.3948
   10CHTO   O11 4207   6.147  10.289   1.391  0.6417 -0.5268  0.2500
   10CHTO    H5 4208   6.091  10.220   1.360  1.6526 -0.4351 -1.8678
   10CHTO    O3 4209   6.586  10.441   1.239 -0.3053 -0.1858  0.1544
   10CHTO    C6 4210   6.637  10.304   1.250  0.1143  0.9890 -0.5057
   10CHTO   H19 4211   6.556  10.232   1.241  0.1731  0.8246  0.2394
   10CHTO    C8 4212   6.737  10.285   1.138 -0.3276 -0.8774  0.2345
   10CHTO   H21 4213   6.803  10.372   1.140 -2.0734  0.5364 -1.5495
   10CHTO    O7 4214   6.675  10.271   1.013  0.4081  0.0172 -0.3289
   10CHTO    H2 4215   6.731  10.300   0.943  0.6027 -0.4899 -0.3884
   10CHTO   C12 4216   6.822  10.153   1.164  0.6743 -0.6971  0.3537
   10CHTO   H25 4217   6.745  10.078   1.136  0.9554 -0.3737 -1.3431
   10CHTO    N3 4218   6.943  10.149   1.080  0.0169 -0.6892 -0.4402
   10CHTO   H12 4219   6.930  10.157   0.973 -0.5466 -4.1202 -0.7004
   10CHTO   H13 4220   7.016  10.219   1.118 -0.3164  0.1554 -1.3284
   10CHTO   C15 4221   6.855  10.147   1.320  0.7093 -0.3049  0.1683
   10CHTO   H28 4222   6.935  10.212   1.355 -0.1539  0.7867  0.1041
   10CHTO   O10 4223   6.871  10.001   1.358  0.1682 -0.2407 -0.3669
   10CHTO    H4 4224   6.882   9.994   1.451  0.4918  1.3679 -0.2779
   10CHTO    O5 4225   6.741  10.164   1.405  0.0881  0.5203  0.1799
   10CHTO   C10 4226   6.691  10.292   1.395  0.7236 -0.5004  0.5019
   10CHTO   H23 4227   6.774  10.359   1.417  0.0252  0.9004 -1.0112
   10CHTO   C17 4228   6.582  10.309   1.505 -0.8559  0.2353 -0.0991
   10CHTO   O12 4229   6.457  10.241   1.489 -0.2958  0.1471  0.2781
   10CHTO    H6 4230   6.459  10.190   1.409 -1.2827  0.6656 -0.0889
   11CHTO  H203 4231   7.989   5.219   0.630 -0.6438 -2.3504 -0.7458
   11CHTO   O82 4232   7.996   5.255   0.543  0.2454 -0.1159  0.2071
   11CHTO  C123 4233   7.961   5.392   0.537  0.0635  0.8856 -0.2962
   11CHTO  H227 4234   7.998   5.440   0.445 -2.8970  0.5308 -1.7104
   11CHTO   O77 4235   7.821   5.379   0.534 -0.0048 -0.3359 -0.2302
   11CHTO  C118 4236   7.772   5.509   0.497  0.2025  0.0556  0.4203
   11CHTO  H222 4237   7.832   5.563   0.422  0.3444 -1.3121 -0.4728
   11CHTO  C125 4238   7.624   5.495   0.453  0.2361 -0.2891  0.4205
   11CHTO   O84 4239   7.536   5.451   0.561  0.2126  0.1098 -0.5850
   11CHTO  H205 4240   7.466   5.399   0.526  0.2389  0.8451 -1.7589
   11CHTO  C114 4241   7.782   5.589   0.632  0.8218  0.3080  0.2866
   11CHTO  H218 4242   7.728   5.529   0.705  2.7845  0.6936  2.1055
   11CHTO  C116 4243   7.932   5.607   0.670 -0.3314  0.0473  0.1213
   11CHTO  H220 4244   7.981   5.673   0.595  0.5855 -2.7185 -1.8104
   11CHTO   O79 4245   7.931   5.676   0.796 -0.1544  0.1044  0.5906
   11CHTO  H201 4246   7.877   5.753   0.798 -0.9936 -0.3584 -2.0455
   11CHTO  C120 4247   8.006   5.473   0.669  0.2336  0.1040 -0.7406
   11CHTO  H224 4248   7.986   5.419   0.764  0.2939  0.5222 -0.4879
   11CHTO   N21 4249   8.157   5.492   0.669  0.4701  0.5171  0.0673
   11CHTO  H211 4250   8.207   5.403   0.703  0.8632 -0.5461 -3.1361
   11CHTO  H212 4251   8.165   5.570   0.743 -1.0518  0.1450  0.6483
   11CHTO   O75 4252   7.710   5.712   0.611 -0.0237 -0.3992  0.1214
   11CHTO  C112 4253   7.641   5.767   0.735  0.4443  0.0732 -0.4253
   11CHTO  H216 4254   7.691   5.739   0.829 -1.8445 -0.0620  0.8065
   11CHTO   O73 4255   7.510   5.717   0.730 -0.6413  0.1663 -0.2470
   11CHTO  C113 4256   7.418   5.760   0.825  0.6033  0.3716 -0.2833
   11CHTO  H217 4257   7.453   5.738   0.928 -3.4495 -3.3993  0.4336
   11CHTO  C124 4258   7.286   5.683   0.791 -0.4702  0.2195 -0.2538
   11CHTO   O83 4259   7.314   5.545   0.824 -0.0742 -0.1253 -0.2685
   11CHTO  H204 4260   7.316   5.540   0.918 -0.0257  0.1377 -0.2562
   11CHTO  C109 4261   7.400   5.913   0.813  0.3524  0.3677  0.0140
   11CHTO  H213 4262   7.360   5.928   0.711 -1.9279  0.1363  0.8521
   11CHTO  C110 4263   7.543   5.978   0.837  0.0926 -0.0207  0.3456
   11CHTO  H214 4264   7.573   5.946   0.936  0.7970 -0.4659 -0.0037
   11CHTO   O78 4265   7.525   6.123   0.839 -0.5960  0.5421 -0.1514
   11CHTO  H200 4266   7.609   6.164   0.844 -0.3634  0.2772 -1.5911
   11CHTO  C111 4267   7.651   5.929   0.730  0.3147  0.5174  0.0193
   11CHTO  H215 4268   7.615   5.954   0.630  0.3297 -2.4651 -0.7770
   11CHTO   N19 4269   7.788   5.985   0.749  0.1153  0.3408 -0.1474
   11CHTO  H207 4270   7.788   6.080   0.801  0.3087 -0.2570  0.9461
   11CHTO  H208 4271   7.855   5.920   0.804  1.0962  3.3120  2.3038
   11CHTO   O74 4272   7.295   5.965   0.914  0.0338 -0.3078 -0.6633
   11CHTO  C115 4273   7.155   6.013   0.845 -0.3085  0.0965  0.2819
   11CHTO  H219 4274   7.161   6.031   0.738 -0.4442 -0.1686  0.2320
   11CHTO   O76 4275   7.054   5.914   0.859 -0.7107 -0.0854  0.3234
   11CHTO  C122 4276   6.927   5.932   0.796  0.5898  0.7658 -0.1519
   11CHTO  H226 4277   6.861   5.853   0.831  0.6040  0.6936 -0.2878
   11CHTO  C126 4278   6.947   5.913   0.641 -0.2376 -0.9030 -0.2314
   11CHTO   O85 4279   6.996   5.777   0.615  0.2691 -0.2702  0.5876
   11CHTO  H206 4280   6.929   5.719   0.647 -0.6762  0.8061  0.5814
   11CHTO  C121 4281   6.863   6.070   0.840  0.2156 -0.2710 -0.0654
   11CHTO  H225 4282   6.810   6.099   0.747 -0.0064  1.2918  0.5343
   11CHTO   O81 4283   6.777   6.061   0.953  0.2940 -0.2724  0.0762
   11CHTO  H202 4284   6.712   6.128   0.955 -0.0810 -0.6269 -0.1748
   11CHTO  C119 4285   6.969   6.186   0.863  1.0602 -0.1212 -0.3022
   11CHTO  H223 4286   6.979   6.238   0.768  0.6825  1.6232  0.5863
   11CHTO  C117 4287   7.111   6.149   0.910 -0.1659 -0.0904  0.5626
   11CHTO  H221 4288   7.115   6.139   1.019  1.3832  1.7824  0.7191
   11CHTO   N20 4289   7.213   6.262   0.877  0.1385 -0.1741 -0.1242
   11CHTO  H209 4290   7.202   6.337   0.954 -0.6850  0.3912 -0.7827
   11CHTO  H210 4291   7.311   6.217   0.884  0.3423  0.2194 -0.4827
   11CHTO   O80 4292   6.910   6.302   0.946  0.0213 -0.4957 -0.6345
   11CHTO  C103 4293   6.869   6.271   1.126  0.1208  0.3535  0.6222
   11CHTO  H190 4294   6.773   6.219   1.130 -0.3544  0.9955 -1.8762
   11CHTO  C101 4295   6.951   6.200   1.232 -0.4474 -0.0397 -0.0131
   11CHTO  H188 4296   7.055   6.227   1.212 -0.3851 -0.8421 -0.8016
   11CHTO   O68 4297   6.934   6.068   1.209 -0.1650  0.2750 -0.2553
   11CHTO  H168 4298   6.964   6.014   1.279  1.4035 -1.2711 -2.0425
   11CHTO   C99 4299   6.919   6.244   1.379 -0.0705  0.1187  0.2554
   11CHTO  H186 4300   6.818   6.206   1.407  0.5044 -1.5761  0.0889
   11CHTO   N17 4301   7.013   6.189   1.478  0.4764 -0.2949  1.0478
   11CHTO  H174 4302   6.967   6.180   1.575 -0.4968 -3.8897  0.3152
   11CHTO  H175 4303   7.115   6.224   1.471 -0.2790  1.5992 -1.3899
   11CHTO   C97 4304   6.914   6.395   1.390 -0.4301  0.3299  0.2646
   11CHTO  H184 4305   7.006   6.436   1.347 -1.5868  1.6708 -1.0083
   11CHTO   O64 4306   6.803   6.441   1.315 -0.0803 -0.3498 -0.0981
   11CHTO  C104 4307   6.846   6.419   1.179  0.3448  0.0153  0.7645
   11CHTO  H191 4308   6.939   6.472   1.157  1.8957 -3.4384 -1.5204
   11CHTO  C108 4309   6.741   6.490   1.089  0.1226 -0.5923 -0.1982
   11CHTO   O71 4310   6.607   6.453   1.123 -0.1737 -0.6619 -0.0607
   11CHTO  H171 4311   6.551   6.478   1.052  1.7057  0.8352 -1.0363
   11CHTO   O62 4312   6.898   6.459   1.515 -0.0494  0.3810 -0.1911
   11CHTO   C91 4313   6.909   6.606   1.507 -0.9045  0.6035 -0.1160
   11CHTO  H178 4314   6.933   6.622   1.402 -1.4320 -1.2531 -0.5313
   11CHTO   C92 4315   7.041   6.664   1.575 -0.3119 -0.5200 -0.6203
   11CHTO  H179 4316   7.036   6.634   1.680  0.6737  2.0828  0.2162
   11CHTO   O66 4317   7.150   6.578   1.531 -0.0763 -0.2607 -0.4859
   11CHTO  H166 4318   7.166   6.607   1.443 -3.4748  0.9671 -0.7757
   11CHTO   C93 4319   7.058   6.816   1.553  0.0588  0.7153 -0.4836
   11CHTO  H180 4320   7.057   6.835   1.445  0.0321  0.3522 -0.5462
   11CHTO   N16 4321   7.187   6.866   1.606  0.1728  0.0600 -0.2423
   11CHTO  H172 4322   7.202   6.972   1.608  0.4534  0.0502 -1.8301
   11CHTO  H173 4323   7.187   6.838   1.711 -2.6697  2.4279  0.4630
   11CHTO   C94 4324   6.927   6.886   1.617 -0.1085 -0.1188 -0.2138
   11CHTO  H181 4325   6.927   6.872   1.725  0.4667 -0.2604 -0.2319
   11CHTO   O61 4326   6.804   6.833   1.555 -0.1533  0.0092  0.3892
   11CHTO   C95 4327   6.790   6.695   1.565  0.8471  0.0341 -0.2997
   11CHTO  H182 4328   6.777   6.666   1.670  1.1100  1.8436  0.2420
   11CHTO  C106 4329   6.654   6.655   1.501 -0.0853  0.4903  0.1377
   11CHTO   O69 4330   6.635   6.692   1.365  0.1261  0.5943 -0.0658
   11CHTO  H169 4331   6.560   6.649   1.327  1.1362 -0.6413 -0.7200
   11CHTO   O63 4332   6.917   7.048   1.568  0.7305 -0.3188 -0.8763
   11CHTO   C96 4333   6.878   7.132   1.682  0.7927  0.1627  0.3285
   11CHTO  H183 4334   6.915   7.082   1.772  1.5222 -0.1906 -0.1664
   11CHTO   C98 4335   6.727   7.137   1.719 -0.5305 -0.1653 -0.0138
   11CHTO  H185 4336   6.670   7.186   1.639  0.5751 -0.0770 -0.7681
   11CHTO   O67 4337   6.673   7.006   1.726 -0.1484 -0.2095 -0.3735
   11CHTO  H167 4338   6.697   6.963   1.646  0.6959  1.6829 -1.1570
   11CHTO  C102 4339   6.707   7.222   1.853 -0.3267 -0.2420 -0.1792
   11CHTO  H189 4340   6.734   7.152   1.933  1.8186 -1.4751 -1.9444
   11CHTO   N18 4341   6.573   7.270   1.880  0.6054  0.0970  0.3521
   11CHTO  H176 4342   6.532   7.343   1.811  0.3945 -0.6919 -0.3637
   11CHTO  H177 4343   6.551   7.292   1.983 -3.3093 -0.2845 -0.3188
   11CHTO  C105 4344   6.811   7.331   1.860 -1.0351 -0.7542  0.3764
   11CHTO  H192 4345   6.770   7.424   1.901  0.9890  0.5507 -0.4727
   11CHTO   O65 4346   6.871   7.370   1.737  0.1299  0.7219  0.2772
   11CHTO  C100 4347   6.931   7.272   1.656 -0.4119 -0.2559 -0.3788
   11CHTO  H187 4348   6.922   7.298   1.550  1.6965  2.3463  0.0232
   11CHTO  C107 4349   7.085   7.273   1.673  0.3702  0.2298 -0.0808
   11CHTO   O70 4350   7.136   7.401   1.646  0.3986  0.0376 -0.2067
   11CHTO  H170 4351   7.100   7.470   1.698  2.1261  1.7587 -1.2116
   11CHTO   O57 4352   6.917   7.268   1.974  0.1787  0.6919 -0.3207
   11CHTO   C85 4353   6.956   7.338   2.087 -0.5408 -0.4093 -0.2631
   11CHTO  H157 4354   6.858   7.380   2.119  0.3472  0.2303  1.6920
   11CHTO   C83 4355   7.044   7.460   2.038  0.4219  0.1850 -0.0610
   11CHTO  H155 4356   6.983   7.523   1.972  1.1460  0.5287 -0.4009
   11CHTO   O56 4357   7.156   7.411   1.956 -0.2554 -0.6210 -0.3448
   11CHTO  H135 4358   7.136   7.391   1.867 -4.1917  1.4363 -0.0604
   11CHTO   C81 4359   7.097   7.543   2.155  0.5899 -0.9499 -0.9253
   11CHTO  H153 4360   7.012   7.581   2.210 -0.0383 -3.2087 -0.2836
   11CHTO   N14 4361   7.174   7.667   2.106  0.2819  0.3940 -0.2332
   11CHTO  H141 4362   7.099   7.721   2.054 -1.3289 -0.1531  1.4427
   11CHTO  H142 4363   7.209   7.726   2.188  1.4185  0.1578 -0.5322
   11CHTO   C79 4364   7.188   7.452   2.250  0.3759  0.1376  0.3026
   11CHTO  H151 4365   7.218   7.516   2.333 -0.4390  1.1551 -0.1840
   11CHTO   O52 4366   7.105   7.349   2.299 -0.1747 -0.5471  0.3403
   11CHTO   C86 4367   7.032   7.263   2.209 -0.3934  0.5089  0.1296
   11CHTO  H158 4368   7.109   7.199   2.160  0.4222  3.8403 -3.1767
   11CHTO   C90 4369   6.932   7.162   2.276  0.1399 -0.0479 -0.2277
   11CHTO   O60 4370   6.853   7.093   2.174 -0.3369 -0.2281  0.3179
   11CHTO  H138 4371   6.894   7.094   2.090  2.1091  0.8881  1.4607
   11CHTO   O50 4372   7.307   7.393   2.193 -0.5277 -0.0732  0.6953
   11CHTO   C73 4373   7.438   7.327   2.201 -0.1402  0.1196 -0.9248
   11CHTO  H145 4374   7.427   7.229   2.250  1.0092  0.9003  0.9738
   11CHTO   C74 4375   7.537   7.413   2.290 -0.8503 -0.4588  0.0866
   11CHTO  H146 4376   7.490   7.419   2.390 -0.5621  2.0677  0.0979
   11CHTO   O54 4377   7.653   7.337   2.310  0.4709 -0.1905  0.3546
   11CHTO  H133 4378   7.699   7.362   2.388  0.1831 -0.4520  0.6092
   11CHTO   C75 4379   7.550   7.557   2.220 -0.2876 -0.0166 -0.2698
   11CHTO  H147 4380   7.448   7.596   2.216 -0.5256 -0.4059  1.6270
   11CHTO   N13 4381   7.633   7.662   2.292  0.5169  0.4906 -0.4029
   11CHTO  H139 4382   7.629   7.651   2.400 -1.6540 -0.4957 -0.5572
   11CHTO  H140 4383   7.735   7.656   2.259  0.8288  1.1391  0.4163
   11CHTO   C76 4384   7.596   7.531   2.070  0.0636 -0.5064  0.1007
   11CHTO  H148 4385   7.700   7.497   2.069 -0.2403 -1.4978  1.3779
   11CHTO   O49 4386   7.517   7.440   2.001  0.7499 -0.0418  0.0122
   11CHTO   C77 4387   7.499   7.310   2.060  0.2939  0.0215  0.1269
   11CHTO  H149 4388   7.599   7.270   2.077 -0.5608 -1.7817  1.0750
   11CHTO   C88 4389   7.428   7.206   1.971 -0.4006  0.6461 -0.0709
   11CHTO   O58 4390   7.510   7.165   1.828 -0.0576  0.5363  0.4036
   11CHTO  H136 4391   7.448   7.154   1.759  0.2907 -0.3195  0.2244
   11CHTO   O51 4392   7.577   7.671   1.989  0.2301  0.9490 -0.4841
   11CHTO   C78 4393   7.713   7.719   1.890 -0.3253 -1.1841  0.2094
   11CHTO  H150 4394   7.804   7.662   1.920  1.7597  1.0659 -1.6187
   11CHTO   C80 4395   7.747   7.873   1.910  0.1317 -0.1191  0.5655
   11CHTO  H152 4396   7.653   7.931   1.903  0.3079  0.2052  0.8614
   11CHTO   O55 4397   7.813   7.884   2.033  0.3582 -0.3580  0.4943
   11CHTO  H134 4398   7.761   7.834   2.093 -0.4342 -0.1132  0.0269
   11CHTO   C84 4399   7.838   7.934   1.791  0.7900 -0.2282  0.0832
   11CHTO  H156 4400   7.934   7.884   1.793 -0.5184 -2.7866  0.3909
   11CHTO   N15 4401   7.867   8.083   1.800 -0.4141  0.0506 -0.8451
   11CHTO  H143 4402   7.910   8.120   1.709 -1.5053  0.6403 -1.1327
   11CHTO  H144 4403   7.766   8.118   1.807 -0.9006 -1.4464 -0.3449
   11CHTO   C87 4404   7.784   7.887   1.652  0.2018 -0.4403  0.1512
   11CHTO  H159 4405   7.689   7.936   1.631 -0.0260  0.0340  2.1941
   11CHTO   O53 4406   7.768   7.727   1.651 -0.6114 -0.3614  0.1284
   11CHTO   C82 4407   7.674   7.684   1.750  0.0387  0.1536  0.2038
   11CHTO  H154 4408   7.576   7.724   1.721 -0.5838 -0.2240  1.7493
   11CHTO   C89 4409   7.661   7.532   1.714  0.5229 -0.5456 -0.3744
   11CHTO   O59 4410   7.792   7.463   1.730 -0.6203 -0.6636 -0.1415
   11CHTO  H137 4411   7.802   7.434   1.819 -1.3836 -1.4931 -0.3096
   11CHTO   O45 4412   7.908   7.924   1.531  0.8035  0.3046  0.5055
   11CHTO   C67 4413   7.855   7.902   1.396 -0.7625 -0.1653 -0.2945
   11CHTO  H124 4414   7.802   7.808   1.407  0.7657 -1.2160 -1.7808
   11CHTO   C65 4415   7.751   8.018   1.350  0.1006 -0.5450 -0.3517
   11CHTO  H122 4416   7.777   8.102   1.416 -1.5375 -0.9813  0.8778
   11CHTO   O44 4417   7.624   7.978   1.396 -0.4811  0.4985 -0.2007
   11CHTO  H102 4418   7.608   7.993   1.487 -0.5540  0.2909 -0.1796
   11CHTO   C63 4419   7.768   8.064   1.204  0.5856 -0.7819 -0.2092
   11CHTO  H120 4420   7.856   8.128   1.199  0.1725 -0.3200 -2.4525
   11CHTO   N11 4421   7.661   8.162   1.167  0.3930  0.3880 -0.0727
   11CHTO  H108 4422   7.574   8.157   1.229  0.8650 -1.4588  0.4634
   11CHTO  H109 4423   7.631   8.151   1.064 -1.3731 -1.8319  0.6497
   11CHTO   C61 4424   7.790   7.944   1.109  0.1431 -0.9706 -0.0789
   11CHTO  H118 4425   7.820   7.993   1.015  0.1548 -1.3140 -0.2546
   11CHTO   O40 4426   7.894   7.853   1.149 -0.3358 -0.1783 -0.4230
   11CHTO   C68 4427   7.964   7.878   1.275 -0.4468  0.8112  0.4826
   11CHTO  H125 4428   8.024   7.969   1.254  1.5057 -0.4186  0.6385
   11CHTO   C72 4429   8.061   7.753   1.306  0.6894  0.2223 -0.3185
   11CHTO   O48 4430   8.162   7.757   1.204  0.3122 -0.3865  0.2203
   11CHTO  H105 4431   8.197   7.842   1.183 -1.0453 -0.1215 -0.9731
   11CHTO   O38 4432   7.675   7.859   1.090 -0.4204  0.2029 -0.2134
   11CHTO   C55 4433   7.680   7.784   0.969 -0.3957  0.1879  1.1947
   11CHTO  H112 4434   7.787   7.775   0.947 -0.5314 -2.8801  1.4847
   11CHTO   C56 4435   7.596   7.849   0.851 -0.2755 -0.6863  0.7863
   11CHTO  H113 4436   7.494   7.862   0.891 -1.4204  0.4207 -2.2912
   11CHTO   O42 4437   7.650   7.980   0.820  0.5617 -0.7183 -0.0326
   11CHTO  H100 4438   7.628   8.041   0.888  1.7243 -1.3622  0.9293
   11CHTO   C57 4439   7.589   7.758   0.726 -0.2632  0.5288 -0.3560
   11CHTO  H114 4440   7.686   7.745   0.678 -0.2094  0.5941 -0.2633
   11CHTO   N10 4441   7.497   7.810   0.627 -0.2606 -0.2969  0.4946
   11CHTO  H106 4442   7.411   7.860   0.669 -0.1944  0.3031 -0.0770
   11CHTO  H107 4443   7.548   7.885   0.569 -0.4587 -0.3922  0.1998
   11CHTO   C58 4444   7.539   7.617   0.773  0.6877  0.7151  0.0318
   11CHTO  H115 4445   7.438   7.627   0.818  0.8105  0.2816  0.4100
   11CHTO   O37 4446   7.633   7.559   0.867  0.4837  0.2427  0.5517
   11CHTO   C59 4447   7.638   7.632   0.990  0.7586 -0.6428  0.1235
   11CHTO  H116 4448   7.544   7.623   1.044  0.4516 -1.3969 -0.5188
   11CHTO   C70 4449   7.742   7.569   1.081  0.3001 -0.0806 -0.4181
   11CHTO   O46 4450   7.867   7.544   1.012 -0.3207 -0.4322  0.1543
   11CHTO  H103 4451   7.893   7.456   1.028  0.1824 -0.3446 -0.1752
   11CHTO   O39 4452   7.528   7.500   0.669  0.4011  0.0881 -0.1651
   11CHTO   C60 4453   7.420   7.407   0.691  0.6627  0.4854 -0.2781
   11CHTO  H117 4454   7.381   7.427   0.791 -0.8237  1.5272 -1.0363
   11CHTO   C62 4455   7.308   7.424   0.586  0.5922 -0.4131 -0.3506
   11CHTO  H119 4456   7.275   7.527   0.611 -0.5150 -1.2703  1.8572
   11CHTO   O43 4457   7.367   7.419   0.454  0.5700  0.0613  0.4077
   11CHTO  H101 4458   7.414   7.500   0.446  2.1226 -0.7881  0.7694
   11CHTO   C66 4459   7.181   7.331   0.609 -0.3398 -0.0109 -0.3272
   11CHTO  H123 4460   7.146   7.357   0.709 -1.0274 -0.0298 -0.5572
   11CHTO   N12 4461   7.072   7.349   0.510 -0.5576 -0.0792 -0.2049
   11CHTO  H110 4462   7.043   7.453   0.518 -2.6774 -0.6837  0.3538
   11CHTO  H111 4463   7.107   7.332   0.410 -0.1944  2.5581 -0.5816
   11CHTO   C69 4464   7.221   7.182   0.621  0.2851 -0.7090 -0.3694
   11CHTO  H126 4465   7.246   7.140   0.521 -0.2462 -0.1558 -0.7353
   11CHTO   O41 4466   7.336   7.170   0.724 -0.4532 -0.2078 -0.3829
   11CHTO   C64 4467   7.462   7.258   0.686 -1.1066 -0.3675  0.2867
   11CHTO  H121 4468   7.506   7.223   0.590 -1.6171  1.8095 -0.7709
   11CHTO   C71 4469   7.575   7.240   0.788  0.8893  0.1652 -0.5215
   11CHTO   O47 4470   7.531   7.247   0.924  0.5838 -0.4203  0.0238
   11CHTO  H104 4471   7.575   7.177   0.969  4.2078  1.9624  0.3875
   11CHTO   O34 4472   7.117   7.104   0.677 -0.0360  0.2457  0.4789
   11CHTO   C49 4473   7.059   6.973   0.707  0.3762  0.0833 -0.3886
   11CHTO   H91 4474   7.141   6.901   0.717  0.8702  0.2901 -2.6312
   11CHTO   C47 4475   6.973   6.926   0.583  0.0120  0.1541  0.0010
   11CHTO   H89 4476   6.926   6.828   0.605  0.0256  0.4360  1.3469
   11CHTO   O33 4477   7.051   6.922   0.460  0.1085  0.5682  0.3711
   11CHTO   H70 4478   7.101   6.843   0.457  0.5312  0.8579 -0.3589
   11CHTO   C45 4479   6.849   7.037   0.576  0.2994  0.7446  0.1414
   11CHTO   H87 4480   6.896   7.136   0.565  1.6311 -0.0402 -1.4802
   11CHTO    N8 4481   6.767   7.017   0.452  1.1057 -0.0087  0.5966
   11CHTO   H75 4482   6.694   6.939   0.463  1.7458 -0.8913 -1.2594
   11CHTO   H76 4483   6.718   7.107   0.417  1.3957  0.2922  0.9569
   11CHTO   C43 4484   6.764   7.018   0.711 -0.2813  0.6628  0.1754
   11CHTO   H85 4485   6.682   7.089   0.703 -0.2103  0.9495  1.8986
   11CHTO   O29 4486   6.852   7.052   0.816 -0.0147  0.5377 -0.4616
   11CHTO   C50 4487   6.981   6.988   0.837 -0.0802 -0.1745  0.1795
   11CHTO   H92 4488   7.042   7.044   0.909 -0.8743  0.7628  0.1230
   11CHTO   C54 4489   6.964   6.848   0.909 -0.5635 -0.1115 -0.0052
   11CHTO   O36 4490   6.881   6.852   1.025  0.1911 -0.1934 -0.4969
   11CHTO   H72 4491   6.931   6.814   1.095 -4.1246 -0.9632  2.3171
   11CHTO   O27 4492   6.709   6.886   0.725  0.1518  0.1086 -0.3903
   11CHTO   C37 4493   6.638   6.786   0.801  0.9117  0.3196 -0.0824
   11CHTO   H79 4494   6.686   6.762   0.897  1.5065  0.5096 -0.3314
   11CHTO   C38 4495   6.492   6.841   0.833  0.0281 -0.6995 -0.0430
   11CHTO   H80 4496   6.451   6.889   0.743  1.6055  0.9376  0.0713
   11CHTO   O31 4497   6.500   6.938   0.939  0.0496  0.4075  0.3748
   11CHTO   H68 4498   6.524   7.019   0.898  2.5000 -0.6522 -0.3777
   11CHTO   C39 4499   6.383   6.732   0.883  0.3304  0.3079  0.2506
   11CHTO   H81 4500   6.411   6.708   0.986  0.2002 -2.5254 -0.3329
   11CHTO    N7 4501   6.246   6.778   0.888 -0.6367  0.1717 -0.1878
   11CHTO   H73 4502   6.220   6.852   0.813 -1.3973 -0.3626 -0.4485
   11CHTO   H74 4503   6.178   6.695   0.885  1.3880 -1.5193 -0.8480
   11CHTO   C40 4504   6.406   6.602   0.799  0.5159  0.1484  0.9491
   11CHTO   H82 4505   6.350   6.602   0.705 -0.8921  1.4140  1.7513
   11CHTO   O26 4506   6.543   6.561   0.775 -0.7055  0.5154 -0.2512
   11CHTO   C41 4507   6.624   6.659   0.713 -0.3444 -0.1898 -1.2431
   11CHTO   H83 4508   6.589   6.689   0.613  0.2636  0.5812 -1.2261
   11CHTO   C52 4509   6.761   6.595   0.706 -1.2679 -0.0132  0.6381
   11CHTO   O35 4510   6.767   6.493   0.598 -0.2482  0.2986 -0.8629
   11CHTO   H71 4511   6.850   6.453   0.619 -0.5386  0.7399  1.2334
   11CHTO   O28 4512   6.361   6.493   0.883 -0.6091 -0.0725 -0.2576
   11CHTO   C42 4513   6.291   6.376   0.832 -0.1293 -0.4617 -0.3847
   11CHTO   H84 4514   6.328   6.375   0.729  0.7792  1.0650 -0.0962
   11CHTO   C44 4515   6.133   6.384   0.829 -1.0496  0.1717 -0.4184
   11CHTO   H86 4516   6.097   6.389   0.932  0.2292 -1.9240  0.1694
   11CHTO   O32 4517   6.101   6.497   0.752  0.0140 -0.3292 -0.0370
   11CHTO   H69 4518   6.013   6.520   0.775 -0.1857  1.1006 -2.1288
   11CHTO   C48 4519   6.077   6.255   0.775 -0.2539  0.5567  0.4300
   11CHTO   H90 4520   6.104   6.252   0.669  0.1862  1.0693  0.5252
   11CHTO    N9 4521   5.929   6.235   0.776 -0.6115  0.0778  0.2924
   11CHTO   H77 4522   5.899   6.265   0.876 -2.4219 -0.1982 -0.1545
   11CHTO   H78 4523   5.894   6.302   0.699  0.5748 -0.5717 -0.8209
   11CHTO   C51 4524   6.145   6.130   0.855  0.1265 -0.6006  0.2859
   11CHTO   H93 4525   6.116   6.141   0.960 -1.5140 -0.2324 -0.1907
   11CHTO   O30 4526   6.282   6.124   0.843  0.0847 -0.3002  0.0849
   11CHTO   C46 4527   6.341   6.243   0.904  0.2259 -0.5257 -0.2142
   11CHTO   H88 4528   6.316   6.237   1.010  0.6035 -1.7568 -0.1839
   11CHTO   C53 4529   6.493   6.216   0.887  0.1747 -0.4626 -0.3099
   11CHTO   O72 4530   6.536   6.202   0.756 -0.1895 -0.6560  0.1345
   11CHTO  H199 4531   6.558   6.286   0.721  0.2358 -0.3114  1.1882
   11CHTO   O22 4532   6.112   6.004   0.795  0.1029  0.2954 -0.1621
   11CHTO   C31 4533   6.096   5.896   0.881  0.0678  0.8350 -0.0291
   11CHTO   H59 4534   6.133   5.930   0.979 -1.2945  0.5629  0.5885
   11CHTO   C29 4535   5.947   5.864   0.903  0.1596  0.4143 -0.1471
   11CHTO   H57 4536   5.899   5.830   0.810 -2.3042 -0.0528  1.2687
   11CHTO   O21 4537   5.882   5.986   0.945 -0.0430  0.4227  0.5234
   11CHTO   H37 4538   5.837   6.036   0.879 -0.6441  1.0574  1.3951
   11CHTO   C27 4539   5.931   5.748   1.010  0.2041  0.2671 -0.2010
   11CHTO   H55 4540   5.960   5.786   1.109  0.6676 -0.8938  0.1102
   11CHTO    N5 4541   5.790   5.697   1.023 -1.1020 -0.0374 -0.5612
   11CHTO   H43 4542   5.777   5.672   1.128  1.2707  2.7123  0.4452
   11CHTO   H44 4543   5.782   5.608   0.963 -1.0408 -1.4873  1.5123
   11CHTO   C25 4544   6.034   5.635   0.974  0.0178  0.2650  0.1666
   11CHTO   H53 4545   5.999   5.600   0.876 -0.6584  1.1607  0.0934
   11CHTO   O17 4546   6.173   5.685   0.953  0.1170  0.3866 -0.0879
   11CHTO   C32 4547   6.177   5.769   0.842 -0.1906  0.4891 -0.1684
   11CHTO   H60 4548   6.132   5.726   0.753  0.8130 -3.6608  1.2244
   11CHTO   C36 4549   6.332   5.806   0.814 -0.0316  0.1252 -0.0358
   11CHTO   O25 4550   6.345   5.846   0.681 -0.1910 -0.4421  0.3798
   11CHTO   H40 4551   6.313   5.934   0.676 -2.5297 -1.2006  1.1450
   11CHTO   O15 4552   6.043   5.523   1.072  0.0058 -0.1812 -0.0564
   11CHTO   C19 4553   5.996   5.392   1.111  0.5620  0.0887 -0.5939
   11CHTO   H47 4554   6.092   5.348   1.139  0.3542  0.5938  0.9179
   11CHTO   C20 4555   5.893   5.395   1.228 -0.3130  0.1551 -0.0564
   11CHTO   H48 4556   5.833   5.487   1.221  0.9522  0.9110 -1.4434
   11CHTO   O19 4557   5.970   5.423   1.345 -0.1766  0.2230 -0.3341
   11CHTO   H35 4558   6.000   5.341   1.380  1.5243 -0.0536 -2.3345
   11CHTO   C21 4559   5.803   5.268   1.247  0.6487 -0.2496  1.0494
   11CHTO   H49 4560   5.848   5.191   1.310 -1.7392 -1.8791  0.7943
   11CHTO    N4 4561   5.681   5.289   1.334  0.0027 -0.0064 -0.3953
   11CHTO   H41 4562   5.696   5.318   1.437  0.8870 -1.5687 -0.0668
   11CHTO   H42 4563   5.618   5.359   1.280  1.9153  1.2729 -1.0246
   11CHTO   C22 4564   5.760   5.214   1.107 -0.0145 -0.1853  0.9251
   11CHTO   H50 4565   5.702   5.288   1.052 -0.6850 -2.1692 -1.1287
   11CHTO   O14 4566   5.881   5.188   1.036 -0.0962  0.1332  0.1678
   11CHTO   C23 4567   5.939   5.311   0.985 -0.7949  0.6169  0.4823
   11CHTO   H51 4568   5.867   5.368   0.925  0.1512 -0.7072 -1.9958
   11CHTO   C34 4569   6.056   5.271   0.888  0.5754 -0.3967 -0.3269
   11CHTO   O23 4570   6.107   5.392   0.826  0.0854 -0.3551  0.3452
   11CHTO   H38 4571   6.201   5.396   0.830  0.0622  0.3087  0.1425
   11CHTO   O16 4572   5.696   5.086   1.085  0.0008 -0.3563 -0.5045
   11CHTO   C24 4573   5.601   5.085   0.951 -0.1634  0.5060  0.2175
   11CHTO   H52 4574   5.633   5.162   0.881  3.0973 -0.8282  0.1417
   11CHTO   C26 4575   5.454   5.094   0.989 -0.3428 -0.0625 -1.1189
   11CHTO   H54 4576   5.434   5.016   1.066  0.7395  0.4694 -0.2787
   11CHTO   O20 4577   5.423   5.220   1.057 -0.2630  0.1708  0.2689
   11CHTO   H36 4578   5.331   5.233   1.039 -0.4691 -1.1521  0.3332
   11CHTO   C30 4579   5.363   5.067   0.871  0.6979 -0.4687 -0.1505
   11CHTO   H58 4580   5.367   5.155   0.805  1.4677  1.4072  2.3444
   11CHTO    N6 4581   5.221   5.059   0.918  0.1631 -0.1992 -0.3936
   11CHTO   H45 4582   5.201   5.156   0.961 -0.8088  0.0439 -1.3779
   11CHTO   H46 4583   5.211   4.984   0.995  0.4789  2.2188  2.0605
   11CHTO   C33 4584   5.400   4.941   0.788 -0.0442 -0.5378  0.8408
   11CHTO   H61 4585   5.359   4.849   0.834 -0.4181 -1.4919 -1.3574
   11CHTO   O18 4586   5.547   4.929   0.773  0.3394  0.5198  0.0967
   11CHTO   C28 4587   5.633   4.948   0.884  0.0982  0.0096 -0.4341
   11CHTO   H56 4588   5.615   4.867   0.955 -1.4042 -0.8530 -1.7499
   11CHTO   C35 4589   5.772   4.948   0.819  0.2153  0.0999 -0.1681
   11CHTO   O24 4590   5.877   4.935   0.911  0.8812  0.2852 -0.1449
   11CHTO   H39 4591   5.912   5.022   0.910  2.0269 -0.1524  0.9382
   11CHTO    O9 4592   5.334   4.952   0.661 -0.2341  0.0631 -0.1422
   11CHTO   C13 4593   5.400   5.057   0.556  0.7649 -0.1235  0.1108
   11CHTO   H26 4594   5.479   5.115   0.608 -0.5534 -0.0292  2.0624
   11CHTO   C11 4595   5.294   5.157   0.498  0.4124  0.4676  0.5510
   11CHTO   H24 4596   5.253   5.210   0.585  1.1806  1.1490  0.5078
   11CHTO    O8 4597   5.195   5.086   0.423  0.1787  0.2289  0.5188
   11CHTO    H3 4598   5.144   5.023   0.471 -0.1241 -0.0083 -0.1120
   11CHTO    C9 4599   5.372   5.258   0.416 -0.9224 -0.9384 -0.4575
   11CHTO   H22 4600   5.429   5.324   0.484  1.3700 -0.1995 -3.0077
   11CHTO    N2 4601   5.284   5.348   0.338 -0.2095  0.0813 -0.3348
   11CHTO   H10 4602   5.337   5.435   0.302 -0.0384  0.3475  0.5627
   11CHTO   H11 4603   5.203   5.313   0.275 -0.3247  1.6816 -1.1013
   11CHTO    C7 4604   5.487   5.191   0.324 -0.1824 -0.9544  0.0657
   11CHTO   H20 4605   5.581   5.200   0.383 -0.0711 -0.9422 -0.1168
   11CHTO    O4 4606   5.472   5.047   0.315  0.5268 -0.3151  0.6732
   11CHTO   C14 4607   5.478   4.976   0.441 -0.1952 -0.9291  0.1640
   11CHTO   H27 4608   5.581   4.946   0.472 -0.5796 -2.6617 -0.1626
   11CHTO   C18 4609   5.409   4.845   0.401 -0.4417 -0.5228 -0.6562
   11CHTO   O13 4610   5.497   4.773   0.311  0.0484 -0.2282 -0.2159
   11CHTO    H7 4611   5.500   4.818   0.229 -2.8955  1.6885  0.6781
   11CHTO    O2 4612   5.507   5.259   0.169  0.0979 -0.6157  0.3413
   11CHTO    C1 4613   5.607   5.362   0.163  0.2113 -0.5021  0.3266
   11CHTO   H14 4614   5.658   5.377   0.260 -0.6144  0.1368  0.6660
   11CHTO    C2 4615   5.562   5.512   0.116 -0.0248  0.1635 -1.1532
   11CHTO   H15 4616   5.514   5.497   0.018 -2.9966  1.6768 -0.0192
   11CHTO    O6 4617   5.468   5.557   0.218  0.4234 -0.1186  0.6631
   11CHTO    H1 4618   5.387   5.510   0.208 -0.9692  2.5997 -1.3682
   11CHTO    C3 4619   5.692   5.613   0.114 -0.1113  0.0216 -0.0218
   11CHTO   H16 4620   5.734   5.605   0.216  2.2727  1.5048 -0.8606
   11CHTO    N1 4621   5.660   5.756   0.087 -0.5485 -0.0465 -0.3131
   11CHTO    H8 4622   5.570   5.777   0.143 -0.6775 -0.8883 -0.1966
   11CHTO    H9 4623   5.658   5.781  -0.018  2.0549  1.6769  0.0029
   11CHTO    C4 4624   5.796   5.541   0.022  0.3930 -0.6854  0.4714
   11CHTO   H17 4625   5.757   5.544  -0.080 -1.9700  2.0246  1.3943
   11CHTO    O1 4626   5.827   5.409   0.068 -0.2212 -0.0882 -0.2212
   11CHTO    C5 4627   5.720   5.309   0.073 -0.0816  0.3124 -0.1283
   11CHTO   H18 4628   5.685   5.282  -0.027  2.0483 -0.8665 -0.5654
   11CHTO   C16 4629   5.794   5.192   0.136 -0.1376  0.0624  0.3157
   11CHTO   O11 4630   5.905   5.138   0.059 -0.2697  0.1281  0.8900
   11CHTO    H5 4631   5.965   5.206   0.032 -1.7962  1.2735  0.3048
   11CHTO    O3 4632   5.922   5.607   0.035 -0.5974 -0.3472 -0.0654
   11CHTO    C6 4633   5.994   5.622  -0.096  0.0106 -0.6332  0.5197
   11CHTO   H19 4634   5.956   5.554  -0.172 -1.7519  1.1987 -0.2628
   11CHTO    C8 4635   5.967   5.767  -0.160 -0.1652  0.1752 -0.7998
   11CHTO   H21 4636   5.987   5.841  -0.082 -0.4295  0.0635 -0.6267
   11CHTO    O7 4637   5.827   5.770  -0.194 -0.5102  0.2878  0.0660
   11CHTO    H2 4638   5.791   5.841  -0.244 -0.2335  1.1614  1.0894
   11CHTO   C12 4639   6.072   5.787  -0.280 -0.4572 -0.2832  0.4190
   11CHTO   H25 4640   6.039   5.721  -0.363  0.3177  0.7468 -0.7366
   11CHTO    N3 4641   6.065   5.932  -0.336  0.1022  0.3486 -0.4296
   11CHTO   H12 4642   6.088   5.999  -0.254 -0.9120  2.0033 -1.4717
   11CHTO   H13 4643   5.967   5.949  -0.378 -0.2229 -2.4295 -0.9375
   11CHTO   C15 4644   6.212   5.740  -0.234 -0.1297 -0.3818 -0.7118
   11CHTO   H28 4645   6.248   5.802  -0.152 -1.2015 -1.6455  0.7508
   11CHTO   O10 4646   6.310   5.735  -0.345 -0.3894 -0.5982  0.1348
   11CHTO    H4 4647   6.372   5.803  -0.328  0.2046 -1.2787  0.7125
   11CHTO    O5 4648   6.209   5.602  -0.195 -0.1239  0.0169  0.2237
   11CHTO   C10 4649   6.141   5.581  -0.072 -0.2305  0.6416 -0.2227
   11CHTO   H23 4650   6.194   5.630   0.010  1.1022 -0.1684 -0.5937
   11CHTO   C17 4651   6.162   5.436  -0.040  0.1051  0.6709  0.2482
   11CHTO   O12 4652   6.084   5.351  -0.120  0.1618 -0.1802  0.1775
   11CHTO    H6 4653   6.114   5.264  -0.105  0.3015 -0.1337  0.1642
   12CHTO  H203 4654   5.957  12.106  -0.245 -0.4160 -0.4388  2.0352
   12CHTO   O82 4655   5.968  12.013  -0.235 -0.1689 -0.5205  1.0711
   12CHTO  C123 4656   5.897  11.946  -0.132  0.6256  0.2355  0.1105
   12CHTO  H227 4657   5.888  12.010  -0.042  1.5797  1.9998 -1.0144
   12CHTO   O77 4658   5.760  11.925  -0.191 -0.2889 -0.1223  0.0518
   12CHTO  C118 4659   5.673  11.869  -0.093  0.8947  0.4311 -0.0744
   12CHTO  H222 4660   5.678  11.930  -0.001  3.3247  1.4937 -0.8634
   12CHTO  C125 4661   5.530  11.875  -0.151 -0.1081  0.3092 -0.4112
   12CHTO   O84 4662   5.498  12.010  -0.180  0.1256 -0.5252 -0.2779
   12CHTO  H205 4663   5.538  12.071  -0.120  2.2128 -3.7439  1.7926
   12CHTO  C114 4664   5.714  11.722  -0.058 -0.0836 -0.4343  0.5649
   12CHTO  H218 4665   5.709  11.664  -0.150  2.6710  0.1652 -0.0041
   12CHTO  C116 4666   5.864  11.715  -0.010 -0.2930 -0.2515 -0.2153
   12CHTO  H220 4667   5.871  11.751   0.095  1.8479 -0.4976 -0.2645
   12CHTO   O79 4668   5.911  11.579   0.002  0.0481 -0.5011 -0.7605
   12CHTO  H201 4669   5.847  11.524  -0.039 -1.4209 -0.0948  0.9716
   12CHTO  C120 4670   5.959  11.802  -0.104  0.0872 -0.2656  0.1162
   12CHTO  H224 4671   5.983  11.752  -0.200 -0.2585 -2.4706  1.1550
   12CHTO   N21 4672   6.089  11.818  -0.033  0.3996 -0.3821  0.0907
   12CHTO  H211 4673   6.174  11.816  -0.100  2.2538 -1.4678  2.3805
   12CHTO  H212 4674   6.103  11.742   0.043 -2.0858 -3.0562 -2.0009
   12CHTO   O75 4675   5.620  11.672   0.033  0.0385 -0.3425 -0.2674
   12CHTO  C112 4676   5.553  11.534  -0.014  0.6968  0.1035 -0.5453
   12CHTO  H216 4677   5.620  11.482  -0.085  1.8028 -0.6088  0.9956
   12CHTO   O73 4678   5.422  11.563  -0.070  0.1299 -0.3133 -0.4155
   12CHTO  C113 4679   5.353  11.450  -0.115 -1.1749  0.1619 -0.6060
   12CHTO  H217 4680   5.417  11.403  -0.193 -0.8721  0.2380 -0.4058
   12CHTO  C124 4681   5.233  11.506  -0.197 -0.4828  0.0004 -0.8275
   12CHTO   O83 4682   5.139  11.569  -0.108  0.2805 -0.4828  0.2180
   12CHTO  H204 4683   5.144  11.659  -0.132  2.1534 -1.0407 -1.5536
   12CHTO  C109 4684   5.323  11.349   0.006  0.1837  0.2887  0.2389
   12CHTO  H213 4685   5.262  11.408   0.076 -3.6064 -1.7536 -1.2509
   12CHTO  C110 4686   5.456  11.305   0.072 -0.0616 -0.5813  0.2274
   12CHTO  H214 4687   5.508  11.255  -0.009  1.9828 -0.8565  1.6839
   12CHTO   O78 4688   5.446  11.210   0.182  0.1326  0.7282 -0.4796
   12CHTO  H200 4689   5.393  11.248   0.249 -0.1981 -0.6398  0.0443
   12CHTO  C111 4690   5.540  11.432   0.111  0.0276  0.4016 -0.3586
   12CHTO  H215 4691   5.497  11.482   0.199  0.6017 -0.6499  0.5314
   12CHTO   N19 4692   5.686  11.393   0.146 -0.1999 -0.1933  0.2614
   12CHTO  H207 4693   5.738  11.463   0.210 -1.4147  1.3395 -0.4036
   12CHTO  H208 4694   5.673  11.297   0.195 -2.2526  1.0147  2.2123
   12CHTO   O74 4695   5.250  11.237  -0.045 -0.0868 -0.6348 -0.2274
   12CHTO  C115 4696   5.175  11.117   0.095  0.6783  0.2140  0.1441
   12CHTO  H219 4697   5.231  11.127   0.188 -0.2693 -0.7663  0.8321
   12CHTO   O76 4698   5.027  11.162   0.130  0.3288 -0.5203 -0.2943
   12CHTO  C122 4699   4.931  11.073   0.187  0.1588  0.5524 -0.1167
   12CHTO  H226 4700   4.837  11.117   0.156 -0.4315 -0.8078 -0.2988
   12CHTO  C126 4701   4.929  11.081   0.343 -0.2646 -0.1432  0.1893
   12CHTO   O85 4702   5.048  11.062   0.415 -0.3147 -0.1701 -0.0180
   12CHTO  H206 4703   5.058  11.130   0.480  1.7113 -1.8459  1.5016
   12CHTO  C121 4704   4.948  10.922   0.139  0.8555 -0.1546 -0.3755
   12CHTO  H225 4705   4.896  10.852   0.208  0.2291 -0.4384 -1.1354
   12CHTO   O81 4706   4.887  10.906   0.008 -0.5014 -0.2072  0.0825
   12CHTO  H202 4707   4.853  10.984  -0.032  1.5241  1.1667  0.9569
   12CHTO  C119 4708   5.100  10.882   0.132  0.0807  0.1858 -0.7557
   12CHTO  H223 4709   5.139  10.903   0.232  0.6987  0.5321 -1.0671
   12CHTO  C117 4710   5.182  10.975   0.032  0.2803 -0.4488  0.0589
   12CHTO  H221 4711   5.137  10.989  -0.067  1.8814 -2.2179 -0.9363
   12CHTO   N20 4712   5.331  10.931   0.012  0.4380 -0.6417  0.3982
   12CHTO  H209 4713   5.331  10.837  -0.042  0.2238 -0.6837  0.4723
   12CHTO  H210 4714   5.362  10.914   0.114  1.2738 -2.3822 -0.1269
   12CHTO   O80 4715   5.122  10.728   0.127  0.4297 -0.0424  0.1693
   12CHTO  C103 4716   5.007  10.610   0.051  0.1384  0.0322 -0.2177
   12CHTO  H190 4717   4.910  10.659   0.055  0.9406  1.8352 -1.9409
   12CHTO  C101 4718   5.025  10.570  -0.100 -0.0190 -0.4111 -0.3982
   12CHTO  H188 4719   5.127  10.532  -0.109  0.5235  1.1340 -1.0443
   12CHTO   O68 4720   5.002  10.704  -0.196 -0.0406 -0.6630 -0.3444
   12CHTO  H168 4721   5.042  10.699  -0.280 -0.1020  1.7870 -0.5685
   12CHTO   C99 4722   4.914  10.458  -0.134  0.1041  0.2747 -0.5459
   12CHTO  H186 4723   4.811  10.496  -0.118  0.5568  0.7768  1.4044
   12CHTO   N17 4724   4.927  10.408  -0.276  0.5458  0.2986  0.2673
   12CHTO  H174 4725   4.981  10.479  -0.337 -0.3559  1.2152  0.5093
   12CHTO  H175 4726   4.975  10.312  -0.274  1.6329  0.7902 -1.2498
   12CHTO   C97 4727   4.920  10.339  -0.040 -0.1518 -0.0800  0.9235
   12CHTO  H184 4728   5.014  10.289  -0.066 -0.9981  0.2421 -3.1142
   12CHTO   O64 4729   4.915  10.387   0.097  0.5313  0.8824  0.0594
   12CHTO  C104 4730   5.002  10.486   0.150  0.3277  0.4160 -0.3332
   12CHTO  H191 4731   5.102  10.444   0.155 -0.1196 -0.9752 -2.2832
   12CHTO  C108 4732   4.954  10.519   0.297 -0.4482  0.0426  0.6103
   12CHTO   O71 4733   4.840  10.600   0.288 -0.0391  0.0929  0.6399
   12CHTO  H171 4734   4.790  10.597   0.367 -0.7761 -0.5206  0.1524
   12CHTO   O62 4735   4.808  10.254  -0.041 -0.0065 -0.9281 -0.2182
   12CHTO   C91 4736   4.787  10.133   0.033 -0.5195  0.5045 -0.3066
   12CHTO  H178 4737   4.869  10.125   0.104 -2.2763 -1.4044  1.5901
   12CHTO   C92 4738   4.782  10.017  -0.068  0.5557 -0.0569 -0.1579
   12CHTO  H179 4739   4.708  10.029  -0.148  0.2933 -0.8455 -0.0379
   12CHTO   O66 4740   4.913  10.018  -0.121 -0.3311  0.0562 -0.2690
   12CHTO  H166 4741   4.927   9.938  -0.167 -1.0268  0.2096 -0.7681
   12CHTO   C93 4742   4.743   9.881   0.006 -0.4400  0.1828 -0.0099
   12CHTO  H180 4743   4.835   9.846   0.056  0.6948 -0.2016 -2.2907
   12CHTO   N16 4744   4.714   9.763  -0.082  0.0449 -0.0915  0.3803
   12CHTO  H172 4745   4.680   9.688  -0.013 -2.8714 -0.1717 -1.0591
   12CHTO  H173 4746   4.799   9.733  -0.141  0.4825  3.3249 -0.8611
   12CHTO   C94 4747   4.628   9.898   0.111 -0.2246 -0.5622  0.5204
   12CHTO  H181 4748   4.532   9.920   0.066 -0.8854 -0.5168  1.9193
   12CHTO   O61 4749   4.651  10.005   0.198 -0.2619  0.5495 -0.0128
   12CHTO   C95 4750   4.656  10.129   0.129  0.2332  0.7500  1.1039
   12CHTO  H182 4751   4.562  10.139   0.074  1.1368 -1.0295 -0.8111
   12CHTO  C106 4752   4.660  10.238   0.238 -0.0638  0.0169 -0.0764
   12CHTO   O69 4753   4.660  10.367   0.182 -0.6314 -0.5032  0.0561
   12CHTO  H169 4754   4.717  10.364   0.108  0.6467 -0.3680  1.0238
   12CHTO   O63 4755   4.608   9.765   0.207  0.4121 -0.2938 -1.8284
   12CHTO   C96 4756   4.695   9.753   0.350 -0.5520  1.0314 -0.1704
   12CHTO  H183 4757   4.715   9.859   0.368  2.3014  1.0849 -3.1041
   12CHTO   C98 4758   4.831   9.683   0.348 -0.5647  0.2028  0.6612
   12CHTO  H185 4759   4.822   9.585   0.299 -0.8700 -0.4784  2.0719
   12CHTO   O67 4760   4.925   9.761   0.272 -0.0474 -0.1658 -0.7553
   12CHTO  H167 4761   4.904   9.853   0.273  0.5591 -0.0267  1.4592
   12CHTO  C102 4762   4.890   9.662   0.493 -0.7659 -0.2247  0.2069
   12CHTO  H189 4763   4.918   9.757   0.541  0.3201 -0.5949  0.3157
   12CHTO   N18 4764   5.014   9.580   0.506 -0.0625 -0.0992  0.6129
   12CHTO  H176 4765   5.093   9.638   0.462  0.2556 -0.3275  0.8842
   12CHTO  H177 4766   5.006   9.481   0.462  2.5323  1.1438 -2.8888
   12CHTO  C105 4767   4.779   9.596   0.578  0.1860  0.6828 -0.5929
   12CHTO  H192 4768   4.762   9.499   0.532  1.9719 -0.4005  0.9555
   12CHTO   O65 4769   4.665   9.674   0.582  0.1516  0.0984 -0.1409
   12CHTO  C100 4770   4.596   9.687   0.454 -0.3473 -0.8294 -0.2132
   12CHTO  H187 4771   4.563   9.586   0.426 -1.0329  0.3979 -4.1320
   12CHTO  C107 4772   4.468   9.773   0.482  0.0421  0.8541  0.1290
   12CHTO   O70 4773   4.500   9.910   0.506 -0.0297  0.2406  0.6173
   12CHTO  H170 4774   4.432   9.971   0.484  0.5422  0.4900 -0.4708
   12CHTO   O57 4775   4.829   9.581   0.733  0.1248 -0.1936 -0.7194
   12CHTO   C85 4776   4.779   9.490   0.829  0.3534 -0.5930  0.0797
   12CHTO  H157 4777   4.700   9.436   0.772 -1.1296  3.5564 -1.9909
   12CHTO   C83 4778   4.716   9.570   0.942  0.0624 -0.3798  0.0778
   12CHTO  H155 4779   4.625   9.613   0.901  0.2581 -0.6363 -0.6271
   12CHTO   O56 4780   4.805   9.684   0.977  0.4700  0.1556 -0.0684
   12CHTO  H135 4781   4.891   9.686   0.942  0.8319 -0.1510  0.7881
   12CHTO   C81 4782   4.681   9.470   1.060 -0.1958  0.6838 -0.0499
   12CHTO  H153 4783   4.614   9.395   1.019 -0.1395  1.2338 -1.1628
   12CHTO   N14 4784   4.601   9.532   1.169 -0.3925  0.3617  0.2131
   12CHTO  H141 4785   4.657   9.572   1.252  0.9757  0.6489 -0.8423
   12CHTO  H142 4786   4.524   9.597   1.131  0.8770  1.0841 -1.1685
   12CHTO   C79 4787   4.808   9.396   1.109  0.5151 -0.2877 -0.2811
   12CHTO  H151 4788   4.779   9.315   1.177 -0.2776  1.1009  1.0839
   12CHTO   O52 4789   4.869   9.320   0.999 -0.9350  0.0586  0.1861
   12CHTO   C86 4790   4.894   9.395   0.880 -1.1590  0.8837 -0.2183
   12CHTO  H158 4791   4.978   9.460   0.914 -1.1318  1.2201 -0.9186
   12CHTO   C90 4792   4.944   9.304   0.767  0.3763  0.3859 -0.2517
   12CHTO   O60 4793   4.847   9.212   0.711 -0.0026 -0.7780 -0.5026
   12CHTO  H138 4794   4.850   9.134   0.762  0.5254 -0.6236 -0.2962
   12CHTO   O50 4795   4.915   9.481   1.169  0.1965 -0.0914 -0.2363
   12CHTO   C73 4796   4.996   9.509   1.280 -0.6369  0.4121 -0.3200
   12CHTO  H145 4797   4.949   9.474   1.373 -1.3134 -0.0328 -0.8308
   12CHTO   C74 4798   5.011   9.670   1.293 -0.5063 -0.3000 -0.0502
   12CHTO  H146 4799   4.909   9.709   1.301 -0.6609 -0.2816 -1.8695
   12CHTO   O54 4800   5.087   9.699   1.413  0.1128 -0.2459  0.0843
   12CHTO  H133 4801   5.030   9.723   1.484  0.2776  2.0691 -0.5299
   12CHTO   C75 4802   5.084   9.716   1.161 -0.4317  0.2963  0.0970
   12CHTO  H147 4803   5.020   9.695   1.074 -0.7638  0.2842  0.3393
   12CHTO   N13 4804   5.108   9.862   1.145  0.1412 -0.2061  0.1924
   12CHTO  H139 4805   5.187   9.888   1.213 -0.4495 -4.4392  2.6945
   12CHTO  H140 4806   5.135   9.879   1.041  0.2428  1.1635  0.4316
   12CHTO   C76 4807   5.221   9.631   1.131  0.7379 -0.1336 -0.4691
   12CHTO  H148 4808   5.286   9.662   1.213  1.6382  1.2255 -1.6730
   12CHTO   O49 4809   5.188   9.490   1.129  0.1439  0.2858 -0.2727
   12CHTO   C77 4810   5.136   9.446   1.259 -0.4590  0.2661  0.1342
   12CHTO  H149 4811   5.202   9.473   1.341  0.2891 -1.4523  0.1372
   12CHTO   C88 4812   5.125   9.297   1.248  0.4144  0.6303  0.5106
   12CHTO   O58 4813   5.242   9.225   1.254 -0.2889 -0.0758 -0.9828
   12CHTO  H136 4814   5.290   9.232   1.174 -1.5303  0.2095 -1.7177
   12CHTO   O51 4815   5.292   9.652   0.994  0.2509  0.1822 -0.2369
   12CHTO   C78 4816   5.436   9.602   0.970  0.3931  0.1922 -0.8023
   12CHTO  H150 4817   5.449   9.511   1.032 -1.6177 -0.0471 -0.6864
   12CHTO   C80 4818   5.537   9.712   1.013 -0.0692  0.2227  0.2394
   12CHTO  H152 4819   5.531   9.794   0.938 -0.5808  0.0101  0.0465
   12CHTO   O55 4820   5.509   9.756   1.143  0.3800  0.3270 -0.2198
   12CHTO  H134 4821   5.528   9.848   1.150 -2.4051  0.8275  2.1096
   12CHTO   C84 4822   5.679   9.659   1.007 -0.1011  0.1902 -0.1979
   12CHTO  H156 4823   5.687   9.578   1.079  1.9963 -1.7402 -2.5055
   12CHTO   N15 4824   5.780   9.764   1.045  0.5155 -0.4255  0.5750
   12CHTO  H143 4825   5.762   9.797   1.146 -1.5800  0.4436 -0.0426
   12CHTO  H144 4826   5.881   9.731   1.036  0.2985 -0.9841  0.2176
   12CHTO   C87 4827   5.720   9.590   0.869  0.1721  0.8018  0.1882
   12CHTO  H159 4828   5.738   9.668   0.794  0.5728  0.5625  0.0337
   12CHTO   O53 4829   5.592   9.498   0.808  0.2833 -0.0589 -1.2071
   12CHTO   C82 4830   5.462   9.567   0.825 -0.7428  0.3598 -0.2294
   12CHTO  H154 4831   5.461   9.659   0.766 -4.7780  1.0598  0.7751
   12CHTO   C89 4832   5.351   9.478   0.768  0.4252 -0.2249 -0.5818
   12CHTO   O59 4833   5.376   9.463   0.631 -0.2147  0.2123 -0.3235
   12CHTO  H137 4834   5.298   9.482   0.582 -1.3608  2.4841  2.2323
   12CHTO   O45 4835   5.849   9.496   0.884 -0.3090  0.4746  0.4569
   12CHTO   C67 4836   5.943   9.486   0.774  0.6074  0.0058 -0.1366
   12CHTO  H124 4837   6.018   9.414   0.808  1.7035  0.2228 -2.0346
   12CHTO   C65 4838   5.877   9.428   0.645 -0.2079 -0.3740 -0.3413
   12CHTO  H122 4839   5.788   9.380   0.686  0.6111 -0.7959  0.9504
   12CHTO   O44 4840   5.969   9.326   0.595  0.5063 -0.1284 -0.0506
   12CHTO  H102 4841   6.049   9.358   0.559  1.5692 -0.1086  2.2132
   12CHTO   C63 4842   5.838   9.540   0.541  0.5515 -0.0746 -0.8672
   12CHTO  H120 4843   5.770   9.609   0.590 -0.2181 -1.0202 -0.5787
   12CHTO   N11 4844   5.751   9.498   0.422  0.4139 -0.0222 -0.1059
   12CHTO  H108 4845   5.672   9.431   0.449  1.1087 -0.8807 -0.1589
   12CHTO  H109 4846   5.729   9.578   0.356 -0.4017  0.0414  0.2366
   12CHTO   C61 4847   5.981   9.605   0.499 -0.2519 -0.1432  0.3303
   12CHTO  H118 4848   5.957   9.705   0.459  1.0357  0.4576  1.0513
   12CHTO   O40 4849   6.077   9.623   0.611  0.2030 -0.4164  0.1405
   12CHTO   C68 4850   6.021   9.621   0.745 -0.2294 -0.2512  0.4782
   12CHTO  H125 4851   5.947   9.703   0.749 -0.9661 -0.9956  3.2280
   12CHTO   C72 4852   6.124   9.652   0.849  0.7729  0.2424  0.2648
   12CHTO   O48 4853   6.070   9.662   0.984  0.0777 -0.0315  0.4055
   12CHTO  H105 4854   6.013   9.737   0.985  2.6597  1.9591  2.1478
   12CHTO   O38 4855   6.057   9.521   0.405 -0.0180 -0.1965 -0.2971
   12CHTO   C55 4856   6.160   9.574   0.321  0.9361 -0.0930 -0.0225
   12CHTO  H112 4857   6.187   9.673   0.360  1.5191 -0.3509  0.2355
   12CHTO   C56 4858   6.112   9.577   0.168  0.0564  0.3607  0.6816
   12CHTO  H113 4859   6.094   9.470   0.152 -0.1253  0.8312 -2.5910
   12CHTO   O42 4860   5.979   9.649   0.172 -0.5433  0.1427 -0.2259
   12CHTO  H100 4861   5.948   9.667   0.085  0.8569 -0.8320 -0.9358
   12CHTO   C57 4862   6.241   9.636   0.088  0.3109 -0.6248  0.3445
   12CHTO  H114 4863   6.267   9.734   0.129  0.7957 -0.4766 -0.3238
   12CHTO   N10 4864   6.203   9.662  -0.053 -0.2963  0.6032 -0.0739
   12CHTO  H106 4865   6.126   9.590  -0.079 -0.0750  0.4045 -0.1853
   12CHTO  H107 4866   6.154   9.757  -0.042 -2.3391  0.0919 -3.8129
   12CHTO   C58 4867   6.363   9.537   0.102 -0.5377  0.1027 -0.5536
   12CHTO  H115 4868   6.340   9.434   0.068 -2.9873  0.3464  0.3133
   12CHTO   O37 4869   6.399   9.523   0.242  0.1043  0.2945 -0.4312
   12CHTO   C59 4870   6.291   9.487   0.327 -0.1926  0.2807  0.3618
   12CHTO  H116 4871   6.270   9.382   0.305 -0.5841  0.3381  0.4584
   12CHTO   C70 4872   6.358   9.482   0.462 -0.2203  0.1179 -0.4005
   12CHTO   O46 4873   6.280   9.423   0.564  0.3588  0.0922  0.0371
   12CHTO  H103 4874   6.206   9.382   0.523  0.6313  0.0581 -0.4302
   12CHTO   O39 4875   6.489   9.608   0.018 -0.2363  0.2867 -0.5413
   12CHTO   C60 4876   6.580   9.501  -0.000 -0.4697  0.5747  0.6881
   12CHTO  H117 4877   6.571   9.411   0.060  2.5308 -1.5517 -1.8799
   12CHTO   C62 4878   6.564   9.460  -0.148  0.1360 -0.4521 -0.0217
   12CHTO  H119 4879   6.459   9.429  -0.169  0.1892  1.1042 -2.7607
   12CHTO   O43 4880   6.587   9.570  -0.239  0.7697 -0.8531 -0.0919
   12CHTO  H101 4881   6.674   9.589  -0.268  0.7459  1.9609  1.5432
   12CHTO   C66 4882   6.662   9.332  -0.172  0.1728  0.4549  0.4894
   12CHTO  H123 4883   6.632   9.250  -0.106 -2.1801  0.4111 -0.5625
   12CHTO   N12 4884   6.640   9.292  -0.316 -0.0030 -0.2541 -0.2014
   12CHTO  H110 4885   6.640   9.185  -0.334 -0.3337 -0.1854 -0.5984
   12CHTO  H111 4886   6.721   9.336  -0.372  1.9959 -0.4732  2.4284
   12CHTO   C69 4887   6.808   9.372  -0.134 -0.6748 -0.5008 -0.2959
   12CHTO  H126 4888   6.843   9.446  -0.209  1.0277  2.0116  2.8974
   12CHTO   O41 4889   6.822   9.447  -0.002  0.5230  0.2748 -0.3731
   12CHTO   C64 4890   6.720   9.556   0.027 -0.4994  0.9320  0.2401
   12CHTO  H121 4891   6.735   9.646  -0.036  1.0458 -1.1255 -2.4766
   12CHTO   C71 4892   6.737   9.588   0.172  0.4299 -0.0126  0.6515
   12CHTO   O47 4893   6.684   9.718   0.194 -0.3284  0.1169  0.0932
   12CHTO  H104 4894   6.613   9.701   0.253 -1.4854  1.3782 -0.8941
   12CHTO   O34 4895   6.898   9.249  -0.141 -0.1478  0.5816 -0.0683
   12CHTO   C49 4896   7.042   9.206  -0.123  0.0046 -0.5623  0.1343
   12CHTO   H91 4897   7.074   9.190  -0.226 -2.4660  3.4475 -1.3621
   12CHTO   C47 4898   7.048   9.072  -0.049 -0.2733  0.1466  0.2368
   12CHTO   H89 4899   7.148   9.032  -0.078  0.3918  0.7660  1.5893
   12CHTO   O33 4900   6.946   8.982  -0.096 -0.6528 -0.1385  0.2364
   12CHTO   H70 4901   6.979   8.894  -0.096  0.0693  0.1313 -0.3814
   12CHTO   C45 4902   7.036   9.087   0.119 -0.5257 -0.1382 -0.7203
   12CHTO   H87 4903   6.932   9.057   0.141  0.0088 -0.0509  2.0853
   12CHTO    N8 4904   7.126   8.982   0.175  0.4499 -0.0780 -0.3422
   12CHTO   H75 4905   7.233   8.995   0.182  0.6400 -1.2032 -0.9915
   12CHTO   H76 4906   7.095   8.880   0.156 -0.5652  0.3265 -0.8696
   12CHTO   C43 4907   7.046   9.234   0.167 -0.4896  0.2209  0.9325
   12CHTO   H85 4908   6.954   9.288   0.145  0.6140  1.1284 -1.5940
   12CHTO   O29 4909   7.151   9.297   0.089 -0.3604 -0.2819 -0.1203
   12CHTO   C50 4910   7.131   9.310  -0.052  0.3539 -0.4060 -0.3793
   12CHTO   H92 4911   7.091   9.410  -0.074  0.2111 -0.3115  0.3015
   12CHTO   C54 4912   7.278   9.318  -0.113 -0.3306  0.7643  0.8223
   12CHTO   O36 4913   7.353   9.202  -0.079  0.0914 -0.6392  0.6677
   12CHTO   H72 4914   7.427   9.194  -0.135 -0.7109 -0.6593 -0.3929
   12CHTO   O27 4915   7.063   9.247   0.311  0.0465 -0.3595 -0.2255
   12CHTO   C37 4916   7.013   9.262   0.446  1.7485 -0.2440 -0.0869
   12CHTO   H79 4917   7.097   9.301   0.506  2.0381 -0.4123 -0.3856
   12CHTO   C38 4918   6.898   9.364   0.464 -0.2165 -0.1711 -0.1200
   12CHTO   H80 4919   6.824   9.340   0.387 -1.7268  0.3635  1.1403
   12CHTO   O31 4920   6.952   9.492   0.440 -0.7871  0.0227 -0.1422
   12CHTO   H68 4921   6.908   9.566   0.479 -1.9369 -0.9395  0.4068
   12CHTO   C39 4922   6.834   9.359   0.609 -0.3194  0.7246  0.4707
   12CHTO   H81 4923   6.912   9.388   0.679  0.6534 -0.7529  0.0032
   12CHTO    N7 4924   6.718   9.456   0.631  0.5924 -0.4188 -0.4125
   12CHTO   H73 4925   6.745   9.523   0.710  1.2045 -0.4942 -0.5560
   12CHTO   H74 4926   6.687   9.513   0.544  0.0003 -2.1923 -1.4090
   12CHTO   C40 4927   6.786   9.211   0.630  0.0232  0.1118  1.0508
   12CHTO   H82 4928   6.710   9.190   0.554 -0.0432 -0.6056  1.3120
   12CHTO   O26 4929   6.902   9.127   0.620  0.2699  0.5232 -0.2758
   12CHTO   C41 4930   6.971   9.127   0.495  0.2803  0.7015 -0.5965
   12CHTO   H83 4931   6.897   9.085   0.425 -0.3706  0.8002  0.0320
   12CHTO   C52 4932   7.089   9.035   0.524 -0.1434 -0.0215  0.4054
   12CHTO   O35 4933   7.052   8.906   0.580  0.4181 -0.2369  0.1686
   12CHTO   H71 4934   7.011   8.919   0.663  0.8186 -0.9784  0.4829
   12CHTO   O28 4935   6.748   9.174   0.762 -0.4138 -0.0582  0.0843
   12CHTO   C42 4936   6.639   9.080   0.790 -0.2304  0.2001 -0.4474
   12CHTO   H84 4937   6.660   9.050   0.893  1.3522 -0.5059 -0.9653
   12CHTO   C44 4938   6.633   8.943   0.718 -0.8942  0.4584 -0.8792
   12CHTO   H86 4939   6.637   8.971   0.612  1.0252 -0.1976 -1.0153
   12CHTO   O32 4940   6.754   8.871   0.750  0.0664  0.9498  0.3400
   12CHTO   H69 4941   6.763   8.784   0.717  0.7973  1.7729 -1.6514
   12CHTO   C48 4942   6.509   8.859   0.758 -0.0895 -0.2369  0.0250
   12CHTO   H90 4943   6.519   8.828   0.863 -1.0868 -1.4681 -0.2289
   12CHTO    N9 4944   6.487   8.736   0.672 -0.7370 -0.2140  0.5399
   12CHTO   H77 4945   6.580   8.681   0.672 -1.2840 -1.1566  1.2798
   12CHTO   H78 4946   6.461   8.766   0.572 -0.5029 -0.9591  0.2495
   12CHTO   C51 4947   6.377   8.948   0.755 -0.2063  0.3521  0.4958
   12CHTO   H93 4948   6.346   8.968   0.653  1.5421 -0.7815 -0.2648
   12CHTO   O30 4949   6.399   9.070   0.838 -0.4213  0.4843  0.3084
   12CHTO   C46 4950   6.510   9.160   0.793  0.1524  0.1840 -0.1907
   12CHTO   H88 4951   6.487   9.194   0.692  0.3168 -4.0680 -1.7674
   12CHTO   C53 4952   6.503   9.284   0.900  0.3684 -0.1899 -0.1707
   12CHTO   O72 4953   6.379   9.357   0.896  0.0417  0.1360 -0.4582
   12CHTO  H199 4954   6.311   9.298   0.922 -0.0250  0.4162  0.0101
   12CHTO   O22 4955   6.271   8.885   0.826  0.2531 -0.4344 -0.7632
   12CHTO   C31 4956   6.135   8.930   0.842  0.7084 -0.0505 -0.1607
   12CHTO   H59 4957   6.080   8.848   0.892 -0.0453 -0.6000 -1.8393
   12CHTO   C29 4958   6.120   9.057   0.928 -0.1096  0.1360  0.3245
   12CHTO   H57 4959   6.174   9.137   0.875 -0.8657 -1.8327 -3.5516
   12CHTO   O21 4960   6.194   9.037   1.049 -0.0025  0.0247 -0.0283
   12CHTO   H37 4961   6.281   9.007   1.033 -0.8965 -2.5604 -0.2940
   12CHTO   C27 4962   5.971   9.093   0.948 -0.3535 -0.1439 -1.1688
   12CHTO   H55 4963   5.924   9.011   1.005  1.2720 -1.8781 -2.2497
   12CHTO    N5 4964   5.960   9.222   1.025 -0.3536 -0.6520  0.2651
   12CHTO   H43 4965   6.005   9.291   0.956 -1.3741 -0.3329 -0.0997
   12CHTO   H44 4966   6.022   9.210   1.113 -0.0974 -1.3304 -0.0035
   12CHTO   C25 4967   5.887   9.100   0.813 -0.2908 -0.1246  0.8108
   12CHTO   H53 4968   5.912   9.187   0.752 -0.7832 -1.2565 -1.0681
   12CHTO   O17 4969   5.917   8.978   0.737  0.4141  0.4101  0.0688
   12CHTO   C32 4970   6.053   8.955   0.707  0.0610 -0.1407 -0.2573
   12CHTO   H60 4971   6.103   9.038   0.655  1.3595 -1.7902 -1.7350
   12CHTO   C36 4972   6.052   8.835   0.611 -0.1051 -0.5235  0.3498
   12CHTO   O25 4973   6.167   8.843   0.529 -0.2084 -0.5999 -0.2896
   12CHTO   H40 4974   6.222   8.768   0.532  1.4231  0.4339 -2.6638
   12CHTO   O15 4975   5.719   9.096   0.845 -0.1790  0.5104  0.0820
   12CHTO   C19 4976   5.610   9.135   0.756 -0.4101  0.2491  0.1015
   12CHTO   H47 4977   5.617   9.244   0.758  2.0795  0.1039  1.4811
   12CHTO   C20 4978   5.614   9.094   0.607 -0.1292  0.1751  0.0733
   12CHTO   H48 4979   5.643   8.988   0.595 -3.0889 -0.4128 -2.7745
   12CHTO   O19 4980   5.723   9.159   0.548 -0.5014 -0.3065 -0.4008
   12CHTO   H35 4981   5.745   9.130   0.461  1.4329  1.1335 -0.4163
   12CHTO   C21 4982   5.492   9.137   0.519  0.1327 -0.1446 -0.9261
   12CHTO   H49 4983   5.494   9.245   0.508  0.0280  0.0979  1.3804
   12CHTO    N4 4984   5.499   9.077   0.383  0.5165 -0.1471 -0.3868
   12CHTO   H41 4985   5.480   8.971   0.394  0.4471  0.0457  1.5470
   12CHTO   H42 4986   5.417   9.124   0.330 -0.0848 -1.1562 -0.3661
   12CHTO   C22 4987   5.364   9.101   0.591  0.0771 -0.6895 -0.6954
   12CHTO   H50 4988   5.367   8.992   0.594  2.8151 -0.6096  1.5192
   12CHTO   O14 4989   5.370   9.155   0.725 -0.4188 -0.3607 -0.1590
   12CHTO   C23 4990   5.473   9.095   0.810  1.1454 -0.2440  0.5232
   12CHTO   H51 4991   5.460   8.986   0.806  0.3732 -0.0903 -2.1304
   12CHTO   C34 4992   5.460   9.152   0.952 -0.2849  0.5299  0.0649
   12CHTO   O23 4993   5.345   9.092   1.007 -0.4885 -0.4623 -0.0737
   12CHTO   H38 4994   5.335   9.129   1.092 -1.0048 -1.3456  0.2508
   12CHTO   O16 4995   5.245   9.151   0.528 -0.0463 -0.3942 -0.2440
   12CHTO   C24 4996   5.164   9.034   0.439 -0.3398 -0.6193  0.1498
   12CHTO   H52 4997   5.226   8.946   0.424 -1.0196 -0.9975 -0.4746
   12CHTO   C26 4998   5.117   9.095   0.308  0.4375 -0.0518 -0.5064
   12CHTO   H54 4999   5.046   9.177   0.332 -0.2258 -0.7632 -0.0210
   12CHTO   O20 5000   5.226   9.131   0.226 -0.1845 -0.6215 -0.3538
   12CHTO   H36 5001   5.203   9.152   0.138  0.0715  0.5587 -0.1524
   12CHTO   C30 5002   5.031   8.991   0.233  0.1344  0.3715  0.1388
   12CHTO   H58 5003   5.091   8.904   0.205 -0.4885 -0.5389  1.5950
   12CHTO    N6 5004   4.967   9.039   0.110 -0.3538  0.6579  0.2130
   12CHTO   H45 5005   4.884   8.972   0.091  0.3655 -0.3293  0.4820
   12CHTO   H46 5006   4.934   9.142   0.113 -2.9659 -0.1480  0.0969
   12CHTO   C33 5007   4.922   8.922   0.324 -0.1281 -0.6710  0.8305
   12CHTO   H61 5008   4.833   8.986   0.336  0.5830  0.4564  0.1516
   12CHTO   O18 5009   4.983   8.884   0.443  0.6261 -0.8562 -0.1870
   12CHTO   C28 5010   5.044   8.992   0.515 -0.0975  0.5284 -0.0668
   12CHTO   H56 5011   4.981   9.078   0.536  1.1734  1.2708  0.6832
   12CHTO   C35 5012   5.081   8.942   0.657  0.3101 -0.8607  0.2866
   12CHTO   O24 5013   4.958   8.897   0.710 -0.3042 -0.6271  0.3272
   12CHTO   H39 5014   4.937   8.950   0.784 -2.0403  0.3022 -0.8140
   12CHTO    O9 5015   4.872   8.806   0.253 -0.1961 -0.4801  0.1592
   12CHTO   C13 5016   4.958   8.669   0.264 -0.2358 -0.3383  0.4866
   12CHTO   H26 5017   5.054   8.686   0.318 -0.8092  2.5195  0.6739
   12CHTO   C11 5018   4.982   8.613   0.111  0.0207  0.4844 -0.0728
   12CHTO   H24 5019   5.050   8.678   0.053 -1.3716  1.9740 -0.0617
   12CHTO    O8 5020   4.854   8.612   0.048 -0.4673  0.3470 -0.4102
   12CHTO    H3 5021   4.868   8.568  -0.034 -0.4612  0.9234 -0.7179
   12CHTO    C9 5022   5.058   8.479   0.118  0.3336 -0.4178 -0.4024
   12CHTO   H22 5023   5.153   8.498   0.170 -0.1073  0.3616  0.1384
   12CHTO    N2 5024   5.099   8.432  -0.013  0.1907 -0.0258 -0.1549
   12CHTO   H10 5025   5.164   8.347  -0.023  0.7653  0.5330 -1.3847
   12CHTO   H11 5026   5.011   8.415  -0.074  0.2533 -0.7469 -0.0412
   12CHTO    C7 5027   4.986   8.374   0.211 -0.3055 -0.5624 -0.2207
   12CHTO   H20 5028   5.054   8.287   0.226 -0.9725 -1.3249 -1.5752
   12CHTO    O4 5029   4.967   8.433   0.338  0.4209 -0.1453  0.1365
   12CHTO   C14 5030   4.892   8.560   0.357 -0.1284  0.3815 -0.5475
   12CHTO   H27 5031   4.910   8.590   0.462  0.8590 -2.9379  0.2587
   12CHTO   C18 5032   4.739   8.550   0.342  0.1516  0.0704 -0.2534
   12CHTO   O13 5033   4.657   8.449   0.403  0.5163 -0.1379  0.3461
   12CHTO    H7 5034   4.572   8.490   0.407  0.6356  0.2553 -0.7890
   12CHTO    O2 5035   4.841   8.327   0.159 -0.4140  0.8819 -0.1511
   12CHTO    C1 5036   4.822   8.185   0.148  0.0262 -0.0920  0.0589
   12CHTO   H14 5037   4.920   8.133   0.149  0.7092  1.0212 -2.8485
   12CHTO    C2 5038   4.750   8.153   0.011 -1.0924 -0.1840  0.3917
   12CHTO   H15 5039   4.681   8.237  -0.006  1.6784  2.0237 -0.2049
   12CHTO    O6 5040   4.848   8.168  -0.093  0.6339  0.0168 -0.2403
   12CHTO    H1 5041   4.794   8.182  -0.168 -2.9331  0.7291  2.2930
   12CHTO    C3 5042   4.683   8.009  -0.008 -0.3155  0.0028 -0.2447
   12CHTO   H16 5043   4.763   7.937  -0.025 -0.1736 -0.1762  1.1102
   12CHTO    N1 5044   4.587   8.000  -0.121 -0.4262 -0.0925 -0.0540
   12CHTO    H8 5045   4.493   8.042  -0.088  0.1718  0.1740  1.3344
   12CHTO    H9 5046   4.627   8.050  -0.208 -2.4375 -0.2718 -1.1251
   12CHTO    C4 5047   4.621   7.971   0.136 -0.2203  0.5957  0.7740
   12CHTO   H17 5048   4.533   8.034   0.150  0.2995  1.2466  1.1575
   12CHTO    O1 5049   4.714   7.993   0.244 -0.0422  0.3520  0.3185
   12CHTO    C5 5050   4.748   8.126   0.273  0.2771  0.1929  0.1463
   12CHTO   H18 5051   4.654   8.181   0.277  0.2310  0.1635 -0.5364
   12CHTO   C16 5052   4.818   8.139   0.401 -0.5898  0.4425 -0.1381
   12CHTO   O11 5053   4.723   8.106   0.508  0.7216 -0.3295 -0.0931
   12CHTO    H5 5054   4.704   8.014   0.504  3.6610 -0.8653 -3.8823
   12CHTO    O3 5055   4.575   7.828   0.140  0.4333  0.9739 -0.5133
   12CHTO    C6 5056   4.534   7.769   0.265 -0.0993 -0.4810  0.5857
   12CHTO   H19 5057   4.571   7.818   0.355  0.7475 -0.6456  0.3261
   12CHTO    C8 5058   4.377   7.766   0.277  0.4400  0.6649  0.2238
   12CHTO   H21 5059   4.338   7.725   0.184  1.9998  0.7142 -0.4654
   12CHTO    O7 5060   4.333   7.902   0.292 -0.3616 -0.5479  0.6914
   12CHTO    H2 5061   4.394   7.956   0.338  1.4204 -1.9777  0.0361
   12CHTO   C12 5062   4.336   7.679   0.399 -0.6924 -0.5890 -0.7549
   12CHTO   H25 5063   4.371   7.748   0.479 -2.3285  1.3927 -1.6974
   12CHTO    N3 5064   4.189   7.670   0.394 -0.0311 -0.1273  0.1362
   12CHTO   H12 5065   4.133   7.614   0.468 -1.7105 -0.0258 -1.0143
   12CHTO   H13 5066   4.160   7.635   0.296  1.6269  1.1077 -0.8100
   12CHTO   C15 5067   4.406   7.546   0.404 -0.1397  0.2910 -0.0924
   12CHTO   H28 5068   4.357   7.481   0.331 -0.6790  3.3998 -2.5913
   12CHTO   O10 5069   4.397   7.484   0.543  0.4298  0.2085  0.2678
   12CHTO    H4 5070   4.455   7.410   0.547 -2.6378 -2.2725  0.4754
   12CHTO    O5 5071   4.553   7.552   0.387  0.2575  0.2026 -0.2731
   12CHTO   C10 5072   4.585   7.624   0.271 -0.3614  0.0384 -0.1831
   12CHTO   H23 5073   4.544   7.565   0.189  0.6332 -0.6474 -0.1901
   12CHTO   C17 5074   4.735   7.631   0.246  0.2640  0.3383  0.2751
   12CHTO   O12 5075   4.787   7.503   0.212  0.3587 -0.2639 -0.1798
   12CHTO    H6 5076   4.781   7.489   0.120 -0.4052 -0.9056 -0.0415
   13CHTO  H203 5077   8.932   4.581   1.910 -0.7184 -1.5703  1.7316
   13CHTO   O82 5078   8.858   4.636   1.930  0.1015  0.2069 -0.0104
   13CHTO  C123 5079   8.797   4.705   1.827 -0.0343 -0.3429  0.4749
   13CHTO  H227 5080   8.818   4.659   1.728 -0.4833  0.2743  0.0906
   13CHTO   O77 5081   8.658   4.692   1.866  0.4791  0.0740  0.2073
   13CHTO  C118 5082   8.563   4.731   1.768 -0.1015 -0.0732 -0.1760
   13CHTO  H222 5083   8.589   4.684   1.672  1.1218 -1.1223  0.6561
   13CHTO  C125 5084   8.420   4.689   1.804 -0.1682 -0.3600 -0.4589
   13CHTO   O84 5085   8.370   4.755   1.917  0.3393  0.4339 -0.1184
   13CHTO  H205 5086   8.359   4.680   1.972  1.1425 -0.2562 -0.8774
   13CHTO  C114 5087   8.571   4.881   1.751  0.3994  0.2008 -0.6137
   13CHTO  H218 5088   8.562   4.930   1.848  0.4499  1.0364 -1.0229
   13CHTO  C116 5089   8.715   4.921   1.716  0.6720 -0.1393  0.5087
   13CHTO  H220 5090   8.732   4.876   1.616  0.7176 -1.6416  1.1659
   13CHTO   O79 5091   8.731   5.065   1.718  0.2121  0.2774  0.3222
   13CHTO  H201 5092   8.699   5.103   1.797 -0.7903  0.4495 -0.1544
   13CHTO  C120 5093   8.827   4.861   1.814  0.1123  0.3225  0.8127
   13CHTO  H224 5094   8.807   4.919   1.906 -0.3927  0.6193  0.5177
   13CHTO   N21 5095   8.966   4.900   1.781  0.2449  0.3080  0.3058
   13CHTO  H211 5096   9.030   4.885   1.866 -2.3205  1.8114  2.6013
   13CHTO  H212 5097   9.010   4.861   1.690 -1.6940  0.2469 -0.6447
   13CHTO   O75 5098   8.467   4.934   1.665 -0.2396 -0.0004 -0.2213
   13CHTO  C112 5099   8.380   5.065   1.718  0.2635  0.4698  0.0609
   13CHTO  H216 5100   8.441   5.124   1.788 -0.5410 -3.0316  3.9290
   13CHTO   O73 5101   8.269   5.013   1.784 -0.1307  0.0931  0.3464
   13CHTO  C113 5102   8.189   5.121   1.831 -0.1854  0.2603  0.1911
   13CHTO  H217 5103   8.262   5.188   1.881 -0.4030 -0.3483  1.3510
   13CHTO  C124 5104   8.093   5.068   1.942 -0.1806  0.3614  0.3567
   13CHTO   O83 5105   8.164   5.028   2.060  0.2278 -0.1123  0.8760
   13CHTO  H204 5106   8.188   5.109   2.101 -0.9226 -0.1786  1.7124
   13CHTO  C109 5107   8.122   5.189   1.721  0.2234  0.0562  0.1040
   13CHTO  H213 5108   8.068   5.110   1.666  1.0153 -0.8501  0.6248
   13CHTO  C110 5109   8.236   5.255   1.633  0.5983 -0.1728 -0.3506
   13CHTO  H214 5110   8.279   5.332   1.696  0.6900 -2.1191  2.0437
   13CHTO   O78 5111   8.171   5.301   1.511 -0.0383 -0.4030  0.3235
   13CHTO  H200 5112   8.159   5.236   1.444 -3.0344 -0.2434  0.6350
   13CHTO  C111 5113   8.346   5.152   1.591 -0.5528  0.4848 -0.5899
   13CHTO  H215 5114   8.289   5.081   1.528 -0.1087 -0.4805  0.0941
   13CHTO   N19 5115   8.463   5.197   1.512 -0.7749 -0.2654  0.3868
   13CHTO  H207 5116   8.492   5.117   1.445  1.5758 -1.6793  2.9802
   13CHTO  H208 5117   8.550   5.220   1.572  1.5840 -2.6916 -1.9600
   13CHTO   O74 5118   8.027   5.295   1.760  0.6264  0.4198 -0.2313
   13CHTO  C115 5119   7.871   5.272   1.749 -0.0415  0.4012  0.2236
   13CHTO  H219 5120   7.828   5.325   1.664 -0.3722 -1.6340 -0.9014
   13CHTO   O76 5121   7.833   5.121   1.717 -0.0654  0.0895  0.3180
   13CHTO  C122 5122   7.690   5.102   1.718  0.6650 -0.6934  0.6269
   13CHTO  H226 5123   7.673   4.994   1.718 -1.9078 -0.3245 -0.3768
   13CHTO  C126 5124   7.626   5.147   1.576 -0.1533 -0.3209  0.4939
   13CHTO   O85 5125   7.496   5.085   1.574 -0.1545  0.2214 -0.0146
   13CHTO  H206 5126   7.502   5.010   1.518  1.3972  0.6302 -0.4153
   13CHTO  C121 5127   7.616   5.161   1.841  0.7847  0.0832 -0.5652
   13CHTO  H225 5128   7.508   5.154   1.818  1.0888 -1.4882 -1.5843
   13CHTO   O81 5129   7.655   5.089   1.963 -0.2863  0.2366  0.4476
   13CHTO  H202 5130   7.636   4.998   1.951  0.2719  0.1134  0.4867
   13CHTO  C119 5131   7.652   5.313   1.858 -0.4729 -1.0743 -0.8759
   13CHTO  H223 5132   7.626   5.366   1.767 -1.0472  0.4023  0.1105
   13CHTO  C117 5133   7.809   5.323   1.880  0.3198  0.0205 -0.1701
   13CHTO  H221 5134   7.848   5.260   1.960 -0.0670 -0.2446 -0.1894
   13CHTO   N20 5135   7.846   5.464   1.921 -0.9066 -0.2857 -0.1898
   13CHTO  H209 5136   7.828   5.484   2.026  1.2030  2.4067 -0.2640
   13CHTO  H210 5137   7.815   5.535   1.845 -1.3885 -0.5394 -0.2287
   13CHTO   O80 5138   7.561   5.403   1.986  0.6821  0.7716 -0.3606
   13CHTO  C103 5139   7.399   5.464   1.961 -1.0957 -0.3241 -0.3894
   13CHTO  H190 5140   7.378   5.516   2.054  0.7867  1.2337 -0.8041
   13CHTO  C101 5141   7.372   5.559   1.835 -0.4268  0.1607 -0.5610
   13CHTO  H188 5142   7.401   5.506   1.744  0.2327  2.1098 -1.5148
   13CHTO   O68 5143   7.453   5.696   1.843 -0.1107 -0.3743 -0.4132
   13CHTO  H168 5144   7.438   5.743   1.923 -2.2443  1.1590 -1.6708
   13CHTO   C99 5145   7.216   5.586   1.825  0.5149 -0.0778  0.2138
   13CHTO  H186 5146   7.177   5.631   1.919 -0.1594  0.9401 -0.5326
   13CHTO   N17 5147   7.182   5.677   1.708  0.1620 -0.2811 -0.4296
   13CHTO  H174 5148   7.077   5.690   1.687 -0.2634 -2.0678  0.5078
   13CHTO  H175 5149   7.221   5.777   1.721 -1.9890  0.6581 -1.0230
   13CHTO   C97 5150   7.146   5.453   1.809 -0.0318  0.2397 -0.4252
   13CHTO  H184 5151   7.188   5.405   1.719  3.0869  0.4058  0.8820
   13CHTO   O64 5152   7.172   5.372   1.925 -0.2603  0.5628 -0.2563
   13CHTO  C104 5153   7.310   5.334   1.950  0.4554 -0.2023 -0.2716
   13CHTO  H191 5154   7.343   5.274   1.865  0.3057  1.0809 -1.2430
   13CHTO  C108 5155   7.328   5.250   2.077  0.0006  0.0606 -0.5461
   13CHTO   O71 5156   7.276   5.117   2.068 -0.3995 -0.4742 -0.5222
   13CHTO  H171 5157   7.345   5.062   2.099  1.7766  1.6532 -1.3398
   13CHTO   O62 5158   7.005   5.451   1.805  1.1126  0.1569  0.4704
   13CHTO   C91 5159   6.956   5.344   1.729  0.0410 -0.5817 -0.1725
   13CHTO  H178 5160   7.035   5.277   1.695  0.1538 -0.3477 -0.3716
   13CHTO   C92 5161   6.899   5.411   1.601 -0.1278 -0.2944  0.3263
   13CHTO  H179 5162   6.848   5.504   1.630  1.9824  1.2393 -0.7607
   13CHTO   O66 5163   6.996   5.461   1.514  0.3302  0.4108 -0.1824
   13CHTO  H166 5164   7.022   5.550   1.530 -0.8612  0.2192  3.1994
   13CHTO   C93 5165   6.804   5.317   1.515 -0.1225 -0.7206  0.3086
   13CHTO  H180 5166   6.877   5.254   1.463  2.4493  0.8782  1.8669
   13CHTO   N16 5167   6.721   5.383   1.409 -0.0180  0.4750  0.5357
   13CHTO  H172 5168   6.617   5.352   1.402 -0.6270  2.5983 -0.5105
   13CHTO  H173 5169   6.724   5.490   1.427 -0.3277  0.8598 -1.5436
   13CHTO   C94 5170   6.711   5.232   1.604 -0.5185 -0.1189 -0.0935
   13CHTO  H181 5171   6.639   5.295   1.658  2.1875  0.6087  2.8284
   13CHTO   O61 5172   6.780   5.169   1.713  1.1715 -0.1257 -0.0528
   13CHTO   C95 5173   6.846   5.262   1.804  0.1511  0.5135 -0.1335
   13CHTO  H182 5174   6.771   5.333   1.839 -0.4874 -0.0555 -0.3532
   13CHTO  C106 5175   6.898   5.182   1.924  0.4718  0.2018 -0.0216
   13CHTO   O69 5176   6.998   5.088   1.898 -0.0737  0.0691 -0.2199
   13CHTO  H169 5177   7.079   5.136   1.901 -0.3483  0.5030  0.3369
   13CHTO   O63 5178   6.639   5.112   1.529 -0.7016 -0.1598  0.6098
   13CHTO   C96 5179   6.481   5.092   1.566 -0.0729 -0.0078  0.0148
   13CHTO  H183 5180   6.442   5.009   1.507 -1.4744  0.2764  0.5412
   13CHTO   C98 5181   6.391   5.207   1.536  0.0331  0.0415  0.4608
   13CHTO  H185 5182   6.416   5.303   1.584  0.2314 -0.4122  1.2705
   13CHTO   O67 5183   6.386   5.239   1.392 -0.0219 -0.5813  0.4737
   13CHTO  H167 5184   6.366   5.330   1.380 -2.5860 -1.2789 -0.9911
   13CHTO  C102 5185   6.240   5.171   1.590 -0.4426  0.0736  0.2927
   13CHTO  H189 5186   6.199   5.088   1.531 -2.1354  0.5644  0.7482
   13CHTO   N18 5187   6.145   5.284   1.582 -0.8007 -0.2230 -0.2357
   13CHTO  H176 5188   6.139   5.320   1.480  0.0734  1.9222  0.4385
   13CHTO  H177 5189   6.059   5.290   1.646 -0.0575  1.9678  0.6103
   13CHTO  C105 5190   6.251   5.132   1.741  0.9133  0.1599 -0.6028
   13CHTO  H192 5191   6.297   5.218   1.791 -0.4872  1.6602 -1.8447
   13CHTO   O65 5192   6.330   5.026   1.759 -0.0647  0.3989 -0.1678
   13CHTO  C100 5193   6.465   5.040   1.719  0.1190 -0.3357  0.0352
   13CHTO  H187 5194   6.498   5.123   1.784 -0.6196  0.6982 -0.8788
   13CHTO  C107 5195   6.549   4.915   1.740  0.1855  0.1583  0.2451
   13CHTO   O70 5196   6.573   4.894   1.881  0.0241 -0.2657  0.2095
   13CHTO  H170 5197   6.506   4.839   1.918 -0.3488  0.2254  0.2791
   13CHTO   O57 5198   6.111   5.105   1.802 -0.1730  0.1203 -0.4289
   13CHTO   C85 5199   6.044   4.980   1.786 -0.5962 -0.1987  0.6103
   13CHTO  H157 5200   6.105   4.916   1.719  1.3412  1.1480  1.0374
   13CHTO   C83 5201   5.913   5.016   1.716  0.3019 -0.1994  0.1920
   13CHTO  H155 5202   5.931   5.067   1.622 -1.2165  0.6512  0.3348
   13CHTO   O56 5203   5.844   5.117   1.791  0.0623  0.2486  0.1835
   13CHTO  H135 5204   5.819   5.083   1.874  2.1849 -3.2869 -0.5486
   13CHTO   C81 5205   5.833   4.882   1.691  0.2335  0.3064  0.1901
   13CHTO  H153 5206   5.898   4.812   1.639  1.9311  0.7639  1.6522
   13CHTO   N14 5207   5.718   4.906   1.603  0.1185  0.0558 -0.1630
   13CHTO  H141 5208   5.648   4.969   1.654 -0.3147 -1.4970  1.1857
   13CHTO  H142 5209   5.666   4.814   1.588  0.4572  0.1722 -2.2260
   13CHTO   C79 5210   5.790   4.824   1.829 -0.7890  0.0730 -0.0968
   13CHTO  H151 5211   5.753   4.724   1.807  1.1313 -0.8326  0.6870
   13CHTO   O52 5212   5.910   4.792   1.905 -0.1928 -0.3677  0.2330
   13CHTO   C86 5213   6.008   4.907   1.922  0.0080 -0.0167 -0.1537
   13CHTO  H158 5214   5.962   4.961   2.008  1.2394 -1.3236  1.3582
   13CHTO   C90 5215   6.145   4.858   1.969  0.8996 -0.2209  1.4119
   13CHTO   O60 5216   6.121   4.786   2.092  0.3590 -0.0937 -0.0481
   13CHTO  H138 5217   6.089   4.854   2.147 -0.8002  0.0111 -0.8238
   13CHTO   O50 5218   5.707   4.902   1.915 -0.6206 -0.0098 -0.3954
   13CHTO   C73 5219   5.568   4.906   1.965 -0.4000 -0.2822 -0.4718
   13CHTO  H145 5220   5.507   4.826   1.920 -2.3332  0.2077  1.1945
   13CHTO   C74 5221   5.497   5.049   1.927 -0.0091 -0.3214  0.7706
   13CHTO  H146 5222   5.500   5.066   1.818 -0.8369  0.6398  0.8971
   13CHTO   O54 5223   5.359   5.038   1.970  0.0402  0.0161  0.1241
   13CHTO  H133 5224   5.312   5.119   1.970 -2.0911 -1.1137 -3.0573
   13CHTO   C75 5225   5.577   5.158   2.004 -0.3128 -0.0549  0.8730
   13CHTO  H147 5226   5.683   5.148   1.976  0.0015 -1.6648  2.5357
   13CHTO   N13 5227   5.518   5.287   1.973  0.3076  0.0094 -0.5124
   13CHTO  H139 5228   5.488   5.293   1.870  0.6283 -1.1013 -0.6823
   13CHTO  H140 5229   5.587   5.367   1.993 -0.5316  0.8064 -0.7429
   13CHTO   C76 5230   5.583   5.138   2.159  0.7443  0.5796 -0.5923
   13CHTO  H148 5231   5.481   5.141   2.199  0.4573 -0.8155 -1.1815
   13CHTO   O49 5232   5.633   5.004   2.181  0.8626  0.3353  0.4705
   13CHTO   C77 5233   5.562   4.895   2.119 -0.2946  0.4570  0.1006
   13CHTO  H149 5234   5.459   4.894   2.156  0.2278 -3.3827  1.5853
   13CHTO   C88 5235   5.640   4.769   2.159  0.7201 -0.0276 -0.0422
   13CHTO   O58 5236   5.558   4.662   2.114 -0.0614  0.6955  0.1852
   13CHTO  H136 5237   5.600   4.578   2.111 -3.0656 -0.8695  0.5465
   13CHTO   O51 5238   5.677   5.254   2.244  0.1486 -0.8641 -0.0308
   13CHTO   C78 5239   5.824   5.297   2.216 -0.9068 -0.0175  0.0561
   13CHTO  H150 5240   5.856   5.358   2.304  0.8911 -2.2756  0.9993
   13CHTO   C80 5241   5.842   5.376   2.086 -0.7050  0.4722 -0.2380
   13CHTO  H152 5242   5.805   5.312   2.003  0.8548  0.6482 -1.0894
   13CHTO   O55 5243   5.773   5.500   2.108  0.1667  0.4782 -0.2800
   13CHTO  H134 5244   5.680   5.485   2.107  0.0407  0.9110  1.8312
   13CHTO   C84 5245   6.000   5.412   2.056 -0.1834 -0.3391  1.3768
   13CHTO  H156 5246   6.031   5.495   2.121 -2.2174  0.7847  0.9550
   13CHTO   N15 5247   6.026   5.463   1.919 -0.2940  0.6041 -0.1969
   13CHTO  H143 5248   6.037   5.569   1.927  1.5360  0.4491 -0.6109
   13CHTO  H144 5249   5.952   5.439   1.845 -1.7856 -1.2147  1.7871
   13CHTO   C87 5250   6.102   5.300   2.088 -0.0741 -0.0151 -0.3694
   13CHTO  H159 5251   6.097   5.225   2.009 -0.0560  0.7978 -1.1519
   13CHTO   O53 5252   6.055   5.219   2.220 -0.1395  0.1097 -0.9660
   13CHTO   C82 5253   5.919   5.177   2.221 -0.4092  0.1713 -0.2878
   13CHTO  H154 5254   5.911   5.124   2.126  2.1676  2.6236 -1.9622
   13CHTO   C89 5255   5.895   5.081   2.344  0.3628  0.5736  0.5957
   13CHTO   O59 5256   5.954   4.948   2.344  0.4226  0.6339  0.4285
   13CHTO  H137 5257   6.022   4.947   2.409  1.6126 -2.0569 -0.7354
   13CHTO   O45 5258   6.253   5.356   2.101  0.1824 -0.6985  0.1652
   13CHTO   C67 5259   6.350   5.253   2.100 -0.4303 -0.1786 -0.1137
   13CHTO  H124 5260   6.316   5.171   2.037  1.7984 -0.5339 -0.9103
   13CHTO   C65 5261   6.476   5.321   2.031 -0.3203 -0.4404 -0.1879
   13CHTO  H122 5262   6.446   5.376   1.941 -2.7509  1.5588  1.7769
   13CHTO   O44 5263   6.571   5.216   1.999  0.3336 -0.4925  0.2266
   13CHTO  H102 5264   6.584   5.164   2.076  0.2646 -0.6189  0.1527
   13CHTO   C63 5265   6.521   5.428   2.147  0.7880 -0.6548  0.6064
   13CHTO  H120 5266   6.442   5.496   2.176  1.0922 -0.9086  2.0881
   13CHTO   N11 5267   6.627   5.519   2.096 -0.5139  0.1161  0.0237
   13CHTO  H108 5268   6.716   5.483   2.144  0.5333  1.7611 -0.6076
   13CHTO  H109 5269   6.610   5.624   2.107  0.3462 -0.0177  3.1557
   13CHTO   C61 5270   6.561   5.352   2.276  0.9483 -0.3943  0.4784
   13CHTO  H118 5271   6.586   5.431   2.349  0.4738  0.1175  0.0979
   13CHTO   O40 5272   6.452   5.278   2.332  0.2833 -0.3712  0.0883
   13CHTO   C68 5273   6.372   5.201   2.242  0.4980  0.2221 -0.8943
   13CHTO  H125 5274   6.273   5.204   2.293  2.0603  3.6494  2.1357
   13CHTO   C72 5275   6.417   5.050   2.225  1.0779 -0.3316 -0.7530
   13CHTO   O48 5276   6.371   4.980   2.340 -0.7248  0.0631  0.1060
   13CHTO  H105 5277   6.281   4.955   2.338 -0.8743  0.5485  0.5254
   13CHTO   O38 5278   6.681   5.279   2.256 -0.6845 -0.2983 -0.3089
   13CHTO   C55 5279   6.766   5.259   2.367 -0.0393 -0.2431 -0.0803
   13CHTO  H112 5280   6.831   5.187   2.314  1.7150  1.5243 -0.3917
   13CHTO   C56 5281   6.704   5.199   2.504  0.5286  0.0879 -0.2521
   13CHTO  H113 5282   6.624   5.266   2.536 -0.0796 -0.1622 -1.2274
   13CHTO   O42 5283   6.629   5.080   2.489 -0.1932 -0.0835  0.3828
   13CHTO  H100 5284   6.691   5.010   2.482  1.0296  0.5653  3.8188
   13CHTO   C57 5285   6.811   5.193   2.622 -0.6244 -0.4680  1.5581
   13CHTO  H114 5286   6.874   5.110   2.589  0.5335  0.6313  0.9353
   13CHTO   N10 5287   6.763   5.162   2.754 -0.1044 -0.6889  0.1484
   13CHTO  H106 5288   6.657   5.181   2.762 -0.3832 -1.9621 -0.3577
   13CHTO  H107 5289   6.817   5.220   2.828 -2.4242  1.9436 -0.1180
   13CHTO   C58 5290   6.896   5.323   2.625  0.5696  0.8827 -0.1012
   13CHTO  H115 5291   6.826   5.403   2.656 -0.8173 -0.3622  0.0587
   13CHTO   O37 5292   6.953   5.364   2.503  0.3640  0.2303 -0.0233
   13CHTO   C59 5293   6.857   5.388   2.395 -0.6614  0.2741  0.9353
   13CHTO  H116 5294   6.797   5.477   2.411 -0.3082  0.4299  1.4034
   13CHTO   C70 5295   6.937   5.418   2.264 -0.1525 -0.0997  1.1334
   13CHTO   O46 5296   7.028   5.309   2.213  0.6916 -0.9307 -0.6081
   13CHTO  H103 5297   7.103   5.304   2.268  0.4106 -4.3556 -0.4481
   13CHTO   O39 5298   7.030   5.340   2.744 -0.3131 -0.1397 -0.1244
   13CHTO   C60 5299   7.091   5.466   2.741  0.4450  0.1302  0.4942
   13CHTO  H117 5300   7.101   5.491   2.635  0.8951  1.3543  0.8175
   13CHTO   C62 5301   7.013   5.577   2.818  0.3243 -0.1678 -0.3352
   13CHTO  H119 5302   6.916   5.586   2.766  0.2166  1.0227  0.0528
   13CHTO   O43 5303   6.986   5.540   2.956  0.3979  0.2744  0.1212
   13CHTO  H101 5304   7.032   5.591   3.020  0.1630 -0.4330  0.8658
   13CHTO   C66 5305   7.098   5.713   2.806  1.1397 -0.6192 -0.2091
   13CHTO  H123 5306   7.103   5.737   2.700  1.2424  0.2141 -0.0185
   13CHTO   N12 5307   7.029   5.835   2.864  0.1648 -0.3848 -0.2095
   13CHTO  H110 5308   7.090   5.923   2.850  1.4464 -0.8003  2.3564
   13CHTO  H111 5309   6.935   5.848   2.813  0.7926 -2.5454 -2.0242
   13CHTO   C69 5310   7.246   5.704   2.852  0.0347  0.1364 -0.5420
   13CHTO  H126 5311   7.247   5.693   2.963  1.4437  1.5676 -0.3934
   13CHTO   O41 5312   7.307   5.565   2.769 -0.7776  0.2957 -0.0723
   13CHTO   C64 5313   7.238   5.458   2.791  1.0109  0.1618  0.2795
   13CHTO  H121 5314   7.234   5.438   2.900  2.8983 -0.6409  0.2360
   13CHTO   C71 5315   7.323   5.350   2.731  0.3375  0.7544  0.5479
   13CHTO   O47 5316   7.295   5.226   2.798  0.2541  0.5719 -0.4567
   13CHTO  H104 5317   7.356   5.161   2.768  0.7436  0.8462 -0.0665
   13CHTO   O34 5318   7.320   5.832   2.822  0.1434  0.6335 -0.2400
   13CHTO   C49 5319   7.459   5.902   2.859  0.0205 -0.4284  0.1055
   13CHTO   H91 5320   7.536   5.826   2.862  1.3413  0.9118  0.5374
   13CHTO   C47 5321   7.450   5.964   3.003 -1.1529  0.8701  0.8031
   13CHTO   H89 5322   7.553   5.995   3.031 -1.0222 -0.0570  1.3619
   13CHTO   O33 5323   7.410   5.865   3.098  0.2562 -0.1178 -0.6997
   13CHTO   H70 5324   7.331   5.823   3.072 -1.4922  0.1278  3.8031
   13CHTO   C45 5325   7.350   6.089   3.007 -0.0136  0.3560 -0.8516
   13CHTO   H87 5326   7.254   6.057   3.050 -0.2643  3.0971  0.7127
   13CHTO    N8 5327   7.408   6.193   3.092  0.0300  0.7747 -0.1974
   13CHTO   H75 5328   7.336   6.274   3.095  0.5576  1.2554 -0.3307
   13CHTO   H76 5329   7.437   6.150   3.186 -0.2872 -0.0734 -0.4812
   13CHTO   C43 5330   7.310   6.142   2.857  0.1084  0.0600 -0.2445
   13CHTO   H85 5331   7.230   6.075   2.825  0.3551  0.4666 -1.7393
   13CHTO   O29 5332   7.420   6.143   2.762 -1.3533 -0.3436  0.1596
   13CHTO   C50 5333   7.501   6.020   2.757 -0.0345 -0.1561  1.2240
   13CHTO   H92 5334   7.507   5.975   2.657 -1.6780  0.8272  0.6563
   13CHTO   C54 5335   7.650   6.068   2.778 -0.1019  0.1691 -0.0944
   13CHTO   O36 5336   7.744   5.967   2.740 -0.3444  0.6843 -0.3637
   13CHTO   H72 5337   7.713   5.889   2.782 -2.1923  1.9306  0.7054
   13CHTO   O27 5338   7.242   6.271   2.852 -0.0128  0.5602  0.1554
   13CHTO   C37 5339   7.241   6.415   2.861  1.1434  0.9136 -0.9864
   13CHTO   H79 5340   7.279   6.446   2.959 -0.3108  1.1929 -0.5010
   13CHTO   C38 5341   7.348   6.482   2.764  0.1230 -0.3874 -0.0414
   13CHTO   H80 5342   7.336   6.443   2.662 -0.0056  1.1132 -0.6084
   13CHTO   O31 5343   7.477   6.442   2.819  0.4346  0.1173  0.9397
   13CHTO   H68 5344   7.534   6.429   2.746 -0.0678  1.1716  0.3493
   13CHTO   C39 5345   7.336   6.643   2.765  0.1008  0.0322  0.1382
   13CHTO   H81 5346   7.366   6.679   2.863 -1.2033  0.2978  0.4473
   13CHTO    N7 5347   7.421   6.710   2.655  0.8575 -0.4151 -0.2111
   13CHTO   H73 5348   7.510   6.655   2.630  3.1021  2.7816  0.3285
   13CHTO   H74 5349   7.460   6.806   2.686  2.0002 -1.4308  1.6085
   13CHTO   C40 5350   7.188   6.687   2.750 -0.3158 -0.0869 -0.1302
   13CHTO   H82 5351   7.146   6.674   2.650 -0.7746 -3.2846  0.4231
   13CHTO   O26 5352   7.114   6.616   2.847  0.2922  0.6118 -0.3300
   13CHTO   C41 5353   7.101   6.472   2.835  0.9129 -0.1572 -0.2446
   13CHTO   H83 5354   7.057   6.456   2.735 -1.7730  1.7437  0.5689
   13CHTO   C52 5355   7.001   6.424   2.947 -0.3296  0.2174  0.5077
   13CHTO   O35 5356   6.878   6.510   2.945 -0.2701  0.2831  0.6803
   13CHTO   H71 5357   6.829   6.498   2.866  2.5278  0.2545 -1.1204
   13CHTO   O28 5358   7.165   6.818   2.800  0.4874  0.5542  0.4695
   13CHTO   C42 5359   7.098   6.912   2.714 -0.5583  0.0534  1.0577
   13CHTO   H84 5360   7.117   6.884   2.610  0.9819 -1.2206  1.6763
   13CHTO   C44 5361   7.158   7.057   2.732 -0.0732 -0.5992  0.1729
   13CHTO   H86 5362   7.146   7.094   2.834  0.2569 -0.1748  0.0617
   13CHTO   O32 5363   7.300   7.044   2.702 -0.2442  0.2375 -0.5831
   13CHTO   H69 5364   7.322   7.043   2.611  0.1710 -2.7020 -0.4921
   13CHTO   C48 5365   7.091   7.172   2.656  0.4010 -0.3607 -0.6416
   13CHTO   H90 5366   7.095   7.151   2.549  0.0163  0.0188 -0.7338
   13CHTO    N9 5367   7.166   7.302   2.680 -0.0217 -0.5195 -0.0803
   13CHTO   H77 5368   7.269   7.284   2.708  0.5252  1.4611 -0.7938
   13CHTO   H78 5369   7.112   7.366   2.748  0.4895  1.1775 -1.2490
   13CHTO   C51 5370   6.939   7.171   2.697  0.5380 -0.1665 -0.2520
   13CHTO   H93 5371   6.945   7.180   2.805  2.0550  1.7929 -0.4540
   13CHTO   O30 5372   6.892   7.043   2.651 -0.3092  0.8539  0.4818
   13CHTO   C46 5373   6.951   6.933   2.731 -0.2784 -0.1049  0.1988
   13CHTO   H88 5374   6.934   6.951   2.837  1.0454  1.8031  0.0944
   13CHTO   C53 5375   6.874   6.806   2.688  0.5370  0.0540 -0.2234
   13CHTO   O72 5376   6.783   6.739   2.778  0.3217 -0.4627 -0.5266
   13CHTO  H199 5377   6.830   6.697   2.848 -1.0559 -3.0426 -1.1224
   13CHTO   O22 5378   6.874   7.281   2.634  0.1228 -0.3837 -0.3222
   13CHTO   C31 5379   6.739   7.330   2.663  0.9246  0.5720 -0.3333
   13CHTO   H59 5380   6.724   7.427   2.613  0.3692  0.3839 -0.5338
   13CHTO   C29 5381   6.625   7.241   2.613 -0.5405 -0.2204 -0.8550
   13CHTO   H57 5382   6.628   7.147   2.670  0.7613 -0.2966 -1.0342
   13CHTO   O21 5383   6.656   7.201   2.480 -0.1304  0.5106  0.1091
   13CHTO   H37 5384   6.588   7.152   2.437  3.5065 -1.3835 -3.8186
   13CHTO   C27 5385   6.486   7.311   2.634  0.0879  0.2900 -0.4790
   13CHTO   H55 5386   6.485   7.401   2.572 -1.3418 -1.0973 -2.5656
   13CHTO    N5 5387   6.369   7.219   2.594  0.3745 -0.2628  0.3863
   13CHTO   H43 5388   6.382   7.186   2.493  1.0564  3.0921 -0.6954
   13CHTO   H44 5389   6.356   7.137   2.663 -2.6503 -0.5531 -0.4686
   13CHTO   C25 5390   6.463   7.351   2.788 -0.0187 -0.4078  0.6537
   13CHTO   H53 5391   6.445   7.258   2.845 -0.1648 -0.9028 -0.1983
   13CHTO   O17 5392   6.589   7.408   2.846 -0.1157  0.0245 -0.0392
   13CHTO   C32 5393   6.719   7.356   2.817 -0.0051 -0.0169 -0.2463
   13CHTO   H60 5394   6.736   7.267   2.878  0.1700 -0.6399 -1.1882
   13CHTO   C36 5395   6.825   7.457   2.876 -0.1127  0.1802 -0.3544
   13CHTO   O25 5396   6.836   7.563   2.785  0.2884  0.2748 -0.5780
   13CHTO   H40 5397   6.757   7.596   2.748  0.3841  0.9817 -0.1589
   13CHTO   O15 5398   6.335   7.457   2.808 -0.4011 -0.0790 -0.1617
   13CHTO   C19 5399   6.215   7.530   2.766 -0.8106 -0.3544  0.4667
   13CHTO   H47 5400   6.197   7.589   2.857  1.6296  1.8195 -0.4103
   13CHTO   C20 5401   6.230   7.620   2.638 -0.5812 -0.3784 -0.1119
   13CHTO   H48 5402   6.268   7.565   2.551 -0.3567  0.2430 -0.4103
   13CHTO   O19 5403   6.309   7.732   2.681  0.1834 -0.1798  0.2297
   13CHTO   H35 5404   6.387   7.702   2.722 -0.2174  0.0366  1.1746
   13CHTO   C21 5405   6.090   7.668   2.577  0.3275  0.6059 -0.6853
   13CHTO   H49 5406   6.049   7.747   2.641  0.4057  0.0563  0.0595
   13CHTO    N4 5407   6.104   7.734   2.443  0.5255 -0.1504  0.1021
   13CHTO   H41 5408   6.193   7.789   2.415  0.3460  0.5893  0.9595
   13CHTO   H42 5409   6.019   7.792   2.410  0.1321  0.5385  2.2435
   13CHTO   C22 5410   5.981   7.552   2.585 -0.0003 -0.2550 -0.4426
   13CHTO   H50 5411   6.021   7.474   2.522 -0.1056 -0.6191 -0.0647
   13CHTO   O14 5412   5.978   7.494   2.719  0.1703 -0.1536 -0.2996
   13CHTO   C23 5413   6.102   7.424   2.752 -0.0276  0.0105 -0.3839
   13CHTO   H51 5414   6.121   7.346   2.676 -2.6026 -0.5049 -0.5536
   13CHTO   C34 5415   6.064   7.347   2.878  0.8936 -0.1130 -1.1984
   13CHTO   O23 5416   6.036   7.433   2.980 -0.0295 -0.4025 -0.1950
   13CHTO   H38 5417   6.024   7.378   3.055  0.2854 -2.1892 -1.4123
   13CHTO   O16 5418   5.848   7.603   2.557 -0.1905 -0.1124  0.1785
   13CHTO   C24 5419   5.717   7.524   2.585  0.5258 -0.2688  0.3869
   13CHTO   H52 5420   5.713   7.476   2.683 -1.4532 -0.4798  0.2387
   13CHTO   C26 5421   5.690   7.424   2.472 -0.2817 -0.2333  0.3621
   13CHTO   H54 5422   5.678   7.479   2.376  1.0367 -2.7495 -1.3065
   13CHTO   O20 5423   5.805   7.337   2.472 -0.0962 -0.8333  0.1273
   13CHTO   H36 5424   5.777   7.252   2.500 -1.8443 -0.2910  0.0593
   13CHTO   C30 5425   5.555   7.354   2.501  0.5269 -0.3705 -0.1249
   13CHTO   H58 5426   5.557   7.296   2.594 -0.2681  0.9089  0.7014
   13CHTO    N6 5427   5.515   7.269   2.383  0.4495 -0.2576  0.7592
   13CHTO   H45 5428   5.519   7.321   2.288 -2.0853 -0.8310  0.3212
   13CHTO   H46 5429   5.578   7.182   2.378  0.3451 -0.5182  3.5789
   13CHTO   C33 5430   5.440   7.459   2.525 -0.6605  0.2186 -0.9659
   13CHTO   H61 5431   5.421   7.516   2.433  2.1512  1.2458 -0.9683
   13CHTO   O18 5432   5.483   7.550   2.625  0.2960 -0.4847  0.1352
   13CHTO   C28 5433   5.598   7.619   2.588 -0.8566 -0.0223  0.0435
   13CHTO   H56 5434   5.583   7.663   2.489  0.5258 -0.2356 -0.2652
   13CHTO   C35 5435   5.613   7.723   2.694  0.4261 -0.8989  0.0912
   13CHTO   O24 5436   5.503   7.821   2.684  0.1443  0.2942 -0.2838
   13CHTO   H39 5437   5.431   7.804   2.742 -1.0922  0.6570 -1.6489
   13CHTO    O9 5438   5.314   7.399   2.562 -0.1858 -0.4934 -0.3090
   13CHTO   C13 5439   5.305   7.317   2.711 -0.1536 -0.4896 -0.4172
   13CHTO   H26 5440   5.397   7.335   2.771 -1.2091  1.8705  0.5589
   13CHTO   C11 5441   5.284   7.171   2.678 -0.3950  0.2487  0.1184
   13CHTO   H24 5442   5.383   7.134   2.648  1.0328  2.0690  2.4086
   13CHTO    O8 5443   5.183   7.163   2.579  0.2990  0.3586 -0.0012
   13CHTO    H3 5444   5.142   7.079   2.567 -0.0412  0.6586 -0.9567
   13CHTO    C9 5445   5.246   7.100   2.810 -0.2090  0.3287 -0.5814
   13CHTO   H22 5446   5.322   7.122   2.886  1.2525 -1.1583 -1.5790
   13CHTO    N2 5447   5.256   6.950   2.803  0.4015  0.3704  0.3752
   13CHTO   H10 5448   5.246   6.904   2.706  1.5139  0.7181  0.0855
   13CHTO   H11 5449   5.349   6.914   2.844  0.3893  0.4018  0.4318
   13CHTO    C7 5450   5.103   7.143   2.860 -0.7502  0.1000 -0.3743
   13CHTO   H20 5451   5.107   7.158   2.969 -3.6675  2.5120 -0.5359
   13CHTO    O4 5452   5.068   7.275   2.805  0.6309  0.9056  0.1523
   13CHTO   C14 5453   5.178   7.368   2.796 -0.6023  0.5827 -0.2449
   13CHTO   H27 5454   5.208   7.378   2.902 -1.3984  0.3018  0.0146
   13CHTO   C18 5455   5.123   7.511   2.755  0.1693 -0.1460  0.1409
   13CHTO   O13 5456   5.218   7.614   2.795 -0.2318 -0.0397  0.1066
   13CHTO    H7 5457   5.212   7.695   2.747 -0.6771 -0.1550 -0.0385
   13CHTO    O2 5458   4.962   7.026   2.828 -0.5632  0.7517 -0.4754
   13CHTO    C1 5459   4.872   7.018   2.946 -0.0131 -0.3883  0.3883
   13CHTO   H14 5460   4.797   6.939   2.923 -0.0062 -0.7371  1.5283
   13CHTO    C2 5461   4.799   7.155   2.994 -0.1255  0.0811  0.0645
   13CHTO   H15 5462   4.885   7.218   3.023 -2.2997  3.1598 -0.0368
   13CHTO    O6 5463   4.724   7.203   2.880 -0.3117  0.5170  0.0742
   13CHTO    H1 5464   4.665   7.269   2.912 -1.9980 -1.7396  1.8241
   13CHTO    C3 5465   4.728   7.142   3.132  0.5204  0.5109 -0.5565
   13CHTO   H16 5466   4.642   7.075   3.125 -0.0817  1.1932  0.1600
   13CHTO    N1 5467   4.681   7.274   3.192 -0.0045 -0.2612 -0.4773
   13CHTO    H8 5468   4.604   7.307   3.124  0.4885  2.0942  0.0738
   13CHTO    H9 5469   4.626   7.246   3.281  1.6613 -1.3358  0.2388
   13CHTO    C4 5470   4.813   7.061   3.239  0.0092 -0.4226  0.1925
   13CHTO   H17 5471   4.900   7.118   3.271 -1.0465 -0.4846  3.3689
   13CHTO    O1 5472   4.851   6.937   3.177 -0.3629 -0.0946  0.1482
   13CHTO    C5 5473   4.950   6.952   3.070 -0.5011  0.2135  0.0524
   13CHTO   H18 5474   5.029   7.022   3.096  1.3443 -1.3060 -1.3567
   13CHTO   C16 5475   5.017   6.817   3.035  0.0069  0.2168  0.3637
   13CHTO   O11 5476   5.101   6.782   3.143 -0.4707 -0.3186 -0.0814
   13CHTO    H5 5477   5.170   6.845   3.153  1.4491 -2.0602 -1.9144
   13CHTO    O3 5478   4.736   7.026   3.357 -0.2482  0.6394 -0.0315
   13CHTO    C6 5479   4.656   6.911   3.371 -0.2605  0.2120 -0.0591
   13CHTO   H19 5480   4.626   6.868   3.275  0.1041  0.8046 -0.4384
   13CHTO    C8 5481   4.732   6.806   3.456 -0.0333 -0.3235  0.3022
   13CHTO   H21 5482   4.763   6.855   3.549  0.1252  1.5191 -0.6946
   13CHTO    O7 5483   4.852   6.769   3.388 -0.1583 -0.3464  0.1161
   13CHTO    H2 5484   4.912   6.841   3.392  1.2099 -1.3556 -1.3340
   13CHTO   C12 5485   4.648   6.672   3.495 -0.1623  0.3191  0.8680
   13CHTO   H25 5486   4.633   6.614   3.402 -1.6176 -0.1224  1.3685
   13CHTO    N3 5487   4.721   6.583   3.594 -0.0621 -0.2462 -0.3276
   13CHTO   H12 5488   4.704   6.613   3.697  0.0436 -0.7081 -0.1760
   13CHTO   H13 5489   4.826   6.580   3.570  0.1662 -2.2757  0.8046
   13CHTO   C15 5490   4.506   6.715   3.550  0.6361  0.1809  0.2439
   13CHTO   H28 5491   4.511   6.760   3.649  0.1808  2.2622 -0.6496
   13CHTO   O10 5492   4.392   6.606   3.547  0.2559  0.1228 -0.3443
   13CHTO    H4 5493   4.311   6.649   3.569 -0.2382 -0.3094 -1.2659
   13CHTO    O5 5494   4.452   6.810   3.457 -0.2308 -0.1754  0.4533
   13CHTO   C10 5495   4.521   6.937   3.446 -1.1065 -0.7443  0.6932
   13CHTO   H23 5496   4.542   6.977   3.546 -0.5512  0.6446  0.0314
   13CHTO   C17 5497   4.441   7.046   3.376  0.8440  0.2267  0.3691
   13CHTO   O12 5498   4.407   7.002   3.242 -0.2530 -0.1711 -0.8640
   13CHTO    H6 5499   4.327   7.031   3.204  0.0830 -0.2260 -1.6165
   14CHTO  H203 5500   7.303   4.748   1.933 -0.9880  1.1192 -1.7909
   14CHTO   O82 5501   7.240   4.799   1.979 -0.2397  0.4250  0.0557
   14CHTO  C123 5502   7.110   4.736   1.977  0.7826 -0.0015 -0.7388
   14CHTO  H227 5503   7.046   4.796   2.044 -0.1697  0.6319 -2.1713
   14CHTO   O77 5504   7.063   4.756   1.843 -0.0384  0.4316  0.1378
   14CHTO  C118 5505   6.935   4.694   1.811  0.1324  0.0442  0.2714
   14CHTO  H222 5506   6.853   4.743   1.866 -0.1946 -1.2403  0.9667
   14CHTO  C125 5507   6.907   4.720   1.647 -0.3819  0.5145 -0.1592
   14CHTO   O84 5508   6.888   4.860   1.620 -0.0793  0.2460  0.3609
   14CHTO  H205 5509   6.909   4.881   1.531  1.4746 -1.7715  0.2071
   14CHTO  C114 5510   6.931   4.546   1.839  0.0088  0.5654  0.0526
   14CHTO  H218 5511   7.014   4.499   1.786 -0.1944  1.8840 -1.4567
   14CHTO  C116 5512   6.963   4.526   1.991  0.7455  0.3151  0.7169
   14CHTO  H220 5513   6.888   4.578   2.054  1.0266 -0.9191  2.1074
   14CHTO   O79 5514   6.954   4.385   2.029 -0.1362 -0.2172 -0.2765
   14CHTO  H201 5515   6.976   4.386   2.120 -0.8500 -0.9229 -0.0855
   14CHTO  C120 5516   7.104   4.584   2.017 -0.1033 -0.5035 -0.4155
   14CHTO  H224 5517   7.174   4.533   1.947 -1.5657 -2.7544 -0.2799
   14CHTO   N21 5518   7.165   4.561   2.150  0.3042  0.2832 -0.6019
   14CHTO  H211 5519   7.271   4.545   2.133 -0.3017 -2.8689 -1.6782
   14CHTO  H212 5520   7.162   4.652   2.207  0.7314 -0.4437  0.5903
   14CHTO   O75 5521   6.818   4.481   1.790 -0.0887 -0.8987  0.0299
   14CHTO  C112 5522   6.667   4.502   1.854 -0.0049  0.2797 -0.0180
   14CHTO  H216 5523   6.645   4.610   1.859 -3.0259 -0.3177  0.3565
   14CHTO   O73 5524   6.672   4.443   1.984  0.3596 -0.8858  0.1144
   14CHTO  C113 5525   6.544   4.448   2.054 -0.5624  0.2800 -0.1419
   14CHTO  H217 5526   6.501   4.549   2.070  0.4065  1.1225 -2.6402
   14CHTO  C124 5527   6.577   4.399   2.194  0.3431 -0.0243 -0.4653
   14CHTO   O83 5528   6.633   4.266   2.205  0.2444 -0.5826 -0.2828
   14CHTO  H204 5529   6.720   4.264   2.170  0.2133  2.1403 -0.6119
   14CHTO  C109 5530   6.446   4.359   1.971  0.5295 -0.3541 -0.1517
   14CHTO  H213 5531   6.480   4.254   1.971  1.8178  0.0555  0.3685
   14CHTO  C110 5532   6.431   4.425   1.826 -0.2221  0.9343  0.7036
   14CHTO  H214 5533   6.379   4.520   1.831 -3.7803 -0.6530 -2.8580
   14CHTO   O78 5534   6.340   4.352   1.754  0.0635 -0.1752  0.2276
   14CHTO  H200 5535   6.255   4.347   1.794 -0.2884  2.0670 -0.1751
   14CHTO  C111 5536   6.570   4.430   1.756  0.1986  0.7111 -0.1984
   14CHTO  H215 5537   6.607   4.327   1.743  0.0272  0.6229  0.0033
   14CHTO   N19 5538   6.566   4.495   1.624 -0.0646  0.1724  0.6867
   14CHTO  H207 5539   6.607   4.433   1.545 -0.8750 -0.8393  1.0441
   14CHTO  H208 5540   6.478   4.553   1.603 -0.6021 -0.3950  1.3659
   14CHTO   O74 5541   6.323   4.361   2.048 -0.5117 -0.6376 -0.2370
   14CHTO  C115 5542   6.223   4.244   2.025 -0.1341  0.2579  0.3906
   14CHTO  H219 5543   6.229   4.207   1.923  0.4937  2.9109 -0.5540
   14CHTO   O76 5544   6.259   4.126   2.113  0.2257 -0.6271 -0.1364
   14CHTO  C122 5545   6.185   4.004   2.092  0.7116 -0.0793  0.1638
   14CHTO  H226 5546   6.209   3.941   2.177 -0.1459  0.6984  1.0026
   14CHTO  C126 5547   6.230   3.921   1.967 -0.2535 -0.5876 -0.5429
   14CHTO   O85 5548   6.361   3.878   1.969  0.3814 -0.2323 -0.7955
   14CHTO  H206 5549   6.383   3.839   2.051 -0.1046  1.8727  0.3582
   14CHTO  C121 5550   6.023   4.037   2.092 -0.4538  0.6520  0.0770
   14CHTO  H225 5551   5.980   3.941   2.056 -1.7246  1.1370  0.3006
   14CHTO   O81 5552   5.982   4.059   2.223  0.2149 -0.0717 -0.7084
   14CHTO  H202 5553   6.042   4.091   2.288 -1.2372  0.7046  0.2773
   14CHTO  C119 5554   5.990   4.159   2.001 -1.0592 -0.5056  0.1902
   14CHTO  H223 5555   6.033   4.132   1.904  2.0278  3.2565  0.3846
   14CHTO  C117 5556   6.075   4.286   2.041 -0.9162  0.3073  0.7296
   14CHTO  H221 5557   6.070   4.315   2.146  0.3682  1.2440  0.5481
   14CHTO   N20 5558   6.031   4.412   1.970  0.2588  0.2647  0.5147
   14CHTO  H209 5559   6.074   4.494   2.025  0.6816  1.3105 -1.3542
   14CHTO  H210 5560   5.924   4.423   1.960  0.0983 -0.2346  1.5854
   14CHTO   O80 5561   5.833   4.167   1.966  0.8396  0.1027 -0.3555
   14CHTO  C103 5562   5.782   4.144   1.826 -0.0114  0.7149 -0.3026
   14CHTO  H190 5563   5.845   4.186   1.747  0.6055 -0.5453 -0.5133
   14CHTO  C101 5564   5.754   3.990   1.799 -0.6224 -0.2455  0.0097
   14CHTO  H188 5565   5.690   3.950   1.878 -1.1455  0.0615 -0.2546
   14CHTO   O68 5566   5.880   3.902   1.793  0.1204  0.4632 -0.0226
   14CHTO  H168 5567   5.968   3.929   1.806  0.2355 -0.7332  1.8967
   14CHTO   C99 5568   5.682   3.976   1.654  0.8872 -0.0133 -0.6577
   14CHTO  H186 5569   5.740   4.034   1.579 -2.7065  2.8045 -1.3809
   14CHTO   N17 5570   5.658   3.833   1.604  0.0953 -0.1938 -0.4212
   14CHTO  H174 5571   5.570   3.810   1.662  1.6165  0.0890  2.0941
   14CHTO  H175 5572   5.737   3.767   1.637 -3.1053 -3.3213  1.3286
   14CHTO   C97 5573   5.551   4.059   1.665  0.2753  0.1444 -0.5472
   14CHTO  H184 5574   5.488   4.015   1.743  0.1578  2.7342  0.8590
   14CHTO   O64 5575   5.586   4.196   1.694  0.4848  0.3582  0.1372
   14CHTO  C104 5576   5.645   4.224   1.817  0.3021 -0.1221 -0.7369
   14CHTO  H191 5577   5.583   4.204   1.905  0.4006  0.9555 -0.4114
   14CHTO  C108 5578   5.677   4.377   1.827 -0.0449  0.1450 -0.0091
   14CHTO   O71 5579   5.560   4.435   1.886  0.2347  0.0885 -0.0550
   14CHTO  H171 5580   5.584   4.470   1.970  1.4884  2.9210 -1.5203
   14CHTO   O62 5581   5.488   4.081   1.542  0.7932 -0.0587 -0.1592
   14CHTO   C91 5582   5.341   4.098   1.540 -0.1514  0.4991  0.2615
   14CHTO  H178 5583   5.292   4.008   1.578 -1.1739  1.3774  1.0746
   14CHTO   C92 5584   5.298   4.099   1.386  0.2541 -0.1877 -0.1346
   14CHTO  H179 5585   5.344   4.016   1.331  0.0231  0.4290 -1.2752
   14CHTO   O66 5586   5.161   4.062   1.386  0.5221 -0.2752 -0.3564
   14CHTO  H166 5587   5.110   4.125   1.434 -0.2407  0.1824 -1.7357
   14CHTO   C93 5588   5.317   4.242   1.323  0.0422 -0.1606  0.1935
   14CHTO  H180 5589   5.253   4.245   1.233  0.9613 -3.0494 -0.6057
   14CHTO   N16 5590   5.453   4.265   1.277  0.0642  0.0747 -0.7273
   14CHTO  H172 5591   5.508   4.251   1.369  1.3943  0.8805 -1.3810
   14CHTO  H173 5592   5.488   4.195   1.202  0.2938  0.7307 -1.2362
   14CHTO   C94 5593   5.272   4.359   1.424 -0.4646  0.3126  0.4569
   14CHTO  H181 5594   5.357   4.419   1.457  0.4171 -1.5287  1.6100
   14CHTO   O61 5595   5.204   4.310   1.543  0.1482  0.0712 -0.0451
   14CHTO   C95 5596   5.293   4.226   1.619 -0.3516 -0.0559  1.0018
   14CHTO  H182 5597   5.383   4.281   1.647  0.4754 -1.3377  0.8741
   14CHTO  C106 5598   5.216   4.189   1.748 -0.7105 -0.1234 -0.3431
   14CHTO   O69 5599   5.141   4.305   1.806 -0.1261  0.1267 -0.5177
   14CHTO  H169 5600   5.057   4.308   1.765  0.1779  0.2950 -1.1292
   14CHTO   O63 5601   5.175   4.455   1.342 -0.2097  0.4890 -0.5423
   14CHTO   C96 5602   5.207   4.614   1.376  0.0345  0.1537  0.1188
   14CHTO  H183 5603   5.132   4.677   1.328  0.2530  0.2354 -0.1207
   14CHTO   C98 5604   5.352   4.653   1.329  0.0902 -0.5932 -0.2607
   14CHTO  H185 5605   5.429   4.591   1.378  0.6694  0.7241  0.5288
   14CHTO   O67 5606   5.357   4.614   1.192 -0.3486  0.2172 -0.3544
   14CHTO  H167 5607   5.397   4.530   1.179 -1.9505 -0.6014 -0.0841
   14CHTO  C102 5608   5.370   4.812   1.360 -0.2065 -0.4777  0.3715
   14CHTO  H189 5609   5.292   4.858   1.297 -0.7766 -0.8581  0.7976
   14CHTO   N18 5610   5.499   4.870   1.315  0.4307 -0.1761 -0.4657
   14CHTO  H176 5611   5.517   4.829   1.217  0.2543  0.7694 -0.8971
   14CHTO  H177 5612   5.485   4.976   1.298  1.8619  0.2173  0.7425
   14CHTO  C105 5613   5.334   4.837   1.510 -0.6565 -0.4586 -0.2903
   14CHTO  H192 5614   5.411   4.796   1.575 -0.4320 -1.2803 -1.0711
   14CHTO   O65 5615   5.212   4.780   1.562  0.3288 -0.0991 -0.3187
   14CHTO  C100 5616   5.206   4.641   1.534  0.0979 -0.2511 -0.3946
   14CHTO  H187 5617   5.289   4.593   1.588 -0.6303  1.3573  2.2011
   14CHTO  C107 5618   5.077   4.588   1.590  0.6991  0.2629 -0.0830
   14CHTO   O70 5619   4.966   4.667   1.535 -0.0130  0.0603 -0.6154
   14CHTO  H170 5620   4.945   4.742   1.588 -1.9852 -1.2702  0.5421
   14CHTO   O57 5621   5.342   4.999   1.534 -0.7217 -0.2249 -0.0271
   14CHTO   C85 5622   5.221   5.078   1.511  0.0543 -0.1933 -0.0340
   14CHTO  H157 5623   5.139   5.012   1.476 -1.7262  0.4970  2.6040
   14CHTO   C83 5624   5.241   5.170   1.381  0.3040  0.3600  0.1855
   14CHTO  H155 5625   5.246   5.099   1.299  0.3266 -1.7309  1.9621
   14CHTO   O56 5626   5.378   5.223   1.391  0.2593 -0.1523  0.0542
   14CHTO  H135 5627   5.429   5.148   1.412 -0.8096 -1.2164 -1.0575
   14CHTO   C81 5628   5.124   5.273   1.364  0.0402  0.0296  0.5827
   14CHTO  H153 5629   5.034   5.213   1.350  0.1088  0.0992 -0.1922
   14CHTO   N14 5630   5.133   5.352   1.240  0.5280 -0.2483 -0.2181
   14CHTO  H141 5631   5.056   5.337   1.168 -0.7014 -0.4863  1.1323
   14CHTO  H142 5632   5.226   5.375   1.192  0.2370  1.9592  0.2264
   14CHTO   C79 5633   5.103   5.361   1.490  1.1251  0.0982  0.1446
   14CHTO  H151 5634   5.013   5.420   1.475  1.2842 -0.0659 -1.5210
   14CHTO   O52 5635   5.076   5.271   1.603 -0.6365  0.2886 -0.2733
   14CHTO   C86 5636   5.176   5.168   1.636  0.1294  0.5083  0.3936
   14CHTO  H158 5637   5.260   5.227   1.679  1.9028 -0.9071 -1.0674
   14CHTO   C90 5638   5.112   5.078   1.749  0.2472 -0.2439 -0.4337
   14CHTO   O60 5639   4.995   5.005   1.702 -0.3701  0.2466 -0.2727
   14CHTO  H138 5640   4.947   4.960   1.769 -0.8446  1.2288  0.0558
   14CHTO   O50 5641   5.210   5.456   1.519  0.4776  0.2724 -0.2746
   14CHTO   C73 5642   5.178   5.592   1.552  0.0940 -0.1777  0.6152
   14CHTO  H145 5643   5.078   5.606   1.595 -0.2405  2.4400 -0.9222
   14CHTO   C74 5644   5.181   5.677   1.426 -0.2913 -0.5028 -0.1342
   14CHTO  H146 5645   5.103   5.635   1.361 -0.3965  1.1419 -1.0747
   14CHTO   O54 5646   5.136   5.811   1.472 -0.2163 -0.5900 -0.6849
   14CHTO  H133 5647   5.047   5.811   1.500 -0.0139  2.8433  0.1076
   14CHTO   C75 5648   5.324   5.665   1.363  0.0463  0.3235  0.2321
   14CHTO  H147 5649   5.340   5.562   1.329 -2.5047  0.6320 -2.0555
   14CHTO   N13 5650   5.336   5.743   1.238  0.6152  0.1646 -1.1377
   14CHTO  H139 5651   5.438   5.740   1.204  1.2785  1.7613  0.6818
   14CHTO  H140 5652   5.298   5.843   1.247  0.6590  0.2962 -2.3327
   14CHTO   C76 5653   5.424   5.712   1.474 -0.9381  0.2536 -0.9029
   14CHTO  H148 5654   5.411   5.816   1.501  0.1749 -0.3277  2.0063
   14CHTO   O49 5655   5.406   5.641   1.604 -0.5585  0.0963 -0.2590
   14CHTO   C77 5656   5.276   5.642   1.657  0.0617  0.2968 -0.8702
   14CHTO  H149 5657   5.258   5.748   1.671 -0.9748  0.2404 -1.7043
   14CHTO   C88 5658   5.280   5.564   1.792  0.4324 -0.0969  0.4648
   14CHTO   O58 5659   5.144   5.583   1.863  0.4629  0.2032 -0.5705
   14CHTO  H136 5660   5.078   5.533   1.819  1.4129 -0.0533 -1.7332
   14CHTO   O51 5661   5.571   5.675   1.439 -0.3806 -0.0364 -0.2625
   14CHTO   C78 5662   5.681   5.751   1.513 -0.3654 -0.0147  0.7183
   14CHTO  H150 5663   5.653   5.791   1.612  1.3269  2.0113  0.4270
   14CHTO   C80 5664   5.722   5.870   1.427 -0.1943  0.4767  0.0569
   14CHTO  H152 5665   5.694   5.841   1.323 -0.4596 -0.0790  0.2822
   14CHTO   O55 5666   5.644   5.983   1.473  0.0255  0.3413  0.0252
   14CHTO  H134 5667   5.558   5.960   1.501 -0.1740  2.3604  1.1471
   14CHTO   C84 5668   5.870   5.920   1.433 -0.3025  0.1237 -0.7745
   14CHTO  H156 5669   5.890   5.965   1.531  0.1416 -0.6223 -0.5206
   14CHTO   N15 5670   5.919   6.013   1.324 -0.0846  0.1109  0.4907
   14CHTO  H143 5671   5.910   5.976   1.224 -1.5003  1.4509  0.0971
   14CHTO  H144 5672   5.870   6.108   1.336  0.6390  0.3183  1.8651
   14CHTO   C87 5673   5.959   5.794   1.437  0.3508 -0.6350 -0.2529
   14CHTO  H159 5674   5.956   5.732   1.348 -0.3810  0.0433 -0.7009
   14CHTO   O53 5675   5.923   5.717   1.543  0.1438  0.1652  0.4218
   14CHTO   C82 5676   5.798   5.652   1.530 -0.2322 -0.5545  0.6316
   14CHTO  H154 5677   5.809   5.577   1.452  1.1723 -0.0280  0.3228
   14CHTO   C89 5678   5.775   5.568   1.658  0.0085 -0.1094 -0.1276
   14CHTO   O59 5679   5.671   5.481   1.624  0.1755  0.2904 -0.7799
   14CHTO  H137 5680   5.644   5.413   1.683 -1.2547  0.7070 -0.9402
   14CHTO   O45 5681   6.116   5.833   1.464  0.6320  0.3962 -0.1091
   14CHTO   C67 5682   6.206   5.733   1.416 -0.2682  0.5497 -0.4675
   14CHTO  H124 5683   6.166   5.631   1.411 -0.6537  0.5149  2.5873
   14CHTO   C65 5684   6.262   5.765   1.278  0.0736 -0.3190  0.0451
   14CHTO  H122 5685   6.172   5.784   1.220  0.5427  2.2985  0.1056
   14CHTO   O44 5686   6.337   5.661   1.218 -0.1015  0.4550 -0.3062
   14CHTO  H102 5687   6.425   5.658   1.250  0.4344  1.7502 -1.6050
   14CHTO   C63 5688   6.335   5.902   1.288  0.0518 -0.0102  0.4815
   14CHTO  H120 5689   6.262   5.976   1.322 -0.8351  0.0079 -1.3927
   14CHTO   N11 5690   6.372   5.974   1.160 -0.6501 -0.3647  0.7536
   14CHTO  H108 5691   6.468   6.021   1.157 -0.7635 -0.1857 -1.3796
   14CHTO  H109 5692   6.364   5.909   1.075 -1.8237 -1.3652  1.6184
   14CHTO   C61 5693   6.453   5.893   1.387  0.4350 -0.1380  0.8104
   14CHTO  H118 5694   6.504   5.988   1.406  0.3678  0.2388 -0.8464
   14CHTO   O40 5695   6.416   5.838   1.516 -0.0717 -0.5495 -0.3736
   14CHTO   C68 5696   6.311   5.730   1.527 -0.7227 -0.0569 -0.0912
   14CHTO  H125 5697   6.265   5.742   1.627 -1.3736  1.7861 -0.5896
   14CHTO   C72 5698   6.386   5.591   1.529  0.1650  0.8752  0.0330
   14CHTO   O48 5699   6.454   5.557   1.650  0.6963 -0.1793  0.5232
   14CHTO  H105 5700   6.408   5.486   1.691  1.0563 -0.3759  0.5928
   14CHTO   O38 5701   6.556   5.794   1.348  0.4617 -0.0215  1.1160
   14CHTO   C55 5702   6.687   5.827   1.304  0.0791 -0.3668 -0.2979
   14CHTO  H112 5703   6.689   5.935   1.285  2.3892 -0.4685 -0.8417
   14CHTO   C56 5704   6.729   5.738   1.173 -0.5519  0.3212 -0.4412
   14CHTO  H113 5705   6.690   5.636   1.183  0.3690  0.1172  1.1480
   14CHTO   O42 5706   6.668   5.788   1.052  0.3190 -0.0747  0.4782
   14CHTO  H100 5707   6.585   5.745   1.045 -0.1907  0.7931  1.2180
   14CHTO   C57 5708   6.889   5.721   1.147 -0.2879  0.8045 -0.6057
   14CHTO  H114 5709   6.913   5.802   1.078  1.8592 -0.1112 -0.9806
   14CHTO   N10 5710   6.928   5.606   1.068  0.7106 -0.2382 -0.4870
   14CHTO  H106 5711   7.023   5.605   1.017  1.7758  0.1514  1.4274
   14CHTO  H107 5712   6.912   5.519   1.130 -1.4509 -0.8884 -1.8991
   14CHTO   C58 5713   6.977   5.733   1.272  0.4089 -0.5509 -0.1071
   14CHTO  H115 5714   6.978   5.636   1.326 -1.1267  0.3782  1.6728
   14CHTO   O37 5715   6.932   5.822   1.374  0.3688 -0.7662  0.5125
   14CHTO   C59 5716   6.793   5.792   1.413  0.4983 -0.1912  0.2014
   14CHTO  H116 5717   6.784   5.685   1.430 -0.7096 -0.0751  0.3575
   14CHTO   C70 5718   6.771   5.869   1.544 -0.3869  0.1196  0.1391
   14CHTO   O46 5719   6.826   5.795   1.654  0.3894 -0.0079 -0.0535
   14CHTO  H103 5720   6.750   5.773   1.705  0.8946 -0.9890  0.2881
   14CHTO   O39 5721   7.131   5.773   1.221  0.2245  0.3120 -0.7223
   14CHTO   C60 5722   7.238   5.744   1.310  0.3764 -0.0156  0.2815
   14CHTO  H117 5723   7.202   5.766   1.411 -0.2582 -0.6342  0.1984
   14CHTO   C62 5724   7.265   5.587   1.310  0.0394 -1.0762  0.6337
   14CHTO  H119 5725   7.183   5.533   1.362 -1.1269 -0.7040 -0.7857
   14CHTO   O43 5726   7.269   5.552   1.172  0.6009  0.4200  0.3730
   14CHTO  H101 5727   7.241   5.464   1.155  1.6337  0.6101 -2.6706
   14CHTO   C66 5728   7.392   5.555   1.400 -0.3489  0.1344  0.0713
   14CHTO  H123 5729   7.391   5.606   1.496  1.2311  0.4632 -0.0710
   14CHTO   N12 5730   7.420   5.415   1.421 -0.5567  0.2298 -0.1975
   14CHTO  H110 5731   7.526   5.398   1.413 -0.5985 -1.7002  2.5054
   14CHTO  H111 5732   7.386   5.397   1.522  1.5687  1.6641  0.8022
   14CHTO   C69 5733   7.513   5.638   1.345  0.2544 -0.5700 -0.4961
   14CHTO  H126 5734   7.524   5.626   1.235 -0.3108  0.0407 -0.6276
   14CHTO   O41 5735   7.478   5.800   1.386  0.0486  0.7207  0.0623
   14CHTO   C64 5736   7.358   5.841   1.284 -0.1288  0.5512  0.9738
   14CHTO  H121 5737   7.403   5.835   1.183  2.6209 -0.1310  2.1993
   14CHTO   C71 5738   7.309   5.983   1.320 -0.0758 -0.4673  0.0392
   14CHTO   O47 5739   7.212   6.038   1.228  0.1459  0.3513 -0.2352
   14CHTO  H104 5740   7.152   6.096   1.271  1.4814  4.0336 -3.0251
   14CHTO   O34 5741   7.645   5.609   1.415 -0.1292 -0.4282 -0.4481
   14CHTO   C49 5742   7.767   5.611   1.320  0.3911  0.4433  0.5157
   14CHTO   H91 5743   7.748   5.538   1.241  3.1058 -0.6219  0.7808
   14CHTO   C47 5744   7.890   5.572   1.405 -0.7497 -0.0454 -0.1724
   14CHTO   H89 5745   7.973   5.582   1.332 -0.5960  2.0803  0.2662
   14CHTO   O33 5746   7.884   5.431   1.445 -0.4337  0.5518 -0.1750
   14CHTO   H70 5747   7.948   5.413   1.512  1.0358  1.5165 -1.2742
   14CHTO   C45 5748   7.912   5.670   1.536  0.1909 -0.4065 -0.2159
   14CHTO   H87 5749   7.860   5.633   1.626  0.8017 -2.1326 -0.5471
   14CHTO    N8 5750   8.054   5.671   1.573  0.0324  1.1519  0.3843
   14CHTO   H75 5751   8.062   5.683   1.680 -0.0889 -0.9012  0.6583
   14CHTO   H76 5752   8.103   5.753   1.524  0.1259  0.7561 -0.1948
   14CHTO   C43 5753   7.828   5.809   1.497  0.0429  1.1870  0.4937
   14CHTO   H85 5754   7.721   5.786   1.505 -0.3100  2.2047 -1.1382
   14CHTO   O29 5755   7.865   5.845   1.360 -0.2574 -0.5702  0.4373
   14CHTO   C50 5756   7.806   5.749   1.265  0.2826  0.9831 -0.6968
   14CHTO   H92 5757   7.719   5.804   1.229 -1.0587  1.6161  3.2706
   14CHTO   C54 5758   7.902   5.742   1.143  0.5479 -0.0661  0.3030
   14CHTO   O36 5759   7.897   5.854   1.049 -0.0931  0.6377 -0.0576
   14CHTO   H72 5760   7.854   5.818   0.974 -0.8212  2.7800 -0.7086
   14CHTO   O27 5761   7.851   5.918   1.582 -0.1571 -0.1052 -0.5814
   14CHTO   C37 5762   7.764   6.007   1.660  0.1110 -0.0347 -0.2419
   14CHTO   H79 5763   7.829   6.068   1.725  1.0992 -0.3095 -0.9487
   14CHTO   C38 5764   7.688   6.100   1.569  0.4091 -0.4036 -0.3789
   14CHTO   H80 5765   7.643   6.035   1.493 -0.8317  1.4248 -1.2387
   14CHTO   O31 5766   7.781   6.178   1.505 -0.1969 -0.1273  0.2392
   14CHTO   H68 5767   7.731   6.225   1.440 -1.1718  1.5336  2.1196
   14CHTO   C39 5768   7.575   6.179   1.644  0.7350 -0.4165  0.7930
   14CHTO   H81 5769   7.632   6.250   1.704  1.2381  1.3869 -1.6919
   14CHTO    N7 5770   7.481   6.258   1.549 -0.0567  0.4608 -0.4842
   14CHTO   H73 5771   7.412   6.185   1.510  1.2699 -1.4454  0.6820
   14CHTO   H74 5772   7.531   6.298   1.462  1.5283 -0.3095  0.0477
   14CHTO   C40 5773   7.492   6.092   1.749  0.7383 -0.5355  0.2644
   14CHTO   H82 5774   7.422   6.037   1.686  1.4874 -1.3469  0.1223
   14CHTO   O26 5775   7.579   6.004   1.823  0.5091  0.5482 -0.0322
   14CHTO   C41 5776   7.663   5.920   1.740  0.7572 -0.1135 -0.0571
   14CHTO   H83 5777   7.596   5.860   1.676  3.8753 -1.2717 -2.3493
   14CHTO   C52 5778   7.740   5.821   1.829 -0.2457 -0.2563  0.2311
   14CHTO   O35 5779   7.847   5.880   1.924  0.0638 -0.7437 -0.5671
   14CHTO   H71 5780   7.924   5.827   1.919 -0.1096 -1.1128  0.5549
   14CHTO   O28 5781   7.428   6.173   1.846  0.4514  0.8908 -0.5781
   14CHTO   C42 5782   7.293   6.152   1.898  0.5169  0.8491 -0.2530
   14CHTO   H84 5783   7.310   6.220   1.981 -1.3256  1.2989 -0.2083
   14CHTO   C44 5784   7.252   6.010   1.959 -0.5291 -0.0699  0.0813
   14CHTO   H86 5785   7.263   5.939   1.877  1.5496  0.9210 -0.5603
   14CHTO   O32 5786   7.350   5.971   2.055 -0.0403  0.0592  0.3186
   14CHTO   H69 5787   7.391   6.043   2.099 -2.2172  0.4228  1.8111
   14CHTO   C48 5788   7.112   6.016   2.016  0.0584 -0.3156 -0.7827
   14CHTO   H90 5789   7.118   6.083   2.103 -0.1828  0.2524 -1.1972
   14CHTO    N9 5790   7.063   5.883   2.069 -0.0972 -0.2083 -0.0662
   14CHTO   H77 5791   6.968   5.899   2.117  0.3089 -1.0299  1.0351
   14CHTO   H78 5792   7.131   5.844   2.144 -1.0546  1.0604  1.4925
   14CHTO   C51 5793   7.004   6.068   1.914 -0.1775 -0.1757  0.9968
   14CHTO   H93 5794   7.009   6.002   1.828 -2.0974  1.0555 -0.0858
   14CHTO   O30 5795   7.041   6.202   1.877  0.0893  0.0333 -0.8138
   14CHTO   C46 5796   7.180   6.218   1.806 -0.1895  0.5541 -0.8134
   14CHTO   H88 5797   7.183   6.156   1.717 -1.4128  0.8367 -1.0642
   14CHTO   C53 5798   7.203   6.368   1.780  0.0957  0.1142 -0.5836
   14CHTO   O72 5799   7.165   6.451   1.889 -0.3086 -0.1857 -0.8951
   14CHTO  H199 5800   7.133   6.533   1.856 -0.0599 -0.4147 -1.7358
   14CHTO   O22 5801   6.869   6.083   1.961 -0.1756  0.3487 -0.4010
   14CHTO   C31 5802   6.746   6.066   1.886  0.4390  0.2422  0.1342
   14CHTO   H59 5803   6.776   6.025   1.787  0.3809  0.4570  0.0264
   14CHTO   C29 5804   6.653   5.963   1.954 -1.0308 -0.4144 -0.0821
   14CHTO   H57 5805   6.620   6.013   2.047 -0.1446 -1.2385  0.6814
   14CHTO   O21 5806   6.740   5.851   1.974 -0.5715  0.1725 -0.5326
   14CHTO   H37 5807   6.695   5.770   1.964 -0.6100  0.0584  0.5517
   14CHTO   C27 5808   6.532   5.928   1.865 -0.7016  0.2108 -0.0944
   14CHTO   H55 5809   6.572   5.884   1.772 -0.1298  1.7888 -0.6007
   14CHTO    N5 5810   6.435   5.829   1.925  0.2710  0.0282  0.8230
   14CHTO   H43 5811   6.482   5.744   1.971  1.7699 -0.5883 -1.7939
   14CHTO   H44 5812   6.359   5.810   1.851  0.6098  0.6964  0.2939
   14CHTO   C25 5813   6.449   6.054   1.815  0.6761 -0.4940  0.1191
   14CHTO   H53 5814   6.395   6.104   1.897  1.1124  0.7955 -0.3700
   14CHTO   O17 5815   6.541   6.159   1.764 -0.6794  0.1289 -0.1306
   14CHTO   C32 5816   6.657   6.190   1.845 -0.2367  0.1980 -0.1999
   14CHTO   H60 5817   6.623   6.242   1.934 -1.6351  0.1275 -0.6896
   14CHTO   C36 5818   6.747   6.296   1.777  0.4084 -0.2769 -0.4787
   14CHTO   O25 5819   6.686   6.423   1.771  0.2628  0.7796 -0.2591
   14CHTO   H40 5820   6.616   6.416   1.708 -0.4165  0.7670  0.4947
   14CHTO   O15 5821   6.328   6.029   1.704 -0.1087  0.4575 -0.3158
   14CHTO   C19 5822   6.186   6.076   1.694 -0.3215  0.0910 -0.7334
   14CHTO   H47 5823   6.151   6.013   1.611  0.4414  0.9737 -1.7509
   14CHTO   C20 5824   6.100   6.041   1.817 -0.8983 -0.5191 -0.0866
   14CHTO   H48 5825   6.139   6.085   1.910  0.4294 -0.5943 -0.5970
   14CHTO   O19 5826   6.107   5.896   1.836 -0.2108  0.0874 -0.0465
   14CHTO   H35 5827   6.026   5.851   1.835  0.9426 -2.1522  2.6923
   14CHTO   C21 5828   5.952   6.082   1.791  1.0792  0.6946 -0.3797
   14CHTO   H49 5829   5.912   6.022   1.710 -0.2765  1.5519 -0.3539
   14CHTO    N4 5830   5.847   6.069   1.897  0.2237  0.0967  0.0238
   14CHTO   H41 5831   5.745   6.068   1.861  0.3794 -1.5492 -0.4055
   14CHTO   H42 5832   5.868   5.979   1.952  2.0754  1.3624  1.4437
   14CHTO   C22 5833   5.956   6.225   1.731 -0.2977 -0.1518 -0.4745
   14CHTO   H50 5834   5.992   6.290   1.811  1.8815  0.5897 -2.0122
   14CHTO   O14 5835   6.041   6.238   1.618  0.2104 -0.5507  0.3061
   14CHTO   C23 5836   6.179   6.224   1.641  0.6702  0.1338 -0.3651
   14CHTO   H51 5837   6.209   6.297   1.718 -1.2886 -0.8373  1.3458
   14CHTO   C34 5838   6.260   6.242   1.510 -0.1055  0.0087  0.1404
   14CHTO   O23 5839   6.400   6.246   1.527 -0.1135 -0.4007  0.0886
   14CHTO   H38 5840   6.447   6.226   1.448  0.5106  0.2561  0.2876
   14CHTO   O16 5841   5.830   6.269   1.682  0.3424  0.3092  0.2230
   14CHTO   C24 5842   5.787   6.429   1.663  0.3955  0.4742 -0.0874
   14CHTO   H52 5843   5.758   6.448   1.560  0.2876  0.5247 -0.0476
   14CHTO   C26 5844   5.891   6.541   1.696 -0.2489 -0.4302 -0.4489
   14CHTO   H54 5845   5.940   6.518   1.793  0.9423  1.4774 -0.5673
   14CHTO   O20 5846   5.986   6.530   1.600  0.5431  0.4749  0.2370
   14CHTO   H36 5847   5.948   6.528   1.514  0.7723  0.0358  0.1462
   14CHTO   C30 5848   5.831   6.684   1.704  0.1840 -0.0827 -0.2834
   14CHTO   H58 5849   5.789   6.702   1.604 -0.6673  1.3108  0.3112
   14CHTO    N6 5850   5.938   6.777   1.741  0.3676 -0.1964 -0.2508
   14CHTO   H45 5851   5.975   6.770   1.842  0.7957  0.1796 -0.3802
   14CHTO   H46 5852   5.924   6.882   1.721  2.4868  0.9037  3.6032
   14CHTO   C33 5853   5.709   6.686   1.801  0.0940  0.4068  0.1432
   14CHTO   H61 5854   5.738   6.654   1.902  0.2977  1.8330  0.5447
   14CHTO   O18 5855   5.617   6.585   1.744  0.1927 -0.2420 -0.5829
   14CHTO   C28 5856   5.660   6.445   1.750 -0.1268 -0.3127  0.7937
   14CHTO   H56 5857   5.681   6.413   1.852  0.1358  0.0343  0.8502
   14CHTO   C35 5858   5.541   6.377   1.694  0.3333 -0.9704 -0.5142
   14CHTO   O24 5859   5.542   6.236   1.730  0.0937 -0.3927 -0.0203
   14CHTO   H39 5860   5.521   6.228   1.821 -0.3405 -1.4322 -0.2078
   14CHTO    O9 5861   5.643   6.811   1.819  0.4850 -0.0728 -0.1373
   14CHTO   C13 5862   5.555   6.827   1.957  0.6670 -0.5876 -0.7880
   14CHTO   H26 5863   5.597   6.763   2.037  1.8423  0.7282 -0.3399
   14CHTO   C11 5864   5.406   6.790   1.920 -0.3678  0.4942  0.0697
   14CHTO   H24 5865   5.399   6.681   1.928 -0.9841  0.5013 -0.3536
   14CHTO    O8 5866   5.381   6.818   1.783 -0.7973  0.4150  0.3973
   14CHTO    H3 5867   5.440   6.765   1.732 -1.8992  0.9510 -1.4933
   14CHTO    C9 5868   5.298   6.843   2.021  0.8456  0.1650  0.2099
   14CHTO   H22 5869   5.320   6.793   2.116  2.4373 -1.5671 -1.0453
   14CHTO    N2 5870   5.159   6.792   1.999 -0.3029  1.3993  0.9875
   14CHTO   H10 5871   5.129   6.709   2.060  0.9208 -0.8892 -1.3900
   14CHTO   H11 5872   5.148   6.769   1.894  2.0336  0.9996  0.7830
   14CHTO    C7 5873   5.315   6.998   2.046 -0.3935  0.0996 -0.2577
   14CHTO   H20 5874   5.309   7.003   2.157  0.3277 -0.0743 -0.2105
   14CHTO    O4 5875   5.436   7.047   1.993 -0.0954  0.1541  0.4610
   14CHTO   C14 5876   5.555   6.972   2.013  0.3190 -0.6016  0.1140
   14CHTO   H27 5877   5.572   6.962   2.122 -0.2902 -0.9526  0.1767
   14CHTO   C18 5878   5.672   7.061   1.959  0.7596 -0.2675  0.2158
   14CHTO   O13 5879   5.702   7.188   2.006  0.1172  0.6080 -0.1906
   14CHTO    H7 5880   5.734   7.187   2.094  0.8122  2.8040 -0.3982
   14CHTO    O2 5881   5.202   7.092   1.976  0.1879  0.3265 -0.0092
   14CHTO    C1 5882   5.196   7.235   2.016 -0.5766 -0.1095 -0.2595
   14CHTO   H14 5883   5.110   7.281   1.962 -0.2151  2.5719  1.3582
   14CHTO    C2 5884   5.329   7.322   2.009  0.0875  0.4367 -0.4277
   14CHTO   H15 5885   5.395   7.283   2.087 -2.8439 -2.1209  0.9019
   14CHTO    O6 5886   5.395   7.311   1.884 -0.3301  0.2401 -0.0757
   14CHTO    H1 5887   5.348   7.356   1.816 -0.4616 -0.6399 -0.5852
   14CHTO    C3 5888   5.288   7.476   2.042 -0.0305  0.4989 -0.3300
   14CHTO   H16 5889   5.208   7.495   1.969 -1.1148 -0.3275  0.6330
   14CHTO    N1 5890   5.390   7.577   2.023  0.2781  0.3677  0.4022
   14CHTO    H8 5891   5.480   7.562   2.082  1.2747 -0.5868 -1.2890
   14CHTO    H9 5892   5.357   7.679   2.028  0.4844  0.5786 -2.0536
   14CHTO    C4 5893   5.218   7.491   2.183  0.3108  0.0241  0.0005
   14CHTO   H17 5894   5.287   7.489   2.267 -1.0414 -0.0826  1.1299
   14CHTO    O1 5895   5.132   7.380   2.215  0.3270  0.6091 -0.4513
   14CHTO    C5 5896   5.160   7.251   2.171  0.1173  0.8056 -0.2659
   14CHTO   H18 5897   5.248   7.224   2.230 -0.7774  1.6440  1.4871
   14CHTO   C16 5898   5.037   7.169   2.219  0.1812  0.0854  0.1644
   14CHTO   O11 5899   5.056   7.032   2.231  0.7459 -0.4553  0.1433
   14CHTO    H5 5900   4.993   7.002   2.294  0.9352  2.8332  2.0306
   14CHTO    O3 5901   5.131   7.607   2.198  0.4443  0.0683 -0.6159
   14CHTO    C6 5902   5.129   7.663   2.334  0.4253 -0.7015  0.1526
   14CHTO   H19 5903   5.168   7.595   2.409 -0.0747 -0.2705  0.8132
   14CHTO    C8 5904   5.206   7.798   2.353 -0.0785 -0.2800  0.1041
   14CHTO   H21 5905   5.164   7.878   2.291 -1.0957 -1.6342 -0.9973
   14CHTO    O7 5906   5.347   7.771   2.322 -0.0034  0.1318 -0.0820
   14CHTO    H2 5907   5.370   7.680   2.321 -0.7830 -0.0825  0.6700
   14CHTO   C12 5908   5.187   7.857   2.503  0.3535 -0.7981 -0.2683
   14CHTO   H25 5909   5.233   7.782   2.569  0.5776  0.8521  1.5017
   14CHTO    N3 5910   5.259   7.994   2.506 -0.5434  0.3791 -0.3050
   14CHTO   H12 5911   5.305   8.026   2.598 -4.5171  2.3085  1.1284
   14CHTO   H13 5912   5.194   8.072   2.469  0.1687  1.4814  0.7346
   14CHTO   C15 5913   5.033   7.872   2.531 -0.1461 -0.1065 -1.1669
   14CHTO   H28 5914   4.990   7.960   2.483  0.7369  0.5647 -0.7479
   14CHTO   O10 5915   5.011   7.894   2.691 -0.1306 -0.4411 -0.3401
   14CHTO    H4 5916   4.971   7.978   2.703  1.5797  0.4788 -0.9129
   14CHTO    O5 5917   4.961   7.745   2.508  0.9964 -0.1002 -0.0809
   14CHTO   C10 5918   4.972   7.685   2.370 -0.5130 -0.3488 -0.1722
   14CHTO   H23 5919   4.916   7.746   2.299  0.1647 -0.6885 -0.9965
   14CHTO   C17 5920   4.894   7.555   2.382  0.0565 -0.3882 -0.2447
   14CHTO   O12 5921   4.957   7.462   2.463 -0.0691 -0.3482  0.1484
   14CHTO    H6 5922   4.928   7.375   2.442 -4.5048  1.4517 -1.4757
   15CHTO  H203 5923   8.074   4.767   1.927 -0.1584  0.3564 -0.4324
   15CHTO   O82 5924   7.981   4.764   1.940 -0.1907 -0.0317 -0.7393
   15CHTO  C123 5925   7.914   4.673   1.852 -0.3395 -0.8352  0.3655
   15CHTO  H227 5926   7.953   4.573   1.874  0.7299 -0.7653 -1.1065
   15CHTO   O77 5927   7.779   4.689   1.902  0.0566 -0.0158 -0.0821
   15CHTO  C118 5928   7.663   4.651   1.832  0.0693 -0.2428  0.8444
   15CHTO  H222 5929   7.649   4.543   1.839 -0.8971 -0.2180 -0.6130
   15CHTO  C125 5930   7.542   4.724   1.901  0.5284 -0.4995  1.0234
   15CHTO   O84 5931   7.513   4.668   2.022  0.5141 -0.3188  0.3850
   15CHTO  H205 5932   7.478   4.581   2.019  0.7527 -0.4102  0.2521
   15CHTO  C114 5933   7.670   4.689   1.683 -0.4341 -0.3571 -0.3093
   15CHTO  H218 5934   7.657   4.797   1.674 -2.8754 -0.7130 -1.5428
   15CHTO  C116 5935   7.805   4.657   1.618  0.1501  0.3234 -0.3560
   15CHTO  H220 5936   7.810   4.546   1.621 -0.4009  0.2763 -1.0181
   15CHTO   O79 5937   7.799   4.712   1.483 -0.1627 -0.4174  0.4739
   15CHTO  H201 5938   7.856   4.786   1.478 -0.1315 -0.6233 -2.9485
   15CHTO  C120 5939   7.931   4.716   1.702 -0.0519 -0.2278 -0.0616
   15CHTO  H224 5940   7.930   4.826   1.690 -0.2939  0.1930  3.3375
   15CHTO   N21 5941   8.060   4.672   1.640  0.3010 -0.0758  0.9628
   15CHTO  H211 5942   8.090   4.576   1.677  2.4056 -0.0030 -0.4999
   15CHTO  H212 5943   8.142   4.740   1.656  1.2237 -0.6325 -1.1504
   15CHTO   O75 5944   7.548   4.641   1.625  0.1756 -0.2905 -0.1110
   15CHTO  C112 5945   7.523   4.481   1.609  0.2096 -1.0009 -0.0057
   15CHTO  H216 5946   7.512   4.435   1.708  0.6203  1.9357  1.4656
   15CHTO   O73 5947   7.633   4.422   1.533 -0.1426  0.8027 -0.1338
   15CHTO  C113 5948   7.611   4.280   1.530 -0.3370  0.3415 -0.0770
   15CHTO  H217 5949   7.593   4.242   1.632 -0.7346 -0.8668 -0.5889
   15CHTO  C124 5950   7.742   4.211   1.476 -0.2084  0.1764  0.1895
   15CHTO   O83 5951   7.853   4.237   1.560  0.1708 -0.7457 -0.0211
   15CHTO  H204 5952   7.927   4.187   1.532  1.4969  0.5074  1.1275
   15CHTO  C109 5953   7.489   4.247   1.443 -0.2472 -0.6718  0.1424
   15CHTO  H213 5954   7.508   4.281   1.340  1.0734  2.2916  1.2960
   15CHTO  C110 5955   7.362   4.320   1.492  0.3826  0.1287  0.1210
   15CHTO  H214 5956   7.313   4.260   1.569  0.0684 -1.2714 -1.1397
   15CHTO   O78 5957   7.273   4.316   1.382 -0.3083 -0.1283 -0.0753
   15CHTO  H200 5958   7.186   4.293   1.406  0.0947 -0.0744  1.5324
   15CHTO  C111 5959   7.386   4.467   1.541 -0.1822  0.1304 -0.0219
   15CHTO  H215 5960   7.407   4.529   1.453  1.7456 -0.8003 -0.2376
   15CHTO   N19 5961   7.266   4.521   1.612  0.0171 -0.1506  0.5853
   15CHTO  H207 5962   7.244   4.618   1.570 -1.4285 -1.8850 -2.8671
   15CHTO  H208 5963   7.289   4.546   1.715  1.0063  1.3168  0.0280
   15CHTO   O74 5964   7.465   4.107   1.439  0.1339  0.0559 -0.6578
   15CHTO  C115 5965   7.413   4.041   1.317  0.0658  0.1988  0.2480
   15CHTO  H219 5966   7.384   4.110   1.238  0.1641 -0.7050 -0.5923
   15CHTO   O76 5967   7.532   3.951   1.248 -0.3175 -0.1209  0.0420
   15CHTO  C122 5968   7.588   3.849   1.332  0.0680  0.2427 -0.4602
   15CHTO  H226 5969   7.629   3.901   1.419 -1.8787 -1.7789  1.7223
   15CHTO  C126 5970   7.703   3.786   1.258  0.3614 -0.2257  0.6490
   15CHTO   O85 5971   7.808   3.872   1.231  0.8583  0.4279  0.3763
   15CHTO  H206 5972   7.814   3.887   1.138  0.1402 -0.2052  0.2224
   15CHTO  C121 5973   7.473   3.748   1.376  0.2987  0.3789 -0.1599
   15CHTO  H225 5974   7.505   3.653   1.329 -0.9437  0.4163 -1.1114
   15CHTO   O81 5975   7.475   3.742   1.513  0.2630 -0.2181  0.1436
   15CHTO  H202 5976   7.448   3.656   1.540  3.0104 -0.5086  2.2350
   15CHTO  C119 5977   7.329   3.790   1.318  0.0850 -0.0205 -0.4104
   15CHTO  H223 5978   7.331   3.781   1.209  2.6838  0.2469 -0.4268
   15CHTO  C117 5979   7.294   3.940   1.355  0.0073  0.2156  0.0019
   15CHTO  H221 5980   7.275   3.960   1.460  0.2521 -0.1332  0.1146
   15CHTO   N20 5981   7.165   3.977   1.284  0.1555  0.5675  0.8318
   15CHTO  H209 5982   7.109   3.893   1.246 -0.1851  0.2590  1.9873
   15CHTO  H210 5983   7.107   4.031   1.359 -2.2167 -0.3481 -0.2993
   15CHTO   O80 5984   7.211   3.665   1.364 -0.3784 -0.2344 -0.1147
   15CHTO  C103 5985   7.139   3.581   1.244  0.2542  0.0199  0.3452
   15CHTO  H190 5986   7.072   3.506   1.287 -3.2826  1.5660 -2.2346
   15CHTO  C101 5987   7.051   3.664   1.151  0.1330  0.1510 -0.3666
   15CHTO  H188 5988   7.108   3.740   1.096  1.6615 -0.3097  0.5322
   15CHTO   O68 5989   6.939   3.733   1.255 -0.4386  0.3349  0.3038
   15CHTO  H168 5990   6.853   3.730   1.217 -0.1344 -2.3646 -0.2680
   15CHTO   C99 5991   6.981   3.568   1.042 -0.3636  0.5280 -0.6105
   15CHTO  H186 5992   6.906   3.504   1.093  2.0225 -0.5120  1.6995
   15CHTO   N17 5993   6.895   3.633   0.945  0.9237  0.0828 -0.4739
   15CHTO  H174 5994   6.946   3.652   0.852  1.3187  1.9464  0.1182
   15CHTO  H175 5995   6.859   3.725   0.990  0.4511 -0.7236  0.8427
   15CHTO   C97 5996   7.084   3.462   0.985 -0.6880  0.4320  1.2610
   15CHTO  H184 5997   7.134   3.517   0.904 -1.5265 -2.4910 -1.3679
   15CHTO   O64 5998   7.181   3.402   1.078  0.7757  0.6949 -0.7499
   15CHTO  C104 5999   7.240   3.496   1.168  0.0222 -0.1703  0.3025
   15CHTO  H191 6000   7.308   3.558   1.109 -0.8012  1.8404  1.4402
   15CHTO  C108 6001   7.328   3.427   1.271  0.2341  0.4250 -0.5261
   15CHTO   O71 6002   7.445   3.368   1.212 -0.0523  0.0688 -0.0632
   15CHTO  H171 6003   7.436   3.292   1.158  0.4703 -0.5920  0.7765
   15CHTO   O62 6004   7.018   3.355   0.918 -0.1596 -0.2482  0.4940
   15CHTO   C91 6005   7.086   3.289   0.807 -0.3474 -0.0599  0.2772
   15CHTO  H178 6006   7.151   3.361   0.757 -1.2552  0.5156 -0.0872
   15CHTO   C92 6007   6.972   3.248   0.709  1.1697  0.1355  0.6859
   15CHTO  H179 6008   6.903   3.333   0.699  2.0125  0.4989 -2.6599
   15CHTO   O66 6009   7.029   3.217   0.577  0.2607 -0.1160 -0.1090
   15CHTO  H166 6010   6.967   3.178   0.518 -0.1026 -1.1128  0.9259
   15CHTO   C93 6011   6.890   3.124   0.763 -0.7363  0.3194 -0.1247
   15CHTO  H180 6012   6.841   3.073   0.679  1.7831 -1.7783 -0.3712
   15CHTO   N16 6013   6.770   3.149   0.844  0.3704 -0.0652 -0.2400
   15CHTO  H172 6014   6.725   3.051   0.849  0.9290 -0.2793  0.6488
   15CHTO  H173 6015   6.799   3.187   0.941  1.4225 -0.8963 -0.2248
   15CHTO   C94 6016   6.979   3.012   0.836 -0.2098  0.6649  0.0554
   15CHTO  H181 6017   6.973   3.021   0.944  0.6619  0.2942  0.1334
   15CHTO   O61 6018   7.118   3.033   0.807 -0.3482 -0.8105 -0.2724
   15CHTO   C95 6019   7.169   3.165   0.851 -0.2980  0.0196  0.1080
   15CHTO  H182 6020   7.174   3.163   0.960  0.3447  1.1411  0.1188
   15CHTO  C106 6021   7.328   3.164   0.816 -0.0061  0.1027 -0.3014
   15CHTO   O69 6022   7.389   3.289   0.844 -0.2347  0.3283  0.4016
   15CHTO  H169 6023   7.418   3.331   0.766  0.0351  0.1120  0.3816
   15CHTO   O63 6024   6.925   2.870   0.802 -0.2319  0.0217  0.2061
   15CHTO   C96 6025   6.958   2.747   0.901 -1.2487 -0.5457 -0.0141
   15CHTO  H183 6026   7.010   2.779   0.991  1.5587 -0.3715 -1.6382
   15CHTO   C98 6027   7.061   2.648   0.837  0.3007 -0.1486 -0.4227
   15CHTO  H185 6028   7.032   2.643   0.731  1.6600  0.3075 -0.8198
   15CHTO   O67 6029   7.198   2.699   0.834 -0.7155 -0.0046  0.1569
   15CHTO  H167 6030   7.208   2.752   0.756  1.3316 -0.3896  0.1477
   15CHTO  C102 6031   7.053   2.503   0.906 -0.0587  0.0443 -0.2049
   15CHTO  H189 6032   7.087   2.523   1.009 -2.1632 -0.2252  0.5518
   15CHTO   N18 6033   7.152   2.403   0.846 -0.2344  0.5761 -0.1847
   15CHTO  H176 6034   7.131   2.307   0.892  0.0657  0.7290  0.2652
   15CHTO  H177 6035   7.254   2.436   0.859  0.0249 -0.2666 -0.0571
   15CHTO  C105 6036   6.903   2.453   0.899  0.4360 -0.0648  0.0983
   15CHTO  H192 6037   6.861   2.477   0.801 -0.1025  0.4216  0.4399
   15CHTO   O65 6038   6.827   2.537   0.986 -0.2944 -0.9259  0.4880
   15CHTO  C100 6039   6.822   2.674   0.942  0.1238 -0.3198  0.1323
   15CHTO  H187 6040   6.753   2.679   0.857  0.5800  0.7838 -0.1897
   15CHTO  C107 6041   6.745   2.762   1.048 -0.3666  0.1383 -0.4044
   15CHTO   O70 6042   6.610   2.720   1.050  0.3574 -0.4249 -0.4952
   15CHTO  H170 6043   6.575   2.721   1.137 -0.3416  1.1516 -0.7790
   15CHTO   O57 6044   6.889   2.310   0.933 -0.6198 -0.3107 -0.0562
   15CHTO   C85 6045   6.887   2.259   1.066  0.7196 -0.5069  0.3719
   15CHTO  H157 6046   6.926   2.331   1.142 -1.6489  0.2396  0.9274
   15CHTO   C83 6047   6.984   2.135   1.072 -0.4072  0.2160 -0.2927
   15CHTO  H155 6048   7.081   2.184   1.064  0.2328 -1.0962 -0.6138
   15CHTO   O56 6049   6.960   2.045   0.962 -0.0065  0.2311  1.1595
   15CHTO  H135 6050   7.035   2.009   0.918 -0.1748  0.4518  0.6988
   15CHTO   C81 6051   6.977   2.077   1.210 -0.4978  0.1323  0.2733
   15CHTO  H153 6052   7.007   2.154   1.282  0.8660 -1.6249  1.6123
   15CHTO   N14 6053   7.088   1.973   1.228 -0.1282 -0.2481 -0.6407
   15CHTO  H141 6054   7.177   1.991   1.172  0.9402 -1.2304  0.6876
   15CHTO  H142 6055   7.055   1.872   1.216 -1.0584  0.0219 -0.3659
   15CHTO   C79 6056   6.833   2.018   1.250 -0.7989  0.1946  0.6276
   15CHTO  H151 6057   6.839   1.977   1.351  2.1761 -0.5442  0.1878
   15CHTO   O52 6058   6.743   2.135   1.246  0.5037  0.0451  0.1960
   15CHTO   C86 6059   6.747   2.202   1.109 -0.4476  0.1558  0.2822
   15CHTO  H158 6060   6.714   2.127   1.035  2.0993 -0.2748 -0.4695
   15CHTO   C90 6061   6.645   2.319   1.112 -0.6390 -0.1747  0.4737
   15CHTO   O60 6062   6.657   2.399   1.231 -0.5109  0.4509  0.3997
   15CHTO  H138 6063   6.743   2.397   1.269  0.2793  0.1919 -1.3842
   15CHTO   O50 6064   6.783   1.914   1.162  0.6335  0.5027 -0.7070
   15CHTO   C73 6065   6.690   1.805   1.137 -0.6452  0.2053 -0.6134
   15CHTO  H145 6066   6.600   1.850   1.092  0.0385  1.7277 -0.4689
   15CHTO   C74 6067   6.636   1.733   1.266  0.1101 -0.6060  0.0011
   15CHTO  H146 6068   6.599   1.816   1.328  2.7932 -0.5530  1.5946
   15CHTO   O54 6069   6.527   1.645   1.228 -0.2309 -0.1150  0.5894
   15CHTO  H133 6070   6.547   1.570   1.175 -2.2264 -1.3451  1.5126
   15CHTO   C75 6071   6.748   1.654   1.341 -0.5558  0.3054 -0.1694
   15CHTO  H147 6072   6.816   1.731   1.379 -2.5067  2.5595 -1.0660
   15CHTO   N13 6073   6.711   1.578   1.465 -0.2081 -0.2627  0.6198
   15CHTO  H139 6074   6.800   1.533   1.506  2.1653  1.4799 -2.3360
   15CHTO  H140 6075   6.673   1.651   1.536 -0.0847  0.4228 -0.0087
   15CHTO   C76 6076   6.834   1.563   1.238  0.4057  0.5006 -0.4146
   15CHTO  H148 6077   6.773   1.474   1.225 -1.9780  1.9077  0.7832
   15CHTO   O49 6078   6.852   1.629   1.111 -0.2357  0.0075 -0.2763
   15CHTO   C77 6079   6.744   1.693   1.042  0.1365  0.1293 -0.6117
   15CHTO  H149 6080   6.667   1.622   1.012 -0.1974  0.3247 -0.2198
   15CHTO   C88 6081   6.802   1.751   0.919  1.1318 -0.1454  0.3774
   15CHTO   O58 6082   6.689   1.810   0.847 -0.1187  0.0625 -0.1685
   15CHTO  H136 6083   6.694   1.789   0.756 -1.3517  0.2224 -0.2815
   15CHTO   O51 6084   6.961   1.545   1.278 -0.2973 -0.2834  0.4946
   15CHTO   C78 6085   7.056   1.431   1.216  0.2838 -0.4302  0.0781
   15CHTO  H150 6086   7.019   1.412   1.113 -2.4852 -1.3366  1.1758
   15CHTO   C80 6087   7.057   1.292   1.297  0.0309 -0.8137 -0.5794
   15CHTO  H152 6088   7.103   1.309   1.397 -1.0594 -2.8574  0.3069
   15CHTO   O55 6089   6.918   1.252   1.312 -0.1866 -0.1823  0.1996
   15CHTO  H134 6090   6.864   1.268   1.237 -0.0137 -0.6890 -0.0351
   15CHTO   C84 6091   7.150   1.197   1.216  0.6715 -0.1927 -0.7368
   15CHTO  H156 6092   7.123   1.174   1.112  1.4423 -1.4551 -0.6638
   15CHTO   N15 6093   7.152   1.061   1.281 -0.3810 -0.0964 -0.1104
   15CHTO  H143 6094   7.136   0.979   1.214  0.2220 -1.6565  1.6125
   15CHTO  H144 6095   7.241   1.050   1.339 -0.7777  0.3925  0.6063
   15CHTO   C87 6096   7.292   1.252   1.192 -0.0611 -0.3302 -0.0853
   15CHTO  H159 6097   7.339   1.270   1.289 -0.4350 -1.3265  0.2889
   15CHTO   O53 6098   7.270   1.397   1.116 -0.5537 -0.7778 -0.5112
   15CHTO   C82 6099   7.193   1.489   1.197  0.3383  0.6577  0.3531
   15CHTO  H154 6100   7.238   1.498   1.296  0.7166  2.3920  0.0304
   15CHTO   C89 6101   7.197   1.636   1.131 -0.1072  0.6100  0.2621
   15CHTO   O59 6102   7.144   1.640   0.999 -1.0779 -0.0835  0.3646
   15CHTO  H137 6103   7.050   1.636   1.002 -1.0033 -3.0206  0.8926
   15CHTO   O45 6104   7.392   1.182   1.092  0.2728 -0.5944 -0.1214
   15CHTO   C67 6105   7.531   1.208   1.129  0.5300  0.4614  0.0703
   15CHTO  H124 6106   7.540   1.295   1.193 -1.5140  0.9404 -0.2613
   15CHTO   C65 6107   7.588   1.092   1.212  0.2280  0.8118 -0.4567
   15CHTO  H122 6108   7.534   1.000   1.194 -1.1718  1.3046  1.1685
   15CHTO   O44 6109   7.560   1.134   1.345  0.6313  0.0920  0.3982
   15CHTO  H102 6110   7.593   1.074   1.409  0.3749 -0.7008 -0.1962
   15CHTO   C63 6111   7.743   1.063   1.178  0.4450 -0.1336  0.0032
   15CHTO  H120 6112   7.739   1.009   1.083  1.7481  1.9064 -1.2504
   15CHTO   N11 6113   7.813   0.959   1.259  0.2922 -0.1134 -0.4279
   15CHTO  H108 6114   7.905   0.940   1.206  0.9199 -2.4098  1.3882
   15CHTO  H109 6115   7.756   0.868   1.257 -0.7754  0.5379  0.0739
   15CHTO   C61 6116   7.822   1.197   1.145  0.0013 -0.5134 -0.5817
   15CHTO  H118 6117   7.922   1.168   1.110 -0.7341 -1.7505 -1.6940
   15CHTO   O40 6118   7.758   1.269   1.035 -0.2115 -0.7472  0.2983
   15CHTO   C68 6119   7.614   1.230   1.001  0.3376 -0.0013  0.2232
   15CHTO  H125 6120   7.617   1.139   0.937 -0.9144 -0.9133  1.4304
   15CHTO   C72 6121   7.572   1.342   0.912  0.4147 -0.3418 -0.2141
   15CHTO   O48 6122   7.452   1.316   0.836 -0.5195  0.0611  0.0080
   15CHTO  H105 6123   7.379   1.312   0.896 -1.2532 -0.3584 -0.8950
   15CHTO   O38 6124   7.843   1.295   1.250  0.1267  0.4279  0.0187
   15CHTO   C55 6125   7.897   1.422   1.218  0.0916  0.6877  0.2889
   15CHTO  H112 6126   7.868   1.450   1.116 -1.2724 -1.4109  0.0765
   15CHTO   C56 6127   8.051   1.413   1.236 -0.0533 -0.1560  0.1230
   15CHTO  H113 6128   8.062   1.366   1.335 -0.8270  0.3189  0.4463
   15CHTO   O42 6129   8.114   1.313   1.154 -0.1757 -0.5295 -0.0479
   15CHTO  H100 6130   8.206   1.308   1.166  0.1173 -1.2476 -2.4216
   15CHTO   C57 6131   8.110   1.559   1.220 -0.9025  0.0968 -0.0720
   15CHTO  H114 6132   8.096   1.572   1.112  0.7164 -0.0823 -0.3072
   15CHTO   N10 6133   8.251   1.565   1.257 -0.5234 -0.2488 -0.8424
   15CHTO  H106 6134   8.293   1.655   1.215  0.3045  0.0992  0.7013
   15CHTO  H107 6135   8.303   1.479   1.217  0.2070 -0.8095  1.2071
   15CHTO   C58 6136   8.036   1.671   1.297  0.0867 -0.3728  0.2299
   15CHTO  H115 6137   8.060   1.656   1.405  2.7483 -0.5457 -0.3586
   15CHTO   O37 6138   7.893   1.659   1.279 -0.0713  0.0405 -0.1011
   15CHTO   C59 6139   7.842   1.528   1.317 -0.0193 -0.4788 -0.4648
   15CHTO  H116 6140   7.868   1.513   1.422  2.8022  0.8389 -0.9229
   15CHTO   C70 6141   7.688   1.531   1.298  0.0118 -0.2630 -0.0079
   15CHTO   O46 6142   7.631   1.617   1.402  0.4224  0.4961  0.0895
   15CHTO  H103 6143   7.620   1.706   1.377  1.7217  0.9308  1.0017
   15CHTO   O39 6144   8.084   1.831   1.246 -0.1814 -0.3603 -0.3185
   15CHTO   C60 6145   8.018   1.882   1.127 -0.1349 -0.6275  0.2949
   15CHTO  H117 6146   8.008   1.791   1.069 -0.0155 -0.5237  0.1111
   15CHTO   C62 6147   7.891   1.958   1.146  0.0396 -0.0052 -0.7579
   15CHTO  H119 6148   7.812   1.899   1.197 -0.5136  1.3321 -0.0077
   15CHTO   O43 6149   7.916   2.073   1.237 -0.0022  0.3857  0.0322
   15CHTO  H101 6150   8.001   2.109   1.220 -0.8715  2.0233 -1.1012
   15CHTO   C66 6151   7.835   2.003   1.005  0.0724  0.8115 -0.1611
   15CHTO  H123 6152   7.835   1.915   0.940  0.8771 -0.1013  1.0536
   15CHTO   N12 6153   7.691   2.057   1.011  0.6108 -0.0072  0.5296
   15CHTO  H110 6154   7.677   2.130   1.090 -1.9386 -0.2854  0.3524
   15CHTO  H111 6155   7.666   2.089   0.911  2.5138 -0.9090 -0.2623
   15CHTO   C69 6156   7.934   2.106   0.941  1.3192 -0.5313 -0.0857
   15CHTO  H126 6157   7.958   2.189   1.010 -0.5522 -0.8781  1.0150
   15CHTO   O41 6158   8.076   2.029   0.924  0.2852  0.2439  0.3719
   15CHTO   C64 6159   8.125   1.977   1.051  0.1036  0.1600 -0.0083
   15CHTO  H121 6160   8.138   2.060   1.124 -0.8620 -0.1982  0.5817
   15CHTO   C71 6161   8.262   1.914   1.043 -0.1994  0.3341 -0.1037
   15CHTO   O47 6162   8.264   1.828   0.922  0.4387 -0.0176 -0.3681
   15CHTO  H104 6163   8.344   1.778   0.920  0.2285 -0.3056 -3.0860
   15CHTO   O34 6164   7.890   2.155   0.822  0.1682 -0.2998 -0.0851
   15CHTO   C49 6165   7.870   2.187   0.686  0.3807 -0.1490 -0.0452
   15CHTO   H91 6166   7.833   2.100   0.633 -1.7523 -0.0538  1.2045
   15CHTO   C47 6167   7.996   2.264   0.633  0.5359 -0.4952  0.6021
   15CHTO   H89 6168   7.973   2.265   0.525  1.2086 -0.6418  0.4548
   15CHTO   O33 6169   8.112   2.179   0.656  0.7631 -0.0585 -0.0538
   15CHTO   H70 6170   8.199   2.214   0.656  0.9227 -0.3827  1.8056
   15CHTO   C45 6171   8.020   2.403   0.699 -0.3322 -0.9785  0.5295
   15CHTO   H87 6172   8.040   2.386   0.805  2.0150 -2.9960 -0.1859
   15CHTO    N8 6173   8.139   2.483   0.645 -0.3939  0.2572 -0.3298
   15CHTO   H75 6174   8.187   2.429   0.565  1.1367  0.4237  0.4717
   15CHTO   H76 6175   8.121   2.585   0.614 -1.1786  0.2120 -0.0414
   15CHTO   C43 6176   7.892   2.502   0.699 -0.1164 -0.3593  0.3013
   15CHTO   H85 6177   7.906   2.581   0.773 -3.5056 -1.4019  2.1849
   15CHTO   O29 6178   7.775   2.417   0.738 -0.1598 -0.3746 -0.0062
   15CHTO   C50 6179   7.745   2.286   0.688  0.2691 -0.3095  0.0827
   15CHTO   H92 6180   7.666   2.259   0.759  0.3204 -0.7892 -0.0434
   15CHTO   C54 6181   7.672   2.300   0.553 -0.1538 -0.2209  0.0264
   15CHTO   O36 6182   7.651   2.180   0.484  0.4595 -0.2076 -0.6902
   15CHTO   H72 6183   7.713   2.117   0.516  0.7434  0.8782  0.9461
   15CHTO   O27 6184   7.884   2.575   0.576  0.5545  0.0503  0.2400
   15CHTO   C37 6185   7.785   2.647   0.492  0.7175 -0.2401  0.2389
   15CHTO   H79 6186   7.714   2.570   0.459  0.7031 -0.0065 -0.2799
   15CHTO   C38 6187   7.710   2.763   0.570 -0.0328 -0.5677 -1.0240
   15CHTO   H80 6188   7.781   2.832   0.617 -1.4257  0.9527 -1.1164
   15CHTO   O31 6189   7.637   2.694   0.673  0.4673  0.2024  0.3948
   15CHTO   H68 6190   7.645   2.746   0.751 -0.8970 -1.9844  2.0474
   15CHTO   C39 6191   7.614   2.846   0.481  0.2471 -0.3254 -0.2769
   15CHTO   H81 6192   7.535   2.779   0.448  0.4805  0.1488 -1.8517
   15CHTO    N7 6193   7.537   2.958   0.542 -0.4923  0.1734 -0.9959
   15CHTO   H73 6194   7.609   3.028   0.582 -0.2467 -2.5273  3.5718
   15CHTO   H74 6195   7.469   2.997   0.467  0.4078 -0.5619 -2.2152
   15CHTO   C40 6196   7.684   2.889   0.353  0.7084 -0.0378  0.0091
   15CHTO   H82 6197   7.756   2.964   0.387  0.0830  0.0312  1.2019
   15CHTO   O26 6198   7.751   2.775   0.287  0.6849 -0.4192  0.7677
   15CHTO   C41 6199   7.852   2.700   0.369 -0.1413 -0.1534  0.5195
   15CHTO   H83 6200   7.932   2.765   0.405 -0.9084  0.2356  1.5388
   15CHTO   C52 6201   7.915   2.594   0.275  0.3280 -0.4801 -0.1598
   15CHTO   O35 6202   7.964   2.659   0.176  0.3539 -0.0516  0.0094
   15CHTO   H71 6203   8.051   2.627   0.156  0.5025 -3.5603  5.3453
   15CHTO   O28 6204   7.595   2.939   0.250  0.1388  0.2425  0.7553
   15CHTO   C42 6205   7.603   3.062   0.172  0.1018 -0.5781 -0.1770
   15CHTO   H84 6206   7.560   3.042   0.075  0.6412 -0.0561 -0.5276
   15CHTO   C44 6207   7.751   3.114   0.143  0.2884  0.0878 -0.1961
   15CHTO   H86 6208   7.809   3.112   0.235 -2.1879 -0.1810  1.4021
   15CHTO   O32 6209   7.816   3.005   0.071 -0.5256  0.1506  0.0276
   15CHTO   H69 6210   7.813   2.923   0.116 -0.3837  0.5399  0.7567
   15CHTO   C48 6211   7.758   3.255   0.067  0.7588  0.1591  0.3461
   15CHTO   H90 6212   7.744   3.226  -0.037 -0.7407 -1.8046  1.0505
   15CHTO    N9 6213   7.894   3.314   0.083 -0.5473 -0.6456  0.5443
   15CHTO   H77 6214   7.942   3.291   0.177 -1.1487  1.2839  1.3600
   15CHTO   H78 6215   7.953   3.277  -0.000 -2.2874  0.6551 -1.3164
   15CHTO   C51 6216   7.644   3.361   0.105  0.4728  0.2721 -0.1606
   15CHTO   H93 6217   7.669   3.400   0.204  0.1802 -0.2925  0.1419
   15CHTO   O30 6218   7.520   3.290   0.111  0.0904 -0.5037 -0.2529
   15CHTO   C46 6219   7.518   3.180   0.227 -0.4967 -0.0292  0.2037
   15CHTO   H88 6220   7.559   3.211   0.323  1.5223  0.2203 -0.7102
   15CHTO   C53 6221   7.368   3.149   0.259  0.1365 -0.3379 -0.3266
   15CHTO   O72 6222   7.297   3.262   0.311 -0.3099  0.1487  0.7966
   15CHTO  H199 6223   7.290   3.330   0.246 -2.2094 -0.6769  0.1268
   15CHTO   O22 6224   7.630   3.468   0.009  0.2572 -0.1547 -0.1648
   15CHTO   C31 6225   7.561   3.594   0.041  0.5355 -0.3700  0.5099
   15CHTO   H59 6226   7.545   3.639  -0.060  3.1335  0.6505  0.5349
   15CHTO   C29 6227   7.421   3.577   0.104  0.3700  0.5279 -0.0103
   15CHTO   H57 6228   7.436   3.530   0.203 -1.1426  1.6844  0.7890
   15CHTO   O21 6229   7.348   3.481   0.023  0.0971  0.1470 -0.1055
   15CHTO   H37 6230   7.258   3.478   0.050  0.8103 -1.1657  2.2938
   15CHTO   C27 6231   7.344   3.720   0.113  0.3436  0.0127 -0.7179
   15CHTO   H55 6232   7.330   3.760   0.011 -3.5081 -0.8982 -0.6341
   15CHTO    N5 6233   7.209   3.716   0.172  0.0080 -0.3991  0.5992
   15CHTO   H43 6234   7.184   3.611   0.180 -0.3953 -0.3876 -0.3937
   15CHTO   H44 6235   7.212   3.755   0.273 -2.5765  0.6696  0.3090
   15CHTO   C25 6236   7.445   3.807   0.198  0.2011 -0.0173 -0.2212
   15CHTO   H53 6237   7.449   3.758   0.296  0.2936  0.6559  0.1185
   15CHTO   O17 6238   7.581   3.816   0.146  0.0717 -0.5118  0.4652
   15CHTO   C32 6239   7.650   3.695   0.124 -0.1982  0.0298 -0.2757
   15CHTO   H60 6240   7.669   3.655   0.224  1.2363  1.8354  0.1921
   15CHTO   C36 6241   7.797   3.715   0.066  0.5543  0.6887  0.3363
   15CHTO   O25 6242   7.865   3.813   0.141 -0.8055 -0.0254 -0.5758
   15CHTO   H40 6243   7.934   3.766   0.183 -0.6529  0.3447 -0.4127
   15CHTO   O15 6244   7.380   3.958   0.227 -0.1361  0.1865 -0.1455
   15CHTO   C19 6245   7.405   4.090   0.280 -0.3176 -0.0022 -0.8304
   15CHTO   H47 6246   7.470   4.137   0.204 -0.8217  1.9787 -0.0691
   15CHTO   C20 6247   7.280   4.181   0.291  1.0489  0.1719 -0.4327
   15CHTO   H48 6248   7.201   4.132   0.351  1.1950 -0.4618 -0.7599
   15CHTO   O19 6249   7.219   4.189   0.161 -0.2621 -0.1593  0.1238
   15CHTO   H35 6250   7.125   4.182   0.162 -0.2224 -0.6937  0.0425
   15CHTO   C21 6251   7.312   4.324   0.343 -0.3685 -0.8143  0.3392
   15CHTO   H49 6252   7.371   4.381   0.272  1.3540  0.4283  2.6842
   15CHTO    N4 6253   7.185   4.407   0.361  0.3424  0.0098 -0.3505
   15CHTO   H41 6254   7.139   4.398   0.264 -1.9141  0.1895  0.6609
   15CHTO   H42 6255   7.109   4.370   0.428 -0.1278 -0.5536 -1.1851
   15CHTO   C22 6256   7.385   4.309   0.476  0.6931  0.3259  0.0034
   15CHTO   H50 6257   7.315   4.260   0.543  2.0561 -2.5397 -0.6270
   15CHTO   O14 6258   7.495   4.231   0.469  0.1868  0.3397  0.5558
   15CHTO   C23 6259   7.482   4.091   0.420 -0.2584  0.6011  0.0365
   15CHTO   H51 6260   7.426   4.035   0.496 -1.0625  0.6113 -0.5382
   15CHTO   C34 6261   7.625   4.049   0.408  0.0840  0.3410  0.3811
   15CHTO   O23 6262   7.687   4.008   0.535  0.7622 -0.0189 -0.0629
   15CHTO   H38 6263   7.778   3.988   0.523  0.5812 -0.8184 -0.0858
   15CHTO   O16 6264   7.425   4.438   0.524  0.2080  0.2228 -0.3472
   15CHTO   C24 6265   7.425   4.460   0.670 -0.7460  0.1240  0.2565
   15CHTO   H52 6266   7.384   4.375   0.724 -1.5954  0.9116  0.8712
   15CHTO   C26 6267   7.339   4.588   0.707  0.3315 -0.0242  0.0885
   15CHTO   H54 6268   7.355   4.667   0.630 -3.0595 -0.1309 -0.7880
   15CHTO   O20 6269   7.208   4.533   0.706  0.4814 -0.3646 -0.6455
   15CHTO   H36 6270   7.178   4.539   0.617 -1.0028 -0.8243 -0.1868
   15CHTO   C30 6271   7.378   4.656   0.847  0.1549 -0.5253  0.4295
   15CHTO   H58 6272   7.346   4.591   0.930 -1.5271  1.6176  1.4945
   15CHTO    N6 6273   7.309   4.785   0.865 -0.7540 -0.3775 -0.1997
   15CHTO   H45 6274   7.202   4.784   0.854 -0.7600  2.3527 -0.7472
   15CHTO   H46 6275   7.338   4.819   0.963  0.1298  0.3843 -0.7186
   15CHTO   C33 6276   7.533   4.661   0.849  0.1946 -0.1049  0.7422
   15CHTO   H61 6277   7.574   4.709   0.759 -0.4640 -1.7512 -0.4681
   15CHTO   O18 6278   7.582   4.529   0.849  0.3427  0.0753  0.5036
   15CHTO   C28 6279   7.571   4.476   0.717 -0.1876 -0.1753 -0.2877
   15CHTO   H56 6280   7.626   4.538   0.646  0.1932 -1.4903 -1.1702
   15CHTO   C35 6281   7.642   4.337   0.725  0.6057 -0.1941  0.1983
   15CHTO   O24 6282   7.572   4.233   0.794  0.8404  0.3707 -0.1667
   15CHTO   H39 6283   7.555   4.253   0.884  1.2149 -0.5452  0.1148
   15CHTO    O9 6284   7.596   4.736   0.954  0.2323 -0.0839  0.1362
   15CHTO   C13 6285   7.754   4.729   1.003 -0.0646  0.5267  0.1188
   15CHTO   H26 6286   7.774   4.825   1.055 -1.3699  0.4125  0.8470
   15CHTO   C11 6287   7.859   4.707   0.884  0.1440  0.2894  0.2084
   15CHTO   H24 6288   7.832   4.783   0.808 -1.3773  0.8841  1.3195
   15CHTO    O8 6289   7.848   4.581   0.819  0.1890 -0.3380  0.6519
   15CHTO    H3 6290   7.777   4.580   0.758  1.0180 -1.9457 -0.3117
   15CHTO    C9 6291   8.001   4.734   0.939 -0.5446 -0.0482  0.5025
   15CHTO   H22 6292   8.000   4.836   0.981  0.2351 -0.0510  0.5367
   15CHTO    N2 6293   8.113   4.736   0.838 -0.2075  0.0541 -0.0129
   15CHTO   H10 6294   8.087   4.821   0.776  0.4082  1.0568  1.0888
   15CHTO   H11 6295   8.091   4.656   0.769 -1.1015  0.5901 -0.3491
   15CHTO    C7 6296   8.022   4.638   1.061 -0.1981  0.2881  0.2991
   15CHTO   H20 6297   8.043   4.715   1.138 -0.5263  0.9456 -0.2732
   15CHTO    O4 6298   7.904   4.558   1.104  0.5051  0.0807 -0.3234
   15CHTO   C14 6299   7.784   4.630   1.124  0.4046 -0.3795  0.8861
   15CHTO   H27 6300   7.786   4.690   1.217  1.7564  1.0960 -0.0702
   15CHTO   C18 6301   7.681   4.520   1.147 -0.0782  0.1954 -0.1705
   15CHTO   O13 6302   7.564   4.571   1.198 -0.1411  0.3027 -0.2960
   15CHTO    H7 6303   7.561   4.567   1.291  0.4595 -1.7906 -0.3491
   15CHTO    O2 6304   8.143   4.540   1.069 -0.0715 -0.4121 -0.3947
   15CHTO    C1 6305   8.203   4.534   1.201  0.4436  0.1305 -0.1290
   15CHTO   H14 6306   8.129   4.570   1.276 -0.7139  0.0643 -1.2071
   15CHTO    C2 6307   8.336   4.612   1.214 -0.0793 -0.1500 -0.1247
   15CHTO   H15 6308   8.400   4.570   1.135 -0.5022  0.9399 -1.0561
   15CHTO    O6 6309   8.319   4.752   1.188 -0.2627  0.0078  0.4601
   15CHTO    H1 6310   8.258   4.770   1.119  0.9263  0.8328 -0.4036
   15CHTO    C3 6311   8.397   4.593   1.364 -0.4507  0.1740 -0.7105
   15CHTO   H16 6312   8.345   4.654   1.439  2.0453  0.5447  0.7854
   15CHTO    N1 6313   8.539   4.638   1.368  0.5080  0.5154  0.1554
   15CHTO    H8 6314   8.586   4.591   1.283 -2.4697  0.7070 -1.6954
   15CHTO    H9 6315   8.549   4.746   1.374 -2.7268  0.8116  1.7813
   15CHTO    C4 6316   8.389   4.442   1.414 -0.5466  0.2100 -0.2414
   15CHTO   H17 6317   8.472   4.392   1.364 -1.1256 -0.0677 -0.9298
   15CHTO    O1 6318   8.265   4.388   1.374  0.7425  0.7699 -0.6237
   15CHTO    C5 6319   8.224   4.388   1.240 -0.2542 -0.4120  0.1894
   15CHTO   H18 6320   8.300   4.352   1.170  0.1777  0.5689  0.1387
   15CHTO   C16 6321   8.099   4.299   1.230  0.2201  0.8274  0.0212
   15CHTO   O11 6322   7.987   4.346   1.309  0.6624 -0.0215 -0.3492
   15CHTO    H5 6323   7.919   4.283   1.299  1.2177 -0.4600 -1.3800
   15CHTO    O3 6324   8.402   4.438   1.560 -0.0696  0.0638  0.1293
   15CHTO    C6 6325   8.463   4.312   1.613 -0.4325  0.4300 -0.3693
   15CHTO   H19 6326   8.447   4.223   1.552 -1.5438  0.1500  0.3181
   15CHTO    C8 6327   8.616   4.345   1.645  0.1312 -0.1767  0.5118
   15CHTO   H21 6328   8.627   4.415   1.727  1.8262 -0.7136  0.7664
   15CHTO    O7 6329   8.684   4.392   1.527 -0.6162  0.6024  0.4446
   15CHTO    H2 6330   8.777   4.374   1.530 -0.3984  1.5364 -0.4284
   15CHTO   C12 6331   8.683   4.215   1.695 -1.0476 -0.5184 -0.9019
   15CHTO   H25 6332   8.668   4.136   1.618  1.3522 -0.7158 -1.2017
   15CHTO    N3 6333   8.831   4.219   1.721 -0.2115  0.1912 -0.1801
   15CHTO   H12 6334   8.854   4.186   1.821 -0.6512 -0.8963 -0.4304
   15CHTO   H13 6335   8.883   4.166   1.642 -1.2123  0.9952 -1.4201
   15CHTO   C15 6336   8.605   4.167   1.822  0.8522 -0.7633 -0.1891
   15CHTO   H28 6337   8.630   4.229   1.908 -0.7782  2.5710 -2.0446
   15CHTO   O10 6338   8.624   4.021   1.857 -0.4119  0.3076 -0.1588
   15CHTO    H4 6339   8.637   4.008   1.949  0.8534 -1.2391 -0.5367
   15CHTO    O5 6340   8.463   4.166   1.805  0.3902 -0.1374  0.5425
   15CHTO   C10 6341   8.402   4.282   1.748  0.3685 -0.3110 -0.3653
   15CHTO   H23 6342   8.421   4.360   1.821  1.7885 -0.3323 -0.7028
   15CHTO   C17 6343   8.249   4.249   1.758 -0.3881 -0.2429  0.6132
   15CHTO   O12 6344   8.155   4.352   1.736 -0.8067  0.0246  0.3268
   15CHTO    H6 6345   8.190   4.414   1.676  0.9031  0.9338  2.2018
   16CHTO  H203 6346   6.487   4.588   0.487 -0.0907 -0.5403 -0.0470
   16CHTO   O82 6347   6.500   4.502   0.522  0.0606 -0.1637  0.8174
   16CHTO  C123 6348   6.633   4.498   0.576  0.0168 -0.0147 -0.4895
   16CHTO  H227 6349   6.658   4.594   0.625  0.5467  0.7629 -2.2313
   16CHTO   O77 6350   6.609   4.391   0.671 -0.0067  0.2694 -0.2857
   16CHTO  C118 6351   6.706   4.382   0.771 -0.2752  0.3830  0.0440
   16CHTO  H222 6352   6.737   4.479   0.812  1.2727 -0.8077  1.7850
   16CHTO  C125 6353   6.645   4.289   0.880  0.0859  0.0607  0.3862
   16CHTO   O84 6354   6.519   4.326   0.928  0.0495 -0.1410  0.4543
   16CHTO  H205 6355   6.524   4.418   0.949 -1.1597  0.6112 -2.3595
   16CHTO  C114 6356   6.825   4.316   0.699 -0.2019  0.6675 -0.3033
   16CHTO  H218 6357   6.805   4.211   0.676  0.6561  0.4288  0.0138
   16CHTO  C116 6358   6.861   4.389   0.568 -0.8906 -0.1525 -0.1266
   16CHTO  H220 6359   6.926   4.474   0.599 -1.2915 -0.1677  0.7622
   16CHTO   O79 6360   6.946   4.303   0.494  0.2655  0.1958 -0.5925
   16CHTO  H201 6361   7.006   4.343   0.434 -0.2597 -0.6971 -1.7457
   16CHTO  C120 6362   6.740   4.446   0.486  0.4652 -0.0377 -0.5342
   16CHTO  H224 6363   6.696   4.360   0.430  1.9408 -1.3366  0.2448
   16CHTO   N21 6364   6.778   4.540   0.384 -0.3140 -0.1219 -0.2769
   16CHTO  H211 6365   6.783   4.642   0.420 -0.2676  0.3687 -1.6323
   16CHTO  H212 6366   6.717   4.531   0.296 -2.0727 -0.0736  0.9177
   16CHTO   O75 6367   6.931   4.324   0.794 -0.4795 -0.0425  0.4956
   16CHTO  C112 6368   7.071   4.227   0.765  0.1360  0.2764 -0.0426
   16CHTO  H216 6369   7.133   4.296   0.705  0.3048 -1.0539 -1.4482
   16CHTO   O73 6370   7.030   4.117   0.691  0.2177  0.2141 -0.0318
   16CHTO  C113 6371   7.136   4.034   0.646 -0.2015 -0.3101 -0.5916
   16CHTO  H217 6372   7.190   4.094   0.569  1.4483  0.2972  1.0023
   16CHTO  C124 6373   7.084   3.918   0.564  0.2110  0.1882 -0.3721
   16CHTO   O83 6374   7.038   3.954   0.435  0.0357 -0.5350 -0.5702
   16CHTO  H204 6375   7.017   3.877   0.385 -0.3498 -1.0185  0.3243
   16CHTO  C109 6376   7.227   3.979   0.766  0.7094  0.2225  0.0579
   16CHTO  H213 6377   7.169   3.905   0.824 -0.4380  0.9228 -0.1890
   16CHTO  C110 6378   7.263   4.091   0.861 -0.8260  0.0583 -0.1238
   16CHTO  H214 6379   7.328   4.158   0.805 -0.1712 -0.1969  0.3273
   16CHTO   O78 6380   7.337   4.048   0.977 -0.6080 -0.4335  0.1127
   16CHTO  H200 6381   7.335   3.955   0.993  0.4183 -0.7588 -1.5473
   16CHTO  C111 6382   7.141   4.182   0.898  0.1501 -0.2559 -0.1771
   16CHTO  H215 6383   7.073   4.121   0.958 -0.4270 -0.1832 -0.7459
   16CHTO   N19 6384   7.174   4.306   0.976 -0.5856  0.4375 -0.0461
   16CHTO  H207 6385   7.098   4.380   0.953  0.0836  0.9930 -0.4915
   16CHTO  H208 6386   7.183   4.278   1.079 -1.4553 -0.5122 -0.2221
   16CHTO   O74 6387   7.346   3.926   0.707  0.2786  0.0799  0.0384
   16CHTO  C115 6388   7.383   3.787   0.780 -0.0262  0.3703  0.3664
   16CHTO  H219 6389   7.369   3.792   0.888  0.9947 -0.8418  0.5621
   16CHTO   O76 6390   7.285   3.664   0.719  0.5712 -0.2035  0.2667
   16CHTO  C122 6391   7.330   3.619   0.586  0.0661  0.6971 -1.3175
   16CHTO  H226 6392   7.341   3.711   0.530  1.4551  1.2098 -0.2158
   16CHTO  C126 6393   7.213   3.537   0.517 -0.2229  0.6596  0.4118
   16CHTO   O85 6394   7.108   3.614   0.460 -0.6555 -0.6370  0.1329
   16CHTO  H206 6395   7.037   3.561   0.429 -1.8177 -0.4538  2.4039
   16CHTO  C121 6396   7.464   3.541   0.598 -1.0639 -0.2958  0.5819
   16CHTO  H225 6397   7.442   3.434   0.617  3.0984 -1.0760  1.6185
   16CHTO   O81 6398   7.537   3.542   0.475  0.2905 -0.2054  0.1282
   16CHTO  H202 6399   7.478   3.524   0.405  1.2744 -1.5637 -0.3763
   16CHTO  C119 6400   7.550   3.593   0.725  0.6636 -0.1176 -0.3665
   16CHTO  H223 6401   7.511   3.545   0.814  1.6226  0.8602  0.5864
   16CHTO  C117 6402   7.533   3.747   0.744  0.3424 -0.7068  0.6678
   16CHTO  H221 6403   7.559   3.805   0.655 -0.2339  1.0160  1.6035
   16CHTO   N20 6404   7.614   3.799   0.859 -0.5282 -0.4449  0.0390
   16CHTO  H209 6405   7.649   3.900   0.843  1.1073 -1.2862 -1.8790
   16CHTO  H210 6406   7.696   3.729   0.867 -0.1353  0.1113  1.0629
   16CHTO   O80 6407   7.706   3.539   0.729  0.3191  0.5147 -0.8886
   16CHTO  C103 6408   7.736   3.372   0.715 -0.4891  0.8833  0.3818
   16CHTO  H190 6409   7.646   3.312   0.726  0.7439 -1.2499 -0.8369
   16CHTO  C101 6410   7.820   3.325   0.593 -0.4100 -0.5801  0.5135
   16CHTO  H188 6411   7.893   3.404   0.572 -0.8050 -0.9303 -2.3509
   16CHTO   O68 6412   7.731   3.330   0.477  0.0199 -0.2652 -0.4347
   16CHTO  H168 6413   7.641   3.312   0.495  0.3078 -0.0421  1.3528
   16CHTO   C99 6414   7.897   3.186   0.605  0.6317  0.3062  0.2406
   16CHTO  H186 6415   7.823   3.113   0.567  1.3106 -1.1010  1.6156
   16CHTO   N17 6416   8.014   3.168   0.507 -0.5993 -0.1920  0.0108
   16CHTO  H174 6417   8.097   3.119   0.556 -1.4757  2.1239  4.0953
   16CHTO  H175 6418   8.038   3.262   0.459  1.1879 -1.1626 -1.0328
   16CHTO   C97 6419   7.923   3.145   0.752  0.1958  0.2678 -0.8739
   16CHTO  H184 6420   8.029   3.163   0.776  0.0833 -0.6162  0.3560
   16CHTO   O64 6421   7.832   3.203   0.846  1.2358 -0.2524 -0.6952
   16CHTO  C104 6422   7.826   3.345   0.841  0.1283 -0.6580  0.1753
   16CHTO  H191 6423   7.921   3.398   0.827  0.3528 -1.7315 -2.7128
   16CHTO  C108 6424   7.764   3.400   0.972  0.1971 -0.1259  0.2695
   16CHTO   O71 6425   7.827   3.375   1.095 -0.1133 -0.1737  0.1243
   16CHTO  H171 6426   7.818   3.446   1.156 -0.6378 -1.4686  1.5889
   16CHTO   O62 6427   7.911   3.003   0.761 -0.2658 -0.2450 -0.7804
   16CHTO   C91 6428   7.926   2.934   0.884 -0.6111 -0.1522  0.1841
   16CHTO  H178 6429   7.949   3.007   0.962 -0.4569 -1.3989  1.3273
   16CHTO   C92 6430   8.050   2.830   0.875 -0.1535 -0.3946 -0.2778
   16CHTO  H179 6431   8.016   2.759   0.797  1.2053 -0.3583 -0.9085
   16CHTO   O66 6432   8.165   2.904   0.830  0.1688  0.5086  0.3729
   16CHTO  H166 6433   8.149   2.968   0.763  0.7880 -1.6968 -1.9573
   16CHTO   C93 6434   8.078   2.760   1.019 -0.0187  0.5976 -0.7697
   16CHTO  H180 6435   8.094   2.838   1.096  0.6025 -0.8598  0.6110
   16CHTO   N16 6436   8.195   2.673   1.022  0.1965 -0.1496  0.2475
   16CHTO  H172 6437   8.226   2.642   1.121 -0.9435  0.7423  0.8890
   16CHTO  H173 6438   8.272   2.720   0.963  0.6893 -1.1757  0.0565
   16CHTO   C94 6439   7.944   2.679   1.053  0.7661  0.0315  0.5808
   16CHTO  H181 6440   7.916   2.608   0.975  0.3874 -0.7779  1.4452
   16CHTO   O61 6441   7.837   2.777   1.069 -0.0302 -0.0047 -0.5417
   16CHTO   C95 6442   7.800   2.849   0.944  0.3608  0.2939  0.2667
   16CHTO  H182 6443   7.762   2.779   0.869 -0.5910  1.2287 -0.1332
   16CHTO  C106 6444   7.683   2.941   0.985 -0.0034  0.4748  0.3556
   16CHTO   O69 6445   7.568   2.872   1.036  0.2099  0.1723 -0.4223
   16CHTO  H169 6446   7.595   2.833   1.117 -3.1173 -0.4914  0.4093
   16CHTO   O63 6447   7.957   2.611   1.198  0.3605 -0.4074  0.1775
   16CHTO   C96 6448   7.806   2.559   1.261  0.0779 -0.2123  0.1391
   16CHTO  H183 6449   7.831   2.483   1.334  0.4653 -0.9728 -0.7711
   16CHTO   C98 6450   7.702   2.504   1.158 -0.9647 -0.0181  0.4029
   16CHTO  H185 6451   7.687   2.573   1.073  0.4091 -0.6154 -0.3473
   16CHTO   O67 6452   7.759   2.381   1.101  0.4008  0.4924 -0.5484
   16CHTO  H167 6453   7.790   2.327   1.172  2.8981  0.0627 -1.9130
   16CHTO  C102 6454   7.558   2.484   1.227  0.5204  0.5697  0.1338
   16CHTO  H189 6455   7.581   2.417   1.311  2.3820 -0.4003 -1.1159
   16CHTO   N18 6456   7.453   2.422   1.144 -0.4218 -0.1275 -0.6173
   16CHTO  H176 6457   7.401   2.346   1.200 -0.1947  1.2071  1.4585
   16CHTO  H177 6458   7.379   2.498   1.124 -0.6790  0.3616  2.0399
   16CHTO  C105 6459   7.518   2.627   1.277 -0.3150 -0.0131  0.9317
   16CHTO  H192 6460   7.524   2.694   1.191 -3.0766 -0.2753  0.4715
   16CHTO   O65 6461   7.616   2.670   1.373 -0.0759 -0.2931  0.0831
   16CHTO  C100 6462   7.755   2.684   1.343 -0.1854  0.4843  0.1466
   16CHTO  H187 6463   7.758   2.777   1.284  1.4189  0.3836  0.0666
   16CHTO  C107 6464   7.837   2.716   1.473  0.2645 -0.3097  0.0213
   16CHTO   O70 6465   7.769   2.818   1.544  0.1533 -0.8532  0.0327
   16CHTO  H170 6466   7.827   2.846   1.612 -0.0785  1.1534 -0.5547
   16CHTO   O57 6467   7.358   2.628   1.336  0.1792  0.2035 -0.4290
   16CHTO   C85 6468   7.264   2.714   1.267  0.0218 -0.3458 -0.3143
   16CHTO  H157 6469   7.288   2.708   1.159  0.0974 -0.1265 -0.3113
   16CHTO   C83 6470   7.294   2.864   1.312 -0.8296  0.0440 -0.8608
   16CHTO  H155 6471   7.396   2.893   1.284 -1.6933  1.9037 -2.1705
   16CHTO   O56 6472   7.273   2.878   1.458  0.2826 -0.6624  0.0398
   16CHTO  H135 6473   7.328   2.813   1.496 -0.8804 -1.1522  0.9232
   16CHTO   C81 6474   7.198   2.941   1.221  0.3000  0.4590  0.1094
   16CHTO  H153 6475   7.227   2.925   1.117  0.0811  1.9641 -0.1856
   16CHTO   N14 6476   7.217   3.085   1.237  0.0330 -0.0338  0.2892
   16CHTO  H141 6477   7.196   3.125   1.335 -2.1785 -0.0648 -0.1454
   16CHTO  H142 6478   7.151   3.138   1.171 -0.9762  0.6248  1.7871
   16CHTO   C79 6479   7.041   2.906   1.240 -0.2502  0.8421 -0.3521
   16CHTO  H151 6480   6.989   2.939   1.150 -1.8247 -3.2496 -1.0370
   16CHTO   O52 6481   7.017   2.762   1.223 -0.1452  0.2070  0.2405
   16CHTO   C86 6482   7.115   2.685   1.302 -0.1577 -0.1401  0.0542
   16CHTO  H158 6483   7.080   2.706   1.405 -0.8097 -1.6120  0.1529
   16CHTO   C90 6484   7.082   2.534   1.280 -0.4148  0.5361  0.0028
   16CHTO   O60 6485   6.960   2.489   1.337 -0.2264  0.1646 -0.4976
   16CHTO  H138 6486   6.955   2.396   1.344 -2.5694  0.2329 -1.0582
   16CHTO   O50 6487   6.971   2.950   1.361 -0.1337  0.1946 -0.5826
   16CHTO   C73 6488   6.868   2.937   1.446  0.5975  0.0330 -0.1749
   16CHTO  H145 6489   6.850   2.838   1.490  0.8388 -0.3396 -0.9094
   16CHTO   C74 6490   6.732   2.975   1.371  0.0429 -0.0243 -0.4514
   16CHTO  H146 6491   6.717   2.904   1.288  0.1280  0.8082 -1.1822
   16CHTO   O54 6492   6.628   2.946   1.464  0.4110  0.1717 -0.6165
   16CHTO  H133 6493   6.544   2.968   1.427 -0.3153  1.8037  1.8950
   16CHTO   C75 6494   6.726   3.123   1.322  0.0565  0.4073  0.3363
   16CHTO  H147 6495   6.806   3.139   1.249 -1.1636 -1.8469 -1.5780
   16CHTO   N13 6496   6.611   3.149   1.231  0.0596 -0.5878 -0.2483
   16CHTO  H139 6497   6.619   3.112   1.130 -0.4615 -0.4164 -0.3537
   16CHTO  H140 6498   6.516   3.138   1.282 -0.0108  0.6729 -0.0849
   16CHTO   C76 6499   6.749   3.217   1.448  0.7333 -0.1833 -0.7068
   16CHTO  H148 6500   6.668   3.189   1.515  0.0190 -2.0199 -2.3021
   16CHTO   O49 6501   6.886   3.179   1.515  0.3833  1.0284  0.0866
   16CHTO   C77 6502   6.890   3.038   1.560 -0.0694  0.1284 -0.1397
   16CHTO  H149 6503   6.806   3.032   1.629 -0.5917 -1.1914 -0.8700
   16CHTO   C88 6504   7.021   3.015   1.636 -0.2307 -0.1667 -0.9462
   16CHTO   O58 6505   7.023   2.912   1.689 -0.1655 -0.1825 -0.0441
   16CHTO  H136 6506   6.962   2.908   1.760  1.2561  0.0729  1.2206
   16CHTO   O51 6507   6.777   3.371   1.420  0.1371  0.3793  0.3831
   16CHTO   C78 6508   6.732   3.473   1.523  0.1242  0.3436  0.5449
   16CHTO  H150 6509   6.712   3.428   1.623  1.6750  0.1191  0.7713
   16CHTO   C80 6510   6.605   3.557   1.484  0.3416 -0.5951  0.3481
   16CHTO  H152 6511   6.631   3.618   1.395 -1.8148  0.3349  0.3265
   16CHTO   O55 6512   6.498   3.464   1.465  0.1411 -0.2543 -0.4831
   16CHTO  H134 6513   6.414   3.497   1.488  0.2655 -1.1326  1.3746
   16CHTO   C84 6514   6.574   3.669   1.595  0.0088 -0.6303  0.5300
   16CHTO  H156 6515   6.544   3.609   1.681  2.3733  1.7933  3.1540
   16CHTO   N15 6516   6.451   3.750   1.561  0.1620  0.5016 -0.5391
   16CHTO  H143 6517   6.370   3.680   1.565  0.0607  0.5919 -0.9738
   16CHTO  H144 6518   6.452   3.793   1.463 -0.0818  0.0025 -0.7629
   16CHTO   C87 6519   6.706   3.749   1.615  0.2722 -0.0825  0.5070
   16CHTO  H159 6520   6.739   3.794   1.521 -0.7343 -0.4284 -0.0221
   16CHTO   O53 6521   6.812   3.648   1.664 -0.2412  0.0849  0.3315
   16CHTO   C82 6522   6.854   3.561   1.557 -0.4422 -0.2948 -0.0185
   16CHTO  H154 6523   6.892   3.611   1.468 -0.6576 -1.0744 -0.5500
   16CHTO   C89 6524   6.964   3.471   1.608 -0.1510  0.2895  0.2290
   16CHTO   O59 6525   7.073   3.564   1.626 -0.3396 -0.0282  0.1272
   16CHTO  H137 6526   7.156   3.523   1.641 -1.4248 -1.9262  1.1881
   16CHTO   O45 6527   6.688   3.874   1.730 -0.4820 -0.4309  0.5683
   16CHTO   C67 6528   6.812   3.942   1.759  0.3407 -0.9353 -0.6586
   16CHTO  H124 6529   6.888   3.866   1.776  0.3342 -1.1606 -1.5889
   16CHTO   C65 6530   6.864   4.031   1.639  0.3372 -0.1646 -0.2104
   16CHTO  H122 6531   6.774   4.050   1.581  0.0350 -1.0447 -0.0355
   16CHTO   O44 6532   6.958   3.952   1.560  0.1217  0.6595 -0.0001
   16CHTO  H102 6533   6.935   3.959   1.469 -0.3357 -1.0217 -0.0317
   16CHTO   C63 6534   6.907   4.177   1.677  0.4152  1.6159  0.4903
   16CHTO  H120 6535   6.817   4.223   1.716 -0.1036  0.5517  0.5667
   16CHTO   N11 6536   6.946   4.266   1.564  0.4671 -1.2403  0.3741
   16CHTO  H108 6537   6.867   4.266   1.492 -1.4913 -0.8403  2.4491
   16CHTO  H109 6538   6.964   4.363   1.605  2.1022 -0.2900 -2.4496
   16CHTO   C61 6539   6.999   4.166   1.798 -0.6988  0.0640  0.4147
   16CHTO  H118 6540   7.027   4.267   1.831  1.8763 -0.8345  1.1095
   16CHTO   O40 6541   6.939   4.092   1.912  0.2818  0.3602  0.0832
   16CHTO   C68 6542   6.807   4.025   1.892  0.2485 -0.1640  0.7522
   16CHTO  H125 6543   6.738   4.112   1.893 -1.2414 -1.2869 -0.8725
   16CHTO   C72 6544   6.766   3.933   2.010 -0.0092 -0.9107 -0.0898
   16CHTO   O48 6545   6.859   3.834   2.050 -0.4368  0.6622  0.3058
   16CHTO  H105 6546   6.835   3.784   2.126  0.7784 -2.0554 -1.0425
   16CHTO   O38 6547   7.123   4.108   1.744 -0.0626 -1.1280  0.4493
   16CHTO   C55 6548   7.228   4.070   1.834 -0.5422 -0.3640 -0.4227
   16CHTO  H112 6549   7.179   4.040   1.928  0.9064  1.4974  0.9513
   16CHTO   C56 6550   7.333   4.186   1.862 -1.5205 -0.0594  0.3549
   16CHTO  H113 6551   7.367   4.221   1.763  1.2041 -0.2280  1.1900
   16CHTO   O42 6552   7.271   4.299   1.930  0.1519 -0.0286  0.3156
   16CHTO  H100 6553   7.210   4.263   1.992  0.5334 -1.3054 -0.0206
   16CHTO   C57 6554   7.464   4.128   1.937  0.1527  0.1358 -0.0842
   16CHTO  H114 6555   7.427   4.087   2.031 -3.0195  1.1924 -0.7960
   16CHTO   N10 6556   7.566   4.230   1.963 -0.3327  0.4209  0.1987
   16CHTO  H106 6557   7.572   4.298   1.878 -2.1586 -0.2898 -0.5080
   16CHTO  H107 6558   7.663   4.188   1.988 -0.5857  0.3844  1.1467
   16CHTO   C58 6559   7.515   4.019   1.850 -0.1873  0.0541  0.4961
   16CHTO  H115 6560   7.534   4.061   1.749  0.9319 -0.0551  0.6580
   16CHTO   O37 6561   7.419   3.910   1.844  0.1471  0.0370 -0.3595
   16CHTO   C59 6562   7.299   3.938   1.783 -0.1831  0.0611  0.5651
   16CHTO  H116 6563   7.334   3.951   1.680 -0.0012 -0.2844  0.5830
   16CHTO   C70 6564   7.209   3.803   1.776  0.0869  0.0264 -0.4024
   16CHTO   O46 6565   7.200   3.745   1.899  0.4676 -0.3517  0.2555
   16CHTO  H103 6566   7.135   3.677   1.899 -1.4539  1.4086 -1.9953
   16CHTO   O39 6567   7.642   3.956   1.892 -0.4069 -0.4235  0.1564
   16CHTO   C60 6568   7.714   3.882   1.791 -0.1391  0.2104  0.0037
   16CHTO  H117 6569   7.659   3.863   1.699  0.5425 -1.0309 -0.1483
   16CHTO   C62 6570   7.841   3.958   1.757  0.6483  0.5538  0.7410
   16CHTO  H119 6571   7.809   4.058   1.722  2.5261  1.8204  2.5797
   16CHTO   O43 6572   7.917   3.983   1.874  0.0764  0.2918  0.5470
   16CHTO  H101 6573   7.924   3.914   1.937 -1.5996 -0.3011  0.0971
   16CHTO   C66 6574   7.911   3.879   1.625  0.2174  0.3882 -0.8963
   16CHTO  H123 6575   7.831   3.864   1.552  0.0939 -0.4873 -0.5813
   16CHTO   N12 6576   8.018   3.951   1.553 -0.5104  0.7168  0.0380
   16CHTO  H110 6577   8.114   3.917   1.589 -0.8525 -0.8187 -0.4538
   16CHTO  H111 6578   8.013   3.968   1.446  0.3973  0.9718  0.0374
   16CHTO   C69 6579   7.960   3.737   1.664  0.1814  0.7586 -0.3330
   16CHTO  H126 6580   8.030   3.743   1.750 -0.9450  0.7748  0.5962
   16CHTO   O41 6581   7.836   3.657   1.725  0.4708 -0.1842 -0.3394
   16CHTO   C64 6582   7.754   3.740   1.845 -0.0672 -0.4308  0.3121
   16CHTO  H121 6583   7.813   3.742   1.940 -1.5501 -0.0184  1.2414
   16CHTO   C71 6584   7.624   3.659   1.873 -0.3961  0.0680 -0.5610
   16CHTO   O47 6585   7.658   3.526   1.898  0.5152 -0.2464 -0.1093
   16CHTO  H104 6586   7.675   3.481   1.816  0.1166  0.3445 -0.5144
   16CHTO   O34 6587   8.028   3.639   1.543 -0.3195 -0.1255 -0.1803
   16CHTO   C49 6588   8.093   3.522   1.466  0.0936  0.0424  0.1970
   16CHTO   H91 6589   8.112   3.548   1.362 -0.7700 -2.1244 -0.5483
   16CHTO   C47 6590   7.987   3.411   1.462 -0.3239  0.0067  0.6229
   16CHTO   H89 6591   8.015   3.327   1.396  0.5961  1.2238 -0.5516
   16CHTO   O33 6592   7.868   3.472   1.407  0.7450 -0.3047 -0.9686
   16CHTO   H70 6593   7.851   3.436   1.322 -0.0271  0.4843 -1.1571
   16CHTO   C45 6594   7.970   3.345   1.608 -0.2815  0.3530 -0.1752
   16CHTO   H87 6595   7.938   3.432   1.668  0.5357  0.3327  0.2942
   16CHTO    N8 6596   7.862   3.244   1.617  0.8913  0.3273  0.5098
   16CHTO   H75 6597   7.776   3.289   1.665  0.9578  1.4719 -0.4259
   16CHTO   H76 6598   7.886   3.165   1.686  1.0833 -0.2784 -0.2445
   16CHTO   C43 6599   8.110   3.295   1.665 -0.0546 -0.0065 -0.1548
   16CHTO   H85 6600   8.089   3.268   1.769 -1.3753  0.5090 -0.2892
   16CHTO   O29 6601   8.203   3.404   1.656  0.3805 -0.0727 -0.5719
   16CHTO   C50 6602   8.229   3.477   1.533  0.1191  0.3387  0.2884
   16CHTO   H92 6603   8.287   3.565   1.563 -0.9507  1.3543 -0.5472
   16CHTO   C54 6604   8.318   3.401   1.431 -0.0390  0.3434  0.0208
   16CHTO   O36 6605   8.454   3.396   1.471 -0.0240 -0.0710  0.2250
   16CHTO   H72 6606   8.485   3.484   1.476 -1.5447  0.3931  2.0328
   16CHTO   O27 6607   8.161   3.174   1.605 -0.3479 -0.3929  0.1514
   16CHTO   C37 6608   8.210   3.048   1.649  0.5173 -0.8397  0.0859
   16CHTO   H79 6609   8.319   3.050   1.631  0.7102  1.8714  1.3540
   16CHTO   C38 6610   8.187   3.030   1.799 -0.1729 -0.0823  0.6288
   16CHTO   H80 6611   8.080   3.050   1.817 -0.4879 -1.5878  0.5392
   16CHTO   O31 6612   8.280   3.120   1.862  0.6797  0.3378  0.9726
   16CHTO   H68 6613   8.295   3.080   1.946 -1.1565 -1.2495  0.5864
   16CHTO   C39 6614   8.204   2.881   1.848  0.9334 -0.0277  0.1107
   16CHTO   H81 6615   8.312   2.864   1.840  1.0600  1.1278 -0.7950
   16CHTO    N7 6616   8.164   2.852   1.987 -0.5706 -0.1937  0.1797
   16CHTO   H73 6617   8.059   2.826   1.978 -0.8433  1.4675 -1.9416
   16CHTO   H74 6618   8.165   2.925   2.066  1.5533 -0.3151  0.2782
   16CHTO   C40 6619   8.149   2.777   1.742 -0.1014  0.1852  0.2450
   16CHTO   H82 6620   8.042   2.764   1.753 -0.2777 -0.4569 -1.8719
   16CHTO   O26 6621   8.187   2.810   1.605  0.4584  0.1280  0.2312
   16CHTO   C41 6622   8.147   2.943   1.565  0.0052 -0.0722 -0.2411
   16CHTO   H83 6623   8.039   2.945   1.584  0.0944  0.3012  0.2201
   16CHTO   C52 6624   8.167   2.967   1.411 -0.9194  0.0952 -0.1794
   16CHTO   O35 6625   8.108   2.877   1.328  0.1308  0.8057  0.1438
   16CHTO   H71 6626   8.030   2.911   1.289 -0.2272  0.4128  0.5058
   16CHTO   O28 6627   8.196   2.641   1.761 -0.5686  0.2351 -0.2593
   16CHTO   C42 6628   8.147   2.518   1.702 -0.2862  0.5421 -0.3190
   16CHTO   H84 6629   8.219   2.444   1.736  0.1909  0.6208 -1.1480
   16CHTO   C44 6630   8.148   2.518   1.551  0.5618 -0.1851 -0.0115
   16CHTO   H86 6631   8.075   2.594   1.520  1.1760  1.0159  1.4726
   16CHTO   O32 6632   8.276   2.566   1.505 -1.0147  0.3912 -0.6128
   16CHTO   H69 6633   8.277   2.584   1.413  1.2899 -0.2126 -0.7308
   16CHTO   C48 6634   8.116   2.370   1.497  0.4146 -0.0137 -0.4488
   16CHTO   H90 6635   8.188   2.299   1.537  0.3152  0.2136  0.1452
   16CHTO    N9 6636   8.117   2.363   1.348 -0.2266  0.0994 -0.0283
   16CHTO   H77 6637   8.040   2.425   1.304 -1.3479 -2.2217 -1.4205
   16CHTO   H78 6638   8.099   2.261   1.319  1.2492 -0.3871  0.7686
   16CHTO   C51 6639   7.968   2.332   1.551  0.1591  0.5824 -0.3822
   16CHTO   H93 6640   7.899   2.410   1.517 -1.1138  0.5517  2.0371
   16CHTO   O30 6641   7.982   2.334   1.694  0.1897 -1.2465 -0.6298
   16CHTO   C46 6642   8.006   2.474   1.756 -0.0918  0.3761 -0.5610
   16CHTO   H88 6643   7.920   2.534   1.727 -0.8765  0.8031  2.4547
   16CHTO   C53 6644   8.012   2.466   1.910 -0.9779  0.3261 -0.2640
   16CHTO   O72 6645   7.897   2.419   1.976 -0.7254 -0.3663  0.1931
   16CHTO  H199 6646   7.910   2.419   2.068  0.2647 -2.2853  0.0843
   16CHTO   O22 6647   7.926   2.200   1.519 -0.3603  0.4029  0.9009
   16CHTO   C31 6648   7.810   2.116   1.563  0.2824 -0.5153 -0.1993
   16CHTO   H59 6649   7.796   2.145   1.669  0.9047 -0.6701 -0.0743
   16CHTO   C29 6650   7.678   2.145   1.487 -0.5039 -0.0964 -0.2765
   16CHTO   H57 6651   7.701   2.144   1.379 -0.8248  0.9194 -0.3566
   16CHTO   O21 6652   7.644   2.278   1.503  0.1870 -0.7839 -0.1325
   16CHTO   H37 6653   7.716   2.336   1.485  1.1758 -1.3077  1.9628
   16CHTO   C27 6654   7.561   2.047   1.517  0.1274 -0.1641 -0.5781
   16CHTO   H55 6655   7.529   2.066   1.621  3.0444  0.4911  0.2336
   16CHTO    N5 6656   7.447   2.053   1.425 -0.7262 -0.4272  0.1568
   16CHTO   H43 6657   7.411   2.154   1.433 -2.2191 -0.8132 -1.4239
   16CHTO   H44 6658   7.378   1.981   1.466  0.5922 -1.4350  0.6714
   16CHTO   C25 6659   7.610   1.899   1.528 -0.0079 -0.1316  0.5371
   16CHTO   H53 6660   7.638   1.862   1.427 -0.9800 -0.8686  0.5343
   16CHTO   O17 6661   7.724   1.896   1.617  0.2566 -0.2572  0.0512
   16CHTO   C32 6662   7.843   1.966   1.561 -0.2263  0.5390 -0.9864
   16CHTO   H60 6663   7.877   1.942   1.460  0.0364 -0.0623 -0.7571
   16CHTO   C36 6664   7.961   1.936   1.658  0.6353  0.5368 -0.0196
   16CHTO   O25 6665   8.024   1.806   1.639  0.2152 -0.3033 -0.0108
   16CHTO   H40 6666   8.042   1.757   1.717  0.2882  0.8213  0.6968
   16CHTO   O15 6667   7.507   1.807   1.611 -0.1049 -0.3395 -0.1986
   16CHTO   C19 6668   7.400   1.778   1.710  0.1428 -0.4627 -0.4344
   16CHTO   H47 6669   7.406   1.670   1.731 -1.4282 -0.7783 -1.4973
   16CHTO   C20 6670   7.415   1.857   1.840  0.1710 -0.0550  0.3061
   16CHTO   H48 6671   7.441   1.964   1.827 -1.7533  0.3640 -0.1985
   16CHTO   O19 6672   7.531   1.800   1.902 -0.4131  0.3306  0.0692
   16CHTO   H35 6673   7.607   1.810   1.847 -0.1498  1.6932  0.6644
   16CHTO   C21 6674   7.288   1.839   1.939  0.9403  0.2811 -0.3257
   16CHTO   H49 6675   7.277   1.735   1.968 -0.0365  0.4297 -0.1652
   16CHTO    N4 6676   7.298   1.912   2.066  0.2882  0.4833 -0.1119
   16CHTO   H41 6677   7.283   1.842   2.147  1.1222  0.1014 -0.2784
   16CHTO   H42 6678   7.232   1.997   2.075 -0.8383 -0.4898  1.0224
   16CHTO   C22 6679   7.160   1.863   1.859 -0.3828  0.3578  0.4390
   16CHTO   H50 6680   7.157   1.960   1.811 -0.8116  0.7163  1.1758
   16CHTO   O14 6681   7.151   1.773   1.753  0.3849  0.1720  0.1990
   16CHTO   C23 6682   7.252   1.797   1.652  0.1750  0.3081 -0.2025
   16CHTO   H51 6683   7.239   1.898   1.611  2.1228  0.2550 -1.0193
   16CHTO   C34 6684   7.233   1.695   1.540 -0.0119  0.2055  0.1377
   16CHTO   O23 6685   7.100   1.698   1.495 -0.1782 -0.2658 -0.1369
   16CHTO   H38 6686   7.045   1.670   1.565 -2.3600  2.3921 -0.6931
   16CHTO   O16 6687   7.038   1.827   1.932  0.2278 -0.1853 -0.0297
   16CHTO   C24 6688   6.935   1.946   1.917  0.1444 -0.4447  0.2949
   16CHTO   H52 6689   6.948   1.997   1.821  0.1484 -4.3600 -1.8879
   16CHTO   C26 6690   6.927   2.047   2.030  0.1329  0.4170 -0.5879
   16CHTO   H54 6691   6.926   1.996   2.128  3.1998  1.8753  0.2715
   16CHTO   O20 6692   7.041   2.130   2.021 -0.3597  0.4046  0.2579
   16CHTO   H36 6693   7.048   2.190   2.093  0.1141 -0.1464  0.6743
   16CHTO   C30 6694   6.793   2.132   2.022  0.0987  0.7805  0.6018
   16CHTO   H58 6695   6.800   2.195   1.933 -0.5760  0.6466  0.4529
   16CHTO    N6 6696   6.785   2.219   2.143  0.0931  1.0025  0.1806
   16CHTO   H45 6697   6.686   2.205   2.183  0.2309 -0.4864  0.0303
   16CHTO   H46 6698   6.806   2.323   2.119  1.0651  0.1869 -2.8094
   16CHTO   C33 6699   6.669   2.036   2.005  0.0440  0.3879  0.2681
   16CHTO   H61 6700   6.655   1.984   2.101 -0.7505  3.4654  1.8816
   16CHTO   O18 6701   6.686   1.939   1.901 -0.1366 -0.4118 -0.2487
   16CHTO   C28 6702   6.805   1.864   1.903 -0.3273  0.7283  0.5144
   16CHTO   H56 6703   6.800   1.792   1.984  0.9373 -0.7202 -0.6553
   16CHTO   C35 6704   6.815   1.788   1.766  0.1231  0.2970 -0.0439
   16CHTO   O24 6705   6.793   1.861   1.648 -0.2281  0.1682  0.1063
   16CHTO   H39 6706   6.709   1.835   1.614  0.9601 -0.7099 -2.2059
   16CHTO    O9 6707   6.551   2.118   1.985 -0.3835 -0.6060 -0.2729
   16CHTO   C13 6708   6.431   2.076   2.078  0.1769 -0.7261  0.4431
   16CHTO   H26 6709   6.476   2.078   2.180  2.1998 -2.0379 -0.3990
   16CHTO   C11 6710   6.365   1.939   2.045  0.3116  0.0745 -0.1000
   16CHTO   H24 6711   6.437   1.862   2.077  1.7015  0.6367 -1.8123
   16CHTO    O8 6712   6.356   1.925   1.909  0.0329 -0.2398 -0.1985
   16CHTO    H3 6713   6.271   1.956   1.885  1.0587  1.4328 -1.7713
   16CHTO    C9 6714   6.228   1.923   2.118 -0.1398 -0.2750  0.6139
   16CHTO   H22 6715   6.245   1.932   2.226  0.8439  2.6176  0.2497
   16CHTO    N2 6716   6.170   1.788   2.106 -0.3868 -0.2584  0.6989
   16CHTO   H10 6717   6.107   1.767   2.191 -3.4486  0.4190 -1.3207
   16CHTO   H11 6718   6.113   1.781   2.015  1.6177  0.5243 -0.6545
   16CHTO    C7 6719   6.130   2.036   2.068 -0.9368 -0.1880  0.2433
   16CHTO   H20 6720   6.065   2.062   2.154  1.1254  0.6627  1.5643
   16CHTO    O4 6721   6.194   2.161   2.030  0.5167  0.5959 -0.6436
   16CHTO   C14 6722   6.320   2.199   2.085  1.0084 -0.0553 -0.3550
   16CHTO   H27 6723   6.301   2.225   2.192  0.7977  1.2250 -0.6957
   16CHTO   C18 6724   6.369   2.328   2.017 -0.0604  0.4423  0.1400
   16CHTO   O13 6725   6.467   2.396   2.094 -0.2424  0.2703  0.1195
   16CHTO    H7 6726   6.514   2.457   2.041  1.8870 -0.4966  1.0757
   16CHTO    O2 6727   6.029   1.997   1.942 -0.7438 -0.0420 -0.7275
   16CHTO    C1 6728   5.897   2.051   1.964  0.2698 -0.7023  0.2978
   16CHTO   H14 6729   5.901   2.134   2.037 -0.0646 -0.8809  0.5171
   16CHTO    C2 6730   5.797   1.938   2.019 -0.1378  0.1460 -0.2005
   16CHTO   H15 6731   5.815   1.846   1.961 -0.4187 -0.0540  0.0284
   16CHTO    O6 6732   5.838   1.929   2.156 -0.5803  0.0919 -0.1619
   16CHTO    H1 6733   5.789   1.872   2.213 -0.5437 -2.1055 -2.2502
   16CHTO    C3 6734   5.654   1.996   2.009  0.1803  0.0690  0.5378
   16CHTO   H16 6735   5.638   2.074   2.085 -0.0174  1.8132 -1.2647
   16CHTO    N1 6736   5.557   1.884   2.034 -0.3409 -0.3520 -0.0818
   16CHTO    H8 6737   5.543   1.822   1.947  0.2858  2.2399 -2.0880
   16CHTO    H9 6738   5.457   1.916   2.062  1.4154  4.4790  1.0984
   16CHTO    C4 6739   5.630   2.062   1.869 -0.2376 -0.1090 -0.0211
   16CHTO   H17 6740   5.636   1.984   1.794  1.9571 -0.2286  0.2399
   16CHTO    O1 6741   5.722   2.162   1.836 -0.2544  0.0786 -0.4992
   16CHTO    C5 6742   5.858   2.117   1.830  0.5900 -0.2459 -0.0394
   16CHTO   H18 6743   5.880   2.047   1.749  1.0647  0.8086 -0.8357
   16CHTO   C16 6744   5.939   2.248   1.801 -0.3385  0.1345  0.2497
   16CHTO   O11 6745   6.064   2.197   1.755  0.3882  0.3930  0.4601
   16CHTO    H5 6746   6.120   2.161   1.822  0.0097 -2.0185 -0.4480
   16CHTO    O3 6747   5.515   2.141   1.877  0.0846 -0.2033  0.2743
   16CHTO    C6 6748   5.438   2.157   1.754 -0.9824 -0.3795 -0.4558
   16CHTO   H19 6749   5.483   2.099   1.673  1.1137  2.4306 -1.3636
   16CHTO    C8 6750   5.292   2.109   1.778 -0.1053 -0.0536  1.4880
   16CHTO   H21 6751   5.246   2.169   1.857  1.1269  0.8153  1.5518
   16CHTO    O7 6752   5.297   1.976   1.822  0.0885  0.0659 -0.3083
   16CHTO    H2 6753   5.329   1.975   1.911 -3.4124 -1.1281  1.0200
   16CHTO   C12 6754   5.194   2.127   1.653  1.0035  0.1930 -0.5815
   16CHTO   H25 6755   5.236   2.051   1.584  0.5995 -1.4019  0.8769
   16CHTO    N3 6756   5.054   2.081   1.679  0.1093  0.3624 -0.1167
   16CHTO   H12 6757   4.979   2.156   1.656  1.0621  0.9085 -1.5147
   16CHTO   H13 6758   5.034   1.999   1.613  1.1813 -0.5096  0.6282
   16CHTO   C15 6759   5.208   2.272   1.590 -0.6017  0.3972 -0.2577
   16CHTO   H28 6760   5.166   2.347   1.657  0.3422  0.6804  0.0137
   16CHTO   O10 6761   5.157   2.275   1.444 -0.7135 -0.7891 -0.3918
   16CHTO    H4 6762   5.215   2.238   1.380  1.3454  2.9036 -0.7746
   16CHTO    O5 6763   5.352   2.289   1.579  0.1818  0.5090  0.1925
   16CHTO   C10 6764   5.421   2.302   1.706 -0.1208 -0.3189  0.1400
   16CHTO   H23 6765   5.363   2.370   1.768 -1.2729  1.2213 -2.5390
   16CHTO   C17 6766   5.553   2.369   1.676  0.1736  0.8958 -0.2867
   16CHTO   O12 6767   5.526   2.507   1.636  0.1020  0.0723  0.4644
   16CHTO    H6 6768   5.475   2.504   1.558  0.3146 -0.0808  0.3293
   17CHTO  H203 6769   6.153   4.408   0.419  0.0938  0.1325  1.0012
   17CHTO   O82 6770   6.067   4.444   0.409 -0.1574 -0.7257  0.0227
   17CHTO  C123 6771   6.040   4.560   0.489 -0.5170  0.1064 -0.5267
   17CHTO  H227 6772   6.030   4.530   0.594  1.4136 -0.6462 -0.5364
   17CHTO   O77 6773   6.159   4.643   0.452 -0.3244  0.1930 -0.1099
   17CHTO  C118 6774   6.157   4.767   0.514 -0.6952 -1.2266 -0.7713
   17CHTO  H222 6775   6.152   4.762   0.624  4.0489 -0.8683 -0.4683
   17CHTO  C125 6776   6.296   4.821   0.479 -1.0567  0.0632 -0.1593
   17CHTO   O84 6777   6.336   4.932   0.558  0.4979 -0.2096  0.6719
   17CHTO  H205 6778   6.369   4.994   0.496 -0.5407  0.7983  1.1056
   17CHTO  C114 6779   6.042   4.848   0.457 -0.1851 -0.2133 -0.5442
   17CHTO  H218 6780   6.055   4.859   0.350 -0.8285 -0.4547 -0.6471
   17CHTO  C116 6781   5.901   4.780   0.477  0.9144  0.5772 -0.3238
   17CHTO  H220 6782   5.869   4.792   0.583 -1.3225 -0.1609 -0.8798
   17CHTO   O79 6783   5.808   4.854   0.402  0.0159  0.6230  0.3695
   17CHTO  H201 6784   5.767   4.914   0.460 -2.7822  1.9570 -2.7934
   17CHTO  C120 6785   5.901   4.627   0.430  0.5286 -0.6878 -1.0108
   17CHTO  H224 6786   5.906   4.641   0.320 -0.3750 -1.2356 -1.1223
   17CHTO   N21 6787   5.777   4.550   0.466 -0.0282  0.1558 -0.2322
   17CHTO  H211 6788   5.796   4.456   0.516 -2.1153  0.0284  0.3649
   17CHTO  H212 6789   5.708   4.529   0.385 -1.4353  0.4856  0.8602
   17CHTO   O75 6790   6.060   4.969   0.528  0.1234 -0.2291 -0.2838
   17CHTO  C112 6791   6.053   5.112   0.435 -0.4012 -0.1189  0.4304
   17CHTO  H216 6792   6.002   5.101   0.338  1.1899  1.1517 -0.5711
   17CHTO   O73 6793   6.185   5.153   0.413 -0.1394  0.2115  0.0031
   17CHTO  C113 6794   6.194   5.263   0.328  0.3016  0.6870  0.0991
   17CHTO  H217 6795   6.138   5.227   0.239  1.4883 -0.9394 -0.0172
   17CHTO  C124 6796   6.342   5.296   0.292  0.7303 -0.1000 -0.1691
   17CHTO   O83 6797   6.433   5.319   0.402 -0.0930  0.0685  0.0102
   17CHTO  H204 6798   6.400   5.385   0.460 -1.7393 -0.2705 -0.5300
   17CHTO  C109 6799   6.138   5.394   0.395 -0.0588 -0.1597 -0.0876
   17CHTO  H213 6800   6.201   5.419   0.481  2.0121  0.5151 -1.7588
   17CHTO  C110 6801   5.995   5.359   0.447  0.0324  0.4924  0.0779
   17CHTO  H214 6802   5.930   5.360   0.359  0.4440  1.1805 -0.2301
   17CHTO   O78 6803   5.944   5.465   0.526 -0.2184  0.7501  0.1072
   17CHTO  H200 6804   5.999   5.481   0.600 -0.6775  0.7646  0.4499
   17CHTO  C111 6805   5.986   5.221   0.522  0.0200 -0.6627  0.0052
   17CHTO  H215 6806   6.031   5.234   0.621  0.8216  0.2745 -0.4707
   17CHTO   N19 6807   5.843   5.177   0.544 -0.2765 -0.4475 -0.0842
   17CHTO  H207 6808   5.808   5.127   0.455 -2.8300  0.2929  0.4900
   17CHTO  H208 6809   5.779   5.262   0.563 -0.2766 -0.4593 -0.0334
   17CHTO   O74 6810   6.141   5.507   0.307  0.3032  0.0023 -0.3042
   17CHTO  C115 6811   6.234   5.636   0.349 -0.0125  0.0354 -1.0092
   17CHTO  H219 6812   6.269   5.629   0.451 -1.1241 -1.0323 -0.6876
   17CHTO   O76 6813   6.361   5.646   0.263  0.1180 -0.1196 -0.2042
   17CHTO  C122 6814   6.445   5.762   0.276  0.4629 -0.1125 -0.2922
   17CHTO  H226 6815   6.524   5.752   0.201 -2.1565 -0.4497 -3.0717
   17CHTO  C126 6816   6.518   5.768   0.412  0.1038  0.7746 -0.1921
   17CHTO   O85 6817   6.582   5.643   0.450 -0.5212 -0.2862 -0.4795
   17CHTO  H206 6818   6.664   5.639   0.404 -0.7449 -1.5326 -0.7845
   17CHTO  C121 6819   6.365   5.893   0.248 -0.3397  0.8283 -0.6485
   17CHTO  H225 6820   6.439   5.970   0.279 -0.2157  0.7412 -0.7237
   17CHTO   O81 6821   6.329   5.898   0.110 -0.4463 -0.1328 -0.4954
   17CHTO  H202 6822   6.282   5.824   0.078  0.5419 -0.4429 -1.2516
   17CHTO  C119 6823   6.242   5.892   0.343 -0.4127 -0.8775  0.3476
   17CHTO  H223 6824   6.277   5.902   0.445  0.2881 -1.4667  0.1717
   17CHTO  C117 6825   6.148   5.768   0.324  0.0785  0.3756  0.2790
   17CHTO  H221 6826   6.101   5.751   0.227  1.5495 -1.7667 -0.1097
   17CHTO   N20 6827   6.034   5.787   0.415  0.0092  0.7624 -0.1817
   17CHTO  H209 6828   5.959   5.858   0.382  0.3628  1.6696  0.9451
   17CHTO  H210 6829   5.992   5.694   0.449  0.7357  0.3488 -0.4083
   17CHTO   O80 6830   6.170   6.038   0.314  0.0967 -0.4670  1.2738
   17CHTO  C103 6831   6.198   6.155   0.394  0.1046 -0.3594  0.7934
   17CHTO  H190 6832   6.183   6.132   0.500  1.4692  1.7810  1.4899
   17CHTO  C101 6833   6.337   6.224   0.369 -0.0984 -0.9763  0.0862
   17CHTO  H188 6834   6.364   6.222   0.264 -3.2333 -0.4216 -0.7757
   17CHTO   O68 6835   6.443   6.145   0.444  0.8997 -0.0318  0.0726
   17CHTO  H168 6836   6.407   6.115   0.525  2.8397  0.7817  1.2662
   17CHTO   C99 6837   6.343   6.374   0.421  0.2037 -0.0680  0.9611
   17CHTO  H186 6838   6.340   6.375   0.532  1.0755  1.1497  0.9895
   17CHTO   N17 6839   6.470   6.450   0.382  0.2689 -0.4026 -0.8280
   17CHTO  H174 6840   6.466   6.488   0.281  0.7071 -0.3280 -0.8180
   17CHTO  H175 6841   6.554   6.385   0.401 -0.3650 -0.9966 -0.0284
   17CHTO   C97 6842   6.219   6.450   0.383 -0.5594 -0.0608 -0.1870
   17CHTO  H184 6843   6.215   6.478   0.277  1.2772 -0.1517 -0.2948
   17CHTO   O64 6844   6.101   6.375   0.424 -0.0341 -0.7731  0.2374
   17CHTO  C104 6845   6.085   6.255   0.351  0.5555 -0.8251  0.0359
   17CHTO  H191 6846   6.089   6.270   0.243  1.6667 -1.3679 -0.0003
   17CHTO  C108 6847   5.942   6.199   0.378  0.4661 -0.1777 -0.3641
   17CHTO   O71 6848   5.842   6.303   0.342  0.0212 -0.6435 -0.3776
   17CHTO  H171 6849   5.789   6.306   0.420 -0.0435 -0.2093 -0.4354
   17CHTO   O62 6850   6.208   6.566   0.472 -0.3361 -0.0162 -0.2661
   17CHTO   C91 6851   6.118   6.672   0.432 -0.3028 -0.1383  0.6177
   17CHTO  H178 6852   6.045   6.623   0.368  0.9901  0.4821 -1.3745
   17CHTO   C92 6853   6.186   6.772   0.331  0.6730  0.8970  0.2346
   17CHTO  H179 6854   6.241   6.714   0.256 -0.6422 -2.6592  1.9022
   17CHTO   O66 6855   6.080   6.836   0.255  0.1448 -0.3919 -0.1778
   17CHTO  H166 6856   6.103   6.823   0.165  2.3901 -2.3444  0.6309
   17CHTO   C93 6857   6.265   6.883   0.397  0.2028  0.1608  0.1727
   17CHTO  H180 6858   6.292   6.960   0.324 -2.9270 -0.4308 -1.6865
   17CHTO   N16 6859   6.401   6.827   0.437 -1.2238  0.3946  0.0693
   17CHTO  H172 6860   6.435   6.872   0.529  0.4203  0.8637 -0.7481
   17CHTO  H173 6861   6.407   6.720   0.451 -0.3368  0.5799  1.1086
   17CHTO   C94 6862   6.183   6.945   0.516 -0.9412 -0.5378 -0.3827
   17CHTO  H181 6863   6.239   6.936   0.610 -0.6668  2.6025 -0.2081
   17CHTO   O61 6864   6.051   6.896   0.532 -0.2058 -0.8002  0.1804
   17CHTO   C95 6865   6.035   6.755   0.547 -0.2838 -0.8754  0.5825
   17CHTO  H182 6866   6.087   6.733   0.640  0.7087  2.6043  0.9405
   17CHTO  C106 6867   5.888   6.717   0.553  0.2286  0.4970  0.8435
   17CHTO   O69 6868   5.849   6.581   0.578 -0.3653  0.0817 -0.0010
   17CHTO  H169 6869   5.899   6.526   0.522 -1.2175 -0.7432  0.0267
   17CHTO   O63 6870   6.165   7.094   0.482 -0.2015  0.3606  0.3127
   17CHTO   C96 6871   6.138   7.178   0.615  0.8613  0.0499 -0.0050
   17CHTO  H183 6872   6.148   7.110   0.699  0.5457  2.1586  1.7865
   17CHTO   C98 6873   5.995   7.245   0.631 -0.2118  0.1426 -1.1298
   17CHTO  H185 6874   5.972   7.311   0.545  0.6820  2.8554  0.6389
   17CHTO   O67 6875   5.894   7.141   0.631  0.3088 -0.2251  0.2212
   17CHTO  H167 6876   5.889   7.097   0.548 -0.2886 -1.2052  0.7646
   17CHTO  C102 6877   5.986   7.331   0.764 -0.0854  0.8984 -0.4297
   17CHTO  H189 6878   5.985   7.255   0.843 -2.0514  2.6675  1.3036
   17CHTO   N18 6879   5.858   7.406   0.786  0.4543  0.6186 -0.6257
   17CHTO  H176 6880   5.801   7.354   0.862 -0.0503  0.0447 -1.3911
   17CHTO  H177 6881   5.802   7.425   0.695 -0.4482 -1.4344 -0.5349
   17CHTO  C105 6882   6.117   7.414   0.783  0.2584 -0.0452 -0.2245
   17CHTO  H192 6883   6.106   7.506   0.726  1.5930  0.2760  0.0193
   17CHTO   O65 6884   6.239   7.355   0.750  1.2563  0.1687  0.0389
   17CHTO  C100 6885   6.243   7.285   0.621  0.1585 -0.7428 -0.2895
   17CHTO  H187 6886   6.219   7.359   0.543  1.9915  0.5028  0.2922
   17CHTO  C107 6887   6.385   7.239   0.586  0.0179  0.5294 -0.1821
   17CHTO   O70 6888   6.438   7.145   0.679 -0.4618 -0.3490  0.1593
   17CHTO  H170 6889   6.531   7.136   0.681 -0.0861  2.1019 -2.3152
   17CHTO   O57 6890   6.122   7.438   0.950  0.3450  0.0591 -0.4275
   17CHTO   C85 6891   6.196   7.554   0.993 -0.0836 -0.4104 -0.0147
   17CHTO  H157 6892   6.161   7.643   0.937  0.5806  0.1322  0.4068
   17CHTO   C83 6893   6.347   7.541   0.943  0.7698  0.7782 -1.0398
   17CHTO  H155 6894   6.344   7.557   0.835  1.0532 -1.7266 -1.4332
   17CHTO   O56 6895   6.390   7.401   0.978 -0.4078 -0.0104 -0.4706
   17CHTO  H135 6896   6.334   7.340   0.935  0.9698 -0.1877 -2.0489
   17CHTO   C81 6897   6.426   7.658   1.009  0.6359  0.2573  0.3306
   17CHTO  H153 6898   6.376   7.750   0.979 -0.1033 -0.0664  0.5424
   17CHTO   N14 6899   6.570   7.669   0.967  0.4222 -0.0227  0.4523
   17CHTO  H141 6900   6.597   7.587   0.903 -0.3187 -0.0525  0.1657
   17CHTO  H142 6901   6.579   7.756   0.906  0.5292 -1.6501 -1.9731
   17CHTO   C79 6902   6.416   7.658   1.167  0.1920  0.5716  0.4736
   17CHTO  H151 6903   6.469   7.747   1.202  1.1174 -0.0246  0.6116
   17CHTO   O52 6904   6.281   7.682   1.203 -0.3966  0.0934  0.5248
   17CHTO   C86 6905   6.188   7.580   1.151 -0.2351  0.2258  0.3215
   17CHTO  H158 6906   6.208   7.488   1.209 -2.0001 -0.0543  0.5028
   17CHTO   C90 6907   6.041   7.610   1.178 -0.1530 -0.2925 -0.5585
   17CHTO   O60 6908   5.979   7.531   1.281 -0.4759 -0.0701 -0.1934
   17CHTO  H138 6909   6.019   7.446   1.276  0.8825  0.4721  1.0863
   17CHTO   O50 6910   6.480   7.537   1.210  0.3531  0.4011  0.1349
   17CHTO   C73 6911   6.587   7.525   1.310 -0.1914  0.1843  0.6028
   17CHTO  H145 6912   6.610   7.622   1.358  1.2996  0.5414 -0.7817
   17CHTO   C74 6913   6.717   7.455   1.256  0.7050 -0.0901 -0.1746
   17CHTO  H146 6914   6.759   7.523   1.181  0.0773 -0.2534 -0.6814
   17CHTO   O54 6915   6.810   7.460   1.371 -0.0243  0.3902  0.0979
   17CHTO  H133 6916   6.842   7.549   1.371 -0.6081  0.6076 -0.7588
   17CHTO   C75 6917   6.668   7.316   1.196 -0.3383 -0.5636  0.7778
   17CHTO  H147 6918   6.597   7.337   1.114 -1.1064  0.7311  1.7753
   17CHTO   N13 6919   6.776   7.235   1.134 -0.2574 -0.2191  0.2532
   17CHTO  H139 6920   6.833   7.179   1.208 -1.5454  1.9456  2.9392
   17CHTO  H140 6921   6.742   7.170   1.054  2.4145 -1.5584  0.1191
   17CHTO   C76 6922   6.581   7.227   1.295  0.5430 -0.0090  0.6839
   17CHTO  H148 6923   6.648   7.180   1.367  0.1829  1.5964  2.1180
   17CHTO   O49 6924   6.481   7.313   1.360 -0.2127 -0.3189 -0.0062
   17CHTO   C77 6925   6.534   7.431   1.419  0.5637  0.4890  0.0595
   17CHTO  H149 6926   6.609   7.404   1.493  0.6843  2.8213  0.8158
   17CHTO   C88 6927   6.421   7.495   1.502 -0.4174 -0.3225 -0.5095
   17CHTO   O58 6928   6.353   7.388   1.596  0.1240 -0.0879 -0.3825
   17CHTO  H136 6929   6.261   7.404   1.589 -0.0672 -1.2147 -0.5458
   17CHTO   O51 6930   6.493   7.114   1.213  0.3980 -0.0041 -0.2696
   17CHTO   C78 6931   6.352   7.054   1.277 -0.3110  0.9921  0.1735
   17CHTO  H150 6932   6.293   7.134   1.327  0.0322  1.6483 -0.4583
   17CHTO   C80 6933   6.383   6.948   1.387  0.3160  0.0579 -0.0684
   17CHTO  H152 6934   6.450   6.870   1.344 -0.2276 -0.5107  0.1083
   17CHTO   O55 6935   6.448   7.012   1.500  0.0255 -0.0692  0.7252
   17CHTO  H134 6936   6.397   7.085   1.529  0.3133  0.0905  0.8373
   17CHTO   C84 6937   6.254   6.875   1.433  0.0895 -0.4784 -0.7055
   17CHTO  H156 6938   6.199   6.956   1.480 -1.0705 -1.4022 -0.4341
   17CHTO   N15 6939   6.275   6.766   1.539  0.1417 -0.4942  0.2185
   17CHTO  H143 6940   6.262   6.669   1.495  0.4249  0.1325 -1.2733
   17CHTO  H144 6941   6.371   6.773   1.586  0.0329 -1.3278  0.5742
   17CHTO   C87 6942   6.178   6.818   1.307  0.1547  0.1403 -0.5890
   17CHTO  H159 6943   6.243   6.756   1.245 -1.8082 -1.1108 -1.4200
   17CHTO   O53 6944   6.139   6.947   1.231  0.0760 -0.2245  0.0642
   17CHTO   C82 6945   6.258   7.001   1.169  0.4042 -0.0160 -0.2864
   17CHTO  H154 6946   6.312   6.939   1.098  1.1534  0.2101  0.0751
   17CHTO   C89 6947   6.218   7.128   1.091 -0.0605  0.5006  1.0563
   17CHTO   O59 6948   6.113   7.106   1.000  0.0956 -0.2267 -0.6860
   17CHTO  H137 6949   6.141   7.051   0.929 -0.3625 -1.2850 -0.0647
   17CHTO   O45 6950   6.038   6.751   1.355  0.3125  0.0902  0.5594
   17CHTO   C67 6951   5.953   6.684   1.261 -0.0436 -0.1252  0.0875
   17CHTO  H124 6952   5.877   6.635   1.323 -0.0393 -1.1253 -0.6832
   17CHTO   C65 6953   5.873   6.775   1.159 -0.6165  0.3070 -0.0190
   17CHTO  H122 6954   5.926   6.870   1.159  0.7158 -0.4169  0.8467
   17CHTO   O44 6955   5.743   6.800   1.219  0.3178 -0.3664 -0.8891
   17CHTO  H102 6956   5.697   6.865   1.170 -0.1386 -1.0908 -1.4358
   17CHTO   C63 6957   5.883   6.726   1.013 -0.3031 -0.2059  0.4832
   17CHTO  H120 6958   5.988   6.732   0.982 -0.5030  2.0532  0.1887
   17CHTO   N11 6959   5.823   6.804   0.901 -0.0862 -0.5556  0.1502
   17CHTO  H108 6960   5.720   6.832   0.904 -0.4412 -1.4614 -2.1499
   17CHTO  H109 6961   5.833   6.748   0.810  0.3967  1.3703 -1.0061
   17CHTO   C61 6962   5.840   6.575   1.024 -0.2712  0.2926  0.1640
   17CHTO  H118 6963   5.836   6.533   0.922  0.5630 -2.1830  1.1235
   17CHTO   O40 6964   5.938   6.496   1.096 -0.2075  0.2590 -0.4832
   17CHTO   C68 6965   6.030   6.568   1.194 -0.1486  0.9199  0.0557
   17CHTO  H125 6966   6.117   6.606   1.137  1.3821 -2.8237 -0.2646
   17CHTO   C72 6967   6.076   6.466   1.292  0.3734  0.1723 -0.2129
   17CHTO   O48 6968   6.130   6.352   1.224 -0.1844 -0.4042 -0.1499
   17CHTO  H105 6969   6.213   6.366   1.184  1.1799 -3.2840  1.5368
   17CHTO   O38 6970   5.713   6.554   1.077  0.9013  0.3289  0.4809
   17CHTO   C55 6971   5.664   6.456   1.164 -0.4181 -1.2337  0.1814
   17CHTO  H112 6972   5.724   6.463   1.256  0.4449  1.8660 -0.5704
   17CHTO   C56 6973   5.663   6.315   1.101 -0.5727  0.9663  0.0818
   17CHTO  H113 6974   5.628   6.324   0.997 -0.0215 -1.4124 -0.3410
   17CHTO   O42 6975   5.795   6.266   1.093  0.0897 -0.6471  0.2913
   17CHTO  H100 6976   5.851   6.279   1.167  1.1995 -0.7008 -0.5116
   17CHTO   C57 6977   5.568   6.204   1.166  0.4829  0.6071  1.0361
   17CHTO  H114 6978   5.612   6.167   1.258  3.5106  2.4347  0.4109
   17CHTO   N10 6979   5.556   6.082   1.083 -0.2348 -0.1007 -0.7395
   17CHTO  H106 6980   5.529   5.999   1.146  1.4486 -1.3412 -1.6330
   17CHTO  H107 6981   5.654   6.053   1.049  1.3814 -1.2743  4.3635
   17CHTO   C58 6982   5.433   6.266   1.199  0.1844 -0.3812  0.8790
   17CHTO  H115 6983   5.376   6.284   1.105  0.1648  0.1829  0.9930
   17CHTO   O37 6984   5.462   6.385   1.272  0.5507 -0.1586 -0.2987
   17CHTO   C59 6985   5.515   6.494   1.193 -0.6263  0.8455  0.1123
   17CHTO  H116 6986   5.463   6.503   1.097 -2.2339 -0.7573  0.8084
   17CHTO   C70 6987   5.496   6.621   1.276 -0.2517 -0.8394 -0.8010
   17CHTO   O46 6988   5.362   6.643   1.320 -0.3539 -0.2557 -0.1933
   17CHTO  H103 6989   5.346   6.735   1.307 -0.5838 -0.4826 -1.5270
   17CHTO   O39 6990   5.321   6.148   1.289 -0.2916  0.1469  0.3910
   17CHTO   C60 6991   5.186   6.197   1.285 -0.1742 -0.1917  0.5517
   17CHTO  H117 6992   5.191   6.305   1.294  0.2219 -0.2036  0.4545
   17CHTO   C62 6993   5.110   6.168   1.158 -0.1919  0.2429  0.2056
   17CHTO  H119 6994   5.172   6.229   1.088 -0.6818  0.1009 -0.3510
   17CHTO   O43 6995   5.095   6.029   1.126 -0.7855  0.3847 -0.1089
   17CHTO  H101 6996   5.178   5.986   1.128 -0.7376  0.5244  1.3131
   17CHTO   C66 6997   4.961   6.237   1.150  0.6160 -0.0270  0.3450
   17CHTO  H123 6998   4.969   6.346   1.143 -0.0711  0.4080  4.5147
   17CHTO   N12 6999   4.883   6.203   1.029  0.3682 -0.6964 -0.0647
   17CHTO  H110 7000   4.783   6.245   1.024  0.0117 -0.7539  4.3239
   17CHTO  H111 7001   4.868   6.096   1.017  1.3429 -0.8538  0.1304
   17CHTO   C69 7002   4.879   6.204   1.282 -0.7936 -0.1377  0.0887
   17CHTO  H126 7003   4.848   6.098   1.291  0.5436 -0.2847  4.2137
   17CHTO   O41 7004   4.972   6.232   1.418  0.2088  0.2818  0.0488
   17CHTO   C64 7005   5.097   6.150   1.410  0.0118 -0.6996  0.4265
   17CHTO  H121 7006   5.070   6.045   1.384 -0.5841 -0.3447 -0.4079
   17CHTO   C71 7007   5.170   6.167   1.540 -0.6251  0.4794  0.2961
   17CHTO   O47 7008   5.088   6.131   1.646  0.0198 -0.3546 -0.4941
   17CHTO  H104 7009   5.014   6.186   1.661  0.3273 -0.7531  2.8208
   17CHTO   O34 7010   4.736   6.283   1.285  0.9516 -0.3085 -0.1521
   17CHTO   C49 7011   4.659   6.410   1.346  0.0318  0.0104  0.5329
   17CHTO   H91 7012   4.724   6.494   1.323  1.7123 -0.9087  1.7076
   17CHTO   C47 7013   4.646   6.407   1.504  0.2458 -0.4780 -0.1613
   17CHTO   H89 7014   4.599   6.505   1.528 -0.6273 -0.6879 -0.9576
   17CHTO   O33 7015   4.770   6.412   1.566  0.0710  0.3641 -0.7952
   17CHTO   H70 7016   4.840   6.405   1.503  1.0243  1.7346  0.0817
   17CHTO   C45 7017   4.558   6.272   1.539 -0.4351  0.2485 -0.1185
   17CHTO   H87 7018   4.630   6.189   1.552 -2.6719 -1.6287  0.5411
   17CHTO    N8 7019   4.499   6.299   1.668  0.4261  0.1903  0.4936
   17CHTO   H75 7020   4.426   6.378   1.660 -0.0501 -0.5515 -3.3269
   17CHTO   H76 7021   4.450   6.206   1.696 -2.3114  0.9893 -1.4275
   17CHTO   C43 7022   4.452   6.237   1.417 -0.0566 -0.5549  0.3395
   17CHTO   H85 7023   4.502   6.167   1.350 -1.5278 -2.0559  0.7689
   17CHTO   O29 7024   4.414   6.352   1.348 -0.4151  0.2013  0.2505
   17CHTO   C50 7025   4.516   6.424   1.283  0.2773  0.5367  0.2002
   17CHTO   H92 7026   4.520   6.384   1.180  0.0336  0.4107  0.2376
   17CHTO   C54 7027   4.458   6.566   1.270 -0.6121 -0.8070 -0.1199
   17CHTO   O36 7028   4.331   6.578   1.210  0.3657 -0.2786  0.0470
   17CHTO   H72 7029   4.295   6.664   1.216 -3.1649 -1.5332 -1.2715
   17CHTO   O27 7030   4.338   6.166   1.469  0.6425 -0.0766  0.1149
   17CHTO   C37 7031   4.251   6.064   1.415  0.1673 -0.2111 -0.1602
   17CHTO   H79 7032   4.174   6.040   1.491 -1.8055  1.0629 -1.7117
   17CHTO   C38 7033   4.181   6.100   1.282 -0.4957 -0.2378 -0.1355
   17CHTO   H80 7034   4.261   6.131   1.213  0.4922 -0.6333  0.8026
   17CHTO   O31 7035   4.098   6.212   1.312 -0.2941 -0.8327 -0.0946
   17CHTO   H68 7036   4.054   6.240   1.235  0.9115 -0.2330 -0.5673
   17CHTO   C39 7037   4.111   5.972   1.212 -0.1276 -0.3524 -0.1324
   17CHTO   H81 7038   4.032   5.944   1.282 -0.6272  1.9495  0.2738
   17CHTO    N7 7039   4.056   6.000   1.081  0.1622 -0.0424 -0.3638
   17CHTO   H73 7040   4.073   5.922   1.008 -0.9521  1.0747 -1.8463
   17CHTO   H74 7041   3.948   6.001   1.083  0.1809  0.6540  1.6836
   17CHTO   C40 7042   4.221   5.860   1.207  0.1666  0.0745  0.2553
   17CHTO   H82 7043   4.299   5.903   1.143  0.2851 -0.4821  0.0275
   17CHTO   O26 7044   4.267   5.833   1.338  0.5307 -0.6260 -0.2505
   17CHTO   C41 7045   4.343   5.939   1.401 -0.9572 -0.6864  0.5243
   17CHTO   H83 7046   4.429   5.965   1.336 -2.6220  1.2691 -0.9793
   17CHTO   C52 7047   4.386   5.889   1.533 -0.6332 -0.0091 -0.3886
   17CHTO   O35 7048   4.473   5.771   1.524  0.0845 -0.0907 -0.5882
   17CHTO   H71 7049   4.544   5.787   1.466  1.0934 -0.1068  0.6234
   17CHTO   O28 7050   4.179   5.744   1.133  0.2958 -0.4042 -0.2515
   17CHTO   C42 7051   4.282   5.659   1.074 -0.1744 -0.4441 -0.7188
   17CHTO   H84 7052   4.230   5.579   1.021 -0.4211 -1.9101  1.6849
   17CHTO   C44 7053   4.372   5.582   1.183 -0.1231  0.1458 -0.7187
   17CHTO   H86 7054   4.385   5.648   1.269  1.1419 -1.0930  0.0585
   17CHTO   O32 7055   4.277   5.486   1.235 -0.1939 -0.2925  0.0958
   17CHTO   H69 7056   4.294   5.468   1.325 -0.5011  0.1698  0.2490
   17CHTO   C48 7057   4.506   5.519   1.137 -0.9132  0.2815  0.3463
   17CHTO   H90 7058   4.493   5.419   1.094  0.2893 -0.1642  0.9877
   17CHTO    N9 7059   4.601   5.506   1.250  0.5167 -0.3880  0.1932
   17CHTO   H77 7060   4.568   5.449   1.335 -0.0827 -0.0660  0.1825
   17CHTO   H78 7061   4.694   5.477   1.204  0.2548  2.2774 -2.2008
   17CHTO   C51 7062   4.560   5.593   1.011 -0.1192 -0.9536  0.1248
   17CHTO   H93 7063   4.599   5.688   1.047 -1.7629 -0.8866  1.8285
   17CHTO   O30 7064   4.458   5.609   0.917 -0.0620 -0.0246  0.0693
   17CHTO   C46 7065   4.371   5.730   0.968 -0.0583  0.6931 -0.1989
   17CHTO   H88 7066   4.425   5.816   1.009  0.4137  0.0207  0.6017
   17CHTO   C53 7067   4.291   5.778   0.838  0.1772 -0.1019  0.6710
   17CHTO   O72 7068   4.243   5.908   0.854 -0.7652  0.1686 -0.1514
   17CHTO  H199 7069   4.162   5.909   0.806 -0.7099  0.1972 -0.2446
   17CHTO   O22 7070   4.664   5.513   0.950  0.1144 -0.0807  0.0699
   17CHTO   C31 7071   4.769   5.570   0.874  0.9071  0.6122 -0.2592
   17CHTO   H59 7072   4.843   5.489   0.856 -1.3972 -1.3966 -1.0367
   17CHTO   C29 7073   4.730   5.630   0.733 -0.0884  0.2830  0.0173
   17CHTO   H57 7074   4.653   5.707   0.748 -0.0022  0.8726 -2.4514
   17CHTO   O21 7075   4.668   5.526   0.661 -0.1459 -0.4759  0.3386
   17CHTO   H37 7076   4.722   5.449   0.660  1.6913  0.7705  0.7262
   17CHTO   C27 7077   4.842   5.696   0.651  0.3414 -0.5914 -0.0361
   17CHTO   H55 7078   4.923   5.623   0.637 -0.0403 -1.3730  1.6913
   17CHTO    N5 7079   4.806   5.756   0.515  0.5267  0.3559 -0.2554
   17CHTO   H43 7080   4.740   5.840   0.531  1.2527  1.7344 -3.9804
   17CHTO   H44 7081   4.894   5.804   0.473  0.6193 -0.2534 -0.7612
   17CHTO   C25 7082   4.901   5.803   0.738 -0.5189 -0.2328 -0.0704
   17CHTO   H53 7083   4.823   5.875   0.766 -0.2939  0.7052 -1.8291
   17CHTO   O17 7084   4.954   5.744   0.863 -0.5204  0.6389  0.0442
   17CHTO   C32 7085   4.853   5.688   0.945 -0.0548  0.3415 -0.4978
   17CHTO   H60 7086   4.780   5.758   0.985 -2.0886 -2.9366  1.8122
   17CHTO   C36 7087   4.915   5.618   1.068 -0.1959  0.2441 -0.0349
   17CHTO   O25 7088   4.965   5.715   1.161  0.4098 -0.1624  0.0302
   17CHTO   H40 7089   5.002   5.657   1.225 -0.7804  0.2978  1.1549
   17CHTO   O15 7090   5.022   5.890   0.679  0.2841  0.3967 -0.2988
   17CHTO   C19 7091   5.090   6.015   0.679 -0.0947 -0.6243  0.5777
   17CHTO   H47 7092   5.155   6.003   0.591 -1.4188 -3.1232 -0.1196
   17CHTO   C20 7093   4.983   6.126   0.652 -0.4144 -0.0953  0.4592
   17CHTO   H48 7094   4.907   6.131   0.732 -2.3893  0.1412 -1.3919
   17CHTO   O19 7095   4.901   6.083   0.538 -0.0360 -0.0219  0.5655
   17CHTO   H35 7096   4.940   6.113   0.458 -1.4797  0.0045 -0.1594
   17CHTO   C21 7097   5.052   6.269   0.629 -0.0351  0.3980 -0.0071
   17CHTO   H49 7098   5.109   6.263   0.536  1.0962 -1.5518  0.7701
   17CHTO    N4 7099   4.950   6.375   0.621  0.1947  0.0854 -0.5697
   17CHTO   H41 7100   4.949   6.422   0.523 -0.1564  1.6086  0.1423
   17CHTO   H42 7101   4.854   6.333   0.645  0.4303  0.7593  1.6267
   17CHTO   C22 7102   5.147   6.291   0.746  0.0478 -0.4141  0.6382
   17CHTO   H50 7103   5.085   6.305   0.834  0.6601  1.3955  0.8045
   17CHTO   O14 7104   5.237   6.183   0.778  0.0302  0.2372 -0.0170
   17CHTO   C23 7105   5.179   6.057   0.804  1.1058 -0.6552  0.0155
   17CHTO   H51 7106   5.118   6.069   0.895 -0.4775 -1.5456 -0.8957
   17CHTO   C34 7107   5.290   5.961   0.837 -0.2054  0.0662 -0.2085
   17CHTO   O23 7108   5.253   5.840   0.906 -0.7201  0.5201  0.2743
   17CHTO   H38 7109   5.226   5.863   0.993 -0.8799 -0.0872  0.3879
   17CHTO   O16 7110   5.225   6.411   0.713 -0.1357 -0.0243  0.5188
   17CHTO   C24 7111   5.273   6.505   0.843 -0.1470  0.0127  0.5570
   17CHTO   H52 7112   5.306   6.447   0.929 -0.7413 -0.2934  0.5814
   17CHTO   C26 7113   5.152   6.599   0.875 -0.1737 -0.2922  0.1971
   17CHTO   H54 7114   5.134   6.662   0.786 -1.5437 -1.0257 -0.0632
   17CHTO   O20 7115   5.033   6.519   0.906  0.0033 -0.7161  0.7464
   17CHTO   H36 7116   5.051   6.485   0.992  0.6094 -0.9256  0.5364
   17CHTO   C30 7117   5.197   6.696   0.991  0.6235 -0.2357  0.0607
   17CHTO   H58 7118   5.223   6.640   1.082  0.7643  0.6716  0.5881
   17CHTO    N6 7119   5.082   6.783   1.015  0.4260  0.1650  0.0393
   17CHTO   H45 7120   5.059   6.786   1.121  2.4137  3.7761  0.4266
   17CHTO   H46 7121   5.097   6.883   0.978  0.6699 -0.1446 -0.7015
   17CHTO   C33 7122   5.327   6.769   0.947 -0.1730  0.6399  0.3039
   17CHTO   H61 7123   5.308   6.834   0.860  0.1490 -0.3609 -0.5226
   17CHTO   O18 7124   5.431   6.672   0.912  0.1756 -0.3145  0.0361
   17CHTO   C28 7125   5.400   6.587   0.807 -0.3171 -0.4412  0.0870
   17CHTO   H56 7126   5.379   6.652   0.722 -0.2853  0.7770  0.9893
   17CHTO   C35 7127   5.512   6.490   0.794  1.0957  0.6776 -0.6229
   17CHTO   O24 7128   5.632   6.551   0.745  0.4761  0.0001  0.1840
   17CHTO   H39 7129   5.663   6.631   0.781  0.8258  0.1033 -0.3415
   17CHTO    O9 7130   5.371   6.865   1.053 -0.2940 -0.6587  0.1391
   17CHTO   C13 7131   5.461   6.989   0.970 -0.1505  0.0014  0.5771
   17CHTO   H26 7132   5.521   6.946   0.887  1.7990  2.1844  0.8015
   17CHTO   C11 7133   5.557   7.049   1.086  0.0907 -0.0047 -0.1548
   17CHTO   H24 7134   5.631   6.973   1.112  0.3125  0.9503  2.0639
   17CHTO    O8 7135   5.489   7.073   1.212 -0.0439  0.1328 -0.1086
   17CHTO    H3 7136   5.511   7.156   1.249  0.6503  0.1020 -0.4284
   17CHTO    C9 7137   5.637   7.167   1.023  0.5401 -0.2054 -0.1556
   17CHTO   H22 7138   5.692   7.132   0.935  0.6500  1.8323 -0.9347
   17CHTO    N2 7139   5.739   7.236   1.109 -0.2336 -0.0504  0.5039
   17CHTO   H10 7140   5.810   7.312   1.080 -0.7907 -0.1612 -1.1642
   17CHTO   H11 7141   5.783   7.168   1.180 -4.7261 -2.5320  1.0720
   17CHTO    C7 7142   5.528   7.267   0.980 -0.3664  0.1679  0.0642
   17CHTO   H20 7143   5.586   7.345   0.925  0.7452 -1.9384 -1.8814
   17CHTO    O4 7144   5.432   7.222   0.889  0.2500 -0.6996 -0.6315
   17CHTO   C14 7145   5.362   7.098   0.910  0.2309 -0.5060 -0.2641
   17CHTO   H27 7146   5.323   7.052   0.817  0.8985  0.0089 -0.8051
   17CHTO   C18 7147   5.242   7.118   0.996  0.5699  0.0162 -0.7115
   17CHTO   O13 7148   5.146   7.205   0.931  0.2967 -0.1318 -0.3373
   17CHTO    H7 7149   5.061   7.213   0.969  0.3331 -2.5207  0.3794
   17CHTO    O2 7150   5.444   7.335   1.118  0.2972 -0.0524 -0.9609
   17CHTO    C1 7151   5.407   7.472   1.112  0.5998 -0.1449 -0.3462
   17CHTO   H14 7152   5.353   7.485   1.016 -2.0352  0.1485  1.1460
   17CHTO    C2 7153   5.529   7.580   1.112  0.4050 -0.0320 -0.4239
   17CHTO   H15 7154   5.586   7.546   1.200  0.3052  1.0835  0.0835
   17CHTO    O6 7155   5.599   7.560   0.987  0.1266  0.0619 -0.0205
   17CHTO    H1 7156   5.560   7.608   0.917 -0.0344 -1.8327 -1.2735
   17CHTO    C3 7157   5.480   7.730   1.149  0.6341 -0.4647  0.2762
   17CHTO   H16 7158   5.424   7.759   1.059 -0.9932  3.9042  2.5582
   17CHTO    N1 7159   5.596   7.828   1.158 -0.2255  0.5698  0.6791
   17CHTO    H8 7160   5.570   7.925   1.117  2.8496  0.8913 -0.6306
   17CHTO    H9 7161   5.693   7.788   1.133 -0.0659  1.6024 -0.4005
   17CHTO    C4 7162   5.379   7.732   1.262  0.5807  0.2737  0.4185
   17CHTO   H17 7163   5.421   7.702   1.358 -0.7772  0.1807  0.9862
   17CHTO    O1 7164   5.271   7.641   1.224  0.0871  0.2362 -0.3521
   17CHTO    C5 7165   5.314   7.504   1.234  0.1334 -0.4202 -1.0883
   17CHTO   H18 7166   5.371   7.467   1.319 -0.8909  0.7256  0.1127
   17CHTO   C16 7167   5.171   7.439   1.233 -0.2593 -0.5099 -0.4417
   17CHTO   O11 7168   5.174   7.302   1.248 -0.1889 -0.4212  0.3983
   17CHTO    H5 7169   5.260   7.267   1.236 -1.1213 -2.2838 -0.9730
   17CHTO    O3 7170   5.298   7.854   1.270 -0.5251  0.0861  0.0565
   17CHTO    C6 7171   5.249   7.893   1.400  0.0775  0.6169 -0.3089
   17CHTO   H19 7172   5.160   7.955   1.394 -1.0623 -1.0665 -1.0433
   17CHTO    C8 7173   5.184   7.783   1.494 -0.0282 -0.2279  0.0702
   17CHTO   H21 7174   5.246   7.693   1.493 -1.2901 -1.1107 -1.6231
   17CHTO    O7 7175   5.054   7.754   1.434 -0.4308 -0.3096 -0.0314
   17CHTO    H2 7176   5.040   7.662   1.431 -2.2017 -0.0582  0.2334
   17CHTO   C12 7177   5.169   7.826   1.645  0.7952  0.2356  0.2667
   17CHTO   H25 7178   5.083   7.895   1.658  1.5741  1.3302 -0.2402
   17CHTO    N3 7179   5.128   7.707   1.732 -0.6947 -0.2458 -0.8442
   17CHTO   H12 7180   5.110   7.619   1.672 -0.7959 -1.7632  1.3568
   17CHTO   H13 7181   5.046   7.729   1.798  0.1181 -0.8276  0.3642
   17CHTO   C15 7182   5.303   7.902   1.688 -0.4365  0.4919  0.0834
   17CHTO   H28 7183   5.394   7.842   1.691  0.2904  1.5138 -1.1411
   17CHTO   O10 7184   5.292   7.954   1.819  0.1021 -0.0852 -0.0068
   17CHTO    H4 7185   5.287   7.889   1.886  0.6327 -0.5980 -0.4634
   17CHTO    O5 7186   5.326   8.014   1.612  0.0849  0.5880 -0.1846
   17CHTO   C10 7187   5.354   7.978   1.476  0.5746  0.7564  0.5814
   17CHTO   H23 7188   5.451   7.928   1.474  1.1651  1.9143 -0.6893
   17CHTO   C17 7189   5.374   8.112   1.405 -0.1692 -0.1468 -0.4872
   17CHTO   O12 7190   5.265   8.206   1.403  0.3058 -0.1457  0.0435
   17CHTO    H6 7191   5.210   8.206   1.328  0.6033 -1.3860 -0.1856
   18CHTO  H203 7192   6.893   7.910   2.069 -2.0699 -2.1879  2.9400
   18CHTO   O82 7193   6.820   7.889   2.013 -0.3905 -0.3097 -0.0886
   18CHTO  C123 7194   6.846   7.940   1.879 -0.2157 -0.3112 -0.8144
   18CHTO  H227 7195   6.946   7.987   1.883 -0.9416  1.1621  1.5582
   18CHTO   O77 7196   6.831   7.827   1.793 -0.5921 -0.1311 -0.0459
   18CHTO  C118 7197   6.829   7.841   1.655  0.0686 -0.1379  0.4726
   18CHTO  H222 7198   6.936   7.856   1.631  0.7009 -2.5053  1.6116
   18CHTO  C125 7199   6.793   7.695   1.613  0.6533  0.0395 -0.7255
   18CHTO   O84 7200   6.674   7.642   1.681 -0.1118  0.4339  0.2816
   18CHTO  H205 7201   6.700   7.588   1.754 -0.8809 -0.3979 -0.0475
   18CHTO  C114 7202   6.729   7.949   1.612  0.4734  0.2934  0.0117
   18CHTO  H218 7203   6.627   7.912   1.622  0.1188  1.3896  0.5700
   18CHTO  C116 7204   6.751   8.080   1.694 -0.0933  0.5780  0.0644
   18CHTO  H220 7205   6.852   8.121   1.673  0.9099 -2.3371 -0.9691
   18CHTO   O79 7206   6.658   8.182   1.652 -0.2571  0.3981  0.3015
   18CHTO  H201 7207   6.573   8.169   1.689 -0.9172 -1.6721 -1.8449
   18CHTO  C120 7208   6.736   8.045   1.847  0.4298 -0.3468 -0.4566
   18CHTO  H224 7209   6.639   7.991   1.858 -0.5049  1.2758 -0.6515
   18CHTO   N21 7210   6.747   8.164   1.934 -0.1153 -0.0682  0.4626
   18CHTO  H211 7211   6.730   8.250   1.871 -0.1357  0.0572  0.6384
   18CHTO  H212 7212   6.684   8.159   2.022  0.8670 -1.3619  1.1118
   18CHTO   O75 7213   6.746   7.979   1.470  0.0307  0.1510  0.1081
   18CHTO  C112 7214   6.885   8.035   1.403 -0.5740 -0.1211 -0.1722
   18CHTO  H216 7215   6.970   7.985   1.452 -0.3457  0.6881  0.2741
   18CHTO   O73 7216   6.893   8.174   1.422  0.1089 -0.0116  0.0090
   18CHTO  C113 7217   7.008   8.225   1.345 -0.0266 -0.1279 -0.3726
   18CHTO  H217 7218   7.104   8.176   1.369 -0.2941 -0.1417  0.6928
   18CHTO  C124 7219   7.033   8.373   1.386 -0.1421  0.6346 -0.2745
   18CHTO   O83 7220   7.054   8.380   1.527 -0.5205 -0.6736  0.1287
   18CHTO  H204 7221   7.032   8.469   1.547 -0.6971 -0.4545 -1.0097
   18CHTO  C109 7222   6.986   8.214   1.190 -0.1274 -0.4064 -0.6474
   18CHTO  H213 7223   6.898   8.276   1.167  0.1027  0.6901  1.3118
   18CHTO  C110 7224   6.950   8.070   1.143  0.4017  0.2952 -0.4445
   18CHTO  H214 7225   7.043   8.014   1.135 -0.2977 -1.1590  1.1289
   18CHTO   O78 7226   6.882   8.077   1.019  0.3043 -0.3941  0.4118
   18CHTO  H200 7227   6.912   8.009   0.962  1.5030 -0.5536  1.2218
   18CHTO  C111 7228   6.862   7.999   1.248  0.2232 -0.2585  0.1331
   18CHTO  H215 7229   6.759   8.030   1.224  0.5213  1.7131  1.2528
   18CHTO   N19 7230   6.870   7.847   1.230  0.1105  0.5001 -0.1007
   18CHTO  H207 7231   6.814   7.774   1.287  0.9429  0.4692  0.7005
   18CHTO  H208 7232   6.870   7.816   1.127 -0.9653 -2.6286  0.7764
   18CHTO   O74 7233   7.101   8.267   1.121  0.6894  0.1502  0.0867
   18CHTO  C115 7234   7.061   8.331   0.981  0.1141 -0.5305  0.1618
   18CHTO  H219 7235   6.989   8.273   0.925 -0.9721  1.9309 -1.0756
   18CHTO   O76 7236   6.985   8.463   1.002 -0.1326  0.3108  0.1606
   18CHTO  C122 7237   6.932   8.519   0.881 -0.2315  0.1965  0.3500
   18CHTO  H226 7238   6.899   8.618   0.910 -1.9972  0.3079 -1.8777
   18CHTO  C126 7239   6.802   8.446   0.824 -0.0623 -0.7126 -0.0165
   18CHTO   O85 7240   6.744   8.516   0.710  0.0550  0.5332  0.6704
   18CHTO  H206 7241   6.674   8.575   0.735  0.7814  0.8470  2.0119
   18CHTO  C121 7242   7.043   8.532   0.770  0.2604  0.4338 -0.4225
   18CHTO  H225 7243   6.991   8.539   0.672  0.2592 -3.2975 -0.7530
   18CHTO   O81 7244   7.106   8.662   0.773 -0.0121 -0.1434  0.5113
   18CHTO  H202 7245   7.041   8.719   0.737 -0.4963 -0.9292  0.1195
   18CHTO  C119 7246   7.141   8.413   0.759 -0.7533 -0.8497  0.3210
   18CHTO  H223 7247   7.081   8.336   0.709 -2.2166  0.1222  0.5696
   18CHTO  C117 7248   7.190   8.360   0.900 -0.0496  0.0418 -0.8523
   18CHTO  H221 7249   7.254   8.421   0.964  0.2196 -0.8416 -0.2686
   18CHTO   N20 7250   7.262   8.225   0.884 -0.4870 -0.0837  0.5803
   18CHTO  H209 7251   7.302   8.191   0.979  2.8315 -0.1599 -0.7424
   18CHTO  H210 7252   7.207   8.148   0.831  1.5039 -1.0848 -0.1151
   18CHTO   O80 7253   7.254   8.430   0.639  0.7064 -0.6047  0.4629
   18CHTO  C103 7254   7.243   8.356   0.504  0.0735  0.4750 -0.3147
   18CHTO  H190 7255   7.322   8.376   0.431  0.3014  2.1401  0.3824
   18CHTO  C101 7256   7.248   8.197   0.524  0.4403 -0.2058 -0.3424
   18CHTO  H188 7257   7.187   8.177   0.612 -1.3637 -0.1582 -1.5637
   18CHTO   O68 7258   7.411   8.147   0.570 -0.0184  0.4966  0.0045
   18CHTO  H168 7259   7.415   8.141   0.663 -0.2229 -1.7634 -0.1050
   18CHTO   C99 7260   7.200   8.118   0.397  0.5208 -0.5166 -0.0512
   18CHTO  H186 7261   7.273   8.140   0.315  0.7533 -2.1257 -0.2856
   18CHTO   N17 7262   7.201   7.966   0.405  0.6073  0.2076  0.0067
   18CHTO  H174 7263   7.184   7.941   0.509 -1.3906 -0.0427 -0.3584
   18CHTO  H175 7264   7.295   7.920   0.379  0.4360 -0.9004  1.2752
   18CHTO   C97 7265   7.064   8.169   0.352  0.7428  0.1334  0.5300
   18CHTO  H184 7266   7.000   8.155   0.440  0.0684 -0.5117 -0.0564
   18CHTO   O64 7267   7.085   8.310   0.324  0.6787  0.0055 -0.2667
   18CHTO  C104 7268   7.107   8.400   0.434  0.5620  0.4353  0.1898
   18CHTO  H191 7269   7.023   8.396   0.504 -0.6581 -2.8379 -1.3346
   18CHTO  C108 7270   7.130   8.544   0.387 -0.2866  0.6467  0.6435
   18CHTO   O71 7271   7.012   8.590   0.316 -0.4413  0.1006 -0.0726
   18CHTO  H171 7272   6.937   8.565   0.366 -0.4701  0.5337  0.1025
   18CHTO   O62 7273   7.010   8.111   0.230  0.7519  0.3508 -0.1308
   18CHTO   C91 7274   6.863   8.102   0.228 -0.0713  0.6438  0.3145
   18CHTO  H178 7275   6.823   8.136   0.323 -0.9012  0.2905  0.0898
   18CHTO   C92 7276   6.812   7.954   0.211 -0.0022  0.0943 -0.0040
   18CHTO  H179 7277   6.831   7.931   0.105 -0.9630 -0.8780  0.0250
   18CHTO   O66 7278   6.885   7.864   0.296  0.4648  0.1986  1.1616
   18CHTO  H166 7279   6.977   7.861   0.276  0.5421  1.5753  1.2889
   18CHTO   C93 7280   6.659   7.954   0.233  0.0858  0.1838  0.1325
   18CHTO  H180 7281   6.655   7.985   0.339 -0.2790 -0.4242  0.3017
   18CHTO   N16 7282   6.599   7.810   0.219 -0.1677 -0.5436  0.0213
   18CHTO  H172 7283   6.519   7.818   0.147  0.1678  0.1405 -0.2814
   18CHTO  H173 7284   6.538   7.794   0.307  1.8971  0.6956  1.7257
   18CHTO   C94 7285   6.586   8.057   0.136  0.5049  0.6324  0.6295
   18CHTO  H181 7286   6.585   8.019   0.034 -2.2463 -1.8382  1.5104
   18CHTO   O61 7287   6.655   8.187   0.137 -0.4614  0.2816 -0.4700
   18CHTO   C95 7288   6.798   8.191   0.115  0.6813  0.0453  0.2459
   18CHTO  H182 7289   6.813   8.156   0.013 -1.1987  1.7358 -0.6463
   18CHTO  C106 7290   6.836   8.339   0.127  0.0459 -0.1160  0.1162
   18CHTO   O69 7291   6.822   8.415   0.250 -0.0429  0.1226  0.0246
   18CHTO  H169 7292   6.862   8.381   0.327 -1.1652  0.5884  0.8102
   18CHTO   O63 7293   6.442   8.087   0.194  0.0399  0.0615 -0.0422
   18CHTO   C96 7294   6.401   8.245   0.171 -0.0967  0.1856 -0.1055
   18CHTO  H183 7295   6.464   8.300   0.101 -0.4638  0.1585 -0.4578
   18CHTO   C98 7296   6.402   8.325   0.309  0.3773  1.0939  0.1970
   18CHTO  H185 7297   6.338   8.270   0.379 -0.2095  0.3148 -0.9401
   18CHTO   O67 7298   6.532   8.332   0.370  0.2838 -0.2622 -0.3991
   18CHTO  H167 7299   6.580   8.411   0.353  1.3794 -0.4538  1.6395
   18CHTO  C102 7300   6.338   8.475   0.295  0.6391 -0.7127 -0.4094
   18CHTO  H189 7301   6.417   8.539   0.252  0.7692  0.1849  1.1344
   18CHTO   N18 7302   6.297   8.535   0.425 -0.7928 -0.2478 -0.0761
   18CHTO  H176 7303   6.357   8.622   0.446 -1.1970  0.4395 -1.7529
   18CHTO  H177 7304   6.299   8.459   0.502 -0.1109  0.0155  0.1708
   18CHTO  C105 7305   6.217   8.478   0.191  0.4216  0.9276 -0.1872
   18CHTO  H192 7306   6.127   8.450   0.247  1.6397  1.4386  2.0852
   18CHTO   O65 7307   6.229   8.390   0.081  0.6784 -0.4174 -0.2605
   18CHTO  C100 7308   6.257   8.257   0.111  0.5271 -0.1793 -0.2578
   18CHTO  H187 7309   6.182   8.222   0.184 -0.6261  1.5447 -0.5954
   18CHTO  C107 7310   6.233   8.174  -0.019 -0.0887 -0.6870  0.1264
   18CHTO   O70 7311   6.098   8.163  -0.070  0.1508 -0.2032  0.6985
   18CHTO  H170 7312   6.030   8.177  -0.007  0.5387 -1.1975  1.3384
   18CHTO   O57 7313   6.218   8.635   0.143  0.4237 -0.4473 -0.2832
   18CHTO   C85 7314   6.102   8.696   0.083  0.2777  0.3447  0.2003
   18CHTO  H157 7315   6.142   8.792   0.044  0.9257 -0.4768 -1.2118
   18CHTO   C83 7316   6.010   8.741   0.196  0.4194  0.1769  0.1433
   18CHTO  H155 7317   6.061   8.803   0.269  1.9422 -0.9631  0.0810
   18CHTO   O56 7318   5.972   8.629   0.280  0.1059  0.3294 -0.4991
   18CHTO  H135 7319   5.894   8.651   0.327 -1.8341 -3.0871 -1.9590
   18CHTO   C81 7320   5.882   8.817   0.141  1.1263 -0.2475  0.2242
   18CHTO  H153 7321   5.921   8.906   0.090 -0.8118  0.2229 -0.5007
   18CHTO   N14 7322   5.807   8.880   0.251  0.4301 -0.9626  0.1802
   18CHTO  H141 7323   5.710   8.911   0.217  1.1930 -1.4176 -2.5107
   18CHTO  H142 7324   5.797   8.812   0.333  1.8426 -3.0417 -1.3290
   18CHTO   C79 7325   5.812   8.735   0.036  0.0840  0.0148  0.1775
   18CHTO  H151 7326   5.747   8.805  -0.018  0.2988 -0.2885 -0.4782
   18CHTO   O52 7327   5.905   8.695  -0.065  0.6310  0.3741 -0.5116
   18CHTO   C86 7328   6.024   8.623  -0.031  0.3596 -0.8891  0.1074
   18CHTO  H158 7329   5.990   8.525   0.009  1.2678 -1.3295 -0.1874
   18CHTO   C90 7330   6.108   8.593  -0.154  0.4621 -0.3394  0.2437
   18CHTO   O60 7331   6.167   8.712  -0.212 -0.3197 -0.1253  0.0199
   18CHTO  H138 7332   6.252   8.732  -0.177  0.8581 -1.6707 -1.8829
   18CHTO   O50 7333   5.750   8.609   0.078  0.0934  0.3758 -0.3070
   18CHTO   C73 7334   5.650   8.512   0.052 -0.1026  0.3014 -0.3501
   18CHTO  H145 7335   5.667   8.451  -0.038 -0.2878 -1.0566  0.5059
   18CHTO   C74 7336   5.511   8.590   0.039  0.3257 -1.3153  0.3800
   18CHTO  H146 7337   5.518   8.667  -0.039 -1.1419 -2.1880 -0.6214
   18CHTO   O54 7338   5.417   8.489  -0.002 -0.3947 -0.0420 -0.0210
   18CHTO  H133 7339   5.334   8.530  -0.017 -0.9962 -0.0649  2.8329
   18CHTO   C75 7340   5.475   8.658   0.182  0.8005 -0.7372 -0.4990
   18CHTO  H147 7341   5.547   8.740   0.196  0.3182 -0.3852 -0.0885
   18CHTO   N13 7342   5.340   8.727   0.187 -0.7046 -0.2235 -0.1761
   18CHTO  H139 7343   5.319   8.756   0.085 -0.2403  0.3843 -0.0972
   18CHTO  H140 7344   5.341   8.818   0.244  0.3697  0.2655 -0.9582
   18CHTO   C76 7345   5.480   8.549   0.300  0.0485 -0.0907  0.5566
   18CHTO  H148 7346   5.400   8.475   0.293  0.5569 -0.6836  0.9524
   18CHTO   O49 7347   5.609   8.485   0.298  0.3191 -0.3298  0.2894
   18CHTO   C77 7348   5.641   8.418   0.177  0.1752 -0.3067 -0.0321
   18CHTO  H149 7349   5.567   8.342   0.150  0.3574  0.1343 -1.8450
   18CHTO   C88 7350   5.772   8.330   0.184  0.1821  0.1509  0.3606
   18CHTO   O58 7351   5.803   8.250   0.069 -0.4282  0.3950 -0.6348
   18CHTO  H136 7352   5.769   8.289  -0.010  0.7552 -0.0150 -1.3564
   18CHTO   O51 7353   5.462   8.628   0.441  0.5031 -0.7502  0.0868
   18CHTO   C78 7354   5.477   8.558   0.569 -0.0742  0.1719 -0.6031
   18CHTO  H150 7355   5.489   8.449   0.549  1.3213  0.0484  0.8331
   18CHTO   C80 7356   5.345   8.575   0.652  0.5212  0.5427  0.1312
   18CHTO  H152 7357   5.315   8.681   0.646 -1.0875  0.0989 -0.0653
   18CHTO   O55 7358   5.235   8.504   0.595  0.4969 -0.1912  0.4976
   18CHTO  H134 7359   5.159   8.503   0.650  0.1296 -2.2734  0.0006
   18CHTO   C84 7360   5.357   8.533   0.802 -1.5086  0.3801  0.3718
   18CHTO  H156 7361   5.388   8.429   0.811  0.4731  0.8914 -0.3896
   18CHTO   N15 7362   5.234   8.574   0.878 -0.0716  0.0399 -0.1779
   18CHTO  H143 7363   5.193   8.490   0.931 -1.0326 -0.1921 -1.2704
   18CHTO  H144 7364   5.158   8.626   0.824 -0.1732  0.2569  0.1659
   18CHTO   C87 7365   5.480   8.604   0.860  0.5340 -0.1897 -0.4970
   18CHTO  H159 7366   5.461   8.711   0.867  0.9509 -0.2273  1.8073
   18CHTO   O53 7367   5.600   8.558   0.775  0.2136  0.2978  0.3969
   18CHTO   C82 7368   5.598   8.623   0.642 -0.5829  0.0815  0.5856
   18CHTO  H154 7369   5.589   8.732   0.647  0.0525  0.3869 -3.4390
   18CHTO   C89 7370   5.739   8.590   0.580  0.3517 -0.6384  0.4133
   18CHTO   O59 7371   5.767   8.450   0.570 -0.0978  0.4112  0.0280
   18CHTO  H137 7372   5.792   8.442   0.480  3.8228  1.6715  0.8862
   18CHTO   O45 7373   5.508   8.560   1.019 -0.2072 -0.6497  0.0681
   18CHTO   C67 7374   5.645   8.569   1.062  0.8079  0.5783 -1.0704
   18CHTO  H124 7375   5.705   8.540   0.976 -0.2390 -2.4470 -0.8410
   18CHTO   C65 7376   5.669   8.716   1.099  0.4499 -0.5490 -0.1886
   18CHTO  H122 7377   5.576   8.752   1.143  1.1608 -0.6628  1.4435
   18CHTO   O44 7378   5.696   8.796   0.978  0.1357  0.2322  0.0695
   18CHTO  H102 7379   5.634   8.779   0.910  0.5814  0.7489 -0.4718
   18CHTO   C63 7380   5.769   8.731   1.221  0.4868  0.1023  0.5578
   18CHTO  H120 7381   5.710   8.698   1.306 -1.5805 -2.6992 -1.8836
   18CHTO   N11 7382   5.821   8.866   1.259  0.3924 -0.8360 -0.1197
   18CHTO  H108 7383   5.916   8.886   1.214  0.2087  1.4012  0.3989
   18CHTO  H109 7384   5.824   8.869   1.366 -0.4221  0.3967 -0.1216
   18CHTO   C61 7385   5.886   8.626   1.211 -0.1767 -0.0599 -0.1669
   18CHTO  H118 7386   5.940   8.620   1.306 -0.7036 -0.9739  0.0779
   18CHTO   O40 7387   5.839   8.492   1.181 -0.7764 -0.1636 -0.0922
   18CHTO   C68 7388   5.697   8.470   1.179 -0.1692  0.2063  0.5988
   18CHTO  H125 7389   5.651   8.489   1.278  0.0059  3.8811  0.0407
   18CHTO   C72 7390   5.672   8.325   1.139 -0.0482  0.2709  0.6504
   18CHTO   O48 7391   5.704   8.225   1.238  0.1535  0.1260 -0.0801
   18CHTO  H105 7392   5.672   8.145   1.202  1.2781 -1.7869  2.9802
   18CHTO   O38 7393   5.971   8.660   1.102 -0.0586 -0.2972  0.5692
   18CHTO   C55 7394   6.096   8.591   1.095  0.2190  0.8792  0.5547
   18CHTO  H112 7395   6.084   8.498   1.153  1.7682 -0.6427 -1.4841
   18CHTO   C56 7396   6.209   8.684   1.153 -0.1474 -0.0315  0.0407
   18CHTO  H113 7397   6.204   8.778   1.096 -1.3560 -0.5015 -0.6466
   18CHTO   O42 7398   6.176   8.719   1.290  0.5651 -0.0769 -0.2235
   18CHTO  H100 7399   6.089   8.747   1.312  1.0177  0.9093  0.3080
   18CHTO   C57 7400   6.351   8.615   1.138  0.3000  0.4893 -0.7331
   18CHTO  H114 7401   6.350   8.549   1.225 -0.4507  2.4687  0.7897
   18CHTO   N10 7402   6.467   8.711   1.155 -0.0464 -0.1446  0.1859
   18CHTO  H106 7403   6.553   8.681   1.097  0.7656  2.4413  0.0291
   18CHTO  H107 7404   6.434   8.809   1.123  0.2725 -0.6368 -1.7258
   18CHTO   C58 7405   6.376   8.541   1.008 -0.0591 -0.1002  0.6813
   18CHTO  H115 7406   6.406   8.609   0.926  0.2962 -1.5035 -0.3857
   18CHTO   O37 7407   6.261   8.466   0.965 -0.1079 -0.1821  0.3197
   18CHTO   C59 7408   6.141   8.547   0.955  0.4234 -0.5317  1.0356
   18CHTO  H116 7409   6.161   8.638   0.899 -0.3174  0.7202  2.7737
   18CHTO   C70 7410   6.044   8.458   0.879  0.0001 -0.1631  0.3101
   18CHTO   O46 7411   5.981   8.353   0.959 -0.6784 -0.2526  0.2702
   18CHTO  H103 7412   5.909   8.386   1.010 -0.9139 -3.0174  1.7862
   18CHTO   O39 7413   6.489   8.413   1.031  0.0619 -0.1896  0.1133
   18CHTO   C60 7414   6.437   8.309   1.117  0.3884  0.9769 -0.3924
   18CHTO  H117 7415   6.353   8.346   1.176  1.9865  2.5600  0.9509
   18CHTO   C62 7416   6.387   8.179   1.032 -0.6945 -0.2917  0.9146
   18CHTO  H119 7417   6.329   8.232   0.953  1.3019  2.7644  1.3674
   18CHTO   O43 7418   6.494   8.111   0.955  0.3027  0.3356  0.5696
   18CHTO  H101 7419   6.548   8.176   0.915 -0.7883 -0.4451 -2.2628
   18CHTO   C66 7420   6.311   8.090   1.134  0.2085  0.3175 -0.3914
   18CHTO  H123 7421   6.245   8.159   1.187 -1.3096 -0.1035 -1.7115
   18CHTO   N12 7422   6.232   7.985   1.069  0.1545 -0.0888 -0.0659
   18CHTO  H110 7423   6.173   7.927   1.139 -0.4280 -0.9664 -1.2694
   18CHTO  H111 7424   6.301   7.926   1.010  0.5445 -1.5277  1.7809
   18CHTO   C69 7425   6.413   8.035   1.233  0.2836 -0.1083  0.6239
   18CHTO  H126 7426   6.484   7.967   1.182 -1.5487 -1.4248 -0.2449
   18CHTO   O41 7427   6.493   8.154   1.310 -0.2316 -0.5620  0.6921
   18CHTO   C64 7428   6.547   8.273   1.218  0.0813  0.0374  0.4389
   18CHTO  H121 7429   6.639   8.250   1.161 -0.4787  2.0117 -1.3315
   18CHTO   C71 7430   6.593   8.394   1.307  0.1206  0.3233  0.2815
   18CHTO   O47 7431   6.676   8.362   1.415  0.7759  0.1716 -0.0456
   18CHTO  H104 7432   6.749   8.316   1.381  0.3306 -1.3673  1.0396
   18CHTO   O34 7433   6.345   7.946   1.342  0.4486  0.3182  0.2275
   18CHTO   C49 7434   6.309   7.957   1.492  0.2221 -0.0023 -0.3099
   18CHTO   H91 7435   6.380   7.903   1.554  0.8504 -0.7897 -1.6784
   18CHTO   C47 7436   6.167   7.897   1.514  0.0668  0.1053 -0.6663
   18CHTO   H89 7437   6.141   7.921   1.619 -0.7952 -2.4618 -0.2475
   18CHTO   O33 7438   6.167   7.751   1.497  0.2756  0.6277 -0.0587
   18CHTO   H70 7439   6.142   7.736   1.408  0.0638 -0.5200  0.1813
   18CHTO   C45 7440   6.059   7.981   1.419 -0.2993 -0.0061 -0.0831
   18CHTO   H87 7441   6.105   7.987   1.319  0.2227 -1.6277  0.0533
   18CHTO    N8 7442   5.927   7.920   1.407  0.5431  0.0242  0.6482
   18CHTO   H75 7443   5.897   7.908   1.304  0.8440  0.5843  0.4913
   18CHTO   H76 7444   5.849   7.974   1.459  2.2256  2.2961  0.9249
   18CHTO   C43 7445   6.057   8.132   1.464  0.2935 -0.2464  0.1844
   18CHTO   H85 7446   5.998   8.186   1.390 -1.2156  0.6789  2.0104
   18CHTO   O29 7447   6.189   8.181   1.472 -0.1073  0.5248 -0.0876
   18CHTO   C50 7448   6.295   8.107   1.538  0.3727 -0.4875  1.2729
   18CHTO   H92 7449   6.392   8.152   1.514  1.3991 -2.0500  2.3589
   18CHTO   C54 7450   6.288   8.129   1.690 -0.5848  0.1566  0.1077
   18CHTO   O36 7451   6.400   8.066   1.754 -0.5816 -0.5363  0.2733
   18CHTO   H72 7452   6.400   8.084   1.846  2.1041 -0.8213  0.3544
   18CHTO   O27 7453   5.992   8.140   1.596 -0.2700  0.0586  0.7534
   18CHTO   C37 7454   5.904   8.234   1.655 -0.1702  0.0185 -0.3631
   18CHTO   H79 7455   5.927   8.248   1.762 -1.3892 -0.9220  0.0408
   18CHTO   C38 7456   5.921   8.383   1.597 -0.4039  0.3712 -0.5357
   18CHTO   H80 7457   5.908   8.369   1.488  2.3802 -1.9433 -0.6370
   18CHTO   O31 7458   6.053   8.419   1.633 -0.2954 -0.5488  0.6929
   18CHTO   H68 7459   6.113   8.371   1.579 -1.0341 -0.7521  0.0370
   18CHTO   C39 7460   5.818   8.485   1.652  0.3207 -0.4150  0.1727
   18CHTO   H81 7461   5.839   8.506   1.757  0.3903  2.2025 -0.3293
   18CHTO    N7 7462   5.822   8.621   1.577 -0.1674 -0.2243  0.4230
   18CHTO   H73 7463   5.804   8.702   1.647  0.1565 -0.8367  1.2245
   18CHTO   H74 7464   5.760   8.633   1.490 -1.2852  1.6496  1.4439
   18CHTO   C40 7465   5.673   8.433   1.655  0.0551 -0.1751  0.0058
   18CHTO   H82 7466   5.643   8.434   1.550  3.8007 -1.7349 -1.1658
   18CHTO   O26 7467   5.670   8.301   1.713 -0.0065 -0.1576  0.1784
   18CHTO   C41 7468   5.754   8.200   1.649  0.1046 -0.5246  0.3196
   18CHTO   H83 7469   5.734   8.188   1.541 -0.6454  2.9065  0.0347
   18CHTO   C52 7470   5.736   8.067   1.728  0.4669 -0.3495 -0.7304
   18CHTO   O35 7471   5.613   8.005   1.689  0.4073 -0.1420 -0.1166
   18CHTO   H71 7472   5.613   7.914   1.709  1.7858  0.2591  1.8186
   18CHTO   O28 7473   5.590   8.511   1.735 -0.1545 -0.2134  0.1566
   18CHTO   C42 7474   5.447   8.509   1.747 -0.4707  0.5034  0.4524
   18CHTO   H84 7475   5.413   8.594   1.806  1.4967  0.2978  1.9311
   18CHTO   C44 7476   5.402   8.388   1.831 -0.7194  0.2933  0.0190
   18CHTO   H86 7477   5.442   8.298   1.784  1.6971 -0.0074  2.5685
   18CHTO   O32 7478   5.469   8.403   1.967 -0.0292  0.5619  0.7676
   18CHTO   H69 7479   5.416   8.440   2.034 -0.8821 -0.1120  0.4777
   18CHTO   C48 7480   5.246   8.380   1.853  0.9638  0.2784  0.6528
   18CHTO   H90 7481   5.206   8.467   1.906  0.5687 -0.4922  1.6290
   18CHTO    N9 7482   5.203   8.260   1.926 -0.0909 -0.1618  0.1957
   18CHTO   H77 7483   5.190   8.178   1.856 -0.5554 -0.0820  0.1894
   18CHTO   H78 7484   5.108   8.283   1.971  0.1275  1.4702 -0.1437
   18CHTO   C51 7485   5.181   8.374   1.710 -0.2935  1.3085 -0.0353
   18CHTO   H93 7486   5.206   8.288   1.648 -0.2528  1.9010 -0.8505
   18CHTO   O30 7487   5.218   8.496   1.646 -0.5005 -0.2310 -0.1770
   18CHTO   C46 7488   5.362   8.504   1.612 -0.0938 -1.1406 -0.1793
   18CHTO   H88 7489   5.388   8.415   1.556 -0.2019 -1.7114  0.6698
   18CHTO   C53 7490   5.404   8.632   1.534  0.1851 -0.2233 -0.4742
   18CHTO   O72 7491   5.343   8.627   1.407  0.5671 -0.4924  0.0717
   18CHTO  H199 7492   5.414   8.636   1.347  1.3360  1.6662  1.2243
   18CHTO   O22 7493   5.040   8.386   1.717  0.4170  0.1185  0.2353
   18CHTO   C31 7494   4.948   8.394   1.598 -1.2078  0.2459  0.1460
   18CHTO   H59 7495   4.850   8.421   1.643 -1.3784 -1.6535  0.9816
   18CHTO   C29 7496   4.977   8.492   1.480 -0.3996 -0.2107  0.1947
   18CHTO   H57 7497   5.080   8.492   1.444  0.2741 -2.4658  2.0033
   18CHTO   O21 7498   4.962   8.626   1.535  0.0493 -0.6660  0.1998
   18CHTO   H37 7499   5.027   8.644   1.601  0.9193 -0.7094 -0.6204
   18CHTO   C27 7500   4.883   8.480   1.355  0.0094  0.5559 -0.3138
   18CHTO   H55 7501   4.778   8.491   1.388  0.5035 -0.4269  1.6681
   18CHTO    N5 7502   4.915   8.578   1.245 -0.0406  0.1315  0.3874
   18CHTO   H43 7503   4.848   8.565   1.162 -0.6097 -1.8178  1.1394
   18CHTO   H44 7504   4.896   8.679   1.279  2.0707  1.0641 -1.0727
   18CHTO   C25 7505   4.885   8.336   1.306  0.1012  0.0220 -0.7609
   18CHTO   H53 7506   4.988   8.321   1.272 -0.1445 -0.1744 -1.4189
   18CHTO   O17 7507   4.849   8.246   1.414  0.2632  0.0072 -0.7293
   18CHTO   C32 7508   4.927   8.249   1.539 -0.0711 -0.1435  0.5826
   18CHTO   H60 7509   5.027   8.209   1.521  0.1284  0.4704  0.2863
   18CHTO   C36 7510   4.849   8.156   1.636 -0.0602 -0.3449 -0.2119
   18CHTO   O25 7511   4.709   8.196   1.644 -0.0903 -0.0063 -0.0212
   18CHTO   H40 7512   4.662   8.163   1.719  0.5154 -0.4567  0.1622
   18CHTO   O15 7513   4.787   8.304   1.181  0.9578 -0.5182  0.5029
   18CHTO   C19 7514   4.820   8.251   1.050 -0.0610 -0.5931 -0.4031
   18CHTO   H47 7515   4.730   8.187   1.043  0.1039 -1.2514  2.9455
   18CHTO   C20 7516   4.822   8.367   0.937  0.5703  0.6211  0.7237
   18CHTO   H48 7517   4.884   8.454   0.963  0.8588  1.0042 -1.1444
   18CHTO   O19 7518   4.689   8.424   0.917 -0.3084  0.3295  0.3978
   18CHTO   H35 7519   4.673   8.467   0.835 -2.6119 -1.5498 -0.1711
   18CHTO   C21 7520   4.875   8.317   0.791  0.1069  0.5481 -0.6956
   18CHTO   H49 7521   4.795   8.255   0.753  0.0780 -0.5850  1.1433
   18CHTO    N4 7522   4.898   8.423   0.697 -0.4731  0.4818  0.6365
   18CHTO   H41 7523   4.803   8.455   0.656  0.7537  1.4679 -1.5249
   18CHTO   H42 7524   4.944   8.509   0.744  0.6163  0.9137 -1.1670
   18CHTO   C22 7525   4.994   8.223   0.813 -0.1513  0.4826 -0.2727
   18CHTO   H50 7526   5.074   8.286   0.852  1.7542 -2.1769  0.2688
   18CHTO   O14 7527   4.965   8.118   0.904  0.0042  0.9645 -0.2097
   18CHTO   C23 7528   4.944   8.160   1.036 -0.4434 -0.2817 -0.4006
   18CHTO   H51 7529   5.039   8.214   1.052 -0.0153 -0.5939 -1.8099
   18CHTO   C34 7530   4.928   8.034   1.116  0.1096  0.1281 -1.0057
   18CHTO   O23 7531   5.054   7.962   1.127  0.2334 -0.0445 -0.0655
   18CHTO   H38 7532   5.074   7.930   1.041  0.4223  1.5588 -0.6495
   18CHTO   O16 7533   5.042   8.169   0.688 -0.1319 -0.3010  0.2841
   18CHTO   C24 7534   5.207   8.186   0.666 -0.3599 -0.0781 -0.0344
   18CHTO   H52 7535   5.245   8.283   0.698 -1.8045 -0.2156  2.1820
   18CHTO   C26 7536   5.230   8.176   0.521  0.3696  0.4368  0.6017
   18CHTO   H54 7537   5.197   8.075   0.489  3.3526 -0.1237 -0.8278
   18CHTO   O20 7538   5.159   8.281   0.454  0.1226 -0.2323  0.3817
   18CHTO   H36 7539   5.197   8.365   0.475 -1.1443  0.5199 -0.2650
   18CHTO   C30 7540   5.385   8.166   0.488  0.2501  0.5681  0.5856
   18CHTO   H58 7541   5.439   8.258   0.513 -0.4243  0.2102  3.5116
   18CHTO    N6 7542   5.408   8.146   0.342 -0.1761 -0.1679 -0.9913
   18CHTO   H45 7543   5.437   8.045   0.316  3.3976 -0.0901  2.2634
   18CHTO   H46 7544   5.332   8.181   0.274 -0.3697  0.6915 -0.3405
   18CHTO   C33 7545   5.455   8.058   0.575 -0.6282 -0.4243  0.0059
   18CHTO   H61 7546   5.415   7.960   0.543 -0.6985  0.0437 -1.3603
   18CHTO   O18 7547   5.426   8.079   0.716 -0.0523 -0.0904 -0.2650
   18CHTO   C28 7548   5.287   8.078   0.748 -0.7504  0.2315 -0.0116
   18CHTO   H56 7549   5.240   7.983   0.726 -0.3518  0.1589 -0.5540
   18CHTO   C35 7550   5.284   8.094   0.907  0.4581  0.4598  0.3096
   18CHTO   O24 7551   5.358   8.003   0.985  0.0600  0.2797  0.2301
   18CHTO   H39 7552   5.309   7.923   0.988 -0.7965  0.8270  1.6255
   18CHTO    O9 7553   5.599   8.058   0.556 -0.4718 -0.0530 -0.2057
   18CHTO   C13 7554   5.672   7.929   0.616  0.5592 -0.6597 -0.0029
   18CHTO   H26 7555   5.596   7.850   0.629 -0.5812  0.6924  1.8886
   18CHTO   C11 7556   5.745   7.966   0.756  0.6969 -0.2328 -0.3576
   18CHTO   H24 7557   5.676   7.982   0.841 -0.1472 -1.3455 -0.8149
   18CHTO    O8 7558   5.811   8.093   0.738  0.0601 -0.1717 -0.4648
   18CHTO    H3 7559   5.885   8.080   0.682  0.7168  1.5830 -0.0403
   18CHTO    C9 7560   5.833   7.843   0.796 -0.1465 -0.8713 -0.0310
   18CHTO   H22 7561   5.761   7.764   0.821 -0.3331 -0.6339  0.1933
   18CHTO    N2 7562   5.898   7.870   0.926  0.8216 -0.0223  0.1205
   18CHTO   H10 7563   5.977   7.798   0.942 -0.9191 -1.5400  2.1670
   18CHTO   H11 7564   5.826   7.867   1.006 -1.3836  1.8903 -1.7427
   18CHTO    C7 7565   5.932   7.799   0.674 -0.0327  0.0048  0.3346
   18CHTO   H20 7566   5.970   7.701   0.712  1.5135  1.3651  2.4511
   18CHTO    O4 7567   5.869   7.785   0.543 -0.1618 -0.0716 -0.4271
   18CHTO   C14 7568   5.764   7.876   0.499 -0.2773  0.5521  0.9997
   18CHTO   H27 7569   5.696   7.832   0.423  1.7672  1.3057 -1.3385
   18CHTO   C18 7570   5.839   7.989   0.415  0.5299  0.3938 -0.2201
   18CHTO   O13 7571   5.893   7.942   0.295 -0.4855  0.2006  0.3294
   18CHTO    H7 7572   5.932   8.017   0.254 -0.1924 -0.2415 -0.2068
   18CHTO    O2 7573   6.052   7.904   0.658 -0.1299  0.4112  0.0479
   18CHTO    C1 7574   6.172   7.885   0.584  0.3017  0.3994  0.5049
   18CHTO   H14 7575   6.149   7.912   0.479 -1.7932 -2.1162  0.2863
   18CHTO    C2 7576   6.216   7.734   0.579  0.2288  0.1709 -0.2421
   18CHTO   H15 7577   6.218   7.703   0.684  0.3822  1.6577  0.2047
   18CHTO    O6 7578   6.121   7.665   0.494  0.4801  0.2596  0.1104
   18CHTO    H1 7579   6.041   7.642   0.536  1.0021 -2.1199 -0.1684
   18CHTO    C3 7580   6.365   7.729   0.525  0.8061 -0.1447  0.5975
   18CHTO   H16 7581   6.356   7.767   0.422 -0.3605 -2.9243 -0.3814
   18CHTO    N1 7582   6.420   7.588   0.520  0.0365 -0.3047  0.4932
   18CHTO    H8 7583   6.521   7.598   0.483 -1.2031  0.3624 -2.9533
   18CHTO    H9 7584   6.426   7.545   0.619  1.3836 -0.4363  0.3699
   18CHTO    C4 7585   6.459   7.824   0.606 -0.1477 -0.1661  0.2526
   18CHTO   H17 7586   6.457   7.798   0.712  2.0610  0.6981  0.5240
   18CHTO    O1 7587   6.407   7.953   0.592  0.1043 -0.2150  0.0798
   18CHTO    C5 7588   6.277   7.984   0.635 -0.4242  0.2218  0.3189
   18CHTO   H18 7589   6.278   7.979   0.744  1.2800  0.9118  0.3554
   18CHTO   C16 7590   6.247   8.136   0.602 -0.3570  0.0182 -0.3692
   18CHTO   O11 7591   6.347   8.228   0.657  0.0003 -0.7295  0.3727
   18CHTO    H5 7592   6.299   8.308   0.665 -0.1346 -0.6382 -1.1751
   18CHTO    O3 7593   6.589   7.838   0.556  0.5084 -0.4991  0.1396
   18CHTO    C6 7594   6.697   7.838   0.647 -0.7960 -0.2779 -0.5870
   18CHTO   H19 7595   6.657   7.843   0.748 -0.5101  0.0709 -0.4913
   18CHTO    C8 7596   6.794   7.708   0.635  0.2896  0.7941 -0.2716
   18CHTO   H21 7597   6.824   7.697   0.530 -0.5356 -2.2332 -0.2185
   18CHTO    O7 7598   6.717   7.593   0.666  0.6266 -0.4113 -0.7438
   18CHTO    H2 7599   6.710   7.534   0.593  1.0088  1.7014 -2.5554
   18CHTO   C12 7600   6.907   7.716   0.742 -0.0922 -0.2277 -0.1659
   18CHTO   H25 7601   6.851   7.740   0.836 -2.0676  0.5226 -1.5067
   18CHTO    N3 7602   6.985   7.595   0.774 -0.0357 -0.3982  0.1421
   18CHTO   H12 7603   6.913   7.518   0.800  0.0046  0.1420  1.8816
   18CHTO   H13 7604   7.059   7.596   0.853  0.8180 -1.3251 -0.6302
   18CHTO   C15 7605   6.991   7.850   0.703 -0.1082  0.3285 -0.2243
   18CHTO   H28 7606   7.049   7.835   0.612 -0.5909  2.2358 -0.8774
   18CHTO   O10 7607   7.095   7.890   0.783 -0.6708  0.1521  0.3609
   18CHTO    H4 7608   7.155   7.950   0.744 -0.0534 -1.2949 -0.9902
   18CHTO    O5 7609   6.902   7.962   0.704  0.4593  0.0300  0.0271
   18CHTO   C10 7610   6.780   7.967   0.622  0.1528  0.2289 -0.3138
   18CHTO   H23 7611   6.820   7.976   0.521  1.4001 -2.1039 -0.0587
   18CHTO   C17 7612   6.706   8.093   0.663  0.4808  0.4146 -0.3375
   18CHTO   O12 7613   6.602   8.129   0.572  0.1119 -0.5769 -0.3802
   18CHTO    H6 7614   6.522   8.083   0.591  0.1056 -0.6279 -0.5301
   19CHTO  H203 7615   5.210   9.530   2.321  0.3967  0.8333  0.5068
   19CHTO   O82 7616   5.292   9.487   2.312  0.1462  0.3951  0.3189
   19CHTO  C123 7617   5.269   9.354   2.280 -0.1789 -0.1993 -0.4026
   19CHTO  H227 7618   5.193   9.355   2.200 -0.0128 -0.2975 -0.5616
   19CHTO   O77 7619   5.395   9.308   2.235 -0.2033  0.3956 -0.3969
   19CHTO  C118 7620   5.406   9.188   2.160 -0.3344 -0.6156  0.1563
   19CHTO  H222 7621   5.331   9.201   2.081  0.4540  2.3852 -0.1626
   19CHTO  C125 7622   5.552   9.172   2.094 -0.3160 -0.4153 -0.4971
   19CHTO   O84 7623   5.651   9.161   2.195 -0.4577 -0.1717 -0.4508
   19CHTO  H205 7624   5.680   9.072   2.197  2.8938  0.8199 -1.0581
   19CHTO  C114 7625   5.371   9.081   2.262  0.2661 -0.1761  0.7946
   19CHTO  H218 7626   5.448   9.076   2.339  1.5382  0.4987 -0.4211
   19CHTO  C116 7627   5.241   9.112   2.342 -0.1608  0.5534 -0.0546
   19CHTO  H220 7628   5.156   9.094   2.272  1.3930  0.4055 -1.9624
   19CHTO   O79 7629   5.232   9.010   2.450  0.0607  0.2105 -0.1025
   19CHTO  H201 7630   5.308   9.002   2.504  0.6785 -0.1543 -1.0081
   19CHTO  C120 7631   5.233   9.259   2.405 -0.4458  0.3413  0.4372
   19CHTO  H224 7632   5.311   9.267   2.483 -0.6903  2.6543  0.4788
   19CHTO   N21 7633   5.102   9.299   2.454  0.5609 -0.2200  0.6311
   19CHTO  H211 7634   5.117   9.367   2.537  1.5938 -2.1265  2.0627
   19CHTO  H212 7635   5.044   9.210   2.476  0.2032 -1.0337 -3.2777
   19CHTO   O75 7636   5.364   8.964   2.184 -1.1808  0.1719 -0.4760
   19CHTO  C112 7637   5.434   8.844   2.265 -0.8069  0.1681  0.3158
   19CHTO  H216 7638   5.416   8.848   2.374  4.4155 -0.6761  1.3219
   19CHTO   O73 7639   5.575   8.847   2.236  0.7245  0.3391  0.2557
   19CHTO  C113 7640   5.667   8.755   2.304  0.0313 -0.2423  0.0284
   19CHTO  H217 7641   5.649   8.764   2.414 -0.1778  0.6264 -0.0722
   19CHTO  C124 7642   5.813   8.784   2.265 -0.1624  0.2771 -0.6827
   19CHTO   O83 7643   5.845   8.920   2.292 -0.4180 -0.5132 -0.4829
   19CHTO  H204 7644   5.910   8.943   2.230 -0.4344 -0.8920 -0.6416
   19CHTO  C109 7645   5.626   8.620   2.263  0.3055  0.5018 -0.3514
   19CHTO  H213 7646   5.637   8.620   2.154  1.3689  0.9704 -0.2555
   19CHTO  C110 7647   5.473   8.598   2.293  0.3743  0.0156  0.4285
   19CHTO  H214 7648   5.466   8.600   2.401  1.6419  0.0424  0.5263
   19CHTO   O78 7649   5.429   8.470   2.239  0.4098 -0.9211  0.0698
   19CHTO  H200 7650   5.355   8.435   2.285  0.5161 -1.3280 -0.0710
   19CHTO  C111 7651   5.383   8.703   2.228  0.6485 -0.4809  0.3274
   19CHTO  H215 7652   5.400   8.698   2.120  2.4676 -0.2274  0.5900
   19CHTO   N19 7653   5.237   8.685   2.256 -0.3342  0.6572  0.3342
   19CHTO  H207 7654   5.180   8.718   2.171  1.0465 -0.0305 -0.8775
   19CHTO  H208 7655   5.196   8.672   2.355 -0.9913 -0.0642 -0.0314
   19CHTO   O74 7656   5.717   8.522   2.323 -0.1501 -0.0007  0.0137
   19CHTO  C115 7657   5.746   8.413   2.220 -0.1719 -0.3008  0.3980
   19CHTO  H219 7658   5.654   8.374   2.176  0.4585  0.9520 -2.1400
   19CHTO   O76 7659   5.835   8.476   2.087  0.4287 -0.4753 -0.4884
   19CHTO  C122 7660   5.982   8.466   2.106 -0.3262 -0.8519  0.2278
   19CHTO  H226 7661   6.009   8.541   2.180 -3.6643 -0.2898  0.9649
   19CHTO  C126 7662   6.050   8.513   1.966  0.0645  0.1584  0.5488
   19CHTO   O85 7663   5.998   8.644   1.944 -0.0703  0.4646  0.8094
   19CHTO  H206 7664   6.060   8.709   1.971  0.0518  0.6200  0.1771
   19CHTO  C121 7665   6.027   8.315   2.143  0.1017 -0.5118  0.8696
   19CHTO  H225 7666   6.077   8.274   2.052 -1.1834  1.8923 -0.9833
   19CHTO   O81 7667   6.123   8.323   2.249  0.1449 -0.3373 -0.0567
   19CHTO  H202 7668   6.186   8.254   2.239 -2.6559 -3.0471  0.1029
   19CHTO  C119 7669   5.919   8.213   2.190 -0.9702 -0.5029 -0.2567
   19CHTO  H223 7670   5.862   8.197   2.098 -0.6307 -2.9965 -0.0809
   19CHTO  C117 7671   5.824   8.294   2.292  0.7549 -0.2339  0.1910
   19CHTO  H221 7672   5.876   8.333   2.380 -0.5095 -0.1360  0.9028
   19CHTO   N20 7673   5.732   8.189   2.343 -0.2143  0.1574  0.2334
   19CHTO  H209 7674   5.786   8.096   2.350  0.2629  0.5023  1.3334
   19CHTO  H210 7675   5.642   8.171   2.286  0.7333 -1.6651 -0.7415
   19CHTO   O80 7676   5.979   8.058   2.207  0.2082  0.0672  0.1939
   19CHTO  C103 7677   6.004   7.968   2.072  0.4321 -0.3616 -0.5852
   19CHTO  H190 7678   5.962   8.017   1.984  0.4840  2.7458  1.0582
   19CHTO  C101 7679   6.158   7.925   2.056  0.1671 -0.0803 -0.4198
   19CHTO  H188 7680   6.194   7.867   2.142 -1.0751 -1.7121 -0.9663
   19CHTO   O68 7681   6.253   8.063   2.029 -0.2201  0.0340  0.8400
   19CHTO  H168 7682   6.195   8.133   2.006 -1.0314 -0.7285  0.5504
   19CHTO   C99 7683   6.167   7.825   1.932 -0.5888 -0.1317 -0.0164
   19CHTO  H186 7684   6.133   7.885   1.845  1.8219 -0.6119 -1.3464
   19CHTO   N17 7685   6.310   7.779   1.902  0.0947  0.1362  0.1848
   19CHTO  H174 7686   6.301   7.707   1.823 -1.5174 -0.4556  0.8948
   19CHTO  H175 7687   6.383   7.857   1.884 -1.8482  1.5682 -1.7916
   19CHTO   C97 7688   6.071   7.708   1.936  0.5531  0.4841 -0.2834
   19CHTO  H184 7689   6.114   7.619   1.985 -0.6816  1.1632  2.1023
   19CHTO   O64 7690   5.940   7.736   1.995  0.1121 -0.7746  0.2034
   19CHTO  C104 7691   5.925   7.833   2.101 -0.5355 -0.3327 -0.1226
   19CHTO  H191 7692   5.959   7.789   2.195  0.4499 -1.1334 -0.8424
   19CHTO  C108 7693   5.775   7.859   2.115 -0.6951  0.7702 -0.0712
   19CHTO   O71 7694   5.701   7.760   2.185  0.0188 -0.7407 -0.2031
   19CHTO  H171 7695   5.685   7.798   2.269  0.8589  1.4738 -0.9798
   19CHTO   O62 7696   6.031   7.677   1.805 -0.2090 -0.1102  0.8429
   19CHTO   C91 7697   5.971   7.551   1.786 -0.2847  0.1117  0.1187
   19CHTO  H178 7698   5.941   7.509   1.882 -2.1972  1.3302  0.0925
   19CHTO   C92 7699   6.074   7.446   1.724  0.1423 -0.3895  0.4443
   19CHTO  H179 7700   6.118   7.489   1.633  1.5493 -0.9165  0.8552
   19CHTO   O66 7701   6.188   7.443   1.811  0.9007  0.3053 -0.2316
   19CHTO  H166 7702   6.237   7.363   1.812 -1.5385 -1.2508 -1.2379
   19CHTO   C93 7703   6.014   7.306   1.693 -0.5632  0.1262 -0.1620
   19CHTO  H180 7704   6.000   7.266   1.795  1.0984  2.2401  0.9345
   19CHTO   N16 7705   6.096   7.208   1.619 -0.2421 -0.0692  0.3764
   19CHTO  H172 7706   6.152   7.244   1.534 -1.3629 -0.7789 -0.6973
   19CHTO  H173 7707   6.151   7.145   1.688  2.7582 -0.8577 -2.5991
   19CHTO   C94 7708   5.869   7.316   1.631 -0.4312  0.0160 -0.1870
   19CHTO  H181 7709   5.875   7.351   1.528  1.6260 -0.3984 -0.2187
   19CHTO   O61 7710   5.793   7.412   1.704  0.2138  0.4263 -0.0791
   19CHTO   C95 7711   5.841   7.549   1.692  0.3595  0.6033 -0.6320
   19CHTO  H182 7712   5.872   7.566   1.589 -0.1553 -1.5449 -1.1642
   19CHTO  C106 7713   5.728   7.645   1.735 -0.2291 -0.1127 -0.2734
   19CHTO   O69 7714   5.671   7.618   1.864 -0.3011  0.0222 -0.2210
   19CHTO  H169 7715   5.720   7.555   1.914 -0.0151 -1.5251 -2.3845
   19CHTO   O63 7716   5.778   7.175   1.642  0.5130 -0.5091  0.7485
   19CHTO   C96 7717   5.625   7.164   1.554 -0.1249  0.4650  0.1229
   19CHTO  H183 7718   5.646   7.163   1.448  0.0651  2.0267  0.1426
   19CHTO   C98 7719   5.533   7.284   1.590  0.0982 -0.0772 -0.5375
   19CHTO  H185 7720   5.543   7.315   1.695 -1.8164 -1.1534 -0.0106
   19CHTO   O67 7721   5.596   7.387   1.515  0.0590 -0.6422 -0.0455
   19CHTO  H167 7722   5.548   7.468   1.509 -1.1593 -1.1383  2.4551
   19CHTO  C102 7723   5.379   7.262   1.549 -0.3287  0.5746  0.3525
   19CHTO  H189 7724   5.372   7.248   1.440 -1.9178  1.2087  0.3652
   19CHTO   N18 7725   5.292   7.379   1.581 -0.0100  0.6762 -0.0788
   19CHTO  H176 7726   5.296   7.421   1.680 -1.6202  3.8334 -1.2901
   19CHTO  H177 7727   5.191   7.361   1.545  0.3970  0.4989 -1.1637
   19CHTO  C105 7728   5.339   7.129   1.610  0.0051  0.5640  0.1521
   19CHTO  H192 7729   5.366   7.128   1.716  3.9801 -5.0747 -0.7038
   19CHTO   O65 7730   5.423   7.026   1.556 -0.2946  0.0787  0.3779
   19CHTO  C100 7731   5.563   7.032   1.583  0.0349 -0.2965 -0.3016
   19CHTO  H187 7732   5.587   7.001   1.686 -2.2300 -1.5902 -0.1411
   19CHTO  C107 7733   5.617   6.926   1.488 -0.1360  0.9435 -0.0084
   19CHTO   O70 7734   5.757   6.911   1.481  0.9405 -0.0682  0.9622
   19CHTO  H170 7735   5.786   6.901   1.393  0.8796  2.5872  0.5829
   19CHTO   O57 7736   5.188   7.088   1.570 -0.1385  0.2737 -0.5441
   19CHTO   C85 7737   5.119   6.974   1.635  0.5959 -0.4444  0.3470
   19CHTO  H157 7738   5.175   6.953   1.729 -2.5333 -2.5742  1.8097
   19CHTO   C83 7739   5.138   6.850   1.551  0.0418 -0.9022  0.6124
   19CHTO  H155 7740   5.245   6.831   1.559  0.3154 -1.9363 -3.9588
   19CHTO   O56 7741   5.102   6.876   1.413 -0.1889  0.0467 -0.4251
   19CHTO  H135 7742   5.180   6.843   1.373  0.6204  1.5777 -0.1703
   19CHTO   C81 7743   5.061   6.733   1.616 -0.4439 -0.1688 -0.0050
   19CHTO  H153 7744   5.103   6.707   1.714  0.5513  1.6124  0.0699
   19CHTO   N14 7745   5.081   6.609   1.538 -0.4419  0.4478 -0.3285
   19CHTO  H141 7746   5.037   6.609   1.440  1.4939 -0.5157 -1.2211
   19CHTO  H142 7747   5.184   6.583   1.530 -0.3991  0.8571 -1.2221
   19CHTO   C79 7748   4.910   6.763   1.627  0.2155 -0.6084  0.3264
   19CHTO  H151 7749   4.865   6.677   1.676  1.5665 -0.3122  2.1685
   19CHTO   O52 7750   4.886   6.886   1.710  0.1460 -0.2773 -0.5033
   19CHTO   C86 7751   4.961   6.999   1.664 -0.5462 -0.3842  0.1435
   19CHTO  H158 7752   4.907   7.029   1.572  0.4592 -1.1161 -0.6978
   19CHTO   C90 7753   4.944   7.118   1.758 -0.1427  1.3760 -0.7175
   19CHTO   O60 7754   4.950   7.238   1.688 -0.3796 -0.1168 -0.5103
   19CHTO  H138 7755   5.019   7.229   1.625  0.1862  0.5578  0.0057
   19CHTO   O50 7756   4.858   6.798   1.495 -0.0985  0.1754  0.2054
   19CHTO   C73 7757   4.763   6.796   1.385 -0.0672  0.2581 -0.0444
   19CHTO  H145 7758   4.742   6.693   1.353  4.3317 -0.0670 -2.3229
   19CHTO   C74 7759   4.805   6.868   1.251 -0.9255 -0.1399 -0.0330
   19CHTO  H146 7760   4.887   6.808   1.210  0.7497  1.4197  0.9364
   19CHTO   O54 7761   4.698   6.863   1.154 -0.1688 -0.0786 -0.2504
   19CHTO  H133 7762   4.657   6.948   1.153  2.2219  1.1065 -0.1855
   19CHTO   C75 7763   4.848   7.011   1.287 -0.1471 -0.6760 -0.1581
   19CHTO  H147 7764   4.918   7.004   1.371 -0.7879  2.8156  0.7438
   19CHTO   N13 7765   4.911   7.094   1.187 -0.1785 -0.2714  0.0911
   19CHTO  H139 7766   4.993   7.147   1.233  0.9574 -0.8701 -1.1946
   19CHTO  H140 7767   4.947   7.040   1.101  0.0648  1.4458 -0.9128
   19CHTO   C76 7768   4.720   7.079   1.348  0.2623  0.4034 -0.4884
   19CHTO  H148 7769   4.650   7.085   1.264  0.8381  2.3763 -0.8744
   19CHTO   O49 7770   4.657   7.007   1.456  0.5332  0.5482  0.4455
   19CHTO   C77 7771   4.628   6.864   1.431 -1.0545 -0.0730 -0.5190
   19CHTO  H149 7772   4.550   6.841   1.358 -1.0221  0.4976 -0.7350
   19CHTO   C88 7773   4.583   6.796   1.563  0.1839 -0.3624 -0.3098
   19CHTO   O58 7774   4.473   6.864   1.643  0.0765 -0.6344 -0.4699
   19CHTO  H136 7775   4.395   6.816   1.624 -0.3683 -0.5699  1.1589
   19CHTO   O51 7776   4.764   7.215   1.422 -0.0191 -0.0803 -0.4499
   19CHTO   C78 7777   4.670   7.342   1.364  0.1515 -0.3735  0.3561
   19CHTO  H150 7778   4.606   7.303   1.282  0.2713  0.2135 -0.0191
   19CHTO   C80 7779   4.749   7.463   1.310 -0.0963  0.4159 -0.2181
   19CHTO  H152 7780   4.811   7.491   1.398  0.6812 -1.6318 -0.0957
   19CHTO   O55 7781   4.825   7.420   1.201 -0.2820 -0.2534  0.1565
   19CHTO  H134 7782   4.898   7.479   1.197  0.9251 -1.7774 -1.3293
   19CHTO   C84 7783   4.658   7.589   1.270 -0.3452  0.1325  0.1121
   19CHTO  H156 7784   4.598   7.551   1.188  1.6919 -0.9841 -0.9082
   19CHTO   N15 7785   4.733   7.705   1.215 -0.0463 -1.1020  0.2333
   19CHTO  H143 7786   4.818   7.731   1.275  0.7105 -1.9423 -0.4666
   19CHTO  H144 7787   4.766   7.693   1.113 -0.3039  2.2409 -0.3212
   19CHTO   C87 7788   4.566   7.630   1.388  0.4845  0.1217  0.6558
   19CHTO  H159 7789   4.620   7.675   1.470  1.1387 -1.4493  1.1149
   19CHTO   O53 7790   4.496   7.507   1.437  0.7077  0.1626 -0.3347
   19CHTO   C82 7791   4.577   7.397   1.475 -0.6111 -0.1292 -0.3885
   19CHTO  H154 7792   4.634   7.424   1.563  0.2551 -0.9121 -0.7049
   19CHTO   C89 7793   4.473   7.286   1.516 -0.3412 -0.3158 -0.1560
   19CHTO   O59 7794   4.393   7.318   1.628  0.3930  0.1212 -0.1316
   19CHTO  H137 7795   4.315   7.351   1.587  1.3884  1.9601 -0.6065
   19CHTO   O45 7796   4.435   7.728   1.322 -0.3329 -0.2254  0.2175
   19CHTO   C67 7797   4.344   7.780   1.423  0.5098 -0.2083 -0.8268
   19CHTO  H124 7798   4.360   7.716   1.510 -0.8609  1.7205  0.8969
   19CHTO   C65 7799   4.362   7.936   1.462 -0.1634 -0.1343  0.7411
   19CHTO  H122 7800   4.387   7.990   1.370 -3.8756 -0.0252 -0.2876
   19CHTO   O44 7801   4.471   7.941   1.555  0.6180 -0.2817  0.4316
   19CHTO  H102 7802   4.542   7.999   1.533  0.3489  0.4411  1.4487
   19CHTO   C63 7803   4.227   8.009   1.500 -0.4496 -0.6118  0.1165
   19CHTO  H120 7804   4.180   8.039   1.407  2.1877 -1.5123 -1.5770
   19CHTO   N11 7805   4.239   8.145   1.558 -0.3440  0.5243  0.7960
   19CHTO  H108 7806   4.171   8.166   1.638  0.2853  1.5514  1.0586
   19CHTO  H109 7807   4.337   8.164   1.595  0.2066 -0.8625  0.1143
   19CHTO   C61 7808   4.131   7.912   1.583 -0.1488  0.4194 -0.3696
   19CHTO  H118 7809   4.030   7.953   1.598 -0.0405  0.6124 -0.1590
   19CHTO   O40 7810   4.118   7.790   1.505 -0.3614 -0.2804  0.6296
   19CHTO   C68 7811   4.191   7.757   1.385  0.0562 -0.1605  0.2411
   19CHTO  H125 7812   4.161   7.819   1.298 -1.2447  1.6494  1.9472
   19CHTO   C72 7813   4.171   7.615   1.344  0.2495  0.0303 -0.3352
   19CHTO   O48 7814   4.041   7.598   1.293 -0.4929 -0.4287 -0.3224
   19CHTO  H105 7815   4.027   7.505   1.290 -0.3988 -0.4897  0.8490
   19CHTO   O38 7816   4.188   7.876   1.713 -0.4192 -0.6000 -0.0855
   19CHTO   C55 7817   4.111   7.786   1.798  0.2002 -0.4567  0.1654
   19CHTO  H112 7818   4.062   7.713   1.732  2.8705 -1.0302 -1.2821
   19CHTO   C56 7819   4.011   7.857   1.896 -0.2242  0.1198  0.2665
   19CHTO  H113 7820   4.062   7.933   1.957 -0.0634 -0.1825  0.5131
   19CHTO   O42 7821   3.910   7.921   1.825 -0.7289 -0.0412 -0.2137
   19CHTO  H100 7822   3.920   8.014   1.831  2.2505 -0.2631 -0.9155
   19CHTO   C57 7823   3.941   7.756   1.996 -0.6298  0.3609 -0.4365
   19CHTO  H114 7824   3.879   7.691   1.934 -0.9108  0.9115 -0.7402
   19CHTO   N10 7825   3.852   7.824   2.099 -0.8407  0.2460  0.6352
   19CHTO  H106 7826   3.795   7.904   2.055 -0.3686  0.0130 -0.4247
   19CHTO  H107 7827   3.779   7.750   2.130 -0.9254  1.4429  3.4794
   19CHTO   C58 7828   4.047   7.666   2.066 -0.7317 -0.1949 -0.1045
   19CHTO  H115 7829   4.114   7.723   2.134  2.1777 -2.9535 -0.5695
   19CHTO   O37 7830   4.142   7.617   1.971 -0.3638 -0.2948  0.3482
   19CHTO   C59 7831   4.211   7.699   1.877 -1.1244  0.1062  0.0333
   19CHTO  H116 7832   4.281   7.762   1.931  0.5271  0.2227 -2.2012
   19CHTO   C70 7833   4.294   7.611   1.791 -0.0060 -0.8457  0.1139
   19CHTO   O46 7834   4.216   7.507   1.722 -1.1089  0.4904 -0.3623
   19CHTO  H103 7835   4.197   7.439   1.784 -1.1796  0.8680  0.0360
   19CHTO   O39 7836   3.967   7.534   2.127  0.6540 -0.3172 -0.2210
   19CHTO   C60 7837   3.957   7.428   2.025  0.2691 -0.2726 -0.1166
   19CHTO  H117 7838   3.949   7.478   1.929 -0.6336  1.0252  0.6229
   19CHTO   C62 7839   4.086   7.336   2.036  0.3437  0.2191  0.1698
   19CHTO  H119 7840   4.174   7.400   2.014 -0.1000  0.5524 -0.6544
   19CHTO   O43 7841   4.106   7.282   2.171  0.5958 -0.1787 -0.4285
   19CHTO  H101 7842   4.120   7.346   2.238  0.8525  0.1860 -0.8359
   19CHTO   C66 7843   4.075   7.234   1.917  0.2818 -0.0528  0.0234
   19CHTO  H123 7844   4.082   7.293   1.826 -1.6396  0.6237  0.2922
   19CHTO   N12 7845   4.200   7.147   1.908  0.1058  0.4360  0.4337
   19CHTO  H110 7846   4.217   7.099   1.812 -2.2293 -1.2308  0.7942
   19CHTO  H111 7847   4.189   7.071   1.984  1.0696  1.3603  1.5193
   19CHTO   C69 7848   3.943   7.146   1.926 -0.6519 -0.3789 -0.1073
   19CHTO  H126 7849   3.953   7.085   2.018  3.1375 -1.1356 -0.9549
   19CHTO   O41 7850   3.820   7.236   1.945 -0.3343  0.0327  0.5884
   19CHTO   C64 7851   3.828   7.350   2.043 -0.0665 -0.2372  0.0375
   19CHTO  H121 7852   3.829   7.307   2.145  0.7388 -1.9795 -0.7044
   19CHTO   C71 7853   3.711   7.453   2.022 -0.1312  0.2662  0.3305
   19CHTO   O47 7854   3.581   7.398   1.992 -0.1210  0.5066 -0.0608
   19CHTO  H104 7855   3.510   7.446   2.030 -0.6626  0.1628 -0.6456
   19CHTO   O34 7856   3.920   7.052   1.795 -0.1854 -0.2027  0.6282
   19CHTO   C49 7857   3.870   7.087   1.648 -0.2270 -0.4501 -0.2165
   19CHTO   H91 7858   3.764   7.110   1.657 -0.1637 -0.3876  0.4198
   19CHTO   C47 7859   3.901   6.973   1.551 -0.1792 -0.0260 -0.0515
   19CHTO   H89 7860   3.852   7.004   1.456 -0.6422 -0.0377  0.1801
   19CHTO   O33 7861   3.836   6.857   1.602 -0.0586  0.0709  0.4589
   19CHTO   H70 7862   3.856   6.780   1.553 -0.2526  0.2760  0.0576
   19CHTO   C45 7863   4.067   6.964   1.523 -0.0774 -0.4263 -0.0696
   19CHTO   H87 7864   4.108   6.956   1.625 -0.0766 -1.1097 -0.1212
   19CHTO    N8 7865   4.111   6.846   1.445  0.3860  0.4742  0.3836
   19CHTO   H75 7866   4.035   6.799   1.383 -0.9855  2.4403  0.5124
   19CHTO   H76 7867   4.200   6.872   1.389  2.2313 -1.1076  2.5131
   19CHTO   C43 7868   4.112   7.103   1.463  0.2097 -0.6754  0.2763
   19CHTO   H85 7869   4.218   7.090   1.444  0.6849  3.0301 -0.0466
   19CHTO   O29 7870   4.084   7.209   1.555  0.5288 -0.3374 -0.2494
   19CHTO   C50 7871   3.941   7.214   1.597 -0.4006 -0.2202  0.8418
   19CHTO   H92 7872   3.947   7.281   1.683  0.8869 -0.6758  1.1154
   19CHTO   C54 7873   3.849   7.281   1.495  0.0761 -0.3892  0.0556
   19CHTO   O36 7874   3.899   7.408   1.457 -0.2870  0.0819  0.2505
   19CHTO   H72 7875   3.911   7.462   1.532 -0.6319  1.6741 -0.8181
   19CHTO   O27 7876   4.063   7.133   1.331  0.3967 -0.0141  0.1098
   19CHTO   C37 7877   4.098   7.161   1.192  0.8983 -0.0782  0.1391
   19CHTO   H79 7878   4.074   7.071   1.134  2.1440 -0.6421  0.4881
   19CHTO   C38 7879   4.022   7.288   1.138  0.3746  0.1265  0.3966
   19CHTO   H80 7880   4.025   7.370   1.210  0.1039  0.3603  0.1464
   19CHTO   O31 7881   3.894   7.227   1.124  0.2391 -0.2731  0.1941
   19CHTO   H68 7882   3.871   7.188   1.042  0.1961 -3.9344  1.8640
   19CHTO   C39 7883   4.079   7.351   1.005  0.9430 -0.0469 -0.1159
   19CHTO   H81 7884   4.073   7.284   0.919  0.6652  0.8414 -0.7940
   19CHTO    N7 7885   4.007   7.482   0.969 -0.3476  0.4228 -0.2669
   19CHTO   H73 7886   3.989   7.551   1.051  1.5436  3.6660 -2.4864
   19CHTO   H74 7887   4.045   7.521   0.876  1.8149 -1.3688 -0.1528
   19CHTO   C40 7888   4.232   7.378   1.028  0.0773 -0.4400  0.5468
   19CHTO   H82 7889   4.250   7.449   1.108  2.7152  1.2618 -1.4601
   19CHTO   O26 7890   4.292   7.251   1.052 -0.0683 -0.2196 -0.7118
   19CHTO   C41 7891   4.253   7.197   1.179  0.2312 -0.6735 -0.1783
   19CHTO   H83 7892   4.294   7.266   1.254  1.7853 -0.8780 -0.8118
   19CHTO   C52 7893   4.337   7.069   1.185 -0.1780 -0.7119  0.8885
   19CHTO   O35 7894   4.323   6.984   1.075 -0.2369  0.7700 -0.3708
   19CHTO   H71 7895   4.359   7.013   0.993 -1.6845  0.8973 -0.9723
   19CHTO   O28 7896   4.296   7.424   0.915 -1.0059 -0.7447  0.2184
   19CHTO   C42 7897   4.406   7.517   0.921 -0.1543 -0.7692  0.2165
   19CHTO   H84 7898   4.421   7.551   1.023  0.9883  1.5800 -0.6933
   19CHTO   C44 7899   4.385   7.649   0.841 -0.9811  0.4373 -0.1519
   19CHTO   H86 7900   4.385   7.635   0.732  1.0480  0.0447 -0.1337
   19CHTO   O32 7901   4.270   7.707   0.896 -0.1954 -0.4689  0.4171
   19CHTO   H69 7902   4.288   7.745   0.980  1.4260 -0.9114  0.2776
   19CHTO   C48 7903   4.517   7.740   0.859 -0.5104 -0.4657  0.5771
   19CHTO   H90 7904   4.519   7.770   0.963 -2.9323  0.8083  0.2908
   19CHTO    N9 7905   4.497   7.866   0.775  0.4448  0.2309 -0.0160
   19CHTO   H77 7906   4.593   7.913   0.763  0.2678  0.7087  0.4278
   19CHTO   H78 7907   4.422   7.933   0.817  1.9773  1.9173  0.0900
   19CHTO   C51 7908   4.640   7.666   0.808 -0.2818  0.3559 -0.5186
   19CHTO   H93 7909   4.615   7.646   0.704 -1.7744  1.4322 -0.3709
   19CHTO   O30 7910   4.659   7.542   0.886  0.6137 -0.4990  0.0086
   19CHTO   C46 7911   4.540   7.443   0.871 -0.8668  0.7851  0.4582
   19CHTO   H88 7912   4.532   7.417   0.766  2.9392  0.2662  0.2399
   19CHTO   C53 7913   4.581   7.316   0.960  0.1551 -0.3328  0.2658
   19CHTO   O72 7914   4.708   7.264   0.919  0.5432 -0.2360 -0.3982
   19CHTO  H199 7915   4.746   7.202   0.979  1.7041  1.0686  0.2473
   19CHTO   O22 7916   4.769   7.736   0.820  0.4987  0.3184  0.0660
   19CHTO   C31 7917   4.884   7.690   0.735 -0.1654  0.3484 -0.4607
   19CHTO   H59 7918   4.862   7.586   0.701  0.3241 -0.2732  1.0761
   19CHTO   C29 7919   4.911   7.781   0.610 -0.2643 -0.2720 -0.0653
   19CHTO   H57 7920   4.939   7.878   0.654  0.1453 -0.3556 -0.1432
   19CHTO   O21 7921   4.788   7.800   0.542  0.1637 -0.1366 -0.0290
   19CHTO   H37 7922   4.763   7.890   0.548 -1.3571 -0.5824  0.5204
   19CHTO   C27 7923   5.023   7.731   0.520 -0.0292 -0.6566 -0.3098
   19CHTO   H55 7924   4.993   7.637   0.473  1.0923 -1.2233  0.0782
   19CHTO    N5 7925   5.064   7.823   0.412  0.4194 -0.6811 -0.7468
   19CHTO   H43 7926   5.087   7.924   0.441  0.1077 -0.1365 -2.3171
   19CHTO   H44 7927   4.992   7.807   0.333 -0.8916  2.7155 -0.3274
   19CHTO   C25 7928   5.145   7.691   0.613  0.3609 -0.9596  0.2740
   19CHTO   H53 7929   5.199   7.783   0.639  0.0202 -0.2760 -1.3879
   19CHTO   O17 7930   5.119   7.617   0.737  0.7505  0.4541  0.2372
   19CHTO   C32 7931   5.016   7.677   0.821 -0.1796 -0.3695 -0.1212
   19CHTO   H60 7932   5.049   7.779   0.841 -1.2347 -0.6150  3.2520
   19CHTO   C36 7933   4.990   7.600   0.952  0.5026 -0.1374  0.5019
   19CHTO   O25 7934   4.969   7.465   0.924  0.7445  0.3614  0.3097
   19CHTO   H40 7935   4.992   7.424   1.005 -0.7613 -0.7711  0.1897
   19CHTO   O15 7936   5.242   7.609   0.533 -0.2087 -0.5214 -0.6543
   19CHTO   C19 7937   5.348   7.526   0.476  0.1544 -0.0800  0.0019
   19CHTO   H47 7938   5.323   7.514   0.369 -0.0091 -1.1219  0.1592
   19CHTO   C20 7939   5.489   7.581   0.484 -0.2518 -0.3682 -0.3432
   19CHTO   H48 7940   5.524   7.593   0.588  0.2039  2.4449 -0.7783
   19CHTO   O19 7941   5.493   7.713   0.433 -0.0343  1.0135  1.1121
   19CHTO   H35 7942   5.450   7.787   0.472  1.9380  2.0441  1.3932
   19CHTO   C21 7943   5.595   7.488   0.396 -0.4157  0.9442 -0.1086
   19CHTO   H49 7944   5.567   7.503   0.292  1.7786  3.6060 -0.3640
   19CHTO    N4 7945   5.736   7.527   0.395 -0.3490  0.0160  0.4559
   19CHTO   H41 7946   5.732   7.632   0.368 -0.8340 -0.5819 -1.9354
   19CHTO   H42 7947   5.797   7.468   0.329  0.1689  0.2209  0.7487
   19CHTO   C22 7948   5.569   7.335   0.425  0.2725  0.0269  0.7914
   19CHTO   H50 7949   5.641   7.300   0.499  1.3564 -1.5629 -0.9819
   19CHTO   O14 7950   5.429   7.304   0.451 -0.5766 -0.2244 -0.0984
   19CHTO   C23 7951   5.359   7.389   0.540  0.1122 -0.4250  0.0441
   19CHTO   H51 7952   5.410   7.390   0.638  0.4433  3.0456 -0.1086
   19CHTO   C34 7953   5.220   7.327   0.572 -0.5745 -0.1352  0.3601
   19CHTO   O23 7954   5.212   7.195   0.624  0.5326  0.0772  0.5096
   19CHTO   H38 7955   5.254   7.135   0.565 -4.5154 -3.0301 -0.1758
   19CHTO   O16 7956   5.576   7.259   0.297 -0.7070  0.1881  0.2283
   19CHTO   C24 7957   5.671   7.129   0.301 -0.1784 -0.2570  1.1394
   19CHTO   H52 7958   5.765   7.149   0.353  0.1810  2.0131 -0.3228
   19CHTO   C26 7959   5.701   7.109   0.151  0.7206  0.5641  0.2692
   19CHTO   H54 7960   5.605   7.129   0.098  0.7696  0.9900  0.3381
   19CHTO   O20 7961   5.788   7.205   0.101  0.1586 -0.2921 -0.0288
   19CHTO   H36 7962   5.754   7.291   0.112 -0.8970 -0.6845 -0.1163
   19CHTO   C30 7963   5.752   6.962   0.121 -0.6716  0.6035 -0.5632
   19CHTO   H58 7964   5.856   6.943   0.151 -0.7513  0.3668 -0.4332
   19CHTO    N6 7965   5.749   6.935  -0.023 -0.0010 -0.4178  0.1725
   19CHTO   H45 7966   5.792   6.843  -0.060  2.4472  0.6657  0.2009
   19CHTO   H46 7967   5.789   7.017  -0.081  0.4701 -0.4332  0.4698
   19CHTO   C33 7968   5.660   6.863   0.194 -0.3703  1.1609 -0.3744
   19CHTO   H61 7969   5.555   6.865   0.162 -0.3445 -2.3773 -0.8264
   19CHTO   O18 7970   5.667   6.896   0.334 -0.4114 -0.1414  0.4058
   19CHTO   C28 7971   5.601   7.015   0.372 -0.0051  0.4952 -0.0187
   19CHTO   H56 7972   5.496   7.009   0.345 -0.3868 -0.7754  1.7070
   19CHTO   C35 7973   5.599   7.013   0.528  0.0764  0.5644  0.0962
   19CHTO   O24 7974   5.546   6.905   0.596 -0.6400 -0.3840 -0.3586
   19CHTO   H39 7975   5.523   6.914   0.686 -1.4126 -0.3166 -0.5587
   19CHTO    O9 7976   5.691   6.723   0.170 -0.6746 -1.1180  0.1383
   19CHTO   C13 7977   5.554   6.629   0.152  0.3088  0.3691  0.1027
   19CHTO   H26 7978   5.492   6.671   0.071 -0.5325  2.6017  1.8481
   19CHTO   C11 7979   5.476   6.629   0.287  0.3494 -0.5859 -0.0540
   19CHTO   H24 7980   5.425   6.726   0.284 -2.3297 -2.0048 -1.5793
   19CHTO    O8 7981   5.566   6.610   0.393  0.6237  0.1092 -0.5701
   19CHTO    H3 7982   5.625   6.683   0.399 -0.4603  1.2512 -3.2127
   19CHTO    C9 7983   5.368   6.517   0.293 -1.0102  0.2280  0.3423
   19CHTO   H22 7984   5.299   6.533   0.209 -0.5420  1.7022  0.2222
   19CHTO    N2 7985   5.278   6.535   0.407 -0.3617  0.9195  0.0484
   19CHTO   H10 7986   5.223   6.443   0.411 -0.5243  0.9611 -1.1165
   19CHTO   H11 7987   5.345   6.543   0.491  0.5972 -3.5377 -0.2116
   19CHTO    C7 7988   5.439   6.373   0.264 -0.3862  0.3097 -0.0749
   19CHTO   H20 7989   5.375   6.335   0.182 -0.3344 -2.3369  1.0742
   19CHTO    O4 7990   5.579   6.387   0.228  0.0240  0.7790  0.4212
   19CHTO   C14 7991   5.593   6.475   0.115 -0.1150  0.3153  0.1583
   19CHTO   H27 7992   5.527   6.424   0.041 -0.0708 -0.9643  0.9880
   19CHTO   C18 7993   5.741   6.453   0.069  0.8548 -0.0597 -0.0456
   19CHTO   O13 7994   5.751   6.406  -0.069 -0.2523 -0.2040  0.2108
   19CHTO    H7 7995   5.838   6.381  -0.092  0.0896  0.1183  1.1645
   19CHTO    O2 7996   5.427   6.285   0.373  0.0732 -0.1582 -0.2479
   19CHTO    C1 7997   5.438   6.143   0.351  0.0504  0.1008  0.6383
   19CHTO   H14 7998   5.523   6.126   0.283  0.7285 -1.2457  1.8029
   19CHTO    C2 7999   5.317   6.067   0.295  0.3852 -0.1840  0.9728
   19CHTO   H15 8000   5.230   6.105   0.350 -0.2373 -2.1903  1.4123
   19CHTO    O6 8001   5.291   6.106   0.154  0.1124 -1.0010  0.2808
   19CHTO    H1 8002   5.212   6.071   0.117  0.5430 -0.7811 -0.8714
   19CHTO    C3 8003   5.330   5.905   0.307  0.2374 -0.4108 -0.4078
   19CHTO   H16 8004   5.401   5.853   0.242 -0.8166 -1.9803 -0.3309
   19CHTO    N1 8005   5.198   5.846   0.274  0.8009 -0.2231  1.1589
   19CHTO    H8 8006   5.131   5.919   0.230  0.9192 -1.0218 -0.4141
   19CHTO    H9 8007   5.154   5.786   0.352 -0.4132 -1.9489 -0.8025
   19CHTO    C4 8008   5.378   5.871   0.450  0.4151  0.3912 -0.1426
   19CHTO   H17 8009   5.296   5.893   0.519  1.0801 -1.9994  1.4917
   19CHTO    O1 8010   5.496   5.947   0.485  0.5848 -0.5997 -0.4502
   19CHTO    C5 8011   5.479   6.089   0.494 -0.1267  1.2101 -0.5626
   19CHTO   H18 8012   5.399   6.118   0.561 -1.7674  0.8211 -2.2974
   19CHTO   C16 8013   5.611   6.147   0.557 -0.4363  0.0500  0.0050
   19CHTO   O11 8014   5.601   6.284   0.586 -0.2392  0.1967 -0.2334
   19CHTO    H5 8015   5.530   6.295   0.646 -1.1534 -2.3885 -0.7539
   19CHTO    O3 8016   5.413   5.729   0.463  0.0988 -0.3683  0.2826
   19CHTO    C6 8017   5.447   5.683   0.599 -0.0173  0.5521  0.4370
   19CHTO   H19 8018   5.460   5.763   0.671 -4.6398  1.8179 -0.0011
   19CHTO    C8 8019   5.328   5.597   0.645 -0.3169  0.1931  0.2959
   19CHTO   H21 8020   5.322   5.509   0.581 -0.9042  0.7617 -0.4376
   19CHTO    O7 8021   5.201   5.669   0.638 -0.2749 -0.3985 -0.5227
   19CHTO    H2 8022   5.177   5.716   0.716 -1.0356  2.0593 -2.1702
   19CHTO   C12 8023   5.370   5.543   0.791  0.5669 -0.3721  0.3100
   19CHTO   H25 8024   5.381   5.630   0.858  0.5311  1.1441 -1.6241
   19CHTO    N3 8025   5.259   5.454   0.857 -0.4958 -0.1265  0.3689
   19CHTO   H12 8026   5.215   5.378   0.794 -2.3414 -0.7486  2.3694
   19CHTO   H13 8027   5.185   5.520   0.900  0.2897  2.7810 -2.5187
   19CHTO   C15 8028   5.503   5.465   0.782  1.1094  1.0987  0.0354
   19CHTO   H28 8029   5.502   5.365   0.739  1.5290  1.3630 -0.5840
   19CHTO   O10 8030   5.573   5.447   0.921 -0.4987 -0.1954  0.4165
   19CHTO    H4 8031   5.632   5.375   0.912 -1.7825 -1.0901 -1.1964
   19CHTO    O5 8032   5.602   5.545   0.723  0.5761  0.6191 -0.6296
   19CHTO   C10 8033   5.584   5.601   0.592  0.3422 -0.1287  0.0460
   19CHTO   H23 8034   5.583   5.523   0.517 -1.7471 -0.6542  0.5752
   19CHTO   C17 8035   5.705   5.692   0.576  0.4794 -0.5031 -0.4466
   19CHTO   O12 8036   5.701   5.763   0.448  0.1824 -0.2947 -0.2940
   19CHTO    H6 8037   5.630   5.823   0.445 -0.9680 -1.4820  1.8249
   20CHTO  H203 8038   5.142   1.292   2.259  1.2397  1.9746 -0.3545
   20CHTO   O82 8039   5.159   1.243   2.181 -0.6778 -0.3018  0.6022
   20CHTO  C123 8040   5.199   1.344   2.088  0.1126  0.2601 -0.5182
   20CHTO  H227 8041   5.130   1.429   2.092 -0.0680  0.0986 -0.2275
   20CHTO   O77 8042   5.326   1.385   2.134 -0.0863  0.1413  1.0321
   20CHTO  C118 8043   5.374   1.501   2.063  0.5323  0.1733  0.1421
   20CHTO  H222 8044   5.303   1.584   2.075 -0.2392 -0.5238  0.4430
   20CHTO  C125 8045   5.514   1.542   2.128  0.1367 -0.1801  0.5228
   20CHTO   O84 8046   5.504   1.598   2.262 -0.4629 -0.3047 -0.0683
   20CHTO  H205 8047   5.512   1.525   2.320  0.4840 -0.2272 -0.1043
   20CHTO  C114 8048   5.398   1.461   1.914 -0.6617  0.3144 -0.7045
   20CHTO  H218 8049   5.488   1.399   1.910  0.9839  2.5481  0.2198
   20CHTO  C116 8050   5.270   1.399   1.852  0.5505 -0.3287  0.4228
   20CHTO  H220 8051   5.202   1.486   1.848  1.1366  0.0896 -0.3292
   20CHTO   O79 8052   5.303   1.354   1.720  0.5985 -0.4975  0.1831
   20CHTO  H201 8053   5.228   1.312   1.684  0.9936  0.0032 -1.2288
   20CHTO  C120 8054   5.213   1.282   1.941 -0.0905 -0.4166 -0.5192
   20CHTO  H224 8055   5.280   1.195   1.929  0.2710 -0.2077 -0.0548
   20CHTO   N21 8056   5.087   1.233   1.884 -0.1905  0.1041 -0.3765
   20CHTO  H211 8057   4.998   1.274   1.931 -1.0083  0.6356 -2.3563
   20CHTO  H212 8058   5.094   1.125   1.885  0.3215  0.1294 -0.9522
   20CHTO   O75 8059   5.430   1.589   1.859 -0.4311  0.4910 -0.1311
   20CHTO  C112 8060   5.555   1.593   1.760  0.1999 -0.2068  0.0926
   20CHTO  H216 8061   5.543   1.511   1.688 -1.7328 -0.0704  0.2396
   20CHTO   O73 8062   5.678   1.578   1.839  0.0232  0.2158  0.0333
   20CHTO  C113 8063   5.800   1.581   1.761 -0.4252 -0.3354 -0.5835
   20CHTO  H217 8064   5.791   1.496   1.690  1.1856 -0.4861 -0.6190
   20CHTO  C124 8065   5.909   1.555   1.863  0.3565 -0.2355 -0.7971
   20CHTO   O83 8066   6.015   1.468   1.815  0.0983 -0.5541  0.0112
   20CHTO  H204 8067   5.984   1.388   1.779 -1.9721  0.9270 -1.6437
   20CHTO  C109 8068   5.824   1.711   1.691  0.2197  0.1875  0.7325
   20CHTO  H213 8069   5.841   1.785   1.770 -1.2906  1.8663 -0.4788
   20CHTO  C110 8070   5.696   1.751   1.611  0.8705  0.1266 -0.2158
   20CHTO  H214 8071   5.710   1.678   1.532  3.4614  0.1531  0.1855
   20CHTO   O78 8072   5.708   1.890   1.566  0.1939  0.2174 -0.4379
   20CHTO  H200 8073   5.626   1.923   1.534 -0.3305 -0.4347  0.2132
   20CHTO  C111 8074   5.553   1.728   1.681  0.0377  0.3234  0.2075
   20CHTO  H215 8075   5.545   1.811   1.753 -0.7368 -1.1600  1.8935
   20CHTO   N19 8076   5.438   1.738   1.590 -0.0693  0.4157 -0.7434
   20CHTO  H207 8077   5.394   1.641   1.570 -0.4544  0.1819  1.1514
   20CHTO  H208 8078   5.365   1.806   1.631 -1.0793 -1.1892  0.1884
   20CHTO   O74 8079   5.943   1.701   1.608 -0.1883  0.1396  0.1018
   20CHTO  C115 8080   6.027   1.824   1.608 -0.5342 -0.1792 -0.2068
   20CHTO  H219 8081   5.989   1.901   1.676  2.0177  0.0285  1.0218
   20CHTO   O76 8082   6.164   1.795   1.661  0.1184 -0.3270 -0.2471
   20CHTO  C122 8083   6.238   1.688   1.605 -0.1065  0.0052 -0.2822
   20CHTO  H226 8084   6.211   1.598   1.660 -0.8333  1.1052  1.1978
   20CHTO  C126 8085   6.389   1.714   1.644  0.3015  0.3594  0.2142
   20CHTO   O85 8086   6.445   1.825   1.569  0.3960  0.0775 -0.4732
   20CHTO  H206 8087   6.537   1.814   1.583 -0.0010  0.5913  2.9045
   20CHTO  C121 8088   6.213   1.674   1.447  0.4029  0.6212 -0.2335
   20CHTO  H225 8089   6.312   1.657   1.399 -0.5387  1.5418 -2.5585
   20CHTO   O81 8090   6.125   1.568   1.429 -0.2693 -0.5958  0.0181
   20CHTO  H202 8091   6.117   1.544   1.339  1.8285 -2.5932  0.3212
   20CHTO  C119 8092   6.160   1.809   1.393  0.3433  0.0231  0.1076
   20CHTO  H223 8093   6.244   1.877   1.404 -1.9849  2.7617  1.5066
   20CHTO  C117 8094   6.041   1.882   1.465  0.2699 -0.0316 -0.2872
   20CHTO  H221 8095   5.946   1.856   1.417  0.7855  1.7760 -2.3902
   20CHTO   N20 8096   6.039   2.029   1.469  0.2198 -0.2782 -0.2762
   20CHTO  H209 8097   5.956   2.062   1.529  0.4884 -2.7002  1.5529
   20CHTO  H210 8098   6.140   2.060   1.491  0.1534 -0.2517 -0.0100
   20CHTO   O80 8099   6.133   1.814   1.235  0.2877  0.6260 -0.0814
   20CHTO  C103 8100   6.249   1.828   1.138 -0.3442  0.1188 -0.2687
   20CHTO  H190 8101   6.343   1.798   1.184 -1.3169 -1.0163  0.9985
   20CHTO  C101 8102   6.215   1.735   1.012  0.1391 -0.4111  0.1727
   20CHTO  H188 8103   6.108   1.734   0.992  0.5407 -0.7839 -1.9907
   20CHTO   O68 8104   6.259   1.587   1.059  0.2896  0.3329 -0.1133
   20CHTO  H168 8105   6.241   1.520   0.996  1.7584  0.9829 -1.2424
   20CHTO   C99 8106   6.286   1.775   0.882  0.5915 -0.5238 -0.6058
   20CHTO  H186 8107   6.393   1.762   0.909 -0.1330 -0.6924  2.3891
   20CHTO   N17 8108   6.254   1.688   0.764  0.6454 -0.6160  0.0162
   20CHTO  H174 8109   6.163   1.631   0.771  0.6027 -0.9495 -2.5681
   20CHTO  H175 8110   6.260   1.749   0.675 -0.5875 -1.4072 -0.6236
   20CHTO   C97 8111   6.265   1.928   0.853  0.1300  0.7417 -0.3797
   20CHTO  H184 8112   6.156   1.944   0.852 -0.0342 -0.2116  0.4308
   20CHTO   O64 8113   6.326   2.000   0.962  0.2765 -0.1766  0.8838
   20CHTO  C104 8114   6.262   1.975   1.090 -0.0856 -0.6504 -0.0412
   20CHTO  H191 8115   6.159   2.010   1.081 -0.6191 -2.3306 -0.7162
   20CHTO  C108 8116   6.327   2.074   1.189  0.8706  0.0748  0.3253
   20CHTO   O71 8117   6.457   2.034   1.224 -0.7522 -0.6209 -0.0124
   20CHTO  H171 8118   6.453   1.985   1.304 -2.0739 -0.0301  0.2976
   20CHTO   O62 8119   6.331   1.968   0.734 -0.3224 -0.1149 -0.4961
   20CHTO   C91 8120   6.296   2.105   0.690 -0.0809  0.5618 -0.6096
   20CHTO  H178 8121   6.245   2.151   0.775  1.5113  0.9411  0.1478
   20CHTO   C92 8122   6.191   2.091   0.577  0.1213  0.4476  0.4586
   20CHTO  H179 8123   6.232   2.034   0.492 -3.0636  0.6291 -1.3025
   20CHTO   O66 8124   6.076   2.023   0.631  0.4014  0.3380 -0.3128
   20CHTO  H166 8125   6.094   1.962   0.699  0.7646  1.6752  0.8074
   20CHTO   C93 8126   6.151   2.234   0.535 -0.2751  0.4972  0.7467
   20CHTO  H180 8127   6.096   2.279   0.619  2.0959  1.5229  1.8059
   20CHTO   N16 8128   6.065   2.239   0.419  0.0762  0.1740  0.4821
   20CHTO  H172 8129   6.017   2.142   0.413 -0.9891  0.4365  3.7920
   20CHTO  H173 8130   5.986   2.311   0.435 -0.4593 -0.1306 -0.6850
   20CHTO   C94 8131   6.282   2.324   0.510 -0.2440 -0.1578 -0.1689
   20CHTO  H181 8132   6.337   2.291   0.421 -0.5160  0.3429 -0.5217
   20CHTO   O61 8133   6.375   2.313   0.619 -0.0930  0.4660 -0.3796
   20CHTO   C95 8134   6.425   2.188   0.654 -0.4904  0.3716  0.2574
   20CHTO  H182 8135   6.471   2.140   0.567 -1.6481  0.0449 -0.1762
   20CHTO  C106 8136   6.528   2.193   0.776  0.2245 -0.6005  0.3096
   20CHTO   O69 8137   6.632   2.297   0.752 -0.3751  0.0152 -0.1392
   20CHTO  H169 8138   6.718   2.260   0.757 -0.7859 -0.8969  0.3144
   20CHTO   O63 8139   6.239   2.482   0.497  0.5696  0.3123  0.6817
   20CHTO   C96 8140   6.284   2.536   0.342  0.7405  0.4921 -0.1901
   20CHTO  H183 8141   6.254   2.460   0.270  2.2745 -0.7992  0.5037
   20CHTO   C98 8142   6.437   2.564   0.321 -0.5238 -0.6309 -0.6366
   20CHTO  H185 8143   6.467   2.627   0.406 -2.6822  1.6166 -1.4690
   20CHTO   O67 8144   6.507   2.439   0.341  0.2385 -0.2704 -0.2633
   20CHTO  H167 8145   6.505   2.399   0.427  1.0739  0.0015 -0.1150
   20CHTO  C102 8146   6.457   2.627   0.178 -0.8785 -0.1809  0.1903
   20CHTO  H189 8147   6.408   2.553   0.113  1.2767 -3.2670  1.9444
   20CHTO   N18 8148   6.598   2.637   0.133  0.6225  0.6383 -0.2153
   20CHTO  H176 8149   6.604   2.666   0.029  0.9505  0.1883 -0.3198
   20CHTO  H177 8150   6.646   2.542   0.152 -2.0413 -0.7934 -0.4284
   20CHTO  C105 8151   6.373   2.757   0.158 -0.3424 -0.2869  0.7571
   20CHTO  H192 8152   6.408   2.828   0.233  0.9892 -0.1709  0.0451
   20CHTO   O65 8153   6.237   2.726   0.186  0.2143  0.1756 -0.1436
   20CHTO  C100 8154   6.208   2.669   0.311 -0.4948  0.0546 -0.4890
   20CHTO  H187 8155   6.238   2.745   0.384 -0.2043  0.6730 -1.2467
   20CHTO  C107 8156   6.053   2.645   0.321  0.9828  0.4360 -0.1826
   20CHTO   O70 8157   5.997   2.772   0.338 -0.6444  0.0071  0.1978
   20CHTO  H170 8158   5.908   2.759   0.364 -0.5990  0.5861  0.6405
   20CHTO   O57 8159   6.375   2.819   0.018 -0.0854 -0.1036 -0.2975
   20CHTO   C85 8160   6.369   2.963   0.012 -0.9636 -0.0782 -0.5322
   20CHTO  H157 8161   6.419   3.001   0.104  0.4362  1.0348 -1.7259
   20CHTO   C83 8162   6.219   3.014   0.025  0.2474  0.9274 -0.1497
   20CHTO  H155 8163   6.185   2.986   0.124  0.3821 -1.3942 -0.7434
   20CHTO   O56 8164   6.138   2.959  -0.084  0.0413 -0.3487  0.3570
   20CHTO  H135 8165   6.087   2.883  -0.063 -2.1611  0.4662 -1.7765
   20CHTO   C81 8166   6.226   3.171   0.011 -0.5894  0.2706  0.4384
   20CHTO  H153 8167   6.291   3.207   0.091  0.7779 -0.8683 -0.1195
   20CHTO   N14 8168   6.089   3.236   0.040 -0.1622 -0.8582 -0.3588
   20CHTO  H141 8169   6.005   3.171   0.024 -0.2707 -0.5292 -1.1853
   20CHTO  H142 8170   6.079   3.319  -0.027  0.5613  1.6758  2.5698
   20CHTO   C79 8171   6.287   3.214  -0.130  0.5970  0.0430  0.0400
   20CHTO  H151 8172   6.294   3.322  -0.136  2.8235 -0.1676 -1.9177
   20CHTO   O52 8173   6.425   3.167  -0.135  0.0626  0.4420  0.1581
   20CHTO   C86 8174   6.446   3.023  -0.118  0.2894 -0.3051 -0.2792
   20CHTO  H158 8175   6.399   2.979  -0.209  3.1699 -1.9440 -1.0218
   20CHTO   C90 8176   6.594   2.980  -0.115  0.3620 -0.1725 -0.0031
   20CHTO   O60 8177   6.605   2.844  -0.151  0.0029  0.1072  0.1319
   20CHTO  H138 8178   6.594   2.787  -0.077  2.0197 -1.1340 -0.4695
   20CHTO   O50 8179   6.219   3.170  -0.242  0.2436 -0.0110  0.0603
   20CHTO   C73 8180   6.260   3.186  -0.375 -0.3326  0.5246 -0.4448
   20CHTO  H145 8181   6.350   3.127  -0.396 -1.5760 -0.8973 -1.9785
   20CHTO   C74 8182   6.291   3.337  -0.417 -0.2914 -0.1540  0.2653
   20CHTO  H146 8183   6.372   3.377  -0.353 -1.0963 -1.4543  2.1496
   20CHTO   O54 8184   6.343   3.336  -0.551 -0.6983 -0.4944  0.4348
   20CHTO  H133 8185   6.432   3.308  -0.557 -0.8531 -2.2266  4.4567
   20CHTO   C75 8186   6.161   3.419  -0.398  0.5450  0.6827 -0.5594
   20CHTO  H147 8187   6.127   3.414  -0.294  1.4266 -1.0607 -0.3345
   20CHTO   N13 8188   6.184   3.568  -0.425 -0.6738  0.1885  0.6262
   20CHTO  H139 8189   6.232   3.617  -0.341  0.4263  0.5093 -0.1717
   20CHTO  H140 8190   6.086   3.611  -0.434 -1.2527 -1.8208 -3.7055
   20CHTO   C76 8191   6.049   3.356  -0.489 -0.1668  0.5714  0.3780
   20CHTO  H148 8192   6.076   3.361  -0.594  0.0569 -1.5570  0.3045
   20CHTO   O49 8193   6.028   3.214  -0.454  0.1781  1.0099 -0.3224
   20CHTO   C77 8194   6.145   3.134  -0.470  0.2904 -0.6513  0.2216
   20CHTO  H149 8195   6.172   3.147  -0.575  1.9256 -2.0225  0.4453
   20CHTO   C88 8196   6.113   2.984  -0.446  0.3039  1.1144  0.2965
   20CHTO   O58 8197   6.014   2.968  -0.348 -0.3108  0.0656  0.1862
   20CHTO  H136 8198   5.991   2.877  -0.354 -0.5663  0.1271  0.2338
   20CHTO   O51 8199   5.896   3.429  -0.468 -0.6422  0.5007  0.6754
   20CHTO   C78 8200   5.819   3.437  -0.325 -0.1372 -0.4532  0.5473
   20CHTO  H150 8201   5.888   3.420  -0.239  0.4955 -3.1232 -0.4328
   20CHTO   C80 8202   5.712   3.320  -0.318 -0.5022 -0.5326  0.6859
   20CHTO  H152 8203   5.656   3.330  -0.414 -1.5417  1.1904  1.4499
   20CHTO   O55 8204   5.770   3.191  -0.328 -0.5395  0.0260 -0.1048
   20CHTO  H134 8205   5.709   3.126  -0.298  1.9263 -1.3224  2.3495
   20CHTO   C84 8206   5.623   3.337  -0.189  0.6999  0.7920 -0.1521
   20CHTO  H156 8207   5.691   3.322  -0.105  0.6402 -1.2011 -0.4414
   20CHTO   N15 8208   5.511   3.239  -0.182 -0.0986  0.5816  0.0227
   20CHTO  H143 8209   5.415   3.280  -0.207 -0.5802 -0.1400  0.6488
   20CHTO  H144 8210   5.505   3.184  -0.090 -0.5370 -0.9792 -0.9238
   20CHTO   C87 8211   5.569   3.482  -0.179 -0.1796 -0.3252  0.6017
   20CHTO  H159 8212   5.489   3.493  -0.251  0.6746  1.7429 -0.0656
   20CHTO   O53 8213   5.683   3.597  -0.195  0.4524  0.5999 -0.1361
   20CHTO   C82 8214   5.755   3.576  -0.319 -0.0744 -0.3725 -0.1528
   20CHTO  H154 8215   5.683   3.591  -0.399 -2.6459 -1.3646  1.8817
   20CHTO   C89 8216   5.864   3.687  -0.330 -0.3156  1.3996  0.5633
   20CHTO   O59 8217   5.802   3.815  -0.327 -0.0525 -0.1637 -0.1572
   20CHTO  H137 8218   5.875   3.866  -0.300 -1.5926  0.7429  2.4458
   20CHTO   O45 8219   5.511   3.517  -0.036  0.1190 -0.5124 -0.1190
   20CHTO   C67 8220   5.585   3.482   0.082 -0.2975  0.9147 -0.0817
   20CHTO  H124 8221   5.631   3.385   0.061 -2.0946 -0.0283  0.1878
   20CHTO   C65 8222   5.692   3.587   0.104 -0.1043 -0.3682 -0.1864
   20CHTO  H122 8223   5.686   3.669   0.032  0.0370 -1.6035 -1.6225
   20CHTO   O44 8224   5.815   3.521   0.074  0.2526  0.1848 -0.6407
   20CHTO  H102 8225   5.821   3.436   0.112 -1.4869 -0.9843 -2.8038
   20CHTO   C63 8226   5.678   3.659   0.244  0.0806 -0.3565 -0.5815
   20CHTO  H120 8227   5.593   3.728   0.247  2.4873  2.6365  1.6366
   20CHTO   N11 8228   5.788   3.751   0.282 -0.0064  0.4377  0.0007
   20CHTO  H108 8229   5.884   3.705   0.286 -0.2555  0.0289  1.5571
   20CHTO  H109 8230   5.768   3.795   0.378 -1.9785 -0.3322 -0.0392
   20CHTO   C61 8231   5.660   3.549   0.355 -0.6286 -0.0319  0.2659
   20CHTO  H118 8232   5.639   3.601   0.450  2.5618  0.2832  0.8431
   20CHTO   O40 8233   5.559   3.458   0.337  0.1949 -0.1247 -0.6793
   20CHTO   C68 8234   5.487   3.463   0.209  0.3856  0.5973 -0.0945
   20CHTO  H125 8235   5.421   3.553   0.215 -0.5818 -0.2160  1.9787
   20CHTO   C72 8236   5.396   3.339   0.195  0.2604 -0.5037  0.0949
   20CHTO   O48 8237   5.297   3.324   0.306  0.0646 -0.1958 -0.5397
   20CHTO  H105 8238   5.212   3.338   0.268  0.0132 -0.5337 -0.5443
   20CHTO   O38 8239   5.781   3.472   0.373  0.2301  0.0493 -0.0051
   20CHTO   C55 8240   5.795   3.415   0.503  0.0434 -0.6808 -0.7543
   20CHTO  H112 8241   5.696   3.384   0.540 -2.1792  1.4819 -4.6955
   20CHTO   C56 8242   5.874   3.509   0.604 -0.3697  0.3843 -0.0967
   20CHTO  H113 8243   5.979   3.522   0.573 -0.0842 -0.4632  0.4868
   20CHTO   O42 8244   5.801   3.632   0.618  0.2289  0.5082 -0.5436
   20CHTO  H100 8245   5.847   3.700   0.663  0.1956 -0.2548  0.6727
   20CHTO   C57 8246   5.887   3.440   0.741 -0.0945 -0.0519 -0.2953
   20CHTO  H114 8247   5.787   3.438   0.784 -1.0782  0.8118 -2.4892
   20CHTO   N10 8248   5.956   3.517   0.842 -0.7365  0.5105 -0.4527
   20CHTO  H106 8249   5.920   3.501   0.942 -0.4424  2.3301 -0.0568
   20CHTO  H107 8250   6.060   3.490   0.835 -0.7460 -0.1658  1.6752
   20CHTO   C58 8251   5.939   3.291   0.728 -0.2020 -0.3282 -0.4241
   20CHTO  H115 8252   6.050   3.290   0.724 -0.1038  0.9380  1.3998
   20CHTO   O37 8253   5.877   3.218   0.622 -0.4790  0.2150  0.9583
   20CHTO   C59 8254   5.877   3.287   0.495 -0.3674 -0.5190  0.0858
   20CHTO  H116 8255   5.980   3.309   0.467 -0.0692 -1.2270  0.6185
   20CHTO   C70 8256   5.806   3.188   0.399 -1.1381  0.1318 -0.2099
   20CHTO   O46 8257   5.886   3.069   0.374 -0.3927 -0.4082 -0.0704
   20CHTO  H103 8258   5.958   3.094   0.319  0.4995 -2.2647  0.2043
   20CHTO   O39 8259   5.902   3.211   0.865 -0.0087  0.2691 -0.0765
   20CHTO   C60 8260   5.957   3.079   0.876 -0.5060  0.3911  0.2800
   20CHTO  H117 8261   5.967   3.031   0.779  0.7309  0.2996  0.4455
   20CHTO   C62 8262   6.097   3.091   0.944  0.1154 -0.1574  0.2477
   20CHTO  H119 8263   6.164   3.147   0.875  1.1304 -1.1090  0.4346
   20CHTO   O43 8264   6.090   3.159   1.067 -0.3434  0.2232 -0.0133
   20CHTO  H101 8265   6.045   3.100   1.125  1.2393 -0.7640  0.2469
   20CHTO   C66 8266   6.159   2.937   0.953  0.4632 -0.5766 -0.1963
   20CHTO  H123 8267   6.165   2.895   0.853 -0.3873  0.1708 -0.5718
   20CHTO   N12 8268   6.301   2.933   1.004  0.4591  0.3241  0.1813
   20CHTO  H110 8269   6.293   2.951   1.110  2.1788  0.2168  0.3552
   20CHTO  H111 8270   6.356   3.013   0.956 -3.2379  2.0288 -1.3619
   20CHTO   C69 8271   6.066   2.838   1.030  0.0921 -0.0366 -0.2831
   20CHTO  H126 8272   6.065   2.874   1.135 -2.3047  2.7853 -1.2273
   20CHTO   O41 8273   5.916   2.856   0.962  0.2100  0.5930  0.0652
   20CHTO   C64 8274   5.864   2.987   0.955  0.2584 -0.4275  0.1777
   20CHTO  H121 8275   5.847   3.028   1.057  0.8587 -0.7329  0.4006
   20CHTO   C71 8276   5.727   2.980   0.879 -0.1533 -0.5836  0.4969
   20CHTO   O47 8277   5.634   2.906   0.945 -0.1169 -0.3129 -0.1308
   20CHTO  H104 8278   5.547   2.938   0.936  0.3978  1.5035  1.1875
   20CHTO   O34 8279   6.110   2.710   1.029  0.0966 -0.4453 -0.1233
   20CHTO   C49 8280   6.041   2.572   1.071  0.1180  0.2305  0.7361
   20CHTO   H91 8281   5.975   2.537   0.993 -0.9611  1.4496  1.0760
   20CHTO   C47 8282   5.952   2.588   1.200  0.4915  0.4294  0.1764
   20CHTO   H89 8283   5.849   2.619   1.172 -0.0972 -1.9305 -0.3681
   20CHTO   O33 8284   6.014   2.693   1.284 -0.3542 -0.2223 -0.1506
   20CHTO   H70 8285   5.997   2.776   1.245 -0.2996  0.7061  1.7838
   20CHTO   C45 8286   5.953   2.456   1.291 -0.8661  1.1082  0.0951
   20CHTO   H87 8287   6.040   2.455   1.358 -0.6157 -0.6819 -0.2283
   20CHTO    N8 8288   5.832   2.458   1.373  0.4023 -0.8689  0.5940
   20CHTO   H75 8289   5.747   2.435   1.310 -1.5092  3.3413  1.4573
   20CHTO   H76 8290   5.828   2.402   1.465 -1.7759 -3.1883 -0.8477
   20CHTO   C43 8291   5.970   2.322   1.196 -0.7845 -0.4311 -0.7932
   20CHTO   H85 8292   5.969   2.236   1.264  2.5864  0.0923  0.0240
   20CHTO   O29 8293   6.098   2.331   1.126 -0.1080 -0.2351 -0.4817
   20CHTO   C50 8294   6.146   2.465   1.094 -0.2150 -0.5270  0.2305
   20CHTO   H92 8295   6.222   2.505   1.162  0.6011  2.3821 -2.3287
   20CHTO   C54 8296   6.224   2.463   0.964 -0.0785 -0.6810 -0.1253
   20CHTO   O36 8297   6.341   2.391   0.981 -0.6022 -0.5268  0.3853
   20CHTO   H72 8298   6.394   2.431   1.048  0.2760 -1.6149  0.3593
   20CHTO   O27 8299   5.862   2.318   1.101  0.0300  0.3500  0.4095
   20CHTO   C37 8300   5.778   2.262   0.999  0.1784  0.4364 -0.1425
   20CHTO   H79 8301   5.674   2.248   1.032 -0.1752 -1.5963 -2.0497
   20CHTO   C38 8302   5.771   2.368   0.884  0.4302 -0.0963  0.0283
   20CHTO   H80 8303   5.872   2.395   0.849  0.4237 -1.3853 -1.0492
   20CHTO   O31 8304   5.701   2.482   0.924  0.5394  0.5660 -0.2294
   20CHTO   H68 8305   5.720   2.500   1.014 -1.3070 -3.7330  1.1697
   20CHTO   C39 8306   5.703   2.296   0.749 -0.5112 -0.8114 -0.6343
   20CHTO   H81 8307   5.595   2.290   0.762 -0.5241 -1.4071 -0.9671
   20CHTO    N7 8308   5.717   2.375   0.622 -0.1588 -0.2862  0.1334
   20CHTO   H73 8309   5.690   2.312   0.538  0.9311  0.1105 -0.5268
   20CHTO   H74 8310   5.663   2.468   0.623  1.8404  0.9062 -0.4845
   20CHTO   C40 8311   5.750   2.147   0.732 -0.3044  0.0175  0.3718
   20CHTO   H82 8312   5.852   2.143   0.695 -0.1341  0.3564  0.7956
   20CHTO   O26 8313   5.739   2.070   0.856  0.2903  0.6907 -0.3673
   20CHTO   C41 8314   5.833   2.121   0.955  0.1072  0.0990 -0.9397
   20CHTO   H83 8315   5.934   2.119   0.913 -0.0045  1.5551 -1.2914
   20CHTO   C52 8316   5.851   2.019   1.073 -0.0472  0.9756 -0.2714
   20CHTO   O35 8317   5.851   1.870   1.030 -0.1509  0.4583  0.4535
   20CHTO   H71 8318   5.811   1.860   0.946 -1.1543 -1.6754  1.1650
   20CHTO   O28 8319   5.664   2.076   0.645 -0.1829  0.2467 -0.6014
   20CHTO   C42 8320   5.697   1.949   0.578 -0.6926 -0.3610 -0.1900
   20CHTO   H84 8321   5.599   1.915   0.544 -0.8000  0.8108 -1.0905
   20CHTO   C44 8322   5.746   1.834   0.671  0.2023  0.9744 -0.2117
   20CHTO   H86 8323   5.842   1.862   0.714  1.8354 -1.0306 -2.4400
   20CHTO   O32 8324   5.647   1.840   0.774  0.1222  0.7513  0.1024
   20CHTO   H69 8325   5.650   1.918   0.826  1.1757  0.8253 -0.0590
   20CHTO   C48 8326   5.763   1.696   0.593  0.1152  0.6443 -0.3066
   20CHTO   H90 8327   5.664   1.677   0.552  0.6327 -1.1477 -0.7512
   20CHTO    N9 8328   5.800   1.583   0.686  0.3431 -0.0022 -0.2404
   20CHTO   H77 8329   5.884   1.611   0.746  1.7056 -2.6657 -0.8059
   20CHTO   H78 8330   5.815   1.484   0.645 -1.2202 -1.9541  3.6357
   20CHTO   C51 8331   5.868   1.723   0.483  0.0526 -0.5909 -0.1244
   20CHTO   H93 8332   5.957   1.763   0.534  0.2294 -3.3050  1.8174
   20CHTO   O30 8333   5.814   1.820   0.393 -0.1145  0.0936 -0.2567
   20CHTO   C46 8334   5.785   1.964   0.454  0.4333 -0.1141 -0.0319
   20CHTO   H88 8335   5.877   2.011   0.487  0.7436 -0.9778  0.3706
   20CHTO   C53 8336   5.714   2.050   0.350  0.0706  0.2957 -0.2339
   20CHTO   O72 8337   5.786   2.055   0.233 -0.3674 -0.0122 -0.2740
   20CHTO  H199 8338   5.778   1.972   0.190  0.7023 -1.0010  1.3850
   20CHTO   O22 8339   5.893   1.616   0.396 -0.5134  0.6897  0.6752
   20CHTO   C31 8340   6.035   1.613   0.338  0.5002  0.4645  0.4101
   20CHTO   H59 8341   6.025   1.613   0.227  2.2364 -1.2384  0.2164
   20CHTO   C29 8342   6.141   1.725   0.372  0.5481 -0.3612  0.2309
   20CHTO   H57 8343   6.162   1.723   0.480  2.8280 -0.0852 -0.1679
   20CHTO   O21 8344   6.083   1.851   0.338 -0.4073 -0.0456 -0.4003
   20CHTO   H37 8345   6.017   1.875   0.401  0.4016  1.7721 -0.2134
   20CHTO   C27 8346   6.286   1.711   0.300 -0.2214 -0.2602  0.4907
   20CHTO   H55 8347   6.267   1.720   0.192 -2.1223 -3.9185  0.4287
   20CHTO    N5 8348   6.385   1.811   0.343  0.4981  0.1178  0.5090
   20CHTO   H43 8349   6.380   1.897   0.278  0.7010 -0.0506  0.2675
   20CHTO   H44 8350   6.356   1.859   0.435 -1.8868 -2.0351  0.9081
   20CHTO   C25 8351   6.333   1.561   0.327 -0.2434 -0.1959  0.3935
   20CHTO   H53 8352   6.376   1.546   0.427 -1.1276 -0.5623  0.7221
   20CHTO   O17 8353   6.236   1.461   0.303  0.5552  0.4019 -0.4919
   20CHTO   C32 8354   6.113   1.477   0.372 -0.2235  0.1108  0.2282
   20CHTO   H60 8355   6.117   1.462   0.480 -1.9456  0.1378  0.3173
   20CHTO   C36 8356   6.013   1.358   0.338 -0.2696  0.2363  0.2600
   20CHTO   O25 8357   5.898   1.342   0.415  0.2308  0.4760 -0.3590
   20CHTO   H40 8358   5.841   1.278   0.377  0.5483 -0.3441  0.5248
   20CHTO   O15 8359   6.438   1.520   0.214 -0.2684  0.4096 -0.0579
   20CHTO   C19 8360   6.566   1.476   0.162  0.0030 -0.8184 -0.1369
   20CHTO   H47 8361   6.544   1.438   0.061 -0.4928 -1.6671  0.2926
   20CHTO   C20 8362   6.664   1.596   0.148  0.6827  0.6241  0.5296
   20CHTO   H48 8363   6.696   1.637   0.245  0.0249 -0.2216  1.0995
   20CHTO   O19 8364   6.595   1.705   0.081 -0.1696  0.1847  0.0862
   20CHTO   H35 8365   6.654   1.733   0.014  2.5626  0.3134  2.4758
   20CHTO   C21 8366   6.801   1.556   0.086  0.5808  0.3335 -0.5248
   20CHTO   H49 8367   6.782   1.533  -0.019  1.0270  1.2118 -0.8018
   20CHTO    N4 8368   6.900   1.660   0.074 -0.1595 -0.2444 -0.6001
   20CHTO   H41 8369   6.999   1.620   0.060  0.6978  2.2160 -1.8153
   20CHTO   H42 8370   6.882   1.733  -0.004 -2.0983  0.2124  0.2401
   20CHTO   C22 8371   6.857   1.433   0.160 -0.0285  0.8338  0.1741
   20CHTO   H50 8372   6.918   1.462   0.245  0.3447  1.4035 -0.2831
   20CHTO   O14 8373   6.763   1.335   0.190 -0.3527  0.1020  0.2175
   20CHTO   C23 8374   6.634   1.355   0.242 -0.0456 -0.4139 -1.1289
   20CHTO   H51 8375   6.623   1.364   0.351  3.1445  0.0750 -0.8052
   20CHTO   C34 8376   6.541   1.231   0.206  0.7284 -0.6572  0.5846
   20CHTO   O23 8377   6.405   1.224   0.254 -0.5698  0.0349 -0.1024
   20CHTO   H38 8378   6.392   1.138   0.290  1.3110 -0.1313  0.2356
   20CHTO   O16 8379   6.929   1.345   0.067  0.2384 -0.1333 -0.5605
   20CHTO   C24 8380   7.043   1.250   0.133  0.6531  0.1784  1.0590
   20CHTO   H52 8381   7.019   1.217   0.234  0.4975 -1.2391  0.5722
   20CHTO   C26 8382   7.176   1.324   0.127 -0.2663 -0.6966 -0.6649
   20CHTO   H54 8383   7.201   1.360   0.025  0.5188 -1.0256 -0.5924
   20CHTO   O20 8384   7.170   1.447   0.203  0.1787  0.3800  0.3385
   20CHTO   H36 8385   7.247   1.501   0.200 -0.3809  1.1058 -2.2065
   20CHTO   C30 8386   7.287   1.229   0.187  0.3763  0.2283 -0.2346
   20CHTO   H58 8387   7.265   1.220   0.294  0.1029 -2.4137 -0.4652
   20CHTO    N6 8388   7.420   1.289   0.167 -0.0660  0.0254 -0.5007
   20CHTO   H45 8389   7.476   1.241   0.246 -3.3483  1.0080  2.5757
   20CHTO   H46 8390   7.429   1.394   0.192  1.5189 -0.9570  3.5140
   20CHTO   C33 8391   7.288   1.088   0.121 -0.1543 -0.5992  0.3964
   20CHTO   H61 8392   7.338   1.091   0.023  0.3330 -0.1956  0.6557
   20CHTO   O18 8393   7.156   1.043   0.114  0.3408  0.1550  0.0973
   20CHTO   C28 8394   7.061   1.126   0.049 -0.1306 -0.2941  0.0273
   20CHTO   H56 8395   7.084   1.158  -0.052 -1.7730  0.1394 -0.2241
   20CHTO   C35 8396   6.920   1.047   0.027  0.2263 -0.2360 -0.5797
   20CHTO   O24 8397   6.951   0.944  -0.068  0.4296  0.1571  0.0752
   20CHTO   H39 8398   7.005   0.979  -0.137  1.1346  0.5798  0.8390
   20CHTO    O9 8399   7.369   0.991   0.195  0.4566 -0.6658 -0.5591
   20CHTO   C13 8400   7.334   0.828   0.229  0.1060  0.0476 -0.0812
   20CHTO   H26 8401   7.425   0.793   0.281  0.4452  1.1690  0.1043
   20CHTO   C11 8402   7.300   0.744   0.096 -0.4594 -0.2588 -0.0178
   20CHTO   H24 8403   7.397   0.718   0.053 -0.7673 -1.4755 -0.0184
   20CHTO    O8 8404   7.220   0.808  -0.001 -0.7582  0.0826  0.4576
   20CHTO    H3 8405   7.241   0.766  -0.082  2.0251  0.2300  1.0581
   20CHTO    C9 8406   7.235   0.613   0.138 -0.0590 -0.4551  1.0260
   20CHTO   H22 8407   7.298   0.571   0.219 -0.3805  1.7069  2.4573
   20CHTO    N2 8408   7.228   0.511   0.029 -0.4659  0.4375  0.4490
   20CHTO   H10 8409   7.161   0.530  -0.054  0.1651  0.4221 -0.0719
   20CHTO   H11 8410   7.204   0.415   0.073 -1.5003 -0.0621 -1.1506
   20CHTO    C7 8411   7.103   0.642   0.215 -0.3092  0.3568 -0.3489
   20CHTO   H20 8412   7.099   0.561   0.291  1.0215 -1.1410 -1.8326
   20CHTO    O4 8413   7.097   0.767   0.289  0.0924  0.1597 -0.1201
   20CHTO   C14 8414   7.223   0.816   0.338  0.4637  0.2834 -0.0202
   20CHTO   H27 8415   7.260   0.736   0.406  0.1997  0.2800  0.1218
   20CHTO   C18 8416   7.202   0.943   0.419  0.3339 -0.0501 -0.2199
   20CHTO   O13 8417   7.107   0.911   0.526  0.0801 -0.3492  0.0264
   20CHTO    H7 8418   7.025   0.888   0.485  0.4456  0.1218 -0.9883
   20CHTO    O2 8419   6.965   0.628   0.122  0.4840  0.0934 -0.2046
   20CHTO    C1 8420   6.858   0.535   0.161  0.4332 -0.3064  0.3260
   20CHTO   H14 8421   6.845   0.558   0.269 -0.8840  1.1901 -0.1285
   20CHTO    C2 8422   6.877   0.379   0.141 -0.0621 -0.1162  0.2394
   20CHTO   H15 8423   6.899   0.363   0.034 -0.4411 -0.6794  0.2427
   20CHTO    O6 8424   6.984   0.330   0.220 -0.0731 -0.5153  0.1436
   20CHTO    H1 8425   6.962   0.335   0.311 -1.5057  0.5792 -0.2618
   20CHTO    C3 8426   6.738   0.299   0.178 -0.0706  0.7035 -0.0133
   20CHTO   H16 8427   6.724   0.309   0.286  3.3069  0.4805  0.5007
   20CHTO    N1 8428   6.748   0.151   0.153  0.0386  0.5068  0.2526
   20CHTO    H8 8429   6.655   0.118   0.111  1.6779  1.1203 -4.1124
   20CHTO    H9 8430   6.776   0.101   0.245 -0.6440 -1.9437 -0.8086
   20CHTO    C4 8431   6.611   0.367   0.113 -0.0500  0.0842 -0.4008
   20CHTO   H17 8432   6.608   0.344   0.007  2.0533 -0.4485 -0.3573
   20CHTO    O1 8433   6.618   0.506   0.125  0.2108 -0.1274 -0.6251
   20CHTO    C5 8434   6.735   0.569   0.078  0.3969 -0.1690  0.0662
   20CHTO   H18 8435   6.765   0.550  -0.025  0.1040 -2.2558  0.3595
   20CHTO   C16 8436   6.699   0.722   0.097 -0.3226  0.2842  0.0193
   20CHTO   O11 8437   6.573   0.761   0.033 -0.3443  0.3882  0.3935
   20CHTO    H5 8438   6.549   0.840   0.078  0.6728  0.8772  0.0870
   20CHTO    O3 8439   6.488   0.331   0.180  0.0079  0.3415  0.3692
   20CHTO    C6 8440   6.354   0.362   0.122  0.0659  0.2240 -0.1865
   20CHTO   H19 8441   6.352   0.440   0.045 -0.7759  0.6127  0.2185
   20CHTO    C8 8442   6.303   0.230   0.061 -0.4154 -0.0678  0.2737
   20CHTO   H21 8443   6.301   0.157   0.141 -0.7382 -1.3234 -0.8536
   20CHTO    O7 8444   6.389   0.188  -0.049  0.3035 -0.2604  0.4217
   20CHTO    H2 8445   6.475   0.167  -0.017 -0.0221 -0.6597  1.0336
   20CHTO   C12 8446   6.158   0.246   0.013 -0.2880  0.0501  0.2354
   20CHTO   H25 8447   6.162   0.313  -0.075  0.3463 -0.4269 -0.1057
   20CHTO    N3 8448   6.106   0.108  -0.028  0.2433  0.2842 -0.3104
   20CHTO   H12 8449   6.002   0.112  -0.059  0.6369  1.2985 -1.5133
   20CHTO   H13 8450   6.118   0.044   0.058  1.2704 -0.7330 -1.2062
   20CHTO   C15 8451   6.069   0.318   0.119 -0.1857  0.0176 -0.9146
   20CHTO   H28 8452   6.040   0.253   0.202  0.5921  0.8757  0.0367
   20CHTO   O10 8453   5.949   0.365   0.056 -0.2709 -0.3918 -0.2826
   20CHTO    H4 8454   5.877   0.317   0.094  0.0423 -1.4771 -1.0524
   20CHTO    O5 8455   6.133   0.439   0.171  0.4968 -0.2274 -0.1593
   20CHTO   C10 8456   6.258   0.413   0.234 -0.5528  0.9295 -0.2857
   20CHTO   H23 8457   6.261   0.337   0.311  0.9382  0.4627 -0.7774
   20CHTO   C17 8458   6.290   0.550   0.302  0.5594 -0.0804 -0.4620
   20CHTO   O12 8459   6.363   0.630   0.205  1.1829 -0.0565  0.3301
   20CHTO    H6 8460   6.404   0.699   0.254 -2.0396  2.1111  0.1090
   21GLOH   H03 8461   9.601   3.770   2.135  0.3348 -0.0477  0.0334
   21GLOH    O1 8462   9.669   3.706   2.108 -0.1000 -0.4846 -0.0316
   21GLOH    C1 8463   9.786   3.783   2.081 -0.6484  0.0268 -0.9716
   21GLOH   H02 8464   9.763   3.846   1.995  1.3441  1.1469 -0.7090
   21GLOH   H08 8465   9.862   3.717   2.041  0.6433  0.2287  1.0639
   21GLOH    C2 8466   9.843   3.844   2.211  0.2733 -0.6848  0.0203
   21GLOH   H04 8467   9.764   3.896   2.268  0.1103 -0.2277 -0.6135
   21GLOH    O2 8468   9.902   3.745   2.300  0.0461 -0.3372  0.4561
   21GLOH   H05 8469   9.838   3.683   2.339  1.8177 -1.9143  0.9758
   21GLOH    C3 8470   9.948   3.945   2.166  0.0028  0.3691 -0.2338
   21GLOH   H06 8471  10.025   3.899   2.103 -1.2434 -2.4926  0.2575
   21GLOH   H07 8472   9.988   3.982   2.260 -1.5128 -0.4280  0.7503
   21GLOH    O3 8473   9.889   4.054   2.097 -0.5561  0.1479  0.2832
   21GLOH   H01 8474   9.855   4.120   2.160  1.9501 -0.6767  2.6186
   22GLOH   H03 8475   3.462   1.446   0.462 -0.6297  0.4767 -2.0820
   22GLOH    O1 8476   3.555   1.419   0.455 -0.5291  0.2784 -0.3105
   22GLOH    C1 8477   3.589   1.417   0.317 -0.3327  0.3941 -0.2416
   22GLOH   H02 8478   3.562   1.507   0.262  0.4081  0.2920 -0.7910
   22GLOH   H08 8479   3.534   1.343   0.260  0.0215  0.7111 -1.0110
   22GLOH    C2 8480   3.740   1.386   0.316  0.1358 -0.1998 -0.0855
   22GLOH   H04 8481   3.754   1.293   0.374  0.9475  0.2955  0.5221
   22GLOH    O2 8482   3.782   1.366   0.180 -0.5550  0.1177 -0.1953
   22GLOH   H05 8483   3.819   1.278   0.164 -0.4349 -0.2775  2.1325
   22GLOH    C3 8484   3.828   1.491   0.385 -0.4711 -0.0400  0.3748
   22GLOH   H06 8485   3.779   1.533   0.472 -0.6403  0.3263  0.1068
   22GLOH   H07 8486   3.835   1.580   0.321  3.3789 -0.0607  0.6697
   22GLOH    O3 8487   3.960   1.446   0.418 -0.2405  0.4604 -0.0709
   22GLOH   H01 8488   4.014   1.525   0.433 -0.6602  0.6648  0.3733
   23GLOH   H03 8489   0.882   4.913   0.525 -1.6833  1.1722  1.7957
   23GLOH    O1 8490   0.958   4.908   0.585 -0.1854  0.3469 -0.1310
   23GLOH    C1 8491   0.904   4.851   0.708  0.1598 -0.1810  0.1573
   23GLOH   H02 8492   0.895   4.743   0.693 -2.8883  0.0584 -0.0456
   23GLOH   H08 8493   0.801   4.886   0.719  0.1887  0.2162 -0.7555
   23GLOH    C2 8494   0.998   4.871   0.834  0.5668 -0.1888  0.7396
   23GLOH   H04 8495   1.031   4.975   0.833 -0.1939  0.1089  2.7900
   23GLOH    O2 8496   0.916   4.853   0.954  0.0257  0.3831  0.2207
   23GLOH   H05 8497   0.852   4.926   0.958 -0.0021  0.2436  2.5669
   23GLOH    C3 8498   1.116   4.769   0.845 -0.3221  0.1493 -0.0905
   23GLOH   H06 8499   1.075   4.672   0.872 -0.6453  0.1265 -0.6554
   23GLOH   H07 8500   1.176   4.807   0.928 -0.1293  0.7835 -0.5133
   23GLOH    O3 8501   1.201   4.762   0.730  0.0400  0.2969 -0.5816
   23GLOH   H01 8502   1.221   4.855   0.709  1.7680  0.0973  0.1393
   24GLOH   H03 8503   9.352   4.820   2.608 -2.5010  0.4580 -0.0743
   24GLOH    O1 8504   9.358   4.873   2.690  0.7175  0.0377  0.0184
   24GLOH    C1 8505   9.221   4.890   2.725  0.5815  0.4057  0.3206
   24GLOH   H02 8506   9.160   4.824   2.663  1.1862  0.7566 -0.6655
   24GLOH   H08 8507   9.190   4.991   2.698  0.4308  0.4499  0.6578
   24GLOH    C2 8508   9.189   4.870   2.877 -0.0183  0.5686  0.0792
   24GLOH   H04 8509   9.082   4.891   2.893 -0.1663  0.8213 -1.1326
   24GLOH    O2 8510   9.209   4.735   2.929  0.0312  0.0257 -0.5934
   24GLOH   H05 8511   9.295   4.702   2.900  0.5847 -0.6556  1.6723
   24GLOH    C3 8512   9.281   4.959   2.954 -0.2368  0.1605 -0.4375
   24GLOH   H06 8513   9.380   4.921   2.928 -0.1378 -1.0593  1.6328
   24GLOH   H07 8514   9.272   4.935   3.060  0.1778  0.0967 -0.4176
   24GLOH    O3 8515   9.269   5.105   2.937 -0.1002 -0.0026 -0.2091
   24GLOH   H01 8516   9.340   5.163   2.971 -1.3339  0.7661  1.0747
   25GLOH   H03 8517   1.583   4.658   2.033  0.1612  1.4226 -2.5360
   25GLOH    O1 8518   1.676   4.681   2.054  0.1684 -0.4257 -0.2859
   25GLOH    C1 8519   1.782   4.595   2.015  0.6134  0.6520 -0.4358
   25GLOH   H02 8520   1.756   4.489   2.010  2.6295  0.2108 -3.0415
   25GLOH   H08 8521   1.853   4.609   2.097 -0.0785  0.5846  0.1744
   25GLOH    C2 8522   1.829   4.625   1.868  0.2574 -0.1939 -0.4179
   25GLOH   H04 8523   1.896   4.711   1.881 -0.8413  0.9015 -1.8545
   25GLOH    O2 8524   1.915   4.521   1.810  0.0249  0.1937 -0.3370
   25GLOH   H05 8525   1.975   4.495   1.882 -0.1215  0.9084  0.0434
   25GLOH    C3 8526   1.716   4.671   1.773  0.2464  0.2150  0.4314
   25GLOH   H06 8527   1.696   4.773   1.804  0.5490  0.5410 -0.4145
   25GLOH   H07 8528   1.633   4.606   1.802 -0.2124 -0.2332 -1.7191
   25GLOH    O3 8529   1.748   4.678   1.632 -0.4801  0.5705 -0.5030
   25GLOH   H01 8530   1.728   4.587   1.602  0.3318 -0.1288  1.0149
   26GLOH   H03 8531  10.364   4.122   1.090  0.2792  0.4583 -0.8129
   26GLOH    O1 8532  10.304   4.192   1.058  0.0527  0.5850 -0.1341
   26GLOH    C1 8533  10.260   4.280   1.168  0.6913 -0.4842 -0.3177
   26GLOH   H02 8534  10.348   4.326   1.214 -0.6424  1.0220  0.7771
   26GLOH   H08 8535  10.226   4.218   1.251  3.7502  0.8411  2.0179
   26GLOH    C2 8536  10.159   4.389   1.122  1.5546  0.0343 -1.1689
   26GLOH   H04 8537  10.076   4.329   1.082  0.6166 -1.0702  2.2578
   26GLOH    O2 8538  10.105   4.475   1.223  0.5281  0.9733 -0.5393
   26GLOH   H05 8539  10.056   4.542   1.172  1.5191  1.9545 -0.2251
   26GLOH    C3 8540  10.231   4.465   1.007 -0.1807 -0.0522 -1.0125
   26GLOH   H06 8541  10.321   4.513   1.045 -0.0670 -1.2773  0.3176
   26GLOH   H07 8542  10.170   4.544   0.963  0.8657 -0.1585 -2.6684
   26GLOH    O3 8543  10.255   4.372   0.901  0.0144 -0.1239  0.0497
   26GLOH   H01 8544  10.287   4.285   0.930  1.1767  0.1136 -0.5045
   27GLOH   H03 8545   1.425   4.246   2.043  0.7339 -0.6160  1.0663
   27GLOH    O1 8546   1.348   4.207   2.088 -0.2423  0.1363  0.0801
   27GLOH    C1 8547   1.240   4.302   2.085 -0.6246  0.0906 -0.8400
   27GLOH   H02 8548   1.151   4.240   2.081  0.6142 -1.6847 -1.8650
   27GLOH   H08 8549   1.244   4.361   1.994  1.8474 -0.7931 -1.3386
   27GLOH    C2 8550   1.229   4.399   2.207  0.4106 -0.0853 -0.0369
   27GLOH   H04 8551   1.230   4.327   2.290 -0.6303 -1.2262 -0.9947
   27GLOH    O2 8552   1.343   4.486   2.211  0.0327 -0.1500 -0.7583
   27GLOH   H05 8553   1.385   4.490   2.299 -0.4739  3.0928 -0.5761
   27GLOH    C3 8554   1.104   4.481   2.178 -0.0652 -0.0961  0.7953
   27GLOH   H06 8555   1.138   4.543   2.095  1.0341 -0.2016  1.1546
   27GLOH   H07 8556   1.083   4.551   2.259 -2.2313  0.0198  0.1554
   27GLOH    O3 8557   0.979   4.412   2.138 -0.0267  0.3321 -0.1170
   27GLOH   H01 8558   0.930   4.483   2.092  0.0827 -0.5107 -1.5681
   28GLOH   H03 8559   1.398   3.230   0.558 -1.8007 -0.1850 -0.4773
   28GLOH    O1 8560   1.371   3.250   0.649 -0.1446 -0.2016  0.0351
   28GLOH    C1 8561   1.279   3.358   0.646  0.2180  0.4941  0.4289
   28GLOH   H02 8562   1.334   3.443   0.605  1.2656 -0.0409  0.6905
   28GLOH   H08 8563   1.250   3.394   0.745 -0.1775  2.0684 -0.2545
   28GLOH    C2 8564   1.150   3.320   0.568 -0.2922  0.2609  0.1311
   28GLOH   H04 8565   1.185   3.301   0.466  1.2858  2.0039  0.3285
   28GLOH    O2 8566   1.089   3.197   0.621  0.1617  0.1222  0.7830
   28GLOH   H05 8567   1.162   3.149   0.663  0.7549  1.6126  1.4741
   28GLOH    C3 8568   1.067   3.450   0.558 -0.0494 -0.7778 -0.2042
   28GLOH   H06 8569   1.017   3.465   0.654  3.8130  0.0012  1.8036
   28GLOH   H07 8570   0.988   3.426   0.487  0.3126 -1.9709 -0.2071
   28GLOH    O3 8571   1.150   3.563   0.522 -0.4549  0.5430  0.1055
   28GLOH   H01 8572   1.088   3.628   0.484 -1.2204 -0.7479 -0.9057
   29GLOH   H03 8573   2.796   2.674   0.934 -1.4258 -0.0910 -0.8420
   29GLOH    O1 8574   2.788   2.584   0.969 -0.3371  0.1181  0.0004
   29GLOH    C1 8575   2.826   2.490   0.864 -0.3915 -0.1829  0.2996
   29GLOH   H02 8576   2.807   2.526   0.763  3.3165  0.4623 -0.2238
   29GLOH   H08 8577   2.767   2.399   0.878  0.1151 -0.6225 -0.4103
   29GLOH    C2 8578   2.971   2.458   0.869  0.0128 -0.1150  0.0311
   29GLOH   H04 8579   2.995   2.376   0.939  0.0707 -0.3811 -0.2983
   29GLOH    O2 8580   3.008   2.403   0.738 -0.1728 -0.1596  0.0185
   29GLOH   H05 8581   2.964   2.319   0.718 -1.0921  1.0414 -3.4838
   29GLOH    C3 8582   3.062   2.576   0.916 -0.1248  0.3520  0.3665
   29GLOH   H06 8583   3.162   2.538   0.934 -0.7853 -0.1574  3.1390
   29GLOH   H07 8584   3.016   2.613   1.007 -1.9135  2.2480 -1.2452
   29GLOH    O3 8585   3.065   2.681   0.819  0.4795 -0.9106  0.2102
   29GLOH   H01 8586   2.980   2.727   0.826  0.7817 -0.3945  0.4946
   30GLOH   H03 8587   2.812   7.575   2.841 -1.1883  2.6678 -1.1605
   30GLOH    O1 8588   2.860   7.630   2.905  0.0122  0.4032 -0.0380
   30GLOH    C1 8589   2.992   7.663   2.863 -0.5068  0.6525 -0.3224
   30GLOH   H02 8590   3.049   7.583   2.815  1.5567  0.9137  1.5822
   30GLOH   H08 8591   3.049   7.676   2.955  0.3766  1.0777 -0.9173
   30GLOH    C2 8592   2.995   7.799   2.786 -1.1031  0.2619  0.0901
   30GLOH   H04 8593   2.936   7.876   2.836 -0.2488  0.5500  0.6587
   30GLOH    O2 8594   3.133   7.839   2.758 -0.2067  0.1455 -0.2979
   30GLOH   H05 8595   3.148   7.822   2.663  0.7741 -1.9664  0.2074
   30GLOH    C3 8596   2.940   7.784   2.644 -0.7097  0.4895  1.0477
   30GLOH   H06 8597   2.919   7.886   2.611 -1.6865 -0.7149 -2.2861
   30GLOH   H07 8598   2.846   7.732   2.657  0.8521 -2.9602 -0.6750
   30GLOH    O3 8599   3.035   7.727   2.550 -0.0988 -0.1927  0.4832
   30GLOH   H01 8600   2.989   7.686   2.474 -1.3147  1.0156  0.5594
   31GLOH   H03 8601   4.223   9.514   1.729  0.9174 -0.3929 -0.0292
   31GLOH    O1 8602   4.178   9.491   1.812  0.2604 -0.0686 -0.2908
   31GLOH    C1 8603   4.054   9.424   1.775  1.0577  0.3789 -0.4388
   31GLOH   H02 8604   4.043   9.418   1.667  0.1373 -1.7573 -0.2495
   31GLOH   H08 8605   3.963   9.466   1.818  1.7097 -0.4834  1.8633
   31GLOH    C2 8606   4.066   9.277   1.821  0.4501 -0.2606  0.1128
   31GLOH   H04 8607   4.165   9.240   1.789  0.2845 -1.7612  1.3004
   31GLOH    O2 8608   4.034   9.242   1.956 -0.1350  0.4284 -0.3886
   31GLOH   H05 8609   4.103   9.270   2.019  1.5886  1.1726 -2.5209
   31GLOH    C3 8610   3.972   9.183   1.742 -0.5159 -0.1443  0.1578
   31GLOH   H06 8611   3.869   9.205   1.771  0.4098  2.9297  1.2656
   31GLOH   H07 8612   3.997   9.085   1.782  0.6250  0.3139  0.5763
   31GLOH    O3 8613   3.992   9.194   1.599 -0.4061 -0.4463  0.3551
   31GLOH   H01 8614   3.935   9.133   1.550  1.3746  0.3494 -2.8407
   32GLOH   H03 8615   3.099   2.849   0.410 -0.3522 -0.5287 -1.7620
   32GLOH    O1 8616   3.030   2.907   0.449  0.5030 -0.8140  0.2196
   32GLOH    C1 8617   2.923   2.909   0.355  0.0500  0.6310  0.0514
   32GLOH   H02 8618   2.859   2.821   0.357  0.8049  0.0656 -0.3198
   32GLOH   H08 8619   2.961   2.930   0.255 -1.1004 -0.3221 -0.6075
   32GLOH    C2 8620   2.834   3.032   0.377  0.9466  0.3954 -0.8578
   32GLOH   H04 8621   2.755   3.036   0.300 -0.9862  1.3778  1.1240
   32GLOH    O2 8622   2.768   3.017   0.502 -0.3086 -0.6201 -0.0418
   32GLOH   H05 8623   2.816   3.038   0.584 -2.4577  0.1397  1.0536
   32GLOH    C3 8624   2.899   3.168   0.372 -0.3333  0.2768  0.9608
   32GLOH   H06 8625   2.831   3.248   0.401 -0.6489 -0.0354  1.0914
   32GLOH   H07 8626   2.921   3.188   0.267 -1.6599 -1.8907  0.2334
   32GLOH    O3 8627   3.013   3.184   0.462 -0.0019 -0.1477 -0.0088
   32GLOH   H01 8628   3.050   3.098   0.488  0.7512  0.5365  1.2470
   33GLOH   H03 8629   3.479   5.184   1.575 -0.4178 -1.3134 -0.5006
   33GLOH    O1 8630   3.432   5.105   1.542 -0.0160 -1.5326 -0.5536
   33GLOH    C1 8631   3.386   5.116   1.405  0.0365 -0.4893  0.0846
   33GLOH   H02 8632   3.468   5.162   1.349 -1.8066  0.6789 -1.7528
   33GLOH   H08 8633   3.293   5.173   1.400  0.1992 -0.1719  0.7187
   33GLOH    C2 8634   3.359   4.987   1.335  0.3589  0.6382 -0.4388
   33GLOH   H04 8635   3.313   5.002   1.237  1.2686 -0.6787 -1.0954
   33GLOH    O2 8636   3.471   4.901   1.322  0.0454 -0.0544 -0.4119
   33GLOH   H05 8637   3.548   4.961   1.322  0.7090 -0.8014  2.6242
   33GLOH    C3 8638   3.255   4.909   1.412  0.9916  0.1605  0.3218
   33GLOH   H06 8639   3.290   4.882   1.511 -1.8963 -3.4818  0.4687
   33GLOH   H07 8640   3.227   4.813   1.367 -1.8816 -0.3609  3.0440
   33GLOH    O3 8641   3.133   4.993   1.412 -0.0479  0.3088  0.3246
   33GLOH   H01 8642   3.121   5.007   1.316  0.7192  0.5932  0.2635
   34GLOH   H03 8643   3.262   2.220   1.422 -0.1334 -0.0908  1.5407
   34GLOH    O1 8644   3.214   2.303   1.437 -0.3724  0.0949 -0.1705
   34GLOH    C1 8645   3.143   2.338   1.320 -0.1383 -0.2310 -0.1399
   34GLOH   H02 8646   3.116   2.251   1.260  0.0100  0.5069 -1.3108
   34GLOH   H08 8647   3.200   2.406   1.257 -0.5100 -0.1911 -0.4374
   34GLOH    C2 8648   3.006   2.396   1.359  0.0321  0.0411  0.2073
   34GLOH   H04 8649   3.026   2.480   1.426  2.4101  1.1046 -1.7680
   34GLOH    O2 8650   2.955   2.426   1.229 -0.0341  0.4642  0.7250
   34GLOH   H05 8651   2.962   2.521   1.210  0.2145  0.3155  0.0705
   34GLOH    C3 8652   2.919   2.282   1.420 -0.1517  0.3165 -0.4664
   34GLOH   H06 8653   2.977   2.228   1.495 -1.1688 -2.5370 -1.6442
   34GLOH   H07 8654   2.895   2.210   1.342 -0.6305  1.7536 -1.6661
   34GLOH    O3 8655   2.801   2.324   1.483  0.8415 -0.4492 -0.2535
   34GLOH   H01 8656   2.725   2.309   1.424  0.8949  0.9862 -0.7153
   35GLOH   H03 8657   3.186   5.696   0.595 -1.6610  0.4178  1.7103
   35GLOH    O1 8658   3.137   5.641   0.532  0.2025  0.2676  0.3571
   35GLOH    C1 8659   3.128   5.500   0.566  0.1177 -0.6962  0.2030
   35GLOH   H02 8660   3.074   5.447   0.488  0.7011 -1.3719  0.2578
   35GLOH   H08 8661   3.070   5.482   0.656  0.0537 -0.5990  0.1816
   35GLOH    C2 8662   3.264   5.427   0.557 -0.8619  0.1955  0.2259
   35GLOH   H04 8663   3.304   5.443   0.456  2.2466  3.6889  1.8880
   35GLOH    O2 8664   3.366   5.485   0.644 -0.0923  0.3977 -0.0763
   35GLOH   H05 8665   3.321   5.520   0.723 -0.5552 -1.5896  0.5869
   35GLOH    C3 8666   3.253   5.275   0.583  0.4329  0.3947  0.2895
   35GLOH   H06 8667   3.214   5.256   0.683 -1.2901  1.3054 -0.1869
   35GLOH   H07 8668   3.356   5.240   0.583  0.6078  0.8473  2.0991
   35GLOH    O3 8669   3.169   5.217   0.480 -0.0691  0.0734 -0.1840
   35GLOH   H01 8670   3.209   5.242   0.395  0.4771 -2.2278 -0.6086
   36GLOH   H03 8671  10.192   3.822   1.161 -0.3340  0.3652  0.1365
   36GLOH    O1 8672  10.128   3.835   1.089 -0.3816  0.0701  0.1273
   36GLOH    C1 8673  10.057   3.961   1.119 -0.2535  0.5054  0.2594
   36GLOH   H02 8674  10.130   4.028   1.163 -1.5452  3.3657 -1.7378
   36GLOH   H08 8675   9.987   3.941   1.200 -1.6931 -1.6314 -1.4425
   36GLOH    C2 8676   9.991   4.023   0.999 -0.4350  0.4905  0.2337
   36GLOH   H04 8677   9.908   3.958   0.966 -1.4458  1.5821  0.6149
   36GLOH    O2 8678   9.936   4.144   1.027  0.9595 -0.0710 -0.0600
   36GLOH   H05 8679   9.867   4.144   1.097  0.2585  0.3173 -0.7488
   36GLOH    C3 8680  10.092   4.039   0.887  0.3068  0.1400 -0.0243
   36GLOH   H06 8681  10.138   4.136   0.906 -1.4420  1.5401 -2.6865
   36GLOH   H07 8682  10.036   4.048   0.794 -0.2088  1.4173  0.4075
   36GLOH    O3 8683  10.179   3.926   0.875 -0.1176 -0.2668 -0.4006
   36GLOH   H01 8684  10.192   3.882   0.961  3.2586  1.0855 -0.1510
   37GLOH   H03 8685   4.180   5.293   2.222  0.2466 -1.4250  1.5897
   37GLOH    O1 8686   4.125   5.351   2.278  0.4029  0.2470  0.0525
   37GLOH    C1 8687   4.130   5.306   2.411  0.4332 -0.3119 -0.6103
   37GLOH   H02 8688   4.151   5.394   2.471  0.7264  1.0476 -2.6350
   37GLOH   H08 8689   4.209   5.232   2.429 -0.1038 -0.4373  1.3753
   37GLOH    C2 8690   3.994   5.246   2.450 -0.1898  0.3078  0.1356
   37GLOH   H04 8691   3.963   5.172   2.376  0.9902 -0.4688  0.4015
   37GLOH    O2 8692   4.011   5.176   2.582  0.5089 -0.1564 -0.1172
   37GLOH   H05 8693   3.944   5.204   2.646 -0.8833 -0.4946 -1.4007
   37GLOH    C3 8694   3.880   5.347   2.461  0.4771 -0.2061 -0.2323
   37GLOH   H06 8695   3.910   5.426   2.531 -1.7013 -0.1521  0.6633
   37GLOH   H07 8696   3.795   5.304   2.514  1.0835 -1.3921 -0.2221
   37GLOH    O3 8697   3.845   5.398   2.330  0.2444  0.6914 -0.6313
   37GLOH   H01 8698   3.917   5.391   2.265  0.9611 -1.2348  0.3341
   38GLOH   H03 8699   0.534   4.352   0.876  1.0148 -0.5104 -0.0749
   38GLOH    O1 8700   0.516   4.259   0.855  0.1926 -0.3088 -0.2743
   38GLOH    C1 8701   0.617   4.175   0.921  0.4520 -0.5141 -0.0350
   38GLOH   H02 8702   0.625   4.207   1.025 -0.2725 -1.2412  0.2458
   38GLOH   H08 8703   0.712   4.207   0.878  0.7745 -2.0644 -0.5030
   38GLOH    C2 8704   0.615   4.021   0.917  0.2343 -0.0903  0.5735
   38GLOH   H04 8705   0.612   3.994   0.810 -0.4492 -1.0312  0.8294
   38GLOH    O2 8706   0.728   3.955   0.975  0.4124  0.3099 -0.2698
   38GLOH   H05 8707   0.735   3.858   0.983 -0.4878  0.3363  1.0529
   38GLOH    C3 8708   0.486   3.969   0.989  0.2710  0.1519 -0.4628
   38GLOH   H06 8709   0.489   3.860   0.992 -2.7337  0.0288 -0.4400
   38GLOH   H07 8710   0.404   4.006   0.927  1.3451  2.1924 -0.7174
   38GLOH    O3 8711   0.469   4.019   1.122 -0.2922  0.1750  0.0913
   38GLOH   H01 8712   0.544   3.990   1.177  0.2997  1.1285 -0.1869
   39GLOH   H03 8713   9.475   3.493   1.513  0.2195 -0.0400 -0.2329
   39GLOH    O1 8714   9.389   3.517   1.473  0.2166  0.5418  0.1061
   39GLOH    C1 8715   9.408   3.597   1.359 -0.3855  0.4945 -0.0815
   39GLOH   H02 8716   9.319   3.597   1.295 -1.0716  1.0898  0.8706
   39GLOH   H08 8717   9.502   3.575   1.307 -0.8264 -0.4035 -0.5137
   39GLOH    C2 8718   9.415   3.744   1.412  0.0429  0.2979  0.6020
   39GLOH   H04 8719   9.510   3.746   1.467 -0.0653 -0.3978  0.8060
   39GLOH    O2 8720   9.422   3.837   1.300 -0.4506  0.2724 -0.2372
   39GLOH   H05 8721   9.431   3.920   1.350 -2.6414  0.3268  0.1459
   39GLOH    C3 8722   9.296   3.782   1.506  0.7225 -0.5537 -0.2544
   39GLOH   H06 8723   9.211   3.762   1.441  0.4644 -2.3322  0.6016
   39GLOH   H07 8724   9.298   3.891   1.514 -0.5561 -0.6525  1.7765
   39GLOH    O3 8725   9.279   3.703   1.621 -0.6817  0.5045  0.4732
   39GLOH   H01 8726   9.296   3.615   1.581  0.3458 -1.2981  4.5610
   40GLOH   H03 8727   4.967   3.444   2.643  0.3366  0.4780  0.7752
   40GLOH    O1 8728   4.946   3.529   2.600 -0.0037 -0.3555 -0.7217
   40GLOH    C1 8729   4.847   3.598   2.683 -0.4960  0.1866  0.2574
   40GLOH   H02 8730   4.881   3.700   2.697  1.2168 -0.6880  3.0082
   40GLOH   H08 8731   4.847   3.558   2.785  1.7322  1.0078  0.6019
   40GLOH    C2 8732   4.701   3.575   2.645 -0.1649  0.2792  0.4155
   40GLOH   H04 8733   4.633   3.606   2.726  0.3982 -0.2543  1.0903
   40GLOH    O2 8734   4.673   3.652   2.529  0.6192  0.1608  0.0253
   40GLOH   H05 8735   4.722   3.619   2.452 -1.3143  3.2579 -2.6088
   40GLOH    C3 8736   4.678   3.422   2.617  0.3067 -0.2196 -0.6793
   40GLOH   H06 8737   4.743   3.385   2.537 -0.9999  0.8960 -2.2949
   40GLOH   H07 8738   4.575   3.408   2.584  0.1687 -1.2904  0.1821
   40GLOH    O3 8739   4.712   3.345   2.736 -0.8485 -0.4496  0.2006
   40GLOH   H01 8740   4.689   3.250   2.725 -0.8497 -0.5902  1.3104
   41GLOH   H03 8741   2.724   7.369   2.377 -0.1078  0.1671  1.6251
   41GLOH    O1 8742   2.679   7.455   2.363 -0.1603 -0.0702  0.2779
   41GLOH    C1 8743   2.574   7.464   2.458  0.2579 -0.0572  0.6296
   41GLOH   H02 8744   2.594   7.548   2.525 -3.3674  2.1706 -0.9225
   41GLOH   H08 8745   2.565   7.375   2.519  1.3372  1.7053  3.4284
   41GLOH    C2 8746   2.436   7.486   2.395 -0.5437 -0.1678  0.4840
   41GLOH   H04 8747   2.397   7.387   2.368 -0.0592  0.4656 -2.6675
   41GLOH    O2 8748   2.347   7.542   2.480 -0.0599  0.5070 -0.1122
   41GLOH   H05 8749   2.343   7.637   2.458  2.6321  1.4894  3.1405
   41GLOH    C3 8750   2.448   7.562   2.256 -0.1090  0.2613 -0.5514
   41GLOH   H06 8751   2.472   7.496   2.173 -2.0428 -0.1306 -0.8172
   41GLOH   H07 8752   2.534   7.628   2.270  0.0127 -0.6060  3.3004
   41GLOH    O3 8753   2.330   7.635   2.219 -0.3042  0.1503  0.1705
   41GLOH   H01 8754   2.335   7.728   2.247 -1.8090  1.2873 -3.0426
   42GLOH   H03 8755   1.926   8.078   0.080  2.2995  0.6520 -2.0891
   42GLOH    O1 8756   1.978   8.127   0.145 -0.1641  0.3930  0.1680
   42GLOH    C1 8757   1.887   8.212   0.210  0.1896  0.5398  0.6228
   42GLOH   H02 8758   1.793   8.157   0.216  0.1711  0.5162  0.1383
   42GLOH   H08 8759   1.875   8.303   0.151 -0.0004 -0.9431 -1.6596
   42GLOH    C2 8760   1.942   8.263   0.340  0.9913 -0.0799 -0.0099
   42GLOH   H04 8761   2.039   8.311   0.322  0.9577  0.6030  1.5943
   42GLOH    O2 8762   1.837   8.355   0.385  0.7596 -0.2852  0.5448
   42GLOH   H05 8763   1.875   8.445   0.388  1.1725 -0.4036 -0.7075
   42GLOH    C3 8764   1.950   8.146   0.440  0.3958  0.0246 -0.0156
   42GLOH   H06 8765   1.851   8.104   0.458 -0.0854  1.0354 -0.2900
   42GLOH   H07 8766   1.986   8.179   0.538 -2.8407  0.0923  1.1921
   42GLOH    O3 8767   2.042   8.046   0.392  0.3820 -0.2872  0.3458
   42GLOH   H01 8768   2.035   8.047   0.295 -0.4706  1.1350  0.4119
   43GLOH   H03 8769   5.160   4.591   0.550 -0.1541  0.1659 -0.1981
   43GLOH    O1 8770   5.220   4.564   0.479  0.2712 -0.2878  0.3365
   43GLOH    C1 8771   5.261   4.423   0.491 -0.4596 -0.7084  0.0932
   43GLOH   H02 8772   5.178   4.360   0.459 -0.5204 -0.6645  0.1650
   43GLOH   H08 8773   5.283   4.402   0.595  0.1977  0.3492  0.1780
   43GLOH    C2 8774   5.384   4.388   0.404 -0.0862 -0.3381 -0.0962
   43GLOH   H04 8775   5.463   4.440   0.461 -0.3985  0.7062 -0.6006
   43GLOH    O2 8776   5.419   4.250   0.422  0.0459  0.2783 -0.1432
   43GLOH   H05 8777   5.340   4.193   0.420  1.7298 -2.1885  1.9537
   43GLOH    C3 8778   5.384   4.436   0.258 -0.9130 -0.8843  0.2676
   43GLOH   H06 8779   5.466   4.392   0.202 -1.5619 -3.9810  1.6128
   43GLOH   H07 8780   5.396   4.542   0.240 -1.6700 -0.8164  0.1508
   43GLOH    O3 8781   5.253   4.398   0.194  0.1299 -0.2300 -0.1504
   43GLOH   H01 8782   5.182   4.459   0.220  1.1842  0.8168  0.3236
   44GLOH   H03 8783   4.906   4.878   1.086  2.3718 -2.4340 -1.1411
   44GLOH    O1 8784   4.902   4.809   1.154  0.0479 -0.6196  0.6396
   44GLOH    C1 8785   4.828   4.866   1.265  0.9007  0.3717 -0.5522
   44GLOH   H02 8786   4.871   4.962   1.290  0.2225  0.1708  1.4550
   44GLOH   H08 8787   4.820   4.805   1.355 -2.7599  0.7151 -0.5522
   44GLOH    C2 8788   4.682   4.907   1.229 -0.3152 -0.2248 -0.0643
   44GLOH   H04 8789   4.639   4.820   1.178  0.9820 -1.5852  1.1131
   44GLOH    O2 8790   4.591   4.942   1.341 -0.1276 -0.1082  0.2119
   44GLOH   H05 8791   4.512   4.888   1.327 -0.4224  0.3687  0.0139
   44GLOH    C3 8792   4.686   5.024   1.127 -1.2449  0.2324  0.3092
   44GLOH   H06 8793   4.709   5.117   1.178  2.0451 -1.3328  1.7971
   44GLOH   H07 8794   4.582   5.036   1.094 -1.6004 -0.1711  1.2478
   44GLOH    O3 8795   4.780   4.985   1.024 -0.1314  0.3781  0.2340
   44GLOH   H01 8796   4.723   4.943   0.957  2.4947 -2.0038 -0.5960
   45GLOH   H03 8797   0.866   6.186   0.335  1.2630  0.3164  0.3494
   45GLOH    O1 8798   0.872   6.088   0.337 -0.0515  0.2313  0.3992
   45GLOH    C1 8799   0.931   6.038   0.459  0.2627  0.0604  0.1750
   45GLOH   H02 8800   0.883   5.949   0.501  0.3993 -0.1196 -0.0478
   45GLOH   H08 8801   0.939   6.115   0.535  0.4847  0.0231  0.1889
   45GLOH    C2 8802   1.079   5.986   0.430 -0.3230  0.4848 -0.4140
   45GLOH   H04 8803   1.139   6.075   0.406  0.2357  0.3968  0.6576
   45GLOH    O2 8804   1.131   5.920   0.547  0.5503 -0.7638 -0.5388
   45GLOH   H05 8805   1.220   5.948   0.576 -0.6616  2.1227  0.5709
   45GLOH    C3 8806   1.078   5.896   0.303  0.2753  0.0488 -0.4840
   45GLOH   H06 8807   0.994   5.827   0.309  1.6192 -1.6574 -0.8089
   45GLOH   H07 8808   1.170   5.839   0.310  1.1214  1.3057 -1.1573
   45GLOH    O3 8809   1.068   5.973   0.182 -0.5027  0.2804 -0.7481
   45GLOH   H01 8810   0.983   6.019   0.194 -0.1767  0.8526 -0.6389
   46GLOH   H03 8811   4.270   0.071   0.653 -0.7023 -1.1372  0.0270
   46GLOH    O1 8812   4.283   0.064   0.750  0.6060  0.6956  0.0382
   46GLOH    C1 8813   4.270   0.191   0.810 -0.4401 -0.0924  0.2641
   46GLOH   H02 8814   4.179   0.244   0.780 -1.4436 -1.4880  0.7741
   46GLOH   H08 8815   4.355   0.249   0.774  0.6056 -2.2789 -0.8250
   46GLOH    C2 8816   4.266   0.191   0.964  0.3878  1.0971 -0.4781
   46GLOH   H04 8817   4.370   0.179   0.998 -0.2941 -0.8699  1.0349
   46GLOH    O2 8818   4.226   0.312   1.035  0.1526 -0.0494  0.2813
   46GLOH   H05 8819   4.196   0.294   1.125 -0.3529 -3.5844 -0.5126
   46GLOH    C3 8820   4.194   0.066   1.022  0.1579  0.2724  0.2135
   46GLOH   H06 8821   4.093   0.073   0.983  0.0206  0.2546  0.5650
   46GLOH   H07 8822   4.178   0.058   1.130 -1.1986 -0.5406 -0.0406
   46GLOH    O3 8823   4.243  -0.056   0.961  0.0197  0.1553 -0.3183
   46GLOH   H01 8824   4.268  -0.023   0.872  0.0019  0.9002 -0.0510
   47GLOH   H03 8825   3.778   8.692   1.347 -0.2130  0.9276 -0.1675
   47GLOH    O1 8826   3.800   8.720   1.438 -0.0967 -0.0640  0.1210
   47GLOH    C1 8827   3.886   8.622   1.495  0.1606 -0.2142 -0.2490
   47GLOH   H02 8828   3.979   8.610   1.440  0.2434 -1.2035  0.0866
   47GLOH   H08 8829   3.832   8.528   1.481 -0.7934  0.2604  0.1568
   47GLOH    C2 8830   3.914   8.644   1.648  1.0479 -0.4756  0.4018
   47GLOH   H04 8831   3.928   8.751   1.669  1.7346 -1.1236  3.4658
   47GLOH    O2 8832   3.803   8.605   1.734 -0.1524  0.1662 -0.3729
   47GLOH   H05 8833   3.733   8.672   1.733 -1.0199 -0.7133  0.7989
   47GLOH    C3 8834   4.049   8.574   1.678  0.0277 -0.1050 -0.3762
   47GLOH   H06 8835   4.030   8.470   1.653 -0.2433 -0.1564  0.0512
   47GLOH   H07 8836   4.070   8.574   1.785  2.3101 -1.8477 -0.7890
   47GLOH    O3 8837   4.161   8.625   1.604  0.3567  0.3791  0.3069
   47GLOH   H01 8838   4.184   8.712   1.641  1.7165  0.0041  0.3872
   48GLOH   H03 8839   1.812   2.918   2.252  3.4033 -1.7077 -1.3749
   48GLOH    O1 8840   1.844   2.999   2.209 -0.4477  0.3694 -0.5190
   48GLOH    C1 8841   1.728   3.064   2.160  0.9284  0.2310  0.3935
   48GLOH   H02 8842   1.643   3.050   2.227  1.8120 -2.1107  1.0860
   48GLOH   H08 8843   1.690   3.032   2.062  0.1429  1.4562  0.2904
   48GLOH    C2 8844   1.768   3.212   2.147  0.6195  0.2197  0.2481
   48GLOH   H04 8845   1.837   3.227   2.063 -1.2168 -0.3419 -1.3997
   48GLOH    O2 8846   1.651   3.285   2.095 -0.8041  0.1260  0.4387
   48GLOH   H05 8847   1.677   3.334   2.015  1.5982 -1.0386  0.4402
   48GLOH    C3 8848   1.828   3.278   2.274  0.2626 -0.0677 -0.2852
   48GLOH   H06 8849   1.907   3.216   2.316 -0.1011  0.0085  0.5247
   48GLOH   H07 8850   1.742   3.292   2.340  1.7779  0.7506  1.5542
   48GLOH    O3 8851   1.897   3.406   2.248 -0.4549 -0.2601 -0.2107
   48GLOH   H01 8852   1.923   3.448   2.332  3.0698 -2.2468 -0.2149
   49GLOH   H03 8853   3.590   2.862   1.714 -0.6801 -0.4647 -0.2228
   49GLOH    O1 8854   3.652   2.814   1.655  0.0818 -0.0402  0.2284
   49GLOH    C1 8855   3.779   2.796   1.716  0.2976  0.7167 -0.3551
   49GLOH   H02 8856   3.842   2.736   1.651  0.3069  1.5211 -1.0868
   49GLOH   H08 8857   3.765   2.737   1.807  0.1601 -0.7388 -1.2992
   49GLOH    C2 8858   3.855   2.922   1.760  0.1990  0.2233  0.1009
   49GLOH   H04 8859   3.817   2.946   1.860  1.2581 -3.3359  1.4598
   49GLOH    O2 8860   3.998   2.908   1.777 -0.4122  0.2015  0.1280
   49GLOH   H05 8861   4.050   2.986   1.803 -0.9103 -0.1373  2.1920
   49GLOH    C3 8862   3.826   3.030   1.652  0.5625 -0.0308 -0.2551
   49GLOH   H06 8863   3.725   3.067   1.670 -0.1275 -0.9652 -2.0612
   49GLOH   H07 8864   3.816   2.989   1.551  0.0022  1.6081 -0.8743
   49GLOH    O3 8865   3.916   3.141   1.655  0.0281 -0.1027 -0.4470
   49GLOH   H01 8866   3.994   3.111   1.605 -0.0680  1.8031 -1.7869
   50GLOH   H03 8867   2.271   0.228   0.242  0.4905  0.2193 -1.2213
   50GLOH    O1 8868   2.185   0.273   0.234  0.2167 -0.1199 -0.2554
   50GLOH    C1 8869   2.151   0.341   0.351 -0.1166  0.0458  0.4912
   50GLOH   H02 8870   2.153   0.447   0.327 -0.3057 -0.6215 -2.7034
   50GLOH   H08 8871   2.222   0.326   0.432  1.1576  0.6399 -0.5068
   50GLOH    C2 8872   2.010   0.316   0.405  0.0552 -0.5988 -0.2282
   50GLOH   H04 8873   2.009   0.219   0.456  1.1351 -0.9937 -0.9408
   50GLOH    O2 8874   1.977   0.411   0.505  0.0222 -0.0873 -0.4386
   50GLOH   H05 8875   2.013   0.372   0.587 -1.3682 -1.1994 -0.3342
   50GLOH    C3 8876   1.904   0.322   0.292  0.2165 -0.0112 -0.8616
   50GLOH   H06 8877   1.905   0.417   0.237  0.2470  0.2515 -0.4081
   50GLOH   H07 8878   1.807   0.315   0.341  1.0096 -1.2245  0.5644
   50GLOH    O3 8879   1.926   0.215   0.199  0.1003  0.5453  0.1867
   50GLOH   H01 8880   2.023   0.206   0.192  0.0810  0.3437  0.1804
   51GLOH   H03 8881   2.344   9.138   2.076 -1.7611  2.5713  0.5380
   51GLOH    O1 8882   2.282   9.081   2.026  0.2269  0.6535  0.1661
   51GLOH    C1 8883   2.330   9.069   1.890  0.1105  0.1154 -0.4733
   51GLOH   H02 8884   2.427   9.020   1.883 -0.1375 -0.9051  2.7203
   51GLOH   H08 8885   2.343   9.170   1.849 -0.9711 -0.0057 -1.1198
   51GLOH    C2 8886   2.230   8.996   1.801 -0.0800  0.3190  0.6099
   51GLOH   H04 8887   2.131   9.043   1.808 -1.7166 -3.1324  1.8526
   51GLOH    O2 8888   2.271   8.987   1.658  0.2342 -0.2649  0.5397
   51GLOH   H05 8889   2.202   8.961   1.596 -1.9623  2.5385  1.6854
   51GLOH    C3 8890   2.211   8.853   1.862 -0.8683  0.7835 -0.0896
   51GLOH   H06 8891   2.208   8.861   1.971  2.9763 -1.4841  0.2939
   51GLOH   H07 8892   2.295   8.787   1.841 -2.1868 -1.9250  2.7828
   51GLOH    O3 8893   2.094   8.790   1.805 -0.0210 -0.7386 -0.0538
   51GLOH   H01 8894   2.089   8.812   1.710  2.3072 -0.5779 -0.1641
   52GLOH   H03 8895   3.848   5.170   1.945 -1.6524 -1.9684 -0.1570
   52GLOH    O1 8896   3.779   5.238   1.937 -0.2644 -0.5029  0.0630
   52GLOH    C1 8897   3.734   5.270   2.071 -0.3522  0.1791  0.1239
   52GLOH   H02 8898   3.774   5.367   2.101 -0.1879 -0.5688  2.4865
   52GLOH   H08 8899   3.764   5.204   2.152  2.1490  1.1088 -0.0111
   52GLOH    C2 8900   3.584   5.278   2.074  0.1583 -0.1680 -0.4670
   52GLOH   H04 8901   3.543   5.190   2.022  0.2652 -1.3816  1.4381
   52GLOH    O2 8902   3.529   5.279   2.213  0.3956 -0.1216  0.3160
   52GLOH   H05 8903   3.552   5.193   2.252  0.8789  0.0723  0.4714
   52GLOH    C3 8904   3.532   5.404   2.000  0.2012 -0.1542 -0.8458
   52GLOH   H06 8905   3.569   5.493   2.050  1.3368  0.6929 -3.0999
   52GLOH   H07 8906   3.424   5.418   1.998  0.3668  1.3395  0.2426
   52GLOH    O3 8907   3.589   5.419   1.861 -0.1424  0.0905  0.3845
   52GLOH   H01 8908   3.676   5.375   1.862  0.3834  0.8102 -3.7187
   53GLOH   H03 8909   9.814   4.064   0.723 -1.8645  0.7455 -1.3068
   53GLOH    O1 8910   9.851   4.153   0.709  0.2973  0.0596 -0.0711
   53GLOH    C1 8911   9.736   4.236   0.685 -0.1669  0.5018 -0.1600
   53GLOH   H02 8912   9.756   4.337   0.720  0.0930  0.6859 -0.8402
   53GLOH   H08 8913   9.651   4.192   0.737  0.5818 -1.2078 -0.3478
   53GLOH    C2 8914   9.694   4.237   0.536 -0.0123 -0.8603 -0.4039
   53GLOH   H04 8915   9.679   4.131   0.513  2.4984 -1.0630 -1.2473
   53GLOH    O2 8916   9.573   4.317   0.514  0.6435  1.0149  0.6863
   53GLOH   H05 8917   9.544   4.301   0.423  1.6066 -1.4638  0.7915
   53GLOH    C3 8918   9.807   4.300   0.453 -0.2032 -1.3888  0.0151
   53GLOH   H06 8919   9.811   4.401   0.492  2.4317 -0.8959 -1.3810
   53GLOH   H07 8920   9.777   4.292   0.348 -1.3677 -2.0921  0.3927
   53GLOH    O3 8921   9.925   4.225   0.475  0.4753  0.6817 -0.1357
   53GLOH   H01 8922   9.929   4.203   0.570 -1.1163  1.8182  0.2064
   54GLOH   H03 8923   4.054   3.424   1.733 -0.3444  0.7503 -0.0820
   54GLOH    O1 8924   4.083   3.480   1.658  0.4046  0.1110 -0.2732
   54GLOH    C1 8925   4.113   3.397   1.542  0.3925  0.1692 -0.0656
   54GLOH   H02 8926   4.108   3.460   1.453 -0.4579 -2.1268 -1.6999
   54GLOH   H08 8927   4.041   3.317   1.526  2.4578 -1.8001  0.1899
   54GLOH    C2 8928   4.259   3.346   1.546  0.6410 -1.1269  0.7022
   54GLOH   H04 8929   4.321   3.429   1.583  0.9212 -0.9513 -0.1445
   54GLOH    O2 8930   4.280   3.238   1.631  0.1448  0.1173  0.3479
   54GLOH   H05 8931   4.376   3.223   1.636  0.1964  0.6981  1.2742
   54GLOH    C3 8932   4.318   3.315   1.404  0.0184 -0.4664 -0.8005
   54GLOH   H06 8933   4.413   3.262   1.412 -0.9113 -1.7643  2.1206
   54GLOH   H07 8934   4.341   3.411   1.357  1.8923 -0.0521  0.8924
   54GLOH    O3 8935   4.216   3.247   1.337  0.1131  0.4642  0.6833
   54GLOH   H01 8936   4.207   3.257   1.241 -2.8954 -0.6465  0.8023
   55GLOH   H03 8937   4.143   8.536   2.955  0.2110  0.6474  1.0280
   55GLOH    O1 8938   4.236   8.530   2.926 -0.1388  0.0494 -0.0138
   55GLOH    C1 8939   4.242   8.441   2.815 -0.6911 -0.3086 -0.0026
   55GLOH   H02 8940   4.211   8.490   2.722 -1.0678  2.4783  1.5285
   55GLOH   H08 8941   4.173   8.358   2.820 -1.0215 -0.2340 -2.6529
   55GLOH    C2 8942   4.381   8.384   2.790 -0.7968 -0.2224 -0.3773
   55GLOH   H04 8943   4.417   8.339   2.883  0.1880 -0.8738 -1.0697
   55GLOH    O2 8944   4.380   8.283   2.685  0.9919  0.4324  0.1976
   55GLOH   H05 8945   4.353   8.312   2.597 -0.5975 -0.7468  0.2794
   55GLOH    C3 8946   4.474   8.504   2.751  0.5877  0.7765 -0.4009
   55GLOH   H06 8947   4.426   8.537   2.659 -0.1977  1.1752  0.1463
   55GLOH   H07 8948   4.575   8.478   2.720  0.7763 -0.7404  1.3834
   55GLOH    O3 8949   4.466   8.605   2.848  0.0308  0.1954  0.4149
   55GLOH   H01 8950   4.373   8.601   2.874 -0.5279 -0.7025 -1.5903
   56GLOH   H03 8951   9.408   5.302   1.038 -0.0677  1.1912  1.9592
   56GLOH    O1 8952   9.312   5.317   1.050 -0.5433 -0.1538  0.1389
   56GLOH    C1 8953   9.237   5.201   1.028  0.3874  0.4159 -0.0191
   56GLOH   H02 8954   9.181   5.214   0.936 -0.5268 -1.4120  0.2596
   56GLOH   H08 8955   9.168   5.187   1.112  0.8831  1.2151  0.5306
   56GLOH    C2 8956   9.321   5.069   1.026 -0.0806  0.2186  0.1493
   56GLOH   H04 8957   9.253   4.982   1.034 -1.4463  1.2117 -0.3673
   56GLOH    O2 8958   9.407   5.057   0.907 -0.3666  0.8455 -0.3975
   56GLOH   H05 8959   9.448   4.969   0.913 -0.3638  0.9739  1.5051
   56GLOH    C3 8960   9.407   5.041   1.147 -0.2160  0.2007 -0.4717
   56GLOH   H06 8961   9.476   5.124   1.161  0.1125 -0.2855  0.8510
   56GLOH   H07 8962   9.463   4.949   1.135 -1.9443 -0.7142 -1.8033
   56GLOH    O3 8963   9.326   5.022   1.267  0.6451 -0.1736 -0.2330
   56GLOH   H01 8964   9.299   5.113   1.292 -0.4144 -0.6144  0.2581
   57GLOH   H03 8965   3.646   7.469   1.288 -1.3026 -0.2125  0.7576
   57GLOH    O1 8966   3.636   7.419   1.205  0.3310  0.5851  0.0572
   57GLOH    C1 8967   3.631   7.506   1.091 -0.3866  0.3943 -0.3732
   57GLOH   H02 8968   3.669   7.443   1.010 -0.8593  0.2976 -0.5268
   57GLOH   H08 8969   3.709   7.578   1.113  0.2765 -1.0085  2.0727
   57GLOH    C2 8970   3.491   7.552   1.053  0.4559 -1.2311 -0.2948
   57GLOH   H04 8971   3.442   7.609   1.134 -0.7136 -0.0614 -1.7989
   57GLOH    O2 8972   3.495   7.631   0.929  0.3800 -0.3882 -0.0230
   57GLOH   H05 8973   3.403   7.657   0.913  0.9332  1.2085 -0.6859
   57GLOH    C3 8974   3.399   7.436   1.019 -0.2370 -0.1780 -0.3454
   57GLOH   H06 8975   3.455   7.388   0.938  0.0419 -3.9691  2.0007
   57GLOH   H07 8976   3.312   7.489   0.980 -2.5823 -0.2066  4.5542
   57GLOH    O3 8977   3.387   7.365   1.138 -0.2943  0.0331  0.6457
   57GLOH   H01 8978   3.480   7.362   1.167 -0.0695  1.1774  0.0721
   58GLOH   H03 8979   4.395   4.782   2.158 -3.0927  0.7045  0.6528
   58GLOH    O1 8980   4.369   4.723   2.231 -0.8517 -0.1625  0.8087
   58GLOH    C1 8981   4.438   4.770   2.350  0.9402  0.4391 -0.0566
   58GLOH   H02 8982   4.543   4.780   2.323  0.9067  2.4061  0.5158
   58GLOH   H08 8983   4.429   4.703   2.436  1.2423 -0.0730 -0.4175
   58GLOH    C2 8984   4.374   4.909   2.383 -0.2211 -0.1350 -0.2680
   58GLOH   H04 8985   4.269   4.896   2.413 -0.3956 -0.8177 -1.1419
   58GLOH    O2 8986   4.433   4.960   2.503 -0.5400 -0.5429 -0.4438
   58GLOH   H05 8987   4.379   4.939   2.581  1.0671  0.1075  0.8722
   58GLOH    C3 8988   4.380   5.007   2.265  1.2851  0.6265 -0.9533
   58GLOH   H06 8989   4.485   5.009   2.239  1.9953  1.0082  1.7955
   58GLOH   H07 8990   4.346   5.104   2.302  3.4086  1.2293 -0.5574
   58GLOH    O3 8991   4.305   4.960   2.158  0.2763  0.1518 -0.6007
   58GLOH   H01 8992   4.283   5.033   2.097  0.6815 -0.9302 -2.0790
   59GLOH   H03 8993   3.647   5.041   0.479 -1.5105  1.6943  0.8285
   59GLOH    O1 8994   3.686   5.125   0.447  0.2348  0.5764 -0.0203
   59GLOH    C1 8995   3.714   5.197   0.572 -0.4208 -0.1844 -0.6905
   59GLOH   H02 8996   3.737   5.137   0.660  0.9340 -0.2655 -1.0755
   59GLOH   H08 8997   3.616   5.236   0.600  0.2122 -0.4596  2.0313
   59GLOH    C2 8998   3.808   5.318   0.565  0.0736  0.1346  0.4835
   59GLOH   H04 8999   3.762   5.397   0.503  0.9996  0.7408  0.5515
   59GLOH    O2 9000   3.827   5.360   0.705  0.3675  0.4026 -1.0531
   59GLOH   H05 9001   3.748   5.403   0.741  0.9141  2.6603 -2.4100
   59GLOH    C3 9002   3.955   5.280   0.518 -0.7196  0.0683  0.0317
   59GLOH   H06 9003   4.028   5.360   0.527  2.3220 -2.7873  1.7675
   59GLOH   H07 9004   3.958   5.257   0.411  1.9026 -0.9099  0.2877
   59GLOH    O3 9005   4.022   5.173   0.591 -0.2825  0.3689 -0.7350
   59GLOH   H01 9006   4.009   5.188   0.686  1.2337 -0.0034 -0.4697
   60GLOH   H03 9007   4.719   4.492   1.285 -0.3775  1.3488  1.0661
   60GLOH    O1 9008   4.629   4.459   1.302 -0.1262 -0.0912 -0.3345
   60GLOH    C1 9009   4.563   4.452   1.175  0.1379 -0.5063  0.4400
   60GLOH   H02 9010   4.584   4.355   1.131 -0.2236 -0.0377 -0.7744
   60GLOH   H08 9011   4.603   4.523   1.102  0.0371  0.8896  1.7211
   60GLOH    C2 9012   4.407   4.475   1.184 -0.4674 -0.5961  0.5135
   60GLOH   H04 9013   4.391   4.575   1.226 -1.3364  0.6613 -2.6460
   60GLOH    O2 9014   4.361   4.464   1.044 -0.2766  0.0685  0.2422
   60GLOH   H05 9015   4.404   4.387   1.004 -0.2618  0.4342 -0.4542
   60GLOH    C3 9016   4.343   4.364   1.270  0.9020 -0.2135 -0.2646
   60GLOH   H06 9017   4.237   4.385   1.287  0.7510 -0.2489 -1.1338
   60GLOH   H07 9018   4.393   4.367   1.366  0.3016  2.0767  0.0209
   60GLOH    O3 9019   4.362   4.231   1.218 -0.1578 -0.3100 -0.2478
   60GLOH   H01 9020   4.334   4.161   1.279  0.1565  0.0548  0.3195
   61GLOH   H03 9021   4.631   4.882   2.021  2.9324 -0.8650  0.7873
   61GLOH    O1 9022   4.645   4.978   2.033 -0.6460 -0.2152  0.1033
   61GLOH    C1 9023   4.742   5.025   1.936  0.1492  1.0706  0.1184
   61GLOH   H02 9024   4.741   4.961   1.847 -0.6613  0.5428  0.4984
   61GLOH   H08 9025   4.842   5.010   1.977  0.4592  0.3473 -0.8756
   61GLOH    C2 9026   4.717   5.168   1.884  0.2898 -0.2127 -0.2156
   61GLOH   H04 9027   4.752   5.245   1.955 -2.8249  0.9629  0.1449
   61GLOH    O2 9028   4.776   5.195   1.760 -0.1586  0.2952  0.2506
   61GLOH   H05 9029   4.733   5.144   1.690  0.8857  1.5892 -1.3678
   61GLOH    C3 9030   4.568   5.195   1.866  0.2905 -0.0642  0.4189
   61GLOH   H06 9031   4.533   5.133   1.783 -0.6551  0.0250  0.7444
   61GLOH   H07 9032   4.558   5.301   1.842  1.9233  0.1075  0.4585
   61GLOH    O3 9033   4.495   5.165   1.980 -0.2386 -0.0317  0.5022
   61GLOH   H01 9034   4.554   5.097   2.017 -0.5807  0.2740  1.6406
   62GLOH   H03 9035   4.869   1.733   0.558  1.4121  0.0111 -1.1509
   62GLOH    O1 9036   4.899   1.647   0.591  0.2828  0.1226  0.2223
   62GLOH    C1 9037   4.988   1.594   0.495  0.1434 -0.1215 -0.1815
   62GLOH   H02 9038   5.084   1.646   0.502 -0.5405  1.1084  0.2737
   62GLOH   H08 9039   4.957   1.630   0.396 -1.1079 -0.0609  0.2209
   62GLOH    C2 9040   5.014   1.441   0.492  0.5673  0.0943 -0.0833
   62GLOH   H04 9041   4.917   1.390   0.499  1.3233 -1.2166  1.2025
   62GLOH    O2 9042   5.094   1.395   0.384 -0.0956  0.0568 -0.0145
   62GLOH   H05 9043   5.038   1.396   0.304 -1.0958  4.0444  0.6487
   62GLOH    C3 9044   5.088   1.391   0.620 -0.3502  0.3304 -0.2354
   62GLOH   H06 9045   5.185   1.441   0.619 -0.0426 -0.2178  1.5173
   62GLOH   H07 9046   5.121   1.287   0.610 -0.4312  0.0279  2.3660
   62GLOH    O3 9047   5.028   1.404   0.752  0.0311 -0.2783 -0.4125
   62GLOH   H01 9048   4.968   1.331   0.773 -0.3808  0.0298 -0.5006
   63GLOH   H03 9049   1.542   3.464   1.848  0.7565  2.8958 -2.7155
   63GLOH    O1 9050   1.445   3.469   1.839  0.3066 -0.0312 -0.2062
   63GLOH    C1 9051   1.417   3.565   1.740 -0.6609  0.5238  0.6498
   63GLOH   H02 9052   1.484   3.544   1.657 -0.3404 -1.9513  1.5124
   63GLOH   H08 9053   1.443   3.665   1.775 -1.1338  0.8252  0.1513
   63GLOH    C2 9054   1.270   3.559   1.688  0.6610 -0.6079 -0.2566
   63GLOH   H04 9055   1.258   3.456   1.651 -1.4754 -0.4923  0.0435
   63GLOH    O2 9056   1.166   3.588   1.784 -0.4639 -0.4323  0.2515
   63GLOH   H05 9057   1.156   3.683   1.800  1.7240  0.2742 -2.3224
   63GLOH    C3 9058   1.258   3.659   1.569 -0.0082  0.9074 -0.3626
   63GLOH   H06 9059   1.282   3.762   1.593  1.4817  0.2109  1.1754
   63GLOH   H07 9060   1.152   3.658   1.540 -0.3199 -1.8753  0.6627
   63GLOH    O3 9061   1.341   3.613   1.455 -0.3051 -0.5517  0.3900
   63GLOH   H01 9062   1.306   3.665   1.380 -3.2234  0.3168  2.2584
   64GLOH   H03 9063   0.560   3.191   0.974  0.7407  0.0514  3.0260
   64GLOH    O1 9064   0.583   3.285   0.964  0.4665 -0.1376  0.2012
   64GLOH    C1 9065   0.706   3.301   1.034 -0.5034  0.5491 -0.2017
   64GLOH   H02 9066   0.698   3.292   1.142 -2.2814  0.7946 -0.2902
   64GLOH   H08 9067   0.740   3.403   1.012  1.8581 -0.4703 -1.4315
   64GLOH    C2 9068   0.815   3.202   0.994  0.0626  0.7396 -0.5018
   64GLOH   H04 9069   0.841   3.206   0.887 -1.9484 -2.5262 -1.1853
   64GLOH    O2 9070   0.932   3.213   1.075 -0.0087  0.1730  0.2924
   64GLOH   H05 9071   0.949   3.308   1.089  0.3026  0.4783 -1.9234
   64GLOH    C3 9072   0.769   3.052   1.010  0.1331 -0.3438 -0.0501
   64GLOH   H06 9073   0.768   3.038   1.118  0.8528  0.3465  0.0534
   64GLOH   H07 9074   0.847   2.991   0.964  0.3665  0.4602 -0.7379
   64GLOH    O3 9075   0.635   3.022   0.958 -0.2576  0.2768 -0.5879
   64GLOH   H01 9076   0.640   3.035   0.861 -2.2052 -1.5468 -0.9759
   65GLOH   H03 9077   3.298   6.619   2.583  0.7370  0.2172  1.6072
   65GLOH    O1 9078   3.296   6.522   2.576 -0.1724  0.3397 -0.0878
   65GLOH    C1 9079   3.289   6.479   2.713 -0.2304 -0.0321  0.4976
   65GLOH   H02 9080   3.388   6.454   2.750 -0.2397  1.1063  1.3228
   65GLOH   H08 9081   3.230   6.387   2.714 -1.2255  0.6000  1.1751
   65GLOH    C2 9082   3.220   6.577   2.807  0.6659 -0.7435 -0.1450
   65GLOH   H04 9083   3.117   6.593   2.770  0.7785  0.6519  0.1392
   65GLOH    O2 9084   3.210   6.528   2.941  0.6317 -0.1348  0.3824
   65GLOH   H05 9085   3.133   6.473   2.962 -0.6900  0.6515 -2.1272
   65GLOH    C3 9086   3.287   6.714   2.809 -0.3372  0.1759  0.0934
   65GLOH   H06 9087   3.390   6.693   2.837 -1.1305 -2.6050  1.1741
   65GLOH   H07 9088   3.245   6.779   2.885 -2.2011  0.2468 -0.9693
   65GLOH    O3 9089   3.285   6.771   2.678  0.1070 -0.0425  0.6344
   65GLOH   H01 9090   3.283   6.868   2.681  2.2448  0.1211 -1.7967
   66GLOH   H03 9091   4.261   8.231   2.093  0.1798 -0.3467 -0.5381
   66GLOH    O1 9092   4.324   8.306   2.100  0.4847 -0.6444 -0.1227
   66GLOH    C1 9093   4.314   8.376   2.219  0.9533 -0.1086 -0.4711
   66GLOH   H02 9094   4.213   8.414   2.232  0.2348 -2.3062  0.7107
   66GLOH   H08 9095   4.384   8.458   2.204  2.3256 -1.6455 -2.8633
   66GLOH    C2 9096   4.345   8.312   2.354  0.0036 -0.3114 -0.0010
   66GLOH   H04 9097   4.454   8.301   2.366 -0.0698 -0.5608  0.4691
   66GLOH    O2 9098   4.308   8.403   2.465 -0.4399 -0.7522  0.4182
   66GLOH   H05 9099   4.224   8.451   2.463 -0.5062 -0.9132 -2.0939
   66GLOH    C3 9100   4.284   8.168   2.355 -0.1721 -0.1773 -0.4054
   66GLOH   H06 9101   4.323   8.123   2.446 -0.1285 -0.1623 -0.4166
   66GLOH   H07 9102   4.337   8.114   2.276  2.4690  0.9037  0.5628
   66GLOH    O3 9103   4.140   8.153   2.344 -0.0517 -0.6878  0.0505
   66GLOH   H01 9104   4.099   8.164   2.432  2.7606 -0.5740  1.4127
   67GLOH   H03 9105   4.109   5.475   1.989 -1.8346 -0.3104 -0.5816
   67GLOH    O1 9106   4.151   5.407   1.933  0.2923  0.5856 -0.1475
   67GLOH    C1 9107   4.115   5.444   1.799  0.3587  0.1072 -0.6887
   67GLOH   H02 9108   4.143   5.548   1.781 -1.2484  0.7965  0.6158
   67GLOH   H08 9109   4.011   5.433   1.767  0.9696 -3.0070 -1.7214
   67GLOH    C2 9110   4.197   5.371   1.690 -0.6774  0.5735 -0.1807
   67GLOH   H04 9111   4.188   5.262   1.692 -2.6649  0.7090  3.0277
   67GLOH    O2 9112   4.171   5.418   1.561 -0.5441 -0.2147 -0.7878
   67GLOH   H05 9113   4.249   5.418   1.504 -0.4247  2.0204 -0.6443
   67GLOH    C3 9114   4.347   5.400   1.722 -0.1799 -0.6181  0.1272
   67GLOH   H06 9115   4.365   5.350   1.817  0.6231 -0.5465  0.0139
   67GLOH   H07 9116   4.347   5.506   1.749  0.6586 -0.8604  1.1005
   67GLOH    O3 9117   4.440   5.369   1.621 -0.0052 -0.1939  0.5371
   67GLOH   H01 9118   4.518   5.423   1.641 -1.0424  1.0389  1.3357
   68GLOH   H03 9119   1.829   5.054   2.034  1.9287  0.3499 -2.0950
   68GLOH    O1 9120   1.805   5.148   2.028 -0.2242 -0.0200 -0.0201
   68GLOH    C1 9121   1.718   5.181   2.135 -0.1744 -0.5200 -0.5843
   68GLOH   H02 9122   1.691   5.286   2.131 -0.8414 -0.5931  1.5276
   68GLOH   H08 9123   1.754   5.164   2.236 -0.6701 -0.5248 -0.4057
   68GLOH    C2 9124   1.585   5.105   2.127 -0.1974 -0.0220  0.0440
   68GLOH   H04 9125   1.606   4.998   2.111 -2.1558 -0.0516 -2.6487
   68GLOH    O2 9126   1.512   5.132   2.250 -0.2390 -0.6232 -0.4158
   68GLOH   H05 9127   1.536   5.215   2.295 -1.3433 -0.3061 -0.4095
   68GLOH    C3 9128   1.506   5.147   2.005 -0.1350  0.1864  0.0117
   68GLOH   H06 9129   1.574   5.131   1.921 -0.3905  1.8529 -0.5092
   68GLOH   H07 9130   1.473   5.250   2.012 -0.8364 -0.1086  1.3209
   68GLOH    O3 9131   1.384   5.072   1.988 -0.2691 -0.0152  0.7930
   68GLOH   H01 9132   1.343   5.089   1.901  2.5546 -0.7820 -0.7920
   69GLOH   H03 9133   3.979   4.999   2.062  0.2482  1.6344  1.1800
   69GLOH    O1 9134   3.944   5.033   1.978  0.4095 -0.4125  0.2316
   69GLOH    C1 9135   4.035   5.024   1.866  0.1498 -0.3945  0.0517
   69GLOH   H02 9136   4.091   4.931   1.877  0.7877 -0.0288 -0.0535
   69GLOH   H08 9137   4.106   5.106   1.877  0.1588 -0.4528  0.4320
   69GLOH    C2 9138   3.959   5.029   1.731 -0.6346 -0.0600 -0.7241
   69GLOH   H04 9139   3.892   5.116   1.731  0.7557  1.0329  0.0523
   69GLOH    O2 9140   4.057   5.053   1.630 -0.0342 -0.0779  0.3054
   69GLOH   H05 9141   4.013   5.044   1.543 -0.4057  0.2928  0.4523
   69GLOH    C3 9142   3.887   4.895   1.705 -0.1005 -0.7286  0.1398
   69GLOH   H06 9143   3.863   4.851   1.801 -1.9310  3.6711  1.8154
   69GLOH   H07 9144   3.956   4.822   1.662  1.0587  0.2651  0.2801
   69GLOH    O3 9145   3.771   4.901   1.618 -0.6526  0.3118 -0.2083
   69GLOH   H01 9146   3.774   4.826   1.556 -1.2338  0.5273 -0.4995
   70GLOH   H03 9147   5.293   3.359   1.022  1.4284  0.3665  0.5007
   70GLOH    O1 9148   5.293   3.389   0.929  0.0808  0.1971  0.4270
   70GLOH    C1 9149   5.350   3.517   0.905 -0.4656  0.6533 -0.3104
   70GLOH   H02 9150   5.445   3.513   0.958 -0.5681 -0.6593 -0.2225
   70GLOH   H08 9151   5.280   3.594   0.937  0.4620  1.1852  0.4598
   70GLOH    C2 9152   5.396   3.540   0.762 -0.3308  0.1939 -0.3394
   70GLOH   H04 9153   5.306   3.552   0.700 -1.2633  2.0189  1.3336
   70GLOH    O2 9154   5.470   3.663   0.750  0.3795 -0.0540 -0.3332
   70GLOH   H05 9155   5.461   3.699   0.660  1.7032 -1.8514 -1.2261
   70GLOH    C3 9156   5.482   3.429   0.710 -0.1977  0.2657  0.0480
   70GLOH   H06 9157   5.571   3.417   0.773 -0.1862 -0.8489 -0.1683
   70GLOH   H07 9158   5.515   3.451   0.609 -0.7727  1.6614  0.1589
   70GLOH    O3 9159   5.407   3.307   0.696 -0.1561  0.1533 -0.1224
   70GLOH   H01 9160   5.379   3.278   0.784 -2.6156  1.0923 -0.5561
   71GLOH   H03 9161   2.321   4.587   1.908  0.8541  1.5993  0.8906
   71GLOH    O1 9162   2.377   4.520   1.952  0.3353  0.3861 -0.2885
   71GLOH    C1 9163   2.313   4.389   1.937 -0.8672 -0.6802 -0.0387
   71GLOH   H02 9164   2.381   4.307   1.911 -2.0773 -0.8461 -2.9571
   71GLOH   H08 9165   2.241   4.391   1.855 -0.1126  0.2959 -0.6907
   71GLOH    C2 9166   2.240   4.345   2.065 -0.1314  0.6459  0.2320
   71GLOH   H04 9167   2.208   4.245   2.032 -0.0445  1.0857 -1.2111
   71GLOH    O2 9168   2.334   4.311   2.178 -0.2071  0.0822 -0.1358
   71GLOH   H05 9169   2.390   4.383   2.212  1.3993 -1.2897  0.1991
   71GLOH    C3 9170   2.119   4.425   2.113  0.0548 -0.1717  0.0747
   71GLOH   H06 9171   2.144   4.528   2.141  1.4311 -0.7441  1.0137
   71GLOH   H07 9172   2.085   4.385   2.209  0.8517 -3.2501 -0.8689
   71GLOH    O3 9173   2.019   4.428   2.020 -0.2292 -0.0771  0.7041
   71GLOH   H01 9174   1.961   4.353   2.041 -0.2804 -0.2722 -0.1122
   72GLOH   H03 9175   2.169   1.147   0.788  0.2730  0.4223  0.2673
   72GLOH    O1 9176   2.097   1.211   0.771 -0.0203  0.0659  0.1525
   72GLOH    C1 9177   2.072   1.291   0.886 -0.1930  0.8766 -0.5655
   72GLOH   H02 9178   2.041   1.225   0.967  0.3749  1.1914 -0.0870
   72GLOH   H08 9179   1.995   1.365   0.862 -1.8157 -0.6611 -0.1901
   72GLOH    C2 9180   2.195   1.361   0.952 -0.3126 -0.2022  0.4746
   72GLOH   H04 9181   2.279   1.290   0.949  0.4499  0.7072  0.1034
   72GLOH    O2 9182   2.231   1.479   0.879  0.4299  0.1463 -0.1476
   72GLOH   H05 9183   2.328   1.475   0.867  0.4781 -1.7108  0.7733
   72GLOH    C3 9184   2.169   1.393   1.099 -0.0111  0.4090  0.3817
   72GLOH   H06 9185   2.077   1.450   1.110  0.2241  1.5087 -2.8288
   72GLOH   H07 9186   2.248   1.462   1.132  0.5773  0.2355 -0.6452
   72GLOH    O3 9187   2.166   1.276   1.177  0.2598  0.8592 -0.0067
   72GLOH   H01 9188   2.243   1.220   1.158 -0.6627 -0.8521  1.1754
   73GLOH   H03 9189   4.856   2.674   1.455  2.6922 -0.0148 -1.2487
   73GLOH    O1 9190   4.880   2.692   1.548 -0.4092  0.3879 -0.4761
   73GLOH    C1 9191   5.007   2.755   1.578  0.1051  0.4567 -0.0944
   73GLOH   H02 9192   5.019   2.745   1.686 -0.8281 -2.0311 -0.1859
   73GLOH   H08 9193   5.029   2.855   1.541 -0.7869 -0.1147 -2.2933
   73GLOH    C2 9194   5.116   2.664   1.521 -0.5659  0.0727  0.8918
   73GLOH   H04 9195   5.123   2.568   1.573 -1.6357  0.0084  0.9091
   73GLOH    O2 9196   5.105   2.645   1.376 -1.0433 -0.1865  0.4600
   73GLOH   H05 9197   5.025   2.590   1.365 -0.9491 -0.2148 -0.1131
   73GLOH    C3 9198   5.255   2.730   1.535 -0.4859  0.1965 -0.0432
   73GLOH   H06 9199   5.254   2.826   1.484  0.8920 -0.9509 -2.2895
   73GLOH   H07 9200   5.329   2.671   1.480  0.5011 -0.8913  2.3459
   73GLOH    O3 9201   5.309   2.752   1.661  0.3358 -0.1705 -0.0914
   73GLOH   H01 9202   5.260   2.701   1.727  1.6476 -1.3519  0.0024
   74GLOH   H03 9203   9.608   4.147   2.868 -1.5145 -0.1194 -1.4223
   74GLOH    O1 9204   9.566   4.231   2.896  0.2075  0.1354  0.5804
   74GLOH    C1 9205   9.502   4.286   2.778 -0.4516 -0.4129  0.2088
   74GLOH   H02 9206   9.440   4.372   2.800 -1.6829 -1.1668 -0.2782
   74GLOH   H08 9207   9.427   4.208   2.766 -0.8507 -0.0131  0.1023
   74GLOH    C2 9208   9.577   4.306   2.643  0.0139  0.0284  0.0651
   74GLOH   H04 9209   9.663   4.370   2.669  0.2876  0.2118 -1.2428
   74GLOH    O2 9210   9.626   4.189   2.586  0.0077 -0.2682 -0.1287
   74GLOH   H05 9211   9.694   4.141   2.637  0.5597 -2.0642 -2.4631
   74GLOH    C3 9212   9.483   4.399   2.558  0.0539  0.1522 -0.7400
   74GLOH   H06 9213   9.383   4.356   2.556 -0.5413  1.4781 -0.3790
   74GLOH   H07 9214   9.506   4.394   2.452  1.8257 -1.3811 -0.3019
   74GLOH    O3 9215   9.479   4.534   2.609 -0.0773  0.7662  0.1678
   74GLOH   H01 9216   9.572   4.560   2.592  1.2447 -3.5783  0.0936
   75GLOH   H03 9217   9.328   5.376   2.087 -3.0204 -1.6296 -0.5597
   75GLOH    O1 9218   9.338   5.308   2.156 -0.4544 -0.2803  0.5002
   75GLOH    C1 9219   9.216   5.237   2.166  0.3329  0.3750 -0.5467
   75GLOH   H02 9220   9.131   5.305   2.153  0.4992  0.6135 -0.3787
   75GLOH   H08 9221   9.196   5.210   2.270 -1.7301  1.6074 -0.5919
   75GLOH    C2 9222   9.200   5.124   2.061 -0.3403 -0.0622 -0.1505
   75GLOH   H04 9223   9.288   5.060   2.072 -0.1379  0.5330  1.9648
   75GLOH    O2 9224   9.082   5.046   2.088  0.1028 -0.0661  0.3189
   75GLOH   H05 9225   9.107   4.956   2.060  0.7416 -0.8378  3.2199
   75GLOH    C3 9226   9.200   5.170   1.914 -0.2458 -0.3898  0.0911
   75GLOH   H06 9227   9.112   5.233   1.898 -0.2051 -0.1264  0.9319
   75GLOH   H07 9228   9.187   5.090   1.840  1.3027 -1.1717  0.6523
   75GLOH    O3 9229   9.322   5.248   1.871 -0.1183  0.3564 -0.2931
   75GLOH   H01 9230   9.401   5.191   1.875 -1.2583 -1.2204  0.1920
   76GLOH   H03 9231   4.926   4.100   2.068  1.0927 -1.4161 -4.5035
   76GLOH    O1 9232   4.861   4.162   2.031  0.1777  0.4073 -0.1646
   76GLOH    C1 9233   4.829   4.113   1.903 -0.2140 -0.1794 -0.0741
   76GLOH   H02 9234   4.902   4.151   1.832  1.0295  1.9326  2.2579
   76GLOH   H08 9235   4.733   4.152   1.870 -0.5391  0.5303  1.6178
   76GLOH    C2 9236   4.814   3.960   1.888 -0.2222 -0.4702 -0.5260
   76GLOH   H04 9237   4.731   3.923   1.950  0.5030 -1.0168  0.1284
   76GLOH    O2 9238   4.774   3.935   1.755  0.0453  0.0741  0.2304
   76GLOH   H05 9239   4.750   3.841   1.761  0.1128 -0.0252 -1.0329
   76GLOH    C3 9240   4.944   3.888   1.924 -0.2910 -0.4421  0.2034
   76GLOH   H06 9241   5.015   3.927   1.852  1.5371  0.4630  2.4581
   76GLOH   H07 9242   4.942   3.781   1.902 -1.6409 -0.7555  1.6988
   76GLOH    O3 9243   4.984   3.920   2.057  0.2374  0.1532  0.8559
   76GLOH   H01 9244   5.069   3.876   2.072  1.5225  2.3939  0.3729
   77GLOH   H03 9245   2.915   8.151   0.647  0.7208 -0.0837  0.7827
   77GLOH    O1 9246   2.912   8.215   0.720 -0.7401  0.3481  0.3503
   77GLOH    C1 9247   2.777   8.264   0.705 -0.8279  0.4042 -1.2248
   77GLOH   H02 9248   2.710   8.178   0.704  1.0618 -1.1404  0.1160
   77GLOH   H08 9249   2.775   8.326   0.615  0.6507 -0.8056 -2.1114
   77GLOH    C2 9250   2.709   8.359   0.799 -0.7473  0.0596 -0.3478
   77GLOH   H04 9251   2.739   8.463   0.782  1.4269  0.1942  3.7323
   77GLOH    O2 9252   2.569   8.368   0.786  0.3806  0.1337  0.0829
   77GLOH   H05 9253   2.529   8.317   0.858  2.2815  2.2622  2.7783
   77GLOH    C3 9254   2.743   8.323   0.945 -0.2856 -0.6540  0.4700
   77GLOH   H06 9255   2.705   8.406   1.004  0.2419 -0.2618  0.2641
   77GLOH   H07 9256   2.851   8.331   0.963 -0.2575  2.5135 -0.6463
   77GLOH    O3 9257   2.693   8.195   0.991  0.0034  0.1690 -0.1798
   77GLOH   H01 9258   2.598   8.206   1.010  0.0829  1.2405 -0.3480
   78GLOH   H03 9259   5.690   2.815   1.708  0.2545 -0.0453 -0.0097
   78GLOH    O1 9260   5.787   2.821   1.704  0.2682 -0.3846 -0.1847
   78GLOH    C1 9261   5.815   2.809   1.563 -0.4790  0.2163  0.0072
   78GLOH   H02 9262   5.838   2.708   1.529  0.1534  0.2941  0.1841
   78GLOH   H08 9263   5.908   2.861   1.537  0.4742 -1.0672  0.7760
   78GLOH    C2 9264   5.707   2.867   1.471  0.4615 -0.2582  0.5760
   78GLOH   H04 9265   5.714   2.976   1.487  0.0847  0.3230 -2.9914
   78GLOH    O2 9266   5.745   2.858   1.332 -0.0228 -0.5192 -0.3521
   78GLOH   H05 9267   5.793   2.940   1.315  2.9711 -1.7638  1.7470
   78GLOH    C3 9268   5.574   2.813   1.516  0.5023 -0.2321  0.8612
   78GLOH   H06 9269   5.579   2.706   1.496 -1.7504  0.0313 -1.3403
   78GLOH   H07 9270   5.503   2.865   1.452  0.5028 -0.7389  0.4437
   78GLOH    O3 9271   5.548   2.831   1.657 -0.3035  0.1625 -0.2546
   78GLOH   H01 9272   5.456   2.802   1.677 -1.0046  2.0797 -0.6092
   79GLOH   H03 9273   4.343   8.866   2.910 -0.5693  1.2087  0.1679
   79GLOH    O1 9274   4.291   8.856   2.828  0.2136  0.5291 -0.2647
   79GLOH    C1 9275   4.350   8.943   2.727  0.0499  0.4276 -0.0735
   79GLOH   H02 9276   4.355   9.048   2.756  2.0374  0.5498 -0.7881
   79GLOH   H08 9277   4.287   8.937   2.639 -0.8722  1.8258  0.4696
   79GLOH    C2 9278   4.492   8.894   2.687 -0.0936 -0.0813  0.0111
   79GLOH   H04 9279   4.476   8.791   2.653 -1.4541 -0.2867  1.2528
   79GLOH    O2 9280   4.524   8.987   2.577 -0.0972  0.1357  0.0004
   79GLOH   H05 9281   4.478   8.960   2.496 -0.4329  0.2282  0.1598
   79GLOH    C3 9282   4.598   8.904   2.796 -0.3005 -0.1472  0.2140
   79GLOH   H06 9283   4.621   9.008   2.815  0.5321 -0.6390  2.0193
   79GLOH   H07 9284   4.684   8.858   2.747  0.8152  1.0510  1.0126
   79GLOH    O3 9285   4.578   8.823   2.916  0.3680 -0.8994  0.1973
   79GLOH   H01 9286   4.545   8.735   2.891  1.0439 -1.1986  0.3330
   80GLOH   H03 9287   3.873   1.586   1.262 -0.6433  1.1862 -1.7986
   80GLOH    O1 9288   3.795   1.530   1.247 -0.1107 -0.0066 -0.2025
   80GLOH    C1 9289   3.833   1.453   1.130  0.1387  0.2941 -0.0181
   80GLOH   H02 9290   3.931   1.410   1.149  0.2583 -0.1552 -1.6179
   80GLOH   H08 9291   3.841   1.520   1.045  1.5177  0.4764  0.2436
   80GLOH    C2 9292   3.737   1.337   1.095 -0.4368  0.1445  0.0265
   80GLOH   H04 9293   3.638   1.386   1.090 -0.3804  0.5795  2.3610
   80GLOH    O2 9294   3.776   1.286   0.968  0.2889  0.3968  0.1372
   80GLOH   H05 9295   3.738   1.331   0.891  0.6104  0.2505 -0.1107
   80GLOH    C3 9296   3.733   1.231   1.208 -0.3965 -0.4513  0.5337
   80GLOH   H06 9297   3.716   1.285   1.301 -1.4050  0.0019  0.1029
   80GLOH   H07 9298   3.835   1.192   1.214 -0.0522  0.1574 -1.1296
   80GLOH    O3 9299   3.637   1.127   1.199  0.0511 -0.4942 -0.0208
   80GLOH   H01 9300   3.569   1.156   1.136 -1.6378  0.6586  2.2361
   81GLOH   H03 9301   2.226   5.563   2.818  2.5662 -0.3955 -0.3802
   81GLOH    O1 9302   2.239   5.659   2.814 -0.2918  0.0244 -0.5293
   81GLOH    C1 9303   2.382   5.679   2.806  0.0884  0.1683  0.3789
   81GLOH   H02 9304   2.396   5.711   2.703 -1.5457  0.7682  0.3295
   81GLOH   H08 9305   2.434   5.583   2.817  0.1712 -0.3213 -3.5889
   81GLOH    C2 9306   2.435   5.775   2.909  0.7488 -0.4003 -0.3737
   81GLOH   H04 9307   2.410   5.740   3.011  0.1589 -0.2078 -0.4530
   81GLOH    O2 9308   2.580   5.779   2.889  0.3816  0.4392  0.5754
   81GLOH   H05 9309   2.611   5.772   2.981  1.0879 -1.1973  0.2368
   81GLOH    C3 9310   2.371   5.916   2.888 -0.7775  0.1335 -0.0121
   81GLOH   H06 9311   2.405   5.954   2.792 -2.8397  2.3732  0.1014
   81GLOH   H07 9312   2.387   5.981   2.973 -1.7769  0.9272 -0.4221
   81GLOH    O3 9313   2.229   5.894   2.881  0.0912  0.0348  0.0471
   81GLOH   H01 9314   2.229   5.801   2.851  0.0877 -0.4082  1.3643
   82GLOH   H03 9315   3.004   0.172   0.236  1.6130  1.4281 -0.0799
   82GLOH    O1 9316   3.069   0.108   0.202  0.0571  0.0129 -0.4621
   82GLOH    C1 9317   3.037  -0.015   0.265  0.1054 -0.1557  0.0121
   82GLOH   H02 9318   3.107  -0.089   0.227 -0.1728  0.3207 -1.4893
   82GLOH   H08 9319   2.934  -0.038   0.237  0.1708 -0.9240  0.3908
   82GLOH    C2 9320   3.046  -0.006   0.419 -0.1375  0.2320 -0.2589
   82GLOH   H04 9321   3.142   0.028   0.461  0.5581 -3.6431  1.4839
   82GLOH    O2 9322   2.945   0.083   0.476  0.0611  0.1325  0.4597
   82GLOH   H05 9323   2.944   0.165   0.424  2.0858 -1.5931 -2.5147
   82GLOH    C3 9324   3.037  -0.149   0.482  0.6986  0.3540 -0.7593
   82GLOH   H06 9325   2.938  -0.183   0.453  0.7741  1.5745 -2.5166
   82GLOH   H07 9326   3.042  -0.144   0.591 -1.3219  1.3129 -0.7077
   82GLOH    O3 9327   3.126  -0.247   0.431 -0.5068  0.1112 -0.1993
   82GLOH   H01 9328   3.218  -0.214   0.441  0.2192 -1.6483 -0.8189
   83GLOH   H03 9329   3.652   8.068   0.374  0.5461 -0.9647 -2.2487
   83GLOH    O1 9330   3.688   8.153   0.343 -0.0979  0.1577 -0.0368
   83GLOH    C1 9331   3.821   8.180   0.394  0.0310  0.2562 -0.4482
   83GLOH   H02 9332   3.841   8.128   0.487  1.0845  0.5351 -0.5119
   83GLOH   H08 9333   3.828   8.286   0.420 -2.1488  0.2047  0.4194
   83GLOH    C2 9334   3.924   8.125   0.289 -0.2954  0.1241  0.6328
   83GLOH   H04 9335   3.916   8.188   0.199 -1.5864 -0.9344 -0.0191
   83GLOH    O2 9336   4.056   8.131   0.342 -0.4973  0.8315 -0.5442
   83GLOH   H05 9337   4.112   8.094   0.271  1.5717 -0.2845  1.6304
   83GLOH    C3 9338   3.896   7.979   0.246 -0.1934  0.3589  0.0420
   83GLOH   H06 9339   3.986   7.938   0.199 -1.4134 -0.9461 -1.2249
   83GLOH   H07 9340   3.831   7.985   0.159  1.4536 -2.6275 -1.5005
   83GLOH    O3 9341   3.848   7.888   0.346  0.5057  0.3819  0.0307
   83GLOH   H01 9342   3.895   7.905   0.430 -0.5326  2.0671  0.3034
   84GLOH   H03 9343   1.181   4.600   2.706  1.3793 -0.4445  0.8252
   84GLOH    O1 9344   1.128   4.528   2.745  0.3085 -0.1149 -0.0033
   84GLOH    C1 9345   1.225   4.456   2.829 -0.1873  0.4996  0.1102
   84GLOH   H02 9346   1.277   4.531   2.888  2.2320 -0.6599 -0.4933
   84GLOH   H08 9347   1.305   4.398   2.783 -2.5764 -2.4185 -0.5923
   84GLOH    C2 9348   1.149   4.360   2.925 -0.3882 -1.0680 -0.0140
   84GLOH   H04 9349   1.095   4.286   2.864 -0.9045 -0.5528 -0.1884
   84GLOH    O2 9350   1.238   4.286   3.001 -0.1574  0.1736  0.0349
   84GLOH   H05 9351   1.208   4.194   3.007 -0.1139  0.2573  1.8712
   84GLOH    C3 9352   1.040   4.437   3.006 -0.4544 -0.1335  0.3325
   84GLOH   H06 9353   1.072   4.532   3.047 -1.6856 -0.8684  3.1100
   84GLOH   H07 9354   1.023   4.380   3.098  0.7697 -0.9886  0.0459
   84GLOH    O3 9355   0.913   4.444   2.932 -0.0833 -0.2321 -0.1855
   84GLOH   H01 9356   0.926   4.425   2.837  0.2231 -0.9211 -0.0051
   85GLOH   H03 9357   3.281   1.540   2.674  0.4198  1.2967  1.4265
   85GLOH    O1 9358   3.190   1.571   2.660  0.1982 -0.1405 -0.6343
   85GLOH    C1 9359   3.159   1.653   2.779  0.7914  0.3511  1.3198
   85GLOH   H02 9360   3.070   1.712   2.758 -0.1391 -1.8308 -1.0358
   85GLOH   H08 9361   3.243   1.718   2.804  2.6250 -1.2721 -0.4628
   85GLOH    C2 9362   3.129   1.561   2.894 -0.4400 -0.2359 -0.1260
   85GLOH   H04 9363   3.099   1.463   2.855  1.6630 -0.5759 -0.9916
   85GLOH    O2 9364   3.247   1.527   2.966 -0.3419  0.7097 -0.1099
   85GLOH   H05 9365   3.263   1.579   3.046  2.2870 -1.9723  1.2188
   85GLOH    C3 9366   3.031   1.614   3.003 -0.2260 -0.0126  0.7818
   85GLOH   H06 9367   3.029   1.556   3.095 -0.8486 -0.5272  0.4485
   85GLOH   H07 9368   2.928   1.609   2.967 -0.0852  2.9060 -0.1737
   85GLOH    O3 9369   3.052   1.757   3.031  0.0738 -0.1314 -0.4868
   85GLOH   H01 9370   3.027   1.818   2.959  0.8252  0.7135 -0.0359
   86GLOH   H03 9371   3.420   7.260   1.679  0.6563  0.1994 -0.5100
   86GLOH    O1 9372   3.385   7.172   1.654 -0.1678  0.2533  0.4339
   86GLOH    C1 9373   3.344   7.176   1.511 -0.8474  0.3648  0.0737
   86GLOH   H02 9374   3.437   7.155   1.459 -0.9146 -1.8444  0.7973
   86GLOH   H08 9375   3.301   7.269   1.474 -1.4679  1.1872  2.7455
   86GLOH    C2 9376   3.242   7.066   1.474  0.1441  0.0879 -0.0922
   86GLOH   H04 9377   3.145   7.073   1.525 -1.4124 -1.5783 -2.7284
   86GLOH    O2 9378   3.211   7.072   1.340 -0.0942  0.0258  0.6104
   86GLOH   H05 9379   3.167   7.156   1.319 -0.1097  0.1085  0.9709
   86GLOH    C3 9380   3.296   6.928   1.518 -0.3715 -0.2810 -0.0762
   86GLOH   H06 9381   3.373   6.901   1.447 -0.1329  0.2827 -0.0350
   86GLOH   H07 9382   3.217   6.860   1.487 -0.0306 -0.5484 -0.3491
   86GLOH    O3 9383   3.352   6.917   1.653 -0.4167 -0.5711 -0.0852
   86GLOH   H01 9384   3.375   7.007   1.683 -0.5022 -0.3038 -0.8003
   87GLOH   H03 9385   3.509   1.333   1.768  1.6064 -0.7749 -2.4533
   87GLOH    O1 9386   3.578   1.375   1.822 -1.0510  0.4678  0.1135
   87GLOH    C1 9387   3.705   1.346   1.760  0.6535 -0.6107 -0.0432
   87GLOH   H02 9388   3.698   1.359   1.652  1.1118 -2.4482 -0.3104
   87GLOH   H08 9389   3.742   1.245   1.779  1.3194 -0.5756 -1.1815
   87GLOH    C2 9390   3.822   1.436   1.811 -0.0878 -0.0649  0.7506
   87GLOH   H04 9391   3.837   1.413   1.918  1.5768  0.2478  0.6080
   87GLOH    O2 9392   3.946   1.395   1.742 -1.0171  0.0175 -0.4756
   87GLOH   H05 9393   4.016   1.406   1.808  0.6595  0.8875 -2.3811
   87GLOH    C3 9394   3.782   1.584   1.790  0.1672  0.3540  0.2806
   87GLOH   H06 9395   3.784   1.607   1.684 -1.5934  2.6104  0.6982
   87GLOH   H07 9396   3.863   1.641   1.836  1.2351 -0.0401 -1.1146
   87GLOH    O3 9397   3.661   1.614   1.855  0.0729  0.0883  0.8791
   87GLOH   H01 9398   3.600   1.540   1.840  0.3750  0.4244 -2.2601
   88GLOH   H03 9399   5.518   3.897   2.315 -1.6285  2.1073 -0.5160
   88GLOH    O1 9400   5.539   3.918   2.223 -0.0964  0.2987 -0.6131
   88GLOH    C1 9401   5.509   3.799   2.146 -0.4213 -0.3697 -0.7449
   88GLOH   H02 9402   5.444   3.733   2.203 -0.6257  0.9417  0.5727
   88GLOH   H08 9403   5.600   3.747   2.119 -0.8964 -1.2110 -0.7181
   88GLOH    C2 9404   5.428   3.838   2.014 -0.2275  0.2822 -0.5902
   88GLOH   H04 9405   5.490   3.915   1.964  1.2476  0.1459  0.9750
   88GLOH    O2 9406   5.405   3.727   1.932 -0.2990  0.2198  1.3085
   88GLOH   H05 9407   5.462   3.651   1.951  1.0934  0.8171 -0.3448
   88GLOH    C3 9408   5.296   3.908   2.053  0.1659  0.1122 -0.6102
   88GLOH   H06 9409   5.252   3.960   1.968  2.3743  0.8914 -1.3184
   88GLOH   H07 9410   5.323   3.993   2.116  0.9202  0.3159 -1.1970
   88GLOH    O3 9411   5.210   3.823   2.133 -0.4234  0.5514 -0.3125
   88GLOH   H01 9412   5.200   3.874   2.216 -0.7189  1.5824 -0.9619
   89GLOH   H03 9413  10.062   3.126   2.346 -0.9671  1.5248  2.0836
   89GLOH    O1 9414  10.016   3.183   2.282  0.4265 -0.0352 -0.3957
   89GLOH    C1 9415  10.106   3.262   2.212  0.2158 -0.3329  0.3636
   89GLOH   H02 9416  10.058   3.323   2.136  1.3603 -0.3343 -0.3797
   89GLOH   H08 9417  10.180   3.203   2.157 -1.1775 -0.4059 -1.4847
   89GLOH    C2 9418  10.187   3.360   2.298  0.6179 -0.1414  0.6160
   89GLOH   H04 9419  10.253   3.301   2.363 -0.9411 -1.1632  1.3012
   89GLOH    O2 9420  10.266   3.449   2.216 -0.1131  0.1867  0.5307
   89GLOH   H05 9421  10.212   3.529   2.199  0.6434  0.2589 -1.6815
   89GLOH    C3 9422  10.100   3.440   2.392  0.5412  0.2832 -0.4579
   89GLOH   H06 9423  10.011   3.488   2.352  1.7793  2.9093 -0.1831
   89GLOH   H07 9424  10.158   3.526   2.426  0.6988 -0.7475  2.0069
   89GLOH    O3 9425  10.059   3.369   2.511  0.0333 -0.5558  0.2306
   89GLOH   H01 9426   9.963   3.380   2.524  0.0061  0.8023 -1.0234
   90GLOH   H03 9427   1.040   4.197   1.667 -0.7147  1.0976  1.1500
   90GLOH    O1 9428   1.057   4.122   1.727 -0.5315  0.1866 -0.0123
   90GLOH    C1 9429   1.019   3.995   1.666  0.2296 -0.1075  0.0414
   90GLOH   H02 9430   1.093   3.964   1.592 -1.4278 -0.1348 -1.6408
   90GLOH   H08 9431   0.920   3.997   1.620  1.0849  0.7325 -1.7787
   90GLOH    C2 9432   1.026   3.878   1.763  0.5061  0.0012  0.9638
   90GLOH   H04 9433   0.972   3.795   1.714  0.3221  0.8707 -0.3508
   90GLOH    O2 9434   1.163   3.845   1.789  0.0848  0.2771  0.4161
   90GLOH   H05 9435   1.220   3.915   1.825  2.8392 -2.1269  0.9492
   90GLOH    C3 9436   0.938   3.903   1.890  0.0207 -0.5870  0.0238
   90GLOH   H06 9437   0.994   3.974   1.951  0.2355 -2.1826  1.7355
   90GLOH   H07 9438   0.936   3.815   1.954  0.1882 -1.0830 -0.6396
   90GLOH    O3 9439   0.804   3.946   1.845 -0.0007  0.2991 -0.1935
   90GLOH   H01 9440   0.805   4.043   1.836 -0.2216  0.4452  1.1272
   91GLOH   H03 9441   3.352   0.854   0.574  0.5969  0.9379 -1.4615
   91GLOH    O1 9442   3.274   0.904   0.546 -0.8143 -0.0994  0.4265
   91GLOH    C1 9443   3.160   0.895   0.634  0.0509  0.2989 -0.7973
   91GLOH   H02 9444   3.162   0.956   0.724  3.2097 -2.2370  0.9615
   91GLOH   H08 9445   3.148   0.790   0.662 -0.9149  0.6166  0.0443
   91GLOH    C2 9446   3.033   0.913   0.552  1.1427  0.9317  0.2050
   91GLOH   H04 9447   3.018   0.836   0.475  0.1479 -1.4635  2.6983
   91GLOH    O2 9448   2.920   0.894   0.644  0.2984 -0.4467 -0.0855
   91GLOH   H05 9449   2.921   0.805   0.682  0.8659  0.2699  1.6247
   91GLOH    C3 9450   3.038   1.050   0.478  0.3695  0.3611  0.7549
   91GLOH   H06 9451   2.941   1.059   0.429 -1.0611  0.6352  3.5194
   91GLOH   H07 9452   3.109   1.058   0.396 -2.1933  1.1998 -1.4078
   91GLOH    O3 9453   3.054   1.164   0.569 -0.2400 -0.1016 -0.2311
   91GLOH   H01 9454   3.121   1.220   0.525  1.5600 -0.5433  1.8451
   92GLOH   H03 9455   2.457   6.724   2.661  1.1842 -0.1123 -1.1506
   92GLOH    O1 9456   2.532   6.739   2.721  0.3012  0.2267 -0.1135
   92GLOH    C1 9457   2.587   6.614   2.756 -0.3274  0.3171  0.1694
   92GLOH   H02 9458   2.629   6.573   2.665  0.2071 -0.5193  0.7886
   92GLOH   H08 9459   2.512   6.542   2.789 -0.9152  0.6787 -0.3701
   92GLOH    C2 9460   2.707   6.619   2.850  0.2266 -0.0446 -0.1943
   92GLOH   H04 9461   2.677   6.676   2.939  0.4937 -0.1883 -0.0121
   92GLOH    O2 9462   2.741   6.484   2.880 -0.5635  0.1584 -0.1787
   92GLOH   H05 9463   2.818   6.479   2.940 -0.5952  0.7107 -0.0921
   92GLOH    C3 9464   2.822   6.687   2.774 -0.2440 -0.1211  0.6840
   92GLOH   H06 9465   2.918   6.681   2.825  0.7289  1.5854 -0.8984
   92GLOH   H07 9466   2.794   6.789   2.750 -2.4854 -0.9661 -0.4471
   92GLOH    O3 9467   2.852   6.611   2.657 -0.1127 -0.0200  0.3548
   92GLOH   H01 9468   2.859   6.517   2.682 -0.4807  0.0973  0.9086
   93GLOH   H03 9469   4.077   5.303   1.498  1.3980 -1.0724 -0.2269
   93GLOH    O1 9470   4.015   5.245   1.450  0.1475  0.3870 -0.4198
   93GLOH    C1 9471   4.044   5.240   1.310 -0.1533 -0.0306  0.0190
   93GLOH   H02 9472   4.053   5.342   1.272 -0.7072  0.3431  0.8568
   93GLOH   H08 9473   3.977   5.185   1.245  0.7698 -1.3886  0.2048
   93GLOH    C2 9474   4.182   5.172   1.287  0.0512  0.5221  0.1537
   93GLOH   H04 9475   4.254   5.248   1.321 -0.1934  0.0822  1.6531
   93GLOH    O2 9476   4.195   5.049   1.360 -0.3419 -0.0282  0.4264
   93GLOH   H05 9477   4.274   5.061   1.416  0.4267  0.6207 -0.7507
   93GLOH    C3 9478   4.214   5.158   1.138  0.4907 -0.0690  0.0542
   93GLOH   H06 9479   4.314   5.116   1.128  0.6395  0.5961 -1.4861
   93GLOH   H07 9480   4.223   5.260   1.100 -0.7634  0.3818  0.9332
   93GLOH    O3 9481   4.114   5.088   1.067 -0.3176  0.7528  0.6189
   93GLOH   H01 9482   4.105   5.001   1.111  0.5786  0.4948  0.2970
   94GLOH   H03 9483   0.915   4.062   2.736  0.2382  0.0618  0.3560
   94GLOH    O1 9484   0.829   4.106   2.750  0.1843 -0.0146  0.2623
   94GLOH    C1 9485   0.727   4.010   2.722 -0.4120 -1.0764  0.1918
   94GLOH   H02 9486   0.643   4.033   2.788 -0.9336 -0.4098 -0.6938
   94GLOH   H08 9487   0.752   3.908   2.753  1.7769 -0.8716 -0.7665
   94GLOH    C2 9488   0.673   4.009   2.576 -0.2236  0.9853  0.5220
   94GLOH   H04 9489   0.756   3.982   2.509  0.5149 -0.2792  1.9167
   94GLOH    O2 9490   0.573   3.905   2.575  0.1893  0.3269 -0.4772
   94GLOH   H05 9491   0.578   3.870   2.484 -0.2490  0.6254 -0.6185
   94GLOH    C3 9492   0.612   4.146   2.532 -0.0023 -0.3810 -0.3159
   94GLOH   H06 9493   0.684   4.224   2.554 -1.8809  0.7756  2.0007
   94GLOH   H07 9494   0.525   4.167   2.594  0.2534 -4.1460  1.4656
   94GLOH    O3 9495   0.569   4.141   2.396  0.2499 -0.0462  0.0796
   94GLOH   H01 9496   0.652   4.134   2.346  0.2742  0.0802  0.1030
   95GLOH   H03 9497   3.255   9.528   1.818  0.0631 -0.6983 -1.4078
   95GLOH    O1 9498   3.203   9.595   1.770  0.0914  0.4130  0.0706
   95GLOH    C1 9499   3.220   9.582   1.631  0.1729 -0.3848  1.2067
   95GLOH   H02 9500   3.183   9.673   1.582  0.7823 -0.7349  0.0698
   95GLOH   H08 9501   3.152   9.511   1.583  0.6312  0.1073 -0.1934
   95GLOH    C2 9502   3.356   9.540   1.575 -0.6242 -0.0418 -0.6072
   95GLOH   H04 9503   3.391   9.455   1.635  0.8933  1.4440  0.6880
   95GLOH    O2 9504   3.361   9.503   1.437 -0.2562  0.8768  0.3438
   95GLOH   H05 9505   3.455   9.508   1.414 -0.6328  3.2086 -0.9067
   95GLOH    C3 9506   3.453   9.661   1.604 -0.5123 -0.0820  0.3229
   95GLOH   H06 9507   3.555   9.644   1.569 -0.0962  1.1900  0.8659
   95GLOH   H07 9508   3.461   9.663   1.713  0.2458 -1.5829  0.3060
   95GLOH    O3 9509   3.411   9.790   1.554  0.4733  0.3462  0.4747
   95GLOH   H01 9510   3.493   9.843   1.550 -1.0308  3.0387  2.8271
   96GLOH   H03 9511   4.544   0.704   2.527  3.0358 -2.4763 -0.8401
   96GLOH    O1 9512   4.527   0.625   2.582 -0.5465 -0.9944  0.3737
   96GLOH    C1 9513   4.440   0.530   2.516  0.2829 -0.1095 -0.7339
   96GLOH   H02 9514   4.459   0.427   2.548 -2.1952 -0.1895  0.6178
   96GLOH   H08 9515   4.442   0.535   2.407  0.3465  2.0236 -0.6562
   96GLOH    C2 9516   4.293   0.550   2.562 -0.0330  0.8248  0.1731
   96GLOH   H04 9517   4.259   0.649   2.529 -0.7181  1.2420  2.0358
   96GLOH    O2 9518   4.202   0.451   2.503  0.5306 -0.0758 -0.3639
   96GLOH   H05 9519   4.225   0.361   2.533 -2.9640 -1.3259 -1.1755
   96GLOH    C3 9520   4.281   0.520   2.714  0.1949  0.1598 -0.3592
   96GLOH   H06 9521   4.298   0.414   2.732 -0.3193  0.4758  2.3397
   96GLOH   H07 9522   4.175   0.540   2.731  0.1917 -1.4972  1.8027
   96GLOH    O3 9523   4.376   0.594   2.792  0.0608  0.1596 -0.1145
   96GLOH   H01 9524   4.456   0.609   2.739  0.9340 -1.9405  0.5766
   97GLOH   H03 9525   4.355   4.555   2.178  4.5932  0.7012  1.1195
   97GLOH    O1 9526   4.373   4.467   2.140  0.2421  0.4522 -0.6598
   97GLOH    C1 9527   4.283   4.363   2.177  0.4329 -0.3603 -0.0072
   97GLOH   H02 9528   4.234   4.309   2.096  1.2362 -3.8111  1.7215
   97GLOH   H08 9529   4.210   4.412   2.241  0.1031 -1.5762  0.5628
   97GLOH    C2 9530   4.362   4.259   2.252  0.0265  0.0322  0.8308
   97GLOH   H04 9531   4.298   4.171   2.266 -1.5982  1.4661  2.7228
   97GLOH    O2 9532   4.466   4.206   2.170 -0.2755 -0.1162 -0.6862
   97GLOH   H05 9533   4.434   4.144   2.102 -0.5077  1.3104 -1.9098
   97GLOH    C3 9534   4.402   4.304   2.389  0.1818 -0.0323 -0.6301
   97GLOH   H06 9535   4.503   4.266   2.403  0.4541  1.7825  3.1396
   97GLOH   H07 9536   4.340   4.266   2.472  0.9346  0.4324  0.1502
   97GLOH    O3 9537   4.399   4.446   2.412  0.0605  0.0908 -0.3205
   97GLOH   H01 9538   4.478   4.479   2.365  0.4127  0.6867  0.6666
   98GLOH   H03 9539   9.312   4.333   0.773  1.4788  0.9331  0.9034
   98GLOH    O1 9540   9.276   4.278   0.845  0.4359  0.4525  0.0254
   98GLOH    C1 9541   9.197   4.365   0.932 -0.2962  0.4243  0.1461
   98GLOH   H02 9542   9.092   4.354   0.905 -0.3620  0.9480  0.1908
   98GLOH   H08 9543   9.239   4.463   0.908 -1.1509  0.8917  0.5718
   98GLOH    C2 9544   9.198   4.324   1.079 -0.3296  0.2340 -0.2160
   98GLOH   H04 9545   9.302   4.328   1.115 -0.8147  0.1345  1.2623
   98GLOH    O2 9546   9.126   4.405   1.162  0.0586 -0.2356 -0.3778
   98GLOH   H05 9547   9.118   4.492   1.119 -1.3862 -0.5403 -0.7682
   98GLOH    C3 9548   9.136   4.178   1.092 -0.0216  0.4671  0.9312
   98GLOH   H06 9549   9.028   4.182   1.074 -0.0454 -1.9028  0.2807
   98GLOH   H07 9550   9.150   4.152   1.197 -1.1187  3.0693  1.7573
   98GLOH    O3 9551   9.208   4.086   1.003  0.1310  0.1190 -0.0163
   98GLOH   H01 9552   9.240   4.146   0.933  0.4060 -1.8424 -1.6584
   99GLOH   H03 9553   2.258   0.516   2.203 -2.1434 -0.0529 -0.5082
   99GLOH    O1 9554   2.284   0.520   2.109 -0.0254 -0.0058  0.0540
   99GLOH    C1 9555   2.394   0.609   2.099 -0.3856  0.0458 -0.1217
   99GLOH   H02 9556   2.435   0.592   2.000 -1.0045 -1.4645 -0.1291
   99GLOH   H08 9557   2.469   0.594   2.177 -0.4415  1.6331  0.2629
   99GLOH    C2 9558   2.360   0.753   2.094  0.0912  0.0731  0.5010
   99GLOH   H04 9559   2.290   0.771   2.177  1.1371 -3.1967  2.1796
   99GLOH    O2 9560   2.474   0.835   2.123 -0.5985 -0.1305 -0.1403
   99GLOH   H05 9561   2.563   0.796   2.132  0.2402  1.5821 -0.7874
   99GLOH    C3 9562   2.291   0.795   1.959 -0.3898  0.1440 -0.4617
   99GLOH   H06 9563   2.253   0.897   1.958  2.7738  1.3388 -1.7833
   99GLOH   H07 9564   2.214   0.720   1.938 -2.1224  1.9550 -0.7151
   99GLOH    O3 9565   2.378   0.793   1.848 -0.5021  0.6554 -0.3514
   99GLOH   H01 9566   2.427   0.877   1.841 -2.1612  1.9371  2.3255
  100GLOH   H03 9567   3.737   8.457   1.787 -0.9043  0.6496 -2.4170
  100GLOH    O1 9568   3.701   8.367   1.783  0.0770  0.1088  0.1797
  100GLOH    C1 9569   3.643   8.345   1.913  0.6046 -0.2013 -0.2611
  100GLOH   H02 9570   3.547   8.395   1.920  0.8221  0.1039  0.6848
  100GLOH   H08 9571   3.702   8.395   1.991 -0.2321  0.9227 -0.3403
  100GLOH    C2 9572   3.612   8.194   1.951 -0.0429 -0.2053 -0.4059
  100GLOH   H04 9573   3.696   8.126   1.930  0.0496 -0.6723  1.3970
  100GLOH    O2 9574   3.567   8.180   2.085 -0.2713  0.3810 -0.0788
  100GLOH   H05 9575   3.583   8.087   2.107  1.5586  0.4535 -1.0040
  100GLOH    C3 9576   3.511   8.144   1.852 -0.1703 -0.1128 -0.0926
  100GLOH   H06 9577   3.543   8.166   1.750 -0.5769 -2.4834 -0.7851
  100GLOH   H07 9578   3.422   8.206   1.860 -2.2811 -2.9203 -0.5793
  100GLOH    O3 9579   3.479   8.006   1.868 -0.4681  0.2535 -0.1567
  100GLOH   H01 9580   3.449   7.972   1.782 -2.3371  0.5473  0.3492
  101GLOH   H03 9581   1.416   7.282   1.743  0.0045 -1.2412  0.0383
  101GLOH    O1 9582   1.446   7.219   1.675  0.2661 -0.3362 -0.7127
  101GLOH    C1 9583   1.564   7.164   1.723  0.6419 -0.0531 -0.3638
  101GLOH   H02 9584   1.616   7.233   1.789 -0.7736 -0.1626  0.8849
  101GLOH   H08 9585   1.633   7.151   1.639  0.9714 -1.4699  0.1164
  101GLOH    C2 9586   1.565   7.024   1.797 -0.2396  0.0457 -0.1995
  101GLOH   H04 9587   1.657   7.003   1.854 -1.2071 -3.2911  0.2326
  101GLOH    O2 9588   1.452   7.014   1.891 -0.1686  0.3002 -0.4633
  101GLOH   H05 9589   1.471   6.954   1.965  3.4050 -1.1636 -2.4688
  101GLOH    C3 9590   1.542   6.913   1.699 -0.6972 -0.2653  0.6664
  101GLOH   H06 9591   1.460   6.951   1.638  2.8767 -0.7244 -4.7794
  101GLOH   H07 9592   1.500   6.825   1.749  2.0798 -0.9996  1.7855
  101GLOH    O3 9593   1.659   6.889   1.623 -0.0023 -0.0794 -0.0030
  101GLOH   H01 9594   1.729   6.836   1.665  0.4049 -1.6954 -2.5535
  102GLOH   H03 9595   5.517   3.466   1.618 -1.6381  1.6595 -2.0258
  102GLOH    O1 9596   5.593   3.475   1.558  0.3035 -0.3264  0.0279
  102GLOH    C1 9597   5.528   3.482   1.430  0.0827  0.0688 -0.4691
  102GLOH   H02 9598   5.488   3.582   1.415 -1.0339 -0.4091 -0.6931
  102GLOH   H08 9599   5.450   3.407   1.421  0.6316 -0.6550  0.7245
  102GLOH    C2 9600   5.634   3.460   1.320 -0.7063  0.9067 -0.4320
  102GLOH   H04 9601   5.681   3.364   1.345 -1.4091  0.9934  1.3038
  102GLOH    O2 9602   5.574   3.466   1.193 -0.0232 -0.5689  0.3617
  102GLOH   H05 9603   5.502   3.529   1.182  1.5203  0.9614 -1.2850
  102GLOH    C3 9604   5.737   3.574   1.326 -0.1998 -0.1422  0.7054
  102GLOH   H06 9605   5.690   3.669   1.300 -0.7910 -0.2675  1.2883
  102GLOH   H07 9606   5.806   3.555   1.243  1.9070  0.7417  2.2321
  102GLOH    O3 9607   5.807   3.580   1.450 -0.7533  0.2973  0.3970
  102GLOH   H01 9608   5.746   3.535   1.512 -1.9861  1.3369 -0.0265
  103GLOH   H03 9609   1.897   3.684   1.785  0.2343  0.6047  1.7096
  103GLOH    O1 9610   1.979   3.632   1.775 -0.0649  0.3757  0.1713
  103GLOH    C1 9611   2.095   3.710   1.809 -0.2602 -0.2355 -0.0814
  103GLOH   H02 9612   2.079   3.813   1.777  3.2331  0.7480  1.1391
  103GLOH   H08 9613   2.179   3.673   1.750  1.1169  1.0331  1.0362
  103GLOH    C2 9614   2.142   3.700   1.954  0.1180  0.2271 -0.1869
  103GLOH   H04 9615   2.236   3.756   1.971  0.8396 -1.1624  0.4728
  103GLOH    O2 9616   2.042   3.758   2.045  0.5016  0.2087 -0.1856
  103GLOH   H05 9617   1.960   3.707   2.042  0.3021  0.4236  1.5098
  103GLOH    C3 9618   2.183   3.561   1.993 -0.2836 -0.2037  0.4949
  103GLOH   H06 9619   2.097   3.499   2.014 -0.9255  1.4000  2.7931
  103GLOH   H07 9620   2.232   3.574   2.089 -1.5195  1.6077  0.9045
  103GLOH    O3 9621   2.278   3.503   1.901  0.0752  0.3142 -0.2394
  103GLOH   H01 9622   2.370   3.532   1.917 -0.0931  0.3734  0.6590
  104GLOH   H03 9623   2.764   9.142   2.245 -2.0586 -0.0277  1.3890
  104GLOH    O1 9624   2.776   9.228   2.289 -0.1745  0.3096  0.2516
  104GLOH    C1 9625   2.719   9.334   2.205  0.6436 -0.0486 -0.6348
  104GLOH   H02 9626   2.721   9.310   2.099  2.7641  0.7835 -0.8099
  104GLOH   H08 9627   2.795   9.412   2.209 -0.3042  0.8832 -0.6004
  104GLOH    C2 9628   2.570   9.368   2.242  0.3467  0.5401  0.6773
  104GLOH   H04 9629   2.569   9.419   2.339  1.5913  1.3039  0.2963
  104GLOH    O2 9630   2.514   9.465   2.151 -0.1167 -0.3384  0.4330
  104GLOH   H05 9631   2.467   9.415   2.082 -2.2215  0.8798  0.9104
  104GLOH    C3 9632   2.478   9.242   2.257  0.5090  0.4547  0.1351
  104GLOH   H06 9633   2.379   9.289   2.262  0.5687  0.7962 -1.4936
  104GLOH   H07 9634   2.493   9.183   2.347 -3.9335 -0.8569  0.1507
  104GLOH    O3 9635   2.483   9.160   2.140 -0.3628 -0.2717 -0.0498
  104GLOH   H01 9636   2.568   9.111   2.139  0.2005  0.6230  2.1070
  105GLOH   H03 9637   1.186   5.610   1.459  0.3724  1.7432 -0.1753
  105GLOH    O1 9638   1.142   5.586   1.375 -0.1704 -0.2686  0.6470
  105GLOH    C1 9639   1.061   5.698   1.341  0.2550  0.2584 -0.4499
  105GLOH   H02 9640   0.992   5.710   1.425 -1.6282 -0.9854 -1.7792
  105GLOH   H08 9641   1.001   5.677   1.252 -0.5872  0.4030  0.0735
  105GLOH    C2 9642   1.136   5.830   1.323 -0.1073 -0.0034 -0.1275
  105GLOH   H04 9643   1.205   5.838   1.408 -2.5184  0.8212  1.8198
  105GLOH    O2 9644   1.209   5.826   1.201 -0.5623 -0.3121 -0.0458
  105GLOH   H05 9645   1.170   5.756   1.145 -3.0409  1.2569 -0.3589
  105GLOH    C3 9646   1.046   5.958   1.318  0.0433  0.3693  0.0043
  105GLOH   H06 9647   0.982   5.943   1.231 -0.4910 -0.9638  0.5956
  105GLOH   H07 9648   1.097   6.052   1.300 -1.3686  1.0636 -0.4195
  105GLOH    O3 9649   0.968   5.972   1.434 -0.0201  0.3764  0.3791
  105GLOH   H01 9650   0.957   6.069   1.444 -1.4103  0.4579 -1.5760
  106GLOH   H03 9651   3.144   6.786   2.387 -1.1212  0.0619 -1.6515
  106GLOH    O1 9652   3.169   6.790   2.293  0.1145 -0.2488 -1.3490
  106GLOH    C1 9653   3.238   6.672   2.254 -0.1029 -0.4483  0.0490
  106GLOH   H02 9654   3.208   6.586   2.315 -2.3018  0.2987  0.0544
  106GLOH   H08 9655   3.344   6.694   2.262 -0.6098  2.0205  0.2526
  106GLOH    C2 9656   3.200   6.635   2.118  1.0786  0.5792 -0.4394
  106GLOH   H04 9657   3.226   6.718   2.051  0.3340  1.2381  0.0777
  106GLOH    O2 9658   3.274   6.517   2.083  0.1886  0.3729  0.3193
  106GLOH   H05 9659   3.293   6.460   2.160  1.1840  1.1150  0.6390
  106GLOH    C3 9660   3.042   6.620   2.113 -0.2641 -0.3301  0.0467
  106GLOH   H06 9661   3.007   6.548   2.186 -0.6969 -1.9069 -1.6764
  106GLOH   H07 9662   3.017   6.584   2.013  1.7433 -1.6811  0.0011
  106GLOH    O3 9663   2.975   6.745   2.136 -0.5167 -0.0341  0.1532
  106GLOH   H01 9664   3.042   6.803   2.178  1.9221 -1.9860 -0.9492
  107GLOH   H03 9665   4.231   3.777   1.259  0.1876  1.3789  1.8610
  107GLOH    O1 9666   4.320   3.807   1.231 -0.1961  0.4980 -0.4642
  107GLOH    C1 9667   4.328   3.792   1.090  0.4465 -0.3750 -0.1930
  107GLOH   H02 9668   4.407   3.850   1.041  1.8830 -0.5943  1.8078
  107GLOH   H08 9669   4.238   3.830   1.042 -0.9841 -1.2153  1.7672
  107GLOH    C2 9670   4.326   3.647   1.050 -0.0719 -0.3751  0.2741
  107GLOH   H04 9671   4.227   3.617   1.088 -0.1259 -0.4464  0.0772
  107GLOH    O2 9672   4.321   3.628   0.908  0.3779 -0.5557 -0.2222
  107GLOH   H05 9673   4.232   3.647   0.872 -0.5134 -1.0211  1.6635
  107GLOH    C3 9674   4.438   3.568   1.115 -0.2692 -0.0922 -0.2703
  107GLOH   H06 9675   4.536   3.587   1.070 -1.2601  1.3897 -1.8658
  107GLOH   H07 9676   4.424   3.462   1.097 -0.4007 -0.3380  1.2770
  107GLOH    O3 9677   4.452   3.596   1.257 -0.2915  0.1631  0.1354
  107GLOH   H01 9678   4.413   3.685   1.270 -3.2156 -1.1360  0.6336
  108GLOH   H03 9679   4.467   1.875   2.766 -0.5184 -3.3472 -0.8007
  108GLOH    O1 9680   4.550   1.860   2.718  0.3696 -0.2679 -0.3242
  108GLOH    C1 9681   4.557   1.716   2.695 -0.5322 -0.4764  0.1148
  108GLOH   H02 9682   4.571   1.697   2.589 -1.1754 -0.1117 -0.0389
  108GLOH   H08 9683   4.469   1.663   2.732  0.0243 -1.5770 -0.1361
  108GLOH    C2 9684   4.672   1.647   2.772  0.3385  0.1703  0.0125
  108GLOH   H04 9685   4.665   1.541   2.746 -1.5967  0.3915 -0.4725
  108GLOH    O2 9686   4.803   1.689   2.731 -0.0705  0.0103  0.6518
  108GLOH   H05 9687   4.804   1.690   2.634  1.5553  1.7140  0.6476
  108GLOH    C3 9688   4.654   1.663   2.924 -0.5952  0.1797  0.2116
  108GLOH   H06 9689   4.649   1.765   2.959 -0.2264 -0.0864  1.0529
  108GLOH   H07 9690   4.750   1.635   2.968 -0.1604  1.6360  0.1901
  108GLOH    O3 9691   4.543   1.579   2.975  0.4458  0.3862  0.0974
  108GLOH   H01 9692   4.584   1.495   3.001  0.5348  0.2309 -0.5166
  109GLOH   H03 9693   5.426   3.775   2.491 -1.4233  1.4387 -1.1273
  109GLOH    O1 9694   5.488   3.849   2.474 -0.2757  0.6969 -0.2706
  109GLOH    C1 9695   5.520   3.914   2.589 -0.4812 -0.3856  0.9238
  109GLOH   H02 9696   5.564   4.010   2.560 -1.2862  0.0876  1.2317
  109GLOH   H08 9697   5.607   3.869   2.637 -0.5597 -1.3139  0.2023
  109GLOH    C2 9698   5.403   3.934   2.687 -0.0898 -0.1617 -0.5584
  109GLOH   H04 9699   5.322   3.996   2.646  1.2190  0.5173 -2.1694
  109GLOH    O2 9700   5.332   3.815   2.725  0.1315  0.3544  0.8159
  109GLOH   H05 9701   5.296   3.812   2.815  1.8342 -3.7475  1.4698
  109GLOH    C3 9702   5.453   4.003   2.816 -0.0513  0.0263  0.4343
  109GLOH   H06 9703   5.532   3.943   2.861  0.6231  0.3054 -0.3844
  109GLOH   H07 9704   5.373   4.009   2.891 -1.3482 -0.7119 -0.8671
  109GLOH    O3 9705   5.499   4.137   2.792  0.3114  0.1943  0.4758
  109GLOH   H01 9706   5.460   4.197   2.858  1.2333 -0.8398  1.9816
  110GLOH   H03 9707   2.899   0.372   2.855  0.1319 -0.0664  0.5104
  110GLOH    O1 9708   2.875   0.280   2.875 -0.5097  0.0375  0.2260
  110GLOH    C1 9709   2.742   0.259   2.825 -0.4961 -0.3332  0.3775
  110GLOH   H02 9710   2.672   0.295   2.900 -1.0678 -2.7288  1.0615
  110GLOH   H08 9711   2.724   0.152   2.811 -1.7500  0.0679 -1.2111
  110GLOH    C2 9712   2.722   0.327   2.695  0.1458 -0.2145  0.4171
  110GLOH   H04 9713   2.785   0.283   2.616 -0.7413 -0.2431 -0.2760
  110GLOH    O2 9714   2.586   0.304   2.646 -0.0385 -0.8318 -0.2167
  110GLOH   H05 9715   2.585   0.208   2.635  0.0372 -0.7493 -0.9904
  110GLOH    C3 9716   2.742   0.479   2.713 -0.2384  0.2457  0.3371
  110GLOH   H06 9717   2.674   0.508   2.793 -0.4467 -0.0330  0.2596
  110GLOH   H07 9718   2.704   0.525   2.622  1.5797 -1.6988 -1.4341
  110GLOH    O3 9719   2.882   0.516   2.739  0.0251 -0.3585  0.1494
  110GLOH   H01 9720   2.884   0.613   2.751 -0.2982 -0.2161 -0.9317
  111GLOH   H03 9721   2.531   5.537   2.126 -0.4772  0.8503 -0.4799
  111GLOH    O1 9722   2.457   5.601   2.123 -0.7433  0.5988  0.4676
  111GLOH    C1 9723   2.461   5.676   1.998 -0.3205  0.6185  0.1901
  111GLOH   H02 9724   2.553   5.657   1.943 -0.0291 -0.4386  1.0181
  111GLOH   H08 9725   2.449   5.783   2.012  1.9321  1.1704 -1.6725
  111GLOH    C2 9726   2.344   5.628   1.905  0.0082 -0.4508 -0.1224
  111GLOH   H04 9727   2.343   5.701   1.822 -0.7988 -2.1276 -1.6281
  111GLOH    O2 9728   2.367   5.500   1.848  0.3229  0.4825  0.4557
  111GLOH   H05 9729   2.362   5.423   1.908  0.5725 -1.0343 -1.4020
  111GLOH    C3 9730   2.213   5.621   1.973  1.6875 -0.2097 -0.1683
  111GLOH   H06 9731   2.212   5.699   2.049 -0.1529 -1.5687  1.2496
  111GLOH   H07 9732   2.221   5.534   2.037 -0.3862  0.6994  1.3937
  111GLOH    O3 9733   2.096   5.629   1.887  0.1888 -0.3302  0.1761
  111GLOH   H01 9734   2.094   5.551   1.829  0.4197  1.8237 -2.8539
  112GLOH   H03 9735   4.542   4.836   0.860 -0.0277  0.4221 -0.8623
  112GLOH    O1 9736   4.625   4.813   0.815  0.2282 -0.8523  0.2481
  112GLOH    C1 9737   4.651   4.890   0.700  0.6826  0.7495  0.4180
  112GLOH   H02 9738   4.645   4.996   0.722  0.1137  0.5737  1.1108
  112GLOH   H08 9739   4.570   4.880   0.627  0.8481  2.0446  0.0411
  112GLOH    C2 9740   4.790   4.857   0.633  0.9499  0.1165 -0.1301
  112GLOH   H04 9741   4.783   4.751   0.605  2.6036  0.0844 -0.5076
  112GLOH    O2 9742   4.804   4.960   0.528  0.2025 -0.1623 -0.4036
  112GLOH   H05 9743   4.778   5.045   0.568  2.3583  0.2192  0.2201
  112GLOH    C3 9744   4.904   4.871   0.737 -0.4958 -0.2318 -0.2540
  112GLOH   H06 9745   4.906   4.968   0.785  0.4207 -0.9847  1.2536
  112GLOH   H07 9746   5.002   4.868   0.689  0.2296 -0.2074  1.2212
  112GLOH    O3 9747   4.909   4.763   0.835  0.2969  0.0118  0.6137
  112GLOH   H01 9748   4.828   4.738   0.883  1.1321 -2.4244  0.8117
  113GLOH   H03 9749   3.761   0.355   1.966  2.3032 -1.2983 -0.9055
  113GLOH    O1 9750   3.765   0.413   1.887  0.6963 -0.1153 -0.1474
  113GLOH    C1 9751   3.861   0.511   1.909  0.3592  0.0095  0.3492
  113GLOH   H02 9752   3.954   0.497   1.854 -0.1673 -2.3487  0.0107
  113GLOH   H08 9753   3.891   0.518   2.013  0.7480  1.7082  0.1538
  113GLOH    C2 9754   3.819   0.658   1.883  0.5305 -0.6674 -0.1498
  113GLOH   H04 9755   3.753   0.656   1.795 -0.9131 -1.2458  0.9342
  113GLOH    O2 9756   3.738   0.719   1.987  1.0620 -0.2322 -0.2035
  113GLOH   H05 9757   3.716   0.652   2.053  1.8083  0.1608  0.4458
  113GLOH    C3 9758   3.937   0.752   1.851  0.1346 -0.3084 -0.2619
  113GLOH   H06 9759   3.904   0.853   1.827  2.0188  0.5503  0.5658
  113GLOH   H07 9760   3.981   0.712   1.760 -0.2021  0.8130 -0.9320
  113GLOH    O3 9761   4.035   0.764   1.951 -0.2295 -0.2985  0.2431
  113GLOH   H01 9762   3.994   0.752   2.039  0.5868 -2.5971  0.3582
  114GLOH   H03 9763   9.317   4.006   1.913 -0.6231 -1.5103  0.8533
  114GLOH    O1 9764   9.347   4.041   1.999  0.1830 -0.6627  0.2475
  114GLOH    C1 9765   9.393   4.177   1.978 -0.2743 -0.1179 -0.7228
  114GLOH   H02 9766   9.335   4.223   1.898 -0.8148 -0.4114 -0.4993
  114GLOH   H08 9767   9.498   4.168   1.949 -0.3422 -0.7102 -0.7879
  114GLOH    C2 9768   9.400   4.268   2.099  0.3677  0.7308 -0.0123
  114GLOH   H04 9769   9.484   4.241   2.165  0.5057 -1.2968 -0.9806
  114GLOH    O2 9770   9.430   4.402   2.062  0.0522 -0.2621  0.2315
  114GLOH   H05 9771   9.525   4.423   2.062  0.2090 -0.8057 -2.5674
  114GLOH    C3 9772   9.264   4.273   2.172 -1.0326  0.4380  0.5071
  114GLOH   H06 9773   9.181   4.251   2.104 -0.8573  1.2713  0.0259
  114GLOH   H07 9774   9.248   4.373   2.211 -1.5609  0.2954  0.6618
  114GLOH    O3 9775   9.254   4.173   2.278  0.2378  0.0303  0.1319
  114GLOH   H01 9776   9.335   4.164   2.333  0.5423  0.4767 -0.2402
  115GLOH   H03 9777  10.431   4.197   0.726  1.4378  0.5606 -2.0836
  115GLOH    O1 9778  10.379   4.137   0.670  0.1584  0.1331 -0.5039
  115GLOH    C1 9779  10.271   4.208   0.614  0.6501 -0.5888  0.5098
  115GLOH   H02 9780  10.281   4.312   0.645  1.7153 -0.8923  1.2135
  115GLOH   H08 9781  10.177   4.174   0.657  0.2409 -1.4625 -1.0581
  115GLOH    C2 9782  10.266   4.182   0.465  0.1549 -0.1021 -0.8684
  115GLOH   H04 9783  10.229   4.079   0.455  0.3953 -0.4623  1.5613
  115GLOH    O2 9784  10.175   4.272   0.395 -0.2814  0.1166 -0.0204
  115GLOH   H05 9785  10.086   4.255   0.429  0.4060  0.1307  1.8142
  115GLOH    C3 9786  10.404   4.191   0.398  0.2936 -0.3628  0.4653
  115GLOH   H06 9787  10.476   4.120   0.440 -4.3121 -2.4409  5.3979
  115GLOH   H07 9788  10.445   4.291   0.413 -0.0544 -0.1439 -0.0172
  115GLOH    O3 9789  10.404   4.167   0.256  0.0361 -0.0586  0.2056
  115GLOH   H01 9790  10.467   4.228   0.213 -0.7278 -0.7853 -2.0279
  116GLOH   H03 9791   4.941   3.888   0.980 -3.1896 -0.3078  1.1666
  116GLOH    O1 9792   4.914   3.981   0.991 -0.8483  0.5134  0.1801
  116GLOH    C1 9793   4.954   4.018   1.126 -0.3855 -0.3922  0.4723
  116GLOH   H02 9794   4.997   4.118   1.133  0.4534 -0.7154  0.0190
  116GLOH   H08 9795   5.034   3.951   1.157  1.3896 -0.6744 -4.2718
  116GLOH    C2 9796   4.829   4.014   1.212  0.1742  0.8538 -0.7271
  116GLOH   H04 9797   4.783   3.915   1.208  1.0141  0.4081  0.3997
  116GLOH    O2 9798   4.872   4.026   1.355  0.2340 -0.7375  0.6371
  116GLOH   H05 9799   4.871   4.120   1.381 -1.2826 -1.0292  1.6807
  116GLOH    C3 9800   4.712   4.110   1.186 -0.4302  0.1357  0.0569
  116GLOH   H06 9801   4.739   4.214   1.208 -0.3046  0.1503 -0.1671
  116GLOH   H07 9802   4.637   4.092   1.263  1.1835 -0.3542  1.5306
  116GLOH    O3 9803   4.666   4.093   1.052  0.3277  0.1811  0.3486
  116GLOH   H01 9804   4.719   4.021   1.013  0.3854 -0.5841  1.7983
  117GLOH   H03 9805   3.432   7.812   2.484 -1.0440  0.0315  0.9435
  117GLOH    O1 9806   3.512   7.819   2.538 -0.2370  0.3236 -0.2628
  117GLOH    C1 9807   3.503   7.933   2.623 -0.0714  0.2234 -0.1270
  117GLOH   H02 9808   3.575   7.926   2.705  0.6836 -1.4417 -0.9159
  117GLOH   H08 9809   3.401   7.941   2.662 -0.1232  1.3938 -0.4898
  117GLOH    C2 9810   3.518   8.066   2.539 -0.2990 -0.5252 -0.4010
  117GLOH   H04 9811   3.442   8.061   2.460 -0.1581 -0.4369 -0.5407
  117GLOH    O2 9812   3.485   8.187   2.615  0.1962 -0.0660  0.1454
  117GLOH   H05 9813   3.511   8.272   2.575  0.5070  0.2165  0.9391
  117GLOH    C3 9814   3.654   8.092   2.469  0.3078 -0.1007 -0.3225
  117GLOH   H06 9815   3.634   8.156   2.383  2.3109 -2.0963 -2.3499
  117GLOH   H07 9816   3.691   7.998   2.428  2.1240  0.4178  0.0854
  117GLOH    O3 9817   3.756   8.142   2.558 -0.4807 -0.2696  0.0396
  117GLOH   H01 9818   3.701   8.193   2.621 -0.3482 -0.5009  0.3401
  118GLOH   H03 9819   2.122   8.396   2.249 -1.4338 -1.4876  0.5886
  118GLOH    O1 9820   2.151   8.373   2.159 -0.4823  0.3134  0.4052
  118GLOH    C1 9821   2.097   8.239   2.140 -0.3385  0.2545 -0.3049
  118GLOH   H02 9822   2.072   8.228   2.035 -0.2904 -1.9660 -0.1075
  118GLOH   H08 9823   2.010   8.229   2.205 -0.3253  0.4177 -0.2631
  118GLOH    C2 9824   2.205   8.132   2.180  0.1966 -0.1301 -0.1741
  118GLOH   H04 9825   2.244   8.156   2.279 -0.1333  1.6448 -0.4604
  118GLOH    O2 9826   2.143   7.998   2.195  0.0779  0.3906 -0.4519
  118GLOH   H05 9827   2.085   7.972   2.121 -0.8999  0.8486  0.1420
  118GLOH    C3 9828   2.310   8.123   2.072  0.3925  0.1132 -0.1352
  118GLOH   H06 9829   2.352   8.221   2.048  0.9139 -0.0003  0.2972
  118GLOH   H07 9830   2.264   8.089   1.980 -1.8002  0.2741  0.8650
  118GLOH    O3 9831   2.418   8.040   2.115 -0.0289  0.5783 -0.1993
  118GLOH   H01 9832   2.402   7.952   2.078 -0.7816  0.9351 -0.7251
  119GLOH   H03 9833   4.263  -0.009   0.122  2.9536 -0.6678  0.1962
  119GLOH    O1 9834   4.270   0.087   0.133  0.2862 -0.4901  0.7943
  119GLOH    C1 9835   4.323   0.118   0.268  0.6943  0.5978 -0.5700
  119GLOH   H02 9836   4.360   0.220   0.272 -0.7027  1.1374 -1.1170
  119GLOH   H08 9837   4.406   0.053   0.296  0.3154  0.6647  0.7098
  119GLOH    C2 9838   4.222   0.103   0.383 -0.3077  0.8089 -0.1091
  119GLOH   H04 9839   4.190  -0.001   0.395 -0.2487  0.7428 -0.5344
  119GLOH    O2 9840   4.283   0.143   0.507 -0.1782  0.0101 -0.5562
  119GLOH   H05 9841   4.307   0.237   0.509  1.8474 -0.4840  4.2481
  119GLOH    C3 9842   4.097   0.186   0.364 -0.8916  0.2452  0.1481
  119GLOH   H06 9843   4.065   0.175   0.260  0.4866  0.1083 -0.2726
  119GLOH   H07 9844   4.109   0.294   0.377  0.4559  0.3436 -1.6487
  119GLOH    O3 9845   3.998   0.137   0.461  0.1650  0.1465  0.3935
  119GLOH   H01 9846   3.999   0.040   0.467  0.9907  0.2016  1.2318
  120GLOH   H03 9847   3.471   0.275   2.637  0.1104 -1.1815 -2.4765
  120GLOH    O1 9848   3.398   0.327   2.597 -0.2142  0.0322 -0.3967
  120GLOH    C1 9849   3.421   0.468   2.581 -0.0913 -0.0337  0.2909
  120GLOH   H02 9850   3.512   0.481   2.522 -0.5745  2.4810  0.0230
  120GLOH   H08 9851   3.437   0.522   2.675 -1.0642 -2.3639  1.8331
  120GLOH    C2 9852   3.312   0.544   2.506 -0.1351 -0.4716 -0.2326
  120GLOH   H04 9853   3.214   0.554   2.556 -0.1231  2.9377 -0.7805
  120GLOH    O2 9854   3.369   0.675   2.483  0.0257 -0.0171 -0.7529
  120GLOH   H05 9855   3.318   0.743   2.530  0.5487  0.2770 -0.6101
  120GLOH    C3 9856   3.292   0.469   2.370  0.5794 -0.5632  0.0620
  120GLOH   H06 9857   3.271   0.366   2.397 -1.0000 -0.1124  0.6140
  120GLOH   H07 9858   3.387   0.475   2.317 -0.2127 -0.1338 -1.3583
  120GLOH    O3 9859   3.182   0.519   2.298 -0.1000  0.2386 -0.4189
  120GLOH   H01 9860   3.108   0.517   2.361  0.5054  0.0461  0.2929
  121ACOH    H4 9861   2.528   1.112   1.960  0.7439 -2.6747  1.5518
  121ACOH    O2 9862   2.565   1.149   2.042  0.1032  0.5363  0.4499
  121ACOH    C2 9863   2.647   1.055   2.090  0.0338 -0.5274  0.4798
  121ACOH    O1 9864   2.731   1.008   2.023  0.2860  0.1213 -0.4631
  121ACOH    C1 9865   2.680   1.074   2.227 -0.8615 -0.1132  0.1840
  121ACOH    H1 9866   2.785   1.091   2.248 -0.2603 -1.6318 -1.4875
  121ACOH    H2 9867   2.646   0.988   2.285 -0.4052 -0.3782  0.0621
  121ACOH    H3 9868   2.623   1.158   2.266 -4.1833 -1.4152 -1.6748
  122ACOH    H4 9869   3.141   7.019   1.134 -0.2183  0.3248  0.6237
  122ACOH    O2 9870   3.195   7.016   1.054  0.0741  0.0848  0.8248
  122ACOH    C2 9871   3.240   6.889   1.043 -0.0632  0.2263  0.2596
  122ACOH    O1 9872   3.311   6.858   0.948 -0.0202  0.5457 -0.4987
  122ACOH    C1 9873   3.211   6.798   1.157 -0.0799  0.2020 -0.3531
  122ACOH    H1 9874   3.297   6.764   1.215  1.0900  0.4078 -1.9515
  122ACOH    H2 9875   3.164   6.703   1.132  1.5518 -0.6757 -0.1251
  122ACOH    H3 9876   3.161   6.854   1.237  2.7560  0.7819  1.0960
  123ACOH    H4 9877   2.496   6.758   0.510  0.3401 -1.9029 -0.3850
  123ACOH    O2 9878   2.424   6.765   0.445 -0.2270 -0.2160  0.4105
  123ACOH    C2 9879   2.410   6.641   0.398  0.1425  1.0371 -0.4752
  123ACOH    O1 9880   2.458   6.534   0.440 -0.8860 -0.4778  0.1172
  123ACOH    C1 9881   2.298   6.631   0.299 -0.1046 -0.1021 -0.6553
  123ACOH    H1 9882   2.318   6.552   0.227  0.1419 -1.3086  0.7019
  123ACOH    H2 9883   2.276   6.720   0.240 -1.7490 -1.4175 -2.0851
  123ACOH    H3 9884   2.209   6.603   0.355  1.2759 -1.4347  0.9479
  124ACOH    H4 9885   9.653   3.548   0.297 -0.4413  0.5587  0.6251
  124ACOH    O2 9886   9.565   3.506   0.299 -0.2975  0.2312  0.0600
  124ACOH    C2 9887   9.553   3.445   0.416 -0.6901  0.2330  0.0937
  124ACOH    O1 9888   9.647   3.424   0.493  0.0370 -0.2743  0.1835
  124ACOH    C1 9889   9.414   3.387   0.431  0.7127 -0.4117 -0.3324
  124ACOH    H1 9890   9.398   3.378   0.538  1.0729  0.1403 -0.2311
  124ACOH    H2 9891   9.396   3.293   0.379 -2.1366  0.1094 -0.4007
  124ACOH    H3 9892   9.343   3.459   0.388  1.8096  1.6403  1.2231
  125ACOH    H4 9893   0.573   2.931   1.061  0.5719 -1.0883 -0.3162
  125ACOH    O2 9894   0.531   2.885   1.135  0.3357 -0.5810 -0.1318
  125ACOH    C2 9895   0.438   2.970   1.194  0.4958 -0.4354  1.0143
  125ACOH    O1 9896   0.417   3.085   1.156  0.0053 -0.2998 -0.5303
  125ACOH    C1 9897   0.352   2.911   1.307 -0.2830 -0.7965 -0.1213
  125ACOH    H1 9898   0.388   2.819   1.353 -0.0681  0.8524  3.0670
  125ACOH    H2 9899   0.250   2.886   1.277 -0.8732  1.2505  0.1088
  125ACOH    H3 9900   0.358   2.983   1.388 -1.0100 -2.1119  1.1408
  126ACOH    H4 9901   1.608   0.066   1.679 -0.0831 -1.6243 -0.7696
  126ACOH    O2 9902   1.564   0.058   1.766  0.4783  0.4807 -0.2779
  126ACOH    C2 9903   1.630  -0.043   1.822  0.3249 -0.0460 -0.0628
  126ACOH    O1 9904   1.699  -0.124   1.764 -0.3904 -0.4596  0.6029
  126ACOH    C1 9905   1.592  -0.051   1.960 -0.0687 -0.5884 -0.6617
  126ACOH    H1 9906   1.502   0.004   1.986  0.6714 -0.3233  1.5186
  126ACOH    H2 9907   1.675  -0.012   2.020  0.0517  1.3695 -2.0967
  126ACOH    H3 9908   1.578  -0.154   1.992  2.8111 -0.4545  1.2878
  127ACOH    H4 9909   4.649   0.479   1.381  0.1850  1.0141 -0.6893
  127ACOH    O2 9910   4.700   0.505   1.460  0.4487  0.0347 -0.5268
  127ACOH    C2 9911   4.643   0.430   1.558 -0.4725 -0.0125 -0.8924
  127ACOH    O1 9912   4.531   0.395   1.570 -0.3083 -0.1889 -0.4784
  127ACOH    C1 9913   4.725   0.432   1.688  0.2569 -0.0169  0.2090
  127ACOH    H1 9914   4.674   0.485   1.768 -0.1241  0.1588 -0.1461
  127ACOH    H2 9915   4.826   0.471   1.671  0.3421 -0.0856  0.5548
  127ACOH    H3 9916   4.742   0.329   1.719 -0.9168 -0.4545 -0.5747
  128ACOH    H4 9917   3.856   7.749   0.295 -0.7210  0.3115 -0.9561
  128ACOH    O2 9918   3.865   7.656   0.269  0.2965  0.1606 -0.0756
  128ACOH    C2 9919   3.792   7.587   0.360  0.6475 -0.0823  0.5929
  128ACOH    O1 9920   3.714   7.623   0.448  0.3133 -0.1094 -0.0639
  128ACOH    C1 9921   3.826   7.443   0.339 -0.0470  0.2704  0.5816
  128ACOH    H1 9922   3.804   7.385   0.428  1.5295  1.5275  1.8251
  128ACOH    H2 9923   3.932   7.429   0.317  0.5612  2.2527  2.1928
  128ACOH    H3 9924   3.761   7.406   0.260  0.2659  2.3742 -0.6876
  130ACOH    H4 9925   5.281   9.647   1.773 -1.4417 -2.5109  3.3677
  130ACOH    O2 9926   5.347   9.579   1.753  0.3963  0.1901 -0.4261
  130ACOH    C2 9927   5.434   9.568   1.860 -0.7233  0.2966  0.0632
  130ACOH    O1 9928   5.431   9.639   1.958 -0.7327 -1.1217  0.2377
  130ACOH    C1 9929   5.535   9.461   1.839 -0.7845  0.1419  0.4057
  130ACOH    H1 9930   5.549   9.426   1.737 -2.0280 -3.0464  1.2539
  130ACOH    H2 9931   5.492   9.383   1.902 -2.4144  1.1927  0.6483
  130ACOH    H3 9932   5.632   9.489   1.878 -1.7267  1.5916  1.7855
  131ACOH    H4 9933   4.688   0.818   2.433  2.0184  0.5401 -0.5082
  131ACOH    O2 9934   4.681   0.765   2.352 -0.0779  0.0069  0.0038
  131ACOH    C2 9935   4.750   0.821   2.260  0.5594 -0.5333 -0.0546
  131ACOH    O1 9936   4.834   0.907   2.270  0.1378  0.0020  0.0091
  131ACOH    C1 9937   4.718   0.756   2.130 -0.2740 -0.0781  0.4212
  131ACOH    H1 9938   4.630   0.692   2.142  0.0152 -0.6656 -0.4920
  131ACOH    H2 9939   4.804   0.692   2.109  1.3526  1.6650  1.6226
  131ACOH    H3 9940   4.713   0.828   2.048 -1.2655 -0.2965  0.2856
  132ACOH    H4 9941   9.779   5.928   1.384 -1.0838 -1.3314 -1.6408
  132ACOH    O2 9942   9.696   5.957   1.426  0.4700  0.6076  0.2248
  132ACOH    C2 9943   9.596   5.870   1.399  0.0751  0.3488 -0.5527
  132ACOH    O1 9944   9.604   5.766   1.335 -0.4694 -0.2202  0.3705
  132ACOH    C1 9945   9.464   5.928   1.433  0.1702 -0.0084  0.3385
  132ACOH    H1 9946   9.424   5.968   1.340 -2.3832 -1.1034  0.9204
  132ACOH    H2 9947   9.480   6.009   1.505 -0.0155 -1.8934  2.5600
  132ACOH    H3 9948   9.396   5.855   1.477  1.3160 -0.1562  1.9358
  133ACOH    H4 9949   9.217   5.410   0.945  1.6176  1.4641 -0.2245
  133ACOH    O2 9950   9.173   5.474   0.887 -0.4641 -0.2092 -0.5197
  133ACOH    C2 9951   9.238   5.592   0.885 -0.7100 -0.7876  0.2838
  133ACOH    O1 9952   9.356   5.607   0.919 -0.5815 -0.1363  0.8342
  133ACOH    C1 9953   9.165   5.687   0.799  0.1468  0.9063  0.4136
  133ACOH    H1 9954   9.233   5.752   0.745  0.7292  1.5376  1.8934
  133ACOH    H2 9955   9.100   5.744   0.865 -0.5195  0.6141  0.0149
  133ACOH    H3 9956   9.098   5.635   0.730 -0.6424 -0.2966  2.0459
  135ACOH    H4 9957   9.388   3.360   1.411 -0.1564  0.1483  0.1893
  135ACOH    O2 9958   9.387   3.264   1.426 -0.3958  0.1444  0.1491
  135ACOH    C2 9959   9.459   3.212   1.321  0.5738 -0.2501 -0.4170
  135ACOH    O1 9960   9.530   3.271   1.238  0.0797  0.2173  0.4077
  135ACOH    C1 9961   9.466   3.063   1.334  0.5988  0.2955  0.5581
  135ACOH    H1 9962   9.422   3.026   1.242  0.7385 -0.7190  0.8900
  135ACOH    H2 9963   9.420   3.034   1.428  2.8939 -1.2587  1.2622
  135ACOH    H3 9964   9.571   3.032   1.339  0.9574  1.7053  2.8666
  136ACOH    H4 9965   5.431   2.610   2.389 -0.8780 -2.6494  1.7379
  136ACOH    O2 9966   5.416   2.569   2.302 -0.1548  0.3373  0.1423
  136ACOH    C2 9967   5.287   2.534   2.291 -0.0573 -0.0915  0.1270
  136ACOH    O1 9968   5.205   2.555   2.374 -0.3051  0.7475  0.0244
  136ACOH    C1 9969   5.257   2.479   2.160  0.1164 -0.1230 -0.7809
  136ACOH    H1 9970   5.192   2.548   2.106  1.7179  1.8614 -0.2473
  136ACOH    H2 9971   5.214   2.384   2.190 -0.2212 -0.2047 -1.5166
  136ACOH    H3 9972   5.346   2.469   2.098  0.0570 -0.6167 -0.7884
  137ACOH    H4 9973  10.160   3.582   1.601  1.3229  0.3793 -1.9396
  137ACOH    O2 9974  10.210   3.499   1.603  0.0357 -0.4009 -0.3424
  137ACOH    C2 9975  10.130   3.394   1.607 -0.1131 -0.7475  0.9390
  137ACOH    O1 9976  10.012   3.401   1.580 -0.7376  0.0933 -0.9617
  137ACOH    C1 9977  10.197   3.286   1.684 -0.1045 -0.0730 -0.5111
  137ACOH    H1 9978  10.257   3.224   1.617 -0.1857 -0.8010  0.0863
  137ACOH    H2 9979  10.129   3.222   1.741  1.0065  0.1746  1.1037
  137ACOH    H3 9980  10.274   3.320   1.752 -1.6325  0.2522  1.1024
  138ACOH    H4 9981   1.604   1.069   2.541 -1.0298 -0.3445  1.4808
  138ACOH    O2 9982   1.543   1.066   2.465 -0.1669  0.5997  0.7305
  138ACOH    C2 9983   1.581   0.965   2.384  0.5468  1.1457 -1.0704
  138ACOH    O1 9984   1.696   0.929   2.360  0.0821 -0.7571  0.4895
  138ACOH    C1 9985   1.477   0.904   2.302 -0.0286  0.3268 -0.4660
  138ACOH    H1 9986   1.471   0.797   2.323 -0.6985  0.2176 -1.1680
  138ACOH    H2 9987   1.489   0.922   2.195 -2.2911  2.6926 -0.3903
  138ACOH    H3 9988   1.382   0.953   2.325  0.5016  2.3391 -2.3456
  139ACOH    H4 9989   9.011   4.685   1.228 -0.9701 -0.2149 -1.3150
  139ACOH    O2 9990   8.949   4.655   1.297  0.3103 -0.0835 -0.0741
  139ACOH    C2 9991   9.010   4.680   1.411  0.1408 -0.6875 -0.8096
  139ACOH    O1 9992   9.099   4.760   1.435 -0.2818 -0.5060 -0.1181
  139ACOH    C1 9993   8.924   4.621   1.513  1.0528  0.3585  0.1436
  139ACOH    H1 9994   8.878   4.530   1.476  2.3162 -0.5387  0.7470
  139ACOH    H2 9995   8.838   4.682   1.541 -0.6176 -1.4182 -1.0001
  139ACOH    H3 9996   8.986   4.597   1.600  0.1177 -0.8949  0.4727
  140ACOH    H4 9997   1.352   2.178   1.795 -0.0717 -0.1880  0.2338
  140ACOH    O2 9998   1.273   2.197   1.743 -0.0112  0.1674  0.2721
  140ACOH    C2 9999   1.286   2.319   1.687  0.5846  0.4044 -0.3490
  140ACOH    O110000   1.392   2.384   1.699 -0.0144  0.3248 -0.5379
  140ACOH    C110001   1.163   2.362   1.610 -0.2141 -0.4698 -1.0955
  140ACOH    H110002   1.151   2.296   1.523 -1.2487 -0.1602 -1.1888
  140ACOH    H210003   1.162   2.468   1.587 -2.3940 -0.3831 -0.7150
  140ACOH    H310004   1.077   2.340   1.673  0.1166 -2.3898 -1.2847
  141ACOH    H410005   5.515   4.220   0.543  0.0005 -0.4472  0.3339
  141ACOH    O210006   5.564   4.218   0.627  0.4289  0.5365  0.1105
  141ACOH    C210007   5.649   4.118   0.625  0.0308  0.1339 -0.0983
  141ACOH    O110008   5.649   4.027   0.544 -0.4086  0.1003  0.0485
  141ACOH    C110009   5.734   4.119   0.748 -0.4304 -0.5138  0.0931
  141ACOH    H110010   5.669   4.148   0.830  0.0235 -1.4635  0.8041
  141ACOH    H210011   5.811   4.194   0.728 -1.5449  0.2156 -1.4798
  141ACOH    H310012   5.778   4.020   0.763  2.2289  0.4672 -0.8594
  142ACOH    H410013   4.723   8.757   0.989  0.5877  0.2822 -1.6006
  142ACOH    O210014   4.809   8.800   0.995  0.5469  0.2603 -0.7770
  142ACOH    C210015   4.814   8.920   1.046 -0.3465  0.0140 -0.3663
  142ACOH    O110016   4.723   8.996   1.088 -0.4593  0.4548 -0.5409
  142ACOH    C110017   4.950   8.972   1.030 -0.4154 -0.0264  0.6004
  142ACOH    H110018   5.017   8.893   0.996 -0.3256  0.0339  0.6349
  142ACOH    H210019   4.994   9.009   1.122 -1.0844 -0.7868  1.2389
  142ACOH    H310020   4.958   9.054   0.959  2.5046 -1.7125 -1.1355
  143ACOH    H410021   3.542   6.509   2.962 -0.9787 -1.9170  0.6105
  143ACOH    O210022   3.609   6.466   2.907 -0.1048  0.2935 -0.1215
  143ACOH    C210023   3.590   6.334   2.926 -0.5056 -0.6205  0.1005
  143ACOH    O110024   3.484   6.280   2.933  0.7654  0.4163 -0.2514
  143ACOH    C110025   3.703   6.249   2.877 -0.4830 -0.4672 -0.6368
  143ACOH    H110026   3.797   6.301   2.897  0.1923 -1.3370 -1.5304
  143ACOH    H210027   3.690   6.224   2.772 -1.0071 -0.9730 -0.4546
  143ACOH    H310028   3.698   6.153   2.929 -0.6957 -1.2385 -2.0601
  144ACOH    H410029   5.953   3.558   1.409 -0.1284 -1.2532  0.5099
  144ACOH    O210030   6.045   3.558   1.375 -0.1414  0.2011  0.4311
  144ACOH    C210031   6.076   3.431   1.343 -0.4656  0.1110 -0.5139
  144ACOH    O110032   6.022   3.334   1.389 -0.2192  0.2325  0.0501
  144ACOH    C110033   6.218   3.414   1.299 -0.4424 -0.7756  0.0151
  144ACOH    H110034   6.268   3.327   1.342  1.0292  0.5542  1.0441
  144ACOH    H210035   6.283   3.500   1.314  0.8187 -1.4019 -1.6561
  144ACOH    H310036   6.212   3.406   1.190 -0.1976  1.1047 -0.1541
  145ACOH    H410037   1.958   7.806   0.480 -0.0337  2.5712 -1.1755
  145ACOH    O210038   1.899   7.825   0.555  0.3887  0.2768 -0.2161
  145ACOH    C210039   1.779   7.880   0.512  0.6191  0.6806 -0.4956
  145ACOH    O110040   1.738   7.865   0.403  0.0221  1.0111  0.5815
  145ACOH    C110041   1.685   7.922   0.620 -0.8196 -0.3088 -0.0237
  145ACOH    H110042   1.674   8.029   0.603  3.6124  0.2221  0.0291
  145ACOH    H210043   1.731   7.899   0.716 -2.6108 -1.2339  0.6365
  145ACOH    H310044   1.592   7.865   0.615  0.0188 -1.6608 -0.7607
  146ACOH    H410045   5.247   1.846   1.235  0.6563  1.2520 -1.6745
  146ACOH    O210046   5.336   1.815   1.261 -0.1986  0.2531  0.0923
  146ACOH    C210047   5.384   1.739   1.159 -0.6930  0.3979  0.4886
  146ACOH    O110048   5.325   1.671   1.075  0.0362  0.1924  0.7546
  146ACOH    C110049   5.528   1.765   1.158 -0.1007 -0.2461  0.8048
  146ACOH    H110050   5.580   1.684   1.107 -1.6044 -0.4102 -0.5270
  146ACOH    H210051   5.561   1.786   1.259  2.3476 -0.2033  0.0152
  146ACOH    H310052   5.545   1.858   1.103 -0.8876 -1.8177 -2.2009
  147ACOH    H410053   4.285   8.555   1.547 -0.2491 -0.3524 -1.1929
  147ACOH    O210054   4.366   8.505   1.524  0.1808 -0.1332 -0.1776
  147ACOH    C210055   4.368   8.469   1.395 -0.4520 -0.1697  0.1308
  147ACOH    O110056   4.267   8.435   1.330  0.4996 -0.0764 -0.6037
  147ACOH    C110057   4.503   8.440   1.340 -0.7727  0.3078  0.2956
  147ACOH    H110058   4.488   8.367   1.260  0.2419 -0.5946  0.9104
  147ACOH    H210059   4.570   8.387   1.408  2.0734  2.2876 -0.8329
  147ACOH    H310060   4.549   8.531   1.299  1.9456 -0.7006  0.9655
  149ACOH    H410061   3.629   7.828   1.434 -0.5039 -1.2213 -0.4025
  149ACOH    O210062   3.668   7.807   1.520  0.0421  0.1820 -0.2926
  149ACOH    C210063   3.710   7.677   1.508 -0.0211  0.2370  0.6132
  149ACOH    O110064   3.660   7.596   1.429  0.4415 -0.0098 -0.7692
  149ACOH    C110065   3.809   7.650   1.616  0.2175  0.6475  0.1917
  149ACOH    H110066   3.807   7.728   1.692 -1.4178  0.5645  0.2467
  149ACOH    H210067   3.908   7.640   1.571 -0.1539 -0.8813 -0.3295
  149ACOH    H310068   3.776   7.558   1.665 -1.6507  0.8057 -0.7431
  150ACOH    H410069   3.440   2.319   0.218 -1.7079  2.0779  0.3705
  150ACOH    O210070   3.388   2.261   0.276  0.0057 -0.2134 -0.2978
  150ACOH    C210071   3.288   2.340   0.332 -0.3113 -0.0816 -0.4316
  150ACOH    O110072   3.272   2.458   0.312  0.3946  0.3126 -0.7685
  150ACOH    C110073   3.185   2.257   0.402  0.1237 -0.7620  0.3631
  150ACOH    H110074   3.186   2.297   0.503 -0.2013  3.0423 -1.0758
  150ACOH    H210075   3.222   2.154   0.407  3.2998  0.2894 -0.8857
  150ACOH    H310076   3.089   2.267   0.351 -0.1509  0.3304  1.0783
  151ACOH    H410077   4.091   8.141   2.181 -0.1488 -0.5212 -0.4279
  151ACOH    O210078   4.101   8.167   2.088  0.0624  0.3346 -0.1726
  151ACOH    C210079   3.987   8.228   2.057 -0.2765 -0.3947 -0.1078
  151ACOH    O110080   3.891   8.234   2.131  0.1675  1.0863  0.4213
  151ACOH    C110081   4.012   8.304   1.931  0.4631 -0.2238 -0.4414
  151ACOH    H110082   4.005   8.230   1.852 -1.7739 -1.0572  0.5038
  151ACOH    H210083   4.116   8.334   1.947  1.1609 -2.0550 -1.4509
  151ACOH    H310084   3.945   8.390   1.917 -1.8199 -1.7948  0.5159
  152ACOH    H410085   9.147   4.329   1.301  0.3208  0.0270  0.1400
  152ACOH    O210086   9.152   4.290   1.390  0.3510  0.1208  0.1793
  152ACOH    C210087   9.201   4.384   1.476 -0.9393  0.3691 -0.1241
  152ACOH    O110088   9.267   4.478   1.448 -0.1156 -0.5404 -0.7075
  152ACOH    C110089   9.212   4.314   1.608  0.7572  0.3139  0.8807
  152ACOH    H110090   9.244   4.383   1.686 -0.0682  0.2945  1.2446
  152ACOH    H210091   9.290   4.238   1.599 -0.6467 -1.4024  2.7622
  152ACOH    H310092   9.117   4.274   1.645 -0.3478  0.6038 -1.5077
  153ACOH    H410093   9.130   5.157   2.931  1.3233  1.7321  4.3945
  153ACOH    O210094   9.034   5.172   2.939  0.4416 -0.8200  0.2752
  153ACOH    C210095   9.014   5.300   2.898 -0.1766 -0.3308  0.1084
  153ACOH    O110096   9.089   5.359   2.826 -0.3914 -0.0223  0.4766
  153ACOH    C110097   8.875   5.348   2.917  1.2377 -0.0205  0.1026
  153ACOH    H110098   8.837   5.311   3.012 -1.7469 -1.8402 -1.7012
  153ACOH    H210099   8.820   5.299   2.836  2.5315  0.1482 -0.9064
  153ACOH    H310100   8.869   5.456   2.908  0.1017 -0.1311 -0.6072
  154ACOH    H410101   9.375   5.366   1.799 -0.1196 -0.1169 -0.0071
  154ACOH    O210102   9.438   5.437   1.782 -0.3427  0.1522  0.2900
  154ACOH    C210103   9.425   5.538   1.871 -0.5741  0.1693 -0.4977
  154ACOH    O110104   9.357   5.535   1.973  0.3689 -0.3936 -0.4496
  154ACOH    C110105   9.518   5.652   1.849 -0.4372  0.2248  0.7551
  154ACOH    H110106   9.486   5.706   1.759  0.7417  0.9257  0.7430
  154ACOH    H210107   9.618   5.615   1.826 -0.8097 -0.2803 -0.0762
  154ACOH    H310108   9.510   5.715   1.937 -0.1547 -0.1478  1.0483
  155ACOH    H410109   0.895   4.001   1.095  1.2250 -0.5756 -1.1528
  155ACOH    O210110   0.980   4.038   1.125  0.3208  0.7880 -0.2038
  155ACOH    C210111   0.991   4.055   1.256  0.7520  0.2732  0.4832
  155ACOH    O110112   0.903   4.050   1.344 -0.4270  0.6188  0.2532
  155ACOH    C110113   1.131   4.106   1.283 -0.0178  0.3557 -0.0376
  155ACOH    H110114   1.181   4.014   1.314 -0.5104  1.1453  3.3173
  155ACOH    H210115   1.134   4.173   1.369 -2.5892  0.7359 -0.2110
  155ACOH    H310116   1.174   4.145   1.191  0.1551  1.5402  0.5445
  156ACOH    H410117   2.249   5.511   0.657 -1.9450 -1.0893  0.2855
  156ACOH    O210118   2.247   5.527   0.753 -0.0154 -0.1148  0.1856
  156ACOH    C210119   2.179   5.641   0.756  0.3768 -0.6546 -0.5359
  156ACOH    O110120   2.187   5.728   0.672  0.4502 -0.3924  0.0100
  156ACOH    C110121   2.138   5.660   0.891  0.0719 -0.3215  0.4289
  156ACOH    H110122   2.063   5.583   0.910  0.3695 -0.4295  1.1704
  156ACOH    H210123   2.083   5.747   0.927  0.1476 -0.8386  1.8401
  156ACOH    H310124   2.218   5.643   0.963 -0.4587  1.6356  1.5225
  157ACOH    H410125   2.134   0.662   0.353  0.1623  0.6360 -3.5052
  157ACOH    O210126   2.040   0.685   0.368  0.5108  0.1561  0.0513
  157ACOH    C210127   2.001   0.672   0.491  0.5669 -0.1440 -0.2465
  157ACOH    O110128   2.063   0.682   0.591 -0.3121 -0.0014 -0.4227
  157ACOH    C110129   1.848   0.670   0.495 -0.3896 -0.2210  0.5907
  157ACOH    H110130   1.819   0.774   0.505  1.7171  0.2642  2.0241
  157ACOH    H210131   1.811   0.618   0.583  0.3482 -0.4338  0.7798
  157ACOH    H310132   1.793   0.629   0.410 -0.0301  1.5275 -0.5207
  159ACOH    H410133   8.881   5.090   0.704 -0.7855  0.8632  0.6797
  159ACOH    O210134   8.923   5.177   0.688  0.3633  0.0314 -0.9164
  159ACOH    C210135   9.050   5.144   0.648  0.1626  0.1149 -0.1847
  159ACOH    O110136   9.087   5.036   0.613 -0.2017  0.1651  0.5016
  159ACOH    C110137   9.124   5.270   0.633 -0.0378 -0.2523  0.4043
  159ACOH    H110138   9.167   5.281   0.534  1.8554 -2.4564  0.9272
  159ACOH    H210139   9.208   5.272   0.703 -0.0306  0.4040  0.3837
  159ACOH    H310140   9.056   5.351   0.660 -1.5010 -0.8693 -1.3886
  160ACOH    H410141   5.206   1.484   2.964 -0.2564  0.8829  1.3177
  160ACOH    O210142   5.287   1.537   2.961  0.1450  0.2102 -0.4046
  160ACOH    C210143   5.246   1.651   2.907 -0.8707 -0.6464  0.1488
  160ACOH    O110144   5.147   1.674   2.844 -0.2693  0.1947  0.5715
  160ACOH    C110145   5.363   1.750   2.917  0.1305 -0.0089 -0.1601
  160ACOH    H110146   5.430   1.726   2.999  0.1800 -1.0312 -0.4872
  160ACOH    H210147   5.312   1.845   2.932 -0.3472 -0.2213 -0.4061
  160ACOH    H310148   5.421   1.748   2.824  0.2914 -1.9766 -0.0340
  161ACOH    H410149   5.661   2.751   1.208 -1.6587 -0.7892  3.3283
  161ACOH    O210150   5.625   2.672   1.164  0.0787 -0.0245  0.3958
  161ACOH    C210151   5.493   2.690   1.198 -0.0574  1.0460 -0.6443
  161ACOH    O110152   5.437   2.795   1.194 -0.3293  0.3920 -0.3375
  161ACOH    C110153   5.435   2.554   1.175  0.2749 -0.3007 -0.1024
  161ACOH    H110154   5.447   2.539   1.067 -0.6835  0.9231 -0.3889
  161ACOH    H210155   5.328   2.548   1.194  0.5400 -1.1093  1.1344
  161ACOH    H310156   5.493   2.482   1.231  2.7081 -0.1920 -2.3675
  162ACOH    H410157   1.544   8.262   0.594 -0.0775 -0.3625 -2.3465
  162ACOH    O210158   1.448   8.253   0.603  0.0134  0.0744 -0.6040
  162ACOH    C210159   1.401   8.177   0.695 -0.0919  0.2575 -0.2555
  162ACOH    O110160   1.472   8.126   0.782 -0.2715  0.1209 -0.2149
  162ACOH    C110161   1.263   8.137   0.660  0.1511 -0.6592  0.1113
  162ACOH    H110162   1.265   8.054   0.590  1.2158 -0.5868  0.0501
  162ACOH    H210163   1.201   8.220   0.625  4.1005  1.5636 -2.0152
  162ACOH    H310164   1.224   8.094   0.752  2.8477 -0.6351  1.3105
  163ACOH    H410165   2.112   2.262   1.768 -1.6711 -3.2383 -1.9865
  163ACOH    O210166   2.198   2.274   1.723 -0.3295 -0.2456  1.1397
  163ACOH    C210167   2.253   2.395   1.756  0.2353 -1.1362  0.4667
  163ACOH    O110168   2.198   2.481   1.822 -0.1373  0.1517 -0.2044
  163ACOH    C110169   2.375   2.427   1.673  0.2996  0.6474  0.8190
  163ACOH    H110170   2.410   2.527   1.699 -1.4388  1.6042 -0.4131
  163ACOH    H210171   2.355   2.431   1.566 -0.1146 -1.6069  0.8014
  163ACOH    H310172   2.446   2.347   1.690 -2.6616 -2.4950 -1.0400
  166ACOH    H410173   4.386   8.739   1.940 -1.5129 -0.8995 -4.5839
  166ACOH    O210174   4.350   8.829   1.939 -0.0255 -0.1463 -0.3434
  166ACOH    C210175   4.318   8.846   2.065 -0.4069 -0.7947  0.2747
  166ACOH    O110176   4.345   8.778   2.161  0.4118 -0.5369 -0.3508
  166ACOH    C110177   4.234   8.968   2.086  0.1746 -0.3984 -0.1032
  166ACOH    H110178   4.186   8.996   1.991 -3.3824 -0.8312  1.4785
  166ACOH    H210179   4.289   9.055   2.121  0.9292 -1.3713  1.1530
  166ACOH    H310180   4.155   8.937   2.154  2.6085 -1.4019  2.3680
  167ACOH    H410181   4.891   0.834   1.191  0.2399 -0.0460 -0.8903
  167ACOH    O210182   4.914   0.792   1.276  0.6012  0.2729 -0.8289
  167ACOH    C210183   4.987   0.680   1.252  0.3374 -0.3611 -0.1734
  167ACOH    O110184   5.022   0.646   1.138 -0.1287 -0.1458  0.2126
  167ACOH    C110185   5.007   0.609   1.381 -0.8055  0.3971 -0.0464
  167ACOH    H110186   5.037   0.504   1.381  0.3625  0.7201 -1.5351
  167ACOH    H210187   4.922   0.629   1.447 -0.8157 -1.7119  0.6442
  167ACOH    H310188   5.091   0.660   1.427  0.8190 -1.8171 -0.4709
  168ACOH    H410189   4.197   0.478   1.830 -0.2584  1.0707  0.3712
  168ACOH    O210190   4.169   0.442   1.916 -0.0353 -0.8323 -0.3374
  168ACOH    C210191   4.251   0.491   2.014 -0.0494 -0.0163  0.7028
  168ACOH    O110192   4.371   0.515   2.004 -0.3056  0.7154 -0.1687
  168ACOH    C110193   4.194   0.481   2.148  0.6343  0.1390  0.0577
  168ACOH    H110194   4.091   0.444   2.144 -0.2655  2.6547 -1.9075
  168ACOH    H210195   4.192   0.581   2.193 -0.3590  1.2145 -2.2874
  168ACOH    H310196   4.258   0.420   2.212 -1.0588 -0.9205  0.7717
  169ACOH    H410197   5.870   2.955   1.746  0.8091  0.0116  2.2551
  169ACOH    O210198   5.937   3.023   1.729  0.2059  0.2020  0.4526
  169ACOH    C210199   5.872   3.133   1.711 -0.3470  0.0049  0.2279
  169ACOH    O110200   5.754   3.135   1.682  0.2412  0.0446  0.4911
  169ACOH    C110201   5.955   3.253   1.709 -0.1663  0.1733 -0.0044
  169ACOH    H110202   6.038   3.243   1.638 -0.4061 -1.5981 -0.0595
  169ACOH    H210203   5.998   3.260   1.809  0.0374  2.1062 -0.2092
  169ACOH    H310204   5.897   3.340   1.678  0.9880  0.4589 -1.3973
  170ACOH    H410205   5.277   3.671   1.812 -0.5795  0.1655 -0.5114
  170ACOH    O210206   5.239   3.649   1.725 -0.4893  0.0463 -0.5221
  170ACOH    C210207   5.254   3.514   1.723  0.4864 -0.1728 -0.2232
  170ACOH    O110208   5.363   3.458   1.740 -0.0596 -0.0100 -0.3041
  170ACOH    C110209   5.149   3.453   1.634 -0.0139  0.2367 -0.8365
  170ACOH    H110210   5.172   3.474   1.530 -0.9304  0.9108 -0.9136
  170ACOH    H210211   5.049   3.487   1.664  0.4985 -0.7761  2.1842
  170ACOH    H310212   5.150   3.344   1.640 -0.4541  0.3051  0.8692
  171ACOH    H410213   3.015   2.900   1.648 -0.0505  1.0134  2.1065
  171ACOH    O210214   3.065   2.982   1.628  0.1642  0.4959  0.4564
  171ACOH    C210215   3.075   2.974   1.491  0.0717  0.8336 -0.3227
  171ACOH    O110216   3.010   2.905   1.410 -0.1668 -0.8812 -0.0771
  171ACOH    C110217   3.159   3.077   1.427 -0.0057  0.7522 -0.1751
  171ACOH    H110218   3.207   3.049   1.333 -0.4322  0.0633 -0.1903
  171ACOH    H210219   3.236   3.100   1.500  0.9951  1.8044 -1.5356
  171ACOH    H310220   3.099   3.167   1.414 -1.2782 -0.3731 -2.4284
  172ACOH    H410221   4.552   0.391   0.832  0.6147 -0.4808  0.2410
  172ACOH    O210222   4.605   0.355   0.759 -0.1070 -0.6129 -0.2245
  172ACOH    C210223   4.677   0.462   0.716 -0.6134  0.4868 -0.7711
  172ACOH    O110224   4.669   0.581   0.753 -0.0266  0.0003 -0.0614
  172ACOH    C110225   4.772   0.417   0.600  0.3169  0.3894 -0.8538
  172ACOH    H110226   4.812   0.321   0.633 -0.9631 -0.1925 -0.9590
  172ACOH    H210227   4.848   0.492   0.580  0.6207  0.5400  0.7733
  172ACOH    H310228   4.703   0.394   0.519  3.3208 -2.1874 -2.8261
  173ACOH    H410229   0.544   2.901   2.316  1.4220  0.2318  0.7139
  173ACOH    O210230   0.535   2.818   2.366 -0.0798 -0.4899 -0.6881
  173ACOH    C210231   0.622   2.842   2.467  0.2508 -0.6528 -0.4995
  173ACOH    O110232   0.733   2.896   2.452  0.7279  0.4978  0.0375
  173ACOH    C110233   0.578   2.751   2.578  0.1711  0.5878 -0.4956
  173ACOH    H110234   0.650   2.756   2.660 -1.4774 -0.0501  1.0222
  173ACOH    H210235   0.564   2.651   2.536  0.5672 -0.0108  0.7706
  173ACOH    H310236   0.482   2.783   2.618  0.7975 -0.0658  1.6380
  174ACOH    H410237   9.331   5.443   1.156  1.5783  0.9744 -2.0724
  174ACOH    O210238   9.382   5.476   1.232  0.1176 -0.2825 -0.4955
  174ACOH    C210239   9.359   5.389   1.330  0.3786 -0.2597 -0.0695
  174ACOH    O110240   9.294   5.287   1.330  0.2172 -0.7645  0.9867
  174ACOH    C110241   9.407   5.456   1.453 -0.4382 -0.4858 -0.3115
  174ACOH    H110242   9.331   5.457   1.531 -0.9335 -1.2005 -0.7784
  174ACOH    H210243   9.449   5.556   1.445 -1.1527 -0.1200  0.4601
  174ACOH    H310244   9.488   5.394   1.493  0.4091  0.5669 -0.3988
  175ACOH    H410245   4.646   8.837   0.435 -2.8607 -1.4055 -0.6455
  175ACOH    O210246   4.646   8.842   0.532  0.4020 -0.2291 -0.6457
  175ACOH    C210247   4.623   8.971   0.570 -0.8277 -0.0938  0.8400
  175ACOH    O110248   4.653   9.071   0.508 -0.2486 -0.3205  0.2666
  175ACOH    C110249   4.584   8.977   0.712 -0.5508 -0.5333 -0.2864
  175ACOH    H110250   4.608   8.888   0.771  2.6961  2.4136  3.0611
  175ACOH    H210251   4.476   8.991   0.720 -0.6016 -0.2231 -1.4133
  175ACOH    H310252   4.632   9.057   0.768 -0.0588 -1.6465  0.9189
  176ACOH    H410253   5.000   4.686   1.093  1.1375  1.2578 -0.9684
  176ACOH    O210254   5.051   4.607   1.070 -0.3124 -0.0921  0.3565
  176ACOH    C210255   4.971   4.501   1.096  0.4869  0.3188 -0.6566
  176ACOH    O110256   4.906   4.481   1.199 -0.1039  0.3271  1.0633
  176ACOH    C110257   5.013   4.391   1.013 -1.0502  0.4942 -0.3235
  176ACOH    H110258   5.077   4.425   0.931 -0.5740 -0.4096 -0.3432
  176ACOH    H210259   4.926   4.347   0.966  0.0470 -2.7051  0.5027
  176ACOH    H310260   5.072   4.317   1.067  0.3284  2.1493  0.4902
  178ACOH    H410261   4.444   8.355   1.982  0.4451 -1.3647 -0.4178
  178ACOH    O210262   4.488   8.366   1.896  0.4545  0.1052 -0.2339
  178ACOH    C210263   4.508   8.492   1.866 -0.1680 -0.0871  0.7214
  178ACOH    O110264   4.451   8.588   1.907  0.5045  0.0582  0.0038
  178ACOH    C110265   4.609   8.493   1.763 -0.2545  0.7062 -0.2836
  178ACOH    H110266   4.698   8.432   1.782  0.4203  2.3199  1.9760
  178ACOH    H210267   4.644   8.593   1.737  1.8855  0.0958  0.1338
  178ACOH    H310268   4.558   8.449   1.678 -2.3636 -0.5079  1.5721
  179ACOH    H410269   9.189   4.017   2.224  0.9543 -0.1986  1.3708
  179ACOH    O210270   9.149   3.928   2.229  0.1424  0.0878  0.2248
  179ACOH    C210271   9.076   3.898   2.120  0.1971 -0.4453 -0.1634
  179ACOH    O110272   9.068   3.958   2.013 -0.5645  0.2070 -0.0576
  179ACOH    C110273   9.021   3.761   2.122 -0.8025  0.7196  0.2700
  179ACOH    H110274   9.087   3.687   2.077 -1.5184 -0.2160  0.7349
  179ACOH    H210275   8.921   3.763   2.079 -1.4224 -0.4238  1.6056
  179ACOH    H310276   8.998   3.734   2.226 -2.2845  0.2614 -0.1613
  181ACOH    H410277   4.945   4.516   1.964 -0.7794  1.4647  0.4418
  181ACOH    O210278   5.033   4.556   1.956 -0.2016  0.0953 -0.3952
  181ACOH    C210279   5.016   4.690   1.942  0.9409 -0.4026 -0.0721
  181ACOH    O110280   4.914   4.753   1.914  0.0767  0.2452 -0.0981
  181ACOH    C110281   5.152   4.752   1.927  0.1887 -0.4726  0.2020
  181ACOH    H110282   5.212   4.686   1.864 -0.7851 -0.3144 -0.8977
  181ACOH    H210283   5.205   4.754   2.022 -1.1721 -0.8129  0.9852
  181ACOH    H310284   5.134   4.855   1.897 -0.4214 -1.1200 -1.6927
  182ACOH    H410285   5.043   1.363   1.487  2.3655 -0.5750  0.4190
  182ACOH    O210286   5.064   1.457   1.500  0.0467  0.0231  0.2436
  182ACOH    C210287   4.984   1.502   1.604 -0.0401  0.5747 -0.2926
  182ACOH    O110288   4.899   1.437   1.666  0.0666 -0.4629 -0.2067
  182ACOH    C110289   5.011   1.642   1.642  0.7447 -0.3893 -0.4351
  182ACOH    H110290   4.961   1.645   1.739 -1.2762 -2.6650 -1.3548
  182ACOH    H210291   4.967   1.714   1.573  1.3562  1.0139  0.6151
  182ACOH    H310292   5.114   1.673   1.658  0.1367  1.1599  0.7034
  183ACOH    H410293   1.525   1.810   2.091 -1.3113  1.7698  1.6623
  183ACOH    O210294   1.509   1.865   2.012  0.2516 -0.1322 -0.0451
  183ACOH    C210295   1.521   1.798   1.899  0.1422  0.4275  0.1628
  183ACOH    O110296   1.598   1.706   1.889  0.3481 -0.5578 -0.3490
  183ACOH    C110297   1.453   1.856   1.783  0.3130 -0.1632  0.0563
  183ACOH    H110298   1.494   1.955   1.762 -0.9483  0.1733 -0.8661
  183ACOH    H210299   1.350   1.879   1.810  0.3513 -0.2841  0.3083
  183ACOH    H310300   1.462   1.799   1.690 -1.5449  0.2143 -0.3816
  184ACOH    H410301   3.554   3.104   1.407 -1.6978  1.0951  0.5818
  184ACOH    O210302   3.613   3.159   1.460 -0.1558  0.4425 -0.4369
  184ACOH    C210303   3.559   3.280   1.465 -0.2098 -0.1377  0.3277
  184ACOH    O110304   3.451   3.308   1.420 -0.2881  0.7253  0.2789
  184ACOH    C110305   3.627   3.351   1.581  0.3732  0.1824 -0.3011
  184ACOH    H110306   3.734   3.330   1.582 -0.1815 -2.7969 -0.4542
  184ACOH    H210307   3.582   3.311   1.671  0.9217  1.8084  0.7184
  184ACOH    H310308   3.603   3.457   1.567  0.0030  0.3080  1.2456
  185ACOH    H410309   3.040   7.700   1.487  0.7722  0.0258  0.4743
  185ACOH    O210310   3.103   7.685   1.415  0.0803  0.1953 -0.1718
  185ACOH    C210311   3.217   7.632   1.469 -0.1618 -0.0091 -0.1725
  185ACOH    O110312   3.237   7.591   1.584  0.3394  0.4608  0.3317
  185ACOH    C110313   3.304   7.613   1.356 -0.6891 -0.3925 -0.4718
  185ACOH    H110314   3.328   7.713   1.320  1.0809 -0.2514  1.0138
  185ACOH    H210315   3.249   7.566   1.275  0.0785  4.3894 -3.9747
  185ACOH    H310316   3.399   7.563   1.374 -0.5258  0.2516  0.5324
  186ACOH    H410317   5.440   4.310   0.922 -1.5399 -0.3796 -3.1857
  186ACOH    O210318   5.499   4.383   0.895 -0.2288  0.0491  0.6262
  186ACOH    C210319   5.429   4.467   0.822  0.8283 -0.7312 -0.6419
  186ACOH    O110320   5.307   4.480   0.822  0.9493  0.1924 -0.3879
  186ACOH    C110321   5.518   4.570   0.766  0.0888 -0.4539  0.3398
  186ACOH    H110322   5.621   4.537   0.780 -0.5730 -2.3856  0.8496
  186ACOH    H210323   5.504   4.664   0.818  0.9008 -1.4640  2.4363
  186ACOH    H310324   5.503   4.579   0.658  1.3381  1.3004  0.2998
  187ACOH    H410325   2.148   9.136   2.051 -0.0654 -0.2979  2.5429
  187ACOH    O210326   2.063   9.184   2.055 -0.0807 -0.0711  0.2717
  187ACOH    C210327   2.001   9.107   2.149 -0.3938  0.2759  0.4888
  187ACOH    O110328   2.047   9.006   2.201  0.1331  0.1363 -0.1089
  187ACOH    C110329   1.871   9.168   2.183  0.4036 -0.1352 -0.3939
  187ACOH    H110330   1.844   9.117   2.275 -0.6461 -0.0285 -0.6297
  187ACOH    H210331   1.794   9.139   2.112  0.0449  1.9910 -0.9157
  187ACOH    H310332   1.868   9.275   2.205 -0.4253 -0.2671  0.1818
  188ACOH    H410333   4.436   5.248   0.799 -1.3417 -0.5368 -0.6723
  188ACOH    O210334   4.457   5.296   0.718 -0.3164  0.5793  0.2318
  188ACOH    C210335   4.347   5.373   0.689  0.0885  0.3258  0.7832
  188ACOH    O110336   4.254   5.393   0.765  0.2020 -0.5172 -0.0741
  188ACOH    C110337   4.370   5.458   0.569  0.0624  0.1330  0.2989
  188ACOH    H110338   4.420   5.552   0.592  0.1757  0.0472  0.4013
  188ACOH    H210339   4.278   5.487   0.519  1.3907  1.0312 -1.7124
  188ACOH    H310340   4.437   5.392   0.512  3.4914  1.8176  2.2020
  189ACOH    H410341   5.616   3.143   1.993  1.2829  0.4984  1.0425
  189ACOH    O210342   5.653   3.053   1.999  0.3175  0.0312  0.1112
  189ACOH    C210343   5.560   2.973   2.059 -0.4062  0.0123 -0.0748
  189ACOH    O110344   5.465   3.024   2.115 -0.2134  0.1815 -0.5126
  189ACOH    C110345   5.597   2.828   2.061  0.1890  0.0008  0.5191
  189ACOH    H110346   5.610   2.790   2.163 -1.1538 -0.5642  0.4804
  189ACOH    H210347   5.691   2.818   2.006 -0.1562 -1.3099  0.1514
  189ACOH    H310348   5.521   2.772   2.007 -0.1686  2.0974 -1.2237
  190ACOH    H410349   4.414   9.862   2.380  1.4930  1.7717 -3.0756
  190ACOH    O210350   4.437   9.777   2.338 -0.2496 -0.3338  0.0336
  190ACOH    C210351   4.389   9.674   2.410 -0.4641 -0.5727  0.1791
  190ACOH    O110352   4.333   9.689   2.517  0.5557 -0.1129  0.0229
  190ACOH    C110353   4.416   9.538   2.348 -0.2940  0.2598  0.3646
  190ACOH    H110354   4.359   9.539   2.255 -0.2923 -2.7018  0.2956
  190ACOH    H210355   4.380   9.454   2.408 -5.5509  2.0451  0.0122
  190ACOH    H310356   4.523   9.539   2.327 -0.0947  0.9864  1.3828
  191ACOH    H410357   5.005   4.431   0.275  0.5412 -0.2815 -0.4124
  191ACOH    O210358   5.027   4.520   0.244  0.6460 -0.0291  0.3668
  191ACOH    C210359   4.967   4.611   0.325 -1.1655  0.2048 -0.0335
  191ACOH    O110360   4.872   4.579   0.390 -0.2345 -0.0383 -0.0506
  191ACOH    C110361   5.010   4.745   0.304  0.1423  0.2858  0.0189
  191ACOH    H110362   4.941   4.804   0.364 -0.1059  0.2729 -0.2517
  191ACOH    H210363   4.992   4.771   0.200  2.6720 -0.4415 -0.6373
  191ACOH    H310364   5.113   4.759   0.336 -0.0405  0.7625  0.4089
  192ACOH    H410365   8.872   4.745   0.613  0.3534 -0.5519  0.2152
  192ACOH    O210366   8.816   4.709   0.683 -0.4525 -0.1950 -0.2419
  192ACOH    C210367   8.736   4.808   0.717 -0.0384 -0.3204 -0.2949
  192ACOH    O110368   8.773   4.919   0.747  0.8230 -0.2063  0.8533
  192ACOH    C110369   8.602   4.766   0.759 -0.5014 -0.5877 -0.6452
  192ACOH    H110370   8.597   4.773   0.868  0.1194  1.7346 -0.7293
  192ACOH    H210371   8.581   4.667   0.720 -0.4860 -0.5531 -0.7396
  192ACOH    H310372   8.534   4.832   0.705  0.1472  1.8837  1.4604
  193ACOH    H410373   3.511   7.879   1.974 -1.2211  0.2288 -0.8493
  193ACOH    O210374   3.499   7.792   2.016 -0.1643  0.1090 -0.7859
  193ACOH    C210375   3.506   7.815   2.147  0.5621  0.8171 -0.2719
  193ACOH    O110376   3.502   7.923   2.206 -0.3363  1.1538  0.1435
  193ACOH    C110377   3.509   7.691   2.231 -0.0571  0.4803 -0.1844
  193ACOH    H110378   3.407   7.652   2.234 -0.1870  0.8449  0.1629
  193ACOH    H210379   3.551   7.708   2.330  0.3190  0.7069 -0.3802
  193ACOH    H310380   3.568   7.617   2.178 -0.1745  0.1359  0.1643
  194ACOH    H410381   3.345   6.412   2.461 -1.7033  2.8736 -0.8511
  194ACOH    O210382   3.392   6.399   2.377 -0.2872 -0.2149  0.3354
  194ACOH    C210383   3.482   6.294   2.386  0.2137  0.0341 -0.1788
  194ACOH    O110384   3.510   6.233   2.486  0.5188 -0.3692 -0.1045
  194ACOH    C110385   3.571   6.292   2.268  0.3101  0.2434  0.2219
  194ACOH    H110386   3.595   6.397   2.251  1.2781 -0.2446 -1.4732
  194ACOH    H210387   3.515   6.254   2.183  2.0559  0.6272 -1.1051
  194ACOH    H310388   3.662   6.235   2.287  2.3424  3.2265 -0.1462
  195ACOH    H410389   9.149   3.709   1.106  0.4689  0.7044 -3.3152
  195ACOH    O210390   9.143   3.617   1.075 -0.1475 -0.3853 -0.0623
  195ACOH    C210391   9.224   3.613   0.970 -0.1032 -0.5647  0.9233
  195ACOH    O110392   9.327   3.666   0.963 -0.2133  0.0746 -0.0724
  195ACOH    C110393   9.203   3.494   0.883  0.4894  0.5430  0.4943
  195ACOH    H110394   9.210   3.531   0.781 -0.7076  1.7078  0.8252
  195ACOH    H210395   9.099   3.464   0.893  0.2972  0.4035 -1.5878
  195ACOH    H310396   9.269   3.412   0.912  0.3141  0.7339  1.4512
  196ACOH    H410397   2.207   8.176   0.869  0.0450 -1.3046 -0.6562
  196ACOH    O210398   2.233   8.147   0.959  0.6248  0.3401 -0.2699
  196ACOH    C210399   2.316   8.041   0.938  0.2984 -0.1752 -0.8533
  196ACOH    O110400   2.369   8.006   0.835 -0.3269 -0.8945 -0.1475
  196ACOH    C110401   2.355   7.972   1.068  0.3222  0.1047 -0.0562
  196ACOH    H110402   2.376   7.868   1.046 -1.1175  0.0819 -1.4613
  196ACOH    H210403   2.270   7.980   1.136  0.5443  0.0056  0.2295
  196ACOH    H310404   2.442   8.022   1.109  1.2717  0.0527 -1.9488
  197ACOH    H410405   5.540   4.073   2.175 -1.4836 -0.2982  0.6014
  197ACOH    O210406   5.510   4.158   2.140 -0.4037 -0.2349 -0.2034
  197ACOH    C210407   5.424   4.214   2.232 -0.3316 -0.7742  0.5342
  197ACOH    O110408   5.415   4.184   2.350 -0.3965  0.6803 -0.0818
  197ACOH    C110409   5.377   4.344   2.186  0.3139 -0.0686  0.3512
  197ACOH    H110410   5.342   4.409   2.265  0.3305  2.6395 -1.7751
  197ACOH    H210411   5.294   4.324   2.118  1.1224 -1.8760 -0.1287
  197ACOH    H310412   5.449   4.399   2.124 -0.6211 -1.0727 -1.6921
  198ACOH    H410413   4.113   5.494   0.782  0.0899  0.6380 -2.1623
  198ACOH    O210414   4.046   5.564   0.794 -0.2458 -0.0266  0.0902
  198ACOH    C210415   3.987   5.546   0.914  0.0972  0.9963 -0.1415
  198ACOH    O110416   4.003   5.452   0.988  0.5849 -0.3587 -0.0653
  198ACOH    C110417   3.898   5.665   0.932  0.2040  0.4173 -0.3056
  198ACOH    H110418   3.822   5.674   0.855  0.7873  1.9773 -0.7211
  198ACOH    H210419   3.953   5.759   0.923  1.3109 -0.1040  0.8445
  198ACOH    H310420   3.853   5.647   1.029 -0.1684  0.3110 -0.5001
  199ACOH    H410421   1.853   3.584   1.095  1.3480  0.3757 -2.8483
  199ACOH    O210422   1.892   3.496   1.083 -0.1097 -0.6758 -0.1758
  199ACOH    C210423   1.811   3.409   1.148 -0.3921 -0.5114 -0.0485
  199ACOH    O110424   1.740   3.432   1.246  0.1057 -0.3613  0.0680
  199ACOH    C110425   1.826   3.272   1.097 -0.1838  0.2938  0.5820
  199ACOH    H110426   1.865   3.275   0.996  0.0277 -0.4916  0.6414
  199ACOH    H210427   1.729   3.225   1.113  0.2154 -0.8878 -0.4776
  199ACOH    H310428   1.899   3.225   1.163 -1.5497  0.0221  1.9397
  200ACOH    H410429   3.786   5.754   2.223  0.3869  0.3606 -0.8744
  200ACOH    O210430   3.878   5.735   2.246  0.0501 -0.0140  0.1836
  200ACOH    C210431   3.881   5.723   2.379  0.5711 -0.8415 -0.3966
  200ACOH    O110432   3.797   5.764   2.457 -0.0914 -0.2422 -0.0673
  200ACOH    C110433   4.024   5.697   2.423 -0.4365 -0.0501 -0.3651
  200ACOH    H110434   4.037   5.704   2.531 -0.4658 -0.5064 -0.3323
  200ACOH    H210435   4.095   5.769   2.383 -1.5020  0.2696 -1.7228
  200ACOH    H310436   4.051   5.596   2.394 -0.4749 -0.6183  1.5328
  202ACOH    H410437   4.860   5.372   1.714  1.3597 -0.6197  0.2421
  202ACOH    O210438   4.890   5.456   1.752 -0.4843  0.1068  0.1547
  202ACOH    C210439   4.783   5.537   1.760  0.1438  0.7192 -0.3391
  202ACOH    O110440   4.678   5.516   1.704  0.2926 -0.3969  0.4640
  202ACOH    C110441   4.822   5.670   1.801  0.2666  0.7506 -0.4798
  202ACOH    H110442   4.905   5.702   1.738  0.0670  0.7084 -0.7647
  202ACOH    H210443   4.853   5.658   1.906  0.9163  0.0193 -0.7443
  202ACOH    H310444   4.744   5.746   1.799  0.2808  0.7796 -0.0513
  203ACOH    H410445  10.458   3.915   1.750 -0.8755  0.4220  0.4842
  203ACOH    O210446  10.442   3.885   1.659  0.1359  0.0590  0.4216
  203ACOH    C210447  10.381   3.973   1.580  0.5309 -1.0800  0.3441
  203ACOH    O110448  10.334   3.940   1.475  0.4394 -0.2094 -0.6669
  203ACOH    C110449  10.351   4.104   1.651 -0.3830  0.0658 -0.8979
  203ACOH    H110450  10.294   4.163   1.579 -0.9872 -1.9234 -2.0881
  203ACOH    H210451  10.442   4.158   1.678 -0.9216  1.9274 -2.6629
  203ACOH    H310452  10.299   4.081   1.744 -0.6804  0.1292 -1.0487
  204ACOH    H410453   4.326   0.163   2.631  1.7774  0.4461  1.3218
  204ACOH    O210454   4.346   0.224   2.558 -0.0789 -0.3847  0.0969
  204ACOH    C210455   4.377   0.130   2.460  0.1436  0.1120 -0.1621
  204ACOH    O110456   4.394   0.015   2.489 -0.3289 -0.1115  0.4907
  204ACOH    C110457   4.427   0.188   2.333  0.0622  0.3852 -0.1567
  204ACOH    H110458   4.460   0.115   2.259 -0.0605  0.6934 -0.5158
  204ACOH    H210459   4.514   0.249   2.355  2.2847 -2.5050 -0.6728
  204ACOH    H310460   4.351   0.252   2.287  1.1522  2.4648  0.8739
  205ACOH    H410461   1.569   1.125   1.831  0.0406 -0.4020  0.4132
  205ACOH    O210462   1.499   1.149   1.895  0.2139 -0.0191  0.4590
  205ACOH    C210463   1.563   1.219   1.992  0.3723  0.2624 -0.1131
  205ACOH    O110464   1.680   1.257   1.985 -0.1842 -0.0191  0.0062
  205ACOH    C110465   1.470   1.275   2.096  0.3900 -0.5267  0.0576
  205ACOH    H110466   1.524   1.307   2.184  0.7101  0.6626 -0.5640
  205ACOH    H210467   1.401   1.196   2.125 -1.9553  0.7291 -1.8975
  205ACOH    H310468   1.424   1.355   2.039  0.6444  0.2675  0.9600
  206ACOH    H410469   3.402   8.018   1.202  0.7738  1.6350  0.5936
  206ACOH    O210470   3.464   8.025   1.128  0.1120  0.3489 -0.1099
  206ACOH    C210471   3.563   7.939   1.147 -0.3598  0.2102 -0.8785
  206ACOH    O110472   3.605   7.899   1.256  0.2964  0.1761  0.5657
  206ACOH    C110473   3.654   7.934   1.021  0.4028  0.2507 -0.0743
  206ACOH    H110474   3.716   8.024   1.014  0.3031  0.1378 -2.8914
  206ACOH    H210475   3.593   7.932   0.931  0.2793  0.5376  0.0001
  206ACOH    H310476   3.720   7.848   1.017 -0.1408 -0.0985 -1.8127
  207ACOH    H410477   5.492   3.427   2.086 -0.8381  0.7963  0.3031
  207ACOH    O210478   5.545   3.498   2.045 -0.2935  0.1304 -0.1406
  207ACOH    C210479   5.631   3.434   1.961 -0.4178 -0.0096 -1.1216
  207ACOH    O110480   5.637   3.317   1.945 -0.5592 -0.0218  0.0763
  207ACOH    C110481   5.708   3.530   1.870 -0.7685  0.0396  0.3326
  207ACOH    H110482   5.815   3.509   1.862 -1.1731 -2.4861  1.0452
  207ACOH    H210483   5.702   3.637   1.890  0.7455  0.2900 -0.4134
  207ACOH    H310484   5.669   3.528   1.768  1.3490  1.0113 -0.5368
  208ACOH    H410485   5.459   2.134   0.982 -0.1390  0.1842  0.3476
  208ACOH    O210486   5.475   2.109   1.075 -0.0189  0.2910  0.3560
  208ACOH    C210487   5.373   2.151   1.142 -0.5962  0.1996  0.2740
  208ACOH    O110488   5.276   2.220   1.113 -0.2152  0.0324  0.5235
  208ACOH    C110489   5.388   2.110   1.283 -0.3104  0.1611 -0.0090
  208ACOH    H110490   5.475   2.045   1.295 -1.5835 -1.5182  0.4477
  208ACOH    H210491   5.299   2.056   1.315  0.5243 -2.8923 -2.5316
  208ACOH    H310492   5.395   2.200   1.344 -0.8106  0.4913 -0.4427
  209ACOH    H410493   3.716   5.627   0.439 -1.9540  3.3417 -1.5999
  209ACOH    O210494   3.797   5.679   0.453  0.0316  0.0175 -0.1042
  209ACOH    C210495   3.913   5.619   0.413 -0.1587  0.5164 -0.1197
  209ACOH    O110496   3.932   5.523   0.339 -0.6043 -0.3573 -0.1785
  209ACOH    C110497   4.023   5.692   0.482  0.1645 -0.2393 -0.6115
  209ACOH    H110498   4.034   5.791   0.438 -1.3560 -0.7887 -2.2525
  209ACOH    H210499   4.108   5.624   0.481 -0.9892 -1.6895 -1.4912
  209ACOH    H310500   3.979   5.699   0.582 -1.4753 -1.1038 -1.2618
  210ACOH    H410501   4.954   5.299   0.780 -0.4966 -0.5556  0.1255
  210ACOH    O210502   4.993   5.289   0.692  0.0950 -0.5558  0.3836
  210ACOH    C210503   4.887   5.288   0.609 -0.1647  1.0345  0.5658
  210ACOH    O110504   4.779   5.245   0.641  0.2910  0.3553 -0.2576
  210ACOH    C110505   4.932   5.338   0.474  0.5240 -0.2426  0.6875
  210ACOH    H110506   5.014   5.280   0.432 -0.7006 -0.0799 -2.0485
  210ACOH    H210507   4.963   5.443   0.473  0.4446 -0.2270 -1.4058
  210ACOH    H310508   4.846   5.331   0.408 -0.7419  0.2962  2.2633
  212ACOH    H410509   5.421   1.596   0.908  0.6139 -0.1911  0.0801
  212ACOH    O210510   5.436   1.510   0.865  0.1798 -0.0666 -0.3261
  212ACOH    C210511   5.416   1.525   0.732  0.4642  0.2529  0.4406
  212ACOH    O110512   5.382   1.630   0.681 -0.1820  0.1407  0.2968
  212ACOH    C110513   5.472   1.406   0.654  0.4448 -0.1552 -0.2899
  212ACOH    H110514   5.435   1.397   0.552 -1.4057  0.0595  0.3499
  212ACOH    H210515   5.459   1.312   0.708 -1.4536 -1.6493 -3.2381
  212ACOH    H310516   5.580   1.413   0.647  0.8049 -1.7111  2.6900
  214ACOH    H410517   4.225   9.804   1.017  0.4442 -0.5021  0.1779
  214ACOH    O210518   4.195   9.723   1.060 -0.3523 -0.3458 -0.0832
  214ACOH    C210519   4.260   9.621   0.992 -0.8924 -0.0320  0.3588
  214ACOH    O110520   4.279   9.514   1.042 -0.1539  0.0709 -0.0983
  214ACOH    C110521   4.341   9.659   0.867  0.6854 -0.1229 -0.2532
  214ACOH    H110522   4.372   9.570   0.811  2.7943 -0.2320  1.0507
  214ACOH    H210523   4.425   9.723   0.892  0.2065  0.0152  1.0311
  214ACOH    H310524   4.278   9.718   0.800 -1.0853 -2.5119 -0.7934
  215SOL     OW10525   2.748   7.412   0.403 -0.3191 -0.2289 -0.3057
  215SOL    HW110526   2.768   7.505   0.371 -1.0296  0.2429  0.5849
  215SOL    HW210527   2.832   7.358   0.405  0.1185  0.4317 -0.7120
  216SOL     OW10528   2.442   0.633   1.013  0.0981 -0.0893 -0.5780
  216SOL    HW110529   2.437   0.678   1.102  0.4921 -0.3871 -0.4023
  216SOL    HW210530   2.368   0.666   0.955 -0.2636 -0.0205 -0.0822
  217SOL     OW10531   3.013   0.585   0.482  0.0231  0.4673 -0.2994
  217SOL    HW110532   3.082   0.518   0.458  0.5752  1.7439 -2.3293
  217SOL    HW210533   2.988   0.573   0.578  2.8117 -0.2119  0.3896
  218SOL     OW10534   3.988   0.342   0.598 -0.5584 -0.1345 -0.5251
  218SOL    HW110535   3.992   0.341   0.698  1.8629 -0.3752 -0.6060
  218SOL    HW210536   3.994   0.249   0.563 -1.3300 -0.0436 -0.9044
  219SOL     OW10537   3.953   1.896   1.675  0.1601 -0.4348  0.0810
  219SOL    HW110538   3.945   1.959   1.752  0.3630 -2.4963  1.8599
  219SOL    HW210539   3.862   1.874   1.640  0.0809  0.6871 -0.4190
  220SOL     OW10540   2.570   8.588   2.063 -0.3597  0.3869 -0.2435
  220SOL    HW110541   2.562   8.678   2.019  2.3627  0.2805 -1.0112
  220SOL    HW210542   2.587   8.601   2.160 -1.4962  0.6530 -0.0619
  222SOL     OW10543   3.275   5.236   2.267 -0.6519 -0.3163  0.1353
  222SOL    HW110544   3.241   5.173   2.197 -1.0298  1.5995 -1.4795
  222SOL    HW210545   3.373   5.251   2.252 -0.5926 -0.4074  0.4321
  223SOL     OW10546   2.259   3.964   1.600 -0.7435 -0.6055  0.3489
  223SOL    HW110547   2.282   3.866   1.600  0.2355 -0.4148 -1.6758
  223SOL    HW210548   2.210   3.985   1.515  2.2090  1.3283 -0.9525
  224SOL     OW10549   2.243   1.731   0.414 -0.4210 -0.0378 -0.2550
  224SOL    HW110550   2.307   1.798   0.452 -1.5353  0.6360  0.4861
  224SOL    HW210551   2.212   1.670   0.487 -1.3175  0.2192 -0.4127
  225SOL     OW10552   2.779   5.993   1.538 -0.3132  0.2583  0.1390
  225SOL    HW110553   2.679   5.989   1.531 -0.2155 -0.2323 -1.0065
  225SOL    HW210554   2.820   5.925   1.477  0.7433  1.1966 -0.2159
  226SOL     OW10555   3.141   3.838   0.737 -0.1547 -0.1746  0.3855
  226SOL    HW110556   3.221   3.862   0.792  0.1005 -1.1335  0.4382
  226SOL    HW210557   3.112   3.745   0.759 -1.1108  0.0630  0.1528
  227SOL     OW10558   4.986   2.616   0.903 -0.1591  0.3203  0.1286
  227SOL    HW110559   4.952   2.672   0.978  2.3341 -0.2513  1.7531
  227SOL    HW210560   4.982   2.519   0.929  0.8727  0.1272 -0.4032
  229SOL     OW10561   3.754   2.798   0.942  0.5074  0.8211  0.1026
  229SOL    HW110562   3.663   2.810   0.902  0.6525 -0.5804 -0.6844
  229SOL    HW210563   3.819   2.856   0.893  0.5702 -0.4202 -1.2996
  230SOL     OW10564  10.033   3.714   1.637  0.5832  0.2249 -0.4716
  230SOL    HW110565  10.049   3.810   1.658  1.8942  0.0076 -0.4284
  230SOL    HW210566   9.977   3.707   1.554 -0.0441  1.0210 -0.1210
  231SOL     OW10567   2.065   5.359   1.446 -0.0705 -0.0038 -0.1062
  231SOL    HW110568   1.968   5.385   1.451  0.3617  1.5105  0.4821
  231SOL    HW210569   2.108   5.377   1.534  0.9526  0.0804 -0.6268
  232SOL     OW10570   1.491   3.682   1.032  0.3146 -0.3134 -0.1467
  232SOL    HW110571   1.579   3.665   1.076  0.4328 -1.4257 -0.7887
  232SOL    HW210572   1.494   3.647   0.938 -0.1330  1.4711 -0.8484
  233SOL     OW10573   3.437   6.559   0.466  0.5420 -0.3318 -0.7106
  233SOL    HW110574   3.340   6.534   0.457  0.9223 -2.6120  1.0246
  233SOL    HW210575   3.450   6.611   0.550  0.8131 -0.0200 -0.9459
  235SOL     OW10576   4.219   1.672   1.450  0.2452 -0.8864  0.2367
  235SOL    HW110577   4.209   1.697   1.546 -0.5957 -1.4787  0.3146
  235SOL    HW210578   4.301   1.617   1.437  0.0276 -1.3230  0.7215
  237SOL     OW10579   2.269   2.844   1.780 -0.0395 -0.2021 -0.7346
  237SOL    HW110580   2.235   2.752   1.764  0.0088  0.1264 -2.8363
  237SOL    HW210581   2.270   2.896   1.694  2.9855  0.7204 -0.2322
  238SOL     OW10582   2.726   5.203   2.163  0.8019 -0.6905  0.1563
  238SOL    HW110583   2.633   5.188   2.197  0.4516  2.0675  0.5081
  238SOL    HW210584   2.791   5.195   2.239  0.9661 -3.1861 -0.1903
  239SOL     OW10585  10.314   3.523   1.143 -0.2906 -0.3152 -0.0439
  239SOL    HW110586  10.345   3.541   1.050  0.9937 -0.5424  0.3194
  239SOL    HW210587  10.281   3.608   1.185  0.6856  0.1224 -0.1518
  240SOL     OW10588   2.942   4.112   0.501 -0.0825 -0.4383  0.1271
  240SOL    HW110589   2.859   4.091   0.554 -0.5844  0.0084 -0.4832
  240SOL    HW210590   2.983   4.026   0.469  0.5048 -0.7584  1.6446
  242SOL     OW10591   2.708   0.093   0.949 -0.0588  0.8474  0.3582
  242SOL    HW110592   2.768   0.156   0.998  0.4204  0.5037  0.2133
  242SOL    HW210593   2.707   0.004   0.994 -0.3006  0.7912  0.2462
  243SOL     OW10594   2.037   2.821   0.537 -0.1439 -0.2304  0.7410
  243SOL    HW110595   1.952   2.771   0.551 -0.4438  0.2635  0.6851
  243SOL    HW210596   2.106   2.760   0.497  0.4367 -1.4338  3.4618
  244SOL     OW10597   2.726   4.358   0.915  0.1679  0.5167  0.0176
  244SOL    HW110598   2.658   4.336   0.985  0.5165  0.2720  0.2841
  244SOL    HW210599   2.789   4.428   0.951 -0.6553  1.6083 -0.6581
  245SOL     OW10600   3.315   4.131   1.833  0.1548  0.1568  0.5401
  245SOL    HW110601   3.318   4.229   1.811  0.7149 -0.1518 -0.7587
  245SOL    HW210602   3.226   4.110   1.874 -1.3304  0.5529 -2.3735
  247SOL     OW10603   1.443   3.948   1.449  0.4593 -0.5149  0.7245
  247SOL    HW110604   1.469   3.994   1.535  1.1698  0.7423 -0.1437
  247SOL    HW210605   1.344   3.942   1.444  0.4317 -1.9130  2.3025
  249SOL     OW10606   0.727   5.423   2.308  0.1720  0.2379  0.6257
  249SOL    HW110607   0.808   5.382   2.267 -0.0572  1.4209 -1.0398
  249SOL    HW210608   0.651   5.418   2.244 -1.1140 -0.9233  2.1992
  250SOL     OW10609   3.336   1.516   1.653 -0.5556  0.2110  0.3747
  250SOL    HW110610   3.288   1.579   1.592  0.9583  0.0657 -0.9963
  250SOL    HW210611   3.337   1.553   1.746 -0.4108  1.8143 -0.2532
  252SOL     OW10612   3.999   9.205   0.746  0.2370 -0.3200 -0.1966
  252SOL    HW110613   3.981   9.137   0.675 -1.9454  2.3184 -2.2599
  252SOL    HW210614   4.068   9.270   0.713 -1.6608  1.6227 -0.4061
  253SOL     OW10615   3.624   0.534   2.165  0.0137  0.3763  0.4352
  253SOL    HW110616   3.637   0.434   2.162  1.6570  0.5621  0.7927
  253SOL    HW210617   3.529   0.556   2.144 -0.4354 -1.2934  0.6465
  254SOL     OW10618   4.029   3.885   2.044  0.5903  0.1113 -0.4086
  254SOL    HW110619   4.059   3.918   2.133  1.2066  0.8968 -0.9088
  254SOL    HW210620   3.929   3.892   2.038  0.2850 -2.2397  1.1466
  255SOL     OW10621   2.248   1.124   2.225 -0.5963  0.0657 -0.4869
  255SOL    HW110622   2.293   1.194   2.170 -0.0640 -0.8057 -1.1620
  255SOL    HW210623   2.188   1.069   2.167 -0.3641 -0.5830 -0.1124
  257SOL     OW10624   3.755   8.887   0.599 -0.1339 -0.0927  0.3717
  257SOL    HW110625   3.844   8.931   0.585  0.2303 -0.9215  0.0432
  257SOL    HW210626   3.707   8.931   0.674  0.9382 -0.2212  1.1406
  259SOL     OW10627   2.519   1.326   1.176 -0.6216  0.9063  0.3523
  259SOL    HW110628   2.502   1.245   1.119  1.3500  0.1368  0.8107
  259SOL    HW210629   2.617   1.345   1.178 -0.9050  2.2836  1.6530
  260SOL     OW10630   2.057   3.643   1.510 -0.3757  0.5478 -0.0216
  260SOL    HW110631   2.104   3.581   1.447  1.5560  1.7118  0.2286
  260SOL    HW210632   2.036   3.595   1.594  0.1566 -0.0648 -0.2322
  261SOL     OW10633   2.366   3.270   1.256 -0.8173  0.3849 -0.2512
  261SOL    HW110634   2.308   3.214   1.197  0.7777 -0.4492 -1.0821
  261SOL    HW210635   2.431   3.211   1.304 -0.8479  1.2687  0.8824
  262SOL     OW10636   1.896   5.682   1.222  0.5338  0.2964  0.0778
  262SOL    HW110637   1.806   5.666   1.182 -0.4914  0.2331  2.3456
  262SOL    HW210638   1.936   5.595   1.252  1.9535  0.1612 -2.1402
  263SOL     OW10639  10.192   5.348   2.025 -0.3256 -0.2779  0.0514
  263SOL    HW110640  10.180   5.277   1.955  0.5467 -2.7900  2.3440
  263SOL    HW210641  10.116   5.344   2.089 -0.7607  1.5473 -0.3336
  264SOL     OW10642   5.274   2.921   2.332  0.3970 -0.0498  0.0030
  264SOL    HW110643   5.346   2.955   2.272 -0.1640 -0.7768 -1.0888
  264SOL    HW210644   5.185   2.948   2.297 -0.0916 -2.8036 -1.0486
  265SOL     OW10645   3.727   4.171   1.538  0.1135  0.0266  0.1415
  265SOL    HW110646   3.741   4.237   1.611  0.2520  0.0258  0.1166
  265SOL    HW210647   3.775   4.201   1.456  1.2723 -0.7519  0.5170
  268SOL     OW10648   5.381   3.665   1.194 -0.6144  0.7470 -0.3793
  268SOL    HW110649   5.346   3.687   1.285  1.7427  2.7581  0.1005
  268SOL    HW210650   5.393   3.749   1.141  0.2128 -0.1794 -1.7097
  269SOL     OW10651   2.676   4.442   0.395  0.5708 -0.2680 -0.0821
  269SOL    HW110652   2.608   4.436   0.468  0.7902  0.8277  0.2276
  269SOL    HW210653   2.768   4.429   0.433  0.6244 -0.5676 -0.3090
  270SOL     OW10654   4.269   3.216   0.671 -0.1002  0.1604  0.3335
  270SOL    HW110655   4.334   3.209   0.747  2.2346  1.9062 -1.4375
  270SOL    HW210656   4.242   3.124   0.642  3.8057 -0.7285 -0.7353
  271SOL     OW10657   2.202   8.487   0.824  0.4438 -0.2460  0.2853
  271SOL    HW110658   2.181   8.389   0.822  0.1582 -0.1929  0.5518
  271SOL    HW210659   2.278   8.507   0.762  0.3014 -0.5888 -0.0001
  273SOL     OW10660   0.493   4.786   1.920  0.4252 -0.5558  0.2825
  273SOL    HW110661   0.484   4.863   1.982 -0.2004 -1.2024  1.0079
  273SOL    HW210662   0.510   4.819   1.827 -1.3152  0.4915  0.3198
  274SOL     OW10663   5.015   1.653   2.217  0.4668  0.4714  0.3335
  274SOL    HW110664   5.081   1.578   2.213  2.2485  2.0227 -0.1284
  274SOL    HW210665   4.948   1.644   2.144  0.7986 -0.5491  0.1600
  275SOL     OW10666   3.163   9.009   0.648 -0.8086  0.0092  0.1110
  275SOL    HW110667   3.173   8.915   0.681 -1.6515  0.1267  0.7193
  275SOL    HW210668   3.066   9.034   0.649 -1.0301 -0.4293 -3.6424
  276SOL     OW10669   1.577   7.580   1.832 -0.1865  0.1093 -0.4001
  276SOL    HW110670   1.534   7.669   1.846  2.2417  0.7608  3.7664
  276SOL    HW210671   1.514   7.508   1.858 -0.7470  0.7995  0.1805
  278SOL     OW10672   2.743   5.622   0.830 -0.3634 -0.1810  0.0191
  278SOL    HW110673   2.660   5.659   0.789 -0.2196 -0.3185 -0.4039
  278SOL    HW210674   2.797   5.696   0.869  0.9534  0.3534 -2.6728
  280SOL     OW10675   2.218   0.850   1.151  0.0406 -0.6918 -0.4342
  280SOL    HW110676   2.138   0.865   1.209  0.2862 -0.2332 -0.2052
  280SOL    HW210677   2.284   0.792   1.200  0.9688  1.0434  0.4303
  281SOL     OW10678   2.857   8.689   1.938  0.5081 -0.2291 -0.1016
  281SOL    HW110679   2.885   8.640   1.856  1.9518  0.4166 -0.0003
  281SOL    HW210680   2.861   8.627   2.017  2.2042 -0.0130  0.0034
  283SOL     OW10681   4.172   1.989   2.069 -0.5082  0.1250 -0.0310
  283SOL    HW110682   4.112   2.031   2.002 -0.9936  0.4783  0.6154
  283SOL    HW210683   4.122   1.976   2.155  0.1882 -0.0329  0.3551
  285SOL     OW10684   4.023   1.593   2.150  0.1124 -0.6809  0.5651
  285SOL    HW110685   3.935   1.548   2.130 -1.5258  3.1630 -1.4895
  285SOL    HW210686   4.022   1.630   2.243 -0.8958  0.2406  0.1989
  287SOL     OW10687   1.850   7.481   1.416  0.7156  0.3038 -0.3770
  287SOL    HW110688   1.779   7.440   1.473  1.0017 -1.2807 -1.1388
  287SOL    HW210689   1.931   7.499   1.472 -0.7646  3.5650  0.8538
  288SOL     OW10690   1.027   6.832   0.486  0.1445  0.0524 -1.0825
  288SOL    HW110691   1.033   6.928   0.462  1.0706  0.7573  1.7483
  288SOL    HW210692   1.119   6.792   0.487  0.1991  0.1145  1.2419
  289SOL     OW10693   2.548   2.951   1.065  0.3525  0.3190 -0.2890
  289SOL    HW110694   2.455   2.979   1.091  0.3389  0.6139 -0.6642
  289SOL    HW210695   2.603   2.939   1.148  0.4807  1.8423 -0.1406
  290SOL     OW10696   4.973   3.369   0.394  0.1239 -0.0618  0.0563
  290SOL    HW110697   4.884   3.416   0.391 -0.0200 -0.1399  2.1761
  290SOL    HW210698   4.968   3.291   0.457  1.5392 -0.3927 -0.2188
  291SOL     OW10699   2.117   7.387   0.968 -0.5299  0.2303 -0.1307
  291SOL    HW110700   2.070   7.334   1.038 -1.3200  0.0606 -0.7802
  291SOL    HW210701   2.209   7.350   0.955 -0.6772 -0.2718  0.2108
  292SOL     OW10702   2.458   1.237   1.457 -0.1174  0.5473 -0.1377
  292SOL    HW110703   2.363   1.262   1.476  0.7546  1.6147  3.0990
  292SOL    HW210704   2.487   1.280   1.372 -2.2975  0.8055 -0.7792
  293SOL     OW10705   1.902   8.335   1.264 -0.1939  0.2279  0.3026
  293SOL    HW110706   1.890   8.235   1.260 -0.9614  0.3211  0.2571
  293SOL    HW210707   1.997   8.356   1.287 -0.1221 -0.5232  0.7161
  294SOL     OW10708   0.854   5.191   1.403  0.8106 -0.1793  0.4348
  294SOL    HW110709   0.908   5.267   1.439 -0.6816  1.5281 -0.8984
  294SOL    HW210710   0.773   5.177   1.460  0.5040 -0.0469  0.0313
  295SOL     OW10711   3.743   5.285   1.368 -0.4364 -0.1050 -0.0773
  295SOL    HW110712   3.695   5.318   1.449  0.8380 -0.4380  0.8289
  295SOL    HW210713   3.841   5.278   1.388  0.0484  0.8605 -1.9870
  296SOL     OW10714   1.721   1.104   0.468 -0.5284 -0.6114  0.3476
  296SOL    HW110715   1.742   1.201   0.464 -0.1483 -0.6186  1.7941
  296SOL    HW210716   1.664   1.078   0.389 -1.1779  0.8987  0.3131
  297SOL     OW10717   3.876   9.657   1.520 -0.4345 -0.2295  0.5250
  297SOL    HW110718   3.863   9.744   1.569 -1.8270  0.4333 -0.9810
  297SOL    HW210719   3.957   9.664   1.462 -2.1357  1.1055 -1.7612
  298SOL     OW10720   3.638   4.350   0.889 -0.0972 -0.4090 -0.1265
  298SOL    HW110721   3.570   4.405   0.839  0.6087 -1.0495 -1.8405
  298SOL    HW210722   3.661   4.396   0.975 -2.1883  0.1529  0.1621
  300SOL     OW10723   9.802   3.607   0.316 -0.1997  0.6275  0.1453
  300SOL    HW110724   9.863   3.561   0.380 -2.5076  0.0807  2.0599
  300SOL    HW210725   9.843   3.609   0.225  1.6906 -1.6269  0.8997
  301SOL     OW10726   3.162   6.029   1.651 -0.0027 -0.1564  0.3504
  301SOL    HW110727   3.103   6.109   1.649  1.5299  0.9986 -0.3695
  301SOL    HW210728   3.244   6.047   1.595  0.7737 -1.8938  0.8913
  303SOL     OW10729   1.680   4.797   2.324  0.9234  0.0428  0.4208
  303SOL    HW110730   1.651   4.773   2.231  2.7183 -0.7985  0.0508
  303SOL    HW210731   1.617   4.756   2.390  0.6974 -0.9384 -0.3834
  304SOL     OW10732   3.609   0.655   1.465 -0.4212 -0.1101 -0.5690
  304SOL    HW110733   3.686   0.705   1.424  1.1628  0.0553  2.4444
  304SOL    HW210734   3.538   0.720   1.493  0.2225  0.1863  0.4266
  305SOL     OW10735   1.342   5.425   2.281 -0.2255  0.1879  0.0023
  305SOL    HW110736   1.346   5.521   2.254 -3.0983  0.7041  1.2218
  305SOL    HW210737   1.428   5.399   2.327  0.4387  2.2293 -0.0621
  306SOL     OW10738   0.730   4.397   0.496 -0.6014 -0.0684 -0.7578
  306SOL    HW110739   0.651   4.456   0.486 -0.1023  0.5392 -1.1795
  306SOL    HW210740   0.789   4.407   0.416 -0.9174 -1.7503 -1.2107
  308SOL     OW10741   2.425   5.805   1.058  0.0912 -0.1092  0.2069
  308SOL    HW110742   2.510   5.808   1.111 -0.5367  0.2947  1.2070
  308SOL    HW210743   2.357   5.751   1.107 -0.6975  0.7890  0.1217
  309SOL     OW10744   4.142   3.001   0.539  0.3944 -0.4930 -0.2082
  309SOL    HW110745   4.112   2.952   0.621  1.0287  0.6574  0.7195
  309SOL    HW210746   4.095   2.963   0.459  0.3136 -2.1088  0.5793
  310SOL     OW10747   3.502   8.623   2.004 -0.2538 -0.0176  0.0876
  310SOL    HW110748   3.461   8.565   2.074 -0.6088  0.1832  0.0472
  310SOL    HW210749   3.507   8.717   2.037  3.1832 -0.5658  1.3937
  312SOL     OW10750   1.327   5.148   1.734 -0.0201 -0.1242 -0.2653
  312SOL    HW110751   1.239   5.195   1.729 -0.7134 -1.1474  1.6699
  312SOL    HW210752   1.382   5.170   1.653 -1.4650  1.6817 -0.7866
  313SOL     OW10753   3.932   1.592   0.693  0.1646 -0.3711 -0.5474
  313SOL    HW110754   4.004   1.541   0.739  0.4375  1.1274  0.7319
  313SOL    HW210755   3.854   1.532   0.675  0.4691 -1.2168  0.9306
  314SOL     OW10756   0.487   3.296   0.662  0.1187  0.2494 -0.2773
  314SOL    HW110757   0.544   3.229   0.709  0.7835  1.0443  0.0622
  314SOL    HW210758   0.406   3.315   0.717 -0.4688 -0.8424 -0.7364
  315SOL     OW10759   2.694   3.581   0.901  0.6868  0.0401  0.0175
  315SOL    HW110760   2.740   3.670   0.896 -1.6042  1.1757 -1.7097
  315SOL    HW210761   2.665   3.564   0.995  0.7169  1.3377  0.2721
  316SOL     OW10762   1.770   6.681   1.396 -0.4844 -0.2824  0.5147
  316SOL    HW110763   1.813   6.605   1.445 -1.1776 -0.6052  0.6360
  316SOL    HW210764   1.805   6.768   1.431  2.3594 -0.5584 -1.4919
  317SOL     OW10765   3.604   8.792   0.956  0.1404  0.0821  0.0107
  317SOL    HW110766   3.538   8.723   0.987 -1.1948  1.6611  0.7537
  317SOL    HW210767   3.696   8.765   0.986 -0.5365 -0.7290  1.4479
  318SOL     OW10768   3.497   2.384   0.601  0.2137  0.0694  0.9278
  318SOL    HW110769   3.417   2.417   0.652 -0.7394  1.1268 -1.1795
  318SOL    HW210770   3.554   2.461   0.575  0.5705 -0.4343  0.2084
  323SOL     OW10771  10.203   6.064   0.447  0.7120 -0.3824  0.1034
  323SOL    HW110772  10.258   6.088   0.527 -0.9533  2.0725  0.5286
  323SOL    HW210773  10.232   6.119   0.369 -0.4446  0.1696  0.0629
  324SOL     OW10774   1.369   2.611   0.408 -0.3597 -0.5911 -0.1890
  324SOL    HW110775   1.308   2.613   0.329  0.1685  0.9046 -0.5770
  324SOL    HW210776   1.453   2.661   0.387 -0.4275  0.2660  1.4730
  325SOL     OW10777   3.019   0.711   2.028 -0.3915  0.1061 -0.5756
  325SOL    HW110778   3.102   0.753   1.991  0.6477 -2.6707 -1.5252
  325SOL    HW210779   2.963   0.675   1.954 -1.0060 -0.5928  0.2140
  326SOL     OW10780   0.988   5.081   1.202 -0.3417  0.1304  0.4120
  326SOL    HW110781   1.011   4.985   1.218 -0.6000  0.1012  0.6158
  326SOL    HW210782   0.945   5.119   1.285 -0.8456  0.2377  0.1021
  327SOL     OW10783   1.894  -0.134   0.548 -0.3952 -0.3983 -0.4481
  327SOL    HW110784   1.920  -0.053   0.601 -0.4469 -0.2316 -0.6812
  327SOL    HW210785   1.795  -0.145   0.550 -0.3482 -0.8010  0.0922
  328SOL     OW10786   3.935   0.684   0.686 -0.7072 -0.5138  0.3019
  328SOL    HW110787   3.946   0.608   0.750 -0.1009 -0.7867 -0.1204
  328SOL    HW210788   3.958   0.653   0.594 -2.7379 -0.4388 -0.2426
  329SOL     OW10789   2.312   5.997   1.675 -1.1152 -0.4540 -0.1729
  329SOL    HW110790   2.313   6.018   1.772 -0.8699  1.9268 -0.6574
  329SOL    HW210791   2.229   6.035   1.633  0.1976  1.1860 -1.4016
  330SOL     OW10792   4.863   2.709   2.376  0.1025 -0.2991  0.7047
  330SOL    HW110793   4.802   2.745   2.306 -0.2663  0.3842  1.3690
  330SOL    HW210794   4.936   2.656   2.333 -1.4570 -1.8827 -0.0364
  334SOL     OW10795   2.666   3.921   1.509 -0.1507  0.5785 -0.0598
  334SOL    HW110796   2.605   3.847   1.481 -0.1901  0.3046  0.7101
  334SOL    HW210797   2.761   3.895   1.489 -0.1909  0.4589 -0.0966
  335SOL     OW10798   3.136   5.735   1.734 -0.7478  0.1201 -0.1100
  335SOL    HW110799   3.134   5.830   1.704 -0.8459 -0.0772 -0.7500
  335SOL    HW210800   3.176   5.729   1.825  1.2532  0.5504 -0.9325
  336SOL     OW10801   5.186   2.951   1.850 -0.4653  0.0179 -0.5078
  336SOL    HW110802   5.220   2.857   1.855 -0.7307 -0.0425  0.1827
  336SOL    HW210803   5.260   3.015   1.872 -0.2403 -0.0187 -1.1434
  338SOL     OW10804   3.162   8.883   1.247 -0.0350  0.0108  0.2204
  338SOL    HW110805   3.215   8.831   1.181  0.8772  0.5811  0.5000
  338SOL    HW210806   3.200   8.869   1.339 -0.9461 -0.3274  0.5631
  339SOL     OW10807   2.393   7.866   1.526  0.5190 -0.0703  0.4425
  339SOL    HW110808   2.371   7.773   1.497  3.2187 -0.5347 -0.3043
  339SOL    HW210809   2.377   7.930   1.451  1.9993 -0.4524 -0.2117
  340SOL     OW10810   1.911   8.054   1.249  0.7315  0.4227 -0.0200
  340SOL    HW110811   1.937   7.994   1.173 -1.0059 -1.1384  0.6069
  340SOL    HW210812   1.981   8.048   1.321  1.3203  0.3215 -0.5900
  341SOL     OW10813   2.369   3.451   0.965 -0.3359  0.6102  0.0022
  341SOL    HW110814   2.445   3.397   0.931 -0.4563  1.3526 -1.4746
  341SOL    HW210815   2.395   3.496   1.050  0.7569  0.6159 -0.3347
  342SOL     OW10816   1.669   6.488   1.788  0.0667  0.8407 -0.0668
  342SOL    HW110817   1.740   6.491   1.717 -0.4692  1.1357 -0.5961
  342SOL    HW210818   1.672   6.400   1.835  0.5567  0.7186 -0.3225
  343SOL     OW10819   2.006   1.099   2.088 -0.2615  0.6906 -0.0952
  343SOL    HW110820   1.967   1.184   2.123 -0.4952  0.3523  0.4793
  343SOL    HW210821   2.001   1.099   1.989 -2.0768  0.4991 -0.0306
  344SOL     OW10822   3.647   1.566   2.108  0.8721  1.0244  0.2334
  344SOL    HW110823   3.714   1.494   2.126 -2.0440 -1.9921 -0.6173
  344SOL    HW210824   3.639   1.581   2.009  0.0488  1.1499  0.3161
  345SOL     OW10825   9.654   3.664   0.899  0.0423  0.1357 -0.0971
  345SOL    HW110826   9.641   3.579   0.951  0.6154  0.6647  0.9410
  345SOL    HW210827   9.728   3.651   0.833  1.9357  0.5912  1.8555
  346SOL     OW10828  10.212   4.839   1.571 -0.6417  0.2430  0.2326
  346SOL    HW110829  10.267   4.916   1.539 -1.0911  1.1269  1.5543
  346SOL    HW210830  10.238   4.757   1.521  0.9673  0.9236 -0.0835
  347SOL     OW10831   3.540   2.280   2.301 -0.1882  0.0741  0.5055
  347SOL    HW110832   3.471   2.223   2.256  0.1655 -0.5902  0.7888
  347SOL    HW210833   3.496   2.334   2.373 -0.3418 -0.7039  1.0081
  348SOL     OW10834   4.040   7.971   1.067  0.5437 -0.4988  0.6536
  348SOL    HW110835   4.101   8.048   1.088  0.5117 -0.3180  0.0867
  348SOL    HW210836   4.076   7.888   1.109  2.4197 -0.8578 -1.6120
  350SOL     OW10837   1.702   5.345   1.837  0.4929  0.3482 -0.2724
  350SOL    HW110838   1.758   5.428   1.839 -1.0324  1.3550  3.6842
  350SOL    HW210839   1.747   5.274   1.891  0.0084 -0.2486 -0.6462
  351SOL     OW10840   4.328   4.965   1.699  0.1233  0.3205  0.4258
  351SOL    HW110841   4.384   5.023   1.640 -0.4773  0.8776  0.4023
  351SOL    HW210842   4.232   4.988   1.686 -0.1671 -1.0862 -0.0350
  352SOL     OW10843   9.935   5.931   1.282 -0.2804 -0.1405 -0.0527
  352SOL    HW110844   9.929   5.900   1.187  0.7771  1.0182 -0.5051
  352SOL    HW210845  10.008   5.881   1.328  1.4940  1.6953 -0.8114
  354SOL     OW10846   0.725   3.146   2.066  0.0737 -0.8944 -0.4650
  354SOL    HW110847   0.786   3.075   2.102 -0.0440 -1.0015 -0.4755
  354SOL    HW210848   0.671   3.108   1.991 -0.3869 -0.9477 -0.1062
  355SOL     OW10849   3.111   7.950   1.644  0.6389 -0.0758  0.5353
  355SOL    HW110850   3.036   7.885   1.655  0.8153 -0.2319  0.8076
  355SOL    HW210851   3.132   7.993   1.732  3.1614 -2.5571  1.2051
  356SOL     OW10852  10.064   5.867   0.620  0.0692 -0.4996 -0.3043
  356SOL    HW110853  10.130   5.861   0.695 -0.4717  1.3104  0.3370
  356SOL    HW210854  10.081   5.950   0.567 -2.0015  0.3021  0.2134
  357SOL     OW10855   2.535   5.929   1.535  0.1027 -0.5118 -0.1728
  357SOL    HW110856   2.455   5.940   1.594  0.1912  0.9474 -0.2961
  357SOL    HW210857   2.562   5.833   1.533 -0.9146 -0.8343  0.8244
  358SOL     OW10858   3.054   8.443   0.483 -0.4053 -0.5809  0.3961
  358SOL    HW110859   3.119   8.466   0.556  1.7838 -0.9587 -1.3877
  358SOL    HW210860   2.967   8.489   0.500  0.5413  0.5027  2.4582
  359SOL     OW10861   2.909   4.489   1.396 -0.1279  0.3205  0.1765
  359SOL    HW110862   2.870   4.412   1.448  0.3918 -0.2109 -0.2095
  359SOL    HW210863   2.960   4.453   1.317  0.8571  1.0253  0.4895
  361SOL     OW10864   0.571   3.626   1.523  0.2286  0.2405 -0.3630
  361SOL    HW110865   0.618   3.655   1.607 -1.2179  0.1402  0.4850
  361SOL    HW210866   0.514   3.547   1.542 -1.8525  1.5734 -0.9330
  362SOL     OW10867   1.539   6.550   1.507 -0.1715  0.2240  0.7266
  362SOL    HW110868   1.606   6.594   1.448 -0.1829  0.4304  0.8666
  362SOL    HW210869   1.553   6.580   1.602 -1.4147  1.4554  0.5545
  363SOL     OW10870   1.677   8.948   0.717  0.0931  0.3145 -0.1510
  363SOL    HW110871   1.634   8.973   0.630 -1.1811  0.7410  0.5902
  363SOL    HW210872   1.668   9.023   0.782 -2.1785 -1.3413  1.5103
  364SOL     OW10873   2.656   4.768   1.051  0.4783  0.1099 -0.4666
  364SOL    HW110874   2.707   4.813   1.124  0.9919 -1.8062  0.3938
  364SOL    HW210875   2.571   4.819   1.033 -0.2402 -0.0246  2.2889
  365SOL     OW10876  10.033   5.102   1.119  0.3869  0.0176 -0.0020
  365SOL    HW110877  10.058   5.125   1.212  0.5961  1.4062 -0.3918
  365SOL    HW210878  10.018   5.186   1.066  1.6999 -0.7123 -1.6044
  368SOL     OW10879   4.862   1.964   1.957 -0.0641  0.0326  0.1125
  368SOL    HW110880   4.830   2.056   1.978 -0.1108 -0.0640  0.4852
  368SOL    HW210881   4.926   1.934   2.028 -1.2806 -0.8334  0.8804
  370SOL     OW10882   2.245   7.720   0.553 -0.3454 -0.5241  0.1210
  370SOL    HW110883   2.242   7.673   0.641  0.6609 -0.1783  0.3559
  370SOL    HW210884   2.338   7.715   0.517 -0.6358 -0.2082 -0.6755
  371SOL     OW10885   2.473   1.586   1.440  0.8212  0.0739 -0.5879
  371SOL    HW110886   2.517   1.587   1.350 -1.6374  0.4477 -1.8147
  371SOL    HW210887   2.396   1.650   1.440  0.8395  0.1392  1.8249
  372SOL     OW10888   9.804   4.200   1.239  0.0415  0.0290  0.2546
  372SOL    HW110889   9.714   4.235   1.211  0.6654  1.2797 -0.2025
  372SOL    HW210890   9.791   4.124   1.304 -1.3427  0.0185 -0.0183
  373SOL     OW10891   2.504   5.130   1.815  0.1489 -1.0025 -0.4383
  373SOL    HW110892   2.442   5.102   1.742  1.2392 -1.0758 -1.3484
  373SOL    HW210893   2.598   5.111   1.789  0.6443  0.0321  0.5050
  374SOL     OW10894   4.972   3.701   0.974 -0.2515  0.3290  0.1791
  374SOL    HW110895   5.018   3.639   0.910 -1.3041 -0.4242  0.1321
  374SOL    HW210896   4.936   3.649   1.051 -1.1612  0.8705  0.1341
  375SOL     OW10897   2.566   9.550   1.433 -0.1950  0.6893  0.4554
  375SOL    HW110898   2.568   9.502   1.346 -1.1202  1.1514  0.1683
  375SOL    HW210899   2.638   9.619   1.436  1.1303 -0.6894  0.8629
  379SOL     OW10900   4.118   8.859   0.974 -0.0040  0.8379 -0.2920
  379SOL    HW110901   4.203   8.833   1.018 -1.0305  0.8348  1.7677
  379SOL    HW210902   4.098   8.955   0.994 -1.4411  0.3197  0.9259
  380SOL     OW10903   2.952   0.515   1.508 -0.0829 -0.2911 -0.6299
  380SOL    HW110904   3.017   0.553   1.442 -0.3537 -0.5381 -1.0425
  380SOL    HW210905   2.883   0.584   1.531  0.8644  0.3003  0.5476
  381SOL     OW10906   5.366   3.324   2.108 -0.0061  0.0181 -0.3583
  381SOL    HW110907   5.309   3.377   2.171  0.4027  0.6480 -0.5201
  381SOL    HW210908   5.377   3.231   2.145 -0.3415  0.1764  0.1535
  382SOL     OW10909   2.985   5.878   1.361 -0.1928  0.1273  0.1627
  382SOL    HW110910   2.933   5.962   1.344 -0.6607 -0.0909  0.5092
  382SOL    HW210911   3.071   5.900   1.408  0.3120  0.5543 -0.9372
  384SOL     OW10912   2.768   1.405   0.739 -0.8732 -0.0897 -0.3333
  384SOL    HW110913   2.669   1.393   0.742 -0.7493 -1.0393  0.1255
  384SOL    HW210914   2.812   1.316   0.731  0.0292  0.1432  1.8393
  385SOL     OW10915   1.402   6.234   1.922  0.3141  0.3491 -0.2333
  385SOL    HW110916   1.397   6.170   1.846 -2.0726  0.0460  0.1477
  385SOL    HW210917   1.498   6.251   1.945  0.9915 -2.3067 -0.9772
  386SOL     OW10918   3.035   6.134   1.925  0.1422  0.0820 -0.1510
  386SOL    HW110919   3.006   6.228   1.905 -0.6395  0.0479  0.7725
  386SOL    HW210920   3.091   6.133   2.008 -0.5646 -0.3739  0.3277
  387SOL     OW10921   2.996   4.957   2.182 -0.3106 -0.0602  0.2826
  387SOL    HW110922   2.988   4.993   2.275 -2.1661  0.5353 -0.0626
  387SOL    HW210923   2.937   5.011   2.121  0.3033 -0.9115 -1.0968
  388SOL     OW10924   2.107  -0.195   1.586  0.1175  0.1520  0.2364
  388SOL    HW110925   2.153  -0.228   1.503 -0.2798 -0.8908  0.4193
  388SOL    HW210926   2.015  -0.165   1.563  0.6578  1.6790 -0.0240
  390SOL     OW10927   2.187   9.461   0.823  0.9004  0.3829 -0.2450
  390SOL    HW110928   2.202   9.365   0.802  1.0532  0.7160 -1.7558
  390SOL    HW210929   2.171   9.473   0.921  3.5301 -0.8378  0.3626
  391SOL     OW10930   3.063   6.439   1.142 -0.1665  0.4328  0.3306
  391SOL    HW110931   3.120   6.469   1.065  0.7634 -1.1710  0.3576
  391SOL    HW210932   2.995   6.508   1.163 -0.4322  0.8763 -1.9523
  393SOL     OW10933   4.471   1.208   1.937  0.5147  0.3353 -0.1537
  393SOL    HW110934   4.529   1.165   1.867  0.6859 -0.0826  0.2423
  393SOL    HW210935   4.464   1.306   1.919 -1.3204 -0.1190 -2.0983
  394SOL     OW10936  10.257   5.381   1.508 -0.2058 -0.0317  0.0185
  394SOL    HW110937  10.353   5.367   1.535 -0.8422 -0.6848  2.0501
  394SOL    HW210938  10.217   5.454   1.564 -1.1759 -0.4452 -0.1292
  395SOL     OW10939   4.087   1.673   0.446  0.9771 -0.4927  0.5453
  395SOL    HW110940   4.183   1.688   0.467  1.5347 -0.7410 -1.6462
  395SOL    HW210941   4.066   1.714   0.357 -0.9064 -0.5609  0.9368
  396SOL     OW10942   4.328   8.874   0.468 -0.5630 -0.3001  0.0443
  396SOL    HW110943   4.424   8.849   0.481 -0.4348  0.0320 -0.2614
  396SOL    HW210944   4.277   8.857   0.552  0.0624  0.9220  0.6756
  397SOL     OW10945   3.448   0.758   0.614 -0.3380  0.3672  0.3612
  397SOL    HW110946   3.530   0.773   0.668  0.2558 -2.4005  0.3132
  397SOL    HW210947   3.466   0.688   0.544 -2.0426  1.4765 -1.2452
  399SOL     OW10948   3.916   0.548   1.527 -0.3695 -0.4661 -0.7785
  399SOL    HW110949   4.009   0.540   1.562 -0.4992  0.3079 -0.2241
  399SOL    HW210950   3.917   0.555   1.428  0.0675 -1.8282 -0.8873
  400SOL     OW10951   9.826   4.855   0.947  0.1525  0.4487  0.1127
  400SOL    HW110952   9.807   4.884   1.041  1.8775  0.1341  0.5856
  400SOL    HW210953   9.920   4.821   0.942  0.1642  0.7421 -1.8024
  401SOL     OW10954   1.380   5.941   0.663 -0.1333  0.2802  0.0195
  401SOL    HW110955   1.352   5.868   0.725  0.4122  0.4909  0.5195
  401SOL    HW210956   1.431   6.010   0.714  3.1077 -1.0756 -1.2071
  402SOL     OW10957   1.857   3.825   1.468  0.3464 -0.2986 -0.1041
  402SOL    HW110958   1.765   3.786   1.474  0.8400 -1.2568  1.8468
  402SOL    HW210959   1.925   3.752   1.477  1.2857  0.6364  0.5740
  403SOL     OW10960   2.025   6.982   1.699 -0.1823  0.2408 -0.0014
  403SOL    HW110961   2.013   7.061   1.639 -0.7958 -0.3645 -0.6824
  403SOL    HW210962   1.969   6.993   1.781 -0.9793  0.0755 -0.5281
  404SOL     OW10963   1.514   6.797   0.787 -0.1895 -0.1290  0.2496
  404SOL    HW110964   1.566   6.867   0.837  0.4103 -0.1859 -0.2832
  404SOL    HW210965   1.567   6.712   0.783 -0.5277 -0.3347  0.1140
  406SOL     OW10966   1.401   2.811   2.262 -0.6352 -0.8320 -0.1814
  406SOL    HW110967   1.382   2.723   2.219 -0.6198 -0.4830 -0.8987
  406SOL    HW210968   1.329   2.876   2.237 -0.7242 -0.6727  0.4608
  410SOL     OW10969   1.117   2.521   0.896  0.2192 -0.0110  0.2741
  410SOL    HW110970   1.017   2.523   0.896  0.2061  0.7346  2.3476
  410SOL    HW210971   1.150   2.530   0.802 -1.6501 -0.2987 -0.4433
  411SOL     OW10972   2.991   9.667   1.400  0.0612 -0.1132  0.4307
  411SOL    HW110973   3.052   9.737   1.436 -0.2991  0.4625 -0.0769
  411SOL    HW210974   2.906   9.665   1.454  0.6146 -1.0770  1.2875
  412SOL     OW10975   1.892   4.265   0.834  0.1385  0.6548 -0.0013
  412SOL    HW110976   1.833   4.213   0.895 -0.6541  0.6178 -0.7885
  412SOL    HW210977   1.850   4.354   0.815  0.7228  0.9479  0.0711
  413SOL     OW10978   2.422   4.640   0.545  0.5917  0.1466 -0.2694
  413SOL    HW110979   2.461   4.732   0.553  0.7090 -0.0583  1.7646
  413SOL    HW210980   2.468   4.579   0.609 -2.4335 -0.3197  1.5185
  414SOL     OW10981   3.679   8.255   1.055 -0.1364 -0.1293  0.4344
  414SOL    HW110982   3.758   8.227   1.110  0.0975  2.5623  1.5639
  414SOL    HW210983   3.620   8.314   1.110 -1.0170  0.8744 -1.5331
  415SOL     OW10984   1.945   6.235   0.788 -0.5981  0.2468 -0.2323
  415SOL    HW110985   1.874   6.228   0.858  0.3789 -1.1302  0.6384
  415SOL    HW210986   1.956   6.331   0.761 -1.9411  0.6144  0.4878
  416SOL     OW10987   0.638   3.054   0.705 -0.0197  0.1164  0.2012
  416SOL    HW110988   0.722   3.080   0.658 -0.0059  0.2016  0.2730
  416SOL    HW210989   0.568   3.031   0.637  0.0149  0.1936  0.1395
  417SOL     OW10990   3.520   9.585   0.510 -0.2090 -0.3448  0.6428
  417SOL    HW110991   3.525   9.540   0.599  1.1776  0.0522  0.7759
  417SOL    HW210992   3.488   9.678   0.521  0.8226 -0.0050  0.8464
  418SOL     OW10993   3.292   1.065   2.378  0.1627  0.2394  0.5978
  418SOL    HW110994   3.357   1.023   2.314  0.4507 -0.2770  1.2229
  418SOL    HW210995   3.209   1.089   2.329  0.5313  0.1994 -0.0560
  419SOL     OW10996   3.244   0.843   1.901  0.5361 -0.0703  0.6667
  419SOL    HW110997   3.326   0.896   1.883  0.6051 -0.4442 -0.1731
  419SOL    HW210998   3.264   0.745   1.891  0.0472 -0.1767  0.6747
  420SOL     OW10999   3.216   5.006   0.934 -0.0562 -0.5192 -0.2779
  420SOL    HW111000   3.169   5.012   0.846 -1.2335  3.4614  0.5137
  420SOL    HW211001   3.300   5.060   0.932 -0.8798  0.8896  1.4723
  422SOL     OW11002   3.501   3.517   1.153  0.7684  0.2712  0.1888
  422SOL    HW111003   3.467   3.559   1.237 -1.3502 -0.3072 -0.3329
  422SOL    HW211004   3.542   3.428   1.175 -0.0358 -0.0086  0.6103
  423SOL     OW11005   3.248   7.094   2.233 -0.3260  0.2677  0.7125
  423SOL    HW111006   3.190   7.127   2.159  0.5770  1.8377  0.6725
  423SOL    HW211007   3.272   6.999   2.217  0.1731  0.6971 -1.2258
  424SOL     OW11008   5.579   2.878   0.335 -0.7562  0.0239 -0.7248
  424SOL    HW111009   5.485   2.878   0.301 -0.6139 -2.0095 -1.1446
  424SOL    HW211010   5.578   2.865   0.434 -0.8554 -1.5956 -0.9343
  425SOL     OW11011   1.010   2.870   0.796 -0.4092 -0.6279 -0.0511
  425SOL    HW111012   0.942   2.797   0.798  0.2083 -1.2105 -0.3375
  425SOL    HW211013   1.101   2.832   0.809  0.0300 -0.0582 -1.3367
  429SOL     OW11014   9.525   4.694   1.719 -0.1272  0.5305 -0.0865
  429SOL    HW111015   9.486   4.759   1.654 -1.1501  0.2872  0.2752
  429SOL    HW211016   9.532   4.604   1.676 -2.6145 -0.0974  0.7148
  431SOL     OW11017   1.128   2.923   2.142 -0.1289  0.2113 -0.1094
  431SOL    HW111018   1.182   3.008   2.138 -1.7979  1.2812 -0.7221
  431SOL    HW211019   1.150   2.866   2.062 -0.5081  1.0134 -0.7945
  432SOL     OW11020   3.561   9.056   1.183  0.1421  0.3221  0.4348
  432SOL    HW111021   3.518   8.974   1.144  1.9758 -0.3072 -0.3504
  432SOL    HW211022   3.559   9.050   1.283 -1.6602  0.3735  0.4235
  433SOL     OW11023   3.911   9.705   1.065  0.3164 -0.6316  0.3266
  433SOL    HW111024   4.008   9.682   1.066  0.0892 -1.5980  1.0622
  433SOL    HW211025   3.890   9.761   1.145 -0.0617 -1.8950  1.1358
  434SOL     OW11026   3.504   9.098   1.443 -0.0853  0.2258 -0.6317
  434SOL    HW111027   3.493   9.002   1.467 -1.2325  0.5432  0.1567
  434SOL    HW211028   3.414   9.139   1.427  0.4413  0.9609 -1.8071
  435SOL     OW11029   4.703   3.216   0.574 -0.2322  0.1694 -0.1639
  435SOL    HW111030   4.628   3.264   0.528 -1.3247 -0.1137  1.2848
  435SOL    HW211031   4.755   3.281   0.630 -0.8393 -0.0596  0.6755
  436SOL     OW11032   2.506   3.204   0.352 -0.4317 -0.1543  0.2293
  436SOL    HW111033   2.440   3.279   0.353 -0.8092 -0.4850 -0.0212
  436SOL    HW211034   2.520   3.173   0.257 -0.0078 -0.1596  0.2939
  438SOL     OW11035   0.470   5.519   1.716  0.3447 -0.4826 -0.0677
  438SOL    HW111036   0.557   5.536   1.762  0.3829 -0.5158 -0.1276
  438SOL    HW211037   0.397   5.512   1.784  0.2655  0.3125 -0.0699
  439SOL     OW11038   4.713   1.289   1.036  0.0042 -0.0214  0.1356
  439SOL    HW111039   4.727   1.373   1.090  0.8925  0.1795 -0.4139
  439SOL    HW211040   4.614   1.275   1.023 -0.1221  1.7195 -0.9773
  440SOL     OW11041   2.479   4.779   1.447 -0.2907  0.2547 -0.1427
  440SOL    HW111042   2.482   4.755   1.350  1.2817  0.5532 -0.1782
  440SOL    HW211043   2.551   4.729   1.496  1.1106  2.6236  0.2802
  441SOL     OW11044   3.614   9.477   1.311  0.3087 -0.0782 -0.3314
  441SOL    HW111045   3.617   9.424   1.226  1.8645 -0.9256  0.2469
  441SOL    HW211046   3.655   9.424   1.385 -0.7537  0.7891  0.8920
  442SOL     OW11047   3.500   2.500   1.693 -0.6160 -0.3266 -0.0252
  442SOL    HW111048   3.518   2.565   1.619  0.0557 -0.4473  0.0309
  442SOL    HW211049   3.545   2.531   1.776  0.0484 -1.0741 -0.1038
  443SOL     OW11050   4.198   3.796   0.591 -0.3954 -0.0462  0.3222
  443SOL    HW111051   4.150   3.864   0.535 -0.1492  0.4631  0.7154
  443SOL    HW211052   4.254   3.738   0.533 -0.2633  0.3778  0.0206
  444SOL     OW11053   2.502   7.125   0.829  0.3363 -0.1140  0.0640
  444SOL    HW111054   2.503   7.170   0.740  1.4831 -2.2503 -1.0298
  444SOL    HW211055   2.595   7.101   0.856 -0.3051 -2.5441  0.2334
  446SOL     OW11056   2.600   1.108   1.011 -0.0822 -0.1930 -0.4169
  446SOL    HW111057   2.673   1.049   1.046 -0.0790  0.2429  0.3411
  446SOL    HW211058   2.622   1.137   0.918  0.7228 -0.0582 -0.1948
  447SOL     OW11059   1.058   5.237   0.588  0.2078 -0.3728 -0.1849
  447SOL    HW111060   1.119   5.314   0.568 -1.3414  0.7662 -0.6450
  447SOL    HW211061   1.047   5.181   0.507 -2.3973  1.6375 -1.3255
  448SOL     OW11062   2.820   2.812   0.810 -0.2175 -0.0416 -0.2393
  448SOL    HW111063   2.746   2.790   0.746 -2.8818  1.6229  2.1158
  448SOL    HW211064   2.844   2.909   0.801  0.5103 -0.1815  0.1764
  449SOL     OW11065   1.447   5.470   1.761 -0.1423  0.4492  0.3901
  449SOL    HW111066   1.469   5.536   1.832  1.8359  0.5048 -0.2579
  449SOL    HW211067   1.500   5.387   1.774  0.6298  0.6525 -1.3135
  450SOL     OW11068   2.378   8.940   1.222  0.3430 -0.0911  0.0994
  450SOL    HW111069   2.371   9.035   1.251 -0.8357 -0.2859  0.4852
  450SOL    HW211070   2.293   8.913   1.176  1.2777 -0.4798 -1.4649
  451SOL     OW11071   3.768   4.215   2.097 -0.5909  0.2371  0.1091
  451SOL    HW111072   3.861   4.225   2.133 -0.5745 -1.2162  0.4942
  451SOL    HW211073   3.731   4.126   2.124 -2.7951  1.5243  1.5014
  452SOL     OW11074   2.678   2.527   1.861  0.0663  0.3082 -0.3338
  452SOL    HW111075   2.622   2.466   1.917  1.0446  2.0902  2.7400
  452SOL    HW211076   2.747   2.474   1.813  0.3404 -1.1196  1.5635
  454SOL     OW11077   2.378   4.021   1.907 -0.3577 -0.0143  0.7244
  454SOL    HW111078   2.411   4.043   1.999 -1.6102  2.0772  0.7142
  454SOL    HW211079   2.280   4.040   1.902 -0.5359 -1.2879 -0.6939
  456SOL     OW11080   3.686   1.817   0.969  0.0801 -0.4599  0.1310
  456SOL    HW111081   3.736   1.859   0.893 -0.8706 -0.9338 -0.7848
  456SOL    HW211082   3.749   1.795   1.043  0.7364  1.6224  0.1996
  457SOL     OW11083   3.630   3.666   0.489  0.7098 -0.6210  0.1121
  457SOL    HW111084   3.611   3.636   0.396  2.5208 -1.7794  0.0821
  457SOL    HW211085   3.707   3.730   0.489 -0.4355  0.7607  0.6276
  458SOL     OW11086   0.751   5.819   1.748  0.0702  0.3857 -0.0467
  458SOL    HW111087   0.731   5.722   1.764 -0.9476  0.7534  0.9415
  458SOL    HW211088   0.850   5.834   1.755  0.0364 -0.2158  1.7885
  459SOL     OW11089   1.037   5.021   1.534  0.7368  0.0042 -0.4014
  459SOL    HW111090   0.944   5.012   1.497  1.1493 -2.4367 -0.9502
  459SOL    HW211091   1.033   5.062   1.625 -0.8380  0.3550 -0.6185
  460SOL     OW11092   2.561   3.410   1.771  1.1886  0.0143  0.3701
  460SOL    HW111093   2.550   3.487   1.833 -0.4405  1.0730 -1.1848
  460SOL    HW211094   2.492   3.415   1.699  3.6257 -0.6551 -2.0848
  461SOL     OW11095   1.124   6.313   1.850 -0.2797  0.4476  0.2065
  461SOL    HW111096   1.118   6.371   1.768 -0.9041  0.0579 -0.0281
  461SOL    HW211097   1.219   6.282   1.862 -0.4713 -0.7968 -1.2941
  462SOL     OW11098  10.328   5.140   0.474  0.5150  0.3908  0.0417
  462SOL    HW111099  10.266   5.085   0.531 -0.7216  1.3885 -0.3165
  462SOL    HW211100  10.337   5.096   0.384 -0.0887  0.5088 -0.0820
  463SOL     OW11101   2.148   9.282   1.347 -0.5945  0.0348 -0.2689
  463SOL    HW111102   2.230   9.271   1.291 -0.7077 -0.0162 -0.4247
  463SOL    HW211103   2.163   9.355   1.414 -0.2999 -0.2095 -0.0673
  464SOL     OW11104   3.188   0.744   1.586 -0.3960 -0.3272  0.4174
  464SOL    HW111105   3.169   0.658   1.633 -3.1562  0.7375  1.4068
  464SOL    HW211106   3.122   0.813   1.616  1.0648  1.8403 -1.1762
  465SOL     OW11107   2.807   4.376   2.242 -0.3610 -0.2538 -0.2404
  465SOL    HW111108   2.856   4.394   2.327  0.0165  0.0265 -0.5162
  465SOL    HW211109   2.846   4.297   2.195 -0.8712 -0.7012  0.0765
  466SOL     OW11110   4.697   1.345   0.390 -0.2854 -0.1520  0.6531
  466SOL    HW111111   4.766   1.353   0.318 -0.1034  0.5491  0.8978
  466SOL    HW211112   4.739   1.365   0.478 -0.1228 -2.6443  1.1768
  468SOL     OW11113   3.502   2.123   0.487  0.2449 -0.6313 -0.5810
  468SOL    HW111114   3.451   2.103   0.403  0.9440 -0.5670 -1.0201
  468SOL    HW211115   3.511   2.222   0.498 -1.1909 -0.5924  0.3816
  470SOL     OW11116   3.629   0.044   2.120 -0.5381  0.0138 -0.0490
  470SOL    HW111117   3.537   0.025   2.155 -0.5347  0.0569 -0.0159
  470SOL    HW211118   3.622   0.097   2.036 -0.5531 -0.3448 -0.2736
  471SOL     OW11119   0.509   5.939   0.705  0.5470 -0.7438 -0.5011
  471SOL    HW111120   0.600   5.965   0.735  0.6195  0.0556 -1.4094
  471SOL    HW211121   0.459   6.020   0.675 -0.3334 -1.2272 -0.3567
  472SOL     OW11122   1.591   6.796   1.145  0.2807  0.5672 -0.2549
  472SOL    HW111123   1.503   6.818   1.104 -0.4131  1.0449  1.4662
  472SOL    HW211124   1.598   6.838   1.235  1.7081 -0.6294  0.2210
  474SOL     OW11125   1.693   2.623   1.264  0.5435  0.5633 -0.2180
  474SOL    HW111126   1.656   2.705   1.223 -0.5578 -0.4528 -1.2834
  474SOL    HW211127   1.619   2.559   1.284  1.7348 -1.9450 -3.3503
  475SOL     OW11128   3.410   8.346   1.171  0.1008 -0.3182 -0.1845
  475SOL    HW111129   3.422   8.265   1.114 -1.9997  0.5945 -2.0234
  475SOL    HW211130   3.320   8.343   1.215  0.5914  0.3356  0.8900
  476SOL     OW11131   0.449   5.589   1.206 -0.1186 -0.0582 -0.0673
  476SOL    HW111132   0.373   5.525   1.208  0.1684 -0.3939  0.1273
  476SOL    HW211133   0.503   5.581   1.290 -1.1905  1.7937  0.8292
  477SOL     OW11134   1.457   5.673   1.937 -0.3260  0.0962  0.2767
  477SOL    HW111135   1.550   5.666   1.973 -0.4546 -0.6528  0.4740
  477SOL    HW211136   1.392   5.670   2.013 -0.4520  2.3133  0.2805
  478SOL     OW11137   1.129   5.813   2.301  0.7232  0.2004  0.3301
  478SOL    HW111138   1.058   5.816   2.231  1.5901  3.6788 -0.4977
  478SOL    HW211139   1.088   5.792   2.390 -0.9213 -0.5449 -0.5793
  479SOL     OW11140   2.314   3.945   0.900 -0.7185  0.5916 -0.1704
  479SOL    HW111141   2.395   4.001   0.917  0.9506 -1.3786 -1.3598
  479SOL    HW211142   2.250   3.997   0.844 -0.2404  2.1270  0.6580
  480SOL     OW11143   2.717   7.663   1.238 -0.4241  0.7884  0.2432
  480SOL    HW111144   2.639   7.627   1.186 -0.0948 -0.7812  0.8150
  480SOL    HW211145   2.683   7.714   1.317 -0.8664 -0.5337  0.9097
  481SOL     OW11146   2.857   3.783   1.329  0.4059  0.5610  0.0950
  481SOL    HW111147   2.951   3.816   1.325  0.5095  0.2013 -0.5904
  481SOL    HW211148   2.857   3.685   1.349  0.1210  0.8608  1.5937
  483SOL     OW11149   1.882   4.234   2.099  0.4603 -0.2884  0.1227
  483SOL    HW111150   1.853   4.190   2.014  2.5928 -1.6560  0.0703
  483SOL    HW211151   1.930   4.167   2.156 -1.7544  0.3308  2.8482
  484SOL     OW11152   3.967   3.369   0.931  0.1021  0.2232 -0.6270
  484SOL    HW111153   4.036   3.329   0.992 -0.9563  0.1461  0.5267
  484SOL    HW211154   4.007   3.447   0.883  1.8020 -1.3942 -1.9365
  485SOL     OW11155   9.753   3.910   0.693 -0.1940  0.2172 -0.2810
  485SOL    HW111156   9.827   3.846   0.675  0.8972  0.8823  1.6322
  485SOL    HW211157   9.682   3.865   0.746 -0.1866  0.1496 -0.3286
  486SOL     OW11158   2.119   8.648   0.997  0.0939 -0.1934  0.3562
  486SOL    HW111159   2.124   8.579   0.924  1.5298  1.0633 -0.7620
  486SOL    HW211160   2.027   8.687   0.999 -0.7077 -2.0691  0.9392
  487SOL     OW11161   9.784   5.147   0.934  0.1424  0.0699 -0.0519
  487SOL    HW111162   9.808   5.050   0.937 -0.5629 -0.1515 -1.2454
  487SOL    HW211163   9.862   5.201   0.966  0.8721 -0.8377 -0.2582
  488SOL     OW11164   2.457   0.062   1.979  0.4003 -0.6162 -0.2666
  488SOL    HW111165   2.426   0.046   2.073 -1.0729 -1.8002 -0.9394
  488SOL    HW211166   2.506   0.149   1.974 -0.9989  0.2577  1.2509
  489SOL     OW11167   4.863   2.518   1.754 -0.2838 -0.7063 -0.5436
  489SOL    HW111168   4.819   2.435   1.720 -1.4494 -0.3093 -0.0494
  489SOL    HW211169   4.872   2.584   1.679 -1.4274 -0.4283 -0.4513
  490SOL     OW11170   9.592   5.495   0.400 -0.3569  0.8858 -0.4037
  490SOL    HW111171   9.602   5.529   0.307 -1.2668  1.4290 -0.3110
  490SOL    HW211172   9.587   5.572   0.464 -0.3221  0.5350  0.0305
  492SOL     OW11173   3.890   3.944   1.542  0.2139 -0.2653  0.1704
  492SOL    HW111174   3.957   3.960   1.613  1.2257  0.2283 -0.8742
  492SOL    HW211175   3.830   4.024   1.534 -0.3339 -0.5967  0.9167
  493SOL     OW11176   1.522   1.889   0.946  0.1012  0.4277 -0.1655
  493SOL    HW111177   1.618   1.878   0.919  0.8531  2.6897  1.4228
  493SOL    HW211178   1.502   1.826   1.021  0.6314  0.6511  0.1690
  494SOL     OW11179   1.893   0.888   1.690  0.2296 -0.0274 -0.4402
  494SOL    HW111180   1.949   0.859   1.612  0.4869  0.1348 -0.3193
  494SOL    HW211181   1.883   0.813   1.754  0.0746 -0.1410 -0.5980
  496SOL     OW11182   4.604   4.700   2.011 -0.6663 -0.0823  0.1068
  496SOL    HW111183   4.561   4.622   1.965  0.2592 -0.9154  0.6407
  496SOL    HW211184   4.682   4.731   1.956  0.0809 -0.7016  0.8196
  499SOL     OW11185   2.424   5.990   0.681  0.3029 -0.0531  0.3921
  499SOL    HW111186   2.501   6.030   0.631 -0.7116 -0.5060 -1.6011
  499SOL    HW211187   2.340   6.000   0.627 -0.2472 -3.5415  0.4512
  500SOL     OW11188   2.572   5.472   1.180 -0.3599 -0.1779  0.4492
  500SOL    HW111189   2.563   5.397   1.244 -3.1309 -1.2888 -1.1435
  500SOL    HW211190   2.568   5.437   1.086 -0.8209  1.8579 -0.3304
  501SOL     OW11191   3.390   3.187   2.327 -0.0897 -0.2466  0.2649
  501SOL    HW111192   3.367   3.283   2.346  0.4418  0.2657 -1.5962
  501SOL    HW211193   3.366   3.165   2.233  1.3550 -1.4681  0.1681
  502SOL     OW11194   1.966   5.119   0.446  0.0708 -0.0754  0.6651
  502SOL    HW111195   1.887   5.092   0.501 -0.2075  1.1363  0.8656
  502SOL    HW211196   1.954   5.213   0.414  0.8896 -0.2891 -0.2849
  503SOL     OW11197   1.869   6.487   1.595 -0.0285  0.2088 -0.2303
  503SOL    HW111198   1.967   6.474   1.607 -0.2891 -1.3042  0.3584
  503SOL    HW211199   1.831   6.410   1.544 -0.9970  0.5694 -0.0713
  504SOL     OW11200   2.254   1.044   0.518 -0.4541 -0.0531 -0.2413
  504SOL    HW111201   2.161   1.008   0.509 -0.5188  0.4498 -1.7583
  504SOL    HW211202   2.320   0.969   0.506 -0.5990  0.2274 -3.0458
  505SOL     OW11203   2.842   7.012   1.930  0.0963 -0.2908  0.2616
  505SOL    HW111204   2.915   6.987   1.867 -0.2314 -0.6003 -0.0030
  505SOL    HW211205   2.779   7.075   1.885  0.7075  0.7298  0.8011
  506SOL     OW11206   3.175   7.963   0.846 -0.1884 -0.1733 -0.0763
  506SOL    HW111207   3.077   7.967   0.826 -0.2070  0.1214  0.0726
  506SOL    HW211208   3.220   8.043   0.807 -0.1623  0.1987  0.7226
  508SOL     OW11209   2.179   4.454   0.554 -0.2735 -0.1795  0.5832
  508SOL    HW111210   2.265   4.493   0.522 -0.1932  0.2391  1.2795
  508SOL    HW211211   2.196   4.365   0.595 -0.1377 -0.0008  0.9166
  509SOL     OW11212   1.482   7.709   0.882  0.6463 -0.3408 -0.7232
  509SOL    HW111213   1.543   7.636   0.853 -0.5726 -1.4066 -0.6245
  509SOL    HW211214   1.407   7.671   0.935 -0.1170  0.9579 -0.8571
  512SOL     OW11215   1.011   2.829   1.609  1.3912  0.2423  0.5612
  512SOL    HW111216   0.972   2.852   1.698 -0.5475 -0.9231  0.0454
  512SOL    HW211217   0.985   2.898   1.542 -0.4794 -0.9130  0.0540
  513SOL     OW11218   1.904   5.082   1.133 -0.4333  0.2839  0.3866
  513SOL    HW111219   1.860   5.171   1.143 -0.9262  0.2401 -1.2910
  513SOL    HW211220   1.854   5.015   1.188  0.0627  1.0706  1.8246
  514SOL     OW11221   2.125   2.213   2.296 -0.3108  0.2540 -0.7786
  514SOL    HW111222   2.107   2.115   2.293  0.2719  0.1503 -0.9774
  514SOL    HW211223   2.087   2.252   2.380 -0.0279 -0.2506 -0.4131
  516SOL     OW11224   5.489   3.104   1.596 -0.4853 -0.1355 -0.2796
  516SOL    HW111225   5.578   3.139   1.624 -2.5548  4.5087  0.9189
  516SOL    HW211226   5.446   3.055   1.672 -0.3412  0.5294  0.2303
  517SOL     OW11227   5.217   2.657   0.461 -0.1674 -0.4082  0.2663
  517SOL    HW111228   5.145   2.594   0.431 -1.3027  1.3638 -0.8353
  517SOL    HW211229   5.264   2.618   0.541 -1.7827 -1.9860  0.4958
  518SOL     OW11230   1.107   6.998   0.821  0.2054 -0.1045  0.0601
  518SOL    HW111231   1.195   7.032   0.854 -0.6686  0.3378  1.9807
  518SOL    HW211232   1.092   7.030   0.728  1.0084  1.8058  0.5691
  519SOL     OW11233   3.818   2.687   2.078 -0.3215 -0.3912 -0.3164
  519SOL    HW111234   3.874   2.629   2.136  1.7288  2.6974  0.9530
  519SOL    HW211235   3.765   2.750   2.136 -0.3134  0.9053 -1.6958
  520SOL     OW11236   3.005   3.559   2.160  0.1579 -0.2038 -0.0275
  520SOL    HW111237   2.946   3.512   2.094 -1.0590 -0.2149  1.0466
  520SOL    HW211238   2.996   3.516   2.250  1.2527  0.2613  0.3194
  521SOL     OW11239   1.288   6.666   0.866  0.2577 -0.0849  0.1668
  521SOL    HW111240   1.329   6.597   0.925 -0.2418 -1.0857 -0.6266
  521SOL    HW211241   1.358   6.730   0.834  0.9655 -0.9670 -0.0866
  522SOL     OW11242   4.856   3.623   1.342 -0.0872  0.1314  0.2431
  522SOL    HW111243   4.903   3.580   1.265 -0.2921  1.6234 -0.7381
  522SOL    HW211244   4.757   3.615   1.330 -0.1167  0.1329  0.4809
  523SOL     OW11245   3.266   8.703   1.059 -0.2019  0.8912 -0.0665
  523SOL    HW111246   3.210   8.622   1.079  0.9768  0.0756 -0.0002
  523SOL    HW211247   3.362   8.678   1.064  0.1558  1.9851 -1.4506
  525SOL     OW11248   2.911   1.542   0.953  0.2222 -0.4768  0.2767
  525SOL    HW111249   2.900   1.451   0.914 -0.0434  0.2686 -1.3928
  525SOL    HW211250   2.921   1.610   0.880 -0.0581  0.9017  1.4903
  526SOL     OW11251   2.460   6.540   1.072  0.3300  0.1764 -0.3127
  526SOL    HW111252   2.386   6.495   1.022  0.5969 -0.6347  0.0304
  526SOL    HW211253   2.534   6.562   1.009  0.2798 -0.0348 -0.4457
  527SOL     OW11254   3.953   1.082   0.998  0.1397 -0.5137  0.0857
  527SOL    HW111255   4.001   1.101   1.083  2.3165  0.8876 -1.4130
  527SOL    HW211256   3.878   1.147   0.987 -0.6778 -1.2391  1.3333
  528SOL     OW11257   3.876   4.658   2.366 -0.8240 -0.6689  0.2054
  528SOL    HW111258   3.849   4.752   2.385  0.5206 -0.4283  0.9981
  528SOL    HW211259   3.975   4.653   2.358 -0.9928 -1.7350 -1.5192
  529SOL     OW11260   2.507   3.511   0.666  0.1531  0.3008  0.0434
  529SOL    HW111261   2.596   3.546   0.697 -0.1889  0.7425  0.5227
  529SOL    HW211262   2.434   3.566   0.705 -0.4039 -1.1293  1.0672
  530SOL     OW11263   2.083   0.798   1.521 -0.1207  0.4709  0.3078
  530SOL    HW111264   2.094   0.881   1.467 -1.1257 -0.6130 -1.6274
  530SOL    HW211265   2.173   0.758   1.540  0.2119  0.4841 -1.2044
  532SOL     OW11266   2.503   6.368   2.142 -0.7844 -0.9156  0.4108
  532SOL    HW111267   2.590   6.334   2.107 -0.9903 -2.0867  1.0249
  532SOL    HW211268   2.446   6.397   2.065  0.1871 -0.0164  0.0108
  533SOL     OW11269   2.236   2.555   2.326 -0.1268 -0.4522 -0.6580
  533SOL    HW111270   2.201   2.488   2.392 -0.9526 -1.4269 -2.0595
  533SOL    HW211271   2.254   2.641   2.373 -2.3399 -0.5965  0.5467
  534SOL     OW11272   1.663   7.279   1.122 -0.2898  0.6316 -0.2011
  534SOL    HW111273   1.584   7.297   1.180 -0.0753  0.3107  0.1954
  534SOL    HW211274   1.722   7.361   1.119  1.1086 -0.2430  2.2702
  536SOL     OW11275   1.248   5.415   0.514 -0.7378 -0.1517  0.1135
  536SOL    HW111276   1.284   5.506   0.493 -0.1709 -0.3687  0.1543
  536SOL    HW211277   1.272   5.352   0.440  0.4724 -0.7054  0.9779
  537SOL     OW11278   4.747   3.778   0.802 -0.0715 -0.1166  0.4397
  537SOL    HW111279   4.774   3.829   0.720 -0.2593  0.1493  0.5402
  537SOL    HW211280   4.820   3.715   0.828 -0.1290 -0.3969 -0.0888
  538SOL     OW11281   2.623   6.101   0.552 -0.1343  0.2943 -0.5517
  538SOL    HW111282   2.676   6.114   0.636  0.1273 -2.4926 -0.2563
  538SOL    HW211283   2.662   6.157   0.479  0.6881  1.4198  0.7330
  540SOL     OW11284   4.364   2.592   2.229 -0.0852  0.1972 -0.7388
  540SOL    HW111285   4.425   2.610   2.306 -1.4496  0.1608  0.3657
  540SOL    HW211286   4.351   2.676   2.176  0.2940  0.3968 -0.5164
  541SOL     OW11287   5.121   2.846   1.217 -0.6637  0.7007 -0.3499
  541SOL    HW111288   5.207   2.896   1.228 -0.6112  0.3137  1.2094
  541SOL    HW211289   5.124   2.764   1.274 -1.7518  0.2589 -0.9280
  542SOL     OW11290   2.390   5.284   2.004  0.0553 -0.0087  0.4688
  542SOL    HW111291   2.431   5.277   2.095 -0.1148 -1.1166  0.4710
  542SOL    HW211292   2.443   5.229   1.939  0.3797  1.0587 -0.1823
  543SOL     OW11293   4.620   4.553   2.278 -0.1202 -0.4660  0.1187
  543SOL    HW111294   4.674   4.477   2.241  0.4984  0.0192  0.0278
  543SOL    HW211295   4.609   4.624   2.209 -0.4310 -0.3319  0.3050
  544SOL     OW11296   4.682   2.794   2.176 -0.3572 -0.5220 -0.0731
  544SOL    HW111297   4.643   2.876   2.133 -1.7509 -0.7749  0.6730
  544SOL    HW211298   4.695   2.723   2.107  1.6024  0.5786 -0.8767
  545SOL     OW11299   2.032   4.845   0.431  0.0386 -0.3577  0.0252
  545SOL    HW111300   2.092   4.793   0.370 -1.7002 -0.1961 -1.8860
  545SOL    HW211301   2.059   4.941   0.430 -1.4103  0.0534 -2.3425
  546SOL     OW11302   0.470   5.789   1.635  0.6708 -0.2104 -0.4699
  546SOL    HW111303   0.562   5.811   1.666  1.6107 -2.5767 -1.4364
  546SOL    HW211304   0.455   5.690   1.643 -0.9479 -0.1566 -2.4847
  548SOL     OW11305   1.969   3.353   1.832  0.3584 -0.6159  0.7664
  548SOL    HW111306   2.011   3.442   1.847  0.3002 -0.1393 -1.7540
  548SOL    HW211307   2.034   3.281   1.855  1.3127  0.1039  0.3458
  549SOL     OW11308   2.007   7.958   1.978  0.5282  0.2441 -0.4143
  549SOL    HW111309   1.924   7.908   1.951 -0.2406  1.0458  0.4463
  549SOL    HW211310   2.076   7.947   1.907 -1.0431  1.3223 -2.1702
  551SOL     OW11311   4.234   1.666   0.901 -0.5073 -0.0118 -0.3429
  551SOL    HW111312   4.168   1.593   0.921  0.3864 -0.7693 -0.1540
  551SOL    HW211313   4.310   1.661   0.965 -0.4892  1.1655 -0.2523
  552SOL     OW11314   4.192   4.206   1.019 -0.1210  0.1270 -0.4331
  552SOL    HW111315   4.273   4.222   1.076  0.3027  3.1250 -1.7711
  552SOL    HW211316   4.220   4.177   0.928 -0.6042 -0.3590 -0.4261
  553SOL     OW11317   3.595   2.577   1.929  0.0491  0.0514  0.0859
  553SOL    HW111318   3.670   2.625   1.972  0.1253  0.1587 -0.1653
  553SOL    HW211319   3.509   2.603   1.972  0.0934  0.3867 -0.0270
  556SOL     OW11320   1.767   4.416   2.349 -0.0612 -0.1054  0.1419
  556SOL    HW111321   1.785   4.358   2.270  2.7156  0.4707  0.2965
  556SOL    HW211322   1.852   4.428   2.401 -0.4952  4.2292  0.0057
  558SOL     OW11323   0.405   5.386   2.296  0.4230  0.1483  0.4415
  558SOL    HW111324   0.442   5.349   2.381 -0.3502 -0.6571  0.4288
  558SOL    HW211325   0.393   5.485   2.306 -0.2914 -0.0287  1.5097
  559SOL     OW11326   4.318   2.195   1.631 -0.5746 -0.3875 -0.2653
  559SOL    HW111327   4.313   2.180   1.730  2.3608  1.0585  0.1439
  559SOL    HW211328   4.270   2.279   1.607  0.0498  0.0966  0.1650
  562SOL     OW11329   2.687   3.409   2.267 -0.5187  0.0345  0.4718
  562SOL    HW111330   2.725   3.446   2.352  0.4311  0.1898 -0.0147
  562SOL    HW211331   2.633   3.480   2.221  1.0062  0.7254 -0.2826
  563SOL     OW11332   3.257   3.382   0.470 -0.0779  0.0050  0.0349
  563SOL    HW111333   3.275   3.478   0.493  0.7348  0.4273 -2.2484
  563SOL    HW211334   3.160   3.363   0.478 -0.7239  1.9020 -2.5320
  564SOL     OW11335   2.700   6.901   1.261  0.0100  0.5378  0.8660
  564SOL    HW111336   2.667   6.807   1.265  0.8454  0.2602  1.3227
  564SOL    HW211337   2.693   6.943   1.352  1.0858  0.4121  1.0115
  566SOL     OW11338   1.973   8.078   0.803 -0.9944  0.2463  0.3577
  566SOL    HW111339   1.925   8.125   0.877 -1.4540 -0.8974  0.8069
  566SOL    HW211340   1.980   7.980   0.825  1.3477  0.3494  0.2031
  567SOL     OW11341   1.840   7.042   1.398 -0.2193 -0.0367  0.2275
  567SOL    HW111342   1.757   7.004   1.358  0.1229  0.3488 -0.8528
  567SOL    HW211343   1.822   7.069   1.493 -0.8942 -1.4262  0.5085
  568SOL     OW11344   2.944   8.100   2.283 -0.0974  0.0616 -0.5044
  568SOL    HW111345   3.026   8.050   2.255  0.0799  0.3052 -0.4211
  568SOL    HW211346   2.896   8.134   2.203  1.7037  2.8482 -0.4451
  569SOL     OW11347   2.399   5.957   2.287 -0.0124  0.1211 -0.1154
  569SOL    HW111348   2.420   6.055   2.298 -0.8655  0.4689 -1.4192
  569SOL    HW211349   2.485   5.906   2.279  0.4159  1.0760 -1.8764
  570SOL     OW11350   4.572   2.007   1.302  0.5482 -0.4483 -0.8732
  570SOL    HW111351   4.643   1.956   1.350  0.7510  1.0436  0.4198
  570SOL    HW211352   4.484   1.961   1.316  0.8407 -0.8593 -0.3405
  571SOL     OW11353  10.354   5.940   1.456  0.4897 -0.1517 -0.2452
  571SOL    HW111354  10.364   6.038   1.474 -2.1669  0.2006 -0.4277
  571SOL    HW211355  10.392   5.889   1.533 -0.0736  1.0965  0.9017
  572SOL     OW11356   3.458   4.076   2.057  0.1199  0.3044  0.1048
  572SOL    HW111357   3.551   4.046   2.037 -0.4338 -1.4843  0.1205
  572SOL    HW211358   3.413   4.107   1.973  0.7781  1.3833  0.1336
  573SOL     OW11359   2.875   4.623   0.955 -0.0199  0.3170  0.1422
  573SOL    HW111360   2.936   4.692   0.995 -0.7213  1.3291 -0.4956
  573SOL    HW211361   2.780   4.651   0.969 -0.3418 -1.1491  0.9527
  574SOL     OW11362   1.105   3.324   1.332 -0.5336 -0.2190  0.3643
  574SOL    HW111363   1.092   3.374   1.246  0.7110  1.8663  1.3496
  574SOL    HW211364   1.020   3.323   1.383 -0.0676  2.7939  1.2861
  575SOL     OW11365   5.083   3.482   0.796  0.4297  0.2657  0.4410
  575SOL    HW111366   5.157   3.466   0.860  0.3165 -0.2896  0.4380
  575SOL    HW211367   5.053   3.394   0.757  1.0461  0.6722 -0.9811
  577SOL     OW11368   3.724   2.547   0.538 -0.1814 -0.3692  0.4461
  577SOL    HW111369   3.766   2.637   0.548 -0.0488 -0.5480  1.5318
  577SOL    HW211370   3.768   2.497   0.464 -0.1418  0.3893 -0.0473
  578SOL     OW11371   3.125   7.716   2.030 -0.3317  0.1614 -0.1281
  578SOL    HW111372   3.034   7.682   2.053 -0.2098 -0.1878 -0.1596
  578SOL    HW211373   3.176   7.645   1.981  0.4097 -0.1043  1.0171
  579SOL     OW11374   3.225   7.693   0.842  0.0828  0.4189 -0.3959
  579SOL    HW111375   3.149   7.634   0.815 -0.1843 -0.5918  2.2957
  579SOL    HW211376   3.196   7.788   0.841 -0.2232  0.3248 -2.4758
  580SOL     OW11377   2.863   4.880   0.411  0.3937  0.0965 -0.2620
  580SOL    HW111378   2.901   4.828   0.487  2.1295  0.2255 -1.0185
  580SOL    HW211379   2.763   4.868   0.409  0.6477 -2.3804  0.1808
  581SOL     OW11380   1.269   6.939   2.194 -0.0350  0.7430 -0.2286
  581SOL    HW111381   1.268   6.842   2.218 -0.8791  0.5465 -1.0304
  581SOL    HW211382   1.239   6.951   2.099 -2.1100  1.9591  0.5475
  582SOL     OW11383   9.807   5.937   0.452  0.5483 -0.3635 -0.2507
  582SOL    HW111384   9.851   5.898   0.533 -0.1118 -0.1421  0.2187
  582SOL    HW211385   9.712   5.960   0.474  0.3696 -0.3057 -1.0920
  583SOL     OW11386   2.258   5.492   0.495  0.0084  0.1425  0.0390
  583SOL    HW111387   2.354   5.482   0.469 -0.2278 -1.4432 -0.2551
  583SOL    HW211388   2.200   5.446   0.428 -0.8525 -0.5016  1.2029
  584SOL     OW11389   3.820   4.208   1.824 -0.4183  0.0158  0.1447
  584SOL    HW111390   3.909   4.169   1.844 -1.0106 -1.6509 -0.4093
  584SOL    HW211391   3.765   4.211   1.907 -0.3141 -0.2036  0.2216
  585SOL     OW11392   3.151  -0.047   1.719  0.2466 -0.5125 -0.2659
  585SOL    HW111393   3.248  -0.068   1.712  0.8394  1.4273  1.4499
  585SOL    HW211394   3.110  -0.046   1.628  2.0399 -0.4056 -1.0892
  586SOL     OW11395   4.133   3.584   2.355  0.3068 -0.1736 -0.2136
  586SOL    HW111396   4.090   3.668   2.388  1.8021  0.3014  0.5914
  586SOL    HW211397   4.142   3.588   2.256  0.1302  0.5098 -0.2082
  587SOL     OW11398   4.368   8.495   1.029 -0.7960  0.0695 -0.5611
  587SOL    HW111399   4.326   8.496   0.939  0.6643 -0.9039 -1.2683
  587SOL    HW211400   4.303   8.531   1.097 -0.8896  3.6126 -2.4186
  589SOL     OW11401   9.585   5.687   0.624  0.2276 -0.0593  0.0750
  589SOL    HW111402   9.684   5.674   0.623 -0.0018 -2.0134  0.3111
  589SOL    HW211403   9.544   5.631   0.696 -0.9009  2.0628  1.1340
  590SOL     OW11404   1.530   4.286   1.931  0.2943  0.1282  1.0824
  590SOL    HW111405   1.472   4.330   1.862  0.5894  1.4089  1.6265
  590SOL    HW211406   1.602   4.234   1.887 -0.6722 -0.6490  0.4053
  591SOL     OW11407   2.709   9.034   0.350 -0.2195 -0.0016 -0.1413
  591SOL    HW111408   2.804   9.004   0.341  0.7666  2.6136  1.1929
  591SOL    HW211409   2.704   9.133   0.346 -3.0282 -0.1306 -1.0349
  592SOL     OW11410   3.063   6.150   0.984  0.2074  0.8288 -0.0816
  592SOL    HW111411   3.127   6.101   1.043 -0.8501  0.8745  1.1193
  592SOL    HW211412   3.029   6.089   0.913  0.5960  0.4545  0.0566
  593SOL     OW11413   2.399   1.983   1.790  0.2271 -0.3295 -0.0199
  593SOL    HW111414   2.366   2.042   1.864  3.2838 -1.2976  2.2115
  593SOL    HW211415   2.478   2.026   1.746 -0.8817 -0.2939 -2.0308
  595SOL     OW11416   3.335   9.115   0.467  0.6272  0.0034  0.2929
  595SOL    HW111417   3.267   9.058   0.514  0.1302  0.3758  0.0365
  595SOL    HW211418   3.382   9.061   0.398 -0.3103  0.0681 -0.4126
  597SOL     OW11419   2.980   6.229   1.517 -0.3930 -0.2258 -0.1593
  597SOL    HW111420   2.891   6.208   1.477 -0.1237 -1.1306 -0.3096
  597SOL    HW211421   2.970   6.299   1.587 -0.9713  0.9147 -1.3500
  598SOL     OW11422  10.351   5.059   1.727  0.3496 -0.5064 -0.1026
  598SOL    HW111423  10.275   5.113   1.763 -0.2543 -1.0557 -0.5286
  598SOL    HW211424  10.339   5.047   1.628  1.0612 -0.4905 -0.1954
  600SOL     OW11425   1.180   7.562   2.050  0.4331  0.3546 -0.2882
  600SOL    HW111426   1.120   7.565   2.130  1.7679  0.1038  0.7364
  600SOL    HW211427   1.164   7.643   1.993  0.9607  1.6125  1.3203
  601SOL     OW11428   3.235   0.363   1.309 -0.2646 -0.2717 -0.2663
  601SOL    HW111429   3.278   0.377   1.220  1.0490  0.7175  0.5019
  601SOL    HW211430   3.158   0.425   1.319 -0.2505 -0.1990 -0.6066
  602SOL     OW11431   3.554   4.740   0.903  0.2422  0.2517 -0.0626
  602SOL    HW111432   3.477   4.771   0.846 -0.6282 -3.2918 -1.0152
  602SOL    HW211433   3.626   4.703   0.844  0.5282 -0.9514  1.0137
  603SOL     OW11434   3.279   1.385   2.214 -0.0838 -0.4661  0.7036
  603SOL    HW111435   3.335   1.465   2.233 -0.9044  0.1620  0.4994
  603SOL    HW211436   3.323   1.330   2.142  0.4103 -0.1349  0.7521
  604SOL     OW11437   1.705   5.662   0.612 -0.1958 -0.0726 -0.3682
  604SOL    HW111438   1.771   5.730   0.642 -1.4515  0.4491  1.2775
  604SOL    HW211439   1.719   5.643   0.514  1.4745  1.0196 -0.3629
  605SOL     OW11440   2.683   1.902   1.271  0.1471  0.4494  0.1545
  605SOL    HW111441   2.588   1.933   1.261  0.5620  1.0907 -2.0299
  605SOL    HW211442   2.716   1.926   1.362 -1.8815 -0.0455  1.0485
  606SOL     OW11443   1.807   1.861   1.289 -0.0143  0.3644 -0.2961
  606SOL    HW111444   1.810   1.766   1.256 -0.7617  0.5020 -0.7771
  606SOL    HW211445   1.889   1.909   1.259  1.8673 -0.9574  2.5413
  607SOL     OW11446   1.879   7.235   1.621 -0.4005  0.1722 -0.1621
  607SOL    HW111447   1.879   7.251   1.720  0.7639 -2.4653  0.2923
  607SOL    HW211448   1.898   7.322   1.574  1.6859  0.9694  2.0319
  608SOL     OW11449   1.313   4.676   1.759  0.5404 -0.1953 -0.0015
  608SOL    HW111450   1.373   4.647   1.833 -0.4701 -0.0236  0.8846
  608SOL    HW211451   1.355   4.754   1.712  1.7208 -1.0212 -0.3504
  609SOL     OW11452   2.173  -0.133   2.347 -0.0218 -0.4110 -0.0100
  609SOL    HW111453   2.188  -0.222   2.304 -0.9061 -0.3799 -0.3884
  609SOL    HW211454   2.080  -0.129   2.385 -0.5359  0.8855 -1.3213
  613SOL     OW11455   1.569   8.548   1.702  0.1005  0.0605 -0.6284
  613SOL    HW111456   1.590   8.496   1.785 -1.3368  1.3785  0.5673
  613SOL    HW211457   1.478   8.523   1.668  0.5246 -0.1960 -1.6133
  616SOL     OW11458   4.397   3.022   0.400 -0.0910 -0.5906 -0.3808
  616SOL    HW111459   4.449   2.939   0.419 -0.7954 -0.9593 -0.0412
  616SOL    HW211460   4.303   3.011   0.433 -0.0088  0.6008  0.2825
  618SOL     OW11461   2.204   4.790   2.195 -0.0547 -0.2495  0.0034
  618SOL    HW111462   2.252   4.760   2.112 -1.6794  2.3047 -1.9773
  618SOL    HW211463   2.225   4.887   2.211 -2.3741  0.1809  0.6204
  619SOL     OW11464   3.373   4.382   1.678 -0.0398 -0.3308 -0.0133
  619SOL    HW111465   3.354   4.474   1.644  0.2242 -0.6432 -1.0060
  619SOL    HW211466   3.409   4.326   1.604 -0.9321 -1.4622  0.3983
  620SOL     OW11467   3.695   5.140   0.900 -0.1380 -0.3751  0.0944
  620SOL    HW111468   3.772   5.188   0.858 -0.2698  1.6577  2.0396
  620SOL    HW211469   3.721   5.045   0.919  0.8131 -0.5648 -2.0572
  621SOL     OW11470   4.135   4.627   2.342  0.5984 -0.2282  0.2060
  621SOL    HW111471   4.165   4.561   2.410  0.0461 -1.5408 -0.8036
  621SOL    HW211472   4.208   4.693   2.325  1.0629 -0.4182  1.4063
  622SOL     OW11473   4.372   4.798   1.307 -0.2210 -0.3203  0.4370
  622SOL    HW111474   4.291   4.853   1.290 -0.9484 -1.7666 -0.8823
  622SOL    HW211475   4.368   4.758   1.398 -1.1050 -0.5657  0.2898
  623SOL     OW11476   0.847   6.331   0.596  0.2043  0.1663  0.4657
  623SOL    HW111477   0.944   6.313   0.611  0.3382 -0.5212 -1.0973
  623SOL    HW211478   0.799   6.331   0.683  1.5503  0.1212  1.2127
  625SOL     OW11479   3.546   8.386   1.555 -0.4582  0.2074  0.1748
  625SOL    HW111480   3.558   8.455   1.484  0.4690 -1.5782 -1.4473
  625SOL    HW211481   3.620   8.394   1.622  0.4286 -0.1030 -0.7628
  626SOL     OW11482   3.725   3.486   2.174 -0.2706 -0.1170  0.4691
  626SOL    HW111483   3.802   3.428   2.200  0.3092  0.2493 -0.4339
  626SOL    HW211484   3.686   3.529   2.256  0.8131  0.1123  0.8680
  627SOL     OW11485   3.772   0.282   2.095  0.1693 -0.1070 -0.2390
  627SOL    HW111486   3.761   0.183   2.093 -0.7063 -0.0442  0.6451
  627SOL    HW211487   3.828   0.308   2.174  1.1621  0.0368 -0.9927
  628SOL     OW11488   4.731   2.075   0.948 -0.6434 -0.5084 -0.4582
  628SOL    HW111489   4.643   2.121   0.958 -0.6922 -0.6642 -0.1768
  628SOL    HW211490   4.718   1.978   0.931 -0.5313 -0.4867 -0.6743
  629SOL     OW11491   3.956   9.036   0.504 -0.1239  0.2717  0.5546
  629SOL    HW111492   4.050   9.066   0.488 -0.2561  1.6523  2.2831
  629SOL    HW211493   3.900   9.060   0.425  0.6581  0.8040  0.1515
  630SOL     OW11494   4.882   4.272   1.443 -0.3705 -0.2629 -0.4038
  630SOL    HW111495   4.839   4.273   1.534  0.6104  0.1383  0.0622
  630SOL    HW211496   4.874   4.363   1.402  0.1301 -0.1596 -0.2709
  631SOL     OW11497   0.739   5.537   1.826 -0.1827 -0.0258  0.9648
  631SOL    HW111498   0.796   5.505   1.750 -0.0320  1.3938  0.4534
  631SOL    HW211499   0.780   5.509   1.913 -0.5234 -1.9298  0.5202
  632SOL     OW11500   0.637   4.183   1.458 -0.2238  0.4637 -0.5596
  632SOL    HW111501   0.644   4.091   1.420  0.7460  0.3126 -0.0365
  632SOL    HW211502   0.706   4.243   1.416 -0.2482  0.7154 -0.2458
  634SOL     OW11503   2.958   1.821   2.046 -0.6944  0.1812 -0.1286
  634SOL    HW111504   3.014   1.790   2.123 -0.8344  1.0381  0.3283
  634SOL    HW211505   2.873   1.768   2.044 -1.2607  1.0094  1.0967
  635SOL     OW11506   0.446   3.908   2.152  0.2829  0.1610  0.2836
  635SOL    HW111507   0.436   3.996   2.198  0.1271 -0.4338  1.4181
  635SOL    HW211508   0.452   3.922   2.053  0.1901  1.4311  0.4502
  636SOL     OW11509   2.875   2.176   0.706  0.0489  0.0393 -0.1122
  636SOL    HW111510   2.933   2.109   0.752 -0.1608 -0.4252 -0.5178
  636SOL    HW211511   2.784   2.175   0.748  0.3107  0.7172  0.4780
  638SOL     OW11512   3.126   7.324   1.833  0.0132 -0.0174 -0.1738
  638SOL    HW111513   3.221   7.301   1.811 -0.3202 -1.3233 -0.2879
  638SOL    HW211514   3.097   7.401   1.776  0.8933  0.1608 -0.3907
  639SOL     OW11515   1.724   2.030   2.106  0.0874  0.1750 -0.0319
  639SOL    HW111516   1.689   1.941   2.135 -2.5519  0.8729 -0.9867
  639SOL    HW211517   1.749   2.026   2.009  1.0506  0.1695  0.2110
  640SOL     OW11518   2.953   7.053   1.197 -0.6958 -0.1612  0.1889
  640SOL    HW111519   2.902   7.003   1.127  0.6714 -0.3156 -0.7054
  640SOL    HW211520   2.912   7.144   1.208 -0.6956  0.0099 -1.0823
  641SOL     OW11521   3.234   1.285   0.443 -0.3094 -0.1773 -0.9527
  641SOL    HW111522   3.304   1.222   0.409 -1.7757 -0.6942 -3.1258
  641SOL    HW211523   3.243   1.374   0.397  0.0107  0.3251  0.0617
  642SOL     OW11524   4.515   4.415   1.915 -0.2125  0.6380 -0.8237
  642SOL    HW111525   4.483   4.415   2.010  0.9371 -0.8415 -0.4225
  642SOL    HW211526   4.488   4.330   1.871 -0.0686  0.9930 -1.6003
  643SOL     OW11527   2.874   8.063   0.508  0.2870  0.8603 -0.6229
  643SOL    HW111528   2.902   8.112   0.425  1.7202  0.6095 -0.2982
  643SOL    HW211529   2.838   7.973   0.483  1.7839  0.3268 -0.9081
  644SOL     OW11530   2.637   6.736   0.599 -0.1225  0.2502  0.0650
  644SOL    HW111531   2.725   6.735   0.550 -0.2126 -0.7716 -0.0732
  644SOL    HW211532   2.633   6.658   0.661 -1.3758 -0.3100 -0.7054
  645SOL     OW11533   2.275   1.805   1.452  0.0405 -0.1314 -0.8416
  645SOL    HW111534   2.303   1.861   1.374 -1.1277  0.2112 -1.0270
  645SOL    HW211535   2.251   1.865   1.528 -1.0970 -0.3809 -1.0006
  646SOL     OW11536   4.007   4.174   2.199  0.2896 -0.1362 -0.0601
  646SOL    HW111537   3.978   4.218   2.284  0.8722  0.5029 -0.1909
  646SOL    HW211538   4.079   4.107   2.219  0.6302  0.2246 -0.0944
  647SOL     OW11539   2.822   3.810   0.868  0.1025 -0.2890  0.2974
  647SOL    HW111540   2.899   3.768   0.820 -0.0348 -0.7498  0.4694
  647SOL    HW211541   2.850   3.840   0.958  0.8352  2.2828 -0.7530
  648SOL     OW11542   1.813   5.457   1.428 -0.4060 -0.1948 -0.0229
  648SOL    HW111543   1.747   5.402   1.480 -1.5332  1.1545  0.0101
  648SOL    HW211544   1.769   5.542   1.399  0.4137 -0.6014 -2.5888
  649SOL     OW11545   3.060   4.036   1.448  0.3168 -0.8405  0.2994
  649SOL    HW111546   3.019   4.075   1.531 -2.9719 -1.1675 -1.0918
  649SOL    HW211547   3.128   4.100   1.412 -0.2447  0.5867  1.6862
  650SOL     OW11548   4.186   0.289   1.294 -0.2228 -0.5619  0.2162
  650SOL    HW111549   4.214   0.385   1.302 -1.9031 -0.1673  1.8661
  650SOL    HW211550   4.256   0.230   1.336 -0.1120  0.1142  0.9996
  651SOL     OW11551  10.213   3.889   2.367 -0.4651  0.8877  0.2123
  651SOL    HW111552  10.241   3.807   2.318  1.5201  0.2785  2.3145
  651SOL    HW211553  10.268   3.967   2.336 -0.7625  0.9590 -0.1371
  652SOL     OW11554   4.062   2.402   1.965 -0.0478 -0.6478  0.2872
  652SOL    HW111555   4.060   2.497   1.934 -0.6709 -0.5635  0.5724
  652SOL    HW211556   4.000   2.348   1.908 -0.2820 -0.7278  0.6156
  654SOL     OW11557   2.726   6.314   1.925 -0.0284 -0.0158 -0.6785
  654SOL    HW111558   2.789   6.340   1.851  0.5247 -0.5033 -0.3888
  654SOL    HW211559   2.638   6.359   1.912  0.7350  1.5617 -0.4694
  655SOL     OW11560   2.038   1.096   1.823 -0.3226 -0.3968  0.4414
  655SOL    HW111561   1.967   1.145   1.772  2.1737  1.0379 -1.8152
  655SOL    HW211562   2.050   1.005   1.784  0.8866  0.3388 -0.9830
  656SOL     OW11563   0.955   2.394   0.609 -0.5595  0.5323  0.1482
  656SOL    HW111564   1.000   2.304   0.607 -1.4803  0.0551  0.7059
  656SOL    HW211565   0.950   2.430   0.516  3.3857  1.8232  0.3339
  657SOL     OW11566   2.896   5.143   0.498  0.3679 -0.1190  0.0592
  657SOL    HW111567   2.895   5.053   0.455 -0.4668 -0.0203 -0.1416
  657SOL    HW211568   2.984   5.187   0.481  0.4915 -0.5801 -0.5131
  658SOL     OW11569   2.661   7.478   0.880 -0.1452 -0.4218 -0.0946
  658SOL    HW111570   2.644   7.576   0.880 -1.0601 -0.5619 -1.4133
  658SOL    HW211571   2.754   7.460   0.912  0.3148  0.9299 -0.6329
  660SOL     OW11572   2.688   0.588   0.895  0.1766 -0.4803  0.0028
  660SOL    HW111573   2.718   0.503   0.850  1.8674  0.6135 -0.9834
  660SOL    HW211574   2.595   0.575   0.930  0.2878 -2.6461 -0.3886
  661SOL     OW11575   2.619   7.163   1.857  0.3533  0.5264  0.1748
  661SOL    HW111576   2.581   7.247   1.818  1.0605  0.6091 -0.3486
  661SOL    HW211577   2.548   7.114   1.907 -0.4271  0.7065 -0.7431
  662SOL     OW11578   3.981   0.501   0.865  0.1230 -0.4762  0.1263
  662SOL    HW111579   4.052   0.431   0.876  0.5018 -0.0511  0.4183
  662SOL    HW211580   3.928   0.509   0.949  1.3700  0.9774  0.8156
  663SOL     OW11581   3.316   4.050   2.304  0.1344 -0.1476 -0.1725
  663SOL    HW111582   3.218   4.038   2.290  0.6989 -2.8827 -2.3017
  663SOL    HW211583   3.362   4.054   2.215  2.0715 -0.2070  0.7977
  665SOL     OW11584   9.867   5.370   1.465 -0.0706 -0.0664  0.4407
  665SOL    HW111585   9.933   5.312   1.417  1.1070  0.3977  1.4551
  665SOL    HW211586   9.804   5.410   1.398  1.9765  1.1363 -0.8501
  666SOL     OW11587   3.262   0.260   2.104 -0.1328 -0.0662  0.1898
  666SOL    HW111588   3.205   0.238   2.025  1.2987 -0.1564 -0.8489
  666SOL    HW211589   3.356   0.278   2.074  0.1017  1.4541  1.7008
  667SOL     OW11590   2.326   8.459   1.958  0.0876 -0.8226 -0.0303
  667SOL    HW111591   2.398   8.507   2.008 -0.5088  1.1661 -1.0574
  667SOL    HW211592   2.248   8.445   2.018  0.2190 -0.4156  0.2349
  668SOL     OW11593   3.249   4.516   1.885 -0.2250 -0.0627 -0.3776
  668SOL    HW111594   3.291   4.449   1.824  1.0061  1.0630 -0.7910
  668SOL    HW211595   3.186   4.574   1.833 -1.0844 -0.7096 -0.0728
  669SOL     OW11596   3.723   1.864   1.544 -0.3106  0.2120  0.4585
  669SOL    HW111597   3.733   1.889   1.447  1.7994 -1.2953  0.2418
  669SOL    HW211598   3.632   1.827   1.560  0.7673 -3.8851 -2.0445
  670SOL     OW11599   2.161   7.645   0.863 -0.8113 -0.7302  0.1551
  670SOL    HW111600   2.153   7.551   0.897 -0.9407 -0.7007  0.2053
  670SOL    HW211601   2.201   7.702   0.934  1.1011 -1.1565 -0.5568
  671SOL     OW11602   1.739   8.675   0.804 -0.0682  0.3980  0.0575
  671SOL    HW111603   1.756   8.615   0.725 -0.2499 -0.0696  0.3700
  671SOL    HW211604   1.698   8.760   0.772 -2.4873 -0.7907 -0.1343
  672SOL     OW11605   2.747   4.835   1.308  0.3089 -0.0587  0.0667
  672SOL    HW111606   2.802   4.883   1.376  0.0775  0.1478  0.1113
  672SOL    HW211607   2.767   4.737   1.311  0.4575 -0.0213  0.2823
  673SOL     OW11608   4.315   4.916   0.638  0.2298  0.3560  0.4471
  673SOL    HW111609   4.236   4.874   0.683  0.6264 -1.3283 -0.3783
  673SOL    HW211610   4.308   4.903   0.539  0.9312  1.2531  0.2799
  674SOL     OW11611   1.492   2.111   0.507 -0.4124 -0.2382 -0.1310
  674SOL    HW111612   1.425   2.165   0.456  1.6255  1.4813 -1.0879
  674SOL    HW211613   1.446   2.058   0.578 -2.6395  1.8880  0.0683
  675SOL     OW11614   2.040   0.063   0.666  0.3659 -0.1334  0.4164
  675SOL    HW111615   2.064   0.157   0.687  0.6430 -0.0702 -0.1945
  675SOL    HW211616   2.097   0.001   0.719  1.2050  0.0270 -0.2924
  676SOL     OW11617  10.297   5.826   0.860 -0.0204  0.4258  0.0492
  676SOL    HW111618  10.364   5.842   0.788 -0.4436 -1.1886 -0.7156
  676SOL    HW211619  10.316   5.887   0.937  0.9625  1.5528 -1.0576
  677SOL     OW11620   1.320   4.042   2.343  0.2899  0.1878 -0.1197
  677SOL    HW111621   1.399   4.033   2.403 -0.0352 -0.0286  0.2777
  677SOL    HW211622   1.340   4.107   2.270  1.3025 -0.8617 -0.7884
  678SOL     OW11623   3.736   3.676   1.736 -0.0749  0.2904  0.2529
  678SOL    HW111624   3.745   3.770   1.769 -0.4425  0.2166  0.5789
  678SOL    HW211625   3.753   3.673   1.638  1.4534  0.4454  0.5024
  679SOL     OW11626   2.817   0.976   1.087  0.1011 -0.3784  0.4046
  679SOL    HW111627   2.784   0.884   1.069 -2.4174  0.3415  1.1523
  679SOL    HW211628   2.916   0.980   1.071 -0.1251 -2.6176 -1.8165
  680SOL     OW11629   1.699   8.301   0.602 -0.6354 -0.5688  0.9546
  680SOL    HW111630   1.770   8.283   0.671  0.4709 -0.2667 -0.0747
  680SOL    HW211631   1.743   8.322   0.514 -2.0185 -1.1584  0.1029
  681SOL     OW11632   2.059   6.194   0.523 -0.8981  0.0693 -0.3031
  681SOL    HW111633   2.083   6.097   0.522 -1.0048  0.0446 -1.7560
  681SOL    HW211634   2.010   6.216   0.607  1.2189 -0.6193  1.1236
  682SOL     OW11635   3.596   0.196   1.381 -0.1600  0.5537 -0.3520
  682SOL    HW111636   3.597   0.295   1.390  1.9256  0.3848  1.9584
  682SOL    HW211637   3.591   0.171   1.284  0.9700  2.9233 -1.0556
  683SOL     OW11638   2.555   6.201   1.688 -0.0073 -0.1195  0.5078
  683SOL    HW111639   2.608   6.150   1.757  2.0624 -0.3814 -1.2196
  683SOL    HW211640   2.474   6.148   1.662 -0.9487  0.0882  2.8950
  685SOL     OW11641   4.078   1.242   0.347 -0.1864 -0.5177 -0.0837
  685SOL    HW111642   4.066   1.159   0.401 -0.4603 -0.6265 -0.3060
  685SOL    HW211643   4.024   1.316   0.387 -1.7341 -1.0348 -1.1419
  686SOL     OW11644   2.764   9.195   1.547 -0.2976 -0.1274 -0.2157
  686SOL    HW111645   2.774   9.110   1.495  2.6727  0.9900 -1.6216
  686SOL    HW211646   2.683   9.190   1.605 -2.5815 -2.2396 -3.4158
  687SOL     OW11647   1.581   8.827   1.543  0.5802  0.0936 -0.2154
  687SOL    HW111648   1.484   8.835   1.518  0.9618 -0.1664 -1.8446
  687SOL    HW211649   1.611   8.732   1.529  1.0949  0.1880  0.2311
  688SOL     OW11650   2.237   1.893   2.235 -0.8273 -0.2165 -0.2385
  688SOL    HW111651   2.263   1.800   2.206 -0.5789  0.2724 -1.6132
  688SOL    HW211652   2.311   1.932   2.289 -0.1143 -0.0983 -1.2932
  689SOL     OW11653   3.876  -0.086   1.676 -0.1542  0.0804 -0.1125
  689SOL    HW111654   3.955  -0.040   1.636 -1.2130  2.3471  0.3410
  689SOL    HW211655   3.886  -0.090   1.776 -0.5796  0.3426 -0.0556
  690SOL     OW11656   1.350   3.093   2.155 -0.0326  0.1554  0.2581
  690SOL    HW111657   1.326   3.150   2.076  0.6123  1.3931  0.9460
  690SOL    HW211658   1.380   3.151   2.231 -0.6368 -1.0278  1.4216
  691SOL     OW11659   2.944   2.699   1.228 -0.2384 -0.1612  0.1417
  691SOL    HW111660   2.987   2.773   1.280 -1.9928  0.4660  0.7127
  691SOL    HW211661   2.884   2.738   1.158 -1.0289 -1.0564  0.3208
  692SOL     OW11662  10.014   4.339   0.822 -0.0319  0.1214  0.5550
  692SOL    HW111663   9.971   4.249   0.817 -2.0071  0.9924  1.1762
  692SOL    HW211664  10.103   4.331   0.867  0.5978 -1.7672 -0.9773
  693SOL     OW11665   3.674   1.359   0.736 -0.3032  0.3107 -0.3841
  693SOL    HW111666   3.619   1.432   0.775  0.1225  0.7445 -0.5928
  693SOL    HW211667   3.644   1.340   0.643  0.1366  0.7944 -0.6248
  694SOL     OW11668   3.966   4.924   0.504 -0.5983 -0.2050 -0.6039
  694SOL    HW111669   3.977   5.015   0.545 -0.1112 -1.4221  2.0537
  694SOL    HW211670   4.014   4.921   0.417  0.4549  1.6856 -0.1189
  695SOL     OW11671   2.797   2.909   2.366  0.3654 -0.2043 -0.5738
  695SOL    HW111672   2.771   3.004   2.352  0.2652 -0.2261 -0.5379
  695SOL    HW211673   2.720   2.849   2.344 -0.0725 -0.1951  0.8776
  697SOL     OW11674   1.646   8.700   1.922  0.2935 -0.0472  0.5059
  697SOL    HW111675   1.591   8.684   1.840 -2.0398  0.0607  2.0159
  697SOL    HW211676   1.704   8.780   1.908 -2.0765  1.6238 -0.0692
  698SOL     OW11677   1.768   5.909   0.954  0.3015 -0.5380  0.3842
  698SOL    HW111678   1.728   5.823   0.922 -1.3253  0.6212 -0.7406
  698SOL    HW211679   1.840   5.938   0.892 -1.1518  0.4141 -0.8871
  700SOL     OW11680   2.291   9.198   1.001 -0.1127 -0.2384 -0.2437
  700SOL    HW111681   2.345   9.200   1.086 -1.9257  0.2431  0.9225
  700SOL    HW211682   2.245   9.109   0.994 -1.3785  0.3739  0.1924
  701SOL     OW11683   2.412   7.220   2.124 -0.0869 -0.2029 -0.2962
  701SOL    HW111684   2.430   7.188   2.217  0.3125  0.6252 -0.0806
  701SOL    HW211685   2.368   7.148   2.071  0.1691 -0.8563  0.3824
  702SOL     OW11686   3.366   0.239   1.526 -0.8507  0.5356 -0.1992
  702SOL    HW111687   3.421   0.169   1.481 -0.7645 -0.3345  1.2346
  702SOL    HW211688   3.323   0.297   1.457  1.3645  0.8521 -1.3550
  704SOL     OW11689   2.190   1.321   1.532 -0.1737 -0.4501  0.0975
  704SOL    HW111690   2.092   1.303   1.528 -0.2319 -0.1405  0.0798
  704SOL    HW211691   2.205   1.420   1.542  0.0900 -0.6196  1.5982
  706SOL     OW11692   1.306   6.666   2.299 -0.1320  0.1376 -1.0686
  706SOL    HW111693   1.299   6.620   2.210 -0.2945  0.0891 -1.0307
  706SOL    HW211694   1.324   6.597   2.370 -2.0966 -0.0934 -0.7608
  708SOL     OW11695   1.288   4.149   1.614 -0.3047  0.1324  0.1050
  708SOL    HW111696   1.198   4.154   1.657  0.1703  2.7271  0.8781
  708SOL    HW211697   1.352   4.106   1.678 -0.1429  1.8335  1.1310
  710SOL     OW11698   2.816   5.250   1.257 -0.5418 -0.3045 -0.5207
  710SOL    HW111699   2.806   5.156   1.291  0.9388 -0.4368 -0.4120
  710SOL    HW211700   2.771   5.259   1.169  1.9911 -2.0072 -2.0691
  711SOL     OW11701   1.673   1.050   1.713 -0.1101 -0.3299 -0.2667
  711SOL    HW111702   1.671   1.100   1.626  0.9319 -0.1582 -0.2074
  711SOL    HW211703   1.752   0.989   1.714 -1.3401 -1.9557 -0.3117
  712SOL     OW11704   1.558   4.104   0.439  0.1800 -0.2464  0.1427
  712SOL    HW111705   1.656   4.112   0.426  0.3633  0.4693  1.9392
  712SOL    HW211706   1.513   4.101   0.349  1.8626 -1.1594 -0.6937
  713SOL     OW11707   3.689   1.010   0.440 -0.2263  0.6859  0.3048
  713SOL    HW111708   3.703   0.912   0.458 -0.4777  0.5097 -0.4649
  713SOL    HW211709   3.591   1.029   0.436 -0.1763  0.7452 -0.7579
  715SOL     OW11710   1.724   2.301   1.689  0.2367  0.3421  1.1982
  715SOL    HW111711   1.664   2.228   1.657  0.7065 -0.0406  1.1874
  715SOL    HW211712   1.699   2.387   1.644  1.4708 -0.3640 -0.8677
  716SOL     OW11713   4.812   3.061   1.873 -0.3110  0.1433  0.5409
  716SOL    HW111714   4.817   3.153   1.833  0.0401  0.4919  1.3593
  716SOL    HW211715   4.798   2.994   1.801  2.0826  0.5666 -0.3631
  718SOL     OW11716   1.784   7.761   1.056 -0.0380  0.0266 -0.9063
  718SOL    HW111717   1.718   7.835   1.069 -0.6831 -0.5322 -0.9697
  718SOL    HW211718   1.821   7.765   0.963  2.7240  2.5203  0.2225
  719SOL     OW11719   2.710   6.672   1.609 -0.0852  0.7533 -0.3465
  719SOL    HW111720   2.708   6.714   1.699 -0.1488  1.8012 -0.8337
  719SOL    HW211721   2.797   6.694   1.564  0.2251 -0.3192 -0.2765
  721SOL     OW11722   4.635   1.901   1.836  0.3081  0.5916  0.2937
  721SOL    HW111723   4.550   1.902   1.888 -0.8441 -2.8314 -1.3992
  721SOL    HW211724   4.713   1.896   1.898 -0.9326 -1.1517  1.7443
  722SOL     OW11725   0.728   5.565   1.375  0.2792  0.2936 -0.5407
  722SOL    HW111726   0.802   5.542   1.439  0.1042 -1.0074 -0.8003
  722SOL    HW211727   0.725   5.665   1.363  0.9081  0.4839  0.7633
  723SOL     OW11728   2.376   3.717   1.535 -0.3580  0.3370  0.0070
  723SOL    HW111729   2.401   3.739   1.441 -0.4409 -2.0557 -0.5993
  723SOL    HW211730   2.402   3.623   1.556 -0.4434  0.7989  2.3528
  724SOL     OW11731   4.813   3.588   2.304 -0.0516  0.2099 -0.7672
  724SOL    HW111732   4.871   3.509   2.286 -0.4076 -0.0947 -0.5803
  724SOL    HW211733   4.781   3.626   2.218 -0.4033 -0.2373 -0.8335
  725SOL     OW11734   1.784   1.057   0.999 -0.0765  0.4896  0.0684
  725SOL    HW111735   1.747   0.965   1.014  1.5501 -0.5165 -1.7940
  725SOL    HW211736   1.772   1.082   0.903  0.5374  1.7424  0.3113
  726SOL     OW11737   3.986   2.061   1.892  0.6688  0.3428  0.0160
  726SOL    HW111738   3.910   2.062   1.957  0.8057 -0.6484  0.2070
  726SOL    HW211739   3.984   2.144   1.836  0.9607  1.5289  1.7466
  727SOL     OW11740   2.949   4.394   0.451 -0.1575 -0.0086 -0.0034
  727SOL    HW111741   2.984   4.384   0.358  0.1802 -0.0252  0.1236
  727SOL    HW211742   2.933   4.303   0.490  1.0612 -0.0343  0.4601
  729SOL     OW11743   4.573   1.755   2.222 -0.1166  0.0240  0.0337
  729SOL    HW111744   4.532   1.802   2.144 -1.9991 -1.0491  0.3139
  729SOL    HW211745   4.500   1.708   2.274  1.6068 -2.8541 -0.0519
  731SOL     OW11746   9.516   3.917   2.157  0.1531 -0.2908  0.2528
  731SOL    HW111747   9.469   3.964   2.083 -0.6616  0.5324  1.2882
  731SOL    HW211748   9.462   3.923   2.241  1.2172 -0.9331  1.0010
  734SOL     OW11749   3.275   2.655   1.181  0.0659 -0.8984  0.4384
  734SOL    HW111750   3.316   2.709   1.255 -0.5399 -0.1994  0.2655
  734SOL    HW211751   3.176   2.658   1.189  0.0056 -1.0867 -0.2308
  735SOL     OW11752   0.568   4.581   2.088 -0.4857  0.7567  0.0355
  735SOL    HW111753   0.666   4.582   2.111 -0.4942  0.4352  0.0793
  735SOL    HW211754   0.550   4.650   2.018 -0.1340  0.4270 -0.3773
  736SOL     OW11755   3.548   5.032   2.266  0.0723  0.6949  0.1480
  736SOL    HW111756   3.551   4.983   2.179  0.3371 -0.4985  0.8301
  736SOL    HW211757   3.490   4.983   2.331  1.2285  0.6828  1.1861
  737SOL     OW11758   1.764   6.060   1.702 -0.4035  0.2759 -0.1640
  737SOL    HW111759   1.853   6.082   1.743 -1.4199  1.7645  1.3125
  737SOL    HW211760   1.754   6.111   1.617 -0.1978  0.8172  0.1294
  738SOL     OW11761   2.659   1.230   1.640 -0.5235  0.0945  0.1362
  738SOL    HW111762   2.599   1.225   1.561  0.0776  1.2431 -0.4217
  738SOL    HW211763   2.626   1.302   1.702  0.3981  0.9257 -0.3119
  740SOL     OW11764   1.804   4.277   1.809  0.7087  0.5987  0.0387
  740SOL    HW111765   1.864   4.357   1.815  1.2410  0.1459  0.7662
  740SOL    HW211766   1.845   4.209   1.749  0.9276  0.2897  0.5343
  742SOL     OW11767   3.270   3.609   1.620  0.5180 -0.3730  0.3168
  742SOL    HW111768   3.302   3.542   1.687  0.3662 -2.2535 -1.4452
  742SOL    HW211769   3.338   3.620   1.548 -0.0876  0.2723 -0.1632
  743SOL     OW11770   3.374  -0.168   0.556  0.2618 -0.2150 -0.1055
  743SOL    HW111771   3.404  -0.075   0.536  2.0877 -0.6773  0.4323
  743SOL    HW211772   3.379  -0.183   0.655  0.1851 -0.9594 -0.2157
  744SOL     OW11773   9.741   4.257   2.231  0.4100 -0.5460 -0.2879
  744SOL    HW111774   9.711   4.345   2.193 -1.8466 -0.6103  1.2198
  744SOL    HW211775   9.773   4.270   2.325 -0.8500 -1.4498  0.2892
  745SOL     OW11776   4.747   2.856   1.703  0.0228  0.0309  0.1930
  745SOL    HW111777   4.670   2.823   1.757 -0.1253  0.3357  0.1720
  745SOL    HW211778   4.787   2.781   1.652 -0.2192 -0.1408  0.2559
  746SOL     OW11779   0.840   3.186   0.594  0.1689  0.5762 -0.2848
  746SOL    HW111780   0.938   3.205   0.603  0.1176  1.3818 -1.3183
  746SOL    HW211781   0.788   3.265   0.625 -0.1096  0.8596 -1.4317
  747SOL     OW11782   1.180   4.024   0.406 -0.3434 -0.3196  0.6136
  747SOL    HW111783   1.247   3.961   0.366  0.0604  1.1401 -1.0810
  747SOL    HW211784   1.088   3.985   0.398  0.0900 -1.4830  1.2134
  748SOL     OW11785   2.128   1.835   0.702 -0.2632  0.4849 -0.3212
  748SOL    HW111786   2.208   1.895   0.714 -0.1857  0.0697  1.3817
  748SOL    HW211787   2.047   1.891   0.685  0.2666  0.9401 -1.4062
  750SOL     OW11788   3.362   0.632   2.138 -0.2638 -0.1018  0.1064
  750SOL    HW111789   3.290   0.603   2.201 -1.5337 -1.2557 -1.8373
  750SOL    HW211790   3.340   0.601   2.046  3.1361 -1.2103 -0.4094
  752SOL     OW11791   2.925   7.734   1.607  0.3771 -0.3213 -0.1821
  752SOL    HW111792   2.838   7.761   1.567  0.1982 -0.2638  0.2442
  752SOL    HW211793   2.910   7.677   1.688  0.6995  0.6060  0.5537
  753SOL     OW11794   2.137   4.154   1.770 -0.2241  0.1015 -0.3137
  753SOL    HW111795   2.190   4.090   1.715  0.4254 -1.0608  1.6273
  753SOL    HW211796   2.128   4.240   1.721  1.3374 -0.5194 -1.7343
  754SOL     OW11797   3.149   5.238   1.930 -0.1355 -0.0774 -0.4930
  754SOL    HW111798   3.076   5.184   1.971 -0.8150  1.6512  0.6123
  754SOL    HW211799   3.163   5.209   1.835 -2.0019 -0.6856 -0.6005
  756SOL     OW11800   2.206   2.721   1.079 -0.1260  0.1109 -0.5722
  756SOL    HW111801   2.130   2.709   1.016 -0.1925 -4.0360  0.1520
  756SOL    HW211802   2.292   2.722   1.028 -0.3669 -0.0968 -0.9783
  759SOL     OW11803   0.835   6.061   2.291  0.5207  0.3959 -0.0827
  759SOL    HW111804   0.805   5.978   2.339  0.4569 -1.0171 -2.4733
  759SOL    HW211805   0.762   6.093   2.231  1.5610  0.5031 -1.3120
  761SOL     OW11806   0.597   3.658   0.388 -0.6489 -0.0187 -0.1448
  761SOL    HW111807   0.656   3.610   0.323 -1.8077  0.0607 -1.2770
  761SOL    HW211808   0.577   3.750   0.353 -0.8949  0.1919  0.5493
  763SOL     OW11809   1.862   8.704   1.034  0.0507  0.3282  0.0509
  763SOL    HW111810   1.823   8.684   0.944 -2.6901 -2.0444  1.6832
  763SOL    HW211811   1.800   8.763   1.085 -0.2888 -1.4472  1.7674
  764SOL     OW11812   9.891   5.872   1.871 -0.0302  0.1288  0.1455
  764SOL    HW111813   9.984   5.854   1.904 -0.2565 -3.7555 -1.0569
  764SOL    HW211814   9.895   5.932   1.791  1.5917 -1.2355 -0.8274
  765SOL     OW11815   3.374   1.861   1.265 -0.1090  0.2453  0.0077
  765SOL    HW111816   3.277   1.884   1.266  0.3417  2.2121  0.9440
  765SOL    HW211817   3.410   1.874   1.173 -0.1594  2.0532  0.2358
  766SOL     OW11818   4.411   8.251   0.877 -0.1623 -0.0399 -0.5513
  766SOL    HW111819   4.420   8.270   0.779  0.4384  0.0115 -0.4868
  766SOL    HW211820   4.483   8.299   0.927 -1.8556  1.8710  0.1531
  767SOL     OW11821   1.885   8.244   0.990 -0.5588  0.3307  0.3697
  767SOL    HW111822   1.803   8.294   0.963  0.3916  1.0880 -1.2151
  767SOL    HW211823   1.927   8.288   1.069 -0.2880  1.4864 -0.3939
  768SOL     OW11824   4.325   9.244   0.963 -0.6436 -0.2911  0.1451
  768SOL    HW111825   4.328   9.335   1.005  1.3141 -0.3919  0.2311
  768SOL    HW211826   4.364   9.248   0.872  0.6400 -1.2988  0.6383
  769SOL     OW11827   3.385   1.636   0.552  0.4876  0.7917  0.2198
  769SOL    HW111828   3.452   1.708   0.533  1.9155  0.2951  3.0496
  769SOL    HW211829   3.359   1.639   0.648 -0.3082 -1.7472  0.1353
  770SOL     OW11830   1.701   5.278   1.580 -0.6372  0.7270  0.1864
  770SOL    HW111831   1.709   5.182   1.553  0.4892  0.7992  0.2098
  770SOL    HW211832   1.707   5.286   1.679  2.6338  1.0788  0.0249
  771SOL     OW11833   3.215   6.400   1.850  0.0161  0.2095 -0.3776
  771SOL    HW111834   3.249   6.450   1.929 -1.3134  0.5066  0.0034
  771SOL    HW211835   3.250   6.306   1.853  0.5522  0.4235  0.1743
  772SOL     OW11836   5.384   2.584   0.690 -0.2873 -0.1508  0.1831
  772SOL    HW111837   5.341   2.494   0.682  0.2334 -0.4552  0.7599
  772SOL    HW211838   5.373   2.617   0.784  0.5388 -0.1206  0.2671
  773SOL     OW11839   4.732   0.588   1.054 -0.4027  0.3725 -0.3258
  773SOL    HW111840   4.823   0.554   1.077 -0.4350  1.1315  0.9735
  773SOL    HW211841   4.723   0.595   0.955  0.8630  0.0645 -0.4716
  774SOL     OW11842   3.616   3.781   2.017  0.0192 -0.0086 -0.1514
  774SOL    HW111843   3.642   3.835   1.938  0.7482 -0.9693 -0.5775
  774SOL    HW211844   3.541   3.719   1.992 -1.1548  1.1196  0.4635
  775SOL     OW11845   4.119   0.824   1.353  0.1485 -0.8789  0.0795
  775SOL    HW111846   4.162   0.811   1.264 -1.5364 -1.9599 -0.6037
  775SOL    HW211847   4.168   0.771   1.423  1.3288 -0.2108 -0.2219
  776SOL     OW11848   3.265   4.102   0.634  0.0253  0.1161  0.2378
  776SOL    HW111849   3.205   4.022   0.644  0.4477 -0.3940 -1.2085
  776SOL    HW211850   3.360   4.072   0.638  0.1872  0.6571  0.4522
  777SOL     OW11851   3.347   4.724   1.087 -0.7321 -0.5840  0.0204
  777SOL    HW111852   3.312   4.811   1.054 -0.8214 -1.0703 -1.1656
  777SOL    HW211853   3.420   4.692   1.027  0.5813 -0.4254  1.4984
  778SOL     OW11854   2.932   1.213   0.830 -0.3682  0.1411  0.5035
  778SOL    HW111855   2.972   1.154   0.760  1.8269  1.6376  0.4536
  778SOL    HW211856   2.971   1.191   0.919  1.5709  2.4427  0.2654
  780SOL     OW11857   2.873   8.609   0.598 -0.2202 -0.6056 -0.4435
  780SOL    HW111858   2.860   8.575   0.691  2.2070  0.8373  0.4451
  780SOL    HW211859   2.820   8.693   0.586 -0.3981 -0.6992 -0.3271
  781SOL     OW11860   1.216   5.436   1.888  0.3915 -0.0461  0.4149
  781SOL    HW111861   1.306   5.445   1.845  0.4637 -0.6669  0.4319
  781SOL    HW211862   1.222   5.374   1.966 -0.2900 -1.0129 -0.2879
  782SOL     OW11863   1.603   4.360   0.771  0.2584  0.4150  0.1299
  782SOL    HW111864   1.542   4.326   0.699  0.6759 -0.6784  0.2752
  782SOL    HW211865   1.684   4.401   0.730  1.2430 -1.6166 -0.0370
  784SOL     OW11866   2.723  -0.141   2.243  0.4918 -0.0347  0.5147
  784SOL    HW111867   2.659  -0.186   2.182  0.5661  1.3167 -0.5817
  784SOL    HW211868   2.805  -0.197   2.253  0.7564  0.0404 -1.1553
  786SOL     OW11869   4.844   1.214   0.792  0.0438 -0.5206  0.0153
  786SOL    HW111870   4.813   1.234   0.884 -0.3538 -1.7238  0.1485
  786SOL    HW211871   4.778   1.155   0.746 -0.7524  1.6902 -1.7375
  787SOL     OW11872   1.610   3.287   1.479 -0.2938 -0.0354 -0.1372
  787SOL    HW111873   1.702   3.287   1.518 -0.3597 -0.6704  0.0197
  787SOL    HW211874   1.612   3.337   1.392 -0.2513  1.7686  0.8792
  788SOL     OW11875   2.090   6.716   0.901 -0.3222 -0.4444 -0.4232
  788SOL    HW111876   2.160   6.786   0.883  0.7810 -1.3046  0.3934
  788SOL    HW211877   2.004   6.760   0.924  0.2083  0.6539 -0.4860
  789SOL     OW11878   0.475   3.422   0.419  0.3703  0.0093  0.2365
  789SOL    HW111879   0.486   3.387   0.512  3.2390  1.8434  0.6568
  789SOL    HW211880   0.488   3.521   0.419 -0.6297  0.1802 -1.9833
  790SOL     OW11881   2.649   1.793   0.581  0.4441  0.2482 -0.0293
  790SOL    HW111882   2.565   1.821   0.535  0.5420 -0.7735 -0.8479
  790SOL    HW211883   2.706   1.741   0.517  1.8505  1.2222  0.4131
  791SOL     OW11884   4.386   4.555   0.487 -0.1128 -0.1889  0.2204
  791SOL    HW111885   4.463   4.493   0.472  0.9788  0.9439  1.0521
  791SOL    HW211886   4.391   4.591   0.580 -1.4076  0.2402  0.1302
  792SOL     OW11887   1.856   1.976   0.425 -0.0223 -0.5101 -0.2473
  792SOL    HW111888   1.811   2.000   0.511 -0.7748  0.6081 -0.9337
  792SOL    HW211889   1.886   1.881   0.428 -2.4204 -1.2927  0.2625
  793SOL     OW11890   3.966   8.089   0.802 -0.2503  0.2076  0.0036
  793SOL    HW111891   3.891   8.152   0.821 -1.3574 -0.7449 -1.0834
  793SOL    HW211892   4.002   8.052   0.887 -1.6318 -0.0162  0.5039
  794SOL     OW11893   9.173   4.795   2.082  0.2032  0.2493 -0.6709
  794SOL    HW111894   9.178   4.772   2.179 -0.9094 -0.9925 -0.8928
  794SOL    HW211895   9.266   4.802   2.045  0.6312  1.0531  0.5525
  795SOL     OW11896   0.917   4.652   1.106  0.1028 -0.1732  0.8722
  795SOL    HW111897   0.915   4.732   1.047 -0.6822 -0.0475  1.0609
  795SOL    HW211898   0.829   4.642   1.152 -0.0287 -1.5226  0.3526
  796SOL     OW11899   2.072   5.453   1.183 -0.6191 -0.1229 -0.2451
  796SOL    HW111900   2.109   5.398   1.108 -0.2714 -0.4272  0.1452
  796SOL    HW211901   2.077   5.401   1.268  0.3715  0.7734  0.2589
  798SOL     OW11902   1.957   2.248   1.831  0.0581 -0.1878  0.4144
  798SOL    HW111903   1.920   2.225   1.921 -1.0259  0.0389  0.0291
  798SOL    HW211904   1.889   2.299   1.779  1.1659  0.8369 -0.0440
  799SOL     OW11905   2.511   4.952   0.326  0.0944 -0.1574 -0.3109
  799SOL    HW111906   2.553   4.862   0.341  2.3614  0.7930 -0.8360
  799SOL    HW211907   2.511   5.003   0.412 -1.6423 -0.8081  0.1046
  801SOL     OW11908   4.045   5.573   2.090  0.2310 -0.2738 -0.3361
  801SOL    HW111909   4.074   5.523   2.171 -1.5156 -1.5597 -0.4906
  801SOL    HW211910   4.004   5.660   2.117  1.0128 -0.0176  0.0552
  804SOL     OW11911   2.011   2.512   0.850 -0.1113  0.2574 -0.4305
  804SOL    HW111912   1.949   2.451   0.801 -1.6632  0.1061  1.6419
  804SOL    HW211913   1.987   2.607   0.830  0.4839  0.1964 -1.4440
  806SOL     OW11914   2.285   5.995   0.911 -0.1577  0.4963 -0.0295
  806SOL    HW111915   2.325   5.993   0.819 -1.3583  0.4381 -0.5656
  806SOL    HW211916   2.334   5.932   0.971  0.5459  0.4284 -0.6779
  807SOL     OW11917   2.813   6.385   1.034  0.4911 -0.6016 -0.0294
  807SOL    HW111918   2.902   6.368   1.075  0.9323 -2.4583 -1.6648
  807SOL    HW211919   2.741   6.360   1.098  1.1611 -2.4213  0.0228
  808SOL     OW11920   1.801   3.820   1.771  0.2797  0.4441  0.5601
  808SOL    HW111921   1.825   3.837   1.676 -1.1683  0.1877  0.1312
  808SOL    HW211922   1.846   3.887   1.830  2.9136 -0.6989 -0.0741
  809SOL     OW11923   0.770   4.212   1.707  0.4351  0.1603 -0.0703
  809SOL    HW111924   0.713   4.188   1.628  1.7284  1.1331 -1.3182
  809SOL    HW211925   0.863   4.231   1.676  1.0434  0.1943  1.7493
  810SOL     OW11926   3.669   4.460   0.366 -0.0872  0.2072  0.3163
  810SOL    HW111927   3.758   4.425   0.395 -0.5742 -1.8532 -0.5818
  810SOL    HW211928   3.596   4.403   0.403 -0.9658  0.8871 -0.3128
  811SOL     OW11929   3.436   0.875   1.536 -0.1712  0.0891 -0.2181
  811SOL    HW111930   3.444   0.944   1.464  1.5593  0.1925  0.0486
  811SOL    HW211931   3.344   0.836   1.534 -0.2797  0.3620 -2.2271
  813SOL     OW11932   3.375   5.238   0.909 -0.0245 -0.1338  0.2579
  813SOL    HW111933   3.449   5.266   0.970  0.1719 -0.2895  0.0885
  813SOL    HW211934   3.312   5.315   0.895  0.2516  0.0759  0.1818
  814SOL     OW11935   3.826   0.467   1.115 -0.8074  0.5832  0.7299
  814SOL    HW111936   3.739   0.442   1.158 -0.3243 -0.0525  1.3595
  814SOL    HW211937   3.869   0.541   1.167  0.4222 -1.0948  2.1854
  816SOL     OW11938   2.938   0.628   0.766 -0.3069 -0.2809  0.4469
  816SOL    HW111939   2.857   0.646   0.822  0.0114 -0.5290  0.9944
  816SOL    HW211940   3.009   0.586   0.823 -0.0274 -0.6586 -0.1743
  818SOL     OW11941   3.726   4.465   1.175  0.0502  0.1741 -0.2927
  818SOL    HW111942   3.648   4.516   1.212  0.4557  0.7050 -0.1619
  818SOL    HW211943   3.763   4.405   1.246 -0.7487 -0.6924 -0.5999
  819SOL     OW11944   4.804   4.435   1.937  0.1495 -0.1410  0.0565
  819SOL    HW111945   4.830   4.339   1.926  0.9465  0.0377  0.3143
  819SOL    HW211946   4.705   4.443   1.938  0.0777 -0.8039 -1.2981
  820SOL     OW11947   2.146   8.364   1.477  0.0505 -0.0753  0.1688
  820SOL    HW111948   2.180   8.430   1.410 -1.5043  1.4684  0.8714
  820SOL    HW211949   2.178   8.389   1.568 -1.5203  0.3990  0.6002
  821SOL     OW11950   2.236   2.492   0.726  0.1062  0.0998 -0.3355
  821SOL    HW111951   2.219   2.490   0.628  0.7716 -0.5659 -0.4508
  821SOL    HW211952   2.149   2.489   0.776 -0.1992 -0.8265 -0.9040
  823SOL     OW11953   4.600   3.981   1.504 -0.4127 -0.4006  0.1284
  823SOL    HW111954   4.662   3.930   1.445  0.4872 -1.0109  1.5662
  823SOL    HW211955   4.650   4.017   1.583 -1.3690  1.3252 -0.0122
  824SOL     OW11956   1.991   0.857   2.235 -0.1243  0.3400  0.1393
  824SOL    HW111957   2.006   0.938   2.179  0.9639  1.9940  2.7387
  824SOL    HW211958   1.912   0.872   2.294  1.3527  0.4037  2.1510
  825SOL     OW11959   3.343   2.665   2.044  0.3194 -0.1241 -0.2655
  825SOL    HW111960   3.335   2.717   2.129  0.9951  0.6078 -0.6429
  825SOL    HW211961   3.281   2.586   2.047  0.2462 -0.0286  0.8442
  826SOL     OW11962   2.047   4.508   0.953  0.1127 -0.2862 -0.4486
  826SOL    HW111963   2.043   4.466   0.862 -0.4310 -1.1500 -0.0389
  826SOL    HW211964   1.970   4.474   1.008  1.0506 -0.5981  0.6820
  828SOL     OW11965   2.451   1.517   0.704 -0.2819 -0.2810  0.1030
  828SOL    HW111966   2.419   1.440   0.650  0.1032 -0.6643  0.4103
  828SOL    HW211967   2.477   1.593   0.644 -0.6473 -0.3983 -0.1996
  829SOL     OW11968   5.633   3.207   1.137  0.4481 -0.0862 -0.2223
  829SOL    HW111969   5.732   3.197   1.123  0.9491  0.4359  2.6734
  829SOL    HW211970   5.611   3.304   1.149 -0.2361 -0.3015  0.2858
  830SOL     OW11971   1.058   3.280   1.807 -0.5916 -0.1331  0.0248
  830SOL    HW111972   1.149   3.293   1.847 -1.0050  1.2598  0.5417
  830SOL    HW211973   1.063   3.297   1.708  0.5401 -4.0967 -0.6942
  832SOL     OW11974   3.837   3.859   0.476 -0.2963 -0.0667  0.5440
  832SOL    HW111975   3.786   3.926   0.530 -0.4405  0.2390  0.0304
  832SOL    HW211976   3.857   3.897   0.386 -0.4431 -0.7442  0.2257
  833SOL     OW11977   2.403   3.432   1.532 -0.0137 -0.0702 -0.2885
  833SOL    HW111978   2.307   3.409   1.515 -0.6563  2.1764  0.0922
  833SOL    HW211979   2.462   3.359   1.497 -1.9668 -3.0038  2.2478
  834SOL     OW11980   9.995   3.981   0.381 -0.3306 -0.0481  0.3614
  834SOL    HW111981   9.923   3.912   0.392 -2.0122  1.7997  1.2193
  834SOL    HW211982   9.955   4.072   0.385  2.3350  1.0789  2.9444
  835SOL     OW11983   1.364   7.097   0.855  0.3056  0.2337  0.4593
  835SOL    HW111984   1.447   7.076   0.906 -0.1777  0.0442  1.1772
  835SOL    HW211985   1.376   7.071   0.759 -0.1111 -3.0004  1.2213
  837SOL     OW11986   3.910   1.375   1.478 -0.0324  0.1833  0.4308
  837SOL    HW111987   3.908   1.388   1.577 -1.5584 -0.8941  0.5604
  837SOL    HW211988   3.869   1.455   1.433 -0.7699 -0.0165  0.7460
  838SOL     OW11989   4.127   3.918   0.338  0.3702  0.8735  0.2991
  838SOL    HW111990   4.041   3.910   0.287 -0.3455 -0.1893  1.6581
  838SOL    HW211991   4.126   4.002   0.392  0.0717  0.7340  0.5129
  839SOL     OW11992   4.443   4.004   1.984  0.2772  0.3034 -0.0845
  839SOL    HW111993   4.395   3.929   1.938 -1.0746  0.8622  0.3929
  839SOL    HW211994   4.489   3.969   2.066  0.9097 -0.2856 -0.6849
  840SOL     OW11995   2.726   4.973   1.768 -0.0679  0.4299 -0.3563
  840SOL    HW111996   2.782   4.932   1.696 -0.7555  0.7456 -1.0650
  840SOL    HW211997   2.650   4.911   1.790  0.5412  0.0095  0.5950
  841SOL     OW11998   4.367   8.875   1.099  0.4093  0.5197  0.1069
  841SOL    HW111999   4.367   8.860   1.198 -0.6752  1.5989  0.2792
  841SOL    HW212000   4.460   8.899   1.070  0.8364 -0.2631  0.7748
  842SOL     OW12001   4.062   2.680   1.915 -0.3473  0.3286 -0.5654
  842SOL    HW112002   3.973   2.669   1.960 -0.8556  0.6747 -1.4717
  842SOL    HW212003   4.059   2.759   1.855  0.7666  0.6767 -0.1664
  843SOL     OW12004   2.796   1.094   1.326 -0.0883 -0.0336 -0.5182
  843SOL    HW112005   2.809   1.086   1.227  2.5743  0.6403 -0.2536
  843SOL    HW212006   2.755   1.182   1.347 -3.0898 -1.1947 -1.1754
  844SOL     OW12007   3.897   3.088   0.933  0.4069 -0.0953 -0.3208
  844SOL    HW112008   3.918   3.186   0.931  3.1302 -0.5683  1.2685
  844SOL    HW212009   3.868   3.063   1.025 -2.7614 -0.3838 -1.3341
  846SOL     OW12010   3.750   8.609   1.205  0.1748  0.9806 -0.3386
  846SOL    HW112011   3.815   8.533   1.213 -1.0938 -0.1647 -0.6838
  846SOL    HW212012   3.775   8.666   1.127  0.2625  0.0331 -1.0158
  848SOL     OW12013   3.251   9.259   1.461 -0.0371  0.3333  0.2175
  848SOL    HW112014   3.176   9.253   1.527 -1.0627  1.0966 -0.8682
  848SOL    HW212015   3.280   9.355   1.452  0.0446  0.2468 -0.4823
  850SOL     OW12016   4.134   2.572   0.931 -0.3789 -0.3050 -0.0182
  850SOL    HW112017   4.037   2.564   0.954 -0.2504 -0.7376  0.3624
  850SOL    HW212018   4.179   2.484   0.945  0.2020  0.0614  0.4366
  852SOL     OW12019   0.569   4.972   0.789  0.2155  0.2174 -0.3115
  852SOL    HW112020   0.603   5.039   0.723  0.3370 -0.2430 -0.7193
  852SOL    HW212021   0.482   5.004   0.826  1.2552  1.5738  1.0104
  853SOL     OW12022   9.575   5.309   1.045  0.5084 -0.1634 -0.1695
  853SOL    HW112023   9.625   5.249   0.982  1.7960  0.3027  0.3824
  853SOL    HW212024   9.604   5.292   1.139  0.2545  0.7029  0.0790
  854SOL     OW12025   2.775   7.822   0.451 -0.0456 -0.1847  0.1742
  854SOL    HW112026   2.675   7.825   0.445  0.1373  2.7895 -2.7994
  854SOL    HW212027   2.810   7.754   0.387 -0.1416 -1.2673  1.2563
  855SOL     OW12028   3.213   3.272   1.711 -0.3305  0.2860 -0.0087
  855SOL    HW112029   3.257   3.183   1.724 -1.0974 -0.0732  0.1540
  855SOL    HW212030   3.273   3.344   1.746  0.9825 -0.0278 -1.5668
  856SOL     OW12031   0.745   5.196   1.926 -0.8156 -0.3771 -0.2745
  856SOL    HW112032   0.784   5.140   1.999 -1.3125 -1.5657 -0.9032
  856SOL    HW212033   0.649   5.217   1.948 -0.5938  0.3491  0.0217
  857SOL     OW12034   4.457   2.556   0.662 -0.3418  0.7100  0.4228
  857SOL    HW112035   4.402   2.562   0.579  0.2213  2.1598  0.1406
  857SOL    HW212036   4.525   2.629   0.662  1.4042 -0.8726  0.9069
  859SOL     OW12037   9.671   4.746   1.422  0.0241 -0.0527 -0.1971
  859SOL    HW112038   9.653   4.681   1.347  0.9633 -0.8943  0.3023
  859SOL    HW212039   9.730   4.703   1.490  0.0093  1.0691  0.5328
  860SOL     OW12040   2.315   4.916   1.922  0.6690 -0.1705 -0.6192
  860SOL    HW112041   2.235   4.946   1.871 -0.5399 -1.3412  0.5728
  860SOL    HW212042   2.368   4.996   1.950 -1.5478  0.7772  0.9579
  861SOL     OW12043   9.210   3.855   1.137  0.1317  0.0503 -0.3076
  861SOL    HW112044   9.280   3.843   1.207  1.3838  0.2983 -1.4947
  861SOL    HW212045   9.210   3.950   1.105  0.5757 -0.3935 -1.6684
  865SOL     OW12046   0.496   2.993   0.477  0.4655  0.1266  0.3879
  865SOL    HW112047   0.460   3.065   0.418 -2.2886 -1.3735  0.2045
  865SOL    HW212048   0.535   2.920   0.421 -1.0778 -0.7398  0.4118
  866SOL     OW12049   3.223   0.449   0.400  0.6006  0.7582 -0.1071
  866SOL    HW112050   3.262   0.532   0.359  2.1993 -0.0680 -0.3020
  866SOL    HW212051   3.297   0.389   0.431 -0.5486  0.3524  1.9792
  867SOL     OW12052   2.057   0.130   2.082  0.4103 -0.4209 -0.3367
  867SOL    HW112053   2.024   0.094   2.169 -0.6946 -0.4490 -0.7681
  867SOL    HW212054   2.028   0.070   2.007  1.0536 -0.2041 -0.7663
  869SOL     OW12055   5.358   3.199   1.112  0.5955 -0.8168 -0.5029
  869SOL    HW112056   5.315   3.143   1.041 -0.7578 -0.6496  0.1831
  869SOL    HW212057   5.455   3.175   1.119  0.3064 -2.1874 -1.0755
  870SOL     OW12058   1.867   8.086   1.595  0.1146 -0.0400  0.9930
  870SOL    HW112059   1.915   8.170   1.622  0.0760  0.0459  0.8025
  870SOL    HW212060   1.775   8.086   1.635  1.0578 -1.2767  3.2373
  872SOL     OW12061   4.294   2.535   0.393 -0.0152 -0.1947 -0.3978
  872SOL    HW112062   4.349   2.485   0.326  0.9272  1.9154 -1.2702
  872SOL    HW212063   4.250   2.613   0.348  1.1852  1.6693  1.5710
  873SOL     OW12064   1.360   5.412   1.130 -0.1420  0.7363  0.2127
  873SOL    HW112065   1.423   5.344   1.168 -1.0321  1.3700  2.9192
  873SOL    HW212066   1.273   5.368   1.106  0.0382  0.5477 -0.1132
  874SOL     OW12067   4.333   2.265   1.907 -0.2157  0.1666 -1.2308
  874SOL    HW112068   4.263   2.247   1.976  0.7037 -1.4326 -0.6984
  874SOL    HW212069   4.355   2.363   1.907 -0.3724  0.2190  0.6006
  876SOL     OW12070   3.228   4.204   1.343 -0.1821 -0.2506  0.3343
  876SOL    HW112071   3.237   4.294   1.300 -0.6100 -0.3856 -0.0433
  876SOL    HW212072   3.317   4.174   1.376  0.1476 -0.1367 -0.4517
  878SOL     OW12073   2.384   5.051   0.590 -0.0082  0.2706 -0.2302
  878SOL    HW112074   2.415   5.116   0.659  0.8389 -0.2650 -0.0870
  878SOL    HW212075   2.286   5.060   0.576  0.4468  3.1524 -1.8871
  879SOL     OW12076   0.899   4.133   0.685  0.0686  0.1500  0.0006
  879SOL    HW112077   0.959   4.094   0.755 -0.4565  0.3168  0.5410
  879SOL    HW212078   0.870   4.224   0.712  0.8597  0.7169 -1.0140
  880SOL     OW12079   2.987   2.298   2.368  0.4447 -0.2127 -0.0040
  880SOL    HW112080   2.982   2.382   2.422  1.3111  0.2870 -0.6776
  880SOL    HW212081   3.064   2.305   2.304  0.5838 -1.5590  0.0050
  881SOL     OW12082   3.946   3.599   0.507 -0.0016 -0.1082  0.4271
  881SOL    HW112083   4.028   3.577   0.454  0.6949  0.0428  1.4051
  881SOL    HW212084   3.923   3.696   0.493  1.1881  0.3804  1.6981
  882SOL     OW12085   4.584   2.659   1.430 -0.8991 -0.3231  0.6348
  882SOL    HW112086   4.518   2.630   1.361 -0.4052  0.0313  0.0121
  882SOL    HW212087   4.561   2.616   1.518 -1.3249 -1.0514  0.1744
  884SOL     OW12088   2.909   5.620   1.590 -0.3570  0.0204 -0.5316
  884SOL    HW112089   2.993   5.663   1.623 -0.2291 -1.1783  0.7951
  884SOL    HW212090   2.930   5.564   1.510  0.1482 -0.3288 -0.1655
  885SOL     OW12091   2.361   1.092   1.113 -0.2042  0.3736  0.1336
  885SOL    HW112092   2.453   1.068   1.082 -0.2227  1.4715 -0.8215
  885SOL    HW212093   2.317   1.011   1.152  0.2031 -0.8423 -1.8224
  887SOL     OW12094   3.508   5.686   1.877 -0.4697 -0.3613 -0.1008
  887SOL    HW112095   3.418   5.690   1.920  0.4154  0.3055  1.7287
  887SOL    HW212096   3.535   5.591   1.863  0.5456 -0.6863  3.6684
  888SOL     OW12097   2.157   7.025   1.048 -0.0263 -0.5605 -0.3746
  888SOL    HW112098   2.124   7.018   1.143 -0.5704 -0.3109 -0.5429
  888SOL    HW212099   2.079   7.023   0.986  0.2455  0.5884 -0.7549
  889SOL     OW12100   4.991   2.797   2.027  0.0414  0.3211  0.5914
  889SOL    HW112101   4.982   2.881   1.974  0.1252  0.5486  0.9355
  889SOL    HW212102   4.902   2.751   2.034 -0.1200  0.6776  0.8900
  890SOL     OW12103   1.267   6.533   2.062 -0.1811 -0.0018  0.2524
  890SOL    HW112104   1.211   6.567   1.987  0.1724 -0.4988 -0.2408
  890SOL    HW212105   1.264   6.433   2.063 -1.8385  0.0204  2.1578
  891SOL     OW12106   1.871   5.568   2.198 -0.5322  0.3912  0.1555
  891SOL    HW112107   1.913   5.478   2.216 -1.6339 -0.3326 -0.8266
  891SOL    HW212108   1.905   5.634   2.265  1.3188 -0.4372  0.0777
  893SOL     OW12109   0.961   6.215   1.506  0.6434  0.2971 -0.5739
  893SOL    HW112110   1.056   6.238   1.482  0.3690 -0.5392 -2.6309
  893SOL    HW212111   0.902   6.291   1.480  0.3550 -0.5765 -2.5703
  895SOL     OW12112   4.344   1.152   0.758 -0.1421  0.1186 -0.0981
  895SOL    HW112113   4.390   1.163   0.670  1.1568  2.7123  0.8430
  895SOL    HW212114   4.247   1.175   0.748 -0.8475 -3.2216 -1.6078
  896SOL     OW12115   4.067   2.723   2.217  0.1799 -0.0426 -0.1401
  896SOL    HW112116   4.029   2.816   2.215 -0.4768 -0.2943  0.4715
  896SOL    HW212117   4.093   2.696   2.124 -2.3954 -0.3758 -0.8003
  900SOL     OW12118   3.892   0.699   1.267 -0.2007  0.0198 -0.2321
  900SOL    HW112119   3.970   0.758   1.289 -0.2617  0.6783 -1.6853
  900SOL    HW212120   3.810   0.755   1.261 -0.2830 -0.2261 -1.4801
  901SOL     OW12121  10.063   5.196   1.370 -0.4042 -0.0524  0.6828
  901SOL    HW112122  10.121   5.257   1.424  0.9607 -2.5452  2.1224
  901SOL    HW212123  10.012   5.136   1.432 -0.7855 -1.2101 -0.7297
  902SOL     OW12124   4.751   3.002   0.365 -0.5194 -0.2978 -0.0788
  902SOL    HW112125   4.708   3.059   0.435 -0.7924  0.5553 -0.9224
  902SOL    HW212126   4.847   2.985   0.390 -0.7012 -0.2653  0.6513
  903SOL     OW12127   1.956   2.542   1.984 -0.3455 -0.4769  0.0591
  903SOL    HW112128   2.026   2.528   1.915  0.7194 -0.2359  1.0857
  903SOL    HW212129   1.936   2.455   2.029 -0.5375 -0.4953 -0.0582
  905SOL     OW12130   4.819   3.689   1.702 -0.2147 -0.3386  0.2926
  905SOL    HW112131   4.844   3.623   1.773  0.1440 -1.1329 -0.5571
  905SOL    HW212132   4.901   3.712   1.648 -0.8015 -1.0655 -0.9448
  906SOL     OW12133   4.698   4.289   1.654  0.5563  0.3179 -0.0124
  906SOL    HW112134   4.691   4.388   1.639  1.0906  0.4729  0.7237
  906SOL    HW212135   4.612   4.255   1.693 -0.5116  0.0625 -2.5048
  907SOL     OW12136   1.344   5.636   0.840  0.4346 -0.7489  0.2245
  907SOL    HW112137   1.325   5.647   0.938  1.2049 -0.0912  0.3144
  907SOL    HW212138   1.262   5.656   0.787  0.1176 -0.7233  0.7267
  908SOL     OW12139   4.247   1.437   2.178  0.3281 -0.1205  0.5236
  908SOL    HW112140   4.317   1.489   2.227  0.6713 -0.7982  0.7570
  908SOL    HW212141   4.159   1.483   2.187  0.8889  1.1654 -0.4369
  910SOL     OW12142   5.073   3.167   1.212  0.4328 -0.0843 -0.6201
  910SOL    HW112143   5.165   3.205   1.208 -0.5658  2.4035 -0.9201
  910SOL    HW212144   5.058   3.124   1.301  0.5071  3.1872  1.0239
  913SOL     OW12145   5.489   3.803   0.521 -0.1628  0.1511 -0.3079
  913SOL    HW112146   5.401   3.806   0.473 -0.6244 -0.1435  0.5067
  913SOL    HW212147   5.543   3.884   0.496 -1.4876  1.3711  0.7293
  914SOL     OW12148   2.806   1.628   1.206  0.0037 -0.1968  0.0137
  914SOL    HW112149   2.755   1.714   1.208  1.3674  0.6005  1.1804
  914SOL    HW212150   2.847   1.616   1.116 -0.3607  0.2675 -0.2208
  915SOL     OW12151   1.497   9.386   1.138 -0.3396 -0.3381  0.1969
  915SOL    HW112152   1.405   9.349   1.155 -1.2594  1.4145 -0.7525
  915SOL    HW212153   1.566   9.323   1.174 -1.9195 -1.5439  1.1789
  916SOL     OW12154  10.346   3.307   1.322  0.6874 -0.1208  0.1242
  916SOL    HW112155  10.352   3.235   1.252 -0.3388 -1.3405  1.2575
  916SOL    HW212156  10.313   3.391   1.279  2.3379 -0.1687 -1.3118
  917SOL     OW12157   3.487   4.288   0.494 -0.0994  0.1899 -0.6337
  917SOL    HW112158   3.520   4.232   0.418 -0.6906 -0.7926 -0.1793
  917SOL    HW212159   3.388   4.297   0.488  0.0621  1.6947 -1.0328
  918SOL     OW12160   1.380   4.316   1.419 -0.0311  0.0596  0.1609
  918SOL    HW112161   1.377   4.378   1.498  0.4845 -0.4512  0.5887
  918SOL    HW212162   1.325   4.235   1.438 -0.0060 -0.0065 -0.0509
  919SOL     OW12163   2.221   6.469   0.945 -0.3726  0.3210  0.2955
  919SOL    HW112164   2.264   6.439   0.860 -0.2319  0.6741  0.2414
  919SOL    HW212165   2.181   6.559   0.932  0.8595  0.9810  1.0018
  920SOL     OW12166   4.218   9.125   0.445 -0.3357 -0.1527  1.0911
  920SOL    HW112167   4.251   9.030   0.454 -1.5996 -0.6261  0.8022
  920SOL    HW212168   4.297   9.186   0.438  0.5199 -1.4510 -1.6012
  922SOL     OW12169   2.026   8.739   2.328  0.0503 -0.2418 -0.1517
  922SOL    HW112170   2.027   8.692   2.239  1.4148 -0.7162  0.1081
  922SOL    HW212171   2.021   8.838   2.313  1.9060 -0.2317 -0.8036
  923SOL     OW12172   2.542   8.740   1.139 -0.2195 -0.4733 -0.0575
  923SOL    HW112173   2.513   8.827   1.180  3.0904  0.9896 -0.6941
  923SOL    HW212174   2.470   8.672   1.152 -2.8041  2.2845  0.6326
  924SOL     OW12175   1.421   4.628   2.008  0.0994 -0.3996  0.0563
  924SOL    HW112176   1.362   4.696   2.052  0.1692 -0.2389 -0.0991
  924SOL    HW212177   1.415   4.542   2.058 -1.2088 -0.7376 -0.6962
  925SOL     OW12178   2.664   6.830   1.876  0.0198  0.4886  0.1510
  925SOL    HW112179   2.741   6.893   1.883  1.3780 -1.2237  1.0434
  925SOL    HW212180   2.586   6.867   1.927  1.0593  1.0784  1.3462
  926SOL     OW12181   0.765   6.104   1.646 -0.6749 -0.2912  0.2617
  926SOL    HW112182   0.758   6.004   1.644  1.2404 -0.4550  0.9887
  926SOL    HW212183   0.844   6.133   1.591  0.2541  0.6506  2.0625
  927SOL     OW12184  10.072   5.692   0.947 -0.0464 -0.0143 -0.2152
  927SOL    HW112185  10.147   5.756   0.931  1.1869 -1.4632 -0.3117
  927SOL    HW212186  10.095   5.631   1.023 -1.1969 -0.3555 -0.1270
  928SOL     OW12187   4.112   4.149   0.486  0.5261 -0.5822  0.0075
  928SOL    HW112188   4.092   4.216   0.414  1.4793  0.3615  0.6175
  928SOL    HW212189   4.198   4.172   0.530  0.2034 -1.4699  1.1149
  929SOL     OW12190  10.024   3.560   0.480 -0.3255  0.2244  0.7196
  929SOL    HW112191  10.092   3.633   0.468  0.2480 -0.0823  2.0557
  929SOL    HW212192  10.070   3.472   0.476 -0.9378 -0.0539 -0.3186
  930SOL     OW12193   3.279   5.442   1.570 -0.2959 -0.3826  0.1217
  930SOL    HW112194   3.264   5.527   1.621 -1.1038  0.5288 -1.6165
  930SOL    HW212195   3.204   5.379   1.588  0.3865 -0.8322  1.5423
  931SOL     OW12196  10.207   4.625   0.401  0.0710  0.4237 -0.2182
  931SOL    HW112197  10.286   4.591   0.350 -0.3822  0.2856 -0.8251
  931SOL    HW212198  10.148   4.548   0.427  0.3010  0.4924  0.5179
  932SOL     OW12199   2.925   8.900   1.739  0.4542 -0.0348  0.1540
  932SOL    HW112200   2.870   8.924   1.658 -1.0317 -0.2256  1.0934
  932SOL    HW212201   2.880   8.826   1.789  1.6486 -0.2840  0.8786
  934SOL     OW12202   0.527   4.454   1.508 -0.1282 -0.3599 -0.2272
  934SOL    HW112203   0.583   4.501   1.576 -0.3082  0.1723 -0.4477
  934SOL    HW212204   0.559   4.359   1.499  2.0244  0.4531 -1.7470
  935SOL     OW12205  10.336   5.153   1.160 -0.2830  0.0849 -0.0877
  935SOL    HW112206  10.316   5.248   1.184  0.6619  0.3113 -0.1419
  935SOL    HW212207  10.293   5.130   1.073  1.4101  1.2141 -1.2566
  938SOL     OW12208   3.657   4.646   0.624 -0.3218 -0.2499  0.8171
  938SOL    HW112209   3.596   4.724   0.611 -0.4845 -0.1981  1.8182
  938SOL    HW212210   3.605   4.569   0.660  0.0993 -0.3765  1.1610
  939SOL     OW12211   2.197   0.033   0.453 -0.2728  0.3887  0.1506
  939SOL    HW112212   2.283   0.055   0.500 -0.3672  0.8562  0.1065
  939SOL    HW212213   2.121   0.039   0.518 -0.4889  1.7203 -0.2169
  940SOL     OW12214   3.789   9.526   0.523  0.2699 -0.0053 -0.4736
  940SOL    HW112215   3.691   9.534   0.505 -0.0617 -0.3019  1.1970
  940SOL    HW212216   3.806   9.531   0.621  1.8116 -1.1578 -0.6599
  941SOL     OW12217   1.430   5.280   1.494 -0.2526 -0.4720 -0.2259
  941SOL    HW112218   1.511   5.323   1.534 -0.1960  0.0290 -0.8660
  941SOL    HW212219   1.455   5.233   1.409 -0.6407 -0.2587 -0.4614
  942SOL     OW12220   0.767   5.426   1.134  0.4799 -0.6325 -0.3263
  942SOL    HW112221   0.790   5.344   1.186  0.4449 -0.6221 -0.2946
  942SOL    HW212222   0.744   5.500   1.197  2.2419 -0.0836 -0.3047
  943SOL     OW12223   4.059   9.319   1.312 -0.2045  0.2521 -0.2452
  943SOL    HW112224   4.046   9.366   1.225 -0.8847  0.4982 -0.0214
  943SOL    HW212225   4.020   9.227   1.307  1.3046 -0.3603 -0.7455
  944SOL     OW12226   4.081   1.159   0.761  0.7615  0.1238  0.0740
  944SOL    HW112227   4.046   1.101   0.835  1.8920 -0.8546 -0.1336
  944SOL    HW212228   4.012   1.168   0.689 -0.4752  1.3651  1.3900
  945SOL     OW12229   1.283   3.914   1.030 -0.2545 -0.0366 -0.0058
  945SOL    HW112230   1.346   3.837   1.023  0.6447  0.6024  0.9982
  945SOL    HW212231   1.334   3.998   1.047 -1.1993  0.8513 -1.4266
  946SOL     OW12232   3.323   8.136   0.356 -0.2484 -0.1344  0.2311
  946SOL    HW112233   3.329   8.041   0.326 -0.7462  0.2275 -1.0219
  946SOL    HW212234   3.239   8.177   0.321 -0.4409  0.5395  1.4477
  947SOL     OW12235  10.289   5.904   2.262 -0.7832 -0.7230 -0.7565
  947SOL    HW112236  10.212   5.952   2.305  0.0065 -0.1533  0.0248
  947SOL    HW212237  10.347   5.969   2.213  0.3312 -0.8435  0.3703
  948SOL     OW12238   9.453   4.636   1.040 -0.0010  0.0226 -0.2210
  948SOL    HW112239   9.498   4.554   1.074 -0.4550 -0.2108 -0.1730
  948SOL    HW212240   9.402   4.679   1.115 -0.3209 -0.0297 -0.4086
  949SOL     OW12241   0.683   5.774   2.193 -0.0298 -0.0560  0.0005
  949SOL    HW112242   0.674   5.785   2.292  1.6039  2.1722 -0.0718
  949SOL    HW212243   0.613   5.829   2.147 -2.1883 -2.7670 -0.0958
  950SOL     OW12244   5.043   3.174   2.016  0.2272 -0.4111  0.2279
  950SOL    HW112245   5.132   3.166   1.971 -0.0379  1.0731 -0.5572
  950SOL    HW212246   4.971   3.143   1.955  0.0334 -0.0066  0.2503
  951SOL     OW12247   2.097   2.127   0.865 -0.2010  0.4104 -0.6591
  951SOL    HW112248   2.098   2.157   0.769 -1.2958  1.6954 -0.2804
  951SOL    HW212249   2.004   2.100   0.890 -0.1520  1.1943  0.3820
  952SOL     OW12250   2.356   2.987   0.754  0.0420 -0.1786 -0.3415
  952SOL    HW112251   2.427   3.039   0.706 -0.6210  0.0197 -1.1232
  952SOL    HW212252   2.366   2.890   0.731 -0.2769 -0.0836 -0.8965
  953SOL     OW12253   1.182   3.136   0.908 -0.0851 -0.3712  0.2689
  953SOL    HW112254   1.097   3.117   0.957  0.1188 -0.1205  0.7233
  953SOL    HW212255   1.232   3.210   0.955  0.4633 -0.6346  0.1039
  954SOL     OW12256   1.274   6.863   1.091  0.0799  0.4718  0.3100
  954SOL    HW112257   1.242   6.800   1.022  1.4403 -0.9120  0.8982
  954SOL    HW212258   1.222   6.948   1.087  0.0720  0.3604 -2.3099
  955SOL     OW12259   3.902   0.124   1.263  0.2350 -0.1499  0.6529
  955SOL    HW112260   3.826   0.174   1.303  0.8925  0.9082  0.5929
  955SOL    HW212261   3.988   0.162   1.296  0.7861  0.6605 -1.6278
  958SOL     OW12262   3.931   1.897   1.096 -0.0585 -0.8059 -0.2277
  958SOL    HW112263   3.895   1.975   1.149  1.6176 -0.7293  0.8194
  958SOL    HW212264   3.998   1.930   1.030  1.6088 -1.4858  1.0962
  959SOL     OW12265   9.732   5.277   2.349 -0.5193 -0.2943  0.5136
  959SOL    HW112266   9.635   5.259   2.332 -0.7781  2.2651 -1.0710
  959SOL    HW212267   9.747   5.295   2.446 -1.7649 -0.0717  0.6665
  960SOL     OW12268   2.116   1.732   0.966  0.2021  0.0600 -0.2411
  960SOL    HW112269   2.116   1.785   0.881 -3.5264 -0.6785 -0.7521
  960SOL    HW212270   2.110   1.635   0.945  0.1715 -0.1806  0.8633
  961SOL     OW12271   0.520   3.614   1.965  0.2052  0.5132 -0.1386
  961SOL    HW112272   0.457   3.550   1.921  1.1978  1.0746 -2.4609
  961SOL    HW212273   0.550   3.576   2.053 -0.0133 -1.7344 -1.0034
  963SOL     OW12274   9.316   4.763   1.249 -0.1912 -0.2292 -0.3374
  963SOL    HW112275   9.297   4.734   1.343 -0.7010 -0.0252 -0.3720
  963SOL    HW212276   9.337   4.861   1.249  1.8929 -0.6463 -0.1685
  965SOL     OW12277   1.681   2.316   0.529  0.6788 -0.4311 -0.5364
  965SOL    HW112278   1.679   2.381   0.454  0.5807  1.2586  0.8993
  965SOL    HW212279   1.624   2.237   0.507 -1.5027  1.2694 -1.1508
  966SOL     OW12280   2.328   6.062   1.932 -0.1151  0.5978  0.3803
  966SOL    HW112281   2.421   6.051   1.967 -0.8086  0.1208  2.1369
  966SOL    HW212282   2.263   6.016   1.993 -1.5966  1.6849 -0.3213
  967SOL     OW12283   3.366   0.925   0.958  0.0456 -0.6740 -0.4680
  967SOL    HW112284   3.390   1.020   0.976 -0.1646 -0.6838 -0.1393
  967SOL    HW212285   3.282   0.902   1.006  0.3271 -1.1507 -0.1943
  968SOL     OW12286   2.121   8.553   1.253 -0.9107 -0.5025 -0.0104
  968SOL    HW112287   2.043   8.598   1.297 -1.3678 -0.5858 -0.7163
  968SOL    HW212288   2.115   8.567   1.154  0.3387  0.0483 -0.0148
  970SOL     OW12289   1.908   5.904   2.146  0.2982  0.3484 -0.0422
  970SOL    HW112290   1.903   5.893   2.047  1.6071  1.1141 -0.2070
  970SOL    HW212291   1.847   5.978   2.174 -0.5150 -0.2597 -0.2038
  971SOL     OW12292   4.144   9.671   1.372 -0.5336 -0.1399 -0.5853
  971SOL    HW112293   4.207   9.619   1.429  0.0687  0.3695 -0.7797
  971SOL    HW212294   4.162   9.650   1.276 -2.1285 -1.6678 -0.5691
  974SOL     OW12295   1.756   2.031   0.679 -0.4327  0.0768 -0.4674
  974SOL    HW112296   1.761   1.995   0.772  2.2539 -0.3924 -0.7455
  974SOL    HW212297   1.719   2.124   0.681  0.3916  0.4013  1.1821
  975SOL     OW12298   3.275   2.139   1.011  0.7631  0.5056 -0.2701
  975SOL    HW112299   3.327   2.215   0.973  1.2374  0.6798  0.7374
  975SOL    HW212300   3.331   2.056   1.009  0.4867  0.3273 -0.7326
  976SOL     OW12301   3.386   7.848   1.682 -0.0654 -0.0093 -0.2267
  976SOL    HW112302   3.374   7.751   1.705 -1.0838  0.1109 -0.2280
  976SOL    HW212303   3.302   7.882   1.639  0.3738  0.8170 -0.4219
  977SOL     OW12304   4.021   4.898   2.184  0.0818  0.6703  0.0471
  977SOL    HW112305   3.967   4.895   2.268  0.0109 -1.8694 -0.0504
  977SOL    HW212306   4.118   4.908   2.208  0.2047 -1.3998  0.5273
  981SOL     OW12307   0.641   3.793   2.348  0.3550  0.4261 -0.7005
  981SOL    HW112308   0.579   3.730   2.302 -0.1668  1.1076 -0.9385
  981SOL    HW212309   0.697   3.841   2.280 -0.7612  1.7956 -0.6749
  982SOL     OW12310   9.332   4.672   0.563  0.1303 -0.1758 -0.4384
  982SOL    HW112311   9.294   4.656   0.473 -0.3406 -2.1289  0.0996
  982SOL    HW212312   9.388   4.755   0.561 -0.0078 -0.1178 -2.4661
  983SOL     OW12313   4.648   3.624   2.072  0.9678  0.4380  0.2008
  983SOL    HW112314   4.585   3.560   2.115  1.6064 -0.6990 -0.5218
  983SOL    HW212315   4.610   3.717   2.076 -0.7749 -0.2314 -0.2617
  984SOL     OW12316   3.219   6.180   2.128  0.1214 -0.3823  0.0267
  984SOL    HW112317   3.306   6.143   2.096 -0.7369 -0.5805 -2.2051
  984SOL    HW212318   3.201   6.149   2.221  0.7977 -3.1850 -0.7395
  985SOL     OW12319   1.231   6.531   1.214  0.0288  0.1764  0.2047
  985SOL    HW112320   1.308   6.535   1.150  1.4720  2.8177  2.0029
  985SOL    HW212321   1.264   6.501   1.304 -1.6204 -1.5929  0.2597
  986SOL     OW12322   4.437   3.017   1.259  0.2043 -0.1354 -0.1574
  986SOL    HW112323   4.455   3.102   1.208  0.9176  0.0295  0.3693
  986SOL    HW212324   4.339   3.011   1.278  0.2031  0.7788  0.1576
  987SOL     OW12325   2.146   6.429   1.470  0.2920 -0.4262  0.7395
  987SOL    HW112326   2.226   6.457   1.417 -0.1254 -0.7118 -0.0420
  987SOL    HW212327   2.155   6.462   1.564 -0.0162  2.0275 -0.0546
  988SOL     OW12328   3.798   4.414   1.647 -0.1012 -0.1421  0.1510
  988SOL    HW112329   3.752   4.498   1.676  0.2168  0.0299  0.1483
  988SOL    HW212330   3.816   4.356   1.727 -1.1489 -0.6282  0.0584
  990SOL     OW12331   3.501   4.858   1.613  0.1767 -0.2196 -0.3403
  990SOL    HW112332   3.595   4.882   1.639  0.5146 -1.6418 -0.1919
  990SOL    HW212333   3.463   4.929   1.554  0.3697  1.7356  1.8185
  991SOL     OW12334   4.582   3.546   1.628 -0.3439 -0.2684  0.2663
  991SOL    HW112335   4.513   3.613   1.601 -0.5671  0.4110  2.4284
  991SOL    HW212336   4.667   3.593   1.654 -0.0685 -0.8966  0.5360
  993SOL     OW12337   2.649   5.742   1.201  0.8574 -0.0587 -0.3856
  993SOL    HW112338   2.647   5.763   1.299  2.6132  0.5366 -0.4705
  993SOL    HW212339   2.624   5.646   1.187 -2.2993  0.6000  0.4025
  994SOL     OW12340   3.990   9.492   0.339  0.1031 -0.3908 -0.4756
  994SOL    HW112341   3.954   9.441   0.261 -0.2834  0.0464 -0.5917
  994SOL    HW212342   3.915   9.511   0.403  0.1471  0.4223 -0.6552
  995SOL     OW12343   2.245   2.583   1.328 -0.0930  0.0772  0.1589
  995SOL    HW112344   2.158   2.602   1.374  0.5121  1.2628  0.8491
  995SOL    HW212345   2.239   2.611   1.233 -1.1166 -1.7117 -0.3334
  997SOL     OW12346   4.834   3.303   1.766  0.5367 -0.0242 -0.0620
  997SOL    HW112347   4.841   3.390   1.815 -0.2434  0.7333 -1.2686
  997SOL    HW212348   4.858   3.316   1.670 -0.0328 -1.0374 -0.3612
  998SOL     OW12349   2.163   3.238   0.619  0.2736 -0.5969  0.1076
  998SOL    HW112350   2.090   3.173   0.599  1.0514 -1.0960 -1.1707
  998SOL    HW212351   2.250   3.190   0.625  0.4324 -0.0861  2.2218
  999SOL     OW12352   0.849   6.790   1.525  0.0217  0.2523 -0.2846
  999SOL    HW112353   0.762   6.805   1.573  0.4427 -1.2393  0.9808
  999SOL    HW212354   0.837   6.808   1.427 -1.5988  0.4405 -0.0588
 1001SOL     OW12355   3.460   1.807   1.791 -0.3463 -0.4952  0.3764
 1001SOL    HW112356   3.520   1.746   1.842  0.7897  0.4872  0.2423
 1001SOL    HW212357   3.466   1.787   1.693  0.9801  0.6381  0.2151
 1002SOL     OW12358   3.997   1.976   2.279  0.5957  0.6354 -0.0034
 1002SOL    HW112359   3.977   2.012   2.371  0.1120 -0.3775  0.3001
 1002SOL    HW212360   3.915   1.984   2.223  1.3065  2.5919 -0.8111
 1004SOL     OW12361   1.375   3.349   1.329 -0.6180  0.4613 -0.1021
 1004SOL    HW112362   1.336   3.426   1.378 -1.6672  0.4805 -0.9461
 1004SOL    HW212363   1.319   3.268   1.343 -1.1259  0.5526 -1.5263
 1005SOL     OW12364   3.610   8.785   1.790 -0.1931  0.7062  0.5383
 1005SOL    HW112365   3.634   8.869   1.837  0.4617  0.9589 -0.2508
 1005SOL    HW212366   3.556   8.727   1.851  0.2720  1.2272  1.4463
 1006SOL     OW12367   2.868   2.028   1.100 -0.2030 -0.7412 -0.0265
 1006SOL    HW112368   2.835   1.970   1.174  0.3428  2.0297  2.5036
 1006SOL    HW212369   2.822   2.117   1.104 -0.6980 -0.7767 -3.5058
 1007SOL     OW12370   1.833   1.698   0.986  0.3301  0.2140  0.4676
 1007SOL    HW112371   1.910   1.671   1.044 -0.4110  0.9974  1.8230
 1007SOL    HW212372   1.817   1.626   0.917  0.7849 -1.0461  1.6557
 1008SOL     OW12373  10.178   3.336   0.498 -0.2445 -0.1909  0.0917
 1008SOL    HW112374  10.102   3.279   0.530 -0.1121 -0.1547  0.4806
 1008SOL    HW212375  10.255   3.278   0.472 -0.8365 -0.2901 -1.4733
 1009SOL     OW12376   2.694   6.050   1.059 -0.5221 -0.4326  0.4984
 1009SOL    HW112377   2.625   6.080   1.125 -0.4948  2.2169 -0.6288
 1009SOL    HW212378   2.679   6.096   0.971  2.3258 -0.2321  0.0716
 1010SOL     OW12379   3.978   3.002   2.188  0.3502  0.2184 -0.1144
 1010SOL    HW112380   3.879   3.009   2.175  0.2368 -0.3986  0.3787
 1010SOL    HW212381   4.025   3.053   2.116 -0.2963 -1.5263 -1.8351
 1011SOL     OW12382   4.226   8.170   1.053  0.1828  0.2490 -0.6597
 1011SOL    HW112383   4.291   8.189   0.979 -2.6296  2.1661 -2.7244
 1011SOL    HW212384   4.235   8.239   1.125  0.7136  0.2593 -0.7344
 1012SOL     OW12385   9.525   4.082   1.399 -0.0678 -0.2179  0.0768
 1012SOL    HW112386   9.508   4.099   1.496  2.1201 -0.0645  0.4590
 1012SOL    HW212387   9.618   4.047   1.387 -1.3206 -3.1188 -1.6604
 1015SOL     OW12388   4.350   3.784   1.865  0.0477  0.3876  0.8467
 1015SOL    HW112389   4.405   3.808   1.786 -3.6288 -1.2212 -2.3879
 1015SOL    HW212390   4.327   3.686   1.862  0.7487  0.0036  4.5831
 1016SOL     OW12391   1.855   8.574   2.088  0.1021 -0.3269  0.0301
 1016SOL    HW112392   1.929   8.564   2.022  1.1221 -1.5156  1.3111
 1016SOL    HW212393   1.783   8.633   2.051  1.2739  0.0867 -1.5828
 1019SOL     OW12394   2.918   2.780   1.687 -0.1311 -0.1505 -1.0034
 1019SOL    HW112395   2.852   2.768   1.761 -0.3764  0.6380 -1.0856
 1019SOL    HW212396   2.904   2.710   1.617  0.1145 -0.9099 -0.2910
 1020SOL     OW12397   3.241   2.817   2.274 -0.2376  0.0395  0.1662
 1020SOL    HW112398   3.230   2.792   2.370  0.3566 -1.2799 -0.0875
 1020SOL    HW212399   3.158   2.862   2.241 -1.2145 -1.2639  0.7883
 1022SOL     OW12400   3.300  -0.137   2.194 -0.8333 -0.4019 -0.3930
 1022SOL    HW112401   3.267  -0.058   2.246 -0.4496 -0.9521  0.6974
 1022SOL    HW212402   3.230  -0.209   2.197  0.3732 -1.5325  1.8344
 1023SOL     OW12403   3.353   6.149   1.519 -0.2062  0.6689 -0.1014
 1023SOL    HW112404   3.345   6.205   1.436 -1.1836  1.3358  0.4330
 1023SOL    HW212405   3.371   6.208   1.597 -0.7251  0.1843  0.3912
 1024SOL     OW12406   0.422   5.595   0.924  0.5746 -0.2665 -0.1777
 1024SOL    HW112407   0.448   5.594   1.020 -2.6163 -0.4550  0.7566
 1024SOL    HW212408   0.377   5.681   0.902 -0.5623 -1.0361 -0.9473
 1026SOL     OW12409   3.552   5.574   0.473  0.2587  0.2526  0.3020
 1026SOL    HW112410   3.509   5.536   0.555  1.2212  1.0488  1.2003
 1026SOL    HW212411   3.498   5.551   0.393 -1.1865  0.2074  1.2705
 1027SOL     OW12412   2.516   3.780   1.323  0.0272 -0.2824  0.4210
 1027SOL    HW112413   2.524   3.689   1.282  0.3424  0.7366 -1.8640
 1027SOL    HW212414   2.590   3.838   1.290 -0.5692  1.0123  1.3044
 1028SOL     OW12415   2.529   2.511   1.037  0.6712  0.1872 -0.0182
 1028SOL    HW112416   2.628   2.515   1.026  0.7478 -1.7072 -0.1963
 1028SOL    HW212417   2.506   2.524   1.134  1.2482 -1.4181  0.3484
 1030SOL     OW12418   3.784   9.220   2.042 -0.0145  0.1416  0.7616
 1030SOL    HW112419   3.881   9.232   2.022 -0.1700 -0.9076 -0.7597
 1030SOL    HW212420   3.773   9.168   2.127  0.7164  2.0522  2.0454
 1031SOL     OW12421   2.524   4.088   1.016 -0.3299  0.1964 -0.1220
 1031SOL    HW112422   2.575   4.033   1.082 -2.7223 -0.5788  1.1072
 1031SOL    HW212423   2.520   4.183   1.048  2.5851  0.8892 -1.5592
 1032SOL     OW12424   3.543  -0.131   1.073  0.5676  0.0977  0.4425
 1032SOL    HW112425   3.519  -0.192   0.997 -1.0158  0.8883  0.2902
 1032SOL    HW212426   3.585  -0.183   1.146 -0.4987 -1.1339  0.1875
 1033SOL     OW12427   4.789   2.396   1.084  0.2396  0.0923  0.0723
 1033SOL    HW112428   4.793   2.297   1.069  1.3616  0.2321 -0.6008
 1033SOL    HW212429   4.697   2.429   1.063 -0.2911 -0.8798  0.7981
 1034SOL     OW12430   0.899   7.045   0.988 -0.1133 -0.0554 -0.1972
 1034SOL    HW112431   0.856   7.120   0.939  0.4353 -0.3652 -1.1610
 1034SOL    HW212432   0.979   7.013   0.937 -0.1895 -1.1208  0.3340
 1036SOL     OW12433   2.176   9.485   1.551 -0.2406 -0.1543  0.2444
 1036SOL    HW112434   2.255   9.427   1.533 -0.0253  0.5751 -1.2528
 1036SOL    HW212435   2.206   9.571   1.592  0.0481  1.1597 -2.6074
 1037SOL     OW12436   4.242   9.066   1.546  0.3454 -0.2791 -0.0171
 1037SOL    HW112437   4.305   9.127   1.498 -0.3243 -0.3102 -0.9702
 1037SOL    HW212438   4.149   9.101   1.538  0.3207  0.1357  1.9823
 1038SOL     OW12439   0.788   4.092   2.272 -0.0822  0.0785 -0.1312
 1038SOL    HW112440   0.834   4.004   2.284  0.4425  0.5457  1.4173
 1038SOL    HW212441   0.809   4.129   2.182  0.4949 -0.9225 -0.4113
 1040SOL     OW12442   3.254   5.793   0.691 -0.4056 -0.1552  0.2133
 1040SOL    HW112443   3.261   5.836   0.781 -2.1417 -0.6280  0.5834
 1040SOL    HW212444   3.322   5.833   0.630 -0.8813  1.9337  1.0292
 1041SOL     OW12445   2.782   6.242   2.269  0.0779 -0.3897  0.2856
 1041SOL    HW112446   2.785   6.342   2.268  0.4430 -0.3884  1.2563
 1041SOL    HW212447   2.875   6.206   2.264 -0.1204 -0.7034 -1.4147
 1043SOL     OW12448   2.164   5.437   1.695 -1.0020 -0.0489  0.4818
 1043SOL    HW112449   2.238   5.499   1.724 -0.3536 -0.8547  0.5649
 1043SOL    HW212450   2.164   5.356   1.753 -1.5469 -0.3446  0.0692
 1044SOL     OW12451   3.665   2.286   1.920 -0.4667 -0.1715  0.1297
 1044SOL    HW112452   3.612   2.368   1.940 -1.5126 -0.1379 -2.5796
 1044SOL    HW212453   3.603   2.214   1.889  0.7476 -1.1160 -0.1414
 1045SOL     OW12454   2.414   8.517   1.249  0.2673  0.7924 -0.5082
 1045SOL    HW112455   2.317   8.531   1.270 -0.2368  1.6689 -3.1928
 1045SOL    HW212456   2.462   8.489   1.332 -2.6336 -1.6284  0.4886
 1046SOL     OW12457   1.823   0.323   2.234  0.7658  0.0914 -0.4844
 1046SOL    HW112458   1.739   0.300   2.186 -0.5705  1.5730  1.0612
 1046SOL    HW212459   1.887   0.246   2.230 -0.5415 -0.9464 -1.8861
 1047SOL     OW12460   2.181   3.464   0.766  0.3452  0.2002 -0.7847
 1047SOL    HW112461   2.218   3.458   0.858 -0.7044 -0.0981 -0.3672
 1047SOL    HW212462   2.161   3.371   0.732  0.3598  0.3285 -1.1475
 1048SOL     OW12463   3.939   8.402   1.233 -0.1848 -0.1295  0.0066
 1048SOL    HW112464   4.031   8.413   1.272 -0.8959 -0.2722  1.7585
 1048SOL    HW212465   3.906   8.310   1.254 -0.6329 -0.1669 -0.8554
 1049SOL     OW12466   1.807   7.561   1.680  0.4048  0.7354 -0.1984
 1049SOL    HW112467   1.803   7.651   1.638 -1.3544  0.8522  0.2170
 1049SOL    HW212468   1.726   7.546   1.737  1.2285 -0.6575  0.6468
 1050SOL     OW12469   4.312   9.546   1.594  0.2348 -0.2677 -0.0666
 1050SOL    HW112470   4.322   9.465   1.537 -0.3104 -0.2508 -0.1782
 1050SOL    HW212471   4.395   9.603   1.587  1.2672 -1.5670  1.1833
 1051SOL     OW12472   3.040   5.286   1.554  0.5820  0.3077  0.2576
 1051SOL    HW112473   2.947   5.267   1.586  0.6241 -0.5486 -0.0977
 1051SOL    HW212474   3.036   5.353   1.479  0.0011 -1.5586 -1.4373
 1053SOL     OW12475   2.144   0.303   0.740  0.7191 -0.1528 -0.6706
 1053SOL    HW112476   2.165   0.267   0.831  3.9800  0.6198 -1.0633
 1053SOL    HW212477   2.146   0.403   0.743 -1.8803 -0.0466 -1.0334
 1055SOL     OW12478   4.548   3.205   1.610 -0.2019 -0.3547 -0.3788
 1055SOL    HW112479   4.622   3.150   1.571  0.7045  0.4069  0.2382
 1055SOL    HW212480   4.579   3.247   1.695 -1.3227  0.0558 -0.1625
 1056SOL     OW12481   3.771   9.132   0.311  0.2679 -0.1415  0.0028
 1056SOL    HW112482   3.768   9.164   0.216 -0.4010 -0.0409  0.0586
 1056SOL    HW212483   3.737   9.204   0.371 -0.4965 -0.6680  0.2023
 1059SOL     OW12484   2.943   5.815   0.594 -0.0572 -0.0901  0.3272
 1059SOL    HW112485   3.014   5.755   0.556  0.8059  0.2113  1.4488
 1059SOL    HW212486   2.929   5.892   0.533  0.7149 -0.0534  0.1920
 1061SOL     OW12487   1.519   2.441   1.406 -0.7325 -0.3661 -0.1305
 1061SOL    HW112488   1.429   2.480   1.386 -2.0251 -3.1390  0.0312
 1061SOL    HW212489   1.545   2.465   1.499 -1.6403 -0.1366  0.0733
 1062SOL     OW12490   9.844   5.381   0.523 -0.3190  0.4854 -0.1022
 1062SOL    HW112491   9.765   5.438   0.500  0.8190  2.9453  1.8032
 1062SOL    HW212492   9.813   5.294   0.561 -2.1776  2.0697  2.1553
 1063SOL     OW12493   9.353   4.919   1.579  0.2113 -0.7582 -0.2043
 1063SOL    HW112494   9.281   4.949   1.641  1.4884 -0.1851  1.0363
 1063SOL    HW212495   9.338   4.958   1.489  1.8902  3.8543  1.3779
 1064SOL     OW12496   1.901   6.818   1.118  0.1053  0.5031 -0.3081
 1064SOL    HW112497   1.809   6.802   1.155 -0.1258  0.1263 -1.0453
 1064SOL    HW212498   1.966   6.760   1.166 -0.1081  0.4157 -0.1210
 1065SOL     OW12499   2.105   5.341   2.217  0.1584 -0.3478 -0.3879
 1065SOL    HW112500   2.157   5.423   2.243 -1.2136  0.3996  0.0566
 1065SOL    HW212501   2.101   5.334   2.117  1.8723 -0.9109 -0.4244
 1066SOL     OW12502   1.421   4.982   1.074  0.4617 -0.0287  0.5007
 1066SOL    HW112503   1.444   4.887   1.055 -1.0784 -0.4226  0.5098
 1066SOL    HW212504   1.400   5.029   0.989  1.9534  0.5119  0.4227
 1068SOL     OW12505   3.340   3.899   0.952 -0.9146 -0.2065 -0.4958
 1068SOL    HW112506   3.363   3.995   0.969 -0.9766  0.0883 -2.0279
 1068SOL    HW212507   3.416   3.855   0.904 -1.8663 -0.2988 -1.9244
 1069SOL     OW12508   4.729   1.455   0.653  0.0687 -0.0757  0.1124
 1069SOL    HW112509   4.756   1.405   0.735  1.8758  0.8607  0.1093
 1069SOL    HW212510   4.782   1.539   0.646  1.0056 -0.8140 -2.7359
 1071SOL     OW12511   1.416   3.127   1.645 -0.0038  0.1576 -0.3050
 1071SOL    HW112512   1.455   3.036   1.659 -0.6900 -0.6015 -3.0612
 1071SOL    HW212513   1.477   3.182   1.587 -1.0210  0.4042 -1.1604
 1073SOL     OW12514   2.832   3.421   2.011 -0.0494 -0.4616 -0.6017
 1073SOL    HW112515   2.760   3.383   2.071 -0.7832  0.6288 -0.7815
 1073SOL    HW212516   2.892   3.347   1.981 -0.3708 -1.2069  0.5354
 1074SOL     OW12517   4.003   2.627   1.327  0.4278 -0.6299  0.3013
 1074SOL    HW112518   4.019   2.669   1.416 -0.1460  1.6009 -0.6276
 1074SOL    HW212519   4.087   2.633   1.272  0.1113  0.0463 -0.1192
 1075SOL     OW12520   1.946   2.730   1.225 -0.9465 -0.0161 -0.5803
 1075SOL    HW112521   2.010   2.724   1.302  0.0485  0.9138 -1.3418
 1075SOL    HW212522   1.872   2.664   1.240  0.5981 -1.6867 -0.1039
 1076SOL     OW12523   0.531   4.710   0.874  0.3658  0.4468  0.0709
 1076SOL    HW112524   0.508   4.801   0.841  1.1917  0.7968  0.4548
 1076SOL    HW212525   0.472   4.642   0.830 -1.2615  1.3114  0.8697
 1077SOL     OW12526   2.250   8.213   0.454 -0.4903  0.5108  0.4917
 1077SOL    HW112527   2.173   8.163   0.414 -1.6302  1.0425  1.9681
 1077SOL    HW212528   2.321   8.227   0.385 -1.7748  0.1168 -0.9162
 1078SOL     OW12529   4.426   1.663   1.075 -0.1150  0.0145  0.3840
 1078SOL    HW112530   4.481   1.585   1.102 -0.6693  0.0317  1.6154
 1078SOL    HW212531   4.406   1.719   1.156 -0.9463  0.6313 -0.2421
 1079SOL     OW12532   1.022   4.816   1.287  0.0845 -0.1528  0.0646
 1079SOL    HW112533   1.062   4.785   1.374 -1.0642 -1.1445  0.2604
 1079SOL    HW212534   1.019   4.739   1.223 -2.0343 -0.2371  0.2543
 1080SOL     OW12535   2.515   1.587   1.163  0.1594  0.1661  0.0224
 1080SOL    HW112536   2.504   1.487   1.166 -0.0947  0.2185  0.7250
 1080SOL    HW212537   2.549   1.613   1.072 -0.6613 -0.4717 -0.4766
 1081SOL     OW12538   2.881   0.394   1.822  0.6729  0.5742 -0.3852
 1081SOL    HW112539   2.980   0.403   1.810  0.6341 -0.7000 -1.9084
 1081SOL    HW212540   2.844   0.337   1.748 -0.8476 -0.9359  1.5010
 1083SOL     OW12541   2.325   1.795   1.137 -0.3147 -0.4571  0.2938
 1083SOL    HW112542   2.387   1.717   1.146 -2.0546 -1.6580  2.0910
 1083SOL    HW212543   2.262   1.779   1.061  0.4002 -0.0276 -0.4020
 1084SOL     OW12544   3.545   4.547   2.001  0.0970 -0.0989  0.5557
 1084SOL    HW112545   3.472   4.518   2.063 -1.1927  0.5663 -0.6380
 1084SOL    HW212546   3.624   4.577   2.055 -0.8659  0.1238  1.8757
 1085SOL     OW12547   3.527   3.980   0.654  0.6334 -0.1982  0.0469
 1085SOL    HW112548   3.556   3.951   0.563  0.7801  1.4577 -0.4677
 1085SOL    HW212549   3.608   3.988   0.713  0.6719 -0.1670 -0.0099
 1086SOL     OW12550   2.398   9.333   1.542  0.2181  0.3378  0.0347
 1086SOL    HW112551   2.468   9.402   1.558  2.0657 -1.6084  0.5535
 1086SOL    HW212552   2.424   9.248   1.588 -1.7142 -0.8913 -1.0919
 1088SOL     OW12553   1.585   6.241   1.217  0.9404  0.2368 -0.3969
 1088SOL    HW112554   1.601   6.339   1.205  0.4133  0.4404  0.5208
 1088SOL    HW212555   1.487   6.223   1.214  1.0034 -0.1848 -0.0110
 1090SOL     OW12556   3.667   0.398   0.444  0.0606  0.0787 -0.3422
 1090SOL    HW112557   3.632   0.465   0.379 -1.1396 -0.6571 -0.4856
 1090SOL    HW212558   3.723   0.330   0.396 -0.7118 -0.3855 -0.6014
 1091SOL     OW12559   3.349   6.161   1.845 -0.4165  0.5019 -0.1569
 1091SOL    HW112560   3.273   6.104   1.813  1.0430 -1.1970 -0.6846
 1091SOL    HW212561   3.407   6.108   1.908  0.9234  1.4245 -0.5804
 1092SOL     OW12562   2.883   9.673   0.929 -0.3508  0.4235 -0.1989
 1092SOL    HW112563   2.824   9.752   0.943 -2.2620 -0.8282 -0.9601
 1092SOL    HW212564   2.956   9.672   0.997 -0.2483  2.8831 -0.2586
 1093SOL     OW12565   3.230   5.551   0.888 -0.1451  0.2835  0.3079
 1093SOL    HW112566   3.133   5.541   0.912 -1.0527  0.2780 -3.0432
 1093SOL    HW212567   3.253   5.649   0.882  0.0214  0.2851  0.9660
 1094SOL     OW12568   3.214   4.274   0.883 -0.3175 -0.1876  0.1027
 1094SOL    HW112569   3.220   4.216   0.802  0.2999  0.5606 -0.4037
 1094SOL    HW212570   3.273   4.238   0.955  1.2253  0.6234 -0.7314
 1095SOL     OW12571   4.445   2.079   0.727  0.0967  0.1786 -0.0089
 1095SOL    HW112572   4.457   2.170   0.768 -2.2044 -0.0419  1.2395
 1095SOL    HW212573   4.480   2.010   0.790 -2.0753 -0.0612  0.9662
 1096SOL     OW12574   3.719   5.038   1.304 -0.1833  0.0951 -0.2382
 1096SOL    HW112575   3.716   5.137   1.322 -0.5680 -0.1661  1.2158
 1096SOL    HW212576   3.801   5.000   1.345 -1.3020 -0.5914  1.4211
 1097SOL     OW12577   1.341   2.929   0.861 -0.1387  0.2315  0.2895
 1097SOL    HW112578   1.324   2.857   0.928  0.4415  0.2939  0.5026
 1097SOL    HW212579   1.283   3.008   0.882 -0.9402 -0.2498 -0.0772
 1098SOL     OW12580   2.712   6.673   2.101  0.5729 -0.4468 -0.4360
 1098SOL    HW112581   2.671   6.705   2.015 -0.0472 -1.6853 -0.6059
 1098SOL    HW212582   2.809   6.698   2.102  0.4142  0.2509 -1.1535
 1099SOL     OW12583   3.408   2.920   1.517 -0.6274  0.3681  0.2429
 1099SOL    HW112584   3.356   2.835   1.526 -0.0102 -0.0824 -0.4736
 1099SOL    HW212585   3.432   2.935   1.422  1.5220 -0.0058  0.7076
 1100SOL     OW12586   2.621   2.176   0.794 -0.2267 -0.2393 -0.1884
 1100SOL    HW112587   2.545   2.231   0.830  0.0340 -0.3911  0.5989
 1100SOL    HW212588   2.624   2.088   0.842  0.2434 -0.3665 -0.4549
 1102SOL     OW12589   2.706   0.728   2.171  0.0005 -0.2132 -0.3499
 1102SOL    HW112590   2.736   0.664   2.242  0.8549 -0.7184 -1.1716
 1102SOL    HW212591   2.768   0.807   2.168  0.0441 -0.2597 -0.6403
 1103SOL     OW12592   1.290   6.332   0.362  0.1529 -0.3196  0.2025
 1103SOL    HW112593   1.192   6.312   0.372  0.4527 -0.4383  3.6263
 1103SOL    HW212594   1.338   6.250   0.332 -0.4627 -1.0466  1.1561
 1104SOL     OW12595   1.149   2.103   0.814  0.2206 -0.3544  0.4668
 1104SOL    HW112596   1.195   2.191   0.822  0.8110 -0.7723  1.7647
 1104SOL    HW212597   1.102   2.082   0.899  1.2050 -1.9102  0.6484
 1105SOL     OW12598   4.083   4.653   1.357  0.0851 -0.2962  0.4142
 1105SOL    HW112599   4.035   4.567   1.375  0.8568 -0.7907  0.1146
 1105SOL    HW212600   4.182   4.637   1.358  0.2362  0.6220  0.5378
 1106SOL     OW12601   3.984   8.666   0.640 -0.2162  0.8274 -0.3281
 1106SOL    HW112602   3.902   8.692   0.589 -0.1339  0.4689 -0.6433
 1106SOL    HW212603   3.965   8.582   0.691 -1.2071  2.6431  2.4415
 1109SOL     OW12604   2.756   0.482   2.265  0.0245 -0.3623  0.6939
 1109SOL    HW112605   2.823   0.462   2.194 -0.6361 -0.4524  0.0890
 1109SOL    HW212606   2.681   0.416   2.260 -0.9096  0.7209  0.3281
 1110SOL     OW12607   5.038   1.652   0.827  0.4689 -0.5525 -0.6465
 1110SOL    HW112608   4.993   1.699   0.751 -0.3588 -2.3344 -1.2844
 1110SOL    HW212609   5.053   1.556   0.803 -0.5331 -1.3421  1.7403
 1111SOL     OW12610   3.311   7.399   2.186  0.6538  0.4660 -0.7047
 1111SOL    HW112611   3.307   7.300   2.169 -1.4998  0.5488 -0.8149
 1111SOL    HW212612   3.278   7.418   2.278  2.5536  0.9570 -0.1192
 1113SOL     OW12613   1.612   2.694   1.977  0.2116 -0.3796  0.2322
 1113SOL    HW112614   1.705   2.707   1.944 -0.2272 -0.9369 -1.2643
 1113SOL    HW212615   1.562   2.780   1.972  0.3302 -0.3233  0.0315
 1114SOL     OW12616   3.606   4.122   1.233  0.5415 -0.5805 -0.3477
 1114SOL    HW112617   3.602   4.044   1.170 -1.1105  0.5792 -1.7282
 1114SOL    HW212618   3.565   4.095   1.321 -1.0316 -0.9565 -1.1795
 1115SOL     OW12619   0.729   4.478   1.711 -0.2281  0.0149 -0.3259
 1115SOL    HW112620   0.789   4.531   1.652 -0.8304  1.0153 -0.0437
 1115SOL    HW212621   0.762   4.384   1.717  0.3445  0.1379 -1.5334
 1116SOL     OW12622   1.985   6.342   2.255  0.1804 -0.4798 -0.0121
 1116SOL    HW112623   2.041   6.302   2.327  0.1482 -0.3249  0.0980
 1116SOL    HW212624   2.030   6.327   2.166  0.1166 -0.8479  0.0192
 1117SOL     OW12625   1.098   4.065   0.875  0.1040 -0.0134 -0.1994
 1117SOL    HW112626   1.059   4.125   0.944 -0.9904 -2.0304  0.9922
 1117SOL    HW212627   1.165   4.004   0.918 -0.9873 -1.6604 -0.7956
 1118SOL     OW12628  10.387   5.656   2.354 -0.0864  0.0802 -0.5094
 1118SOL    HW112629  10.347   5.739   2.314  1.6212  0.7143 -0.9215
 1118SOL    HW212630  10.431   5.679   2.441 -1.6397 -0.8479  0.5661
 1119SOL     OW12631   1.762   5.327   1.069 -0.1297  0.3217  0.6435
 1119SOL    HW112632   1.746   5.422   1.094  2.8839  0.8536  0.8251
 1119SOL    HW212633   1.768   5.319   0.970 -3.1945 -0.2104  0.4698
 1120SOL     OW12634   2.175   5.975   2.124 -0.4355  0.0336  0.0950
 1120SOL    HW112635   2.216   5.931   2.204  0.9777 -0.1490 -0.7220
 1120SOL    HW212636   2.075   5.967   2.129 -0.3644  0.0812  1.8644
 1123SOL     OW12637   4.945   3.487   1.127 -0.2675  0.0495 -0.4068
 1123SOL    HW112638   4.919   3.415   1.063  2.3056  0.1536 -1.6474
 1123SOL    HW212639   5.037   3.469   1.161 -0.3153  1.7843  0.7015
 1124SOL     OW12640   3.355   9.201   0.778 -0.4372 -0.1475  0.3952
 1124SOL    HW112641   3.271   9.249   0.806  1.3349  2.3247  1.6893
 1124SOL    HW212642   3.333   9.136   0.705 -3.3127  1.2359 -0.0668
 1125SOL     OW12643   9.466   3.893   0.827 -0.0374  0.0228 -0.2456
 1125SOL    HW112644   9.385   3.913   0.773  0.1399  1.3052 -0.0464
 1125SOL    HW212645   9.462   3.798   0.859 -1.5869  0.1586  0.0041
 1126SOL     OW12646   0.977   6.356   0.336 -0.4612 -0.3302  0.3903
 1126SOL    HW112647   0.906   6.366   0.405  1.1250 -0.9553  2.1629
 1126SOL    HW212648   1.028   6.442   0.328  0.9711 -1.0126  1.8618
 1127SOL     OW12649   3.032   5.866   2.104 -0.1210  0.0158 -0.0788
 1127SOL    HW112650   2.952   5.807   2.102 -0.9554  1.0691  1.0241
 1127SOL    HW212651   3.029   5.929   2.026  0.0533 -0.4847 -0.4888
 1129SOL     OW12652   3.922   3.350   1.808 -0.0395 -0.1077 -0.1537
 1129SOL    HW112653   3.842   3.410   1.803  0.4627  0.6993  1.1411
 1129SOL    HW212654   3.908   3.271   1.749 -1.2890  0.6134 -0.8470
 1130SOL     OW12655   1.329   6.107   1.270 -0.8425 -0.1074 -0.4097
 1130SOL    HW112656   1.380   6.042   1.328  0.2485  0.9249 -0.2058
 1130SOL    HW212657   1.326   6.072   1.177 -0.6895 -0.6949 -0.2018
 1131SOL     OW12658  10.336   4.158   2.285  0.1137 -0.6526  0.3928
 1131SOL    HW112659  10.335   4.221   2.207  0.6301 -1.1180  0.0060
 1131SOL    HW212660  10.429   4.150   2.320  0.0087 -1.0114  0.5946
 1133SOL     OW12661   2.307   2.103   2.007  0.5697 -0.1106 -0.1499
 1133SOL    HW112662   2.321   2.201   2.022  2.1986 -0.3432 -0.0639
 1133SOL    HW212663   2.273   2.061   2.092  2.4428 -0.0771  0.6480
 1134SOL     OW12664   1.913   0.532   2.378 -0.0497 -0.2701  0.3137
 1134SOL    HW112665   1.877   0.460   2.318 -1.0610 -0.0666  0.6589
 1134SOL    HW212666   1.880   0.621   2.346  1.0754  0.0267 -0.0243
 1135SOL     OW12667   1.979   2.586   2.269  0.4024  0.4438 -0.5221
 1135SOL    HW112668   2.077   2.568   2.278  0.1698 -1.5407 -1.6270
 1135SOL    HW212669   1.948   2.555   2.179 -1.4524  0.0156  0.2478
 1136SOL     OW12670   2.267   6.399   0.685 -0.3292 -0.4293 -0.0805
 1136SOL    HW112671   2.324   6.454   0.624  1.2063 -1.6667  0.2171
 1136SOL    HW212672   2.246   6.311   0.642  0.8710 -1.3617  1.2091
 1137SOL     OW12673  10.253   4.436   1.709 -0.1419  0.2746 -0.2198
 1137SOL    HW112674  10.263   4.536   1.712 -0.1758  0.2442  0.8923
 1137SOL    HW212675  10.324   4.394   1.765 -0.7298 -0.2999  0.0974
 1138SOL     OW12676   3.056   9.733   1.970  0.4886 -0.5018  0.1881
 1138SOL    HW112677   3.089   9.767   1.883  0.2851 -1.1757 -0.1515
 1138SOL    HW212678   3.110   9.654   1.999  1.2711  0.3952  1.2116
 1141SOL     OW12679   9.461   5.244   0.417  0.1906 -0.0693  0.1546
 1141SOL    HW112680   9.525   5.321   0.414  1.7982 -1.4002 -0.3661
 1141SOL    HW212681   9.453   5.211   0.511 -0.5556  0.7673  0.3913
 1142SOL     OW12682   3.608   4.341   2.296  0.2956 -0.5433  0.3773
 1142SOL    HW112683   3.646   4.298   2.214  1.1928  1.4725 -0.2906
 1142SOL    HW212684   3.553   4.420   2.269  0.6653  0.1767  1.7311
 1143SOL     OW12685  10.364   4.547   0.726 -0.0799 -0.1962 -0.5772
 1143SOL    HW112686  10.301   4.485   0.772 -0.0475 -0.8800 -1.4453
 1143SOL    HW212687  10.314   4.627   0.692 -0.0355  0.5044  0.9759
 1144SOL     OW12688   3.877   2.347   0.859 -0.0013 -0.3082  0.0747
 1144SOL    HW112689   3.869   2.434   0.909  0.4945  0.2984 -0.8733
 1144SOL    HW212690   3.863   2.364   0.761 -0.1912 -1.3493 -0.0822
 1145SOL     OW12691   3.705   0.974   1.933 -0.4258 -0.1662 -0.9572
 1145SOL    HW112692   3.721   0.878   1.954  0.7504 -0.2920 -2.3580
 1145SOL    HW212693   3.790   1.025   1.945 -0.3830  0.2191 -2.7801
 1147SOL     OW12694   2.296   7.380   0.543 -0.0094  0.1480  0.6699
 1147SOL    HW112695   2.274   7.446   0.471  0.6856 -0.4396 -0.0879
 1147SOL    HW212696   2.389   7.396   0.575  0.3265 -0.7544  0.1609
 1148SOL     OW12697   4.876   2.836   1.063 -0.3747  0.0318 -0.4676
 1148SOL    HW112698   4.951   2.824   1.128 -1.3035 -2.4538  0.2096
 1148SOL    HW212699   4.796   2.874   1.109 -0.4860 -0.1394 -0.5162
 1149SOL     OW12700   1.317   7.365   0.848  0.5204  0.3130  0.3133
 1149SOL    HW112701   1.272   7.387   0.761 -1.5475  1.0489  1.5406
 1149SOL    HW212702   1.304   7.268   0.869  0.9778  0.1461 -0.1689
 1150SOL     OW12703   1.517   8.376   2.347  0.2043 -0.0554 -0.0634
 1150SOL    HW112704   1.582   8.451   2.334 -0.7854  0.7086 -0.6648
 1150SOL    HW212705   1.456   8.397   2.423 -0.0075 -0.2942 -0.1647
 1151SOL     OW12706   2.675   9.302   0.369 -0.0723  0.1560  0.0831
 1151SOL    HW112707   2.603   9.330   0.306  1.4131  1.1141 -1.2243
 1151SOL    HW212708   2.705   9.381   0.422  0.1971 -0.1904  0.4521
 1152SOL     OW12709   3.451   0.995   1.828 -0.7882 -0.7793 -0.4157
 1152SOL    HW112710   3.440   1.065   1.758  1.9283 -1.1426 -1.2593
 1152SOL    HW212711   3.545   0.996   1.862 -0.9161 -3.4634  0.1639
 1153SOL     OW12712   9.708   4.518   1.247 -0.1068  0.3317 -0.4999
 1153SOL    HW112713   9.663   4.432   1.222  1.7513 -0.8335  0.0033
 1153SOL    HW212714   9.794   4.526   1.196  1.3071  0.3025  1.7641
 1155SOL     OW12715   4.613   1.812   0.944 -0.3940 -0.2822  0.0176
 1155SOL    HW112716   4.569   1.739   0.997 -1.3096  1.2985  1.4962
 1155SOL    HW212717   4.595   1.798   0.847  2.2531 -3.8638 -0.0521
 1157SOL     OW12718   3.368   3.150   1.076  0.3023  0.1736  0.3299
 1157SOL    HW112719   3.308   3.079   1.039 -0.0541 -0.3107  1.8027
 1157SOL    HW212720   3.319   3.237   1.080  0.7336  0.5252 -1.4567
 1158SOL     OW12721   4.437   0.457   0.948  0.1032  1.0116 -0.5979
 1158SOL    HW112722   4.360   0.406   0.987  0.3504  1.7280  0.8707
 1158SOL    HW212723   4.405   0.544   0.912  0.0566  0.8404 -0.9725
 1159SOL     OW12724   1.784   4.081   1.546 -0.0993 -0.3682 -0.0265
 1159SOL    HW112725   1.734   4.136   1.479  1.0592 -0.2163 -0.7761
 1159SOL    HW212726   1.822   4.000   1.501  0.1406 -0.6000  0.5853
 1160SOL     OW12727   2.050   7.739   0.346 -0.4855 -0.0002 -0.9115
 1160SOL    HW112728   2.059   7.783   0.256  1.6340 -2.3887 -1.9132
 1160SOL    HW212729   2.126   7.768   0.404  0.7231 -2.0096 -1.4593
 1162SOL     OW12730  10.090   5.196   1.810  0.7308  0.2637  0.0663
 1162SOL    HW112731  10.006   5.235   1.774  1.3390 -0.7000 -2.4775
 1162SOL    HW212732  10.069   5.136   1.887 -0.8501  0.3910 -0.2619
 1163SOL     OW12733   0.980   5.450   0.970 -0.5182  0.6247  0.7701
 1163SOL    HW112734   0.940   5.410   0.887  0.7461 -1.9697  1.3558
 1163SOL    HW212735   0.910   5.456   1.041 -1.1091  0.9175  0.1711
 1164SOL     OW12736   2.599   8.734   1.490  0.1088  0.1654  0.0216
 1164SOL    HW112737   2.570   8.712   1.397  0.3450  2.4130 -0.6258
 1164SOL    HW212738   2.557   8.670   1.554 -2.4937  0.4133 -1.3362
 1165SOL     OW12739   0.536   4.486   1.227  0.1614 -0.0469 -0.2861
 1165SOL    HW112740   0.547   4.456   1.322  3.3689 -0.4151 -0.7115
 1165SOL    HW212741   0.553   4.584   1.220 -0.5215  0.0655 -0.4250
 1167SOL     OW12742   4.388   3.775   2.351 -0.0518 -0.6070 -0.4292
 1167SOL    HW112743   4.426   3.852   2.402 -1.5170  0.0301 -0.2630
 1167SOL    HW212744   4.346   3.711   2.415 -0.9507 -0.3356 -0.7401
 1168SOL     OW12745   1.673   9.186   1.126  0.0336 -0.6525  0.6246
 1168SOL    HW112746   1.704   9.092   1.140 -1.4148 -1.1256  0.7411
 1168SOL    HW212747   1.739   9.249   1.166  0.6518 -1.6397  1.1904
 1169SOL     OW12748   1.910   4.947   2.330  0.1609  0.2004 -0.0278
 1169SOL    HW112749   1.896   5.018   2.400  0.1379  0.8963 -0.7283
 1169SOL    HW212750   1.827   4.891   2.323 -0.1865  0.7203 -0.1494
 1172SOL     OW12751   1.288   2.314   0.897  0.1906  0.3360  0.1538
 1172SOL    HW112752   1.378   2.350   0.875  0.2615 -0.2866 -0.5936
 1172SOL    HW212753   1.221   2.388   0.894  0.4348  0.5176 -0.7548
 1173SOL     OW12754   3.637   4.043   0.356  0.6154  0.3335 -0.8894
 1173SOL    HW112755   3.593   4.084   0.277  1.7042  1.0598 -1.1233
 1173SOL    HW212756   3.704   4.106   0.394  1.7126 -0.8937 -0.7499
 1175SOL     OW12757   3.250   6.979   0.668  0.0993  0.0715  0.1261
 1175SOL    HW112758   3.261   7.065   0.718 -0.5776 -0.0876  0.5498
 1175SOL    HW212759   3.179   6.924   0.711  0.8785 -0.9239  0.1473
 1176SOL     OW12760  10.015   5.004   1.995  0.3960 -0.7213  0.3285
 1176SOL    HW112761   9.955   4.941   1.945 -0.6776 -0.6054  1.4509
 1176SOL    HW212762  10.089   4.951   2.038  1.3984 -0.8001 -1.4840
 1178SOL     OW12763   1.428   6.308   0.810 -0.4479 -0.2060  0.1045
 1178SOL    HW112764   1.443   6.230   0.871  0.4628  1.1624  1.6796
 1178SOL    HW212765   1.509   6.320   0.752 -0.9831 -1.0042 -0.8284
 1179SOL     OW12766   1.853   1.455   1.315 -0.6769  0.0233  0.2412
 1179SOL    HW112767   1.943   1.497   1.310 -0.6300 -0.2034 -0.9152
 1179SOL    HW212768   1.815   1.468   1.407 -0.5575  2.3757 -0.0036
 1180SOL     OW12769   3.534   8.413   2.216  0.2680  0.0231  0.6544
 1180SOL    HW112770   3.466   8.391   2.287  1.7738 -0.6827  1.9303
 1180SOL    HW212771   3.548   8.333   2.158 -1.4914  0.8294 -0.9112
 1181SOL     OW12772   2.495   0.974   1.528 -0.0726  0.3038 -0.0199
 1181SOL    HW112773   2.493   0.893   1.471  1.2843  0.6002 -0.5081
 1181SOL    HW212774   2.465   1.054   1.475 -0.1371  0.3446  0.0770
 1182SOL     OW12775   1.872   0.684   1.853 -0.7381 -0.6401  0.5111
 1182SOL    HW112776   1.825   0.597   1.867 -3.3578  0.7657  0.9248
 1182SOL    HW212777   1.944   0.695   1.921  0.1591 -2.8361 -0.0685
 1183SOL     OW12778   2.908   8.819   2.225 -0.0512 -0.3207  0.0275
 1183SOL    HW112779   2.991   8.830   2.280 -0.6710  0.7140  0.7656
 1183SOL    HW212780   2.928   8.758   2.148  1.0512 -1.0851  0.8978
 1185SOL     OW12781   1.443   2.139   1.046 -0.5018  0.4863  0.2855
 1185SOL    HW112782   1.366   2.173   0.992 -1.4982  1.9718  2.5792
 1185SOL    HW212783   1.466   2.046   1.016 -1.4326  1.0265 -2.2145
 1186SOL     OW12784   3.005   6.013   0.417 -0.2698  0.0119 -0.1030
 1186SOL    HW112785   3.054   6.069   0.484 -1.3904  2.5642 -1.3453
 1186SOL    HW212786   3.011   6.055   0.327 -1.5532 -1.6410 -0.9939
 1188SOL     OW12787   2.093   3.168   0.329  0.2891  0.1221  0.1055
 1188SOL    HW112788   2.144   3.091   0.367  1.6669  0.8015 -0.3151
 1188SOL    HW212789   2.156   3.230   0.282 -0.7307  1.7585  0.8375
 1189SOL     OW12790   2.017   7.331   0.558  0.1579  0.2746  0.5436
 1189SOL    HW112791   1.999   7.237   0.529  0.1837  0.5404 -0.3683
 1189SOL    HW212792   2.110   7.339   0.592  0.5010  0.1907 -0.3627
 1190SOL     OW12793   1.167   2.732   1.912 -0.0878  0.1198  0.1356
 1190SOL    HW112794   1.237   2.732   1.840 -0.4254  1.2045 -0.2103
 1190SOL    HW212795   1.078   2.752   1.872 -0.4141 -0.0924  0.7440
 1191SOL     OW12796   1.733   1.478   1.812  0.0927 -0.1627  0.1866
 1191SOL    HW112797   1.680   1.552   1.853 -0.1673  0.0305 -0.4902
 1191SOL    HW212798   1.713   1.392   1.859 -0.8934 -0.1125 -0.1354
 1192SOL     OW12799   2.726   2.590   0.508 -0.4855  0.0176 -0.0910
 1192SOL    HW112800   2.663   2.655   0.550  0.4064  1.0599 -0.3535
 1192SOL    HW212801   2.821   2.616   0.530 -0.1500 -1.9859  0.9740
 1193SOL     OW12802   2.565   3.234   0.895  0.2456 -0.2577  0.2549
 1193SOL    HW112803   2.540   3.219   0.799 -0.2727 -0.6271  0.4476
 1193SOL    HW212804   2.640   3.172   0.920 -0.7822 -1.3808  0.5806
 1195SOL     OW12805   2.486   6.411   1.529 -0.3838 -0.5246  0.3805
 1195SOL    HW112806   2.571   6.413   1.581 -0.3565 -0.1605  0.3225
 1195SOL    HW212807   2.468   6.318   1.499 -0.5974 -0.8179  1.3748
 1196SOL     OW12808   3.149   5.477   2.057  0.0029  0.6194 -0.3721
 1196SOL    HW112809   3.152   5.450   2.153 -0.6377 -1.1396 -0.8349
 1196SOL    HW212810   3.163   5.397   1.999  1.7058  1.8770 -1.7473
 1197SOL     OW12811   3.586   3.350   0.644  0.3237 -0.3050 -0.0075
 1197SOL    HW112812   3.662   3.414   0.634 -0.1754  0.2003 -0.5843
 1197SOL    HW212813   3.502   3.399   0.665 -0.0025 -0.7901 -0.1511
 1198SOL     OW12814   2.218   4.662   1.800  0.7758 -0.4446  0.3612
 1198SOL    HW112815   2.229   4.623   1.709 -1.4478 -2.3329  0.8729
 1198SOL    HW212816   2.132   4.713   1.805  1.8134  1.3048  0.8510
 1199SOL     OW12817   4.446   4.816   1.028 -0.3508 -0.4203  0.3956
 1199SOL    HW112818   4.448   4.839   1.125 -0.6226  0.4799  0.1954
 1199SOL    HW212819   4.360   4.769   1.007 -0.5595 -0.0843  0.4825
 1200SOL     OW12820   0.799   5.622   0.389  0.3230 -0.3283 -0.2853
 1200SOL    HW112821   0.719   5.572   0.422  1.0460 -0.9371  0.5453
 1200SOL    HW212822   0.769   5.704   0.341 -0.8151 -0.7231 -0.2585
 1201SOL     OW12823   1.488   3.063   1.341 -0.3884 -0.6486 -0.6403
 1201SOL    HW112824   1.507   3.157   1.314  0.9740 -0.5113  0.7008
 1201SOL    HW212825   1.503   3.002   1.263 -0.5270  0.1610 -1.3027
 1202SOL     OW12826   3.527   3.670   0.908  0.6888  0.0412  0.1170
 1202SOL    HW112827   3.474   3.609   0.849 -2.0224  1.9186  0.5093
 1202SOL    HW212828   3.533   3.631   1.000 -2.3383  0.9943  0.7737
 1205SOL     OW12829   2.820   5.937   1.816 -0.0507 -0.1145 -0.0598
 1205SOL    HW112830   2.821   5.964   1.720  1.4076 -0.4752 -0.1548
 1205SOL    HW212831   2.882   5.996   1.868  1.0203 -1.4752  0.2264
 1206SOL     OW12832   2.902   7.705   1.033 -0.0648  0.1287  0.0196
 1206SOL    HW112833   2.847   7.691   1.115 -0.1099 -1.8805 -0.3344
 1206SOL    HW212834   2.867   7.784   0.982 -1.1978  0.2471  0.9681
 1208SOL     OW12835   2.622   5.773   2.265 -0.1198  0.3968 -0.0721
 1208SOL    HW112836   2.716   5.739   2.266 -0.6922 -1.2276 -0.4292
 1208SOL    HW212837   2.562   5.703   2.228 -1.0078  2.6618 -3.1685
 1209SOL     OW12838   3.452   1.939   1.003 -0.7602  0.2242  0.5773
 1209SOL    HW112839   3.551   1.926   1.013 -0.4801  1.1580 -0.7234
 1209SOL    HW212840   3.427   1.923   0.907 -1.2850  3.4231  0.1366
 1210SOL     OW12841   2.482   1.057   1.792 -0.1582 -0.2930 -0.0436
 1210SOL    HW112842   2.418   1.133   1.804 -1.1884 -1.0649 -0.5270
 1210SOL    HW212843   2.517   1.058   1.698  2.3978  1.5368  0.8960
 1212SOL     OW12844   1.820   1.087   0.731  0.1628 -0.0289 -0.3556
 1212SOL    HW112845   1.915   1.118   0.726  0.3335 -0.5244 -0.2461
 1212SOL    HW212846   1.775   1.102   0.643  0.1682  0.7502 -0.2309
 1213SOL     OW12847   4.473   0.710   1.434  0.0675 -0.0309  0.2744
 1213SOL    HW112848   4.567   0.724   1.465 -0.4483  1.7198  1.1257
 1213SOL    HW212849   4.413   0.700   1.513 -0.3027 -2.4104 -0.2827
 1214SOL     OW12850   2.533   5.453   0.861 -0.0402  0.0103  0.3776
 1214SOL    HW112851   2.619   5.495   0.830 -0.0239  0.3825  0.9303
 1214SOL    HW212852   2.456   5.508   0.831 -0.0525  0.0703  0.5211
 1215SOL     OW12853   3.306   8.300   2.354 -0.1648  0.0599  0.2528
 1215SOL    HW112854   3.356   8.292   2.441  0.0598  2.2930  0.3697
 1215SOL    HW212855   3.211   8.325   2.372 -0.2474  0.0237 -0.1203
 1216SOL     OW12856   3.279   1.329   0.815  0.5453 -0.1085  0.2083
 1216SOL    HW112857   3.260   1.422   0.782 -0.4066 -0.7345 -1.0342
 1216SOL    HW212858   3.299   1.270   0.738 -1.7843 -1.6230  0.7259
 1217SOL     OW12859   1.026   5.567   0.602 -0.1696  0.3814 -0.2461
 1217SOL    HW112860   1.080   5.489   0.569 -0.6538 -0.4984  0.9974
 1217SOL    HW212861   0.949   5.583   0.540 -0.9447 -1.1166  0.3065
 1218SOL     OW12862   2.573   2.775   2.276 -0.1217  0.0748  0.2724
 1218SOL    HW112863   2.575   2.675   2.284  0.4385  0.1399  0.9832
 1218SOL    HW212864   2.487   2.810   2.313 -0.1653 -0.1132  0.3484
 1219SOL     OW12865   1.937   3.664   0.397 -0.5682  0.3433 -0.2346
 1219SOL    HW112866   1.918   3.688   0.301 -2.6270  1.9050  0.5188
 1219SOL    HW212867   1.993   3.736   0.438  5.1315 -2.9628 -1.7001
 1220SOL     OW12868   1.773   6.207   0.994  0.1731 -0.3187  0.4058
 1220SOL    HW112869   1.738   6.114   1.000  1.1758 -0.6541  1.2978
 1220SOL    HW212870   1.777   6.247   1.085 -4.0881  2.0847 -0.3288
 1221SOL     OW12871   3.668   0.842   1.242 -0.1140  0.4279 -0.0094
 1221SOL    HW112872   3.639   0.936   1.259 -1.7731 -0.3930  1.9347
 1221SOL    HW212873   3.612   0.804   1.168 -0.0226  0.7107 -0.2248
 1222SOL     OW12874   4.448   2.560   1.222  0.6093 -0.0886  0.1689
 1222SOL    HW112875   4.428   2.462   1.230  0.8579 -0.2062 -0.6083
 1222SOL    HW212876   4.485   2.579   1.131  0.2047  0.7931  0.1815
 1223SOL     OW12877   2.702   5.816   0.496  0.0913 -0.2712  0.8118
 1223SOL    HW112878   2.787   5.816   0.549  0.0328  2.0330  0.9240
 1223SOL    HW212879   2.647   5.896   0.520 -1.5315 -1.0548 -0.2064
 1224SOL     OW12880   2.642   9.348   1.132 -0.2525 -0.0234 -0.1956
 1224SOL    HW112881   2.609   9.411   1.062 -0.9056  0.8360  0.8728
 1224SOL    HW212882   2.736   9.373   1.156 -0.3631  0.2876 -0.0771
 1225SOL     OW12883   4.830   1.030   1.944  0.3012  0.6702  0.3267
 1225SOL    HW112884   4.859   1.000   2.035 -1.6999 -1.5489  0.2692
 1225SOL    HW212885   4.893   0.994   1.875  0.0943 -0.2131  0.5939
 1227SOL     OW12886   0.916   2.961   1.846  0.5835  0.2904 -0.1463
 1227SOL    HW112887   0.957   3.052   1.845 -0.3707  0.7289 -0.5621
 1227SOL    HW212888   0.910   2.928   1.940  2.4383 -0.0469 -0.1351
 1228SOL     OW12889   3.535   2.847   0.788  0.0272  0.6954 -0.1355
 1228SOL    HW112890   3.475   2.907   0.735 -1.3113  0.7590  1.3911
 1228SOL    HW212891   3.480   2.779   0.837  1.0340  1.6737  2.4659
 1229SOL     OW12892   3.253   1.041   1.268  0.1684  0.3657 -0.2193
 1229SOL    HW112893   3.308   1.106   1.321  0.7086 -0.3805  0.1488
 1229SOL    HW212894   3.180   1.005   1.326  2.0652 -2.1062  0.7639
 1230SOL     OW12895   1.347   5.205   0.894  0.0498  0.0360  0.4116
 1230SOL    HW112896   1.276   5.231   0.959  0.1188  0.8254  0.1762
 1230SOL    HW212897   1.398   5.287   0.866 -0.8129 -0.1030 -1.6393
 1231SOL     OW12898   3.202   8.898   1.702 -0.1466  0.0488  0.2189
 1231SOL    HW112899   3.236   8.983   1.740  0.2072  1.0705 -2.2662
 1231SOL    HW212900   3.103   8.893   1.714 -0.2966  1.2545 -0.4339
 1232SOL     OW12901   2.956   4.925   1.615 -0.6819  0.6833 -0.1868
 1232SOL    HW112902   3.011   4.930   1.532 -0.2797  0.4488  0.0664
 1232SOL    HW212903   3.015   4.926   1.695 -1.1106  1.7084  0.1267
 1233SOL     OW12904   3.871   8.726   0.994 -0.1992 -0.3794 -0.1353
 1233SOL    HW112905   3.875   8.643   0.939 -1.2805  0.2134 -1.1312
 1233SOL    HW212906   3.957   8.776   0.985 -0.6242  0.0551 -1.8349
 1234SOL     OW12907   9.864   4.353   1.841  0.1781  0.1323 -0.4561
 1234SOL    HW112908   9.765   4.354   1.827  0.0721  0.7699  0.3527
 1234SOL    HW212909   9.910   4.364   1.752 -0.5046  4.1613 -0.4174
 1236SOL     OW12910   1.867   9.133   1.815  0.0549  0.6309  0.0546
 1236SOL    HW112911   1.940   9.183   1.767 -1.5428  3.4029  0.3621
 1236SOL    HW212912   1.782   9.142   1.763 -0.4071 -1.3797  0.4161
 1237SOL     OW12913   4.355   4.029   1.383 -0.1435 -0.2859 -0.9471
 1237SOL    HW112914   4.347   3.945   1.330  0.4696 -0.9480 -0.0129
 1237SOL    HW212915   4.433   4.021   1.446 -1.5680  0.0198  0.8961
 1239SOL     OW12916   4.833   2.677   0.484 -0.2914 -0.1324  0.2325
 1239SOL    HW112917   4.888   2.600   0.453 -0.8921 -0.5587  0.2327
 1239SOL    HW212918   4.796   2.726   0.404 -0.1986 -0.0512  0.2391
 1243SOL     OW12919   1.548   6.864   2.082  0.0366  0.0722 -0.8943
 1243SOL    HW112920   1.520   6.775   2.046  1.8175 -0.1295 -1.8530
 1243SOL    HW212921   1.515   6.874   2.175 -1.5597 -0.9136 -1.3238
 1245SOL     OW12922  10.378   5.307   0.895 -0.5357  0.8194 -0.3879
 1245SOL    HW112923  10.447   5.269   0.956 -1.8422 -0.1728  0.4922
 1245SOL    HW212924  10.373   5.406   0.908  0.4286  0.8367 -0.1606
 1246SOL     OW12925   9.696   5.193   1.265 -0.3550 -0.0654  0.1134
 1246SOL    HW112926   9.733   5.116   1.213  0.7878 -0.2437  1.1609
 1246SOL    HW212927   9.654   5.158   1.349 -2.9037  0.1411 -1.0466
 1247SOL     OW12928   9.746   4.644   1.885  0.2918 -0.1365 -0.1466
 1247SOL    HW112929   9.666   4.663   1.827  0.3898 -0.6537 -0.4585
 1247SOL    HW212930   9.774   4.728   1.932  0.0963  0.2489 -0.7109
 1248SOL     OW12931   0.745   5.841   1.359  0.1375  0.0946 -0.0831
 1248SOL    HW112932   0.827   5.895   1.379 -1.0187  1.9070 -0.1925
 1248SOL    HW212933   0.663   5.894   1.381 -1.0284 -1.5330 -0.4012
 1249SOL     OW12934   4.659   2.374   0.351 -0.5927 -0.1706 -0.6415
 1249SOL    HW112935   4.708   2.299   0.306 -0.8656 -1.4591  1.1673
 1249SOL    HW212936   4.652   2.355   0.449  0.4711  2.8298  0.0663
 1250SOL     OW12937   1.580   7.519   0.414  0.5887  0.3329  0.0652
 1250SOL    HW112938   1.566   7.539   0.511  1.7126 -0.8767  0.4917
 1250SOL    HW212939   1.676   7.533   0.390  0.5306 -0.3753 -0.6112
 1251SOL     OW12940   4.540   2.190   1.105 -0.4898  0.0844  0.3679
 1251SOL    HW112941   4.561   2.134   1.185  0.0511  0.1883  0.2957
 1251SOL    HW212942   4.489   2.271   1.134  0.2137  0.4166  0.6820
 1252SOL     OW12943   1.642   3.819   0.315 -0.5814  0.2437  0.3382
 1252SOL    HW112944   1.740   3.816   0.336 -0.1464  1.6370 -1.3400
 1252SOL    HW212945   1.607   3.726   0.305  0.6671 -0.2563  0.5763
 1254SOL     OW12946   1.983   4.239   0.362  0.3457 -0.0630  0.2121
 1254SOL    HW112947   2.082   4.227   0.370  0.3174  0.3009  1.1267
 1254SOL    HW212948   1.937   4.186   0.432 -0.0760  0.3252  0.2295
 1255SOL     OW12949   3.929   3.362   2.259 -0.4281 -0.0601  0.0726
 1255SOL    HW112950   3.998   3.428   2.290  1.1162 -1.2549 -0.7642
 1255SOL    HW212951   3.908   3.299   2.334 -2.1668  1.5480  0.9888
 1256SOL     OW12952   3.034   1.294   1.493 -0.0363 -0.1036  0.4780
 1256SOL    HW112953   2.950   1.247   1.466 -0.6369  0.2488  1.6864
 1256SOL    HW212954   3.021   1.392   1.482  1.8847 -0.2270 -3.9361
 1257SOL     OW12955   4.049   3.969   1.762 -0.4973  0.4354  0.1556
 1257SOL    HW112956   4.042   3.893   1.827  0.8364 -0.1718 -0.3906
 1257SOL    HW212957   4.071   4.053   1.810  0.7922 -0.0721  0.4760
 1259SOL     OW12958   4.337   2.848   2.116 -0.1992 -0.1978 -0.0862
 1259SOL    HW112959   4.275   2.873   2.190 -0.8782 -0.2600 -0.6285
 1259SOL    HW212960   4.411   2.915   2.111 -0.5130  0.1753  0.2332
 1260SOL     OW12961   0.415   6.069   2.091 -0.1361 -1.0866 -0.3295
 1260SOL    HW112962   0.382   6.143   2.032 -0.7598 -0.2619  1.0140
 1260SOL    HW212963   0.499   6.031   2.053  1.2236  1.5542 -0.1213
 1262SOL     OW12964   4.762   2.279   1.768 -0.0764 -0.3319 -0.0761
 1262SOL    HW112965   4.712   2.243   1.847  2.2083 -2.5554  0.4251
 1262SOL    HW212966   4.742   2.224   1.687 -0.2295  0.2068 -0.4062
 1263SOL     OW12967   2.474   3.156   1.478 -0.3050  0.3035 -0.2560
 1263SOL    HW112968   2.405   3.100   1.525 -0.8345 -0.0858 -1.4945
 1263SOL    HW212969   2.564   3.137   1.518 -0.6095 -0.7632 -0.0625
 1265SOL     OW12970   4.462   9.267   0.391  0.0350 -0.5829  0.0686
 1265SOL    HW112971   4.448   9.266   0.291  0.7636  0.1422 -0.0414
 1265SOL    HW212972   4.541   9.211   0.413 -0.3377 -1.0303  0.2795
 1266SOL     OW12973   9.467   5.206   0.698 -0.2163 -0.1415 -0.3960
 1266SOL    HW112974   9.493   5.296   0.734 -1.7995 -0.2572  1.1032
 1266SOL    HW212975   9.427   5.151   0.771 -2.5288 -0.7817 -2.0906
 1267SOL     OW12976   1.687   3.799   2.243 -1.1285 -0.4525  0.3609
 1267SOL    HW112977   1.744   3.862   2.295 -1.6786  0.2915  0.0650
 1267SOL    HW212978   1.642   3.735   2.306  0.5591 -1.4978  0.5460
 1268SOL     OW12979   3.899   2.291   1.766 -0.1172 -0.1446 -0.1990
 1268SOL    HW112980   3.883   2.325   1.674 -0.9021  0.5857  0.2047
 1268SOL    HW212981   3.814   2.293   1.819  0.5081  0.2618  0.8092
 1269SOL     OW12982   2.336   3.749   0.720  0.2926  0.6442  0.3373
 1269SOL    HW112983   2.268   3.679   0.743 -0.2023  0.8772 -0.4158
 1269SOL    HW212984   2.343   3.814   0.795  0.3755  0.0820  0.8209
 1270SOL     OW12985   2.213   4.241   1.385  0.1555  0.0954  0.7048
 1270SOL    HW112986   2.170   4.312   1.329 -0.3057 -1.4760 -0.9645
 1270SOL    HW212987   2.146   4.169   1.404  0.5642  0.1797  2.5458
 1271SOL     OW12988   3.653   3.494   1.904 -0.2245 -0.5013 -0.2022
 1271SOL    HW112989   3.682   3.504   1.999  0.6969 -1.0701 -0.4187
 1271SOL    HW212990   3.699   3.563   1.848  0.2845 -1.0376 -0.4527
 1272SOL     OW12991   4.377   1.410   1.625  0.3067 -0.6683  0.3866
 1272SOL    HW112992   4.440   1.455   1.688  0.0210  0.4158 -0.0986
 1272SOL    HW212993   4.417   1.407   1.534 -0.4754  0.3515 -0.0030
 1273SOL     OW12994   1.830   6.737   1.735  0.4703  0.1778 -0.3868
 1273SOL    HW112995   1.852   6.650   1.691 -2.2024 -0.5148 -0.4472
 1273SOL    HW212996   1.840   6.729   1.834 -0.6040 -0.4810 -0.3224
 1274SOL     OW12997   3.597   9.254   1.653  0.5098 -0.2714  0.4208
 1274SOL    HW112998   3.655   9.302   1.587 -1.2051  1.4862  0.1731
 1274SOL    HW212999   3.542   9.186   1.604  0.0260  0.2876  0.1754
 1276SOL     OW13000   1.609   4.761   1.010  0.4369 -0.2634  0.2894
 1276SOL    HW113001   1.628   4.796   0.918  1.2671  2.3863  1.4240
 1276SOL    HW213002   1.593   4.662   1.005 -1.2428  0.1018 -2.9251
 1277SOL     OW13003   2.554  -0.118   1.557  0.5812  0.4868  0.0735
 1277SOL    HW113004   2.471  -0.136   1.504  0.3622  1.4805  0.0740
 1277SOL    HW213005   2.542  -0.035   1.611  0.3793 -1.1023  2.5526
 1278SOL     OW13006  10.040   5.296   0.725 -0.4135 -0.1594  0.1574
 1278SOL    HW113007  10.065   5.211   0.680 -0.3636  0.2087 -0.5248
 1278SOL    HW213008   9.993   5.356   0.659 -2.4520 -0.5526  1.2001
 1280SOL     OW13009   3.021   2.039   0.880 -1.0901  0.0282 -0.2119
 1280SOL    HW113010   2.967   2.015   0.960  0.2071  0.9701  0.9831
 1280SOL    HW213011   3.110   2.075   0.910 -0.1412 -0.6946 -2.0931
 1281SOL     OW13012  10.244   4.689   1.815  0.1563 -0.1477  0.4161
 1281SOL    HW113013  10.327   4.719   1.861  0.3893 -0.8179  0.4317
 1281SOL    HW213014  10.217   4.758   1.748  0.5645  0.1984  0.6010
 1282SOL     OW13015   4.520   4.317   0.689 -0.3365  0.0778  0.1999
 1282SOL    HW113016   4.593   4.352   0.631  1.2538 -2.1215  0.8162
 1282SOL    HW213017   4.459   4.258   0.635 -0.9160  0.8713 -0.0199
 1283SOL     OW13018   9.596   5.496   2.201 -0.4946 -0.5091  0.2720
 1283SOL    HW113019   9.656   5.430   2.246  1.2197 -0.5865 -2.0105
 1283SOL    HW213020   9.503   5.461   2.199 -0.0270 -1.8332  1.0992
 1285SOL     OW13021   3.763   9.263   0.865 -0.0519 -0.1448 -0.4053
 1285SOL    HW113022   3.840   9.224   0.815  0.1493 -0.0323 -0.1804
 1285SOL    HW213023   3.684   9.202   0.858 -0.7630  0.9807 -2.8918
 1286SOL     OW13024   2.949   9.694   2.234 -0.2163  0.1169  0.0966
 1286SOL    HW113025   2.975   9.602   2.263  1.6396  0.9384  1.0494
 1286SOL    HW213026   2.995   9.716   2.148 -1.0953 -0.0456 -0.4214
 1287SOL     OW13027   1.858   1.824   1.580  0.2482 -0.4281  0.0246
 1287SOL    HW113028   1.853   1.847   1.482 -0.6157 -0.6004  0.0220
 1287SOL    HW213029   1.950   1.842   1.613  0.4774 -0.0982 -0.7601
 1289SOL     OW13030   5.250   2.336   0.611 -0.0432  0.1219 -0.3811
 1289SOL    HW113031   5.293   2.277   0.543  1.0156  0.1955  0.2184
 1289SOL    HW213032   5.153   2.315   0.617 -0.3186  0.6365 -2.4790
 1291SOL     OW13033   3.489   9.474   2.179  0.1940  0.3526  0.3234
 1291SOL    HW113034   3.538   9.399   2.223  0.4065 -0.1161 -0.6998
 1291SOL    HW213035   3.555   9.540   2.143  0.0611 -0.0258 -0.6120
 1294SOL     OW13036   1.986   1.632   1.838  0.2626 -0.6583 -0.1394
 1294SOL    HW113037   1.996   1.673   1.928  0.5472  2.2447 -1.4248
 1294SOL    HW213038   1.892   1.599   1.826 -0.0648 -0.0669  0.8134
 1296SOL     OW13039   3.259   2.482   0.678 -0.2171 -0.9351  0.2514
 1296SOL    HW113040   3.173   2.442   0.709 -0.6954  1.0161  1.5014
 1296SOL    HW213041   3.244   2.577   0.651  1.5853 -0.5339  0.5880
 1299SOL     OW13042   1.871   2.997   0.325 -0.2213 -0.5950  0.6317
 1299SOL    HW113043   1.853   2.986   0.423 -0.3631  0.0045  0.6706
 1299SOL    HW213044   1.942   3.066   0.311  0.9906 -1.8556  0.3950
 1300SOL     OW13045   3.929   1.080   1.735 -0.1312  0.4733  0.2606
 1300SOL    HW113046   3.857   1.025   1.694 -1.4732  1.3350  1.4141
 1300SOL    HW213047   3.917   1.176   1.707  1.7708  0.3311 -1.1736
 1301SOL     OW13048   5.009   2.483   0.408  0.2682  0.3406  0.4907
 1301SOL    HW113049   4.977   2.424   0.482 -0.4096  0.0094 -0.0642
 1301SOL    HW213050   5.045   2.427   0.333 -1.3221  0.5724 -0.4766
 1302SOL     OW13051   5.125   1.912   1.169 -0.0486  0.1460 -0.1048
 1302SOL    HW113052   5.154   1.916   1.073  1.4842  0.4211  0.3561
 1302SOL    HW213053   5.069   1.992   1.190 -3.0908 -1.4944 -1.5934
 1303SOL     OW13054   2.716   3.017   1.837  0.3003 -0.1920 -0.0354
 1303SOL    HW113055   2.702   2.923   1.867  0.9220 -0.2317  0.1224
 1303SOL    HW213056   2.675   3.080   1.904  0.1861 -0.3379  0.0314
 1304SOL     OW13057   3.402   6.747   0.686  0.2898  0.0009 -0.0502
 1304SOL    HW113058   3.380   6.831   0.637  1.0469  0.6129  0.6416
 1304SOL    HW213059   3.413   6.766   0.783  2.0196 -0.5858 -0.1005
 1305SOL     OW13060   1.653   4.250   1.361  0.1602 -0.5923 -0.8977
 1305SOL    HW113061   1.553   4.259   1.357  0.2935  1.0356 -0.6945
 1305SOL    HW213062   1.692   4.277   1.273  0.4740 -0.4314 -0.7088
 1306SOL     OW13063   4.579   2.186   2.313  0.1049  0.7782 -0.1144
 1306SOL    HW113064   4.481   2.173   2.327  0.3785 -0.9807  0.1870
 1306SOL    HW213065   4.610   2.262   2.369 -0.6418 -0.1462  1.5878
 1307SOL     OW13066   2.376   7.029   1.914  0.1818  0.2253 -0.5630
 1307SOL    HW113067   2.345   6.945   1.958 -1.2718  0.9686 -0.1484
 1307SOL    HW213068   2.416   7.007   1.825  0.1407 -0.9444 -0.2974
 1308SOL     OW13069   4.613   3.301   2.146 -0.1593 -0.4426 -0.0127
 1308SOL    HW113070   4.710   3.327   2.145 -0.0678 -0.6946  1.4719
 1308SOL    HW213071   4.569   3.337   2.227 -1.3793 -0.1600 -0.7814
 1310SOL     OW13072   0.702   3.654   1.755 -0.4538 -0.3230 -0.3811
 1310SOL    HW113073   0.755   3.733   1.785 -1.2077  0.2703 -0.6053
 1310SOL    HW213074   0.653   3.615   1.833  0.5120 -1.0422 -0.1159
 1311SOL     OW13075   2.086   5.036   1.837 -0.3698 -0.2065  0.0477
 1311SOL    HW113076   2.046   5.035   1.746 -0.3441  1.5686  0.0018
 1311SOL    HW213077   2.022   4.996   1.903 -0.4737 -1.2853 -0.7021
 1312SOL     OW13078   2.894   3.571   1.769 -0.2551  0.1364  0.0395
 1312SOL    HW113079   2.852   3.534   1.852 -0.8452 -0.1640 -0.3888
 1312SOL    HW213080   2.903   3.498   1.701 -1.3242  0.7290 -0.7682
 1313SOL     OW13081   1.969   0.096   2.320 -0.3696  0.3701  0.3126
 1313SOL    HW113082   1.959   0.163   2.393  1.5450  0.0993  0.8440
 1313SOL    HW213083   1.915   0.014   2.342 -2.0400  1.3930  0.0588
 1315SOL     OW13084   4.081   9.649   2.045  0.0154 -0.3085 -0.3634
 1315SOL    HW113085   4.121   9.595   1.971  0.0503 -1.4688  0.4964
 1315SOL    HW213086   4.006   9.598   2.087 -0.6849  0.7836 -0.2687
 1318SOL     OW13087   3.115   3.971   1.951 -0.4488 -0.7562 -0.6677
 1318SOL    HW113088   3.091   3.926   2.037  0.4922  0.6283  0.3433
 1318SOL    HW213089   3.111   3.905   1.877 -0.2701 -2.2215  0.5973
 1319SOL     OW13090   3.517   4.911   0.514 -0.3810 -0.1578 -0.1375
 1319SOL    HW113091   3.448   4.903   0.586  0.2398 -0.0299  0.4641
 1319SOL    HW213092   3.470   4.919   0.425 -1.1481  0.0820  0.2795
 1320SOL     OW13093   1.300   4.643   0.479 -0.3612 -0.7910  0.6454
 1320SOL    HW113094   1.297   4.651   0.578  1.6352 -1.2051  0.7453
 1320SOL    HW213095   1.373   4.580   0.452 -0.3308 -0.0388 -1.1231
 1322SOL     OW13096   2.589   2.325   0.527 -0.2388 -0.0081  0.2355
 1322SOL    HW113097   2.594   2.276   0.614 -1.0400  0.9064  0.8010
 1322SOL    HW213098   2.613   2.421   0.542  0.1839  0.0288 -0.6578
 1323SOL     OW13099   2.014   2.193   1.443 -0.6044 -0.7382 -0.1449
 1323SOL    HW113100   2.085   2.236   1.387 -0.5914  2.1468  1.9666
 1323SOL    HW213101   1.929   2.244   1.436 -0.6493 -0.4103  2.3011
 1324SOL     OW13102   4.282   0.866   1.884 -0.2759 -0.4459  0.9733
 1324SOL    HW113103   4.196   0.824   1.914 -0.9158  2.3691  3.3193
 1324SOL    HW213104   4.272   0.965   1.885  2.1611 -0.1302 -1.4588
 1325SOL     OW13105   2.048   6.733   2.065  0.6556  0.3959 -0.5270
 1325SOL    HW113106   1.959   6.765   2.032 -0.5501 -1.1230  1.1264
 1325SOL    HW213107   2.092   6.805   2.119 -0.3560  0.5703  0.0698
 1326SOL     OW13108   3.727   4.882   1.043  0.2398 -0.5223 -0.6410
 1326SOL    HW113109   3.702   4.913   1.135  0.4488 -0.2574 -0.6729
 1326SOL    HW213110   3.651   4.832   1.003 -0.5293  0.9743 -1.0590
 1327SOL     OW13111   2.292   0.755   0.771 -0.3997 -0.0185 -0.1451
 1327SOL    HW113112   2.221   0.770   0.701  1.6494  2.7844 -1.7249
 1327SOL    HW213113   2.357   0.686   0.738 -0.5447 -0.1534 -0.1494
 1328SOL     OW13114   2.100  -0.007   1.150 -0.3407 -0.2035 -0.2997
 1328SOL    HW113115   2.115   0.062   1.079 -2.8758 -0.5248 -1.1872
 1328SOL    HW213116   2.067   0.037   1.233 -0.5534 -0.1983 -0.3879
 1329SOL     OW13117   9.938   5.549   1.959  0.2436 -0.3700 -0.2865
 1329SOL    HW113118   9.894   5.483   2.020 -0.2400 -0.5213 -0.7967
 1329SOL    HW213119   9.936   5.640   2.000 -1.0964 -0.2605 -0.5784
 1330SOL     OW13120   4.767   2.602   0.757 -0.1823  0.4108 -0.2447
 1330SOL    HW113121   4.854   2.609   0.806 -0.8109  0.2646  0.9144
 1330SOL    HW213122   4.769   2.661   0.677  0.3324  1.8260  0.7800
 1331SOL     OW13123   4.157   2.100   0.676  0.3413  0.0707  0.1617
 1331SOL    HW113124   4.249   2.090   0.639  0.4624 -0.1118  0.5072
 1331SOL    HW213125   4.141   2.029   0.745  0.2797  0.6684  0.7759
 1332SOL     OW13126   2.535   4.852   0.675  0.2883 -0.2095  0.4598
 1332SOL    HW113127   2.506   4.820   0.765 -2.1309 -1.2158 -0.6412
 1332SOL    HW213128   2.461   4.905   0.633  0.2078 -2.3644 -2.2074
 1333SOL     OW13129   2.730   9.622   0.397 -0.3512  0.3300 -0.4195
 1333SOL    HW113130   2.689   9.665   0.316 -0.5703  2.4023  0.7760
 1333SOL    HW213131   2.681   9.651   0.479 -0.7952 -2.5956  0.3834
 1334SOL     OW13132   2.419   2.337   0.868 -0.0117 -0.0682 -0.4226
 1334SOL    HW113133   2.364   2.382   0.797  0.6718  0.5068 -0.5929
 1334SOL    HW213134   2.446   2.405   0.936  0.7233 -0.2978 -0.4872
 1335SOL     OW13135   0.663   5.655   0.776  0.6679 -0.7014  0.1404
 1335SOL    HW113136   0.627   5.620   0.689 -0.9364 -0.0156  0.5120
 1335SOL    HW213137   0.607   5.623   0.851  1.5926 -0.6515  0.8608
 1336SOL     OW13138   2.678   6.923   2.188 -0.1925 -0.0215 -0.0545
 1336SOL    HW113139   2.688   6.825   2.170  0.5033 -0.0872  0.6685
 1336SOL    HW213140   2.740   6.974   2.128  1.1692 -0.1648  1.2127
 1337SOL     OW13141   3.274   8.816   1.459  0.4417  0.1501  0.2648
 1337SOL    HW113142   3.230   8.842   1.545  0.7330  0.3329  0.3572
 1337SOL    HW213143   3.367   8.784   1.477  0.0107 -1.1839  0.1838
 1338SOL     OW13144   3.581   2.279   1.575 -0.1983 -1.2891  0.7701
 1338SOL    HW113145   3.665   2.328   1.552 -0.2228 -0.5659  2.1439
 1338SOL    HW213146   3.514   2.344   1.611 -1.2384 -1.9056 -0.0456
 1339SOL     OW13147   2.279   1.034   0.852 -0.1929 -0.2000  0.0304
 1339SOL    HW113148   2.265   0.936   0.840  0.2385 -0.4178  1.2376
 1339SOL    HW213149   2.306   1.053   0.947  0.0428  1.0489 -0.2719
 1340SOL     OW13150   2.125   4.765   0.937 -0.2287 -0.0195 -0.1966
 1340SOL    HW113151   2.176   4.734   0.856 -1.4468 -1.7325 -0.3396
 1340SOL    HW213152   2.045   4.707   0.950 -0.2917  0.5241  2.0060
 1341SOL     OW13153   3.835   1.150   0.638  0.1277  0.0080  0.2284
 1341SOL    HW113154   3.792   1.093   0.568  0.3329  0.9195 -0.6471
 1341SOL    HW213155   3.764   1.200   0.688  0.0405  0.0460  0.0682
 1342SOL     OW13156   1.600   2.803   0.740  0.0051  0.3409  0.1073
 1342SOL    HW113157   1.636   2.835   0.828  0.3752  0.5364 -0.1141
 1342SOL    HW213158   1.504   2.778   0.751 -0.4879  2.1410  0.1515
 1343SOL     OW13159   9.599   5.708   1.021  0.1733 -0.5364  0.0931
 1343SOL    HW113160   9.585   5.705   1.120 -0.5451  2.3748  0.1323
 1343SOL    HW213161   9.515   5.679   0.974 -0.0705 -0.2454  0.3455
 1344SOL     OW13162   2.832   9.446   1.323  0.3950  0.0636 -0.1970
 1344SOL    HW113163   2.887   9.525   1.350 -1.5669  1.5840 -0.6246
 1344SOL    HW213164   2.801   9.397   1.405 -0.3168  1.0667  0.1372
 1346SOL     OW13165   1.300   7.346   0.572 -0.3977 -0.4315 -0.0860
 1346SOL    HW113166   1.279   7.409   0.498  1.3883  1.6932  1.1553
 1346SOL    HW213167   1.399   7.334   0.579 -0.6062 -1.6468  1.1253
 1347SOL     OW13168   3.738   3.758   0.780  0.4615  0.5708  0.2760
 1347SOL    HW113169   3.731   3.783   0.683  1.8630 -0.0035  0.0155
 1347SOL    HW213170   3.648   3.731   0.814  0.3990 -1.6216 -1.5443
 1349SOL     OW13171   1.949   9.087   1.405 -0.2624  0.0476  0.6037
 1349SOL    HW113172   2.011   9.164   1.395  0.7829 -0.9909 -1.1444
 1349SOL    HW213173   1.943   9.037   1.319 -0.6500 -2.0480  1.8022
 1350SOL     OW13174   1.738   6.259   1.498 -0.4403 -0.0644  0.2830
 1350SOL    HW113175   1.656   6.298   1.456 -0.0197  0.4579 -0.0601
 1350SOL    HW213176   1.791   6.209   1.430 -0.9273 -1.1625  0.7031
 1351SOL     OW13177   1.575   7.226   0.534  0.0077 -0.0524 -0.0636
 1351SOL    HW113178   1.604   7.245   0.440  1.8159 -3.2457 -0.1948
 1351SOL    HW213179   1.648   7.252   0.597 -0.2857 -0.1033  0.2950
 1352SOL     OW13180   2.857   4.024   2.313 -0.6602  0.2058 -0.3119
 1352SOL    HW113181   2.922   4.086   2.270 -1.2082 -0.1617 -1.6838
 1352SOL    HW213182   2.821   4.066   2.396 -0.7568  1.5637 -1.0312
 1353SOL     OW13183   2.414   9.255   1.251  0.2081  0.4465 -0.5874
 1353SOL    HW113184   2.419   9.257   1.351 -0.7945 -2.4833 -0.4507
 1353SOL    HW213185   2.499   9.291   1.213  1.7093 -0.9556  1.3521
 1355SOL     OW13186   1.659   5.616   1.120  0.3854 -0.3163 -0.4000
 1355SOL    HW113187   1.570   5.620   1.164  1.3152 -0.4085  1.5279
 1355SOL    HW213188   1.655   5.664   1.032 -1.2912  0.6016  0.1613
 1356SOL     OW13189   2.106   9.683   1.860 -0.3709  0.4808  0.2529
 1356SOL    HW113190   2.035   9.613   1.862 -0.3682  0.3647 -2.3248
 1356SOL    HW213191   2.082   9.753   1.794  2.3127 -0.0162 -1.3256
 1358SOL     OW13192   2.089   1.596   1.584  0.1099  0.3697  0.7143
 1358SOL    HW113193   2.049   1.606   1.675  0.1021  1.4947  0.6017
 1358SOL    HW213194   2.158   1.667   1.570 -0.5698  0.8064 -0.5080
 1359SOL     OW13195   2.819   3.264   1.376  0.2122  0.7658 -0.2105
 1359SOL    HW113196   2.795   3.260   1.473 -0.0853 -0.3260 -0.3261
 1359SOL    HW213197   2.840   3.172   1.343 -0.7006  0.9885 -1.4279
 1360SOL     OW13198   2.866   0.684   1.070 -0.1077 -0.1950  0.0707
 1360SOL    HW113199   2.918   0.599   1.069 -0.0701 -0.1784  0.4979
 1360SOL    HW213200   2.777   0.669   1.027  0.7212  0.0934 -1.8146
 1362SOL     OW13201  10.273   5.589   1.901  0.1064  0.4087  0.3778
 1362SOL    HW113202  10.230   5.676   1.926 -1.5110 -0.5981  1.1814
 1362SOL    HW213203  10.231   5.515   1.953  0.6676 -1.0064 -1.1386
 1363SOL     OW13204   2.116   3.982   1.363  0.0416  0.1838 -0.0470
 1363SOL    HW113205   2.034   3.926   1.374 -0.7704  0.8245 -2.6143
 1363SOL    HW213206   2.175   3.943   1.293  0.5962  1.2573 -0.1933
 1364SOL     OW13207   1.729   5.904   1.303  0.1148 -0.1926 -0.6894
 1364SOL    HW113208   1.757   5.908   1.207  0.8731 -1.8173 -0.5413
 1364SOL    HW213209   1.790   5.844   1.354  0.4124  1.5141  1.0685
 1366SOL     OW13210   3.113   3.792   1.394  0.2038 -0.1558  0.1819
 1366SOL    HW113211   3.099   3.887   1.420 -2.1909 -0.2191 -0.7148
 1366SOL    HW213212   3.072   3.732   1.463 -0.9203 -0.4466 -0.7175
 1367SOL     OW13213   3.562   1.882   0.602 -0.1098  0.4707  1.0053
 1367SOL    HW113214   3.649   1.873   0.652  0.9974  0.5765 -0.8348
 1367SOL    HW213215   3.566   1.962   0.542 -1.0721 -0.1105  0.1424
 1370SOL     OW13216   3.665   9.759   1.302  0.2838 -0.2013 -0.1384
 1370SOL    HW113217   3.644   9.661   1.298  0.2091 -0.1028 -4.5864
 1370SOL    HW213218   3.762   9.772   1.319  0.3260 -1.0286  0.2585
 1371SOL     OW13219   2.484   3.597   2.209 -0.5832  0.2226  0.3146
 1371SOL    HW113220   2.505   3.661   2.283 -0.7294  0.1596  0.4100
 1371SOL    HW213221   2.394   3.556   2.224 -0.9783  0.8354 -0.3396
 1375SOL     OW13222  10.277   3.770   1.929  0.3883  0.1255  0.0288
 1375SOL    HW113223  10.357   3.716   1.954  0.1307  0.6386  2.0673
 1375SOL    HW213224  10.269   3.775   1.829 -0.2602 -4.5378 -0.2352
 1380SOL     OW13225   0.839   2.639   0.784  0.1166 -0.4329  0.4592
 1380SOL    HW113226   0.741   2.655   0.783  0.0007 -0.7663  2.7777
 1380SOL    HW213227   0.863   2.571   0.714 -1.5105 -1.3823  0.8025
 1381SOL     OW13228   0.850   6.722   0.695  0.0018 -0.1657 -0.6961
 1381SOL    HW113229   0.818   6.630   0.675 -1.0105  0.1302 -0.4426
 1381SOL    HW213230   0.903   6.756   0.617 -0.3481 -0.6324 -1.1408
 1382SOL     OW13231   3.870   9.046   1.188 -0.3106 -0.1101 -0.4166
 1382SOL    HW113232   3.775   9.073   1.177 -0.2572  0.5182  0.5770
 1382SOL    HW213233   3.926   9.091   1.119 -0.4346  1.2199  0.3346
 1383SOL     OW13234   2.039   6.399   0.336  0.4727  0.1455  0.6299
 1383SOL    HW113235   2.130   6.376   0.300 -0.3305 -0.6994 -0.8890
 1383SOL    HW213236   2.016   6.335   0.410  0.4345 -0.6725 -0.0836
 1385SOL     OW13237   3.872   4.662   0.458 -0.5004 -0.3612  0.2859
 1385SOL    HW113238   3.789   4.624   0.500 -1.0721  1.9619  1.2878
 1385SOL    HW213239   3.882   4.758   0.483  2.5724 -0.6252  0.2347
 1386SOL     OW13240   2.524   2.583   1.324 -0.2795  0.5477  0.1837
 1386SOL    HW113241   2.578   2.661   1.355 -1.1740  0.7037  1.4049
 1386SOL    HW213242   2.427   2.600   1.342 -0.4600 -0.9655  0.7514
 1388SOL     OW13243   4.362   1.742   0.467 -0.4305  0.2449  0.3323
 1388SOL    HW113244   4.403   1.770   0.554  1.1974  0.4825 -0.5040
 1388SOL    HW213245   4.421   1.675   0.422 -1.4722 -0.1975 -0.4027
 1389SOL     OW13246   0.916   3.990   0.447  0.7187 -0.1559 -0.0876
 1389SOL    HW113247   0.853   4.011   0.372  2.6658 -0.1865 -1.7489
 1389SOL    HW213248   0.888   4.041   0.528 -0.9768  0.4530 -1.0158
 1391SOL     OW13249   1.958   5.771   2.375 -0.3504 -0.4094  0.3160
 1391SOL    HW113250   2.042   5.813   2.409 -0.0098 -0.8779  0.0501
 1391SOL    HW213251   1.921   5.827   2.301 -1.6340  1.1597  2.0801
 1393SOL     OW13252   2.946   1.493   2.001  0.0923 -0.8601 -0.2001
 1393SOL    HW113253   2.861   1.518   1.955  0.2631 -1.9918 -1.1582
 1393SOL    HW213254   2.997   1.429   1.944  2.5913  1.4101 -0.6186
 1394SOL     OW13255   1.876   7.525   0.387  0.2863  0.4058 -0.1471
 1394SOL    HW113256   1.928   7.455   0.435  0.6861 -1.9281 -3.7739
 1394SOL    HW213257   1.936   7.603   0.368  0.9698  0.0140  0.3667
 1396SOL     OW13258   3.382   3.457   1.847  0.3186  0.0046  0.3258
 1396SOL    HW113259   3.354   3.457   1.943  0.2023  0.1782  0.2928
 1396SOL    HW213260   3.481   3.443   1.841  0.6688  2.1964  0.5784
 1397SOL     OW13261   4.421   9.217   2.294  0.0004 -0.0222 -0.2201
 1397SOL    HW113262   4.493   9.261   2.347  0.4606 -0.0709 -0.7870
 1397SOL    HW213263   4.427   9.118   2.306 -0.1632 -0.0056 -0.0222
 1398SOL     OW13264  10.134   5.776   2.058 -0.2108 -0.8457 -0.3092
 1398SOL    HW113265  10.202   5.828   2.109  0.7086 -0.9619 -1.3876
 1398SOL    HW213266  10.070   5.732   2.121  2.2303 -2.8376  0.8644
 1399SOL     OW13267   0.665   5.962   1.997 -0.3367  0.2368  0.9747
 1399SOL    HW113268   0.705   5.871   2.001 -0.4614 -0.0664 -2.8028
 1399SOL    HW213269   0.738   6.030   1.980 -0.6098  0.4585  0.6799
 1400SOL     OW13270   3.846   4.666   0.877 -0.1602  0.2348 -0.1978
 1400SOL    HW113271   3.829   4.763   0.895 -2.8753 -0.3908  0.8731
 1400SOL    HW213272   3.913   4.631   0.943  1.6928  1.6061 -1.3009
 1401SOL     OW13273   5.286   3.737   1.447 -0.0849  0.5076  0.2418
 1401SOL    HW113274   5.195   3.778   1.443 -1.1111 -1.6922  0.5482
 1401SOL    HW213275   5.307   3.709   1.540 -0.8241 -2.7254 -0.5041
 1402SOL     OW13276   3.496   1.130   1.412  0.4582 -0.1209 -0.3044
 1402SOL    HW113277   3.548   1.119   1.327  1.0282 -0.9363  0.1425
 1402SOL    HW213278   3.462   1.224   1.419  2.0254  0.4688 -0.5258
 1403SOL     OW13279   4.625   2.047   0.514 -0.5706 -0.6841  0.0056
 1403SOL    HW113280   4.592   2.094   0.432 -0.6014 -0.7615 -0.0266
 1403SOL    HW213281   4.554   2.047   0.583 -0.9377 -1.5821 -0.3659
 1404SOL     OW13282   0.784   3.433   2.147  0.4350 -0.0616  0.3202
 1404SOL    HW113283   0.704   3.468   2.196 -0.2768 -1.3342  0.0804
 1404SOL    HW213284   0.758   3.352   2.095  2.2662 -1.4933  1.5869
 1405SOL     OW13285  10.030   4.582   2.221  0.2927  0.4085  0.3254
 1405SOL    HW113286   9.945   4.634   2.218 -0.1242 -0.0894  2.8502
 1405SOL    HW213287  10.055   4.554   2.128 -2.4516  0.3068 -0.4179
 1407SOL     OW13288   1.186   6.700   1.834 -0.3186 -0.3387  0.4461
 1407SOL    HW113289   1.137   6.713   1.748  1.0073  0.1385 -0.2461
 1407SOL    HW213290   1.189   6.787   1.883 -0.9354 -0.5756  0.9151
 1408SOL     OW13291   1.612   5.716   0.877 -0.1091 -0.1746 -0.4053
 1408SOL    HW113292   1.516   5.687   0.881 -0.4716  1.1139  0.6385
 1408SOL    HW213293   1.653   5.685   0.791 -1.0748 -1.8914 -0.2576
 1409SOL     OW13294   5.321   4.167   0.880  0.6718  0.0588  0.2087
 1409SOL    HW113295   5.231   4.194   0.848 -0.1797 -1.6056  1.1127
 1409SOL    HW213296   5.357   4.094   0.822  0.8045 -0.2778  0.7080
 1410SOL     OW13297   1.077   6.493   0.982 -0.5368  0.0018  0.1116
 1410SOL    HW113298   1.121   6.561   0.924 -0.1917  0.4053  0.8308
 1410SOL    HW213299   1.109   6.504   1.076 -1.3773 -0.3945  0.4496
 1411SOL     OW13300   3.952   4.918   1.387  0.5561 -0.4172 -0.0479
 1411SOL    HW113301   3.974   4.820   1.393  1.6303 -0.1927 -0.2071
 1411SOL    HW213302   4.031   4.967   1.351  0.6559  0.7627  1.7434
 1412SOL     OW13303   2.127   2.847   2.313  0.3200 -0.0386 -0.1750
 1412SOL    HW113304   2.047   2.855   2.373  0.2922 -0.8859 -0.1042
 1412SOL    HW213305   2.118   2.766   2.255  0.9371  0.0905 -0.4543
 1414SOL     OW13306   3.187   9.493   0.595 -0.0968 -0.1534 -0.3856
 1414SOL    HW113307   3.272   9.440   0.594  0.3777  0.6162 -1.5160
 1414SOL    HW213308   3.205   9.584   0.631 -0.1555  0.4607 -1.8625
 1416SOL     OW13309   0.882   2.918   0.567  0.7831  0.3573  0.3547
 1416SOL    HW113310   0.870   3.015   0.548 -4.4219 -0.3762 -0.9088
 1416SOL    HW213311   0.927   2.907   0.656  0.2808  3.8834  1.1295
 1417SOL     OW13312   1.616   9.192   0.845  0.2388 -0.1925 -0.0377
 1417SOL    HW113313   1.694   9.255   0.836 -0.0222  0.0717 -0.4830
 1417SOL    HW213314   1.604   9.167   0.941 -0.3592  1.3301  0.2914
 1418SOL     OW13315   3.651   0.453   0.708 -0.0744 -0.6887  0.1625
 1418SOL    HW113316   3.676   0.447   0.611  1.1920 -0.8505  0.4924
 1418SOL    HW213317   3.671   0.545   0.742 -0.5170 -0.6332  0.2678
 1419SOL     OW13318   2.593   8.783   1.883 -0.0542 -0.0916 -0.4728
 1419SOL    HW113319   2.591   8.881   1.867  1.4978  0.4149  2.1640
 1419SOL    HW213320   2.687   8.752   1.897 -0.4756 -2.0403 -1.7545
 1420SOL     OW13321   2.730   3.973   0.643 -0.3654 -0.2604 -0.9838
 1420SOL    HW113322   2.752   3.891   0.696  4.1595  0.3901 -1.6951
 1420SOL    HW213323   2.751   4.054   0.698 -3.5387  0.5096 -0.7962
 1421SOL     OW13324   3.209   7.209   0.824  0.5029  0.1931 -0.3484
 1421SOL    HW113325   3.190   7.150   0.902  2.1920  0.0488 -0.0194
 1421SOL    HW213326   3.127   7.259   0.798 -1.3619 -3.3095 -1.5078
 1422SOL     OW13327   2.628   8.510   1.708 -0.2317 -0.7272  0.4789
 1422SOL    HW113328   2.695   8.568   1.662 -2.5515  2.0526  0.5046
 1422SOL    HW213329   2.590   8.559   1.787 -3.8155 -1.3952 -0.7673
 1423SOL     OW13330   1.424   8.120   1.812  0.5781 -0.6517 -0.0263
 1423SOL    HW113331   1.488   8.100   1.738 -1.2428  0.2172 -1.8659
 1423SOL    HW213332   1.441   8.212   1.847 -0.4644  0.0807 -1.3924
 1424SOL     OW13333   1.969   9.005   0.687  0.1353  0.0528  0.3640
 1424SOL    HW113334   2.030   8.925   0.682 -0.1730 -0.1703  0.1243
 1424SOL    HW213335   1.875   8.973   0.698 -0.1622  0.3462 -1.2816
 1425SOL     OW13336   3.356   7.571   1.948  0.2888 -0.2384  0.1185
 1425SOL    HW113337   3.402   7.650   1.989 -0.8379 -0.7625  2.4748
 1425SOL    HW213338   3.364   7.492   2.009 -3.3462 -0.4554  0.3911
 1426SOL     OW13339   5.187   2.645   1.869  0.4559 -0.3909  0.4871
 1426SOL    HW113340   5.126   2.688   1.935  2.6707 -0.0151  2.3376
 1426SOL    HW213341   5.176   2.546   1.874 -0.3358 -0.3061  0.4821
 1430SOL     OW13342   2.678   2.762   1.962 -0.5135  0.0787 -0.5408
 1430SOL    HW113343   2.648   2.677   1.920  1.2549 -0.8905  0.1240
 1430SOL    HW213344   2.632   2.775   2.050  1.0038 -1.4511  0.5185
 1432SOL     OW13345   2.055   2.144   0.584  0.2256 -0.0170  0.6460
 1432SOL    HW113346   2.152   2.162   0.570  0.3541 -0.6669  0.6507
 1432SOL    HW213347   2.015   2.107   0.500 -0.4721  2.0709  0.0379
 1433SOL     OW13348   9.844   3.624   1.406 -0.0669  0.4692  0.7082
 1433SOL    HW113349   9.866   3.531   1.435  3.6694  0.8056 -0.7915
 1433SOL    HW213350   9.858   3.633   1.308 -0.3106  2.6383  0.8532
 1436SOL     OW13351   3.869   4.171   1.264 -0.3792  0.3302  0.1043
 1436SOL    HW113352   3.907   4.103   1.201 -0.2302  1.0878 -0.6300
 1436SOL    HW213353   3.770   4.174   1.254 -0.1561  2.1395 -1.8271
 1437SOL     OW13354   1.555   7.929   1.036 -0.0525 -0.4590 -0.0694
 1437SOL    HW113355   1.530   7.836   1.008 -0.4829 -0.2587 -0.3541
 1437SOL    HW213356   1.519   7.995   0.970 -0.5895 -0.0279  0.6398
 1438SOL     OW13357   1.922   1.268   1.625 -0.0418  0.0504  1.0736
 1438SOL    HW113358   1.852   1.216   1.575  0.1889 -0.6801  1.4917
 1438SOL    HW213359   1.890   1.362   1.639 -0.0417  0.3074 -0.5624
 1439SOL     OW13360   2.125   6.490   1.733 -0.1567  0.2353  0.2185
 1439SOL    HW113361   2.112   6.453   1.824  0.5586  0.0353  0.2379
 1439SOL    HW213362   2.124   6.590   1.737  1.5069  0.2423  0.6840
 1440SOL     OW13363   2.494   0.218   0.874 -0.0982 -0.1996 -0.4737
 1440SOL    HW113364   2.454   0.279   0.943 -0.1963 -0.1840 -0.5449
 1440SOL    HW213365   2.569   0.166   0.916 -0.0309 -0.0494 -0.4060
 1441SOL     OW13366   4.728   1.130   1.282 -0.5692 -0.0580  0.0368
 1441SOL    HW113367   4.789   1.050   1.275 -2.4438 -1.6140  1.0357
 1441SOL    HW213368   4.734   1.183   1.197  3.2684  0.6870  0.6441
 1442SOL     OW13369   4.030   9.603   0.697 -0.7699  0.2300 -0.3244
 1442SOL    HW113370   4.021   9.651   0.610 -1.1093 -0.9005 -0.9288
 1442SOL    HW213371   3.992   9.659   0.770  0.5881  1.7026 -0.7157
 1443SOL     OW13372   0.930   5.341   2.166 -0.1004 -0.0115 -0.2142
 1443SOL    HW113373   1.017   5.296   2.147  0.0815  0.9367 -1.6787
 1443SOL    HW213374   0.922   5.424   2.111 -2.6605 -0.9857 -1.3983
 1444SOL     OW13375   4.186   0.736   1.078 -1.2197  1.0810  0.0086
 1444SOL    HW113376   4.126   0.762   1.002 -0.6800 -1.7059 -1.4442
 1444SOL    HW213377   4.277   0.715   1.043 -0.2773  2.0690  1.7822
 1446SOL     OW13378   4.714   1.220   1.584  0.3839 -0.1512 -0.1762
 1446SOL    HW113379   4.770   1.296   1.619 -0.5912  0.1969  0.6396
 1446SOL    HW213380   4.701   1.232   1.486 -0.7262  1.3720  0.1429
 1447SOL     OW13381   3.366   5.646   2.343 -0.6413 -0.0414  0.8106
 1447SOL    HW113382   3.459   5.610   2.338 -1.5183 -2.3357  0.2550
 1447SOL    HW213383   3.317   5.603   2.418 -2.2962 -1.4813 -1.0325
 1448SOL     OW13384   2.104   2.328   1.059  0.0927  0.4853  0.2222
 1448SOL    HW113385   2.110   2.251   0.996 -0.1121  0.7693 -0.1501
 1448SOL    HW213386   2.105   2.414   1.007 -1.7460  0.6869  0.4722
 1449SOL     OW13387   3.234   1.623   0.809 -0.2767 -0.3810 -0.0349
 1449SOL    HW113388   3.219   1.617   0.908 -0.1818  0.0240  0.0039
 1449SOL    HW213389   3.180   1.697   0.771  0.5165  0.1681 -0.1160
 1450SOL     OW13390   1.730   1.451   0.846 -0.3277  0.0129 -0.1575
 1450SOL    HW113391   1.690   1.425   0.935 -0.1455  1.0209  0.2191
 1450SOL    HW213392   1.766   1.369   0.801  1.0548 -0.2895  1.4428
 1451SOL     OW13393   9.851   5.278   2.103  0.3621 -0.0087 -0.0938
 1451SOL    HW113394   9.915   5.201   2.099  0.4515  0.0802 -0.3534
 1451SOL    HW213395   9.814   5.285   2.196  0.6165 -0.1513  0.0198
 1452SOL     OW13396   2.648   1.926   2.012  0.1542 -0.4432 -0.4634
 1452SOL    HW113397   2.566   1.893   2.057 -0.0597  1.0018  0.2419
 1452SOL    HW213398   2.695   1.850   1.968  0.6698 -2.0060  2.6629
 1453SOL     OW13399   1.671   6.514   1.164 -0.2133 -0.2105 -0.3342
 1453SOL    HW113400   1.771   6.507   1.165 -0.2292 -0.5186  2.3991
 1453SOL    HW213401   1.645   6.611   1.171 -0.1315 -0.0713 -1.7480
 1454SOL     OW13402   2.843   2.098   0.430  0.1452 -0.2235 -0.0167
 1454SOL    HW113403   2.871   2.130   0.520  1.5900 -0.5532 -0.3225
 1454SOL    HW213404   2.751   2.131   0.409  0.2396  0.7838  1.1067
 1456SOL     OW13405   2.967   0.856   2.250  0.1849 -0.5408 -0.4238
 1456SOL    HW113406   2.992   0.776   2.195  1.6715 -1.2594  1.2646
 1456SOL    HW213407   3.009   0.937   2.210  0.7386 -0.9667 -0.7177
 1458SOL     OW13408   2.310   6.893   0.874  0.2215 -0.1931 -0.6329
 1458SOL    HW113409   2.379   6.954   0.836  0.6159 -0.2825 -0.0653
 1458SOL    HW213410   2.276   6.930   0.961  1.3514 -1.3776  0.3434
 1460SOL     OW13411   2.110   3.292   2.152 -0.7575 -0.2003  0.1793
 1460SOL    HW113412   2.025   3.335   2.183 -0.3226  0.8102 -0.0209
 1460SOL    HW213413   2.186   3.322   2.209 -0.5491 -1.2039  0.4380
 1461SOL     OW13414   1.951   2.768   0.941  0.4151 -0.4908 -0.0835
 1461SOL    HW113415   1.964   2.757   1.039 -1.9037  0.7412  0.3817
 1461SOL    HW213416   1.973   2.862   0.914 -1.1930 -0.1754 -0.3360
 1462SOL     OW13417   3.470   7.426   1.722 -0.1886 -0.2126  0.7364
 1462SOL    HW113418   3.493   7.451   1.816 -0.2091  0.4377  0.5676
 1462SOL    HW213419   3.413   7.497   1.681  0.6596 -0.0015 -0.1034
 1463SOL     OW13420   3.073   6.304   0.732  0.3373 -0.9707 -0.2223
 1463SOL    HW113421   3.145   6.252   0.686  0.2895 -0.4377 -0.9224
 1463SOL    HW213422   3.032   6.249   0.804  1.8263 -1.0899  0.5592
 1464SOL     OW13423   5.356   3.900   1.022  0.1382  0.4920 -0.3172
 1464SOL    HW113424   5.349   3.997   1.048 -1.2846  0.5862 -1.0330
 1464SOL    HW213425   5.375   3.893   0.924 -0.3431  0.0426 -0.3807
 1465SOL     OW13426   3.186   8.173   1.510 -0.2743 -0.3775  0.0956
 1465SOL    HW113427   3.140   8.108   1.572  2.0892 -1.1178  1.1182
 1465SOL    HW213428   3.232   8.243   1.565  0.5274 -0.1276 -0.9025
 1466SOL     OW13429   3.704   9.718   1.824  0.2281 -0.0191 -0.1487
 1466SOL    HW113430   3.727   9.800   1.771  0.6956  0.1714  0.3357
 1466SOL    HW213431   3.636   9.741   1.893  1.7990  0.4277  1.2874
 1467SOL     OW13432   3.749   9.573   0.885  0.1013 -0.0389 -0.1004
 1467SOL    HW113433   3.782   9.481   0.905 -0.5154 -0.1090  0.6448
 1467SOL    HW213434   3.795   9.638   0.946 -0.1566  0.0221  0.0337
 1468SOL     OW13435   2.700   9.003   2.178  0.3603 -0.7114  0.1398
 1468SOL    HW113436   2.768   8.931   2.166  1.1657  0.0464  0.1148
 1468SOL    HW213437   2.623   8.968   2.232  0.4848 -1.7454 -0.3392
 1469SOL     OW13438   2.269   5.578   2.320 -0.4780 -0.0903  0.1876
 1469SOL    HW113439   2.335   5.583   2.246 -0.8934  1.1514 -0.0995
 1469SOL    HW213440   2.264   5.666   2.368 -1.0926 -0.5140  0.9235
 1470SOL     OW13441   9.424   4.796   1.979  0.2174 -0.1761 -0.1694
 1470SOL    HW113442   9.496   4.864   1.991 -1.0061  1.3149 -1.1438
 1470SOL    HW213443   9.450   4.732   1.907  0.8984 -0.1019  0.0106
 1471SOL     OW13444   2.799   9.719   1.845  0.2175  0.3011 -0.0950
 1471SOL    HW113445   2.876   9.718   1.909  0.6232  0.1566 -0.5866
 1471SOL    HW213446   2.714   9.733   1.896  0.6284  1.1001  0.3804
 1472SOL     OW13447   2.532   1.155   0.728  0.0170 -0.4633  0.5188
 1472SOL    HW113448   2.498   1.212   0.654 -1.3342  1.0217  2.2175
 1472SOL    HW213449   2.458   1.137   0.793  1.0186 -2.2238  1.2244
 1473SOL     OW13450   3.956   4.420   1.433 -0.0758 -0.1004 -0.0188
 1473SOL    HW113451   4.010   4.336   1.420 -0.0535 -0.1973  0.6809
 1473SOL    HW213452   3.908   4.415   1.520  0.1007  0.7143  0.1290
 1474SOL     OW13453   3.505   8.575   1.077  0.0571  0.0497  0.3986
 1474SOL    HW113454   3.590   8.597   1.125  0.1841  1.5890 -0.4742
 1474SOL    HW213455   3.482   8.479   1.092  1.4167 -0.1353  1.4593
 1475SOL     OW13456  10.271   5.744   0.435 -0.6346 -0.3331  0.2914
 1475SOL    HW113457  10.198   5.757   0.502 -1.2485  0.8846 -0.5997
 1475SOL    HW213458  10.231   5.723   0.346  0.1265 -0.2788 -0.0649
 1476SOL     OW13459   3.457   0.100   1.768 -0.6563 -0.2847  0.0275
 1476SOL    HW113460   3.544   0.065   1.734 -0.8136  1.4633 -2.2590
 1476SOL    HW213461   3.410   0.150   1.695 -2.8289  0.2097  1.7113
 1477SOL     OW13462   3.064   5.697   1.171  0.3946  0.1113 -0.0933
 1477SOL    HW113463   3.148   5.651   1.199  0.6677  0.2497 -0.6685
 1477SOL    HW213464   3.037   5.764   1.239  2.2153  1.9652 -1.1577
 1478SOL     OW13465   3.140   1.262   1.980  0.0133 -0.1077 -0.1923
 1478SOL    HW113466   3.223   1.225   2.023 -0.2549 -1.1251 -0.5313
 1478SOL    HW213467   3.134   1.229   1.886  0.1443  1.4131 -0.7410
 1479SOL     OW13468   4.619   3.421   1.344  0.5219  0.2747 -0.5155
 1479SOL    HW113469   4.592   3.420   1.440  2.4469  2.5508  0.1017
 1479SOL    HW213470   4.567   3.492   1.296 -0.8800 -1.2696 -1.3220
 1480SOL     OW13471   2.439   6.157   1.383 -0.6622 -0.3434 -0.4876
 1480SOL    HW113472   2.356   6.104   1.365  0.7601 -2.5843 -0.8172
 1480SOL    HW213473   2.505   6.099   1.432  0.9663  1.1386 -0.8731
 1481SOL     OW13474   4.818   1.276   2.102  0.3090 -0.4483 -0.2300
 1481SOL    HW113475   4.885   1.347   2.081 -0.1295 -0.5475 -2.1133
 1481SOL    HW213476   4.821   1.206   2.030  0.1647 -1.9207  1.1631
 1482SOL     OW13477   3.289   1.866   2.043  0.3885 -0.3412  0.1984
 1482SOL    HW113478   3.205   1.887   1.994  0.4403  0.8873  0.6009
 1482SOL    HW213479   3.365   1.860   1.979  0.4727  1.3634  0.1177
 1483SOL     OW13480   2.213   6.923   0.558 -0.2256 -0.8058  0.1175
 1483SOL    HW113481   2.242   6.908   0.652  0.0511 -2.3325 -0.2116
 1483SOL    HW213482   2.288   6.904   0.495 -0.5719 -0.3360 -0.4551
 1484SOL     OW13483   8.990   4.922   0.927  0.1087 -0.0997 -0.3898
 1484SOL    HW113484   8.899   4.911   0.888  0.5781 -1.4820 -1.1203
 1484SOL    HW213485   9.059   4.883   0.865  1.4654  3.0882 -1.0143
 1486SOL     OW13486   0.931   3.699   1.379 -0.1929  0.2298  0.6141
 1486SOL    HW113487   0.842   3.658   1.358  0.3193 -0.4293 -0.3056
 1486SOL    HW213488   0.974   3.650   1.455 -1.0190  1.1393  1.6843
 1487SOL     OW13489   3.619  -0.021   1.587  0.1424  0.2472  0.4964
 1487SOL    HW113490   3.606   0.050   1.518  0.7033 -1.8573 -1.8238
 1487SOL    HW213491   3.716  -0.031   1.607  0.3237 -1.7966 -1.2999
 1488SOL     OW13492   2.556   7.357   0.625 -0.1826 -0.1255 -0.1277
 1488SOL    HW113493   2.643   7.339   0.580 -0.1527 -0.5117  0.0829
 1488SOL    HW213494   2.571   7.412   0.707 -0.0846 -0.6053  0.1759
 1489SOL     OW13495   1.932   0.278   1.799  0.9189  0.3212 -0.7295
 1489SOL    HW113496   1.951   0.186   1.833 -0.3231  0.0843 -0.6602
 1489SOL    HW213497   1.973   0.345   1.861 -0.5123 -0.1310  0.7253
 1490SOL     OW13498   1.137   7.105   0.529 -0.1747  0.6719  0.0783
 1490SOL    HW113499   1.199   7.027   0.541 -2.0110 -0.7414  0.7472
 1490SOL    HW213500   1.190   7.190   0.528  1.6553 -0.3965  1.8209
 1492SOL     OW13501   4.573   2.426   2.113  0.1129 -0.2507  0.1861
 1492SOL    HW113502   4.616   2.366   2.181  0.9372 -0.9068 -0.8949
 1492SOL    HW213503   4.493   2.471   2.154  0.0933 -1.2925  1.3255
 1493SOL     OW13504   4.482   1.349   1.382 -0.7006 -0.5808 -0.1273
 1493SOL    HW113505   4.554   1.407   1.343 -0.3837  1.0747  2.7717
 1493SOL    HW213506   4.480   1.262   1.333  1.4087  0.3824 -2.0614
 1494SOL     OW13507   2.395   1.937   0.538  0.4071  0.0190 -0.1164
 1494SOL    HW113508   2.399   1.964   0.634  3.2993 -1.9357  0.3708
 1494SOL    HW213509   2.438   2.008   0.482 -1.3016  1.1707 -0.0320
 1495SOL     OW13510   2.881   8.862   1.225 -0.1872 -0.2601 -0.3118
 1495SOL    HW113511   2.860   8.816   1.138  1.0926 -2.5763  0.5467
 1495SOL    HW213512   2.980   8.865   1.239 -0.3932 -0.4241  1.3143
 1496SOL     OW13513   9.975   5.714   2.274 -0.0638 -1.0720  0.8407
 1496SOL    HW113514   9.891   5.745   2.231  0.3796  1.1896  1.5314
 1496SOL    HW213515   9.987   5.759   2.362  1.6551 -1.6569  0.9420
 1497SOL     OW13516   1.761   1.376   0.465  0.1507 -0.5221  0.3883
 1497SOL    HW113517   1.713   1.449   0.514 -0.2527  0.8666 -1.9912
 1497SOL    HW213518   1.858   1.379   0.488 -0.1582 -0.4172  1.7165
 1498SOL     OW13519   1.883   8.998   1.145  0.6306  0.2894  0.2784
 1498SOL    HW113520   1.940   8.918   1.130 -1.0166 -0.9252  0.3508
 1498SOL    HW213521   1.897   9.063   1.071  1.1366 -0.5710 -0.3891
 1499SOL     OW13522   2.781   3.161   2.306 -0.1685 -0.1629 -0.1502
 1499SOL    HW113523   2.876   3.170   2.275 -0.3210 -0.2877 -0.6472
 1499SOL    HW213524   2.728   3.240   2.276  0.2261  0.8633  1.7784
 1500SOL     OW13525   1.525   6.566   2.004  0.3199  0.6670 -0.3197
 1500SOL    HW113526   1.551   6.543   1.911  0.5800  0.2268 -0.1415
 1500SOL    HW213527   1.428   6.549   2.017  0.7095 -1.3878  0.1139
 1501SOL     OW13528   0.728   2.785   0.332  0.0036 -0.1587 -0.2278
 1501SOL    HW113529   0.753   2.798   0.428 -0.1695 -0.1605 -0.1823
 1501SOL    HW213530   0.793   2.723   0.288  0.2619  0.0853 -0.1907
 1502SOL     OW13531   2.921   1.572   1.623  0.1196 -0.1598  0.7521
 1502SOL    HW113532   2.995   1.608   1.679 -0.1364 -0.7308  1.4713
 1502SOL    HW213533   2.854   1.644   1.606  0.5199  0.1859  0.6456
 1503SOL     OW13534   3.530   9.367   0.681  0.4387 -0.4539 -0.0797
 1503SOL    HW113535   3.609   9.365   0.742  0.5250 -1.0162 -0.2105
 1503SOL    HW213536   3.455   9.314   0.721  0.1623 -0.0037 -0.0018
 1504SOL     OW13537   0.582   4.881   1.670 -0.0998  0.0145 -0.5017
 1504SOL    HW113538   0.527   4.960   1.696  1.3491  0.8931 -0.0346
 1504SOL    HW213539   0.568   4.861   1.573 -1.1014  0.3372 -0.4229
 1506SOL     OW13540   0.858   4.565   1.966  0.4989  0.6963 -0.0548
 1506SOL    HW113541   0.830   4.551   1.871  0.9565  0.0907 -0.1060
 1506SOL    HW213542   0.912   4.648   1.974 -0.7810  1.5360 -0.0667
 1507SOL     OW13543   4.557   1.172   2.212 -0.0520  0.6757  0.6206
 1507SOL    HW113544   4.653   1.187   2.187 -0.5900  1.4232 -1.1208
 1507SOL    HW213545   4.503   1.161   2.128 -1.5298  0.5383  1.5828
 1508SOL     OW13546   2.113   6.147   1.551 -0.3397 -0.3173  0.2658
 1508SOL    HW113547   2.125   6.243   1.525  0.2849 -0.7471 -1.0424
 1508SOL    HW213548   2.121   6.089   1.471  0.5038 -1.5702  1.2363
 1510SOL     OW13549   2.694   8.590   2.316 -0.1093 -0.1485 -0.4004
 1510SOL    HW113550   2.715   8.677   2.362 -0.1535 -0.5043  0.2939
 1510SOL    HW213551   2.756   8.519   2.349  0.7230 -0.1129 -1.8519
 1512SOL     OW13552   2.676   3.818   0.409  0.0494 -0.4251 -0.4086
 1512SOL    HW113553   2.583   3.789   0.434 -1.7311  3.5337 -1.9777
 1512SOL    HW213554   2.718   3.865   0.487 -0.9208  1.4810 -1.0153
 1513SOL     OW13555   2.572   1.934   0.933 -0.0478 -0.6933 -0.3214
 1513SOL    HW113556   2.572   1.836   0.912 -0.9612 -1.0970  1.4676
 1513SOL    HW213557   2.623   1.950   1.018 -2.1397  0.0301  0.8336
 1514SOL     OW13558   1.204   3.775   1.284 -0.3179 -0.1426  0.5509
 1514SOL    HW113559   1.224   3.836   1.207 -0.8259  0.7782  1.1270
 1514SOL    HW213560   1.105   3.770   1.297 -0.3009 -1.4555  0.2404
 1515SOL     OW13561   2.526   4.153   0.754  0.2835 -0.1119 -0.7113
 1515SOL    HW113562   2.533   4.153   0.854 -0.3088 -0.1838 -0.6703
 1515SOL    HW213563   2.562   4.066   0.720  0.5204 -0.0744 -0.5630
 1516SOL     OW13564   1.189   3.061   0.412  0.2477 -0.3469  0.1629
 1516SOL    HW113565   1.182   3.148   0.460  1.2357 -0.3325  0.2881
 1516SOL    HW213566   1.253   3.001   0.460 -0.6767 -1.2727  0.2673
 1517SOL     OW13567   2.074   7.720   1.402 -0.6101  0.1933  0.3360
 1517SOL    HW113568   1.987   7.731   1.451 -2.3637  0.9711 -2.8231
 1517SOL    HW213569   2.138   7.789   1.435 -1.9601  1.1279  1.0975
 1518SOL     OW13570   1.032   2.655   0.511  0.0328  0.2631 -0.1205
 1518SOL    HW113571   1.010   2.751   0.526  2.6694  1.1066 -1.3203
 1518SOL    HW213572   1.086   2.621   0.588  1.1352  0.4597 -0.7851
 1519SOL     OW13573   5.404   3.097   0.535  0.2827 -0.0756  0.2892
 1519SOL    HW113574   5.491   3.092   0.486  0.2528 -1.1821  0.3320
 1519SOL    HW213575   5.385   3.192   0.559 -0.3939  0.6852 -3.0343
 1521SOL     OW13576   3.487   0.301   1.936  0.3922 -0.1302 -0.4030
 1521SOL    HW113577   3.449   0.218   1.896 -3.5706  2.1312 -1.5999
 1521SOL    HW213578   3.528   0.357   1.865 -0.0364  0.5145 -0.1439
 1523SOL     OW13579   2.247   3.058   1.592  0.4083  0.2148  0.0600
 1523SOL    HW113580   2.182   3.063   1.517 -0.0134 -0.0017  0.4049
 1523SOL    HW213581   2.227   3.130   1.659 -0.5839 -0.9281  1.0267
 1524SOL     OW13582   1.260   2.718   1.029 -0.1500  0.2557  0.0291
 1524SOL    HW113583   1.203   2.645   0.989 -0.0001  0.6209 -0.8616
 1524SOL    HW213584   1.204   2.773   1.091 -0.6382  0.2758 -0.4200
 1525SOL     OW13585   2.287   7.502   1.872  0.3060  0.3145  0.1971
 1525SOL    HW113586   2.212   7.552   1.828 -0.6689 -0.5885  0.7877
 1525SOL    HW213587   2.253   7.457   1.954  1.1255 -1.3623 -0.3477
 1526SOL     OW13588   1.304   2.585   1.273 -0.2791 -0.6043 -0.0830
 1526SOL    HW113589   1.279   2.614   1.180 -0.5223  0.8338  0.4140
 1526SOL    HW213590   1.279   2.657   1.338  2.1063 -0.5434  0.8257
 1527SOL     OW13591   3.901  -0.065   0.868 -0.0780  0.8297  0.5263
 1527SOL    HW113592   3.908   0.030   0.900 -0.7447  0.4899  1.7217
 1527SOL    HW213593   3.911  -0.127   0.946  1.1548 -0.1128 -0.3709
 1528SOL     OW13594   3.913   0.327   1.660  0.2786  0.0969  0.0949
 1528SOL    HW113595   3.860   0.317   1.744  0.0055  0.5421 -0.0251
 1528SOL    HW213596   3.880   0.405   1.609 -0.9655 -1.4349 -1.4911
 1529SOL     OW13597   2.487   9.726   1.101  0.3099  0.1839 -0.5619
 1529SOL    HW113598   2.389   9.736   1.121  0.4679 -1.5450  1.2453
 1529SOL    HW213599   2.501   9.644   1.045  0.8209 -0.1494  0.0503
 1530SOL     OW13600   3.595   0.456   1.293  0.1625  1.2059  0.3325
 1530SOL    HW113601   3.598   0.534   1.356  0.0411 -0.1271  2.0121
 1530SOL    HW213602   3.500   0.437   1.269 -0.0919 -0.2633  2.3104
 1531SOL     OW13603   3.060   3.217   2.196 -0.1934 -0.5174 -0.4724
 1531SOL    HW113604   3.060   3.118   2.182  1.3619 -0.6922  0.6952
 1531SOL    HW213605   3.137   3.258   2.147 -0.6709  0.0860 -0.7282
 1532SOL     OW13606   2.558   4.491   2.224  0.2928  0.0326 -0.0073
 1532SOL    HW113607   2.552   4.572   2.166  0.3179 -0.3437 -0.5480
 1532SOL    HW213608   2.649   4.449   2.213 -0.8677 -2.0050 -2.3906
 1533SOL     OW13609   2.018   9.126   0.412  0.5298 -0.5704  0.1049
 1533SOL    HW113610   2.001   9.113   0.509  0.8112 -2.2979 -0.0612
 1533SOL    HW213611   1.956   9.196   0.376 -1.1124 -1.5046  1.0646
 1535SOL     OW13612   2.451   9.569   1.701  0.5724  0.2377 -0.1213
 1535SOL    HW113613   2.421   9.640   1.765  0.6159  0.0666  0.0856
 1535SOL    HW213614   2.537   9.597   1.659 -0.5729  1.3982 -1.7762
 1537SOL     OW13615   4.870   5.240   0.947 -0.1072  0.4964  0.0358
 1537SOL    HW113616   4.826   5.150   0.956 -0.7042  0.8130  0.3215
 1537SOL    HW213617   4.896   5.273   1.038 -1.3142  1.3208  0.0797
 1538SOL     OW13618   3.372   2.161   2.138 -0.6397  0.0381 -0.2495
 1538SOL    HW113619   3.455   2.149   2.085 -0.0562 -0.9738  0.8621
 1538SOL    HW213620   3.305   2.091   2.113 -0.9636  0.5155 -0.7483
 1539SOL     OW13621   4.863   3.283   0.985  0.5363 -0.1189  0.1279
 1539SOL    HW113622   4.911   3.205   0.946  0.3618  0.3078 -0.9614
 1539SOL    HW213623   4.811   3.254   1.066  1.6776 -0.8147  0.6224
 1540SOL     OW13624   1.371   2.679   1.745  0.3088  0.3386 -0.7588
 1540SOL    HW113625   1.427   2.726   1.676 -0.6362  0.2335 -1.6176
 1540SOL    HW213626   1.379   2.580   1.732 -0.7495  0.3329 -1.4546
 1541SOL     OW13627   2.963   6.398   1.760  0.2768 -0.7178  0.1872
 1541SOL    HW113628   2.934   6.491   1.738 -0.0064 -1.2713 -1.9276
 1541SOL    HW213629   3.059   6.398   1.787  0.4291  0.1296 -0.3455
 1542SOL     OW13630   2.449   8.286   1.056  0.8475 -0.7820  0.1454
 1542SOL    HW113631   2.355   8.259   1.034  0.9191  0.1723 -1.4097
 1542SOL    HW213632   2.448   8.356   1.127  0.3431 -0.2479 -0.3842
 1543SOL     OW13633   0.983   3.483   1.083 -0.0534  0.2760  0.3047
 1543SOL    HW113634   0.930   3.557   1.125  1.6163  1.3796  0.4829
 1543SOL    HW213635   1.073   3.516   1.058 -0.0464 -1.1428 -1.6205
 1544SOL     OW13636   1.352   3.720   2.298 -0.3167  0.1678 -0.0166
 1544SOL    HW113637   1.430   3.659   2.281  0.5121  0.7308  1.6500
 1544SOL    HW213638   1.284   3.707   2.226  1.5274  0.0160 -1.7943
 1545SOL     OW13639   3.952   0.244   2.311 -0.0621 -0.4838  0.0911
 1545SOL    HW113640   4.044   0.206   2.296 -0.8825 -1.9060 -1.5131
 1545SOL    HW213641   3.891   0.170   2.341 -0.4593  0.6527  2.1208
 1546SOL     OW13642   3.842   1.356   2.161  0.8468  0.4378 -0.1338
 1546SOL    HW113643   3.813   1.263   2.139  0.9931  0.5656 -0.8835
 1546SOL    HW213644   3.878   1.359   2.254 -0.3245  0.0013  0.3435
 1547SOL     OW13645   4.653   5.006   1.591  0.2922 -0.0189 -0.5586
 1547SOL    HW113646   4.625   4.969   1.502 -3.1263 -1.3095  0.9886
 1547SOL    HW213647   4.650   4.933   1.660 -0.5548  1.7273  1.2956
 1548SOL     OW13648   0.942   5.532   1.583  0.1558  0.5064 -0.0543
 1548SOL    HW113649   1.019   5.487   1.539 -0.6662 -0.3776 -0.6154
 1548SOL    HW213650   0.972   5.618   1.625  1.2840  0.5126 -0.8683
 1550SOL     OW13651   9.552   5.439   0.809 -0.3343  0.3612  0.0740
 1550SOL    HW113652   9.493   5.446   0.889 -1.2957 -2.0383 -0.3686
 1550SOL    HW213653   9.645   5.465   0.833 -0.8346  0.6846  1.7102
 1551SOL     OW13654   0.849   6.904   1.267 -0.1115 -0.4078  0.2327
 1551SOL    HW113655   0.878   6.976   1.204  1.0294  0.6717  1.9587
 1551SOL    HW213656   0.831   6.820   1.215  2.7802 -0.1353 -1.3235
 1552SOL     OW13657   2.405   4.850   0.958  0.2619 -0.3311 -0.3818
 1552SOL    HW113658   2.310   4.836   0.985  0.3046  0.2790  0.0937
 1552SOL    HW213659   2.442   4.931   1.004  1.5675 -1.5831  0.8209
 1553SOL     OW13660   4.673   0.813   1.626  0.1506  0.3349 -0.1305
 1553SOL    HW113661   4.656   0.742   1.694  0.1648 -0.3583 -0.8391
 1553SOL    HW213662   4.605   0.886   1.635  1.5896  1.4387  2.1961
 1554SOL     OW13663   5.265   3.794   0.341  0.1186  0.3267  0.2189
 1554SOL    HW113664   5.215   3.869   0.384 -1.0766  0.3062 -1.1084
 1554SOL    HW213665   5.201   3.725   0.309  1.0529 -0.0487 -0.8593
 1555SOL     OW13666   4.204   1.098   1.786  0.3592  0.1921  0.0832
 1555SOL    HW113667   4.234   1.192   1.773  0.9891 -0.1003 -0.6420
 1555SOL    HW213668   4.123   1.080   1.731  0.0810  0.3889  0.4300
 1556SOL     OW13669   2.557   0.674   0.665  0.3943  0.4723 -0.3090
 1556SOL    HW113670   2.602   0.617   0.733  0.2978 -0.3058 -0.8827
 1556SOL    HW213671   2.598   0.765   0.664  0.8080  0.2932  0.3508
 1557SOL     OW13672   1.644   2.552   1.628 -0.0460  0.3884 -0.8996
 1557SOL    HW113673   1.718   2.612   1.597  0.1092  0.2612 -0.7769
 1557SOL    HW213674   1.582   2.604   1.687  0.9468  0.0403  0.4802
 1558SOL     OW13675   3.709   3.961   2.195 -0.3243  0.3324  0.2224
 1558SOL    HW113676   3.694   3.954   2.294 -0.9397 -1.0024  0.0517
 1558SOL    HW213677   3.687   3.873   2.152  0.1657  0.8341 -1.0725
 1559SOL     OW13678   3.524   5.329   1.626 -0.5813  0.2445 -0.4182
 1559SOL    HW113679   3.436   5.362   1.591 -0.4984 -1.2255 -2.0856
 1559SOL    HW213680   3.544   5.375   1.712 -2.5740  1.2332 -0.4331
 1560SOL     OW13681   3.043   1.139   2.218 -0.0721  0.1074  0.1970
 1560SOL    HW113682   3.014   1.227   2.253 -3.8960 -0.5818 -1.0065
 1560SOL    HW213683   3.056   1.144   2.119 -1.3228 -0.8805 -0.0389
 1561SOL     OW13684   9.548   4.438   1.477 -0.5594 -0.2222  0.5538
 1561SOL    HW113685   9.449   4.448   1.463 -0.5279  0.0581  0.5328
 1561SOL    HW213686   9.597   4.487   1.405 -0.4020 -2.2121 -0.7302
 1562SOL     OW13687   2.624   0.188   1.357 -0.3279  0.7498 -0.0978
 1562SOL    HW113688   2.656   0.099   1.327 -0.2617  0.8761 -0.4092
 1562SOL    HW213689   2.602   0.244   1.277  1.2912  1.6261  0.0525
 1563SOL     OW13690   1.473   3.624   0.778 -0.2477 -0.0112 -0.2770
 1563SOL    HW113691   1.389   3.677   0.765 -0.5731 -0.7789 -1.3703
 1563SOL    HW213692   1.541   3.652   0.710 -0.0405 -0.2278 -0.1594
 1564SOL     OW13693   1.812   2.706   0.594 -0.1854  0.6134  0.1285
 1564SOL    HW113694   1.727   2.746   0.628  0.2367  2.0249 -0.4073
 1564SOL    HW213695   1.809   2.607   0.602 -1.1982  0.7635  1.6745
 1565SOL     OW13696   1.544   4.032   1.711  0.3770 -0.1155 -0.1666
 1565SOL    HW113697   1.605   4.099   1.668  0.0798  0.7462  0.7346
 1565SOL    HW213698   1.588   3.993   1.792  0.1411 -0.2578 -0.1056
 1566SOL     OW13699   0.853   3.209   0.328  0.3076  0.1150 -0.1283
 1566SOL    HW113700   0.836   3.199   0.426 -0.7409  0.1315 -0.3018
 1566SOL    HW213701   0.825   3.125   0.281  0.6007  0.1941 -0.4484
 1567SOL     OW13702   3.998   1.674   1.265  0.0592 -0.2582  0.2789
 1567SOL    HW113703   3.992   1.742   1.192 -1.1858  1.5663  2.0153
 1567SOL    HW213704   4.080   1.691   1.320 -0.9757  0.7745  1.5583
 1568SOL     OW13705   2.501   8.373   0.331 -0.0284 -0.3484 -0.3409
 1568SOL    HW113706   2.571   8.420   0.278  1.3246 -1.3871  0.5035
 1568SOL    HW213707   2.448   8.440   0.383  1.4782  0.3150  0.3713
 1569SOL     OW13708   1.721   5.669   1.977  0.1899  0.3267 -0.1243
 1569SOL    HW113709   1.767   5.689   1.891 -1.1139  1.7424 -0.5098
 1569SOL    HW213710   1.788   5.636   2.044  1.3853  0.2546 -1.3352
 1571SOL     OW13711   4.684   4.511   0.791  0.3195  0.1596 -0.1662
 1571SOL    HW113712   4.600   4.456   0.787  0.4968 -0.1965  0.8235
 1571SOL    HW213713   4.664   4.604   0.760  0.1407 -0.5966 -2.4278
 1572SOL     OW13714   4.128  -0.151   2.241  0.1150 -0.3866  0.1040
 1572SOL    HW113715   4.096  -0.178   2.332 -0.0490  0.4137  0.2930
 1572SOL    HW213716   4.119  -0.228   2.178  0.4262 -1.0142  0.8119
 1574SOL     OW13717   3.453   4.114   1.473  0.7420 -0.1428 -0.2708
 1574SOL    HW113718   3.398   4.044   1.519 -0.9574  0.9810 -0.5635
 1574SOL    HW213719   3.536   4.131   1.525 -0.0728 -0.5205  1.1741
 1575SOL     OW13720   1.007   7.546   2.282  0.0834  0.2298 -0.4887
 1575SOL    HW113721   0.950   7.572   2.360  0.4427  0.8930 -0.4494
 1575SOL    HW213722   1.063   7.467   2.307  0.7975  0.9420  0.1957
 1576SOL     OW13723   1.195   5.253   2.126  0.6886 -0.4280 -0.0929
 1576SOL    HW113724   1.226   5.331   2.180 -0.2522 -0.6508  0.7778
 1576SOL    HW213725   1.266   5.183   2.125  1.4095  0.3101 -0.6176
 1577SOL     OW13726   0.533   3.516   2.271  0.1306 -0.3233  0.3228
 1577SOL    HW113727   0.444   3.487   2.235  0.1056  0.0156  0.1134
 1577SOL    HW213728   0.538   3.493   2.368  0.7429 -2.5316 -0.1906
 1578SOL     OW13729   2.793   8.928   1.488  0.1297  0.8407 -0.1254
 1578SOL    HW113730   2.714   8.867   1.496  1.3922 -0.7324  0.7095
 1578SOL    HW213731   2.847   8.902   1.408  0.1803  1.4688 -0.2987
 1579SOL     OW13732   9.700   3.876   1.684  0.1447 -0.4364 -0.2251
 1579SOL    HW113733   9.674   3.808   1.752 -0.7775 -2.2115 -2.2568
 1579SOL    HW213734   9.767   3.939   1.723 -0.6508 -1.1613  2.3946
 1580SOL     OW13735   2.334   2.336   2.182 -0.0493  0.3154 -0.1010
 1580SOL    HW113736   2.276   2.279   2.241  0.0542 -0.2029 -0.4989
 1580SOL    HW213737   2.313   2.433   2.198 -1.7942  0.0956 -1.0348
 1581SOL     OW13738   9.543   4.276   1.205 -0.2879 -0.3537 -0.5125
 1581SOL    HW113739   9.522   4.243   1.113 -1.1163  1.4727 -0.9818
 1581SOL    HW213740   9.509   4.210   1.272  0.8341 -1.9855 -1.5049
 1582SOL     OW13741   2.470   0.897   0.412 -0.1472  0.4207  0.6428
 1582SOL    HW113742   2.533   0.882   0.489  1.0140  0.2463 -0.3176
 1582SOL    HW213743   2.522   0.932   0.334 -0.5592 -3.1329 -1.3414
 1583SOL     OW13744   2.176   0.555   2.352 -0.1677 -0.4171  0.6732
 1583SOL    HW113745   2.185   0.637   2.408 -0.7214  1.0731 -1.3702
 1583SOL    HW213746   2.080   0.525   2.352 -0.3585  0.1757 -0.2717
 1584SOL     OW13747   1.186   3.687   0.782  0.0888 -0.1757  0.7496
 1584SOL    HW113748   1.197   3.783   0.757  0.0606 -0.3489  0.0620
 1584SOL    HW213749   1.171   3.632   0.699 -2.5748 -0.3937  1.3236
 1585SOL     OW13750   4.559   4.537   1.567 -0.4371  0.1173 -0.2560
 1585SOL    HW113751   4.587   4.496   1.480 -0.2317  0.5167 -0.3785
 1585SOL    HW213752   4.467   4.574   1.558 -1.2252 -1.6163  0.2839
 1586SOL     OW13753   0.754   3.729   0.593 -0.2919 -0.4179  0.0939
 1586SOL    HW113754   0.785   3.820   0.564  1.8818 -1.0794  0.2836
 1586SOL    HW213755   0.673   3.704   0.540 -0.5830  1.3800 -0.3693
 1587SOL     OW13756   3.723   2.015   1.317  0.2609  0.4318 -0.3511
 1587SOL    HW113757   3.745   2.097   1.370  0.8035  0.1404 -0.1113
 1587SOL    HW213758   3.677   2.041   1.232  1.0967  1.0428 -0.6298
 1588SOL     OW13759   1.217   2.806   1.419  0.0859 -0.0931  0.1136
 1588SOL    HW113760   1.232   2.905   1.413 -1.1015  0.1848  1.4665
 1588SOL    HW213761   1.140   2.788   1.480  2.2935 -2.0066  2.4255
 1591SOL     OW13762   3.103   8.488   1.111 -0.2259 -0.4448 -0.3421
 1591SOL    HW113763   3.098   8.412   1.176  0.4514  1.7653  2.4200
 1591SOL    HW213764   3.022   8.546   1.120  0.3120  0.3964 -0.7941
 1592SOL     OW13765   0.887   6.425   1.294 -0.1838 -0.3260  0.0125
 1592SOL    HW113766   0.961   6.483   1.260 -1.0464  0.5697 -0.3666
 1592SOL    HW213767   0.883   6.341   1.241 -0.3465  0.2582 -0.9046
 1593SOL     OW13768   4.541   2.724   1.799 -0.0282 -0.1830  0.6314
 1593SOL    HW113769   4.475   2.794   1.826  0.1213  0.7733 -1.3840
 1593SOL    HW213770   4.492   2.640   1.773 -0.3000 -0.2949  1.4958
 1594SOL     OW13771   1.800   6.856   2.008  0.1459 -0.3380 -0.3169
 1594SOL    HW113772   1.704   6.852   2.035  0.9150  0.1640  2.6689
 1594SOL    HW213773   1.823   6.950   1.982 -0.1473 -0.4402 -0.9489
 1596SOL     OW13774   1.907   2.274   2.109  0.6612  0.5090  0.1555
 1596SOL    HW113775   1.999   2.247   2.139  0.1843  0.4942  1.6505
 1596SOL    HW213776   1.842   2.260   2.184 -0.6365  0.1565 -1.0141
 1597SOL     OW13777   3.201   5.119   1.684 -0.0082  0.2910  0.1532
 1597SOL    HW113778   3.125   5.159   1.633  0.4796 -0.0480 -0.8656
 1597SOL    HW213779   3.285   5.128   1.630  0.7631  1.0660  1.4601
 1598SOL     OW13780   4.073   9.150   1.020 -0.3072  0.1365  0.2003
 1598SOL    HW113781   4.035   9.191   0.937 -2.2505 -0.0750  0.9409
 1598SOL    HW213782   4.162   9.190   1.040 -0.8254  1.8107 -0.7608
 1599SOL     OW13783   2.535   3.230   0.626  0.2070 -0.2928  0.1038
 1599SOL    HW113784   2.562   3.214   0.531  1.2291 -0.5111  0.4238
 1599SOL    HW213785   2.512   3.327   0.637  1.4341  0.0174 -0.0419
 1600SOL     OW13786   3.031   6.967   1.733  0.2471  0.6331  0.3966
 1600SOL    HW113787   3.105   6.902   1.717  1.2877  2.0399 -0.7386
 1600SOL    HW213788   2.997   7.001   1.645  0.8321  2.8065  0.9687
 1601SOL     OW13789   3.543   9.695   0.803  0.0688  0.2116 -0.6448
 1601SOL    HW113790   3.618   9.647   0.849 -1.2196 -0.0102  1.2819
 1601SOL    HW213791   3.579   9.751   0.729  2.1019 -0.0376  0.1448
 1602SOL     OW13792   2.270   2.314   1.269 -0.1509  0.6208  0.7257
 1602SOL    HW113793   2.249   2.406   1.301  1.8713  1.7103 -0.9907
 1602SOL    HW213794   2.231   2.300   1.178  1.4495  0.5971  0.0251
 1603SOL     OW13795   2.921   8.714   0.883  0.3287 -0.1868 -0.9664
 1603SOL    HW113796   3.013   8.706   0.845  0.3288  0.5972 -1.1469
 1603SOL    HW213797   2.889   8.808   0.873  0.2558 -0.0051  0.8489
 1604SOL     OW13798  10.377   6.220   1.467  0.3020  0.2927  0.5669
 1604SOL    HW113799  10.303   6.280   1.435 -1.6245 -1.4232  1.6437
 1604SOL    HW213800  10.431   6.269   1.536 -0.0122  1.4707 -0.0001
 1607SOL     OW13801   1.644   2.509   2.199 -0.5677  0.0188 -0.0989
 1607SOL    HW113802   1.618   2.472   2.110 -0.0823  0.1487 -0.2950
 1607SOL    HW213803   1.658   2.607   2.192 -0.1259 -0.0348  0.0281
 1609SOL     OW13804   2.527   9.509   0.928  0.0940 -0.0378  0.1329
 1609SOL    HW113805   2.599   9.461   0.878  1.6218  0.5667  1.6991
 1609SOL    HW213806   2.446   9.451   0.934  0.4398 -0.7334 -1.6520
 1610SOL     OW13807   4.443   1.924   2.047  0.2768  0.5024 -0.1188
 1610SOL    HW113808   4.347   1.941   2.025 -0.1516 -0.1392  1.2281
 1610SOL    HW213809   4.495   2.009   2.034 -0.7493  1.2620  0.6214
 1611SOL     OW13810   2.524   5.392   0.461 -0.2950  0.7202 -0.2925
 1611SOL    HW113811   2.517   5.302   0.505 -1.2968  0.8987 -0.0552
 1611SOL    HW213812   2.603   5.441   0.497  1.2468 -0.7047 -1.6360
 1612SOL     OW13813   3.021   6.360   0.388  0.0080  0.0328 -0.0340
 1612SOL    HW113814   2.972   6.333   0.471 -0.6770  0.1867 -0.3833
 1612SOL    HW213815   3.023   6.284   0.324  0.8858 -0.2137  0.2814
 1613SOL     OW13816   2.836   6.557   0.795 -0.3956  0.0741 -0.4944
 1613SOL    HW113817   2.836   6.487   0.867  0.7302  1.2799  0.7148
 1613SOL    HW213818   2.917   6.547   0.738 -0.0439  0.6082 -0.0933
 1615SOL     OW13819   3.412   1.071   0.373 -0.1390 -0.8996  0.5217
 1615SOL    HW113820   3.423   1.056   0.275 -2.1456 -0.5315  0.2048
 1615SOL    HW213821   3.354   0.998   0.411  0.4538 -0.9199  1.3926
 1616SOL     OW13822   0.580   3.302   1.438 -0.4036  0.4958 -0.1894
 1616SOL    HW113823   0.558   3.251   1.522  1.4075 -1.1909 -0.7266
 1616SOL    HW213824   0.495   3.322   1.389 -1.2268 -1.2705  0.4573
 1617SOL     OW13825   2.296   4.220   0.596 -0.1757  0.4514 -0.3279
 1617SOL    HW113826   2.306   4.191   0.500 -0.2070 -0.6346 -0.0177
 1617SOL    HW213827   2.370   4.180   0.650 -1.6438 -1.1226  0.5653
 1618SOL     OW13828   3.939  -0.147   1.290 -0.2570  0.0870  0.2790
 1618SOL    HW113829   4.029  -0.178   1.318 -0.0907 -0.0086 -0.3418
 1618SOL    HW213830   3.937  -0.047   1.286 -0.7206  0.1630  2.0434
 1619SOL     OW13831   2.374   4.626   1.217  0.8755  0.0708 -0.7239
 1619SOL    HW113832   2.391   4.647   1.121 -0.1051  0.1025 -0.8931
 1619SOL    HW213833   2.291   4.571   1.226  0.5185  0.7279  0.1659
 1620SOL     OW13834   3.107   7.553   0.561  0.5159  0.2066  0.2506
 1620SOL    HW113835   3.158   7.637   0.578  0.1920  0.3190  0.6548
 1620SOL    HW213836   3.171   7.478   0.544  0.7945  0.7630 -1.2089
 1621SOL     OW13837   2.687   9.024   1.846  0.0780  0.3530 -0.4530
 1621SOL    HW113838   2.663   9.121   1.847 -0.8438  0.1544 -2.0881
 1621SOL    HW213839   2.787   9.015   1.849  0.1886  1.3623 -0.7666
 1622SOL     OW13840   2.505   0.462   1.400 -0.0107 -0.4971  0.4479
 1622SOL    HW113841   2.503   0.508   1.489  0.5954  0.7545 -0.1713
 1622SOL    HW213842   2.440   0.386   1.401 -1.2606  0.5460  1.4125
 1623SOL     OW13843   2.435   1.369   2.163  0.0612  0.0977  0.1168
 1623SOL    HW113844   2.471   1.388   2.255  1.6758  0.3506 -0.5602
 1623SOL    HW213845   2.492   1.300   2.119 -0.8401 -0.1746 -0.6349
 1624SOL     OW13846   2.799   4.300   1.829  0.0989  0.0038  0.0160
 1624SOL    HW113847   2.744   4.371   1.783 -1.3901 -0.8912  0.3838
 1624SOL    HW213848   2.861   4.344   1.894  0.0497  1.0589 -0.6275
 1627SOL     OW13849   1.665   0.089   1.518 -0.3936  0.1752  0.5174
 1627SOL    HW113850   1.733   0.159   1.498  0.9408 -0.4802  2.5672
 1627SOL    HW213851   1.671   0.016   1.451  1.1758 -0.0463  0.8900
 1628SOL     OW13852   2.015   1.358   0.556  0.1559  0.1078  0.2139
 1628SOL    HW113853   2.059   1.435   0.602 -0.0563  1.0676 -1.1653
 1628SOL    HW213854   2.052   1.272   0.593  1.4291  0.8791  0.7826
 1629SOL     OW13855   3.549   1.509   1.342 -0.3867  0.6550 -0.6060
 1629SOL    HW113856   3.499   1.468   1.266  1.2328 -0.8349 -0.9117
 1629SOL    HW213857   3.642   1.533   1.312  0.2472  0.1209  0.8500
 1630SOL     OW13858   3.701   3.096   0.668 -0.1858 -0.5351 -0.3358
 1630SOL    HW113859   3.723   3.193   0.657 -0.5271 -0.5523 -1.1942
 1630SOL    HW213860   3.756   3.058   0.743  0.5856  0.1127 -0.5626
 1631SOL     OW13861   0.889   6.106   1.901 -0.5264  0.0928  0.8507
 1631SOL    HW113862   0.847   6.125   1.812 -1.0220 -0.0279  1.0550
 1631SOL    HW213863   0.973   6.159   1.910 -1.4609  1.6035  1.0734
 1632SOL     OW13864   3.817   8.452   2.304 -0.0140  0.0177  0.0699
 1632SOL    HW113865   3.724   8.475   2.276  0.4665  0.8202 -0.9299
 1632SOL    HW213866   3.842   8.363   2.266 -0.2523 -0.0302  0.0292
 1633SOL     OW13867   3.863   4.396   0.685  0.5170  0.6280  0.3239
 1633SOL    HW113868   3.801   4.368   0.757  0.8504 -0.1169  0.3289
 1633SOL    HW213869   3.883   4.493   0.693 -1.6695  1.1608 -0.4535
 1635SOL     OW13870   9.766   5.545   0.884  0.2322  0.4434 -0.1119
 1635SOL    HW113871   9.805   5.603   0.812  2.0398  0.3456  0.7597
 1635SOL    HW213872   9.724   5.604   0.954 -0.3047  0.5851 -0.5458
 1637SOL     OW13873   0.584   4.744   1.149 -0.1537  0.2250 -0.2552
 1637SOL    HW113874   0.612   4.838   1.168  0.8316  0.1307 -1.2238
 1637SOL    HW213875   0.552   4.736   1.055 -0.7629 -0.2888 -0.0114
 1638SOL     OW13876   3.132   0.181   0.902 -0.2523 -0.1601 -0.0639
 1638SOL    HW113877   3.044   0.163   0.946  0.5837 -0.2005  1.6266
 1638SOL    HW213878   3.190   0.100   0.908  0.7871  0.6347  1.0165
 1639SOL     OW13879   0.535   4.591   0.501 -0.0573  0.5205 -0.2225
 1639SOL    HW113880   0.527   4.689   0.516  0.5891  0.3427  1.3593
 1639SOL    HW213881   0.476   4.542   0.565  0.7098 -0.1686 -0.0303
 1640SOL     OW13882   3.149   0.756   1.095  0.4289 -0.7439  0.8550
 1640SOL    HW113883   3.194   0.729   1.009 -1.4187  2.0900 -1.0702
 1640SOL    HW213884   3.051   0.737   1.088  0.1071  0.4999  1.9494
 1641SOL     OW13885   1.426   5.641   1.249  0.0751  0.3104  0.4391
 1641SOL    HW113886   1.344   5.698   1.250  0.5777  1.0364  1.6303
 1641SOL    HW213887   1.407   5.556   1.200 -0.6621  1.5292 -1.4485
 1642SOL     OW13888   4.867   2.433   2.216 -0.7362 -0.0164 -0.2656
 1642SOL    HW113889   4.883   2.338   2.189 -1.9437 -0.3399  0.0875
 1642SOL    HW213890   4.843   2.487   2.136  0.5268  0.1298 -0.5555
 1644SOL     OW13891   1.465   2.923   1.973  0.2370  0.6763  0.0677
 1644SOL    HW113892   1.383   2.866   1.973  1.1741 -0.7079  1.3535
 1644SOL    HW213893   1.452   2.999   2.036  0.2035  0.0552  0.8200
 1645SOL     OW13894   1.594   4.476   1.026  0.2857  0.0587  0.6257
 1645SOL    HW113895   1.579   4.460   0.929  1.4984  0.8465  0.2956
 1645SOL    HW213896   1.508   4.464   1.076 -0.4195  0.0362 -0.5871
 1646SOL     OW13897   1.885   2.766   1.583  0.1851 -0.0298  0.4847
 1646SOL    HW113898   1.833   2.842   1.543  0.4924 -0.0199  0.0978
 1646SOL    HW213899   1.904   2.785   1.679  1.0046  0.7830  0.1694
 1647SOL     OW13900   2.169  -0.132   0.841  0.2353  0.2574  0.1062
 1647SOL    HW113901   2.126  -0.217   0.873 -1.4537  0.4141 -1.6198
 1647SOL    HW213902   2.260  -0.152   0.804  1.2230 -0.2669  2.6819
 1649SOL     OW13903   3.403   3.020   1.761 -0.8203 -0.1662 -0.7425
 1649SOL    HW113904   3.341   2.967   1.819  0.0428 -0.9543 -0.5130
 1649SOL    HW213905   3.398   2.986   1.667  0.6005 -1.4892 -0.3715
 1650SOL     OW13906   0.801   5.115   0.975 -0.7188  0.5273  0.1195
 1650SOL    HW113907   0.876   5.107   1.042 -0.9080  2.6888  0.6229
 1650SOL    HW213908   0.828   5.179   0.903 -1.3057 -0.2603 -0.8100
 1652SOL     OW13909   3.638   5.565   2.312  0.4355 -0.2366 -0.3341
 1652SOL    HW113910   3.719   5.508   2.296  1.1423  0.5790  0.3134
 1652SOL    HW213911   3.641   5.602   2.404 -1.2423 -1.0816  0.0840
 1653SOL     OW13912   3.053   0.954   1.714  0.5084 -0.3981 -0.2398
 1653SOL    HW113913   3.110   0.909   1.782 -0.9424 -1.3393  0.3836
 1653SOL    HW213914   2.957   0.934   1.733 -0.0053  0.7296 -1.5705
 1654SOL     OW13915   0.750   3.700   1.054  0.0924 -0.4534  0.0428
 1654SOL    HW113916   0.709   3.657   1.134  0.1827 -1.4047 -0.4141
 1654SOL    HW213917   0.721   3.652   0.971  2.2775 -1.3019 -0.2649
 1655SOL     OW13918   1.703   4.988   1.499 -0.1357  0.1259  0.1094
 1655SOL    HW113919   1.619   4.959   1.546 -1.3682  1.1015 -1.4354
 1655SOL    HW213920   1.710   4.939   1.411  1.8442 -1.2571  0.9911
 1656SOL     OW13921   3.169   6.544   0.910 -0.1297 -0.0173 -0.2957
 1656SOL    HW113922   3.209   6.495   0.832  0.7296  0.6189 -0.2558
 1656SOL    HW213923   3.211   6.634   0.917  2.3250 -1.3336  3.0333
 1658SOL     OW13924   2.944   4.106   1.686  0.2705  0.6064  0.0529
 1658SOL    HW113925   2.915   4.014   1.713 -1.7756  1.2053 -0.0311
 1658SOL    HW213926   2.898   4.174   1.744  0.0408  1.6568 -1.3272
 1659SOL     OW13927   2.568   5.083   1.060 -0.0407  0.2566 -0.1732
 1659SOL    HW113928   2.539   5.103   1.154  0.8605 -0.5839  0.2871
 1659SOL    HW213929   2.666   5.066   1.058 -0.1589 -0.3540 -1.1749
 1660SOL     OW13930   1.178   3.919   2.158  0.2491 -0.5854  0.5019
 1660SOL    HW113931   1.224   3.909   2.070  0.6738  0.6599  0.5745
 1660SOL    HW213932   1.241   3.960   2.224 -0.3736 -0.6181  1.1232
 1661SOL     OW13933   3.469   2.098   1.864 -0.2022 -0.2839  0.3318
 1661SOL    HW113934   3.509   2.011   1.837  0.2483 -0.0569  0.2516
 1661SOL    HW213935   3.381   2.110   1.819  0.8260  0.3701 -1.5382
 1663SOL     OW13936   4.431   1.091   1.254  0.1255  0.2778  0.4795
 1663SOL    HW113937   4.488   1.010   1.238 -1.4749 -0.5613 -1.1108
 1663SOL    HW213938   4.387   1.084   1.343 -0.3850 -0.8430  0.1447
 1664SOL     OW13939   2.315   5.311   1.332 -0.4825  0.6371  0.6173
 1664SOL    HW113940   2.224   5.299   1.371 -0.1843  0.4166  1.2579
 1664SOL    HW213941   2.349   5.223   1.299 -0.7738  0.8417 -0.2371
 1665SOL     OW13942   4.970   1.921   2.226  0.1097 -0.4643  0.3061
 1665SOL    HW113943   4.998   1.825   2.223 -0.9140 -0.7393 -1.3537
 1665SOL    HW213944   4.886   1.929   2.280 -0.4033 -0.6787 -0.4474
 1667SOL     OW13945   2.757   7.561   1.789  0.3524 -0.2445  0.1242
 1667SOL    HW113946   2.670   7.522   1.758  1.1228 -0.7713 -1.4052
 1667SOL    HW213947   2.787   7.515   1.873 -0.4953 -0.5164  0.2794
 1668SOL     OW13948   9.549   4.385   0.936 -0.4018  0.0331 -0.0115
 1668SOL    HW113949   9.495   4.441   0.873 -0.9534 -0.1333  0.3167
 1668SOL    HW213950   9.522   4.289   0.928  0.2510 -0.1370 -0.2667
 1669SOL     OW13951   2.420   6.418   1.836 -0.5326  0.0308  0.1698
 1669SOL    HW113952   2.339   6.474   1.853 -0.6155 -0.4966  1.6277
 1669SOL    HW213953   2.414   6.377   1.745 -0.8428  1.7466 -0.5981
 1670SOL     OW13954   4.073   8.242   0.587 -0.3127 -0.7803  0.4102
 1670SOL    HW113955   4.085   8.183   0.666  1.4859 -1.3493 -0.2589
 1670SOL    HW213956   4.060   8.185   0.505  0.4533 -0.2439 -0.0868
 1671SOL     OW13957   3.550   8.801   1.498 -0.5247  0.3315 -0.1937
 1671SOL    HW113958   3.633   8.774   1.449 -0.5706  1.8071 -1.1283
 1671SOL    HW213959   3.566   8.799   1.596  1.0580  1.9483 -0.4025
 1672SOL     OW13960   0.405   6.171   0.606 -0.4396  0.1044  0.7585
 1672SOL    HW113961   0.490   6.204   0.565 -0.4415 -0.2523  0.4590
 1672SOL    HW213962   0.343   6.248   0.621 -0.1238  0.3444  0.8328
 1674SOL     OW13963   9.663   4.506   2.113 -0.0052  0.2232 -0.3348
 1674SOL    HW113964   9.693   4.527   2.020 -0.8759  1.0608 -0.4331
 1674SOL    HW213965   9.695   4.578   2.175  1.3195 -0.7778  0.1714
 1675SOL     OW13966   2.154   5.070   2.242 -0.1322  0.2078 -0.6308
 1675SOL    HW113967   2.138   5.167   2.227 -1.3155 -0.4275 -3.9230
 1675SOL    HW213968   2.066   5.021   2.242  0.6236 -1.1906 -1.8363
 1676SOL     OW13969   2.031   0.637   2.080  0.2241  0.6087 -0.4062
 1676SOL    HW113970   2.010   0.712   2.143  0.9080  1.1931 -0.8522
 1676SOL    HW213971   2.113   0.589   2.111 -0.5176 -0.3116  0.1717
 1677SOL     OW13972   4.148   0.183   1.908  1.1562  0.3171 -0.4274
 1677SOL    HW113973   4.108   0.181   1.816  3.0782  1.0162 -1.3315
 1677SOL    HW213974   4.191   0.272   1.923 -0.1953  0.6428  1.6446
 1678SOL     OW13975   1.320   5.816   1.753 -0.2621  0.3446 -0.3041
 1678SOL    HW113976   1.342   5.911   1.731  1.8117  0.2566  1.2222
 1678SOL    HW213977   1.365   5.790   1.838 -0.1492 -2.2697 -1.1093
 1679SOL     OW13978   2.431   1.703   1.837  0.8045  0.3424  0.1221
 1679SOL    HW113979   2.406   1.693   1.933 -1.4823 -0.8302 -0.5809
 1679SOL    HW213980   2.402   1.793   1.804 -2.0941 -0.7795 -0.5284
 1680SOL     OW13981   2.874   7.963   1.938  0.6482 -0.0597  0.2239
 1680SOL    HW113982   2.884   8.057   1.970  0.7306  0.5276 -1.4740
 1680SOL    HW213983   2.964   7.925   1.918  0.5151  0.0469 -0.5963
 1681SOL     OW13984   3.297   1.331   1.451  0.6356 -0.0158 -0.2370
 1681SOL    HW113985   3.197   1.344   1.446  0.6081 -0.0914  0.0915
 1681SOL    HW213986   3.334   1.390   1.523  0.9289  0.5825 -0.8774
 1682SOL     OW13987   4.182   3.087   1.835 -0.4290 -0.0852  0.2206
 1682SOL    HW113988   4.209   3.126   1.922  2.5944 -0.8944 -0.2719
 1682SOL    HW213989   4.216   3.144   1.760  1.0372 -1.7704 -0.4489
 1683SOL     OW13990   1.642   2.070   1.586 -0.2733  0.0514  0.1731
 1683SOL    HW113991   1.626   2.107   1.495  4.0723  1.0028 -0.3027
 1683SOL    HW213992   1.671   1.974   1.578  4.4750  1.3957  0.1061
 1685SOL     OW13993   4.452   1.247   1.014  0.3221 -0.0658  0.3137
 1685SOL    HW113994   4.430   1.174   1.079 -0.6886  0.3772  0.4692
 1685SOL    HW213995   4.426   1.218   0.922  1.1845 -0.4437  0.1810
 1689SOL     OW13996   2.663   9.307   1.811 -0.1912  0.4291 -0.6949
 1689SOL    HW113997   2.747   9.334   1.857 -0.5516  0.8530 -0.2889
 1689SOL    HW213998   2.593   9.377   1.825 -0.2379  0.6761 -2.0754
 1691SOL     OW13999   3.141   6.991   0.411 -0.3683 -0.0864  0.0168
 1691SOL    HW114000   3.193   7.064   0.368  0.6335 -1.4158 -1.0845
 1691SOL    HW214001   3.169   6.981   0.506 -0.2421  0.7132  0.0604
 1694SOL     OW14002   4.014   4.826   1.130 -0.6663 -0.5433 -0.2319
 1694SOL    HW114003   4.035   4.748   1.189 -0.2689 -1.3734 -1.4674
 1694SOL    HW214004   3.919   4.855   1.146 -0.8378 -1.3179  0.1774
 1695SOL     OW14005   4.247   2.188   2.307 -0.2382  0.6631  0.0147
 1695SOL    HW114006   4.191   2.136   2.243 -0.9365  0.1993  0.9999
 1695SOL    HW214007   4.231   2.286   2.294 -1.3970  0.5283  0.3955
 1696SOL     OW14008   3.386   4.544   2.272  0.6019  0.1388 -0.4135
 1696SOL    HW114009   3.353   4.489   2.349 -0.2380 -0.8335 -1.4338
 1696SOL    HW214010   3.323   4.620   2.255  0.2782 -0.1893 -0.7097
 1697SOL     OW14011   2.663   7.820   1.430  0.0005  0.5041 -0.0454
 1697SOL    HW114012   2.575   7.832   1.477  1.2335  0.6334  2.2654
 1697SOL    HW214013   2.696   7.909   1.399 -0.1724  0.5833 -0.0073
 1698SOL     OW14014   2.687   2.105   1.773 -0.4717 -0.6782 -0.1892
 1698SOL    HW114015   2.768   2.160   1.755 -0.4297 -0.5140  0.4972
 1698SOL    HW214016   2.695   2.060   1.862 -1.2935 -0.3442  0.0696
 1699SOL     OW14017   1.450   2.156   1.949 -0.4131 -0.4639  0.7691
 1699SOL    HW114018   1.490   2.244   1.974  0.5354 -0.5615 -0.3623
 1699SOL    HW214019   1.488   2.085   2.009 -0.6718 -0.2026  1.2441
 1700SOL     OW14020   4.563   3.068   2.328 -0.2616  0.0615 -0.1146
 1700SOL    HW114021   4.634   3.099   2.265  0.2193 -0.4142  0.1921
 1700SOL    HW214022   4.505   3.146   2.353  0.7267  0.6524  0.3846
 1701SOL     OW14023   2.776   8.023   1.698 -0.3497  0.0492 -0.5159
 1701SOL    HW114024   2.811   7.971   1.776  0.5160 -0.8578 -1.5030
 1701SOL    HW214025   2.717   8.096   1.731 -0.9075 -1.0364  0.9295
 1702SOL     OW14026   2.990   9.200   1.154  0.3415 -0.3674 -0.3596
 1702SOL    HW114027   2.990   9.267   1.229 -0.2549 -0.0911 -0.5981
 1702SOL    HW214028   3.027   9.114   1.187 -0.8408 -0.5555  0.5448
 1704SOL     OW14029   3.098   0.187   1.909  0.8539  0.3666  0.2318
 1704SOL    HW114030   3.023   0.145   1.960 -0.0979  1.3606 -0.3479
 1704SOL    HW214031   3.118   0.133   1.827  1.4474 -0.4469  0.8968
 1705SOL     OW14032   1.824   3.614   2.098  0.1579  0.2095  0.4191
 1705SOL    HW114033   1.772   3.669   2.163 -0.3941  0.1380  0.0371
 1705SOL    HW214034   1.854   3.529   2.143  2.2453  1.4491  1.4484
 1707SOL     OW14035   4.147   3.611   2.089  0.5519  0.0511 -0.2760
 1707SOL    HW114036   4.146   3.564   2.000 -0.8644 -0.7765  0.1690
 1707SOL    HW214037   4.110   3.703   2.079 -0.1507 -0.2441 -0.4423
 1708SOL     OW14038   4.392   2.880   0.845 -0.5032 -0.1359  0.9600
 1708SOL    HW114039   4.307   2.932   0.851 -0.0687  0.4363  2.5937
 1708SOL    HW214040   4.463   2.927   0.899  0.7060 -0.8679  0.0292
 1709SOL     OW14041   5.380   2.155   0.828 -0.3239 -0.3919  0.3713
 1709SOL    HW114042   5.388   2.070   0.776  0.6605 -0.2452  0.2647
 1709SOL    HW214043   5.337   2.225   0.772 -1.2505 -0.8490  0.4987
 1710SOL     OW14044   3.250   5.722   1.976 -0.0536  0.5317  0.0994
 1710SOL    HW114045   3.248   5.790   2.050 -0.7890 -0.8947  1.4265
 1710SOL    HW214046   3.203   5.639   2.006  0.9699 -0.6354 -1.4359
 1711SOL     OW14047   3.952   4.040   0.685  0.4329 -0.1007 -0.2019
 1711SOL    HW114048   4.031   4.003   0.733 -0.4644 -4.5514 -1.9273
 1711SOL    HW214049   3.983   4.093   0.606  1.7210  2.1303  1.7294
 1713SOL     OW14050  10.191   5.355   0.314 -0.0825  0.1445  0.4320
 1713SOL    HW114051  10.105   5.404   0.299  0.7191  1.7234  0.8734
 1713SOL    HW214052  10.182   5.297   0.395 -1.4434 -1.4182 -0.8048
 1714SOL     OW14053   2.508   4.071   2.155 -0.1610 -0.2714  0.5816
 1714SOL    HW114054   2.489   4.168   2.168 -1.8725 -0.5020 -0.1067
 1714SOL    HW214055   2.578   4.060   2.085 -0.0957  0.4647  0.5287
 1715SOL     OW14056   2.615   4.711   0.332 -0.9215  0.0374  0.1719
 1715SOL    HW114057   2.640   4.623   0.373 -0.3110  0.0028 -0.2629
 1715SOL    HW214058   2.615   4.703   0.232  0.7275  0.9300  0.0720
 1716SOL     OW14059   2.481   0.393   0.491 -0.2923 -0.3994  0.0833
 1716SOL    HW114060   2.503   0.428   0.400  1.4577 -0.7326  0.3652
 1716SOL    HW214061   2.480   0.469   0.556 -1.5511 -0.1602 -0.1984
 1717SOL     OW14062   1.918   5.078   0.866 -0.2115  0.1507 -0.6247
 1717SOL    HW114063   1.971   5.156   0.831  1.8166 -1.2796 -0.8574
 1717SOL    HW214064   1.918   5.081   0.966  1.5800 -0.6171 -0.5817
 1719SOL     OW14065   1.749   5.345   0.803  0.0989 -0.0583 -0.3670
 1719SOL    HW114066   1.785   5.288   0.728 -1.4109 -2.4207  0.6293
 1719SOL    HW214067   1.665   5.389   0.773  0.2632  0.1426 -0.5340
 1720SOL     OW14068   9.792   3.394   1.832  0.0911 -0.2574  0.2202
 1720SOL    HW114069   9.781   3.312   1.776  1.3128  0.5692 -1.2937
 1720SOL    HW214070   9.812   3.367   1.926  1.9417 -1.7256 -0.5533
 1721SOL     OW14071   3.073   3.654   0.317  0.4108  0.1189  0.1758
 1721SOL    HW114072   2.990   3.601   0.302 -0.3578  0.7512  1.9727
 1721SOL    HW214073   3.142   3.596   0.360  0.2865  0.0355  0.2617
 1722SOL     OW14074   2.837   8.416   1.388 -0.1084 -0.0731  0.2277
 1722SOL    HW114075   2.931   8.396   1.414  0.0072 -0.5776 -0.5631
 1722SOL    HW214076   2.836   8.496   1.328 -0.2445  0.2957  0.7219
 1723SOL     OW14077   2.895   8.231   2.050  0.8490  0.1021  0.2315
 1723SOL    HW114078   2.950   8.307   2.084  0.5261  0.2463  0.4344
 1723SOL    HW214079   2.808   8.265   2.015  1.8607  0.1580 -2.3246
 1725SOL     OW14080   2.368   1.308   0.528  0.1813 -0.0228 -0.5762
 1725SOL    HW114081   2.305   1.232   0.513 -0.1726  0.2962 -0.7169
 1725SOL    HW214082   2.377   1.361   0.443  2.3213 -1.3295 -1.2205
 1726SOL     OW14083   1.986   0.986   0.495 -0.0644  0.2564 -0.1278
 1726SOL    HW114084   1.970   0.944   0.585  0.4905  2.0858  0.8474
 1726SOL    HW214085   1.899   1.019   0.458 -0.1911  0.1326  0.0590
 1727SOL     OW14086   9.805   3.961   1.368 -0.3674  0.2206 -0.3764
 1727SOL    HW114087   9.814   3.901   1.447  0.1500 -0.8245 -1.2180
 1727SOL    HW214088   9.791   3.907   1.285  1.1929  1.1799 -1.3084
 1728SOL     OW14089   2.560   5.356   1.461 -0.3923  0.0549 -0.6699
 1728SOL    HW114090   2.465   5.341   1.435 -0.5715 -0.6193  0.3066
 1728SOL    HW214091   2.564   5.380   1.558  0.3339  1.3741 -1.0161
 1730SOL     OW14092   0.906   3.847   2.232  0.1237  0.0163 -0.2925
 1730SOL    HW114093   0.907   3.748   2.222  0.9714 -0.0295  0.2350
 1730SOL    HW214094   0.997   3.884   2.210  0.2901  0.5069  1.1864
 1731SOL     OW14095   9.741   3.878   0.406  0.2220 -0.3897 -0.0571
 1731SOL    HW114096   9.742   3.778   0.417 -1.6583 -0.2505  1.8830
 1731SOL    HW214097   9.747   3.921   0.496  0.9494  1.2504 -0.8816
 1732SOL     OW14098   2.736   0.700   1.589  0.2254 -0.3929  0.4519
 1732SOL    HW114099   2.760   0.780   1.643  0.3810 -0.6060  0.7009
 1732SOL    HW214100   2.708   0.626   1.650 -0.5962 -0.3028  0.1920
 1733SOL     OW14101   4.237   5.190   2.060 -0.3553 -0.0850 -0.2838
 1733SOL    HW114102   4.334   5.186   2.035 -0.7923 -0.3815 -1.9960
 1733SOL    HW214103   4.189   5.249   1.995 -1.3824 -0.2334  0.3390
 1734SOL     OW14104   2.443   8.123   1.661 -0.2342  0.0716  0.3112
 1734SOL    HW114105   2.516   8.152   1.723 -0.0115 -0.4367  0.2861
 1734SOL    HW214106   2.461   8.031   1.629  2.0669  1.9711 -4.2034
 1735SOL     OW14107   2.214   9.633   0.623 -0.0120 -0.2090 -0.2663
 1735SOL    HW114108   2.232   9.553   0.680  0.7362  0.0389 -0.1517
 1735SOL    HW214109   2.285   9.702   0.638 -2.0647  1.5777  1.6334
 1736SOL     OW14110   4.688   4.212   0.323  0.1315  0.8388  0.2867
 1736SOL    HW114111   4.669   4.253   0.233 -0.9237  2.0665  1.0454
 1736SOL    HW214112   4.669   4.114   0.319  1.9111  0.5354 -1.3401
 1737SOL     OW14113   1.956   9.604   0.712  0.9049 -0.4327  0.2113
 1737SOL    HW114114   2.051   9.595   0.681  0.1575  0.1889 -2.4185
 1737SOL    HW214115   1.925   9.698   0.697 -0.1227 -0.6333  1.0716
 1738SOL     OW14116   1.572   8.126   1.569 -0.4084 -0.7326 -0.0367
 1738SOL    HW114117   1.577   8.075   1.484  0.1110 -1.0378  0.1744
 1738SOL    HW214118   1.608   8.218   1.556  1.7058 -1.4796  0.3774
 1739SOL     OW14119   1.780   1.217   2.292  0.4882  0.1415  0.1165
 1739SOL    HW114120   1.851   1.246   2.356 -0.3804  0.3561  1.0150
 1739SOL    HW214121   1.763   1.119   2.304  1.4226 -0.1533 -0.9028
 1740SOL     OW14122   4.420   5.143   1.498 -0.5719 -0.3935 -0.2760
 1740SOL    HW114123   4.428   5.230   1.547  0.8100 -0.5118 -0.2882
 1740SOL    HW214124   4.511   5.110   1.473 -1.0649 -2.0312  0.0489
 1741SOL     OW14125   2.533   4.355   1.121 -0.7515 -0.5311 -0.1140
 1741SOL    HW114126   2.482   4.437   1.145  2.5624  0.9577  2.2383
 1741SOL    HW214127   2.536   4.293   1.200  1.2019 -0.5057 -0.1522
 1742SOL     OW14128   9.673   4.254   1.666 -0.0384  0.5616 -0.7652
 1742SOL    HW114129   9.610   4.182   1.697 -1.9399  2.4622 -0.0931
 1742SOL    HW214130   9.631   4.305   1.591  1.8882  0.1139 -2.1891
 1743SOL     OW14131   1.473   7.452   2.280 -0.4685  0.0402  0.1818
 1743SOL    HW114132   1.572   7.471   2.285 -0.3796 -0.3121 -0.2131
 1743SOL    HW214133   1.424   7.516   2.340  0.1064 -0.6797  1.4309
 1744SOL     OW14134   2.976   7.439   1.011  0.4898  0.1830  0.4532
 1744SOL    HW114135   3.013   7.424   0.919 -0.2311 -0.0708  0.2045
 1744SOL    HW214136   2.970   7.537   1.030  0.2037  0.2422  0.0540
 1745SOL     OW14137   5.310   3.204   1.399 -1.0159  0.6334  0.1232
 1745SOL    HW114138   5.374   3.178   1.471 -1.4523 -1.2562 -0.1409
 1745SOL    HW214139   5.349   3.183   1.310 -0.5847  2.7336 -0.2176
 1746SOL     OW14140   2.852   4.905   0.762  0.1657 -0.9999 -0.3404
 1746SOL    HW114141   2.886   4.822   0.717  0.4265 -0.7221 -0.6534
 1746SOL    HW214142   2.753   4.901   0.767  0.1909 -1.4520 -0.1264
 1749SOL     OW14143   2.742   1.386   1.366 -0.3415 -0.4562 -0.0420
 1749SOL    HW114144   2.747   1.481   1.336  0.8967 -0.6580 -0.4982
 1749SOL    HW214145   2.715   1.384   1.463  2.7148  0.5172  0.8790
 1750SOL     OW14146   4.399   4.567   0.751 -0.1041 -0.4304 -0.3968
 1750SOL    HW114147   4.338   4.607   0.820  2.5640 -0.2962  1.9490
 1750SOL    HW214148   4.394   4.468   0.756  0.1924 -0.4234  0.1147
 1751SOL     OW14149   3.562   0.503   1.752  0.0453 -0.0915  0.1582
 1751SOL    HW114150   3.598   0.523   1.661 -0.2650  0.6516  0.1891
 1751SOL    HW214151   3.637   0.484   1.815  0.2938 -0.0815 -0.1362
 1753SOL     OW14152   1.465   3.451   2.248  0.8103 -0.1274  0.2882
 1753SOL    HW114153   1.520   3.404   2.179  0.7668 -2.1345  1.5591
 1753SOL    HW214154   1.506   3.437   2.338 -0.8262 -0.1937  1.0484
 1754SOL     OW14155   2.211   6.047   1.267  0.4022  0.1415 -0.0948
 1754SOL    HW114156   2.154   5.977   1.224  0.9835 -0.9931  0.9321
 1754SOL    HW214157   2.199   6.134   1.220 -1.9357 -0.1453 -0.0757
 1756SOL     OW14158   4.329   0.391   0.477 -0.2524  0.2822  0.2071
 1756SOL    HW114159   4.425   0.417   0.468 -0.6172  0.8083 -2.5319
 1756SOL    HW214160   4.276   0.471   0.506 -0.0655  0.2976  0.5165
 1758SOL     OW14161   4.055   9.166   2.374 -0.1678 -0.1462  0.1437
 1758SOL    HW114162   4.084   9.184   2.281  0.9569  2.4829  0.9692
 1758SOL    HW214163   3.977   9.225   2.398 -1.0224 -1.4160  0.6096
 1759SOL     OW14164   3.413   3.883   0.388  0.1019 -0.5847 -0.1308
 1759SOL    HW114165   3.360   3.942   0.327 -0.1224  1.1764  1.7415
 1759SOL    HW214166   3.509   3.888   0.363  0.1528  0.9891  0.3473
 1760SOL     OW14167   0.471   5.894   0.386  0.6408 -0.3137 -0.5366
 1760SOL    HW114168   0.510   5.910   0.477  1.8785 -0.7329 -0.9713
 1760SOL    HW214169   0.386   5.842   0.395 -0.1826  1.1822  0.4787
 1761SOL     OW14170   2.250   3.208   0.942  0.2895  0.1379 -0.4273
 1761SOL    HW114171   2.297   3.166   0.865 -0.2623  0.9830 -1.2267
 1761SOL    HW214172   2.281   3.302   0.954  0.4487 -0.0168  0.4451
 1762SOL     OW14173   4.492   1.795   1.634 -0.2811 -0.1832  0.5753
 1762SOL    HW114174   4.535   1.843   1.710 -1.3077  4.3001 -1.5591
 1762SOL    HW214175   4.398   1.772   1.659 -0.8384  1.8868  0.4547
 1764SOL     OW14176   3.310   7.375   0.572  0.3650  0.4739 -0.1623
 1764SOL    HW114177   3.312   7.303   0.642  0.8514 -1.7277 -2.3573
 1764SOL    HW214178   3.377   7.446   0.595 -0.3844  0.4446  2.2414
 1765SOL     OW14179   1.980   5.406   0.501  0.6688  0.2273  0.3973
 1765SOL    HW114180   2.004   5.501   0.478  0.4966  0.0529 -0.5527
 1765SOL    HW214181   1.893   5.383   0.457  0.6838 -0.3539  0.6706
 1766SOL     OW14182   3.271   5.845   1.396 -0.0470  0.2587  0.4371
 1766SOL    HW114183   3.276   5.746   1.385 -2.7508 -0.2441  2.9404
 1766SOL    HW214184   3.338   5.875   1.464  1.0649  0.2254 -0.6337
 1767SOL     OW14185   3.439   1.618   2.268 -0.1704  0.4977  0.0739
 1767SOL    HW114186   3.436   1.717   2.282  0.7966  0.6066 -0.4504
 1767SOL    HW214187   3.518   1.594   2.211  0.2761 -0.6936  1.1419
 1768SOL     OW14188   3.323   1.379   1.185  0.0981 -0.3339  0.0854
 1768SOL    HW114189   3.257   1.442   1.144 -0.2386 -0.6077  0.2101
 1768SOL    HW214190   3.295   1.356   1.278  1.2727  0.9011  0.7733
 1769SOL     OW14191   2.756   7.476   1.504 -0.0602  0.4606 -0.1715
 1769SOL    HW114192   2.817   7.500   1.580 -0.4762 -0.6598  0.5299
 1769SOL    HW214193   2.793   7.512   1.418  1.9792 -0.8112  0.1406
 1770SOL     OW14194   2.011   9.593   1.338  0.1523 -0.0595  0.0527
 1770SOL    HW114195   1.917   9.619   1.356  0.3694  0.4079  0.5173
 1770SOL    HW214196   2.057   9.570   1.424  0.7957  0.8616 -0.0358
 1771SOL     OW14197   4.368   4.189   0.524  0.0557 -0.3425 -0.0444
 1771SOL    HW114198   4.422   4.105   0.520  0.5170 -0.1382  1.5352
 1771SOL    HW214199   4.383   4.243   0.441  0.6226 -1.2996 -0.5619
 1774SOL     OW14200   1.220   7.522   0.336 -0.0739 -0.4685  0.2704
 1774SOL    HW114201   1.317   7.531   0.313 -0.2563  2.8054  0.4981
 1774SOL    HW214202   1.165   7.555   0.259 -1.0018 -1.5008  0.4839
 1776SOL     OW14203   3.078   2.071   1.993 -0.6167 -0.9196 -0.0842
 1776SOL    HW114204   3.020   2.151   2.010 -0.7776 -1.2126  0.7633
 1776SOL    HW214205   3.030   1.989   2.023 -0.1795 -1.2679 -0.3479
 1777SOL     OW14206   1.146   4.853   0.387 -0.4655  0.0297 -0.2583
 1777SOL    HW114207   1.068   4.870   0.447  1.2054  0.1468  1.9044
 1777SOL    HW214208   1.176   4.758   0.397 -0.2263  0.0200 -1.0074
 1778SOL     OW14209   2.211   7.423   2.120  0.3857 -0.0907 -0.2364
 1778SOL    HW114210   2.278   7.352   2.141  0.9993 -0.1470 -2.3337
 1778SOL    HW214211   2.252   7.513   2.134  0.4399 -0.1278 -0.1528
 1779SOL     OW14212   4.022   0.829   0.884  0.0989 -0.1295 -0.0597
 1779SOL    HW114213   3.942   0.871   0.927 -0.3808 -0.1455 -0.9181
 1779SOL    HW214214   3.995   0.788   0.797  0.3904 -2.8044  1.0381
 1780SOL     OW14215   4.557   2.837   0.646 -0.1102  0.2045  0.3015
 1780SOL    HW114216   4.486   2.847   0.715 -0.2047 -0.2615  0.2693
 1780SOL    HW214217   4.631   2.903   0.665 -0.5981  0.7688  0.2633
 1781SOL     OW14218   4.393   0.723   0.854  0.0016 -0.1742 -0.0389
 1781SOL    HW114219   4.488   0.739   0.829  0.3762 -0.2446  1.2974
 1781SOL    HW214220   4.334   0.787   0.804  0.6492 -0.8334 -1.6488
 1782SOL     OW14221   1.705   8.367   1.487  0.2701  0.0322 -0.3058
 1782SOL    HW114222   1.746   8.433   1.550 -2.2589  1.4032  0.0033
 1782SOL    HW214223   1.744   8.380   1.395  0.6877  1.1311  0.0160
 1783SOL     OW14224   4.425   9.324   0.694 -0.2111 -0.3755  0.4956
 1783SOL    HW114225   4.326   9.338   0.684 -0.2867 -1.4777 -0.3836
 1783SOL    HW214226   4.472   9.365   0.616 -0.0633 -0.7624  0.3784
 1784SOL     OW14227   2.383   7.292   1.304  0.4816 -0.4549 -0.0494
 1784SOL    HW114228   2.380   7.260   1.210  0.0279  1.9043 -0.8658
 1784SOL    HW214229   2.347   7.221   1.365 -0.1064 -1.6283 -1.7301
 1785SOL     OW14230   2.822   8.599   1.115  0.2993  0.1866 -0.4092
 1785SOL    HW114231   2.731   8.638   1.128  0.5746  1.1351 -1.2496
 1785SOL    HW214232   2.867   8.644   1.038  1.1010 -0.9661 -0.6202
 1787SOL     OW14233   2.724   3.015   1.517  0.0482 -0.0743 -0.6123
 1787SOL    HW114234   2.776   2.939   1.478 -0.2221 -0.3576 -0.4216
 1787SOL    HW214235   2.720   3.006   1.616 -1.9568 -1.1000 -0.7424
 1789SOL     OW14236   3.790   2.087   2.088  0.1916  0.1993 -0.3847
 1789SOL    HW114237   3.730   2.007   2.080  0.5543 -0.1407  0.2406
 1789SOL    HW214238   3.740   2.169   2.059 -0.9027  0.0684  1.0650
 1791SOL     OW14239   2.870   5.670   2.331 -0.7600 -0.1621  0.4616
 1791SOL    HW114240   2.938   5.665   2.258 -0.7693  2.3651  0.2338
 1791SOL    HW214241   2.909   5.718   2.410 -1.4591 -0.9572  1.3020
 1792SOL     OW14242   1.220   3.075   1.450 -0.7533 -0.3332 -0.0662
 1792SOL    HW114243   1.298   3.101   1.507 -0.1204 -0.2543 -0.9623
 1792SOL    HW214244   1.168   3.157   1.425 -0.4602 -0.2546 -0.4237
 1793SOL     OW14245   3.161   1.207   1.706 -0.0078 -0.7716 -0.1010
 1793SOL    HW114246   3.126   1.251   1.623  1.4107  1.5946  0.5227
 1793SOL    HW214247   3.120   1.116   1.715 -1.0994 -0.5822 -2.7396
 1795SOL     OW14248   0.777   4.624   1.381  0.1899  0.4390 -0.0348
 1795SOL    HW114249   0.742   4.716   1.365 -0.1589  0.0249 -1.8216
 1795SOL    HW214250   0.848   4.626   1.451  0.0244  2.0308  0.0902
 1797SOL     OW14251  10.238   5.144   2.322 -0.8221 -0.5519 -0.5036
 1797SOL    HW114252  10.299   5.220   2.298 -0.2157 -1.0347 -0.5021
 1797SOL    HW214253  10.273   5.097   2.403 -1.0589 -0.9928 -0.6542
 1798SOL     OW14254   3.274   8.404   1.659 -0.0317  0.1885 -0.1193
 1798SOL    HW114255   3.371   8.389   1.641  0.1824  1.7308 -0.3480
 1798SOL    HW214256   3.262   8.495   1.699 -1.2715 -0.4039  0.8895
 1800SOL     OW14257   2.665   7.745   0.809  0.1735  0.0446  0.2383
 1800SOL    HW114258   2.596   7.778   0.745 -2.1134 -0.4208  2.4172
 1800SOL    HW214259   2.699   7.820   0.865 -1.2911 -0.3577  1.6925
 1801SOL     OW14260   1.337   3.342   1.040  0.1120 -0.2792  0.1993
 1801SOL    HW114261   1.304   3.432   1.012  0.5259 -0.6196 -1.4292
 1801SOL    HW214262   1.369   3.347   1.135  3.2606  2.1437 -0.8888
 1802SOL     OW14263   1.570   6.417   2.249  0.4391 -0.2063 -0.3668
 1802SOL    HW114264   1.511   6.337   2.240  0.9178 -0.7672  1.2614
 1802SOL    HW214265   1.578   6.463   2.160  0.3679 -2.1054 -1.3789
 1803SOL     OW14266   1.605   3.869   1.959 -0.3661  0.2535  0.4848
 1803SOL    HW114267   1.669   3.834   1.891 -0.1336  2.3785 -0.4257
 1803SOL    HW214268   1.649   3.871   2.049  0.5591  0.8483  0.0297
 1804SOL     OW14269   2.420   3.692   0.483 -0.1017 -0.7133  0.0190
 1804SOL    HW114270   2.391   3.730   0.571  0.1545  0.3866 -0.3627
 1804SOL    HW214271   2.420   3.592   0.488  0.2668 -0.6561  1.3882
 1805SOL     OW14272   2.811   3.850   1.759 -0.2233  0.0198 -0.3052
 1805SOL    HW114273   2.715   3.853   1.732  0.1924 -0.6987 -1.9445
 1805SOL    HW214274   2.843   3.755   1.756  0.6569  0.3124 -0.2480
 1806SOL     OW14275   1.634   8.014   1.297 -0.0753  0.2213  0.2961
 1806SOL    HW114276   1.728   8.046   1.294  1.1932 -3.3901 -0.9229
 1806SOL    HW214277   1.599   8.001   1.204 -0.3327 -2.3190  0.7013
 1807SOL     OW14278   9.778   4.519   0.915 -0.2539 -0.2436  0.9458
 1807SOL    HW114279   9.693   4.470   0.933  0.2452 -1.8011 -0.7359
 1807SOL    HW214280   9.847   4.455   0.883  0.8241  1.3713 -0.0552
 1808SOL     OW14281   1.590   2.413   1.929 -0.3146 -0.2732 -0.1245
 1808SOL    HW114282   1.603   2.386   1.834 -2.7130  0.5431 -0.7342
 1808SOL    HW214283   1.578   2.512   1.934  1.2128 -0.1325  1.2210
 1810SOL     OW14284   4.130   2.650   1.615 -0.0267 -0.0541 -0.6187
 1810SOL    HW114285   4.181   2.736   1.610  3.8698 -2.2701 -0.6499
 1810SOL    HW214286   4.114   2.626   1.710  2.0595 -1.0643 -0.5083
 1811SOL     OW14287   4.068   3.629   0.805 -0.4188 -0.4662  0.2889
 1811SOL    HW114288   4.005   3.689   0.854 -0.6111 -0.6495  0.2661
 1811SOL    HW214289   4.056   3.642   0.707  1.2242  1.2141  0.2973
 1812SOL     OW14290   2.137   1.574   0.648 -0.1105 -0.0417  0.1130
 1812SOL    HW114291   2.182   1.543   0.732  1.3658  1.0715 -0.2579
 1812SOL    HW214292   2.121   1.673   0.653 -1.2608 -0.1958 -0.3468
 1813SOL     OW14293   1.417   7.526   1.498  0.2143  0.1847 -0.3052
 1813SOL    HW114294   1.437   7.495   1.592  1.0213  0.4322 -0.3874
 1813SOL    HW214295   1.477   7.603   1.476 -1.3973  1.4576 -0.3020
 1814SOL     OW14296   1.994  -0.025   1.865  0.3421  0.3374 -0.4213
 1814SOL    HW114297   2.092  -0.020   1.849  0.0286  1.9369 -2.0046
 1814SOL    HW214298   1.947  -0.054   1.781 -0.6277  0.7464 -0.0350
 1815SOL     OW14299   2.996   3.234   1.882 -0.2162  0.0135  0.2801
 1815SOL    HW114300   2.983   3.144   1.841  0.3163 -1.1590  2.5824
 1815SOL    HW214301   3.071   3.281   1.835 -0.0939 -0.9930 -0.5532
 1816SOL     OW14302   2.766   0.989   1.732  0.3007  0.1613 -0.1563
 1816SOL    HW114303   2.730   1.077   1.703 -0.0169  0.2247  0.4359
 1816SOL    HW214304   2.749   0.976   1.829 -2.1204 -1.7488 -0.7792
 1817SOL     OW14305   2.602   6.081   1.998 -0.5744 -0.0816 -0.6274
 1817SOL    HW114306   2.656   6.163   2.017 -1.8369  0.3315  1.2860
 1817SOL    HW214307   2.656   5.999   2.021 -0.2306  0.2895 -0.1022
 1818SOL     OW14308   3.605   3.245   0.969  0.1336 -0.5301 -0.5791
 1818SOL    HW114309   3.510   3.216   0.970 -0.6084  1.8003 -0.2028
 1818SOL    HW214310   3.630   3.273   0.876  0.6836 -1.8634 -0.8352
 1820SOL     OW14311   4.068   0.117   1.612 -0.2011  0.4698  0.3116
 1820SOL    HW114312   4.163   0.136   1.591 -0.3856  0.7445 -0.2800
 1820SOL    HW214313   4.016   0.202   1.615 -0.4161  0.3270  0.6928
 1821SOL     OW14314   3.723   0.092   0.365  0.1743 -0.4575  0.3124
 1821SOL    HW114315   3.756   0.057   0.277  0.7364 -1.1119  0.7772
 1821SOL    HW214316   3.795   0.079   0.435  1.2590  3.6015  0.0378
 1822SOL     OW14317   0.936   4.643   1.595  0.6639 -0.3100 -0.0254
 1822SOL    HW114318   1.002   4.567   1.594  0.7142 -0.3638  3.1962
 1822SOL    HW214319   0.965   4.712   1.661  0.6358  2.6305 -2.9232
 1823SOL     OW14320   8.983   4.804   0.493  0.0777 -0.7078  0.4871
 1823SOL    HW114321   9.030   4.864   0.557 -0.4894 -0.5186  0.7324
 1823SOL    HW214322   9.030   4.805   0.404 -0.6651  1.0752  0.1069
 1824SOL     OW14323   3.444   5.876   1.614 -0.0382  0.0736 -0.1715
 1824SOL    HW114324   3.471   5.825   1.696  1.0029 -0.1522 -0.6476
 1824SOL    HW214325   3.445   5.974   1.633  0.2951  0.0259  0.0639
 1825SOL     OW14326   2.207   4.371   1.611  0.2335  0.1205 -0.2593
 1825SOL    HW114327   2.235   4.465   1.593 -0.2980  0.1631 -0.8514
 1825SOL    HW214328   2.200   4.321   1.525 -0.9402 -0.0569 -0.0691
 1829SOL     OW14329  10.307   3.780   1.246  0.1394 -0.4230 -0.2445
 1829SOL    HW114330  10.384   3.801   1.186 -0.4975  1.9577 -0.2763
 1829SOL    HW214331  10.321   3.823   1.335 -0.5090 -1.1271  0.2091
 1830SOL     OW14332   2.293   4.160   0.330 -0.2122 -0.4441 -0.3714
 1830SOL    HW114333   2.275   4.183   0.235 -0.4799 -2.4030 -0.8133
 1830SOL    HW214334   2.307   4.062   0.339  1.0247 -0.1287  1.4355
 1831SOL     OW14335   3.565   9.281   0.431  0.8041  0.1910 -0.1613
 1831SOL    HW114336   3.485   9.222   0.447 -0.7589  1.9357 -1.2733
 1831SOL    HW214337   3.569   9.352   0.501  1.1868  0.2874 -0.2828
 1832SOL     OW14338   1.183   7.346   2.323 -0.4373 -0.3472 -0.1567
 1832SOL    HW114339   1.270   7.349   2.275  0.9662 -0.4393  2.3271
 1832SOL    HW214340   1.169   7.255   2.363 -0.3483  0.4793  1.8152
 1833SOL     OW14341   4.458   2.495   1.631  0.8673 -0.0674 -0.2820
 1833SOL    HW114342   4.366   2.469   1.602  0.4134  0.5555  0.5738
 1833SOL    HW214343   4.523   2.425   1.602  0.3379  0.1792 -2.1716
 1835SOL     OW14344   1.324   2.879   0.573  0.4034 -0.4360 -0.5633
 1835SOL    HW114345   1.406   2.830   0.545 -0.3363 -2.9287  1.4257
 1835SOL    HW214346   1.322   2.887   0.673 -1.2968  0.4663 -0.6455
 1836SOL     OW14347   2.098   7.380   1.498  0.0131 -0.0559  0.6031
 1836SOL    HW114348   2.132   7.325   1.575  3.6972  1.2773  0.0432
 1836SOL    HW214349   2.105   7.327   1.414 -1.4539 -0.5523  0.7795
 1838SOL     OW14350   2.069   4.469   1.300 -0.3894  0.0156 -0.7933
 1838SOL    HW114351   2.020   4.484   1.214 -1.3304  1.6726  0.0122
 1838SOL    HW214352   2.022   4.518   1.373  2.7847  2.0819 -0.0775
 1839SOL     OW14353   3.550   1.597   0.849  0.1213 -0.2710  0.2521
 1839SOL    HW114354   3.600   1.657   0.911  0.8408  0.1349 -0.7039
 1839SOL    HW214355   3.462   1.639   0.826 -0.0748 -0.3453  0.8658
 1840SOL     OW14356   2.034   3.876   0.539 -0.1423 -0.0115  0.5444
 1840SOL    HW114357   2.058   3.823   0.620  3.3509  2.5066  1.2679
 1840SOL    HW214358   1.977   3.953   0.566 -0.2027 -0.0012  0.3861
 1841SOL     OW14359  10.019   4.581   0.675 -0.2024  0.0866  0.3892
 1841SOL    HW114360  10.029   4.485   0.699  0.4395 -0.0073 -0.2302
 1841SOL    HW214361   9.922   4.605   0.676 -0.6892 -1.4360 -2.6051
 1843SOL     OW14362   2.091   4.009   2.155  0.0928  0.2701  0.2652
 1843SOL    HW114363   2.174   4.036   2.204  0.2768  0.1806  0.0035
 1843SOL    HW214364   2.092   3.911   2.139 -0.8866 -0.0013  1.7997
 1844SOL     OW14365   1.279   5.162   0.322  0.3880 -1.0026 -0.3182
 1844SOL    HW114366   1.289   5.086   0.385  0.5418  0.1785  1.1188
 1844SOL    HW214367   1.284   5.129   0.228  2.1137 -2.5299  0.2884
 1847SOL     OW14368   2.763   1.986   1.536 -0.1223  0.3585 -0.7004
 1847SOL    HW114369   2.835   1.931   1.579 -0.1709 -0.9838 -2.2666
 1847SOL    HW214370   2.712   2.036   1.606  2.2915  1.2900  0.4402
 1851SOL     OW14371   1.667   2.519   0.319  0.0325  0.5669 -0.4242
 1851SOL    HW114372   1.763   2.533   0.296  0.0006  0.6345 -0.5150
 1851SOL    HW214373   1.614   2.509   0.234  0.3346 -1.9137 -0.3725
 1852SOL     OW14374   2.604   5.469   1.721 -0.0321  0.2951  0.6200
 1852SOL    HW114375   2.668   5.531   1.766 -0.2633 -0.2312  1.6818
 1852SOL    HW214376   2.512   5.485   1.755 -0.1985 -0.1575  0.3904
 1853SOL     OW14377   2.931   3.444   0.558  0.1415  0.2977  0.0857
 1853SOL    HW114378   2.947   3.349   0.532 -0.7498 -0.0197  0.7058
 1853SOL    HW214379   2.869   3.486   0.491  1.0382  0.6376 -0.5503
 1854SOL     OW14380   2.302   3.406   2.320  0.4123  0.3799  0.2174
 1854SOL    HW114381   2.259   3.451   2.398 -0.1040  2.1166 -1.0350
 1854SOL    HW214382   2.372   3.343   2.353  2.2341  3.2321  2.0064
 1855SOL     OW14383   3.375   3.883   1.262  0.0709  0.4447  0.2408
 1855SOL    HW114384   3.293   3.866   1.318  0.5474  0.4626  0.9467
 1855SOL    HW214385   3.348   3.895   1.166 -0.5367 -1.6795  0.1339
 1856SOL     OW14386   3.108   3.778   1.048  0.0206  0.1042  0.1957
 1856SOL    HW114387   3.199   3.802   1.016 -0.3760  0.5776 -0.5956
 1856SOL    HW214388   3.071   3.854   1.102 -0.8446  0.9163 -1.4888
 1858SOL     OW14389   3.772   3.689   1.474  0.3514 -0.5809  0.0422
 1858SOL    HW114390   3.818   3.777   1.482  0.6728 -0.7751  0.3127
 1858SOL    HW214391   3.817   3.634   1.404 -0.0372 -0.4130 -0.3417
 1861SOL     OW14392   1.915   7.452   0.813  0.0076 -0.0963  0.1964
 1861SOL    HW114393   1.967   7.471   0.730  0.6500 -1.0369  0.3687
 1861SOL    HW214394   1.978   7.431   0.888 -0.5676  0.5618  0.8835
 1862SOL     OW14395   1.877   2.354   0.685  0.1149  0.0750  0.4532
 1862SOL    HW114396   1.941   2.287   0.647 -0.1689 -0.9431  1.7347
 1862SOL    HW214397   1.797   2.361   0.625  0.7577  0.2842 -0.3958
 1863SOL     OW14398   0.798   6.791   0.955  0.3487  0.0341 -0.0701
 1863SOL    HW114399   0.823   6.762   0.863  0.6203  1.7278 -0.5527
 1863SOL    HW214400   0.799   6.891   0.959 -2.1127  0.0479  1.0692
 1866SOL     OW14401   2.772   5.678   1.813 -0.6993 -0.5784  0.3239
 1866SOL    HW114402   2.760   5.776   1.827 -1.8392 -0.8105  1.0423
 1866SOL    HW214403   2.839   5.662   1.740 -1.2070  0.7308 -0.4269
 1867SOL     OW14404   2.251   2.989   0.464  0.5695  0.4571  0.6085
 1867SOL    HW114405   2.187   2.937   0.520 -0.5756 -0.5442 -1.5678
 1867SOL    HW214406   2.334   2.935   0.449  0.4990  0.3587  0.5759
 1869SOL     OW14407   2.050   8.854   1.546 -0.6508 -0.4565 -0.5242
 1869SOL    HW114408   2.033   8.782   1.479 -2.1922 -0.0143 -0.6073
 1869SOL    HW214409   2.017   8.942   1.511 -0.6659 -0.0694  0.4431
 1870SOL     OW14410  10.015   5.570   1.201 -0.6274 -0.7547  0.3646
 1870SOL    HW114411   9.919   5.548   1.217 -0.2843 -1.7404  1.1355
 1870SOL    HW214412  10.040   5.651   1.254 -0.6710 -1.3508  1.3239
 1871SOL     OW14413   3.273   8.504   0.669 -0.1567 -0.1332 -0.4522
 1871SOL    HW114414   3.366   8.511   0.633 -0.7470 -1.3609 -2.3423
 1871SOL    HW214415   3.262   8.416   0.715 -0.3043  0.1229  0.0035
 1873SOL     OW14416   2.513   3.837   1.772 -0.6084 -0.1526 -0.0870
 1873SOL    HW114417   2.456   3.809   1.695  1.1416 -1.6902 -0.8233
 1873SOL    HW214418   2.465   3.909   1.823 -2.2803  0.0787 -1.9138
 1874SOL     OW14419   4.177   1.276   1.494  0.1728  0.1540 -0.3835
 1874SOL    HW114420   4.098   1.332   1.468 -2.4707 -2.4380  1.7274
 1874SOL    HW214421   4.234   1.327   1.558 -2.0832  0.5856  1.3578
 1875SOL     OW14422   2.571   8.142   2.298  0.7601 -0.1308  0.3209
 1875SOL    HW114423   2.488   8.110   2.253  0.9253  0.4406 -0.4147
 1875SOL    HW214424   2.601   8.075   2.365 -0.1318 -0.4716  0.3789
 1876SOL     OW14425   2.224   9.491   2.172  0.2192  0.2605  0.0744
 1876SOL    HW114426   2.168   9.490   2.254 -0.7466 -0.4249 -0.5766
 1876SOL    HW214427   2.321   9.491   2.197 -0.0659 -0.7475  1.1996
 1877SOL     OW14428   2.172   5.295   0.971 -0.0652 -0.5811 -0.4729
 1877SOL    HW114429   2.259   5.257   0.939  0.2872 -0.9883  0.9179
 1877SOL    HW214430   2.103   5.288   0.899  0.3266 -2.7037 -0.6610
 1878SOL     OW14431   3.633   3.928   1.049 -0.5336 -0.3131  0.7839
 1878SOL    HW114432   3.707   3.861   1.055  0.5003  0.8484  1.4784
 1878SOL    HW214433   3.654   3.994   0.977 -1.3420 -0.5009  0.3719
 1879SOL     OW14434   4.837   3.944   2.301 -0.1182 -0.6072  0.2362
 1879SOL    HW114435   4.888   3.972   2.219 -0.9611 -1.5023 -0.6140
 1879SOL    HW214436   4.817   4.024   2.357  1.6796 -0.1585  0.2774
 1880SOL     OW14437   2.861   6.778   0.469  0.0052  0.6169 -0.3051
 1880SOL    HW114438   2.946   6.732   0.493 -0.9400  0.1035  2.2914
 1880SOL    HW214439   2.880   6.873   0.446  1.4210  0.1904 -0.9538
 1881SOL     OW14440   1.390   6.081   1.702 -0.3800 -0.4339 -0.2941
 1881SOL    HW114441   1.316   6.122   1.650 -0.2327  0.0233 -0.1476
 1881SOL    HW214442   1.478   6.106   1.661 -0.1359  1.8471  1.4706
 1882SOL     OW14443   4.932   2.110   1.175  0.0137 -0.4068  0.2385
 1882SOL    HW114444   4.958   2.204   1.156 -1.4419  0.8780  4.0825
 1882SOL    HW214445   4.855   2.084   1.116 -0.7597  1.4310  0.4159
 1883SOL     OW14446  10.258   3.720   0.422 -0.5865  0.1132  0.1014
 1883SOL    HW114447  10.261   3.760   0.514 -0.0918 -0.3102  0.2712
 1883SOL    HW214448  10.334   3.755   0.368  0.5939 -1.5471  0.6513
 1884SOL     OW14449   1.447   7.779   2.142  0.1291 -0.4549 -0.4027
 1884SOL    HW114450   1.360   7.732   2.155  0.8845 -2.1745 -1.4271
 1884SOL    HW214451   1.488   7.798   2.231 -0.1650 -1.7982  0.0260
 1885SOL     OW14452   1.432   4.905   1.643 -0.2670 -0.0380 -0.4534
 1885SOL    HW114453   1.384   4.930   1.559 -1.7029 -1.2168 -0.0159
 1885SOL    HW214454   1.396   4.959   1.719  1.0286  1.0261 -0.5956
 1886SOL     OW14455   3.684   0.811   0.741  0.0684  0.0975 -0.0564
 1886SOL    HW114456   3.765   0.756   0.761  0.4819  0.2202 -1.3355
 1886SOL    HW214457   3.704   0.908   0.760 -0.6416 -0.1529  2.1409
 1887SOL     OW14458   3.167  -0.118   0.869 -1.2566  0.0064  0.0511
 1887SOL    HW114459   3.072  -0.122   0.837 -2.0590 -0.9664  2.4707
 1887SOL    HW214460   3.207  -0.209   0.865 -0.3161  0.4447 -1.1383
 1888SOL     OW14461   1.956   3.048   0.651 -0.3675 -0.1256 -0.3147
 1888SOL    HW114462   1.863   3.063   0.618 -0.8973 -2.1803  0.1988
 1888SOL    HW214463   1.995   2.968   0.607  1.5876  1.3600 -1.3473
 1889SOL     OW14464   2.452   6.989   1.653 -0.5735  0.0885 -0.3120
 1889SOL    HW114465   2.405   7.043   1.582  0.7932  1.1713 -0.4024
 1889SOL    HW214466   2.405   6.901   1.663 -3.4383  1.6260  0.5023
 1890SOL     OW14467   3.104   4.532   0.818 -0.5703  0.1531 -0.3623
 1890SOL    HW114468   3.033   4.537   0.888 -1.8204 -0.6146 -1.5478
 1890SOL    HW214469   3.144   4.440   0.818 -0.9886 -0.0373 -1.0317
 1891SOL     OW14470   3.514   4.624   1.307 -0.1378  0.5107  0.0437
 1891SOL    HW114471   3.474   4.710   1.274  0.7318  0.6476 -0.6788
 1891SOL    HW214472   3.592   4.645   1.366  0.2768  0.2212 -0.3954
 1892SOL     OW14473   3.225   9.149   1.859 -0.1515 -0.4449  0.5544
 1892SOL    HW114474   3.266   9.234   1.891  0.6657 -0.5819 -0.1104
 1892SOL    HW214475   3.151   9.170   1.794  1.2723 -0.2604 -1.0510
 1895SOL     OW14476   2.087   3.088   1.350 -0.3321 -0.3869  0.7801
 1895SOL    HW114477   2.161   3.054   1.293 -0.9858 -0.8997  0.2301
 1895SOL    HW214478   2.000   3.051   1.318 -0.9342  0.9225  0.8750
 1896SOL     OW14479   1.781   5.655   1.701 -0.1186 -0.0468 -0.0251
 1896SOL    HW114480   1.727   5.727   1.656  0.5680  0.2622 -0.3649
 1896SOL    HW214481   1.793   5.579   1.638  1.5091  0.7142 -0.6627
 1898SOL     OW14482   3.164   0.457   1.674 -0.1010 -0.1564  0.3511
 1898SOL    HW114483   3.232   0.392   1.640 -0.3473  0.4884 -1.4451
 1898SOL    HW214484   3.079   0.446   1.622 -0.1145  1.6376 -0.0248
 1900SOL     OW14485   2.169   3.568   1.237 -0.0581 -0.1347  0.1263
 1900SOL    HW114486   2.098   3.556   1.168 -0.0586  0.6358 -0.0096
 1900SOL    HW214487   2.236   3.636   1.205 -0.0255  0.1815  0.8522
 1902SOL     OW14488   4.023   0.551   0.447  0.1895 -0.3248 -0.1799
 1902SOL    HW114489   4.000   0.465   0.494 -2.2681  0.4571  0.0828
 1902SOL    HW214490   3.982   0.551   0.356  0.8695  0.2681 -0.4949
 1904SOL     OW14491   2.269   9.013   0.357 -0.4601  0.3246  0.1080
 1904SOL    HW114492   2.316   9.085   0.407  0.9715 -1.6225  1.6874
 1904SOL    HW214493   2.170   9.025   0.367 -0.2195  1.0924  1.8172
 1905SOL     OW14494   1.974   7.047   0.516  0.0256 -0.2424 -0.7457
 1905SOL    HW114495   1.929   7.011   0.434  1.3653 -1.5894 -0.9069
 1905SOL    HW214496   2.057   6.994   0.535 -1.6543 -1.7434  3.0299
 1906SOL     OW14497   9.829   3.298   2.077  0.3676  0.2418 -0.0749
 1906SOL    HW114498   9.766   3.372   2.103 -1.3758 -1.6904  1.3217
 1906SOL    HW214499   9.864   3.253   2.159  1.1607 -0.7047 -0.9149
 1907SOL     OW14500   3.623   2.545   1.204 -1.0371 -0.6551 -0.2029
 1907SOL    HW114501   3.599   2.449   1.220 -1.4043 -0.6936 -1.0010
 1907SOL    HW214502   3.579   2.578   1.121 -1.4896  0.4254  0.4456
 1908SOL     OW14503   3.789   4.652   2.108  0.1642  0.2490 -0.6139
 1908SOL    HW114504   3.801   4.658   2.207  0.5951  1.5567 -0.7371
 1908SOL    HW214505   3.867   4.604   2.068 -1.0130 -2.1569 -0.1179
 1909SOL     OW14506   3.164   8.021   1.908  0.0234  0.5333 -0.3011
 1909SOL    HW114507   3.212   7.953   1.964  0.5874 -0.1105 -1.5537
 1909SOL    HW214508   3.161   8.108   1.957  2.1885  0.4951 -0.0708
 1910SOL     OW14509   1.683   6.072   0.581  0.2075  0.8364  0.3760
 1910SOL    HW114510   1.608   6.020   0.540  1.0462  0.3697 -0.5981
 1910SOL    HW214511   1.660   6.169   0.581  1.2377  1.1675 -3.6360
 1911SOL     OW14512   2.567   3.193   1.988 -0.3824 -0.5368 -0.2329
 1911SOL    HW114513   2.566   3.268   1.922  1.5480 -0.4049 -0.1387
 1911SOL    HW214514   2.483   3.139   1.979 -1.9376  1.8056 -0.0931
 1913SOL     OW14515   0.745   4.877   0.433  0.4357  0.0467 -0.1075
 1913SOL    HW114516   0.658   4.911   0.397 -1.0157 -2.2488  1.1543
 1913SOL    HW214517   0.784   4.810   0.370 -0.1797 -1.0972  0.7145
 1914SOL     OW14518   2.944   5.973   0.825 -0.0853  0.1834 -0.0505
 1914SOL    HW114519   2.900   5.914   0.892 -0.1885  0.8650  0.4879
 1914SOL    HW214520   2.972   5.919   0.746 -0.1527 -0.5837  0.4501
 1915SOL     OW14521   1.797   9.336   1.515  0.2356  0.0617  0.0405
 1915SOL    HW114522   1.754   9.248   1.532 -0.7938  0.1096 -2.1764
 1915SOL    HW214523   1.841   9.369   1.599  0.3208 -2.3731  0.9739
 1916SOL     OW14524   3.979   2.218   1.380 -0.7824  0.0126  0.3366
 1916SOL    HW114525   3.955   2.204   1.283 -1.0613 -0.3332  0.4532
 1916SOL    HW214526   4.038   2.144   1.411  1.2924  1.3729 -0.2166
 1917SOL     OW14527   3.299   4.468   1.206  0.0025  0.8235  0.5993
 1917SOL    HW114528   3.381   4.484   1.261 -1.4868  2.2531  2.4430
 1917SOL    HW214529   3.283   4.548   1.148  0.1954  0.3178 -0.1633
 1918SOL     OW14530   2.863   5.779   1.004 -0.2958  0.2422  0.1199
 1918SOL    HW114531   2.785   5.806   1.062 -0.4512  1.8359 -0.8161
 1918SOL    HW214532   2.934   5.739   1.061 -0.0237  2.7156  1.5909
 1920SOL     OW14533   5.077   4.605   0.687 -0.0143  0.1504  0.0169
 1920SOL    HW114534   5.005   4.651   0.738 -1.5624 -0.8511 -1.2316
 1920SOL    HW214535   5.146   4.570   0.750 -0.7970  0.8009  1.2415
 1921SOL     OW14536   4.199   3.965   0.803  0.5482 -0.1088  0.2677
 1921SOL    HW114537   4.189   3.909   0.721  0.7204  1.6937 -1.0054
 1921SOL    HW214538   4.296   3.983   0.819  0.3773  1.7171 -0.6494
 1922SOL     OW14539   3.242   2.737   0.387  0.9212  0.5121  0.8727
 1922SOL    HW114540   3.221   2.642   0.365  1.1585  0.9362 -1.3341
 1922SOL    HW214541   3.337   2.745   0.418  0.5106 -0.1364  2.3419
 1923SOL     OW14542  10.322   3.892   0.656  0.4406 -0.0589 -0.1573
 1923SOL    HW114543  10.250   3.900   0.725  0.9188 -0.0528  0.3427
 1923SOL    HW214544  10.366   3.981   0.643 -0.0116  0.0691 -0.8753
 1924SOL     OW14545   3.878   0.186   0.992  0.7574  0.0977 -0.2847
 1924SOL    HW114546   3.826   0.270   1.008  0.7923  0.1598 -0.4938
 1924SOL    HW214547   3.895   0.140   1.079 -1.2529 -0.8924 -0.4035
 1925SOL     OW14548   3.614   5.475   0.839  0.4930  0.0273  0.0367
 1925SOL    HW114549   3.523   5.448   0.808 -0.8356  2.0554  1.9545
 1925SOL    HW214550   3.619   5.466   0.939  0.9649  3.7794  0.4217
 1926SOL     OW14551   2.022   7.365   1.916  0.6118  0.4460 -0.0885
 1926SOL    HW114552   2.067   7.361   2.005 -0.7465  0.3589  0.6189
 1926SOL    HW214553   1.957   7.441   1.915  1.3453  1.0730 -1.3691
 1927SOL     OW14554   0.508   6.212   0.981 -0.4660  0.0530 -0.0289
 1927SOL    HW114555   0.430   6.157   1.009 -2.0056  1.6724 -1.0495
 1927SOL    HW214556   0.526   6.283   1.049  1.1258 -1.2791  0.9786
 1929SOL     OW14557   4.904   1.949   1.407 -0.0021  0.5028  0.1878
 1929SOL    HW114558   4.905   2.011   1.328 -0.1173  0.6258  0.2835
 1929SOL    HW214559   4.963   1.871   1.388 -0.9206 -0.0376 -0.4725
 1930SOL     OW14560   2.775   9.492   0.784  0.0385  0.3169 -0.1270
 1930SOL    HW114561   2.832   9.477   0.703 -1.1066  3.3357 -1.5573
 1930SOL    HW214562   2.816   9.564   0.840  0.0298 -0.7185  1.2433
 1931SOL     OW14563   1.517   6.828   2.371 -0.7634 -0.0483 -0.3032
 1931SOL    HW114564   1.491   6.911   2.421 -1.9903  0.9567 -2.5430
 1931SOL    HW214565   1.439   6.766   2.366 -0.4487 -0.4383 -0.3842
 1932SOL     OW14566   1.990   7.274   1.180 -0.2647  0.1030  0.2966
 1932SOL    HW114567   1.971   7.189   1.230  1.6474 -0.1572  0.6419
 1932SOL    HW214568   1.919   7.341   1.200 -0.9892 -0.9190  1.2272
 1934SOL     OW14569   1.340   3.199   1.898 -0.3696 -0.1395  0.4321
 1934SOL    HW114570   1.373   3.148   1.819  0.7139 -0.6957  1.2274
 1934SOL    HW214571   1.380   3.291   1.898  1.5880 -0.9501  1.6195
 1936SOL     OW14572   1.059   4.742   1.825  0.3469 -0.6159  0.1216
 1936SOL    HW114573   1.066   4.824   1.881  0.6660 -1.5396  1.4820
 1936SOL    HW214574   1.149   4.699   1.817  0.4125 -0.1766 -1.6122
 1937SOL     OW14575   5.853   3.115   1.335  0.0837  0.6342  0.2463
 1937SOL    HW114576   5.773   3.157   1.376  0.2721  2.0906 -0.8343
 1937SOL    HW214577   5.932   3.176   1.344  1.1199 -0.8203  1.3998
 1938SOL     OW14578  10.244   3.473   1.928 -0.2167 -0.2180 -0.0366
 1938SOL    HW114579  10.259   3.448   2.024 -1.1146  0.4148  0.2674
 1938SOL    HW214580  10.150   3.503   1.915 -0.1493 -0.4683 -1.1595
 1939SOL     OW14581   1.472   5.905   1.422 -0.2631  0.3676 -0.0857
 1939SOL    HW114582   1.568   5.927   1.409  0.0831  0.8310  2.9662
 1939SOL    HW214583   1.458   5.807   1.405  1.0338 -0.0063  0.9753
 1942SOL     OW14584   2.227   0.136   0.941  0.4507  0.1708 -0.5669
 1942SOL    HW114585   2.318   0.152   0.903  0.6275 -0.0874 -0.2585
 1942SOL    HW214586   2.209   0.037   0.941  0.7890  0.1000  0.7786
 1943SOL     OW14587   3.091   0.148   1.203  0.3595  0.2146  0.3611
 1943SOL    HW114588   3.138   0.081   1.145  1.5710  0.1135  1.4143
 1943SOL    HW214589   3.156   0.220   1.229 -0.1985  0.3400  1.4482
 1945SOL     OW14590   4.267   1.030   1.454  0.6539  0.3341 -0.4273
 1945SOL    HW114591   4.239   1.125   1.471  0.2205  0.0354  0.5623
 1945SOL    HW214592   4.191   0.979   1.414  0.9665  0.4599 -1.1990
 1946SOL     OW14593   3.433   5.986   2.073  0.3017  0.0499 -0.1787
 1946SOL    HW114594   3.364   5.951   2.136 -0.1963  2.0747  0.4649
 1946SOL    HW214595   3.516   5.931   2.078  0.3641  0.3311  2.4589
 1948SOL     OW14596   3.881   2.848   1.184 -0.4565  0.3964 -0.1510
 1948SOL    HW114597   3.852   2.826   1.091 -1.6528  0.3232  0.2276
 1948SOL    HW214598   3.936   2.773   1.221 -1.0462 -0.1298 -0.3406
 1949SOL     OW14599   2.095   6.684   1.277  0.1471 -0.6879 -0.8970
 1949SOL    HW114600   2.189   6.653   1.289 -0.0990 -0.7658  0.8880
 1949SOL    HW214601   2.034   6.606   1.275  0.0137 -0.5791 -1.1121
 1950SOL     OW14602   3.858   3.411   0.677  0.3179  0.9184 -0.2754
 1950SOL    HW114603   3.884   3.491   0.624  1.2914  1.1332  0.5151
 1950SOL    HW214604   3.877   3.427   0.774  3.1220 -1.2802 -0.4044
 1951SOL     OW14605   3.239   4.648   0.516 -0.7998  0.0211  0.5164
 1951SOL    HW114606   3.218   4.560   0.558  0.4661 -0.1876  0.7355
 1951SOL    HW214607   3.254   4.635   0.418  1.1482 -0.3124  0.8439
 1952SOL     OW14608   2.694   4.791   2.074 -0.2762 -0.5476 -1.0239
 1952SOL    HW114609   2.788   4.761   2.059 -0.3224 -0.8524 -0.7291
 1952SOL    HW214610   2.656   4.828   1.989  0.7250  1.3044 -0.6643
 1954SOL     OW14611  10.259   5.406   1.245  0.9853  0.3592  0.2872
 1954SOL    HW114612  10.165   5.436   1.229  1.0163 -0.5059 -1.7381
 1954SOL    HW214613  10.270   5.378   1.340 -0.7132  0.7961  0.6274
 1956SOL     OW14614   3.437   1.217   1.682  0.4288  0.3075  0.3279
 1956SOL    HW114615   3.340   1.203   1.704  0.7264  0.3717  1.7285
 1956SOL    HW214616   3.454   1.186   1.589 -0.9084  0.1339  0.1218
 1958SOL     OW14617   2.150   3.365   1.443 -0.1057  0.4984 -0.1946
 1958SOL    HW114618   2.146   3.267   1.424  1.2026  0.2988  0.5183
 1958SOL    HW214619   2.165   3.415   1.358  0.3807 -0.0117 -0.4113
 1959SOL     OW14620   9.858   5.828   1.034  0.0472 -0.2829 -0.2897
 1959SOL    HW114621   9.761   5.808   1.018  0.1000 -1.2396  0.5341
 1959SOL    HW214622   9.913   5.770   0.974  0.1104  0.8170 -1.3268
 1960SOL     OW14623   1.091   7.310   1.920 -0.2554  0.4572 -0.5380
 1960SOL    HW114624   1.040   7.369   1.983 -0.4333 -0.9405  0.6468
 1960SOL    HW214625   1.182   7.349   1.905 -0.7989  1.6788 -0.7535
 1961SOL     OW14626   1.766   6.676   2.275 -0.2307 -0.5555 -0.2782
 1961SOL    HW114627   1.745   6.587   2.235  0.6214 -0.5185 -0.8072
 1961SOL    HW214628   1.684   6.733   2.275 -0.6652 -1.1796 -0.3447
 1963SOL     OW14629   3.895   2.200   1.115  0.0123 -0.1980 -0.0595
 1963SOL    HW114630   3.928   2.232   1.027 -1.0957 -1.4733 -0.9641
 1963SOL    HW214631   3.802   2.234   1.130 -0.4405 -1.3742 -0.1618
 1964SOL     OW14632   3.887   8.967   1.460  0.0857  0.5578 -0.4430
 1964SOL    HW114633   3.862   8.871   1.456  0.5849  0.3526  1.0116
 1964SOL    HW214634   3.885   9.006   1.368  0.9770 -1.1119 -1.1780
 1965SOL     OW14635   2.027   5.671   0.458 -0.0985 -0.0311  0.1424
 1965SOL    HW114636   2.112   5.672   0.512  0.3657  1.5755 -0.5868
 1965SOL    HW214637   1.964   5.739   0.495  0.1321  0.9224 -1.1777
 1966SOL     OW14638   4.461   4.188   1.759 -0.0466 -0.0489  0.1233
 1966SOL    HW114639   4.452   4.120   1.831 -1.2413 -1.1177 -1.0044
 1966SOL    HW214640   4.377   4.191   1.705  0.3689  1.6121 -0.4706
 1967SOL     OW14641   1.535   5.206   1.204 -0.5376  0.8779  0.1016
 1967SOL    HW114642   1.499   5.127   1.155 -1.7844 -0.1935  2.6295
 1967SOL    HW214643   1.634   5.209   1.197 -0.3421 -1.8697  1.3399
 1968SOL     OW14644   4.987   2.225   0.611 -0.0367  0.1399  0.3050
 1968SOL    HW114645   5.006   2.166   0.689  0.0018  1.5909  1.4057
 1968SOL    HW214646   4.893   2.259   0.617  0.3484  1.2294  0.3946
 1969SOL     OW14647   3.191   9.558   2.173  0.1261 -0.3602  0.0587
 1969SOL    HW114648   3.288   9.538   2.189 -0.0661 -0.2842  1.3836
 1969SOL    HW214649   3.143   9.561   2.260 -0.7342  1.3591 -0.4511
 1970SOL     OW14650   1.772   7.806   2.300  0.3730  0.1494 -0.1602
 1970SOL    HW114651   1.688   7.827   2.349  0.0565 -0.7792 -0.2907
 1970SOL    HW214652   1.820   7.891   2.278 -1.5813  0.8252 -1.9578
 1972SOL     OW14653   4.338   4.782   0.387  0.2673 -0.1131  0.5595
 1972SOL    HW114654   4.426   4.810   0.349 -0.7332  0.3410 -1.4658
 1972SOL    HW214655   4.346   4.691   0.427  1.6022 -0.1456  0.2434
 1973SOL     OW14656   4.093   8.728   2.256 -0.2510 -0.2037  0.2499
 1973SOL    HW114657   4.185   8.701   2.229 -0.3294 -2.4181  2.0433
 1973SOL    HW214658   4.097   8.782   2.340 -0.5651  0.0447  0.1070
 1974SOL     OW14659   1.620   8.385   1.895 -0.2009 -0.0698 -0.5467
 1974SOL    HW114660   1.678   8.304   1.907  1.6750  1.2242 -0.6408
 1974SOL    HW214661   1.627   8.442   1.976 -1.4104  0.0817 -0.5430
 1977SOL     OW14662   2.601   9.252   0.730  0.4626 -0.1451 -0.3279
 1977SOL    HW114663   2.636   9.346   0.734  0.0419 -0.0947  3.2785
 1977SOL    HW214664   2.660   9.192   0.784 -1.0021 -1.3767 -0.0687
 1978SOL     OW14665   2.783   1.745   2.304  0.0906  1.0175  0.7511
 1978SOL    HW114666   2.802   1.697   2.389 -0.8563  1.7853  1.4015
 1978SOL    HW214667   2.855   1.812   2.286 -0.1318  1.4335  1.3828
 1979SOL     OW14668   4.526   1.038   1.665  0.0069  0.1153 -0.1253
 1979SOL    HW114669   4.599   1.103   1.645  0.0991  0.7369  2.0232
 1979SOL    HW214670   4.437   1.079   1.643  0.1935  0.0912 -0.9326
 1981SOL     OW14671   3.683   4.647   1.754 -0.1050 -0.5711 -0.0478
 1981SOL    HW114672   3.613   4.712   1.723 -0.9838 -1.4236  0.1369
 1981SOL    HW214673   3.659   4.613   1.845  1.2774  0.1769  0.6180
 1982SOL     OW14674   2.511   7.496   1.143 -0.3053  0.1947  0.0609
 1982SOL    HW114675   2.513   7.457   1.051  2.4143  0.5941 -0.0832
 1982SOL    HW214676   2.454   7.438   1.202  0.1532 -1.5861 -1.2061
 1984SOL     OW14677   2.916   6.957   1.463  0.9555 -0.1188  0.5551
 1984SOL    HW114678   2.823   6.991   1.473  0.3446 -1.7651  0.6769
 1984SOL    HW214679   2.955   6.992   1.378  0.2585  0.6541  0.5501
 1985SOL     OW14680   3.323   3.769   2.127 -0.0076 -0.6549  0.1371
 1985SOL    HW114681   3.244   3.812   2.169 -0.1783  0.0514 -0.8941
 1985SOL    HW214682   3.369   3.835   2.067 -0.1381 -1.8270 -1.2694
 1986SOL     OW14683   9.998   5.056   0.338  0.3158 -0.5153  0.1525
 1986SOL    HW114684   9.916   5.008   0.309 -1.2516  1.5204  1.0343
 1986SOL    HW214685  10.017   5.132   0.275 -0.0201  0.6157  1.3743
 1987SOL     OW14686   1.843   1.997   1.845 -0.1179 -0.5216 -0.7127
 1987SOL    HW114687   1.891   1.934   1.783  1.3118 -0.8258  0.6551
 1987SOL    HW214688   1.799   2.069   1.792  1.4094 -0.5529 -2.0791
 1988SOL     OW14689   4.452   4.247   0.937  0.0059 -0.6553  0.2239
 1988SOL    HW114690   4.500   4.167   0.974  0.4188 -0.5944 -0.1811
 1988SOL    HW214691   4.477   4.260   0.841 -0.3153 -0.2322  0.1946
 1989SOL     OW14692   4.852   3.531   1.944 -0.1313 -0.0935  0.2317
 1989SOL    HW114693   4.766   3.563   1.982 -0.4262 -0.9453  0.2945
 1989SOL    HW214694   4.928   3.557   2.004 -0.3898  0.2967  0.3840
 1992SOL     OW14695   3.273   3.419   1.019  0.6277 -0.1925 -0.8990
 1992SOL    HW114696   3.186   3.464   1.040 -0.3754 -2.6589  0.3429
 1992SOL    HW214697   3.343   3.453   1.081 -0.2373 -0.6771  0.3667
 1993SOL     OW14698   3.490   8.915   2.057  0.6861  0.1020  0.0261
 1993SOL    HW114699   3.393   8.903   2.080  0.2901  2.2134 -0.4274
 1993SOL    HW214700   3.498   8.975   1.978  2.4054  1.2537  1.0381
 1994SOL     OW14701   3.941   0.989   2.270  0.1128 -0.1273 -0.4462
 1994SOL    HW114702   3.960   1.028   2.180 -0.5946  1.9796  0.2862
 1994SOL    HW214703   3.854   1.024   2.304  1.8678  1.6846  2.4264
 1995SOL     OW14704   4.691   4.760   1.715 -0.1284  0.2728  0.0149
 1995SOL    HW114705   4.628   4.709   1.656 -0.8250  0.7054  0.3917
 1995SOL    HW214706   4.785   4.733   1.693 -0.4928 -1.3442  0.3501
 1997SOL     OW14707   4.371   2.301   1.305 -0.6892  0.2575  0.4195
 1997SOL    HW114708   4.443   2.262   1.361 -1.0824  1.6436  1.9148
 1997SOL    HW214709   4.289   2.317   1.360 -1.1057  1.5835 -0.5306
 1998SOL     OW14710   4.124   2.031   1.495  0.1315 -0.0485  0.0705
 1998SOL    HW114711   4.051   1.990   1.550  0.1355 -0.4214 -0.1997
 1998SOL    HW214712   4.191   2.074   1.556  0.9329 -1.7763  0.4500
 1999SOL     OW14713   3.265   8.180   2.118 -0.7670 -0.3157 -0.1824
 1999SOL    HW114714   3.271   8.231   2.205 -0.6171 -0.7135  0.0404
 1999SOL    HW214715   3.349   8.196   2.065 -0.7363 -0.3003 -0.1305
 2000SOL     OW14716   2.332   8.925   0.661 -0.2351  0.9208  0.4215
 2000SOL    HW114717   2.333   9.024   0.647  2.5361  0.6155 -1.8994
 2000SOL    HW214718   2.418   8.896   0.703  0.2407 -0.8325 -1.6853
 2001SOL     OW14719   3.000   5.726   0.320  0.5906 -0.6258  0.2895
 2001SOL    HW114720   3.058   5.677   0.384  0.9963  1.1896  1.3596
 2001SOL    HW214721   3.010   5.825   0.334 -1.9839 -0.2542 -0.1732
 2002SOL     OW14722   2.546   4.470   0.693 -0.1331  0.3805 -0.5141
 2002SOL    HW114723   2.497   4.383   0.703 -1.3879  1.3330  1.9590
 2002SOL    HW214724   2.635   4.463   0.739 -0.6904  0.7511  0.6254
 2003SOL     OW14725   1.528   5.565   1.484  0.1073 -0.3708 -0.0955
 2003SOL    HW114726   1.503   5.593   1.391 -0.0245 -0.5821 -0.1230
 2003SOL    HW214727   1.457   5.597   1.548 -0.5173 -1.4477 -0.2406
 2005SOL     OW14728  10.312   5.057   0.839 -0.0832  0.6483  0.8719
 2005SOL    HW114729  10.313   5.154   0.860  0.0904  0.8405 -0.0117
 2005SOL    HW214730  10.237   5.037   0.776  0.5400  0.3959  0.2035
 2006SOL     OW14731  10.013   4.977   2.302 -0.0320  0.2629  0.0309
 2006SOL    HW114732  10.051   4.920   2.230  1.5426  0.0186  1.0309
 2006SOL    HW214733  10.080   5.046   2.330 -0.3651 -0.0702  1.7260
 2007SOL     OW14734   2.234   9.406   0.413  0.9818  0.1057  0.7874
 2007SOL    HW114735   2.226   9.496   0.456 -3.9000  0.0788  0.2402
 2007SOL    HW214736   2.247   9.417   0.315  1.3537  0.1812  0.8430
 2009SOL     OW14737  10.159   5.605   1.658  0.1539  0.1640  0.6763
 2009SOL    HW114738  10.221   5.625   1.734 -1.7289  2.0525  1.7742
 2009SOL    HW214739  10.074   5.568   1.694 -0.2367 -0.2399 -0.6304
 2010SOL     OW14740   2.296   2.263   0.525 -0.9439 -0.6028 -0.0160
 2010SOL    HW114741   2.270   2.310   0.441 -0.3064 -2.2883 -1.1827
 2010SOL    HW214742   2.391   2.286   0.548 -0.8202 -0.8563 -0.2678
 2011SOL     OW14743   3.016   3.605   0.775 -0.5788 -0.1942  0.1105
 2011SOL    HW114744   2.998   3.563   0.864 -1.3148  1.4968  0.7915
 2011SOL    HW214745   2.989   3.542   0.702 -0.5727 -1.3431  1.0810
 2012SOL     OW14746   1.726   9.094   1.576  0.1386 -0.1007 -0.3260
 2012SOL    HW114747   1.674   9.009   1.565 -0.0597 -0.1319  0.8057
 2012SOL    HW214748   1.818   9.083   1.539 -0.0477 -0.6560 -0.6216
 2013SOL     OW14749   4.889   4.391   0.666  0.2836  0.8280  0.0209
 2013SOL    HW114750   4.816   4.433   0.720 -0.4487 -0.3423 -0.0547
 2013SOL    HW214751   4.950   4.463   0.632 -0.8017  1.8094  0.1155
 2014SOL     OW14752   9.722   4.661   0.365  0.0173 -0.3095  0.0638
 2014SOL    HW114753   9.728   4.621   0.457  0.3085 -0.6226 -0.0926
 2014SOL    HW214754   9.761   4.597   0.298  1.6698  0.7589 -0.0332
 2016SOL     OW14755   9.712   4.592   0.633  0.5264 -0.4309 -0.0332
 2016SOL    HW114756   9.651   4.653   0.684  0.4246 -0.0909 -0.5675
 2016SOL    HW214757   9.665   4.506   0.616 -0.1733  0.1974 -1.3210
 2017SOL     OW14758   1.689   2.249   2.292  0.0821 -0.7333  0.1962
 2017SOL    HW114759   1.651   2.314   2.226  0.2223 -0.2775  0.5540
 2017SOL    HW214760   1.704   2.161   2.248 -1.3096 -0.8909  0.0309
 2018SOL     OW14761   2.245   8.323   1.739  0.3355  0.3633  0.4188
 2018SOL    HW114762   2.283   8.383   1.809  2.1442 -2.1034  1.6532
 2018SOL    HW214763   2.307   8.245   1.726 -1.1490 -0.4173 -2.2527
 2024SOL     OW14764   4.216   1.762   1.731 -0.0326  0.3635  0.0663
 2024SOL    HW114765   4.224   1.723   1.823 -0.2533  0.3874  0.0952
 2024SOL    HW214766   4.143   1.830   1.730 -0.7956 -0.4546 -0.4017
 2025SOL     OW14767   2.442   8.574   0.712 -0.3477  0.5229 -0.5555
 2025SOL    HW114768   2.435   8.571   0.612 -0.3284  2.1281 -0.6261
 2025SOL    HW214769   2.500   8.499   0.744 -0.7176 -0.2726 -1.7065
 2026SOL     OW14770   3.066   2.525   2.131 -0.2270 -0.4242 -0.5365
 2026SOL    HW114771   2.975   2.532   2.171  0.6111  0.3295  1.2990
 2026SOL    HW214772   3.134   2.517   2.204  1.3435  0.8010 -1.8197
 2027SOL     OW14773   4.162   2.416   2.214  0.3719  0.1229  0.2387
 2027SOL    HW114774   4.220   2.496   2.227 -1.3131  1.0103  2.7279
 2027SOL    HW214775   4.115   2.421   2.126  1.7739  0.8716 -0.4665
 2028SOL     OW14776   4.675   1.536   1.202 -0.4138  0.0830 -0.0130
 2028SOL    HW114777   4.646   1.599   1.274  0.6546 -1.2223  1.6094
 2028SOL    HW214778   4.768   1.559   1.172  0.1563 -0.9489  0.9034
 2029SOL     OW14779   1.658   1.780   2.219 -0.6160 -1.0255  0.5849
 2029SOL    HW114780   1.698   1.799   2.309 -0.3193 -0.3105  0.3055
 2029SOL    HW214781   1.680   1.687   2.192  2.3125 -0.1202 -0.3067
 2030SOL     OW14782   1.975   1.819   2.056 -0.0320  0.5748  0.2026
 2030SOL    HW114783   2.019   1.870   2.130 -0.2466 -0.6204  1.1602
 2030SOL    HW214784   1.904   1.876   2.014  0.7576  1.6187  0.2424
 2031SOL     OW14785   4.247   1.136   2.104 -0.3981  0.3778  0.4387
 2031SOL    HW114786   4.325   1.159   2.046 -0.6977  0.3987  0.0415
 2031SOL    HW214787   4.225   1.213   2.163  0.2017  0.1875  0.9106
 2032SOL     OW14788   1.252   4.342   0.948  0.0743  0.3833 -0.1119
 2032SOL    HW114789   1.288   4.315   0.858  0.7667 -2.7353  1.0395
 2032SOL    HW214790   1.158   4.374   0.938  0.3389  0.6384 -2.0278
 2033SOL     OW14791   3.504   8.929   0.346 -0.2413  0.1148 -0.2743
 2033SOL    HW114792   3.585   8.979   0.315 -0.2208  0.1497 -0.1643
 2033SOL    HW214793   3.528   8.874   0.426 -0.3099  0.0744 -0.2821
 2035SOL     OW14794   2.010   5.307   0.765 -0.3895 -0.2937  0.1809
 2035SOL    HW114795   2.004   5.324   0.666  1.1984  0.6177  0.2311
 2035SOL    HW214796   1.937   5.358   0.812 -0.1690  0.5339 -0.3692
 2037SOL     OW14797   3.520   9.321   1.085 -0.1391  0.3147 -0.2449
 2037SOL    HW114798   3.455   9.318   1.009 -0.0908  0.1154 -0.2788
 2037SOL    HW214799   3.541   9.228   1.115  0.8419  0.3375 -0.8376
 2038SOL     OW14800   1.824   8.634   1.657 -0.1907  0.2363  0.1351
 2038SOL    HW114801   1.864   8.654   1.746  0.9513 -2.1869  0.1907
 2038SOL    HW214802   1.732   8.596   1.669  0.5918 -1.6033  0.3635
 2039SOL     OW14803   1.941   7.119   0.786  0.2570  0.1599  0.8375
 2039SOL    HW114804   1.978   7.212   0.789 -2.3355  1.2133  2.4456
 2039SOL    HW214805   1.922   7.093   0.691  0.9952  1.2784  0.3816
 2040SOL     OW14806   3.103   3.773   1.775 -0.4878  0.2049  0.0804
 2040SOL    HW114807   3.158   3.710   1.721 -0.8017  0.5212 -0.6116
 2040SOL    HW214808   3.026   3.724   1.816 -1.5089  0.4036 -1.5725
 2041SOL     OW14809   4.617   1.694   1.415  0.1608 -0.1643  0.4175
 2041SOL    HW114810   4.555   1.736   1.481  1.1056  2.7711 -0.4520
 2041SOL    HW214811   4.710   1.728   1.430  0.4281  0.4343 -2.2285
 2042SOL     OW14812   1.909   8.636   1.392 -0.3670  0.0854 -0.0115
 2042SOL    HW114813   1.897   8.626   1.491  0.2732 -1.3066 -0.0712
 2042SOL    HW214814   1.842   8.578   1.345 -0.2381  0.2498 -0.3979
 2045SOL     OW14815   2.306   0.666   0.332 -0.5781  0.5148 -0.5196
 2045SOL    HW114816   2.357   0.751   0.345  0.5231 -0.2904  0.5716
 2045SOL    HW214817   2.366   0.596   0.293 -0.9880 -0.2538  0.1951
 2046SOL     OW14818   4.403   5.090   0.857  0.1802  0.3980 -0.4892
 2046SOL    HW114819   4.352   5.049   0.933  0.7073  0.8991  0.1379
 2046SOL    HW214820   4.391   5.034   0.775 -1.4996  0.5953 -0.3946
 2047SOL     OW14821   1.929   4.013   1.921  0.0611 -0.1288  0.0917
 2047SOL    HW114822   1.989   4.054   1.853  1.4859 -2.8647 -0.3981
 2047SOL    HW214823   1.973   4.016   2.011 -0.3020  0.3818  0.2535
 2048SOL     OW14824   1.262   5.610   1.600 -0.4112  0.3127 -0.7274
 2048SOL    HW114825   1.265   5.693   1.656 -1.0302  0.0048 -0.2378
 2048SOL    HW214826   1.320   5.540   1.642 -3.1951 -0.9448  1.2076
 2050SOL     OW14827   3.477   0.279   0.892 -0.7961  0.2952 -0.0375
 2050SOL    HW114828   3.551   0.327   0.844 -0.1094 -0.7482 -0.0418
 2050SOL    HW214829   3.390   0.302   0.849 -0.2625 -0.0986 -1.3771
 2051SOL     OW14830   3.338   3.637   0.506  0.0466  0.6638  0.3077
 2051SOL    HW114831   3.437   3.632   0.524  0.1377  1.7518  0.1576
 2051SOL    HW214832   3.314   3.730   0.479 -1.0218  0.3938  0.3042
 2052SOL     OW14833   3.030   4.608   1.642 -0.7005  0.2868 -0.0653
 2052SOL    HW114834   2.969   4.688   1.645 -0.4245  0.5002 -0.1462
 2052SOL    HW214835   3.036   4.574   1.548 -0.9979  0.0306  0.0065
 2053SOL     OW14836   4.110   2.388   0.551 -1.0315 -0.0304 -0.1045
 2053SOL    HW114837   4.129   2.297   0.589 -0.5952  0.6090  1.2726
 2053SOL    HW214838   4.196   2.436   0.536 -1.2729  0.2642 -0.5451
 2055SOL     OW14839   4.260   3.145   2.122  0.7014  0.0048  0.2310
 2055SOL    HW114840   4.259   3.092   2.207  0.3632  0.5942  0.6024
 2055SOL    HW214841   4.173   3.194   2.114  0.9959  0.4570 -0.1372
 2056SOL     OW14842   2.825   4.227   1.199 -0.4867 -0.4545 -0.0238
 2056SOL    HW114843   2.794   4.253   1.290  0.3866  0.1758  0.1050
 2056SOL    HW214844   2.852   4.309   1.149 -3.5902 -0.4793 -1.8743
 2057SOL     OW14845   1.479   7.352   1.307 -0.0736 -0.2471  0.5928
 2057SOL    HW114846   1.439   7.272   1.352 -0.3268  0.4027  1.5300
 2057SOL    HW214847   1.455   7.434   1.358  2.8109  0.1249  1.4698
 2058SOL     OW14848   3.623   5.777   2.125  0.0480  0.0680 -0.1069
 2058SOL    HW114849   3.619   5.742   2.032 -2.0051 -0.6482  0.2183
 2058SOL    HW214850   3.598   5.705   2.189  0.6963  0.7651  0.9494
 2059SOL     OW14851   3.993   3.237   2.040  0.2849  0.3616 -0.2596
 2059SOL    HW114852   3.954   3.307   2.101  1.0955 -0.2623  0.9997
 2059SOL    HW214853   3.969   3.259   1.945 -1.5167  1.0223  0.3117
 2061SOL     OW14854  10.365   3.676   0.847 -0.6146  0.2177 -0.5756
 2061SOL    HW114855  10.305   3.599   0.827 -0.8804  0.5648 -1.1224
 2061SOL    HW214856  10.339   3.754   0.791  1.9290 -0.3561 -2.6306
 2062SOL     OW14857   4.794   3.718   0.392  0.2340 -0.1263  0.0111
 2062SOL    HW114858   4.767   3.626   0.364  0.6588  0.1761 -1.4063
 2062SOL    HW214859   4.890   3.716   0.423  0.7165  0.1169 -1.4358
 2063SOL     OW14860   3.358   3.508   0.760  0.2585 -0.0242  0.1626
 2063SOL    HW114861   3.301   3.484   0.839 -0.2851 -2.6443 -0.9558
 2063SOL    HW214862   3.300   3.537   0.684  0.5334 -0.5494 -0.2580
 2064SOL     OW14863   2.390   8.485   2.362  0.6084 -0.4117 -0.2660
 2064SOL    HW114864   2.324   8.411   2.368  1.2481 -1.0339 -0.8041
 2064SOL    HW214865   2.482   8.449   2.380  0.6749  0.6698  1.7096
 2065SOL     OW14866   1.024   3.249   2.103  0.5644  0.4626 -0.1687
 2065SOL    HW114867   1.042   3.339   2.144  0.5885  0.6080 -0.4936
 2065SOL    HW214868   0.986   3.262   2.011  0.7881  0.1349 -0.3062
 2066SOL     OW14869   3.010   1.555   1.368  0.0928 -0.1430  0.3125
 2066SOL    HW114870   2.979   1.572   1.462  0.1361 -1.7544  0.6203
 2066SOL    HW214871   2.937   1.577   1.304 -0.2628  0.0414  0.7792
 2067SOL     OW14872   0.737   3.443   0.626 -0.0932 -0.3709 -0.0788
 2067SOL    HW114873   0.659   3.438   0.688  0.5453 -0.4881  0.7276
 2067SOL    HW214874   0.777   3.535   0.630  1.8905 -1.2427  2.1389
 2069SOL     OW14875  10.166   3.681   2.173 -0.4449  0.0578  0.1943
 2069SOL    HW114876  10.097   3.734   2.223  0.4677  0.9639  0.5080
 2069SOL    HW214877  10.208   3.738   2.103 -0.1546 -0.5537 -0.1356
 2070SOL     OW14878   3.448   1.199   1.030  0.1165 -0.1026 -0.1001
 2070SOL    HW114879   3.432   1.226   0.935 -0.7340 -1.4416 -0.3527
 2070SOL    HW214880   3.406   1.265   1.092 -1.8675 -0.7609 -0.7005
 2071SOL     OW14881   2.040   8.548   1.904 -0.2771 -0.3551  0.8062
 2071SOL    HW114882   2.053   8.642   1.872 -0.4114 -1.0097 -1.2615
 2071SOL    HW214883   2.129   8.505   1.920 -0.0980 -0.9041 -1.4518
 2072SOL     OW14884   1.375   8.146   2.269 -0.5206  0.1854  0.3384
 2072SOL    HW114885   1.440   8.221   2.283 -0.0206 -0.1967  0.0607
 2072SOL    HW214886   1.335   8.154   2.178 -1.1903  0.6660  0.6670
 2073SOL     OW14887   3.378   8.737   2.301  0.1163  0.8425 -0.0120
 2073SOL    HW114888   3.420   8.827   2.314 -0.8650  1.3257 -0.2048
 2073SOL    HW214889   3.416   8.673   2.369 -2.2979  2.4391  2.9369
 2074SOL     OW14890   4.406   8.625   0.713  0.3364  0.5402 -0.1515
 2074SOL    HW114891   4.345   8.704   0.713 -3.0769 -2.0123  1.1017
 2074SOL    HW214892   4.373   8.557   0.647  1.5071 -1.1131  0.9426
 2075SOL     OW14893   3.669   1.841   2.115  0.2657 -0.0746 -0.3514
 2075SOL    HW114894   3.723   1.758   2.130  1.6643  0.7481 -0.6859
 2075SOL    HW214895   3.593   1.844   2.180  0.1237 -1.6811 -0.4353
 2076SOL     OW14896   4.729   4.279   2.234 -0.3916 -0.5254 -0.2349
 2076SOL    HW114897   4.633   4.255   2.222 -0.0715 -1.8875 -0.1244
 2076SOL    HW214898   4.782   4.248   2.155  0.4011 -2.2886  0.9581
 2077SOL     OW14899   2.520   8.793   0.840 -0.0646 -0.6940  0.0800
 2077SOL    HW114900   2.520   8.770   0.937 -0.4269  0.5396  0.3755
 2077SOL    HW214901   2.501   8.710   0.786 -0.8592 -1.1834  1.1021
 2079SOL     OW14902   1.990   4.757   1.307 -0.0949 -0.3222  0.0242
 2079SOL    HW114903   1.987   4.762   1.407  0.9604  0.8993  0.0107
 2079SOL    HW214904   2.085   4.748   1.277 -0.4664 -1.3840 -0.8493
 2080SOL     OW14905   3.062   4.719   1.142 -0.1703  0.7181  0.0751
 2080SOL    HW114906   3.160   4.709   1.124 -0.5655 -1.1891 -1.2687
 2080SOL    HW214907   3.045   4.803   1.193  2.2984  0.4240  1.4425
 2082SOL     OW14908   3.336   4.833   0.716 -0.7191  0.5375 -0.3561
 2082SOL    HW114909   3.295   4.772   0.648 -1.5150  1.7428 -0.9948
 2082SOL    HW214910   3.268   4.901   0.744 -0.2591  0.3052  1.3463
 2084SOL     OW14911   3.970   8.526   0.387  0.2492  0.2950 -0.0767
 2084SOL    HW114912   3.955   8.528   0.485 -0.0880  2.7984 -0.1561
 2084SOL    HW214913   3.888   8.558   0.339  0.8028  0.2011 -1.1197
 2085SOL     OW14914   5.011   1.691   1.337  0.3206  0.0864 -0.4068
 2085SOL    HW114915   5.025   1.704   1.239 -0.1909 -1.3627 -0.6862
 2085SOL    HW214916   5.070   1.617   1.370  1.1061  1.1307  0.5498
 2086SOL     OW14917   2.486   7.064   2.328  0.6580  0.3536  0.4078
 2086SOL    HW114918   2.567   7.055   2.270 -0.2209 -0.4862 -0.7003
 2086SOL    HW214919   2.512   7.051   2.424  1.7165 -0.5178  0.0090
 2087SOL     OW14920   2.804   7.318   1.203 -0.5263 -0.5619  0.2566
 2087SOL    HW114921   2.844   7.367   1.126  0.9081 -3.5551 -0.9832
 2087SOL    HW214922   2.705   7.334   1.206 -0.5010  0.0215 -1.8609
 2088SOL     OW14923   9.191   4.770   0.797  0.6834  0.1821  0.3048
 2088SOL    HW114924   9.229   4.702   0.860  0.1802 -0.1950  0.2021
 2088SOL    HW214925   9.244   4.771   0.712 -0.0004 -0.8794 -0.1379
 2089SOL     OW14926   2.749   5.507   0.554  0.8119 -0.3185 -0.3624
 2089SOL    HW114927   2.769   5.553   0.640  1.5814 -1.7944  0.2684
 2089SOL    HW214928   2.758   5.572   0.479 -0.8727  1.2419  0.7339
 2090SOL     OW14929   2.683   7.837   2.092 -0.2826 -0.2602 -0.3980
 2090SOL    HW114930   2.591   7.871   2.109  0.1906  1.0291 -0.3234
 2090SOL    HW214931   2.727   7.893   2.021  1.4142  0.9493  1.5174
 2094SOL     OW14932   1.812   7.803   1.535  0.1858  0.6837  0.3511
 2094SOL    HW114933   1.796   7.880   1.597 -3.1916 -0.9651  1.6322
 2094SOL    HW214934   1.730   7.786   1.481  1.5366 -0.8341 -1.2841
 2095SOL     OW14935   2.027   5.892   1.134  0.4901 -0.5047 -0.4685
 2095SOL    HW114936   2.005   5.809   1.186 -0.1530 -0.5828 -0.8546
 2095SOL    HW214937   2.054   5.867   1.041 -0.7870 -0.2260 -0.9239
 2096SOL     OW14938   0.915   3.019   1.420 -0.2362  0.4605  0.3222
 2096SOL    HW114939   0.959   2.993   1.334  0.2903  1.3573  0.3075
 2096SOL    HW214940   0.879   3.112   1.412  0.6125  0.8887  1.3673
 2097SOL     OW14941   1.516   2.448   0.722  0.0937 -0.0454  0.3602
 2097SOL    HW114942   1.565   2.411   0.801  1.5573  1.4187  0.1776
 2097SOL    HW214943   1.569   2.429   0.639 -0.9302 -0.6918 -0.1430
 2099SOL     OW14944   0.602   3.543   0.875  0.1436 -0.1517  0.0347
 2099SOL    HW114945   0.573   3.454   0.912 -0.8567 -0.3928 -1.3110
 2099SOL    HW214946   0.522   3.600   0.861  0.8185  1.1055  1.2078
 2100SOL     OW14947   2.843   7.969   0.912 -0.6961 -0.2319 -0.3102
 2100SOL    HW114948   2.899   8.002   0.836 -0.8608 -0.6111 -0.5962
 2100SOL    HW214949   2.821   8.046   0.972  0.6737 -0.2017  0.1667
 2101SOL     OW14950   5.025   2.999   2.227 -0.1021 -0.1245 -0.6111
 2101SOL    HW114951   5.033   2.918   2.169  3.3678  0.6123 -1.2325
 2101SOL    HW214952   5.032   3.082   2.172  2.6628  0.5878  0.7142
 2102SOL     OW14953   3.706   2.960   2.169  0.9060 -0.5004 -0.3398
 2102SOL    HW114954   3.679   3.057   2.172 -1.1814 -1.0369 -0.7684
 2102SOL    HW214955   3.653   2.909   2.237  0.9752 -1.5612 -1.0774
 2103SOL     OW14956   0.609   5.010   1.159  0.4795  0.1050  0.2331
 2103SOL    HW114957   0.523   5.059   1.172 -0.0820 -1.5333  2.9822
 2103SOL    HW214958   0.653   5.042   1.075 -1.8138  2.3961 -0.1488
 2104SOL     OW14959   4.905   1.755   1.071  0.3024  0.5882  0.4855
 2104SOL    HW114960   4.977   1.773   1.003  0.3844 -0.7219  0.2100
 2104SOL    HW214961   4.817   1.780   1.032  0.2911 -0.6588 -0.3250
 2105SOL     OW14962   2.158   8.737   0.427 -0.1813 -0.1600  0.4847
 2105SOL    HW114963   2.210   8.818   0.400 -1.7404  1.1660  1.3955
 2105SOL    HW214964   2.117   8.752   0.517 -1.4303 -1.5119  0.1536
 2106SOL     OW14965   4.568   2.144   2.009 -0.1281 -0.2405  0.5703
 2106SOL    HW114966   4.605   2.197   2.085 -0.8471 -1.0049  1.4682
 2106SOL    HW214967   4.490   2.192   1.969 -1.8654 -1.4109  2.4933
 2107SOL     OW14968   1.767   7.530   2.237  0.3597 -0.0559  0.2937
 2107SOL    HW114969   1.853   7.515   2.285  0.3122  0.7180  0.6348
 2107SOL    HW214970   1.735   7.623   2.255  0.9818  0.6829 -2.2057
 2108SOL     OW14971   1.348   6.812   0.326  0.2012  1.0480 -0.1054
 2108SOL    HW114972   1.384   6.719   0.323  3.2563  2.1098  0.8441
 2108SOL    HW214973   1.301   6.833   0.240  1.3506 -0.6880 -1.1913
 2109SOL     OW14974   2.947   2.303   2.050  0.7635  0.1020 -0.4507
 2109SOL    HW114975   2.865   2.321   2.105  0.0054  3.2002 -2.5095
 2109SOL    HW214976   3.010   2.379   2.058  1.5360 -0.3227 -2.2916
 2111SOL     OW14977   4.042   4.331   0.312  0.1908  0.4873 -0.3814
 2111SOL    HW114978   4.101   4.319   0.232  1.4383 -0.5538  0.6756
 2111SOL    HW214979   4.040   4.428   0.338  2.9785  0.3031  0.7021
 2112SOL     OW14980   4.222   0.871   0.710  0.1538  0.1149 -0.4211
 2112SOL    HW114981   4.154   0.863   0.783  0.8009  0.9644  0.2829
 2112SOL    HW214982   4.250   0.966   0.701  3.6435 -0.6551  1.4841
 2113SOL     OW14983   1.350   2.599   2.085  0.2533 -0.0870  0.3390
 2113SOL    HW114984   1.268   2.615   2.030  0.2530 -1.7824 -0.1799
 2113SOL    HW214985   1.431   2.617   2.031  0.2422  0.9034  0.6377
 2114SOL     OW14986   1.511   3.201   0.876 -0.3840  0.5328  0.1449
 2114SOL    HW114987   1.441   3.232   0.940 -0.7178 -0.0724  0.0703
 2114SOL    HW214988   1.474   3.206   0.783  0.7676  3.3629 -0.2142
 2115SOL     OW14989   0.851   5.301   0.769  0.0846  0.1488 -0.7517
 2115SOL    HW114990   0.768   5.247   0.754  0.2443 -0.5857  0.8863
 2115SOL    HW214991   0.916   5.283   0.696 -0.0164 -1.6135 -0.4278
 2116SOL     OW14992   3.420   2.118   1.390 -0.4253 -0.5392  0.1661
 2116SOL    HW114993   3.421   2.018   1.390 -0.2188 -0.5367 -0.5567
 2116SOL    HW214994   3.480   2.151   1.463 -0.8144 -0.9417  0.6757
 2117SOL     OW14995   1.073   4.418   1.265  0.3199 -0.2178 -0.2179
 2117SOL    HW114996   1.138   4.492   1.283 -0.7711  0.8823 -0.7442
 2117SOL    HW214997   1.044   4.421   1.170 -0.4621 -0.7201 -0.0013
 2118SOL     OW14998   1.831   4.414   1.118 -0.1401 -0.2371  0.6526
 2118SOL    HW114999   1.741   4.447   1.090  0.5935 -0.8413 -2.5865
 2118SOL    HW215000   1.826   4.317   1.139 -0.0272 -0.5565 -0.7346
 2119SOL     OW15001   2.660   0.928   0.610  0.1362 -0.0254 -0.0487
 2119SOL    HW115002   2.756   0.944   0.632 -0.0064  0.8475 -0.0208
 2119SOL    HW215003   2.607   1.011   0.631 -0.2627  0.2773 -2.1128
 2120SOL     OW15004   2.178   7.249   1.732  0.5149  0.5279 -0.5948
 2120SOL    HW115005   2.120   7.315   1.779 -0.2500 -0.4666 -0.1195
 2120SOL    HW215006   2.256   7.225   1.790  0.3347  0.3678 -0.4202
 2121SOL     OW15007   1.340   5.680   2.184 -0.2078 -0.9613 -0.1796
 2121SOL    HW115008   1.244   5.701   2.200 -0.1566 -0.4331 -0.5631
 2121SOL    HW215009   1.395   5.711   2.261 -0.3216 -1.0984 -0.0430
 2122SOL     OW15010   4.334   0.141   1.633 -0.0796 -0.5396 -0.0360
 2122SOL    HW115011   4.380   0.228   1.651 -1.8969  0.2844  0.7916
 2122SOL    HW215012   4.372   0.070   1.692  0.5650 -0.0084  0.1831
 2123SOL     OW15013   2.822  -0.025   0.714 -0.5747 -0.2122 -0.1818
 2123SOL    HW115014   2.790   0.034   0.788 -2.5575 -2.0875  0.5015
 2123SOL    HW215015   2.888   0.025   0.657 -2.1984  2.6485  0.3744
 2124SOL     OW15016   4.187   3.203   1.059 -0.6704 -0.0120  0.0447
 2124SOL    HW115017   4.260   3.222   0.993 -0.1910  0.5648  0.7359
 2124SOL    HW215018   4.187   3.106   1.082 -0.4017 -0.0913 -0.2908
 2126SOL     OW15019   4.248   4.458   1.550 -0.0384  0.2210 -0.1390
 2126SOL    HW115020   4.176   4.446   1.618 -0.1814 -0.4851 -0.4075
 2126SOL    HW215021   4.293   4.370   1.533  0.2416  0.4658 -0.6851
 2127SOL     OW15022   3.272   9.638   0.813  0.3032 -0.9608  0.4280
 2127SOL    HW115023   3.246   9.544   0.835  0.8087 -0.7882  1.7941
 2127SOL    HW215024   3.372   9.647   0.820  0.3192 -0.4808 -0.3424
 2128SOL     OW15025   2.335   3.037   1.990 -0.2215  0.4932  0.1146
 2128SOL    HW115026   2.260   3.038   2.057  0.0137 -0.8110  0.4079
 2128SOL    HW215027   2.319   2.965   1.924  0.9463  0.0031  0.3710
 2129SOL     OW15028   3.713  -0.132   0.669 -0.1851  0.2126  0.2982
 2129SOL    HW115029   3.789  -0.119   0.732 -0.3336 -0.5086  0.6329
 2129SOL    HW215030   3.659  -0.048   0.664  0.4303  0.6134  0.3204
 2130SOL     OW15031   2.552   6.263   0.318  0.1501  0.4334  0.1752
 2130SOL    HW115032   2.458   6.296   0.323  0.1234  0.3595  0.1531
 2130SOL    HW215033   2.612   6.339   0.291  0.0974  0.4811  0.1936
 2131SOL     OW15034   0.951   3.534   1.622  0.5268 -0.5926 -0.2881
 2131SOL    HW115035   1.031   3.509   1.677  0.8442 -1.2357 -1.0314
 2131SOL    HW215036   0.888   3.588   1.678  1.8431  0.6027  0.0758
 2132SOL     OW15037   1.363   7.135   1.427  0.5139  0.2302  0.4868
 2132SOL    HW115038   1.293   7.064   1.429  0.6077  0.1513  0.9993
 2132SOL    HW215039   1.390   7.158   1.521  1.4368 -0.0043  0.2762
 2133SOL     OW15040   1.715   3.449   1.900  0.0131  1.0387  0.9214
 2133SOL    HW115041   1.800   3.416   1.859 -0.1437  0.5029  1.0325
 2133SOL    HW215042   1.737   3.518   1.969  0.3448  1.0810  0.7744
 2134SOL     OW15043   1.753   4.137   1.098 -0.0304 -0.2079  0.2506
 2134SOL    HW115044   1.679   4.107   1.036 -0.2028  0.0247  0.3434
 2134SOL    HW215045   1.811   4.059   1.120  0.4153 -0.1603 -0.7346
 2135SOL     OW15046   4.065   3.313   0.481  0.4398 -0.2570  0.0640
 2135SOL    HW115047   4.134   3.285   0.547  0.4444 -0.8255 -0.1795
 2135SOL    HW215048   3.975   3.313   0.524  0.4813 -0.3496  0.1509
 2136SOL     OW15049   3.180   9.362   0.930 -0.0401 -0.8958 -0.6530
 2136SOL    HW115050   3.172   9.395   1.025  1.1566 -0.2463 -0.7718
 2136SOL    HW215051   3.090   9.330   0.899 -0.8153  0.4133  0.1534
 2137SOL     OW15052   2.993   7.915   1.236  0.2917 -0.4800 -0.4251
 2137SOL    HW115053   2.973   7.820   1.211  0.6035 -0.8247  0.6338
 2137SOL    HW215054   2.916   7.953   1.286 -0.4982  0.3423 -2.2396
 2138SOL     OW15055   3.217   0.371   0.746 -0.5853  0.1185  0.0646
 2138SOL    HW115056   3.193   0.291   0.802 -1.6397 -0.0012 -0.5407
 2138SOL    HW215057   3.264   0.340   0.663  1.4971  0.3339  1.1182
 2139SOL     OW15058   3.317   7.864   0.330  0.0081 -0.0468 -0.3730
 2139SOL    HW115059   3.240   7.850   0.268  0.5221  1.9006 -1.5149
 2139SOL    HW215060   3.289   7.842   0.424 -1.1389 -1.8632 -1.1001
 2140SOL     OW15061   3.879   8.808   2.103 -0.4894 -0.2497  0.1236
 2140SOL    HW115062   3.885   8.735   2.035  0.2572 -0.3406  0.2757
 2140SOL    HW215063   3.950   8.795   2.172 -1.9868 -0.8005  1.5673
 2141SOL     OW15064   3.625   9.464   1.862  0.2220 -0.0506 -0.3984
 2141SOL    HW115065   3.623   9.405   1.781 -2.0491 -0.8529  0.1794
 2141SOL    HW215066   3.645   9.558   1.834  2.2777 -0.7967 -1.5276
 2142SOL     OW15067   2.624   8.310   2.067  0.1513  0.2367 -0.2144
 2142SOL    HW115068   2.583   8.399   2.084  0.0843  0.1704 -0.0218
 2142SOL    HW215069   2.622   8.256   2.151 -1.6350 -0.6875 -0.8086
 2143SOL     OW15070   4.653   4.427   0.480 -0.3932 -0.4096 -0.0836
 2143SOL    HW115071   4.732   4.484   0.462  0.0368 -0.8749  0.3180
 2143SOL    HW215072   4.660   4.342   0.427 -1.0583 -0.0669 -0.7263
 2144SOL     OW15073   2.834   5.088   1.011 -0.0355  0.3497  0.3172
 2144SOL    HW115074   2.840   5.176   0.963  0.7940  0.3758  0.4669
 2144SOL    HW215075   2.848   5.013   0.947  0.2267  0.3554  0.3699
 2145SOL     OW15076   2.401  -0.163   0.691  0.2523 -0.2890  0.3425
 2145SOL    HW115077   2.423  -0.070   0.662 -0.7774  0.4411  1.8378
 2145SOL    HW215078   2.485  -0.216   0.700  1.0910  1.2654  2.0186
 2146SOL     OW15079   2.738   2.150   2.291 -0.2705 -0.2973 -0.3959
 2146SOL    HW115080   2.756   2.110   2.201  1.5565 -0.7096  0.1389
 2146SOL    HW215081   2.819   2.199   2.323 -0.3319 -1.5101  1.7351
 2147SOL     OW15082   9.857   5.367   1.764  0.0864 -0.2051  0.1736
 2147SOL    HW115083   9.881   5.391   1.670  0.3054 -1.8160 -0.2055
 2147SOL    HW215084   9.887   5.440   1.825  0.5580  0.5571 -0.9339
 2148SOL     OW15085   3.138   0.636   1.340 -0.8680  0.3855  0.4224
 2148SOL    HW115086   3.172   0.690   1.262 -1.3249  1.1740  0.7627
 2148SOL    HW215087   3.173   0.676   1.425  0.1218 -0.8278  0.6007
 2149SOL     OW15088   4.088   4.603   0.337  0.2047  0.0311 -0.1429
 2149SOL    HW115089   4.152   4.678   0.351 -0.4559  1.0166 -2.0875
 2149SOL    HW215090   4.000   4.625   0.380  0.4104 -0.2081  0.3982
 2150SOL     OW15091  10.127   5.764   1.411  0.3767 -0.2015  0.3664
 2150SOL    HW115092  10.215   5.809   1.427  0.6505 -0.6859  0.2352
 2150SOL    HW215093  10.115   5.691   1.478  0.2708 -0.4202  0.1093
 2152SOL     OW15094   3.568   0.146   1.121  0.1082  0.3924 -0.0742
 2152SOL    HW115095   3.525   0.183   1.039 -0.4641 -0.2841 -0.0824
 2152SOL    HW215096   3.559   0.047   1.122  1.3925  0.2701  0.0926
 2154SOL     OW15097   3.721   9.001   2.206 -0.5136  0.0424 -0.1843
 2154SOL    HW115098   3.805   8.951   2.185 -0.7428 -0.1099 -0.7724
 2154SOL    HW215099   3.650   8.974   2.141 -0.3039  2.0207 -1.2837
 2156SOL     OW15100   2.830   1.784   0.809  0.0410  0.2887 -0.3779
 2156SOL    HW115101   2.761   1.773   0.737 -1.0600  1.8454  0.4171
 2156SOL    HW215102   2.832   1.879   0.839  3.1146  0.4459 -0.9198
 2157SOL     OW15103   1.705   3.032   0.567 -0.0823 -0.8659 -0.3848
 2157SOL    HW115104   1.643   3.102   0.531  2.0770  1.8768  1.0766
 2157SOL    HW215105   1.652   2.962   0.614 -2.2279  0.4153 -0.8321
 2158SOL     OW15106   4.939   3.356   2.195  0.3909 -0.3817 -0.3883
 2158SOL    HW115107   4.968   3.315   2.108  0.4328 -1.3066  0.0586
 2158SOL    HW215108   4.983   3.308   2.271 -2.0131 -1.5928  0.2966
 2159SOL     OW15109   0.730   4.205   2.010  0.6808  0.2029  0.5606
 2159SOL    HW115110   0.810   4.262   1.987 -0.4529  1.3457 -0.6765
 2159SOL    HW215111   0.648   4.249   1.974 -0.2612 -2.1048 -0.1770
 2160SOL     OW15112   3.504   8.327   0.445 -0.7020 -0.1407 -0.2334
 2160SOL    HW115113   3.423   8.277   0.414 -0.1118 -0.1754 -1.7453
 2160SOL    HW215114   3.585   8.269   0.434 -0.3568  0.1730  0.5694
 2162SOL     OW15115   2.043   7.811   1.129 -0.3309 -0.3939  0.1602
 2162SOL    HW115116   1.954   7.767   1.118 -1.3121  1.8118 -0.9586
 2162SOL    HW215117   2.076   7.795   1.222 -2.1845 -0.7498  0.7872
 2164SOL     OW15118   0.787   6.083   0.959  0.3597  0.8389 -0.3718
 2164SOL    HW115119   0.688   6.089   0.965  0.5084  1.4201  1.9048
 2164SOL    HW215120   0.813   5.994   0.921 -0.9563 -1.2830  3.4342
 2165SOL     OW15121   0.582   6.299   1.624 -0.2936 -0.2831  0.0002
 2165SOL    HW115122   0.628   6.375   1.577  0.0409 -0.1257  0.5766
 2165SOL    HW215123   0.645   6.222   1.630 -0.4780 -0.4471 -0.1744
 2166SOL     OW15124   3.268   7.203   0.320  0.4745 -0.3797 -0.6346
 2166SOL    HW115125   3.250   7.267   0.395 -0.6041 -1.5604  0.1222
 2166SOL    HW215126   3.272   7.254   0.234  0.1897  0.7879  0.0282
 2167SOL     OW15127   2.253   2.630   0.433  0.5490 -0.5631  0.3681
 2167SOL    HW115128   2.341   2.610   0.477  2.2736 -0.4497 -2.8553
 2167SOL    HW215129   2.234   2.560   0.364 -0.6235  0.8357 -0.7532
 2169SOL     OW15130   2.529   2.915   0.486 -0.0732  0.6160  0.6737
 2169SOL    HW115131   2.621   2.952   0.491  0.6334 -1.1196  0.6749
 2169SOL    HW215132   2.494   2.925   0.393  1.5222 -1.9926 -0.2514
 2170SOL     OW15133   1.355   1.939   0.710 -0.1541  0.9349  0.1749
 2170SOL    HW115134   1.262   1.965   0.736 -0.5476 -0.3221  0.0449
 2170SOL    HW215135   1.399   1.892   0.786  0.1392  0.9049 -0.0104
 2172SOL     OW15136   4.303   2.835   1.857  0.2355  0.6011 -0.0662
 2172SOL    HW115137   4.313   2.808   1.953 -0.0047 -1.2220 -0.5251
 2172SOL    HW215138   4.276   2.931   1.852  2.3743  1.3310  1.6236
 2173SOL     OW15139   4.679   1.019   0.683 -0.9708 -0.1578  0.3969
 2173SOL    HW115140   4.609   1.072   0.634  0.1391  1.5778  0.6464
 2173SOL    HW215141   4.705   0.940   0.628 -1.8259  0.1948 -0.5335
 2174SOL     OW15142   2.168   0.319   1.933 -0.3314 -0.6810 -0.3652
 2174SOL    HW115143   2.143   0.257   2.008  1.7792 -1.7766 -0.5302
 2174SOL    HW215144   2.230   0.389   1.967  0.7753 -1.2895 -1.1101
 2175SOL     OW15145   2.693   4.069   1.952 -0.8387  0.0800  0.5347
 2175SOL    HW115146   2.713   3.983   1.905 -0.2028  1.2716 -1.4322
 2175SOL    HW215147   2.750   4.142   1.914 -0.3264  1.0954  3.1768
 2176SOL     OW15148   2.879   7.059   0.378 -0.0048  0.0471 -0.0527
 2176SOL    HW115149   2.865   7.103   0.289  0.1602 -2.0643 -1.1670
 2176SOL    HW215150   2.977   7.041   0.390 -0.0349  0.2797  0.5401
 2177SOL     OW15151   3.131   7.309   1.232 -0.0465  0.2005 -0.8065
 2177SOL    HW115152   3.067   7.344   1.164 -1.0134 -1.4562 -0.7805
 2177SOL    HW215153   3.223   7.306   1.194 -0.5100 -0.3204 -1.8954
 2178SOL     OW15154   3.063   6.566   0.606  1.0191  0.2743 -0.3322
 2178SOL    HW115155   3.146   6.568   0.549  1.6295  1.5885  0.5873
 2178SOL    HW215156   3.056   6.477   0.652  1.2254 -0.3119 -1.4139
 2179SOL     OW15157   3.043   6.801   0.804 -0.1456  0.2274 -0.1361
 2179SOL    HW115158   2.966   6.791   0.867 -0.7859  1.9826 -0.6265
 2179SOL    HW215159   3.060   6.713   0.759 -3.8765  0.5017 -2.2957
 2181SOL     OW15160   4.648   1.522   2.107 -0.2378 -0.5572  0.2542
 2181SOL    HW115161   4.688   1.457   2.171  0.7044  0.9108  1.1903
 2181SOL    HW215162   4.641   1.612   2.151  2.2301  0.9634 -2.2894
 2182SOL     OW15163   4.221   4.181   1.608 -0.0284 -0.0399 -0.3598
 2182SOL    HW115164   4.169   4.122   1.670 -0.5879  0.6408 -0.1785
 2182SOL    HW215165   4.246   4.130   1.526 -0.2748 -0.6082 -0.0832
 2184SOL     OW15166   1.318   2.321   0.383  0.0918  0.1163  0.3438
 2184SOL    HW115167   1.362   2.398   0.429  0.2427  1.2950 -1.7004
 2184SOL    HW215168   1.219   2.333   0.386  0.0905  0.0328  0.6298
 2185SOL     OW15169   2.699   3.956   1.189  0.3914  0.2919 -0.0299
 2185SOL    HW115170   2.713   4.052   1.212  0.9499 -0.0881  1.2541
 2185SOL    HW215171   2.768   3.900   1.235  0.5839 -0.6489 -1.4280
 2187SOL     OW15172   4.679   0.783   0.567 -0.0489  0.0389  0.2185
 2187SOL    HW115173   4.633   0.725   0.499  1.8111 -0.7712 -0.3944
 2187SOL    HW215174   4.701   0.728   0.648  1.2167  0.0108 -0.1340
 2188SOL     OW15175   1.598   5.073   0.319 -0.3614 -0.3972 -0.1618
 2188SOL    HW115176   1.523   5.045   0.377 -0.2986 -0.8164 -0.2818
 2188SOL    HW215177   1.641   5.155   0.357 -1.4258  0.3558 -0.5623
 2189SOL     OW15178   9.535   4.846   0.887  0.0861 -0.2750  0.2133
 2189SOL    HW115179   9.511   4.764   0.940 -0.8305 -1.5815 -2.1242
 2189SOL    HW215180   9.634   4.858   0.886  0.1839 -0.9467  1.1547
 2190SOL     OW15181   3.679   0.997   1.597  0.7879  0.0798  0.7898
 2190SOL    HW115182   3.631   1.064   1.541  1.8547 -0.7039 -1.1107
 2190SOL    HW215183   3.614   0.927   1.627  0.3166  0.1912  0.0409
 2191SOL     OW15184   2.764   0.289   1.574  0.5319 -0.1883  0.1243
 2191SOL    HW115185   2.822   0.365   1.546 -0.1174  0.0905 -0.4654
 2191SOL    HW215186   2.699   0.268   1.501 -0.7941  0.1715  1.1802
 2192SOL     OW15187   1.872   2.145   1.153 -0.1517  0.4184 -0.3786
 2192SOL    HW115188   1.813   2.186   1.222  0.9732  0.1698  0.7498
 2192SOL    HW215189   1.942   2.210   1.126  1.3783 -0.5799  1.1059
 2193SOL     OW15190   0.945   4.820   2.159  0.4053  0.1208  0.4056
 2193SOL    HW115191   0.917   4.916   2.152  0.0784  0.2679  2.9930
 2193SOL    HW215192   0.866   4.765   2.188 -0.0670 -1.3914 -3.4096
 2195SOL     OW15193   1.362   7.415   1.900  0.2862  0.2093  0.2645
 2195SOL    HW115194   1.313   7.495   1.936  2.8348  1.3210  1.3808
 2195SOL    HW215195   1.376   7.349   1.974  1.8328  0.5928  0.3169
 2196SOL     OW15196   2.911   3.056   0.731 -0.7275 -0.1551  0.0539
 2196SOL    HW115197   2.997   3.031   0.688 -0.5482 -0.2498  0.4603
 2196SOL    HW215198   2.925   3.136   0.789 -0.8661 -0.2902  0.2755
 2197SOL     OW15199   4.567   2.786   0.335  0.2724 -0.0212 -0.6240
 2197SOL    HW115200   4.580   2.777   0.434 -0.2178 -0.3802 -0.5873
 2197SOL    HW215201   4.636   2.847   0.298  0.5530 -0.0016 -0.0805
 2198SOL     OW15202   4.554   0.423   1.260 -0.5376  0.7185 -0.1847
 2198SOL    HW115203   4.575   0.429   1.162  0.3532 -2.6339 -0.2472
 2198SOL    HW215204   4.457   0.405   1.273 -0.6485  1.1282 -0.4475
 2199SOL     OW15205   2.272   1.622   2.207  0.0659 -0.0992 -0.0454
 2199SOL    HW115206   2.322   1.555   2.152 -0.0188 -0.8059  0.7326
 2199SOL    HW215207   2.176   1.594   2.215 -0.0559  0.3147 -0.0305
 2201SOL     OW15208   3.531   2.661   1.442  0.2469 -0.0886  0.8864
 2201SOL    HW115209   3.564   2.749   1.477 -0.4566 -0.0812  1.5468
 2201SOL    HW215210   3.575   2.642   1.355 -1.2303  1.9495 -0.3543
 2202SOL     OW15211   3.167   2.948   0.985  0.1544 -0.0787 -0.2832
 2202SOL    HW115212   3.127   2.860   1.011 -0.0123 -0.2085 -0.9785
 2202SOL    HW215213   3.152   2.964   0.887 -0.4175  1.0320 -0.0201
 2204SOL     OW15214   2.492   9.773   0.382 -0.1683 -0.2167  0.3409
 2204SOL    HW115215   2.473   9.783   0.479  1.8343 -1.8690  0.9241
 2204SOL    HW215216   2.406   9.779   0.331 -1.0941  1.9986  2.0610
 2205SOL     OW15217   2.572   2.315   2.056  0.0132 -0.1604 -0.4942
 2205SOL    HW115218   2.605   2.223   2.037 -0.5716  0.2004 -3.4645
 2205SOL    HW215219   2.479   2.311   2.092 -0.4392 -0.6917 -1.7085
 2206SOL     OW15220   3.093   1.174   1.037 -0.6045  0.1152  0.3427
 2206SOL    HW115221   3.135   1.131   1.116 -1.8292 -0.0640  0.9199
 2206SOL    HW215222   3.162   1.223   0.984  0.4846 -1.0626  0.6645
 2207SOL     OW15223   4.056   0.982   0.467 -0.0881 -0.4320 -0.1353
 2207SOL    HW115224   4.041   0.934   0.553  1.7953 -0.7057  0.0775
 2207SOL    HW215225   4.119   0.928   0.410  0.9052  1.0783 -0.5003
 2210SOL     OW15226   1.877   5.307   2.365  0.4285  0.1218 -0.1187
 2210SOL    HW115227   1.870   5.223   2.417 -1.5427  0.7899  0.7194
 2210SOL    HW215228   1.957   5.302   2.305  1.0495 -1.8168  0.8297
 2213SOL     OW15229  10.000   3.581   1.877 -0.3781 -0.1121 -1.0445
 2213SOL    HW115230   9.929   3.514   1.859 -2.0491  1.2893  0.1614
 2213SOL    HW215231  10.014   3.638   1.796 -0.2516 -0.7312 -1.4583
 2214SOL     OW15232   1.260   6.228   1.511  0.2014  0.2986  0.2138
 2214SOL    HW115233   1.311   6.179   1.440  1.8549 -1.2778  2.4210
 2214SOL    HW215234   1.271   6.327   1.497  0.1452  0.0194 -1.9504
 2215SOL     OW15235   9.651   3.643   1.833 -0.2906  0.2095  0.1118
 2215SOL    HW115236   9.627   3.671   1.926  2.6480  1.0379  0.6797
 2215SOL    HW215237   9.689   3.550   1.835 -2.0112 -0.5342 -0.5656
 2216SOL     OW15238   2.105   8.025   1.493 -0.4121  0.0356  0.5648
 2216SOL    HW115239   2.145   8.114   1.517  1.4484 -0.9181  1.0894
 2216SOL    HW215240   2.012   8.019   1.532 -0.6144  1.7890  0.3993
 2217SOL     OW15241   4.895   1.526   1.966  0.5085  0.0407 -0.2180
 2217SOL    HW115242   4.893   1.521   1.866  0.7657 -1.3782 -0.1610
 2217SOL    HW215243   4.804   1.552   2.000  0.3542  0.2690 -0.8006
 2218SOL     OW15244   0.759   6.493   1.510  0.3812 -0.3681  0.8373
 2218SOL    HW115245   0.791   6.489   1.416  0.9915  1.6019  0.9310
 2218SOL    HW215246   0.783   6.582   1.550 -1.7167 -0.3635  2.1838
 2219SOL     OW15247   1.418   6.193   2.206  0.4073 -0.1296 -0.3022
 2219SOL    HW115248   1.402   6.157   2.114  0.2061 -0.2717 -0.2133
 2219SOL    HW215249   1.353   6.150   2.270 -0.6867  1.3370 -0.4158
 2221SOL     OW15250   4.822   1.869   0.515  0.4715 -0.3959 -0.0411
 2221SOL    HW115251   4.874   1.865   0.430 -2.0759 -0.4592 -1.6398
 2221SOL    HW215252   4.745   1.932   0.504 -0.7015 -1.4806  1.7468
 2222SOL     OW15253   4.767   3.056   1.502  0.3644  0.2608  0.2904
 2222SOL    HW115254   4.738   2.983   1.440  1.7320 -0.5146  0.5285
 2222SOL    HW215255   4.783   3.017   1.593  0.4583  0.9862  0.5859
 2224SOL     OW15256   4.090   3.701   1.300  0.7931 -0.4766  0.0075
 2224SOL    HW115257   4.011   3.657   1.259 -0.0963 -0.7540  2.0042
 2224SOL    HW215258   4.083   3.700   1.399  2.2714  1.3792  0.1851
 2225SOL     OW15259   1.432   6.503   1.019 -1.1885 -0.4155 -0.0862
 2225SOL    HW115260   1.423   6.449   0.935  0.0594  0.2362 -0.6502
 2225SOL    HW215261   1.527   6.503   1.048 -1.3903  0.5014  0.5678
 2227SOL     OW15262   0.892   6.170   1.197  0.2898  0.0253 -0.1489
 2227SOL    HW115263   0.836   6.162   1.279  1.7867  0.9371  0.9977
 2227SOL    HW215264   0.838   6.144   1.117 -1.5044  0.0958  1.0019
 2229SOL     OW15265   2.702   0.479   1.213 -0.0241  0.5868  0.0979
 2229SOL    HW115266   2.747   0.565   1.236  1.0979 -0.2405  0.9970
 2229SOL    HW215267   2.624   0.465   1.274 -2.2461  2.5329 -2.1269
 2231SOL     OW15268   0.952   5.812   2.099 -0.1048  0.2956  0.3947
 2231SOL    HW115269   0.953   5.902   2.055 -0.3233  0.2662  0.3319
 2231SOL    HW215270   0.865   5.798   2.145  0.3391  0.5652  1.3290
 2232SOL     OW15271   2.946   2.763   1.968  0.2462 -0.0278  0.2739
 2232SOL    HW115272   2.848   2.771   1.987  0.2895 -0.3037  0.6203
 2232SOL    HW215273   2.969   2.667   1.950  0.2574  0.1904 -0.8922
 2233SOL     OW15274   3.588   9.758   2.198 -0.0642 -0.0170 -0.3461
 2233SOL    HW115275   3.489   9.767   2.192 -0.1828 -0.2138  1.1567
 2233SOL    HW215276   3.631   9.847   2.180 -0.5574  0.2507 -0.2080
 2237SOL     OW15277   3.258   0.627   0.835 -0.1853 -0.5011  0.3099
 2237SOL    HW115278   3.306   0.682   0.767  0.7616  0.9658  2.0877
 2237SOL    HW215279   3.237   0.537   0.798  0.9854  0.0101 -1.6404
 2238SOL     OW15280   1.597   6.955   1.384 -0.0023  0.2444  0.3137
 2238SOL    HW115281   1.520   7.018   1.388  0.0416  0.4035 -1.0973
 2238SOL    HW215282   1.601   6.902   1.469 -1.0326  0.9622  0.8219
 2239SOL     OW15283   3.238   6.169   0.536 -0.6934  0.1068  0.2209
 2239SOL    HW115284   3.277   6.086   0.497 -0.8833 -0.3720  1.0550
 2239SOL    HW215285   3.304   6.244   0.526 -0.3636 -0.2323 -0.1652
 2240SOL     OW15286   1.565   2.189   1.325  0.1274 -0.3914  0.2090
 2240SOL    HW115287   1.530   2.168   1.234 -1.4839 -0.1808  0.7556
 2240SOL    HW215288   1.544   2.284   1.348  0.1187 -0.5712  0.9711
 2241SOL     OW15289   3.005   1.875   1.623 -0.8128  0.1306 -0.4600
 2241SOL    HW115290   3.049   1.804   1.678 -1.0584  0.3524  0.0232
 2241SOL    HW215291   3.058   1.960   1.630 -0.9596  0.2174 -0.4031
 2242SOL     OW15292   3.518   8.084   0.719  0.1840  0.3876 -0.7140
 2242SOL    HW115293   3.501   8.026   0.639  0.1196 -1.3580  0.5494
 2242SOL    HW215294   3.433   8.128   0.747  0.3755  1.7168 -2.1174
 2243SOL     OW15295   2.817   8.070   1.394  0.0220 -0.1509 -0.2422
 2243SOL    HW115296   2.823   8.067   1.493 -2.6639 -1.5834 -0.0576
 2243SOL    HW215297   2.836   8.163   1.361  0.1657  0.5008  1.6586
 2244SOL     OW15298   4.186   4.423   1.867 -0.0601  0.0099 -0.2655
 2244SOL    HW115299   4.275   4.464   1.846 -1.3884  2.2776 -1.6267
 2244SOL    HW215300   4.132   4.487   1.922 -1.1730 -1.0239 -0.1439
 2245SOL     OW15301   3.009   4.463   1.976  0.0072 -0.2265  0.5179
 2245SOL    HW115302   3.105   4.479   1.953  0.1272 -0.8806  0.5570
 2245SOL    HW215303   2.963   4.551   1.990 -0.3640  0.3008 -3.3928
 2246SOL     OW15304   1.024   6.226   0.926 -0.1018  0.4495  0.2745
 2246SOL    HW115305   1.043   6.295   0.997  1.2738 -0.0573  0.4250
 2246SOL    HW215306   0.937   6.181   0.945  0.7786 -0.4587  2.2992
 2247SOL     OW15307   3.963   0.705   2.199 -0.0090  0.7042  0.0793
 2247SOL    HW115308   3.926   0.638   2.263  1.4386  1.7014  2.0027
 2247SOL    HW215309   3.931   0.796   2.223  0.2750  1.0552 -0.8396
 2248SOL     OW15310   2.345   6.712   1.676 -0.9861  0.3616 -0.0457
 2248SOL    HW115311   2.375   6.617   1.663  1.0043  1.0589 -0.7102
 2248SOL    HW215312   2.262   6.728   1.622  0.3660 -0.1820 -2.3755
 2249SOL     OW15313   2.515   1.819   2.254 -0.0704  0.5669  0.4087
 2249SOL    HW115314   2.607   1.826   2.294 -0.0582  0.2645  0.4352
 2249SOL    HW215315   2.488   1.723   2.249 -0.5701  0.6872  0.8116
 2250SOL     OW15316   2.591   0.315   1.959  0.7063 -0.5286 -0.3234
 2250SOL    HW115317   2.688   0.295   1.949  0.7704 -0.2249 -0.2937
 2250SOL    HW215318   2.572   0.343   2.053  0.4608 -1.3182 -0.1303
 2251SOL     OW15319   4.808   3.387   0.741 -0.6275  1.0151 -0.0076
 2251SOL    HW115320   4.796   3.363   0.837 -0.0003  0.2746 -0.1145
 2251SOL    HW215321   4.867   3.467   0.733  1.3528 -0.4024  0.1156
 2252SOL     OW15322   3.542   2.785   0.344 -0.5010 -0.1668  0.3722
 2252SOL    HW115323   3.585   2.725   0.277 -1.5116  1.1412 -1.4895
 2252SOL    HW215324   3.602   2.796   0.423  0.9370 -1.3192 -0.5448
 2253SOL     OW15325   3.336   4.630   1.599  0.5829  0.1659  0.3003
 2253SOL    HW115326   3.254   4.686   1.608  0.0584 -0.6886  0.9369
 2253SOL    HW215327   3.415   4.688   1.581  0.4264  1.3066  3.1161
 2254SOL     OW15328   3.778   4.667   1.442 -0.1087 -0.6954 -0.5316
 2254SOL    HW115329   3.858   4.644   1.387 -0.3785 -1.8345 -0.4464
 2254SOL    HW215330   3.769   4.602   1.517  0.0508  0.6351  0.6529
 2255SOL     OW15331   4.271   3.516   1.848  0.0918  0.4719  0.5066
 2255SOL    HW115332   4.229   3.473   1.768 -0.9633  3.2745 -0.5035
 2255SOL    HW215333   4.364   3.480   1.859  0.2871  0.0731 -2.0398
 2256SOL     OW15334   4.601   3.920   2.178  0.6680 -0.1900 -0.0119
 2256SOL    HW115335   4.534   3.873   2.237  0.3478 -0.7917 -0.8459
 2256SOL    HW215336   4.682   3.942   2.232 -0.8702  2.1105  1.4801
 2257SOL     OW15337   3.502   0.699   1.048  0.3548 -0.3131  0.1866
 2257SOL    HW115338   3.538   0.662   0.963 -0.7522  1.8855 -1.2917
 2257SOL    HW215339   3.460   0.788   1.031 -1.2880 -0.5186  2.7417
 2258SOL     OW15340   1.114   7.106   1.174  0.0829 -0.3208 -0.6371
 2258SOL    HW115341   1.029   7.110   1.122 -0.1827  0.2595 -0.1610
 2258SOL    HW215342   1.148   7.198   1.191 -0.3717 -0.4429  1.0782
 2260SOL     OW15343   1.759   5.036   0.584 -0.6836 -0.6467 -0.0806
 2260SOL    HW115344   1.792   5.021   0.677  2.2306 -1.4000 -1.1784
 2260SOL    HW215345   1.757   4.949   0.534 -0.5169 -0.0157 -1.2192
 2261SOL     OW15346   2.663   5.195   0.641 -0.3501  0.2922 -0.0645
 2261SOL    HW115347   2.748   5.182   0.589 -0.5374  0.6875 -0.4760
 2261SOL    HW215348   2.613   5.109   0.644  0.2849 -0.0598  0.5734
 2262SOL     OW15349   3.435   1.886   2.283 -0.2271 -0.6549 -0.1159
 2262SOL    HW115350   3.379   1.861   2.204 -0.0416  1.0403 -0.8190
 2262SOL    HW215351   3.391   1.960   2.334  0.3093 -0.8089  0.5848
 2263SOL     OW15352   0.486   5.248   2.061 -0.2746 -0.0775  0.7250
 2263SOL    HW115353   0.437   5.306   2.127 -1.3271 -0.7788  0.5750
 2263SOL    HW215354   0.435   5.246   1.975 -0.4446 -1.5367  0.8521
 2264SOL     OW15355   1.996   1.597   2.224  0.1522  0.2765  0.4690
 2264SOL    HW115356   1.973   1.684   2.180  0.2039  0.4532  0.7940
 2264SOL    HW215357   1.956   1.522   2.172 -0.6804  0.5473  0.7154
 2266SOL     OW15358   0.823   5.869   0.760 -0.2990  0.4370  0.1682
 2266SOL    HW115359   0.916   5.833   0.754 -0.6397 -0.1740 -1.6691
 2266SOL    HW215360   0.757   5.794   0.757 -0.9010  0.9666 -0.1743
 2268SOL     OW15361   1.961   2.487   0.362 -0.5556 -0.1946 -0.6183
 2268SOL    HW115362   1.964   2.427   0.282  1.2982  0.3353 -0.9816
 2268SOL    HW215363   1.963   2.582   0.332 -0.3871  0.0120  0.0464
 2270SOL     OW15364   5.367   2.039   0.452  0.0484  0.1138 -0.0198
 2270SOL    HW115365   5.269   2.031   0.432  0.2508 -3.6415  0.0744
 2270SOL    HW215366   5.418   2.038   0.366  0.1499 -1.4956  0.0388
 2271SOL     OW15367   1.961   9.401   1.718 -0.3102 -0.1582 -0.3853
 2271SOL    HW115368   2.040   9.439   1.670  2.3966 -3.2687  1.4050
 2271SOL    HW215369   1.952   9.444   1.808 -1.2392  0.8341 -0.9424
 2275SOL     OW15370   4.303   1.910   1.305  0.2837 -0.2209 -0.3035
 2275SOL    HW115371   4.225   1.960   1.343  0.4550 -0.3368  0.2039
 2275SOL    HW215372   4.308   1.819   1.346  0.2018 -0.5215 -0.9414
 2276SOL     OW15373   3.038   7.201   2.054  0.2460  0.0821 -0.1398
 2276SOL    HW115374   3.071   7.253   1.975  1.4030  0.1878  0.4189
 2276SOL    HW215375   2.973   7.132   2.022 -2.2366  2.5664 -0.7897
 2277SOL     OW15376   1.651   1.590   0.591 -0.8223 -0.1250 -0.0420
 2277SOL    HW115377   1.654   1.617   0.687  0.1426  0.6727 -0.2879
 2277SOL    HW215378   1.584   1.645   0.542  0.0204  0.7512 -0.2143
 2278SOL     OW15379   3.204   6.683   1.685  0.0611  0.1624 -0.3395
 2278SOL    HW115380   3.281   6.747   1.679  0.6355 -0.7022 -2.7653
 2278SOL    HW215381   3.236   6.595   1.720 -0.0919  0.1738 -0.1657
 2279SOL     OW15382   5.109   2.084   0.400 -0.7699  0.2394 -0.3614
 2279SOL    HW115383   5.041   2.020   0.363 -0.5092 -1.4163  1.9275
 2279SOL    HW215384   5.073   2.126   0.483  0.4471  0.4472  0.0577
 2280SOL     OW15385   2.996   4.008   1.176 -0.4004  0.7256  0.0686
 2280SOL    HW115386   3.015   4.021   1.274 -1.6549  1.4737  0.2335
 2280SOL    HW215387   2.941   4.085   1.143 -0.1728  0.3626 -1.1793
 2282SOL     OW15388   1.933   9.398   0.323 -0.0506  0.0226 -0.5386
 2282SOL    HW115389   2.012   9.415   0.383 -0.5541 -1.7557  0.6559
 2282SOL    HW215390   1.894   9.486   0.295  1.3803  0.9105  0.1507
 2283SOL     OW15391   3.745   0.154   0.692  0.3038  0.5211  0.7684
 2283SOL    HW115392   3.716   0.248   0.674  2.5559  1.4873  1.9937
 2283SOL    HW215393   3.739   0.135   0.790  0.8672 -0.2555  0.6632
 2284SOL     OW15394   3.463   0.047   0.402  0.1145  0.0292  0.0275
 2284SOL    HW115395   3.427   0.052   0.309 -0.9234 -1.5679  0.3216
 2284SOL    HW215396   3.563   0.043   0.398  0.1512  1.4016 -0.9396
 2286SOL     OW15397   0.857   4.406   0.724 -0.1329  0.6425 -0.2176
 2286SOL    HW115398   0.786   4.436   0.788 -0.5333 -2.1168  0.7212
 2286SOL    HW215399   0.822   4.407   0.631 -1.2558 -0.2226  0.1910
 2288SOL     OW15400   1.467   4.421   0.489 -0.1789 -0.0366  0.0878
 2288SOL    HW115401   1.416   4.343   0.452 -0.3528 -0.7789  1.7908
 2288SOL    HW215402   1.563   4.414   0.463  0.0413 -1.5005  1.2109
 2289SOL     OW15403   2.619   0.573   1.789  0.4654  0.7081 -0.0018
 2289SOL    HW115404   2.526   0.590   1.821  1.2441  1.7776  1.7825
 2289SOL    HW215405   2.667   0.518   1.857  1.5112  1.1950 -0.3456
 2290SOL     OW15406   1.788   4.743   0.356 -0.0319  0.1349  0.7461
 2290SOL    HW115407   1.861   4.805   0.381 -0.8276  0.4624  2.3564
 2290SOL    HW215408   1.717   4.745   0.427 -1.9698  0.4137 -1.1430
 2291SOL     OW15409   0.787   4.872   1.867 -0.4748  0.2798  0.4457
 2291SOL    HW115410   0.722   4.883   1.792 -0.0790  0.6930  0.1655
 2291SOL    HW215411   0.740   4.830   1.945 -0.4908 -1.6985 -0.5996
 2292SOL     OW15412   3.131   1.979   1.188  0.2694  0.6831 -0.7776
 2292SOL    HW115413   3.185   2.051   1.144 -1.3316  1.7242 -1.0971
 2292SOL    HW215414   3.036   1.985   1.156  0.2711 -2.0465 -1.3563
 2293SOL     OW15415   4.259   0.516   1.666 -0.2917  0.3921  0.4118
 2293SOL    HW115416   4.262   0.615   1.650 -1.7291  0.1968 -1.3618
 2293SOL    HW215417   4.343   0.474   1.632 -0.0382  0.9194  0.3826
 2294SOL     OW15418   1.610   4.793   0.561  0.1715 -1.0838 -0.3483
 2294SOL    HW115419   1.533   4.848   0.527 -0.8814 -1.5184  1.3152
 2294SOL    HW215420   1.591   4.763   0.654  2.9804 -0.0174  0.6221
 2295SOL     OW15421  10.198   4.780   0.732 -0.3762 -0.6863 -0.0392
 2295SOL    HW115422  10.184   4.811   0.826  0.5587 -1.7684  0.4679
 2295SOL    HW215423  10.131   4.708   0.710 -1.1736  0.1965 -0.5029
 2296SOL     OW15424   1.998   9.459   1.984 -0.0156  0.2048  0.0937
 2296SOL    HW115425   2.004   9.366   2.019 -0.9012  1.2769  3.2425
 2296SOL    HW215426   2.066   9.517   2.029  0.5982  1.0990 -1.9042
 2297SOL     OW15427   3.746   2.856   0.568  0.3132 -0.1292  0.2249
 2297SOL    HW115428   3.684   2.861   0.646 -0.0418  0.3110 -0.0876
 2297SOL    HW215429   3.765   2.948   0.534 -0.2751 -0.3838 -0.8062
 2298SOL     OW15430   2.173   6.217   1.056 -0.6598  0.3641  0.0370
 2298SOL    HW115431   2.217   6.154   0.991 -0.2614 -0.5844  1.2236
 2298SOL    HW215432   2.173   6.309   1.017  2.6264  0.4479  0.0963
 2299SOL     OW15433   9.675   4.930   2.017 -0.1325 -0.2259  0.4148
 2299SOL    HW115434   9.687   4.923   2.116 -2.8161 -0.6443  0.7407
 2299SOL    HW215435   9.672   5.026   1.991  2.3784 -0.1040  0.4773
 2300SOL     OW15436   2.495   7.967   0.590  0.2935  0.3137  0.0250
 2300SOL    HW115437   2.452   8.027   0.657 -2.6735  0.5547 -1.9743
 2300SOL    HW215438   2.466   7.872   0.607 -1.6382  0.5575 -1.7084
 2301SOL     OW15439   9.475   4.129   1.000  0.6443 -0.2371  0.0541
 2301SOL    HW115440   9.520   4.047   0.965 -0.5989  0.1020 -2.4565
 2301SOL    HW215441   9.392   4.103   1.049  0.3647 -0.5053 -0.5520
 2302SOL     OW15442   2.672   7.040   1.496  0.5027  0.0779 -0.0830
 2302SOL    HW115443   2.611   7.000   1.564 -1.0561  0.7331 -1.0653
 2302SOL    HW215444   2.664   7.140   1.499 -0.6771  0.0653 -2.2098
 2303SOL     OW15445   2.376   1.459   0.314 -0.1915  0.1647 -0.2625
 2303SOL    HW115446   2.340   1.552   0.306  0.4992  0.2908 -2.0031
 2303SOL    HW215447   2.471   1.456   0.283 -0.1835 -1.1043 -0.1630
 2304SOL     OW15448   3.557   3.205   1.908 -0.2422  0.2233 -0.1020
 2304SOL    HW115449   3.613   3.274   1.863 -2.2731  0.7568 -1.8854
 2304SOL    HW215450   3.526   3.138   1.840 -0.5026 -0.9523  1.1389
 2307SOL     OW15451   2.306   6.880   2.180 -0.3266 -0.0866 -0.1474
 2307SOL    HW115452   2.346   6.788   2.177 -0.9064 -0.3710  0.5583
 2307SOL    HW215453   2.359   6.937   2.243 -0.0810  0.0043 -0.4378
 2308SOL     OW15454   2.912   7.582   2.356 -0.0046  0.1289  0.3524
 2308SOL    HW115455   2.913   7.591   2.257  2.7860 -2.2584  0.1011
 2308SOL    HW215456   2.822   7.550   2.386 -0.8110  0.7062 -1.4018
 2309SOL     OW15457   2.325   7.564   1.464 -0.3296 -0.3201 -0.7133
 2309SOL    HW115458   2.365   7.509   1.391 -0.9364 -1.9608  0.1442
 2309SOL    HW215459   2.250   7.513   1.506  0.0710  0.5321  1.1126
 2310SOL     OW15460   1.236   6.013   1.003  0.0789  0.2973 -0.0620
 2310SOL    HW115461   1.163   6.059   0.953 -0.1599 -1.2101 -1.1604
 2310SOL    HW215462   1.199   5.978   1.089 -0.0791  0.9956  0.1516
 2311SOL     OW15463   4.423   3.228   0.893  0.2108  0.1405  0.1830
 2311SOL    HW115464   4.450   3.320   0.865  0.5300 -0.1023 -0.3082
 2311SOL    HW215465   4.504   3.175   0.916 -0.0327  0.2613  1.3383
 2312SOL     OW15466   2.436   0.721   1.274 -0.3932 -0.1231 -0.1235
 2312SOL    HW115467   2.517   0.775   1.293 -1.5631  1.6521 -0.0657
 2312SOL    HW215468   2.429   0.646   1.340  0.3906  0.6064  0.7963
 2313SOL     OW15469   3.093   1.801   0.678 -0.3373  0.4818 -0.4373
 2313SOL    HW115470   3.089   1.761   0.586  0.0109 -1.2070  0.2746
 2313SOL    HW215471   3.001   1.832   0.704 -0.6202  0.1052 -0.9678
 2314SOL     OW15472   4.988   1.217   1.456  0.2311 -0.1537  0.1178
 2314SOL    HW115473   5.014   1.179   1.368  1.0333  1.5295 -0.3909
 2314SOL    HW215474   4.935   1.149   1.507 -0.9576 -0.8559 -1.9889
 2315SOL     OW15475   1.939   8.589   0.353  0.6603 -0.9063 -0.0487
 2315SOL    HW115476   1.933   8.607   0.255 -0.4626 -0.0902  0.1611
 2315SOL    HW215477   2.024   8.628   0.389 -0.1190  1.0195 -0.2433
 2317SOL     OW15478   1.542   2.824   1.160  0.0696  0.2587  0.2514
 2317SOL    HW115479   1.574   2.874   1.080  0.9928  0.0731  0.4964
 2317SOL    HW215480   1.457   2.776   1.138  1.6305 -1.8591 -1.4083
 2318SOL     OW15481   3.319   3.157   2.067  0.1027 -0.3065 -0.0402
 2318SOL    HW115482   3.389   3.191   2.004 -0.4546  1.0738  0.0661
 2318SOL    HW215483   3.315   3.058   2.061 -0.4880 -0.1539 -2.7730
 2320SOL     OW15484   4.637   3.028   0.967  0.0054  0.0388 -0.6853
 2320SOL    HW115485   4.704   3.026   0.894  0.2759  1.4255 -0.5022
 2320SOL    HW215486   4.672   3.083   1.043 -0.6668 -0.5761  0.0810
 2321SOL     OW15487   3.867   3.752   1.012 -0.0576  0.5290  0.0728
 2321SOL    HW115488   3.817   3.753   0.926  1.0274  0.2255 -0.5752
 2321SOL    HW215489   3.888   3.846   1.040  0.2267  0.5965 -0.3715
 2322SOL     OW15490   1.073   5.783   0.767 -0.2648 -0.3302  0.2099
 2322SOL    HW115491   1.046   5.699   0.720  0.4602 -1.0543  1.0650
 2322SOL    HW215492   1.085   5.856   0.700  1.9379 -1.6590 -0.9327
 2323SOL     OW15493   4.256   2.270   0.941  0.2195 -0.4749 -0.4841
 2323SOL    HW115494   4.223   2.257   0.847  1.3242 -1.7052 -0.7153
 2323SOL    HW215495   4.247   2.184   0.991  1.4620 -0.3590 -0.0458
 2324SOL     OW15496   9.955   4.632   1.104 -0.0466 -0.4503 -0.0771
 2324SOL    HW115497   9.879   4.629   1.039  0.8039 -0.3688 -1.1043
 2324SOL    HW215498   9.957   4.721   1.148  1.3409  0.7273 -2.4079
 2326SOL     OW15499   2.601   1.651   0.926  0.2151  0.3461 -0.2422
 2326SOL    HW115500   2.696   1.656   0.894 -0.0788 -0.5310 -1.2614
 2326SOL    HW215501   2.549   1.589   0.867 -1.1075  1.1808  0.0402
 2327SOL     OW15502   3.224   0.076   2.312  0.3485 -0.2034  0.0414
 2327SOL    HW115503   3.207   0.148   2.245  0.0046 -0.5386 -0.2313
 2327SOL    HW215504   3.182   0.101   2.399  1.2962  0.5067  0.3054
 2328SOL     OW15505   0.764   4.906   1.364 -0.2264  0.7118 -0.5511
 2328SOL    HW115506   0.733   4.969   1.292 -1.4045 -0.0471 -0.7289
 2328SOL    HW215507   0.854   4.870   1.341 -0.3842  0.8481 -1.3985
 2329SOL     OW15508   1.678   1.505   2.187 -0.1755 -0.0076 -0.3349
 2329SOL    HW115509   1.754   1.440   2.176  0.9194  0.8574  1.7158
 2329SOL    HW215510   1.630   1.485   2.273 -1.0600  0.6784 -0.6649
 2330SOL     OW15511   2.758   3.281   1.641  0.1411 -0.6320  0.1526
 2330SOL    HW115512   2.688   3.338   1.684 -2.2966 -0.8895 -3.2843
 2330SOL    HW215513   2.752   3.188   1.678 -1.0525 -0.5308  0.2264
 2331SOL     OW15514   1.616   7.482   0.751 -0.4590 -0.0960  0.2434
 2331SOL    HW115515   1.710   7.471   0.781  0.1284  0.0242 -1.5193
 2331SOL    HW215516   1.554   7.443   0.820  0.9292 -1.4302  0.7550
 2332SOL     OW15517   4.965   2.910   0.527  0.1700 -0.0691  0.1023
 2332SOL    HW115518   4.932   2.816   0.526  0.3870 -0.1479  0.3173
 2332SOL    HW215519   5.044   2.917   0.589 -0.2522  0.3869  0.5951
 2333SOL     OW15520   3.819   1.881   0.714  0.1054  0.3591 -0.6129
 2333SOL    HW115521   3.854   1.787   0.707 -1.2318 -0.0439 -2.2220
 2333SOL    HW215522   3.895   1.945   0.722  0.9961 -1.0424  3.3688
 2334SOL     OW15523   2.140   1.973   1.596  0.3054 -0.1129  0.2990
 2334SOL    HW115524   2.101   2.040   1.533  1.2770 -1.1296 -1.3982
 2334SOL    HW215525   2.165   2.020   1.681 -2.4185  0.9760  0.5632
 2335SOL     OW15526   1.914   2.809   1.868  0.8218  0.3411  0.1283
 2335SOL    HW115527   1.938   2.724   1.915 -4.0135 -0.5248  1.3238
 2335SOL    HW215528   1.939   2.887   1.926 -1.6843 -0.5952  2.5412
 2337SOL     OW15529   2.796   7.196   0.610  0.1750 -0.0313 -0.0543
 2337SOL    HW115530   2.788   7.129   0.684  2.3802  0.0110  0.2527
 2337SOL    HW215531   2.801   7.148   0.523 -0.0692 -0.1928  0.0215
 2338SOL     OW15532   2.062   5.295   1.945  0.1521  0.1285 -0.0347
 2338SOL    HW115533   1.964   5.279   1.957  0.4450 -0.5952  1.5822
 2338SOL    HW215534   2.104   5.215   1.900  0.1075  0.1712 -0.1526
 2339SOL     OW15535   0.530   3.994   1.902  0.2393 -0.2099  0.3040
 2339SOL    HW115536   0.628   3.984   1.884  0.5060  1.5530  0.6907
 2339SOL    HW215537   0.514   4.078   1.954 -1.4281 -0.7577  0.7039
 2340SOL     OW15538   3.241   2.611   1.734  0.4864  0.0565 -0.0209
 2340SOL    HW115539   3.235   2.705   1.767 -0.2334  0.0012  0.0229
 2340SOL    HW215540   3.335   2.579   1.741  0.7311  0.7664 -0.0177
 2341SOL     OW15541   1.541   3.209   0.428  0.3935 -0.1431 -0.3361
 2341SOL    HW115542   1.547   3.282   0.361 -2.1659 -0.7188 -1.2439
 2341SOL    HW215543   1.515   3.124   0.383  1.5075 -1.2225  0.9823
 2342SOL     OW15544   4.076   3.042   1.455  0.1080  0.8686  0.2349
 2342SOL    HW115545   4.125   3.128   1.444 -0.4927  1.5304  2.4994
 2342SOL    HW215546   4.137   2.974   1.498  0.0685  0.6760 -0.0132
 2343SOL     OW15547   2.396   2.075   1.277 -0.0624  0.3880  0.3364
 2343SOL    HW115548   2.341   2.157   1.289  1.4021  1.5012 -0.4347
 2343SOL    HW215549   2.355   2.018   1.205 -0.6129  0.8528  0.2803
 2344SOL     OW15550   1.157   5.264   1.074 -0.2002  0.5176  0.0046
 2344SOL    HW115551   1.101   5.325   1.018 -0.4512  0.2412 -0.0457
 2344SOL    HW215552   1.098   5.201   1.124  0.0290  0.7101  0.5215
 2345SOL     OW15553   3.826   9.443   2.304 -0.3314 -0.0154 -0.6227
 2345SOL    HW115554   3.804   9.347   2.322 -0.4888  0.4281  1.8248
 2345SOL    HW215555   3.813   9.463   2.207 -1.1290 -2.2487 -1.0086
 2346SOL     OW15556   2.966   4.205   2.099  0.3563 -0.1343 -0.1663
 2346SOL    HW115557   2.999   4.300   2.101 -0.6495  0.2440 -1.1504
 2346SOL    HW215558   3.003   4.159   2.018  0.4654 -0.4455  0.0610
 2349SOL     OW15559   4.568   3.644   0.569 -0.4121 -0.0311 -0.1992
 2349SOL    HW115560   4.656   3.688   0.551  0.0102 -0.7044  0.1990
 2349SOL    HW215561   4.515   3.640   0.484  1.1604 -2.3030 -1.1225
 2350SOL     OW15562   1.860   2.983   1.265 -0.4735 -0.7165  0.2361
 2350SOL    HW115563   1.914   2.903   1.240 -2.3108 -1.8602 -0.2007
 2350SOL    HW215564   1.796   2.958   1.338  0.4500  0.9486  1.6635
 2351SOL     OW15565   1.895   6.130   1.296  0.4890  0.3629 -0.6562
 2351SOL    HW115566   1.954   6.113   1.217  0.5259  0.1978 -0.5939
 2351SOL    HW215567   1.817   6.069   1.294  0.3226  0.5777 -0.7343
 2352SOL     OW15568   3.063   9.684   1.134 -0.2066  0.1730 -0.2708
 2352SOL    HW115569   3.156   9.646   1.133  0.6322  2.0974  1.2270
 2352SOL    HW215570   3.040   9.715   1.226 -2.0273  0.5098 -0.8084
 2354SOL     OW15571   9.743   5.516   1.240  0.0781  0.2322  0.0224
 2354SOL    HW115572   9.688   5.579   1.294  0.8404  1.3320 -0.4766
 2354SOL    HW215573   9.686   5.472   1.170 -0.7830 -0.7576  1.3148
 2355SOL     OW15574   1.718   9.573   1.409  0.2386  0.3591  0.2150
 2355SOL    HW115575   1.683   9.530   1.326 -0.6679  0.4526  0.5471
 2355SOL    HW215576   1.743   9.503   1.475  0.8708  0.2865 -0.0932
 2356SOL     OW15577   3.245   5.820   0.966  0.4322 -0.0853 -0.1048
 2356SOL    HW115578   3.298   5.892   1.010 -0.5131  0.1018  0.7651
 2356SOL    HW215579   3.160   5.806   1.017 -1.0584  0.6664 -2.2910
 2357SOL     OW15580   1.543   5.442   0.663  0.3469 -0.0533  0.2869
 2357SOL    HW115581   1.582   5.534   0.660 -1.8905  0.9258  0.1585
 2357SOL    HW215582   1.443   5.448   0.652 -0.2293 -2.1944  3.5794
 2358SOL     OW15583   2.179   3.465   0.437 -0.1223 -0.4581 -0.7630
 2358SOL    HW115584   2.089   3.506   0.419 -0.0230 -0.8734 -2.3382
 2358SOL    HW215585   2.172   3.402   0.514 -1.0341 -0.0028 -0.4592
 2361SOL     OW15586   2.711  -0.142   1.083 -0.7984  0.4495 -0.0267
 2361SOL    HW115587   2.737  -0.117   1.177  0.4651  1.4124 -0.6146
 2361SOL    HW215588   2.632  -0.203   1.086  0.6116 -1.3735  1.7730
 2362SOL     OW15589   2.035   3.057   2.063  0.0382  0.3910  0.1320
 2362SOL    HW115590   1.968   3.031   2.133  1.4600  0.1410  1.4200
 2362SOL    HW215591   2.063   3.152   2.078  2.3644 -0.4823  1.5952
 2363SOL     OW15592   2.550   7.315   1.521  0.2126 -0.0039  0.4015
 2363SOL    HW115593   2.491   7.321   1.440 -0.4290  0.8440  0.9323
 2363SOL    HW215594   2.624   7.381   1.513 -0.4356  0.7987  0.9814
 2364SOL     OW15595   2.028   5.963   0.852 -0.1573 -0.2387  0.6730
 2364SOL    HW115596   1.997   6.057   0.871  0.4380  0.1544 -0.2869
 2364SOL    HW215597   2.125   5.955   0.871  0.3947  0.0900 -1.9140
 2366SOL     OW15598   0.677   4.485   0.911 -0.0088 -0.0209  0.1603
 2366SOL    HW115599   0.643   4.497   1.004 -1.9887  1.4470 -0.7318
 2366SOL    HW215600   0.671   4.572   0.861  1.2750 -0.7203 -1.2718
 2367SOL     OW15601   3.956   4.015   1.035  0.0504  0.1814 -0.1947
 2367SOL    HW115602   4.048   4.053   1.048  0.3739 -0.4317 -0.6635
 2367SOL    HW215603   3.913   4.060   0.957  0.9876 -1.4161 -1.6538
 2368SOL     OW15604   2.129   7.071   2.125  0.0951  0.2063 -0.6988
 2368SOL    HW115605   2.105   7.076   2.222  0.6077 -1.2880 -0.4699
 2368SOL    HW215606   2.198   6.999   2.112 -0.6293 -0.2307 -2.2839
 2369SOL     OW15607   2.339   7.227   1.023 -0.4845 -0.1466 -0.0176
 2369SOL    HW115608   2.280   7.153   1.055  0.4520 -0.1143  1.8749
 2369SOL    HW215609   2.407   7.190   0.959 -0.4359 -0.8246  0.4166
 2370SOL     OW15610   3.568   8.500   0.648 -0.2283 -0.4410  0.4986
 2370SOL    HW115611   3.585   8.443   0.728 -1.1117 -1.3358  0.0677
 2370SOL    HW215612   3.559   8.442   0.567 -0.0571  0.3992 -0.1367
 2371SOL     OW15613   3.266   3.508   2.111 -0.4182  0.2882 -0.4927
 2371SOL    HW115614   3.167   3.516   2.116 -0.4405 -0.4109  0.4775
 2371SOL    HW215615   3.307   3.599   2.117 -0.9953  0.5804 -0.9242
 2372SOL     OW15616   2.210   3.227   1.804 -0.2568 -0.5290 -0.7452
 2372SOL    HW115617   2.264   3.153   1.844 -1.4538 -0.0346  1.8651
 2372SOL    HW215618   2.236   3.314   1.846 -1.1045  0.0964 -1.4880
 2373SOL     OW15619   5.187   3.441   1.211  0.4603  0.2243  0.1269
 2373SOL    HW115620   5.212   3.377   1.283 -0.8098  0.5944  0.9150
 2373SOL    HW215621   5.264   3.501   1.191  0.7274  0.3033  1.3793
 2374SOL     OW15622   2.184   8.939   1.010 -0.2538 -0.6360 -0.5389
 2374SOL    HW115623   2.107   8.955   0.948 -1.3367 -0.9177  0.6859
 2374SOL    HW215624   2.226   8.851   0.989 -0.5522 -0.6870 -0.9365
 2375SOL     OW15625   3.085   1.745   2.284 -0.0055  0.3210 -0.0689
 2375SOL    HW115626   3.056   1.651   2.301 -2.5587  0.7259 -1.9348
 2375SOL    HW215627   3.120   1.785   2.369 -0.5880 -1.7091  1.1515
 2377SOL     OW15628   0.702   5.142   0.557 -0.0236 -0.0085 -0.1920
 2377SOL    HW115629   0.645   5.178   0.484  0.7888 -0.0991 -0.8800
 2377SOL    HW215630   0.738   5.052   0.531 -0.9970 -0.7509  0.9788
 2379SOL     OW15631   2.523   7.420   1.780  0.1559  0.2511 -0.0358
 2379SOL    HW115632   2.532   7.384   1.687 -0.0012  0.5627 -0.1732
 2379SOL    HW215633   2.426   7.430   1.803  0.1991  0.7875 -0.0805
 2380SOL     OW15634   1.850   6.858   0.852 -0.2352 -0.0868  0.2274
 2380SOL    HW115635   1.856   6.863   0.951  1.9303 -2.5470  0.2751
 2380SOL    HW215636   1.876   6.947   0.812  2.9706 -0.2454  1.7651
 2381SOL     OW15637   3.169   2.350   1.683 -0.2077  0.4076 -0.4381
 2381SOL    HW115638   3.175   2.442   1.721 -1.7739  0.4463 -0.2586
 2381SOL    HW215639   3.204   2.351   1.589  0.6894  0.9732 -0.1080
 2382SOL     OW15640   4.486   1.658   0.706  0.2902  0.5463 -0.2803
 2382SOL    HW115641   4.390   1.640   0.727  0.8728 -1.5028  0.7179
 2382SOL    HW215642   4.526   1.578   0.660  1.4890  1.4294 -0.8078
 2383SOL     OW15643   2.965   3.151   1.126  0.3514 -0.0364  0.2123
 2383SOL    HW115644   3.053   3.123   1.086 -0.4225 -1.0708 -0.8138
 2383SOL    HW215645   2.916   3.209   1.061 -0.7602 -1.4358 -0.2184
 2384SOL     OW15646   5.140   3.960   0.627 -0.3005 -0.1634  0.1445
 2384SOL    HW115647   5.093   4.031   0.679 -1.4788 -0.7012 -0.1535
 2384SOL    HW215648   5.083   3.877   0.626  0.8041 -0.9285  0.0373
 2385SOL     OW15649   2.714   1.654   1.917  0.5899 -0.5343 -0.1841
 2385SOL    HW115650   2.622   1.614   1.924  0.3688  0.0526  0.2800
 2385SOL    HW215651   2.729   1.686   1.823 -0.3859  1.0357  0.1745
 2387SOL     OW15652   1.020   5.823   1.659 -0.4472 -0.6425  0.6220
 2387SOL    HW115653   0.998   5.867   1.572 -1.7140 -0.2917  1.1150
 2387SOL    HW215654   1.116   5.841   1.681 -1.1030  2.5795  1.1656
 2389SOL     OW15655   3.393   0.279   0.553  0.2443  0.6838 -1.0328
 2389SOL    HW115656   3.474   0.338   0.557  0.9170 -0.3142  0.3103
 2389SOL    HW215657   3.412   0.198   0.498  0.5315 -0.0876  0.1768
 2390SOL     OW15658   1.822   4.823   0.789  0.0263  0.5025  0.5198
 2390SOL    HW115659   1.853   4.910   0.828  1.5552  0.0350  0.3537
 2390SOL    HW215660   1.899   4.775   0.749 -0.6093 -1.4317  1.5582
 2391SOL     OW15661   1.124   6.731   1.573 -0.4516 -0.2231  0.5574
 2391SOL    HW115662   1.029   6.760   1.587  0.1685  1.4775  1.5260
 2391SOL    HW215663   1.165   6.785   1.500  0.2646  0.2849  1.3140
 2392SOL     OW15664   2.009   3.038   0.911 -0.4186 -0.2951  0.4731
 2392SOL    HW115665   1.993   3.045   0.813 -3.8591 -0.9748  0.9425
 2392SOL    HW215666   2.053   3.122   0.943 -0.7903  0.6173 -1.3532
 2394SOL     OW15667   2.408   6.610   2.243 -0.3143  0.2444  0.3595
 2394SOL    HW115668   2.442   6.517   2.231  0.9326  0.9184 -1.5330
 2394SOL    HW215669   2.484   6.673   2.255 -1.2076  0.8330  3.5075
 2395SOL     OW15670   3.190   4.744   2.147 -0.0879  0.2475 -0.3720
 2395SOL    HW115671   3.223   4.767   2.055  2.0393  0.5856  0.4633
 2395SOL    HW215672   3.131   4.819   2.180  0.0461  0.6426 -1.0105
 2396SOL     OW15673   2.885   5.102   1.941  0.5219  0.5911  0.4442
 2396SOL    HW115674   2.833   5.056   1.869 -0.0101  1.1420  0.4630
 2396SOL    HW215675   2.821   5.141   2.008  0.8802  2.3588 -0.1974
 2397SOL     OW15676   2.787   2.645   1.480 -0.6115  0.5078  0.8402
 2397SOL    HW115677   2.820   2.670   1.389 -1.2006  0.2372  0.5484
 2397SOL    HW215678   2.776   2.546   1.486 -0.0347  0.4725  1.3913
 2400SOL     OW15679   4.872   0.936   1.055  0.0111 -0.3851 -0.4171
 2400SOL    HW115680   4.964   0.971   1.035  0.4235 -0.2961  1.5138
 2400SOL    HW215681   4.805   0.994   1.010  0.8658  0.2668 -0.8836
 2401SOL     OW15682   2.553   5.084   1.363  0.2256  0.4898 -0.6139
 2401SOL    HW115683   2.561   5.013   1.434 -0.1322 -0.2448 -1.2992
 2401SOL    HW215684   2.589   5.170   1.399 -0.0318  0.1530  0.5007
 2403SOL     OW15685   2.502   4.204   1.348 -0.7137 -0.5456  0.4148
 2403SOL    HW115686   2.408   4.220   1.380 -0.2699  0.1068  1.4114
 2403SOL    HW215687   2.554   4.157   1.419 -0.2578 -0.8454 -0.1135
 2405SOL     OW15688   3.202   2.864   1.869  0.0313  0.2058  0.8605
 2405SOL    HW115689   3.107   2.865   1.840  0.1834 -2.4075  0.1824
 2405SOL    HW215690   3.214   2.799   1.944  1.1823  0.8784  1.2739
 2406SOL     OW15691   1.986   2.556   1.437 -0.5314  0.4166  0.3216
 2406SOL    HW115692   1.943   2.620   1.501 -2.8920  2.2530 -2.9417
 2406SOL    HW215693   1.916   2.498   1.397  0.7299  0.1861 -1.5851
 2407SOL     OW15694   2.279   1.255   1.783  0.1213 -0.0429  0.0185
 2407SOL    HW115695   2.202   1.205   1.822  0.3990 -0.4132  0.0846
 2407SOL    HW215696   2.274   1.250   1.683  0.4841 -0.6995  0.0352
 2408SOL     OW15697   3.899   2.453   0.332 -0.1943  0.6299 -0.3672
 2408SOL    HW115698   3.940   2.416   0.248 -0.5896 -0.1959 -0.1983
 2408SOL    HW215699   3.963   2.441   0.408 -0.3345  0.2916 -0.3071
 2409SOL     OW15700   5.215   2.934   0.648 -0.5433 -0.4361  0.8003
 2409SOL    HW115701   5.288   2.986   0.604 -1.1170  0.0487  0.4192
 2409SOL    HW215702   5.250   2.844   0.675  0.3880  0.0441  1.2400
 2410SOL     OW15703   1.701   1.189   1.467  0.4931 -0.2214  0.4193
 2410SOL    HW115704   1.679   1.286   1.467 -1.7977 -0.7193 -1.0139
 2410SOL    HW215705   1.774   1.171   1.401 -0.5316  0.2066 -0.8310
 2411SOL     OW15706   9.422   4.454   0.707  0.0812 -0.1368 -0.3868
 2411SOL    HW115707   9.486   4.408   0.645  0.6545 -0.3843  0.3706
 2411SOL    HW215708   9.382   4.533   0.661  1.6576  0.5823 -0.5833
 2412SOL     OW15709   9.733   5.146   0.659  0.2547  0.1412 -0.6075
 2412SOL    HW115710   9.637   5.129   0.683  0.1375 -0.5181 -1.5462
 2412SOL    HW215711   9.786   5.161   0.743 -1.2441  3.6919 -0.1850
 2413SOL     OW15712   2.928   9.449   0.561 -0.5593 -0.4812 -0.3492
 2413SOL    HW115713   3.028   9.452   0.564 -0.5695 -0.0738 -0.3014
 2413SOL    HW215714   2.894   9.528   0.510 -0.7462 -2.1270 -2.8560
 2414SOL     OW15715   3.296  -0.086   1.181 -0.2196 -0.5681 -0.2190
 2414SOL    HW115716   3.241  -0.114   1.103 -0.7694  0.7005 -0.2882
 2414SOL    HW215717   3.393  -0.095   1.157 -0.3546 -2.9162 -0.0500
 2415SOL     OW15718   0.762   6.521   0.991  0.4743 -0.3055  0.2008
 2415SOL    HW115719   0.860   6.507   0.984  0.3942 -0.1990 -1.2475
 2415SOL    HW215720   0.742   6.619   0.988  0.3285 -0.3199  0.6297
 2416SOL     OW15721   1.776   3.735   1.102 -0.0024 -0.0241 -0.4479
 2416SOL    HW115722   1.761   3.771   1.194  1.9707 -2.0097  0.6911
 2416SOL    HW215723   1.820   3.804   1.045  0.6458  0.5174  0.7140
 2417SOL     OW15724   4.090   1.162   1.223 -0.7584 -0.8025  0.0470
 2417SOL    HW115725   4.158   1.235   1.223 -0.1721 -1.3491 -0.7699
 2417SOL    HW215726   4.042   1.162   1.311 -0.7792  0.5667  0.0511
 2418SOL     OW15727   3.100   8.273   1.275  0.5659 -0.7887 -0.3544
 2418SOL    HW115728   3.077   8.199   1.213  1.5018 -1.1106 -0.3243
 2418SOL    HW215729   3.127   8.236   1.364  2.4910 -0.5046 -0.7955
 2420SOL     OW15730   2.313   0.070   2.215  0.1563  0.0460 -0.4329
 2420SOL    HW115731   2.271  -0.002   2.270 -0.3720 -0.7416 -1.8611
 2420SOL    HW215732   2.242   0.119   2.164  0.8004 -0.3168 -1.7032
 2421SOL     OW15733   1.965   6.414   1.185 -0.0636  0.1472 -0.1187
 2421SOL    HW115734   2.007   6.377   1.101  0.7824  1.1515 -0.1554
 2421SOL    HW215735   1.984   6.352   1.261 -0.5163 -0.5858 -0.5880
 2422SOL     OW15736   2.112   1.028   1.347 -0.3396 -1.0175 -0.6346
 2422SOL    HW115737   2.190   1.084   1.377  0.5895 -2.9858  0.7816
 2422SOL    HW215738   2.040   1.087   1.312  0.7987  1.0245  0.3596
 2423SOL     OW15739   3.263   5.904   2.263 -0.7485 -0.4693 -0.5747
 2423SOL    HW115740   3.176   5.884   2.217 -1.2229 -0.4263  0.2935
 2423SOL    HW215741   3.295   5.823   2.311 -0.6440 -0.2939 -0.3482
 2424SOL     OW15742   1.657   9.525   0.986 -0.2671  1.0257 -0.0911
 2424SOL    HW115743   1.599   9.464   1.040  0.1977  1.6632  1.1463
 2424SOL    HW215744   1.603   9.604   0.956 -0.6920  0.3557 -1.1177
 2426SOL     OW15745   0.573   3.559   1.247 -0.1096 -0.1377  0.5212
 2426SOL    HW115746   0.573   3.566   1.347 -0.2921 -0.6338  0.5580
 2426SOL    HW215747   0.504   3.492   1.219  0.6235 -0.7341  0.1169
 2427SOL     OW15748   0.636   6.124   1.352 -0.0761 -0.0609  0.2604
 2427SOL    HW115749   0.571   6.176   1.408  0.9087  2.4878 -0.9354
 2427SOL    HW215750   0.606   6.124   1.257 -0.3377 -2.1662  0.3162
 2429SOL     OW15751   0.490   5.579   0.491 -0.4797 -0.6718 -0.0466
 2429SOL    HW115752   0.450   5.511   0.553 -0.8684  0.6158  1.1473
 2429SOL    HW215753   0.421   5.649   0.470  0.3987  0.2223  0.0375
 2431SOL     OW15754   2.816   6.344   0.580  0.3923 -0.0432 -0.3265
 2431SOL    HW115755   2.760   6.426   0.594  0.2896 -0.1879  0.1107
 2431SOL    HW215756   2.817   6.289   0.664 -0.5936 -1.1372 -1.0091
 2432SOL     OW15757   1.922   7.114   1.960  0.4357 -0.9001 -0.0127
 2432SOL    HW115758   2.003   7.077   2.005  2.2951  1.5363 -1.2213
 2432SOL    HW215759   1.937   7.211   1.941 -3.0636 -0.2121  0.3804
 2433SOL     OW15760   1.620   2.316   0.929  0.2218  0.3149  0.1259
 2433SOL    HW115761   1.568   2.243   0.974 -1.1183  0.6587 -0.8088
 2433SOL    HW215762   1.704   2.334   0.980 -0.7906  0.0472  1.9331
 2434SOL     OW15763   2.594   1.657   0.340  0.2477  0.0976 -0.2085
 2434SOL    HW115764   2.609   1.752   0.313 -1.5670  0.6810  0.7863
 2434SOL    HW215765   2.633   1.597   0.270  2.0690  1.5370 -0.4950
 2435SOL     OW15766   2.876   6.608   1.246 -0.0997 -0.2592  0.1366
 2435SOL    HW115767   2.940   6.639   1.316 -0.6548  0.5875  0.2820
 2435SOL    HW215768   2.783   6.605   1.284 -0.0322 -2.3913  0.2044
 2436SOL     OW15769   2.625   4.844   2.323 -0.1062  0.2441 -0.2230
 2436SOL    HW115770   2.645   4.801   2.235  1.1556 -2.2347  1.1988
 2436SOL    HW215771   2.526   4.860   2.330 -0.3914 -0.8033 -1.5487
 2437SOL     OW15772   2.243   0.352   1.644 -0.5349  0.3187 -0.2258
 2437SOL    HW115773   2.164   0.324   1.699 -0.5604  0.0764 -0.3861
 2437SOL    HW215774   2.326   0.341   1.698 -0.7438  2.0157  0.4824
 2438SOL     OW15775   5.165   1.892   0.878  0.3710  0.1886  0.8806
 2438SOL    HW115776   5.149   1.796   0.855  2.1748 -0.4061  2.0492
 2438SOL    HW215777   5.242   1.926   0.824  1.1771  0.3334  2.1253
 2439SOL     OW15778   2.566   8.377   1.427 -0.0650 -0.3667  0.1482
 2439SOL    HW115779   2.656   8.381   1.384 -0.7723  0.2531 -1.2820
 2439SOL    HW215780   2.578   8.368   1.526  1.5871  1.7538  0.1880
 2441SOL     OW15781   3.022   1.457   2.319  0.0623  0.5577  0.0439
 2441SOL    HW115782   2.980   1.480   2.231 -1.9295  1.1211  1.1263
 2441SOL    HW215783   3.118   1.432   2.304  0.6391  3.7163 -1.8991
 2442SOL     OW15784   4.720   3.179   1.186 -0.1813 -0.5803 -0.2051
 2442SOL    HW115785   4.744   3.112   1.256  1.6994  1.4073  1.0959
 2442SOL    HW215786   4.691   3.264   1.229 -0.4538  0.1843 -1.8533
 2443SOL     OW15787   1.765   8.539   2.367 -0.0635  0.4249 -0.6038
 2443SOL    HW115788   1.842   8.540   2.430 -0.8355  0.1108  0.3555
 2443SOL    HW215789   1.799   8.533   2.273  1.0505 -0.4217 -0.1534
 2445SOL     OW15790   2.569   2.300   1.336  0.2669  0.0201 -0.8650
 2445SOL    HW115791   2.543   2.394   1.316 -0.2382  0.3788  1.4050
 2445SOL    HW215792   2.491   2.240   1.321 -0.9571  0.6443  2.5029
 2446SOL     OW15793   1.276   5.036   0.705  0.2045 -0.3207 -0.1195
 2446SOL    HW115794   1.191   5.078   0.674 -0.4811 -0.2907  1.7371
 2446SOL    HW215795   1.317   5.093   0.777  1.1138 -1.0171 -0.0787
 2447SOL     OW15796   1.235   3.503   2.077 -0.5608 -0.7835 -0.3847
 2447SOL    HW115797   1.316   3.487   2.134  0.8383  2.2004 -1.4028
 2447SOL    HW215798   1.251   3.466   1.985 -0.3034 -0.1013 -0.6162
 2449SOL     OW15799   4.515   2.333   0.823  0.2037 -0.3292 -0.2279
 2449SOL    HW115800   4.491   2.416   0.772 -1.4821 -0.9095 -0.4340
 2449SOL    HW215801   4.475   2.338   0.915  0.7278 -0.5864  0.0151
 2450SOL     OW15802   2.498   5.737   0.783  0.4010 -0.7053  0.2655
 2450SOL    HW115803   2.485   5.829   0.746 -0.5193 -0.5864  0.8637
 2450SOL    HW215804   2.496   5.741   0.883 -1.5787 -1.6397  0.2816
 2451SOL     OW15805  10.343   5.049   1.469  0.8176 -0.3249 -0.7284
 2451SOL    HW115806  10.404   5.129   1.466 -0.5793  0.7395 -1.4385
 2451SOL    HW215807  10.292   5.043   1.383  1.0384 -2.1127 -0.7501
 2452SOL     OW15808   3.603   2.269   1.222 -0.2097  0.7295  0.1443
 2452SOL    HW115809   3.578   2.261   1.126 -1.3095  0.1261  0.4651
 2452SOL    HW215810   3.542   2.212   1.277  0.4504  1.0121  1.1962
 2453SOL     OW15811   2.808   0.131   2.025 -0.1946 -0.6310  0.0757
 2453SOL    HW115812   2.768   0.201   2.084  0.8450 -1.1818  1.4719
 2453SOL    HW215813   2.770   0.042   2.049  0.2898 -0.8656 -0.0303
 2455SOL     OW15814   9.638   3.496   1.586 -0.2498 -0.3640  0.2072
 2455SOL    HW115815   9.694   3.548   1.522 -0.2473 -0.1648  0.3718
 2455SOL    HW215816   9.650   3.533   1.678  0.0290 -0.8744  0.3812
 2456SOL     OW15817   1.875   1.139   1.265  0.2195  0.0835  0.0307
 2456SOL    HW115818   1.863   1.234   1.236  1.0802  0.1649 -0.0893
 2456SOL    HW215819   1.861   1.078   1.187 -0.5506  0.0962  0.1580
 2457SOL     OW15820   4.962   4.276   0.314  0.0560 -0.1342  0.2713
 2457SOL    HW115821   5.012   4.266   0.400 -0.8744  0.1019  0.8425
 2457SOL    HW215822   4.864   4.271   0.331 -0.1544  0.5197 -0.6926
 2458SOL     OW15823   1.284   6.502   1.526  0.4551  0.2257 -0.3277
 2458SOL    HW115824   1.226   6.581   1.546  0.5391  0.3796 -0.6942
 2458SOL    HW215825   1.378   6.532   1.511  0.2279  0.2275 -1.8708
 2459SOL     OW15826   5.022   3.065   0.976 -0.8380  0.2836  0.1043
 2459SOL    HW115827   5.037   3.110   1.064  0.0737  1.0130 -0.4070
 2459SOL    HW215828   5.006   2.968   0.990  1.3517  0.0191  0.9408
 2460SOL     OW15829   2.227   6.556   2.001  0.1104  0.6559  0.0348
 2460SOL    HW115830   2.176   6.470   1.990  0.9390  0.4358 -2.3439
 2460SOL    HW215831   2.165   6.626   2.036 -1.4127 -0.0844 -1.0924
 2462SOL     OW15832   3.307   9.559   1.165  0.2242  0.2044  0.2144
 2462SOL    HW115833   3.304   9.537   1.263  0.5789  1.9825  0.6569
 2462SOL    HW215834   3.389   9.521   1.125 -0.0620 -0.7774  0.5531
 2463SOL     OW15835   4.125   1.914   0.882 -0.3366 -0.6496 -1.0666
 2463SOL    HW115836   4.185   1.957   0.949 -2.9729 -0.3196  1.1384
 2463SOL    HW215837   4.151   1.818   0.870  1.9962  0.0562 -1.7955
 2465SOL     OW15838   3.164   4.858   1.786  0.1558 -0.5538  0.1653
 2465SOL    HW115839   3.173   4.957   1.772 -0.5437 -0.2858  1.4520
 2465SOL    HW215840   3.254   4.818   1.797  0.4340 -0.0005 -0.0619
 2466SOL     OW15841   4.775   2.586   2.011 -0.5539 -0.1141 -0.4219
 2466SOL    HW115842   4.797   2.583   1.913 -0.9043  0.3128 -0.5197
 2466SOL    HW215843   4.699   2.524   2.030  1.0208 -1.9630  0.0043
 2467SOL     OW15844   4.167   3.968   2.306  0.9532  0.0650  0.1129
 2467SOL    HW115845   4.260   3.933   2.305  1.1660  0.6472 -1.2163
 2467SOL    HW215846   4.139   3.987   2.401  2.3043  0.2500  0.4790
 2468SOL     OW15847   0.625   6.253   0.466 -0.2824  0.0750  0.2546
 2468SOL    HW115848   0.711   6.275   0.512 -0.7979 -1.1959  1.8448
 2468SOL    HW215849   0.644   6.236   0.369  1.1532  0.5036  0.4410
 2469SOL     OW15850   4.738   2.073   1.597 -0.6850 -0.2408  0.0736
 2469SOL    HW115851   4.735   2.028   1.686 -0.9523  0.8175  0.6035
 2469SOL    HW215852   4.806   2.028   1.540  0.3794 -0.1374  1.2433
 2470SOL     OW15853   3.356   9.414   1.911 -0.4275 -0.1887  0.0457
 2470SOL    HW115854   3.348   9.398   2.010 -1.3998 -1.3015 -0.1995
 2470SOL    HW215855   3.449   9.443   1.889 -0.2079  0.0643  1.2942
 2471SOL     OW15856   3.341   4.149   1.087  0.3211  0.6752  0.1007
 2471SOL    HW115857   3.260   4.160   1.143  0.3556 -2.2639  0.8271
 2471SOL    HW215858   3.423   4.153   1.145  0.4560 -0.4934  0.0049
 2472SOL     OW15859   4.408   3.550   2.176 -0.1736 -0.0029 -0.5766
 2472SOL    HW115860   4.381   3.618   2.245  2.1674  2.6215 -2.1380
 2472SOL    HW215861   4.337   3.545   2.105 -0.3210  0.9240 -0.5089
 2473SOL     OW15862   3.182  -0.125   1.432 -0.3190 -0.1074 -0.3031
 2473SOL    HW115863   3.198  -0.122   1.333 -0.5138  1.7700 -0.2861
 2473SOL    HW215864   3.264  -0.158   1.478 -0.6563 -2.2278 -1.1806
 2474SOL     OW15865   2.422   7.209   0.385 -0.7091  0.6184  0.2736
 2474SOL    HW115866   2.490   7.180   0.452 -1.0300  1.9876  1.2275
 2474SOL    HW215867   2.351   7.262   0.432 -2.1420 -0.3316 -0.7940
 2475SOL     OW15868   4.284   2.882   1.514 -0.4948 -0.1351 -0.2696
 2475SOL    HW115869   4.332   2.890   1.426 -2.3586 -1.3956 -1.4409
 2475SOL    HW215870   4.342   2.835   1.580  0.7630  0.4466 -0.9379
 2476SOL     OW15871   1.736   6.624   0.746 -0.5222  0.2278 -0.2202
 2476SOL    HW115872   1.753   6.723   0.754  0.2569  0.1044 -0.3251
 2476SOL    HW215873   1.823   6.575   0.747 -0.9828 -0.5868  1.5584
 2477SOL     OW15874   2.392   0.365   1.079 -0.0051 -0.2535 -0.6424
 2477SOL    HW115875   2.436   0.454   1.086  1.3004 -1.0737  2.4701
 2477SOL    HW215876   2.321   0.356   1.148 -0.4423 -1.4534 -1.2187
 2478SOL     OW15877   1.327   6.931   0.587  0.1883  0.2920  0.0583
 2478SOL    HW115878   1.357   6.884   0.670  2.0038 -0.5952 -1.0708
 2478SOL    HW215879   1.358   6.880   0.507 -1.5244  1.1491 -1.1798
 2479SOL     OW15880   9.758   4.712   2.254 -0.5343 -0.4927 -0.4194
 2479SOL    HW115881   9.757   4.811   2.260 -0.6963 -0.5430  0.4741
 2479SOL    HW215882   9.754   4.673   2.346 -1.8476 -1.3326 -0.8157
 2480SOL     OW15883   3.963  -0.113   0.458  0.2421 -0.2239  0.2884
 2480SOL    HW115884   4.006  -0.175   0.393 -1.7530  0.1007 -1.4242
 2480SOL    HW215885   3.879  -0.154   0.493  0.6830  0.1050  1.7610
 2482SOL     OW15886   9.735   4.986   2.306 -0.1647 -0.0802 -0.2066
 2482SOL    HW115887   9.823   5.033   2.300  0.2512 -0.4922  2.0266
 2482SOL    HW215888   9.664   5.051   2.334  0.0816 -0.3939  1.2019
 2483SOL     OW15889   2.891   2.280   1.737 -0.2263  0.0157 -0.1452
 2483SOL    HW115890   2.878   2.310   1.643  0.4493 -0.1417 -0.2922
 2483SOL    HW215891   2.987   2.287   1.762 -0.2589 -0.7895  0.2386
 2485SOL     OW15892   0.542   4.385   1.885  0.5023 -0.0403  1.1353
 2485SOL    HW115893   0.593   4.422   1.807 -1.6216  0.3483 -0.1257
 2485SOL    HW215894   0.547   4.448   1.962  0.8284  0.6122  0.5770
 2486SOL     OW15895   2.564   6.762   0.910  0.1479 -0.1053 -0.8673
 2486SOL    HW115896   2.465   6.773   0.901 -0.3939 -2.9378  0.9634
 2486SOL    HW215897   2.603   6.843   0.955 -1.5415  0.4137 -0.3146
 2488SOL     OW15898   2.656   9.753   0.631 -0.5865  0.3139 -0.2754
 2488SOL    HW115899   2.715   9.826   0.665 -0.2952  0.2501 -0.6497
 2488SOL    HW215900   2.657   9.676   0.695 -0.9802  0.6775  0.1756
 2489SOL     OW15901   3.378   3.903   1.645 -0.3082 -0.0759  0.2566
 2489SOL    HW115902   3.356   3.826   1.586  0.5535 -0.3042  0.2264
 2489SOL    HW215903   3.307   3.913   1.715 -0.3299 -1.0093  0.3721
 2490SOL     OW15904   4.096   4.632   2.052 -0.2913 -0.1872  0.0809
 2490SOL    HW115905   4.139   4.617   2.141  0.0065  0.6327  0.0815
 2490SOL    HW215906   4.045   4.718   2.054 -0.7665 -0.4567 -0.3615
 2491SOL     OW15907   1.882   3.945   0.969 -0.0721  0.0882  0.1518
 2491SOL    HW115908   1.823   3.914   0.895 -2.1374  0.3452  1.6476
 2491SOL    HW215909   1.977   3.948   0.938 -0.6514 -1.7631 -1.8420
 2492SOL     OW15910   2.090   6.732   1.578  0.0137 -0.8201 -0.1514
 2492SOL    HW115911   2.083   6.737   1.478  1.6763 -1.1026 -0.2892
 2492SOL    HW215912   2.059   6.818   1.617 -0.9584 -0.8180 -0.8855
 2493SOL     OW15913   3.365   0.450   1.086 -0.0756  0.0688  0.0369
 2493SOL    HW115914   3.421   0.390   1.030 -1.1263  0.4319 -1.4441
 2493SOL    HW215915   3.404   0.543   1.085  0.5280 -0.1763  0.8235
 2494SOL     OW15916   0.762   2.778   1.223 -0.0899 -0.2889  0.3283
 2494SOL    HW115917   0.662   2.774   1.220 -0.0759 -1.0441  0.8051
 2494SOL    HW215918   0.791   2.832   1.302 -0.1060 -1.5421  1.2119
 2495SOL     OW15919   2.241   3.874   0.351 -0.4103 -0.6509  0.2264
 2495SOL    HW115920   2.157   3.861   0.404 -0.2256 -0.8027  0.4789
 2495SOL    HW215921   2.307   3.804   0.375 -0.2459 -0.5895 -0.0470
 2497SOL     OW15922   2.735   0.356   0.761 -0.1513  0.5229 -0.5096
 2497SOL    HW115923   2.777   0.305   0.686  0.2553  0.5706 -0.3183
 2497SOL    HW215924   2.678   0.295   0.816  0.7344  0.1616  0.0169
 2498SOL     OW15925   3.800   8.165   1.289  0.0545  1.0310 -0.1074
 2498SOL    HW115926   3.722   8.152   1.350 -0.6305  0.6359 -1.0696
 2498SOL    HW215927   3.851   8.079   1.280 -0.5991  0.7528 -1.1338
 2500SOL     OW15928   1.814   7.509   1.158 -0.6045  0.7791 -0.2963
 2500SOL    HW115929   1.811   7.605   1.133 -2.3979  0.2955 -2.0690
 2500SOL    HW215930   1.839   7.500   1.254  0.7824  2.9398 -0.4292
 2501SOL     OW15931   9.495   5.138   2.323  0.3519  0.3004 -0.4152
 2501SOL    HW115932   9.449   5.140   2.412  0.0567 -1.7179 -0.5016
 2501SOL    HW215933   9.447   5.199   2.260 -0.2867  0.6671  0.4126
 2502SOL     OW15934   2.658   5.459   2.168 -0.3067  0.2597  0.8654
 2502SOL    HW115935   2.739   5.516   2.154 -0.1706  0.2231  1.4573
 2502SOL    HW215936   2.686   5.365   2.189 -0.4857  0.3651  1.5957
 2503SOL     OW15937   4.850   2.576   1.292 -0.0729 -0.0343 -0.6253
 2503SOL    HW115938   4.843   2.517   1.212  1.2619 -1.6644  0.4118
 2503SOL    HW215939   4.759   2.611   1.316 -1.4040 -3.7941  0.2539
 2504SOL     OW15940   2.263   4.614   1.518 -0.0814  0.2947  0.0120
 2504SOL    HW115941   2.339   4.657   1.470  0.2368  1.5643  1.6170
 2504SOL    HW215942   2.177   4.657   1.490  0.0487  0.6602  0.1786
 2505SOL     OW15943   5.067   2.398   1.889 -0.3327 -0.0863 -0.1433
 2505SOL    HW115944   4.991   2.455   1.855  0.1925 -0.7692 -2.5620
 2505SOL    HW215945   5.034   2.305   1.906 -0.4684  0.1161  0.7407
 2506SOL     OW15946   2.306   0.654   1.636 -0.3752  0.1604  0.1538
 2506SOL    HW115947   2.252   0.579   1.676 -1.6347  0.6164 -0.6380
 2506SOL    HW215948   2.320   0.725   1.705 -0.2475 -0.2540  0.5541
 2507SOL     OW15949   3.457   0.905   2.190 -0.2022  0.2300  0.5910
 2507SOL    HW115950   3.419   0.814   2.173  1.4732 -0.6664  1.5107
 2507SOL    HW215951   3.553   0.906   2.161 -0.1379  1.6190  0.8545
 2508SOL     OW15952   9.963   4.880   1.722  0.2770 -0.0418 -0.1461
 2508SOL    HW115953   9.935   4.792   1.682 -0.4403 -0.2413  0.7563
 2508SOL    HW215954  10.053   4.906   1.687  0.7421 -1.4144 -0.0042
 2509SOL     OW15955   2.856   7.639   2.078  0.5488  0.4959 -0.2650
 2509SOL    HW115956   2.808   7.727   2.072  0.7041  0.4974 -1.6091
 2509SOL    HW215957   2.789   7.565   2.078  0.4737  0.5611 -0.5672
 2510SOL     OW15958   1.857   4.109   0.582 -0.2666 -0.3040  0.1703
 2510SOL    HW115959   1.875   4.193   0.634 -0.4920  0.3243 -0.7677
 2510SOL    HW215960   1.824   4.038   0.644  1.3789 -0.1799  1.2309
 2511SOL     OW15961   2.896   6.112   1.241  0.3235 -0.4848 -0.0310
 2511SOL    HW115962   2.984   6.126   1.196  0.9172 -1.2091  0.8865
 2511SOL    HW215963   2.823   6.106   1.172  0.9002  0.7545 -0.7553
 2512SOL     OW15964  10.215   3.465   0.793  0.0466 -0.3417 -0.7480
 2512SOL    HW115965  10.156   3.428   0.721  0.4862 -1.2492 -0.6488
 2512SOL    HW215966  10.194   3.420   0.880  0.1701  0.0750 -0.5013
 2513SOL     OW15967   9.847   5.641   0.637 -0.1331  0.3958 -0.3493
 2513SOL    HW115968   9.939   5.679   0.626  0.5006 -0.3306  2.0246
 2513SOL    HW215969   9.852   5.541   0.638 -1.1728  0.3197 -1.9145
 2514SOL     OW15970   3.600   8.714   0.498 -0.5100 -0.2451  0.5300
 2514SOL    HW115971   3.593   8.632   0.556 -0.1721 -0.2542  0.5636
 2514SOL    HW215972   3.667   8.776   0.538  0.3513 -0.6273 -0.3131
 2516SOL     OW15973   2.965   3.413   2.365 -0.3683  0.4167  0.5227
 2516SOL    HW115974   2.991   3.342   2.300 -0.8230  1.3704 -0.7080
 2516SOL    HW215975   3.018   3.402   2.449 -0.4785 -1.4154  0.3866
 2517SOL     OW15976   3.097   8.101   1.072  0.2026  0.2260 -0.0874
 2517SOL    HW115977   3.071   8.016   1.119  0.1368  0.4999  0.3852
 2517SOL    HW215978   3.155   8.080   0.994  0.9341 -0.1913  0.5592
 2518SOL     OW15979   2.035   7.450   2.345  0.2442 -0.4375  0.2908
 2518SOL    HW115980   2.035   7.362   2.392  2.5962 -1.0051 -0.7077
 2518SOL    HW215981   2.096   7.446   2.265 -1.0236  1.5397 -0.8205
 2519SOL     OW15982   2.211   5.977   0.529  0.4230 -0.4279  0.4103
 2519SOL    HW115983   2.199   5.888   0.572 -3.0705 -0.4817 -0.5241
 2519SOL    HW215984   2.210   5.966   0.429 -2.5777  0.8393  0.2285
 2520SOL     OW15985   1.857   9.418   0.854  0.6292 -0.3958 -0.6662
 2520SOL    HW115986   1.892   9.481   0.785  0.9943  1.9366  1.5690
 2520SOL    HW215987   1.790   9.465   0.912 -0.3740 -2.5685 -0.0062
 2521SOL     OW15988   3.012   2.945   2.192 -0.0480 -0.5353  0.2636
 2521SOL    HW115989   2.942   2.931   2.262 -0.1230 -1.8023 -0.0597
 2521SOL    HW215990   2.987   2.896   2.109  0.7855 -0.2663 -0.1529
 2522SOL     OW15991   3.000   9.187   0.440 -0.0537  0.3839 -0.0117
 2522SOL    HW115992   2.934   9.187   0.515 -0.5795  1.0791 -0.4596
 2522SOL    HW215993   3.075   9.250   0.461  0.1234  0.1072  0.1980
 2523SOL     OW15994   4.127   3.000   0.831  0.6417  0.0465 -0.1193
 2523SOL    HW115995   4.038   3.028   0.868  0.6678 -0.7825  0.5928
 2523SOL    HW215996   4.126   2.902   0.810  0.4446  0.5957 -2.8942
 2524SOL     OW15997   1.702   1.385   1.104 -0.2435  0.0648  0.2284
 2524SOL    HW115998   1.647   1.314   1.149 -0.4972  0.4181  0.4778
 2524SOL    HW215999   1.784   1.403   1.158 -1.2409  1.5022  1.3245
 2525SOL     OW16000   4.250   0.899   2.234 -0.0568  0.0993  0.1986
 2525SOL    HW116001   4.257   0.965   2.159 -0.8642 -0.9749 -0.8380
 2525SOL    HW216002   4.173   0.837   2.216  0.8951 -1.3213  0.9927
 2526SOL     OW16003   4.055   4.188   1.912 -0.1755  0.5245  0.0123
 2526SOL    HW116004   4.110   4.266   1.883 -0.4096  0.7507  0.1717
 2526SOL    HW216005   4.024   4.203   2.006 -0.2883  0.2747  0.0147
 2527SOL     OW16006   3.978   4.498   1.051  0.1134  0.7723  0.1552
 2527SOL    HW116007   4.005   4.410   1.013 -0.9859  0.0618  0.9971
 2527SOL    HW216008   3.887   4.491   1.092  0.9405  1.6938  2.2699
 2528SOL     OW16009   2.271   4.980   1.397 -0.2134  0.0367  0.3078
 2528SOL    HW116010   2.362   4.942   1.416  0.3481  0.7964 -0.8290
 2528SOL    HW216011   2.240   4.949   1.307 -0.6166  0.6632  0.2295
 2529SOL     OW16012   0.636   3.924   1.315  0.6818  0.0084 -0.2110
 2529SOL    HW116013   0.616   3.842   1.368  0.0448 -0.4073 -1.0727
 2529SOL    HW216014   0.734   3.944   1.320  1.0405 -1.4760 -0.9317
 2531SOL     OW16015   1.034   3.755   0.384  0.4079  0.0294 -0.0201
 2531SOL    HW116016   0.996   3.824   0.446 -0.2118 -1.7773  1.6594
 2531SOL    HW216017   0.982   3.756   0.299  1.2360  2.5080 -0.5410
 2532SOL     OW16018   1.546   6.992   0.355 -0.6243  0.2870 -0.5510
 2532SOL    HW116019   1.545   7.054   0.433 -1.5858  2.0667 -1.9458
 2532SOL    HW216020   1.468   6.930   0.361  0.4207 -0.9398  0.9234
 2534SOL     OW16021   4.927   1.180   2.352 -0.2273 -0.6763  0.0876
 2534SOL    HW116022   4.912   1.082   2.360 -0.4183 -0.5128  1.8653
 2534SOL    HW216023   4.899   1.211   2.261  0.7049 -2.4096 -0.8092
 2535SOL     OW16024   4.519   3.468   0.819 -0.5317  0.1845 -0.3788
 2535SOL    HW116025   4.468   3.553   0.836 -0.0782  0.0260  1.9171
 2535SOL    HW216026   4.603   3.489   0.770 -0.8826  0.9479 -0.6632
 2536SOL     OW16027   9.935   3.662   1.143 -0.4695  0.4771  0.1091
 2536SOL    HW116028   9.860   3.676   1.078  0.7251  0.4664 -1.3011
 2536SOL    HW216029  10.013   3.720   1.116  1.0609 -1.6560 -0.1353
 2539SOL     OW16030   1.657   2.978   0.974 -0.1427  0.1793  0.3591
 2539SOL    HW116031   1.755   2.995   0.986 -0.3619 -0.0131  2.6168
 2539SOL    HW216032   1.614   3.060   0.936  1.0191 -0.0543 -1.5468
 2544SOL     OW16033   2.664   7.451   2.034  0.1950 -0.0183 -0.2732
 2544SOL    HW116034   2.598   7.435   1.961  1.0307 -0.9806 -0.8251
 2544SOL    HW216035   2.656   7.381   2.104  0.7884 -0.2770 -0.4585
 2545SOL     OW16036   2.105   7.606   1.700 -0.3755 -0.3678  0.0566
 2545SOL    HW116037   2.112   7.579   1.604 -0.0481 -0.8030  0.2019
 2545SOL    HW216038   2.019   7.574   1.738 -0.8313  0.4299 -0.2883
 2546SOL     OW16039   2.517   0.256   1.697 -0.1512 -0.3818 -0.9069
 2546SOL    HW116040   2.608   0.268   1.657 -0.7419  1.2500 -1.7959
 2546SOL    HW216041   2.520   0.275   1.795  0.5162 -0.6499 -0.8713
 2547SOL     OW16042   2.528   3.487   1.186 -0.1742 -0.3925 -0.1164
 2547SOL    HW116043   2.616   3.482   1.234 -1.7013  0.3865  2.8922
 2547SOL    HW216044   2.475   3.404   1.204  0.2769 -1.2861 -2.7025
 2548SOL     OW16045   2.509   0.326   2.254 -0.6329 -0.4326 -0.0952
 2548SOL    HW116046   2.458   0.396   2.303 -1.0489 -1.3533  0.7949
 2548SOL    HW216047   2.457   0.241   2.252  0.1328 -0.8999 -0.6261
 2549SOL     OW16048   1.832   2.454   1.064 -0.7533  0.0675  0.7148
 2549SOL    HW116049   1.793   2.537   1.104 -0.8106 -0.4145  1.6922
 2549SOL    HW216050   1.902   2.478   0.997 -2.4190  0.9459 -0.7617
 2551SOL     OW16051   4.260   8.843   1.680 -0.4455 -0.2092  0.0673
 2551SOL    HW116052   4.241   8.926   1.628 -2.6941 -0.9329 -0.3298
 2551SOL    HW216053   4.327   8.862   1.751 -1.0755  1.9893  0.0924
 2552SOL     OW16054   0.592   2.728   0.751  0.1578  0.1626  0.0020
 2552SOL    HW116055   0.613   2.816   0.707 -0.4752 -2.0473 -4.9821
 2552SOL    HW216056   0.500   2.699   0.726  0.6635 -2.3479  0.9010
 2553SOL     OW16057   2.483   2.070   2.376 -0.5388  0.3812  0.1481
 2553SOL    HW116058   2.483   1.976   2.342 -2.9023  0.2910  0.2814
 2553SOL    HW216059   2.574   2.110   2.365  0.1330 -1.4506 -1.2103
 2554SOL     OW16060   9.983   5.360   0.984 -0.1939  0.5011  0.4621
 2554SOL    HW116061   9.938   5.443   1.019 -2.3976 -0.2032 -0.6364
 2554SOL    HW216062   9.999   5.370   0.886 -1.3993 -0.7795  0.1293
 2555SOL     OW16063   4.385   8.952   2.366 -0.3590  0.9670 -0.3339
 2555SOL    HW116064   4.291   8.956   2.400 -0.2820 -1.7681  0.3532
 2555SOL    HW216065   4.396   8.870   2.309  2.5132 -0.8035  2.5968
 2556SOL     OW16066   3.954   7.895   0.607  0.3796  0.5693 -0.0677
 2556SOL    HW116067   4.017   7.820   0.630 -1.2242 -0.5512  0.7827
 2556SOL    HW216068   3.953   7.961   0.682  0.9573  0.8779 -0.3289
 2557SOL     OW16069   3.555   7.948   0.441  0.0444 -0.0291 -0.1021
 2557SOL    HW116070   3.624   7.876   0.429 -0.2584 -0.4972  0.9472
 2557SOL    HW216071   3.469   7.918   0.401 -0.2169 -0.4591  0.7755
 2558SOL     OW16072   0.531   3.064   2.262  0.0878 -0.4648 -0.3308
 2558SOL    HW116073   0.594   3.113   2.202  0.2573 -0.2572  0.0105
 2558SOL    HW216074   0.488   3.130   2.325  1.2039 -0.9129  0.9273
 2559SOL     OW16075   2.286   5.641   1.228 -0.1627  0.1956  0.4329
 2559SOL    HW116076   2.202   5.594   1.199 -0.0191  0.2693 -0.1022
 2559SOL    HW216077   2.357   5.574   1.246  0.2110  0.2371 -0.8709
 2561SOL     OW16078   2.018   4.664   0.633  0.9355 -0.3190 -0.4898
 2561SOL    HW116079   2.027   4.745   0.576 -0.1543 -1.0048 -1.6453
 2561SOL    HW216080   2.077   4.592   0.599  0.0442 -0.8374 -0.9582
 2562SOL     OW16081   3.216   2.089   1.769  0.4893 -0.3034  0.2584
 2562SOL    HW116082   3.193   2.175   1.724  0.3101 -0.5577 -0.1411
 2562SOL    HW216083   3.158   2.077   1.850 -0.2848 -0.5947 -0.3320
 2563SOL     OW16084   3.303   1.573   1.927 -0.0474 -0.2078  0.1859
 2563SOL    HW116085   3.347   1.617   2.006 -2.6248  1.3496  0.8266
 2563SOL    HW216086   3.248   1.496   1.958  1.3733 -1.5368 -0.5018
 2564SOL     OW16087   3.834   2.407   1.515  0.0132  0.2747  0.1070
 2564SOL    HW116088   3.876   2.346   1.448  0.2743 -0.2135  0.7107
 2564SOL    HW216089   3.821   2.498   1.474  0.1070 -0.0386 -0.6219
 2565SOL     OW16090   4.210   8.800   0.706  0.2608  0.0048  0.3988
 2565SOL    HW116091   4.198   8.827   0.802 -1.7863  0.7538 -0.0524
 2565SOL    HW216092   4.125   8.758   0.673 -0.4011  3.3082 -2.2561
 2566SOL     OW16093   3.963  -0.108   1.951  0.2588 -0.6291 -0.2778
 2566SOL    HW116094   4.026  -0.043   1.995 -1.1150 -0.2188  1.1275
 2566SOL    HW216095   3.997  -0.201   1.964  0.1897 -0.4725  1.1538
 2567SOL     OW16096   2.505   9.069   1.587 -0.3333  0.3347  0.3182
 2567SOL    HW116097   2.550   8.997   1.535 -1.0745  1.3560 -1.8146
 2567SOL    HW216098   2.424   9.032   1.633 -0.3786 -0.3368 -0.2923
 2568SOL     OW16099   2.154   7.885   1.745 -0.1987  0.2833  0.2615
 2568SOL    HW116100   2.140   7.791   1.713 -0.6175  0.4706 -0.1125
 2568SOL    HW216101   2.170   7.945   1.666 -0.1644  0.5672  0.4837
 2569SOL     OW16102  10.362   5.856   1.200 -0.0628  0.0567 -0.0890
 2569SOL    HW116103  10.395   5.762   1.193  0.9825  0.4450 -0.3647
 2569SOL    HW216104  10.361   5.884   1.296  1.8983  0.5710 -0.2058
 2570SOL     OW16105   2.959   4.699   0.604 -0.3563  0.1318 -0.0770
 2570SOL    HW116106   2.932   4.618   0.655  0.1380 -0.2001 -0.3333
 2570SOL    HW216107   3.044   4.680   0.554 -0.0556  0.9128  0.1253
 2571SOL     OW16108   0.682   6.349   0.815 -0.0229  0.3897 -0.0826
 2571SOL    HW116109   0.602   6.295   0.843 -0.7011  1.1275 -0.5850
 2571SOL    HW216110   0.700   6.420   0.883 -1.0077  1.4857 -0.9503
 2572SOL     OW16111   1.003   4.399   0.983 -0.3925  0.1468 -0.0883
 2572SOL    HW116112   0.960   4.361   0.901 -2.4417 -0.5485  1.2573
 2572SOL    HW216113   0.944   4.471   1.020 -0.5273 -0.9816  1.9348
 2573SOL     OW16114   5.106   3.205   0.699 -0.1509  0.0172 -0.1213
 2573SOL    HW116115   5.173   3.170   0.633  0.0481  0.6374 -0.2481
 2573SOL    HW216116   5.114   3.154   0.785  0.2721 -0.1208 -0.2422
 2574SOL     OW16117   0.518   5.264   1.507  0.6711  0.2414 -0.2837
 2574SOL    HW116118   0.546   5.358   1.489  1.3653  0.0319 -0.2791
 2574SOL    HW216119   0.558   5.232   1.593  0.6293 -0.1452 -0.4069
 2575SOL     OW16120   4.484   3.362   0.501 -0.2713 -0.4226 -0.4104
 2575SOL    HW116121   4.399   3.316   0.528 -0.2225 -0.0378  0.3981
 2575SOL    HW216122   4.500   3.441   0.560  1.0839 -0.9744 -0.0137
 2576SOL     OW16123   1.744   1.575   1.548 -0.2589 -0.3686  0.1631
 2576SOL    HW116124   1.724   1.543   1.641  0.0614  0.6081  0.5777
 2576SOL    HW216125   1.778   1.669   1.552  0.4866 -0.5847 -0.8828
 2578SOL     OW16126   1.702   6.220   1.921  0.4457 -0.1463 -0.3747
 2578SOL    HW116127   1.707   6.165   1.838 -0.1814  0.3793 -0.7675
 2578SOL    HW216128   1.687   6.160   2.000  1.1127 -0.6527 -0.6244
 2579SOL     OW16129   1.034   5.251   1.817 -0.0899  0.1308 -0.2014
 2579SOL    HW116130   1.090   5.333   1.815  0.2337 -0.1148 -1.8935
 2579SOL    HW216131   0.950   5.269   1.869 -0.3146  1.7206 -1.0976
 2580SOL     OW16132   2.950   0.076   1.497  0.1225  0.3149 -0.4282
 2580SOL    HW116133   3.033   0.114   1.456  0.4302  0.6323  0.4679
 2580SOL    HW216134   2.892   0.151   1.529  0.3752  0.0590  0.6561
 2581SOL     OW16135   2.014   6.085   1.811 -0.8883  0.4376 -0.2529
 2581SOL    HW116136   2.062   6.086   1.723  0.1881  1.0606  0.3286
 2581SOL    HW216137   2.012   5.992   1.847  2.2959  0.7776  0.9853
 2582SOL     OW16138   4.869   3.311   1.498 -0.6088  0.4352 -0.1159
 2582SOL    HW116139   4.820   3.363   1.428 -0.5561  1.5789  0.6780
 2582SOL    HW216140   4.841   3.215   1.494 -2.2998  0.9145 -0.1997
 2584SOL     OW16141   9.947   3.203   0.568  0.1201 -0.1336 -0.0215
 2584SOL    HW116142   9.916   3.210   0.663  1.1304 -0.2269  0.3176
 2584SOL    HW216143   9.881   3.249   0.509 -1.0690 -0.9906  0.6037
 2585SOL     OW16144   1.801   4.476   0.636  0.6786 -0.8674 -0.4315
 2585SOL    HW116145   1.780   4.470   0.538 -0.1109  0.5408 -0.3560
 2585SOL    HW216146   1.867   4.550   0.651 -2.1816  1.5881  0.5300
 2586SOL     OW16147   3.573   8.142   1.452  0.1407 -0.2441 -0.2568
 2586SOL    HW116148   3.487   8.091   1.449 -0.0101 -0.0356  0.5055
 2586SOL    HW216149   3.559   8.227   1.502  1.0383 -0.6622  0.7108
 2588SOL     OW16150   4.572   0.791   1.188  0.9208  0.6237  0.4873
 2588SOL    HW116151   4.626   0.721   1.142 -0.3535 -0.7871  1.0702
 2588SOL    HW216152   4.550   0.760   1.281 -0.4727  1.3664  0.4206
 2589SOL     OW16153   1.896   9.331   1.220 -0.3335  0.2637  0.2166
 2589SOL    HW116154   1.880   9.319   1.318 -0.9591  0.4189  0.1324
 2589SOL    HW216155   1.989   9.364   1.206 -0.0727 -0.2268  0.7290
 2590SOL     OW16156   5.210   3.467   2.282  0.0122  0.2208  0.6397
 2590SOL    HW116157   5.230   3.540   2.346  1.7045 -0.0318  0.4185
 2590SOL    HW216158   5.185   3.384   2.332  0.5710  0.2397  0.9476
 2591SOL     OW16159   1.118   5.672   1.020 -0.6086  0.2586 -0.6015
 2591SOL    HW116160   1.086   5.578   1.029 -2.2071  0.7266 -1.2489
 2591SOL    HW216161   1.100   5.704   0.927 -0.6899  1.4357 -0.1896
 2593SOL     OW16162   3.220   6.014   1.194 -0.3890  0.0480  0.4872
 2593SOL    HW116163   3.209   6.109   1.225 -0.2804 -0.0795  0.9119
 2593SOL    HW216164   3.219   5.953   1.273 -0.1019 -0.2738  0.2394
 2595SOL     OW16165   3.378   4.780   1.930  0.0360  0.8539  0.0838
 2595SOL    HW116166   3.385   4.681   1.925 -2.0105  0.6712  0.2961
 2595SOL    HW216167   3.462   4.819   1.968  0.8032 -0.7945  0.0835
 2596SOL     OW16168   4.262   5.177   0.427  0.3937 -0.6916  0.0564
 2596SOL    HW116169   4.172   5.150   0.460  0.7285 -0.7537  0.9310
 2596SOL    HW216170   4.259   5.192   0.328 -0.5293 -0.8654  0.0617
 2597SOL     OW16171   4.081   1.412   0.899  0.4278  0.3523 -0.3192
 2597SOL    HW116172   4.051   1.326   0.857  1.4145  1.7458 -4.0524
 2597SOL    HW216173   4.161   1.395   0.957  1.3264 -1.0830 -1.9430
 2598SOL     OW16174   5.309   3.199   1.873 -0.5704  0.0773  0.2413
 2598SOL    HW116175   5.325   3.231   1.966  0.8457  0.2628 -0.0455
 2598SOL    HW216176   5.323   3.274   1.808  1.6990 -0.8000 -0.3507
 2599SOL     OW16177   1.841   8.882   1.885  0.0323  0.1911 -0.7367
 2599SOL    HW116178   1.927   8.839   1.859  0.4998  1.0171 -0.5813
 2599SOL    HW216179   1.847   8.981   1.868  0.1537  0.6949  1.9441
 2600SOL     OW16180   4.769   3.009   0.736 -0.0437  0.7601  0.4135
 2600SOL    HW116181   4.751   3.087   0.677 -0.0803  1.0149  0.7614
 2600SOL    HW216182   4.867   3.004   0.757  0.1107  0.1261 -0.4253
 2601SOL     OW16183   2.405   6.749   1.948 -0.3959  0.4301  0.0552
 2601SOL    HW116184   2.351   6.672   1.981  1.4496 -1.1179 -0.4199
 2601SOL    HW216185   2.414   6.743   1.848 -1.0935  1.8416 -0.1034
 2603SOL     OW16186   3.253   2.383   2.264 -0.3468 -0.1664  0.1929
 2603SOL    HW116187   3.282   2.309   2.204 -0.6355  1.6290 -2.2310
 2603SOL    HW216188   3.329   2.407   2.325  1.2881  0.4719 -2.0023
 2605SOL     OW16189   4.192   4.724   0.951  0.2721 -0.4240 -0.0451
 2605SOL    HW116190   4.107   4.772   0.974 -0.0855 -0.7240 -0.7352
 2605SOL    HW216191   4.185   4.628   0.981  0.2863 -0.5010 -0.2829
 2606SOL     OW16192   1.599   6.406   0.626  0.3353  0.1992  0.0394
 2606SOL    HW116193   1.631   6.477   0.689 -2.3875  0.3214  1.4051
 2606SOL    HW216194   1.556   6.449   0.547  1.4265  0.0514 -0.6382
 2608SOL     OW16195   9.676   3.873   1.086  0.2159 -0.0218  0.4807
 2608SOL    HW116196   9.661   3.806   1.013 -0.8256  0.0001  0.6710
 2608SOL    HW216197   9.604   3.864   1.155  0.1192  1.2375  0.5486
 2609SOL     OW16198   0.473   4.981   2.145  0.1980 -0.1496  0.4972
 2609SOL    HW116199   0.475   5.081   2.133  0.6800 -0.0508  1.4379
 2609SOL    HW216200   0.522   4.956   2.228 -1.3280 -1.0366  1.1451
 2610SOL     OW16201   1.985   5.038   1.581 -0.3334 -0.3900 -0.1389
 2610SOL    HW116202   2.036   5.085   1.510 -1.9042  1.3520 -0.1643
 2610SOL    HW216203   1.891   5.024   1.551 -0.9968  0.2821  1.5412
 2611SOL     OW16204   3.869   3.574   1.229 -0.0307 -0.6019  0.3752
 2611SOL    HW116205   3.810   3.494   1.225 -0.3801 -0.3920  1.1571
 2611SOL    HW216206   3.855   3.630   1.148 -0.7006 -0.7017  0.4182
 2613SOL     OW16207   9.812   4.907   1.235  0.1795  0.7877  0.7894
 2613SOL    HW116208   9.775   4.837   1.297  1.5315 -1.6707 -1.0796
 2613SOL    HW216209   9.903   4.933   1.266 -0.2815  1.6663  1.4239
 2614SOL     OW16210   2.680   1.724   1.615 -0.2827 -0.2750  0.2215
 2614SOL    HW116211   2.676   1.816   1.576 -0.0907 -0.8406 -1.1897
 2614SOL    HW216212   2.610   1.667   1.572 -0.7699 -0.6445  1.4915
 2615SOL     OW16213   3.705   8.267   0.797  0.0055 -0.2850 -0.2760
 2615SOL    HW116214   3.682   8.261   0.894 -3.2396 -0.0121 -0.9940
 2615SOL    HW216215   3.652   8.199   0.746  0.7839  0.3844 -2.0139
 2618SOL     OW16216   3.809   4.232   0.490 -0.0447  0.0517  0.4247
 2618SOL    HW116217   3.817   4.282   0.576  2.5333  0.2510  0.0962
 2618SOL    HW216218   3.889   4.251   0.433 -1.2915 -0.7772 -1.6589
 2619SOL     OW16219   1.225   6.878   1.366  0.7749  0.0377 -0.3560
 2619SOL    HW116220   1.262   6.867   1.274 -1.5167 -1.6013 -1.1313
 2619SOL    HW216221   1.138   6.928   1.361  2.0545  2.4821  1.2425
 2620SOL     OW16222   2.273   2.997   1.124  0.1830 -0.2809 -0.1983
 2620SOL    HW116223   2.256   3.052   1.042 -1.2379 -0.3652  0.0161
 2620SOL    HW216224   2.240   2.904   1.108 -2.5461  0.3478  1.3398
 2621SOL     OW16225   3.032   3.875   0.478 -0.4596  0.9160 -0.0410
 2621SOL    HW116226   3.058   3.849   0.570  1.3171 -0.2586 -0.8592
 2621SOL    HW216227   3.035   3.795   0.418 -1.4458  1.6914 -1.1585
 2622SOL     OW16228   9.801   3.341   1.387  0.0155 -0.0603  0.1852
 2622SOL    HW116229   9.723   3.279   1.383  0.1684 -0.3347  1.2564
 2622SOL    HW216230   9.834   3.347   1.481  1.8062 -0.5841 -0.3916
 2623SOL     OW16231   2.424   3.885   2.360 -0.5370 -0.0214 -0.1247
 2623SOL    HW116232   2.442   3.959   2.296 -0.2852 -1.6911 -2.0339
 2623SOL    HW216233   2.510   3.839   2.384 -0.8557 -0.6516 -0.1564
 2624SOL     OW16234   0.985   3.615   2.125 -0.1782  0.4972 -0.0698
 2624SOL    HW116235   0.912   3.548   2.112  0.1074 -0.2058  1.8548
 2624SOL    HW216236   1.074   3.572   2.111 -0.0333  0.7893 -0.0687
 2625SOL     OW16237   1.713   4.423   1.565  0.1065  0.1674 -0.0950
 2625SOL    HW116238   1.786   4.376   1.616 -1.3784 -1.9622  0.1295
 2625SOL    HW216239   1.689   4.368   1.485 -1.8278  0.4261  0.2934
 2626SOL     OW16240   1.721   3.624   0.603 -0.4492 -0.5171 -0.6724
 2626SOL    HW116241   1.790   3.636   0.532  0.7525 -1.2830  0.3354
 2626SOL    HW216242   1.725   3.530   0.638 -2.3526 -0.7112 -0.9554
 2627SOL     OW16243   1.056   5.014   1.938 -0.3254 -0.5662  0.2785
 2627SOL    HW116244   0.961   4.987   1.924  0.4400 -1.8009 -2.7594
 2627SOL    HW216245   1.065   5.113   1.926 -1.1004 -0.5431 -0.1211
 2628SOL     OW16246   4.021   5.183   0.842 -0.0923 -0.2289 -0.2745
 2628SOL    HW116247   4.060   5.127   0.915 -1.9803 -1.7320 -0.3654
 2628SOL    HW216248   4.009   5.277   0.875  0.0562 -0.6461  1.0096
 2629SOL     OW16249   1.819   7.558   1.982 -0.6369 -0.2234  0.1568
 2629SOL    HW116250   1.821   7.554   2.082  1.7913  1.5254  0.2075
 2629SOL    HW216251   1.725   7.543   1.951 -1.7306  0.8509  2.7770
 2630SOL     OW16252   5.003   3.823   1.475  0.6119 -0.3459  0.2356
 2630SOL    HW116253   4.950   3.743   1.449  0.9681  0.4045 -3.0447
 2630SOL    HW216254   4.951   3.906   1.456  2.1096  0.3223 -1.1773
 2631SOL     OW16255   1.097   4.848   2.369  0.3399 -0.1109 -0.0655
 2631SOL    HW116256   1.056   4.797   2.294  1.3223  0.0748 -0.7350
 2631SOL    HW216257   1.027   4.868   2.438 -0.5634 -0.2853 -0.9206
 2632SOL     OW16258   0.746   4.694   2.283 -0.1391 -0.0247  0.1710
 2632SOL    HW116259   0.648   4.713   2.288 -0.0683 -0.2117  2.8050
 2632SOL    HW216260   0.771   4.628   2.354  1.7377 -0.7188 -1.0940
 2633SOL     OW16261   4.232   1.682   1.990 -0.5403  0.1306  0.0083
 2633SOL    HW116262   4.154   1.633   2.029  0.1820 -0.7290  0.3774
 2633SOL    HW216263   4.253   1.762   2.047 -1.3775  0.5759 -0.2966
 2634SOL     OW16264   1.374   4.455   1.170 -0.0390  0.0080 -0.0136
 2634SOL    HW116265   1.369   4.434   1.267 -1.2001  0.2483 -0.0103
 2634SOL    HW216266   1.329   4.382   1.118 -3.9363  2.2638 -0.0070
 2636SOL     OW16267   4.878   0.983   1.668 -0.0470 -0.0131  0.0342
 2636SOL    HW116268   4.829   1.070   1.660 -0.5457 -0.4191 -1.5375
 2636SOL    HW216269   4.814   0.908   1.654  0.2146 -0.6696  2.2697
 2637SOL     OW16270   2.683   0.853   1.350  0.1764  0.0173 -0.1523
 2637SOL    HW116271   2.716   0.947   1.357  0.9011 -0.2907  0.5684
 2637SOL    HW216272   2.721   0.798   1.425  0.2218 -0.9869 -0.8997
 2638SOL     OW16273   9.856   4.062   1.833  0.2329  0.2306 -0.3567
 2638SOL    HW116274   9.860   4.042   1.931  0.3577  0.1204 -0.3843
 2638SOL    HW216275   9.845   4.160   1.819 -1.0287  0.1278 -0.1997
 2639SOL     OW16276   2.381   9.380   1.937  0.0358 -0.0218 -0.2310
 2639SOL    HW116277   2.373   9.434   1.854  0.4464 -0.2408 -0.4121
 2639SOL    HW216278   2.296   9.388   1.990  0.7444  2.2659  0.6445
 2640SOL     OW16279   4.346   4.711   1.557 -0.0844 -0.8156 -0.2049
 2640SOL    HW116280   4.286   4.632   1.571  0.2909 -1.1350 -0.4101
 2640SOL    HW216281   4.333   4.776   1.632 -0.4399 -1.0393 -0.0707
 2641SOL     OW16282   2.868   1.355   0.436  0.0165 -0.1615 -0.5189
 2641SOL    HW116283   2.916   1.276   0.476 -2.5841 -1.4688  0.1313
 2641SOL    HW216284   2.848   1.421   0.508  3.2398  1.7261 -1.2563
 2642SOL     OW16285   1.018   5.560   2.037 -0.2912  0.0584 -0.1577
 2642SOL    HW116286   1.097   5.543   1.979 -0.5034 -0.3276 -0.3386
 2642SOL    HW216287   1.010   5.658   2.056  1.1115 -0.0490  1.1223
 2643SOL     OW16288   3.194   3.419   1.411 -0.6233  1.0570  0.3550
 2643SOL    HW116289   3.282   3.371   1.411 -0.8177  0.6855 -1.2268
 2643SOL    HW216290   3.191   3.483   1.488  0.8388  0.7384  0.6902
 2644SOL     OW16291   1.885   3.336   0.447 -0.0712 -0.7717  0.2990
 2644SOL    HW116292   1.963   3.288   0.407  0.7877  0.2438  0.7435
 2644SOL    HW216293   1.892   3.334   0.547 -0.8849 -1.1103  0.3557
 2645SOL     OW16294   2.788   2.548   2.163 -0.8987  0.1465 -0.0588
 2645SOL    HW116295   2.732   2.577   2.086 -1.6663 -2.5517 -0.5607
 2645SOL    HW216296   2.730   2.508   2.234  0.2568 -1.6749 -0.1114
 2647SOL     OW16297   4.286   0.781   1.639  0.3444  0.2620 -0.6500
 2647SOL    HW116298   4.284   0.803   1.737 -0.1867 -0.8325 -0.4086
 2647SOL    HW216299   4.290   0.866   1.586  2.3469  0.8508  0.3552
 2648SOL     OW16300   1.443   4.451   1.667 -0.0327  0.2508 -0.7025
 2648SOL    HW116301   1.538   4.425   1.651  0.3627  0.5307  1.0488
 2648SOL    HW216302   1.434   4.551   1.659  0.2356  0.4251  1.0443
 2649SOL     OW16303   1.752   4.867   1.228  0.1544  0.2224  0.4262
 2649SOL    HW116304   1.831   4.808   1.245  0.3659  0.2210 -0.5717
 2649SOL    HW216305   1.694   4.827   1.158  0.5425  1.4046 -0.5952
 2650SOL     OW16306   2.929   8.552   1.714  0.3942 -0.0523  0.0237
 2650SOL    HW116307   3.028   8.566   1.715  0.5409 -0.9442 -1.0074
 2650SOL    HW216308   2.909   8.461   1.677 -0.7482 -0.4326  1.5307
 2651SOL     OW16309   5.353   1.912   0.678  0.0052  0.1923 -0.9717
 2651SOL    HW116310   5.362   1.963   0.593  2.0362  0.8718 -0.3868
 2651SOL    HW216311   5.397   1.823   0.668 -2.1712 -0.8261 -1.4996
 2653SOL     OW16312   3.575   9.010   0.771  0.3520 -0.5419  0.6546
 2653SOL    HW116313   3.564   8.950   0.850 -1.6487 -2.2972 -0.8946
 2653SOL    HW216314   3.499   9.075   0.768  1.0517  0.2864  0.8095
 2654SOL     OW16315   2.491   5.222   2.281  0.7556 -0.3099 -0.6353
 2654SOL    HW116316   2.483   5.296   2.347 -0.6952 -0.4168 -0.6641
 2654SOL    HW216317   2.450   5.139   2.320  0.6380 -0.5836 -1.3400
 2655SOL     OW16318   2.357   7.815   1.975 -0.4669 -0.0592  0.7424
 2655SOL    HW116319   2.302   7.857   1.902  1.7105  0.2916 -0.7312
 2655SOL    HW216320   2.332   7.719   1.983 -1.2269  0.0637 -0.0092
 2656SOL     OW16321   0.861   2.899   2.155 -0.2839 -0.5653 -0.1770
 2656SOL    HW116322   0.821   2.860   2.238 -0.0017 -0.5179 -0.0170
 2656SOL    HW216323   0.961   2.899   2.163 -0.2448 -0.7797 -0.6144
 2657SOL     OW16324   4.710   3.450   0.352 -0.0718  0.2819 -0.3226
 2657SOL    HW116325   4.708   3.409   0.261 -0.9198 -0.5910  0.0737
 2657SOL    HW216326   4.620   3.440   0.395  0.1733  1.1529  0.4077
 2658SOL     OW16327   3.781   2.406   2.256 -0.3298 -0.0867  0.3083
 2658SOL    HW116328   3.695   2.357   2.272 -0.8206  0.2671 -1.1368
 2658SOL    HW216329   3.849   2.343   2.219 -1.6496  0.6853 -3.7331
 2659SOL     OW16330   1.398   4.963   0.483  0.0175 -0.4615 -0.0481
 2659SOL    HW116331   1.338   4.900   0.434 -0.6249 -0.6193  0.9238
 2659SOL    HW216332   1.361   4.980   0.574 -0.4367  2.2285 -0.6924
 2661SOL     OW16333   3.189   8.750   0.792  0.6332  0.1119  0.7894
 2661SOL    HW116334   3.210   8.659   0.758  1.6298  0.8115 -0.5080
 2661SOL    HW216335   3.225   8.760   0.885 -0.8907 -1.3382  1.5718
 2662SOL     OW16336   3.191   2.959   0.704  0.4022  0.0862 -0.3120
 2662SOL    HW116337   3.174   2.865   0.675  1.2664 -0.2252  0.1684
 2662SOL    HW216338   3.238   3.008   0.630  1.1008 -0.2279 -0.0792
 2665SOL     OW16339   1.811   8.169   1.910 -0.2129  0.1538 -0.9709
 2665SOL    HW116340   1.870   8.219   1.847  0.3790 -0.0200 -0.5589
 2665SOL    HW216341   1.859   8.089   1.945 -0.9271 -0.3509 -1.1301
 2666SOL     OW16342   1.238   4.805   2.104 -0.9113  0.1317 -0.0703
 2666SOL    HW116343   1.248   4.889   2.052 -0.2969 -0.4656 -0.9401
 2666SOL    HW216344   1.162   4.814   2.169  0.3566  2.0193  1.1960
 2667SOL     OW16345   4.183   2.382   1.519 -0.4277  0.2838 -0.0710
 2667SOL    HW116346   4.151   2.474   1.544 -2.3007 -0.3359 -0.1530
 2667SOL    HW216347   4.113   2.335   1.465 -0.0509 -1.6895  1.1024
 2668SOL     OW16348   2.578   9.706   2.051  0.8809  0.0682 -0.3480
 2668SOL    HW116349   2.564   9.612   2.080  2.4965  0.5219  2.0587
 2668SOL    HW216350   2.493   9.742   2.013 -0.4810 -1.5510  1.0692
 2670SOL     OW16351   3.014   4.428   1.155  0.3830 -0.1628  0.1774
 2670SOL    HW116352   2.995   4.520   1.120  0.0373  0.1769  1.2444
 2670SOL    HW216353   3.113   4.415   1.159  0.4322 -0.0956 -0.6269
 2671SOL     OW16354   4.160   2.966   1.199  0.4079 -0.2531 -0.1723
 2671SOL    HW116355   4.167   2.866   1.194 -2.0019 -0.5049  0.7317
 2671SOL    HW216356   4.118   2.992   1.286 -0.0991  1.4856 -0.9204
 2672SOL     OW16357   2.751   2.273   1.126 -0.2962  0.4570  0.2799
 2672SOL    HW116358   2.820   2.331   1.170  0.6669 -1.0617  0.8168
 2672SOL    HW216359   2.661   2.292   1.165 -0.0113  1.6423  0.3838
 2673SOL     OW16360   3.470   1.740   1.519  0.3257 -0.0504  0.6926
 2673SOL    HW116361   3.486   1.645   1.493  1.9772  0.6854 -1.1035
 2673SOL    HW216362   3.423   1.788   1.444  1.7539  1.1570  0.5421
 2674SOL     OW16363   3.481   3.678   1.426  0.2218 -0.2656  0.3564
 2674SOL    HW116364   3.469   3.745   1.353  0.6733  0.3374  0.8248
 2674SOL    HW216365   3.574   3.686   1.463  0.4378 -1.4587  0.1135
 2675SOL     OW16366   2.784   5.232   1.651 -0.3838  0.3506 -0.1006
 2675SOL    HW116367   2.788   5.163   1.723 -0.1225  0.5813  0.1072
 2675SOL    HW216368   2.720   5.304   1.677 -1.4252 -0.3179 -0.7653
 2676SOL     OW16369   5.548   2.798   0.586  0.2087  0.3519  0.3019
 2676SOL    HW116370   5.607   2.836   0.656 -0.0000 -1.5247  1.5326
 2676SOL    HW216371   5.500   2.718   0.622  0.3692 -0.8835 -2.0881
 2677SOL     OW16372   3.192   1.589   1.072 -0.1210 -0.0871 -0.2412
 2677SOL    HW116373   3.203   1.683   1.103 -1.0751  0.3228 -1.0987
 2677SOL    HW216374   3.096   1.573   1.047  0.2855 -0.8875 -1.3466
 2678SOL     OW16375   3.008   9.249   1.660  0.5203 -0.5354  0.5600
 2678SOL    HW116376   2.982   9.303   1.740  1.7377 -2.5221  2.3391
 2678SOL    HW216377   2.926   9.207   1.620 -0.0147 -0.0405  1.1279
 2680SOL     OW16378   2.435   0.132   0.572  0.3083  0.4079  0.6646
 2680SOL    HW116379   2.444   0.223   0.530  1.5505 -0.3710 -0.8146
 2680SOL    HW216380   2.481   0.131   0.661 -0.4207  1.4528  1.0583
 2681SOL     OW16381   2.357   1.999   0.807  0.0317 -0.5422  0.3381
 2681SOL    HW116382   2.287   2.060   0.843 -0.5821 -1.5562  0.9015
 2681SOL    HW216383   2.430   1.989   0.875 -1.3282 -2.7867  1.5592
 2682SOL     OW16384   1.953   7.799   0.815 -0.5482 -0.1077  0.0765
 2682SOL    HW116385   2.028   7.734   0.829  1.4623  2.5974  2.3403
 2682SOL    HW216386   1.936   7.809   0.717  4.0689  1.4161 -0.6812
 2683SOL     OW16387   3.623   3.228   2.167  0.0123  0.0686 -0.2154
 2683SOL    HW116388   3.628   3.323   2.198 -0.7026 -0.1433  0.5688
 2683SOL    HW216389   3.608   3.226   2.068  2.3506  0.7492 -0.6175
 2685SOL     OW16390   2.586   2.728   0.673 -0.6812  0.1616  0.5321
 2685SOL    HW116391   2.564   2.813   0.625 -0.9727  1.2530  2.5604
 2685SOL    HW216392   2.530   2.720   0.755 -0.0638 -1.5889  0.8110
 2686SOL     OW16393   4.270   0.672   0.508  0.2038 -0.1954 -0.3544
 2686SOL    HW116394   4.182   0.675   0.462  0.4339  0.3698 -0.7656
 2686SOL    HW216395   4.276   0.747   0.574 -0.2520 -1.1939  0.8385
 2687SOL     OW16396   2.876   0.244   1.081  0.0919 -0.5042  0.1735
 2687SOL    HW116397   2.955   0.211   1.133 -0.5064 -1.3419  0.5576
 2687SOL    HW216398   2.825   0.311   1.136 -0.5958 -1.4625  0.7072
 2688SOL     OW16399  10.372   5.371   0.626 -0.0514 -0.2203 -1.0695
 2688SOL    HW116400  10.358   5.352   0.724 -0.5343  0.8327 -0.9316
 2688SOL    HW216401  10.381   5.284   0.577 -0.3387 -0.7718 -0.1686
 2690SOL     OW16402   1.259   2.561   0.679  0.0526 -0.7054  0.2820
 2690SOL    HW116403   1.296   2.601   0.595 -1.9316 -3.8049 -2.1885
 2690SOL    HW216404   1.334   2.532   0.738  1.4865  0.5340 -0.8812
 2692SOL     OW16405   2.033   3.683   0.735 -0.0923 -0.1718  0.3709
 2692SOL    HW116406   1.934   3.673   0.728 -0.1290  0.2865  0.1866
 2692SOL    HW216407   2.076   3.593   0.737 -0.5574 -0.3781  1.0923
 2693SOL     OW16408   1.975   8.316   1.757  0.5221  0.2616  0.1292
 2693SOL    HW116409   1.946   8.403   1.798  0.6078  0.7505 -0.8195
 2693SOL    HW216410   2.073   8.320   1.737  0.7870 -0.5321  1.2389
 2694SOL     OW16411   3.084   8.502   1.446  0.3658  0.2244  0.6981
 2694SOL    HW116412   3.146   8.461   1.513 -2.7652 -1.5350  2.6556
 2694SOL    HW216413   3.080   8.601   1.460  1.3828  0.1306  1.6998
 2695SOL     OW16414   2.949   7.819   0.698  0.0852 -0.1721 -0.2453
 2695SOL    HW116415   2.891   7.811   0.618  0.4455  0.5453 -0.5751
 2695SOL    HW216416   2.910   7.764   0.773  0.2029 -1.5300 -1.1580
 2696SOL     OW16417   4.546   8.694   0.939 -0.1066 -0.0713  0.2346
 2696SOL    HW116418   4.549   8.614   0.999  0.4326  0.6596  1.1899
 2696SOL    HW216419   4.505   8.668   0.852  0.0854 -1.4045  0.5245
 2697SOL     OW16420   2.451   6.195   2.343  0.0370  0.1898  0.3946
 2697SOL    HW116421   2.517   6.216   2.416  0.1542  0.6665  0.1545
 2697SOL    HW216422   2.450   6.270   2.277  0.5397 -0.6259 -0.5460
 2698SOL     OW16423   2.946   0.362   2.124 -0.6695  0.1840 -0.1700
 2698SOL    HW116424   3.041   0.378   2.150 -1.3824  2.9625  0.8563
 2698SOL    HW216425   2.940   0.352   2.024  0.8362 -1.2450 -0.1379
 2699SOL     OW16426   1.592   7.712   1.366 -0.0400 -0.2492 -0.0368
 2699SOL    HW116427   1.648   7.641   1.324 -0.6072 -0.1632 -0.9573
 2699SOL    HW216428   1.581   7.788   1.302  0.7126  0.7544  1.0060
 2701SOL     OW16429   2.682   4.623   1.558  0.3066 -0.7232  0.3705
 2701SOL    HW116430   2.768   4.586   1.523  0.1843 -2.0410  1.4547
 2701SOL    HW216431   2.677   4.607   1.656 -0.5760  0.5620  0.5411
 2702SOL     OW16432   4.178   1.401   1.883  0.1271 -0.1144  0.1068
 2702SOL    HW116433   4.209   1.412   1.977  1.3524 -0.1277 -0.2800
 2702SOL    HW216434   4.242   1.447   1.822  0.1128 -1.2915 -0.8203
 2703SOL     OW16435   2.900   9.442   1.832  0.2454  0.6368 -0.3419
 2703SOL    HW116436   2.859   9.529   1.805 -1.5563  0.8800  2.8716
 2703SOL    HW216437   2.990   9.458   1.872 -0.3685  1.1650  0.8787
 2704SOL     OW16438   1.582   2.796   0.404 -0.1879  1.0312 -0.1804
 2704SOL    HW116439   1.676   2.763   0.410 -0.3081  0.7166 -0.0258
 2704SOL    HW216440   1.579   2.878   0.346 -0.0822 -0.0149 -1.6987
 2705SOL     OW16441   3.833   9.530   2.033 -0.3248 -0.2303 -0.2919
 2705SOL    HW116442   3.770   9.463   1.993 -1.2128 -0.6773  1.7853
 2705SOL    HW216443   3.827   9.616   1.983 -1.2822 -0.8226 -1.2133
 2706SOL     OW16444  10.298   6.055   1.033  0.2047  0.3639  0.3376
 2706SOL    HW116445  10.205   6.083   1.055  0.1239  0.6488 -0.3519
 2706SOL    HW216446  10.329   5.987   1.099 -0.9452 -0.6648 -0.1583
 2707SOL     OW16447   2.637   5.668   1.485  0.6130 -0.3602  0.0252
 2707SOL    HW116448   2.722   5.628   1.519  0.1039 -0.3964  1.2779
 2707SOL    HW216449   2.589   5.602   1.427  1.1015 -0.5865 -0.1160
 2708SOL     OW16450   3.161   9.481   0.314 -0.0081  0.4763 -0.3681
 2708SOL    HW116451   3.153   9.502   0.412  0.5299  0.6559 -0.3579
 2708SOL    HW216452   3.145   9.564   0.261 -0.7283  0.2847 -0.4524
 2709SOL     OW16453  10.117   5.018   0.613  0.3641  0.5140 -0.1027
 2709SOL    HW116454  10.139   4.922   0.630 -0.4182  0.3466 -0.0427
 2709SOL    HW216455  10.071   5.027   0.524  2.0403  1.0552 -0.9452
 2710SOL     OW16456   3.072   5.404   2.315  0.1512 -0.0114  0.0791
 2710SOL    HW116457   2.988   5.368   2.355  0.5353 -0.0485  0.8500
 2710SOL    HW216458   3.140   5.331   2.308  0.3989  0.2054  0.2119
 2712SOL     OW16459   4.307   2.042   1.069  0.1904 -0.3320 -0.7048
 2712SOL    HW116460   4.310   1.975   1.142 -0.1015  2.4408  1.9520
 2712SOL    HW216461   4.393   2.092   1.066  0.6298 -1.1581 -3.0395
 2713SOL     OW16462   1.604   7.025   0.958 -0.6301 -0.4349  0.4639
 2713SOL    HW116463   1.614   6.949   1.023  0.6329 -0.4357  0.2831
 2713SOL    HW216464   1.657   7.103   0.991 -1.7496  0.3019  0.5375
 2714SOL     OW16465   5.140   3.576   2.012 -0.0978 -0.1385 -0.4037
 2714SOL    HW116466   5.149   3.509   2.085 -0.3954 -0.1486 -0.3761
 2714SOL    HW216467   5.181   3.663   2.040  1.4687 -0.6917 -0.9386
 2715SOL     OW16468   9.598   5.202   1.939 -0.0052  0.3109 -0.1689
 2715SOL    HW116469   9.676   5.202   2.003 -0.8023 -1.6028  0.8363
 2715SOL    HW216470   9.612   5.273   1.871  1.2543  1.8948  1.6785
 2716SOL     OW16471   1.351   3.980   1.927  0.0700  0.1437  0.4222
 2716SOL    HW116472   1.439   3.938   1.948  1.0286  1.8470 -0.0853
 2716SOL    HW216473   1.347   4.071   1.968 -1.0233  0.5124 -0.4813
 2718SOL     OW16474   4.372   8.840   1.371 -0.6939  0.0774 -0.5126
 2718SOL    HW116475   4.452   8.868   1.424  0.1318  0.0780 -1.7365
 2718SOL    HW216476   4.289   8.866   1.419  0.0540  1.3764  0.0810
 2719SOL     OW16477   1.506   3.980   0.681  0.4541 -0.2040  0.3139
 2719SOL    HW116478   1.415   3.949   0.709  0.6831 -0.3536  0.8917
 2719SOL    HW216479   1.499   4.027   0.592 -0.1701 -0.2920  0.3132
 2720SOL     OW16480   2.866   4.155   0.799 -0.8530 -0.2101  0.6534
 2720SOL    HW116481   2.960   4.175   0.829 -1.4101  0.9104  1.7014
 2720SOL    HW216482   2.804   4.222   0.840 -2.0487 -0.6538 -0.4310
 2722SOL     OW16483   1.447   4.619   0.760 -0.2334 -0.1823 -0.0904
 2722SOL    HW116484   1.351   4.633   0.785 -0.1782 -2.1650  1.2743
 2722SOL    HW216485   1.454   4.542   0.697  0.6601 -1.3270  1.3883
 2723SOL     OW16486   3.746   3.340   1.204  0.0574  0.0638 -0.1884
 2723SOL    HW116487   3.701   3.295   1.127  0.0472  0.0898 -0.1974
 2723SOL    HW216488   3.797   3.272   1.257 -1.4503 -0.3044  0.8605
 2724SOL     OW16489   0.474   4.705   2.311 -0.4198  0.6917  0.1605
 2724SOL    HW116490   0.487   4.665   2.220  0.1644 -0.0802  0.5836
 2724SOL    HW216491   0.396   4.662   2.356  0.8169 -0.7005  1.0136
 2725SOL     OW16492   2.655   8.256   1.803  0.5812 -0.2664  0.7144
 2725SOL    HW116493   2.629   8.269   1.898 -2.1967 -1.1721  0.1082
 2725SOL    HW216494   2.658   8.346   1.758 -1.0951 -0.0781  0.9290
 2726SOL     OW16495   3.715   4.105   0.855 -0.6763 -0.5592  0.6544
 2726SOL    HW116496   3.685   4.200   0.858  2.7561  0.5625  0.7728
 2726SOL    HW216497   3.792   4.096   0.793 -0.7915 -3.2492  0.8324
 2727SOL     OW16498   9.128   4.706   1.090 -0.0765 -0.0284 -0.0950
 2727SOL    HW116499   9.093   4.785   1.040 -1.8213 -0.3055  0.6635
 2727SOL    HW216500   9.197   4.737   1.156 -0.2166  0.7618 -0.3046
 2728SOL     OW16501   3.396  -0.185   1.940 -0.4780  0.4365  0.5526
 2728SOL    HW116502   3.366  -0.112   1.879 -1.2737 -1.4200 -1.3152
 2728SOL    HW216503   3.353  -0.173   2.030 -2.0724  1.1939 -0.3008
 2729SOL     OW16504   2.348   3.005   2.327 -0.0636 -0.5824  0.0977
 2729SOL    HW116505   2.384   3.029   2.237 -0.9824  0.2980 -0.0345
 2729SOL    HW216506   2.264   2.952   2.317 -0.5887  0.1742  0.4322
 2730SOL     OW16507   2.923   9.169   0.748 -0.1736 -0.1646  0.2581
 2730SOL    HW116508   2.945   9.265   0.733 -1.2766  0.4315  2.2728
 2730SOL    HW216509   2.893   9.156   0.842 -0.6831 -2.3696 -0.1812
 2731SOL     OW16510   2.080   1.623   1.316  0.1201  0.0894  0.2162
 2731SOL    HW116511   2.079   1.608   1.415  1.5117 -0.5809  0.1382
 2731SOL    HW216512   2.147   1.693   1.293  1.3123 -1.2233 -0.4264
 2732SOL     OW16513   1.151   6.237   0.656 -0.5566  0.6320  0.0964
 2732SOL    HW116514   1.247   6.262   0.661 -0.4332  0.4040 -0.9216
 2732SOL    HW216515   1.107   6.251   0.745  0.3766  0.8829  0.5168
 2733SOL     OW16516  10.304   4.789   1.202  0.4317  0.0376 -0.0979
 2733SOL    HW116517  10.279   4.728   1.277  2.2257  1.0852  1.3959
 2733SOL    HW216518  10.403   4.806   1.203 -0.1494  3.9740  0.3840
 2735SOL     OW16519   1.527   1.824   0.509  0.0830  0.0489 -0.0624
 2735SOL    HW116520   1.449   1.867   0.554  1.4541  0.5768  1.8921
 2735SOL    HW216521   1.572   1.890   0.449  0.0654  0.2908  0.1867
 2737SOL     OW16522   2.859   2.914   1.090  0.1928  0.1766  0.3701
 2737SOL    HW116523   2.800   2.931   1.011 -1.7401  0.9815  1.9461
 2737SOL    HW216524   2.905   2.999   1.116  1.1621 -0.1873 -0.1484
 2738SOL     OW16525   2.574   6.285   1.198 -0.0956 -0.0169 -0.1888
 2738SOL    HW116526   2.529   6.241   1.276 -1.3355 -0.7752 -1.3085
 2738SOL    HW216527   2.536   6.377   1.186 -0.3696 -0.1405 -0.2828
 2740SOL     OW16528   2.368   6.574   1.329 -0.2378  0.1257 -0.4763
 2740SOL    HW116529   2.412   6.563   1.240 -0.7400 -1.6479 -0.5428
 2740SOL    HW216530   2.415   6.518   1.397  0.9978  2.5505  0.7208
 2741SOL     OW16531   3.470   4.452   0.722  0.1929  0.5101  0.5827
 2741SOL    HW116532   3.467   4.393   0.641  0.7424 -2.6830  2.7940
 2741SOL    HW216533   3.377   4.467   0.756  0.1828 -0.6574  1.0832
 2743SOL     OW16534   1.410   5.635   0.467  0.5118 -0.0973  0.2191
 2743SOL    HW116535   1.477   5.675   0.528  0.1479  1.2087 -0.2098
 2743SOL    HW216536   1.424   5.671   0.374 -1.5670  1.2222  0.3765
 2744SOL     OW16537  10.143   4.849   0.991  0.6545  0.3301  0.1534
 2744SOL    HW116538  10.219   4.830   1.053 -0.7267  1.3052  2.2134
 2744SOL    HW216539  10.097   4.933   1.019 -2.0180 -0.9399 -0.2053
 2745SOL     OW16540   1.415   7.242   2.106 -0.3453  0.6063  0.2303
 2745SOL    HW116541   1.454   7.151   2.125  0.1345  0.5251 -1.0906
 2745SOL    HW216542   1.446   7.306   2.176  1.0219  0.2196 -0.0113
 2746SOL     OW16543   2.850   6.752   1.001  0.2457  0.3872 -0.0586
 2746SOL    HW116544   2.781   6.701   0.950 -0.9783  0.8681  1.1247
 2746SOL    HW216545   2.852   6.720   1.096  2.1222 -0.1007 -0.2355
 2747SOL     OW16546   3.152   7.929   2.202 -0.2028  0.2841 -0.0987
 2747SOL    HW116547   3.140   7.854   2.137 -0.1977  1.6142 -1.6693
 2747SOL    HW216548   3.190   8.008   2.155 -0.4564  1.3692  1.4741
 2748SOL     OW16549   3.060   8.465   2.097 -0.0345 -0.1117 -0.0951
 2748SOL    HW116550   3.044   8.441   2.193 -1.4301  0.9313 -0.0464
 2748SOL    HW216551   3.115   8.549   2.093  0.7256 -0.6151 -0.2147
 2750SOL     OW16552   1.508   7.849   1.896 -0.2521 -0.0086 -0.2524
 2750SOL    HW116553   1.475   7.939   1.867  0.6059  0.4075  0.0300
 2750SOL    HW216554   1.499   7.840   1.995 -0.9559 -0.4940 -0.3584
 2752SOL     OW16555   9.839   3.293   0.839 -0.2227  0.1435 -0.5820
 2752SOL    HW116556   9.768   3.339   0.893  0.3030 -0.7547  0.9296
 2752SOL    HW216557   9.927   3.300   0.886  0.0587 -1.5080 -0.8106
 2753SOL     OW16558   5.263   2.712   0.910 -0.0305  0.4851  0.2104
 2753SOL    HW116559   5.169   2.679   0.908  0.0502  0.2154  0.7449
 2753SOL    HW216560   5.270   2.791   0.970 -0.0058  0.7822 -0.1867
 2754SOL     OW16561   1.604   3.726   1.451 -0.2594 -0.0778  0.3714
 2754SOL    HW116562   1.549   3.809   1.439  1.4376  0.8851 -0.8778
 2754SOL    HW216563   1.549   3.647   1.423 -1.5823  0.7011  0.7049
 2755SOL     OW16564   1.890   0.253   1.537  0.7927 -0.2819 -0.2254
 2755SOL    HW116565   1.904   0.241   1.635  0.1301 -1.9313 -0.3106
 2755SOL    HW216566   1.883   0.350   1.516 -2.6371  0.0224  1.8762
 2758SOL     OW16567  10.007   4.392   1.626  0.1918  0.7952 -0.2327
 2758SOL    HW116568  10.012   4.339   1.541 -1.4681 -1.3242  0.9254
 2758SOL    HW216569  10.097   4.392   1.670  0.6061  0.2839 -1.0551
 2759SOL     OW16570   2.361   9.765   1.867  0.2609 -0.0804  0.2084
 2759SOL    HW116571   2.272   9.723   1.884  1.0786 -1.2083  1.9156
 2759SOL    HW216572   2.349   9.862   1.846 -1.3792 -0.2809  0.1857
 2760SOL     OW16573   1.982   0.055   1.390 -0.1036 -0.2167 -0.3268
 2760SOL    HW116574   1.962   0.137   1.443  2.3833  0.4447 -0.3214
 2760SOL    HW216575   1.955  -0.026   1.441 -0.2399  0.5092  0.7603
 2762SOL     OW16576   3.062   3.818   2.209 -0.5119 -0.4634 -0.4643
 2762SOL    HW116577   3.047   3.720   2.199 -0.4578 -0.8356  2.6437
 2762SOL    HW216578   2.979   3.861   2.244  0.9854 -0.2407  3.0000
 2763SOL     OW16579   2.463   8.095   1.387  0.0259  0.0239  0.1149
 2763SOL    HW116580   2.537   8.129   1.328  1.8025 -1.0034  1.7437
 2763SOL    HW216581   2.467   8.142   1.475 -0.2720 -1.2093  0.7827
 2764SOL     OW16582   3.114   5.018   0.696 -0.2195  0.0965 -0.2730
 2764SOL    HW116583   3.021   4.980   0.699 -0.2148  0.0649 -0.5370
 2764SOL    HW216584   3.118   5.092   0.629  0.4314 -1.2225 -1.7317
 2765SOL     OW16585   3.584   9.107   1.902  0.0903 -0.8434  0.0759
 2765SOL    HW116586   3.659   9.149   1.953 -0.6522  1.0225 -0.3205
 2765SOL    HW216587   3.574   9.152   1.813 -1.6383 -0.8839  0.2248
 2766SOL     OW16588   5.386   3.953   0.730  0.2389  0.4230  0.2874
 2766SOL    HW116589   5.459   3.887   0.711  1.4389  1.8958 -0.2577
 2766SOL    HW216590   5.318   3.949   0.657  0.4590  0.0141  0.0984
 2767SOL     OW16591   1.957   1.364   2.074  0.0791  0.9089  0.0841
 2767SOL    HW116592   1.871   1.332   2.035  0.1800  0.9814 -0.2036
 2767SOL    HW216593   2.020   1.388   2.000  0.1823  1.2982  0.2946
 2769SOL     OW16594   4.186   9.399   0.616  0.3377 -0.0150  0.5658
 2769SOL    HW116595   4.127   9.471   0.651  1.3289 -0.1046  2.4907
 2769SOL    HW216596   4.188   9.403   0.516 -4.4692 -1.2556  0.3165
 2770SOL     OW16597   3.967   2.852   0.380  0.0767  0.0530 -0.3735
 2770SOL    HW116598   3.918   2.809   0.455  0.1937 -0.9117 -0.8365
 2770SOL    HW216599   3.902   2.900   0.320  0.0756  1.4923  0.7642
 2771SOL     OW16600   2.272   3.866   1.161 -0.0214  1.4991 -0.5174
 2771SOL    HW116601   2.301   3.887   1.068  0.0653 -1.6590 -1.2407
 2771SOL    HW216602   2.351   3.832   1.213 -1.0742 -1.5281 -0.7927
 2772SOL     OW16603   2.262   7.094   1.470  0.9923 -0.4727  0.2192
 2772SOL    HW116604   2.192   7.035   1.431 -0.1659  1.9693 -1.5066
 2772SOL    HW216605   2.228   7.135   1.554 -0.2246  1.7449 -1.3062
 2773SOL     OW16606   3.015   0.953   1.419 -0.0508  0.1111  0.0207
 2773SOL    HW116607   2.929   0.979   1.375 -0.8169  0.9521  1.9493
 2773SOL    HW216608   3.001   0.950   1.518  1.7035 -1.4450  0.2397
 2774SOL     OW16609   1.728   4.447   0.366 -0.6597  0.2977  0.0393
 2774SOL    HW116610   1.795   4.519   0.349  1.6337 -1.1304  2.5338
 2774SOL    HW216611   1.734   4.377   0.294 -0.7471  1.0372 -0.6964
 2775SOL     OW16612   3.308   3.056   0.468 -0.0682  0.1809  0.1033
 2775SOL    HW116613   3.398   3.099   0.452 -0.9688  2.7270  1.5449
 2775SOL    HW216614   3.245   3.084   0.395 -0.6342  1.3170  1.0033
 2776SOL     OW16615   2.862   3.322   0.909  0.0884  0.7117  0.1481
 2776SOL    HW116616   2.774   3.355   0.875  0.3203  0.4888 -0.6808
 2776SOL    HW216617   2.910   3.397   0.955 -0.0811  1.1180 -0.3229
 2777SOL     OW16618   1.647   8.340   0.901  0.6055  0.4347 -0.2378
 2777SOL    HW116619   1.628   8.304   0.810 -1.3448 -1.5420  0.8927
 2777SOL    HW216620   1.579   8.409   0.925 -0.0080 -0.4022  0.4433
 2778SOL     OW16621   1.943   0.541   1.565  0.4062  0.2717  0.4202
 2778SOL    HW116622   1.965   0.626   1.518 -2.3982  1.0472  0.4676
 2778SOL    HW216623   1.917   0.560   1.659 -1.6783 -0.4757  0.0032
 2779SOL     OW16624   4.540   2.600   0.959 -0.0553 -0.3000  0.3220
 2779SOL    HW116625   4.631   2.581   0.920  0.3005  0.9484  0.5399
 2779SOL    HW216626   4.485   2.649   0.891 -0.5436 -0.9916  0.2183
 2780SOL     OW16627   2.812   3.591   0.325  0.1540 -0.1961  0.1383
 2780SOL    HW116628   2.769   3.527   0.261  0.3708  0.5698 -0.7903
 2780SOL    HW216629   2.742   3.654   0.359  0.3228  0.3971 -0.5808
 2781SOL     OW16630   9.907   5.041   1.505  0.0127 -1.7857 -0.8513
 2781SOL    HW116631   9.944   5.002   1.590 -0.2684 -2.3225 -0.9761
 2781SOL    HW216632   9.808   5.051   1.514  0.3178  0.9627  0.0207
 2782SOL     OW16633   3.782   9.395   1.533 -0.3727  0.4661 -0.1989
 2782SOL    HW116634   3.842   9.316   1.526  0.4189  1.0577 -0.0918
 2782SOL    HW216635   3.836   9.479   1.531 -1.0885  0.9785  1.0198
 2783SOL     OW16636   9.794   3.607   0.645  0.1920 -0.2263 -0.3546
 2783SOL    HW116637   9.882   3.593   0.599  0.3746 -0.2525 -0.0046
 2783SOL    HW216638   9.733   3.530   0.625  0.4054 -0.4252 -0.2398
 2784SOL     OW16639   2.981   6.697   1.538 -0.0192  0.1289 -0.0681
 2784SOL    HW116640   3.058   6.688   1.602  1.0395 -1.5368 -1.5279
 2784SOL    HW216641   2.975   6.791   1.506  0.5886  0.5633  1.0777
 2785SOL     OW16642   2.682   6.991   0.997 -0.3268 -0.0692  0.4201
 2785SOL    HW116643   2.764   6.958   0.950 -1.2026 -0.5482 -0.8004
 2785SOL    HW216644   2.679   6.951   1.089  0.0233 -1.2849 -0.0761
 2786SOL     OW16645   5.009   2.110   0.867 -0.0626  0.4185 -0.4497
 2786SOL    HW116646   5.056   2.025   0.892 -0.8230 -0.0297 -0.5485
 2786SOL    HW216647   4.910   2.096   0.871 -0.1889  1.1161 -1.0916
 2787SOL     OW16648  10.306   4.316   2.033  0.2090  0.0503 -0.1126
 2787SOL    HW116649  10.221   4.353   1.996  1.2631  0.9432 -1.7479
 2787SOL    HW216650  10.380   4.330   1.966  1.7494 -0.2131  1.4958
 2788SOL     OW16651   1.880   1.712   0.474  0.1372 -0.0063 -0.0074
 2788SOL    HW116652   1.801   1.680   0.526 -0.5067 -0.4845 -1.2513
 2788SOL    HW216653   1.939   1.634   0.453  0.2917  0.1519 -0.1575
 2789SOL     OW16654   3.847   3.112   1.293 -0.1748 -0.2959 -0.0253
 2789SOL    HW116655   3.871   3.020   1.263 -2.2845 -1.1654  0.9057
 2789SOL    HW216656   3.886   3.129   1.383  1.1104  0.1199 -0.6538
 2790SOL     OW16657   3.327   3.451   2.369 -0.4763  0.3608  0.3954
 2790SOL    HW116658   3.272   3.486   2.293  1.3349  2.7702  0.1381
 2790SOL    HW216659   3.399   3.517   2.391  0.2348 -1.1994  2.9315
 2791SOL     OW16660   9.740   5.729   2.148 -0.1111 -0.3291  0.4370
 2791SOL    HW116661   9.679   5.654   2.174 -1.8807  0.7270 -0.5117
 2791SOL    HW216662   9.702   5.775   2.068  2.5826 -0.3796 -0.9304
 2793SOL     OW16663   4.488   1.493   1.878  0.0783  0.5076  0.6499
 2793SOL    HW116664   4.423   1.569   1.883  1.5398  1.9552 -1.1997
 2793SOL    HW216665   4.542   1.490   1.962  1.0370  2.5096  0.1380
 2794SOL     OW16666   3.623   4.862   2.052 -0.2026 -0.5190  0.6390
 2794SOL    HW116667   3.646   4.932   1.984 -2.1160 -1.1421 -0.6954
 2794SOL    HW216668   3.694   4.791   2.052 -0.5118 -0.8605 -1.2270
 2795SOL     OW16669   2.480   2.824   1.446 -0.2805 -0.2623  0.6607
 2795SOL    HW116670   2.540   2.900   1.468  0.0061 -0.4733  0.6110
 2795SOL    HW216671   2.401   2.825   1.507 -0.7713  0.6499  0.0147
 2796SOL     OW16672   1.718   5.542   0.348 -0.0364  0.7028  0.5826
 2796SOL    HW116673   1.678   5.627   0.314 -2.5114 -1.4174 -2.1046
 2796SOL    HW216674   1.804   5.524   0.301 -1.3293 -0.0612 -1.5750
 2797SOL     OW16675   2.176   8.239   0.716 -0.5475 -0.2355 -0.0552
 2797SOL    HW116676   2.092   8.185   0.726 -1.2569  0.6686 -1.0686
 2797SOL    HW216677   2.218   8.219   0.628  1.6069 -2.4681  1.3983
 2798SOL     OW16678   4.746   2.345   0.655 -0.9981  0.4712 -0.0166
 2798SOL    HW116679   4.770   2.442   0.667 -0.7761  0.4074  0.0675
 2798SOL    HW216680   4.669   2.323   0.714 -0.6684  0.4523  0.4150
 2799SOL     OW16681   2.806   6.953   0.758 -0.7107  0.0658 -0.4621
 2799SOL    HW116682   2.903   6.930   0.743 -1.0844 -2.4872  0.7000
 2799SOL    HW216683   2.749   6.878   0.724 -2.2191  0.9026  0.2032
 2800SOL     OW16684   2.485   1.432   1.779 -0.2749 -0.2877 -0.1476
 2800SOL    HW116685   2.415   1.373   1.820 -0.0501 -0.3409  0.1635
 2800SOL    HW216686   2.447   1.523   1.765 -0.8456 -0.6789 -1.2692
 2801SOL     OW16687   0.571   6.422   1.171 -0.2897 -0.3486 -0.1688
 2801SOL    HW116688   0.553   6.503   1.227 -0.5404  0.3461 -1.2235
 2801SOL    HW216689   0.657   6.436   1.120  1.2440 -1.9963  1.8835
 2802SOL     OW16690   3.295   7.983   1.320  0.1370  0.0436  0.1808
 2802SOL    HW116691   3.265   8.065   1.370  2.3013 -0.5124  2.5080
 2802SOL    HW216692   3.222   7.915   1.321 -0.7596  0.9865  0.3993
 2803SOL     OW16693   2.335   9.189   0.599 -0.1095  0.2082 -0.1668
 2803SOL    HW116694   2.288   9.260   0.545  1.6646  2.7477  1.5111
 2803SOL    HW216695   2.426   9.222   0.626  0.9324 -2.8941  0.3419
 2805SOL     OW16696   2.998   3.523   1.038  0.1584  0.4587  1.2092
 2805SOL    HW116697   2.961   3.501   1.128  0.5629  0.4924  1.3860
 2805SOL    HW216698   3.042   3.613   1.041 -0.6907  0.8986  0.7243
 2806SOL     OW16699   2.445   5.206   0.829  0.5234  0.3331 -0.1091
 2806SOL    HW116700   2.492   5.157   0.902  2.1591  0.8044 -0.8055
 2806SOL    HW216701   2.471   5.303   0.832  0.1101  0.4725 -0.9148
 2807SOL     OW16702   1.754   3.865   0.742 -0.4457 -0.3883 -0.2680
 2807SOL    HW116703   1.664   3.908   0.738 -1.1265 -1.8922 -1.2967
 2807SOL    HW216704   1.756   3.784   0.684  1.3299 -0.8417  0.3729
 2809SOL     OW16705   1.182   7.012   1.934  0.4900 -0.0813  0.0704
 2809SOL    HW116706   1.143   7.103   1.951 -1.0729 -0.9875  1.4333
 2809SOL    HW216707   1.272   7.022   1.892 -0.5130  2.0935 -1.7003
 2810SOL     OW16708   2.094   6.951   1.305 -0.4299  0.0783 -0.1055
 2810SOL    HW116709   1.996   6.961   1.323  0.0329  0.9275  2.1610
 2810SOL    HW216710   2.115   6.855   1.286 -1.8166  0.0339 -1.4741
 2811SOL     OW16711   1.189   3.940   0.658 -0.1227  0.0400  0.4952
 2811SOL    HW116712   1.149   3.992   0.733  1.0926  1.1568  0.3972
 2811SOL    HW216713   1.174   3.990   0.572 -0.6693 -0.7567  0.1231
 2812SOL     OW16714   1.007   2.838   1.105 -0.1340 -0.2861  0.2528
 2812SOL    HW116715   0.979   2.880   1.019  0.7475 -2.1373 -0.9713
 2812SOL    HW216716   0.928   2.798   1.150 -0.0312 -2.7041 -1.6213
 2813SOL     OW16717   4.529   0.616   0.400 -0.1910 -0.3577  0.0269
 2813SOL    HW116718   4.459   0.637   0.468  0.6744 -1.4018  1.2553
 2813SOL    HW216719   4.486   0.576   0.319 -1.1741  0.4550  0.1410
 2814SOL     OW16720   3.146   9.114   2.313  0.3713  0.1690  0.3668
 2814SOL    HW116721   3.094   9.185   2.361  0.1499  1.0928 -1.2099
 2814SOL    HW216722   3.193   9.056   2.380  0.8050  1.9910  1.6649
 2815SOL     OW16723   4.452   9.205   1.193  0.6876  0.0321  0.2955
 2815SOL    HW116724   4.399   9.215   1.109 -0.8542 -2.1127  0.9717
 2815SOL    HW216725   4.529   9.142   1.176 -0.0414 -0.9673  0.6591
 2816SOL     OW16726   4.150   3.744   1.566 -0.2574  0.4872 -0.1107
 2816SOL    HW116727   4.089   3.818   1.596  1.3383  1.7574  0.0503
 2816SOL    HW216728   4.113   3.657   1.596 -0.4094  1.4777  2.7452
 2817SOL     OW16729   1.820   2.388   1.347  0.1250 -0.1150  0.4338
 2817SOL    HW116730   1.736   2.389   1.402  1.2099 -1.4287  2.1581
 2817SOL    HW216731   1.795   2.392   1.250 -1.8799  0.7548  0.9498
 2818SOL     OW16732  10.040   4.284   1.389  0.0808 -0.4083  0.5084
 2818SOL    HW116733  10.066   4.362   1.332  1.2537 -1.8995 -1.0654
 2818SOL    HW216734   9.954   4.245   1.356 -1.2386  0.9969  2.1414
 2819SOL     OW16735   3.181   8.970   2.094 -0.4304 -0.4043  0.1992
 2819SOL    HW116736   3.174   9.032   2.016 -1.5010 -0.1913  0.4660
 2819SOL    HW216737   3.170   9.022   2.179  3.7927 -0.0844  0.6834
 2820SOL     OW16738   0.846   3.322   1.432  0.2061  0.0506  0.8391
 2820SOL    HW116739   0.872   3.386   1.504  2.1391 -0.2692  0.4472
 2820SOL    HW216740   0.747   3.325   1.419 -0.0946  0.4567  3.1545
 2822SOL     OW16741   3.201   8.703   2.076  0.1399  0.4331 -0.0762
 2822SOL    HW116742   3.273   8.684   2.143  1.1953 -0.5247 -1.4572
 2822SOL    HW216743   3.187   8.801   2.069  1.5041  0.6498  0.0344
 2823SOL     OW16744   2.679   3.796   2.368  0.3242  0.1975 -0.1867
 2823SOL    HW116745   2.750   3.859   2.336 -0.1892 -0.4008 -2.5911
 2823SOL    HW216746   2.721   3.725   2.425  1.4950  0.4639 -0.7053
 2824SOL     OW16747   3.337   1.910   0.768 -0.0315 -0.3883  0.0424
 2824SOL    HW116748   3.383   1.874   0.687 -0.3718 -0.5157 -0.0938
 2824SOL    HW216749   3.239   1.896   0.760 -0.0967 -0.1138  0.3328
 2825SOL     OW16750   1.834  -0.157   1.505 -0.2290 -0.2340  0.2479
 2825SOL    HW116751   1.783  -0.233   1.463  0.2947 -0.7616  0.5636
 2825SOL    HW216752   1.777  -0.113   1.575 -0.9111  0.3116 -0.6322
 2826SOL     OW16753  10.295   4.589   1.381  0.4667 -0.3016 -0.2107
 2826SOL    HW116754  10.222   4.528   1.349 -1.6137  0.1077  3.4702
 2826SOL    HW216755  10.360   4.537   1.436 -0.0057  0.2936  0.9425
 2827SOL     OW16756   3.421   2.641   0.940  0.6958 -0.5416 -0.1116
 2827SOL    HW116757   3.409   2.547   0.910  0.5821 -0.4211 -0.4461
 2827SOL    HW216758   3.370   2.657   1.025 -0.0276 -0.5303 -0.5446
 2828SOL     OW16759   3.916   8.417   0.719 -0.0488  0.5703 -0.3154
 2828SOL    HW116760   3.981   8.357   0.671 -0.1312  1.9791 -2.2718
 2828SOL    HW216761   3.840   8.362   0.753  1.5933 -0.9460  1.0520
 2829SOL     OW16762   2.553   4.460   1.754  0.5551  0.1954 -0.3730
 2829SOL    HW116763   2.536   4.366   1.725 -3.1193  1.2765 -2.0267
 2829SOL    HW216764   2.489   4.484   1.826  1.4844  1.4542  0.0436
 2832SOL     OW16765   4.320   8.431   0.552 -0.1033 -0.3184  0.2499
 2832SOL    HW116766   4.275   8.342   0.554 -1.6124  0.4372  0.7404
 2832SOL    HW216767   4.301   8.476   0.464  0.1427 -0.2241  0.2446
 2834SOL     OW16768   4.717   1.961   2.356 -0.5291  0.1182 -0.4221
 2834SOL    HW116769   4.658   1.897   2.307 -2.4836  0.8624  0.8961
 2834SOL    HW216770   4.673   2.051   2.358  0.9085  0.8224  0.1381
 2835SOL     OW16771   2.598   8.127   0.388  0.1425  0.3545 -0.0236
 2835SOL    HW116772   2.583   8.225   0.395 -0.6004  0.1623  1.2794
 2835SOL    HW216773   2.592   8.086   0.479 -0.4564 -1.0174 -0.6708
 2836SOL     OW16774   3.211   4.358   0.570 -0.1657 -0.0086 -0.6031
 2836SOL    HW116775   3.113   4.367   0.553  0.5477  0.0392 -5.1188
 2836SOL    HW216776   3.233   4.263   0.592 -1.1806 -0.0149  0.4544
 2837SOL     OW16777   9.654   3.406   1.027 -0.2716  0.0171 -0.1923
 2837SOL    HW116778   9.579   3.360   1.074 -1.0297  0.8925 -0.5235
 2837SOL    HW216779   9.741   3.374   1.063 -0.7792 -1.6945 -0.4464
 2838SOL     OW16780   1.474   6.045   0.905 -0.0386  0.0521  0.2006
 2838SOL    HW116781   1.382   6.033   0.943 -0.3568  1.4009 -0.0956
 2838SOL    HW216782   1.540   5.993   0.959 -0.8745 -0.3063  0.8858
 2839SOL     OW16783   2.758  -0.063   1.339 -0.2633  0.4331 -0.1432
 2839SOL    HW116784   2.684  -0.077   1.406  1.0498 -1.4297  0.9802
 2839SOL    HW216785   2.841  -0.035   1.388 -0.0024  1.7701 -1.3219
 2840SOL     OW16786   3.081   5.019   1.162 -0.0530  0.0726  0.1735
 2840SOL    HW116787   3.139   5.015   1.081 -0.1845  0.4220  0.0620
 2840SOL    HW216788   2.996   5.067   1.140 -0.2857 -0.2367  0.3968
 2841SOL     OW16789   0.707   5.157   1.658  0.0278 -0.4937  0.0887
 2841SOL    HW116790   0.725   5.175   1.754  0.6779  0.0763 -0.1295
 2841SOL    HW216791   0.707   5.059   1.642  0.4588 -0.5783  0.5799
 2842SOL     OW16792   2.917   3.505   1.312 -0.2737 -0.2506  0.3083
 2842SOL    HW116793   3.014   3.508   1.336 -0.7554 -1.7817  2.5936
 2842SOL    HW216794   2.883   3.412   1.321 -1.4372 -0.1981 -2.8474
 2843SOL     OW16795   1.471   2.801   1.544 -0.1755  0.0218  0.8010
 2843SOL    HW116796   1.389   2.812   1.488  0.0367  1.5880  0.7746
 2843SOL    HW216797   1.543   2.861   1.509  0.2633  0.2993  2.1632
 2844SOL     OW16798   1.455   4.059   1.197 -0.8216  0.4003 -0.2865
 2844SOL    HW116799   1.477   4.045   1.293 -3.1453 -0.8402  0.0898
 2844SOL    HW216800   1.515   4.130   1.160  2.1955 -1.2107  1.2408
 2846SOL     OW16801   2.263   0.305   1.357  0.2716  0.2491 -0.6787
 2846SOL    HW116802   2.206   0.224   1.344  0.5615  0.0551 -0.7421
 2846SOL    HW216803   2.247   0.343   1.448 -0.4775  0.5994 -0.9476
 2847SOL     OW16804   4.824   2.163   2.159 -0.0471  0.5223 -0.2314
 2847SOL    HW116805   4.766   2.176   2.239  0.0878 -1.5195  0.2344
 2847SOL    HW216806   4.911   2.124   2.187  0.8273  1.7825 -1.1512
 2848SOL     OW16807   1.123   5.328   1.424 -0.6833 -0.0796  0.1975
 2848SOL    HW116808   1.209   5.278   1.412 -1.3779 -0.8961 -1.6215
 2848SOL    HW216809   1.127   5.413   1.371 -0.9259 -0.0491  0.2279
 2849SOL     OW16810   2.219   9.749   1.142 -0.1501  0.0345  0.3276
 2849SOL    HW116811   2.163   9.675   1.104 -1.1892  1.2718 -0.6195
 2849SOL    HW216812   2.162   9.829   1.158  0.6998  0.2075  2.6255
 2851SOL     OW16813   2.780   6.199   0.805 -0.3575 -0.1026 -0.1238
 2851SOL    HW116814   2.850   6.128   0.800  0.3145  0.5658 -0.3107
 2851SOL    HW216815   2.801   6.263   0.879  0.8162  1.7420 -1.9693
 2852SOL     OW16816   4.619   4.940   0.344 -0.1644  0.4348  0.0797
 2852SOL    HW116817   4.557   5.010   0.379 -1.8325 -0.4404 -1.0721
 2852SOL    HW216818   4.701   4.937   0.401 -1.7980  0.6090  2.5081
 2853SOL     OW16819   3.192   8.643   1.789  0.1177 -0.5200  0.0748
 2853SOL    HW116820   3.174   8.655   1.886 -0.2152  0.4189 -0.0971
 2853SOL    HW216821   3.229   8.728   1.751 -0.3329 -0.6793 -0.7473
 2854SOL     OW16822   4.285   2.991   2.351 -0.3882 -0.0644  0.3697
 2854SOL    HW116823   4.382   2.973   2.335 -0.2096  1.1064  0.0504
 2854SOL    HW216824   4.270   3.002   2.449  0.0776  1.1507  0.3227
 2856SOL     OW16825   3.208   7.839   0.587  0.1374 -1.0213 -0.3417
 2856SOL    HW116826   3.268   7.843   0.668  0.4184 -0.1650 -0.5809
 2856SOL    HW216827   3.113   7.844   0.616  0.2551 -0.0426 -0.0888
 2857SOL     OW16828   0.977   4.316   1.569 -0.3374  0.2103  0.1336
 2857SOL    HW116829   0.943   4.280   1.482  0.1488 -1.2853  0.5424
 2857SOL    HW216830   1.051   4.381   1.550 -0.1095 -0.2390 -0.5693
 2858SOL     OW16831   9.902   3.393   1.144 -0.1196 -0.2386 -0.3075
 2858SOL    HW116832   9.869   3.360   1.232  0.1296 -1.9591 -0.8279
 2858SOL    HW216833   9.930   3.489   1.152  0.3177 -0.5036  1.5833
 2859SOL     OW16834   9.853   4.647   1.636  0.5614 -0.1961  0.4000
 2859SOL    HW116835   9.894   4.559   1.612 -2.4796 -1.1334 -1.7210
 2859SOL    HW216836   9.809   4.641   1.725  0.9416 -0.6298  0.5570
 2860SOL     OW16837   4.471   3.862   0.811  0.5335 -0.2809 -0.5261
 2860SOL    HW116838   4.565   3.826   0.808  0.0636 -1.4920 -0.9051
 2860SOL    HW216839   4.408   3.788   0.834 -0.2748  0.6612  0.3182
 2862SOL     OW16840   0.803   4.347   1.322  0.9924 -0.3960 -0.0781
 2862SOL    HW116841   0.894   4.349   1.279  0.9538 -0.8939 -0.1852
 2862SOL    HW216842   0.773   4.441   1.339  1.4208 -0.2193 -0.2689
 2863SOL     OW16843   4.276   0.549   1.296  0.0215 -0.0377 -0.2600
 2863SOL    HW116844   4.354   0.596   1.337  0.3809 -1.6491  0.9426
 2863SOL    HW216845   4.233   0.609   1.229  0.3304  2.1022  1.3869
 2864SOL     OW16846   1.317   4.253   0.686  0.2810 -0.3912 -0.0596
 2864SOL    HW116847   1.250   4.179   0.687  0.9380 -1.0044 -0.2869
 2864SOL    HW216848   1.328   4.287   0.593  1.7708 -1.6993 -0.4020
 2865SOL     OW16849   4.524   5.146   0.473 -0.1719 -0.0194 -1.3069
 2865SOL    HW116850   4.424   5.158   0.472 -0.4106 -1.8994 -1.2614
 2865SOL    HW216851   4.561   5.186   0.556 -1.2453 -1.8566  0.0908
 2868SOL     OW16852   5.465   2.473   0.377  0.9665 -0.4235  0.6728
 2868SOL    HW116853   5.520   2.544   0.422  0.5064  0.4251 -0.0929
 2868SOL    HW216854   5.389   2.447   0.437 -0.2045  1.3931 -0.0005
 2870SOL     OW16855   2.121   8.778   0.702 -0.0687 -0.1966  0.1158
 2870SOL    HW116856   2.113   8.704   0.769 -1.4206  1.1481  1.4728
 2870SOL    HW216857   2.204   8.830   0.721 -1.8106  1.8409  2.5243
 2872SOL     OW16858   4.117   2.043   0.378  0.4192  0.5217  0.4748
 2872SOL    HW116859   4.164   2.100   0.311  0.4230  0.7760  0.6950
 2872SOL    HW216860   4.130   2.081   0.470 -0.1053  0.5163  0.5515
 2873SOL     OW16861   2.760   7.909   2.365 -0.1991 -0.2640  0.4636
 2873SOL    HW116862   2.737   7.869   2.276 -1.7109  0.2909  0.5802
 2873SOL    HW216863   2.838   7.970   2.355  1.2079 -2.1280  0.0117
 2876SOL     OW16864   1.821   6.921   0.321  0.0107 -0.3524  0.4510
 2876SOL    HW116865   1.819   6.822   0.309  0.2436 -0.3284  0.2082
 2876SOL    HW216866   1.734   6.952   0.358 -0.1014 -0.6360  0.4236
 2877SOL     OW16867   5.004   4.142   0.768 -0.4200  0.5614 -0.8638
 2877SOL    HW116868   4.943   4.202   0.717 -2.6084 -1.0537 -0.2050
 2877SOL    HW216869   4.959   4.111   0.852  1.4244 -0.3864 -0.1934
 2878SOL     OW16870   3.008   7.345   0.721  0.3390  0.1336 -0.2464
 2878SOL    HW116871   2.932   7.298   0.676 -1.3994  0.9383  1.7402
 2878SOL    HW216872   3.025   7.433   0.677  0.2047 -0.1014 -0.7718
 2879SOL     OW16873  10.085   4.505   1.959 -0.1247 -1.3263  0.4920
 2879SOL    HW116874  10.025   4.446   1.904 -2.3695  0.9244  0.4045
 2879SOL    HW216875  10.123   4.577   1.900 -0.9211 -0.1142  1.4138
 2881SOL     OW16876   2.142   6.547   2.376  0.1796  0.8000  0.3937
 2881SOL    HW116877   2.066   6.492   2.340  1.2451 -1.8196  2.0282
 2881SOL    HW216878   2.220   6.541   2.313  0.7890 -0.7658  1.2885
 2882SOL     OW16879   3.499   3.010   1.281  0.5584  0.1217  0.0989
 2882SOL    HW116880   3.444   3.053   1.209  0.7429  1.3096  0.6596
 2882SOL    HW216881   3.584   2.974   1.241  0.0162 -0.5050 -0.5191
 2883SOL     OW16882   1.270   4.681   1.371 -0.1852 -0.1950  0.5119
 2883SOL    HW116883   1.298   4.776   1.386  0.2644 -0.3515  0.6765
 2883SOL    HW216884   1.275   4.660   1.273  0.4610 -0.2717  0.5531
 2884SOL     OW16885   3.601   3.960   1.796  0.6552 -0.4325 -0.2320
 2884SOL    HW116886   3.513   3.938   1.753  0.4280 -1.5042  0.7642
 2884SOL    HW216887   3.627   4.053   1.771 -0.3830 -0.3723 -1.1660
 2885SOL     OW16888   3.332   0.590   1.857 -0.1195 -0.1653  0.0180
 2885SOL    HW116889   3.262   0.530   1.819  0.4526  0.1704 -1.6189
 2885SOL    HW216890   3.418   0.577   1.808  0.3833  0.9926  0.5524
 2886SOL     OW16891   1.232   3.589   1.019  0.0528  0.7894  0.0178
 2886SOL    HW116892   1.320   3.630   1.042  0.4995 -0.2123  0.1338
 2886SOL    HW216893   1.205   3.616   0.927  0.2210  1.5317  0.1845
 2887SOL     OW16894   2.464   2.742   0.909 -0.5382  0.2904  0.2448
 2887SOL    HW116895   2.492   2.820   0.965 -1.3984  0.4723  0.4223
 2887SOL    HW216896   2.479   2.657   0.961 -2.4128  0.5238  1.2182
 2888SOL     OW16897   9.502   4.878   0.601 -0.3112 -0.1411 -0.1239
 2888SOL    HW116898   9.519   4.891   0.699 -1.3335  1.5261 -0.1382
 2888SOL    HW216899   9.579   4.913   0.549  0.5962 -1.7858  0.1054
 2889SOL     OW16900   2.502   8.843   0.380  0.0757 -0.6831 -0.1310
 2889SOL    HW116901   2.577   8.908   0.393  0.0150 -0.8330  1.0530
 2889SOL    HW216902   2.419   8.893   0.356  0.4808 -0.4908 -1.1503
 2890SOL     OW16903   3.254   8.189   0.674 -0.0932 -0.0355  0.2287
 2890SOL    HW116904   3.271   8.165   0.579  0.2714  1.5090 -0.1039
 2890SOL    HW216905   3.181   8.258   0.679  0.8036  0.8725  0.9711
 2891SOL     OW16906   3.985   1.087   2.007 -0.4238 -0.4814 -0.0341
 2891SOL    HW116907   4.076   1.111   2.041  0.0205 -1.5487 -0.4594
 2891SOL    HW216908   3.989   1.074   1.908 -1.0549 -0.4647 -0.0619
 2892SOL     OW16909   3.593   5.327   1.094 -0.2378  0.1102 -0.3889
 2892SOL    HW116910   3.608   5.252   1.030 -1.0399 -1.0847  0.7989
 2892SOL    HW216911   3.672   5.334   1.155  0.0881  0.6084 -0.8643
 2893SOL     OW16912   4.504   3.398   1.888 -0.1389 -0.2192  1.0465
 2893SOL    HW116913   4.562   3.383   1.968  0.1509  0.9618  1.0719
 2893SOL    HW216914   4.560   3.430   1.812 -0.4832 -0.8768  0.5131
 2895SOL     OW16915   3.264   5.571   1.304 -0.5347  0.3321  0.9107
 2895SOL    HW116916   3.338   5.535   1.246 -1.5720 -0.2062 -0.0874
 2895SOL    HW216917   3.276   5.538   1.397 -0.0329 -0.5069  0.5586
 2896SOL     OW16918   2.797   9.069   0.985  0.1572 -0.3686  0.5063
 2896SOL    HW116919   2.719   9.022   1.026  1.2590 -2.1879  0.6191
 2896SOL    HW216920   2.855   9.107   1.057  0.5730 -1.0546  0.5479
 2897SOL     OW16921   2.525   3.606   1.936 -0.1004 -0.0594  0.0715
 2897SOL    HW116922   2.523   3.622   2.035 -1.4496  0.6788 -0.0731
 2897SOL    HW216923   2.532   3.693   1.888 -3.2182 -0.1104 -0.5855
 2898SOL     OW16924   3.052   4.595   2.347 -0.9996  0.1601 -0.2551
 2898SOL    HW116925   3.081   4.597   2.251 -0.6977 -0.4492 -0.1772
 2898SOL    HW216926   3.045   4.501   2.378 -0.2464  0.3720  0.5812
 2900SOL     OW16927   2.947   4.749   1.992 -0.0179 -0.8610  1.1919
 2900SOL    HW116928   2.987   4.780   1.906 -3.2385 -0.2098 -0.1330
 2900SOL    HW216929   2.961   4.818   2.063  0.5945 -0.3535  0.5761
 2904SOL     OW16930   1.168   4.499   1.565  0.0961 -0.8241 -0.2112
 2904SOL    HW116931   1.233   4.500   1.640  0.6536 -1.7451 -0.6767
 2904SOL    HW216932   1.188   4.575   1.502 -0.2346 -0.1887  0.4456
 2906SOL     OW16933   1.298   4.964   1.393  0.6523 -0.1857  0.2666
 2906SOL    HW116934   1.205   4.979   1.427 -0.0534 -1.0472 -1.2696
 2906SOL    HW216935   1.310   5.011   1.306  1.3519 -0.9050 -0.0347
 2907SOL     OW16936   1.877   3.250   1.580  0.1100  0.0691  0.1971
 2907SOL    HW116937   1.932   3.273   1.499  0.4777  1.3301  0.7968
 2907SOL    HW216938   1.910   3.301   1.659 -2.7159  1.8929  0.3035
 2908SOL     OW16939   3.210   2.646   1.477  0.2676  0.5767  0.0080
 2908SOL    HW116940   3.298   2.604   1.454 -0.4067 -0.5239 -0.6433
 2908SOL    HW216941   3.193   2.637   1.575 -0.0009 -0.9642 -0.1706
 2910SOL     OW16942   9.409   4.644   2.225 -0.6970 -0.3094  0.1121
 2910SOL    HW116943   9.435   4.557   2.183  1.9913  0.4831  0.0547
 2910SOL    HW216944   9.413   4.717   2.157 -0.6752  0.2561  0.7131
 2911SOL     OW16945   9.231   3.911   1.782 -0.2299  0.0815  0.6401
 2911SOL    HW116946   9.156   3.930   1.846 -0.4185 -1.4880  0.8995
 2911SOL    HW216947   9.216   3.822   1.738 -0.3756  1.3766 -2.0069
 2912SOL     OW16948   2.766   9.720   1.589  0.4212  0.2440  0.2763
 2912SOL    HW116949   2.793   9.730   1.685 -1.0837 -1.5541  0.9054
 2912SOL    HW216950   2.684   9.774   1.572  0.7558  0.6587 -0.0569
 2913SOL     OW16951   2.869   5.576   2.050  0.0939  0.0672  0.3286
 2913SOL    HW116952   2.958   5.534   2.034  0.9516  2.1290 -0.4061
 2913SOL    HW216953   2.822   5.591   1.962 -0.9158 -0.8575  0.6965
 2914SOL     OW16954   4.417   3.777   1.587  0.3022 -0.6682  0.3606
 2914SOL    HW116955   4.319   3.786   1.570  0.5866 -0.2167 -1.1080
 2914SOL    HW216956   4.464   3.858   1.551  1.3675 -1.5509 -0.2501
 2915SOL     OW16957   1.685   3.346   0.651 -0.1055 -0.1221  0.2531
 2915SOL    HW116958   1.638   3.310   0.732 -0.8125 -0.3115 -0.2420
 2915SOL    HW216959   1.631   3.326   0.569  2.3333 -3.1269 -0.7116
 2916SOL     OW16960   4.512   3.956   0.558  0.3378 -0.1192 -0.3158
 2916SOL    HW116961   4.494   3.913   0.646  0.9840 -0.1797 -0.2161
 2916SOL    HW216962   4.491   3.892   0.484  0.3951 -0.2825 -0.1896
 2917SOL     OW16963   9.488   4.059   1.665 -0.4166 -0.3577  0.2528
 2917SOL    HW116964   9.551   3.982   1.650 -1.1408 -0.9423  0.1341
 2917SOL    HW216965   9.403   4.024   1.705 -0.8854  0.3339 -0.1339
 2918SOL     OW16966   4.212   2.705   1.153  0.2257  0.4028 -0.4232
 2918SOL    HW116967   4.303   2.673   1.178 -0.4029 -0.1997  1.1789
 2918SOL    HW216968   4.181   2.657   1.071 -0.0398 -1.9458  1.0068
 2919SOL     OW16969   1.721   6.101   2.196 -0.1066  0.2618  0.2062
 2919SOL    HW116970   1.746   6.198   2.190  1.4762 -0.1485  0.0653
 2919SOL    HW216971   1.643   6.091   2.258 -2.3346  1.9836 -2.2325
 2920SOL     OW16972   3.449   2.174   0.794  0.6331 -0.1575 -0.2940
 2920SOL    HW116973   3.410   2.082   0.790  3.0185 -1.2330  0.1542
 2920SOL    HW216974   3.465   2.208   0.701  0.5625 -0.5671 -0.4567
 2921SOL     OW16975   2.230   7.517   0.318  0.1209  0.5715 -0.0285
 2921SOL    HW116976   2.168   7.596   0.316 -0.0537  0.4580  0.6953
 2921SOL    HW216977   2.214   7.460   0.238  0.1254  1.1819 -0.4688
 2922SOL     OW16978   9.625   5.031   1.502 -0.2656 -0.0925  0.5501
 2922SOL    HW116979   9.545   5.039   1.561 -2.0524  0.3236 -1.8693
 2922SOL    HW216980   9.655   4.936   1.499 -1.7442 -0.5602  0.1265
 2923SOL     OW16981   1.845   4.889   2.045 -0.1303 -0.2201 -0.0234
 2923SOL    HW116982   1.782   4.812   2.033 -0.7458  0.4853 -1.4830
 2923SOL    HW216983   1.901   4.874   2.126 -2.5721 -0.5988  1.6657
 2924SOL     OW16984   4.335   9.363   1.387 -0.2046  0.4319 -0.1248
 2924SOL    HW116985   4.239   9.349   1.362 -0.1577 -0.9135  0.4012
 2924SOL    HW216986   4.393   9.325   1.315 -0.0691 -0.6071  0.5314
 2925SOL     OW16987   2.120   4.095   0.781  0.9870 -0.0785 -0.0446
 2925SOL    HW116988   2.181   4.140   0.715 -1.9846  1.5472 -1.7530
 2925SOL    HW216989   2.068   4.164   0.830 -1.6903 -1.5115 -0.8034
 2926SOL     OW16990  10.208   4.843   2.124 -0.3770  0.1871 -0.4467
 2926SOL    HW116991  10.226   4.748   2.102  0.7432  0.5673 -1.1899
 2926SOL    HW216992  10.293   4.889   2.148 -1.0542  0.7382  0.9614
 2927SOL     OW16993   3.085   1.679   1.791  0.0135  0.2830 -0.1424
 2927SOL    HW116994   3.169   1.632   1.817 -0.0533  0.3286  0.1567
 2927SOL    HW216995   3.023   1.682   1.869 -0.3722  0.0228 -0.4365
 2929SOL     OW16996   0.851   5.073   2.144 -0.1746  0.1086 -0.3097
 2929SOL    HW116997   0.794   5.038   2.219 -0.4143  0.9149 -0.1043
 2929SOL    HW216998   0.920   5.135   2.182  0.5498 -0.5244 -0.6101
 2930SOL     OW16999   3.172   6.253   1.299 -0.2774 -0.1520 -0.1823
 2930SOL    HW117000   3.158   6.336   1.245 -1.0941 -1.2311 -1.6731
 2930SOL    HW217001   3.100   6.246   1.368  1.3351  1.7347  1.7104
 2931SOL     OW17002   4.668   2.886   1.301  0.2943 -0.4574 -0.2391
 2931SOL    HW117003   4.633   2.810   1.356  0.0361  1.5207  2.3805
 2931SOL    HW217004   4.591   2.933   1.256  0.2801 -0.5348 -0.2973
 2932SOL     OW17005   1.857   5.866   0.641 -0.5123  0.0867  0.1837
 2932SOL    HW117006   1.784   5.930   0.618 -0.6456  0.0329  0.4474
 2932SOL    HW217007   1.933   5.915   0.683 -0.3032  0.1736 -0.3031
 2933SOL     OW17008   2.544   4.775   1.844  0.6834 -0.1613 -0.2586
 2933SOL    HW117009   2.458   4.816   1.875  0.3510 -1.1205  0.1039
 2933SOL    HW217010   2.538   4.676   1.851  1.6602 -0.2567 -0.6718
 2934SOL     OW17011   4.497   1.192   0.521 -0.8820  0.4558  0.0915
 2934SOL    HW117012   4.448   1.137   0.453 -0.5223 -0.3535  0.4785
 2934SOL    HW217013   4.571   1.243   0.475 -0.3139 -0.4848 -0.0529
 2935SOL     OW17014   1.657   5.297   0.442 -0.6865 -0.6120 -0.0302
 2935SOL    HW117015   1.598   5.291   0.523  0.7893 -0.3388  1.0842
 2935SOL    HW217016   1.663   5.392   0.412 -0.0829 -0.5184  0.3971
 2936SOL     OW17017  10.062   3.954   1.699 -0.0644  0.1953 -0.2899
 2936SOL    HW117018  10.003   3.999   1.766  0.1561  0.2568 -0.1337
 2936SOL    HW217019  10.072   4.011   1.618  0.4845  0.5885  0.0435
 2937SOL     OW17020   4.163   0.125   2.180  0.0605  0.1501  0.4040
 2937SOL    HW117021   4.146   0.030   2.206  2.0697 -0.4264 -0.2873
 2937SOL    HW217022   4.153   0.135   2.081  0.4557  0.5202  0.4003
 2938SOL     OW17023   2.804   4.270   1.510  0.1594  0.0720 -0.2000
 2938SOL    HW117024   2.714   4.283   1.553 -0.0410  2.1773 -1.1800
 2938SOL    HW217025   2.857   4.204   1.563 -1.2966  0.1552  1.4069
 2939SOL     OW17026   5.063   2.359   0.974 -0.4638  0.3359  0.1784
 2939SOL    HW117027   5.037   2.273   0.929 -0.5743  0.7692 -0.5826
 2939SOL    HW217028   5.134   2.340   1.042  0.2726 -0.2040 -0.7342
 2940SOL     OW17029   4.237   9.323   2.148 -0.0091  0.0982 -0.0692
 2940SOL    HW117030   4.311   9.287   2.204 -0.3876 -0.9826 -0.2538
 2940SOL    HW217031   4.255   9.419   2.126  1.8380 -0.4225 -0.9529
 2941SOL     OW17032   2.011   6.513   0.758  0.6167 -0.6096 -0.5773
 2941SOL    HW117033   2.094   6.483   0.712  1.4637 -0.6953  0.9739
 2941SOL    HW217034   2.026   6.602   0.801 -0.3161 -0.2920 -0.8868
 2943SOL     OW17035   2.111   6.260   2.006 -0.3119 -0.4853 -0.5340
 2943SOL    HW117036   2.048   6.209   1.948  0.8542 -1.2456 -1.1405
 2943SOL    HW217037   2.202   6.220   2.001  0.1164  0.2693  0.7604
 2944SOL     OW17038   5.049   3.596   0.537  0.2226 -0.2389  0.6003
 2944SOL    HW117039   5.074   3.567   0.630  1.9826 -1.7044 -0.2970
 2944SOL    HW217040   5.098   3.539   0.471 -0.1964  1.5063 -1.2344
 2945SOL     OW17041   2.808   5.324   0.865  0.1307  0.0477 -0.3775
 2945SOL    HW117042   2.749   5.285   0.794 -0.1472  0.7682 -0.5573
 2945SOL    HW217043   2.817   5.423   0.849 -1.0757  0.4695  1.3914
 2946SOL     OW17044   4.802   3.956   0.585 -0.2741  0.0350  0.4226
 2946SOL    HW117045   4.705   3.978   0.577 -0.2801 -0.1329  0.0128
 2946SOL    HW217046   4.854   4.017   0.526 -0.0869  0.4397  1.0016
 2948SOL     OW17047   3.890   2.568   1.022 -0.4777  0.0453 -0.0774
 2948SOL    HW117048   3.851   2.660   1.013  1.0515  0.8718  1.3555
 2948SOL    HW217049   3.848   2.521   1.100  0.6950  0.6023  0.9149
 2949SOL     OW17050   2.392   8.605   0.444  0.1647  0.2415  0.5638
 2949SOL    HW117051   2.454   8.683   0.436 -1.9808  2.1744  2.3112
 2949SOL    HW217052   2.302   8.631   0.408 -0.2550 -1.8260  0.0823
 2950SOL     OW17053   5.183   3.957   2.348  0.1034 -0.2107  0.2700
 2950SOL    HW117054   5.271   3.962   2.396 -0.5349  0.0843  1.4176
 2950SOL    HW217055   5.112   3.927   2.411 -0.4178 -1.6378 -0.9506
 2951SOL     OW17056   3.476   3.268   0.394  0.2194 -0.3508 -0.3147
 2951SOL    HW117057   3.390   3.299   0.434  0.0625 -1.0681 -0.0751
 2951SOL    HW217058   3.548   3.274   0.463 -0.3158 -2.8043  0.5097
 2952SOL     OW17059   5.186   4.117   0.405 -0.2452 -0.3573 -0.2803
 2952SOL    HW117060   5.177   4.060   0.487  1.3118  1.2916  1.0631
 2952SOL    HW217061   5.123   4.083   0.335 -1.5386 -1.8592  1.5407
 2953SOL     OW17062   9.657   3.464   2.186 -0.4595 -0.3205 -0.1445
 2953SOL    HW117063   9.674   3.557   2.154 -0.1785  0.1883  1.4606
 2953SOL    HW217064   9.565   3.457   2.224  0.0458 -0.2988  1.1194
 2955SOL     OW17065   3.113   8.336   0.880 -0.7180 -0.5392 -0.2105
 2955SOL    HW117066   3.106   8.393   0.962 -0.4782 -1.2911  0.3484
 2955SOL    HW217067   3.022   8.302   0.855 -0.8119 -0.1923 -0.3438
 2956SOL     OW17068   2.013   9.570   1.040  0.2206 -0.3219  0.3944
 2956SOL    HW117069   1.954   9.507   0.990  1.8956 -1.2579 -0.4424
 2956SOL    HW217070   1.978   9.582   1.133 -2.3888  0.6905 -0.6617
 2957SOL     OW17071   3.454   5.837   0.513 -0.3548  0.0299  0.3789
 2957SOL    HW117072   3.474   5.888   0.429  0.8456  1.8469  1.7173
 2957SOL    HW217073   3.503   5.750   0.512 -0.2162  0.1152 -0.7398
 2958SOL     OW17074   1.249   7.425   1.105 -0.1633 -0.7328  0.1240
 2958SOL    HW117075   1.337   7.410   1.150  0.0024  0.7273  0.3207
 2958SOL    HW217076   1.264   7.440   1.007 -0.0412  0.9023  0.3800
 2959SOL     OW17077   2.261   0.038   1.808 -0.5378 -0.5115  0.4816
 2959SOL    HW117078   2.290   0.061   1.715 -1.2331  0.6397  0.5436
 2959SOL    HW217079   2.335   0.058   1.872 -0.8259  0.7711  0.4302
 2960SOL     OW17080   2.513   7.672   0.482 -0.0854  0.6956 -0.5467
 2960SOL    HW117081   2.498   7.683   0.384  2.1106  2.4206 -0.7217
 2960SOL    HW217082   2.560   7.585   0.499  2.2887  1.7681 -1.3694
 2961SOL     OW17083   1.692   2.982   1.499 -0.3663  0.5588  0.4288
 2961SOL    HW117084   1.628   3.021   1.433 -2.7325 -1.5641  1.3822
 2961SOL    HW217085   1.712   3.049   1.570 -4.2667  0.1950  1.9850
 2962SOL     OW17086   1.940   9.155   0.913 -0.2867 -0.2268  0.2121
 2962SOL    HW117087   1.959   9.122   0.820 -0.4193 -0.4187  0.2535
 2962SOL    HW217088   1.932   9.254   0.912 -0.2255 -0.2226  0.0284
 2963SOL     OW17089   4.129   2.729   0.685  0.5165 -0.1585 -0.5013
 2963SOL    HW117090   4.123   2.658   0.756 -1.8132 -1.8145 -2.2694
 2963SOL    HW217091   4.202   2.704   0.621  1.6425  0.5856  0.4604
 2964SOL     OW17092   2.689   8.844   0.596 -0.1248  0.3271  0.2897
 2964SOL    HW117093   2.646   8.863   0.685 -0.9862  0.8849 -0.2409
 2964SOL    HW217094   2.693   8.928   0.542 -1.4336 -0.3925 -0.9797
 2966SOL     OW17095   2.474   4.186   1.676 -0.2843 -0.4038  0.3258
 2966SOL    HW117096   2.397   4.139   1.633  0.9309  0.4472 -2.8848
 2966SOL    HW217097   2.505   4.133   1.756 -2.6874 -1.9395  0.2819
 2967SOL     OW17098   4.554   2.273   1.505 -0.5898  0.1391  0.3447
 2967SOL    HW117099   4.644   2.230   1.501 -0.2484  0.6574  2.2557
 2967SOL    HW217100   4.491   2.214   1.557  0.0528  2.1733  3.5513
 2968SOL     OW17101   2.937   5.471   1.358 -0.1463  0.1002  0.6092
 2968SOL    HW117102   2.883   5.395   1.320  2.2899 -0.8772 -1.0290
 2968SOL    HW217103   2.932   5.550   1.296  0.6451 -0.1550  0.2069
 2969SOL     OW17104   3.621   2.269   0.948 -0.3616 -0.1062  0.1254
 2969SOL    HW117105   3.549   2.222   0.897  0.6158  0.0148 -1.4092
 2969SOL    HW217106   3.704   2.273   0.892 -0.1248  2.6153  0.5926
 2971SOL     OW17107   3.075   0.483   1.029 -0.2019  0.4890  0.1645
 2971SOL    HW117108   3.165   0.510   0.996  1.1573 -1.4839  2.1567
 2971SOL    HW217109   3.063   0.385   1.015 -0.6142  0.0757  3.1018
 2972SOL     OW17110   3.501   7.570   0.660  0.7026  0.1305 -0.0643
 2972SOL    HW117111   3.572   7.605   0.599  0.3746  1.2186  0.1756
 2972SOL    HW217112   3.520   7.599   0.754  1.1357 -1.4294  0.3543
 2973SOL     OW17113   1.938   5.845   1.876  0.6413  0.1366  0.0993
 2973SOL    HW117114   2.002   5.768   1.884 -0.0683 -0.3547  1.1456
 2973SOL    HW217115   1.875   5.827   1.800 -0.0777 -0.7454  0.8837
 2974SOL     OW17116   3.422   1.194   2.045 -0.9368  0.0247  0.2173
 2974SOL    HW117117   3.491   1.214   1.975 -1.8405 -1.2696 -1.1001
 2974SOL    HW217118   3.416   1.095   2.057  0.3355  0.2890  3.3274
 2976SOL     OW17119   1.799   7.808   1.880 -0.1034  0.2875 -0.5142
 2976SOL    HW117120   1.711   7.846   1.852 -0.0757  0.7228 -0.0216
 2976SOL    HW217121   1.789   7.711   1.901 -0.3913  0.2548 -0.8038
 2977SOL     OW17122   2.320   9.744   1.420  0.8244  0.0054  0.4748
 2977SOL    HW117123   2.283   9.754   1.328  1.1880  0.5824  0.3825
 2977SOL    HW217124   2.391   9.673   1.421 -0.8069 -1.6485  0.8216
 2978SOL     OW17125  10.124   3.291   1.012  0.0290  0.2417 -0.0061
 2978SOL    HW117126  10.215   3.294   1.053 -0.7836 -1.9349  2.0301
 2978SOL    HW217127  10.056   3.322   1.079 -1.2554 -2.8797  0.1809
 2979SOL     OW17128   2.000   4.739   1.574  0.2257 -0.2756  0.4941
 2979SOL    HW117129   2.007   4.830   1.613 -0.6324  0.3738 -0.8353
 2979SOL    HW217130   1.908   4.702   1.591  0.7179 -1.0995  1.4467
 2980SOL     OW17131   1.852  -0.174   0.911 -0.0582  0.6152 -0.2120
 2980SOL    HW117132   1.933  -0.119   0.930  0.6122 -0.1733 -0.7649
 2980SOL    HW217133   1.863  -0.265   0.951 -1.1162  0.8303  0.6073
 2981SOL     OW17134   2.635   6.638   1.353 -0.2382 -0.6546 -0.3592
 2981SOL    HW117135   2.536   6.626   1.338 -0.4589 -0.0320  0.5427
 2981SOL    HW217136   2.653   6.644   1.451  0.4669  1.0902 -0.5794
 2982SOL     OW17137   1.511   5.933   0.417  0.5860  0.0862  0.0801
 2982SOL    HW117138   1.467   5.982   0.342  0.8168  0.3744  0.1336
 2982SOL    HW217139   1.443   5.908   0.486  0.7535  1.9369  0.9454
 2983SOL     OW17140   1.558   4.140   0.920  0.0073  0.2366  0.9041
 2983SOL    HW117141   1.560   4.239   0.904  1.7817  0.0915  0.0676
 2983SOL    HW217142   1.542   4.093   0.833 -1.7982 -0.2006  1.4495
 2984SOL     OW17143   4.572   3.020   2.050 -0.0151  0.0216 -0.2633
 2984SOL    HW117144   4.641   3.037   1.979 -0.3525  2.5991 -0.0263
 2984SOL    HW217145   4.538   3.108   2.084 -1.1096 -1.2160  1.8812
 2985SOL     OW17146   2.183   4.932   1.145 -0.0684  0.6597 -0.4539
 2985SOL    HW117147   2.154   4.876   1.068 -0.4036  0.4331 -0.1597
 2985SOL    HW217148   2.133   5.019   1.145  0.8003  1.1717 -1.1938
 2986SOL     OW17149   1.845   1.988   0.926 -0.5692 -0.1322  0.2524
 2986SOL    HW117150   1.817   2.048   1.000  0.7135  0.9432 -0.1185
 2986SOL    HW217151   1.866   1.897   0.963  0.1259  0.4108  1.2176
 2987SOL     OW17152   4.530   0.683   1.820 -0.9095  0.2084 -0.3316
 2987SOL    HW117153   4.491   0.603   1.866  0.0298 -0.1426 -0.1324
 2987SOL    HW217154   4.471   0.762   1.835 -0.5207  0.1454  1.6365
  10.00000  10.00000   2.83200
